Title
29212
    1ASP      N    1   6.610   6.585   2.850 -0.2963 -1.0672 -0.1513
    1ASP    HT1    2   6.553   6.507   2.813 -0.7933 -0.1140 -1.4628
    1ASP    HT2    3   6.709   6.551   2.849 -0.1504 -0.6521 -0.1939
    1ASP    HT3    4   6.606   6.667   2.787 -2.5057  0.1698  1.4630
    1ASP     CA    5   6.552   6.638   2.987  0.1602 -0.5752  0.3651
    1ASP     HA    6   6.580   6.571   3.067  1.5636 -0.7708 -0.2639
    1ASP     CB    7   6.614   6.774   3.024 -0.0930 -0.5069 -0.7100
    1ASP    HB1    8   6.560   6.856   2.972 -1.1569 -1.2943 -0.8798
    1ASP    HB2    9   6.720   6.773   2.991 -0.4942 -4.7050 -2.4332
    1ASP     CG   10   6.625   6.792   3.177  0.5272  0.3378  0.1001
    1ASP    OD1   11   6.610   6.907   3.223  0.0543  0.1132  0.2567
    1ASP    OD2   12   6.673   6.697   3.250  0.4576 -0.5978 -0.0330
    1ASP      C   13   6.397   6.654   2.980 -0.3638  0.4032  0.1467
    1ASP      O   14   6.341   6.668   2.874 -0.3284  0.1931  0.1215
    2GLY      N   15   6.322   6.663   3.088 -0.3406  0.2310 -0.4971
    2GLY     HN   16   6.364   6.647   3.177  0.3451 -1.1657 -1.0468
    2GLY     CA   17   6.184   6.706   3.094 -0.1542 -0.2682 -0.3165
    2GLY    HA1   18   6.161   6.717   3.199 -0.7666  2.1661 -0.6430
    2GLY    HA2   19   6.121   6.634   3.045 -0.7581  1.5989 -2.4810
    2GLY      C   20   6.161   6.847   3.045  0.7140 -0.0125 -0.4375
    2GLY      O   21   6.248   6.925   3.010  0.1901 -0.0150 -0.6700
    3ASP      N   22   6.033   6.871   3.018 -0.4829  0.3663 -0.1508
    3ASP     HN   23   5.966   6.806   3.054  0.3999  0.7864  2.4762
    3ASP     CA   24   5.977   6.987   2.963  0.3273 -0.3265 -0.5111
    3ASP     HA   25   6.051   7.031   2.897  1.5005 -0.5001  0.6501
    3ASP     CB   26   5.847   6.963   2.888  0.2494  0.1384  0.0683
    3ASP    HB1   27   5.803   7.062   2.863 -2.5875 -1.8903 -4.1300
    3ASP    HB2   28   5.773   6.911   2.952  1.2708 -2.2048 -0.5549
    3ASP     CG   29   5.864   6.892   2.754  0.2425  0.1720  0.2331
    3ASP    OD1   30   5.778   6.805   2.717 -1.0377  0.4137 -0.1916
    3ASP    OD2   31   5.958   6.922   2.679  0.2098  0.5962 -0.1587
    3ASP      C   32   5.958   7.096   3.072 -0.0166 -0.3547 -0.2309
    3ASP      O   33   5.911   7.061   3.180  0.2645 -0.1117  0.0108
    4GLY      N   34   5.995   7.229   3.051  0.2092  0.2833  0.3626
    4GLY     HN   35   6.058   7.253   2.978 -0.7960  2.1022  0.0222
    4GLY     CA   36   5.946   7.332   3.138 -0.7314  0.0321  0.8199
    4GLY    HA1   37   6.003   7.418   3.107 -0.6686 -0.1475  0.4308
    4GLY    HA2   38   5.973   7.309   3.240  1.5614  1.7214  0.6671
    4GLY      C   39   5.796   7.354   3.123 -0.4565  0.0103 -0.0981
    4GLY      O   40   5.721   7.277   3.068 -0.4109 -0.4173  0.3038
    5PRO      N   41   5.750   7.462   3.178  0.4897  0.1269 -0.6847
    5PRO     CD   42   5.815   7.539   3.283 -0.4949  0.4042 -0.3035
    5PRO    HD1   43   5.911   7.583   3.246 -0.1507  0.1676  0.2910
    5PRO    HD2   44   5.833   7.490   3.381  1.4627  2.4458  0.4543
    5PRO     CA   45   5.623   7.517   3.140  0.6654  0.3774 -0.6708
    5PRO     HA   46   5.550   7.438   3.131 -0.0290  1.0304 -0.8609
    5PRO     CB   47   5.591   7.612   3.254 -0.2185  0.2787 -0.0029
    5PRO    HB1   48   5.539   7.552   3.331  1.0266 -1.1251 -0.1938
    5PRO    HB2   49   5.518   7.689   3.223 -1.1773 -0.4770  0.3354
    5PRO     CG   50   5.721   7.661   3.305 -0.0445  0.1329  0.2209
    5PRO    HG1   51   5.747   7.738   3.229 -0.2692 -1.4455 -1.5340
    5PRO    HG2   52   5.731   7.704   3.407  0.3025 -0.1756  0.3173
    5PRO      C   53   5.634   7.586   2.995  0.0104  0.1890 -0.2562
    5PRO      O   54   5.746   7.616   2.954 -0.6036 -0.0725  0.1963
    6GLY      N   55   5.521   7.581   2.917 -0.4511 -0.4117 -0.6850
    6GLY     HN   56   5.445   7.528   2.952  0.1524 -1.5259 -1.0011
    6GLY     CA   57   5.512   7.634   2.782 -0.1097  0.2953 -0.0048
    6GLY    HA1   58   5.417   7.603   2.742 -0.2671  1.2857 -0.4217
    6GLY    HA2   59   5.602   7.595   2.735  0.4959  2.0024 -0.3075
    6GLY      C   60   5.532   7.783   2.761  0.2456 -0.8996 -0.7422
    6GLY      O   61   5.553   7.859   2.861  0.3455  0.1807  0.1356
    7ASP      N   62   5.505   7.837   2.645 -0.1582 -0.0344  0.2327
    7ASP     HN   63   5.493   7.793   2.556  1.4261  0.1809 -0.1193
    7ASP     CA   64   5.489   7.978   2.618  0.1964  0.1023 -0.5416
    7ASP     HA   65   5.571   8.036   2.660  0.1350  0.8825 -1.4450
    7ASP     CB   66   5.487   7.995   2.467 -0.1212 -0.2766 -0.2047
    7ASP    HB1   67   5.437   8.092   2.444 -3.0868 -1.5776  0.2191
    7ASP    HB2   68   5.417   7.927   2.413 -1.3755  0.0709  0.9382
    7ASP     CG   69   5.628   7.979   2.412 -0.3748 -0.3853 -0.2947
    7ASP    OD1   70   5.722   8.033   2.473  0.2537 -0.0900 -0.2666
    7ASP    OD2   71   5.650   7.916   2.304  0.4632  0.1874  0.0482
    7ASP      C   72   5.362   8.026   2.693 -0.2813 -0.8725  0.6706
    7ASP      O   73   5.259   7.958   2.683 -0.4463 -0.3295  0.0842
    8PRO      N   74   5.367   8.137   2.770  0.6576 -0.0264  0.1115
    8PRO     CD   75   5.472   8.244   2.765  0.1067 -0.1523  0.4293
    8PRO    HD1   76   5.463   8.296   2.667  0.2060 -1.2576 -0.1801
    8PRO    HD2   77   5.572   8.197   2.774  1.6829  2.2918 -2.5345
    8PRO     CA   78   5.245   8.186   2.838 -0.3433  0.2430 -0.1228
    8PRO     HA   79   5.223   8.119   2.920 -0.7527 -1.1115 -1.2928
    8PRO     CB   80   5.282   8.324   2.890  0.4040 -1.0430  0.0391
    8PRO    HB1   81   5.234   8.351   2.987  0.8050 -3.2700  0.9359
    8PRO    HB2   82   5.254   8.407   2.822  1.1112 -1.0443 -0.2649
    8PRO     CG   83   5.434   8.315   2.895  0.2870 -0.3028 -0.0574
    8PRO    HG1   84   5.471   8.420   2.897  1.7843 -0.8195  0.2008
    8PRO    HG2   85   5.472   8.266   2.987 -1.1101 -1.8070 -0.2346
    8PRO      C   86   5.112   8.187   2.751 -1.0488  0.2401  0.1982
    8PRO      O   87   5.116   8.232   2.634  0.1112  0.6857 -0.2664
    9GLY      N   88   5.005   8.140   2.817 -0.2434 -0.4024  0.1211
    9GLY     HN   89   5.021   8.100   2.907 -0.7687  0.7251  0.7441
    9GLY     CA   90   4.866   8.165   2.779  0.1129  0.1532  0.0127
    9GLY    HA1   91   4.809   8.114   2.855 -0.6585  2.4347  1.0636
    9GLY    HA2   92   4.853   8.120   2.681  1.8273 -1.3918  0.4366
    9GLY      C   93   4.819   8.311   2.779  0.3534 -0.5507  0.1661
    9GLY      O   94   4.894   8.405   2.803 -0.4294 -0.2275 -0.2722
   10ASP      N   95   4.690   8.328   2.733 -0.4375  0.2976  0.0255
   10ASP     HN   96   4.635   8.255   2.694 -1.0107  0.6557  0.1408
   10ASP     CA   97   4.640   8.462   2.710 -0.1135 -0.4528 -0.3793
   10ASP     HA   98   4.726   8.520   2.680 -0.0768  0.5327  1.5276
   10ASP     CB   99   4.528   8.465   2.594 -0.4523 -0.1248  0.0870
   10ASP    HB1  100   4.496   8.572   2.596 -0.0051  0.0741 -1.7832
   10ASP    HB2  101   4.443   8.406   2.632 -0.4089  0.7476  1.6685
   10ASP     CG  102   4.584   8.434   2.459 -0.2313 -0.3287  0.0868
   10ASP    OD1  103   4.530   8.354   2.384 -0.2055  0.2003 -0.0668
   10ASP    OD2  104   4.698   8.482   2.426  0.7131  0.0122 -0.5535
   10ASP      C  105   4.584   8.512   2.842  0.8578 -0.1669  0.0191
   10ASP      O  106   4.589   8.629   2.871  0.3797 -0.5990  0.0669
   11GLY      N  107   4.536   8.420   2.925 -0.3537 -0.1548 -0.0193
   11GLY     HN  108   4.531   8.328   2.887  1.4533 -1.2190  2.0965
   11GLY     CA  109   4.495   8.423   3.075 -0.0447  0.4325 -0.3932
   11GLY    HA1  110   4.389   8.401   3.067 -0.2353  0.8107  0.8121
   11GLY    HA2  111   4.514   8.515   3.130 -0.4527 -0.3584  1.1380
   11GLY      C  112   4.577   8.319   3.148  0.1594  0.8431  0.7571
   11GLY    OT1  113   4.686   8.348   3.208  0.0079 -0.2965  0.5077
   11GLY    OT2  114   4.526   8.201   3.156  0.0305 -0.5484  0.5692
   12LIT    LIT  115   3.080   5.458   4.120 -0.3835  0.0006 -0.1172
   13LIT    LIT  116   2.115   1.677   4.741 -0.4286  0.1610  0.7311
   14LIT    LIT  117   4.881   3.179   3.721 -0.5011 -0.2055 -0.3702
   15LIT    LIT  118   1.031   5.221   4.154  0.0289 -0.3876 -0.4853
   16LIT    LIT  119   7.083   1.375   3.286  0.3183  0.1499  0.1652
   17LIT    LIT  120   3.441   3.643   4.076  0.5609 -0.6419 -0.9165
   18LIT    LIT  121   3.678   4.871   2.941  1.1650  0.7580  0.2530
   19LIT    LIT  122   2.165   0.024   1.953 -0.0756  0.2343  0.5184
   20LIT    LIT  123   5.356   3.738   1.674  0.5200 -0.2262  0.2194
   21LIT    LIT  124   1.962   3.751   0.886 -0.2056  0.1392 -0.2822
   22LIT    LIT  125   4.821   0.423   0.411 -1.2559  0.3451 -0.4522
   23LIT    LIT  126   0.473   2.558   2.582 -0.3033 -0.0354 -0.1543
   24LIT    LIT  127   6.695   3.783   5.398  0.1560  0.3172  0.7781
   25LIT    LIT  128   1.037   1.159   2.361  0.3218 -0.5734 -1.1255
   26LIT    LIT  129   7.125   1.604   2.263 -0.3495 -0.1829 -0.0766
   27LIT    LIT  130   0.355   5.481   3.760 -0.0959 -0.0521 -0.9165
   28LIT    LIT  131   4.538   0.392   4.947  1.9619 -0.4343 -0.4347
   29LIT    LIT  132   6.189   4.547   2.991  0.8769  0.0978 -0.9000
   30LIT    LIT  133   1.960   5.140   5.451  0.1948  0.0243  0.8141
   31LIT    LIT  134   5.252   0.836   0.519  0.0862  0.0118 -0.0285
   32LIT    LIT  135   3.115   5.026   2.000 -0.4085 -0.1217  0.0378
   33LIT    LIT  136   0.750   6.727   4.452  0.1902  0.9930 -0.2384
   34LIT    LIT  137   5.794   4.530   1.696 -0.3465  0.0719 -0.2203
   35LIT    LIT  138   1.497   3.784   3.510  0.2294 -1.5494  0.4555
   36LIT    LIT  139   0.900   2.858   0.512 -0.3460 -0.1094 -0.9867
   37LIT    LIT  140   1.224   0.869   5.375 -0.0000 -0.2514 -0.5071
   38LIT    LIT  141   1.721   2.293   1.973  0.0387  0.8932 -0.4847
   39LIT    LIT  142   6.803   6.574   3.291 -0.3888 -0.1043 -0.2918
   40LIT    LIT  143   6.495   1.510   2.428 -0.1266  0.4547  0.5008
   41LIT    LIT  144   1.108   1.270   4.483 -0.3136  0.6498  0.7815
   42LIT    LIT  145   6.036   6.763   2.629  0.5687  0.5297  0.1924
   43CLA    CLA  146   6.587   1.305   2.383 -0.2149  0.0225  0.4224
   44CLA    CLA  147   6.991   3.192   1.352  0.1005  0.3967  0.0396
   45CLA    CLA  148   4.374   0.485   0.540 -0.0316  0.1223 -0.2908
   46CLA    CLA  149   6.699   6.355   3.308 -0.1845 -0.2655 -0.3837
   47CLA    CLA  150   1.289   0.668   4.812  0.0406  0.0129  0.1375
   48CLA    CLA  151   4.938   1.767   3.215  0.2070 -0.2215 -0.6809
   49CLA    CLA  152   4.772   2.652   2.779  0.0454 -0.4904  0.2749
   50CLA    CLA  153   6.055   5.716   4.457  0.0569  0.0005 -0.2025
   51CLA    CLA  154   6.204   1.319   2.735  0.1004 -0.0103 -0.5435
   52CLA    CLA  155   5.583   4.369   0.012 -0.0029 -0.2499 -0.2496
   53CLA    CLA  156   4.186   3.488   2.287 -0.0716 -0.3243 -0.1714
   54CLA    CLA  157   1.183   0.261   4.581  0.0619 -0.1329 -0.1245
   55CLA    CLA  158   1.983   1.721   5.494 -0.1174 -0.0315 -0.2216
   56CLA    CLA  159   2.339   5.395   5.312 -0.0858 -0.1061  0.1486
   57CLA    CLA  160   0.984   5.534   4.971 -0.2931  0.0000 -0.4964
   58CLA    CLA  161   0.923   6.782   4.319 -0.3883  0.2587  0.1575
   59CLA    CLA  162   5.874   2.639   1.289 -0.1096  0.0863 -0.1090
   60CLA    CLA  163   1.751   3.246   1.437  0.3545 -0.0017  0.2703
   61CLA    CLA  164   0.134   6.034   3.243 -0.2842  0.3176 -0.1929
   62CLA    CLA  165   2.424   5.877   0.135 -0.2252  0.0701  0.1864
   63CLA    CLA  166   5.431   5.150   3.167 -0.0791  0.2870 -0.3558
   64CLA    CLA  167   0.656   1.215   4.386  0.2758  0.2472 -0.1480
   65CLA    CLA  168   2.117   2.423   5.006  0.1806 -0.2309 -0.2083
   66CLA    CLA  169   1.146   5.052   2.580  0.1847  0.3856 -0.5686
   67CLA    CLA  170   7.123   2.922   0.224 -0.1114 -0.2335  0.5035
   68CLA    CLA  171   4.525   0.731   4.458 -0.2572  0.1700  0.2159
   69CLA    CLA  172   1.980   6.146   4.556  0.0768 -0.1729 -0.2493
   70TIP3   OH2  173   5.671   4.634   0.719 -0.1842 -0.3189  0.1775
   70TIP3    H1  174   5.759   4.670   0.713 -0.5987  0.8813  0.8096
   70TIP3    H2  175   5.667   4.568   0.650  1.0836 -0.1346 -0.1001
   71TIP3   OH2  176   7.103   2.218   4.373  0.8335 -0.3480  0.3073
   71TIP3    H1  177   7.183   2.214   4.425  0.1243 -1.1800  1.3816
   71TIP3    H2  178   7.063   2.301   4.398  0.0461 -1.1429  1.8382
   72TIP3   OH2  179   6.467   1.360   4.112  0.5499  0.1467 -0.2086
   72TIP3    H1  180   6.557   1.377   4.140  0.6142 -0.6321  0.0608
   72TIP3    H2  181   6.433   1.298   4.176  0.4295 -1.0329 -1.3932
   73TIP3   OH2  182   3.164   6.572   5.816  0.3631  0.3682  0.2178
   73TIP3    H1  183   3.157   6.610   5.728  2.6186  0.5780  0.0594
   73TIP3    H2  184   3.075   6.572   5.850 -0.4926  0.7475 -1.8755
   74TIP3   OH2  185   2.707   3.962   4.474  0.1730 -0.0067 -0.9514
   74TIP3    H1  186   2.792   3.971   4.430 -0.4491  2.5769 -1.8272
   74TIP3    H2  187   2.675   3.876   4.447  1.6786 -0.2248 -2.1681
   75TIP3   OH2  188   2.662   4.326   3.375  0.3030  0.2398  0.1644
   75TIP3    H1  189   2.754   4.341   3.355  1.1582 -0.8835  2.8011
   75TIP3    H2  190   2.645   4.379   3.452 -1.3743  0.6389 -0.4300
   76TIP3   OH2  191   5.679   2.178   5.523  0.2852 -0.5272  0.2445
   76TIP3    H1  192   5.771   2.202   5.515 -0.0516  0.1459 -2.3876
   76TIP3    H2  193   5.679   2.083   5.531  1.1994 -0.5918 -0.4172
   77TIP3   OH2  194   2.501   5.276   0.850 -0.2309 -0.0605  0.6003
   77TIP3    H1  195   2.434   5.213   0.877 -0.8470  0.8460  1.2476
   77TIP3    H2  196   2.571   5.223   0.814 -1.0379 -1.0743  0.4867
   78TIP3   OH2  197   4.894   3.341   1.167 -0.0760  0.6043  0.1174
   78TIP3    H1  198   4.812   3.344   1.215  0.7039  1.2601  1.4979
   78TIP3    H2  199   4.869   3.326   1.076 -1.5894 -1.3496  0.7846
   79TIP3   OH2  200   1.279   1.935   2.942 -0.4314  0.2046 -0.1831
   79TIP3    H1  201   1.251   2.006   3.000  0.6031  2.1043 -1.8504
   79TIP3    H2  202   1.203   1.918   2.887 -0.6101  0.2249  0.0592
   80TIP3   OH2  203   1.338   4.898   3.302  0.0840 -0.5705 -0.2020
   80TIP3    H1  204   1.372   4.852   3.380  0.6303 -0.0801 -0.1489
   80TIP3    H2  205   1.285   4.969   3.338  0.2476 -0.4109 -0.2730
   81TIP3   OH2  206   3.513   3.800   3.475 -0.2308  0.1031  0.5794
   81TIP3    H1  207   3.588   3.842   3.517 -0.1275  1.1372 -0.5829
   81TIP3    H2  208   3.507   3.842   3.389 -1.6248 -0.5651  0.3250
   82TIP3   OH2  209   7.127   6.085   4.769  0.1519  0.5054  0.4039
   82TIP3    H1  210   7.172   6.007   4.801  0.1087  0.7307  1.0306
   82TIP3    H2  211   7.197   6.146   4.746  0.1835  0.9059  1.5034
   83TIP3   OH2  212   1.115   5.691   5.508  0.1577  0.2005 -0.4423
   83TIP3    H1  213   1.099   5.636   5.432 -0.2996 -0.9644  0.4703
   83TIP3    H2  214   1.036   5.684   5.561  1.6326 -1.7138  1.7379
   84TIP3   OH2  215   5.207   2.747   5.481 -0.0208 -0.0994  0.0972
   84TIP3    H1  216   5.248   2.756   5.567  1.0751  0.6602 -0.4847
   84TIP3    H2  217   5.277   2.767   5.418 -1.2972  1.4770 -0.9327
   85TIP3   OH2  218   5.923   1.769   4.296 -0.3246  0.3221  0.1645
   85TIP3    H1  219   6.017   1.759   4.311 -0.7046 -2.3172  1.2987
   85TIP3    H2  220   5.903   1.857   4.327  2.0238  1.6734 -1.8492
   86TIP3   OH2  221   2.563   0.845   5.414 -0.6888  0.2681  0.1118
   86TIP3    H1  222   2.490   0.826   5.473 -1.6824 -0.7405 -1.3858
   86TIP3    H2  223   2.522   0.874   5.333  0.5609 -0.5934 -0.8584
   87TIP3   OH2  224   6.866   3.859   1.893 -0.5058 -0.1645 -0.2508
   87TIP3    H1  225   6.909   3.856   1.978 -0.5624  0.1870 -0.2077
   87TIP3    H2  226   6.864   3.768   1.863 -0.8688 -0.3441  0.3149
   88TIP3   OH2  227   3.648   2.844   3.746 -0.0871  0.0414 -0.3878
   88TIP3    H1  228   3.656   2.924   3.694 -0.4685  0.5524  0.3204
   88TIP3    H2  229   3.721   2.789   3.717 -0.2263  0.3584 -1.3683
   89TIP3   OH2  230   6.553   5.769   0.743 -0.1550 -0.0584 -0.1694
   89TIP3    H1  231   6.627   5.713   0.766  0.1700  0.6582  0.5465
   89TIP3    H2  232   6.542   5.827   0.818  0.7748  2.2044 -1.6691
   90TIP3   OH2  233   5.851   0.163   5.816 -0.5504 -0.3820 -0.5191
   90TIP3    H1  234   5.855   0.118   5.731 -0.7122 -1.9645  0.2785
   90TIP3    H2  235   5.926   0.129   5.865 -0.5426  0.4123  0.0393
   91TIP3   OH2  236   3.448   3.217   0.593 -0.0555  0.1203  0.6153
   91TIP3    H1  237   3.488   3.148   0.540 -1.3003 -1.6060  1.8383
   91TIP3    H2  238   3.467   3.193   0.683 -2.4228  0.0960  1.1712
   92TIP3   OH2  239   2.279   3.364   1.365 -0.2437 -0.4718  0.1488
   92TIP3    H1  240   2.340   3.291   1.355  0.1303 -0.0313 -0.9557
   92TIP3    H2  241   2.193   3.322   1.375  0.0423 -1.0648  0.1778
   93TIP3   OH2  242   2.583   0.759   3.255 -0.4653 -0.1877  0.5778
   93TIP3    H1  243   2.639   0.769   3.177 -0.5729  2.0427  0.7124
   93TIP3    H2  244   2.587   0.666   3.276  0.6327 -0.6166 -1.3130
   94TIP3   OH2  245   0.185   3.680   0.797  0.8076  0.0623  0.0803
   94TIP3    H1  246   0.277   3.671   0.824  0.5950 -0.7248  0.5739
   94TIP3    H2  247   0.188   3.737   0.721  1.7112  0.0734  0.1148
   95TIP3   OH2  248   2.098   6.611   2.744 -0.1908 -0.0358 -0.1647
   95TIP3    H1  249   2.037   6.538   2.730 -0.5623  0.4902 -1.3979
   95TIP3    H2  250   2.104   6.654   2.659  2.4060 -0.4397 -0.2646
   96TIP3   OH2  251   6.905   5.968   5.460  0.4671  0.0873  0.0188
   96TIP3    H1  252   6.967   6.032   5.495  1.5783 -0.1207 -1.4924
   96TIP3    H2  253   6.883   6.001   5.372 -1.1395 -0.1538  0.2935
   97TIP3   OH2  254   3.095   0.035   3.069  0.3447  0.1167  0.4766
   97TIP3    H1  255   3.077   0.095   2.997  1.0498 -0.3865 -0.1376
   97TIP3    H2  256   3.011  -0.008   3.086  0.2638 -0.0735 -0.3418
   98TIP3   OH2  257   1.353   0.500   2.815 -0.7034 -0.2468 -0.5257
   98TIP3    H1  258   1.333   0.587   2.780  1.7776  0.2978 -0.7702
   98TIP3    H2  259   1.371   0.448   2.737  2.4639  0.3340 -0.3002
   99TIP3   OH2  260   0.416   4.225   2.048  0.1219 -0.2756 -0.0032
   99TIP3    H1  261   0.353   4.254   1.981 -1.4005 -0.9595  1.0635
   99TIP3    H2  262   0.433   4.303   2.100  0.2018 -0.0721 -0.3304
  100TIP3   OH2  263   0.251   3.779   3.324  0.0867 -0.0574  0.2539
  100TIP3    H1  264   0.223   3.869   3.340  1.2634  0.2985  0.4530
  100TIP3    H2  265   0.330   3.788   3.271  0.9844 -0.8993  1.3831
  101TIP3   OH2  266   3.670   5.950   4.389 -0.7629  0.1508 -0.1581
  101TIP3    H1  267   3.733   5.965   4.319  1.1350  2.0703  1.8246
  101TIP3    H2  268   3.634   6.036   4.408  0.3522  0.1127  2.5782
  102TIP3   OH2  269   5.935   4.791   0.574 -0.6597 -0.0389 -0.0029
  102TIP3    H1  270   5.881   4.854   0.526  0.3001  1.8474  1.2230
  102TIP3    H2  271   6.016   4.784   0.523 -0.3659  0.5606  0.3562
  103TIP3   OH2  272   7.080   3.527   4.004  0.0674  0.1180 -0.2514
  103TIP3    H1  273   7.054   3.559   4.090 -0.6773  0.0761 -0.4516
  103TIP3    H2  274   7.073   3.603   3.947  1.3777  0.3534 -0.1271
  104TIP3   OH2  275   0.784   5.514   5.467 -0.5435  0.1884 -0.5992
  104TIP3    H1  276   0.809   5.551   5.382 -2.0873  1.2180 -0.6564
  104TIP3    H2  277   0.814   5.579   5.531  2.4501 -1.5206 -0.1024
  105TIP3   OH2  278   6.750   3.702   4.343 -0.4240  0.7795  0.1546
  105TIP3    H1  279   6.668   3.742   4.314 -1.3015 -1.4099 -0.5460
  105TIP3    H2  280   6.729   3.610   4.356  1.4402  0.5372  2.0189
  106TIP3   OH2  281   3.906   5.462   0.153 -0.4014 -0.0081  0.6486
  106TIP3    H1  282   3.849   5.484   0.079 -1.0481  2.2044  1.7144
  106TIP3    H2  283   3.972   5.404   0.115 -1.9292 -0.7012 -1.1695
  107TIP3   OH2  284   4.206   3.257   3.227 -0.3447  0.8572  0.1548
  107TIP3    H1  285   4.215   3.208   3.145 -0.7365  2.3328 -0.8173
  107TIP3    H2  286   4.150   3.202   3.282  0.7622 -0.6344 -0.1400
  108TIP3   OH2  287   2.965   4.469   2.560 -0.3749 -0.0186 -0.4689
  108TIP3    H1  288   2.991   4.380   2.584 -0.0584  0.8563  2.9827
  108TIP3    H2  289   2.874   4.476   2.587 -0.9190  0.2590 -2.2731
  109TIP3   OH2  290   1.309   6.444   5.709 -0.0759  0.0559 -0.6606
  109TIP3    H1  291   1.378   6.504   5.738  0.7293 -1.0735 -0.1956
  109TIP3    H2  292   1.228   6.486   5.739  0.5371  0.4051  0.5925
  110TIP3   OH2  293   1.230   1.127   4.452  0.0314 -0.8020 -0.2446
  110TIP3    H1  294   1.305   1.125   4.393 -0.7389 -1.4454 -1.2278
  110TIP3    H2  295   1.209   1.034   4.468 -1.0002 -0.6381 -0.5696
  111TIP3   OH2  296   1.856   0.788   2.960  0.1674  0.2113  0.5111
  111TIP3    H1  297   1.851   0.882   2.941 -2.6239  0.0719  0.1772
  111TIP3    H2  298   1.766   0.757   2.953  1.0681 -2.6266  0.1321
  112TIP3   OH2  299   6.408   3.624   0.310 -0.2905  0.8433 -0.2690
  112TIP3    H1  300   6.321   3.620   0.268 -0.4297  0.2824  0.0533
  112TIP3    H2  301   6.467   3.588   0.244 -0.8186 -2.2058  0.7346
  113TIP3   OH2  302   5.958   1.903   5.308 -0.6305  0.3585 -0.4343
  113TIP3    H1  303   6.039   1.859   5.283 -0.6601  0.0333  0.0291
  113TIP3    H2  304   5.912   1.840   5.364 -0.1382  1.3936  1.1964
  114TIP3   OH2  305   6.683   2.201   1.525  0.9295  0.8139 -0.4669
  114TIP3    H1  306   6.683   2.293   1.552  2.2905  0.0772  2.5240
  114TIP3    H2  307   6.661   2.154   1.605  1.1898 -1.5255 -1.7090
  115TIP3   OH2  308   5.196   5.880   0.957  0.1614  0.4811  0.1604
  115TIP3    H1  309   5.112   5.905   0.919  0.1715  0.8596  0.3854
  115TIP3    H2  310   5.174   5.843   1.043  0.1989  0.2797  0.0849
  116TIP3   OH2  311   2.618   0.248   1.143 -0.3875 -0.3239  0.0029
  116TIP3    H1  312   2.704   0.235   1.103 -0.0760 -0.8787  0.8328
  116TIP3    H2  313   2.637   0.297   1.224 -1.0267  0.9416 -0.5795
  117TIP3   OH2  314   2.892   6.133   2.492  0.1947 -0.6132 -0.0340
  117TIP3    H1  315   2.815   6.076   2.481 -0.3967  0.5597 -2.6182
  117TIP3    H2  316   2.899   6.180   2.409  0.7684  2.9447  1.8631
  118TIP3   OH2  317   2.158   0.992   2.636 -0.2535 -0.0036  0.0821
  118TIP3    H1  318   2.171   0.900   2.616  0.7222  0.2432 -0.5253
  118TIP3    H2  319   2.088   1.021   2.577  1.8823  0.4685 -2.4214
  119TIP3   OH2  320   2.781   4.061   5.067  0.3049 -0.3279 -0.3301
  119TIP3    H1  321   2.802   4.136   5.011 -0.5440 -1.8148 -2.7974
  119TIP3    H2  322   2.716   4.011   5.017  0.6453 -2.5758  1.3151
  120TIP3   OH2  323   1.450   3.626   3.410 -0.0599  0.0044 -0.0390
  120TIP3    H1  324   1.426   3.559   3.474  2.5484 -1.2347 -0.2025
  120TIP3    H2  325   1.463   3.577   3.328 -0.5292  1.1153 -0.7971
  121TIP3   OH2  326   6.737   4.810   4.979 -0.3471 -0.1546 -0.2631
  121TIP3    H1  327   6.743   4.769   5.065 -0.1497 -0.9745 -0.6559
  121TIP3    H2  328   6.772   4.898   4.991  1.9336 -1.0201  0.0071
  122TIP3   OH2  329   2.111   6.506   4.677 -0.2246 -0.7352  0.1275
  122TIP3    H1  330   2.096   6.595   4.711  1.5266 -0.2106 -0.3646
  122TIP3    H2  331   2.026   6.463   4.686 -0.9717  0.7956  0.9408
  123TIP3   OH2  332   3.852   2.778   2.193  0.1006  0.7113 -0.1200
  123TIP3    H1  333   3.786   2.841   2.220  0.3163  0.9383 -0.1201
  123TIP3    H2  334   3.818   2.693   2.223  0.7330  1.0383  1.6784
  124TIP3   OH2  335   6.783   0.501   1.699  0.4048 -0.0382 -0.0012
  124TIP3    H1  336   6.796   0.595   1.713 -2.0269  0.1000  1.9691
  124TIP3    H2  337   6.837   0.460   1.767  0.7750 -0.0661 -0.3038
  125TIP3   OH2  338   3.280   5.607   3.661 -0.0070  0.0771  0.0466
  125TIP3    H1  339   3.370   5.634   3.679 -0.1163 -0.7584  2.0994
  125TIP3    H2  340   3.245   5.677   3.605  1.7594  0.6356 -0.4285
  126TIP3   OH2  341   5.424   0.912   1.356 -0.0390  0.1508 -0.0030
  126TIP3    H1  342   5.344   0.886   1.312  0.5213 -1.9008  0.0770
  126TIP3    H2  343   5.484   0.838   1.344  1.5730  1.2820  0.6101
  127TIP3   OH2  344   5.739   1.616   3.645  0.2905  0.5603  0.0034
  127TIP3    H1  345   5.822   1.572   3.662 -1.0251 -1.3934  1.7982
  127TIP3    H2  346   5.701   1.631   3.732 -1.5373  0.8138 -0.7872
  128TIP3   OH2  347   4.545   0.636   3.230  0.1621 -0.9137 -0.1199
  128TIP3    H1  348   4.567   0.669   3.143 -1.9012  0.0153 -0.3247
  128TIP3    H2  349   4.593   0.693   3.290 -1.2211  0.7599 -0.5585
  129TIP3   OH2  350   6.026   0.846   3.014 -0.4949  0.0480 -0.5272
  129TIP3    H1  351   6.026   0.831   2.919 -0.1048  2.0579 -0.8835
  129TIP3    H2  352   6.044   0.939   3.023 -1.3902  0.0562  1.5199
  130TIP3   OH2  353   3.434   5.088   4.544 -0.5855  0.1096  0.2283
  130TIP3    H1  354   3.519   5.057   4.574 -0.4961 -0.2296 -0.3453
  130TIP3    H2  355   3.454   5.139   4.465 -0.9078  0.0507  0.1065
  131TIP3   OH2  356   3.157   0.786   4.927 -0.2808 -0.1824  0.0029
  131TIP3    H1  357   3.114   0.847   4.987  1.6276 -0.4084  1.6981
  131TIP3    H2  358   3.106   0.706   4.935 -1.2491  0.3858 -0.2464
  132TIP3   OH2  359   2.127   3.335   2.314  0.3771 -0.2380  0.3658
  132TIP3    H1  360   2.134   3.397   2.387 -0.6294 -0.3001  0.5294
  132TIP3    H2  361   2.156   3.386   2.238 -0.7747  0.5640  0.4403
  133TIP3   OH2  362   4.177   2.657   2.937  0.3641 -0.1139 -0.5529
  133TIP3    H1  363   4.229   2.611   2.871 -0.0603 -0.1442 -0.8658
  133TIP3    H2  364   4.133   2.726   2.889  0.2661  0.0390 -0.2490
  134TIP3   OH2  365   5.871   5.416   4.235  0.6666  0.0895 -0.2761
  134TIP3    H1  366   5.873   5.325   4.265 -0.6921 -0.0747 -0.6223
  134TIP3    H2  367   5.936   5.420   4.165 -1.4149 -1.4649 -2.4609
  135TIP3   OH2  368   3.665   6.292   1.344 -0.3235 -0.5241  0.0081
  135TIP3    H1  369   3.721   6.245   1.283 -0.4520 -1.6104  0.7164
  135TIP3    H2  370   3.721   6.308   1.421 -0.2948  0.4443 -0.2038
  136TIP3   OH2  371   2.369   5.691   1.395 -0.2632  0.5663 -0.4152
  136TIP3    H1  372   2.458   5.716   1.372  0.7078 -1.5218  0.7083
  136TIP3    H2  373   2.361   5.601   1.364 -1.1718 -0.0533  1.4386
  137TIP3   OH2  374   2.040   1.213   0.909 -0.5450  0.1275 -0.1992
  137TIP3    H1  375   2.037   1.277   0.838 -0.2627 -0.4192 -0.7165
  137TIP3    H2  376   1.954   1.219   0.952 -0.2291  1.4131  0.2755
  138TIP3   OH2  377   2.415   2.931   4.626 -0.0957 -0.4317  0.4217
  138TIP3    H1  378   2.485   2.996   4.632 -0.0211 -0.5724  1.0677
  138TIP3    H2  379   2.440   2.877   4.551  0.0644  0.0120  0.1478
  139TIP3   OH2  380   0.602   3.501   4.740 -0.0418 -0.4857 -0.2168
  139TIP3    H1  381   0.606   3.417   4.696 -0.3166 -1.0989  0.9065
  139TIP3    H2  382   0.552   3.557   4.680  0.4242 -1.0040 -1.1175
  140TIP3   OH2  383   1.959   1.818   4.715 -0.4796 -0.2256  0.4803
  140TIP3    H1  384   1.877   1.806   4.668  0.1855  2.0365 -1.4486
  140TIP3    H2  385   1.947   1.898   4.766  0.0704 -0.6391  1.2855
  141TIP3   OH2  386   6.532   2.325   1.251  0.4340  0.2352 -0.2851
  141TIP3    H1  387   6.551   2.401   1.197  1.3281 -0.5580 -1.1126
  141TIP3    H2  388   6.599   2.327   1.320 -0.4682  1.0273  0.6005
  142TIP3   OH2  389   0.311   6.575   0.392  0.3994  0.6300  0.4071
  142TIP3    H1  390   0.311   6.664   0.426 -1.7090  1.0839 -0.5737
  142TIP3    H2  391   0.401   6.559   0.364  1.1026  1.9510  1.8059
  143TIP3   OH2  392   6.426   6.563   4.634  0.4667 -0.4468 -0.1413
  143TIP3    H1  393   6.386   6.557   4.547 -0.0907  0.6179  0.0197
  143TIP3    H2  394   6.481   6.641   4.630  1.0638 -0.8391  0.2296
  144TIP3   OH2  395   2.316   1.101   0.871  0.3010 -0.3081 -0.5815
  144TIP3    H1  396   2.234   1.096   0.822  0.1638 -0.0386 -0.3845
  144TIP3    H2  397   2.300   1.051   0.951 -0.7988  2.3733  1.0046
  145TIP3   OH2  398   1.481   5.217   4.152  0.4510 -0.6357 -0.1172
  145TIP3    H1  399   1.490   5.130   4.192  0.6700 -0.7383 -0.3874
  145TIP3    H2  400   1.387   5.235   4.157  0.0354 -1.9150 -2.1563
  146TIP3   OH2  401   1.300   3.503   3.856  0.3606 -0.6722 -0.3667
  146TIP3    H1  402   1.206   3.517   3.852  0.2111 -1.8247 -1.1375
  146TIP3    H2  403   1.320   3.499   3.950 -0.5242 -1.5339 -0.2132
  147TIP3   OH2  404   3.398   4.986   1.540  0.0131  0.4715 -0.3757
  147TIP3    H1  405   3.322   5.041   1.519 -1.5146 -1.0456  0.8694
  147TIP3    H2  406   3.404   4.988   1.635  0.1105 -1.2017 -0.3145
  148TIP3   OH2  407   6.314   5.940   1.283 -0.0034 -0.5841 -0.0799
  148TIP3    H1  408   6.392   5.955   1.231 -0.9212  0.3513 -1.2445
  148TIP3    H2  409   6.287   5.851   1.260  0.5857 -0.8292  0.1623
  149TIP3   OH2  410   1.539   1.574   2.935 -0.3772  0.3659 -0.2512
  149TIP3    H1  411   1.585   1.655   2.953 -0.2641  0.7848 -2.1667
  149TIP3    H2  412   1.449   1.600   2.917 -0.6949 -0.1167  0.5806
  150TIP3   OH2  413   4.770   3.090   4.323 -0.0975  0.5289  0.0406
  150TIP3    H1  414   4.864   3.074   4.329 -0.4912 -2.9841 -1.1065
  150TIP3    H2  415   4.731   3.027   4.384 -1.7481  2.0503  0.6349
  151TIP3   OH2  416   4.269   1.581   4.667  0.6094  0.9525 -0.2082
  151TIP3    H1  417   4.332   1.646   4.637  0.7954  1.3966  1.0820
  151TIP3    H2  418   4.201   1.632   4.713 -1.0865  0.5597 -2.1522
  152TIP3   OH2  419   4.114   6.013   4.602 -0.0247  0.6242 -0.1886
  152TIP3    H1  420   4.070   6.042   4.682 -0.0286 -0.7989  0.3457
  152TIP3    H2  421   4.166   5.938   4.629  0.2559  0.3392 -1.4645
  153TIP3   OH2  422   6.771   6.400   0.381  0.0275  0.4402  0.1531
  153TIP3    H1  423   6.731   6.482   0.354 -0.5673  0.5273  1.2369
  153TIP3    H2  424   6.724   6.333   0.331 -1.1642  0.5843  1.0475
  154TIP3   OH2  425   0.843   5.594   4.074  0.2398  0.4840 -0.0724
  154TIP3    H1  426   0.762   5.638   4.048  0.1375  0.1887 -0.2502
  154TIP3    H2  427   0.911   5.634   4.019  0.1888  0.6004 -0.0518
  155TIP3   OH2  428   1.612   0.838   3.961  0.2319  0.8764  0.5927
  155TIP3    H1  429   1.678   0.812   4.025  0.4424  0.0310  0.0451
  155TIP3    H2  430   1.584   0.925   3.990 -0.4741  0.0831  2.4492
  156TIP3   OH2  431   4.760   4.316   3.028 -0.1452 -0.0512  0.2611
  156TIP3    H1  432   4.725   4.232   2.999 -0.9160  0.6010 -0.7388
  156TIP3    H2  433   4.794   4.357   2.949 -1.6347  1.4505  0.3566
  157TIP3   OH2  434   3.807   5.757   5.079  0.0307  0.2757 -0.2184
  157TIP3    H1  435   3.871   5.709   5.025  0.8186  0.5974  0.3992
  157TIP3    H2  436   3.780   5.831   5.025 -0.0125 -0.0052 -0.5837
  158TIP3   OH2  437   6.538   3.550   0.653 -0.2864 -0.3628  0.2120
  158TIP3    H1  438   6.615   3.517   0.699 -1.1186  0.0990  2.0230
  158TIP3    H2  439   6.468   3.489   0.674 -0.4831 -0.7019 -1.3036
  159TIP3   OH2  440   5.660   3.687   1.967 -0.4689 -0.1031 -0.0647
  159TIP3    H1  441   5.696   3.648   2.046 -1.1351 -1.8244 -0.5661
  159TIP3    H2  442   5.592   3.626   1.938 -0.4983  0.6576 -1.7650
  160TIP3   OH2  443   3.574   5.188   1.773 -0.0862  0.1988 -0.2566
  160TIP3    H1  444   3.626   5.267   1.762 -1.5478  1.2311 -0.1003
  160TIP3    H2  445   3.632   5.127   1.819  1.1444  1.0860 -0.5854
  161TIP3   OH2  446   0.802   5.199   2.780  0.3846  0.5380 -0.6065
  161TIP3    H1  447   0.865   5.266   2.757 -0.5163  0.9425 -2.0684
  161TIP3    H2  448   0.760   5.230   2.860  2.2008  0.1087  0.5670
  162TIP3   OH2  449   4.543   3.547   0.175 -0.4126  0.5547  0.5100
  162TIP3    H1  450   4.539   3.452   0.183  1.9534  0.3875  0.2797
  162TIP3    H2  451   4.463   3.570   0.127  0.3345 -1.6491 -2.0723
  163TIP3   OH2  452   4.825   2.401   5.316  0.4968 -0.1027  0.2754
  163TIP3    H1  453   4.842   2.495   5.309  0.7744  0.0111  1.9856
  163TIP3    H2  454   4.870   2.374   5.396 -1.9879 -1.0845  1.4671
  164TIP3   OH2  455   3.504   1.325   3.659  0.6335  0.3972 -0.2472
  164TIP3    H1  456   3.579   1.299   3.605  0.9391  1.3512 -0.3054
  164TIP3    H2  457   3.530   1.302   3.748  0.0286 -1.4049 -0.4891
  165TIP3   OH2  458   2.047   2.550   4.652  0.3141 -0.0123 -0.2414
  165TIP3    H1  459   1.959   2.542   4.613 -0.2050  2.2956  0.2766
  165TIP3    H2  460   2.036   2.522   4.743  0.5610 -1.4292 -0.6275
  166TIP3   OH2  461   0.593   5.432   3.092 -0.2385  0.3470 -0.1357
  166TIP3    H1  462   0.572   5.409   3.183 -4.7908 -0.8175 -1.2096
  166TIP3    H2  463   0.578   5.526   3.087 -0.1576  0.3845  0.2985
  167TIP3   OH2  464   6.532   5.074   0.906  0.5440  0.3051  0.0518
  167TIP3    H1  465   6.490   4.991   0.924  0.3742  0.4519  0.3277
  167TIP3    H2  466   6.562   5.067   0.815  1.6741 -0.5502  0.4625
  168TIP3   OH2  467   4.500   0.507   4.797  0.3646  0.5668 -0.0648
  168TIP3    H1  468   4.533   0.515   4.708 -0.6256  1.2812 -0.3908
  168TIP3    H2  469   4.414   0.549   4.794  0.0483  0.0315  1.0788
  169TIP3   OH2  470   2.239   2.964   4.219 -0.2424  0.0053  0.4154
  169TIP3    H1  471   2.212   2.876   4.192 -1.8454  0.7829 -0.6956
  169TIP3    H2  472   2.278   2.952   4.306  0.4282 -1.9033 -0.1055
  170TIP3   OH2  473   5.842   2.503   0.275 -0.1942  0.5043 -0.2485
  170TIP3    H1  474   5.904   2.565   0.236 -0.6698 -0.1299 -2.0912
  170TIP3    H2  475   5.862   2.506   0.368  2.1898  0.7756 -0.7068
  171TIP3   OH2  476   3.724   6.733   2.780 -0.5906  0.3366 -0.0163
  171TIP3    H1  477   3.689   6.738   2.692  0.7807 -2.9167 -0.9185
  171TIP3    H2  478   3.812   6.769   2.774  0.1155 -1.3352 -0.4831
  172TIP3   OH2  479   3.479   5.187   3.694  0.1863  0.2615 -0.2564
  172TIP3    H1  480   3.569   5.215   3.680  0.4577 -1.0388 -1.2560
  172TIP3    H2  481   3.484   5.124   3.765  0.0761  0.1304 -0.3647
  173TIP3   OH2  482   5.401   1.223   2.706  0.0518 -0.1562  0.1902
  173TIP3    H1  483   5.375   1.305   2.749  0.7046 -0.2694  0.8302
  173TIP3    H2  484   5.402   1.244   2.613  0.3996  0.6319  0.3628
  174TIP3   OH2  485   6.058   6.170   0.192  0.2810  0.7225 -0.1709
  174TIP3    H1  486   6.000   6.146   0.264  0.7704  1.3098  0.4371
  174TIP3    H2  487   6.061   6.092   0.136 -0.6327  0.4957  0.0873
  175TIP3   OH2  488   4.589   2.518   1.863  0.3970 -0.4136  0.5548
  175TIP3    H1  489   4.543   2.439   1.889  1.1573 -0.5482  1.5183
  175TIP3    H2  490   4.681   2.492   1.857  0.2627 -0.6462 -3.2110
  176TIP3   OH2  491   0.196   1.490   0.798  0.1573 -0.6512 -0.1151
  176TIP3    H1  492   0.260   1.423   0.825  1.0456 -0.3866 -1.4515
  176TIP3    H2  493   0.234   1.573   0.827 -0.3830 -0.6186  0.5185
  177TIP3   OH2  494   4.424   0.981   3.929  0.0829 -0.3320  0.1141
  177TIP3    H1  495   4.459   0.936   4.005  0.4299  0.0710  0.1955
  177TIP3    H2  496   4.497   1.034   3.896 -0.0869 -0.4418 -0.4498
  178TIP3   OH2  497   5.379   6.587   0.562 -0.4336 -0.1253  0.8046
  178TIP3    H1  498   5.411   6.530   0.492 -0.9995 -0.2091  0.6021
  178TIP3    H2  499   5.417   6.551   0.642 -0.2580 -0.3896  0.6038
  179TIP3   OH2  500   4.705   2.380   4.566  0.5725  0.1710 -0.0277
  179TIP3    H1  501   4.777   2.396   4.627  1.5307 -1.5567 -0.6244
  179TIP3    H2  502   4.637   2.340   4.620  1.3158 -1.1148  0.0153
  180TIP3   OH2  503   0.336   1.917   1.218 -0.1183 -0.0148  0.3471
  180TIP3    H1  504   0.267   1.854   1.237  0.0047 -0.1901  0.2192
  180TIP3    H2  505   0.372   1.941   1.304  0.6424 -1.0349  0.3228
  181TIP3   OH2  506   6.788   1.442   1.512 -0.0401 -0.8184  0.0699
  181TIP3    H1  507   6.717   1.504   1.497  0.5770  0.5664  2.4035
  181TIP3    H2  508   6.751   1.377   1.572  0.4541 -0.4059  0.8448
  182TIP3   OH2  509   1.318   3.679   2.621  0.1806 -0.3322  0.1353
  182TIP3    H1  510   1.397   3.717   2.659  0.9426 -2.9670  1.3904
  182TIP3    H2  511   1.306   3.596   2.666 -2.3111 -0.8721 -1.2956
  183TIP3   OH2  512   2.365   0.526   5.839 -0.4494  0.0910  0.4812
  183TIP3    H1  513   2.440   0.581   5.859  2.0530 -2.8774  0.0151
  183TIP3    H2  514   2.361   0.464   5.912  0.0883 -2.2119 -1.3291
  184TIP3   OH2  515   1.725   5.449   2.934 -0.0077 -0.3166  0.9499
  184TIP3    H1  516   1.745   5.541   2.914 -0.4008  0.1569  2.6091
  184TIP3    H2  517   1.688   5.414   2.853  1.1929  0.6614 -0.0666
  185TIP3   OH2  518   5.492   1.183   0.667  0.5832  0.1657 -0.1345
  185TIP3    H1  519   5.565   1.125   0.688  3.0951  2.6877 -1.2037
  185TIP3    H2  520   5.474   1.229   0.749  2.0296  1.3566 -0.4483
  186TIP3   OH2  521   3.313   6.287   4.896  0.2994 -0.1093 -0.0112
  186TIP3    H1  522   3.409   6.286   4.901  0.3647 -0.0402 -1.0492
  186TIP3    H2  523   3.291   6.205   4.852 -0.0829  0.1888 -0.3785
  187TIP3   OH2  524   6.830   4.657   3.360  0.1302  0.6612 -0.0831
  187TIP3    H1  525   6.827   4.564   3.338  1.3733  0.4455  0.6360
  187TIP3    H2  526   6.759   4.695   3.307  0.0853 -0.5605 -0.9557
  188TIP3   OH2  527   4.894   2.892   1.206  0.2122  0.3247 -0.1521
  188TIP3    H1  528   4.989   2.886   1.216  0.2018  0.0040 -0.2335
  188TIP3    H2  529   4.881   2.944   1.126  0.2968  2.4838  1.1588
  189TIP3   OH2  530   3.243   3.414   2.390 -0.0333 -0.3815 -0.2729
  189TIP3    H1  531   3.180   3.487   2.391  1.0703  0.5930  0.6973
  189TIP3    H2  532   3.253   3.390   2.482  1.2595 -0.2951 -0.3759
  190TIP3   OH2  533   6.205   1.757   2.441  0.3266 -0.8175  0.1046
  190TIP3    H1  534   6.243   1.802   2.517 -1.6667 -1.4540  1.5641
  190TIP3    H2  535   6.118   1.797   2.432  0.7732 -0.2434 -2.3586
  191TIP3   OH2  536   1.244   5.425   5.088  0.3214  0.3344  0.1450
  191TIP3    H1  537   1.159   5.444   5.049 -0.0051 -0.3465  0.5150
  191TIP3    H2  538   1.230   5.347   5.141  1.2209  0.1032  0.0626
  192TIP3   OH2  539   6.374   0.545   3.354  0.5902 -0.0469  0.1160
  192TIP3    H1  540   6.388   0.451   3.351  0.0195 -0.1816  1.1889
  192TIP3    H2  541   6.462   0.581   3.366  0.6835 -0.5387  1.0391
  193TIP3   OH2  542   6.259   1.726   0.123  0.3937  0.1551 -0.2661
  193TIP3    H1  543   6.300   1.683   0.198  1.2877 -0.1805 -0.9169
  193TIP3    H2  544   6.330   1.778   0.084  0.0876 -0.0750 -1.1620
  194TIP3   OH2  545   0.235   4.645   3.169 -0.0498 -0.0555  0.0868
  194TIP3    H1  546   0.186   4.606   3.096 -0.6149 -0.0579  0.4595
  194TIP3    H2  547   0.326   4.622   3.152 -0.4421 -2.4592  0.8213
  195TIP3   OH2  548   3.394   1.113   2.621  0.1526  0.4222  0.4678
  195TIP3    H1  549   3.382   1.035   2.675 -2.2272 -0.1281 -0.7498
  195TIP3    H2  550   3.402   1.184   2.684 -0.8111 -0.4135  1.5880
  196TIP3   OH2  551   7.099   0.541   0.003 -0.0365 -0.1027 -0.5765
  196TIP3    H1  552   7.119   0.464   0.056  1.6925  0.2445 -0.6611
  196TIP3    H2  553   7.005   0.554   0.014 -0.0713 -1.2341  0.7710
  197TIP3   OH2  554   7.121   4.385   5.196 -0.0801 -0.3364  0.0620
  197TIP3    H1  555   7.206   4.426   5.179 -0.8138  1.4274  0.3644
  197TIP3    H2  556   7.061   4.430   5.136 -1.1627 -0.0324  1.3247
  198TIP3   OH2  557   3.657   2.731   0.164  0.0291 -0.1913 -0.1159
  198TIP3    H1  558   3.721   2.794   0.132  0.1060 -0.7871 -1.1584
  198TIP3    H2  559   3.698   2.693   0.242 -0.1649  1.2668  0.7401
  199TIP3   OH2  560   0.507   5.588   4.143 -0.5724 -0.0387  0.9671
  199TIP3    H1  561   0.478   5.629   4.224 -1.0555  0.7506  0.4176
  199TIP3    H2  562   0.580   5.532   4.168 -0.4725  0.4871  1.8816
  200TIP3   OH2  563   2.078   5.471   5.105  0.0994  0.4940  0.4893
  200TIP3    H1  564   2.108   5.560   5.088 -0.3793  0.8841  1.5680
  200TIP3    H2  565   2.153   5.427   5.145  0.3336  0.4091 -0.0373
  201TIP3   OH2  566   6.552   1.344   4.402 -0.1681  0.6433  0.1188
  201TIP3    H1  567   6.593   1.313   4.321 -0.8443  2.1772 -0.8503
  201TIP3    H2  568   6.480   1.282   4.418  0.1872  0.1272 -0.2457
  202TIP3   OH2  569   3.500   2.009   0.044  0.0818 -0.3935 -0.5830
  202TIP3    H1  570   3.561   2.021  -0.029 -0.6506  1.0673 -0.9995
  202TIP3    H2  571   3.485   2.097   0.077  0.3509 -1.0239  1.3324
  203TIP3   OH2  572   2.766   2.220   3.992 -0.0427 -0.4463  0.2259
  203TIP3    H1  573   2.701   2.290   3.996  2.1257  1.6845  0.3554
  203TIP3    H2  574   2.776   2.190   4.082  1.1516  1.2259  0.6884
  204TIP3   OH2  575   5.594   1.262   5.855 -0.2083  0.2875 -0.0451
  204TIP3    H1  576   5.546   1.344   5.845 -0.7046 -0.0187 -0.2469
  204TIP3    H2  577   5.631   1.244   5.769  1.0056  0.9572  0.3187
  205TIP3   OH2  578   5.758   2.817   4.337 -0.2211 -0.0135 -0.8499
  205TIP3    H1  579   5.729   2.874   4.408 -0.0838  0.6092 -1.2835
  205TIP3    H2  580   5.774   2.876   4.263  0.1054 -0.5925 -1.2568
  206TIP3   OH2  581   1.124   5.197   0.623  0.1998  0.4496 -0.5827
  206TIP3    H1  582   1.123   5.286   0.658  0.0276  0.5537 -0.8457
  206TIP3    H2  583   1.196   5.196   0.561  0.6099  0.2164 -0.1018
  207TIP3   OH2  584   5.552   4.333   3.348 -0.0128 -0.1846  0.2048
  207TIP3    H1  585   5.512   4.420   3.348  0.8561  0.2255  0.2174
  207TIP3    H2  586   5.553   4.307   3.256  1.3010  0.5830 -0.0275
  208TIP3   OH2  587   5.641   3.385   5.794  0.2445 -0.0148  0.0439
  208TIP3    H1  588   5.689   3.435   5.860  0.5534  1.3617 -1.1632
  208TIP3    H2  589   5.708   3.329   5.754  0.3692  0.2018 -0.0569
  209TIP3   OH2  590   2.527   0.111   2.197 -0.0543 -0.2179 -0.2402
  209TIP3    H1  591   2.609   0.146   2.162 -0.3003  1.6419  0.9132
  209TIP3    H2  592   2.553   0.059   2.273  0.0538  0.7585  0.4092
  210TIP3   OH2  593   2.370   3.600   0.315 -0.0755 -0.3807  0.0834
  210TIP3    H1  594   2.389   3.603   0.409 -0.2339 -0.4403  0.1181
  210TIP3    H2  595   2.279   3.571   0.310  0.0276 -0.6766 -0.0990
  211TIP3   OH2  596   3.055   6.200   1.247 -0.0766 -0.1391 -0.0613
  211TIP3    H1  597   3.093   6.154   1.171 -0.1329 -0.4982  0.1251
  211TIP3    H2  598   3.038   6.130   1.310 -0.6775  0.0725  0.0120
  212TIP3   OH2  599   6.778   2.474   1.325  0.0876  0.5709 -0.5530
  212TIP3    H1  600   6.723   2.525   1.386  0.4866  1.7604 -1.1530
  212TIP3    H2  601   6.862   2.467   1.370 -0.3149 -0.6414  0.0573
  213TIP3   OH2  602   6.210   4.290   1.194  0.2087 -0.0589 -0.2392
  213TIP3    H1  603   6.301   4.260   1.191  0.3882  0.5285 -0.7961
  213TIP3    H2  604   6.203   4.355   1.124 -0.6415 -0.0929 -0.2012
  214TIP3   OH2  605   5.965   5.128   0.839 -0.1152  0.0375 -0.7677
  214TIP3    H1  606   5.870   5.125   0.847 -0.1397 -1.1487 -1.3665
  214TIP3    H2  607   5.989   5.212   0.877 -1.3696  0.2073 -0.3045
  215TIP3   OH2  608   0.077   5.960   1.326 -0.0868 -0.2016  0.0409
  215TIP3    H1  609   0.088   5.873   1.363 -0.3517 -0.8142 -1.2588
  215TIP3    H2  610   0.148   5.967   1.262 -1.7306 -0.6273 -1.9334
  216TIP3   OH2  611   5.426   1.344   2.086 -0.3546  0.4968  0.8409
  216TIP3    H1  612   5.384   1.258   2.077 -0.0149  0.4463 -0.4810
  216TIP3    H2  613   5.516   1.324   2.111 -0.1860  0.4313  0.2169
  217TIP3   OH2  614   2.551   0.729   0.198  0.1437 -0.1937  0.4589
  217TIP3    H1  615   2.527   0.813   0.236  0.1115 -0.3637  0.8199
  217TIP3    H2  616   2.489   0.667   0.236  2.6812 -1.1287  3.5275
  218TIP3   OH2  617   6.120   0.721   1.917 -0.4703  0.1789  0.2492
  218TIP3    H1  618   6.086   0.644   1.873  1.3098 -0.1837 -0.5830
  218TIP3    H2  619   6.042   0.770   1.944 -1.6363 -0.5659 -1.5756
  219TIP3   OH2  620   2.843   5.039   2.508 -0.1698 -0.1157 -0.2712
  219TIP3    H1  621   2.751   5.010   2.506 -0.9350  2.1861 -0.8540
  219TIP3    H2  622   2.858   5.061   2.600 -0.4481  0.2187 -0.3034
  220TIP3   OH2  623   5.902   1.104   2.699  0.1991 -0.1021 -0.0345
  220TIP3    H1  624   5.810   1.112   2.673  0.2956 -1.8651 -1.1045
  220TIP3    H2  625   5.950   1.097   2.616  1.2281  0.1133  0.5264
  221TIP3   OH2  626   5.881   1.636   4.932  0.4719  0.2495 -0.7371
  221TIP3    H1  627   5.798   1.617   4.887  0.6363 -0.9977 -0.5381
  221TIP3    H2  628   5.890   1.731   4.925 -1.3882  0.5305 -0.0424
  222TIP3   OH2  629   5.217   5.989   5.046  0.1129 -0.5647 -0.8333
  222TIP3    H1  630   5.299   5.954   5.010  1.2343  1.0649  0.0244
  222TIP3    H2  631   5.151   5.966   4.981  1.2330 -1.9460 -1.5401
  223TIP3   OH2  632   5.500   2.866   5.491 -0.6322  0.3351 -0.3027
  223TIP3    H1  633   5.506   2.891   5.583 -0.4571 -0.3973 -0.1038
  223TIP3    H2  634   5.530   2.943   5.443 -0.2219  0.5441  0.2751
  224TIP3   OH2  635   5.159   6.733   2.361  0.0199 -0.1208  0.1595
  224TIP3    H1  636   5.226   6.691   2.415  0.3055  0.1292  0.0088
  224TIP3    H2  637   5.202   6.812   2.327 -0.0894 -0.3652 -0.5734
  225TIP3   OH2  638   0.509   4.307   0.219  0.2579 -0.1759  0.0040
  225TIP3    H1  639   0.585   4.279   0.168  1.4387  2.4622  0.1265
  225TIP3    H2  640   0.473   4.381   0.170 -1.1913 -0.3027  0.8367
  226TIP3   OH2  641   1.052   2.812   0.662 -0.4691  0.1438 -0.1474
  226TIP3    H1  642   1.081   2.725   0.637  0.4934  0.3349  0.2560
  226TIP3    H2  643   1.103   2.833   0.740 -0.9272  0.9390 -0.0442
  227TIP3   OH2  644   6.726   2.052   1.886 -0.0472  0.1055 -0.3622
  227TIP3    H1  645   6.789   1.980   1.883 -0.7646 -0.5638  0.2324
  227TIP3    H2  646   6.658   2.027   1.823 -0.5368  0.0225  0.1903
  228TIP3   OH2  647   3.152   3.992   3.978 -0.4695  0.5344  0.0555
  228TIP3    H1  648   3.244   4.004   3.953  0.0006 -0.0270  1.3979
  228TIP3    H2  649   3.133   3.901   3.959 -0.6960  0.6071 -0.0679
  229TIP3   OH2  650   7.121   5.824   0.925 -0.0056  0.1401  0.6627
  229TIP3    H1  651   7.034   5.784   0.932  0.5177 -0.8561  1.7193
  229TIP3    H2  652   7.123   5.890   0.993 -0.0060  0.3179  0.4919
  230TIP3   OH2  653   0.450   2.238   4.430  0.3862  0.1899  0.2974
  230TIP3    H1  654   0.480   2.150   4.407  0.2717  0.5918 -1.4678
  230TIP3    H2  655   0.454   2.240   4.526  0.0411 -1.8534  0.3899
  231TIP3   OH2  656   5.659   2.702   0.261  0.2701  0.2001 -0.4460
  231TIP3    H1  657   5.615   2.696   0.346 -1.3709 -2.1252 -1.3499
  231TIP3    H2  658   5.718   2.626   0.260  1.0099  0.7780 -0.9992
  232TIP3   OH2  659   5.965   2.104   2.238 -0.6723  0.1369 -0.2716
  232TIP3    H1  660   6.006   2.142   2.316 -3.3985 -0.0442  1.3777
  232TIP3    H2  661   5.997   2.014   2.235  0.1731  0.4152  0.0815
  233TIP3   OH2  662   4.024   4.839   4.078 -0.4091  0.5051  0.5268
  233TIP3    H1  663   4.044   4.746   4.087 -0.2364  0.4618 -0.2280
  233TIP3    H2  664   4.026   4.873   4.167  0.7417  0.0303  0.6972
  234TIP3   OH2  665   6.621   0.254   1.116  0.0330 -0.1260 -0.3645
  234TIP3    H1  666   6.644   0.330   1.170  0.7583 -1.1749  0.8476
  234TIP3    H2  667   6.690   0.190   1.133 -0.1529 -0.7911 -1.9575
  235TIP3   OH2  668   5.120   3.151   1.858  0.3126 -0.7686  0.1648
  235TIP3    H1  669   5.044   3.189   1.816 -0.2036  1.0879  2.5712
  235TIP3    H2  670   5.085   3.081   1.913  0.3680 -0.2033  0.9367
  236TIP3   OH2  671   5.766   4.963   1.627 -0.3350 -0.4969  0.3454
  236TIP3    H1  672   5.674   4.970   1.602 -0.0879 -0.7825 -0.7127
  236TIP3    H2  673   5.794   5.053   1.642 -0.8345 -0.4253  0.8726
  237TIP3   OH2  674   0.139   6.235   4.754  0.2449  0.6686  0.1924
  237TIP3    H1  675   0.200   6.282   4.811  1.9757 -0.7513 -0.3843
  237TIP3    H2  676   0.191   6.164   4.717 -1.4391  0.1689 -1.3690
  238TIP3   OH2  677   1.971   1.640   2.595  0.0308  0.2331 -0.3684
  238TIP3    H1  678   1.889   1.631   2.643  0.2178  0.3985 -0.0169
  238TIP3    H2  679   1.948   1.618   2.504 -0.9684  2.7267 -0.7981
  239TIP3   OH2  680   5.355   1.155   2.994  0.2547 -0.2857 -0.2138
  239TIP3    H1  681   5.355   1.187   2.904  0.8155  0.3748  0.0129
  239TIP3    H2  682   5.398   1.070   2.989  2.7265  0.8686 -0.2211
  240TIP3   OH2  683   5.873   1.372   3.436 -0.1350  0.2166 -0.2461
  240TIP3    H1  684   5.929   1.391   3.511 -0.0356  0.8181 -0.4592
  240TIP3    H2  685   5.785   1.396   3.465  0.1282  2.1286 -0.8568
  241TIP3   OH2  686   2.951   6.073   5.134  0.2063  0.1378 -0.1497
  241TIP3    H1  687   2.892   5.998   5.127  2.2971 -1.4495 -2.3747
  241TIP3    H2  688   2.979   6.073   5.226  0.4812 -2.1214 -0.1732
  242TIP3   OH2  689   0.781   4.383   1.923 -0.0769  0.6457 -0.0785
  242TIP3    H1  690   0.814   4.366   2.011 -1.1957 -0.1615  0.2117
  242TIP3    H2  691   0.850   4.353   1.865  0.1950  0.1025  0.5185
  243TIP3   OH2  692   0.464   3.850   3.617 -0.0271 -0.4001 -0.1847
  243TIP3    H1  693   0.463   3.931   3.567 -0.0011 -0.6773 -0.6423
  243TIP3    H2  694   0.483   3.782   3.552  2.2107 -0.5336  0.5161
  244TIP3   OH2  695   3.688   1.610   1.356 -0.1319 -0.0340 -0.1518
  244TIP3    H1  696   3.594   1.599   1.343 -0.0739  0.8587 -1.5862
  244TIP3    H2  697   3.696   1.690   1.409 -0.1984 -0.3647  0.3544
  245TIP3   OH2  698   0.915   2.574   3.113 -0.1620  0.9083 -0.2810
  245TIP3    H1  699   0.896   2.647   3.172 -2.6039  2.1842 -2.4367
  245TIP3    H2  700   0.989   2.604   3.060  0.7910  0.5336  0.8005
  246TIP3   OH2  701   1.044   6.266   1.340  0.0507 -0.2179  0.3185
  246TIP3    H1  702   1.063   6.358   1.322 -1.3367  0.1087  0.4384
  246TIP3    H2  703   1.128   6.221   1.328  1.0098  1.2265  1.4197
  247TIP3   OH2  704   5.624   0.078   0.008  0.1287  0.0548 -0.0581
  247TIP3    H1  705   5.561   0.043   0.071 -0.1329  2.0044  0.8411
  247TIP3    H2  706   5.570   0.112  -0.063 -0.0123  2.3676  1.0326
  248TIP3   OH2  707   5.152   4.261   1.548  0.1393 -0.3413  0.0701
  248TIP3    H1  708   5.204   4.319   1.604 -1.0321  1.2877 -0.4186
  248TIP3    H2  709   5.089   4.220   1.608  0.8171 -0.9214  0.3878
  249TIP3   OH2  710   5.365   1.850   4.869 -0.5905  0.3378  0.0863
  249TIP3    H1  711   5.346   1.933   4.826 -1.6037  1.0099  1.7281
  249TIP3    H2  712   5.392   1.875   4.958 -2.0190 -1.1135  0.9707
  250TIP3   OH2  713   6.742   6.006   5.236 -0.7925 -0.0106  0.0585
  250TIP3    H1  714   6.755   6.004   5.141 -0.0695  2.3408  0.0576
  250TIP3    H2  715   6.672   6.069   5.249 -0.7434 -0.1632  1.1138
  251TIP3   OH2  716   5.025   6.507   0.186  0.4562  0.0880  0.2322
  251TIP3    H1  717   5.109   6.520   0.231  0.3273  0.5855  0.3355
  251TIP3    H2  718   5.017   6.583   0.129  0.3960 -0.3068 -0.2842
  252TIP3   OH2  719   7.099   2.062   5.015  0.0083 -0.6196  0.3002
  252TIP3    H1  720   7.185   2.047   4.976 -1.0469 -0.3469 -2.3699
  252TIP3    H2  721   7.105   2.150   5.053  0.4718  0.0566 -1.2714
  253TIP3   OH2  722   6.545   0.162   2.181  0.5374 -0.1697  0.0614
  253TIP3    H1  723   6.554   0.248   2.221  1.1621  0.1870 -0.8087
  253TIP3    H2  724   6.491   0.177   2.103 -1.1027 -0.9399  1.0013
  254TIP3   OH2  725   0.775   2.304   4.022  0.4031  0.1209  0.1263
  254TIP3    H1  726   0.847   2.252   4.058  0.4099 -0.3688 -0.5707
  254TIP3    H2  727   0.706   2.241   4.004 -0.8824  0.7926  2.3331
  255TIP3   OH2  728   5.291   0.847   5.780  1.0095 -0.3559 -0.2902
  255TIP3    H1  729   5.378   0.846   5.741  0.5153  1.2947 -1.5526
  255TIP3    H2  730   5.232   0.824   5.708  0.3932 -1.7062  0.6068
  256TIP3   OH2  731   5.529   1.220   4.679 -0.0323  0.0420 -0.3311
  256TIP3    H1  732   5.513   1.312   4.657 -0.1706 -0.0895 -0.7817
  256TIP3    H2  733   5.480   1.170   4.613  0.2689 -0.3555 -0.2568
  257TIP3   OH2  734   5.717   6.679   0.292 -0.2019 -0.0116 -0.2869
  257TIP3    H1  735   5.748   6.725   0.214  1.0140 -0.9017 -0.3501
  257TIP3    H2  736   5.684   6.595   0.259  1.0744 -0.7403  0.2123
  258TIP3   OH2  737   2.611   4.982   4.261 -0.1995  0.1536  0.2574
  258TIP3    H1  738   2.615   5.006   4.354 -1.5892  1.2714  0.0798
  258TIP3    H2  739   2.534   5.030   4.228  0.1868 -0.3327 -1.4358
  259TIP3   OH2  740   6.942   5.882   0.242  0.0480 -0.3583  0.5536
  259TIP3    H1  741   7.013   5.840   0.291  1.3653  0.1341 -0.8818
  259TIP3    H2  742   6.924   5.962   0.291 -1.1826 -1.5985  2.2435
  260TIP3   OH2  743   2.889   4.308   2.862 -0.3706 -1.1211 -0.3851
  260TIP3    H1  744   2.972   4.264   2.876 -0.8259 -1.7208  0.5830
  260TIP3    H2  745   2.885   4.374   2.931 -1.0036 -1.5857  0.0395
  261TIP3   OH2  746   3.940   5.753   3.746  0.2666  0.1942 -0.0338
  261TIP3    H1  747   4.027   5.786   3.726  1.2642 -1.3629  1.4809
  261TIP3    H2  748   3.954   5.662   3.773 -1.8059 -0.0286  0.5052
  262TIP3   OH2  749   6.397   1.341   5.375 -0.4323 -0.2678  0.2678
  262TIP3    H1  750   6.403   1.277   5.304  2.5465  2.0436 -1.8224
  262TIP3    H2  751   6.316   1.388   5.359 -1.7729 -2.2693  0.8254
  263TIP3   OH2  752   6.271   4.506   1.046 -0.0735 -0.3043  0.3462
  263TIP3    H1  753   6.198   4.559   1.015 -1.3392 -1.9097  0.4842
  263TIP3    H2  754   6.349   4.552   1.013 -1.0327  2.0775  1.1528
  264TIP3   OH2  755   4.250   1.403   2.150  0.6647 -0.0698 -0.3228
  264TIP3    H1  756   4.180   1.366   2.097 -1.7905  1.9734  1.2453
  264TIP3    H2  757   4.328   1.397   2.095 -0.8949 -1.5619 -2.5454
  265TIP3   OH2  758   0.416   4.934   2.550 -0.1544  0.3195 -0.8227
  265TIP3    H1  759   0.429   4.897   2.462  1.8274 -0.5181 -0.2364
  265TIP3    H2  760   0.483   5.001   2.558 -0.9813  1.1006 -0.2926
  266TIP3   OH2  761   1.208   2.955   0.258  0.4562  0.3098 -0.1608
  266TIP3    H1  762   1.138   2.978   0.319  0.4807 -0.8072  0.3192
  266TIP3    H2  763   1.276   3.021   0.273  1.3033 -1.0281  2.4664
  267TIP3   OH2  764   2.162   0.642   3.862  0.0149  0.1672 -0.4075
  267TIP3    H1  765   2.137   0.690   3.783  2.1986 -0.6742 -1.6886
  267TIP3    H2  766   2.184   0.711   3.925  2.0250  0.9748 -1.8639
  268TIP3   OH2  767   3.514   3.963   0.601  0.3958  0.8040 -0.0693
  268TIP3    H1  768   3.517   4.058   0.605  0.4780  0.8060 -0.1694
  268TIP3    H2  769   3.577   3.934   0.668 -1.3717  0.7904  1.6749
  269TIP3   OH2  770   5.784   1.627   2.207  0.4559  0.2479  0.2691
  269TIP3    H1  771   5.762   1.536   2.186 -0.4381  0.1827  1.3444
  269TIP3    H2  772   5.735   1.645   2.288  2.1967  1.0454  1.2129
  270TIP3   OH2  773   2.638   1.847   2.807  0.0481 -0.2502  0.7351
  270TIP3    H1  774   2.631   1.751   2.801  0.8441 -0.3209  0.7218
  270TIP3    H2  775   2.699   1.862   2.879 -2.1194  0.3489  2.5659
  271TIP3   OH2  776   4.268   6.437   5.357  0.1402  0.3319  0.0208
  271TIP3    H1  777   4.180   6.405   5.338 -0.4453  1.1461  1.2635
  271TIP3    H2  778   4.302   6.464   5.271 -0.3551 -1.0520 -0.6464
  272TIP3   OH2  779   1.484   4.021   5.802 -0.3964 -0.5962 -0.4284
  272TIP3    H1  780   1.422   4.078   5.846  0.2085  0.2021 -0.5722
  272TIP3    H2  781   1.431   3.970   5.740 -1.0143 -0.5516  0.0575
  273TIP3   OH2  782   1.068   3.805   1.671 -0.1243  0.0213  0.2837
  273TIP3    H1  783   1.103   3.769   1.752  3.2025 -0.5972 -1.2801
  273TIP3    H2  784   1.118   3.885   1.657 -2.0602  1.2110 -0.2171
  274TIP3   OH2  785   2.872   4.336   1.691 -0.2529 -0.1693  0.1489
  274TIP3    H1  786   2.917   4.267   1.740  0.1068  0.5861  0.9313
  274TIP3    H2  787   2.818   4.290   1.627  2.2562 -1.1344 -1.4265
  275TIP3   OH2  788   2.903   3.354   1.563  0.2542  0.6442  0.2273
  275TIP3    H1  789   2.879   3.333   1.654 -2.8993  0.2562 -0.5769
  275TIP3    H2  790   2.870   3.443   1.550  0.8286  0.7583 -0.4926
  276TIP3   OH2  791   2.835   1.942   3.189 -0.2814 -0.0645  0.0857
  276TIP3    H1  792   2.744   1.965   3.209 -0.0968  0.6700  0.1052
  276TIP3    H2  793   2.828   1.875   3.121 -0.8184  1.0866 -1.0344
  277TIP3   OH2  794   4.839   0.018   4.207 -0.2851  0.4976 -0.1618
  277TIP3    H1  795   4.913  -0.036   4.178 -0.3070  0.4089 -0.0527
  277TIP3    H2  796   4.866   0.107   4.190  0.0190  0.4908  0.2626
  278TIP3   OH2  797   6.144   2.223   2.412  0.1212 -0.1467 -0.4476
  278TIP3    H1  798   6.216   2.240   2.471  0.4051 -1.8912 -0.2246
  278TIP3    H2  799   6.070   2.200   2.469 -0.9574  2.5327 -0.6207
  279TIP3   OH2  800   1.791   3.960   4.602  0.5681  0.9703  0.2446
  279TIP3    H1  801   1.773   4.018   4.528  2.1227 -0.2856 -1.2007
  279TIP3    H2  802   1.742   3.881   4.583  0.4865  0.8640  0.8819
  280TIP3   OH2  803   3.231   5.046   3.279  0.0902  0.3154  1.1042
  280TIP3    H1  804   3.242   5.110   3.209 -1.3156  1.1250  1.5758
  280TIP3    H2  805   3.279   5.082   3.353 -0.7903  0.9085  1.4027
  281TIP3   OH2  806   4.401   2.313   3.783  0.8133  0.7517  0.2366
  281TIP3    H1  807   4.380   2.314   3.690 -3.6014 -2.3197  0.8631
  281TIP3    H2  808   4.470   2.247   3.792 -0.0820 -0.3473 -0.7407
  282TIP3   OH2  809   5.074   2.456   0.160 -0.7149 -0.0417 -0.0089
  282TIP3    H1  810   5.038   2.382   0.210  0.3164 -0.2498  0.4593
  282TIP3    H2  811   5.167   2.436   0.152 -0.4838  1.0393 -0.1875
  283TIP3   OH2  812   3.425   1.232   1.780 -0.0063 -0.2955 -0.0595
  283TIP3    H1  813   3.464   1.299   1.724 -0.3157 -1.4791 -1.7669
  283TIP3    H2  814   3.348   1.275   1.817 -0.6049  0.1244 -1.6908
  284TIP3   OH2  815   1.809   3.009   5.717 -0.2276 -0.2036  0.3848
  284TIP3    H1  816   1.801   2.914   5.727  0.4083 -0.5946 -2.1083
  284TIP3    H2  817   1.733   3.034   5.665  0.4861  0.3492 -0.4301
  285TIP3   OH2  818   2.263   2.084   4.376 -0.0003 -0.0225 -0.2839
  285TIP3    H1  819   2.255   2.133   4.458  0.2541 -0.0894 -0.2187
  285TIP3    H2  820   2.260   1.992   4.403 -1.0976 -0.0600 -0.4615
  286TIP3   OH2  821   2.714   1.698   0.036 -0.1772 -0.3254 -0.0533
  286TIP3    H1  822   2.746   1.695  -0.054  0.6202  2.0863  0.0725
  286TIP3    H2  823   2.754   1.622   0.079 -0.0905 -1.1617 -1.5600
  287TIP3   OH2  824   6.829   1.182   2.577  0.1528  0.1944  0.0463
  287TIP3    H1  825   6.863   1.093   2.565  0.6429  0.0605  2.1278
  287TIP3    H2  826   6.770   1.194   2.503  0.8245 -1.4883 -0.8319
  288TIP3   OH2  827   2.546   0.557   3.807 -0.2418  0.2057 -0.0702
  288TIP3    H1  828   2.577   0.596   3.889 -1.2689 -0.1919  0.5338
  288TIP3    H2  829   2.494   0.481   3.835  0.1588 -0.4869 -1.1404
  289TIP3   OH2  830   1.838   0.013   1.673 -0.0559  0.0196 -0.0907
  289TIP3    H1  831   1.804   0.103   1.675 -2.1975 -0.6967 -1.1265
  289TIP3    H2  832   1.926   0.022   1.638  0.5159  1.8880  1.6344
  290TIP3   OH2  833   2.647   4.809   5.242  0.0556  0.1704  0.2192
  290TIP3    H1  834   2.601   4.887   5.275 -0.3001  0.6025 -1.2331
  290TIP3    H2  835   2.588   4.736   5.262  0.3053  0.2633  1.4143
  291TIP3   OH2  836   1.280   1.178   3.297  0.0584 -0.2003 -0.0954
  291TIP3    H1  837   1.288   1.272   3.312  0.9320  0.2149 -2.6360
  291TIP3    H2  838   1.370   1.145   3.298 -0.2286 -0.9947  0.6094
  292TIP3   OH2  839   2.106   2.080   0.327 -0.3873  0.9274 -0.3866
  292TIP3    H1  840   2.174   2.067   0.393  0.0346 -1.7878 -1.2532
  292TIP3    H2  841   2.087   2.174   0.331  3.3460  1.8398 -0.0463
  293TIP3   OH2  842   1.838   2.603   0.527 -0.3041  0.0017  0.1932
  293TIP3    H1  843   1.758   2.553   0.512  0.2716 -0.7670 -0.4391
  293TIP3    H2  844   1.875   2.565   0.607  1.6354 -2.7461 -1.7788
  294TIP3   OH2  845   0.530   0.515   0.291  0.3706  0.4046 -0.0167
  294TIP3    H1  846   0.615   0.521   0.335 -0.1708  0.9019  0.9994
  294TIP3    H2  847   0.466   0.518   0.362 -0.4859 -0.7881 -0.7042
  295TIP3   OH2  848   0.295   2.102   1.867 -0.4876 -0.7670 -0.2736
  295TIP3    H1  849   0.357   2.044   1.912 -2.6242 -0.4692  3.4031
  295TIP3    H2  850   0.234   2.042   1.825 -0.9091 -1.1894  0.9012
  296TIP3   OH2  851   5.926   1.369   1.431  0.3162 -0.1299  0.4832
  296TIP3    H1  852   5.903   1.456   1.462 -1.2453 -1.2023  2.6023
  296TIP3    H2  853   5.909   1.312   1.506 -0.6473 -2.5197 -1.4227
  297TIP3   OH2  854   2.728   3.382   2.509 -0.2522 -0.1408 -0.0767
  297TIP3    H1  855   2.644   3.345   2.481  0.5562 -2.1723  0.0011
  297TIP3    H2  856   2.792   3.314   2.487  1.5919  1.9017 -1.4279
  298TIP3   OH2  857   4.473   4.137   2.027  0.2233 -0.8684 -0.4715
  298TIP3    H1  858   4.382   4.151   2.052  0.5699  1.7998 -0.3781
  298TIP3    H2  859   4.492   4.207   1.964  1.6540 -2.6098 -2.0804
  299TIP3   OH2  860   7.060   4.819   3.401  0.0381 -0.1231 -0.9144
  299TIP3    H1  861   7.040   4.902   3.358 -0.7515 -0.3351 -0.9632
  299TIP3    H2  862   6.979   4.769   3.397  0.2895 -0.6069 -0.2170
  300TIP3   OH2  863   5.670   6.724   4.257  0.0910  0.1293 -0.5421
  300TIP3    H1  864   5.672   6.756   4.167  1.7776 -0.0815 -0.6051
  300TIP3    H2  865   5.711   6.638   4.253 -0.5340 -0.2279  0.3175
  301TIP3   OH2  866   6.779   2.398   2.414 -0.1967  0.4817 -0.2327
  301TIP3    H1  867   6.722   2.345   2.471  0.0926  1.1686  0.7220
  301TIP3    H2  868   6.865   2.357   2.421 -0.2439  0.3391 -0.4834
  302TIP3   OH2  869   0.596   6.757   4.333  0.2345 -0.6642 -0.2445
  302TIP3    H1  870   0.535   6.686   4.351  0.8907 -1.0961  0.2910
  302TIP3    H2  871   0.561   6.799   4.255 -1.6309  0.0903  0.9418
  303TIP3   OH2  872   5.032   3.759   2.665 -0.4828  0.4202 -0.5753
  303TIP3    H1  873   4.998   3.671   2.681  1.4646 -0.1832  0.5834
  303TIP3    H2  874   5.114   3.745   2.617 -0.1268  1.5952 -0.3496
  304TIP3   OH2  875   0.147   4.021   2.699 -0.1774  0.8958 -0.1637
  304TIP3    H1  876   0.150   4.078   2.775 -0.3463 -0.1774  0.6767
  304TIP3    H2  877   0.230   3.974   2.700 -1.1242 -0.8883  0.8184
  305TIP3   OH2  878   3.513   5.934   3.195 -0.0539  0.1364  0.2749
  305TIP3    H1  879   3.493   6.001   3.259  1.6185  1.5722 -0.6116
  305TIP3    H2  880   3.466   5.961   3.116 -1.0123 -0.8735  0.4836
  306TIP3   OH2  881   4.543   6.281   4.148  0.0512  0.0092  0.1667
  306TIP3    H1  882   4.456   6.262   4.181  0.1474 -0.4153  0.1861
  306TIP3    H2  883   4.556   6.374   4.165 -0.1724 -0.0507  0.6826
  307TIP3   OH2  884   5.201   2.776   3.274 -0.2212  0.0152  0.1841
  307TIP3    H1  885   5.201   2.871   3.278  1.4892  0.1158 -1.0129
  307TIP3    H2  886   5.109   2.752   3.267 -0.5899  1.6901 -1.3590
  308TIP3   OH2  887   3.468   5.823   3.516 -0.2364 -0.5512 -0.0757
  308TIP3    H1  888   3.557   5.791   3.525 -0.1131  0.0305  0.9899
  308TIP3    H2  889   3.475   5.901   3.462  0.2226  0.6792  1.6754
  309TIP3   OH2  890   3.171   6.229   5.764 -0.1023 -0.6365 -0.4491
  309TIP3    H1  891   3.238   6.296   5.759 -0.5741 -0.1809 -0.7734
  309TIP3    H2  892   3.107   6.262   5.827 -0.8015 -0.3385 -1.2885
  310TIP3   OH2  893   3.446   0.176   2.344 -0.5684  0.0165  0.3348
  310TIP3    H1  894   3.477   0.123   2.271 -1.2429 -0.0292  0.0739
  310TIP3    H2  895   3.490   0.138   2.421 -0.0315 -0.0795 -0.0102
  311TIP3   OH2  896   2.364   3.531   5.236  0.6765  0.2365 -0.2098
  311TIP3    H1  897   2.354   3.437   5.253 -3.8542  0.3065 -1.1373
  311TIP3    H2  898   2.302   3.572   5.297  0.3325  2.3325 -1.8667
  312TIP3   OH2  899   1.998   4.771   1.968  0.4015 -0.1066 -0.2193
  312TIP3    H1  900   2.018   4.757   2.060  2.1040 -0.1829 -0.5625
  312TIP3    H2  901   1.912   4.812   1.968 -1.1986 -3.1445  1.2126
  313TIP3   OH2  902   0.014   3.119   4.834 -0.0434 -0.0506  0.3272
  313TIP3    H1  903   0.069   3.045   4.807 -0.7815 -0.2643 -0.6371
  313TIP3    H2  904   0.055   3.151   4.915  1.0337 -0.6979  0.0579
  314TIP3   OH2  905   4.694   2.790   3.065  0.2524  0.2912 -0.4530
  314TIP3    H1  906   4.619   2.732   3.077  1.6859 -1.1576  2.7859
  314TIP3    H2  907   4.735   2.759   2.985 -1.3680 -0.3467 -1.0809
  315TIP3   OH2  908   5.558   1.764   0.508  0.3140  0.2053 -0.2559
  315TIP3    H1  909   5.516   1.714   0.439 -0.2182  0.0431  0.1818
  315TIP3    H2  910   5.536   1.855   0.488 -0.3934  0.1112  0.0582
  316TIP3   OH2  911   7.110   0.251   2.530  0.0543  0.1007 -0.2284
  316TIP3    H1  912   7.088   0.161   2.556  0.4435  0.2794  0.7477
  316TIP3    H2  913   7.025   0.294   2.522 -0.0852  0.0240  0.7245
  317TIP3   OH2  914   2.697   2.942   1.123 -0.4835  0.3501  0.6599
  317TIP3    H1  915   2.710   2.860   1.172  1.3129  1.1076  1.5592
  317TIP3    H2  916   2.785   2.966   1.094 -1.2857  0.7848 -1.6230
  318TIP3   OH2  917   0.067   5.587   5.429 -0.2048 -0.1850 -0.3295
  318TIP3    H1  918   0.157   5.613   5.446 -0.2517 -0.4504  0.3626
  318TIP3    H2  919   0.027   5.662   5.385  0.1500  0.2037  0.0196
  319TIP3   OH2  920   4.650   1.551   4.370  0.0451 -0.0800 -0.0769
  319TIP3    H1  921   4.636   1.595   4.453  1.4253  0.7486 -0.2420
  319TIP3    H2  922   4.746   1.550   4.360 -0.0697 -0.8355 -1.2954
  320TIP3   OH2  923   3.941   2.478   5.122 -0.1073 -0.5932 -0.4944
  320TIP3    H1  924   3.861   2.428   5.108 -0.8344  0.7721 -1.4376
  320TIP3    H2  925   3.961   2.466   5.215 -2.4744  0.5159  0.2457
  321TIP3   OH2  926   4.612   3.792   5.207 -0.3469 -0.4298  0.3213
  321TIP3    H1  927   4.535   3.764   5.256 -0.0508  0.5840  1.4087
  321TIP3    H2  928   4.588   3.877   5.170  0.6087  0.4522  1.6420
  322TIP3   OH2  929   4.473   3.450   2.431  0.2533 -0.7020 -0.2773
  322TIP3    H1  930   4.493   3.382   2.495 -0.7652 -0.4038  0.3728
  322TIP3    H2  931   4.395   3.418   2.386  0.8180 -0.7918 -1.2108
  323TIP3   OH2  932   4.668   1.598   4.669 -0.2672 -0.1601  0.0680
  323TIP3    H1  933   4.705   1.510   4.660  1.9771  0.5646  1.5235
  323TIP3    H2  934   4.742   1.657   4.652 -1.8279  1.5019 -1.3485
  324TIP3   OH2  935   5.007   1.160   2.585 -0.0759  0.0942  0.2973
  324TIP3    H1  936   4.923   1.121   2.563  0.1662 -0.2211 -0.0928
  324TIP3    H2  937   5.010   1.241   2.534  0.1055 -0.1918 -0.1548
  325TIP3   OH2  938   5.997   5.853   3.933  0.2924 -1.1485 -0.3882
  325TIP3    H1  939   6.080   5.896   3.955 -0.4206 -0.0553  0.2573
  325TIP3    H2  940   5.988   5.784   3.998  0.3678 -0.8250 -0.0279
  326TIP3   OH2  941   6.847   1.217   3.864  0.5251  0.1930 -0.0387
  326TIP3    H1  942   6.779   1.162   3.903 -1.0991  1.7105 -0.6089
  326TIP3    H2  943   6.908   1.154   3.825  1.2266 -1.3162  3.1660
  327TIP3   OH2  944   2.725   3.905   2.777 -0.4073  0.1842 -0.4684
  327TIP3    H1  945   2.644   3.861   2.751 -0.8121  0.0009  1.0200
  327TIP3    H2  946   2.698   3.967   2.844  0.7195 -0.0373  0.2109
  328TIP3   OH2  947   0.758   4.261   1.585  0.4548  0.3394 -0.2706
  328TIP3    H1  948   0.681   4.237   1.636  0.9823  1.2884  1.0420
  328TIP3    H2  949   0.829   4.263   1.649  1.6729 -0.9124 -1.5177
  329TIP3   OH2  950   6.505   1.978   4.986 -0.3934 -0.2243  0.3510
  329TIP3    H1  951   6.430   1.925   4.960 -0.5984  0.0754  0.3262
  329TIP3    H2  952   6.567   1.969   4.914 -0.5078 -0.2734  0.2593
  330TIP3   OH2  953   5.345   1.949   4.434  0.1344  0.4913 -0.0429
  330TIP3    H1  954   5.408   1.907   4.376 -0.4118 -0.1176 -0.2118
  330TIP3    H2  955   5.397   2.003   4.493  0.8234 -0.1841 -0.0265
  331TIP3   OH2  956   4.100   0.259   0.045  0.0807 -0.1342 -0.3402
  331TIP3    H1  957   4.050   0.202   0.105  1.4927 -0.5005  0.5501
  331TIP3    H2  958   4.038   0.281  -0.024 -2.0342  1.3107  1.8562
  332TIP3   OH2  959   5.502   2.586   3.000 -0.1286  0.2459 -0.0336
  332TIP3    H1  960   5.443   2.659   3.019 -1.0792 -0.7353  0.8815
  332TIP3    H2  961   5.521   2.548   3.085 -1.4311 -1.9080 -0.6284
  333TIP3   OH2  962   5.907   4.430   1.569  0.7239  0.5166 -0.1003
  333TIP3    H1  963   5.899   4.346   1.523  0.7273  1.0114 -1.0305
  333TIP3    H2  964   5.951   4.488   1.506 -1.6783  1.9964 -0.5294
  334TIP3   OH2  965   4.574   3.114   4.928 -0.0538  0.2048 -0.2859
  334TIP3    H1  966   4.634   3.186   4.906 -0.3036  0.4386 -0.1977
  334TIP3    H2  967   4.566   3.118   5.023 -3.0631  2.5062 -0.4819
  335TIP3   OH2  968   6.385   6.528   2.498  0.2365  0.3793 -0.7275
  335TIP3    H1  969   6.362   6.621   2.489  1.0664  1.0226  2.5250
  335TIP3    H2  970   6.316   6.492   2.553 -0.5965 -1.2797 -2.6944
  336TIP3   OH2  971   0.193   6.201   1.071  0.0551  0.2454 -1.1543
  336TIP3    H1  972   0.241   6.253   1.007  1.0576 -1.3201 -1.7574
  336TIP3    H2  973   0.129   6.152   1.018  0.1261 -0.2133 -0.8227
  337TIP3   OH2  974   2.398   5.143   4.200 -0.2217 -0.0874  0.0793
  337TIP3    H1  975   2.316   5.094   4.198  0.6887 -1.6501 -0.6460
  337TIP3    H2  976   2.384   5.216   4.140 -0.6645 -1.0851 -1.0760
  338TIP3   OH2  977   6.957   5.803   1.498  0.7966  0.5027 -0.2807
  338TIP3    H1  978   7.029   5.754   1.537  0.2607  0.5311  0.7690
  338TIP3    H2  979   6.975   5.894   1.521  0.3063  0.4853  0.1809
  339TIP3   OH2  980   2.245   4.729   4.564 -0.2336  0.6326 -0.3914
  339TIP3    H1  981   2.286   4.656   4.611  0.1457  1.9386  1.3973
  339TIP3    H2  982   2.193   4.687   4.495  0.8731 -1.2589 -0.1341
  340TIP3   OH2  983   1.407   2.841   1.776  0.4574  0.5947  0.3171
  340TIP3    H1  984   1.312   2.846   1.763  0.4784  1.0381  0.3079
  340TIP3    H2  985   1.439   2.926   1.746  0.8486  0.4804  0.4095
  341TIP3   OH2  986   2.045   1.900   1.520 -0.2634 -0.1193  0.3710
  341TIP3    H1  987   2.090   1.878   1.438 -1.7641  1.2170 -0.8723
  341TIP3    H2  988   2.116   1.918   1.581  0.9158 -1.9903 -0.3459
  342TIP3   OH2  989   5.786   4.583   1.888 -0.1097  0.1214  0.5768
  342TIP3    H1  990   5.782   4.671   1.924  0.8893 -0.1474  1.4000
  342TIP3    H2  991   5.767   4.526   1.962 -0.6577 -0.3596  0.0752
  343TIP3   OH2  992   2.453   4.752   2.194 -0.2623 -0.3837  0.4142
  343TIP3    H1  993   2.444   4.801   2.113 -1.1846 -0.6001  0.3717
  343TIP3    H2  994   2.488   4.816   2.257 -0.1466 -0.0462  0.0109
  344TIP3   OH2  995   3.132   3.318   1.767  0.9672 -0.2618 -0.1322
  344TIP3    H1  996   3.160   3.235   1.729  1.5057 -0.2511  0.2277
  344TIP3    H2  997   3.189   3.384   1.726  0.3775 -0.0333 -0.6017
  345TIP3   OH2  998   5.113   5.553   3.815  0.5756 -0.1969 -0.1695
  345TIP3    H1  999   5.070   5.634   3.842  1.2550 -0.3832  1.5747
  345TIP3    H2 1000   5.102   5.494   3.890  1.7420 -1.0724 -0.6629
  346TIP3   OH2 1001   4.771   3.302   4.925 -0.3096 -0.1434  0.3019
  346TIP3    H1 1002   4.736   3.372   4.980 -1.0108  0.5591 -1.0086
  346TIP3    H2 1003   4.839   3.345   4.872 -0.8505 -0.3989 -0.6198
  347TIP3   OH2 1004   4.898   5.913   4.650 -0.2273 -0.0344  0.0340
  347TIP3    H1 1005   4.955   5.990   4.654 -0.2674  0.0498 -0.8372
  347TIP3    H2 1006   4.834   5.934   4.583 -0.7308 -0.5123  0.3539
  348TIP3   OH2 1007   0.049   4.746   5.484  0.3527  0.2140  0.1890
  348TIP3    H1 1008   0.022   4.764   5.394  1.4145 -1.1676 -0.4510
  348TIP3    H2 1009  -0.033   4.730   5.531 -0.2064  0.8174 -0.5466
  349TIP3   OH2 1010   6.862   5.595   0.101 -0.0253  0.3681  0.4972
  349TIP3    H1 1011   6.826   5.680   0.074  0.6792 -0.2222 -2.7009
  349TIP3    H2 1012   6.951   5.615   0.128 -0.7672  0.9903  2.6796
  350TIP3   OH2 1013   0.973   5.499   2.427 -0.2785 -0.2787  0.0554
  350TIP3    H1 1014   0.889   5.486   2.470 -1.4080  1.6724 -1.4303
  350TIP3    H2 1015   0.974   5.591   2.403  1.9999 -0.4133 -0.5825
  351TIP3   OH2 1016   6.278   1.976   1.793  0.1237 -0.0682  0.3561
  351TIP3    H1 1017   6.327   2.029   1.856  0.3217  1.3064 -0.8844
  351TIP3    H2 1018   6.262   1.894   1.838  3.4665 -0.5719  0.9072
  352TIP3   OH2 1019   0.206   5.746   2.196 -0.3416 -0.0706  0.2181
  352TIP3    H1 1020   0.186   5.743   2.103  1.5706  1.8384 -0.3351
  352TIP3    H2 1021   0.287   5.695   2.205  0.0713  0.6466  0.6437
  353TIP3   OH2 1022   4.678   1.324   4.110  0.2946  0.4382 -0.4293
  353TIP3    H1 1023   4.630   1.373   4.176 -0.5725 -0.9958  0.0547
  353TIP3    H2 1024   4.757   1.294   4.155 -0.0256 -0.0690 -0.1979
  354TIP3   OH2 1025   7.175   5.361   2.930  0.2616 -0.2334  0.2357
  354TIP3    H1 1026   7.125   5.401   2.859 -1.9758 -0.9220  1.2984
  354TIP3    H2 1027   7.264   5.394   2.919 -0.7775  2.5483 -0.7332
  355TIP3   OH2 1028   7.037   0.120   5.157 -0.0432  0.1835  0.2923
  355TIP3    H1 1029   6.954   0.088   5.192 -0.5281  1.2041  0.1159
  355TIP3    H2 1030   7.054   0.064   5.082 -0.4967 -0.1223  0.4099
  356TIP3   OH2 1031   1.442   2.620   2.376 -0.1734 -0.2476 -0.0136
  356TIP3    H1 1032   1.533   2.637   2.351 -0.5800  1.0841 -0.6898
  356TIP3    H2 1033   1.398   2.596   2.294 -0.3973 -1.0704  0.3393
  357TIP3   OH2 1034   5.288   1.741   3.173  0.4125 -0.6724 -0.3655
  357TIP3    H1 1035   5.320   1.718   3.086  1.4394 -0.5275 -0.0449
  357TIP3    H2 1036   5.197   1.767   3.159  0.8671  0.4101 -1.5763
  358TIP3   OH2 1037   4.148   3.194   0.132  0.3500 -0.0510  0.2070
  358TIP3    H1 1038   4.239   3.222   0.122  0.1615  0.6907  0.5348
  358TIP3    H2 1039   4.137   3.179   0.226  0.0561  0.1259  0.2012
  359TIP3   OH2 1040   0.443   3.628   2.353  0.3548 -0.2379  0.3572
  359TIP3    H1 1041   0.384   3.691   2.312 -1.7476 -1.8780  0.7307
  359TIP3    H2 1042   0.499   3.682   2.409 -0.5346  1.4124 -0.2592
  360TIP3   OH2 1043   2.139   2.459   0.685  0.0672 -0.0808 -0.7038
  360TIP3    H1 1044   2.112   2.373   0.652 -0.6042 -0.9487  1.8842
  360TIP3    H2 1045   2.058   2.510   0.689 -0.0233 -0.3136  0.4914
  361TIP3   OH2 1046   2.492   5.828   2.124 -0.1445  0.1114 -0.4335
  361TIP3    H1 1047   2.560   5.780   2.170  0.0504  0.6463 -0.1520
  361TIP3    H2 1048   2.519   5.826   2.032 -0.7934 -1.3877 -0.6275
  362TIP3   OH2 1049   2.262   3.308   4.310 -0.4189  0.8043  0.3886
  362TIP3    H1 1050   2.240   3.314   4.217  0.0057 -1.7503  0.0486
  362TIP3    H2 1051   2.183   3.273   4.352 -0.4393  1.4644  0.9215
  363TIP3   OH2 1052   3.126   1.367   3.900  0.3266  0.1813  0.1664
  363TIP3    H1 1053   3.108   1.433   3.967 -0.3613 -1.0346  1.2170
  363TIP3    H2 1054   3.053   1.306   3.906  0.5828 -0.2964 -1.2690
  364TIP3   OH2 1055   0.070   2.735   4.155  0.3283 -0.8516 -0.0166
  364TIP3    H1 1056   0.158   2.770   4.144 -0.4046  1.4376  0.7891
  364TIP3    H2 1057   0.013   2.799   4.113 -0.9382 -2.7282 -1.3096
  365TIP3   OH2 1058   0.628   2.876   2.140  0.9811  0.1320  0.0724
  365TIP3    H1 1059   0.698   2.911   2.084  2.3427 -0.7099  1.1901
  365TIP3    H2 1060   0.605   2.793   2.100  0.7325  0.3358 -0.2085
  366TIP3   OH2 1061   5.195   4.037   2.737  0.1580 -0.0479  0.1779
  366TIP3    H1 1062   5.264   4.069   2.795  0.5290  0.7891 -0.7060
  366TIP3    H2 1063   5.195   3.942   2.750  1.3935 -0.0445  0.2824
  367TIP3   OH2 1064   0.288   0.878   4.606 -0.3677 -0.1101  0.8066
  367TIP3    H1 1065   0.250   0.865   4.519 -0.2795  1.0404  0.5787
  367TIP3    H2 1066   0.377   0.908   4.589 -0.5236  0.6462  1.2824
  368TIP3   OH2 1067   2.520   5.009   3.339  0.1645 -0.4097 -0.0045
  368TIP3    H1 1068   2.453   4.998   3.271 -0.6074 -1.0540  0.8337
  368TIP3    H2 1069   2.603   5.016   3.291 -0.0952 -2.9964 -0.9802
  369TIP3   OH2 1070   6.011   6.725   3.719  0.0252  0.2743  0.0980
  369TIP3    H1 1071   6.018   6.691   3.808  1.2387 -1.1203 -0.4844
  369TIP3    H2 1072   6.028   6.649   3.663 -0.2219  1.2265 -1.3312
  370TIP3   OH2 1073   0.786   5.891   2.073  0.0741 -0.7922 -0.3369
  370TIP3    H1 1074   0.710   5.846   2.112  0.2855 -1.0969 -0.2734
  370TIP3    H2 1075   0.861   5.851   2.115  0.2299  1.3478  1.6148
  371TIP3   OH2 1076   6.837   3.099   2.454  0.2185  0.3252  0.7315
  371TIP3    H1 1077   6.809   3.109   2.363  0.8959  3.3122  0.7441
  371TIP3    H2 1078   6.768   3.046   2.494 -0.9512  0.3340 -1.1425
  372TIP3   OH2 1079   3.649   4.925   2.550 -0.5501 -0.1794  0.2069
  372TIP3    H1 1080   3.580   4.926   2.616 -0.4876 -1.5257  0.3127
  372TIP3    H2 1081   3.726   4.960   2.595 -0.7871 -0.0384  0.5063
  373TIP3   OH2 1082   2.993   0.140   5.675  0.3199 -0.1861  0.0795
  373TIP3    H1 1083   3.005   0.169   5.584  1.9104  2.0005  0.8845
  373TIP3    H2 1084   2.909   0.095   5.675 -0.6968  1.5088 -2.0810
  374TIP3   OH2 1085   1.287   3.509   5.474 -0.2402 -0.0997 -0.3974
  374TIP3    H1 1086   1.313   3.528   5.384 -0.9712 -1.6739 -0.9854
  374TIP3    H2 1087   1.287   3.413   5.479  1.9660 -0.0622  1.9523
  375TIP3   OH2 1088   6.376   3.035   0.470 -0.0177  0.9734  0.2330
  375TIP3    H1 1089   6.442   3.086   0.516  0.8786 -0.0247  0.0726
  375TIP3    H2 1090   6.293   3.061   0.511  0.7134  0.3868  2.1669
  376TIP3   OH2 1091   6.566   2.943   4.062 -0.4085 -0.1787  0.2057
  376TIP3    H1 1092   6.563   2.923   3.969 -1.7731 -0.4298  0.2949
  376TIP3    H2 1093   6.655   2.920   4.089  0.8660  2.2148 -1.5303
  377TIP3   OH2 1094   2.047   5.322   0.938 -0.3402  0.0746  0.4152
  377TIP3    H1 1095   2.111   5.352   0.873 -0.3474  1.1212  0.8705
  377TIP3    H2 1096   2.083   5.240   0.972  0.0364 -0.0949 -0.3672
  378TIP3   OH2 1097   0.292   3.730   3.796  0.1710  0.7688  0.7033
  378TIP3    H1 1098   0.316   3.782   3.719  0.2524  1.3853  1.1410
  378TIP3    H2 1099   0.199   3.712   3.786  0.4719 -0.3924 -0.2687
  379TIP3   OH2 1100   6.057   0.455   0.678 -0.0698  0.8596  0.7094
  379TIP3    H1 1101   6.108   0.432   0.601 -1.8307  1.3678 -0.6677
  379TIP3    H2 1102   6.084   0.544   0.700  1.0670  0.3978  1.2465
  380TIP3   OH2 1103   6.757   5.714   1.747  0.4475 -0.3415 -0.5335
  380TIP3    H1 1104   6.765   5.676   1.659  0.3422 -0.2875 -0.5674
  380TIP3    H2 1105   6.664   5.707   1.767  0.7066 -1.8421  0.2566
  381TIP3   OH2 1106   6.312   0.161   5.111  0.0283  0.3705  0.3443
  381TIP3    H1 1107   6.381   0.123   5.057 -0.2587  0.1767  0.1075
  381TIP3    H2 1108   6.323   0.255   5.102  0.6922  0.3467  0.8661
  382TIP3   OH2 1109   5.822   1.918   0.282  0.4032  0.0881  0.6170
  382TIP3    H1 1110   5.768   1.933   0.204 -1.0263 -1.6345  1.2015
  382TIP3    H2 1111   5.909   1.900   0.247  0.1237  0.8096 -0.4985
  383TIP3   OH2 1112   1.674   1.652   2.672 -0.0624  0.2706  0.4210
  383TIP3    H1 1113   1.656   1.559   2.662  1.1025  0.2019 -1.4980
  383TIP3    H2 1114   1.595   1.696   2.640 -1.1434  0.0077  2.5308
  384TIP3   OH2 1115   2.214   0.948   3.821 -0.5142  0.2096  0.3549
  384TIP3    H1 1116   2.118   0.940   3.820 -0.6160  1.3280  0.5372
  384TIP3    H2 1117   2.238   0.934   3.912 -0.6498  1.3920  0.5858
  385TIP3   OH2 1118   1.635   3.288   5.870 -0.4909  0.1941 -0.0798
  385TIP3    H1 1119   1.670   3.357   5.927  0.6701  1.5805 -2.3126
  385TIP3    H2 1120   1.682   3.300   5.787 -2.1472 -1.6531 -1.3701
  386TIP3   OH2 1121   4.207   0.743   0.433  0.3012 -0.6029  0.4508
  386TIP3    H1 1122   4.150   0.681   0.388 -0.3617 -0.2379  0.7717
  386TIP3    H2 1123   4.276   0.689   0.472 -0.3475 -1.1564  0.8493
  387TIP3   OH2 1124   0.365   4.698   5.122 -0.0211 -0.7286 -0.1674
  387TIP3    H1 1125   0.294   4.757   5.144 -0.2377 -1.0653  0.0313
  387TIP3    H2 1126   0.419   4.694   5.201  1.2939  1.0326 -0.9092
  388TIP3   OH2 1127   2.972   5.456   5.041 -0.6363  0.1378 -0.9916
  388TIP3    H1 1128   2.965   5.549   5.019 -0.0541  0.4984  0.2992
  388TIP3    H2 1129   2.925   5.447   5.124  0.3298 -0.4886 -0.4958
  389TIP3   OH2 1130   3.420   4.142   1.456  0.1722 -0.1417  0.2048
  389TIP3    H1 1131   3.360   4.176   1.522  0.5489 -1.7574  1.4591
  389TIP3    H2 1132   3.434   4.215   1.395  0.4091  1.6930  2.3373
  390TIP3   OH2 1133   5.560   6.050   1.834 -0.0665  0.3966 -0.0812
  390TIP3    H1 1134   5.587   6.128   1.883  0.9876  0.7963 -1.2404
  390TIP3    H2 1135   5.535   6.084   1.748 -0.6773 -0.4310 -0.2382
  391TIP3   OH2 1136   3.059   2.721   3.660 -0.7780 -0.7475 -0.3639
  391TIP3    H1 1137   3.149   2.740   3.688 -0.9666 -0.5317  0.1050
  391TIP3    H2 1138   3.036   2.641   3.706 -1.0323 -0.4832 -0.0337
  392TIP3   OH2 1139   6.605   1.538   5.689  0.4550 -0.1687 -0.3091
  392TIP3    H1 1140   6.564   1.473   5.746  2.7816 -0.7701  0.7648
  392TIP3    H2 1141   6.564   1.621   5.714  0.1984 -0.6729  1.0128
  393TIP3   OH2 1142   4.413   4.926   4.111 -0.0978  0.6407 -0.2799
  393TIP3    H1 1143   4.430   4.859   4.044 -0.0462  1.4115 -1.0432
  393TIP3    H2 1144   4.341   4.889   4.162 -0.2946  0.1427 -0.8951
  394TIP3   OH2 1145   5.621   5.759   1.125 -0.7231  0.5757 -0.4213
  394TIP3    H1 1146   5.617   5.704   1.047  2.3383 -0.8084  0.2579
  394TIP3    H2 1147   5.671   5.707   1.188 -1.6053  2.3636  1.8618
  395TIP3   OH2 1148   0.556   0.036   3.824 -0.0164  0.5067 -0.0303
  395TIP3    H1 1149   0.607   0.116   3.839  0.3912  0.1469  0.5382
  395TIP3    H2 1150   0.466   0.067   3.811  0.3839  1.1856 -1.4154
  396TIP3   OH2 1151   0.567   5.219   0.614  0.7351  0.6464  0.0966
  396TIP3    H1 1152   0.561   5.246   0.705  2.4201 -0.2893  0.5285
  396TIP3    H2 1153   0.660   5.218   0.595  0.7884 -3.3450 -0.2618
  397TIP3   OH2 1154   2.913   6.794   2.115 -0.3645  0.2334  0.2911
  397TIP3    H1 1155   2.964   6.727   2.071 -2.0537 -0.2270 -1.1038
  397TIP3    H2 1156   2.966   6.873   2.108  0.9455 -0.6024  0.5366
  398TIP3   OH2 1157   3.766   5.742   1.630 -0.1008 -0.0597  0.3878
  398TIP3    H1 1158   3.849   5.749   1.583  0.8350 -2.6175  1.4730
  398TIP3    H2 1159   3.716   5.819   1.603  2.6308  1.6029 -0.2394
  399TIP3   OH2 1160   1.109   6.329   4.823  0.4328 -0.3402 -0.2014
  399TIP3    H1 1161   1.048   6.317   4.896 -1.6958 -0.2043 -1.8576
  399TIP3    H2 1162   1.190   6.288   4.853 -0.5968 -1.0145  1.9042
  400TIP3   OH2 1163   7.087   3.012   2.923  0.0973 -0.0165 -0.2849
  400TIP3    H1 1164   7.105   2.919   2.937  0.4216 -0.0758 -1.0228
  400TIP3    H2 1165   7.082   3.021   2.828 -0.2525  0.6672 -0.2086
  401TIP3   OH2 1166   6.090   4.337   4.676 -0.0803 -0.2307  0.1659
  401TIP3    H1 1167   6.117   4.368   4.763 -0.4322 -1.2103  0.6308
  401TIP3    H2 1168   6.095   4.415   4.621 -1.0010  0.6886  1.3223
  402TIP3   OH2 1169   2.843   1.216   2.559 -0.0280  0.4695 -0.4070
  402TIP3    H1 1170   2.840   1.141   2.499 -0.7313  1.4813 -1.6767
  402TIP3    H2 1171   2.753   1.249   2.561 -0.0880  0.2695  1.4867
  403TIP3   OH2 1172   1.141   4.860   4.045 -1.1928  0.0112  0.1791
  403TIP3    H1 1173   1.093   4.938   4.015 -1.0037 -0.0711 -0.3552
  403TIP3    H2 1174   1.088   4.786   4.014 -0.8191 -0.0781 -0.2655
  404TIP3   OH2 1175   3.701   1.115   4.983 -0.2517  0.2136 -0.5122
  404TIP3    H1 1176   3.622   1.168   4.993  0.0462  0.2084  2.7464
  404TIP3    H2 1177   3.771   1.167   5.023  0.6557 -1.3441  0.0203
  405TIP3   OH2 1178   2.931   0.385   1.729 -0.6939 -0.0721  0.2628
  405TIP3    H1 1179   2.958   0.307   1.778  0.2721  0.1601  0.1336
  405TIP3    H2 1180   2.955   0.458   1.785 -1.6287  0.1442  0.3990
  406TIP3   OH2 1181   7.157   4.063   3.522  0.1183 -0.1796  0.0588
  406TIP3    H1 1182   7.124   4.033   3.606 -0.6253 -1.5220 -0.6796
  406TIP3    H2 1183   7.081   4.058   3.463  0.4428  1.3974 -0.5574
  407TIP3   OH2 1184   7.153   0.876   3.107 -0.0167  0.5619 -0.1596
  407TIP3    H1 1185   7.157   0.793   3.060  0.2202  0.3764  0.1936
  407TIP3    H2 1186   7.080   0.866   3.168  1.4450 -0.2388  1.5223
  408TIP3   OH2 1187   1.346   0.235   2.347  0.4983 -0.2950 -0.2138
  408TIP3    H1 1188   1.259   0.241   2.308 -0.4489 -2.7611  1.2971
  408TIP3    H2 1189   1.397   0.184   2.283  0.0948 -0.9240 -0.0493
  409TIP3   OH2 1190   3.543   6.469   4.329 -0.5134 -0.0920 -0.2695
  409TIP3    H1 1191   3.550   6.519   4.248 -1.4058  0.2334 -0.1580
  409TIP3    H2 1192   3.489   6.524   4.386 -0.2605 -0.5162  0.3903
  410TIP3   OH2 1193   2.177   1.523   0.780 -0.1470  0.1828  0.1086
  410TIP3    H1 1194   2.158   1.566   0.696  0.5965 -0.0470 -0.1818
  410TIP3    H2 1195   2.168   1.429   0.762  2.0720 -0.0013 -0.2793
  411TIP3   OH2 1196   0.224   5.391   2.782 -0.3285  0.6371  0.0348
  411TIP3    H1 1197   0.201   5.473   2.739  0.6974 -0.4862 -2.8904
  411TIP3    H2 1198   0.285   5.348   2.722 -0.7105 -2.2246  1.4940
  412TIP3   OH2 1199   2.595   5.738   0.346 -0.3730 -0.5108  0.5246
  412TIP3    H1 1200   2.524   5.769   0.290  0.0208 -1.4231 -0.5295
  412TIP3    H2 1201   2.632   5.817   0.384 -0.4643  0.1787 -0.7585
  413TIP3   OH2 1202   3.823   4.497   2.836 -0.4907 -0.6801 -0.0469
  413TIP3    H1 1203   3.855   4.521   2.923 -2.5617  0.6522  0.4447
  413TIP3    H2 1204   3.901   4.489   2.782  0.8027 -0.9204  1.7899
  414TIP3   OH2 1205   6.862   1.271   4.910 -0.0055 -0.5602 -0.1602
  414TIP3    H1 1206   6.786   1.321   4.939  0.5767  0.6888 -0.7397
  414TIP3    H2 1207   6.840   1.243   4.821  0.7733  1.0763 -0.9099
  415TIP3   OH2 1208   1.280   1.300   1.030  0.4163 -0.1065 -0.3453
  415TIP3    H1 1209   1.203   1.327   0.979 -0.0192 -0.2331  0.2351
  415TIP3    H2 1210   1.261   1.210   1.055  0.0589  0.3554  1.0957
  416TIP3   OH2 1211   2.738   5.570   4.802 -0.0242 -0.0487 -0.4512
  416TIP3    H1 1212   2.718   5.567   4.709 -0.2238  1.4445 -0.4904
  416TIP3    H2 1213   2.826   5.608   4.807 -0.4408  0.8930 -0.0143
  417TIP3   OH2 1214   5.568   4.244   4.282 -0.0355  0.0573 -0.1513
  417TIP3    H1 1215   5.582   4.316   4.221  1.4223  0.2468  0.3780
  417TIP3    H2 1216   5.484   4.264   4.324  0.2266  1.3103 -0.1988
  418TIP3   OH2 1217   7.206   6.350   4.364 -0.1470  0.1893  0.4007
  418TIP3    H1 1218   7.162   6.272   4.397 -0.5382 -0.2027 -0.9929
  418TIP3    H2 1219   7.136   6.404   4.328  0.3982 -0.1607 -1.2816
  419TIP3   OH2 1220   3.059   1.118   2.397 -0.0641 -0.0287  0.3582
  419TIP3    H1 1221   3.151   1.099   2.377 -0.4718 -0.6615 -0.9777
  419TIP3    H2 1222   3.027   1.037   2.436 -0.0887  0.1620  0.7386
  420TIP3   OH2 1223   4.242   6.111   3.958  0.0565  0.7162 -0.4819
  420TIP3    H1 1224   4.256   6.151   4.044 -0.1846 -0.2261  0.0194
  420TIP3    H2 1225   4.317   6.138   3.906  1.4028 -0.4926  0.7159
  421TIP3   OH2 1226   5.169   3.184   1.362 -0.2331  0.3387 -0.0142
  421TIP3    H1 1227   5.196   3.220   1.446 -1.8190  1.0279  0.2392
  421TIP3    H2 1228   5.157   3.090   1.379 -0.5935  0.4815  0.5563
  422TIP3   OH2 1229   5.233   0.073   5.658 -0.0978  0.2753 -0.2643
  422TIP3    H1 1230   5.170   0.004   5.639  0.2569  0.2324 -1.3141
  422TIP3    H2 1231   5.315   0.042   5.620  0.2870  0.8547  0.0775
  423TIP3   OH2 1232   4.148   6.261   0.313  0.1734 -0.0225 -0.1471
  423TIP3    H1 1233   4.154   6.334   0.251  0.6838  0.0705  0.0100
  423TIP3    H2 1234   4.238   6.242   0.337 -0.0037 -0.1755  0.4311
  424TIP3   OH2 1235   1.257   2.719   4.015 -0.3300  0.7360 -0.1689
  424TIP3    H1 1236   1.342   2.676   4.001  0.2004  1.8224 -0.4213
  424TIP3    H2 1237   1.249   2.724   4.111 -0.2630  0.3448 -0.1401
  425TIP3   OH2 1238   4.415   2.469   1.312 -0.1932 -0.1165 -0.8343
  425TIP3    H1 1239   4.484   2.530   1.285 -0.5192  0.3864 -0.5677
  425TIP3    H2 1240   4.448   2.430   1.393 -1.0458  1.6219  0.4114
  426TIP3   OH2 1241   5.483   0.357   5.580 -0.0592  0.0473 -0.2183
  426TIP3    H1 1242   5.558   0.402   5.542 -0.2467 -0.2023 -0.9201
  426TIP3    H2 1243   5.521   0.296   5.644  0.3671 -0.2474 -0.7368
  427TIP3   OH2 1244   2.787   0.996   0.568 -0.2194  0.5598 -0.4243
  427TIP3    H1 1245   2.718   1.059   0.549 -0.0146  1.3228  1.2420
  427TIP3    H2 1246   2.863   1.049   0.591  0.7812 -0.2761 -1.6542
  428TIP3   OH2 1247   4.185   1.282   0.886 -0.4335  0.5417 -0.4032
  428TIP3    H1 1248   4.116   1.235   0.841  0.2536 -0.4998 -0.4054
  428TIP3    H2 1249   4.253   1.216   0.902 -0.8665  0.6657  2.6658
  429TIP3   OH2 1250   2.200   3.097   2.060  0.0334 -0.0186  0.3027
  429TIP3    H1 1251   2.262   3.057   2.121 -0.2308 -0.2329  0.4324
  429TIP3    H2 1252   2.203   3.042   1.982  1.4051  1.0364 -0.4327
  430TIP3   OH2 1253   3.460   4.552   1.728  0.0260 -0.7232  0.0727
  430TIP3    H1 1254   3.492   4.642   1.732 -1.9489 -0.0163  1.1658
  430TIP3    H2 1255   3.380   4.557   1.676  0.2957 -1.9961 -0.5053
  431TIP3   OH2 1256   1.768   1.799   5.302 -0.2551 -0.0807 -0.1537
  431TIP3    H1 1257   1.793   1.750   5.224  0.6943 -0.2301  0.2235
  431TIP3    H2 1258   1.846   1.796   5.357 -1.8020 -2.6107  2.1619
  432TIP3   OH2 1259   3.214   0.940   0.670 -0.3498 -0.1157  0.0687
  432TIP3    H1 1260   3.179   0.870   0.615  1.1119 -0.6646 -0.2071
  432TIP3    H2 1261   3.278   0.984   0.614  1.5346 -0.9942  1.4294
  433TIP3   OH2 1262   2.332   1.709   3.094  0.3074 -0.4199 -0.1276
  433TIP3    H1 1263   2.346   1.620   3.063  0.9445 -0.5274  0.4369
  433TIP3    H2 1264   2.402   1.723   3.159  1.0957  0.9754 -1.2269
  434TIP3   OH2 1265   4.684   5.432   0.865 -0.5289  0.1716  0.3816
  434TIP3    H1 1266   4.674   5.369   0.794  0.9263  0.1786  0.1355
  434TIP3    H2 1267   4.744   5.498   0.830 -0.3785  0.5754  1.3629
  435TIP3   OH2 1268   0.772   4.965   2.919  0.7005  0.1033  0.9603
  435TIP3    H1 1269   0.796   5.029   2.985 -0.2310  1.0749  0.3912
  435TIP3    H2 1270   0.703   5.007   2.868  1.8001 -0.3610 -1.0273
  436TIP3   OH2 1271   0.815   0.064   3.391  0.2799  0.3438  0.1465
  436TIP3    H1 1272   0.889   0.061   3.452  0.4654 -1.1259 -0.1088
  436TIP3    H2 1273   0.739   0.080   3.446  0.7901  2.0501  0.3917
  437TIP3   OH2 1274   3.250   1.873   5.120  0.3805 -0.2926  0.3891
  437TIP3    H1 1275   3.169   1.923   5.114  0.1464 -0.7381 -0.1935
  437TIP3    H2 1276   3.307   1.926   5.177 -0.9638 -0.8413  2.3565
  438TIP3   OH2 1277   5.739   5.260   2.137 -0.2275 -0.1476  0.6365
  438TIP3    H1 1278   5.696   5.340   2.108 -0.5229 -0.4915  0.0992
  438TIP3    H2 1279   5.719   5.255   2.231  0.4514  0.7984  0.8436
  439TIP3   OH2 1280   4.657   1.365   2.545 -0.0532 -0.0506  0.2286
  439TIP3    H1 1281   4.717   1.296   2.519  0.0057  0.0434  0.1142
  439TIP3    H2 1282   4.682   1.385   2.636  0.4194  0.3304  0.0225
  440TIP3   OH2 1283   4.221   2.192   5.020  0.0116 -0.1649  1.2127
  440TIP3    H1 1284   4.197   2.122   4.959 -1.0159  1.0858  0.1496
  440TIP3    H2 1285   4.316   2.184   5.029  0.0710 -0.8808  0.0786
  441TIP3   OH2 1286   5.152   6.218   5.216  0.3432  0.4126  0.0167
  441TIP3    H1 1287   5.118   6.263   5.139  1.1125  0.3931 -0.3490
  441TIP3    H2 1288   5.221   6.161   5.182  3.2013  2.9546  1.0186
  442TIP3   OH2 1289   1.458   0.006   5.355 -0.4878  0.0719  0.3118
  442TIP3    H1 1290   1.407  -0.072   5.376 -0.7343  0.1776  0.1031
  442TIP3    H2 1291   1.424   0.074   5.414  0.5275 -0.2642  1.3462
  443TIP3   OH2 1292   1.874   2.910   5.408  0.6699  0.2799  0.2982
  443TIP3    H1 1293   1.915   2.918   5.494  0.1424 -1.5346  0.7551
  443TIP3    H2 1294   1.792   2.863   5.425  0.7772 -0.5096 -1.2603
  444TIP3   OH2 1295   2.754   0.539   2.181  0.5273  0.9658  0.7466
  444TIP3    H1 1296   2.761   0.445   2.194  0.3122  1.2787  4.0547
  444TIP3    H2 1297   2.678   0.551   2.124 -0.8871 -0.8040  2.1682
  445TIP3   OH2 1298   4.398   0.980   5.268  0.0576 -0.0601  0.0924
  445TIP3    H1 1299   4.466   0.986   5.334 -1.5227 -1.9998  2.0631
  445TIP3    H2 1300   4.411   0.894   5.227 -0.9746 -0.3276  0.2880
  446TIP3   OH2 1301   0.667   0.570   2.059 -0.3515  0.2318  0.1775
  446TIP3    H1 1302   0.748   0.614   2.086 -0.5880  0.0345  1.2703
  446TIP3    H2 1303   0.603   0.641   2.050 -0.1559  0.3475 -0.3054
  447TIP3   OH2 1304   1.606   1.382   2.578  0.2527 -0.1615 -0.2151
  447TIP3    H1 1305   1.573   1.314   2.637  0.0564  1.7562  2.0293
  447TIP3    H2 1306   1.700   1.385   2.596 -0.3441  3.5278  3.7366
  448TIP3   OH2 1307   1.036   1.627   4.313 -0.3703  0.2108 -1.0690
  448TIP3    H1 1308   1.003   1.598   4.228 -1.0572 -0.1635 -0.6834
  448TIP3    H2 1309   1.125   1.592   4.318 -0.9540 -1.3226 -0.8856
  449TIP3   OH2 1310   2.729   1.786   1.309 -0.1412 -0.1142  0.5568
  449TIP3    H1 1311   2.747   1.698   1.277  0.5421 -0.1376  0.9920
  449TIP3    H2 1312   2.803   1.807   1.365  0.1772  1.1105 -0.2826
  450TIP3   OH2 1313   6.185   2.879   1.250 -0.3049  0.1467 -0.6064
  450TIP3    H1 1314   6.140   2.962   1.238  0.1325  0.4768 -0.0271
  450TIP3    H2 1315   6.124   2.826   1.303  0.0011  0.6097  0.2188
  451TIP3   OH2 1316   3.156   4.678   5.639  0.3006 -0.4745  0.2245
  451TIP3    H1 1317   3.204   4.609   5.594  1.3516 -0.3828  1.1452
  451TIP3    H2 1318   3.091   4.707   5.576  0.4238 -1.6885 -0.5026
  452TIP3   OH2 1319   0.896   0.517   1.820  0.4681 -0.2817 -0.1484
  452TIP3    H1 1320   0.890   0.440   1.764  1.5592 -0.6417  0.1946
  452TIP3    H2 1321   0.846   0.585   1.774 -1.2314 -1.4063 -0.0423
  453TIP3   OH2 1322   6.297   1.040   0.815  0.0543  0.1498 -0.5070
  453TIP3    H1 1323   6.223   1.101   0.813  0.5986  0.8539  0.1956
  453TIP3    H2 1324   6.284   0.984   0.739 -1.2001  0.2648 -0.4012
  454TIP3   OH2 1325   1.753   4.752   1.524  0.4209  0.4504  0.4233
  454TIP3    H1 1326   1.795   4.797   1.597 -1.6515  0.6047  1.6060
  454TIP3    H2 1327   1.761   4.659   1.545 -1.8621  0.5180  1.9732
  455TIP3   OH2 1328   5.570   5.280   1.230 -0.3645  0.3905  0.5275
  455TIP3    H1 1329   5.574   5.368   1.266  3.4867  1.5805 -2.0871
  455TIP3    H2 1330   5.653   5.240   1.254 -2.1653 -2.8483  2.0092
  456TIP3   OH2 1331   5.261   4.730   3.013  0.1834  0.0297  0.1248
  456TIP3    H1 1332   5.188   4.670   3.019 -0.3643  0.8103  1.9631
  456TIP3    H2 1333   5.221   4.817   3.011  1.0210  0.4243 -0.6286
  457TIP3   OH2 1334   1.259   3.967   1.312 -0.0401  0.2553 -0.5428
  457TIP3    H1 1335   1.311   3.890   1.334 -0.4795  0.2015  0.3742
  457TIP3    H2 1336   1.172   3.932   1.292 -0.2579  0.5120 -0.0662
  458TIP3   OH2 1337   3.604   0.794   2.242  0.0787 -1.1857 -0.1474
  458TIP3    H1 1338   3.593   0.716   2.295 -0.7504  0.1791  1.7951
  458TIP3    H2 1339   3.662   0.850   2.293  0.6107 -0.4846 -1.4714
  459TIP3   OH2 1340   5.181   6.540   3.581  0.0741 -0.3103 -0.2001
  459TIP3    H1 1341   5.191   6.446   3.593 -1.2891 -0.4442  0.0440
  459TIP3    H2 1342   5.262   6.577   3.617  0.5896 -1.3685 -0.2164
  460TIP3   OH2 1343   6.496   6.398   4.845 -0.0454 -0.2082  0.0951
  460TIP3    H1 1344   6.488   6.429   4.755 -3.3533 -1.2589 -0.0993
  460TIP3    H2 1345   6.439   6.456   4.895  0.9698 -0.2711  1.3682
  461TIP3   OH2 1346   4.969   0.256   0.682 -0.3747  0.4588 -0.6940
  461TIP3    H1 1347   4.943   0.176   0.637  0.3578 -0.3894  0.3520
  461TIP3    H2 1348   4.958   0.236   0.775 -4.6538  3.0644 -0.3492
  462TIP3   OH2 1349   2.760   5.693   0.118 -0.3462 -0.6334  0.2082
  462TIP3    H1 1350   2.763   5.785   0.093 -0.6991 -0.3243  1.2601
  462TIP3    H2 1351   2.696   5.689   0.190  1.0413 -1.3787  1.4641
  463TIP3   OH2 1352   5.543   2.248   1.117  0.3499 -0.3954  0.2540
  463TIP3    H1 1353   5.576   2.337   1.126 -1.3350  0.4271 -1.0580
  463TIP3    H2 1354   5.589   2.213   1.041  1.1749 -0.7432  0.9026
  464TIP3   OH2 1355   1.747   3.035   4.568 -0.0948 -0.0491 -0.2216
  464TIP3    H1 1356   1.820   3.008   4.624 -1.0846 -1.1756  0.5796
  464TIP3    H2 1357   1.769   3.000   4.482  0.7342  0.3971 -0.1992
  465TIP3   OH2 1358   6.306   1.930   5.310  0.5753  0.2830 -0.2063
  465TIP3    H1 1359   6.377   1.975   5.265  2.1964 -0.5110  1.4702
  465TIP3    H2 1360   6.323   1.944   5.403 -0.4936 -1.3772  0.2833
  466TIP3   OH2 1361   6.813   2.056   4.523 -0.1049  0.5478 -0.1688
  466TIP3    H1 1362   6.873   2.106   4.467  1.1153  0.7092  1.2191
  466TIP3    H2 1363   6.803   2.111   4.602 -1.0595 -0.0791  0.1662
  467TIP3   OH2 1364   4.643   5.827   3.298 -0.2031  0.7705  0.3505
  467TIP3    H1 1365   4.617   5.735   3.295  0.2095  0.6651 -0.1797
  467TIP3    H2 1366   4.647   5.847   3.391  1.7921 -0.3636  0.5588
  468TIP3   OH2 1367   5.018   6.532   5.388  0.1998 -0.2544  0.2275
  468TIP3    H1 1368   5.092   6.472   5.396 -0.3290 -1.1039 -1.0110
  468TIP3    H2 1369   5.015   6.555   5.295 -2.2318 -1.8120 -0.1863
  469TIP3   OH2 1370   4.424   4.588   4.642  0.4914 -0.2707  0.0596
  469TIP3    H1 1371   4.439   4.658   4.706  1.1901 -0.0243 -0.3549
  469TIP3    H2 1372   4.508   4.543   4.635 -0.0150 -1.3105  0.4863
  470TIP3   OH2 1373   2.653   1.669   2.587  0.2058  0.1434  0.1786
  470TIP3    H1 1374   2.561   1.690   2.604  0.2822 -0.1005  0.9549
  470TIP3    H2 1375   2.677   1.726   2.514 -0.1753  1.2504  0.8745
  471TIP3   OH2 1376   4.696   4.043   0.347  0.1885  0.2288  0.0142
  471TIP3    H1 1377   4.708   3.956   0.385 -0.8382  0.0576 -0.0328
  471TIP3    H2 1378   4.784   4.070   0.321  0.4045 -1.2198 -0.8850
  472TIP3   OH2 1379   1.535   0.160   2.177 -0.0848  0.3814 -0.1143
  472TIP3    H1 1380   1.548   0.096   2.108  0.8046 -0.0071  0.3955
  472TIP3    H2 1381   1.620   0.202   2.188 -0.6576  1.6922 -0.4684
  473TIP3   OH2 1382   4.632   4.997   1.567  0.0269  0.5796  0.4188
  473TIP3    H1 1383   4.677   5.053   1.505  1.3626 -0.1106  0.7302
  473TIP3    H2 1384   4.690   4.993   1.643 -0.3523 -0.6617  0.6688
  474TIP3   OH2 1385   4.264   4.396   5.151  0.0185  1.1266 -0.4255
  474TIP3    H1 1386   4.262   4.379   5.057  1.3855 -0.1992 -0.2533
  474TIP3    H2 1387   4.257   4.491   5.159  2.9546  1.5881 -2.0561
  475TIP3   OH2 1388   0.043   5.950   2.569 -0.2566 -0.2360  0.1259
  475TIP3    H1 1389   0.061   6.008   2.643  0.9907  1.5656 -1.4952
  475TIP3    H2 1390   0.073   5.999   2.492 -0.2300 -2.5744 -1.4617
  476TIP3   OH2 1391   6.960   0.688   3.257 -0.2260  0.5035  0.4407
  476TIP3    H1 1392   6.957   0.635   3.177 -0.3442 -1.1949  1.5316
  476TIP3    H2 1393   6.883   0.661   3.307  0.4772  0.6872  1.6600
  477TIP3   OH2 1394   1.037   3.720   0.856  0.0554  0.2172  0.4347
  477TIP3    H1 1395   0.948   3.702   0.886  0.0841 -1.4363 -0.3664
  477TIP3    H2 1396   1.034   3.811   0.827 -1.1965  0.3969  1.0414
  478TIP3   OH2 1397   1.904   4.276   1.732 -0.1126 -0.2684 -0.3515
  478TIP3    H1 1398   1.913   4.216   1.657  1.1511 -1.2528  0.5443
  478TIP3    H2 1399   1.916   4.220   1.808 -0.0457  0.9570  0.5544
  479TIP3   OH2 1400   4.457   2.728   0.182 -0.2536 -0.0536  0.3110
  479TIP3    H1 1401   4.450   2.816   0.145 -0.4764 -0.1035  0.2357
  479TIP3    H2 1402   4.511   2.679   0.119 -0.1973  0.0063  0.3129
  480TIP3   OH2 1403   4.812   2.930   5.705 -0.1398  0.4795  0.0503
  480TIP3    H1 1404   4.820   2.905   5.613 -2.7046 -2.0890  0.3723
  480TIP3    H2 1405   4.753   3.005   5.705 -0.1684  0.4592 -0.3878
  481TIP3   OH2 1406   6.743   2.378   4.195  0.6099 -0.2277 -0.0072
  481TIP3    H1 1407   6.808   2.318   4.160 -0.3452 -0.4055 -1.5884
  481TIP3    H2 1408   6.708   2.334   4.272  0.9361 -1.0363 -0.3138
  482TIP3   OH2 1409   4.491   4.064   4.736 -0.5026  0.1628  0.2018
  482TIP3    H1 1410   4.451   3.991   4.784  0.7727 -0.6001  0.1599
  482TIP3    H2 1411   4.424   4.131   4.734 -2.0747 -1.3526 -0.5561
  483TIP3   OH2 1412   6.386   1.415   0.070  0.6722  0.2019 -0.0635
  483TIP3    H1 1413   6.403   1.418   0.164 -2.2587 -0.3559  0.5953
  483TIP3    H2 1414   6.386   1.322   0.048  0.5449  0.2817 -0.4175
  484TIP3   OH2 1415   2.459   4.692   0.036  0.5379  0.4555 -0.4186
  484TIP3    H1 1416   2.403   4.653   0.104  1.2558 -0.2900 -0.2380
  484TIP3    H2 1417   2.462   4.626  -0.033  0.1859  1.0180 -0.9808
  485TIP3   OH2 1418   6.877   2.934   3.405 -0.0466  0.6238  0.4932
  485TIP3    H1 1419   6.804   2.888   3.362  0.0305 -0.1581  1.1685
  485TIP3    H2 1420   6.942   2.944   3.336 -1.2792  2.5180 -0.4837
  486TIP3   OH2 1421   3.325   4.091   3.309  0.5952 -0.2591 -0.5885
  486TIP3    H1 1422   3.305   4.001   3.284 -0.4343  0.1532 -1.2848
  486TIP3    H2 1423   3.398   4.116   3.253  0.9347 -0.6800 -0.3394
  487TIP3   OH2 1424   1.356   0.936   4.648 -0.5211  0.2036  0.0839
  487TIP3    H1 1425   1.360   0.872   4.719  1.6370  0.4882  0.2817
  487TIP3    H2 1426   1.263   0.959   4.641 -0.8941 -0.4488  2.2547
  488TIP3   OH2 1427   0.551   4.737   1.954  0.7931  0.0341  0.5086
  488TIP3    H1 1428   0.562   4.802   1.885  1.3729 -1.4310 -0.8279
  488TIP3    H2 1429   0.459   4.743   1.979  0.5240  0.4476 -0.5421
  489TIP3   OH2 1430   6.250   5.041   3.084 -0.1328 -0.0695 -0.6468
  489TIP3    H1 1431   6.193   5.108   3.122  0.0532  0.2352 -0.8985
  489TIP3    H2 1432   6.305   5.012   3.156 -0.2413  0.0220 -0.5268
  490TIP3   OH2 1433   4.378   4.896   3.768  0.0969 -0.0132 -0.4696
  490TIP3    H1 1434   4.314   4.828   3.789 -0.3778  0.5249 -0.1433
  490TIP3    H2 1435   4.360   4.917   3.676  0.2818 -0.3671 -0.5875
  491TIP3   OH2 1436   2.856   3.744   3.326  0.6589  0.3758 -0.0006
  491TIP3    H1 1437   2.875   3.694   3.247  1.3652  0.7277 -0.0590
  491TIP3    H2 1438   2.860   3.680   3.397 -2.3325 -0.4682 -0.4330
  492TIP3   OH2 1439   6.727   4.838   5.509 -0.1291 -0.6628 -0.0770
  492TIP3    H1 1440   6.663   4.864   5.443 -1.2843  1.3385  1.6961
  492TIP3    H2 1441   6.726   4.743   5.509 -2.2977 -0.6817 -0.8846
  493TIP3   OH2 1442   2.351   5.644   1.784 -0.5229 -0.4615  0.6187
  493TIP3    H1 1443   2.383   5.588   1.854 -0.1714 -2.1600 -0.8139
  493TIP3    H2 1444   2.347   5.586   1.707 -2.4105  0.8992 -0.4016
  494TIP3   OH2 1445   0.701   1.259   3.193 -0.7340 -0.1931  0.2151
  494TIP3    H1 1446   0.769   1.225   3.134 -1.8741  0.0090 -1.2876
  494TIP3    H2 1447   0.718   1.353   3.197  0.9483 -0.5063  2.4245
  495TIP3   OH2 1448   5.877   2.034   1.156 -0.6294  0.0537  0.1495
  495TIP3    H1 1449   5.907   2.069   1.072 -0.1027 -0.0221  0.3020
  495TIP3    H2 1450   5.957   2.015   1.205 -0.9136  1.5754  1.2951
  496TIP3   OH2 1451   4.842   1.027   2.200  0.3744  0.3299 -0.1268
  496TIP3    H1 1452   4.913   0.990   2.253 -0.3863 -0.0592  0.6274
  496TIP3    H2 1453   4.871   1.117   2.182  0.3488  0.6919  1.5227
  497TIP3   OH2 1454   4.675   2.280   3.328  0.0641  0.5316  0.2084
  497TIP3    H1 1455   4.607   2.328   3.282 -0.2194 -0.1465 -0.0971
  497TIP3    H2 1456   4.717   2.226   3.260 -0.2009 -0.2961  0.6827
  498TIP3   OH2 1457   5.775   4.490   1.213 -0.1375  0.4552  0.6284
  498TIP3    H1 1458   5.845   4.505   1.277  0.6891  0.9745 -0.3496
  498TIP3    H2 1459   5.778   4.396   1.195  1.8894  0.7748 -1.0762
  499TIP3   OH2 1460   6.526   4.141   1.708 -0.0368  0.0876 -0.0372
  499TIP3    H1 1461   6.617   4.113   1.700 -0.0151 -0.4538  1.6387
  499TIP3    H2 1462   6.484   4.071   1.759 -1.3785  0.3709 -0.6959
  500TIP3   OH2 1463   0.802   3.480   4.943  0.4838 -0.7855  0.1193
  500TIP3    H1 1464   0.768   3.463   4.855  1.4977  2.8829 -1.1459
  500TIP3    H2 1465   0.738   3.541   4.982  0.4552 -1.7471  1.6789
  501TIP3   OH2 1466   4.418   4.618   3.389  0.1845  0.4569  0.5176
  501TIP3    H1 1467   4.500   4.619   3.438  0.2081  0.6817  0.4763
  501TIP3    H2 1468   4.442   4.653   3.303 -0.1111  1.2503  0.7558
  502TIP3   OH2 1469   0.660   3.898   3.861  0.1008  0.5412  0.6789
  502TIP3    H1 1470   0.614   3.955   3.923  0.1258  0.3377  0.8869
  502TIP3    H2 1471   0.591   3.848   3.818  0.0411  1.0766  0.1407
  503TIP3   OH2 1472   5.434   0.497   1.221 -0.3945 -0.0379  0.1824
  503TIP3    H1 1473   5.443   0.565   1.155 -4.3380  0.5253  0.0250
  503TIP3    H2 1474   5.361   0.443   1.191  1.2483 -3.1894  1.3612
  504TIP3   OH2 1475   4.997   4.035   5.328 -0.4025 -0.9252 -0.0571
  504TIP3    H1 1476   4.930   4.079   5.275  0.1632 -1.4769 -1.2735
  504TIP3    H2 1477   5.038   4.106   5.378 -0.3144 -0.2308 -1.0784
  505TIP3   OH2 1478   4.640   3.565   2.237 -0.1480 -0.3618 -0.0314
  505TIP3    H1 1479   4.574   3.533   2.299 -1.8753  0.7347 -1.2271
  505TIP3    H2 1480   4.690   3.487   2.213  0.0962 -0.9433  2.1513
  506TIP3   OH2 1481   5.543   5.540   0.522 -0.4967 -0.1287 -0.3228
  506TIP3    H1 1482   5.542   5.445   0.511  0.0582  0.1290 -3.8556
  506TIP3    H2 1483   5.451   5.565   0.526 -0.6397 -0.8064  1.3371
  507TIP3   OH2 1484   4.015   0.599   5.527  0.2455 -0.4751 -0.2891
  507TIP3    H1 1485   4.070   0.549   5.467 -0.4051 -0.3799 -0.9803
  507TIP3    H2 1486   3.969   0.661   5.471  0.9900  0.8836  0.5396
  508TIP3   OH2 1487   6.698   5.891   4.080 -0.1243 -0.5701  0.0825
  508TIP3    H1 1488   6.791   5.913   4.080 -0.2563  0.0009  0.0189
  508TIP3    H2 1489   6.654   5.971   4.049 -0.5990 -0.9751 -0.3083
  509TIP3   OH2 1490   3.277   2.181   2.135 -1.0366 -0.2421  0.1931
  509TIP3    H1 1491   3.267   2.181   2.040 -1.0115  1.3635  0.1587
  509TIP3    H2 1492   3.199   2.227   2.168  0.0618  1.3187  0.7559
  510TIP3   OH2 1493   0.645   6.769   4.616  0.8388 -0.8043 -0.0203
  510TIP3    H1 1494   0.701   6.714   4.671 -0.0384 -0.2530  1.4692
  510TIP3    H2 1495   0.577   6.802   4.675 -1.0408 -1.3882 -1.7436
  511TIP3   OH2 1496   0.464   0.685   4.870  0.2394  0.1462  0.1244
  511TIP3    H1 1497   0.385   0.671   4.817  2.0422 -2.2155 -2.2503
  511TIP3    H2 1498   0.474   0.603   4.918  0.1139  1.2679  2.1453
  512TIP3   OH2 1499   1.697   3.387   2.922 -0.1481 -0.1739 -0.9982
  512TIP3    H1 1500   1.738   3.447   2.860 -0.2333  0.3777 -0.5218
  512TIP3    H2 1501   1.649   3.443   2.983 -2.0362 -0.7901 -1.8188
  513TIP3   OH2 1502   3.616   0.326   3.237  0.1091  0.3596  0.5019
  513TIP3    H1 1503   3.529   0.349   3.205 -0.1313  1.2189  1.7001
  513TIP3    H2 1504   3.633   0.389   3.307  1.8338  0.4086  0.0853
  514TIP3   OH2 1505   4.970   4.410   3.880 -0.4892  0.5461  0.1439
  514TIP3    H1 1506   4.897   4.443   3.829 -0.7518  0.2782  0.3410
  514TIP3    H2 1507   4.996   4.329   3.835 -2.4744 -1.1927  1.9126
  515TIP3   OH2 1508   4.706   2.937   2.016  0.6267  0.0709  0.5277
  515TIP3    H1 1509   4.773   2.927   1.948 -0.0121 -0.9097  0.0285
  515TIP3    H2 1510   4.633   2.883   1.986 -0.2672  0.8596  1.2311
  516TIP3   OH2 1511   0.890   4.126   1.396  0.0716  0.1503 -0.0563
  516TIP3    H1 1512   0.830   4.179   1.447 -0.2382  0.6371 -0.9024
  516TIP3    H2 1513   0.895   4.043   1.443 -2.2931 -0.3957 -0.6403
  517TIP3   OH2 1514   4.735   3.870   1.758 -0.2142 -0.3998 -0.1443
  517TIP3    H1 1515   4.670   3.837   1.820 -1.5914  0.7277 -0.9027
  517TIP3    H2 1516   4.700   3.955   1.731  2.4225  1.0279  0.6377
  518TIP3   OH2 1517   3.865   6.184   5.061  0.0937  0.1950  0.5692
  518TIP3    H1 1518   3.796   6.249   5.048 -0.1134  0.2618  1.8352
  518TIP3    H2 1519   3.831   6.126   5.130 -0.0860 -1.7807 -1.0760
  519TIP3   OH2 1520   3.173   3.362   3.144  0.7178 -0.0270 -0.3964
  519TIP3    H1 1521   3.139   3.333   3.229  3.5293  0.2012  0.9392
  519TIP3    H2 1522   3.109   3.330   3.080 -0.9691 -1.1335  1.7136
  520TIP3   OH2 1523   6.275   4.340   5.801 -0.4658 -0.6544 -0.1906
  520TIP3    H1 1524   6.191   4.355   5.759 -0.5626 -1.3218 -0.2528
  520TIP3    H2 1525   6.258   4.270   5.864 -0.5508  0.9681  1.6792
  521TIP3   OH2 1526   0.589   1.932   2.331  0.0094  0.1803 -0.5929
  521TIP3    H1 1527   0.514   1.873   2.327  1.7121 -2.2164  0.8731
  521TIP3    H2 1528   0.645   1.906   2.257  0.9654 -0.3780  0.3052
  522TIP3   OH2 1529   2.811   3.523   4.268 -0.3807 -0.2053 -0.3908
  522TIP3    H1 1530   2.866   3.533   4.191  1.1350 -0.2119  0.6645
  522TIP3    H2 1531   2.788   3.430   4.270  0.1977 -0.3490 -0.4288
  523TIP3   OH2 1532   6.317   2.858   5.286 -0.1051  0.2723  0.1898
  523TIP3    H1 1533   6.376   2.911   5.233  0.2223  0.8227  1.0917
  523TIP3    H2 1534   6.365   2.841   5.367 -0.5529 -0.6533  0.2764
  524TIP3   OH2 1535   0.667   6.478   4.485  0.1349 -0.1881  0.1658
  524TIP3    H1 1536   0.729   6.462   4.556  1.6081  2.7223 -0.3039
  524TIP3    H2 1537   0.700   6.426   4.412  0.4003 -0.7979  0.7110
  525TIP3   OH2 1538   6.342   2.507   1.449  0.2154  0.1320 -0.1550
  525TIP3    H1 1539   6.298   2.524   1.533  0.5919 -2.1013  0.5561
  525TIP3    H2 1540   6.278   2.532   1.383 -1.6595 -1.6903  0.8449
  526TIP3   OH2 1541   0.006   3.686   4.675  0.4659  0.0947 -0.4911
  526TIP3    H1 1542   0.088   3.645   4.647  0.9039  1.1314 -0.7742
  526TIP3    H2 1543  -0.061   3.648   4.619  1.0350  0.5978 -1.5342
  527TIP3   OH2 1544   6.626   5.497   4.182 -0.2243 -0.1266 -0.2069
  527TIP3    H1 1545   6.584   5.580   4.159 -0.6467  0.0999  1.2738
  527TIP3    H2 1546   6.701   5.522   4.236 -0.5958 -0.7152  0.5978
  528TIP3   OH2 1547   6.676   4.110   5.227 -0.1495 -0.4464  0.1133
  528TIP3    H1 1548   6.642   4.058   5.299 -1.4333  0.4357  0.1805
  528TIP3    H2 1549   6.632   4.077   5.149 -2.4942  1.7143  0.3990
  529TIP3   OH2 1550   4.304   4.478   3.841 -0.2855  0.1442  0.2165
  529TIP3    H1 1551   4.250   4.449   3.768 -0.1014 -0.4348  0.3093
  529TIP3    H2 1552   4.308   4.573   3.831 -1.0701  0.1672  0.0411
  530TIP3   OH2 1553   1.270   6.048   2.070 -0.6622 -0.2466  0.1057
  530TIP3    H1 1554   1.212   6.061   2.144  0.7318  2.2101  0.8754
  530TIP3    H2 1555   1.338   5.989   2.103 -0.7304 -0.1842  0.3572
  531TIP3   OH2 1556   2.527   3.610   1.646  0.0745 -0.5171 -0.5472
  531TIP3    H1 1557   2.449   3.557   1.658 -0.5498  0.6250  0.7519
  531TIP3    H2 1558   2.519   3.646   1.558 -0.8040 -0.4943 -0.4605
  532TIP3   OH2 1559   2.260   3.920   1.567  0.6278  0.1489 -0.2443
  532TIP3    H1 1560   2.185   3.951   1.619  2.4695  2.6851  1.1351
  532TIP3    H2 1561   2.331   3.910   1.631  2.5940  2.0380 -1.9616
  533TIP3   OH2 1562   3.616   2.377   3.620 -0.1009 -0.1629 -0.1855
  533TIP3    H1 1563   3.664   2.382   3.537  0.3022  1.8307  0.1099
  533TIP3    H2 1564   3.678   2.335   3.680  0.7530  0.9981 -0.2007
  534TIP3   OH2 1565   5.566   1.714   4.170  0.1418 -0.0708 -0.2043
  534TIP3    H1 1566   5.658   1.689   4.159 -0.3338 -1.3195 -1.6489
  534TIP3    H2 1567   5.558   1.796   4.121 -0.1911 -1.6596 -3.0525
  535TIP3   OH2 1568   1.366   3.414   3.207  0.9830 -0.5978 -0.0630
  535TIP3    H1 1569   1.404   3.327   3.222 -0.4425 -1.7805 -2.6114
  535TIP3    H2 1570   1.272   3.400   3.210  0.7178  0.7185 -1.2042
  536TIP3   OH2 1571   2.716   1.844   2.372  0.4021 -0.1608  0.4468
  536TIP3    H1 1572   2.674   1.857   2.286  0.8003  3.5569  0.6563
  536TIP3    H2 1573   2.810   1.847   2.354  0.4919  1.0964  0.9913
  537TIP3   OH2 1574   1.757   2.753   4.746 -0.0334  0.0179  0.6445
  537TIP3    H1 1575   1.822   2.821   4.765 -0.1142  0.1817  0.3456
  537TIP3    H2 1576   1.798   2.672   4.775 -0.8636  0.4349  3.2188
  538TIP3   OH2 1577   2.511   4.796   1.352 -0.5862  0.0515  0.2168
  538TIP3    H1 1578   2.485   4.882   1.317  0.4356  0.8799  1.4097
  538TIP3    H2 1579   2.432   4.762   1.393 -0.4867  1.4451  1.6634
  539TIP3   OH2 1580   0.364   2.871   0.815 -0.0192  0.4996 -0.1620
  539TIP3    H1 1581   0.371   2.925   0.894 -0.8872  0.9594 -0.3882
  539TIP3    H2 1582   0.409   2.790   0.838  0.8557  1.1136  0.3570
  540TIP3   OH2 1583   1.614   6.512   5.760  0.2926 -0.6381 -0.5113
  540TIP3    H1 1584   1.609   6.607   5.757  0.0002 -0.6787 -1.5926
  540TIP3    H2 1585   1.626   6.492   5.853  2.2197  0.5214 -0.4459
  541TIP3   OH2 1586   6.235   3.415   5.363 -0.3781  0.2097  0.1748
  541TIP3    H1 1587   6.272   3.327   5.354 -1.7995 -0.5189  1.0381
  541TIP3    H2 1588   6.228   3.448   5.274  3.2062  0.8336 -0.0377
  542TIP3   OH2 1589   2.785   4.952   5.587  0.1558  0.1457  0.3561
  542TIP3    H1 1590   2.772   5.044   5.611 -1.3043  0.6995 -2.2308
  542TIP3    H2 1591   2.741   4.904   5.657  0.0842  1.4409  1.2478
  543TIP3   OH2 1592   6.988   3.850   0.700  0.0219 -0.1447 -0.5551
  543TIP3    H1 1593   6.915   3.867   0.641 -0.2965 -0.7834 -0.3578
  543TIP3    H2 1594   7.002   3.755   0.694  0.3511 -0.1343 -0.0344
  544TIP3   OH2 1595   0.915   4.828   1.794 -0.1954  0.4033  0.2493
  544TIP3    H1 1596   0.930   4.835   1.699 -1.0434  2.3483  0.2117
  544TIP3    H2 1597   0.949   4.741   1.817  0.5397  0.1061 -1.7292
  545TIP3   OH2 1598   5.034   4.319   5.727 -0.0578 -0.1395  0.1403
  545TIP3    H1 1599   5.014   4.232   5.762 -1.3572  0.6394  1.4783
  545TIP3    H2 1600   4.953   4.369   5.741  1.3083  1.8843  1.3728
  546TIP3   OH2 1601   5.376   0.820   0.777  0.2397 -0.1204 -0.3124
  546TIP3    H1 1602   5.350   0.835   0.867 -1.0561 -1.7991 -0.3397
  546TIP3    H2 1603   5.471   0.814   0.779  0.5213  3.0531  0.3586
  547TIP3   OH2 1604   4.856   4.912   5.354 -0.2584  0.6804 -0.1170
  547TIP3    H1 1605   4.942   4.891   5.391  0.7182  2.3898 -1.2929
  547TIP3    H2 1606   4.836   4.999   5.387 -1.9807 -0.0306  0.8246
  548TIP3   OH2 1607   4.451   5.670   4.955 -0.5124 -0.4725  0.2754
  548TIP3    H1 1608   4.381   5.628   5.005  0.1220 -0.8540  0.8530
  548TIP3    H2 1609   4.501   5.598   4.917  0.3848 -0.2520  0.9990
  549TIP3   OH2 1610   6.523   1.229   2.685 -0.4367 -0.7518 -1.0751
  549TIP3    H1 1611   6.434   1.252   2.712 -0.3028 -0.8032 -0.5776
  549TIP3    H2 1612   6.532   1.266   2.597 -1.0179 -0.9204 -1.2090
  550TIP3   OH2 1613   2.810   3.048   5.692  0.4369 -0.5009 -0.6611
  550TIP3    H1 1614   2.899   3.075   5.671  0.2505  2.7192  1.9251
  550TIP3    H2 1615   2.757   3.086   5.622  0.7232  1.5724  0.1908
  551TIP3   OH2 1616   3.727   2.825   1.931 -0.3432  0.6483 -0.0807
  551TIP3    H1 1617   3.769   2.833   1.845 -0.6646  1.4780 -0.1674
  551TIP3    H2 1618   3.799   2.816   1.993 -0.1311 -1.0150 -0.5291
  552TIP3   OH2 1619   4.113   6.760   3.737  0.4316  0.2158 -0.2867
  552TIP3    H1 1620   4.106   6.794   3.648 -0.3563  1.0845  0.0927
  552TIP3    H2 1621   4.192   6.802   3.772  0.9154 -0.3657 -0.6714
  553TIP3   OH2 1622   2.119   2.220   5.234 -0.5129  0.1507  1.1582
  553TIP3    H1 1623   2.104   2.258   5.148 -0.9049  0.1078  1.2063
  553TIP3    H2 1624   2.208   2.187   5.230 -0.6319 -0.1141  0.6720
  554TIP3   OH2 1625   5.052   3.114   3.349 -0.2855 -0.0751 -0.2362
  554TIP3    H1 1626   5.081   3.154   3.267  0.7581  0.5437  0.4214
  554TIP3    H2 1627   4.970   3.159   3.370  0.1570  0.7460 -0.2360
  555TIP3   OH2 1628   4.228   5.375   4.097  0.5944  0.3757 -0.0068
  555TIP3    H1 1629   4.220   5.468   4.075  1.2716  0.7068  1.0598
  555TIP3    H2 1630   4.212   5.371   4.192  1.1369 -0.5146  0.0615
  556TIP3   OH2 1631   5.277   0.964   4.957 -0.2494  0.7373  0.2286
  556TIP3    H1 1632   5.296   1.057   4.953 -2.3216  1.1938 -0.4916
  556TIP3    H2 1633   5.347   0.927   5.010  0.4159  2.7555  0.8468
  557TIP3   OH2 1634   1.926   5.224   1.342  0.2352  0.1006 -0.5529
  557TIP3    H1 1635   1.906   5.215   1.435  2.3812 -0.9898 -0.1189
  557TIP3    H2 1636   1.981   5.303   1.337  1.5878 -0.7989 -0.5611
  558TIP3   OH2 1637   2.746   0.489   3.611  0.1243 -0.4157  0.6155
  558TIP3    H1 1638   2.775   0.569   3.568  0.6486 -1.2849 -0.6935
  558TIP3    H2 1639   2.697   0.520   3.687  0.7718  1.1387  0.4482
  559TIP3   OH2 1640   1.577   3.826   4.872 -0.6303 -0.4457  0.2969
  559TIP3    H1 1641   1.576   3.764   4.944 -1.2754 -2.5602 -1.4221
  559TIP3    H2 1642   1.502   3.884   4.888 -0.4188 -0.4967  1.5786
  560TIP3   OH2 1643   6.753   0.395   3.996  0.0194  0.0815  0.5896
  560TIP3    H1 1644   6.785   0.307   4.018  1.3128  0.7995  1.7195
  560TIP3    H2 1645   6.768   0.403   3.901  1.8636 -0.1554  0.8372
  561TIP3   OH2 1646   1.637   2.356   1.399  0.0448 -0.3727 -0.1475
  561TIP3    H1 1647   1.686   2.408   1.334  1.0731 -1.5945 -0.3928
  561TIP3    H2 1648   1.653   2.265   1.374  1.5378 -0.9577  2.4964
  562TIP3   OH2 1649   1.806   3.825   0.794  0.5399  0.2215 -0.0777
  562TIP3    H1 1650   1.723   3.778   0.778  1.5171 -1.8113  0.4823
  562TIP3    H2 1651   1.795   3.909   0.749 -2.1036  0.3224  0.6050
  563TIP3   OH2 1652   3.582   5.543   5.158 -0.1659  0.6945 -0.3367
  563TIP3    H1 1653   3.596   5.637   5.148 -1.6632  0.9000 -0.7389
  563TIP3    H2 1654   3.594   5.508   5.070  0.3700  0.4982 -0.1911
  564TIP3   OH2 1655   0.338   5.294   2.493 -0.0640  0.1562 -0.0203
  564TIP3    H1 1656   0.349   5.388   2.508 -0.5280  0.5356 -1.8038
  564TIP3    H2 1657   0.427   5.259   2.491  0.2975  1.0854 -2.2044
  565TIP3   OH2 1658   1.093   5.148   3.980  0.2105 -0.1648  0.3294
  565TIP3    H1 1659   1.043   5.158   3.899  0.5137 -3.1848 -0.3595
  565TIP3    H2 1660   1.184   5.166   3.955 -0.1255  3.3938  1.1467
  566TIP3   OH2 1661   5.882   3.234   5.324  0.1938  0.1309 -0.2534
  566TIP3    H1 1662   5.909   3.292   5.395  1.4476  0.1348 -0.7213
  566TIP3    H2 1663   5.886   3.288   5.245 -1.0100  0.0740 -0.3765
  567TIP3   OH2 1664   4.560   6.517   0.205  0.0200 -0.5129  0.1807
  567TIP3    H1 1665   4.586   6.430   0.175  0.3830  0.0293 -1.1966
  567TIP3    H2 1666   4.490   6.543   0.144  0.2953  0.3691  0.2247
  568TIP3   OH2 1667   1.152   4.104   4.493  0.4919  0.1084  0.1531
  568TIP3    H1 1668   1.119   4.054   4.417  0.2060  3.1929 -1.9450
  568TIP3    H2 1669   1.232   4.145   4.462  0.7008  0.9889  1.7489
  569TIP3   OH2 1670   1.438   0.596   3.273  0.1322  0.2704  0.0450
  569TIP3    H1 1671   1.488   0.534   3.325 -1.9523 -1.9409 -0.3764
  569TIP3    H2 1672   1.470   0.584   3.184  2.1773  2.4821  0.3759
  570TIP3   OH2 1673   0.600   3.715   4.925  0.0463  0.4632 -0.4748
  570TIP3    H1 1674   0.611   3.798   4.878 -0.8656  1.4359  0.9619
  570TIP3    H2 1675   0.603   3.649   4.856  2.0041  1.5573 -1.5400
  571TIP3   OH2 1676   2.815   2.520   0.344 -0.0811  0.0644  0.0195
  571TIP3    H1 1677   2.903   2.484   0.336 -0.7152 -1.6843  0.4553
  571TIP3    H2 1678   2.822   2.584   0.415  0.4556 -1.4637  1.4172
  572TIP3   OH2 1679   1.368   5.541   1.695  0.4328 -0.2664 -0.6041
  572TIP3    H1 1680   1.444   5.598   1.697 -0.4748  0.9563  0.9610
  572TIP3    H2 1681   1.324   5.562   1.613 -0.0337  1.5572  0.0608
  573TIP3   OH2 1682   3.131   1.331   5.645 -0.1825 -0.0354  0.2399
  573TIP3    H1 1683   3.065   1.394   5.675  0.5963  0.5412  0.7741
  573TIP3    H2 1684   3.187   1.317   5.721 -0.9370 -2.2079  0.4806
  574TIP3   OH2 1685   1.247   3.397   4.524 -0.5493  0.0657  0.2393
  574TIP3    H1 1686   1.330   3.406   4.478 -0.8573 -0.7718 -0.5066
  574TIP3    H2 1687   1.261   3.441   4.608  0.0985  1.3775 -0.5402
  575TIP3   OH2 1688   6.241   2.493   4.311  0.4899 -0.0931 -0.0494
  575TIP3    H1 1689   6.256   2.398   4.311  0.6469 -0.0898 -1.3234
  575TIP3    H2 1690   6.146   2.502   4.321  0.3873 -0.4166 -0.6922
  576TIP3   OH2 1691   4.441   6.114   2.113  0.2022  0.2560  0.3266
  576TIP3    H1 1692   4.469   6.167   2.188  1.5768 -0.8724  0.6522
  576TIP3    H2 1693   4.413   6.032   2.152  0.4473 -0.1601 -0.3645
  577TIP3   OH2 1694   5.311   6.293   3.342 -0.2222 -0.2231 -0.5581
  577TIP3    H1 1695   5.309   6.301   3.437  2.4054 -1.0383 -0.3649
  577TIP3    H2 1696   5.301   6.383   3.310 -0.9758  0.0735  0.4642
  578TIP3   OH2 1697   7.114   4.604   0.085  0.8582  0.1654  0.2730
  578TIP3    H1 1698   7.076   4.541   0.023 -1.0430  0.1682  1.3485
  578TIP3    H2 1699   7.206   4.580   0.090  1.8839  1.9349 -4.6623
  579TIP3   OH2 1700   2.432   3.417   1.992  0.1392 -0.3896 -0.4790
  579TIP3    H1 1701   2.338   3.431   1.988  0.2539  0.4094 -0.4228
  579TIP3    H2 1702   2.454   3.380   1.906 -0.2613 -0.8654 -0.3843
  580TIP3   OH2 1703   2.121   4.852   0.080  0.5705  0.2932  0.2911
  580TIP3    H1 1704   2.125   4.766   0.123 -1.7718  0.1582  0.3561
  580TIP3    H2 1705   2.028   4.872   0.074  0.9389  1.7332 -1.9595
  581TIP3   OH2 1706   5.216   1.903   0.244 -0.7039 -0.2787  0.1534
  581TIP3    H1 1707   5.142   1.878   0.300 -2.0314 -0.0713 -1.4478
  581TIP3    H2 1708   5.223   1.998   0.255 -1.8860 -0.0286 -1.0777
  582TIP3   OH2 1709   3.548   4.229   1.809 -0.2501 -0.0598 -0.4393
  582TIP3    H1 1710   3.473   4.229   1.748 -1.6593 -1.9300  1.1865
  582TIP3    H2 1711   3.549   4.141   1.846  2.2024  0.2276  0.3366
  583TIP3   OH2 1712   1.406   0.914   0.981  0.1386 -0.1105 -0.0793
  583TIP3    H1 1713   1.346   0.949   1.047 -1.1574 -0.1101 -1.1943
  583TIP3    H2 1714   1.406   0.820   0.996  1.1126  0.0260  0.9027
  584TIP3   OH2 1715   3.930   4.273   2.178 -1.0445  0.0573 -0.1410
  584TIP3    H1 1716   3.872   4.198   2.192 -0.5273 -0.1334  1.1400
  584TIP3    H2 1717   3.872   4.348   2.174 -1.4722 -0.2640  0.0019
  585TIP3   OH2 1718   5.792   0.148   3.297 -0.6654 -1.0273 -0.6137
  585TIP3    H1 1719   5.763   0.104   3.376 -0.2436 -0.9152 -0.3959
  585TIP3    H2 1720   5.751   0.235   3.301  0.9705 -0.2600  0.5139
  586TIP3   OH2 1721   3.169   5.180   2.537  0.2802  0.4508 -0.4870
  586TIP3    H1 1722   3.152   5.091   2.504 -1.2213  0.2766  0.6533
  586TIP3    H2 1723   3.243   5.169   2.597 -0.3837 -0.2063  0.2431
  587TIP3   OH2 1724   3.656   3.754   1.982 -0.3189  0.0262 -0.5296
  587TIP3    H1 1725   3.578   3.774   2.034  0.7577  1.3702  0.6665
  587TIP3    H2 1726   3.672   3.661   1.998 -0.8736  0.0654  0.3641
  588TIP3   OH2 1727   6.408   5.215   4.580  0.3327  0.4472 -0.1848
  588TIP3    H1 1728   6.319   5.204   4.615  1.2713 -1.0607  1.9482
  588TIP3    H2 1729   6.405   5.298   4.532 -1.1804  2.7490  3.4653
  589TIP3   OH2 1730   6.964   5.082   0.860 -0.4022  0.0753  0.8083
  589TIP3    H1 1731   6.921   5.018   0.916  0.2269 -0.3476  0.8171
  589TIP3    H2 1732   6.924   5.166   0.885 -1.3738 -0.3269  0.6545
  590TIP3   OH2 1733   5.777   0.981   5.558  0.6012  0.0013  0.2503
  590TIP3    H1 1734   5.791   1.072   5.585 -0.0709  0.4290 -0.7915
  590TIP3    H2 1735   5.825   0.973   5.475  1.4584 -0.8786  0.8155
  591TIP3   OH2 1736   6.125   6.244   0.810 -0.0918 -0.1043  0.3652
  591TIP3    H1 1737   6.192   6.295   0.857 -0.1065 -0.3215  0.6212
  591TIP3    H2 1738   6.157   6.242   0.720  0.8162 -1.1405  0.6907
  592TIP3   OH2 1739   0.732   5.640   0.940 -0.3415  0.5081 -0.0373
  592TIP3    H1 1740   0.705   5.690   0.862 -1.2998  0.3427  0.1813
  592TIP3    H2 1741   0.821   5.611   0.919 -0.2787  1.1529 -0.7343
  593TIP3   OH2 1742   2.989   5.176   3.512  0.0983 -0.5919  0.3687
  593TIP3    H1 1743   3.072   5.201   3.553  0.1025  0.5872 -0.3200
  593TIP3    H2 1744   2.923   5.228   3.558  0.0076  0.1148 -0.5380
  594TIP3   OH2 1745   2.668   6.624   0.961 -0.3970 -0.1464 -0.0998
  594TIP3    H1 1746   2.638   6.701   0.913 -0.9462  0.5653  1.3362
  594TIP3    H2 1747   2.607   6.615   1.034  1.1677 -0.3625  1.2619
  595TIP3   OH2 1748   1.888   1.962   4.020 -0.0868 -0.2808 -0.4201
  595TIP3    H1 1749   1.933   1.936   3.940  2.1836 -0.6504  0.9062
  595TIP3    H2 1750   1.820   1.896   4.031 -0.3276 -0.3291 -1.9147
  596TIP3   OH2 1751   4.687   4.816   0.313  0.5531 -0.5652 -0.1258
  596TIP3    H1 1752   4.665   4.803   0.405  0.2310 -0.2015 -0.1508
  596TIP3    H2 1753   4.737   4.737   0.289  0.7584 -0.5968  0.3921
  597TIP3   OH2 1754   7.053   0.192   2.839  0.0883 -0.0914  0.1519
  597TIP3    H1 1755   6.984   0.172   2.775 -0.4688 -0.2102  0.7784
  597TIP3    H2 1756   7.007   0.236   2.910  0.3191 -1.8983  1.4841
  598TIP3   OH2 1757   1.824   6.418   4.639 -0.3558  0.7214  0.7584
  598TIP3    H1 1758   1.819   6.326   4.611 -0.4446  0.5014  1.4734
  598TIP3    H2 1759   1.830   6.468   4.557 -2.1220  0.1980  0.2547
  599TIP3   OH2 1760   6.413   0.988   5.850  0.1839  0.6026  0.3871
  599TIP3    H1 1761   6.375   1.046   5.785  0.0142  1.3901  1.1640
  599TIP3    H2 1762   6.505   1.016   5.857  0.6940 -0.6742 -0.8057
  600TIP3   OH2 1763   3.887   2.090   5.034  0.1985 -0.1037  0.1801
  600TIP3    H1 1764   3.852   2.172   5.070  0.0718  0.0488 -0.2932
  600TIP3    H2 1765   3.951   2.061   5.100  1.0623  0.9583 -0.1616
  601TIP3   OH2 1766   6.143   1.560   4.400  0.4898  0.1882 -0.1580
  601TIP3    H1 1767   6.134   1.465   4.388  0.8463  0.1871 -0.4341
  601TIP3    H2 1768   6.225   1.582   4.356  0.7212  0.5322  0.4396
  602TIP3   OH2 1769   2.304   0.120   0.878 -0.1381  0.0565  0.5724
  602TIP3    H1 1770   2.214   0.099   0.904 -0.5587 -0.0884 -0.8737
  602TIP3    H2 1771   2.359   0.066   0.935 -0.8767  1.1868  2.4448
  603TIP3   OH2 1772   6.329   3.016   1.585 -0.2848  0.0584  0.2007
  603TIP3    H1 1773   6.242   2.983   1.606 -0.3317 -0.5633 -0.9004
  603TIP3    H2 1774   6.317   3.110   1.571 -0.8680 -0.0945 -0.3809
  604TIP3   OH2 1775   3.931   4.656   1.622  0.5590 -0.0524 -0.5223
  604TIP3    H1 1776   3.879   4.674   1.700  0.2919 -0.7050 -0.5483
  604TIP3    H2 1777   3.902   4.721   1.558 -0.9095 -0.9803 -0.8496
  605TIP3   OH2 1778   3.974   1.640   3.867  0.5815  0.0180 -0.6628
  605TIP3    H1 1779   4.046   1.578   3.877  0.1857 -0.4635 -0.7554
  605TIP3    H2 1780   3.917   1.623   3.943  0.9561  0.9295 -0.1639
  606TIP3   OH2 1781   3.543   2.253   3.133  0.4719  0.2242  0.9040
  606TIP3    H1 1782   3.475   2.234   3.068 -1.4712 -1.9226  3.3459
  606TIP3    H2 1783   3.597   2.320   3.092 -2.2798  1.0314 -1.7749
  607TIP3   OH2 1784   1.761   6.095   4.753 -0.0513 -0.1317  0.1029
  607TIP3    H1 1785   1.833   6.104   4.690  0.2304  0.4541  0.4977
  607TIP3    H2 1786   1.743   6.001   4.756  0.2655 -0.2162 -0.4790
  608TIP3   OH2 1787   3.883   0.506   4.619  0.2179  0.2315 -0.6611
  608TIP3    H1 1788   3.873   0.420   4.577 -4.9443 -0.0743  0.4669
  608TIP3    H2 1789   3.890   0.568   4.547  0.0034 -0.8403 -1.6314
  609TIP3   OH2 1790   1.864   5.351   4.925 -0.0314  0.0206  0.0621
  609TIP3    H1 1791   1.813   5.345   4.844 -0.3792 -1.3494  0.3614
  609TIP3    H2 1792   1.847   5.440   4.957 -0.3397  0.3888 -1.0687
  610TIP3   OH2 1793   7.033   2.219   3.647  0.3687  0.0301  0.1673
  610TIP3    H1 1794   7.043   2.145   3.587 -1.7766 -0.2454  0.0522
  610TIP3    H2 1795   7.006   2.180   3.730 -0.5666  0.6292  0.1711
  611TIP3   OH2 1796   4.439   4.803   0.821  0.1350  0.1346 -0.2459
  611TIP3    H1 1797   4.422   4.881   0.769  0.7546 -0.1631 -0.9165
  611TIP3    H2 1798   4.488   4.745   0.762 -1.2001 -1.1896 -0.1179
  612TIP3   OH2 1799   6.643   5.111   0.007  0.1081  0.1483  0.2273
  612TIP3    H1 1800   6.655   5.017   0.012  1.6031  0.2143 -1.1998
  612TIP3    H2 1801   6.729   5.148   0.029  0.0408  1.0781 -0.9635
  613TIP3   OH2 1802   1.942   0.367   0.872  0.0137  0.0867  0.5144
  613TIP3    H1 1803   1.965   0.295   0.814 -2.6142  0.7060 -1.4971
  613TIP3    H2 1804   2.023   0.418   0.881  0.5900 -0.1145 -2.5619
  614TIP3   OH2 1805   3.618   6.197   1.852  0.3291  0.1639  0.3522
  614TIP3    H1 1806   3.577   6.278   1.822  0.9359  0.4292  0.2064
  614TIP3    H2 1807   3.703   6.196   1.808  0.5947 -0.2248  0.8583
  615TIP3   OH2 1808   2.873   0.540   0.027 -0.0282  0.0002  0.1311
  615TIP3    H1 1809   2.888   0.448   0.007 -0.2797 -0.0008 -0.0561
  615TIP3    H2 1810   2.803   0.539   0.092 -0.7371  0.0940 -0.6008
  616TIP3   OH2 1811   3.159   6.332   5.241 -0.1666  0.6863  0.2818
  616TIP3    H1 1812   3.191   6.248   5.210  2.9210  2.1393 -0.8998
  616TIP3    H2 1813   3.173   6.330   5.335  0.5919  0.1165  0.1671
  617TIP3   OH2 1814   2.222   3.428   0.585  0.4345 -0.1155 -0.2587
  617TIP3    H1 1815   2.269   3.506   0.617 -0.5902  0.9670 -1.3178
  617TIP3    H2 1816   2.288   3.358   0.589  1.4711  0.8504  0.4211
  618TIP3   OH2 1817   1.200   2.589   3.770 -1.1296 -0.1576  0.4657
  618TIP3    H1 1818   1.284   2.602   3.725 -2.0925 -0.8342 -1.6641
  618TIP3    H2 1819   1.208   2.638   3.851  1.5633 -0.7192  0.6313
  619TIP3   OH2 1820   2.594   0.296   4.957 -0.3877  0.2240  0.0807
  619TIP3    H1 1821   2.681   0.273   4.923 -0.0658  1.4918 -0.0009
  619TIP3    H2 1822   2.612   0.358   5.027 -1.1965 -0.2869  0.7491
  620TIP3   OH2 1823   6.199   3.530   1.857  0.5239 -0.0100 -0.1451
  620TIP3    H1 1824   6.128   3.465   1.854 -0.5563  1.1218  0.0496
  620TIP3    H2 1825   6.279   3.479   1.843 -0.3028 -1.3571 -0.1234
  621TIP3   OH2 1826   6.725   0.890   3.576 -0.5244  0.1851  0.3308
  621TIP3    H1 1827   6.643   0.843   3.593  0.2851 -1.1358  0.6778
  621TIP3    H2 1828   6.782   0.867   3.648  0.8211 -0.4702 -0.9042
  622TIP3   OH2 1829   0.201   1.095   2.603 -0.2898  0.1277 -0.1824
  622TIP3    H1 1830   0.230   1.020   2.550 -0.5236  0.6437 -1.0743
  622TIP3    H2 1831   0.270   1.108   2.667 -1.2244 -2.2092  1.4450
  623TIP3   OH2 1832   6.517   0.474   4.506  0.5060  0.8555  0.0318
  623TIP3    H1 1833   6.565   0.416   4.446  1.1095  1.0983  0.2721
  623TIP3    H2 1834   6.535   0.439   4.593  0.6825  1.2591  0.1626
  624TIP3   OH2 1835   2.867   3.103   3.214  0.8055  0.4814  0.1150
  624TIP3    H1 1836   2.804   3.040   3.250  1.0348 -0.6891 -1.4248
  624TIP3    H2 1837   2.952   3.063   3.232  0.9577  0.3747 -0.8191
  625TIP3   OH2 1838   3.395   3.392   4.946 -0.0064 -0.7130  0.2221
  625TIP3    H1 1839   3.315   3.437   4.972 -0.1110 -0.6654 -0.1743
  625TIP3    H2 1840   3.367   3.303   4.923 -0.0142 -0.5795 -0.3072
  626TIP3   OH2 1841   3.905   1.347   2.641 -0.6502 -0.2477 -0.1336
  626TIP3    H1 1842   3.837   1.409   2.615 -1.3036 -0.6540  0.5474
  626TIP3    H2 1843   3.966   1.346   2.568 -1.8589 -0.5633 -1.1816
  627TIP3   OH2 1844   0.110   2.748   2.473  0.5386  0.0342  1.0402
  627TIP3    H1 1845   0.067   2.830   2.497  0.5874  0.5269 -0.4528
  627TIP3    H2 1846   0.038   2.689   2.451  0.5483  0.5090 -0.3730
  628TIP3   OH2 1847   4.505   3.269   1.526  0.6349 -0.1806 -0.4494
  628TIP3    H1 1848   4.526   3.181   1.556  0.8427 -0.0281 -0.1399
  628TIP3    H2 1849   4.522   3.325   1.602 -0.6283 -0.0178 -0.2715
  629TIP3   OH2 1850   5.336   4.522   0.096  0.0936  0.3844  0.1038
  629TIP3    H1 1851   5.413   4.478   0.061  1.8418  3.4735 -0.2693
  629TIP3    H2 1852   5.331   4.493   0.187  1.9684  0.3962  0.2534
  630TIP3   OH2 1853   2.817   6.743   3.169  0.1617  0.0577  0.0684
  630TIP3    H1 1854   2.855   6.661   3.199  0.0510 -0.0570 -0.1001
  630TIP3    H2 1855   2.758   6.718   3.098 -0.0030  0.2648  0.1295
  631TIP3   OH2 1856   2.435   1.021   0.628 -0.4085 -0.0802 -0.2148
  631TIP3    H1 1857   2.417   1.050   0.718 -0.3669 -0.7491  0.0154
  631TIP3    H2 1858   2.483   0.939   0.639 -0.5078 -0.2248 -0.8535
  632TIP3   OH2 1859   1.605   2.781   4.981  0.1821 -0.3897  0.2460
  632TIP3    H1 1860   1.609   2.875   4.995  0.3415 -0.4792  0.8060
  632TIP3    H2 1861   1.636   2.769   4.891  0.4180  0.0660  0.2640
  633TIP3   OH2 1862   3.010   0.745   1.440  0.4326  0.7060  0.5367
  633TIP3    H1 1863   2.958   0.668   1.463  1.7634 -1.2614 -2.4113
  633TIP3    H2 1864   2.949   0.819   1.450 -1.7443 -1.0178  0.8053
  634TIP3   OH2 1865   5.870   0.652   0.400  0.2732 -0.4288  0.6010
  634TIP3    H1 1866   5.946   0.600   0.427  1.3624  1.0040  0.4197
  634TIP3    H2 1867   5.897   0.743   0.415 -1.8166  0.0845  1.5248
  635TIP3   OH2 1868   6.394   4.195   3.275 -0.1838 -0.8503 -0.1893
  635TIP3    H1 1869   6.413   4.151   3.358 -0.9044  1.7412  1.5079
  635TIP3    H2 1870   6.444   4.277   3.280 -0.0491 -0.7418 -2.4722
  636TIP3   OH2 1871   5.521   0.863   5.065 -0.1625 -0.2438  0.2665
  636TIP3    H1 1872   5.485   0.777   5.046 -0.9286 -0.3468  2.0103
  636TIP3    H2 1873   5.556   0.856   5.154 -0.4992  1.3097  0.5664
  637TIP3   OH2 1874   7.006   5.645   4.027 -0.2362 -0.0202 -0.1131
  637TIP3    H1 1875   6.994   5.720   4.085 -2.7395 -0.3151 -0.1182
  637TIP3    H2 1876   7.005   5.682   3.939  0.7210  0.1427 -0.0607
  638TIP3   OH2 1877   0.909   5.076   1.016 -0.2150 -0.0375 -0.3346
  638TIP3    H1 1878   0.999   5.102   0.994 -0.2156  0.6501  0.4121
  638TIP3    H2 1879   0.872   5.153   1.060 -0.4316 -1.0604  1.3707
  639TIP3   OH2 1880   2.603   0.197   0.800  0.2831 -0.0597 -0.2570
  639TIP3    H1 1881   2.582   0.134   0.732  1.5786  0.4180 -1.1519
  639TIP3    H2 1882   2.563   0.279   0.770 -2.4781 -0.6508  1.5170
  640TIP3   OH2 1883   0.305   2.645   4.365  0.3719  0.2703  0.2082
  640TIP3    H1 1884   0.375   2.606   4.313  1.2829  1.0905  0.7976
  640TIP3    H2 1885   0.292   2.583   4.438  1.0079  0.4866  0.5069
  641TIP3   OH2 1886   3.276   2.405   5.095  0.0054  0.0578  0.1130
  641TIP3    H1 1887   3.200   2.460   5.117 -0.6783 -1.4293  1.7608
  641TIP3    H2 1888   3.333   2.462   5.045 -1.0647  2.0117  0.9915
  642TIP3   OH2 1889   5.097   6.308   2.045 -0.3050 -0.3171  0.1893
  642TIP3    H1 1890   5.024   6.249   2.063 -0.2721  0.0556  1.6512
  642TIP3    H2 1891   5.076   6.388   2.094 -0.6733  1.1868 -2.2245
  643TIP3   OH2 1892   5.297   1.085   2.060  0.1125 -0.3107  0.0464
  643TIP3    H1 1893   5.283   1.038   1.978  2.0638  0.4039 -0.7498
  643TIP3    H2 1894   5.288   1.019   2.128 -2.6558 -0.7046 -0.6070
  644TIP3   OH2 1895   0.577   3.014   3.006  0.4562 -0.5580  0.6278
  644TIP3    H1 1896   0.631   3.083   3.045  0.1211  0.3917 -0.5482
  644TIP3    H2 1897   0.487   3.040   3.027  0.2640  0.0464 -0.8697
  645TIP3   OH2 1898   2.459   6.671   3.020  0.7226 -0.5261  0.6900
  645TIP3    H1 1899   2.384   6.727   3.039  1.1684  0.5121 -0.3891
  645TIP3    H2 1900   2.428   6.582   3.035 -0.6445 -0.1087  0.5084
  646TIP3   OH2 1901   2.060   2.137   4.861 -0.3364 -0.3483  0.2474
  646TIP3    H1 1902   2.055   2.067   4.926 -1.1292 -0.1067  0.4540
  646TIP3    H2 1903   2.078   2.216   4.912  1.2557 -0.4866 -0.0505
  647TIP3   OH2 1904   4.500   6.476   5.703  0.4681  0.4356 -0.2391
  647TIP3    H1 1905   4.584   6.490   5.748  0.8368 -0.4658 -0.6129
  647TIP3    H2 1906   4.495   6.381   5.693  0.1968  0.5843 -1.7180
  648TIP3   OH2 1907   3.356   4.533   4.837 -0.3346 -0.4731 -0.5465
  648TIP3    H1 1908   3.367   4.586   4.916 -1.5312  0.3975 -0.9217
  648TIP3    H2 1909   3.403   4.451   4.856 -1.0355 -0.5132  1.2829
  649TIP3   OH2 1910   5.559   6.672   5.617 -0.3856 -0.3897 -0.3010
  649TIP3    H1 1911   5.570   6.612   5.543  2.2063  1.1455 -1.2780
  649TIP3    H2 1912   5.613   6.634   5.686  1.3288  0.7820 -0.9498
  650TIP3   OH2 1913   4.651   0.120   3.685 -0.6984  0.4271 -0.3719
  650TIP3    H1 1914   4.670   0.115   3.778  1.1697 -0.2738 -0.7437
  650TIP3    H2 1915   4.703   0.194   3.653 -0.4983  0.0217 -1.0177
  651TIP3   OH2 1916   1.786   1.611   5.109  0.9883 -0.3959  0.4446
  651TIP3    H1 1917   1.755   1.535   5.060 -1.3525  0.2456  0.8270
  651TIP3    H2 1918   1.871   1.583   5.143  0.0435 -3.0389  0.9358
  652TIP3   OH2 1919   0.184   3.655   0.456  0.5787  0.6548  0.2400
  652TIP3    H1 1920   0.202   3.562   0.442  2.2126  0.7081  1.5863
  652TIP3    H2 1921   0.089   3.661   0.459  0.4461 -0.9828  0.1002
  653TIP3   OH2 1922   0.264   5.180   4.963 -0.3409 -0.1983 -0.1543
  653TIP3    H1 1923   0.298   5.236   5.033  0.0238 -1.3963  0.6477
  653TIP3    H2 1924   0.322   5.196   4.889 -0.1904  0.4140  0.0889
  654TIP3   OH2 1925   6.900   2.652   2.379 -0.1945 -0.3293  0.1554
  654TIP3    H1 1926   6.865   2.564   2.367 -1.0901 -0.0408  0.5782
  654TIP3    H2 1927   6.945   2.648   2.464  0.8720 -0.7075 -0.4018
  655TIP3   OH2 1928   6.813   4.895   1.587  0.4608 -0.3814  0.4250
  655TIP3    H1 1929   6.862   4.916   1.507  0.5369  1.8741  1.0124
  655TIP3    H2 1930   6.873   4.840   1.637  0.8779 -0.8283 -0.5289
  656TIP3   OH2 1931   0.383   3.717   1.015 -0.4587  0.1746  0.1771
  656TIP3    H1 1932   0.411   3.771   1.090  1.7246 -1.3244  0.5343
  656TIP3    H2 1933   0.295   3.688   1.039 -1.2968  2.6495  0.4420
  657TIP3   OH2 1934   1.228   6.329   1.997 -0.1753  0.0014 -0.5635
  657TIP3    H1 1935   1.142   6.289   2.013 -0.2262 -1.0877 -3.0534
  657TIP3    H2 1936   1.289   6.274   2.045 -0.7357  0.0668  0.2500
  658TIP3   OH2 1937   0.677   0.404   4.826 -0.3148 -0.8138 -0.1418
  658TIP3    H1 1938   0.726   0.472   4.781 -2.4259  0.2977 -0.8864
  658TIP3    H2 1939   0.715   0.322   4.795 -0.1320 -0.0309 -2.0898
  659TIP3   OH2 1940   4.400   1.223   0.050 -0.1349 -0.3941  0.1260
  659TIP3    H1 1941   4.450   1.208   0.130 -2.6440 -0.6123  1.7725
  659TIP3    H2 1942   4.389   1.318   0.047  0.8534 -0.2853 -0.5951
  660TIP3   OH2 1943   2.690   5.502   0.414  0.1905  0.1315 -0.1589
  660TIP3    H1 1944   2.645   5.586   0.406  0.8560  0.5199  0.0853
  660TIP3    H2 1945   2.744   5.512   0.492  0.2633 -0.5313 -0.1237
  661TIP3   OH2 1946   6.313   5.367   1.531  0.3944 -0.2588 -0.2217
  661TIP3    H1 1947   6.391   5.371   1.475  0.8330  1.5904  0.4318
  661TIP3    H2 1948   6.348   5.370   1.620 -0.3281 -2.5545  0.1911
  662TIP3   OH2 1949   3.462   1.637   3.848  0.2085 -0.2467  0.6147
  662TIP3    H1 1950   3.530   1.658   3.783 -0.1494  0.7045  0.5377
  662TIP3    H2 1951   3.380   1.636   3.797  0.2876 -3.0653  0.3531
  663TIP3   OH2 1952   7.145   0.304   0.165  0.6948 -0.7609 -0.0582
  663TIP3    H1 1953   7.101   0.346   0.239  0.5465 -1.0069 -0.0056
  663TIP3    H2 1954   7.149   0.211   0.188  2.2452 -0.5889  0.4334
  664TIP3   OH2 1955   4.870   0.967   5.122  0.0684  0.1008  0.0862
  664TIP3    H1 1956   4.896   0.953   5.213  1.3142  1.1740 -0.0705
  664TIP3    H2 1957   4.814   1.045   5.125  0.4551  0.3891 -0.1085
  665TIP3   OH2 1958   3.104   3.925   2.655  0.1664  0.1614 -0.6814
  665TIP3    H1 1959   3.154   3.992   2.701  0.8652 -0.4572 -0.5235
  665TIP3    H2 1960   3.170   3.870   2.612 -0.4366  1.2417 -3.2181
  666TIP3   OH2 1961   4.650   1.466   5.334 -0.3342  0.0552  0.2109
  666TIP3    H1 1962   4.572   1.510   5.368 -1.0045 -2.2401  1.9065
  666TIP3    H2 1963   4.723   1.505   5.384 -0.6400  0.6819  0.1796
  667TIP3   OH2 1964   5.732   1.160   4.192 -0.1021 -0.0651  0.4631
  667TIP3    H1 1965   5.714   1.243   4.147 -1.1830 -0.4306  0.1787
  667TIP3    H2 1966   5.667   1.100   4.156  0.2419 -0.8629  1.1570
  668TIP3   OH2 1967   1.902   1.044   2.540 -0.0703 -0.2467 -0.0363
  668TIP3    H1 1968   1.896   1.131   2.500 -0.3098  0.4997  1.5642
  668TIP3    H2 1969   1.820   1.034   2.589  0.3064 -1.0363  0.4580
  669TIP3   OH2 1970   4.366   0.032   3.567  0.1951  0.1496 -0.2082
  669TIP3    H1 1971   4.331   0.040   3.656  1.0134  0.7680  0.0722
  669TIP3    H2 1972   4.459   0.054   3.576  0.8082 -1.9614 -0.8360
  670TIP3   OH2 1973   0.285   3.809   2.209  0.7013  0.0637 -0.1065
  670TIP3    H1 1974   0.313   3.866   2.137  0.6689  0.3887  0.1349
  670TIP3    H2 1975   0.279   3.868   2.285  1.3400 -0.3921  0.3038
  671TIP3   OH2 1976   4.740   0.187   1.857  0.5694  0.4026 -0.3793
  671TIP3    H1 1977   4.690   0.165   1.778  0.2563  1.4084 -0.4762
  671TIP3    H2 1978   4.745   0.283   1.857  0.8551  0.4051  0.6482
  672TIP3   OH2 1979   4.986   2.444   1.368 -0.0853  0.3377 -0.4943
  672TIP3    H1 1980   5.062   2.473   1.317 -0.3878 -0.8586 -1.6718
  672TIP3    H2 1981   4.927   2.405   1.303 -0.6373 -0.9263  0.7188
  673TIP3   OH2 1982   6.631   1.451   5.439 -0.4590  0.3459  0.2502
  673TIP3    H1 1983   6.547   1.431   5.397  0.1932 -1.4819 -0.2933
  673TIP3    H2 1984   6.607   1.494   5.521 -2.0256 -1.6457  0.9100
  674TIP3   OH2 1985   6.292   2.249   4.380  0.4604 -0.2062  0.5794
  674TIP3    H1 1986   6.311   2.271   4.471 -1.6954  0.1022  1.0264
  674TIP3    H2 1987   6.222   2.183   4.385 -1.5280  1.6390 -0.7818
  675TIP3   OH2 1988   5.412   2.844   0.940 -0.1239  0.3297 -0.3543
  675TIP3    H1 1989   5.442   2.884   0.858 -0.4744  0.6277 -0.3400
  675TIP3    H2 1990   5.331   2.891   0.961 -0.1295  0.1310  0.0694
  676TIP3   OH2 1991   4.587   1.424   1.463 -0.2733  0.4002 -0.0027
  676TIP3    H1 1992   4.646   1.442   1.390 -1.3810  0.5826 -0.8774
  676TIP3    H2 1993   4.500   1.443   1.429 -1.1499 -2.5529  0.3479
  677TIP3   OH2 1994   6.132   0.750   2.528  0.0945 -0.0593 -0.1966
  677TIP3    H1 1995   6.062   0.756   2.463 -0.4056  0.3924  0.3719
  677TIP3    H2 1996   6.171   0.663   2.513  0.6695  0.4212 -1.7632
  678TIP3   OH2 1997   0.334   3.012   2.069 -0.4296  1.0069  0.2686
  678TIP3    H1 1998   0.291   2.940   2.115 -0.5350  1.0288  0.2066
  678TIP3    H2 1999   0.427   2.992   2.072 -0.4316  1.0416  0.5487
  679TIP3   OH2 2000   1.268   2.042   4.650 -0.2669 -0.0198 -0.8503
  679TIP3    H1 2001   1.280   2.057   4.744 -1.8698  0.9476 -0.7644
  679TIP3    H2 2002   1.332   2.099   4.608 -0.6394  0.7663 -0.3640
  680TIP3   OH2 2003   6.106   5.275   3.788  0.2536  0.0328 -0.6814
  680TIP3    H1 2004   6.050   5.304   3.860  0.6135  0.4187 -0.5479
  680TIP3    H2 2005   6.094   5.180   3.785  0.5885 -0.0526  0.2016
  681TIP3   OH2 2006   0.314   0.606   5.248 -0.4447 -0.3394 -0.1661
  681TIP3    H1 2007   0.263   0.616   5.167 -1.1901 -0.8280  0.2347
  681TIP3    H2 2008   0.272   0.534   5.294  0.2293 -0.3308  0.4730
  682TIP3   OH2 2009   5.678   3.296   0.328 -0.0647 -0.0282 -0.1772
  682TIP3    H1 2010   5.661   3.378   0.374  2.1764  0.4941 -0.1662
  682TIP3    H2 2011   5.699   3.233   0.397 -0.0243 -0.1470 -0.2971
  683TIP3   OH2 2012   3.277   1.417   3.046 -0.4802  1.2173 -0.1803
  683TIP3    H1 2013   3.199   1.379   3.005 -1.0407 -0.3422  2.1338
  683TIP3    H2 2014   3.251   1.507   3.066 -1.8455  0.6502  0.7827
  684TIP3   OH2 2015   2.949   5.806   3.062  0.4661  0.3378  0.3755
  684TIP3    H1 2016   2.871   5.806   3.007  1.4865  0.0448 -1.1062
  684TIP3    H2 2017   2.915   5.820   3.151 -1.2805 -0.0032 -0.1987
  685TIP3   OH2 2018   7.142   1.966   2.641 -0.0473 -0.5672  0.4522
  685TIP3    H1 2019   7.094   2.015   2.574 -2.2763 -1.3020  1.4479
  685TIP3    H2 2020   7.210   1.920   2.592 -0.8042 -0.0784 -1.1321
  686TIP3   OH2 2021   5.008   6.385   4.371  0.1337  0.3503  0.0204
  686TIP3    H1 2022   4.984   6.419   4.285  0.2147  0.9098  0.2152
  686TIP3    H2 2023   4.994   6.290   4.364 -3.9934  0.7448  0.6636
  687TIP3   OH2 2024   3.933   4.299   3.814  0.1653  0.0433  0.0029
  687TIP3    H1 2025   3.865   4.260   3.760 -0.0546  2.0524 -1.2626
  687TIP3    H2 2026   3.903   4.284   3.904 -0.8842 -0.9153 -0.4832
  688TIP3   OH2 2027   1.941   2.405   3.134 -0.2406  0.7741 -0.2644
  688TIP3    H1 2028   2.010   2.444   3.188 -0.3997 -0.9816  1.3130
  688TIP3    H2 2029   1.860   2.434   3.177 -0.4252  0.8913 -0.6931
  689TIP3   OH2 2030   4.338   4.486   2.599 -0.0185  0.2587 -0.7488
  689TIP3    H1 2031   4.376   4.401   2.620  0.7508  0.3349 -1.7645
  689TIP3    H2 2032   4.334   4.488   2.504 -0.6128  1.1167 -0.7175
  690TIP3   OH2 2033   5.800   6.196   1.183 -0.3269  0.2512  0.3077
  690TIP3    H1 2034   5.877   6.148   1.152 -0.9975 -0.6808  0.0576
  690TIP3    H2 2035   5.736   6.128   1.205 -1.9407  1.0236 -1.6735
  691TIP3   OH2 2036   6.111   4.590   5.191 -0.0358 -0.5287 -0.3147
  691TIP3    H1 2037   6.174   4.630   5.131 -1.2632 -1.3330 -2.2647
  691TIP3    H2 2038   6.140   4.499   5.199  0.1979 -0.3919  0.4507
  692TIP3   OH2 2039   2.223   1.141   4.323  0.1438  0.1997  0.2837
  692TIP3    H1 2040   2.251   1.115   4.235 -1.6070 -0.6084 -0.0789
  692TIP3    H2 2041   2.129   1.157   4.314 -0.2181 -0.6200  2.1503
  693TIP3   OH2 2042   0.742   0.884   2.292 -0.5601  0.3993 -0.0398
  693TIP3    H1 2043   0.831   0.862   2.266 -0.1143  1.1299  0.8110
  693TIP3    H2 2044   0.738   0.979   2.283 -1.7927  0.2360 -1.6776
  694TIP3   OH2 2045   5.900   4.431   3.537 -0.0153 -0.3211  0.0191
  694TIP3    H1 2046   5.830   4.390   3.588 -0.4328  0.6767  0.2773
  694TIP3    H2 2047   5.963   4.460   3.603  0.4949 -0.9185 -0.1919
  695TIP3   OH2 2048   3.433   6.302   1.559 -0.1171  0.1986  0.1273
  695TIP3    H1 2049   3.506   6.293   1.497 -2.1433  2.0377 -2.7601
  695TIP3    H2 2050   3.408   6.211   1.579  0.3350 -0.4959 -2.1745
  696TIP3   OH2 2051   3.869   3.276   3.758  0.1837  0.1251 -0.2820
  696TIP3    H1 2052   3.883   3.277   3.853  1.2930  2.4898 -0.3985
  696TIP3    H2 2053   3.943   3.228   3.723  0.2230 -0.0278  0.0120
  697TIP3   OH2 2054   4.304   0.943   4.509  0.4209 -0.4988  0.2472
  697TIP3    H1 2055   4.371   0.877   4.494  0.8170  0.0684 -0.5349
  697TIP3    H2 2056   4.267   0.961   4.423  0.0955  0.0574  0.4937
  698TIP3   OH2 2057   4.809   4.758   3.275  0.1279 -0.0881 -0.2180
  698TIP3    H1 2058   4.814   4.797   3.362  5.4525  0.2649 -0.3536
  698TIP3    H2 2059   4.859   4.677   3.282 -1.9883 -1.7430 -2.3654
  699TIP3   OH2 2060   4.349   0.638   3.996 -0.3976 -0.0907  0.2808
  699TIP3    H1 2061   4.363   0.660   4.088 -1.3551  0.8391  0.2248
  699TIP3    H2 2062   4.278   0.574   3.996 -0.2767 -0.2256  0.2005
  700TIP3   OH2 2063   1.785   4.653   0.259 -0.4839  0.5255  0.3608
  700TIP3    H1 2064   1.813   4.573   0.303 -0.6653  0.1311 -0.2261
  700TIP3    H2 2065   1.865   4.704   0.247 -0.3117  0.2708  0.4251
  701TIP3   OH2 2066   5.944   6.614   3.337  0.1277 -0.3249  0.1259
  701TIP3    H1 2067   5.849   6.617   3.327  0.1676 -1.0551 -0.5685
  701TIP3    H2 2068   5.966   6.695   3.384 -0.8970 -0.4874  0.9112
  702TIP3   OH2 2069   1.266   5.408   4.441  0.1861  0.2096 -0.0225
  702TIP3    H1 2070   1.274   5.487   4.388  1.4046  0.6429  0.7738
  702TIP3    H2 2071   1.220   5.436   4.520  1.4066  0.3612  0.6660
  703TIP3   OH2 2072   4.643   4.919   4.895  0.4327  0.4751  0.2181
  703TIP3    H1 2073   4.675   4.885   4.978 -1.2831  3.1178  2.1363
  703TIP3    H2 2074   4.656   5.014   4.901  0.5603  0.7495 -2.7273
  704TIP3   OH2 2075   6.735   1.263   4.630  0.2483  0.0934 -0.1920
  704TIP3    H1 2076   6.684   1.306   4.561  0.0538 -0.4344 -0.3831
  704TIP3    H2 2077   6.740   1.172   4.602 -0.7799 -0.3677  1.0166
  705TIP3   OH2 2078   0.023   3.230   2.707 -0.7068 -0.2683  0.3567
  705TIP3    H1 2079   0.015   3.139   2.679 -0.7715 -0.2640  0.3600
  705TIP3    H2 2080   0.072   3.273   2.637  1.6024 -0.8550  1.5306
  706TIP3   OH2 2081   3.205   1.754   1.990 -0.2589 -0.4313  0.0740
  706TIP3    H1 2082   3.288   1.790   1.956 -0.1581 -0.2250  0.5200
  706TIP3    H2 2083   3.225   1.732   2.081 -0.8358  0.1023  0.3362
  707TIP3   OH2 2084   0.075   3.060   3.561 -0.3224 -0.0656  0.0282
  707TIP3    H1 2085   0.094   3.100   3.646 -1.1571  0.6052 -0.0894
  707TIP3    H2 2086   0.049   2.970   3.583 -0.6472  0.1360  0.4960
  708TIP3   OH2 2087   0.418   2.613   5.025  0.5098 -0.0378 -0.2691
  708TIP3    H1 2088   0.487   2.563   4.981  0.3557 -0.7389  0.2683
  708TIP3    H2 2089   0.341   2.557   5.021  0.2482  0.2933  0.0546
  709TIP3   OH2 2090   1.947   5.451   2.250  0.1539  0.0718 -0.5300
  709TIP3    H1 2091   1.963   5.447   2.156  0.3344  1.5378 -0.5934
  709TIP3    H2 2092   1.859   5.487   2.258 -0.6883 -1.9562 -0.1232
  710TIP3   OH2 2093   5.417   4.549   1.093  0.2169  0.1819  0.1767
  710TIP3    H1 2094   5.408   4.480   1.159 -3.2791 -1.3171 -1.5672
  710TIP3    H2 2095   5.374   4.625   1.132 -1.4968 -0.5868 -0.1165
  711TIP3   OH2 2096   5.016   3.817   5.509 -0.1914  0.7396 -0.5347
  711TIP3    H1 2097   5.056   3.875   5.444 -1.0397  2.4878  0.4498
  711TIP3    H2 2098   5.086   3.756   5.532  0.7079  1.2991 -1.6714
  712TIP3   OH2 2099   1.325   3.408   4.117 -0.1826 -0.2486  0.0854
  712TIP3    H1 2100   1.337   3.317   4.145 -0.7667 -1.2777 -2.6526
  712TIP3    H2 2101   1.414   3.442   4.109  0.0922 -0.9034  0.2489
  713TIP3   OH2 2102   2.928   3.710   4.904  0.1253 -0.0131 -0.4894
  713TIP3    H1 2103   2.920   3.758   4.986  0.7848 -1.8379  0.7015
  713TIP3    H2 2104   2.878   3.762   4.841  1.0430  2.3804  0.6091
  714TIP3   OH2 2105   7.057   6.175   5.595  0.3910 -0.2947  0.7833
  714TIP3    H1 2106   7.027   6.264   5.614 -0.2317 -0.6450  1.4844
  714TIP3    H2 2107   7.142   6.187   5.552 -0.5888  0.7135 -1.0125
  715TIP3   OH2 2108   0.406   2.387   2.512 -0.6004  0.5242 -0.0245
  715TIP3    H1 2109   0.409   2.351   2.423  0.3669 -1.0020  0.5859
  715TIP3    H2 2110   0.359   2.321   2.563 -1.9924  1.8174  0.4464
  716TIP3   OH2 2111   3.907   1.131   4.388  0.0185 -0.5823 -0.0776
  716TIP3    H1 2112   3.827   1.079   4.397  0.2754 -1.1749 -1.0365
  716TIP3    H2 2113   3.966   1.097   4.455 -1.0384  0.9221  1.7240
  717TIP3   OH2 2114   6.597   5.253   1.920  0.3389 -0.1860  0.1105
  717TIP3    H1 2115   6.535   5.192   1.960  0.2978 -0.2555 -0.0608
  717TIP3    H2 2116   6.543   5.308   1.863  0.6661 -1.3772 -1.4157
  718TIP3   OH2 2117   1.579   5.012   4.825  0.0809  0.2584 -0.3169
  718TIP3    H1 2118   1.550   5.093   4.784 -0.9017  1.2903  2.2502
  718TIP3    H2 2119   1.501   4.956   4.824  0.0537  0.2872  0.1256
  719TIP3   OH2 2120   2.134   5.087   1.142 -0.2110 -0.3250 -0.2290
  719TIP3    H1 2121   2.178   5.065   1.224 -0.8691  2.4492  0.9828
  719TIP3    H2 2122   2.043   5.103   1.168 -0.9623 -1.5194 -1.9240
  720TIP3   OH2 2123   0.420   6.456   1.198 -0.0883  0.2311 -0.1715
  720TIP3    H1 2124   0.414   6.541   1.155  2.2662  1.0711  0.9883
  720TIP3    H2 2125   0.456   6.398   1.131 -2.3486 -0.1016 -1.1837
  721TIP3   OH2 2126   2.994   5.922   0.154  0.3688  0.0892 -0.3099
  721TIP3    H1 2127   3.021   5.963   0.072 -0.5299  0.0595 -0.6303
  721TIP3    H2 2128   2.954   5.994   0.204 -0.1418 -0.1401 -0.3851
  722TIP3   OH2 2129   4.214   1.099   1.224  0.5374  0.0535  0.1156
  722TIP3    H1 2130   4.154   1.053   1.164  1.9918 -1.3330 -0.3459
  722TIP3    H2 2131   4.157   1.134   1.292 -0.7496 -1.8577  0.1022
  723TIP3   OH2 2132   4.021   2.337   5.895 -0.0328 -0.1989 -0.2280
  723TIP3    H1 2133   4.113   2.353   5.913 -0.1615 -1.0457  1.3689
  723TIP3    H2 2134   3.989   2.418   5.854  1.5054 -0.0814 -1.2723
  724TIP3   OH2 2135   6.378   0.238   3.299  0.2400 -0.1053 -0.5739
  724TIP3    H1 2136   6.335   0.302   3.243  0.6914 -0.3854 -1.2510
  724TIP3    H2 2137   6.311   0.210   3.361 -0.2024  0.3623 -0.8406
  725TIP3   OH2 2138   2.798   0.356   5.609 -0.0392 -0.7323  0.3117
  725TIP3    H1 2139   2.730   0.360   5.541 -1.9254 -0.2598  2.1376
  725TIP3    H2 2140   2.765   0.411   5.679  2.8084  0.4470  0.8511
  726TIP3   OH2 2141   6.531   1.862   2.536  0.2743 -0.3994  0.5171
  726TIP3    H1 2142   6.446   1.902   2.558  0.6943  0.0856  1.3156
  726TIP3    H2 2143   6.568   1.920   2.469  0.1938 -0.3348  0.5286
  727TIP3   OH2 2144   4.373   2.973   0.780  0.0710  0.5225 -0.1592
  727TIP3    H1 2145   4.293   3.025   0.787 -0.3240 -0.1066  0.1436
  727TIP3    H2 2146   4.351   2.890   0.822  0.6249  0.0342 -0.8110
  728TIP3   OH2 2147   6.910   2.852   4.404  0.0122 -0.5346  0.7436
  728TIP3    H1 2148   6.873   2.866   4.317  1.8603 -1.0191 -0.1522
  728TIP3    H2 2149   6.921   2.758   4.411  0.6179 -0.4338  1.2010
  729TIP3   OH2 2150   2.741   1.070   1.964  0.5747  0.0075  0.4588
  729TIP3    H1 2151   2.823   1.112   1.935  0.4826 -1.7544 -2.7280
  729TIP3    H2 2152   2.770   0.992   2.011  0.7831 -0.8311 -1.0161
  730TIP3   OH2 2153   3.390   3.465   1.968 -0.3605 -0.4297  0.2690
  730TIP3    H1 2154   3.462   3.463   1.904  1.0270  0.6940  1.7321
  730TIP3    H2 2155   3.364   3.557   1.971 -0.3007 -0.4420  1.4227
  731TIP3   OH2 2156   6.048   5.667   1.369 -0.4759  0.3107 -0.0076
  731TIP3    H1 2157   6.048   5.615   1.449 -0.4505  1.0528  0.4819
  731TIP3    H2 2158   6.139   5.669   1.340 -0.8311 -2.4898 -1.7650
  732TIP3   OH2 2159   1.291   2.476   4.770 -0.5670  0.5672 -0.3164
  732TIP3    H1 2160   1.254   2.560   4.797  0.2682  0.1847  2.2929
  732TIP3    H2 2161   1.321   2.435   4.851  2.2925 -0.7123 -1.8637
  733TIP3   OH2 2162   6.078   5.667   1.822  0.3426 -0.1093  0.3220
  733TIP3    H1 2163   6.111   5.629   1.904  0.3793  0.7109  0.7004
  733TIP3    H2 2164   6.017   5.601   1.788 -0.7494  0.1333  1.7389
  734TIP3   OH2 2165   1.727   0.864   5.166 -0.1675 -0.2164 -0.1660
  734TIP3    H1 2166   1.749   0.908   5.249  3.1805 -0.4157 -0.8025
  734TIP3    H2 2167   1.804   0.811   5.147 -1.6374 -1.6403 -2.5107
  735TIP3   OH2 2168   1.620   6.617   5.391  0.2044  0.2293  0.3411
  735TIP3    H1 2169   1.554   6.554   5.361 -0.2253  0.5871  0.5188
  735TIP3    H2 2170   1.647   6.582   5.476 -1.0288  0.9891  1.0753
  736TIP3   OH2 2171   3.720   4.663   2.485  0.3113 -0.1380  0.4205
  736TIP3    H1 2172   3.814   4.681   2.475  0.4693 -0.8467  0.5481
  736TIP3    H2 2173   3.683   4.746   2.514  1.1109 -0.1803  1.6568
  737TIP3   OH2 2174   4.316   0.521   4.509 -0.1634  0.0845 -0.2134
  737TIP3    H1 2175   4.254   0.581   4.466 -0.2804  0.7205  0.8253
  737TIP3    H2 2176   4.402   0.560   4.491 -0.2353  0.5342  0.4122
  738TIP3   OH2 2177   4.708   0.495   2.913 -0.1199 -0.7416  0.1589
  738TIP3    H1 2178   4.676   0.585   2.924 -1.6546 -1.1797 -0.4417
  738TIP3    H2 2179   4.772   0.501   2.842 -0.9436 -0.2723 -0.5567
  739TIP3   OH2 2180   3.772   0.211   0.887  0.0009 -0.3111  0.2678
  739TIP3    H1 2181   3.780   0.274   0.815 -0.1815  0.0218  0.5365
  739TIP3    H2 2182   3.681   0.183   0.884  0.2778 -1.2155 -0.3850
  740TIP3   OH2 2183   6.953   1.282   1.002  0.3020  0.0999 -0.0097
  740TIP3    H1 2184   7.018   1.333   0.955 -0.1436  1.2814  0.6178
  740TIP3    H2 2185   6.924   1.339   1.074  1.3458 -1.8322  2.0598
  741TIP3   OH2 2186   1.047   2.804   4.561  0.1322  0.0705 -0.6160
  741TIP3    H1 2187   0.980   2.844   4.617  0.2789 -3.1685  2.2570
  741TIP3    H2 2188   1.129   2.819   4.609  0.2452 -2.9129  0.3612
  742TIP3   OH2 2189   1.028   6.008   4.811 -0.0604  0.3610 -0.2131
  742TIP3    H1 2190   1.079   6.065   4.753 -0.5017 -0.6644 -1.6639
  742TIP3    H2 2191   1.087   5.935   4.832 -0.1130  0.4151  0.1309
  743TIP3   OH2 2192   1.700   1.416   4.926 -0.0650  0.3686 -0.3660
  743TIP3    H1 2193   1.663   1.469   4.855  1.6276  2.1652  0.0379
  743TIP3    H2 2194   1.767   1.363   4.883 -0.0800  0.3344 -0.3473
  744TIP3   OH2 2195   6.734   2.431   0.277  0.2441 -0.1598  0.1373
  744TIP3    H1 2196   6.768   2.342   0.266 -1.6489 -0.9700  0.5640
  744TIP3    H2 2197   6.676   2.425   0.352 -2.7531  0.5432 -1.9633
  745TIP3   OH2 2198   2.561   5.879   3.022  0.6746 -0.3015 -0.3023
  745TIP3    H1 2199   2.614   5.921   2.955  0.1981  0.5968 -0.1203
  745TIP3    H2 2200   2.590   5.919   3.104  0.1265 -0.2323 -0.1411
  746TIP3   OH2 2201   5.979   3.076   4.963  0.4360 -0.0959 -0.4717
  746TIP3    H1 2202   6.041   3.126   5.015  1.2662 -0.3425 -1.2024
  746TIP3    H2 2203   5.967   3.128   4.884 -0.8394  0.2956 -0.0408
  747TIP3   OH2 2204   4.051   5.335   0.920 -0.3153  0.3110  0.0089
  747TIP3    H1 2205   4.111   5.408   0.933 -0.1378  0.1368  0.1796
  747TIP3    H2 2206   4.024   5.341   0.828 -0.0395  0.3906 -0.0659
  748TIP3   OH2 2207   3.549   2.392   3.939  0.0776 -0.1248 -0.2417
  748TIP3    H1 2208   3.574   2.354   3.855  2.0412  0.1362  0.1566
  748TIP3    H2 2209   3.513   2.319   3.989  0.1414 -0.5704 -0.8401
  749TIP3   OH2 2210   5.660   1.946   3.152  0.2257  0.3964 -0.0791
  749TIP3    H1 2211   5.727   1.911   3.210 -0.9195 -0.3120  0.8593
  749TIP3    H2 2212   5.590   1.975   3.210 -0.1499  1.4476 -1.0198
  750TIP3   OH2 2213   6.630   5.706   4.479  0.5090  0.2228 -0.0114
  750TIP3    H1 2214   6.580   5.735   4.555 -1.8706  2.3634 -2.1700
  750TIP3    H2 2215   6.690   5.778   4.461  2.0663 -0.8706  0.5495
  751TIP3   OH2 2216   5.114   0.108   5.276 -0.1501  0.1364  0.4482
  751TIP3    H1 2217   5.074   0.027   5.308  0.7347  0.2482  1.9945
  751TIP3    H2 2218   5.045   0.153   5.227 -0.9012 -1.1500  0.3005
  752TIP3   OH2 2219   5.262   6.178   1.504 -0.3277  0.3671 -0.6566
  752TIP3    H1 2220   5.356   6.184   1.524 -0.2353 -1.0033 -0.5973
  752TIP3    H2 2221   5.224   6.252   1.552  0.6400  0.5628 -0.1408
  753TIP3   OH2 2222   5.044   5.153   1.489 -0.5223 -0.3823  0.0700
  753TIP3    H1 2223   5.123   5.119   1.532 -1.0285 -3.0060 -0.9171
  753TIP3    H2 2224   5.073   5.176   1.401 -1.0395 -2.6818 -0.7718
  754TIP3   OH2 2225   0.568   6.766   0.856  0.1539  0.0914  0.9405
  754TIP3    H1 2226   0.498   6.824   0.888  1.1018  1.6196  0.3062
  754TIP3    H2 2227   0.610   6.734   0.936 -0.1702  0.5351  1.2970
  755TIP3   OH2 2228   4.454   4.442   4.904  0.2899  0.5085 -0.3285
  755TIP3    H1 2229   4.371   4.488   4.908  1.3475  2.7675 -2.1553
  755TIP3    H2 2230   4.504   4.478   4.978 -0.9977 -2.5656  2.2832
  756TIP3   OH2 2231   5.576   0.190   5.770  0.2938  0.1435 -0.1585
  756TIP3    H1 2232   5.653   0.135   5.786  0.9707  0.9880 -0.4498
  756TIP3    H2 2233   5.567   0.244   5.848 -0.0087  0.0533 -0.1271
  757TIP3   OH2 2234   4.735   4.066   3.753 -0.1297  0.5000  0.1767
  757TIP3    H1 2235   4.741   3.985   3.802  0.2177  1.5574  1.9630
  757TIP3    H2 2236   4.677   4.122   3.806  0.1449  1.6395 -0.6854
  758TIP3   OH2 2237   6.094   0.840   1.170 -0.5560  0.1999 -0.2322
  758TIP3    H1 2238   6.155   0.912   1.152 -0.8826  0.9254  1.4566
  758TIP3    H2 2239   6.100   0.826   1.264  0.6319 -3.0576 -0.6543
  759TIP3   OH2 2240   1.913   0.242   4.800  0.2374  0.0746 -0.8197
  759TIP3    H1 2241   1.874   0.328   4.814  1.0097 -0.0568  3.6065
  759TIP3    H2 2242   1.851   0.181   4.842  0.5757 -1.3495 -2.2988
  760TIP3   OH2 2243   1.755   4.385   5.276 -0.3733  0.0440  0.3491
  760TIP3    H1 2244   1.664   4.359   5.293 -1.1898  1.8565 -0.9379
  760TIP3    H2 2245   1.801   4.365   5.357 -2.1231 -0.0448  1.3776
  761TIP3   OH2 2246   2.085   3.060   2.378 -0.1592 -0.4292 -0.0019
  761TIP3    H1 2247   2.168   3.030   2.416 -0.2069  0.6697  1.0186
  761TIP3    H2 2248   2.100   3.151   2.356 -0.5393 -0.7064 -1.5231
  762TIP3   OH2 2249   2.135   0.310   3.656  0.2264 -0.6505 -0.7880
  762TIP3    H1 2250   2.124   0.366   3.579  1.1958  2.5331  1.1954
  762TIP3    H2 2251   2.049   0.312   3.698  0.6478  0.7102  0.0674
  763TIP3   OH2 2252   3.622   4.225   5.849 -0.2990 -0.5228 -0.5967
  763TIP3    H1 2253   3.550   4.161   5.845  0.0473 -0.9961  0.4072
  763TIP3    H2 2254   3.699   4.173   5.872 -0.3327  0.4385  2.0753
  764TIP3   OH2 2255   3.241   0.833   1.085  0.0109 -0.1400  0.5357
  764TIP3    H1 2256   3.331   0.863   1.097 -0.4511  1.8470 -0.5153
  764TIP3    H2 2257   3.225   0.773   1.158  2.1629 -0.5250  0.7405
  765TIP3   OH2 2258   6.895   1.580   4.347  0.1772  0.2858  0.1794
  765TIP3    H1 2259   6.974   1.631   4.326  0.5374 -0.5218 -0.4484
  765TIP3    H2 2260   6.915   1.538   4.431 -0.5678  2.0634  1.3123
  766TIP3   OH2 2261   2.404   4.269   3.592 -0.3711 -0.1149 -0.3862
  766TIP3    H1 2262   2.397   4.283   3.687  0.9192  2.0208 -0.5561
  766TIP3    H2 2263   2.495   4.289   3.571 -0.5961 -0.6978 -2.0720
  767TIP3   OH2 2264   5.611   5.362   0.256 -0.5855  0.4733  0.1288
  767TIP3    H1 2265   5.617   5.360   0.351 -1.6447 -0.1544  0.1963
  767TIP3    H2 2266   5.662   5.287   0.227 -0.4152  0.5565  0.2119
  768TIP3   OH2 2267   1.058   1.337   0.875  0.1759  0.1771  0.2317
  768TIP3    H1 2268   1.083   1.255   0.833 -0.5217 -0.0311  0.1996
  768TIP3    H2 2269   1.044   1.398   0.802 -0.2175  0.0544  0.2019
  769TIP3   OH2 2270   5.439   4.044   2.543 -0.1039 -0.5444 -0.8929
  769TIP3    H1 2271   5.433   3.950   2.523  0.8077 -0.8429  0.1088
  769TIP3    H2 2272   5.360   4.062   2.594  0.2677 -1.0524 -0.1097
  770TIP3   OH2 2273   6.237   0.759   5.127 -0.0077 -0.2438 -0.7471
  770TIP3    H1 2274   6.321   0.785   5.164 -0.4027  0.4963 -0.3444
  770TIP3    H2 2275   6.260   0.715   5.045  0.7551  0.2912 -0.8369
  771TIP3   OH2 2276   1.972   5.139   3.819  0.1648 -0.4008  0.6382
  771TIP3    H1 2277   1.966   5.088   3.738 -0.3424  0.1840  0.2999
  771TIP3    H2 2278   1.894   5.193   3.818  0.4237 -0.0166  1.2704
  772TIP3   OH2 2279   4.698   4.491   4.059  0.1031  0.4330 -0.0069
  772TIP3    H1 2280   4.637   4.424   4.026  0.9720 -1.4360  1.9719
  772TIP3    H2 2281   4.726   4.538   3.981 -2.3002  0.0320 -1.2168
  773TIP3   OH2 2282   3.044   3.538   3.365  0.0373  0.0979  0.6902
  773TIP3    H1 2283   3.026   3.540   3.272  1.0647 -0.4561  0.4627
  773TIP3    H2 2284   2.976   3.483   3.403  0.0758 -0.3104  0.1601
  774TIP3   OH2 2285   0.758   3.703   0.963  0.1812  0.6052 -0.5504
  774TIP3    H1 2286   0.702   3.714   0.886  0.0270  0.6305 -0.4347
  774TIP3    H2 2287   0.757   3.788   1.006 -1.8296 -0.0562  0.8947
  775TIP3   OH2 2288   4.383   3.277   1.044  0.1125  0.0933 -0.2541
  775TIP3    H1 2289   4.375   3.352   1.104 -0.9101  0.5342 -0.9211
  775TIP3    H2 2290   4.454   3.302   0.985  0.7575 -0.1100  0.4069
  776TIP3   OH2 2291   6.674   3.658   1.933  0.3800  0.0466 -0.3410
  776TIP3    H1 2292   6.579   3.663   1.943  0.4219 -1.7063  1.7205
  776TIP3    H2 2293   6.703   3.749   1.935 -1.0817  0.5442  1.5167
  777TIP3   OH2 2294   3.049   5.094   4.736 -0.3639  0.3627  0.4677
  777TIP3    H1 2295   2.986   5.057   4.674 -1.0779  2.2595 -0.0254
  777TIP3    H2 2296   3.107   5.022   4.757 -1.4851 -0.9325 -0.6487
  778TIP3   OH2 2297   6.768   4.866   0.017  0.3890  0.1571  0.2648
  778TIP3    H1 2298   6.793   4.823  -0.065  0.5481  3.1701 -1.4026
  778TIP3    H2 2299   6.850   4.900   0.052  0.7532 -3.0585  3.1292
  779TIP3   OH2 2300   2.336   2.959   0.407 -0.3272  0.0697  0.0345
  779TIP3    H1 2301   2.427   2.988   0.408 -0.4547  1.3093 -4.4305
  779TIP3    H2 2302   2.334   2.886   0.345 -2.6263  1.9576 -2.3761
  780TIP3   OH2 2303   2.468   4.688   3.701 -0.1009 -0.0150  0.4263
  780TIP3    H1 2304   2.534   4.693   3.770  1.7290  1.2850 -1.3293
  780TIP3    H2 2305   2.449   4.779   3.680 -0.7826 -0.3930 -0.6571
  781TIP3   OH2 2306   5.821   0.114   1.806  0.7707 -0.0108 -0.4931
  781TIP3    H1 2307   5.770   0.127   1.726  0.5146  1.2146 -0.1481
  781TIP3    H2 2308   5.901   0.070   1.776  0.3957 -0.1463 -1.3260
  782TIP3   OH2 2309   4.607   0.036   5.752  0.0761  0.1943  0.0648
  782TIP3    H1 2310   4.563  -0.013   5.682  2.1351  0.2793 -1.3771
  782TIP3    H2 2311   4.542   0.101   5.780 -0.7941  0.2160 -1.8397
  783TIP3   OH2 2312   2.337   6.471   1.373 -0.0928 -0.2823  0.0088
  783TIP3    H1 2313   2.283   6.434   1.303  0.2317 -0.7773  0.0163
  783TIP3    H2 2314   2.336   6.404   1.442  0.2162 -0.1252  0.1665
  784TIP3   OH2 2315   1.256   6.348   0.133  0.2296  0.4853 -0.3261
  784TIP3    H1 2316   1.350   6.329   0.143 -0.0994 -0.4255  1.5540
  784TIP3    H2 2317   1.238   6.331   0.041  1.4728 -1.6177 -0.2455
  785TIP3   OH2 2318   2.017   4.737   0.380 -0.6971  0.0231  0.1932
  785TIP3    H1 2319   2.001   4.700   0.466  0.4102 -1.4204 -0.1839
  785TIP3    H2 2320   2.057   4.823   0.398  1.5749 -1.1686  1.1816
  786TIP3   OH2 2321   5.028   5.542   2.174 -0.5396  0.3430  0.3177
  786TIP3    H1 2322   5.004   5.451   2.193  1.5641 -0.2606  0.3554
  786TIP3    H2 2323   4.962   5.572   2.112 -2.0431 -0.7585  1.3192
  787TIP3   OH2 2324   2.317   4.450   2.321  0.0236 -0.7471  1.2132
  787TIP3    H1 2325   2.290   4.507   2.393 -1.0214  0.6386 -0.2077
  787TIP3    H2 2326   2.400   4.487   2.291 -0.4605 -0.1563  0.5465
  788TIP3   OH2 2327   4.710   5.858   1.153  0.2635 -0.0788  0.0622
  788TIP3    H1 2328   4.669   5.862   1.240  0.2555 -0.9797  0.1128
  788TIP3    H2 2329   4.740   5.767   1.145 -1.1742 -0.4540 -1.5467
  789TIP3   OH2 2330   2.636   3.721   4.387 -0.1046  0.3729 -0.3048
  789TIP3    H1 2331   2.699   3.669   4.337 -1.2420 -1.8237  0.4027
  789TIP3    H2 2332   2.562   3.734   4.328  0.0095  0.8419 -0.3461
  790TIP3   OH2 2333   3.709   6.370   2.190 -0.4454 -0.4902 -0.0136
  790TIP3    H1 2334   3.711   6.453   2.236 -0.2092 -1.8553  2.6007
  790TIP3    H2 2335   3.734   6.392   2.100 -4.2429  2.8390 -0.5548
  791TIP3   OH2 2336   3.226   5.525   2.438  0.3914  0.4304 -0.3720
  791TIP3    H1 2337   3.144   5.532   2.389 -0.3841 -1.6454  0.5380
  791TIP3    H2 2338   3.294   5.533   2.371 -0.6012 -0.0386 -1.4712
  792TIP3   OH2 2339   5.864   4.347   2.700  0.2409  0.1916 -0.1684
  792TIP3    H1 2340   5.820   4.264   2.680  0.6842 -0.2496  0.6532
  792TIP3    H2 2341   5.843   4.403   2.626 -2.4772  0.3051  0.5873
  793TIP3   OH2 2342   6.965   0.486   2.136  0.1616 -0.2962  0.2741
  793TIP3    H1 2343   6.873   0.511   2.130 -0.2066 -1.8273 -1.6702
  793TIP3    H2 2344   6.964   0.390   2.135  1.8119 -0.4092 -2.6211
  794TIP3   OH2 2345   0.491   2.036   0.892 -0.0175  0.8353  0.2646
  794TIP3    H1 2346   0.495   1.942   0.911 -0.8957  0.8711  0.6502
  794TIP3    H2 2347   0.400   2.060   0.907  0.7185  2.3473  2.9991
  795TIP3   OH2 2348   0.239   1.220   1.558  0.7658 -0.5488  0.0285
  795TIP3    H1 2349   0.194   1.187   1.480 -1.3980 -0.6849  1.2585
  795TIP3    H2 2350   0.324   1.249   1.525 -0.1784 -0.2717 -2.4605
  796TIP3   OH2 2351   3.127   1.746   0.293  0.0120  0.2083  0.1779
  796TIP3    H1 2352   3.156   1.708   0.210 -0.4859 -0.5218  0.3355
  796TIP3    H2 2353   3.032   1.737   0.292 -0.4291  3.4721 -0.7776
  797TIP3   OH2 2354   3.037   0.530   5.511 -0.1366  0.5130  0.2723
  797TIP3    H1 2355   3.014   0.623   5.506  0.6658  0.8384  1.9807
  797TIP3    H2 2356   2.979   0.494   5.578  0.5090  0.1060  0.6241
  798TIP3   OH2 2357   2.966   1.901   5.692  0.1771  0.2396 -0.5024
  798TIP3    H1 2358   2.898   1.854   5.643 -0.2072 -0.2550  0.4800
  798TIP3    H2 2359   3.035   1.836   5.704 -0.9270 -0.5768  2.0488
  799TIP3   OH2 2360   5.240   5.197   5.696  0.4173 -0.6068 -0.1215
  799TIP3    H1 2361   5.330   5.221   5.720  0.3551  0.5764 -0.9776
  799TIP3    H2 2362   5.191   5.279   5.704 -0.5079 -1.1661 -0.0385
  800TIP3   OH2 2363   0.029   1.727   2.168  0.3025 -0.3654  0.2512
  800TIP3    H1 2364   0.047   1.698   2.079 -0.1347 -0.5494  0.2211
  800TIP3    H2 2365   0.095   1.793   2.186 -1.6470  2.2203 -1.4597
  801TIP3   OH2 2366   5.365   6.350   5.834  0.4972  0.0628  0.1234
  801TIP3    H1 2367   5.362   6.262   5.797  0.6574 -0.3053  0.9561
  801TIP3    H2 2368   5.277   6.385   5.822  0.8407  0.4156 -1.6524
  802TIP3   OH2 2369   0.917   3.449   4.610  0.0291  0.2595  0.5231
  802TIP3    H1 2370   0.977   3.523   4.616  0.7378 -0.3844  1.8902
  802TIP3    H2 2371   0.919   3.423   4.518  0.2497  1.5411  0.1569
  803TIP3   OH2 2372   1.334   5.105   5.041 -0.2928 -0.3925 -0.0714
  803TIP3    H1 2373   1.423   5.122   5.073 -1.0305  0.4181  1.6635
  803TIP3    H2 2374   1.337   5.129   4.948  1.0427  0.6406  0.2080
  804TIP3   OH2 2375   5.875   2.197   3.661  0.4571 -0.0087  0.0405
  804TIP3    H1 2376   5.885   2.192   3.566  0.2959 -0.4661  0.0414
  804TIP3    H2 2377   5.934   2.267   3.688  0.2308  0.3690 -0.4354
  805TIP3   OH2 2378   0.963   2.067   0.291 -0.6180 -0.2065  0.0670
  805TIP3    H1 2379   0.898   2.043   0.356 -1.2829  0.5202 -0.3224
  805TIP3    H2 2380   0.939   2.155   0.263  0.0677 -0.2346 -0.6502
  806TIP3   OH2 2381   2.658   3.373   0.507 -0.1453 -0.2096 -0.6629
  806TIP3    H1 2382   2.733   3.360   0.565 -0.1781 -1.1332 -0.8154
  806TIP3    H2 2383   2.652   3.468   0.497  0.6180 -0.0964 -0.1454
  807TIP3   OH2 2384  -0.023   2.458   4.905 -0.2427  0.0911 -0.3304
  807TIP3    H1 2385   0.059   2.463   4.954 -1.0997 -0.8471  1.2971
  807TIP3    H2 2386  -0.007   2.393   4.837  0.2252 -0.4453  0.2817
  808TIP3   OH2 2387   1.809   5.651   5.404 -0.1637 -0.2477 -0.1405
  808TIP3    H1 2388   1.829   5.589   5.333  1.2070  1.6252 -1.4979
  808TIP3    H2 2389   1.763   5.599   5.469  1.3782 -2.8426 -0.9612
  809TIP3   OH2 2390   1.221   1.310   2.941  0.0301  0.1624 -0.2324
  809TIP3    H1 2391   1.176   1.261   3.010 -0.3079 -1.2131 -1.3947
  809TIP3    H2 2392   1.170   1.294   2.862 -0.6450  3.1926 -0.5243
  810TIP3   OH2 2393   2.743   1.051   3.231 -0.1548 -0.8376 -0.6040
  810TIP3    H1 2394   2.695   1.017   3.306  0.4490 -1.6502 -0.5727
  810TIP3    H2 2395   2.782   0.973   3.190  1.7359 -0.1450 -0.2032
  811TIP3   OH2 2396   5.493   1.759   3.517 -0.9688  0.4479  0.9379
  811TIP3    H1 2397   5.538   1.675   3.526 -1.9030 -0.3106 -1.0417
  811TIP3    H2 2398   5.521   1.792   3.432 -1.9230  1.3449  0.9545
  812TIP3   OH2 2399   4.653   3.172   3.003 -0.0290  0.0197  0.7013
  812TIP3    H1 2400   4.617   3.121   2.931  0.1098 -0.5050  0.9946
  812TIP3    H2 2401   4.715   3.112   3.046 -0.7006  0.0426  1.7377
  813TIP3   OH2 2402   4.468   0.945   2.512 -0.3101  0.6335 -0.3776
  813TIP3    H1 2403   4.460   1.040   2.519 -2.1857  0.5018 -0.1709
  813TIP3    H2 2404   4.396   0.911   2.565  0.2715 -0.9107 -0.5170
  814TIP3   OH2 2405   2.141   4.682   3.822 -0.5681 -0.3121  0.1497
  814TIP3    H1 2406   2.206   4.740   3.861  0.1922 -0.0068 -1.5346
  814TIP3    H2 2407   2.179   4.595   3.829 -0.7310 -0.3519  0.6446
  815TIP3   OH2 2408   1.500   2.183   2.610 -0.2269 -0.0102  0.2150
  815TIP3    H1 2409   1.492   2.100   2.657  0.4132 -0.1475  0.0979
  815TIP3    H2 2410   1.488   2.250   2.677 -1.6649 -0.1752  0.1549
  816TIP3   OH2 2411   6.546   3.764   5.629 -0.0868 -0.1675 -0.1623
  816TIP3    H1 2412   6.508   3.852   5.630  1.3451  0.4839  1.1655
  816TIP3    H2 2413   6.482   3.711   5.582 -1.6836  1.2654  0.2796
  817TIP3   OH2 2414   4.377   1.286   4.041  1.4788 -0.3237 -0.9622
  817TIP3    H1 2415   4.464   1.274   4.002  1.5237 -1.3037 -0.5671
  817TIP3    H2 2416   4.394   1.322   4.128  1.4370  0.4382 -1.2596
  818TIP3   OH2 2417   1.104   6.357   0.858  0.2787  0.1201  0.0511
  818TIP3    H1 2418   1.103   6.263   0.875 -1.7925  0.2512  0.9373
  818TIP3    H2 2419   1.043   6.370   0.786  0.7892  0.7752 -0.2834
  819TIP3   OH2 2420   1.318   3.321   1.896  0.2981 -0.0538  0.3521
  819TIP3    H1 2421   1.307   3.316   1.801  0.2043  1.0212  0.2933
  819TIP3    H2 2422   1.228   3.314   1.930  0.2862  0.0391  0.3392
  820TIP3   OH2 2423   6.590   0.342   0.204 -1.0838 -0.2560  0.0986
  820TIP3    H1 2424   6.614   0.278   0.270 -0.4285 -0.9151 -0.7616
  820TIP3    H2 2425   6.596   0.295   0.121  0.7919  1.2597 -0.6994
  821TIP3   OH2 2426   3.795   5.426   3.816  0.0846  0.0448  0.2644
  821TIP3    H1 2427   3.864   5.404   3.753  1.3822  1.6906  1.0295
  821TIP3    H2 2428   3.729   5.471   3.763 -0.1846 -1.0704 -0.3815
  822TIP3   OH2 2429   2.872   0.726   5.698  0.3324 -0.3117  0.2230
  822TIP3    H1 2430   2.894   0.818   5.716  1.0772 -0.2783 -0.7873
  822TIP3    H2 2431   2.858   0.723   5.604  0.5515 -1.2989  0.2149
  823TIP3   OH2 2432   2.100   5.546   3.748 -0.3228 -0.7989 -0.1969
  823TIP3    H1 2433   2.098   5.484   3.820 -2.0715 -2.3386 -1.4739
  823TIP3    H2 2434   2.096   5.492   3.669  1.6539  0.8131 -1.5025
  824TIP3   OH2 2435   2.069   1.329   1.886 -0.2400 -0.9895 -0.5703
  824TIP3    H1 2436   2.140   1.393   1.888 -0.6028 -0.5400 -1.5260
  824TIP3    H2 2437   1.992   1.377   1.914 -0.0218 -1.7325  1.4761
  825TIP3   OH2 2438   4.252   4.639   0.456  0.3977 -0.3407  0.1591
  825TIP3    H1 2439   4.185   4.572   0.447 -1.5687  1.6422 -0.9295
  825TIP3    H2 2440   4.220   4.696   0.526  0.1006  1.4571 -1.3539
  826TIP3   OH2 2441   5.810   6.765   0.559 -0.2678 -0.1844  0.0760
  826TIP3    H1 2442   5.790   6.685   0.606 -0.8013  0.4329  0.9381
  826TIP3    H2 2443   5.783   6.748   0.469 -0.9987 -0.7417  0.3970
  827TIP3   OH2 2444   1.860   4.102   0.679 -0.0290  0.5004  0.0267
  827TIP3    H1 2445   1.827   4.189   0.656  0.1910  0.4668 -0.4418
  827TIP3    H2 2446   1.872   4.105   0.774 -0.7120  0.7376  0.1129
  828TIP3   OH2 2447   3.301   4.938   1.137 -0.0457  0.0813  0.0176
  828TIP3    H1 2448   3.295   5.028   1.169  0.0718  0.0444  0.1471
  828TIP3    H2 2449   3.395   4.918   1.140 -0.1061 -0.1678  0.3402
  829TIP3   OH2 2450   5.639   4.089   1.497  0.0539 -0.3012  0.0883
  829TIP3    H1 2451   5.607   4.082   1.587  0.1600  0.1973  0.1720
  829TIP3    H2 2452   5.724   4.045   1.498 -0.4814 -1.3463 -0.0581
  830TIP3   OH2 2453   6.878   0.670   1.279 -0.2235  0.1474 -0.8626
  830TIP3    H1 2454   6.972   0.680   1.292 -0.3644 -0.2182  0.6773
  830TIP3    H2 2455   6.842   0.757   1.297 -0.3615 -0.2272  0.9021
  831TIP3   OH2 2456   5.445   5.806   0.410 -0.2234 -0.0314 -0.2674
  831TIP3    H1 2457   5.518   5.814   0.471 -1.0766 -0.7721  0.8855
  831TIP3    H2 2458   5.467   5.731   0.356 -0.2920 -0.4693  0.3084
  832TIP3   OH2 2459   0.980   0.584   4.824  0.4074  0.4887 -0.1846
  832TIP3    H1 2460   0.928   0.648   4.775  0.1821  1.5859  1.4123
  832TIP3    H2 2461   1.068   0.622   4.827  0.9680 -0.6218 -1.5547
  833TIP3   OH2 2462   0.586   5.714   0.002  1.1718  0.3043 -0.2711
  833TIP3    H1 2463   0.595   5.672   0.087 -1.6779 -1.7011 -0.8162
  833TIP3    H2 2464   0.596   5.642  -0.061 -2.5784  0.5168 -1.2934
  834TIP3   OH2 2465   0.112   3.195   1.787 -0.1941 -0.6104  0.3257
  834TIP3    H1 2466   0.090   3.257   1.718 -0.8251 -0.5498  0.5671
  834TIP3    H2 2467   0.202   3.217   1.811  0.0138 -0.6040 -0.4381
  835TIP3   OH2 2468   0.706   4.120   0.072 -0.0763 -0.4046 -0.5455
  835TIP3    H1 2469   0.742   4.185   0.012  0.5450 -1.7775 -1.7142
  835TIP3    H2 2470   0.743   4.036   0.043 -0.5021 -1.2438  1.1766
  836TIP3   OH2 2471   2.913   2.586   3.937  0.0984 -0.3192  0.2932
  836TIP3    H1 2472   2.944   2.499   3.911  0.2573 -0.5495  1.1981
  836TIP3    H2 2473   2.987   2.644   3.919 -0.4371 -0.1301 -1.4893
  837TIP3   OH2 2474   6.108   1.634   0.383 -0.5133 -0.5748 -0.3187
  837TIP3    H1 2475   6.111   1.598   0.294 -0.4464 -0.3058 -0.4260
  837TIP3    H2 2476   6.026   1.683   0.385 -1.2280 -1.7394  0.2207
  838TIP3   OH2 2477   4.248   4.655   0.986  0.1787  0.4288 -0.8736
  838TIP3    H1 2478   4.194   4.730   0.962 -0.5088  0.1220 -0.2902
  838TIP3    H2 2479   4.336   4.679   0.956 -0.4434  0.5101 -2.7430
  839TIP3   OH2 2480   0.121   6.095   5.502 -0.6376 -0.0065 -0.4220
  839TIP3    H1 2481   0.142   6.131   5.416 -0.1211 -0.3579 -0.4486
  839TIP3    H2 2482   0.180   6.140   5.562 -1.0682  0.3147 -0.2283
  840TIP3   OH2 2483   1.433   2.214   4.521  0.2709  0.0139  0.4556
  840TIP3    H1 2484   1.486   2.222   4.442  0.5923  2.0623  0.8395
  840TIP3    H2 2485   1.481   2.263   4.588 -0.3016 -1.1570  1.7920
  841TIP3   OH2 2486   5.716   1.920   5.147  0.3468  0.1340  0.1839
  841TIP3    H1 2487   5.709   1.829   5.174 -0.3650  0.3007  0.5731
  841TIP3    H2 2488   5.798   1.950   5.186  0.4192 -0.2431  0.3316
  842TIP3   OH2 2489   2.068   5.546   0.203  0.3954 -0.1696  0.2605
  842TIP3    H1 2490   2.100   5.464   0.167  2.7811  0.2164  1.3392
  842TIP3    H2 2491   2.006   5.520   0.271  1.1894 -1.0900  0.6477
  843TIP3   OH2 2492   2.940   0.837   4.254  0.3026 -0.0212  0.4695
  843TIP3    H1 2493   2.948   0.782   4.332  0.4025  0.7933  1.0455
  843TIP3    H2 2494   3.016   0.895   4.258  1.3853 -1.2279 -1.2671
  844TIP3   OH2 2495   0.586   4.869   3.579  0.1308 -0.3561  0.6168
  844TIP3    H1 2496   0.560   4.853   3.488  0.2555 -0.0108  0.5200
  844TIP3    H2 2497   0.521   4.931   3.612  0.0521 -0.5240  0.7822
  845TIP3   OH2 2498   4.404   2.622   2.236 -0.2923 -0.4715  0.7783
  845TIP3    H1 2499   4.359   2.538   2.238 -0.1987 -0.5217  2.0545
  845TIP3    H2 2500   4.497   2.599   2.238 -0.2484 -0.3498  0.0765
  846TIP3   OH2 2501   5.672   3.767   5.812 -1.0731  0.0535  0.0096
  846TIP3    H1 2502   5.676   3.698   5.746 -1.6877 -1.5299  1.5737
  846TIP3    H2 2503   5.762   3.774   5.844 -0.9667  0.1467 -0.3020
  847TIP3   OH2 2504   6.873   2.126   0.576  0.5353 -0.3438 -0.4320
  847TIP3    H1 2505   6.900   2.040   0.609 -0.4370 -0.0943  1.1442
  847TIP3    H2 2506   6.778   2.128   0.592  0.6308  1.2172  0.0816
  848TIP3   OH2 2507   1.307   4.153   2.800 -0.9046  0.0820 -0.3147
  848TIP3    H1 2508   1.373   4.099   2.755 -0.5139 -1.0583  1.5058
  848TIP3    H2 2509   1.234   4.158   2.738 -0.1967 -0.9836 -1.2877
  849TIP3   OH2 2510   4.559   4.848   0.048 -0.8975  0.2107  0.4027
  849TIP3    H1 2511   4.603   4.881   0.127  1.9222 -0.9162 -0.5584
  849TIP3    H2 2512   4.522   4.764   0.075 -0.1050 -0.0836  0.6127
  850TIP3   OH2 2513   2.904   4.089   3.990 -0.3624 -0.1569  0.1004
  850TIP3    H1 2514   2.978   4.029   3.985 -0.4366 -0.2319 -0.1209
  850TIP3    H2 2515   2.920   4.154   3.921 -1.3101 -1.1008 -1.0563
  851TIP3   OH2 2516   0.791   4.560   4.593  0.1875  0.4707  0.2219
  851TIP3    H1 2517   0.887   4.560   4.586  0.2126 -1.5135 -0.0832
  851TIP3    H2 2518   0.770   4.474   4.629 -1.3332  2.0759  3.6351
  852TIP3   OH2 2519   4.172   3.200   2.944  0.0452 -0.1541 -0.9138
  852TIP3    H1 2520   4.223   3.123   2.921  0.7462 -0.3409  1.0707
  852TIP3    H2 2521   4.147   3.239   2.860  0.5978 -1.9194 -1.9306
  853TIP3   OH2 2522   5.744   2.676   2.892 -0.2746  0.2284  0.0971
  853TIP3    H1 2523   5.734   2.770   2.902 -0.3148  0.1587  0.7612
  853TIP3    H2 2524   5.663   2.639   2.927 -0.9452  0.0044 -1.5893
  854TIP3   OH2 2525   3.911   5.015   2.656 -0.0333 -0.0254 -0.2343
  854TIP3    H1 2526   3.939   5.008   2.747 -2.0336 -0.1966  0.3995
  854TIP3    H2 2527   3.980   4.970   2.606  0.0110 -1.8506  1.3867
  855TIP3   OH2 2528   0.083   1.812   1.274  0.5891 -0.5637 -0.1226
  855TIP3    H1 2529   0.081   1.800   1.369 -0.0374 -1.2490 -0.2049
  855TIP3    H2 2530   0.022   1.884   1.257  1.8372  0.5642  0.1102
  856TIP3   OH2 2531   3.922   6.436   2.932 -0.4603  0.0006  0.1575
  856TIP3    H1 2532   3.870   6.480   2.999  0.1522  2.3318 -0.7929
  856TIP3    H2 2533   3.869   6.443   2.852 -0.3263 -1.0090 -0.0360
  857TIP3   OH2 2534   1.758   3.709   3.151  0.3619 -0.2543 -0.5479
  857TIP3    H1 2535   1.720   3.746   3.231  0.1535 -0.7186 -0.4328
  857TIP3    H2 2536   1.687   3.662   3.109  0.7636 -0.9994 -0.4091
  858TIP3   OH2 2537   0.307   4.684   0.921 -0.4136  0.2110  0.0198
  858TIP3    H1 2538   0.325   4.776   0.901 -0.3597  0.1086 -0.4059
  858TIP3    H2 2539   0.277   4.647   0.838 -1.9386  0.2147  0.5335
  859TIP3   OH2 2540   7.199   2.495   2.435  0.6366 -0.6434 -0.5062
  859TIP3    H1 2541   7.278   2.447   2.457 -0.1766 -2.3816 -1.1426
  859TIP3    H2 2542   7.127   2.438   2.465 -0.3816  0.4079 -0.8552
  860TIP3   OH2 2543   5.219   1.837   1.627  0.5113 -0.4855 -0.3138
  860TIP3    H1 2544   5.153   1.810   1.563 -0.0560 -0.5787  0.2903
  860TIP3    H2 2545   5.205   1.778   1.701  1.3115 -0.5331 -0.1936
  861TIP3   OH2 2546   2.371   3.226   0.204  0.3694 -0.1406 -0.5496
  861TIP3    H1 2547   2.350   3.318   0.221 -1.4905 -0.4089 -1.1095
  861TIP3    H2 2548   2.291   3.179   0.230  0.3802 -1.3319 -2.5162
  862TIP3   OH2 2549   2.664   0.322   5.364  0.6046 -0.5584 -0.0733
  862TIP3    H1 2550   2.678   0.228   5.370 -1.3914 -0.8310  1.2289
  862TIP3    H2 2551   2.577   0.331   5.325  1.1727  0.7966 -1.1308
  863TIP3   OH2 2552   7.108   5.480   4.398  0.3843  0.0921 -0.0287
  863TIP3    H1 2553   7.107   5.454   4.490  0.3579 -0.4834 -0.1863
  863TIP3    H2 2554   7.016   5.477   4.371  0.5038 -0.8686 -0.3726
  864TIP3   OH2 2555   0.331   0.805   0.837 -0.0986  0.1971  0.3463
  864TIP3    H1 2556   0.344   0.843   0.924 -1.8801 -0.7039  1.0653
  864TIP3    H2 2557   0.237   0.791   0.831  0.0841 -0.5551 -1.3992
  865TIP3   OH2 2558   2.286   0.041   2.468 -0.6083 -0.2963  0.2042
  865TIP3    H1 2559   2.232   0.118   2.483 -0.8172 -0.3994 -0.0114
  865TIP3    H2 2560   2.223  -0.031   2.459 -0.5676 -0.0943 -2.2204
  866TIP3   OH2 2561   2.110   0.518   0.282 -0.6466 -0.1161 -0.5598
  866TIP3    H1 2562   2.056   0.593   0.306  0.1617  0.1774  0.4167
  866TIP3    H2 2563   2.088   0.502   0.190 -1.8052  0.4716 -0.4137
  867TIP3   OH2 2564   1.979   4.576   1.198 -0.0713 -0.2238  0.1857
  867TIP3    H1 2565   1.896   4.571   1.151  0.4701  2.0363 -1.2021
  867TIP3    H2 2566   2.046   4.568   1.130  0.7933  0.1904  0.9553
  868TIP3   OH2 2567   0.766   1.593   0.624  0.0684 -0.5915 -0.1067
  868TIP3    H1 2568   0.739   1.567   0.536  0.6679 -2.0067  0.1091
  868TIP3    H2 2569   0.817   1.673   0.610  0.3964 -0.9506 -1.0826
  869TIP3   OH2 2570   0.938   4.774   2.823 -0.3155  0.2184  0.2679
  869TIP3    H1 2571   0.901   4.702   2.874 -0.8489 -0.1331 -0.5949
  869TIP3    H2 2572   0.875   4.845   2.834 -0.0339  0.4013  0.7257
  870TIP3   OH2 2573   3.159   5.771   5.695  0.1131  0.5168 -0.1509
  870TIP3    H1 2574   3.167   5.842   5.632  1.0455 -1.4638 -2.4408
  870TIP3    H2 2575   3.133   5.813   5.777  0.9101  3.4761 -1.3093
  871TIP3   OH2 2576   2.817   0.838   2.103 -0.4890 -0.3913  0.5107
  871TIP3    H1 2577   2.891   0.779   2.120  0.1297 -0.2928 -1.5082
  871TIP3    H2 2578   2.759   0.826   2.178  1.5356 -0.5117  2.1553
  872TIP3   OH2 2579   1.658   0.637   3.545 -0.2188 -0.4287  0.3187
  872TIP3    H1 2580   1.695   0.549   3.549  1.3810  0.1490 -0.6930
  872TIP3    H2 2581   1.702   0.685   3.615 -1.1146 -0.4275  0.8927
  873TIP3   OH2 2582   1.567   2.990   1.465  0.2546 -0.2116 -0.3065
  873TIP3    H1 2583   1.575   3.082   1.439  0.0227 -0.8837 -2.9492
  873TIP3    H2 2584   1.633   2.944   1.413 -1.0384 -1.8315 -0.5693
  874TIP3   OH2 2585   1.105   0.979   2.338 -0.4127 -0.3314  0.0905
  874TIP3    H1 2586   1.123   0.886   2.353 -1.1787 -0.4180  0.5120
  874TIP3    H2 2587   1.112   0.990   2.243 -0.9405 -0.9637 -0.0288
  875TIP3   OH2 2588   6.752   5.571   2.446 -0.2649 -0.3169 -0.0954
  875TIP3    H1 2589   6.732   5.603   2.534 -1.2645 -0.6826 -0.1833
  875TIP3    H2 2590   6.800   5.643   2.406  0.6614 -0.3433  0.9150
  876TIP3   OH2 2591   5.993   6.467   5.870  0.7102  0.0811 -0.0825
  876TIP3    H1 2592   6.076   6.491   5.829  0.5538  0.4102 -0.2127
  876TIP3    H2 2593   5.966   6.387   5.826  0.7512  0.2033 -0.3300
  877TIP3   OH2 2594   3.448   5.943   1.343 -0.2030 -0.2000 -0.3091
  877TIP3    H1 2595   3.540   5.970   1.336 -0.3140 -0.1140 -1.9556
  877TIP3    H2 2596   3.451   5.848   1.330 -0.3429 -0.1801 -0.4943
  878TIP3   OH2 2597   4.195   3.951   1.229 -0.8531 -0.2028  0.1344
  878TIP3    H1 2598   4.251   3.924   1.302 -0.9337  1.4645  0.8424
  878TIP3    H2 2599   4.253   3.996   1.169 -0.9543 -0.8223 -0.4446
  879TIP3   OH2 2600   4.032   4.806   0.233  0.4551  0.0226 -0.2159
  879TIP3    H1 2601   3.959   4.862   0.204 -0.6082 -1.8553 -1.3604
  879TIP3    H2 2602   4.102   4.868   0.256 -0.8173  1.8299 -0.9751
  880TIP3   OH2 2603   5.926   2.854   5.774  0.3946 -0.0132 -0.1544
  880TIP3    H1 2604   5.934   2.779   5.833  1.1701  0.1716 -0.0052
  880TIP3    H2 2605   5.890   2.818   5.693 -0.3680 -0.3274  0.3132
  881TIP3   OH2 2606   2.564   4.306   5.355 -0.2208 -0.5908 -0.3155
  881TIP3    H1 2607   2.638   4.343   5.307  0.2458  0.9138  1.4558
  881TIP3    H2 2608   2.517   4.254   5.290  2.3198 -1.5220 -1.5145
  882TIP3   OH2 2609   4.637   3.283   0.534  0.8477 -0.2309 -0.2562
  882TIP3    H1 2610   4.686   3.363   0.516  0.2917  0.0087 -0.7292
  882TIP3    H2 2611   4.637   3.236   0.450 -0.6087  0.2525 -0.5443
  883TIP3   OH2 2612   1.368   1.444   2.470  0.1412 -0.6823 -0.5196
  883TIP3    H1 2613   1.391   1.458   2.378  2.1724  4.0404  0.4401
  883TIP3    H2 2614   1.450   1.419   2.512  0.1525  0.9244  0.5169
  884TIP3   OH2 2615   1.953   2.447   3.872 -0.3538  0.3023 -0.6554
  884TIP3    H1 2616   1.887   2.377   3.870 -0.4860  0.4306 -1.6102
  884TIP3    H2 2617   1.998   2.436   3.956  0.1928 -1.4590 -1.1347
  885TIP3   OH2 2618   4.327   0.400   1.829  0.1315 -0.6198  0.1662
  885TIP3    H1 2619   4.248   0.441   1.863 -1.2700 -2.8922 -0.1667
  885TIP3    H2 2620   4.390   0.405   1.901 -0.6204  0.3637  0.7814
  886TIP3   OH2 2621   2.731   2.031   3.782 -0.3938  0.2726 -0.4747
  886TIP3    H1 2622   2.740   2.084   3.860 -1.2672  0.5156 -0.5243
  886TIP3    H2 2623   2.637   2.029   3.765 -0.1992  0.4694 -1.6849
  887TIP3   OH2 2624   6.127   5.916   0.422 -0.6641  0.1281 -0.2914
  887TIP3    H1 2625   6.134   5.824   0.449 -0.4335 -0.2935 -1.7102
  887TIP3    H2 2626   6.044   5.945   0.459  0.3393  0.0828  2.1911
  888TIP3   OH2 2627   4.471   2.655   3.846  0.2518  0.6620  0.4362
  888TIP3    H1 2628   4.517   2.604   3.913  0.8862 -0.2748 -0.6699
  888TIP3    H2 2629   4.442   2.734   3.891  0.2329 -0.1647  1.9336
  889TIP3   OH2 2630   1.079   6.606   4.778  0.3500 -0.4099  0.6689
  889TIP3    H1 2631   1.112   6.642   4.860 -2.1086 -0.3509  1.7440
  889TIP3    H2 2632   1.101   6.513   4.782  1.8875 -0.0819  0.4704
  890TIP3   OH2 2633   0.344   1.286   5.895 -0.7648 -0.5112  0.0022
  890TIP3    H1 2634   0.281   1.357   5.898 -1.3216 -0.7720 -2.7791
  890TIP3    H2 2635   0.408   1.314   5.830 -0.9974 -2.5025 -1.1598
  891TIP3   OH2 2636   1.500   3.400   5.156 -0.1249 -0.0790 -0.3632
  891TIP3    H1 2637   1.451   3.482   5.150  0.3508  0.1115 -2.3514
  891TIP3    H2 2638   1.590   3.424   5.134  0.1837 -1.0043 -0.1572
  892TIP3   OH2 2639   1.854   4.872   1.753 -0.3507 -0.2581  0.2562
  892TIP3    H1 2640   1.945   4.900   1.759 -0.5565  0.9183 -1.4195
  892TIP3    H2 2641   1.804   4.950   1.776 -0.9585 -0.8534  1.0145
  893TIP3   OH2 2642   3.041   2.192   2.501  0.2119  0.2401 -0.1422
  893TIP3    H1 2643   3.112   2.128   2.494  0.5700  0.4539  1.2152
  893TIP3    H2 2644   2.967   2.141   2.532  0.1420  0.2631 -0.2700
  894TIP3   OH2 2645   0.774   1.086   1.099 -0.0223  0.2015 -0.1317
  894TIP3    H1 2646   0.845   1.035   1.060 -0.3109 -0.9598  0.7886
  894TIP3    H2 2647   0.804   1.176   1.097  0.7036 -0.0518 -1.4017
  895TIP3   OH2 2648   5.638   2.387   4.825 -0.7090 -0.3543 -0.6555
  895TIP3    H1 2649   5.638   2.335   4.906 -0.1332  0.1600 -0.3207
  895TIP3    H2 2650   5.685   2.332   4.761  0.1524 -0.1377 -0.2239
  896TIP3   OH2 2651   5.502   3.707   0.978  0.7854 -0.0628  0.1188
  896TIP3    H1 2652   5.453   3.628   0.957  1.0301  0.1071 -1.2054
  896TIP3    H2 2653   5.594   3.681   0.975  0.8612 -0.5286  3.2126
  897TIP3   OH2 2654   0.989   0.549   4.368 -0.4155  0.6161 -0.1037
  897TIP3    H1 2655   1.071   0.563   4.414  1.3303 -0.1083 -2.7660
  897TIP3    H2 2656   0.923   0.592   4.423  1.8178  1.9383  1.7295
  898TIP3   OH2 2657   4.976   4.603   2.993  0.0584 -0.0714  0.2693
  898TIP3    H1 2658   4.895   4.651   2.976  0.1413 -0.3275 -0.9310
  898TIP3    H2 2659   4.975   4.530   2.931  0.7003 -0.7065  0.9718
  899TIP3   OH2 2660   5.292   5.254   0.735  0.0812  0.8207 -0.4538
  899TIP3    H1 2661   5.228   5.186   0.757 -0.2234  0.6082 -1.9162
  899TIP3    H2 2662   5.239   5.334   0.724 -0.0076  0.5737 -2.0016
  900TIP3   OH2 2663   2.809   3.932   0.712  0.2309  0.1686  0.8621
  900TIP3    H1 2664   2.810   3.890   0.798  1.2964 -3.1768 -0.6258
  900TIP3    H2 2665   2.900   3.936   0.686 -0.1021  0.8750 -0.2708
  901TIP3   OH2 2666   7.140   3.055   4.394  0.4762  0.2152 -0.0776
  901TIP3    H1 2667   7.220   3.012   4.423 -0.2156 -0.9383  0.1873
  901TIP3    H2 2668   7.072   2.990   4.407 -0.4108  0.9355 -0.9363
  902TIP3   OH2 2669   3.767   6.404   0.909  0.5921 -0.4167  0.6625
  902TIP3    H1 2670   3.802   6.473   0.852 -0.3282 -1.1639 -0.8876
  902TIP3    H2 2671   3.701   6.361   0.855 -1.2431 -0.3681  2.7568
  903TIP3   OH2 2672   3.623   1.610   0.683  0.4165  0.0941  0.3394
  903TIP3    H1 2673   3.677   1.682   0.652  0.2060  0.1600  0.1244
  903TIP3    H2 2674   3.582   1.574   0.604 -0.0280  0.1885  0.5219
  904TIP3   OH2 2675   1.161   1.124   0.745 -0.1141 -0.1910  0.5076
  904TIP3    H1 2676   1.256   1.121   0.736 -0.1871 -2.1733 -0.0046
  904TIP3    H2 2677   1.128   1.103   0.658 -0.9965 -0.9866  1.0224
  905TIP3   OH2 2678   5.593   6.368   5.208  0.1906 -0.5719  0.4498
  905TIP3    H1 2679   5.581   6.313   5.131  1.1328 -1.0875  0.6499
  905TIP3    H2 2680   5.580   6.457   5.177  0.4250 -0.7840 -0.2678
  906TIP3   OH2 2681   4.332   3.281   5.113 -0.0484  0.5151 -0.1150
  906TIP3    H1 2682   4.307   3.226   5.039  1.0884  0.4369 -0.4489
  906TIP3    H2 2683   4.419   3.250   5.138 -0.5746  0.2618  1.5254
  907TIP3   OH2 2684   6.566   2.488   4.677  0.2304  0.8545  0.4136
  907TIP3    H1 2685   6.583   2.547   4.750 -0.7933  1.1202  0.4621
  907TIP3    H2 2686   6.539   2.545   4.606 -1.1693  0.4600  0.5812
  908TIP3   OH2 2687   2.706   0.302   4.160 -0.5499 -0.8319  0.0442
  908TIP3    H1 2688   2.669   0.378   4.205  0.0400 -0.7403  0.3892
  908TIP3    H2 2689   2.688   0.228   4.218  1.5142 -0.5041  1.2265
  909TIP3   OH2 2690   5.672   2.070   3.444 -0.2304 -0.5321  0.0597
  909TIP3    H1 2691   5.730   2.141   3.418  0.9984 -0.9472  1.5172
  909TIP3    H2 2692   5.591   2.113   3.470 -0.6872  0.0492 -2.1411
  910TIP3   OH2 2693   2.736   0.027   5.377  0.3334  0.0212  0.0301
  910TIP3    H1 2694   2.771  -0.030   5.445  1.1846 -0.6167 -0.9060
  910TIP3    H2 2695   2.641   0.014   5.380  0.5488 -2.0406 -0.6492
  911TIP3   OH2 2696   1.128   0.724   3.782 -0.0714 -0.0362  0.2817
  911TIP3    H1 2697   1.221   0.746   3.776  0.1673 -0.5778  1.5228
  911TIP3    H2 2698   1.115   0.654   3.719  0.6415 -0.7652  0.9312
  912TIP3   OH2 2699   0.149   3.413   4.023  0.4797  0.3765 -0.4277
  912TIP3    H1 2700   0.162   3.321   4.043 -1.5581  0.0927 -0.2106
  912TIP3    H2 2701   0.057   3.430   4.046  0.8642  2.5076 -0.2495
  913TIP3   OH2 2702   1.392   3.885   0.683  0.3569 -0.1497  0.1163
  913TIP3    H1 2703   1.403   3.810   0.625 -0.5389  0.1083 -0.4144
  913TIP3    H2 2704   1.326   3.939   0.640 -0.6697 -0.1600  1.5670
  914TIP3   OH2 2705   6.916   5.534   1.906  0.2981  0.8564  0.0036
  914TIP3    H1 2706   6.973   5.489   1.843  1.1303  1.3952  0.3455
  914TIP3    H2 2707   6.851   5.579   1.852 -1.8225 -2.2682 -0.3013
  915TIP3   OH2 2708   6.350   5.892   2.815  0.3447 -0.2687 -0.7631
  915TIP3    H1 2709   6.307   5.928   2.893  0.0428  0.1085 -1.0985
  915TIP3    H2 2710   6.308   5.807   2.802 -1.4518  0.7414 -1.9879
  916TIP3   OH2 2711   6.445   0.038   0.219  0.5360 -0.7169 -0.7316
  916TIP3    H1 2712   6.441   0.042   0.314 -0.0101  0.0567 -0.7780
  916TIP3    H2 2713   6.539   0.031   0.199  0.8516  1.4045 -0.1970
  917TIP3   OH2 2714   0.609   4.237   4.047  0.4719 -0.2091  0.2513
  917TIP3    H1 2715   0.642   4.178   4.115  0.2326 -1.1551 -0.4245
  917TIP3    H2 2716   0.552   4.298   4.094 -0.3021 -1.3136  0.8183
  918TIP3   OH2 2717   2.674   0.785   5.072 -0.1898  0.2408 -0.0944
  918TIP3    H1 2718   2.725   0.752   4.999 -0.8975  0.0480 -0.5065
  918TIP3    H2 2719   2.702   0.732   5.147  0.6400  0.5369 -0.1857
  919TIP3   OH2 2720   1.600   3.376   2.443 -0.3969 -0.1409  0.0546
  919TIP3    H1 2721   1.694   3.366   2.432  0.0087  1.2541  1.7270
  919TIP3    H2 2722   1.573   3.298   2.492  0.2684  0.4001  1.3117
  920TIP3   OH2 2723   0.742   5.208   3.608  0.1236 -0.5336  0.2192
  920TIP3    H1 2724   0.667   5.223   3.666 -0.3906 -1.6714 -0.1248
  920TIP3    H2 2725   0.784   5.294   3.602 -1.3428  0.2292  0.1554
  921TIP3   OH2 2726   4.577   5.157   4.071  0.0581 -0.1576  0.2706
  921TIP3    H1 2727   4.522   5.096   4.120 -0.7064  2.4128  2.9216
  921TIP3    H2 2728   4.520   5.192   4.003 -0.2486 -0.6430  0.2739
  922TIP3   OH2 2729   4.976   0.910   4.542  0.2746  0.1268  0.1217
  922TIP3    H1 2730   4.979   0.892   4.636  1.8447 -0.3330 -0.0007
  922TIP3    H2 2731   4.882   0.918   4.523 -0.1068 -0.4928  1.5828
  923TIP3   OH2 2732   4.743   4.700   2.902 -0.1582 -0.3446 -0.3377
  923TIP3    H1 2733   4.658   4.675   2.866 -1.3515  1.0035  1.3650
  923TIP3    H2 2734   4.744   4.796   2.896 -0.4521 -0.0037  3.0037
  924TIP3   OH2 2735   3.940   0.310   5.032 -0.2093 -0.0526  0.4519
  924TIP3    H1 2736   3.883   0.272   4.966 -0.6421 -1.1578  1.4329
  924TIP3    H2 2737   4.009   0.245   5.045  1.0682  1.0641 -0.3847
  925TIP3   OH2 2738   4.298   6.057   3.491 -0.2253 -0.0654 -0.0392
  925TIP3    H1 2739   4.263   6.142   3.515 -1.7485 -0.5526 -0.4668
  925TIP3    H2 2740   4.393   6.071   3.487 -0.4078  1.4736  0.3751
  926TIP3   OH2 2741   0.971   2.906   2.400 -0.1238  0.1858 -0.0139
  926TIP3    H1 2742   1.028   2.962   2.348 -0.0048  0.3492  0.2908
  926TIP3    H2 2743   1.031   2.853   2.453 -0.2379 -0.1664 -0.2360
  927TIP3   OH2 2744   3.507   2.950   2.468 -0.0474 -0.0594  0.1413
  927TIP3    H1 2745   3.493   2.872   2.522 -0.9031 -1.1836 -1.6068
  927TIP3    H2 2746   3.445   3.014   2.502  0.6632 -0.1088  1.6048
  928TIP3   OH2 2747   5.479   4.693   2.265 -0.0197  0.1269 -0.2446
  928TIP3    H1 2748   5.549   4.674   2.327 -0.1042  1.3732  0.2617
  928TIP3    H2 2749   5.495   4.783   2.238  0.3137 -0.5366 -2.4426
  929TIP3   OH2 2750   1.754   0.337   3.055  0.0832 -0.3041  0.5840
  929TIP3    H1 2751   1.764   0.331   2.960  0.7572 -0.8643  0.6824
  929TIP3    H2 2752   1.785   0.253   3.088 -1.9169 -0.8695  1.1787
  930TIP3   OH2 2753   4.261   4.752   3.006  0.5276  0.0385 -0.1934
  930TIP3    H1 2754   4.340   4.775   3.054  0.3298 -1.3683  0.8639
  930TIP3    H2 2755   4.266   4.657   2.995  0.2556  0.2286 -2.4475
  931TIP3   OH2 2756   0.788   6.367   4.268  0.0608 -0.0160 -0.2964
  931TIP3    H1 2757   0.825   6.415   4.194  0.2654 -0.8771 -0.7669
  931TIP3    H2 2758   0.810   6.276   4.251  0.5838 -0.1833  1.1067
  932TIP3   OH2 2759   3.486   4.799   1.886 -0.8044  0.2255  0.0455
  932TIP3    H1 2760   3.392   4.789   1.900 -0.7281  1.2623  1.4918
  932TIP3    H2 2761   3.509   4.880   1.931  0.9571 -0.5046  0.5561
  933TIP3   OH2 2762   1.270   3.562   5.199  0.0951 -0.1716 -0.1178
  933TIP3    H1 2763   1.258   3.657   5.204  1.3312  0.1079 -1.8086
  933TIP3    H2 2764   1.187   3.529   5.165 -0.7129  0.1393  1.4227
  934TIP3   OH2 2765   1.666   1.452   1.484 -0.0046 -0.6913  0.4102
  934TIP3    H1 2766   1.699   1.420   1.400 -1.2224  0.9041 -0.7458
  934TIP3    H2 2767   1.744   1.485   1.529  0.4715 -0.0732 -0.8086
  935TIP3   OH2 2768   2.113   1.203   2.230 -0.4215  0.1165 -0.1807
  935TIP3    H1 2769   2.035   1.157   2.201 -0.8541  0.5666  0.2587
  935TIP3    H2 2770   2.112   1.196   2.325 -0.8305  1.5492 -0.0557
  936TIP3   OH2 2771   3.220   3.230   0.367  0.1485 -0.4357 -0.1996
  936TIP3    H1 2772   3.180   3.234   0.280 -1.2644 -4.7830 -0.0093
  936TIP3    H2 2773   3.310   3.202   0.350  1.6328  3.7413 -0.3182
  937TIP3   OH2 2774   6.728   0.202   4.600 -0.4615 -0.3206 -0.0298
  937TIP3    H1 2775   6.649   0.148   4.601 -0.3814 -0.4520 -0.5048
  937TIP3    H2 2776   6.734   0.234   4.510 -0.7200  0.8016  0.3417
  938TIP3   OH2 2777   0.736   5.581   1.232  0.0215 -0.1724 -0.2856
  938TIP3    H1 2778   0.830   5.582   1.251  0.0232 -0.9464 -0.2181
  938TIP3    H2 2779   0.730   5.601   1.139  0.4001 -2.1604 -0.7738
  939TIP3   OH2 2780   1.155   4.345   0.867 -0.1896  0.3066  0.5943
  939TIP3    H1 2781   1.206   4.278   0.822 -1.8835 -1.3484  1.0396
  939TIP3    H2 2782   1.168   4.326   0.960 -1.0530  0.2893  0.7164
  940TIP3   OH2 2783   6.651   5.995   1.543 -0.0086 -0.3842  0.4856
  940TIP3    H1 2784   6.622   5.923   1.487 -2.5985  1.0216 -0.1212
  940TIP3    H2 2785   6.701   6.052   1.484  1.0554 -1.0722  0.6978
  941TIP3   OH2 2786   6.639   1.975   0.825 -0.0751 -0.0373 -0.3238
  941TIP3    H1 2787   6.610   1.906   0.884  0.6223  1.0455  1.3871
  941TIP3    H2 2788   6.729   1.953   0.804  0.0824  0.2203  0.0603
  942TIP3   OH2 2789   6.593   2.284   4.397  0.0188 -0.7273  0.5097
  942TIP3    H1 2790   6.519   2.223   4.394  1.4157 -2.5014  0.5637
  942TIP3    H2 2791   6.594   2.316   4.487 -1.5994  0.5640  0.1163
  943TIP3   OH2 2792   5.915   6.144   3.906 -0.0451 -0.3809  0.3459
  943TIP3    H1 2793   5.979   6.081   3.939  1.2771  0.9250  0.3708
  943TIP3    H2 2794   5.953   6.175   3.824 -1.2951 -0.5208 -0.3129
  944TIP3   OH2 2795   4.746   2.694   5.832  0.5349  0.0503  0.5324
  944TIP3    H1 2796   4.834   2.655   5.834  0.2302 -0.7033 -0.3411
  944TIP3    H2 2797   4.756   2.773   5.780  0.4790 -0.6353 -0.5491
  945TIP3   OH2 2798   5.091   6.793   3.697  0.1485  0.1842  0.5124
  945TIP3    H1 2799   5.098   6.752   3.611  0.4832  1.7209 -0.2317
  945TIP3    H2 2800   5.007   6.839   3.695  0.3960  0.6589  0.8104
  946TIP3   OH2 2801   4.729   6.011   4.462 -0.1038  0.1627 -0.6413
  946TIP3    H1 2802   4.644   6.054   4.466 -0.3932 -0.3592 -1.0996
  946TIP3    H2 2803   4.737   5.981   4.372  0.1271 -0.6575 -0.3574
  947TIP3   OH2 2804   1.909   6.639   2.501 -0.2163  0.5358  0.5002
  947TIP3    H1 2805   1.820   6.653   2.470 -0.6935  1.4130  2.1332
  947TIP3    H2 2806   1.964   6.687   2.439 -0.8946  0.2030 -0.3720
  948TIP3   OH2 2807   3.676   3.543   2.401 -0.1398 -0.2757 -0.1282
  948TIP3    H1 2808   3.753   3.597   2.386  0.0404 -0.5750 -0.3071
  948TIP3    H2 2809   3.711   3.456   2.419 -0.4075 -0.2282  0.6456
  949TIP3   OH2 2810   6.519   0.502   4.119 -0.2316  0.1874  0.0876
  949TIP3    H1 2811   6.479   0.420   4.090  0.6198 -0.5193  0.8478
  949TIP3    H2 2812   6.605   0.504   4.077  1.3448 -1.2128  2.9241
  950TIP3   OH2 2813   0.314   4.477   4.661 -0.1890 -0.3453  0.4104
  950TIP3    H1 2814   0.292   4.386   4.642  0.1614 -0.6025  1.2009
  950TIP3    H2 2815   0.243   4.508   4.717 -0.6724  0.0873 -0.4278
  951TIP3   OH2 2816   4.193   3.572   2.602  0.4241  0.1243  0.1501
  951TIP3    H1 2817   4.188   3.542   2.511  1.8923  0.5088 -0.0927
  951TIP3    H2 2818   4.140   3.510   2.651  0.3732 -0.6465 -0.8452
  952TIP3   OH2 2819   2.666   6.329   0.942 -0.1552  0.6482 -0.0900
  952TIP3    H1 2820   2.690   6.422   0.947  0.6126  0.4567 -0.0548
  952TIP3    H2 2821   2.750   6.283   0.940 -0.5084 -0.1353  1.4637
  953TIP3   OH2 2822   2.430   2.417   1.905  0.3197 -0.1752 -0.5155
  953TIP3    H1 2823   2.340   2.441   1.886  0.2847 -0.5533 -0.8356
  953TIP3    H2 2824   2.451   2.465   1.985  0.4389  1.3580 -1.4279
  954TIP3   OH2 2825   6.163   6.377   0.049 -0.2178  0.3889 -0.0992
  954TIP3    H1 2826   6.145   6.291   0.087 -1.8587  0.7253 -0.0487
  954TIP3    H2 2827   6.090   6.432   0.079  0.5758  1.6826 -0.4909
  955TIP3   OH2 2828   1.323   0.741   5.446 -0.0824  0.2683  0.0531
  955TIP3    H1 2829   1.315   0.707   5.535  0.5562  0.2764  0.1128
  955TIP3    H2 2830   1.392   0.688   5.406 -0.3213  0.3063 -0.4214
  956TIP3   OH2 2831   0.956   1.583   2.826  0.0831  0.1427  0.1216
  956TIP3    H1 2832   1.052   1.577   2.833  0.0397 -0.4973  0.1735
  956TIP3    H2 2833   0.928   1.611   2.913  0.3371  1.8736 -0.3141
  957TIP3   OH2 2834   4.866   4.928   5.091  0.2461 -0.3122 -0.7632
  957TIP3    H1 2835   4.917   5.005   5.064  1.1884 -0.3320  0.8637
  957TIP3    H2 2836   4.857   4.936   5.186 -1.7548 -0.9680 -0.8358
  958TIP3   OH2 2837   3.809   6.441   3.761  0.4478 -0.5873 -0.0643
  958TIP3    H1 2838   3.828   6.359   3.806  0.1208  0.2400  1.6845
  958TIP3    H2 2839   3.716   6.437   3.740  0.1438 -0.2040  1.1131
  959TIP3   OH2 2840   0.169   3.359   0.422 -0.0443  0.2891 -0.1616
  959TIP3    H1 2841   0.138   3.303   0.351  1.2536 -1.2568  0.4214
  959TIP3    H2 2842   0.258   3.383   0.396  1.0343 -1.5426  1.5371
  960TIP3   OH2 2843   5.008   4.792   4.885 -0.3322  0.2913 -0.3235
  960TIP3    H1 2844   4.976   4.702   4.884 -1.2117  0.5958 -0.0033
  960TIP3    H2 2845   4.946   4.840   4.939  1.1215  0.7197  1.0666
  961TIP3   OH2 2846   4.873   6.472   4.803 -0.0768  0.1948 -0.1989
  961TIP3    H1 2847   4.921   6.548   4.836 -0.8824  0.9909 -0.8386
  961TIP3    H2 2848   4.846   6.497   4.714  0.9203 -1.3980 -1.0110
  962TIP3   OH2 2849   1.986   0.449   3.991  0.3055  0.1439 -0.3791
  962TIP3    H1 2850   1.894   0.472   3.980  0.1376 -0.3559 -0.0974
  962TIP3    H2 2851   2.033   0.510   3.936  0.1022  2.8149  2.1575
  963TIP3   OH2 2852   1.018   1.872   1.609  0.7709 -0.0105 -0.2619
  963TIP3    H1 2853   1.022   1.871   1.513  0.7602  0.3481 -0.2678
  963TIP3    H2 2854   0.924   1.879   1.629  0.8838  3.6390 -0.2912
  964TIP3   OH2 2855   2.411   3.824   5.158 -0.5988  0.1427  0.1394
  964TIP3    H1 2856   2.406   3.871   5.241  1.5961  0.6284  0.0559
  964TIP3    H2 2857   2.390   3.733   5.182 -1.7452  0.5751  0.8713
  965TIP3   OH2 2858   3.088   2.581   1.757 -0.5583  0.2535  0.4674
  965TIP3    H1 2859   3.162   2.597   1.815  0.6592 -0.4842 -0.8121
  965TIP3    H2 2860   3.055   2.495   1.783  0.0259 -0.1042  0.0558
  966TIP3   OH2 2861   1.364   0.300   2.628  0.2225  0.5442 -0.1211
  966TIP3    H1 2862   1.294   0.238   2.646 -0.0121  0.9730  0.4751
  966TIP3    H2 2863   1.400   0.272   2.544  0.2501 -0.5158  0.2232
  967TIP3   OH2 2864   0.194   3.113   0.928 -0.2632 -0.2210  0.0701
  967TIP3    H1 2865   0.124   3.146   0.984 -0.5510 -1.6692  0.6315
  967TIP3    H2 2866   0.198   3.019   0.949  0.1489 -0.6555 -1.7747
  968TIP3   OH2 2867   0.078   4.328   1.672  0.0472  0.3637 -0.5158
  968TIP3    H1 2868   0.125   4.247   1.654 -1.0842 -0.5639  0.5338
  968TIP3    H2 2869   0.108   4.353   1.760  1.4985  1.9324 -1.3803
  969TIP3   OH2 2870   5.251   5.172   4.692  0.0350  0.8188 -0.1133
  969TIP3    H1 2871   5.279   5.262   4.707  0.9079  0.4663  0.5008
  969TIP3    H2 2872   5.310   5.139   4.624  0.5551  0.3388  0.5556
  970TIP3   OH2 2873   1.443   4.820   0.636  0.2920  0.5623 -0.0440
  970TIP3    H1 2874   1.521   4.769   0.617  0.3370  0.1011  1.2903
  970TIP3    H2 2875   1.374   4.779   0.583  1.2867  2.2463 -2.8657
  971TIP3   OH2 2876   1.372   6.580   4.548 -0.3379  0.0654  0.2414
  971TIP3    H1 2877   1.440   6.519   4.578  0.7699 -0.0322 -2.2566
  971TIP3    H2 2878   1.358   6.557   4.456 -0.0366  3.4119 -0.7498
  972TIP3   OH2 2879   1.234   5.439   3.902 -0.1330  0.5060 -0.1968
  972TIP3    H1 2880   1.279   5.523   3.899 -0.5064  0.7580  0.7845
  972TIP3    H2 2881   1.143   5.459   3.878 -0.6888  0.7558  1.9373
  973TIP3   OH2 2882  -0.011   0.232   1.864 -0.3599 -0.0101  0.1439
  973TIP3    H1 2883   0.011   0.314   1.908  1.4832  1.4964 -3.2328
  973TIP3    H2 2884   0.057   0.171   1.891  0.0529  0.5178  0.3042
  974TIP3   OH2 2885   3.766   4.586   4.551  0.4952  0.0440 -0.0960
  974TIP3    H1 2886   3.771   4.608   4.645  0.0356  0.9123 -0.2628
  974TIP3    H2 2887   3.681   4.544   4.541  0.7118 -0.4051 -0.0557
  975TIP3   OH2 2888   1.076   6.500   5.819 -0.7037 -0.4444 -0.4656
  975TIP3    H1 2889   1.052   6.576   5.873 -1.0696  0.1464 -1.4235
  975TIP3    H2 2890   1.002   6.440   5.829 -0.8279 -0.2835 -0.4065
  976TIP3   OH2 2891   1.977   4.958   3.000 -0.0052  0.3255 -0.5676
  976TIP3    H1 2892   1.948   5.045   2.974  1.7750  1.3627  0.6461
  976TIP3    H2 2893   1.914   4.930   3.066 -0.9733  0.3817 -1.4491
  977TIP3   OH2 2894   0.090   3.791   5.608 -0.1514 -0.5731  0.1674
  977TIP3    H1 2895   0.181   3.805   5.583 -0.3995 -1.2566 -1.2012
  977TIP3    H2 2896   0.085   3.698   5.629 -0.6322 -0.6454 -0.2505
  978TIP3   OH2 2897   6.016   1.392   0.487  0.3832 -0.4671  0.2748
  978TIP3    H1 2898   5.929   1.376   0.452  0.1105 -0.7376  1.0564
  978TIP3    H2 2899   6.044   1.474   0.447 -0.9229  0.5283  1.2964
  979TIP3   OH2 2900   1.452   3.860   4.165 -0.0596 -0.0392  0.9210
  979TIP3    H1 2901   1.377   3.860   4.225 -1.1973  1.5228 -0.3800
  979TIP3    H2 2902   1.473   3.768   4.151 -2.3346 -0.5823  0.6828
  980TIP3   OH2 2903   0.689   2.582   4.371  0.5411  0.2410 -0.2257
  980TIP3    H1 2904   0.773   2.558   4.410  0.5328 -0.0273 -0.3713
  980TIP3    H2 2905   0.685   2.677   4.380  1.0309  0.2964 -0.5734
  981TIP3   OH2 2906   1.490   2.177   5.069  0.2999  0.3420 -0.2519
  981TIP3    H1 2907   1.490   2.236   5.144 -0.3420  2.0075 -1.5210
  981TIP3    H2 2908   1.461   2.093   5.105 -1.5578  1.4848  1.0824
  982TIP3   OH2 2909   1.679   4.329   0.685  0.7249  0.3120  0.0132
  982TIP3    H1 2910   1.613   4.346   0.617  0.5332  2.3108  0.6415
  982TIP3    H2 2911   1.637   4.265   0.743 -1.1007  2.2200  0.9155
  983TIP3   OH2 2912   5.804   5.900   0.525 -0.0589  0.7106  0.4370
  983TIP3    H1 2913   5.802   5.818   0.476  0.0682  1.6584 -1.2498
  983TIP3    H2 2914   5.715   5.911   0.558 -0.1809  0.0959  0.3247
  984TIP3   OH2 2915   2.526   1.779   4.552  0.2480 -0.4893 -0.1917
  984TIP3    H1 2916   2.537   1.866   4.591  2.2188 -0.1572 -1.3565
  984TIP3    H2 2917   2.590   1.776   4.481  1.8894 -3.6974  1.1933
  985TIP3   OH2 2918   6.005   1.809   2.240 -0.2900 -0.1755  0.4003
  985TIP3    H1 2919   5.929   1.752   2.224 -0.5828  0.4801 -0.6510
  985TIP3    H2 2920   6.079   1.760   2.204 -0.8789  1.0755 -2.7902
  986TIP3   OH2 2921   4.194   3.492   0.381 -0.1139 -0.0203 -0.4815
  986TIP3    H1 2922   4.210   3.527   0.293  1.3215 -0.2627 -0.3435
  986TIP3    H2 2923   4.191   3.397   0.368 -1.2124  0.0034 -0.4496
  987TIP3   OH2 2924   2.964   0.996   5.062 -0.3380 -0.0723 -0.1023
  987TIP3    H1 2925   2.874   1.024   5.049 -0.2074  0.3103 -0.2162
  987TIP3    H2 2926   2.976   0.997   5.158 -0.2154  0.6922 -0.1117
  988TIP3   OH2 2927   0.801   0.698   1.653  0.4652 -0.6880  0.6421
  988TIP3    H1 2928   0.722   0.749   1.673  1.5245  1.6906 -0.7400
  988TIP3    H2 2929   0.778   0.648   1.574  0.0217 -0.8094  0.8468
  989TIP3   OH2 2930   1.164   5.414   4.694  0.3214  0.6748 -0.3532
  989TIP3    H1 2931   1.196   5.324   4.705  0.8259  0.7505 -1.1601
  989TIP3    H2 2932   1.133   5.439   4.781  2.7023  0.6866  0.5509
  990TIP3   OH2 2933   2.287   2.853   4.851  0.4086 -0.1849  0.3675
  990TIP3    H1 2934   2.197   2.833   4.825 -0.0950  1.3719  0.8101
  990TIP3    H2 2935   2.329   2.885   4.771  1.0084 -2.1395 -0.1680
  991TIP3   OH2 2936   5.949   6.068   5.382  0.6564  0.5728 -0.2007
  991TIP3    H1 2937   5.854   6.057   5.388  0.6827  0.7867  0.8309
  991TIP3    H2 2938   5.981   6.042   5.468  1.7646 -1.4795 -1.1633
  992TIP3   OH2 2939   1.284   3.017   2.210 -0.0385 -0.4607 -0.1774
  992TIP3    H1 2940   1.207   3.068   2.235 -1.3658 -2.1198 -0.6475
  992TIP3    H2 2941   1.348   3.082   2.181 -0.6826  1.0779  1.6508
  993TIP3   OH2 2942   1.236   1.845   5.395 -0.3724 -0.1511 -0.1204
  993TIP3    H1 2943   1.327   1.839   5.424 -0.1898  0.1346 -0.6309
  993TIP3    H2 2944   1.238   1.822   5.302 -0.7556  0.2716 -0.2384
  994TIP3   OH2 2945   1.423   6.128   5.305 -0.0828  0.2085 -0.8802
  994TIP3    H1 2946   1.490   6.174   5.357 -1.4695 -0.6261  1.8201
  994TIP3    H2 2947   1.360   6.197   5.282 -0.5349  0.2494  0.4181
  995TIP3   OH2 2948   1.585   3.431   4.704 -0.2141 -0.2666  0.8000
  995TIP3    H1 2949   1.533   3.377   4.763 -2.4588  0.6425 -0.2164
  995TIP3    H2 2950   1.547   3.415   4.617  1.3053  0.3692 -0.0236
  996TIP3   OH2 2951   2.288   4.549   3.495  0.1043  0.1499  0.2090
  996TIP3    H1 2952   2.232   4.473   3.512  0.8625 -0.2519  0.9194
  996TIP3    H2 2953   2.349   4.552   3.568  0.2340  1.3170  0.0773
  997TIP3   OH2 2954   4.829   1.583   3.492  0.1746  0.0800  0.2042
  997TIP3    H1 2955   4.828   1.647   3.421 -1.2244  1.3839  1.3288
  997TIP3    H2 2956   4.779   1.508   3.458  1.4139 -0.2604 -0.9453
  998TIP3   OH2 2957   3.820   2.043   0.197 -0.2928  0.7872  0.2101
  998TIP3    H1 2958   3.843   1.963   0.150 -1.4991  0.1328  0.7092
  998TIP3    H2 2959   3.796   2.105   0.128 -0.5396  0.3298 -0.1174
  999TIP3   OH2 2960   6.947   2.571   2.071 -0.0576 -0.4899 -0.0466
  999TIP3    H1 2961   6.996   2.565   2.153 -1.8939 -1.7037  1.0025
  999TIP3    H2 2962   6.957   2.663   2.045  0.2961  0.0138  1.6977
 1000TIP3   OH2 2963   1.549   3.593   4.120  0.4192 -0.3720  0.3002
 1000TIP3    H1 2964   1.586   3.611   4.033  0.8308  0.2344  0.5953
 1000TIP3    H2 2965   1.615   3.626   4.181  0.6688 -1.8495  0.8670
 1001TIP3   OH2 2966   3.377   2.811   3.675  0.1930 -0.0360  0.1715
 1001TIP3    H1 2967   3.384   2.770   3.589 -1.0206  2.0759 -1.0331
 1001TIP3    H2 2968   3.464   2.848   3.692  0.1413  0.4904 -0.6852
 1002TIP3   OH2 2969   2.844   4.069   3.143  0.1175  0.5728 -0.2684
 1002TIP3    H1 2970   2.789   4.119   3.083 -1.7964  0.3552  1.2043
 1002TIP3    H2 2971   2.789   4.056   3.221  1.5388 -1.4497  0.4802
 1003TIP3   OH2 2972   6.231   5.936   5.765 -0.2962 -0.1444  0.0736
 1003TIP3    H1 2973   6.298   5.964   5.704 -0.9732  3.6583  0.8010
 1003TIP3    H2 2974   6.258   5.972   5.849 -2.6470  0.6324  0.5914
 1004TIP3   OH2 2975   3.747   3.614   1.566 -0.2721 -0.0827 -0.8095
 1004TIP3    H1 2976   3.811   3.656   1.508  1.4418  0.7698  1.5293
 1004TIP3    H2 2977   3.800   3.565   1.629 -2.0612 -1.3589 -0.1971
 1005TIP3   OH2 2978   6.891   6.240   5.299 -0.2968  0.0471 -0.4127
 1005TIP3    H1 2979   6.875   6.209   5.210  0.8368 -1.3796 -0.1567
 1005TIP3    H2 2980   6.976   6.282   5.296 -0.7945  1.1039 -0.2402
 1006TIP3   OH2 2981   0.523   0.462   5.351 -0.1684  0.4450  0.1369
 1006TIP3    H1 2982   0.561   0.436   5.268 -1.0371 -2.2925  0.4641
 1006TIP3    H2 2983   0.450   0.519   5.328  1.1274  1.8027 -0.7611
 1007TIP3   OH2 2984   1.939   1.146   5.587  0.4438 -0.4097  0.5197
 1007TIP3    H1 2985   1.981   1.060   5.593 -0.3178 -0.8577 -0.2645
 1007TIP3    H2 2986   1.996   1.205   5.636  0.2092 -1.6407  2.3649
 1008TIP3   OH2 2987   6.892   6.572   4.921 -0.3183  0.3685 -0.6075
 1008TIP3    H1 2988   6.827   6.521   4.969  1.1592 -1.7857 -0.7689
 1008TIP3    H2 2989   6.902   6.526   4.838  0.3558  1.5169 -1.1926
 1009TIP3   OH2 2990   5.727   1.938   4.877  0.1013 -0.1778  0.6639
 1009TIP3    H1 2991   5.669   1.879   4.829 -1.1506  2.1241 -0.8859
 1009TIP3    H2 2992   5.686   1.948   4.963 -2.0869  1.5261 -0.4521
 1010TIP3   OH2 2993   3.068   1.589   2.873  0.4185 -0.0229  0.4064
 1010TIP3    H1 2994   3.043   1.540   2.951  1.0562 -0.9524  0.0452
 1010TIP3    H2 2995   2.999   1.569   2.809  1.1398 -1.2306 -0.0395
 1011TIP3   OH2 2996   6.427   3.145   2.751 -0.0660  0.7751 -0.1279
 1011TIP3    H1 2997   6.370   3.117   2.680 -0.3277  0.1633  0.3165
 1011TIP3    H2 2998   6.514   3.150   2.712  0.0011 -0.6791 -0.2311
 1012TIP3   OH2 2999   6.635   1.185   5.516 -0.2647  0.1443 -0.1324
 1012TIP3    H1 3000   6.541   1.171   5.509 -0.8523  3.2042 -0.1001
 1012TIP3    H2 3001   6.647   1.274   5.483  2.4915  0.1772  0.7496
 1013TIP3   OH2 3002   0.578   4.519   5.048 -0.2391 -0.0341  1.0649
 1013TIP3    H1 3003   0.512   4.579   5.084 -0.4561  0.1365  0.3974
 1013TIP3    H2 3004   0.586   4.544   4.956  0.9891  0.1438  1.2020
 1014TIP3   OH2 3005   2.908   1.863   4.051  0.0384 -0.2135  0.7788
 1014TIP3    H1 3006   2.836   1.925   4.052  0.6658  0.5634 -0.4773
 1014TIP3    H2 3007   2.954   1.879   4.133 -0.3952  0.2626  0.9318
 1015TIP3   OH2 3008   2.792   1.269   2.874 -0.4119 -0.5707  0.2732
 1015TIP3    H1 3009   2.853   1.212   2.826  0.9749 -0.2908  1.6162
 1015TIP3    H2 3010   2.808   1.356   2.837 -0.4111 -0.5855  0.2380
 1016TIP3   OH2 3011   1.543   2.572   5.814 -0.1675  0.0044 -0.6904
 1016TIP3    H1 3012   1.540   2.508   5.885 -0.7166 -1.0950 -1.6665
 1016TIP3    H2 3013   1.493   2.531   5.743  1.7819  0.3006 -2.3290
 1017TIP3   OH2 3014   7.128   0.005   3.853 -0.8613 -0.1748  0.3461
 1017TIP3    H1 3015   7.085   0.077   3.807 -1.0241 -0.7295 -0.3963
 1017TIP3    H2 3016   7.159   0.043   3.935  0.5306  1.1966 -0.7406
 1018TIP3   OH2 3017   3.402   2.005   5.290  0.1470  0.2368  0.0543
 1018TIP3    H1 3018   3.471   1.972   5.348 -0.2242 -0.5897  0.0306
 1018TIP3    H2 3019   3.341   2.050   5.348 -0.1361 -0.4431  0.2888
 1019TIP3   OH2 3020   5.761   5.245   0.949 -0.3801 -0.4024 -0.2397
 1019TIP3    H1 3021   5.780   5.322   1.001  0.3940  0.3364 -1.5520
 1019TIP3    H2 3022   5.676   5.263   0.909  0.7016  0.7719 -2.1860
 1020TIP3   OH2 3023   5.019   0.670   5.720 -0.0338  0.4010 -0.0551
 1020TIP3    H1 3024   5.072   0.647   5.796 -0.3349  0.9950  0.3448
 1020TIP3    H2 3025   5.022   0.592   5.664 -1.5137 -0.8739  1.5281
 1021TIP3   OH2 3026   0.652   4.196   3.241 -0.6345 -0.6293 -0.4114
 1021TIP3    H1 3027   0.734   4.203   3.193 -0.2133  0.0336  0.3887
 1021TIP3    H2 3028   0.670   4.134   3.312  0.1445  1.8327  1.6550
 1022TIP3   OH2 3029   1.574   0.102   5.891 -0.3636  0.0413  0.2915
 1022TIP3    H1 3030   1.496   0.140   5.930 -1.0074 -1.3055  0.3676
 1022TIP3    H2 3031   1.548   0.078   5.802 -0.2814 -1.0664  0.5447
 1023TIP3   OH2 3032   2.592   5.409   4.293 -0.2758  0.1109  0.2587
 1023TIP3    H1 3033   2.573   5.444   4.380 -0.4657  0.5093  0.0571
 1023TIP3    H2 3034   2.583   5.314   4.303  1.8464 -0.0437  1.2118
 1024TIP3   OH2 3035   6.627   0.423   2.285 -0.6904 -0.1229 -0.7506
 1024TIP3    H1 3036   6.582   0.488   2.339 -0.9581 -0.2508 -0.8164
 1024TIP3    H2 3037   6.632   0.464   2.199  0.0816  0.2390 -0.5384
 1025TIP3   OH2 3038   0.946   2.550   4.515 -0.1392  0.6917  0.2919
 1025TIP3    H1 3039   1.004   2.625   4.505 -0.0552  0.5608 -0.2292
 1025TIP3    H2 3040   1.004   2.474   4.520 -0.2590  0.2191 -3.0943
 1026TIP3   OH2 3041   0.105   6.335   1.609 -0.2189 -0.8625  0.0958
 1026TIP3    H1 3042   0.073   6.253   1.646 -0.8678 -0.9220 -0.5632
 1026TIP3    H2 3043   0.152   6.309   1.530 -1.7803 -0.5180 -0.9949
 1027TIP3   OH2 3044   3.676   1.702   3.654 -0.0446 -0.4473  0.5990
 1027TIP3    H1 3045   3.742   1.667   3.594  0.3222 -0.8878  1.2492
 1027TIP3    H2 3046   3.711   1.787   3.680 -1.7878  1.3794 -2.4047
 1028TIP3   OH2 3047   5.512   0.616   2.738 -0.1810 -0.4566  0.0147
 1028TIP3    H1 3048   5.536   0.541   2.685  1.6313 -1.1095  1.6292
 1028TIP3    H2 3049   5.483   0.578   2.822  0.4925  0.6133  0.7542
 1029TIP3   OH2 3050   6.909   3.410   5.300  0.8891 -0.1889 -0.0543
 1029TIP3    H1 3051   6.991   3.432   5.344  1.2433  0.2103 -0.8908
 1029TIP3    H2 3052   6.893   3.319   5.322  2.4002 -0.7624 -1.1453
 1030TIP3   OH2 3053   6.561   2.342   3.127 -0.3016  0.2272 -0.5621
 1030TIP3    H1 3054   6.595   2.292   3.202  1.6230  1.6312 -0.4198
 1030TIP3    H2 3055   6.477   2.376   3.157 -0.8400 -1.4288 -0.0426
 1031TIP3   OH2 3056   6.294   5.700   1.612 -0.3586 -0.0557 -0.1723
 1031TIP3    H1 3057   6.366   5.685   1.673 -1.4581 -0.2412  1.1258
 1031TIP3    H2 3058   6.215   5.699   1.667 -1.2079  2.2683 -1.2142
 1032TIP3   OH2 3059   7.212   2.834   1.201 -0.1355 -0.0191  0.6197
 1032TIP3    H1 3060   7.186   2.799   1.116 -0.5021  0.7809  0.3959
 1032TIP3    H2 3061   7.146   2.801   1.262 -1.3806  1.5088  0.1548
 1033TIP3   OH2 3062   6.600   5.077   1.402 -0.2090 -0.7895 -0.2718
 1033TIP3    H1 3063   6.560   5.006   1.452  0.0271 -2.4366 -2.2595
 1033TIP3    H2 3064   6.665   5.033   1.347 -1.5715  0.5869 -3.2068
 1034TIP3   OH2 3065   0.163   3.577   2.162  0.0918  0.1684  0.1176
 1034TIP3    H1 3066   0.218   3.655   2.160 -0.4564  0.6090  1.0210
 1034TIP3    H2 3067   0.107   3.585   2.085  1.1663 -0.2041 -0.7173
 1035TIP3   OH2 3068   3.431   2.861   0.136 -0.4553 -0.1396  0.3041
 1035TIP3    H1 3069   3.515   2.820   0.157 -0.7158 -0.2102  1.2553
 1035TIP3    H2 3070   3.439   2.887   0.044  0.9676  0.7115  0.6328
 1036TIP3   OH2 3071   4.702   0.684   5.661 -0.4783 -0.0886  0.2475
 1036TIP3    H1 3072   4.772   0.705   5.599 -0.2904  1.0668  0.8352
 1036TIP3    H2 3073   4.727   0.728   5.742 -1.6642 -0.0234  0.5963
 1037TIP3   OH2 3074   3.218   2.811   1.578  0.1179 -0.3210 -0.6390
 1037TIP3    H1 3075   3.237   2.753   1.652 -1.0444  0.1473  0.0474
 1037TIP3    H2 3076   3.288   2.876   1.580 -0.4183  0.2592  0.6785
 1038TIP3   OH2 3077   1.230   2.439   5.039  0.4573 -0.3429 -0.3850
 1038TIP3    H1 3078   1.238   2.361   5.095 -0.6095 -0.1335  0.0670
 1038TIP3    H2 3079   1.292   2.501   5.077 -2.2081  0.8504  2.4041
 1039TIP3   OH2 3080   2.776   2.073   2.515  0.0922 -1.0730 -0.0645
 1039TIP3    H1 3081   2.773   1.993   2.462  0.8778 -0.2696 -1.3562
 1039TIP3    H2 3082   2.686   2.082   2.548 -0.0965 -2.2757 -0.1826
 1040TIP3   OH2 3083   3.829   6.558   4.886 -0.0871  0.6058  0.3103
 1040TIP3    H1 3084   3.868   6.645   4.899  2.5377 -0.2019 -1.3572
 1040TIP3    H2 3085   3.822   6.549   4.790 -0.2057 -1.0543  0.4503
 1041TIP3   OH2 3086   0.988   1.559   5.157 -0.2474  0.4043 -0.9111
 1041TIP3    H1 3087   0.936   1.637   5.143 -0.8247  0.2628  0.2962
 1041TIP3    H2 3088   1.001   1.555   5.252  0.6544 -0.4039 -1.0445
 1042TIP3   OH2 3089   0.048   5.539   4.983 -0.4253 -0.4054 -0.5165
 1042TIP3    H1 3090   0.020   5.459   5.028  1.3131  0.7277  2.8794
 1042TIP3    H2 3091  -0.013   5.606   5.013  0.5433  0.3175 -0.1239
 1043TIP3   OH2 3092   2.403   4.042   0.903  0.1129  0.0670 -0.2087
 1043TIP3    H1 3093   2.330   4.063   0.844  1.0654  1.2498 -1.0018
 1043TIP3    H2 3094   2.441   4.126   0.926  1.6602 -0.5601 -0.3577
 1044TIP3   OH2 3095   2.776   4.757   2.761  0.0111 -0.5461 -0.7335
 1044TIP3    H1 3096   2.752   4.676   2.716  1.2366 -1.1566 -0.3298
 1044TIP3    H2 3097   2.712   4.766   2.831 -0.2449 -1.0682 -0.8979
 1045TIP3   OH2 3098   4.171   3.641   4.886  0.6398 -0.2511  0.1929
 1045TIP3    H1 3099   4.225   3.608   4.957 -0.2043 -0.4354  0.7637
 1045TIP3    H2 3100   4.157   3.565   4.829 -0.9834 -0.8540  1.3074
 1046TIP3   OH2 3101   5.319   2.171   0.467 -0.0666  0.4346 -0.2320
 1046TIP3    H1 3102   5.393   2.213   0.425  1.3497  1.8380  3.2738
 1046TIP3    H2 3103   5.264   2.244   0.498 -2.9184 -0.5502 -2.4679
 1047TIP3   OH2 3104   5.203   0.260   2.038 -0.0606  0.5075 -0.0019
 1047TIP3    H1 3105   5.147   0.198   1.992 -0.3442 -0.4699  1.5755
 1047TIP3    H2 3106   5.181   0.345   1.999 -0.4878 -0.2160 -1.4257
 1048TIP3   OH2 3107   1.408   1.055   4.055 -0.2902 -0.4575  0.8559
 1048TIP3    H1 3108   1.369   0.971   4.080  1.4660 -1.4333  0.5397
 1048TIP3    H2 3109   1.413   1.052   3.960 -1.2067  0.5020  0.7615
 1049TIP3   OH2 3110   5.260   0.806   5.500  0.0882  0.3061  0.1701
 1049TIP3    H1 3111   5.316   0.732   5.475 -0.0429 -0.0478  0.8939
 1049TIP3    H2 3112   5.193   0.810   5.432  0.4861  0.1828 -0.2343
 1050TIP3   OH2 3113   4.743   0.457   5.800  0.1095  0.1850 -0.3946
 1050TIP3    H1 3114   4.664   0.414   5.832  0.5311 -0.3979 -0.1263
 1050TIP3    H2 3115   4.714   0.544   5.773 -0.5132  0.1775  0.2353
 1051TIP3   OH2 3116   7.188   2.250   0.767 -0.1689  0.5882  0.3596
 1051TIP3    H1 3117   7.210   2.266   0.675 -0.3738 -2.1555 -0.2435
 1051TIP3    H2 3118   7.127   2.321   0.789 -1.6096  0.2712 -2.2164
 1052TIP3   OH2 3119   0.740   3.292   0.746  0.3022 -0.6021 -0.0128
 1052TIP3    H1 3120   0.817   3.348   0.752 -1.3867  1.8112  1.5983
 1052TIP3    H2 3121   0.699   3.317   0.663  1.3466 -2.1125 -1.0225
 1053TIP3   OH2 3122   4.496   5.006   0.614  0.1861  0.0999  0.3343
 1053TIP3    H1 3123   4.585   4.970   0.616  1.2743  2.5969  0.3677
 1053TIP3    H2 3124   4.477   5.017   0.521 -0.5155 -1.2917  0.2846
 1054TIP3   OH2 3125   1.348   5.769   0.702 -0.4879 -0.1367  0.0495
 1054TIP3    H1 3126   1.387   5.691   0.741 -0.1952  0.0750  0.1855
 1054TIP3    H2 3127   1.422   5.817   0.665 -0.5651  0.4767  0.6701
 1055TIP3   OH2 3128   3.782   2.535   2.301  0.2145  0.3291 -0.7876
 1055TIP3    H1 3129   3.721   2.472   2.339  0.5216  0.4570 -0.0768
 1055TIP3    H2 3130   3.862   2.526   2.353  0.2934  1.2393 -0.7346
 1056TIP3   OH2 3131   3.058   2.438   3.703 -0.0035  0.8951 -0.2602
 1056TIP3    H1 3132   3.039   2.346   3.689 -0.3082  1.0052 -0.5968
 1056TIP3    H2 3133   3.148   2.440   3.738 -0.1224  0.4562  0.0669
 1057TIP3   OH2 3134   3.092   2.999   3.620 -0.1215  0.2111 -0.8898
 1057TIP3    H1 3135   3.098   2.909   3.651 -1.1569  0.4058 -0.0707
 1057TIP3    H2 3136   3.017   2.999   3.561  1.9734 -0.2201 -3.8030
 1058TIP3   OH2 3137   2.893   0.954   2.738  0.0841 -0.5055 -0.1012
 1058TIP3    H1 3138   2.808   0.963   2.695  0.6593  0.8268 -1.0283
 1058TIP3    H2 3139   2.949   0.916   2.671  0.4333 -0.5969  0.2405
 1059TIP3   OH2 3140   0.612   5.860   3.411 -0.1922  0.0337 -0.2325
 1059TIP3    H1 3141   0.566   5.896   3.487  0.5976 -0.4304  0.4899
 1059TIP3    H2 3142   0.700   5.898   3.417 -0.7970  2.0378 -2.3813
 1060TIP3   OH2 3143   2.938   3.030   3.900  0.0763 -0.1449 -0.0784
 1060TIP3    H1 3144   2.874   3.098   3.921  0.4823  0.4337 -0.6633
 1060TIP3    H2 3145   2.925   3.014   3.806 -1.7261 -2.6862  0.4994
 1061TIP3   OH2 3146   5.974   6.403   1.930 -0.5718  0.0010 -0.1347
 1061TIP3    H1 3147   5.931   6.398   2.016  1.1697 -1.5740  0.7304
 1061TIP3    H2 3148   5.973   6.313   1.897  0.4975  0.2344 -0.8580
 1062TIP3   OH2 3149   0.112   3.210   0.212 -0.2378  0.2625 -0.5778
 1062TIP3    H1 3150   0.063   3.273   0.159  1.7135  1.2612 -1.2846
 1062TIP3    H2 3151   0.064   3.128   0.201 -2.2177  1.3423 -0.5150
 1063TIP3   OH2 3152   3.388   0.435   2.396 -0.0665 -0.3796  0.3244
 1063TIP3    H1 3153   3.453   0.493   2.435  1.3178 -1.3409 -0.5050
 1063TIP3    H2 3154   3.430   0.350   2.393 -2.4282 -1.7721  2.4705
 1064TIP3   OH2 3155   4.943   5.203   2.932 -0.3862 -1.0196  0.1757
 1064TIP3    H1 3156   4.938   5.109   2.949 -0.7580 -0.9646  0.3872
 1064TIP3    H2 3157   5.013   5.233   2.991 -0.2692 -1.1607  0.1113
 1065TIP3   OH2 3158   4.919   4.933   1.747  0.1533 -0.4587  0.4801
 1065TIP3    H1 3159   4.961   4.885   1.675 -2.2227  0.2331 -1.5222
 1065TIP3    H2 3160   4.976   5.008   1.762  1.2263 -1.1520  0.0751
 1066TIP3   OH2 3161   5.643   3.524   1.232 -0.0331 -0.3454 -0.1006
 1066TIP3    H1 3162   5.674   3.614   1.235 -0.7513 -0.0788 -0.6061
 1066TIP3    H2 3163   5.597   3.516   1.149  1.2222 -1.5883 -0.7173
 1067TIP3   OH2 3164   5.418   0.399   2.401 -0.1166  0.0612 -0.2235
 1067TIP3    H1 3165   5.402   0.451   2.480 -0.7498  0.8487 -0.8563
 1067TIP3    H2 3166   5.330   0.371   2.373  0.1209 -0.3373 -0.5736
 1068TIP3   OH2 3167   6.917   2.922   5.572  0.2106  0.0156 -0.0002
 1068TIP3    H1 3168   6.888   2.989   5.509  1.5448  1.5564  0.9543
 1068TIP3    H2 3169   6.895   2.839   5.530 -3.2873  0.9743 -0.4437
 1069TIP3   OH2 3170   3.271   1.977   0.330  0.0069  0.0997  0.0903
 1069TIP3    H1 3171   3.292   1.984   0.237  1.9499 -0.6647  0.4147
 1069TIP3    H2 3172   3.222   1.895   0.337 -1.3362  0.8252 -0.4002
 1070TIP3   OH2 3173   4.718   4.535   2.303  0.4780  0.1687  0.4097
 1070TIP3    H1 3174   4.714   4.622   2.263  0.4242  0.4416  1.0018
 1070TIP3    H2 3175   4.759   4.549   2.388  0.5814 -0.4074  0.4583
 1071TIP3   OH2 3176   4.678   1.594   3.175  0.0665  0.3361  0.2122
 1071TIP3    H1 3177   4.760   1.644   3.178  0.2654  0.0682 -0.6544
 1071TIP3    H2 3178   4.696   1.515   3.227 -0.3645  1.2891  1.8970
 1072TIP3   OH2 3179   6.949   4.008   5.157 -0.4527  0.3427 -0.3217
 1072TIP3    H1 3180   6.904   4.078   5.204  0.4747  0.3321  0.6379
 1072TIP3    H2 3181   7.005   4.054   5.094 -1.0415  0.3904 -0.8198
 1073TIP3   OH2 3182   0.951   0.905   0.086 -0.2242 -0.1941  0.1231
 1073TIP3    H1 3183   0.986   0.935   0.003  1.2878 -1.5293  0.2275
 1073TIP3    H2 3184   0.856   0.913   0.077 -0.0373  0.6790 -1.3155
 1074TIP3   OH2 3185   2.690   6.024   1.283  0.2436  0.0983 -0.1221
 1074TIP3    H1 3186   2.641   6.090   1.233 -2.6572 -1.5561  0.2890
 1074TIP3    H2 3187   2.663   6.037   1.373  0.1886 -1.1670  0.0587
 1075TIP3   OH2 3188   0.646   5.659   4.811 -0.4909 -0.3567 -0.1934
 1075TIP3    H1 3189   0.624   5.609   4.733 -0.2530 -0.6358 -0.0861
 1075TIP3    H2 3190   0.729   5.622   4.841 -0.8342 -0.5985  0.4802
 1076TIP3   OH2 3191   1.559   1.252   5.518 -0.2111  0.0713  0.7064
 1076TIP3    H1 3192   1.623   1.184   5.540  0.1989  0.5794  1.1140
 1076TIP3    H2 3193   1.564   1.313   5.591 -0.3030  0.7312  0.1624
 1077TIP3   OH2 3194   4.309   6.578   4.801 -0.0668  0.1007 -0.2629
 1077TIP3    H1 3195   4.309   6.671   4.824  0.9083  0.0567 -0.0370
 1077TIP3    H2 3196   4.397   6.548   4.824  0.6571 -0.2113 -3.0683
 1078TIP3   OH2 3197   6.482   0.890   4.089 -0.3543  0.3513  0.1826
 1078TIP3    H1 3198   6.516   0.831   4.156  0.1199  1.9694  1.4345
 1078TIP3    H2 3199   6.490   0.840   4.007  1.1103 -0.8864  1.0193
 1079TIP3   OH2 3200   6.690   0.558   5.414  0.0540 -0.1336  0.0742
 1079TIP3    H1 3201   6.744   0.481   5.393 -2.0509 -2.2518  1.8244
 1079TIP3    H2 3202   6.726   0.590   5.497  1.3104  1.2259 -0.9521
 1080TIP3   OH2 3203   6.319   3.334   2.950 -0.6125  0.2402  0.5343
 1080TIP3    H1 3204   6.367   3.412   2.975 -0.3573  0.4947 -0.6689
 1080TIP3    H2 3205   6.378   3.287   2.891 -0.0622 -1.7509  2.5326
 1081TIP3   OH2 3206   4.483   3.877   5.884 -0.2302  0.0024  0.2801
 1081TIP3    H1 3207   4.503   3.788   5.854 -0.3164  0.4441 -1.1906
 1081TIP3    H2 3208   4.565   3.925   5.873  0.6720 -0.4792  3.7392
 1082TIP3   OH2 3209   6.470   4.655   4.578 -0.5322  0.0119  0.2300
 1082TIP3    H1 3210   6.502   4.567   4.596 -0.9969  0.0584  1.3872
 1082TIP3    H2 3211   6.548   4.710   4.578 -0.2548 -0.3699 -0.3768
 1083TIP3   OH2 3212   3.322   1.770   4.511  0.3926 -0.4023 -0.0397
 1083TIP3    H1 3213   3.243   1.800   4.555  0.0997 -1.3413  0.0940
 1083TIP3    H2 3214   3.317   1.808   4.423 -0.8326 -1.4322 -0.4499
 1084TIP3   OH2 3215   3.408   4.141   2.132  0.4021  0.1868 -0.8719
 1084TIP3    H1 3216   3.346   4.118   2.201  0.3128 -1.6767 -1.5037
 1084TIP3    H2 3217   3.469   4.067   2.129  0.1698  0.0068 -3.0122
 1085TIP3   OH2 3218   4.137   1.801   4.266  0.1313 -0.4241  0.0423
 1085TIP3    H1 3219   4.167   1.832   4.351 -0.4582 -0.2904  0.2043
 1085TIP3    H2 3220   4.048   1.770   4.281  0.1500 -0.7367 -0.4507
 1086TIP3   OH2 3221   6.718   2.533   3.744 -0.2373 -0.6991  0.0870
 1086TIP3    H1 3222   6.777   2.540   3.820  0.2733 -1.6434 -0.2019
 1086TIP3    H2 3223   6.647   2.476   3.774  0.4186 -1.7969 -0.3963
 1087TIP3   OH2 3224   5.828   5.395   3.148  0.0028 -0.3879 -0.3113
 1087TIP3    H1 3225   5.919   5.423   3.148 -0.1498  0.1252 -0.0867
 1087TIP3    H2 3226   5.784   5.456   3.207 -0.5156 -0.5266 -0.5446
 1088TIP3   OH2 3227   3.302   5.759   4.688 -0.3032 -0.5448  0.7774
 1088TIP3    H1 3228   3.214   5.757   4.650  0.4149  0.9741 -1.1834
 1088TIP3    H2 3229   3.345   5.681   4.653  0.0135  0.2836 -0.7982
 1089TIP3   OH2 3230   0.720   2.496   0.075 -0.3569 -0.0177 -0.0654
 1089TIP3    H1 3231   0.815   2.484   0.080 -0.4327 -0.3811  0.6173
 1089TIP3    H2 3232   0.696   2.535   0.159 -0.9565 -1.0092  0.2473
 1090TIP3   OH2 3233   2.409   2.492   0.488  0.3340 -0.1662  0.0275
 1090TIP3    H1 3234   2.478   2.534   0.437  0.7610 -0.0243  0.7145
 1090TIP3    H2 3235   2.374   2.561   0.544 -1.7279  0.2912 -1.6621
 1091TIP3   OH2 3236   6.573   2.754   3.458 -0.2540 -0.5166  0.5280
 1091TIP3    H1 3237   6.521   2.832   3.438  0.9069  0.6951  2.0141
 1091TIP3    H2 3238   6.511   2.694   3.499 -0.8153  0.2839  0.8761
 1092TIP3   OH2 3239   3.858   5.144   3.120 -0.5282  0.8692 -0.1579
 1092TIP3    H1 3240   3.836   5.136   3.212  1.3716 -0.4771  0.2427
 1092TIP3    H2 3241   3.946   5.180   3.119  0.2520 -0.8883 -1.3137
 1093TIP3   OH2 3242   2.875   1.494   0.991  0.0312  0.4930 -0.5872
 1093TIP3    H1 3243   2.831   1.412   0.971  1.3496  0.1088 -2.1689
 1093TIP3    H2 3244   2.928   1.474   1.069  0.0556 -0.0501 -0.7391
 1094TIP3   OH2 3245   5.595   5.051   2.866 -0.0358 -0.3007 -0.4198
 1094TIP3    H1 3246   5.688   5.072   2.874 -0.0773 -0.6593  1.3961
 1094TIP3    H2 3247   5.556   5.082   2.947 -1.2433 -1.4879 -0.5095
 1095TIP3   OH2 3248   4.661   2.173   1.595  0.0714 -0.0131 -0.3059
 1095TIP3    H1 3249   4.622   2.092   1.628 -2.8766  1.1702 -0.5922
 1095TIP3    H2 3250   4.686   2.152   1.505 -3.4299  0.0461 -1.4478
 1096TIP3   OH2 3251   2.927   2.964   1.656 -0.4064  0.6872 -0.4863
 1096TIP3    H1 3252   3.023   2.964   1.664  0.0029 -2.4130 -3.1924
 1096TIP3    H2 3253   2.900   2.878   1.687 -1.9864  0.5750 -2.0154
 1097TIP3   OH2 3254   3.743   5.740   2.673  0.0947  0.3566 -0.1870
 1097TIP3    H1 3255   3.679   5.789   2.622  0.5134  1.9164  0.7309
 1097TIP3    H2 3256   3.691   5.672   2.718 -0.4774 -0.1022 -1.5034
 1098TIP3   OH2 3257   1.347   2.403   1.373 -0.1252 -0.6378  0.1526
 1098TIP3    H1 3258   1.339   2.474   1.436 -0.8316  0.6465 -1.3102
 1098TIP3    H2 3259   1.431   2.362   1.393 -0.1054  0.0346  1.5865
 1099TIP3   OH2 3260   0.345   2.979   4.534  0.2371 -0.2381 -0.3032
 1099TIP3    H1 3261   0.343   3.065   4.491  0.1688 -0.5405 -0.9282
 1099TIP3    H2 3262   0.325   2.996   4.625  1.2141  0.5358 -0.2122
 1100TIP3   OH2 3263   2.847   6.023   4.515  0.4004  0.6697 -0.0051
 1100TIP3    H1 3264   2.926   5.982   4.479 -0.7894  0.8045 -3.1178
 1100TIP3    H2 3265   2.834   6.101   4.461 -1.1615  1.3770  1.3070
 1101TIP3   OH2 3266   4.700   5.779   2.352 -0.3264 -0.2988 -0.2505
 1101TIP3    H1 3267   4.686   5.775   2.446 -1.3224 -1.3269 -0.4166
 1101TIP3    H2 3268   4.612   5.788   2.315  0.1422  1.4643 -1.0479
 1102TIP3   OH2 3269   3.347   0.325   4.300 -0.0235  0.1602  0.0119
 1102TIP3    H1 3270   3.441   0.344   4.294 -0.4567  2.3361 -0.6795
 1102TIP3    H2 3271   3.342   0.243   4.350  2.2281 -0.0030  0.0539
 1103TIP3   OH2 3272   1.040   4.579   4.454 -0.0471  0.1185  0.3500
 1103TIP3    H1 3273   1.112   4.529   4.417  1.3074  0.6222  2.1335
 1103TIP3    H2 3274   0.986   4.604   4.379  0.5794 -1.8780 -0.8269
 1104TIP3   OH2 3275   6.199   1.843   2.917 -0.0838  0.5409 -0.7588
 1104TIP3    H1 3276   6.280   1.854   2.966 -0.9690 -0.2810  0.9666
 1104TIP3    H2 3277   6.133   1.891   2.968 -1.5788 -2.5284  0.4603
 1105TIP3   OH2 3278   4.996   5.741   0.379 -0.0321  0.0989  0.9354
 1105TIP3    H1 3279   5.011   5.784   0.295  0.1325  0.1782  1.0047
 1105TIP3    H2 3280   4.982   5.813   0.441 -2.3992  0.0365  0.5870
 1106TIP3   OH2 3281   1.212   2.297   2.456  0.1337 -0.4070  0.6648
 1106TIP3    H1 3282   1.276   2.252   2.401 -0.7082 -0.5738 -0.1945
 1106TIP3    H2 3283   1.232   2.266   2.545  3.6646  2.3548  1.0603
 1107TIP3   OH2 3284   1.158   4.759   4.961 -0.0931 -0.0608  0.4013
 1107TIP3    H1 3285   1.066   4.734   4.968 -0.0471 -0.4505 -0.2928
 1107TIP3    H2 3286   1.185   4.776   5.052 -0.0071 -3.0584  1.0432
 1108TIP3   OH2 3287   3.999   4.001   3.939 -0.7065  0.2798 -0.6558
 1108TIP3    H1 3288   4.052   3.980   4.016 -1.8398 -2.8959 -0.6162
 1108TIP3    H2 3289   4.064   4.017   3.870  0.4412 -2.4397 -0.3470
 1109TIP3   OH2 3290   3.493   5.138   2.353  0.1421  0.4130 -0.3098
 1109TIP3    H1 3291   3.425   5.193   2.315  0.1336  0.2538 -0.5274
 1109TIP3    H2 3292   3.470   5.049   2.324  1.2514  0.5127 -1.5848
 1110TIP3   OH2 3293   6.445   1.147   4.576  0.1316 -0.2853 -0.1426
 1110TIP3    H1 3294   6.439   1.062   4.532 -1.2179 -0.2061 -0.1418
 1110TIP3    H2 3295   6.361   1.156   4.621  0.9201  0.2890  1.2673
 1111TIP3   OH2 3296   6.466   4.696   0.334 -0.0760  0.5910  0.2459
 1111TIP3    H1 3297   6.451   4.704   0.240  2.6753 -2.5895 -0.6636
 1111TIP3    H2 3298   6.426   4.612   0.358  0.9163  0.4226  1.4262
 1112TIP3   OH2 3299   5.096   4.486   2.380 -0.2779 -0.2446 -0.0175
 1112TIP3    H1 3300   5.045   4.454   2.305 -1.6099  2.8758 -0.6013
 1112TIP3    H2 3301   5.030   4.501   2.448  0.6007 -0.7960  0.9787
 1113TIP3   OH2 3302   1.800   5.201   5.561  0.4923 -0.7453 -0.6521
 1113TIP3    H1 3303   1.776   5.289   5.592  2.3357 -0.1263 -0.8839
 1113TIP3    H2 3304   1.768   5.143   5.630 -2.5963 -0.1486 -1.4387
 1114TIP3   OH2 3305   6.802   3.605   3.990  0.6227  0.4716 -0.4079
 1114TIP3    H1 3306   6.710   3.583   3.976 -0.6524  4.0317  1.1872
 1114TIP3    H2 3307   6.839   3.526   4.029 -2.1019 -0.6922  0.1007
 1115TIP3   OH2 3308   1.797   1.790   3.449  0.5981  0.5343 -0.2016
 1115TIP3    H1 3309   1.740   1.830   3.384 -1.6583 -1.7030  0.2431
 1115TIP3    H2 3310   1.858   1.736   3.398 -0.7084 -0.6651 -0.5339
 1116TIP3   OH2 3311   3.023   3.245   2.560  0.1445  0.0580  0.0972
 1116TIP3    H1 3312   3.027   3.157   2.596  1.5260 -0.7560 -1.8726
 1116TIP3    H2 3313   3.093   3.293   2.605  3.2602 -1.5139 -2.5892
 1117TIP3   OH2 3314   0.924   6.517   0.996  0.3264  0.0543  0.4815
 1117TIP3    H1 3315   0.950   6.603   0.964 -1.0293 -0.0588 -1.0669
 1117TIP3    H2 3316   0.972   6.456   0.939  0.8911 -0.2168  1.2391
 1118TIP3   OH2 3317   2.539   5.246   3.820  0.5143 -0.6716  0.0932
 1118TIP3    H1 3318   2.446   5.241   3.840  0.3203 -0.1552 -0.6658
 1118TIP3    H2 3319   2.573   5.314   3.879  0.1630  0.0454 -0.5259
 1119TIP3   OH2 3320   6.539   6.013   4.396  0.1514 -0.2001  0.1429
 1119TIP3    H1 3321   6.611   5.967   4.437  1.1936  2.1770  1.2015
 1119TIP3    H2 3322   6.523   6.088   4.453 -2.8423 -0.3383 -0.3321
 1120TIP3   OH2 3323   3.659   6.767   1.756  0.1354  0.5725  0.5566
 1120TIP3    H1 3324   3.732   6.816   1.795  0.0056 -0.1039  1.7064
 1120TIP3    H2 3325   3.679   6.675   1.776 -0.4120  0.2842 -0.1922
 1121TIP3   OH2 3326   4.059   4.807   2.556 -0.2647 -0.3410  0.2092
 1121TIP3    H1 3327   4.083   4.779   2.645 -0.7560 -0.3811  0.3312
 1121TIP3    H2 3328   4.056   4.726   2.506  1.6840 -0.1698 -0.2671
 1122TIP3   OH2 3329   3.822   3.453   5.846  0.6683 -0.0903  0.0486
 1122TIP3    H1 3330   3.758   3.457   5.916  0.0174  0.1340 -0.5544
 1122TIP3    H2 3331   3.849   3.361   5.843  1.2892  0.0420  1.1030
 1123TIP3   OH2 3332   2.338   4.961   4.884 -0.4633  0.0118 -0.1590
 1123TIP3    H1 3333   2.417   5.014   4.871 -0.1252  0.3225  2.5405
 1123TIP3    H2 3334   2.284   5.014   4.944 -1.7041 -1.2021 -0.1595
 1124TIP3   OH2 3335   2.332   3.877   3.204  0.0912  0.0370  0.5716
 1124TIP3    H1 3336   2.378   3.850   3.124  0.5514 -1.1458  1.2242
 1124TIP3    H2 3337   2.338   3.802   3.262 -1.9910  0.1327  0.9855
 1125TIP3   OH2 3338   6.388   1.049   3.786  0.0818 -0.4575  0.2341
 1125TIP3    H1 3339   6.308   1.059   3.838 -0.5031  0.5424 -0.8143
 1125TIP3    H2 3340   6.420   1.138   3.775  1.3335 -0.8427  0.5848
 1126TIP3   OH2 3341   5.903   6.510   0.670  0.0081 -0.2232  0.3620
 1126TIP3    H1 3342   5.918   6.475   0.582 -0.6057 -0.9735  0.5454
 1126TIP3    H2 3343   5.848   6.444   0.713 -1.4926  1.1116  0.6038
 1127TIP3   OH2 3344   3.204   0.675   2.834  0.1438 -0.0501  0.5725
 1127TIP3    H1 3345   3.187   0.655   2.926  1.5543  0.1077  0.8947
 1127TIP3    H2 3346   3.203   0.771   2.830 -0.5488 -0.0628  0.2796
 1128TIP3   OH2 3347   0.338   3.937   1.965 -0.1255  0.4070  0.3044
 1128TIP3    H1 3348   0.382   4.015   1.997 -0.7510  0.9180 -0.0575
 1128TIP3    H2 3349   0.252   3.968   1.937 -0.2187 -0.3306 -0.2465
 1129TIP3   OH2 3350   5.891   5.458   5.560  0.4142  0.3096 -0.2699
 1129TIP3    H1 3351   5.804   5.461   5.521  0.3353 -1.8169 -0.3576
 1129TIP3    H2 3352   5.948   5.425   5.491  0.9552  0.0149  0.3049
 1130TIP3   OH2 3353   1.512   0.377   5.641  0.1569  0.5434  0.3422
 1130TIP3    H1 3354   1.501   0.323   5.719  0.3353  0.3169  0.2065
 1130TIP3    H2 3355   1.581   0.439   5.664  0.4010  0.3006  0.2672
 1131TIP3   OH2 3356   1.286   3.870   3.875  0.0794  0.1090  0.0568
 1131TIP3    H1 3357   1.197   3.847   3.851 -0.1432  0.3146  0.6732
 1131TIP3    H2 3358   1.278   3.953   3.923  0.5322 -0.1756  0.6396
 1132TIP3   OH2 3359   6.895   4.922   3.041 -0.2294  0.1639  0.3374
 1132TIP3    H1 3360   6.880   4.885   2.954 -0.2704 -0.7273  0.7067
 1132TIP3    H2 3361   6.920   5.013   3.025  3.5517 -0.9023 -0.8870
 1133TIP3   OH2 3362   3.013   1.131   1.315  0.1173  0.1390  0.3890
 1133TIP3    H1 3363   3.069   1.161   1.386 -1.2118  2.0160  0.7163
 1133TIP3    H2 3364   2.965   1.057   1.352 -1.7457  2.0690  2.1283
 1134TIP3   OH2 3365   6.425   0.256   3.999 -0.3371  0.0476  0.2740
 1134TIP3    H1 3366   6.501   0.215   4.039  1.1089  0.6793 -1.6457
 1134TIP3    H2 3367   6.366   0.183   3.979  0.0458 -0.5273  1.1919
 1135TIP3   OH2 3368   6.781   4.483   2.087 -0.3922 -0.2893 -0.0999
 1135TIP3    H1 3369   6.800   4.408   2.030 -0.3618 -1.6005  1.5793
 1135TIP3    H2 3370   6.823   4.461   2.170 -3.0501  0.0920  1.4410
 1136TIP3   OH2 3371   4.059   4.283   1.823  0.1393  0.0633  0.4348
 1136TIP3    H1 3372   3.982   4.226   1.814 -0.2182  0.0476  2.9835
 1136TIP3    H2 3373   4.126   4.228   1.863  2.0504 -0.2906 -2.8885
 1137TIP3   OH2 3374   2.830   6.271   5.532 -0.4688  0.0721  0.5362
 1137TIP3    H1 3375   2.743   6.252   5.569 -1.8928  1.9547 -1.5748
 1137TIP3    H2 3376   2.857   6.352   5.575 -0.9546  0.8503 -0.5702
 1138TIP3   OH2 3377   1.954   3.653   1.052 -0.1703  0.0474  0.4854
 1138TIP3    H1 3378   1.905   3.695   1.123  0.9571  0.8600  0.8148
 1138TIP3    H2 3379   1.970   3.564   1.083 -1.1479 -0.1222  0.5108
 1139TIP3   OH2 3380   2.413   0.056   0.635  0.3885  0.1897 -0.4596
 1139TIP3    H1 3381   2.372   0.071   0.720  1.5566  1.5107 -0.0908
 1139TIP3    H2 3382   2.398  -0.037   0.616 -0.0061 -0.0821  1.1092
 1140TIP3   OH2 3383   3.458   1.016   5.259  0.4667  0.6626 -0.1641
 1140TIP3    H1 3384   3.367   1.042   5.273  0.3572  1.6484 -2.2308
 1140TIP3    H2 3385   3.487   1.069   5.184  2.6370  0.1149  0.2004
 1141TIP3   OH2 3386   0.799   1.214   1.826  0.1209 -0.4288 -0.0892
 1141TIP3    H1 3387   0.789   1.124   1.797  2.6690 -0.8311  0.1180
 1141TIP3    H2 3388   0.766   1.213   1.916  0.5100 -1.2581  0.0546
 1142TIP3   OH2 3389   6.157   0.494   2.690  0.2306 -0.3992 -0.9274
 1142TIP3    H1 3390   6.235   0.439   2.697  0.0938 -0.6829 -1.5991
 1142TIP3    H2 3391   6.121   0.496   2.779  2.3623  1.7624  0.0031
 1143TIP3   OH2 3392   7.011   4.359   4.775 -0.0755  0.1866 -0.0962
 1143TIP3    H1 3393   6.983   4.323   4.691  1.7369  0.2842 -0.8072
 1143TIP3    H2 3394   7.073   4.428   4.750  0.0778  0.5807  1.3266
 1144TIP3   OH2 3395   3.512   2.188   1.427  0.1623  0.0010  0.0060
 1144TIP3    H1 3396   3.529   2.276   1.393 -0.3203 -0.0513 -0.3860
 1144TIP3    H2 3397   3.595   2.160   1.466  0.1387  0.8776  0.6954
 1145TIP3   OH2 3398   4.868   3.341   3.607  0.0515  0.0737  0.0303
 1145TIP3    H1 3399   4.912   3.416   3.649 -2.7460  1.0582  1.4243
 1145TIP3    H2 3400   4.835   3.377   3.525 -2.8291  1.0306  1.4844
 1146TIP3   OH2 3401   0.068   6.405   1.275  0.4486  0.3008 -0.4288
 1146TIP3    H1 3402   0.089   6.445   1.191  1.0791 -0.3196 -0.5773
 1146TIP3    H2 3403   0.152   6.372   1.307  0.1705  0.3060  0.3235
 1147TIP3   OH2 3404   6.675   4.242   4.827  0.0222  0.0908 -0.2263
 1147TIP3    H1 3405   6.751   4.259   4.882  0.0597  0.6395 -0.4463
 1147TIP3    H2 3406   6.605   4.293   4.866 -0.1329 -0.0918 -0.2641
 1148TIP3   OH2 3407   4.688   0.120   1.603  0.2127  0.2803  0.3014
 1148TIP3    H1 3408   4.642   0.060   1.543 -0.5181  0.5576  0.5735
 1148TIP3    H2 3409   4.769   0.142   1.557  1.2159 -2.0683  0.8138
 1149TIP3   OH2 3410   5.181   2.972   0.269  0.1581  0.6781  0.4267
 1149TIP3    H1 3411   5.097   2.963   0.313 -0.0826 -0.2880 -0.1775
 1149TIP3    H2 3412   5.185   3.064   0.243 -2.9167 -0.0530 -3.6737
 1150TIP3   OH2 3413   0.995   5.330   2.661  0.1050 -0.7629 -0.0148
 1150TIP3    H1 3414   1.026   5.242   2.640 -0.1701 -1.0813  0.8768
 1150TIP3    H2 3415   0.995   5.376   2.577  0.0012 -1.6866 -0.5364
 1151TIP3   OH2 3416   5.304   6.490   4.737 -0.1484 -0.3587 -0.3701
 1151TIP3    H1 3417   5.248   6.568   4.732  0.0155 -0.2551 -0.6160
 1151TIP3    H2 3418   5.267   6.429   4.674  0.0930 -0.2395 -0.6281
 1152TIP3   OH2 3419   2.264   5.411   0.771 -0.1483  0.4326  0.0168
 1152TIP3    H1 3420   2.321   5.404   0.694  0.7625 -0.5250  0.7547
 1152TIP3    H2 3421   2.316   5.377   0.843 -2.2380 -2.2152  0.4284
 1153TIP3   OH2 3422   1.633   5.049   2.829 -0.2806 -0.4617  0.6009
 1153TIP3    H1 3423   1.564   5.010   2.775  3.2170 -1.4369 -3.8058
 1153TIP3    H2 3424   1.690   4.976   2.852  2.1074  0.8723 -0.7068
 1154TIP3   OH2 3425   5.068   1.171   0.510 -0.4195 -0.5963 -0.1855
 1154TIP3    H1 3426   5.117   1.236   0.561 -2.3765 -0.5699  1.8024
 1154TIP3    H2 3427   5.066   1.207   0.422 -0.2093  1.3314  0.5469
 1155TIP3   OH2 3428   6.234   6.302   4.053 -0.0037 -0.1498 -0.1874
 1155TIP3    H1 3429   6.309   6.284   4.110  0.1952 -0.1721 -0.4537
 1155TIP3    H2 3430   6.159   6.305   4.112  0.1114 -0.7788 -0.0011
 1156TIP3   OH2 3431   4.042   5.771   2.523  0.4030  0.2563 -0.2744
 1156TIP3    H1 3432   4.006   5.683   2.513 -0.1089  0.3295  0.7783
 1156TIP3    H2 3433   3.997   5.823   2.457  0.4460 -0.1887 -0.6641
 1157TIP3   OH2 3434   3.966   5.672   5.561 -0.2336 -0.2436  0.3058
 1157TIP3    H1 3435   3.905   5.664   5.488 -0.4141  0.8107  0.3272
 1157TIP3    H2 3436   3.937   5.750   5.608 -0.0791 -0.8612  1.4682
 1158TIP3   OH2 3437   6.571   0.605   0.938 -0.5772  0.5522 -0.2162
 1158TIP3    H1 3438   6.568   0.700   0.935  1.4271  0.7264  1.2324
 1158TIP3    H2 3439   6.579   0.584   1.031 -1.5632 -1.0893 -0.4541
 1159TIP3   OH2 3440   4.737   1.117   5.397 -0.3605  0.0440  0.1077
 1159TIP3    H1 3441   4.804   1.109   5.330 -0.0692  2.4263  0.0161
 1159TIP3    H2 3442   4.715   1.210   5.398 -2.0354 -0.2997  1.7139
 1160TIP3   OH2 3443   7.121   2.534   4.137  0.5758  0.0454  0.0786
 1160TIP3    H1 3444   7.083   2.525   4.225  0.7336  1.2286  0.2863
 1160TIP3    H2 3445   7.197   2.590   4.150  0.2669  0.7056 -0.9092
 1161TIP3   OH2 3446   0.551   3.041   0.679  0.0313 -0.1867  0.1779
 1161TIP3    H1 3447   0.513   3.129   0.667  0.5238  0.0553  0.3929
 1161TIP3    H2 3448   0.504   3.006   0.755 -0.9571 -0.5519 -0.5750
 1162TIP3   OH2 3449   0.843   5.082   3.157  0.5578 -0.2345 -0.2868
 1162TIP3    H1 3450   0.829   5.044   3.244 -1.9344  0.3458 -0.3722
 1162TIP3    H2 3451   0.889   5.164   3.174  0.5444 -0.3649  0.4394
 1163TIP3   OH2 3452   0.587   3.876   2.419 -0.1113 -0.4091 -0.5651
 1163TIP3    H1 3453   0.661   3.825   2.386 -0.1258 -0.1545 -0.9929
 1163TIP3    H2 3454   0.600   3.964   2.383 -1.3069 -0.6762 -1.6889
 1164TIP3   OH2 3455   2.466   6.616   1.675  0.1838 -0.4587  0.1305
 1164TIP3    H1 3456   2.526   6.557   1.721  0.6879 -0.6546 -0.7475
 1164TIP3    H2 3457   2.517   6.649   1.601  0.0859  1.5354  0.9082
 1165TIP3   OH2 3458   2.928   2.102   1.986  0.5807  0.3593 -0.4418
 1165TIP3    H1 3459   2.907   2.092   1.893  1.5414 -0.2590 -0.6107
 1165TIP3    H2 3460   2.843   2.118   2.028 -0.2068 -1.7315 -1.1141
 1166TIP3   OH2 3461   6.385   6.020   2.510 -0.0532  0.5203 -0.1344
 1166TIP3    H1 3462   6.432   6.036   2.592 -0.9241 -0.8681  0.6663
 1166TIP3    H2 3463   6.358   5.928   2.515 -0.8099  0.6320 -1.6298
 1167TIP3   OH2 3464   5.333   0.484   5.835  0.0145  0.3407  0.1192
 1167TIP3    H1 3465   5.397   0.486   5.763  1.1687 -1.3127  1.0455
 1167TIP3    H2 3466   5.261   0.431   5.801  1.1861 -1.6492  0.6168
 1168TIP3   OH2 3467   5.714   5.666   3.043 -0.1637 -0.1929 -0.8582
 1168TIP3    H1 3468   5.672   5.736   3.092  0.6090 -1.0895  1.2021
 1168TIP3    H2 3469   5.808   5.676   3.060 -0.0651 -1.9520 -0.1383
 1169TIP3   OH2 3470   6.387   2.110   1.233  0.0259  0.2271 -0.3537
 1169TIP3    H1 3471   6.460   2.171   1.247  0.4138 -0.6839  2.3249
 1169TIP3    H2 3472   6.314   2.165   1.204  0.7018  1.8227  0.8205
 1170TIP3   OH2 3473   5.982   4.427   2.256 -0.1130 -0.0551  0.4633
 1170TIP3    H1 3474   6.013   4.339   2.273 -1.6427 -0.6983  0.0446
 1170TIP3    H2 3475   5.949   4.458   2.340 -0.7695 -0.3812  0.3285
 1171TIP3   OH2 3476   0.539   4.526   0.054 -0.1823  0.0433  0.1734
 1171TIP3    H1 3477   0.551   4.444   0.006 -1.9456  0.1090 -0.4566
 1171TIP3    H2 3478   0.611   4.582   0.024  1.2652 -1.3679  0.9100
 1172TIP3   OH2 3479   6.472   0.865   0.922 -0.3287 -0.6160 -0.7361
 1172TIP3    H1 3480   6.471   0.825   0.835 -0.5482 -0.1433 -0.9564
 1172TIP3    H2 3481   6.412   0.939   0.915  0.0516 -0.2612 -0.3334
 1173TIP3   OH2 3482   1.490   1.840   5.514 -0.1502  0.2142 -0.6196
 1173TIP3    H1 3483   1.556   1.905   5.537  0.4953 -0.5322 -0.3508
 1173TIP3    H2 3484   1.537   1.757   5.513 -1.5594 -0.7143  2.0364
 1174TIP3   OH2 3485   3.451   5.121   2.628 -0.5068  0.0222 -0.3386
 1174TIP3    H1 3486   3.508   5.108   2.552  1.9426 -1.5590  1.5909
 1174TIP3    H2 3487   3.441   5.215   2.635 -0.0545  0.2364 -2.0940
 1175TIP3   OH2 3488   4.087   2.778   4.325  0.2917 -0.1374 -0.1870
 1175TIP3    H1 3489   4.008   2.802   4.276  1.2414  1.6401 -0.9153
 1175TIP3    H2 3490   4.056   2.770   4.416 -0.9519 -0.7312 -0.6370
 1176TIP3   OH2 3491   5.904   4.317   3.783  0.0560 -0.1417  0.1470
 1176TIP3    H1 3492   5.888   4.393   3.839  0.4347 -0.3416  0.5344
 1176TIP3    H2 3493   5.826   4.262   3.796 -3.3821  2.7849 -4.7400
 1177TIP3   OH2 3494   0.474   6.685   3.206 -0.4234 -0.6242  0.7150
 1177TIP3    H1 3495   0.480   6.682   3.302  0.2832  1.2179  0.7886
 1177TIP3    H2 3496   0.430   6.768   3.188  2.5770  0.8384 -0.5544
 1178TIP3   OH2 3497   0.653   2.444   1.561 -0.4910 -0.3104  0.0393
 1178TIP3    H1 3498   0.645   2.517   1.622  2.0436 -0.5336  0.7444
 1178TIP3    H2 3499   0.604   2.472   1.484  2.2446  3.2089 -0.6486
 1179TIP3   OH2 3500   0.186   4.161   5.136 -0.4249  0.1190  0.2750
 1179TIP3    H1 3501   0.206   4.222   5.065  0.7826 -0.6626 -0.0937
 1179TIP3    H2 3502   0.103   4.121   5.112 -1.3077  1.6886  0.5921
 1180TIP3   OH2 3503   3.539   2.062   2.725 -0.6406  0.1302 -0.1384
 1180TIP3    H1 3504   3.498   2.148   2.733 -0.0290  0.4843 -0.7473
 1180TIP3    H2 3505   3.508   2.013   2.802  1.5170  1.9431  2.0856
 1181TIP3   OH2 3506   5.626   3.129   4.792 -0.1016  0.5050  0.1410
 1181TIP3    H1 3507   5.619   3.191   4.719  0.1953  1.3489  0.8108
 1181TIP3    H2 3508   5.690   3.065   4.762  0.6531  1.3154 -0.0233
 1182TIP3   OH2 3509   6.830   0.352   1.397 -0.1101  0.6540 -0.8985
 1182TIP3    H1 3510   6.882   0.429   1.421 -0.8194  0.9871 -0.4068
 1182TIP3    H2 3511   6.744   0.368   1.435  0.1865 -1.1681  0.6633
 1183TIP3   OH2 3512   4.520   4.638   2.743 -0.2800 -0.2195 -0.2363
 1183TIP3    H1 3513   4.490   4.717   2.698 -0.7720  0.0644  0.5598
 1183TIP3    H2 3514   4.465   4.568   2.708  0.6288 -0.3424 -1.4547
 1184TIP3   OH2 3515   7.236   3.753   3.765  0.0061  0.0028  0.6054
 1184TIP3    H1 3516   7.145   3.731   3.787  0.2668 -0.4399  1.2638
 1184TIP3    H2 3517   7.245   3.725   3.674  0.1822 -2.2746  1.2597
 1185TIP3   OH2 3518   4.454   2.604   3.545  0.3637  0.1170  0.0550
 1185TIP3    H1 3519   4.444   2.622   3.639 -0.4011 -0.1180  0.0246
 1185TIP3    H2 3520   4.494   2.683   3.510  1.3687 -0.0893  0.7025
 1186TIP3   OH2 3521   1.731   0.545   3.905 -0.1642 -0.1375  0.3045
 1186TIP3    H1 3522   1.705   0.614   3.844  2.9004 -0.3517 -1.4492
 1186TIP3    H2 3523   1.654   0.489   3.912 -1.6984  1.7169 -0.7146
 1187TIP3   OH2 3524   4.187   6.565   3.512  0.1925 -0.1661  0.0655
 1187TIP3    H1 3525   4.106   6.568   3.461 -0.5018  3.5020  1.1412
 1187TIP3    H2 3526   4.157   6.562   3.604  1.1132  2.7571  0.5491
 1188TIP3   OH2 3527   4.948   1.661   2.621  0.3099 -0.2230 -0.1341
 1188TIP3    H1 3528   4.929   1.586   2.678 -0.1896  1.2430  1.7655
 1188TIP3    H2 3529   4.992   1.724   2.679  1.3520  0.6989 -1.8354
 1189TIP3   OH2 3530   4.864   5.281   2.078  0.1452 -0.3441  0.1364
 1189TIP3    H1 3531   4.836   5.296   1.988 -1.8153  0.3085  0.8009
 1189TIP3    H2 3532   4.791   5.313   2.131  1.2668 -0.6880  1.9626
 1190TIP3   OH2 3533   4.108   2.205   3.512 -0.0525  0.1289  0.4054
 1190TIP3    H1 3534   4.026   2.187   3.467  0.3541 -1.7169  0.3165
 1190TIP3    H2 3535   4.167   2.235   3.443 -0.4219  0.6936  0.3317
 1191TIP3   OH2 3536   1.353   2.499   0.154  0.1089  0.2304 -0.0968
 1191TIP3    H1 3537   1.352   2.584   0.198  0.3734 -0.8319  2.1314
 1191TIP3    H2 3538   1.437   2.461   0.178 -1.3735 -2.0564  2.0143
 1192TIP3   OH2 3539   4.876   0.811   0.888 -0.1499  0.4832 -0.2301
 1192TIP3    H1 3540   4.934   0.887   0.889  0.2304  0.1930  0.3574
 1192TIP3    H2 3541   4.787   0.848   0.891  0.0458  0.8913  0.9095
 1193TIP3   OH2 3542   1.872   4.319   4.244  0.0322 -0.1834  0.0688
 1193TIP3    H1 3543   1.963   4.292   4.246 -0.1384 -0.8733 -0.7139
 1193TIP3    H2 3544   1.866   4.390   4.307  0.7336 -1.2898  1.4216
 1194TIP3   OH2 3545   4.317   6.046   1.885 -0.0082 -0.9939  0.0930
 1194TIP3    H1 3546   4.285   5.960   1.911 -1.0235 -0.0870  2.0416
 1194TIP3    H2 3547   4.365   6.078   1.961  0.2409  0.2168 -0.5439
 1195TIP3   OH2 3548   6.100   5.697   0.901 -0.0135  0.0408  0.0367
 1195TIP3    H1 3549   6.084   5.642   0.825  0.9193  3.4963 -2.9014
 1195TIP3    H2 3550   6.182   5.664   0.938  0.3116 -0.8076 -1.3758
 1196TIP3   OH2 3551   2.977   3.045   1.057  0.0245 -0.0229 -0.1450
 1196TIP3    H1 3552   3.066   3.052   1.023 -0.1988 -1.9841 -1.2955
 1196TIP3    H2 3553   2.987   3.047   1.152  1.2903 -0.1902 -0.2582
 1197TIP3   OH2 3554   2.742   5.904   5.250 -0.2172 -0.0884  0.2203
 1197TIP3    H1 3555   2.706   5.819   5.224 -0.9438  0.6598 -1.3368
 1197TIP3    H2 3556   2.684   5.935   5.319 -0.8858 -0.1782 -0.2915
 1198TIP3   OH2 3557   0.291   3.969   4.357  0.1060  0.4676  0.3446
 1198TIP3    H1 3558   0.354   3.995   4.425 -2.0721  0.2268  2.5841
 1198TIP3    H2 3559   0.301   3.874   4.352  1.0972  0.5975 -0.6087
 1199TIP3   OH2 3560   1.525   3.374   4.439 -0.4992 -0.1820  0.0846
 1199TIP3    H1 3561   1.507   3.286   4.405 -0.6358 -0.4799  0.9151
 1199TIP3    H2 3562   1.602   3.402   4.390  0.5962 -1.4566  0.9801
 1200TIP3   OH2 3563   1.593   0.736   2.936  0.5198 -0.0292 -0.4865
 1200TIP3    H1 3564   1.594   0.645   2.967 -0.3714 -0.3378 -1.3418
 1200TIP3    H2 3565   1.513   0.773   2.974  2.2773  1.2883  2.2485
 1201TIP3   OH2 3566   2.679   5.366   4.031  0.5275  0.0805  0.8295
 1201TIP3    H1 3567   2.638   5.375   4.117  0.3394 -0.6181  0.8177
 1201TIP3    H2 3568   2.727   5.448   4.018  0.8305  0.0574  1.7487
 1202TIP3   OH2 3569   0.372   4.908   1.409  0.6606 -0.1827  0.2293
 1202TIP3    H1 3570   0.448   4.959   1.381  1.6734 -1.5264  0.4374
 1202TIP3    H2 3571   0.354   4.849   1.336 -0.6380  0.5757 -0.0989
 1203TIP3   OH2 3572   6.686   3.587   1.216 -0.3270 -0.5469 -0.3047
 1203TIP3    H1 3573   6.766   3.630   1.245  0.0385 -0.7461 -1.0007
 1203TIP3    H2 3574   6.715   3.525   1.149 -1.3209  1.0463 -2.3257
 1204TIP3   OH2 3575   6.997   1.118   4.695 -0.3293  0.0041 -0.2819
 1204TIP3    H1 3576   7.089   1.102   4.713 -0.1378 -0.8440 -1.8081
 1204TIP3    H2 3577   6.996   1.166   4.612 -1.2536 -0.4188 -0.5408
 1205TIP3   OH2 3578   0.823   2.995   0.626  0.2710  0.3363 -0.1342
 1205TIP3    H1 3579   0.823   3.086   0.598 -1.5985  0.4664  0.1240
 1205TIP3    H2 3580   0.730   2.975   0.641  0.8284 -0.7727  2.5046
 1206TIP3   OH2 3581   3.473   2.216   5.107  0.5876 -0.0032 -0.1955
 1206TIP3    H1 3582   3.430   2.137   5.140  0.5206  0.7074  1.5034
 1206TIP3    H2 3583   3.400   2.276   5.088  0.6914  0.0697 -0.3633
 1207TIP3   OH2 3584   3.377   1.629   2.285 -0.3749 -0.9808  0.3745
 1207TIP3    H1 3585   3.343   1.712   2.319 -1.3003 -1.4614  0.6509
 1207TIP3    H2 3586   3.367   1.567   2.357  0.1023 -1.3910  0.0952
 1208TIP3   OH2 3587   1.906   6.798   1.755  0.1900  0.0966  0.1840
 1208TIP3    H1 3588   1.924   6.875   1.700  1.0609  0.0416  0.3831
 1208TIP3    H2 3589   1.909   6.724   1.694  1.6827 -0.0233  0.3711
 1209TIP3   OH2 3590   1.070   1.236   2.740  0.3107 -0.5334 -0.3089
 1209TIP3    H1 3591   1.015   1.158   2.735  1.6468 -1.4272 -1.8068
 1209TIP3    H2 3592   1.087   1.260   2.649  0.4550  1.1467  0.1183
 1210TIP3   OH2 3593   4.376   5.904   5.233 -0.1006  0.1424 -0.3670
 1210TIP3    H1 3594   4.299   5.959   5.248  0.4482  0.6575  0.6399
 1210TIP3    H2 3595   4.362   5.828   5.290 -0.5529 -0.4846 -1.2845
 1211TIP3   OH2 3596   0.881   5.920   4.607 -0.0112  0.0967  0.2319
 1211TIP3    H1 3597   0.912   5.944   4.694 -1.7940  1.0945  0.6497
 1211TIP3    H2 3598   0.885   5.824   4.606  0.0709  0.0771  1.4122
 1212TIP3   OH2 3599   6.397   5.239   3.431  0.3160  0.5449  0.5034
 1212TIP3    H1 3600   6.323   5.182   3.412  0.1171  0.3593  1.7513
 1212TIP3    H2 3601   6.361   5.307   3.487  0.8500  1.1148  0.1659
 1213TIP3   OH2 3602   1.747   0.135   1.982  1.2207  0.2491 -0.3696
 1213TIP3    H1 3603   1.695   0.059   1.957  0.3012  0.3188  1.2220
 1213TIP3    H2 3604   1.717   0.204   1.923 -0.8499  0.3957  0.7457
 1214TIP3   OH2 3605   4.102   5.580   4.553 -0.0125 -0.2120  0.0908
 1214TIP3    H1 3606   4.187   5.547   4.527 -0.9463 -2.1965 -0.6344
 1214TIP3    H2 3607   4.062   5.611   4.471 -0.3866 -0.2778  0.2436
 1215TIP3   OH2 3608   1.448   0.476   1.229 -0.1477 -0.2589 -0.2763
 1215TIP3    H1 3609   1.400   0.451   1.150 -1.8800 -0.4410  0.7896
 1215TIP3    H2 3610   1.448   0.572   1.228  0.2576 -0.2547 -0.7122
 1216TIP3   OH2 3611   2.014   5.995   3.798  0.3953 -1.1466  0.5739
 1216TIP3    H1 3612   2.016   5.992   3.703 -1.4884 -1.0516  0.4820
 1216TIP3    H2 3613   2.039   5.908   3.826 -0.6553 -1.6815 -0.0909
 1217TIP3   OH2 3614   4.872   0.360   2.472 -1.0495 -0.3950  0.0432
 1217TIP3    H1 3615   4.849   0.438   2.421 -2.5649  0.3880  1.7821
 1217TIP3    H2 3616   4.811   0.293   2.441 -2.4706  0.2856  1.2415
 1218TIP3   OH2 3617   1.222   1.797   0.561  0.2229  0.2276  0.2132
 1218TIP3    H1 3618   1.198   1.856   0.489 -3.0693 -0.5754  0.4828
 1218TIP3    H2 3619   1.176   1.834   0.637  0.9741 -0.7454  1.1570
 1219TIP3   OH2 3620   4.977   2.241   5.483  0.1804  0.1105  0.3313
 1219TIP3    H1 3621   4.922   2.165   5.504  0.2854 -0.0303  0.0979
 1219TIP3    H2 3622   5.026   2.215   5.405  0.3738  0.3400  0.3740
 1220TIP3   OH2 3623   3.611   6.478   2.920 -0.0523  0.0487  0.2705
 1220TIP3    H1 3624   3.600   6.513   3.009  1.7605  0.1068  0.5085
 1220TIP3    H2 3625   3.621   6.555   2.865 -0.5813 -0.0036  0.0950
 1221TIP3   OH2 3626   4.147   1.349   1.440  0.3678  0.4380 -0.0756
 1221TIP3    H1 3627   4.053   1.364   1.435  0.3858  0.2406 -2.5185
 1221TIP3    H2 3628   4.162   1.317   1.528 -1.7327  1.1924  0.6123
 1222TIP3   OH2 3629   1.842   6.141   0.815  0.6101 -0.1921 -0.0323
 1222TIP3    H1 3630   1.880   6.084   0.882 -0.0582 -0.9533 -0.2862
 1222TIP3    H2 3631   1.916   6.172   0.764  0.9016 -1.8145 -0.6468
 1223TIP3   OH2 3632   2.669   0.063   4.305 -0.3439  0.2203 -0.1067
 1223TIP3    H1 3633   2.634   0.007   4.375  1.3544 -0.2140  0.4490
 1223TIP3    H2 3634   2.651   0.015   4.224  0.2294 -0.6843  0.2886
 1224TIP3   OH2 3635   2.339   6.207   2.754 -0.4054  0.4414  0.3534
 1224TIP3    H1 3636   2.363   6.299   2.765 -0.7214  0.2862  3.1761
 1224TIP3    H2 3637   2.265   6.209   2.694 -0.1429  1.9797  0.0223
 1225TIP3   OH2 3638   1.716   5.326   1.984 -0.7128 -0.2557  0.0016
 1225TIP3    H1 3639   1.809   5.347   1.977 -0.5110 -0.4732  1.6034
 1225TIP3    H2 3640   1.672   5.411   1.981 -0.1431  0.2809  3.0539
 1226TIP3   OH2 3641   3.359   6.242   4.589  0.6524  0.0385 -0.4545
 1226TIP3    H1 3642   3.303   6.319   4.594  1.6935  0.7957  0.0758
 1226TIP3    H2 3643   3.319   6.179   4.649 -0.3287  0.0734 -1.0522
 1227TIP3   OH2 3644   1.271   1.349   3.860 -0.2459 -0.3791 -0.3326
 1227TIP3    H1 3645   1.200   1.287   3.849 -0.2721 -0.3307 -0.4401
 1227TIP3    H2 3646   1.348   1.305   3.823 -0.3016 -0.2775 -0.5701
 1228TIP3   OH2 3647   6.078   6.524   0.897  0.0955 -0.1973 -0.0521
 1228TIP3    H1 3648   6.009   6.503   0.959 -0.2288  3.2140  0.9333
 1228TIP3    H2 3649   6.040   6.503   0.811 -1.4111 -0.1717  0.5874
 1229TIP3   OH2 3650   6.905   6.684   1.844 -0.0406  0.2656  0.6889
 1229TIP3    H1 3651   6.897   6.645   1.756  0.8393  0.7796  0.3706
 1229TIP3    H2 3652   6.855   6.625   1.900  0.2117 -0.6313  0.0035
 1230TIP3   OH2 3653   4.450   5.629   1.689 -0.3471  1.2176  0.8917
 1230TIP3    H1 3654   4.427   5.571   1.616  1.6530  1.9077 -0.3563
 1230TIP3    H2 3655   4.457   5.716   1.649  0.6494  1.6310  1.9262
 1231TIP3   OH2 3656   5.215   2.341   4.839  0.1146  0.1010 -0.4252
 1231TIP3    H1 3657   5.296   2.369   4.882 -1.0351  0.3904  1.7170
 1231TIP3    H2 3658   5.210   2.393   4.760  0.5234  2.3595  0.9547
 1232TIP3   OH2 3659   2.722   4.002   4.192 -0.3678 -0.0205  0.0384
 1232TIP3    H1 3660   2.682   4.051   4.264  0.6293  0.6682  0.1391
 1232TIP3    H2 3661   2.774   4.066   4.144  0.3324 -0.8115 -0.3014
 1233TIP3   OH2 3662   7.002   0.219   0.905 -0.1144  0.3911  0.4815
 1233TIP3    H1 3663   6.979   0.258   0.989 -0.0952 -1.4608  1.3770
 1233TIP3    H2 3664   7.080   0.167   0.922 -1.3567 -1.7972 -0.1121
 1234TIP3   OH2 3665   1.258   6.022   0.429 -0.0090  0.1613 -0.0973
 1234TIP3    H1 3666   1.350   6.006   0.449  0.2823  0.5329 -1.0905
 1234TIP3    H2 3667   1.212   6.005   0.512  0.9097 -0.3215  0.3266
 1235TIP3   OH2 3668   5.260   0.741   1.771 -0.6272 -0.0073 -0.7712
 1235TIP3    H1 3669   5.283   0.833   1.764  1.9063 -0.6459 -1.9541
 1235TIP3    H2 3670   5.187   0.739   1.833 -1.6764  2.8904 -1.7612
 1236TIP3   OH2 3671   5.401   5.901   2.868  0.2199 -0.1757  0.2300
 1236TIP3    H1 3672   5.325   5.896   2.925  0.3139 -0.7051  0.3184
 1236TIP3    H2 3673   5.439   5.987   2.884  0.0098 -0.1640  0.6612
 1237TIP3   OH2 3674   0.132   2.853   4.436  1.1244  0.9259 -0.3453
 1237TIP3    H1 3675   0.205   2.906   4.469 -0.2123  1.8133  1.2994
 1237TIP3    H2 3676   0.173   2.769   4.413  3.0478  2.1361 -1.7175
 1238TIP3   OH2 3677   6.144   0.040   5.910 -0.7553  0.2639 -0.4195
 1238TIP3    H1 3678   6.198   0.095   5.854 -1.8139  0.8530 -0.8934
 1238TIP3    H2 3679   6.159  -0.049   5.880  0.4592  0.3410 -0.0907
 1239TIP3   OH2 3680   1.650   4.271   1.387  0.3091  0.3343 -0.4252
 1239TIP3    H1 3681   1.715   4.341   1.383 -0.3569  0.9304 -2.3927
 1239TIP3    H2 3682   1.694   4.198   1.429  1.8589  1.1010 -0.6650
 1240TIP3   OH2 3683   2.894   4.241   2.304  0.0975  0.0743  0.7052
 1240TIP3    H1 3684   2.856   4.293   2.233 -0.5919 -0.3001  0.7942
 1240TIP3    H2 3685   2.835   4.166   2.313  0.0695  0.2170  1.8036
 1241TIP3   OH2 3686   0.902   5.993   1.297 -0.0007 -0.3077  0.0845
 1241TIP3    H1 3687   0.965   6.063   1.317  0.2916 -0.7318  0.7035
 1241TIP3    H2 3688   0.820   6.023   1.337  0.0598 -0.2013  0.1303
 1242TIP3   OH2 3689   4.420   5.465   3.864  0.4219 -0.0708  0.3084
 1242TIP3    H1 3690   4.411   5.372   3.840  0.0924  0.3145 -1.1504
 1242TIP3    H2 3691   4.376   5.471   3.949 -1.2374 -0.9147 -0.4230
 1243TIP3   OH2 3692   4.074   2.698   1.086  0.0180  0.4102 -0.1957
 1243TIP3    H1 3693   3.994   2.661   1.124 -0.3962  0.0855 -1.3239
 1243TIP3    H2 3694   4.053   2.708   0.993  1.2449  0.4760 -0.4767
 1244TIP3   OH2 3695   4.795   6.642   2.258  0.5331  0.2453  0.2012
 1244TIP3    H1 3696   4.827   6.728   2.230  2.2075 -0.7930 -1.2523
 1244TIP3    H2 3697   4.719   6.626   2.202  1.0630  0.1980 -0.5207
 1245TIP3   OH2 3698   6.080   1.740   1.090 -0.1766 -0.2080 -0.0378
 1245TIP3    H1 3699   6.101   1.791   1.168  0.8757  0.5218 -0.7645
 1245TIP3    H2 3700   6.025   1.797   1.037  1.1363  0.2889 -0.9289
 1246TIP3   OH2 3701   1.549   1.867   1.653 -0.0202  0.4688 -0.5501
 1246TIP3    H1 3702   1.529   1.797   1.591 -0.0979  0.4501 -0.5042
 1246TIP3    H2 3703   1.644   1.864   1.663 -0.0444  0.2298 -0.3831
 1247TIP3   OH2 3704   0.889   5.303   4.049  0.0409  0.2310 -0.8986
 1247TIP3    H1 3705   0.924   5.331   3.964  0.9612  0.0803 -0.5789
 1247TIP3    H2 3706   0.819   5.365   4.068  0.7484  1.1176 -1.1188
 1248TIP3   OH2 3707   4.007   4.227   0.696 -0.1629  0.7323 -0.2284
 1248TIP3    H1 3708   4.006   4.289   0.769 -0.0244 -0.3219  0.6813
 1248TIP3    H2 3709   3.933   4.253   0.641 -0.9612  0.8439  0.8716
 1249TIP3   OH2 3710   5.515   0.834   3.731  0.3633 -0.1303  0.8257
 1249TIP3    H1 3711   5.580   0.804   3.668  0.4589 -0.2515  0.9795
 1249TIP3    H2 3712   5.494   0.923   3.705 -0.7893 -0.7046 -0.3417
 1250TIP3   OH2 3713   6.948   4.528   5.026  0.2104  0.0527 -0.0925
 1250TIP3    H1 3714   6.946   4.517   4.931 -2.3849  0.7293 -0.1938
 1250TIP3    H2 3715   6.874   4.476   5.058  0.9222  0.0025  1.5417
 1251TIP3   OH2 3716   5.929   2.189   5.349  0.7377  0.3803  0.1843
 1251TIP3    H1 3717   5.938   2.102   5.311  1.8728  0.7765 -0.4803
 1251TIP3    H2 3718   5.937   2.175   5.443 -1.0861 -0.4728  0.2674
 1252TIP3   OH2 3719   1.796   3.391   4.329 -0.0692  0.7158 -0.1782
 1252TIP3    H1 3720   1.866   3.327   4.342 -0.0679  1.2091  2.7826
 1252TIP3    H2 3721   1.840   3.474   4.318 -0.1523  0.5994 -1.6181
 1253TIP3   OH2 3722   1.705   0.334   1.296  0.4407  0.3271  0.2091
 1253TIP3    H1 3723   1.646   0.387   1.242 -0.2653  0.6447  1.2527
 1253TIP3    H2 3724   1.654   0.256   1.316  0.7522  0.1436  0.2909
 1254TIP3   OH2 3725   3.187   2.742   3.885 -0.4725  0.1426 -0.1066
 1254TIP3    H1 3726   3.263   2.758   3.830  0.7395 -4.2752 -0.1327
 1254TIP3    H2 3727   3.207   2.786   3.968  1.1008  0.8426 -0.8168
 1255TIP3   OH2 3728   1.938   1.682   1.335 -0.0171 -0.4005  0.0942
 1255TIP3    H1 3729   1.944   1.707   1.428 -0.1015  2.4732 -0.5725
 1255TIP3    H2 3730   2.020   1.636   1.318  0.6364  0.2439  1.3048
 1256TIP3   OH2 3731   1.525   3.524   2.732  0.4298 -0.4740 -0.2289
 1256TIP3    H1 3732   1.537   3.440   2.689 -2.2113 -1.4576  0.7624
 1256TIP3    H2 3733   1.502   3.502   2.823 -2.0624  1.1690 -0.3590
 1257TIP3   OH2 3734   2.738   0.910   0.127 -0.0893  0.1513 -0.3890
 1257TIP3    H1 3735   2.815   0.885   0.178 -0.9169 -0.6448  0.5342
 1257TIP3    H2 3736   2.676   0.838   0.142 -2.7933  2.8395  2.7680
 1258TIP3   OH2 3737   3.738   6.279   0.106 -0.4935 -0.3325  0.0085
 1258TIP3    H1 3738   3.675   6.350   0.096 -0.9465 -0.6975  0.2039
 1258TIP3    H2 3739   3.803   6.312   0.168 -2.0174 -0.9333  2.0491
 1259TIP3   OH2 3740   2.049   3.211   1.417  0.0464 -0.2042  0.2121
 1259TIP3    H1 3741   2.031   3.153   1.343 -0.9550 -1.6539  1.5359
 1259TIP3    H2 3742   1.964   3.248   1.440  0.5726  1.3789 -0.2254
 1260TIP3   OH2 3743   0.093   4.642   4.477  0.1211  0.2507  0.2867
 1260TIP3    H1 3744   0.087   4.660   4.571 -1.7549 -1.8598  0.6455
 1260TIP3    H2 3745   0.050   4.717   4.436  0.1922  0.7750  1.1511
 1261TIP3   OH2 3746   6.110   1.969   0.227 -0.8342 -0.0722 -0.4008
 1261TIP3    H1 3747   6.141   1.885   0.193  0.2431  0.2339 -0.2000
 1261TIP3    H2 3748   6.186   2.026   0.225 -0.7545  0.0625  2.2117
 1262TIP3   OH2 3749   0.681   2.380   3.743 -0.5231  0.6756  0.1890
 1262TIP3    H1 3750   0.739   2.355   3.815 -2.4580 -0.8443  1.3267
 1262TIP3    H2 3751   0.736   2.377   3.665  1.2568  0.7859  1.3857
 1263TIP3   OH2 3752   2.434   4.648   5.363 -0.1773  0.3339  0.0543
 1263TIP3    H1 3753   2.407   4.729   5.319 -0.1644  1.0108  1.2591
 1263TIP3    H2 3754   2.474   4.677   5.445  0.2126 -0.8803  0.3130
 1264TIP3   OH2 3755   0.053   5.263   5.149  0.5436 -0.0263 -0.4968
 1264TIP3    H1 3756   0.083   5.207   5.221  1.0128  0.9683  0.1044
 1264TIP3    H2 3757  -0.021   5.216   5.111 -0.0316 -0.3589  0.9555
 1265TIP3   OH2 3758   5.449   1.604   3.839 -0.2086  0.5292 -0.0952
 1265TIP3    H1 3759   5.355   1.613   3.826  0.0833 -0.1902 -3.8525
 1265TIP3    H2 3760   5.485   1.688   3.810  0.3554  0.8142  1.3553
 1266TIP3   OH2 3761   4.004   2.915   3.740 -0.4673  0.3566  0.6379
 1266TIP3    H1 3762   4.056   2.881   3.813 -0.2591  0.7934  0.6961
 1266TIP3    H2 3763   4.053   2.991   3.708  0.1253 -0.5956 -0.8145
 1267TIP3   OH2 3764   4.398   5.424   3.479 -0.3845 -0.1238  0.0134
 1267TIP3    H1 3765   4.316   5.411   3.431 -0.1547 -2.6085  0.1656
 1267TIP3    H2 3766   4.440   5.338   3.479  1.2271  0.5904  1.7597
 1268TIP3   OH2 3767   5.869   4.425   4.395  0.0807 -0.1405  0.0631
 1268TIP3    H1 3768   5.943   4.458   4.447  0.9303  2.8930 -2.7353
 1268TIP3    H2 3769   5.873   4.330   4.405  1.3991  0.1524  3.7490
 1269TIP3   OH2 3770   0.248   6.580   1.539 -0.4141 -0.5457 -0.2852
 1269TIP3    H1 3771   0.211   6.496   1.565  0.2537 -0.8121 -0.1795
 1269TIP3    H2 3772   0.341   6.563   1.524 -0.7672 -0.5097 -3.2179
 1270TIP3   OH2 3773   4.326   6.510   3.793 -0.0720  0.0750 -0.9932
 1270TIP3    H1 3774   4.344   6.424   3.831 -0.5286  0.2768 -0.2835
 1270TIP3    H2 3775   4.241   6.535   3.830  0.1597  0.9271 -0.9992
 1271TIP3   OH2 3776   5.394   2.174   4.012 -0.0306  0.2015  0.1348
 1271TIP3    H1 3777   5.377   2.197   4.103  0.9333 -0.2664  0.4436
 1271TIP3    H2 3778   5.313   2.133   3.982  0.2199 -1.2582  1.3158
 1272TIP3   OH2 3779   0.931   6.577   2.108  0.5765  0.0670  0.0145
 1272TIP3    H1 3780   0.855   6.595   2.163  0.2086  0.0964 -0.4914
 1272TIP3    H2 3781   0.895   6.537   2.029  0.9418  1.2916 -0.8035
 1273TIP3   OH2 3782   4.571   5.116   4.556 -0.2846 -0.2303  0.3778
 1273TIP3    H1 3783   4.654   5.069   4.572  0.9717  1.5382 -0.6043
 1273TIP3    H2 3784   4.559   5.109   4.461 -0.1184  1.2899  0.2234
 1274TIP3   OH2 3785   2.445   2.188   2.281  0.2054  0.1484 -0.0899
 1274TIP3    H1 3786   2.402   2.272   2.296  3.4160  1.5514  2.5293
 1274TIP3    H2 3787   2.410   2.131   2.349 -0.7172 -0.1629 -0.8004
 1275TIP3   OH2 3788   3.796   3.441   3.296  0.3964  0.5011 -0.3343
 1275TIP3    H1 3789   3.746   3.489   3.231 -2.1111 -0.3650  0.8118
 1275TIP3    H2 3790   3.874   3.411   3.249 -1.1831  0.0888 -2.8896
 1276TIP3   OH2 3791   3.018   6.262   4.942 -0.1186 -0.0637  0.1176
 1276TIP3    H1 3792   3.114   6.268   4.945 -0.2105  1.4961  2.5834
 1276TIP3    H2 3793   2.998   6.185   4.996 -0.2825  1.9255  3.1295
 1277TIP3   OH2 3794   7.031   3.055   0.501  0.1414 -0.2339 -0.1725
 1277TIP3    H1 3795   7.063   3.001   0.429  1.0732  0.4674 -0.3085
 1277TIP3    H2 3796   7.062   3.011   0.580  2.0417  0.7469 -0.3145
 1278TIP3   OH2 3797   0.587   3.040   3.980  0.0526  0.2994  0.5046
 1278TIP3    H1 3798   0.492   3.042   3.992 -0.5740 -2.8559 -2.3585
 1278TIP3    H2 3799   0.620   2.985   4.050 -0.4148  0.2871  0.7154
 1279TIP3   OH2 3800   6.515   0.025   4.586  0.3340 -0.5919  0.3873
 1279TIP3    H1 3801   6.450  -0.044   4.598  1.1776 -1.4843 -0.0200
 1279TIP3    H2 3802   6.497   0.060   4.498 -0.2887 -0.0705  0.7161
 1280TIP3   OH2 3803   5.536   6.443   5.455  0.1075  0.4184 -0.1158
 1280TIP3    H1 3804   5.440   6.438   5.447  0.1526 -2.0609  0.2896
 1280TIP3    H2 3805   5.569   6.407   5.373  0.6534 -1.4469  0.8835
 1281TIP3   OH2 3806   2.692   6.674   2.931 -0.4255 -0.0236  0.2966
 1281TIP3    H1 3807   2.602   6.683   2.960 -0.5990  1.7036 -0.6341
 1281TIP3    H2 3808   2.686   6.623   2.850 -1.0971  3.1240 -1.8196
 1282TIP3   OH2 3809   6.748   2.700   5.452 -0.2359 -0.3242 -0.5932
 1282TIP3    H1 3810   6.663   2.658   5.443  0.3482 -1.4859 -0.8566
 1282TIP3    H2 3811   6.774   2.685   5.543 -0.5145  0.4595 -0.3717
 1283TIP3   OH2 3812   3.347   3.066   1.492  0.5064  0.4724 -0.2884
 1283TIP3    H1 3813   3.419   3.076   1.555  0.2613  0.7434 -0.0470
 1283TIP3    H2 3814   3.281   3.129   1.521 -1.3782 -2.1814  1.6244
 1284TIP3   OH2 3815   2.194   0.490   0.918  0.4275 -0.3220 -0.0777
 1284TIP3    H1 3816   2.168   0.545   0.993 -1.0114 -3.0706  1.6286
 1284TIP3    H2 3817   2.286   0.472   0.933  0.4096  0.0030  0.4723
 1285TIP3   OH2 3818   3.898   1.683   4.311 -0.2939  0.4733  0.6909
 1285TIP3    H1 3819   3.935   1.602   4.345 -0.4102 -0.8757 -2.0935
 1285TIP3    H2 3820   3.825   1.655   4.256 -0.6329  2.4958  0.0199
 1286TIP3   OH2 3821   5.938   3.994   5.889  0.3066 -0.3193  0.6119
 1286TIP3    H1 3822   5.998   3.929   5.925  2.0929  0.4355 -0.8631
 1286TIP3    H2 3823   5.946   3.984   5.794 -0.6495  0.9329  0.3697
 1287TIP3   OH2 3824   5.540   4.212   0.484  0.4923 -0.3440 -0.7778
 1287TIP3    H1 3825   5.611   4.275   0.480  0.1698 -0.0379 -2.0257
 1287TIP3    H2 3826   5.552   4.167   0.568  1.9682 -0.1005 -0.8460
 1288TIP3   OH2 3827   5.211   0.683   5.219 -0.0522  0.7307  0.3103
 1288TIP3    H1 3828   5.252   0.632   5.289  0.5036 -0.1627 -0.6418
 1288TIP3    H2 3829   5.257   0.656   5.140 -1.5514  0.7528 -0.5910
 1289TIP3   OH2 3830   0.577   6.469   0.299 -0.0541 -0.2305 -0.7932
 1289TIP3    H1 3831   0.582   6.381   0.337  1.3602  0.7930  1.7166
 1289TIP3    H2 3832   0.669   6.492   0.281 -0.3177  1.0065 -0.6539
 1290TIP3   OH2 3833   4.304   2.881   2.593  0.1791  0.3043  0.1870
 1290TIP3    H1 3834   4.336   2.923   2.513 -1.2780  1.3673  0.1342
 1290TIP3    H2 3835   4.365   2.809   2.607  2.4299  2.0501 -0.0353
 1291TIP3   OH2 3836   4.397   5.306   2.474 -0.2305 -0.1684  0.1459
 1291TIP3    H1 3837   4.406   5.244   2.403 -1.6660  0.4746 -0.6358
 1291TIP3    H2 3838   4.303   5.312   2.490  0.0189  0.1553  1.6947
 1292TIP3   OH2 3839   4.625   0.044   0.734 -0.1086 -0.3158  0.0660
 1292TIP3    H1 3840   4.596   0.026   0.823 -1.7175 -1.9914 -0.7122
 1292TIP3    H2 3841   4.617   0.139   0.724 -0.1099 -0.1319  1.6234
 1293TIP3   OH2 3842   1.426   6.775   3.802  0.0502 -0.1885  0.8125
 1293TIP3    H1 3843   1.377   6.827   3.865 -0.2894  0.4729  0.0154
 1293TIP3    H2 3844   1.476   6.713   3.855  0.0965  0.6411  1.7438
 1294TIP3   OH2 3845   3.725   1.617   1.887  0.0302  0.0360 -0.4251
 1294TIP3    H1 3846   3.674   1.617   1.968  0.5866  0.9763 -0.0696
 1294TIP3    H2 3847   3.808   1.658   1.910  0.1142  0.5082 -1.5188
 1295TIP3   OH2 3848   2.262   3.088   4.483 -0.3244  0.3585  0.3436
 1295TIP3    H1 3849   2.332   3.045   4.532 -0.1602  0.6420  0.3539
 1295TIP3    H2 3850   2.302   3.167   4.446 -0.2054 -0.2734 -0.9544
 1296TIP3   OH2 3851   7.079   5.381   3.388 -0.6247 -0.0167  0.3497
 1296TIP3    H1 3852   7.060   5.454   3.329  0.1333 -0.8262 -0.9702
 1296TIP3    H2 3853   7.173   5.387   3.404 -0.4758 -0.8952 -0.0939
 1297TIP3   OH2 3854   6.958   5.989   4.038  0.7066  0.1847  0.3232
 1297TIP3    H1 3855   6.965   6.067   4.092 -0.9737 -0.2943  1.3010
 1297TIP3    H2 3856   6.972   6.020   3.948  0.3252  1.5462  0.7181
 1298TIP3   OH2 3857   1.276   0.699   3.494  0.2218 -0.0000  0.1976
 1298TIP3    H1 3858   1.326   0.688   3.413 -1.5569 -1.4473 -0.7976
 1298TIP3    H2 3859   1.338   0.736   3.556  1.3497  2.3134 -2.1396
 1299TIP3   OH2 3860   1.669   2.289   5.466  0.0391  0.0884 -0.4499
 1299TIP3    H1 3861   1.668   2.288   5.562 -2.3470  0.0333 -0.4208
 1299TIP3    H2 3862   1.727   2.217   5.442  2.4785  1.4576  0.8769
 1300TIP3   OH2 3863   1.989   0.324   5.175  0.7095 -0.3521 -0.3984
 1300TIP3    H1 3864   1.912   0.382   5.178  1.3995  0.5663  1.2318
 1300TIP3    H2 3865   1.957   0.241   5.211 -0.0575 -0.7512 -1.8968
 1301TIP3   OH2 3866   2.017   3.198   3.899  0.1668 -0.5885 -0.0734
 1301TIP3    H1 3867   1.955   3.205   3.827  0.7550 -1.5144 -0.6860
 1301TIP3    H2 3868   1.972   3.145   3.964 -0.7313  1.0208  0.6796
 1302TIP3   OH2 3869   4.396   5.729   1.276 -0.5459  0.5554 -0.1956
 1302TIP3    H1 3870   4.305   5.748   1.301 -0.6668  1.4289 -1.2096
 1302TIP3    H2 3871   4.444   5.807   1.303 -0.0361 -0.0289  0.6021
 1303TIP3   OH2 3872   1.960   5.373   0.420  0.4349 -0.0167 -0.6158
 1303TIP3    H1 3873   1.900   5.396   0.490  1.3912 -1.7149  0.8527
 1303TIP3    H2 3874   1.934   5.285   0.394  2.6789 -1.1549  0.6352
 1304TIP3   OH2 3875   3.268   0.565   4.080 -0.3273 -0.1153  0.4230
 1304TIP3    H1 3876   3.284   0.478   4.042 -1.7932 -0.1174 -0.2904
 1304TIP3    H2 3877   3.309   0.626   4.020 -1.3037 -0.2098 -0.3671
 1305TIP3   OH2 3878   1.394   6.000   1.012  0.0508  0.0680 -0.7299
 1305TIP3    H1 3879   1.369   5.943   0.940  0.9688  0.0854 -1.0861
 1305TIP3    H2 3880   1.489   5.987   1.021  0.1203  0.8346 -0.2091
 1306TIP3   OH2 3881   6.066   4.564   2.817 -0.2493 -0.2809 -0.5129
 1306TIP3    H1 3882   6.012   4.485   2.806 -0.5992 -0.0490 -0.4919
 1306TIP3    H2 3883   6.051   4.614   2.737  0.2161 -0.3780 -0.6629
 1307TIP3   OH2 3884   5.400   0.246   1.745 -0.0762  0.1828 -0.5368
 1307TIP3    H1 3885   5.387   0.339   1.727  4.0223  0.8471 -1.0738
 1307TIP3    H2 3886   5.371   0.234   1.836 -1.3470  1.7450 -0.6948
 1308TIP3   OH2 3887   1.763   2.066   5.118  0.2508 -0.2812  0.1157
 1308TIP3    H1 3888   1.678   2.037   5.153  1.0283 -0.8773  1.5950
 1308TIP3    H2 3889   1.767   2.159   5.139 -0.5053  0.0440 -1.0216
 1309TIP3   OH2 3890   2.975   0.083   4.107  0.5502  0.7716  0.3670
 1309TIP3    H1 3891   3.021   0.153   4.153  0.2667  1.0983  0.1559
 1309TIP3    H2 3892   2.928   0.127   4.036  0.0012  0.4285  0.5118
 1310TIP3   OH2 3893   5.506   0.854   2.614  0.0235  0.4160 -0.1311
 1310TIP3    H1 3894   5.416   0.859   2.583 -0.3425  2.3568  1.0516
 1310TIP3    H2 3895   5.514   0.766   2.651 -1.5407  0.3818  0.1903
 1311TIP3   OH2 3896   0.116   3.427   1.624  0.7717  0.1268  0.0948
 1311TIP3    H1 3897   0.033   3.421   1.578  0.8496 -1.1404  0.0836
 1311TIP3    H2 3898   0.175   3.469   1.561  0.1204  1.1835  0.1643
 1312TIP3   OH2 3899   4.252   3.358   3.498  0.0677 -0.7682  0.1046
 1312TIP3    H1 3900   4.239   3.386   3.407 -1.0886  2.7578  1.2100
 1312TIP3    H2 3901   4.338   3.317   3.499 -0.0276 -1.2144 -2.6051
 1313TIP3   OH2 3902   3.051   6.554   4.889 -1.0880 -0.4856  0.1205
 1313TIP3    H1 3903   2.998   6.485   4.931 -2.0118  0.9146  1.3584
 1313TIP3    H2 3904   2.989   6.625   4.872  0.1129  0.6217  0.2307
 1314TIP3   OH2 3905   4.045   4.288   4.199  0.2147 -0.1440 -0.5245
 1314TIP3    H1 3906   4.024   4.329   4.283 -1.8206 -1.9307 -0.0573
 1314TIP3    H2 3907   3.964   4.245   4.172  1.2131 -0.8310 -2.7202
 1315TIP3   OH2 3908   5.171   1.458   4.090 -0.1536 -0.3567  0.0058
 1315TIP3    H1 3909   5.256   1.415   4.082  1.2071  2.2321 -0.5706
 1315TIP3    H2 3910   5.150   1.486   4.001 -1.8161 -1.2104  0.0826
 1316TIP3   OH2 3911   7.120   3.477   5.483  0.2598 -0.4966 -0.6949
 1316TIP3    H1 3912   7.198   3.432   5.451  1.6085  0.3886  1.1215
 1316TIP3    H2 3913   7.143   3.501   5.573 -1.4990  1.2382 -0.6602
 1317TIP3   OH2 3914   4.963   0.583   5.243  0.6828  0.0762 -0.4383
 1317TIP3    H1 3915   4.996   0.524   5.311  0.3774 -1.0380 -1.2144
 1317TIP3    H2 3916   5.041   0.617   5.200  0.8815  0.9641  0.5983
 1318TIP3   OH2 3917   5.303   4.768   3.709  0.2998  0.2158 -0.4903
 1318TIP3    H1 3918   5.340   4.745   3.624  0.1331  0.8575 -0.7415
 1318TIP3    H2 3919   5.375   4.810   3.756  0.6190 -0.8318 -0.0120
 1319TIP3   OH2 3920   6.213   0.170   3.832  0.3960  0.0166 -0.6276
 1319TIP3    H1 3921   6.205   0.223   3.753  1.8344 -1.6935 -2.0059
 1319TIP3    H2 3922   6.224   0.081   3.800  3.8034 -0.4370  1.3163
 1320TIP3   OH2 3923   2.302   2.204   5.819  0.1582 -0.4376 -0.1997
 1320TIP3    H1 3924   2.299   2.113   5.850  4.3861 -0.2148  1.6104
 1320TIP3    H2 3925   2.323   2.197   5.726 -0.6863 -1.2904 -0.3376
 1321TIP3   OH2 3926   2.472   6.231   4.912 -0.0966 -0.2189  0.0415
 1321TIP3    H1 3927   2.563   6.260   4.915  0.8789 -3.0128  1.8548
 1321TIP3    H2 3928   2.462   6.191   4.825  0.6191 -0.4522  0.0617
 1322TIP3   OH2 3929   2.839   5.717   4.248 -0.0989 -0.5647 -0.7291
 1322TIP3    H1 3930   2.760   5.691   4.200  0.6422 -0.8626 -1.8412
 1322TIP3    H2 3931   2.861   5.804   4.215 -0.0681 -0.4010 -0.2867
 1323TIP3   OH2 3932   6.613   0.385   4.754 -0.1079 -0.2884 -0.5924
 1323TIP3    H1 3933   6.591   0.344   4.838  0.6623  0.0127 -0.2436
 1323TIP3    H2 3934   6.666   0.320   4.708 -0.9213 -0.6463 -1.0610
 1324TIP3   OH2 3935   4.571   6.444   1.178  0.7073 -0.4296  0.1204
 1324TIP3    H1 3936   4.624   6.523   1.171  0.5180 -0.3870 -0.9441
 1324TIP3    H2 3937   4.635   6.373   1.185  0.8779 -0.1807  1.4027
 1325TIP3   OH2 3938   5.159   6.351   4.577  0.2010  0.0749 -0.4641
 1325TIP3    H1 3939   5.111   6.355   4.494 -1.4306  0.1857  0.4351
 1325TIP3    H2 3940   5.107   6.291   4.631 -0.1837  1.9427  1.3280
 1326TIP3   OH2 3941   7.095   3.153   1.970 -0.3046 -0.3129 -0.5173
 1326TIP3    H1 3942   7.132   3.170   2.057  0.4575  2.6466 -1.3183
 1326TIP3    H2 3943   7.167   3.171   1.909 -1.9517  2.1164 -1.9273
 1327TIP3   OH2 3944   6.000   4.566   1.362  0.2773  0.7243  0.5735
 1327TIP3    H1 3945   6.089   4.531   1.359  0.6199  1.6031 -0.1371
 1327TIP3    H2 3946   6.005   4.648   1.313 -0.8521  0.9609  0.8193
 1328TIP3   OH2 3947   1.968   4.192   5.416 -0.2321  0.3446 -0.4293
 1328TIP3    H1 3948   1.962   4.221   5.325  0.8718 -0.4802 -0.7950
 1328TIP3    H2 3949   2.017   4.109   5.411 -1.2794 -0.3715  0.7904
 1329TIP3   OH2 3950   6.160   2.514   1.640  0.5660 -0.0984 -0.0451
 1329TIP3    H1 3951   6.135   2.606   1.648 -1.8171 -0.7390  0.9159
 1329TIP3    H2 3952   6.189   2.489   1.727 -1.5753 -0.9157  0.4937
 1330TIP3   OH2 3953   6.824   1.721   4.963 -0.0876  0.5414  0.4474
 1330TIP3    H1 3954   6.765   1.659   4.919  0.0807  1.4779 -1.1733
 1330TIP3    H2 3955   6.815   1.700   5.056 -2.5070  0.2303  0.2117
 1331TIP3   OH2 3956   5.400   3.439   2.927  0.0547  0.0299  0.4183
 1331TIP3    H1 3957   5.386   3.490   3.007 -1.7894  2.0152 -1.0426
 1331TIP3    H2 3958   5.469   3.487   2.881 -0.0161 -0.1916  0.0830
 1332TIP3   OH2 3959   3.915   4.131   4.843  0.0504 -0.7053 -0.0979
 1332TIP3    H1 3960   3.992   4.189   4.846 -0.0818 -0.5721  1.9947
 1332TIP3    H2 3961   3.951   4.046   4.818  0.9246 -0.6571  0.8967
 1333TIP3   OH2 3962   1.720   0.414   2.514 -0.0543  0.2669 -0.5415
 1333TIP3    H1 3963   1.637   0.426   2.467 -2.5958 -2.0758  2.9040
 1333TIP3    H2 3964   1.733   0.497   2.559 -1.0501  0.3500 -0.3775
 1334TIP3   OH2 3965   7.011   4.681   5.597 -0.7482  0.2352 -0.2455
 1334TIP3    H1 3966   7.033   4.735   5.673 -1.3415  0.7206 -0.4152
 1334TIP3    H2 3967   6.929   4.637   5.623 -1.2707  0.8543 -0.8277
 1335TIP3   OH2 3968   1.964   3.215   0.483 -0.6844 -0.0411  0.1147
 1335TIP3    H1 3969   1.897   3.278   0.510 -1.1658 -0.9360  1.0421
 1335TIP3    H2 3970   2.045   3.250   0.519 -0.7271  0.7433 -0.5179
 1336TIP3   OH2 3971   6.130   5.554   2.520  0.0991  0.2610 -0.3122
 1336TIP3    H1 3972   6.039   5.536   2.542 -0.3555  1.6477 -0.9868
 1336TIP3    H2 3973   6.139   5.522   2.430  0.9482 -1.9862  0.4895
 1337TIP3   OH2 3974   3.854   4.104   2.552 -0.1845 -0.6189 -0.6687
 1337TIP3    H1 3975   3.847   4.010   2.571 -0.0108 -0.8563 -1.6965
 1337TIP3    H2 3976   3.938   4.112   2.506  0.0680  0.1359 -0.0942
 1338TIP3   OH2 3977   1.173   5.836   4.482  0.1519  0.3040  0.2715
 1338TIP3    H1 3978   1.176   5.920   4.527 -1.2980 -0.3754  1.7480
 1338TIP3    H2 3979   1.187   5.771   4.550 -1.2593 -0.7326 -0.3660
 1339TIP3   OH2 3980   4.734   6.269   5.260 -0.2655 -0.1071  0.3716
 1339TIP3    H1 3981   4.810   6.235   5.307 -0.9621 -0.0749  1.5797
 1339TIP3    H2 3982   4.733   6.221   5.178  1.2924  0.1975  0.1455
 1340TIP3   OH2 3983   1.035   0.990   1.636  0.3956 -0.0120  0.1289
 1340TIP3    H1 3984   1.063   0.978   1.545 -3.0889 -0.7248 -1.0103
 1340TIP3    H2 3985   1.002   1.080   1.639  1.3953  0.3481  1.0285
 1341TIP3   OH2 3986   4.841   3.957   3.463  0.2472  0.1481 -0.2763
 1341TIP3    H1 3987   4.933   3.951   3.437  0.7112 -0.9513  1.4274
 1341TIP3    H2 3988   4.796   3.989   3.385  1.5822 -2.4248 -2.2758
 1342TIP3   OH2 3989   3.104   6.640   5.546  0.4264 -0.1363  0.1911
 1342TIP3    H1 3990   3.094   6.573   5.479  0.5421  1.5276 -1.5896
 1342TIP3    H2 3991   3.123   6.720   5.497  1.9189  0.9055  2.3068
 1343TIP3   OH2 3992   0.472   6.145   5.004  0.3732  0.1579 -0.3940
 1343TIP3    H1 3993   0.486   6.182   4.917  0.6878 -1.2760 -0.9953
 1343TIP3    H2 3994   0.510   6.057   4.998  3.2836  1.0756  2.1268
 1344TIP3   OH2 3995   4.545   3.108   2.159 -0.1839 -0.2815  0.3557
 1344TIP3    H1 3996   4.613   3.175   2.165 -0.7252  0.1966  1.3717
 1344TIP3    H2 3997   4.583   3.040   2.103 -0.5825  1.9922 -2.9562
 1345TIP3   OH2 3998   2.549   3.887   0.723  0.0238  0.0877 -0.1078
 1345TIP3    H1 3999   2.492   3.943   0.774  0.4381  1.0672 -0.6916
 1345TIP3    H2 4000   2.616   3.946   0.688 -0.4494 -0.4597 -2.0752
 1346TIP3   OH2 4001   2.534   0.868   3.684  0.1886 -0.0201  0.0843
 1346TIP3    H1 4002   2.541   0.786   3.733  0.7641 -0.6347 -0.9858
 1346TIP3    H2 4003   2.532   0.936   3.751 -0.1507 -0.8941  0.9889
 1347TIP3   OH2 4004   1.026   4.098   1.116  0.0873  0.4371  0.5267
 1347TIP3    H1 4005   1.104   4.137   1.155  1.7850 -2.6356  0.4519
 1347TIP3    H2 4006   0.966   4.085   1.189  0.6884  0.4770  1.0275
 1348TIP3   OH2 4007   2.562   0.049   2.531 -0.7977  0.1104 -0.0482
 1348TIP3    H1 4008   2.471   0.058   2.504 -1.1512 -2.5974 -0.0648
 1348TIP3    H2 4009   2.559   0.051   2.627 -0.8024  0.6044 -0.0601
 1349TIP3   OH2 4010   6.287   4.000   4.306 -0.3738 -0.0330 -0.1876
 1349TIP3    H1 4011   6.241   3.955   4.376 -0.2837  0.3589  0.1266
 1349TIP3    H2 4012   6.233   3.985   4.228 -1.3525  0.9141  0.2863
 1350TIP3   OH2 4013   1.784   3.286   4.074 -0.1668 -0.0377 -0.0004
 1350TIP3    H1 4014   1.778   3.318   4.164  0.3181  0.0448  0.0046
 1350TIP3    H2 4015   1.819   3.359   4.024  0.5169 -0.4045 -0.0717
 1351TIP3   OH2 4016   6.993   2.351   2.606  0.5385  0.2291  0.3487
 1351TIP3    H1 4017   6.915   2.348   2.661  0.0588  0.6761 -0.3066
 1351TIP3    H2 4018   7.053   2.290   2.648 -0.4952 -0.8201  0.3507
 1352TIP3   OH2 4019   7.124   3.105   5.253 -0.4784  0.1419 -0.2019
 1352TIP3    H1 4020   7.129   3.041   5.183 -1.4244  0.2210 -0.3598
 1352TIP3    H2 4021   7.030   3.114   5.271 -0.2343 -0.8790  1.9870
 1353TIP3   OH2 4022   0.903   3.424   4.309  0.5766 -0.4548  0.4265
 1353TIP3    H1 4023   0.976   3.426   4.247  1.2027  0.0564  1.1641
 1353TIP3    H2 4024   0.829   3.392   4.257  0.9818  0.3354 -0.6777
 1354TIP3   OH2 4025   0.065   4.786   1.067  0.1040  0.1820 -0.1722
 1354TIP3    H1 4026   0.013   4.725   1.119  0.2259  0.4141  0.2227
 1354TIP3    H2 4027   0.132   4.731   1.026  0.4247  0.0950  0.4549
 1355TIP3   OH2 4028   5.133   4.339   1.991  0.3808  0.0027  0.0962
 1355TIP3    H1 4029   5.184   4.412   2.027 -0.4011 -0.2969  1.8863
 1355TIP3    H2 4030   5.059   4.329   2.051 -0.6367 -0.9708 -1.2484
 1356TIP3   OH2 4031   4.899   0.546   1.323  0.0711  0.4789  0.1826
 1356TIP3    H1 4032   4.875   0.638   1.313 -0.5833  0.2918  0.0172
 1356TIP3    H2 4033   4.834   0.498   1.272  0.7831 -0.0380 -0.2567
 1357TIP3   OH2 4034   7.035   3.675   4.251 -0.5176  0.2356  0.0588
 1357TIP3    H1 4035   6.943   3.650   4.262 -0.5295  0.1143 -0.3052
 1357TIP3    H2 4036   7.039   3.766   4.279 -1.1171  0.8312 -1.6633
 1358TIP3   OH2 4037   2.650   3.631   2.613  0.4764 -0.4284  0.5404
 1358TIP3    H1 4038   2.678   3.542   2.590 -0.2635 -0.4357 -0.3776
 1358TIP3    H2 4039   2.663   3.682   2.533 -0.5927 -0.0800  0.5659
 1359TIP3   OH2 4040   5.054   6.272   0.585  0.4464  0.1018 -0.3397
 1359TIP3    H1 4041   5.106   6.306   0.657  0.4411 -0.8301  0.1244
 1359TIP3    H2 4042   4.984   6.221   0.628  1.8521 -2.5528 -0.9704
 1360TIP3   OH2 4043   4.256   1.322   5.546 -0.1054 -0.2757 -0.1483
 1360TIP3    H1 4044   4.297   1.259   5.606 -0.8217  0.0073  0.6493
 1360TIP3    H2 4045   4.281   1.292   5.459  0.0425 -1.3303  0.2488
 1361TIP3   OH2 4046   3.949   1.020   3.573  0.7472 -0.2442 -0.1318
 1361TIP3    H1 4047   4.020   0.962   3.603  0.6139 -0.7565 -0.7676
 1361TIP3    H2 4048   3.877   1.003   3.632  0.6734 -0.8182 -0.3827
 1362TIP3   OH2 4049   7.006   6.452   3.654  0.2900 -0.3062  0.1039
 1362TIP3    H1 4050   6.990   6.429   3.745  1.3498  0.7326  0.5806
 1362TIP3    H2 4051   7.050   6.375   3.617  0.7794 -0.3409  0.7473
 1363TIP3   OH2 4052   1.776   0.512   5.713  0.2886 -0.2016  0.2775
 1363TIP3    H1 4053   1.731   0.588   5.749 -0.0671 -1.4449  2.6670
 1363TIP3    H2 4054   1.789   0.454   5.788  2.9998 -1.3328 -0.9197
 1364TIP3   OH2 4055   2.913   3.385   5.044  0.4583 -0.3044 -0.2501
 1364TIP3    H1 4056   2.912   3.416   4.954  0.2493 -2.6916 -1.1512
 1364TIP3    H2 4057   2.827   3.346   5.057  0.1882  0.7534  1.2831
 1365TIP3   OH2 4058   2.945   0.014   3.507  0.4639  0.2663 -0.1410
 1365TIP3    H1 4059   2.851   0.021   3.494  0.5497  0.0607 -0.9354
 1365TIP3    H2 4060   2.975   0.105   3.513  0.0849  0.3184  1.2037
 1366TIP3   OH2 4061   4.169   5.795   3.108 -0.4818 -0.1860  0.2634
 1366TIP3    H1 4062   4.257   5.812   3.139 -0.0969  0.7879 -1.2685
 1366TIP3    H2 4063   4.127   5.881   3.104 -1.8217 -0.7272  1.8236
 1367TIP3   OH2 4064   1.748   1.035   4.850  0.6924  0.3522  0.0595
 1367TIP3    H1 4065   1.684   1.097   4.815  0.8224 -0.1070 -1.0198
 1367TIP3    H2 4066   1.704   0.950   4.848  0.6125  0.3493  1.2822
 1368TIP3   OH2 4067   1.445   0.084   5.066  0.4562 -0.4156  0.0512
 1368TIP3    H1 4068   1.403   0.015   5.015  0.5219 -0.1501 -0.3675
 1368TIP3    H2 4069   1.426   0.062   5.157  0.8163 -1.2083 -0.0543
 1369TIP3   OH2 4070   3.540   2.234   2.152 -0.0079  0.1022  0.1335
 1369TIP3    H1 4071   3.448   2.222   2.132 -0.1876 -0.6742  1.3168
 1369TIP3    H2 4072   3.543   2.309   2.211 -0.0311 -0.5890  1.0362
 1370TIP3   OH2 4073   6.357   4.016   1.906  0.3573 -0.3429  0.4526
 1370TIP3    H1 4074   6.406   4.056   1.978 -1.0472  0.4663  1.0044
 1370TIP3    H2 4075   6.281   4.073   1.894  0.3795 -0.6472 -1.4620
 1371TIP3   OH2 4076   3.736   3.885   3.610  0.8773  0.6508  0.2364
 1371TIP3    H1 4077   3.801   3.905   3.543  1.5117 -3.2390 -0.5457
 1371TIP3    H2 4078   3.768   3.806   3.652 -2.5135 -0.4926  1.0024
 1372TIP3   OH2 4079   0.670   5.925   3.980  0.3847  0.0361 -0.4612
 1372TIP3    H1 4080   0.687   5.899   4.071  0.7481 -1.4395 -0.9319
 1372TIP3    H2 4081   0.748   5.974   3.954  0.0551  0.9235  0.1716
 1373TIP3   OH2 4082   0.446   4.849   2.301 -0.0136  0.5547  0.2760
 1373TIP3    H1 4083   0.411   4.831   2.214  1.3471 -0.0037 -0.1867
 1373TIP3    H2 4084   0.463   4.762   2.339 -1.0465  0.7816  1.3031
 1374TIP3   OH2 4085   6.325   6.801   0.478  0.3651 -0.5663 -0.2233
 1374TIP3    H1 4086   6.344   6.753   0.558  1.5755  3.0575  1.8950
 1374TIP3    H2 4087   6.232   6.825   0.486  0.3593 -0.6081 -0.1640
 1375TIP3   OH2 4088   3.072   2.226   4.924  0.1414  0.0181  0.0403
 1375TIP3    H1 4089   3.159   2.196   4.897 -0.0850 -0.4273 -0.2176
 1375TIP3    H2 4090   3.077   2.321   4.924  0.2169  0.0341 -1.3600
 1376TIP3   OH2 4091   4.423   5.880   3.886  0.3611 -0.0013  0.2583
 1376TIP3    H1 4092   4.497   5.927   3.848 -0.0519  0.0996 -0.4412
 1376TIP3    H2 4093   4.443   5.876   3.980  0.7105  1.0083  0.2431
 1377TIP3   OH2 4094   0.740   4.281   4.644  0.3850  0.7546  0.2247
 1377TIP3    H1 4095   0.784   4.230   4.576 -1.3778 -0.5141 -0.0412
 1377TIP3    H2 4096   0.780   4.253   4.726 -2.1492 -3.1530  0.4064
 1378TIP3   OH2 4097   2.334   6.376   0.400  0.3628 -0.2882 -0.1593
 1378TIP3    H1 4098   2.255   6.342   0.357 -0.5039  1.0045  0.3560
 1378TIP3    H2 4099   2.399   6.306   0.389 -1.3877 -2.2465  1.0354
 1379TIP3   OH2 4100   5.282   2.076   1.827  0.3010  0.0702  0.2241
 1379TIP3    H1 4101   5.277   2.025   1.746 -3.3087  0.2932  0.1570
 1379TIP3    H2 4102   5.242   2.020   1.893 -0.0581  1.2411  1.0256
 1380TIP3   OH2 4103   2.438   5.460   2.005  0.6854 -0.5714  0.0383
 1380TIP3    H1 4104   2.420   5.378   1.958  1.5673 -0.4489 -0.5537
 1380TIP3    H2 4105   2.379   5.459   2.080 -1.4072 -0.3803 -1.5160
 1381TIP3   OH2 4106   3.253   2.910   0.337 -0.0446 -0.4713  0.8293
 1381TIP3    H1 4107   3.161   2.914   0.314 -0.2567 -0.9220  1.5550
 1381TIP3    H2 4108   3.296   2.875   0.259 -0.1881  1.5427 -0.2154
 1382TIP3   OH2 4109   6.358   6.338   5.325  0.9551  0.2629  0.0108
 1382TIP3    H1 4110   6.288   6.336   5.260 -0.4164 -2.3719  1.4097
 1382TIP3    H2 4111   6.346   6.422   5.370 -1.3573 -0.0857  0.1842
 1383TIP3   OH2 4112   0.440   5.430   3.931 -0.2115 -0.2787 -0.3022
 1383TIP3    H1 4113   0.466   5.342   3.957  2.1482  0.1157 -1.0820
 1383TIP3    H2 4114   0.455   5.483   4.010 -0.1431 -0.3078 -0.2956
 1384TIP3   OH2 4115   5.294   6.112   1.243 -0.0583  0.0560 -0.3815
 1384TIP3    H1 4116   5.287   6.164   1.323 -0.3025  1.1246 -1.0764
 1384TIP3    H2 4117   5.380   6.070   1.249 -0.5772 -0.8629  1.0059
 1385TIP3   OH2 4118   1.765   6.384   5.570 -0.4695  0.4357 -0.1195
 1385TIP3    H1 4119   1.834   6.348   5.625 -0.8720 -1.2698 -0.6721
 1385TIP3    H2 4120   1.705   6.427   5.631 -1.0569 -1.6486  0.8681
 1386TIP3   OH2 4121   5.176   1.873   5.189  0.1331 -0.3242 -0.2715
 1386TIP3    H1 4122   5.245   1.918   5.140  1.2414  0.1829  1.6646
 1386TIP3    H2 4123   5.205   1.782   5.192  0.0346 -0.3687 -0.5687
 1387TIP3   OH2 4124   4.261   3.577   0.115  0.2833  1.0250 -0.6331
 1387TIP3    H1 4125   4.290   3.667   0.100 -0.9644  1.3078 -1.4700
 1387TIP3    H2 4126   4.171   3.574   0.082  0.2555 -0.4928 -0.5133
 1388TIP3   OH2 4127   6.598   2.987   2.518  0.9727 -0.1453  0.2928
 1388TIP3    H1 4128   6.564   2.914   2.569  1.8399 -1.8336 -1.4123
 1388TIP3    H2 4129   6.524   3.016   2.465  0.5959  0.3107  1.0559
 1389TIP3   OH2 4130   2.258   6.282   1.134  0.7412 -0.3586 -0.2830
 1389TIP3    H1 4131   2.173   6.326   1.138  1.0077  0.1083  0.6643
 1389TIP3    H2 4132   2.236   6.189   1.119  0.1404 -0.0541 -1.4420
 1390TIP3   OH2 4133   6.776   0.617   5.081  0.6143  0.3101  0.4240
 1390TIP3    H1 4134   6.799   0.526   5.063 -0.8929 -0.0025 -0.0460
 1390TIP3    H2 4135   6.841   0.645   5.145  1.9267 -0.6646 -0.4125
 1391TIP3   OH2 4136   4.109   1.769   5.332  0.5771  0.3819  0.0800
 1391TIP3    H1 4137   4.056   1.824   5.390 -0.2788  0.2752 -0.5715
 1391TIP3    H2 4138   4.196   1.808   5.334  0.5081  0.5085  1.2572
 1392TIP3   OH2 4139   2.309   2.803   1.269  0.1969  0.1726  0.1205
 1392TIP3    H1 4140   2.236   2.865   1.274  0.1683  0.1301  0.2504
 1392TIP3    H2 4141   2.387   2.858   1.262  0.0666  0.2096 -1.4346
 1393TIP3   OH2 4142   5.152   4.262   4.687  0.0969 -0.1613 -0.1823
 1393TIP3    H1 4143   5.209   4.272   4.611 -1.6652  0.6497 -1.4475
 1393TIP3    H2 4144   5.173   4.175   4.721  2.6841  0.4176 -0.0322
 1394TIP3   OH2 4145   4.098   6.697   5.165  0.5016 -0.2501 -0.8183
 1394TIP3    H1 4146   4.023   6.654   5.207  0.3819 -3.1774 -3.5667
 1394TIP3    H2 4147   4.070   6.787   5.152 -0.5680  0.0174  2.4223
 1395TIP3   OH2 4148   1.548   4.599   4.130  0.0524  0.0835 -0.5137
 1395TIP3    H1 4149   1.593   4.677   4.099  0.1779  0.6112  0.8922
 1395TIP3    H2 4150   1.493   4.571   4.057 -0.3655  1.7769 -0.8716
 1396TIP3   OH2 4151   0.204   5.875   1.934  0.4063  0.3270  0.0299
 1396TIP3    H1 4152   0.131   5.820   1.908  0.6934 -1.2167  2.1972
 1396TIP3    H2 4153   0.274   5.854   1.872 -0.1905 -0.0521 -0.5192
 1397TIP3   OH2 4154   1.009   4.605   1.934  0.2808  0.0634 -0.2608
 1397TIP3    H1 4155   1.005   4.599   2.030  0.2114  0.1325 -0.2593
 1397TIP3    H2 4156   0.972   4.523   1.903 -1.6351  0.8951 -0.2613
 1398TIP3   OH2 4157   0.766   2.504   0.950  0.4986  0.8327 -0.1280
 1398TIP3    H1 4158   0.780   2.488   1.043  0.9545  0.1789 -0.3019
 1398TIP3    H2 4159   0.829   2.447   0.906  2.8124  3.6937 -0.8016
 1399TIP3   OH2 4160   4.138   2.512   1.403 -0.2186 -0.7141 -0.2504
 1399TIP3    H1 4161   4.060   2.492   1.350 -1.2116 -0.9290  1.2305
 1399TIP3    H2 4162   4.210   2.472   1.355 -1.0540 -0.7791 -1.5082
 1400TIP3   OH2 4163   0.066   4.319   0.301 -0.5226  0.0577 -0.4713
 1400TIP3    H1 4164  -0.020   4.360   0.310 -0.3494  0.3936 -0.3387
 1400TIP3    H2 4165   0.114   4.376   0.241  0.1998  0.8352  0.8000
 1401TIP3   OH2 4166   4.250   6.491   5.091  0.3886  0.3215  0.0176
 1401TIP3    H1 4167   4.173   6.538   5.122 -0.4909  0.1758 -1.8427
 1401TIP3    H2 4168   4.274   6.535   5.009  2.0867  0.1446  0.3762
 1402TIP3   OH2 4169   2.284   5.049   0.218  0.2905 -0.3402  0.0146
 1402TIP3    H1 4170   2.262   4.990   0.146 -0.5597 -1.8253  1.4473
 1402TIP3    H2 4171   2.321   5.126   0.174 -1.3475 -0.6406 -2.1075
 1403TIP3   OH2 4172   0.335   4.303   4.929  0.0315 -0.6549  0.6541
 1403TIP3    H1 4173   0.398   4.321   4.998  0.5522  0.3563 -0.0773
 1403TIP3    H2 4174   0.289   4.386   4.916 -1.3317 -1.3128  1.0267
 1404TIP3   OH2 4175   5.611   6.385   1.199 -0.3200 -0.6390  0.6479
 1404TIP3    H1 4176   5.695   6.339   1.205 -0.6602 -1.2356  0.9630
 1404TIP3    H2 4177   5.556   6.343   1.265 -0.3292  0.9353  1.6693
 1405TIP3   OH2 4178   6.863   3.824   3.444  0.3807  0.0023  0.0116
 1405TIP3    H1 4179   6.879   3.918   3.436 -0.9718  0.1357 -2.1611
 1405TIP3    H2 4180   6.776   3.817   3.482  0.1513 -0.3392 -0.5603
 1406TIP3   OH2 4181   2.970   6.678   2.768 -0.1350 -0.2645  0.1558
 1406TIP3    H1 4182   3.007   6.718   2.847 -0.2131 -0.1738  0.1464
 1406TIP3    H2 4183   2.876   6.684   2.780 -0.2571  2.3336 -1.2031
 1407TIP3   OH2 4184   5.805   2.951   1.292  0.2489 -0.4265  0.2247
 1407TIP3    H1 4185   5.834   2.860   1.299  0.5118 -0.3645 -0.0717
 1407TIP3    H2 4186   5.722   2.946   1.244 -0.3108 -0.6142  1.1828
 1408TIP3   OH2 4187   3.092   1.248   2.947  0.0715 -0.1779 -0.4590
 1408TIP3    H1 4188   3.091   1.244   2.852  0.8637 -0.2809 -0.4672
 1408TIP3    H2 4189   2.999   1.245   2.972 -0.3546  2.7579 -1.3214
 1409TIP3   OH2 4190   2.461   4.860   5.516  0.2749  0.3587  0.3508
 1409TIP3    H1 4191   2.503   4.925   5.460  2.4460 -1.8467 -0.7486
 1409TIP3    H2 4192   2.511   4.861   5.597 -0.3184  0.6964  0.7262
 1410TIP3   OH2 4193   1.671   4.747   5.642  0.5207 -0.0462  0.3766
 1410TIP3    H1 4194   1.619   4.814   5.598 -0.3255 -0.9175  0.0105
 1410TIP3    H2 4195   1.741   4.795   5.685  0.2596  1.0170 -0.3500
 1411TIP3   OH2 4196   1.758   1.520   1.201 -1.0437  0.1779 -0.0415
 1411TIP3    H1 4197   1.692   1.586   1.181  1.2102  2.1118 -1.6427
 1411TIP3    H2 4198   1.830   1.569   1.241 -0.0571 -1.6305  0.5257
 1412TIP3   OH2 4199   0.997   2.096   4.934 -0.0714  0.2181 -0.0957
 1412TIP3    H1 4200   0.998   2.179   4.885 -0.1498 -1.2005 -2.6771
 1412TIP3    H2 4201   1.089   2.074   4.947  0.0739 -0.9031 -2.5009
 1413TIP3   OH2 4202   2.721   3.986   2.310 -0.3233 -0.4956 -0.3861
 1413TIP3    H1 4203   2.744   3.931   2.385 -0.7368 -2.3022 -1.5251
 1413TIP3    H2 4204   2.712   3.925   2.237  0.1287  1.2114 -1.9466
 1414TIP3   OH2 4205   2.222   0.561   4.306  0.1264 -0.0795 -0.5484
 1414TIP3    H1 4206   2.312   0.589   4.317  0.4200 -1.0807 -0.2663
 1414TIP3    H2 4207   2.171   0.642   4.305  0.9378  0.4509  0.1414
 1415TIP3   OH2 4208   1.956   6.443   2.100 -0.1556 -0.2893 -0.3867
 1415TIP3    H1 4209   1.905   6.438   2.181 -1.4042 -0.7695 -1.1631
 1415TIP3    H2 4210   2.042   6.476   2.127 -0.1419 -1.5692  1.2875
 1416TIP3   OH2 4211   0.139   2.244   0.533  0.6047  0.0612 -0.0970
 1416TIP3    H1 4212   0.066   2.207   0.484  0.7366 -0.5532  0.1574
 1416TIP3    H2 4213   0.209   2.179   0.525  1.0390  0.5327 -0.1380
 1417TIP3   OH2 4214   0.965   5.984   5.854 -0.3782 -0.1676 -0.0550
 1417TIP3    H1 4215   1.012   6.026   5.927  0.7542 -2.0076  0.3350
 1417TIP3    H2 4216   1.025   5.994   5.779 -0.8689  0.3943 -0.3775
 1418TIP3   OH2 4217   2.928   5.794   2.003 -0.0809  0.1164  0.2194
 1418TIP3    H1 4218   2.881   5.855   1.946  1.5001 -1.3426 -2.8796
 1418TIP3    H2 4219   2.876   5.714   2.001 -0.0839  0.0842  1.0173
 1419TIP3   OH2 4220   2.492   1.878  -0.015  0.3047  0.3849  0.6412
 1419TIP3    H1 4221   2.412   1.888   0.036  0.1337 -0.3452  0.5275
 1419TIP3    H2 4222   2.548   1.822   0.039  0.2306 -0.1633  0.1595
 1420TIP3   OH2 4223   4.320   0.652   1.278  0.1855 -0.2155 -0.3854
 1420TIP3    H1 4224   4.350   0.722   1.335  0.2568 -1.6799  1.4444
 1420TIP3    H2 4225   4.357   0.572   1.316 -1.1447 -1.4188 -1.5226
 1421TIP3   OH2 4226   4.995   5.807   3.852 -0.2060  0.3333 -0.6461
 1421TIP3    H1 4227   5.003   5.900   3.877  0.1855  0.2181 -0.3245
 1421TIP3    H2 4228   4.932   5.771   3.913 -0.0751  0.3027 -0.5289
 1422TIP3   OH2 4229   6.475   4.935   5.411  0.2606  0.2263  0.1451
 1422TIP3    H1 4230   6.415   4.994   5.365 -0.3870 -0.9868 -0.6005
 1422TIP3    H2 4231   6.429   4.851   5.414  1.9830 -0.7843 -0.5966
 1423TIP3   OH2 4232   1.797   4.987   5.772  0.0495  0.1188  0.0359
 1423TIP3    H1 4233   1.761   4.988   5.860 -1.4177 -0.4825 -0.5222
 1423TIP3    H2 4234   1.878   5.038   5.778  0.3709 -0.5492  1.8761
 1424TIP3   OH2 4235   2.506   2.166   4.236 -0.3438  0.1212  0.0864
 1424TIP3    H1 4236   2.415   2.151   4.261 -0.1833 -0.4538  0.3589
 1424TIP3    H2 4237   2.556   2.154   4.317  0.1366 -1.3056 -0.3896
 1425TIP3   OH2 4238   4.871   1.416   0.665 -0.0015 -0.4637 -0.0137
 1425TIP3    H1 4239   4.800   1.402   0.603  0.3035  1.2359 -0.8342
 1425TIP3    H2 4240   4.869   1.341   0.723 -2.7286 -0.2698  0.2479
 1426TIP3   OH2 4241   5.272   5.521   4.146  0.0944 -0.3678 -0.0521
 1426TIP3    H1 4242   5.298   5.603   4.105 -1.7148 -0.1885 -0.9506
 1426TIP3    H2 4243   5.177   5.521   4.142 -0.1005 -1.2403  2.4883
 1427TIP3   OH2 4244   3.999   6.344   0.535 -0.6020  0.1447 -0.4648
 1427TIP3    H1 4245   4.069   6.339   0.470  0.2131  0.7091  0.3266
 1427TIP3    H2 4246   3.971   6.253   0.548 -0.0611 -0.0810 -0.8576
 1428TIP3   OH2 4247   6.905   3.079   4.203  0.1475  0.2020  0.4419
 1428TIP3    H1 4248   6.893   2.990   4.169 -0.5591  0.2182  0.6330
 1428TIP3    H2 4249   6.996   3.083   4.230  0.7397  0.1804 -1.4345
 1429TIP3   OH2 4250   3.565   2.312   4.286  0.0765 -0.2239 -0.2191
 1429TIP3    H1 4251   3.632   2.283   4.348 -0.8940 -1.0265  0.4992
 1429TIP3    H2 4252   3.613   2.330   4.205  1.5911  2.2775  1.1300
 1430TIP3   OH2 4253   4.391   3.890   1.431 -0.2391  0.1330 -0.2666
 1430TIP3    H1 4254   4.360   3.896   1.522  0.8309  1.5034  0.0309
 1430TIP3    H2 4255   4.439   3.807   1.428 -1.3434 -0.5442  0.0598
 1431TIP3   OH2 4256   4.452   1.308   0.319  0.4816  0.2193  0.3206
 1431TIP3    H1 4257   4.414   1.378   0.264  0.9154  0.9568  0.9437
 1431TIP3    H2 4258   4.381   1.284   0.378 -0.6292 -1.9060 -1.7289
 1432TIP3   OH2 4259   0.049   5.290   1.054 -0.1147 -0.0515  0.3240
 1432TIP3    H1 4260   0.118   5.237   1.094  1.5177  0.5580 -1.5318
 1432TIP3    H2 4261   0.049   5.372   1.103  0.9254  0.1728 -0.0368
 1433TIP3   OH2 4262   5.285   2.072   4.759  0.1935 -0.4882  0.4428
 1433TIP3    H1 4263   5.240   2.140   4.808  1.0256 -0.0638  0.6323
 1433TIP3    H2 4264   5.256   2.085   4.668 -2.2021 -1.9540  0.8993
 1434TIP3   OH2 4265   3.224   2.211   1.875 -0.3829  0.3449  0.1342
 1434TIP3    H1 4266   3.142   2.250   1.845 -0.9827 -0.5537  0.5576
 1434TIP3    H2 4267   3.292   2.270   1.843 -1.1166  0.4481 -1.2894
 1435TIP3   OH2 4268   5.004   1.928   1.300 -0.5092  0.2650  0.2626
 1435TIP3    H1 4269   5.023   1.837   1.281 -1.1971  0.3660 -1.0205
 1435TIP3    H2 4270   5.080   1.976   1.266  0.0027  0.1560  1.2316
 1436TIP3   OH2 4271   1.469   1.472   0.076 -0.4537 -0.3708  0.0941
 1436TIP3    H1 4272   1.531   1.534   0.115  0.8581 -0.9339 -0.9893
 1436TIP3    H2 4273   1.407   1.453   0.146  3.0639 -3.1153  2.9090
 1437TIP3   OH2 4274   3.661   6.158   2.709  0.1192 -0.4564 -0.1396
 1437TIP3    H1 4275   3.728   6.117   2.654  1.0756 -0.9084  1.3100
 1437TIP3    H2 4276   3.710   6.217   2.766 -0.8897  0.2605  0.0043
 1438TIP3   OH2 4277   5.590   0.955   1.567  0.1708 -0.2440 -0.2957
 1438TIP3    H1 4278   5.535   0.936   1.491 -0.1408 -1.0939  0.1239
 1438TIP3    H2 4279   5.609   1.048   1.560 -1.3446  0.0832 -0.4456
 1439TIP3   OH2 4280   4.574   0.764   0.292 -0.4364 -0.1844 -0.2083
 1439TIP3    H1 4281   4.533   0.843   0.326 -0.7003  0.3045 -1.5830
 1439TIP3    H2 4282   4.648   0.796   0.241 -1.1904 -0.7180 -1.6916
 1440TIP3   OH2 4283   5.166   1.509   0.273  0.0303  0.6530 -0.6127
 1440TIP3    H1 4284   5.183   1.415   0.283  1.2947  0.9151 -0.0399
 1440TIP3    H2 4285   5.091   1.514   0.214  0.2250 -0.7087 -1.0096
 1441TIP3   OH2 4286   4.439   2.091   1.324 -0.1393  0.2173  0.8352
 1441TIP3    H1 4287   4.447   2.185   1.344  0.1974  0.0330  1.6000
 1441TIP3    H2 4288   4.518   2.070   1.275 -1.2226  0.7917 -1.2666
 1442TIP3   OH2 4289   1.220   3.748   4.921  0.1741 -0.5395 -0.6394
 1442TIP3    H1 4290   1.248   3.833   4.885  0.8101 -0.4434  0.0673
 1442TIP3    H2 4291   1.201   3.766   5.013 -1.9614 -0.6730 -1.0012
 1443TIP3   OH2 4292   1.746   4.969   0.367 -0.1651  0.4671 -0.3268
 1443TIP3    H1 4293   1.818   5.030   0.353 -1.1557  1.5504 -0.8303
 1443TIP3    H2 4294   1.733   4.968   0.461  1.3346 -0.7572 -0.0814
 1444TIP3   OH2 4295   4.558   4.694   1.261 -0.4138  0.2841 -0.2253
 1444TIP3    H1 4296   4.482   4.639   1.281 -1.5236  1.1378 -1.8863
 1444TIP3    H2 4297   4.579   4.674   1.169  0.1190  1.5229 -0.3903
 1445TIP3   OH2 4298   5.903   2.643   3.477 -1.0667  0.0255 -0.4632
 1445TIP3    H1 4299   5.932   2.593   3.553 -0.7361 -0.4601 -0.9017
 1445TIP3    H2 4300   5.894   2.577   3.407  2.3196  0.9273 -1.9282
 1446TIP3   OH2 4301   2.763   5.076   4.074 -0.0126 -0.7605  0.6285
 1446TIP3    H1 4302   2.745   5.169   4.070  0.1275 -0.7651 -0.5384
 1446TIP3    H2 4303   2.715   5.045   4.151  0.5442  0.3920  1.4572
 1447TIP3   OH2 4304   2.335   5.404   1.385  0.0575  0.2844  0.6186
 1447TIP3    H1 4305   2.316   5.376   1.475 -0.8020 -1.1783  0.0252
 1447TIP3    H2 4306   2.386   5.331   1.348  0.6363  0.9883 -0.0080
 1448TIP3   OH2 4307   4.991   5.283   0.748 -0.3964  0.0288 -0.2640
 1448TIP3    H1 4308   4.974   5.197   0.710  0.3706  0.3962 -1.4871
 1448TIP3    H2 4309   4.976   5.345   0.676  1.8149  0.7020 -0.2198
 1449TIP3   OH2 4310   6.321   2.291   2.183  0.0616 -0.0584 -0.0859
 1449TIP3    H1 4311   6.378   2.355   2.226  1.7314 -1.0503 -0.7469
 1449TIP3    H2 4312   6.244   2.286   2.240  1.1932  0.3466  1.5706
 1450TIP3   OH2 4313   1.182   0.619   1.097 -0.7554 -0.0834 -0.0507
 1450TIP3    H1 4314   1.204   0.601   1.006  0.3519 -0.1676  0.2188
 1450TIP3    H2 4315   1.108   0.560   1.116  0.5960 -1.9011 -0.1853
 1451TIP3   OH2 4316   3.043   4.430   4.142  0.3376  0.2570 -0.3889
 1451TIP3    H1 4317   3.028   4.491   4.070 -1.0893  0.0147 -0.3145
 1451TIP3    H2 4318   3.074   4.486   4.214  1.0579  0.5922 -0.9411
 1452TIP3   OH2 4319   2.205   1.525   2.729 -0.4387 -0.2029 -0.0434
 1452TIP3    H1 4320   2.130   1.563   2.684 -0.6623 -0.0122  0.4919
 1452TIP3    H2 4321   2.205   1.433   2.704  1.4074  0.4992 -3.2049
 1453TIP3   OH2 4322   1.527   3.238   3.964 -0.1512  0.2147  0.5794
 1453TIP3    H1 4323   1.612   3.251   4.006  0.0815 -1.8437  0.8555
 1453TIP3    H2 4324   1.498   3.152   3.995  0.1751 -1.6434 -3.6640
 1454TIP3   OH2 4325   4.298   0.527   0.858 -0.2245  0.6603 -0.6259
 1454TIP3    H1 4326   4.213   0.571   0.852 -0.6823 -0.3309 -1.9116
 1454TIP3    H2 4327   4.309   0.484   0.774  1.4102  0.4648 -0.3505
 1455TIP3   OH2 4328   4.436   5.614   1.970 -0.0129  0.1659  0.2300
 1455TIP3    H1 4329   4.434   5.591   1.877 -1.0128 -1.2603  0.5646
 1455TIP3    H2 4330   4.470   5.703   1.972  0.4877  0.0486 -1.4638
 1456TIP3   OH2 4331   1.961   3.942   4.345  0.0911 -0.6284 -0.1957
 1456TIP3    H1 4332   1.959   4.012   4.410 -0.2454  0.3554 -1.2330
 1456TIP3    H2 4333   2.034   3.887   4.372 -0.6191 -0.7978  1.5506
 1457TIP3   OH2 4334   4.084   0.741   5.751  0.2535  0.7795 -0.6250
 1457TIP3    H1 4335   4.175   0.710   5.758  0.0534  0.1598 -0.7221
 1457TIP3    H2 4336   4.056   0.710   5.665  0.3852  2.1456 -1.1824
 1458TIP3   OH2 4337   4.359   4.201   2.357  0.7145  1.2689  0.5240
 1458TIP3    H1 4338   4.427   4.184   2.422  0.4895  0.9621  0.6759
 1458TIP3    H2 4339   4.386   4.150   2.280  1.3048  2.1073  0.1587
 1459TIP3   OH2 4340   1.895   1.051   0.238 -0.0062 -0.6195  0.2714
 1459TIP3    H1 4341   1.944   1.068   0.158  2.8647  1.7470  2.2875
 1459TIP3    H2 4342   1.842   1.129   0.251  0.6994 -0.2775  1.3296
 1460TIP3   OH2 4343   2.672   4.218   0.099  0.9277 -0.5573 -0.1518
 1460TIP3    H1 4344   2.669   4.203   0.005 -0.0462 -0.8508 -0.0826
 1460TIP3    H2 4345   2.762   4.246   0.116  1.1864 -0.7706 -1.1241
 1461TIP3   OH2 4346   2.471   2.251   4.549 -0.6169  0.7149 -0.0846
 1461TIP3    H1 4347   2.455   2.200   4.629  0.0619  1.5802  0.6375
 1461TIP3    H2 4348   2.386   2.291   4.529 -1.4631 -1.5721 -1.3480
 1462TIP3   OH2 4349   2.946   1.968   1.135 -0.3455 -0.6474 -0.4419
 1462TIP3    H1 4350   2.939   1.904   1.064 -1.9597 -0.5584 -0.4109
 1462TIP3    H2 4351   2.862   2.013   1.133 -0.0839 -0.0737  1.0009
 1463TIP3   OH2 4352   6.805   1.074   1.964  0.6229  0.4076 -0.4026
 1463TIP3    H1 4353   6.751   1.003   1.929  0.2070  0.0611  0.8928
 1463TIP3    H2 4354   6.871   1.030   2.017  0.5352  0.9666  0.1797
 1464TIP3   OH2 4355   3.671   0.918   2.901  0.3654  0.5316  0.2342
 1464TIP3    H1 4356   3.716   0.980   2.844 -0.2819  1.3530  0.5914
 1464TIP3    H2 4357   3.684   0.953   2.989 -0.5848  0.5412  0.3809
 1465TIP3   OH2 4358   7.122   3.336   4.342 -0.3963 -0.0735  0.0967
 1465TIP3    H1 4359   7.066   3.377   4.408 -1.0357 -0.2267 -0.3385
 1465TIP3    H2 4360   7.127   3.244   4.368  2.7444  0.5761  2.2663
 1466TIP3   OH2 4361   6.707   1.710   2.053 -0.2119 -0.3949 -0.2751
 1466TIP3    H1 4362   6.730   1.634   2.107 -0.8286 -0.0030  0.5723
 1466TIP3    H2 4363   6.625   1.684   2.011 -0.3847 -0.2316 -0.0413
 1467TIP3   OH2 4364   3.079   5.000   2.938  0.0794  0.1372  0.5371
 1467TIP3    H1 4365   3.106   5.083   2.977 -1.3365 -0.0850  2.1356
 1467TIP3    H2 4366   3.150   4.939   2.959  0.7203  0.7379  0.1201
 1468TIP3   OH2 4367   6.379   0.270   1.996 -0.0130  0.2205  1.1688
 1468TIP3    H1 4368   6.305   0.250   2.053 -1.5033  0.3347 -0.6308
 1468TIP3    H2 4369   6.362   0.220   1.917  1.9002  0.1987  0.7287
 1469TIP3   OH2 4370   5.896   2.430   0.937 -0.2355  0.7224  0.1513
 1469TIP3    H1 4371   5.916   2.337   0.925  1.6053  1.1407 -0.2673
 1469TIP3    H2 4372   5.866   2.435   1.028  3.3024  0.1891  1.5303
 1470TIP3   OH2 4373   3.408   1.736   1.273  0.6355  0.4026  0.1091
 1470TIP3    H1 4374   3.312   1.729   1.280  0.6928  0.4879  1.2662
 1470TIP3    H2 4375   3.425   1.830   1.267  0.6054  0.3415 -1.0140
 1471TIP3   OH2 4376   3.313   5.273   0.891  0.0279  0.0803  0.2647
 1471TIP3    H1 4377   3.294   5.366   0.902  0.6206  0.4863 -1.7955
 1471TIP3    H2 4378   3.244   5.242   0.832 -1.0610 -1.1897  2.0832
 1472TIP3   OH2 4379   7.079   5.819   3.793  0.2011 -0.5128  0.4656
 1472TIP3    H1 4380   7.051   5.909   3.777  1.5618 -0.2419 -0.6590
 1472TIP3    H2 4381   7.097   5.784   3.705  1.7042 -1.1634  0.9990
 1473TIP3   OH2 4382   1.633   0.336   0.472 -0.1742 -0.2729 -0.2583
 1473TIP3    H1 4383   1.672   0.416   0.438 -0.9511 -0.3262 -1.3299
 1473TIP3    H2 4384   1.589   0.297   0.397  1.0429 -2.2595 -0.0178
 1474TIP3   OH2 4385   1.254   3.485   0.725 -0.2148 -0.4750  0.0884
 1474TIP3    H1 4386   1.262   3.448   0.637  0.0201  1.1737 -0.6101
 1474TIP3    H2 4387   1.160   3.501   0.736 -0.2720 -0.9036  0.2398
 1475TIP3   OH2 4388   3.207   4.576   2.983 -0.6457  0.3112 -0.2264
 1475TIP3    H1 4389   3.258   4.531   2.916 -0.0983  1.1433 -0.3720
 1475TIP3    H2 4390   3.175   4.505   3.039  3.4586 -0.1785  1.8901
 1476TIP3   OH2 4391   6.441   1.739   5.764  0.1033 -0.0079 -0.0363
 1476TIP3    H1 4392   6.357   1.737   5.810  0.6401  0.4516  0.9962
 1476TIP3    H2 4393   6.454   1.831   5.741  0.1350 -0.1408 -0.5595
 1477TIP3   OH2 4394   6.285   5.640   2.007 -0.2808 -0.0463 -0.1659
 1477TIP3    H1 4395   6.276   5.717   2.063 -1.9353 -0.3531  0.0328
 1477TIP3    H2 4396   6.322   5.573   2.064 -4.4564 -1.1981  1.4916
 1478TIP3   OH2 4397   5.772   4.249   1.099 -0.5539  0.4715 -0.0984
 1478TIP3    H1 4398   5.746   4.316   1.036  0.3117  1.0956  0.1925
 1478TIP3    H2 4399   5.764   4.167   1.050  2.1638  1.0833 -1.8277
 1479TIP3   OH2 4400   3.122   1.142   5.457 -0.1096  1.0302 -0.3480
 1479TIP3    H1 4401   3.168   1.074   5.507  0.9096  0.9018 -1.4106
 1479TIP3    H2 4402   3.115   1.216   5.517  0.5108  0.6555  0.1970
 1480TIP3   OH2 4403   2.999   5.546   0.075 -0.0847 -0.2137 -0.0887
 1480TIP3    H1 4404   2.917   5.595   0.070 -0.1117  0.0877  2.2158
 1480TIP3    H2 4405   3.057   5.602   0.125  0.2334 -2.0394  1.6884
 1481TIP3   OH2 4406   5.993   6.166   4.751 -0.1660 -0.4729  0.6075
 1481TIP3    H1 4407   5.930   6.183   4.681  0.3252 -0.6970  0.1026
 1481TIP3    H2 4408   5.985   6.072   4.768  1.2143 -0.8704 -0.6554
 1482TIP3   OH2 4409   6.191   2.049   4.791  0.0488 -0.3176 -0.5355
 1482TIP3    H1 4410   6.281   2.022   4.771  0.8013  2.1421 -0.8346
 1482TIP3    H2 4411   6.200   2.106   4.867 -1.4934 -1.2848  0.4096
 1483TIP3   OH2 4412   2.927   0.291   3.542  0.3274  0.2067  0.4134
 1483TIP3    H1 4413   2.974   0.359   3.493 -0.0695  1.0932  1.2276
 1483TIP3    H2 4414   2.846   0.333   3.570 -0.8298 -1.1989 -0.6770
 1484TIP3   OH2 4415   5.050   6.031   2.783 -0.0644 -0.4947 -0.1665
 1484TIP3    H1 4416   4.977   6.082   2.817 -1.3937 -2.8446  0.7657
 1484TIP3    H2 4417   5.095   5.999   2.861  0.8844 -0.5594 -0.7256
 1485TIP3   OH2 4418   4.111   5.253   4.443 -0.0297 -0.5214  0.6337
 1485TIP3    H1 4419   4.179   5.309   4.407 -0.7363 -0.8082 -1.2664
 1485TIP3    H2 4420   4.145   5.224   4.527  0.7475  1.9876  1.2671
 1486TIP3   OH2 4421   4.767   0.153   2.671 -0.4477 -0.7245 -0.8596
 1486TIP3    H1 4422   4.827   0.080   2.655  2.6208  1.5656 -0.6675
 1486TIP3    H2 4423   4.727   0.170   2.586 -2.9791 -3.8433 -0.5045
 1487TIP3   OH2 4424   5.304   2.141   5.663  0.0265  0.2767 -0.2067
 1487TIP3    H1 4425   5.281   2.075   5.597  0.7125 -0.5296  0.3362
 1487TIP3    H2 4426   5.356   2.093   5.728 -0.4646  1.0946  0.8235
 1488TIP3   OH2 4427   7.056   2.012   1.870 -0.2149 -0.0676 -0.2539
 1488TIP3    H1 4428   7.045   2.058   1.953  1.0936 -0.7189  0.3060
 1488TIP3    H2 4429   7.105   2.073   1.815  0.2819 -0.2241  0.0037
 1489TIP3   OH2 4430   1.640   5.733   2.604 -0.1971  0.0770  0.5070
 1489TIP3    H1 4431   1.634   5.733   2.700 -1.0778  1.1216  0.4671
 1489TIP3    H2 4432   1.583   5.804   2.576  0.3224  0.0109 -0.7916
 1490TIP3   OH2 4433   6.812   5.473   4.416  0.1012  0.2755  0.0227
 1490TIP3    H1 4434   6.766   5.395   4.445 -1.1885 -0.1848 -2.9397
 1490TIP3    H2 4435   6.763   5.546   4.456 -0.7617 -0.3316  0.0963
 1491TIP3   OH2 4436   4.812   2.705   0.813 -0.4790 -0.7761 -0.4370
 1491TIP3    H1 4437   4.738   2.723   0.755 -0.9902 -1.9307 -0.1630
 1491TIP3    H2 4438   4.777   2.715   0.901  0.1444  0.3670 -0.3026
 1492TIP3   OH2 4439   1.897   2.933   3.863  0.6182 -0.2658  0.4734
 1492TIP3    H1 4440   1.881   2.839   3.871  0.5144 -0.1529  1.8624
 1492TIP3    H2 4441   1.830   2.964   3.802  0.6041 -1.0835  0.0706
 1493TIP3   OH2 4442   1.604   0.280   0.991 -0.0055  0.0874 -0.5920
 1493TIP3    H1 4443   1.631   0.321   0.909 -0.2032  2.1806  0.3232
 1493TIP3    H2 4444   1.509   0.288   0.992 -0.1263 -1.2199 -0.7925
 1494TIP3   OH2 4445   4.536   6.647   2.864  0.3288 -0.2464  0.2520
 1494TIP3    H1 4446   4.493   6.680   2.942 -2.8575 -1.4221 -0.8536
 1494TIP3    H2 4447   4.545   6.724   2.807  0.6143  0.1873  0.8709
 1495TIP3   OH2 4448   7.157   5.365   2.486  0.4742 -0.4611 -0.3109
 1495TIP3    H1 4449   7.221   5.297   2.504  0.7019  0.0032  0.7156
 1495TIP3    H2 4450   7.198   5.421   2.420 -0.1891 -1.9433 -2.0728
 1496TIP3   OH2 4451   5.922   0.407   4.553  0.5996 -0.1073 -0.2372
 1496TIP3    H1 4452   5.881   0.488   4.524 -0.9459 -0.9312 -0.4517
 1496TIP3    H2 4453   5.982   0.384   4.482 -0.3216 -0.1118 -1.0233
 1497TIP3   OH2 4454   1.591   0.168   1.593  0.1651 -0.3213 -0.0048
 1497TIP3    H1 4455   1.497   0.177   1.608  0.4005  2.7372  0.1799
 1497TIP3    H2 4456   1.598   0.102   1.523 -2.0014 -1.4273  0.7359
 1498TIP3   OH2 4457   6.859   3.668   5.020 -0.5325 -0.7075  0.1408
 1498TIP3    H1 4458   6.833   3.579   4.998 -0.5810 -0.7011  0.1714
 1498TIP3    H2 4459   6.954   3.670   5.005 -0.2338 -1.2499  1.7247
 1499TIP3   OH2 4460   4.464   2.251   0.205 -0.0412 -0.1216  0.3341
 1499TIP3    H1 4461   4.423   2.200   0.135  1.4341 -0.6272 -0.1860
 1499TIP3    H2 4462   4.500   2.328   0.160 -0.0117  0.0929  0.7207
 1500TIP3   OH2 4463   2.684   1.369   0.252 -0.1178  0.3819  0.3784
 1500TIP3    H1 4464   2.635   1.325   0.322  3.6691 -2.4531  1.6159
 1500TIP3    H2 4465   2.659   1.322   0.173 -0.8439  0.2948  0.6521
 1501TIP3   OH2 4466   4.575   2.423   3.121 -0.0848 -0.0541  0.0755
 1501TIP3    H1 4467   4.492   2.393   3.085 -0.0145  0.3461 -0.4270
 1501TIP3    H2 4468   4.559   2.515   3.145  1.2195  1.2399 -3.4504
 1502TIP3   OH2 4469   6.384   5.863   5.416 -0.5240  0.4570  0.1037
 1502TIP3    H1 4470   6.314   5.799   5.426  1.0851 -1.3096  0.5599
 1502TIP3    H2 4471   6.378   5.891   5.324 -1.4539 -0.0902 -0.0121
 1503TIP3   OH2 4472   4.761   1.718   1.215 -0.1865  0.7402  0.0703
 1503TIP3    H1 4473   4.667   1.737   1.212  0.1828  2.9368  1.0096
 1503TIP3    H2 4474   4.797   1.781   1.277  1.8666 -0.3548  0.0838
 1504TIP3   OH2 4475   5.672   4.101   4.503  0.2117 -0.0846  0.0572
 1504TIP3    H1 4476   5.760   4.138   4.501 -0.2957  1.1016 -1.1588
 1504TIP3    H2 4477   5.622   4.151   4.439 -0.9307 -1.8350 -0.5059
 1505TIP3   OH2 4478   3.659   3.687   4.896 -0.2001 -0.1683  0.0246
 1505TIP3    H1 4479   3.581   3.709   4.948 -0.0066 -0.4564  0.4487
 1505TIP3    H2 4480   3.727   3.671   4.962  0.5885  1.4095 -0.3645
 1506TIP3   OH2 4481   3.258   6.564   5.093 -0.3125 -0.5566  0.1801
 1506TIP3    H1 4482   3.194   6.565   5.022 -2.6021  2.0449  2.0621
 1506TIP3    H2 4483   3.233   6.488   5.147  0.3072 -1.4629 -0.7658
 1507TIP3   OH2 4484   2.979   4.678   0.183  0.5128  0.2009  0.5276
 1507TIP3    H1 4485   2.886   4.668   0.163  0.9852 -1.6471 -1.0468
 1507TIP3    H2 4486   2.986   4.766   0.220 -1.7055  0.7848 -0.2594
 1508TIP3   OH2 4487   2.227   1.567   1.965  0.2530  0.1073  0.3312
 1508TIP3    H1 4488   2.320   1.547   1.958  0.2039 -1.0448  2.2530
 1508TIP3    H2 4489   2.224   1.655   2.002  0.5314  0.7278 -1.0558
 1509TIP3   OH2 4490   4.088   5.797   1.806 -0.2553 -0.0048  0.7409
 1509TIP3    H1 4491   4.082   5.851   1.727  0.9712 -1.1673 -0.2059
 1509TIP3    H2 4492   4.034   5.842   1.870  0.7147  2.3371  0.0134
 1510TIP3   OH2 4493   6.359   5.252   0.257 -0.2409 -0.3530 -0.0604
 1510TIP3    H1 4494   6.400   5.293   0.333  1.8330 -1.7409 -0.3570
 1510TIP3    H2 4495   6.367   5.316   0.187  2.1343 -0.7898 -0.2790
 1511TIP3   OH2 4496   7.070   3.899   4.052 -0.0259 -0.3903  0.2365
 1511TIP3    H1 4497   7.133   3.941   4.110 -1.4412 -0.1166  1.6464
 1511TIP3    H2 4498   7.079   3.806   4.070 -0.6387 -0.2906  1.1334
 1512TIP3   OH2 4499   1.585   0.909   0.215 -0.0752 -0.1348  0.5635
 1512TIP3    H1 4500   1.555   0.986   0.168 -0.2702 -0.6066 -0.1116
 1512TIP3    H2 4501   1.551   0.919   0.304 -0.6366  0.2478  0.3096
 1513TIP3   OH2 4502   0.524   5.497   1.015 -0.2474 -0.1145 -0.0112
 1513TIP3    H1 4503   0.606   5.518   0.969  2.3546 -3.1267  2.6728
 1513TIP3    H2 4504   0.490   5.581   1.044  2.3767  1.2574 -0.5916
 1514TIP3   OH2 4505   1.138   2.646   4.278 -0.2501 -0.3782 -0.0471
 1514TIP3    H1 4506   1.198   2.665   4.351  0.4471  0.5172 -0.8216
 1514TIP3    H2 4507   1.065   2.707   4.291 -0.3887 -0.5948  0.1984
 1515TIP3   OH2 4508   4.152   3.682   3.247 -0.2055 -0.1427  0.0053
 1515TIP3    H1 4509   4.116   3.664   3.334 -0.5622 -1.1474 -0.3245
 1515TIP3    H2 4510   4.173   3.775   3.248 -2.5645  0.4519  0.3239
 1516TIP3   OH2 4511   3.321   3.582   5.233  0.9253  0.4506 -0.2278
 1516TIP3    H1 4512   3.231   3.600   5.262  0.2728  0.2532 -1.9762
 1516TIP3    H2 4513   3.330   3.487   5.240  1.2466  0.5333  0.5752
 1517TIP3   OH2 4514   3.482   2.153   5.575  0.6565 -0.5115 -0.5580
 1517TIP3    H1 4515   3.438   2.214   5.633  0.9682 -0.2402 -0.6057
 1517TIP3    H2 4516   3.491   2.073   5.627 -0.7623 -0.9092 -0.8724
 1518TIP3   OH2 4517   6.360   3.906   0.658 -0.6765 -0.3629  0.4634
 1518TIP3    H1 4518   6.413   3.872   0.585 -2.0782  1.5061 -1.5685
 1518TIP3    H2 4519   6.411   3.980   0.692 -0.3056 -0.8467  0.9560
 1519TIP3   OH2 4520   4.806   6.239   0.699  0.1687 -0.7407  0.5304
 1519TIP3    H1 4521   4.732   6.178   0.692  0.4053 -0.8594 -1.4501
 1519TIP3    H2 4522   4.791   6.285   0.781 -3.2023  0.5856 -0.6414
 1520TIP3   OH2 4523   0.855   6.143   4.492 -0.3604  0.1233 -0.1417
 1520TIP3    H1 4524   0.919   6.166   4.424  0.3086  0.8893  0.7226
 1520TIP3    H2 4525   0.881   6.055   4.520  0.7374  0.6645  0.6353
 1521TIP3   OH2 4526   2.741   2.074   5.668  0.1772  0.1463 -0.2417
 1521TIP3    H1 4527   2.803   2.011   5.706  0.0965 -0.1680 -0.6283
 1521TIP3    H2 4528   2.681   2.020   5.616  0.3068  0.5796 -0.8430
 1522TIP3   OH2 4529   5.236   6.084   0.562  0.0927 -0.5219  0.2736
 1522TIP3    H1 4530   5.185   6.164   0.556 -1.3857 -1.4425 -0.1875
 1522TIP3    H2 4531   5.287   6.093   0.642 -1.0586  0.3248  0.9527
 1523TIP3   OH2 4532   6.581   2.943   1.717 -0.4199 -0.0079  0.1475
 1523TIP3    H1 4533   6.494   2.946   1.676 -0.7475  2.0581  0.8574
 1523TIP3    H2 4534   6.573   2.999   1.793  1.3441 -0.4367  0.6932
 1524TIP3   OH2 4535   4.143   6.570   0.326  0.1916 -0.0452  0.0199
 1524TIP3    H1 4536   4.158   6.574   0.232  1.6633 -1.9151  0.1053
 1524TIP3    H2 4537   4.223   6.608   0.364  0.2526 -0.6387  0.5037
 1525TIP3   OH2 4538   5.660   5.578   2.306 -0.6188 -0.7198 -0.3169
 1525TIP3    H1 4539   5.618   5.522   2.240 -2.7480 -0.8686  1.0526
 1525TIP3    H2 4540   5.694   5.516   2.371 -2.7236 -0.5514  1.0523
 1526TIP3   OH2 4541   2.395   6.434   4.726 -0.2524  0.1373  0.1543
 1526TIP3    H1 4542   2.301   6.419   4.718 -0.5908  2.3594 -0.7926
 1526TIP3    H2 4543   2.434   6.383   4.656 -0.8597  0.0547 -0.1304
 1527TIP3   OH2 4544   1.147   0.264   1.877 -0.2590 -0.1203  0.0282
 1527TIP3    H1 4545   1.073   0.326   1.873  0.7064  1.0343 -0.7358
 1527TIP3    H2 4546   1.111   0.187   1.920 -2.0900  0.1588 -0.8870
 1528TIP3   OH2 4547   5.145   0.457   1.857 -0.1330 -0.2202  0.0912
 1528TIP3    H1 4548   5.233   0.494   1.858 -0.9189  1.9061 -1.3975
 1528TIP3    H2 4549   5.136   0.418   1.770 -0.9158  0.2873 -0.0665
 1529TIP3   OH2 4550   0.787   5.285   1.143 -0.2431  0.4318  0.2376
 1529TIP3    H1 4551   0.841   5.364   1.146  1.1693 -0.4417 -1.0229
 1529TIP3    H2 4552   0.718   5.301   1.207  0.3107  2.4610  0.3936
 1530TIP3   OH2 4553   5.241   1.604   3.499 -0.1407  0.7105  0.7714
 1530TIP3    H1 4554   5.181   1.672   3.529  1.0650  1.6580  1.0855
 1530TIP3    H2 4555   5.314   1.651   3.460 -0.3647 -0.4359 -1.2219
 1531TIP3   OH2 4556   1.853   2.943   3.443  0.1417  0.0886 -0.4378
 1531TIP3    H1 4557   1.912   2.969   3.372  0.2855  0.4202 -0.2018
 1531TIP3    H2 4558   1.770   2.985   3.422 -0.2918 -1.1429 -1.2670
 1532TIP3   OH2 4559   1.162   5.079   3.459  0.2074  0.2957 -0.3850
 1532TIP3    H1 4560   1.111   5.123   3.527  0.7226  0.9254 -0.3967
 1532TIP3    H2 4561   1.100   5.067   3.387 -0.3522 -0.4108  0.1922
 1533TIP3   OH2 4562   0.900   5.690   3.012  0.6555  0.3484  0.0606
 1533TIP3    H1 4563   0.858   5.628   2.953 -1.2249  0.4462  1.2162
 1533TIP3    H2 4564   0.905   5.771   2.962 -0.4236  0.2843 -0.1732
 1534TIP3   OH2 4565   3.490   4.293   3.026 -0.1186 -0.1504  0.3485
 1534TIP3    H1 4566   3.547   4.352   3.075 -1.7143  1.1232  0.7682
 1534TIP3    H2 4567   3.449   4.348   2.959 -1.8096 -0.6744  0.8823
 1535TIP3   OH2 4568   4.167   0.999   0.531 -0.2461  0.6126 -0.2264
 1535TIP3    H1 4569   4.156   0.919   0.480 -0.6519  0.5203  0.0053
 1535TIP3    H2 4570   4.085   1.009   0.579  0.4261  0.2597  1.0355
 1536TIP3   OH2 4571   3.085   5.395   1.670 -0.3364 -0.3743 -0.1469
 1536TIP3    H1 4572   3.057   5.482   1.700  0.3514 -0.0348 -0.4582
 1536TIP3    H2 4573   3.178   5.391   1.691  0.7388  0.7182 -3.9095
 1537TIP3   OH2 4574   4.156   3.851   2.673  0.1092  0.4331  0.5285
 1537TIP3    H1 4575   4.198   3.776   2.631  0.8806  0.9274  0.4084
 1537TIP3    H2 4576   4.068   3.820   2.694 -0.9738  0.6945 -2.9948
 1538TIP3   OH2 4577   2.412   6.226   5.300  0.1769  0.6125  0.3613
 1538TIP3    H1 4578   2.502   6.220   5.268 -0.4779 -1.8187 -1.2987
 1538TIP3    H2 4579   2.395   6.140   5.339 -2.2261  0.0308 -1.7384
 1539TIP3   OH2 4580   5.836   6.515   4.223  0.2991  0.6228 -0.2862
 1539TIP3    H1 4581   5.832   6.523   4.318 -1.8182 -0.5319 -0.2077
 1539TIP3    H2 4582   5.866   6.426   4.208 -2.9188 -0.5639 -0.5302
 1540TIP3   OH2 4583   2.991   5.733   4.946 -0.4547 -0.0292  0.1341
 1540TIP3    H1 4584   2.939   5.811   4.961  0.5271  0.7073 -0.2273
 1540TIP3    H2 4585   3.079   5.756   4.976 -0.0663 -0.8698 -0.3113
 1541TIP3   OH2 4586   0.719   6.624   1.309 -0.1749  0.0357 -0.2919
 1541TIP3    H1 4587   0.715   6.693   1.243  1.5014  0.3184 -0.1531
 1541TIP3    H2 4588   0.778   6.558   1.272 -2.1550 -1.6117 -0.6421
 1542TIP3   OH2 4589   5.532   6.122   0.382  0.2658 -0.6137 -0.2332
 1542TIP3    H1 4590   5.441   6.098   0.397 -0.1680  0.2056 -1.3829
 1542TIP3    H2 4591   5.577   6.039   0.368 -0.4557 -0.9828 -0.3781
 1543TIP3   OH2 4592   0.551   3.614   3.812  0.3595  0.0006 -0.2996
 1543TIP3    H1 4593   0.496   3.547   3.853  0.6246  0.1306  0.2911
 1543TIP3    H2 4594   0.492   3.661   3.753  0.5214 -1.7216 -1.8866
 1544TIP3   OH2 4595   6.687   2.806   4.780 -0.2693 -0.1866 -0.5495
 1544TIP3    H1 4596   6.732   2.754   4.847 -0.1067  0.4461 -0.1668
 1544TIP3    H2 4597   6.748   2.806   4.706 -0.0122 -0.0491 -0.3393
 1545TIP3   OH2 4598   3.601   5.386   4.922 -0.3744 -0.1773  0.7710
 1545TIP3    H1 4599   3.558   5.302   4.905 -1.2322  0.4774 -0.4221
 1545TIP3    H2 4600   3.691   5.373   4.893 -0.6915 -0.4694 -0.1039
 1546TIP3   OH2 4601   6.148   1.383   1.692  0.5222  0.3338 -0.2063
 1546TIP3    H1 4602   6.065   1.431   1.692  1.2361  1.6278 -1.1550
 1546TIP3    H2 4603   6.147   1.334   1.774 -1.4051 -0.1120 -0.4280
 1547TIP3   OH2 4604   4.711   4.387   5.302  0.1442  0.0172  0.1258
 1547TIP3    H1 4605   4.723   4.313   5.243 -0.0691 -0.4975  0.7225
 1547TIP3    H2 4606   4.691   4.348   5.387  1.0466  0.7293  0.6921
 1548TIP3   OH2 4607   6.109   6.718   1.248 -0.0348  0.1346  0.5714
 1548TIP3    H1 4608   6.054   6.647   1.215  2.0271 -0.6627 -1.4119
 1548TIP3    H2 4609   6.182   6.673   1.292  1.6541  0.9113 -1.3063
 1549TIP3   OH2 4610   4.000   6.171   4.817  0.0361 -0.0395 -0.3208
 1549TIP3    H1 4611   4.091   6.190   4.839 -0.3518  0.5617  0.8184
 1549TIP3    H2 4612   3.953   6.179   4.900 -1.0735 -0.2422 -0.9138
 1550TIP3   OH2 4613   0.952   3.579   2.664 -0.1641 -0.6058  0.0830
 1550TIP3    H1 4614   1.003   3.598   2.742 -1.0897 -0.6257  0.7091
 1550TIP3    H2 4615   0.991   3.499   2.629  0.2677 -0.5920  0.5218
 1551TIP3   OH2 4616   7.038   1.525   2.110  0.1133 -0.1030 -0.2723
 1551TIP3    H1 4617   6.980   1.455   2.139 -0.4962  0.5787  0.2046
 1551TIP3    H2 4618   7.062   1.501   2.021  1.1038 -1.6583  0.3804
 1552TIP3   OH2 4619   3.250   5.069   5.029  0.9878 -0.2216  0.1855
 1552TIP3    H1 4620   3.234   5.122   5.107  2.2090 -2.2191  1.8814
 1552TIP3    H2 4621   3.343   5.082   5.009  0.3050  1.7434 -2.1729
 1553TIP3   OH2 4622   6.458   1.862   4.155 -0.5679  0.4237 -0.5536
 1553TIP3    H1 4623   6.477   1.895   4.068 -0.8512  1.4361 -0.2469
 1553TIP3    H2 4624   6.494   1.928   4.214  1.4330 -1.2278  0.1593
 1554TIP3   OH2 4625   1.035   2.640   2.071 -0.2709  1.1430 -0.0284
 1554TIP3    H1 4626   0.949   2.673   2.096 -1.6980 -2.0734 -0.1615
 1554TIP3    H2 4627   1.019   2.588   1.992  1.7574  0.2405  0.0887
 1555TIP3   OH2 4628   2.555   1.226   0.468 -0.2061 -0.8673 -0.4619
 1555TIP3    H1 4629   2.636   1.257   0.507 -0.0891 -0.3423 -1.1246
 1555TIP3    H2 4630   2.516   1.170   0.536 -1.1348  1.8023  1.3630
 1556TIP3   OH2 4631   0.557   4.112   5.825 -0.1184 -0.6625  1.0358
 1556TIP3    H1 4632   0.545   4.196   5.869  0.7832 -0.3747  0.7503
 1556TIP3    H2 4633   0.526   4.127   5.736 -0.8555 -0.9136  1.2451
 1557TIP3   OH2 4634   5.274   3.955   4.724 -0.3961 -0.5775  0.2561
 1557TIP3    H1 4635   5.334   3.892   4.684 -0.4282  0.7728 -2.1443
 1557TIP3    H2 4636   5.209   3.901   4.770 -0.1419 -2.2774 -1.2725
 1558TIP3   OH2 4637   0.380   5.840   3.175  0.0134  0.1937 -0.0796
 1558TIP3    H1 4638   0.343   5.754   3.197 -2.5552  1.2296  0.0626
 1558TIP3    H2 4639   0.318   5.903   3.212  2.3920  2.1807  0.8106
 1559TIP3   OH2 4640   3.866   4.836   2.904 -0.1759  0.1113  0.1966
 1559TIP3    H1 4641   3.922   4.759   2.895  0.0740  0.4060 -0.9553
 1559TIP3    H2 4642   3.926   4.906   2.929 -0.1356  0.2679 -0.3229
 1560TIP3   OH2 4643   5.200   3.720   0.162 -0.4588 -0.7917 -0.2378
 1560TIP3    H1 4644   5.187   3.631   0.194 -0.6745 -0.4340  0.7285
 1560TIP3    H2 4645   5.203   3.773   0.242 -0.7688  0.1170 -0.8140
 1561TIP3   OH2 4646   4.337   2.866   1.064  0.1830  0.6078  0.3844
 1561TIP3    H1 4647   4.258   2.816   1.044  0.5514  0.5600 -1.0429
 1561TIP3    H2 4648   4.405   2.799   1.076  0.3960  0.7058 -0.2409
 1562TIP3   OH2 4649   1.339   6.267   2.765  0.2203 -0.2576  0.3538
 1562TIP3    H1 4650   1.284   6.263   2.843  1.8125 -1.5740  1.4690
 1562TIP3    H2 4651   1.337   6.178   2.729  0.4677  0.0382 -0.4230
 1563TIP3   OH2 4652   0.873   2.380   2.715  0.1489 -0.3661  0.2225
 1563TIP3    H1 4653   0.824   2.305   2.681  0.6788 -0.0460 -1.3517
 1563TIP3    H2 4654   0.963   2.349   2.720  0.1198 -0.3287  1.1622
 1564TIP3   OH2 4655   4.658   1.058   0.735 -0.3769  0.1500 -0.2364
 1564TIP3    H1 4656   4.639   0.970   0.767 -1.3539  0.5990  0.4852
 1564TIP3    H2 4657   4.572   1.102   0.734  0.0977  1.1056 -0.5430
 1565TIP3   OH2 4658   3.210   4.059   3.576 -0.1931  0.2623 -0.0194
 1565TIP3    H1 4659   3.253   4.082   3.493 -1.2829  0.1665 -0.6328
 1565TIP3    H2 4660   3.136   4.005   3.549  0.0279 -0.6167  1.1093
 1566TIP3   OH2 4661   7.031   3.262   3.946 -0.1334  0.0062  0.0822
 1566TIP3    H1 4662   7.057   3.349   3.978 -0.8732  0.5083 -0.6166
 1566TIP3    H2 4663   7.022   3.209   4.024 -1.0493  0.9581  0.6521
 1567TIP3   OH2 4664   4.110   5.129   0.343  0.5971  0.3021  0.3432
 1567TIP3    H1 4665   4.081   5.137   0.252 -1.7106 -0.4137  0.9466
 1567TIP3    H2 4666   4.179   5.063   0.340  0.9314  0.6730 -0.9451
 1568TIP3   OH2 4667   3.034   1.403   2.445  0.5504 -0.3058  0.4223
 1568TIP3    H1 4668   3.043   1.313   2.475 -0.2199 -0.6140 -0.2555
 1568TIP3    H2 4669   3.102   1.451   2.493  1.4205 -1.3594  0.2842
 1569TIP3   OH2 4670   6.025   2.574   2.670 -0.0419  0.0228 -0.1104
 1569TIP3    H1 4671   5.952   2.635   2.659 -0.6211 -0.5206  0.5987
 1569TIP3    H2 4672   6.000   2.520   2.745  0.2502 -1.3639 -0.9668
 1570TIP3   OH2 4673   3.055   1.556   4.923  0.1604  0.6880 -0.3301
 1570TIP3    H1 4674   3.048   1.519   4.835 -2.4746  0.4785 -0.1107
 1570TIP3    H2 4675   3.134   1.610   4.920  0.3916  0.3185 -2.6699
 1571TIP3   OH2 4676   1.004   4.878   3.801 -0.9362  0.0265 -0.0649
 1571TIP3    H1 4677   0.926   4.885   3.856  0.3848  0.2813  1.8866
 1571TIP3    H2 4678   1.034   4.788   3.814  0.2005  0.5137  0.8479
 1572TIP3   OH2 4679   0.743   3.274   3.136  0.7124  0.1392  0.5147
 1572TIP3    H1 4680   0.659   3.272   3.181  0.3230  2.2858 -0.0374
 1572TIP3    H2 4681   0.808   3.270   3.206  0.1251  0.6762  1.0988
 1573TIP3   OH2 4682   3.024   6.644   4.519 -0.1104  0.1130  0.1166
 1573TIP3    H1 4683   2.962   6.582   4.557 -0.2726 -0.0765 -0.4432
 1573TIP3    H2 4684   3.104   6.593   4.503  0.0994  0.2910  0.5841
 1574TIP3   OH2 4685   6.910   3.067   3.653  0.6356 -0.0841  0.1686
 1574TIP3    H1 4686   6.909   3.036   3.562 -3.8186 -0.9360  0.3074
 1574TIP3    H2 4687   6.897   2.988   3.705 -1.1392  0.8198  1.1892
 1575TIP3   OH2 4688   6.302   1.515   3.278 -0.3843  0.3541  0.3874
 1575TIP3    H1 4689   6.232   1.580   3.271 -0.5966  0.2951  1.6833
 1575TIP3    H2 4690   6.262   1.434   3.245 -0.7044  0.4672  0.4911
 1576TIP3   OH2 4691   2.098   3.854   0.644 -0.1379 -0.0593 -0.4359
 1576TIP3    H1 4692   2.068   3.817   0.561 -1.8655 -2.7062  1.2347
 1576TIP3    H2 4693   2.184   3.815   0.659  0.3248  0.6751 -1.0613
 1577TIP3   OH2 4694   5.570   5.881   3.921  0.2669  0.3079  0.0034
 1577TIP3    H1 4695   5.611   5.943   3.861 -1.2986  0.6416 -0.7777
 1577TIP3    H2 4696   5.603   5.906   4.007  0.1365  1.8509 -0.3577
 1578TIP3   OH2 4697   4.408   5.944   5.560 -0.2968 -0.2161 -0.5273
 1578TIP3    H1 4698   4.477   5.879   5.554 -0.0441 -0.1037  0.7598
 1578TIP3    H2 4699   4.342   5.904   5.617 -0.7052  0.1714 -0.7185
 1579TIP3   OH2 4700   6.287   5.894   4.606  0.4277  0.1356  0.2622
 1579TIP3    H1 4701   6.227   5.820   4.599 -0.2557  0.5631  1.3795
 1579TIP3    H2 4702   6.367   5.857   4.643  0.4249 -0.2128 -0.0808
 1580TIP3   OH2 4703   5.391   0.737   3.094 -0.7129 -0.1600  0.7941
 1580TIP3    H1 4704   5.457   0.807   3.099  0.7231 -1.2898 -0.8629
 1580TIP3    H2 4705   5.332   0.765   3.023  2.0188 -2.1287 -2.5919
 1581TIP3   OH2 4706   6.775   5.205   1.697  0.0657 -0.2366 -0.4442
 1581TIP3    H1 4707   6.758   5.113   1.681  0.5377 -0.2075 -1.1566
 1581TIP3    H2 4708   6.711   5.230   1.764 -0.5286 -0.9050 -0.7449
 1582TIP3   OH2 4709   4.394   5.390   2.958 -0.7721 -0.0183 -0.1356
 1582TIP3    H1 4710   4.380   5.345   3.041 -0.3674 -0.1733 -0.1455
 1582TIP3    H2 4711   4.454   5.462   2.979  0.1919 -0.6989 -0.4744
 1583TIP3   OH2 4712   0.679   0.054   4.785  0.3661 -0.2286  0.1931
 1583TIP3    H1 4713   0.749   0.017   4.839  0.1985 -0.1570  0.4590
 1583TIP3    H2 4714   0.702   0.028   4.695  0.8083 -0.0873  0.2593
 1584TIP3   OH2 4715   3.546   0.685   0.758 -0.4583  0.3490 -0.4032
 1584TIP3    H1 4716   3.563   0.779   0.748 -0.9415  0.5657  0.6336
 1584TIP3    H2 4717   3.576   0.646   0.676  0.4460  1.3125 -0.5499
 1585TIP3   OH2 4718   1.294   1.440   5.103  0.0149 -0.1215  0.0345
 1585TIP3    H1 4719   1.206   1.430   5.140 -0.1858 -0.5211 -0.5350
 1585TIP3    H2 4720   1.352   1.405   5.169 -0.3323 -0.7404  0.0223
 1586TIP3   OH2 4721   2.723   3.220   4.487  0.5469  0.2218 -0.3846
 1586TIP3    H1 4722   2.635   3.210   4.452 -0.3460  0.1464  1.7513
 1586TIP3    H2 4723   2.781   3.203   4.412 -1.1604 -2.5253 -1.2256
 1587TIP3   OH2 4724   4.428   0.157   4.280  0.2066  0.3769 -0.4140
 1587TIP3    H1 4725   4.377   0.195   4.209 -0.9065  0.1168  0.2222
 1587TIP3    H2 4726   4.502   0.217   4.292  0.2875  0.5416 -1.6265
 1588TIP3   OH2 4727   0.148   5.519   2.011 -0.0288  0.1145 -0.4352
 1588TIP3    H1 4728   0.172   5.458   1.941  0.2483  0.9644 -1.0968
 1588TIP3    H2 4729   0.195   5.486   2.088 -2.6049 -2.5774  0.1737
 1589TIP3   OH2 4730   5.912   5.882   0.973 -0.2846  0.4979  0.4939
 1589TIP3    H1 4731   5.963   5.803   0.955 -3.1305 -1.1139 -1.3092
 1589TIP3    H2 4732   5.900   5.881   1.068  2.6246  0.8002  0.9580
 1590TIP3   OH2 4733   3.840   5.200   0.401  0.2047 -0.2017 -0.1909
 1590TIP3    H1 4734   3.927   5.163   0.388 -0.0222 -1.3080  1.2406
 1590TIP3    H2 4735   3.828   5.202   0.496 -1.6909 -0.9794 -0.3560
 1591TIP3   OH2 4736   6.169   4.758   3.320  0.2531 -0.7289 -0.0797
 1591TIP3    H1 4737   6.123   4.703   3.256  0.9353 -1.3775 -0.0354
 1591TIP3    H2 4738   6.252   4.780   3.278  1.6976 -2.9986  1.3500
 1592TIP3   OH2 4739   6.029   2.823   1.524 -0.8008  0.3102  0.1009
 1592TIP3    H1 4740   5.959   2.785   1.471 -1.5727 -0.3075  1.5289
 1592TIP3    H2 4741   5.984   2.882   1.585  0.0041  0.5090  0.5138
 1593TIP3   OH2 4742   3.147   2.787   2.111  0.0077 -0.6247  0.7659
 1593TIP3    H1 4743   3.222   2.816   2.163  0.7475  1.4865 -1.2701
 1593TIP3    H2 4744   3.176   2.705   2.070  0.6180 -0.6429  1.2216
 1594TIP3   OH2 4745   0.960   3.878   3.863 -0.4290 -0.1783 -0.0305
 1594TIP3    H1 4746   0.868   3.864   3.883 -0.6178  0.7392 -0.1977
 1594TIP3    H2 4747   0.998   3.912   3.944 -0.1841 -0.7905  0.1115
 1595TIP3   OH2 4748   5.780   3.889   0.412  0.0617  0.2257  0.0580
 1595TIP3    H1 4749   5.696   3.852   0.387 -0.1274  1.0244 -0.5271
 1595TIP3    H2 4750   5.826   3.906   0.329 -0.4681  2.6451  0.1653
 1596TIP3   OH2 4751   1.824   1.858   1.670  0.0324  0.4323  0.1582
 1596TIP3    H1 4752   1.867   1.846   1.755 -0.2137 -2.1001  0.0261
 1596TIP3    H2 4753   1.894   1.880   1.610  0.8232 -1.1517  0.4286
 1597TIP3   OH2 4754   2.721   2.378   2.450 -0.1687 -0.0482 -0.2712
 1597TIP3    H1 4755   2.759   2.290   2.455  1.4963  0.6503  0.3532
 1597TIP3    H2 4756   2.644   2.374   2.506  0.7250 -0.7326  0.9698
 1598TIP3   OH2 4757   4.227   1.317   3.322  0.1841  0.3153 -0.4030
 1598TIP3    H1 4758   4.234   1.285   3.411 -0.7606  1.0241 -0.0536
 1598TIP3    H2 4759   4.194   1.407   3.331 -0.4553  0.2082 -1.4804
 1599TIP3   OH2 4760   0.876   3.663   1.557  0.1694 -0.1375 -0.0210
 1599TIP3    H1 4761   0.906   3.578   1.524  0.5144 -0.4313  1.0236
 1599TIP3    H2 4762   0.951   3.698   1.604 -0.6813 -0.2702  1.4835
 1600TIP3   OH2 4763   5.011   3.024   3.735 -0.2668  0.0538  0.5342
 1600TIP3    H1 4764   4.994   2.944   3.785  1.2166 -1.6288 -1.5161
 1600TIP3    H2 4765   5.105   3.040   3.746  0.0338 -0.1891 -1.3947
 1601TIP3   OH2 4766   1.870   4.340   2.635  0.4590 -0.0900 -0.8539
 1601TIP3    H1 4767   1.964   4.330   2.649  0.3492 -0.2161 -0.1576
 1601TIP3    H2 4768   1.858   4.433   2.621  0.5451  0.1009  0.2621
 1602TIP3   OH2 4769   5.034   1.973   2.993 -0.3370  0.3256  0.1498
 1602TIP3    H1 4770   5.102   2.039   3.005  0.4196 -0.5801  0.9586
 1602TIP3    H2 4771   5.022   1.934   3.080 -1.1702 -0.2252 -0.1981
 1603TIP3   OH2 4772   1.497   2.777   0.522  0.2507  0.7834  0.5385
 1603TIP3    H1 4773   1.533   2.689   0.527 -2.2518 -0.3900 -0.2195
 1603TIP3    H2 4774   1.466   2.797   0.610  0.2454  0.6241  0.5718
 1604TIP3   OH2 4775   3.473   3.834   4.145  0.0333  0.4021  0.3705
 1604TIP3    H1 4776   3.509   3.878   4.068 -3.2797  1.0124 -1.0116
 1604TIP3    H2 4777   3.491   3.893   4.218 -0.7550  2.0929 -0.7620
 1605TIP3   OH2 4778   6.856   5.080   3.595 -0.0256  0.0509 -0.3468
 1605TIP3    H1 4779   6.864   5.061   3.689  0.5155 -1.9615 -0.7437
 1605TIP3    H2 4780   6.945   5.069   3.561 -0.1823  0.9530 -1.0808
 1606TIP3   OH2 4781   3.477   4.199   1.069 -0.7082 -0.2179 -0.0141
 1606TIP3    H1 4782   3.467   4.108   1.097  0.5315 -0.1894  0.5996
 1606TIP3    H2 4783   3.536   4.194   0.994 -1.0424  0.0377 -0.2931
 1607TIP3   OH2 4784   2.343   0.611   1.672  0.3687  0.7379 -0.0198
 1607TIP3    H1 4785   2.408   0.658   1.724  0.4877  0.0821  0.4432
 1607TIP3    H2 4786   2.303   0.550   1.734  0.2572  0.1988 -0.6173
 1608TIP3   OH2 4787   1.845   5.174   2.942 -0.0670 -0.4709 -0.2344
 1608TIP3    H1 4788   1.767   5.159   2.889 -0.8459 -1.0018  0.9926
 1608TIP3    H2 4789   1.837   5.265   2.971  1.4075  0.4988 -2.5874
 1609TIP3   OH2 4790   5.060   4.721   2.008 -0.3684 -0.0296  0.0007
 1609TIP3    H1 4791   5.118   4.775   1.953 -0.9165  0.7692  0.1925
 1609TIP3    H2 4792   5.103   4.719   2.093  0.3918 -1.1201 -0.3851
 1610TIP3   OH2 4793   1.622   2.680   2.832 -0.1485 -0.3160 -0.3329
 1610TIP3    H1 4794   1.685   2.626   2.880  0.4396 -0.0246 -0.7710
 1610TIP3    H2 4795   1.563   2.617   2.791  0.1051 -0.6059 -0.2539
 1611TIP3   OH2 4796   2.221   2.832   5.223 -0.0201 -0.4767 -0.6233
 1611TIP3    H1 4797   2.275   2.901   5.184  0.9520 -0.3794  0.8252
 1611TIP3    H2 4798   2.131   2.861   5.208  0.3348  2.0814  1.4755
 1612TIP3   OH2 4799   0.822   3.755   2.377 -0.0788  0.4919 -0.0341
 1612TIP3    H1 4800   0.821   3.774   2.283  1.0273 -0.1852 -0.1980
 1612TIP3    H2 4801   0.800   3.662   2.383 -1.1624  0.7651  0.4630
 1613TIP3   OH2 4802   0.312   5.746   5.427  0.6154  0.1801  0.0445
 1613TIP3    H1 4803   0.376   5.745   5.498  0.1203 -1.1452  0.5095
 1613TIP3    H2 4804   0.351   5.691   5.359 -1.1458 -3.1349  1.4661
 1614TIP3   OH2 4805   6.432   4.007   3.459  0.2067 -0.2707  0.1837
 1614TIP3    H1 4806   6.426   4.015   3.554 -0.5857  0.6828  0.0768
 1614TIP3    H2 4807   6.432   3.913   3.443 -3.3659 -0.5740  1.0041
 1615TIP3   OH2 4808   4.840   1.279   0.306  0.2479 -0.2199  0.5458
 1615TIP3    H1 4809   4.841   1.319   0.393 -2.0884  0.3914  0.3499
 1615TIP3    H2 4810   4.904   1.330   0.256  1.6786 -0.6267  1.8823
 1616TIP3   OH2 4811   1.309   5.702   3.903 -0.3473  0.0337 -0.4190
 1616TIP3    H1 4812   1.288   5.776   3.960 -2.2348 -0.6898 -0.0999
 1616TIP3    H2 4813   1.404   5.702   3.899 -0.0610 -0.0109  2.9994
 1617TIP3   OH2 4814   3.289   1.134   3.855 -0.6115  0.0103 -0.0574
 1617TIP3    H1 4815   3.303   1.119   3.762 -0.2567 -2.3415  0.3139
 1617TIP3    H2 4816   3.264   1.226   3.861 -1.5410  0.0042 -2.5717
 1618TIP3   OH2 4817   4.938   2.522   2.547  0.2500 -0.1280  0.0940
 1618TIP3    H1 4818   4.865   2.572   2.585  0.0497  1.5923 -2.3253
 1618TIP3    H2 4819   4.954   2.453   2.610 -2.6480  0.1745  1.3481
 1619TIP3   OH2 4820   3.277   5.689   4.358  0.2563  0.5117 -0.3416
 1619TIP3    H1 4821   3.294   5.595   4.351 -0.1045  0.4558 -0.5068
 1619TIP3    H2 4822   3.363   5.728   4.372  0.3636  0.1182  0.1133
 1620TIP3   OH2 4823   4.802   4.082   2.346 -0.4003 -0.2288 -0.0395
 1620TIP3    H1 4824   4.835   3.993   2.364 -1.9384 -0.5730  1.2682
 1620TIP3    H2 4825   4.822   4.096   2.254  3.2394 -0.4410  0.5548
 1621TIP3   OH2 4826   3.773   2.837   1.673 -0.0348 -0.2562 -0.1672
 1621TIP3    H1 4827   3.743   2.770   1.612 -2.5465  0.8087 -0.2283
 1621TIP3    H2 4828   3.829   2.894   1.621 -0.1228 -0.7641 -0.8294
 1622TIP3   OH2 4829   2.417   5.608   3.919 -0.0521  0.7884 -0.5565
 1622TIP3    H1 4830   2.432   5.605   3.825 -0.8348  1.8332 -0.7193
 1622TIP3    H2 4831   2.349   5.673   3.931 -0.6813 -0.0597  0.6533
 1623TIP3   OH2 4832   6.291   2.440   1.886 -0.4104  0.6151  0.0456
 1623TIP3    H1 4833   6.296   2.483   1.971  1.5415 -0.1124  0.3503
 1623TIP3    H2 4834   6.376   2.457   1.845 -0.4407 -0.9568 -0.7819
 1624TIP3   OH2 4835   7.075   1.954   2.361 -0.3309 -0.2708  0.1765
 1624TIP3    H1 4836   7.004   1.936   2.299 -0.6109 -0.3103  0.5060
 1624TIP3    H2 4837   7.104   1.868   2.391 -0.6107 -0.2387  0.5589
 1625TIP3   OH2 4838   3.185   5.344   2.838  0.0388 -0.0629 -0.0023
 1625TIP3    H1 4839   3.111   5.387   2.796  0.5797 -0.2708 -1.2082
 1625TIP3    H2 4840   3.262   5.389   2.803  0.5173 -0.4943  0.4757
 1626TIP3   OH2 4841   2.242   0.712   4.749  0.1313 -0.5496 -0.5349
 1626TIP3    H1 4842   2.179   0.639   4.752  0.9147 -1.2908 -1.4677
 1626TIP3    H2 4843   2.309   0.687   4.813 -0.6319  0.3744  0.6638
 1627TIP3   OH2 4844   4.108   5.228   3.171  0.7431  0.3552  0.1929
 1627TIP3    H1 4845   4.076   5.318   3.159  1.0039  0.2606 -1.3948
 1627TIP3    H2 4846   4.204   5.236   3.168  0.7556 -0.0696 -0.7864
 1628TIP3   OH2 4847   3.011   6.111   5.388 -0.4549 -0.4547  0.3511
 1628TIP3    H1 4848   3.085   6.115   5.449  0.7129 -0.3329 -1.0431
 1628TIP3    H2 4849   2.941   6.159   5.434  0.9333  1.1855  0.8817
 1629TIP3   OH2 4850   5.991   1.525   2.428 -0.8292 -0.0050  0.5150
 1629TIP3    H1 4851   6.048   1.494   2.498 -1.1085  0.8626  1.1420
 1629TIP3    H2 4852   6.034   1.603   2.393 -1.5831  0.6269  0.9538
 1630TIP3   OH2 4853   5.759   4.375   2.086  0.5161  0.2790 -0.0618
 1630TIP3    H1 4854   5.692   4.361   2.152  0.0691 -0.2086 -0.6047
 1630TIP3    H2 4855   5.839   4.394   2.136  0.0464  0.5662  0.5911
 1631TIP3   OH2 4856   4.504   6.060   1.199 -0.1294 -0.2461 -0.2857
 1631TIP3    H1 4857   4.523   6.146   1.237 -0.1370 -0.4320  0.1409
 1631TIP3    H2 4858   4.583   6.037   1.149  0.6744 -0.8863  1.2344
 1632TIP3   OH2 4859   5.883   6.374   5.493  0.1609 -0.0380 -0.2260
 1632TIP3    H1 4860   5.903   6.356   5.401  2.5140 -0.1016  0.2339
 1632TIP3    H2 4861   5.844   6.462   5.492  0.0107 -0.1056 -1.2834
 1633TIP3   OH2 4862   1.733   4.688   2.849  0.2795  0.5555  0.0830
 1633TIP3    H1 4863   1.666   4.625   2.822  0.0271  0.1554  1.5730
 1633TIP3    H2 4864   1.734   4.683   2.944 -1.3782  4.4938  0.4886
 1634TIP3   OH2 4865   2.834   3.856   2.503  0.2494  0.0062 -0.2381
 1634TIP3    H1 4866   2.842   3.858   2.599 -1.7689 -0.9437 -0.0023
 1634TIP3    H2 4867   2.879   3.775   2.477  0.0518 -0.1836  0.0027
 1635TIP3   OH2 4868   1.253   5.848   4.884  0.0993  0.2381  0.2624
 1635TIP3    H1 4869   1.188   5.821   4.949 -0.0746  2.2270  1.0041
 1635TIP3    H2 4870   1.318   5.896   4.935  1.0926  0.0106 -0.7624
 1636TIP3   OH2 4871   0.098   3.081   3.858 -0.1575 -0.1171 -0.1346
 1636TIP3    H1 4872   0.179   3.129   3.875 -0.8305  0.1756  2.8184
 1636TIP3    H2 4873   0.030   3.148   3.858 -0.5773 -0.5353 -0.9755
 1637TIP3   OH2 4874   4.480   6.371   2.918  0.0603 -0.7454 -0.4157
 1637TIP3    H1 4875   4.450   6.349   2.830  1.0508 -2.0545 -0.4579
 1637TIP3    H2 4876   4.518   6.458   2.909 -2.9978  0.7119 -0.4953
 1638TIP3   OH2 4877   4.408   0.987   0.390  0.3172  0.1404 -0.4494
 1638TIP3    H1 4878   4.342   0.995   0.459  1.2347  0.8606  0.3790
 1638TIP3    H2 4879   4.365   1.019   0.311 -1.8665 -3.6415 -1.0704
 1639TIP3   OH2 4880   3.493   1.980   3.212  0.4091  0.2101 -0.2854
 1639TIP3    H1 4881   3.474   2.068   3.178 -0.6867 -0.2100 -0.7977
 1639TIP3    H2 4882   3.488   1.990   3.307 -2.0327  0.2677 -0.3394
 1640TIP3   OH2 4883   3.927   5.109   1.053  0.7122 -0.6835  0.8865
 1640TIP3    H1 4884   3.984   5.173   1.011  0.5766 -1.9333 -1.3284
 1640TIP3    H2 4885   3.972   5.087   1.135  1.5886  0.9344  0.8879
 1641TIP3   OH2 4886   3.168   6.519   4.301 -0.2122 -0.1302  0.3963
 1641TIP3    H1 4887   3.086   6.485   4.266  0.2326  0.0607 -0.9088
 1641TIP3    H2 4888   3.234   6.454   4.276 -0.0994 -0.8299  2.3823
 1642TIP3   OH2 4889   5.367   0.426   0.305  1.0051  0.8439 -0.7905
 1642TIP3    H1 4890   5.460   0.405   0.311  0.5438 -1.2801  0.1873
 1642TIP3    H2 4891   5.326   0.346   0.273 -0.7049  0.9553  0.8891
 1643TIP3   OH2 4892   1.604   3.486   3.810  0.1205 -0.0207  0.1313
 1643TIP3    H1 4893   1.668   3.460   3.877 -0.4489  0.1322  0.7523
 1643TIP3    H2 4894   1.529   3.428   3.825  0.8144 -1.5373 -1.8301
 1644TIP3   OH2 4895   5.752   1.264   4.998  0.0764  0.3420 -0.3244
 1644TIP3    H1 4896   5.775   1.277   5.090  2.2326  2.7455 -1.0736
 1644TIP3    H2 4897   5.725   1.172   4.992 -0.1837  0.1273  2.6710
 1645TIP3   OH2 4898   1.076   5.774   0.005  0.3490  0.3228 -0.3924
 1645TIP3    H1 4899   1.090   5.804   0.095  0.8793 -1.7095  0.2408
 1645TIP3    H2 4900   1.141   5.823  -0.047  0.1993  1.3299  0.3372
 1646TIP3   OH2 4901   1.326   1.573   1.228 -0.2586  0.5364 -0.0136
 1646TIP3    H1 4902   1.282   1.568   1.143  1.3080  0.7331 -0.8945
 1646TIP3    H2 4903   1.290   1.500   1.278 -2.0780  1.1291 -0.4029
 1647TIP3   OH2 4904   0.616   3.923   1.849 -0.1647  0.1437  0.4251
 1647TIP3    H1 4905   0.547   3.897   1.910  0.2151 -1.6470  0.1615
 1647TIP3    H2 4906   0.590   3.882   1.766 -0.5667  2.3558 -0.6058
 1648TIP3   OH2 4907   7.061   6.011   1.135 -0.4576 -0.2552  0.5363
 1648TIP3    H1 4908   7.118   6.017   1.211  0.4408 -0.1698 -0.1272
 1648TIP3    H2 4909   7.055   6.101   1.102 -1.2246 -0.2132  0.7665
 1649TIP3   OH2 4910   6.166   1.497   4.893  0.0349 -0.2040  0.3747
 1649TIP3    H1 4911   6.213   1.471   4.813 -0.5703  0.4569 -0.2103
 1649TIP3    H2 4912   6.077   1.463   4.880  0.7934 -3.4551  2.4476
 1650TIP3   OH2 4913   0.077   2.889   0.731  0.5768  0.0874  0.1111
 1650TIP3    H1 4914   0.172   2.898   0.735  0.4417  4.4818 -0.9248
 1650TIP3    H2 4915   0.060   2.858   0.642  1.0674  1.3179 -0.4386
 1651TIP3   OH2 4916   4.000   2.976   1.569  0.3712  0.0054  0.1610
 1651TIP3    H1 4917   4.063   2.913   1.534 -0.0428 -0.0702 -0.4728
 1651TIP3    H2 4918   4.011   3.054   1.514 -0.1175 -0.0300  0.0049
 1652TIP3   OH2 4919   5.548   2.720   4.719  0.0435  0.1656 -0.3382
 1652TIP3    H1 4920   5.562   2.658   4.648  0.6752  0.2158 -0.2661
 1652TIP3    H2 4921   5.623   2.707   4.777  0.3095  1.1636 -0.4486
 1653TIP3   OH2 4922   3.921   5.441   3.381 -0.0723 -0.0132  0.3677
 1653TIP3    H1 4923   4.013   5.465   3.367 -0.1931  2.0070  2.3372
 1653TIP3    H2 4924   3.878   5.459   3.297  1.1684 -0.1288 -0.3141
 1654TIP3   OH2 4925   6.052   6.143   2.828 -0.0331 -0.4206  0.7048
 1654TIP3    H1 4926   6.102   6.192   2.893 -1.0223 -1.4992  2.3577
 1654TIP3    H2 4927   5.962   6.149   2.858 -0.4848 -1.1956 -0.4284
 1655TIP3   OH2 4928   7.007   2.670   2.693 -0.0962  0.0595  0.2725
 1655TIP3    H1 4929   6.934   2.610   2.678  0.4197 -0.4915 -0.1024
 1655TIP3    H2 4930   7.084   2.613   2.698  0.5126  0.7344 -0.8400
 1656TIP3   OH2 4931   5.172   1.909   5.822  0.1950 -0.0613  0.2635
 1656TIP3    H1 4932   5.105   1.948   5.766  1.7879  1.5169 -0.6371
 1656TIP3    H2 4933   5.174   1.964   5.900  0.2961 -0.2457  0.3923
 1657TIP3   OH2 4934   0.238   1.359   3.793 -0.6422 -0.0947 -0.1297
 1657TIP3    H1 4935   0.261   1.388   3.881  1.8515  1.2844 -1.1226
 1657TIP3    H2 4936   0.220   1.266   3.802 -1.0016  0.1139  1.8961
 1658TIP3   OH2 4937   4.320   1.504   5.211  0.5681 -0.2961 -0.2614
 1658TIP3    H1 4938   4.327   1.409   5.199 -0.3964 -0.6132  1.4913
 1658TIP3    H2 4939   4.266   1.533   5.137  0.7170 -1.1160 -0.7105
 1659TIP3   OH2 4940   5.834   0.048   0.688  0.2410 -0.0640 -0.2543
 1659TIP3    H1 4941   5.820  -0.013   0.616  0.6848 -0.0350 -0.3679
 1659TIP3    H2 4942   5.866   0.128   0.646 -0.6563  0.3772 -0.1454
 1660TIP3   OH2 4943   6.726   3.268   4.154  0.7474 -0.0143  0.1618
 1660TIP3    H1 4944   6.788   3.200   4.182 -2.2144 -2.4523  1.2524
 1660TIP3    H2 4945   6.679   3.229   4.080 -0.0996  1.4135 -0.0856
 1661TIP3   OH2 4946   7.034   4.679   4.584 -0.2059 -0.6328  0.3015
 1661TIP3    H1 4947   6.994   4.688   4.497  0.7931 -1.2111 -0.2382
 1661TIP3    H2 4948   6.960   4.665   4.643 -0.8792 -0.5275 -0.4944
 1662TIP3   OH2 4949   5.331   1.405   1.417 -0.0197 -0.3770  0.1672
 1662TIP3    H1 4950   5.354   1.415   1.325 -0.3218  1.3576  0.2336
 1662TIP3    H2 4951   5.350   1.314   1.438  0.5031 -0.6693 -1.4797
 1663TIP3   OH2 4952   5.698   2.973   2.102  0.0441  0.0371  0.4375
 1663TIP3    H1 4953   5.739   2.948   2.184 -1.1950 -0.8234  0.8151
 1663TIP3    H2 4954   5.614   3.011   2.127 -1.4782 -2.4930 -0.4990
 1664TIP3   OH2 4955   3.341   6.377   5.469 -0.3559 -0.5342  0.6835
 1664TIP3    H1 4956   3.363   6.376   5.562 -0.9236 -0.1118  0.8290
 1664TIP3    H2 4957   3.411   6.428   5.428 -0.2445 -0.4994  0.9197
 1665TIP3   OH2 4958   3.019   1.152   0.650  0.0531  0.3296 -0.1511
 1665TIP3    H1 4959   3.077   1.215   0.694 -0.1871 -0.0271  0.7043
 1665TIP3    H2 4960   3.059   1.067   0.668  1.4889  0.3075 -2.9713
 1666TIP3   OH2 4961  -0.033   2.844   1.991 -0.1597  0.5045  0.3355
 1666TIP3    H1 4962   0.048   2.853   1.940  0.2044  2.3453  1.1861
 1666TIP3    H2 4963  -0.003   2.826   2.080 -0.7821 -1.6468  0.1691
 1667TIP3   OH2 4964   2.190   4.694   0.612 -0.1865 -0.0941  0.0713
 1667TIP3    H1 4965   2.244   4.731   0.542  2.2154 -1.1070  1.2936
 1667TIP3    H2 4966   2.239   4.618   0.643 -0.1618  1.3256  4.0977
 1668TIP3   OH2 4967   6.461   5.932   3.203 -0.2883  0.9698  0.1131
 1668TIP3    H1 4968   6.524   5.862   3.215 -0.9710  0.3545  0.1497
 1668TIP3    H2 4969   6.392   5.894   3.149 -0.1336  1.9408 -0.8171
 1669TIP3   OH2 4970   4.431   1.399   3.535  0.8440  0.2276 -0.7446
 1669TIP3    H1 4971   4.502   1.338   3.554  0.6042  0.0114 -0.5450
 1669TIP3    H2 4972   4.353   1.359   3.573  0.8634  1.1683  0.3692
 1670TIP3   OH2 4973   6.173   4.234   4.367 -0.5396  0.3043 -0.3894
 1670TIP3    H1 4974   6.233   4.164   4.342 -0.2565  0.2564  0.3778
 1670TIP3    H2 4975   6.229   4.309   4.384 -0.4864 -0.1662  1.8522
 1671TIP3   OH2 4976   3.081   2.109   5.159  0.4460  0.1412  0.3558
 1671TIP3    H1 4977   3.068   2.182   5.098  1.4664  0.2925  0.2943
 1671TIP3    H2 4978   3.151   2.140   5.217  1.5032 -1.1047 -0.2014
 1672TIP3   OH2 4979   0.090   0.378   2.836  0.1701  0.2181  0.4857
 1672TIP3    H1 4980   0.039   0.309   2.794  2.5914 -1.1202 -0.4717
 1672TIP3    H2 4981   0.039   0.402   2.913 -2.9540  0.5985 -1.5256
 1673TIP3   OH2 4982   3.655   2.563   4.096 -0.3567  0.6109  0.0245
 1673TIP3    H1 4983   3.588   2.629   4.082 -0.0203  0.6067 -2.0061
 1673TIP3    H2 4984   3.643   2.502   4.023  1.3383  0.1777  0.0695
 1674TIP3   OH2 4985   3.295   5.512   5.251  0.5582  0.7351 -0.3822
 1674TIP3    H1 4986   3.308   5.574   5.323 -0.0180  0.7605 -0.2938
 1674TIP3    H2 4987   3.381   5.505   5.209  1.1311  0.0529  0.8423
 1675TIP3   OH2 4988   0.577   2.905   0.205 -0.3088 -0.1626 -0.0795
 1675TIP3    H1 4989   0.572   2.874   0.296 -0.2903  0.5960  0.1893
 1675TIP3    H2 4990   0.515   2.978   0.201 -0.0367  0.0476 -0.5774
 1676TIP3   OH2 4991   4.112   6.643   2.954 -0.4624 -0.9857 -0.4767
 1676TIP3    H1 4992   4.082   6.552   2.964 -3.9099  0.0361 -0.1946
 1676TIP3    H2 4993   4.066   6.675   2.877  0.8856  0.5069 -0.7041
 1677TIP3   OH2 4994   4.163   2.242   0.172  0.3252  0.0189 -0.2887
 1677TIP3    H1 4995   4.138   2.313   0.231  0.8201  0.3414 -0.4588
 1677TIP3    H2 4996   4.242   2.274   0.128 -0.2215 -0.0702 -1.3742
 1678TIP3   OH2 4997   1.117   3.886   0.474  0.1359  0.3781 -0.3439
 1678TIP3    H1 4998   1.024   3.910   0.478 -0.0249 -0.1670 -0.6206
 1678TIP3    H2 4999   1.116   3.790   0.471  0.7308  0.3566  0.0956
 1679TIP3   OH2 5000   3.328   2.291   0.368 -0.0239 -0.3059  0.2684
 1679TIP3    H1 5001   3.387   2.232   0.415 -1.2958 -2.5549 -0.7706
 1679TIP3    H2 5002   3.292   2.237   0.297  0.3774  2.4008 -2.1544
 1680TIP3   OH2 5003   5.631   1.078   2.629 -0.1231 -0.3789  0.7961
 1680TIP3    H1 5004   5.611   0.985   2.626 -1.0364 -0.1713 -1.2360
 1680TIP3    H2 5005   5.558   1.117   2.677 -0.6551 -0.5249  0.1236
 1681TIP3   OH2 5006   1.390   1.238   5.304  0.6287  0.3652 -0.0708
 1681TIP3    H1 5007   1.434   1.222   5.388 -0.0135 -1.1558  0.0098
 1681TIP3    H2 5008   1.442   1.188   5.240  0.2795  0.3310 -0.3336
 1682TIP3   OH2 5009   5.838   6.044   2.212 -0.3052  0.1711  0.4323
 1682TIP3    H1 5010   5.780   6.049   2.136 -0.1258  3.0205  0.3709
 1682TIP3    H2 5011   5.904   5.979   2.187 -1.5100 -0.6134 -0.8895
 1683TIP3   OH2 5012   3.043   2.737   1.376  0.1160  0.3834 -0.1166
 1683TIP3    H1 5013   3.102   2.769   1.444 -1.9749 -0.0041  2.0216
 1683TIP3    H2 5014   3.032   2.644   1.396 -0.3440  0.1991 -1.1690
 1684TIP3   OH2 5015   4.918   4.293   1.752  0.2750 -0.1307  0.1640
 1684TIP3    H1 5016   4.875   4.378   1.743  1.6082  0.8438  2.1270
 1684TIP3    H2 5017   4.959   4.296   1.839 -0.8579 -3.3646  0.9680
 1685TIP3   OH2 5018   3.834   1.666   4.874 -0.2696  0.4646  0.1260
 1685TIP3    H1 5019   3.806   1.753   4.847  1.7373  1.4929  1.2037
 1685TIP3    H2 5020   3.875   1.678   4.959  1.1617 -1.3001 -0.2358
 1686TIP3   OH2 5021   2.984   1.147   3.867 -0.0306  0.4092  0.0404
 1686TIP3    H1 5022   2.924   1.087   3.822  0.3146  0.5641 -0.6420
 1686TIP3    H2 5023   3.071   1.122   3.835  0.0247  2.0661 -1.2341
 1687TIP3   OH2 5024   0.461   4.276   5.579  0.2225 -0.1331  0.1989
 1687TIP3    H1 5025   0.536   4.314   5.533 -0.1859  1.2663  0.6394
 1687TIP3    H2 5026   0.421   4.350   5.624 -1.2422 -0.9175  0.2367
 1688TIP3   OH2 5027   5.666   0.811   0.295 -0.7787 -0.5184 -0.2137
 1688TIP3    H1 5028   5.600   0.764   0.243  0.7284 -0.8655 -1.9246
 1688TIP3    H2 5029   5.730   0.744   0.318 -1.0388 -0.2075  1.5246
 1689TIP3   OH2 5030   4.689   0.920   4.627  0.2744 -0.3760  0.5103
 1689TIP3    H1 5031   4.650   0.999   4.590  1.5037 -0.7806 -1.8084
 1689TIP3    H2 5032   4.642   0.848   4.585 -0.0577 -0.9228  1.7522
 1690TIP3   OH2 5033   5.173   3.477   3.203 -0.0139 -0.2812 -0.0356
 1690TIP3    H1 5034   5.101   3.514   3.153 -0.3279  1.4566  1.5793
 1690TIP3    H2 5035   5.164   3.516   3.290  2.1272 -1.0171  0.5763
 1691TIP3   OH2 5036   0.449   0.081   4.928 -0.4444 -0.1870  0.5240
 1691TIP3    H1 5037   0.537   0.085   4.890 -0.7186  0.6886 -0.0583
 1691TIP3    H2 5038   0.458   0.024   5.004  0.6621 -0.0075  0.5455
 1692TIP3   OH2 5039   2.155   3.383   4.068  0.0494  0.5134 -0.3094
 1692TIP3    H1 5040   2.112   3.465   4.092 -1.2497  0.7795 -3.0885
 1692TIP3    H2 5041   2.088   3.335   4.019  1.9318 -0.4513 -2.1048
 1693TIP3   OH2 5042   5.950   4.706   0.039  0.5076  0.0126 -0.6040
 1693TIP3    H1 5043   6.010   4.669   0.103  1.2898 -0.2654 -1.4743
 1693TIP3    H2 5044   6.004   4.723  -0.038 -0.0917  1.7502 -0.6918
 1694TIP3   OH2 5045   6.323   0.144   1.753  0.2517 -0.1926  0.5685
 1694TIP3    H1 5046   6.279   0.214   1.705 -0.7097 -1.6597 -0.7943
 1694TIP3    H2 5047   6.383   0.104   1.689  0.4119 -0.9279  1.1552
 1695TIP3   OH2 5048   5.193   6.728   4.646  0.2068  1.0124  0.4132
 1695TIP3    H1 5049   5.285   6.757   4.649  0.5191 -0.0325  2.2784
 1695TIP3    H2 5050   5.165   6.730   4.738 -1.0784 -0.4153  0.0777
 1696TIP3   OH2 5051   0.681   5.420  -0.002 -0.0783  0.3086  0.3510
 1696TIP3    H1 5052   0.640   5.358   0.059  0.5519 -0.9809 -0.4858
 1696TIP3    H2 5053   0.752   5.461   0.048 -0.6188  0.5115  0.9685
 1697TIP3   OH2 5054   1.987   4.706   5.845  0.2190  0.0271  0.4058
 1697TIP3    H1 5055   2.021   4.702   5.756  2.5819 -1.2099  1.2772
 1697TIP3    H2 5056   1.952   4.619   5.862  1.1416 -0.2321  1.1259
 1698TIP3   OH2 5057   7.238   2.748   0.444 -0.1312 -0.4036 -0.2264
 1698TIP3    H1 5058   7.154   2.719   0.478 -0.4867  0.4578 -0.3276
 1698TIP3    H2 5059   7.216   2.803   0.369  0.1649  3.4831  2.2318
 1699TIP3   OH2 5060   4.084   0.977   2.804  0.5046  0.0614  0.6320
 1699TIP3    H1 5061   4.061   1.067   2.828 -0.6778  0.0092 -0.1930
 1699TIP3    H2 5062   4.060   0.925   2.881 -2.7195 -0.0354 -0.2897
 1700TIP3   OH2 5063   4.006   3.521   5.336 -0.0006  0.0331  0.0806
 1700TIP3    H1 5064   4.018   3.431   5.308  0.4656  0.1371 -0.0673
 1700TIP3    H2 5065   3.920   3.545   5.303 -0.1006 -0.3379  0.0689
 1701TIP3   OH2 5066   2.069   5.657   4.158 -0.7165 -0.1094 -0.1548
 1701TIP3    H1 5067   1.976   5.674   4.177 -0.6525  1.0811 -0.8260
 1701TIP3    H2 5068   2.099   5.605   4.233 -1.7387  0.1301  0.4509
 1702TIP3   OH2 5069   0.393   1.650   4.363 -0.5962  0.8048 -0.5662
 1702TIP3    H1 5070   0.394   1.555   4.352  2.2081  0.4981  1.2900
 1702TIP3    H2 5071   0.441   1.683   4.287  0.1830  0.5404 -0.1967
 1703TIP3   OH2 5072   6.646   2.368   0.880 -0.4044 -0.0618 -0.0223
 1703TIP3    H1 5073   6.710   2.321   0.933  1.3164 -0.0125 -1.9327
 1703TIP3    H2 5074   6.620   2.442   0.934 -2.1804 -2.3295  2.5304
 1704TIP3   OH2 5075   5.379   0.497   4.443 -0.1600  0.0945 -0.3850
 1704TIP3    H1 5076   5.321   0.573   4.435  0.3763  0.4783 -0.6856
 1704TIP3    H2 5077   5.454   0.529   4.492  0.2955 -0.1113 -0.9417
 1705TIP3   OH2 5078   2.873   2.329   4.707  0.5130 -0.4726  0.4659
 1705TIP3    H1 5079   2.957   2.334   4.753 -0.0111 -1.3519  1.5473
 1705TIP3    H2 5080   2.829   2.411   4.730  0.6140 -0.5178  0.8329
 1706TIP3   OH2 5081   2.195   4.817   5.581  0.1399  0.6576 -0.1079
 1706TIP3    H1 5082   2.147   4.801   5.500 -0.9556  0.9780  0.4477
 1706TIP3    H2 5083   2.287   4.803   5.559 -0.3023 -1.3391 -0.8873
 1707TIP3   OH2 5084   3.676   4.475   5.095 -0.5023 -0.1089  0.4834
 1707TIP3    H1 5085   3.652   4.395   5.142 -0.3690 -0.7019 -0.4291
 1707TIP3    H2 5086   3.694   4.539   5.164  0.2339 -1.1128  1.2514
 1708TIP3   OH2 5087   2.396   0.054   1.385 -0.1742  0.4741 -0.1948
 1708TIP3    H1 5088   2.370   0.125   1.443 -1.5180  0.3133 -0.5696
 1708TIP3    H2 5089   2.491   0.061   1.379  0.0459  0.4196  2.1246
 1709TIP3   OH2 5090   4.424   5.958   4.598  0.2589  0.1082  0.7007
 1709TIP3    H1 5091   4.354   5.913   4.646  1.0656 -0.6562  1.2029
 1709TIP3    H2 5092   4.502   5.905   4.615  0.9984  1.0369  0.2948
 1710TIP3   OH2 5093   1.108   3.964   5.550 -0.0104 -0.3918 -0.0326
 1710TIP3    H1 5094   1.155   4.018   5.487 -0.4315 -0.2135 -0.1930
 1710TIP3    H2 5095   1.037   4.020   5.581 -0.1263 -0.6676  0.1975
 1711TIP3   OH2 5096   4.183   0.688   1.628  0.0082 -0.2888 -0.1014
 1711TIP3    H1 5097   4.144   0.676   1.715 -0.8686 -0.7013 -0.5324
 1711TIP3    H2 5098   4.160   0.777   1.603 -0.5390 -0.4760 -0.2848
 1712TIP3   OH2 5099   1.996   0.243   0.375 -0.1886  0.3419 -0.5031
 1712TIP3    H1 5100   2.036   0.210   0.455  1.7909 -1.7509 -2.1904
 1712TIP3    H2 5101   2.030   0.332   0.365  1.3637 -0.1675 -0.1025
 1713TIP3   OH2 5102   4.916   4.340   2.161 -0.1093  0.3261 -0.1894
 1713TIP3    H1 5103   4.872   4.286   2.096  0.0567  0.0031 -0.0328
 1713TIP3    H2 5104   4.844   4.380   2.210 -0.2424  0.9055 -0.8356
 1714TIP3   OH2 5105   6.412   0.847   4.746 -0.0263 -0.0459  0.0319
 1714TIP3    H1 5106   6.318   0.862   4.759 -0.5082 -1.9673 -0.8717
 1714TIP3    H2 5107   6.432   0.889   4.662  0.2604  1.4926  0.8293
 1715TIP3   OH2 5108   4.486   4.113   4.024  0.5258 -0.0487 -0.1734
 1715TIP3    H1 5109   4.409   4.159   4.059 -0.6347 -2.5700  0.8216
 1715TIP3    H2 5110   4.547   4.109   4.097  0.4689 -0.3974 -0.1438
 1716TIP3   OH2 5111   1.633   3.357   3.275  0.3965  0.2237  0.0221
 1716TIP3    H1 5112   1.589   3.356   3.360 -1.0524  0.0609 -0.6875
 1716TIP3    H2 5113   1.719   3.395   3.292  0.1017  0.2618  1.5391
 1717TIP3   OH2 5114   3.217   2.408   4.033  0.2267  0.3917 -0.2014
 1717TIP3    H1 5115   3.273   2.333   4.050  3.2272  1.3606 -4.0966
 1717TIP3    H2 5116   3.141   2.372   3.988  0.8052 -0.4760 -0.5005
 1718TIP3   OH2 5117   6.452   1.135   0.394 -0.6853 -0.1014 -0.2709
 1718TIP3    H1 5118   6.535   1.113   0.436 -0.8785 -0.5535 -0.1264
 1718TIP3    H2 5119   6.401   1.055   0.397 -0.3177 -0.4729 -2.3193
 1719TIP3   OH2 5120   0.638   5.225   5.757 -0.2460  0.2457 -0.3531
 1719TIP3    H1 5121   0.723   5.243   5.797 -0.2213 -2.4551  1.0664
 1719TIP3    H2 5122   0.657   5.211   5.665  0.7331  0.4289 -0.1845
 1720TIP3   OH2 5123   0.681   0.405   4.460  0.0226  0.0656  0.6781
 1720TIP3    H1 5124   0.758   0.356   4.490 -0.5844 -0.0269  2.1649
 1720TIP3    H2 5125   0.712   0.495   4.452  1.2556 -0.5360 -2.4707
 1721TIP3   OH2 5126   4.626   5.833   1.432 -0.2034 -0.1683  0.2538
 1721TIP3    H1 5127   4.678   5.763   1.472 -2.0554 -0.8472  1.5922
 1721TIP3    H2 5128   4.653   5.912   1.480 -1.0683 -0.6770  1.6467
 1722TIP3   OH2 5129   2.815   1.648   4.495 -0.0259  0.6512  0.2551
 1722TIP3    H1 5130   2.781   1.576   4.548  0.9751  0.6861  0.9718
 1722TIP3    H2 5131   2.896   1.674   4.539  0.7994  0.7331 -1.2296
 1723TIP3   OH2 5132   7.239   4.731   4.745 -0.7287 -0.0803 -0.2787
 1723TIP3    H1 5133   7.214   4.745   4.836 -0.4019 -0.0714 -0.1901
 1723TIP3    H2 5134   7.156   4.730   4.697 -1.0102 -1.3498  0.1835
 1724TIP3   OH2 5135   4.351   0.696   3.477 -0.1224 -0.4667  0.1330
 1724TIP3    H1 5136   4.409   0.702   3.401 -0.9139  0.1717 -0.4392
 1724TIP3    H2 5137   4.402   0.733   3.549  0.6898 -1.2037 -0.0376
 1725TIP3   OH2 5138   6.325   0.308   2.779 -0.0596 -0.0564  0.5588
 1725TIP3    H1 5139   6.404   0.287   2.729 -0.3276 -0.6221  0.3675
 1725TIP3    H2 5140   6.318   0.237   2.843 -1.4353 -1.0366 -0.6314
 1726TIP3   OH2 5141   0.448   3.167   1.606  0.4752 -0.0046  0.3835
 1726TIP3    H1 5142   0.421   3.250   1.565  2.1008  0.9447  1.1463
 1726TIP3    H2 5143   0.423   3.176   1.698  1.8219  0.2130  0.7494
 1727TIP3   OH2 5144   1.156   4.165   4.758 -0.4601 -0.0957 -0.7955
 1727TIP3    H1 5145   1.198   4.249   4.778  1.7218 -0.9888 -1.2462
 1727TIP3    H2 5146   1.189   4.142   4.671 -3.4513 -0.0264 -2.0690
 1728TIP3   OH2 5147   5.675   5.767   2.738 -0.0219  0.0347 -0.4665
 1728TIP3    H1 5148   5.600   5.800   2.787  1.9743  1.4682  1.7925
 1728TIP3    H2 5149   5.736   5.736   2.805  2.6285  1.6054 -1.9905
 1729TIP3   OH2 5150   5.491   5.577   2.540 -0.1184 -0.2267  0.3703
 1729TIP3    H1 5151   5.421   5.631   2.576 -0.9929 -0.3350 -1.0532
 1729TIP3    H2 5152   5.547   5.639   2.492 -1.0528 -0.5085 -1.1585
 1730TIP3   OH2 5153   2.189   6.024   1.220 -0.1316 -0.4014  0.0849
 1730TIP3    H1 5154   2.201   6.043   1.313 -2.1594 -0.6433  0.4405
 1730TIP3    H2 5155   2.120   5.958   1.217 -0.7134  0.2040 -1.6300
 1731TIP3   OH2 5156   4.197   3.531   0.876  0.0018  0.0487 -0.0007
 1731TIP3    H1 5157   4.274   3.581   0.849 -0.1237  0.4107  0.3077
 1731TIP3    H2 5158   4.196   3.456   0.816 -0.4375  0.9902 -1.2074
 1732TIP3   OH2 5159   6.875   5.320   2.455  0.0269 -0.3410 -0.4494
 1732TIP3    H1 5160   6.853   5.413   2.450 -0.5809 -0.5323 -1.5903
 1732TIP3    H2 5161   6.971   5.318   2.453  0.0346  0.2334 -1.1787
 1733TIP3   OH2 5162   0.665   6.377   0.624 -0.1014  0.4915 -0.1953
 1733TIP3    H1 5163   0.592   6.337   0.575  0.3103 -1.3273  0.5757
 1733TIP3    H2 5164   0.674   6.464   0.586 -0.9205 -0.2100 -2.1642
 1734TIP3   OH2 5165   2.357  -0.002   5.824 -0.0467 -0.4332  0.0149
 1734TIP3    H1 5166   2.389   0.061   5.759 -0.9565 -0.3933 -0.3971
 1734TIP3    H2 5167   2.273  -0.031   5.791 -0.1387 -1.0546  0.7586
 1735TIP3   OH2 5168   1.861   4.015   4.103  0.0514 -0.1960 -0.3001
 1735TIP3    H1 5169   1.852   3.941   4.044  3.3699 -0.0702 -1.1962
 1735TIP3    H2 5170   1.893   3.977   4.185 -0.7780  0.0014  0.1180
 1736TIP3   OH2 5171   5.998   6.148   1.861  0.6192  0.7456  0.2834
 1736TIP3    H1 5172   5.941   6.082   1.821 -0.6151 -0.1229  3.1396
 1736TIP3    H2 5173   6.080   6.103   1.877  0.2493  0.2841  0.9565
 1737TIP3   OH2 5174   3.011   0.254   0.441  0.2950  0.0533 -0.0617
 1737TIP3    H1 5175   2.970   0.329   0.485  1.4702 -0.1141  1.4149
 1737TIP3    H2 5176   3.063   0.292   0.371 -0.1064  0.5055 -0.1169
 1738TIP3   OH2 5177   5.097   2.403   3.200 -0.2950  1.0040  0.2984
 1738TIP3    H1 5178   5.030   2.439   3.142  0.3483 -1.1251 -1.9376
 1738TIP3    H2 5179   5.062   2.417   3.288 -3.3130  0.7165 -0.7294
 1739TIP3   OH2 5180   1.561   4.998   3.829  0.2878  0.1064  0.0883
 1739TIP3    H1 5181   1.553   5.084   3.870  1.3518 -0.1161  0.8034
 1739TIP3    H2 5182   1.471   4.970   3.814 -0.2490 -0.1905  3.1765
 1740TIP3   OH2 5183   2.387   1.573   0.946  0.1645  0.0764 -0.5613
 1740TIP3    H1 5184   2.454   1.549   0.882  0.0230  0.1113 -0.7236
 1740TIP3    H2 5185   2.304   1.547   0.905  0.1329 -0.7070 -0.0289
 1741TIP3   OH2 5186   0.611   5.302   5.476 -0.4003 -0.0783 -0.1157
 1741TIP3    H1 5187   0.600   5.321   5.383 -0.9052 -3.6668 -0.9202
 1741TIP3    H2 5188   0.651   5.382   5.512 -3.0044  2.6429 -2.7095
 1742TIP3   OH2 5189   5.839   4.479   4.962  0.0665  0.5917 -0.6034
 1742TIP3    H1 5190   5.905   4.500   4.896  0.2126  1.9035 -0.0563
 1742TIP3    H2 5191   5.756   4.480   4.915  0.3854 -0.8540 -1.2516
 1743TIP3   OH2 5192   4.980   3.594   3.052  0.3070  0.0450  0.1693
 1743TIP3    H1 5193   5.034   3.571   2.976 -0.5302  1.2527 -0.8348
 1743TIP3    H2 5194   4.916   3.523   3.058  2.1881 -1.6605  1.6656
 1744TIP3   OH2 5195   0.357   3.357   1.133  0.3561  0.1018  0.2164
 1744TIP3    H1 5196   0.298   3.426   1.104  0.1794  0.1642  0.7254
 1744TIP3    H2 5197   0.431   3.362   1.072  0.4282  0.8500  0.3572
 1745TIP3   OH2 5198   2.965   3.328   2.937  0.0290  0.0601 -0.3603
 1745TIP3    H1 5199   2.901   3.260   2.916 -1.1421  1.3542 -1.1978
 1745TIP3    H2 5200   2.963   3.387   2.861  1.0395  1.0064  0.3117
 1746TIP3   OH2 5201   4.893   4.319   4.137  0.1300 -0.0848  0.1678
 1746TIP3    H1 5202   4.813   4.371   4.125 -0.4115 -1.1160 -0.8812
 1746TIP3    H2 5203   4.943   4.332   4.057 -0.0417 -1.1998 -0.1406
 1747TIP3   OH2 5204   4.137   0.527   5.288 -0.4678  0.3916  0.0844
 1747TIP3    H1 5205   4.205   0.554   5.227 -0.2669 -1.8962 -0.8138
 1747TIP3    H2 5206   4.055   0.550   5.244 -0.3802  3.1752  1.1827
 1748TIP3   OH2 5207   5.512   4.595   5.259 -0.7468 -0.5031 -0.3100
 1748TIP3    H1 5208   5.490   4.502   5.266 -0.6539 -0.5069 -0.0282
 1748TIP3    H2 5209   5.441   4.633   5.207 -0.3011 -0.8944 -1.2228
 1749TIP3   OH2 5210   2.332   4.551   5.682 -0.4733 -0.5704  0.2117
 1749TIP3    H1 5211   2.262   4.531   5.743 -1.0704 -3.2124 -1.1723
 1749TIP3    H2 5212   2.362   4.466   5.651  1.1007  0.5893 -1.7337
 1750TIP3   OH2 5213   1.580   5.271   1.469 -0.4653  0.4221 -0.3002
 1750TIP3    H1 5214   1.597   5.183   1.437 -0.2431 -0.1727  1.3607
 1750TIP3    H2 5215   1.488   5.269   1.497 -0.4160  0.6788 -0.1159
 1751TIP3   OH2 5216   1.174   4.476   4.250 -0.2872  0.2121 -0.2273
 1751TIP3    H1 5217   1.257   4.440   4.220  0.0791  1.9709 -1.4823
 1751TIP3    H2 5218   1.108   4.413   4.221  0.5403 -0.8497  0.1764
 1752TIP3   OH2 5219   3.638   2.053   0.983 -0.0265  0.4115 -0.0901
 1752TIP3    H1 5220   3.549   2.062   0.951  0.4225  2.7016 -0.8612
 1752TIP3    H2 5221   3.642   2.108   1.061  1.1208  1.8703 -1.1026
 1753TIP3   OH2 5222   3.232   3.648   0.742 -0.7366 -0.0660 -0.0029
 1753TIP3    H1 5223   3.293   3.588   0.699  0.9477  1.0207  0.7590
 1753TIP3    H2 5224   3.231   3.620   0.833 -2.4368 -0.8797 -0.2388
 1754TIP3   OH2 5225   3.353   0.600   4.808  0.1365 -0.1078  0.3666
 1754TIP3    H1 5226   3.411   0.541   4.856 -0.2595 -1.3214 -0.5987
 1754TIP3    H2 5227   3.314   0.656   4.876  0.1755 -1.2676  1.3785
 1755TIP3   OH2 5228   0.023   0.065   0.221 -0.8795 -0.2551  0.2859
 1755TIP3    H1 5229   0.042   0.002   0.151  3.4437 -0.1815  1.1014
 1755TIP3    H2 5230  -0.021   0.013   0.289 -0.8185 -1.4618 -0.5663
 1756TIP3   OH2 5231   1.150   4.622   1.013  0.4003 -0.5372  0.1583
 1756TIP3    H1 5232   1.197   4.673   0.947  0.1909 -0.3819  0.1305
 1756TIP3    H2 5233   1.123   4.542   0.967  1.3169 -0.9981  0.3758
 1757TIP3   OH2 5234   0.896   5.662   5.688 -0.5839 -0.2681  0.0878
 1757TIP3    H1 5235   0.882   5.751   5.721 -1.7838 -0.3992 -0.0293
 1757TIP3    H2 5236   0.891   5.606   5.765 -1.9760 -0.4326 -0.0984
 1758TIP3   OH2 5237   1.485   2.047   0.980  0.6156  0.3735  0.3606
 1758TIP3    H1 5238   1.452   2.058   0.891  1.3311  2.2581  0.2811
 1758TIP3    H2 5239   1.575   2.015   0.969  1.2412  2.0627  0.3169
 1759TIP3   OH2 5240   2.416   3.693   0.046 -0.2523 -0.0757 -0.1348
 1759TIP3    H1 5241   2.329   3.677   0.010 -0.4933 -0.7909  0.7254
 1759TIP3    H2 5242   2.418   3.644   0.128  0.5840  0.8095  0.4020
 1760TIP3   OH2 5243   3.853   4.339   5.430 -0.0119  0.1355  0.0064
 1760TIP3    H1 5244   3.809   4.412   5.473 -0.4705  0.6988 -1.3408
 1760TIP3    H2 5245   3.843   4.265   5.490  0.2386  1.1100  1.2792
 1761TIP3   OH2 5246   6.280   3.329   4.379  0.0773  0.5744 -0.0175
 1761TIP3    H1 5247   6.304   3.421   4.395 -0.4227  0.1630  3.9675
 1761TIP3    H2 5248   6.360   3.280   4.400 -0.2886 -0.0470 -0.0647
 1762TIP3   OH2 5249   4.830   3.382   3.334 -0.0402  0.4925 -0.2656
 1762TIP3    H1 5250   4.806   3.382   3.241  1.8918 -0.9137 -0.8338
 1762TIP3    H2 5251   4.866   3.469   3.350  0.8812  0.3112 -1.2363
 1763TIP3   OH2 5252   5.424   3.704   3.982  0.3289 -0.3690  0.8493
 1763TIP3    H1 5253   5.487   3.768   3.949  0.0433 -0.4625  0.1146
 1763TIP3    H2 5254   5.448   3.693   4.074  0.7143  0.3969  0.8528
 1764TIP3   OH2 5255   1.271   2.429   5.828  0.2765 -0.0530 -0.2522
 1764TIP3    H1 5256   1.256   2.524   5.833  0.0586 -0.0723 -0.5438
 1764TIP3    H2 5257   1.196   2.395   5.779  1.2240 -0.1506 -1.6924
 1765TIP3   OH2 5258   6.921   6.154   3.265 -0.0908  0.5780 -0.5484
 1765TIP3    H1 5259   6.848   6.214   3.277  0.6448  1.2321  0.9410
 1765TIP3    H2 5260   6.991   6.209   3.228  0.3483  0.4827  0.1246
 1766TIP3   OH2 5261   2.808   6.727   4.845  0.0677  0.4260  0.0919
 1766TIP3    H1 5262   2.781   6.807   4.890 -0.1122  1.4104 -1.6918
 1766TIP3    H2 5263   2.726   6.685   4.819  0.1749  0.3081 -0.0586
 1767TIP3   OH2 5264   3.526   1.262   2.817  0.0751 -0.3522  0.2276
 1767TIP3    H1 5265   3.503   1.352   2.797  0.1731 -0.2414  0.6164
 1767TIP3    H2 5266   3.506   1.252   2.910 -0.6317 -0.9456  0.0268
 1768TIP3   OH2 5267   3.712   1.727   2.805  0.7889 -0.1624  0.2796
 1768TIP3    H1 5268   3.767   1.703   2.880  1.9013  1.7472  0.1265
 1768TIP3    H2 5269   3.693   1.820   2.817 -0.8970 -0.3411 -0.6617
 1769TIP3   OH2 5270   1.205   1.854   2.015  0.4135 -0.0261  0.2397
 1769TIP3    H1 5271   1.207   1.948   2.000  0.2114  0.1990  1.5243
 1769TIP3    H2 5272   1.286   1.821   1.976  1.0810  0.8595  0.8490
 1770TIP3   OH2 5273   0.261   6.357   4.974  0.2394  0.0416 -0.4456
 1770TIP3    H1 5274   0.309   6.276   4.995 -0.7530 -0.7209 -1.0108
 1770TIP3    H2 5275   0.328   6.417   4.943  0.9251 -0.7823 -0.6091
 1771TIP3   OH2 5276   2.040   3.282   5.755 -0.0663 -0.7882 -0.6041
 1771TIP3    H1 5277   2.002   3.206   5.800 -1.9916  0.2752 -0.3287
 1771TIP3    H2 5278   2.060   3.250   5.668 -0.9670 -1.6028 -0.5317
 1772TIP3   OH2 5279   2.154   1.494   4.694  0.3657 -0.3114  0.1870
 1772TIP3    H1 5280   2.094   1.438   4.644  0.0786  1.3716 -1.4671
 1772TIP3    H2 5281   2.241   1.467   4.665  0.3256 -1.1844  0.8481
 1773TIP3   OH2 5282   6.073   0.325   4.326  0.5299  0.0572 -0.2694
 1773TIP3    H1 5283   6.065   0.330   4.230  2.3533  1.2650 -0.3921
 1773TIP3    H2 5284   6.086   0.232   4.343 -1.5356 -0.4308 -0.9942
 1774TIP3   OH2 5285   3.428   6.388   1.251 -0.2733  0.1154 -0.3209
 1774TIP3    H1 5286   3.518   6.386   1.282 -0.5585 -1.3002  0.5273
 1774TIP3    H2 5287   3.387   6.460   1.299 -0.5905 -1.7477  2.4566
 1775TIP3   OH2 5288   6.987   4.398   3.850  0.1846 -0.2317  0.2122
 1775TIP3    H1 5289   7.057   4.430   3.793  1.6808 -0.4990  1.7957
 1775TIP3    H2 5290   6.946   4.328   3.799 -0.1473  1.1123 -1.4638
 1776TIP3   OH2 5291   5.025   0.868   2.340 -0.4249 -0.2525 -0.0807
 1776TIP3    H1 5292   5.074   0.894   2.418 -1.3119  2.6510 -0.3882
 1776TIP3    H2 5293   4.992   0.780   2.361 -0.2085  0.2331  2.6270
 1777TIP3   OH2 5294   2.509   6.281   4.537 -0.1686 -0.3708 -0.2063
 1777TIP3    H1 5295   2.442   6.246   4.478  0.6287 -0.0426 -1.3373
 1777TIP3    H2 5296   2.566   6.207   4.556  0.4880 -0.1434 -1.1662
 1778TIP3   OH2 5297   5.407   5.177   4.481  0.5289  0.3062 -0.0151
 1778TIP3    H1 5298   5.441   5.232   4.410  0.1629 -0.0016 -0.4353
 1778TIP3    H2 5299   5.483   5.128   4.512  0.4613 -0.4467 -1.0093
 1779TIP3   OH2 5300   6.509   5.390   2.877  0.5181 -0.0897  0.2305
 1779TIP3    H1 5301   6.442   5.322   2.874  1.1457 -0.7032 -2.0093
 1779TIP3    H2 5302   6.487   5.450   2.806  1.9818  0.0252 -0.1705
 1780TIP3   OH2 5303   6.181   0.078   0.161 -0.1569 -0.0918  0.7217
 1780TIP3    H1 5304   6.266   0.057   0.200  0.7665 -1.1330 -1.6661
 1780TIP3    H2 5305   6.187   0.172   0.143 -0.3004  0.2422  2.2841
 1781TIP3   OH2 5306   5.303   4.301   5.172 -0.8482  0.1415 -0.4718
 1781TIP3    H1 5307   5.376   4.280   5.230 -0.2205  0.3520 -1.1655
 1781TIP3    H2 5308   5.228   4.311   5.230 -0.1449  0.7768  0.3483
 1782TIP3   OH2 5309   3.715   0.271   1.148  0.0774  0.0597 -0.9798
 1782TIP3    H1 5310   3.755   0.264   1.061  0.3256  0.9794 -0.9510
 1782TIP3    H2 5311   3.789   0.287   1.207 -0.3697  2.8609 -1.0663
 1783TIP3   OH2 5312   2.186   4.034   0.412 -0.2206  0.1589  0.0828
 1783TIP3    H1 5313   2.248   4.102   0.385  0.4050  0.5903  2.3716
 1783TIP3    H2 5314   2.127   4.078   0.473  1.9899 -1.7568  4.0475
 1784TIP3   OH2 5315   0.049   1.818   1.552 -0.1747 -0.4054  0.2279
 1784TIP3    H1 5316   0.067   1.834   1.645  0.2694 -0.2727  0.1197
 1784TIP3    H2 5317  -0.024   1.756   1.553 -0.3457 -0.2065  0.6632
 1785TIP3   OH2 5318   2.115   6.759   0.326  0.1186  0.5535 -0.1079
 1785TIP3    H1 5319   2.100   6.775   0.233 -0.5481  0.9689  0.0629
 1785TIP3    H2 5320   2.092   6.842   0.368 -2.1577 -0.4008  0.6733
 1786TIP3   OH2 5321   2.979   1.654   3.233  0.3362 -0.1254 -0.5308
 1786TIP3    H1 5322   2.943   1.707   3.304  0.6936 -0.3489 -0.1781
 1786TIP3    H2 5323   3.071   1.642   3.257  0.8339  1.0269 -1.7618
 1787TIP3   OH2 5324   2.026   5.376   1.719 -0.5014 -0.3615  0.0343
 1787TIP3    H1 5325   2.101   5.318   1.709 -1.1611 -1.1606 -0.3856
 1787TIP3    H2 5326   1.950   5.320   1.705 -1.1459  0.8145 -1.4148
 1788TIP3   OH2 5327   4.731   5.873   0.883 -0.2209 -0.6594 -1.0048
 1788TIP3    H1 5328   4.732   5.890   0.977 -1.1011  0.8903 -1.2319
 1788TIP3    H2 5329   4.639   5.859   0.862 -0.2435  0.5686 -1.8525
 1789TIP3   OH2 5330   5.151   0.384   2.330 -0.4937 -0.6285 -0.8355
 1789TIP3    H1 5331   5.064   0.400   2.367 -0.2782  1.2669 -1.0617
 1789TIP3    H2 5332   5.141   0.403   2.237  0.0654 -0.8015 -0.9283
 1790TIP3   OH2 5333   1.615   0.719   1.494 -0.3823  1.0084  0.7440
 1790TIP3    H1 5334   1.608   0.743   1.402  0.8278  0.3633  0.4582
 1790TIP3    H2 5335   1.529   0.685   1.517 -0.3730  0.1077 -0.4760
 1791TIP3   OH2 5336   2.630   3.009   1.938 -0.8186 -0.4856  0.2539
 1791TIP3    H1 5337   2.581   3.085   1.906 -0.8825  0.5817  2.6411
 1791TIP3    H2 5338   2.708   3.046   1.979 -0.9742 -1.6517  1.6974
 1792TIP3   OH2 5339   0.173   2.915   4.749  0.5551 -0.0126  0.0979
 1792TIP3    H1 5340   0.113   2.844   4.728  1.2168 -0.8480  0.9242
 1792TIP3    H2 5341   0.237   2.875   4.808  0.9305  1.2820  0.5967
 1793TIP3   OH2 5342   5.888   6.364   5.214 -0.1399  0.5185 -0.2964
 1793TIP3    H1 5343   5.872   6.449   5.173  0.3538  0.8874  0.2551
 1793TIP3    H2 5344   5.807   6.315   5.201  0.4490  0.0913 -2.9508
 1794TIP3   OH2 5345   5.971   5.711   5.620  0.3450 -0.2216 -0.8970
 1794TIP3    H1 5346   5.946   5.619   5.612 -1.8086  0.2292  0.0674
 1794TIP3    H2 5347   5.995   5.722   5.712 -1.0660  0.5197 -0.5920
 1795TIP3   OH2 5348   5.588   0.653   0.084  0.6046 -0.3426 -0.2886
 1795TIP3    H1 5349   5.541   0.632   0.003  0.1303  1.3576 -0.4966
 1795TIP3    H2 5350   5.655   0.585   0.091  1.4455  0.1237 -2.7657
 1796TIP3   OH2 5351   6.178   0.056   4.226  0.4398  0.1128  0.4579
 1796TIP3    H1 5352   6.169  -0.031   4.187  0.1225 -0.0158  0.8055
 1796TIP3    H2 5353   6.159   0.042   4.319 -0.0406  0.6276  0.4450
 1797TIP3   OH2 5354   0.388   5.736   1.074  0.2881 -0.3168  0.2500
 1797TIP3    H1 5355   0.404   5.825   1.106  1.2198 -0.5389  0.4464
 1797TIP3    H2 5356   0.296   5.735   1.049  0.1156  0.5243  0.8213
 1798TIP3   OH2 5357   0.363   0.984   5.742 -0.2480 -0.5759 -0.2286
 1798TIP3    H1 5358   0.339   0.893   5.756  0.1945 -0.4732  1.3562
 1798TIP3    H2 5359   0.440   0.998   5.797  0.5746  0.3825 -1.5327
 1799TIP3   OH2 5360   5.540   4.119   0.169  0.3521 -0.7492  0.0608
 1799TIP3    H1 5361   5.540   4.194   0.109 -0.2729 -1.8012 -1.3058
 1799TIP3    H2 5362   5.608   4.140   0.234 -1.1100  1.8808  0.8939
 1800TIP3   OH2 5363   3.711   1.786   3.955  0.1771  0.5462  0.1646
 1800TIP3    H1 5364   3.642   1.719   3.959  0.3430  0.4170  2.0634
 1800TIP3    H2 5365   3.773   1.753   3.891 -1.2047  0.3599 -1.1324
 1801TIP3   OH2 5366   0.193   3.887   0.610  0.2823  0.3283  0.5204
 1801TIP3    H1 5367   0.211   3.820   0.544 -2.1805  0.6746 -0.5873
 1801TIP3    H2 5368   0.133   3.948   0.568 -1.0713  0.7929  2.9126
 1802TIP3   OH2 5369   0.420   4.626   3.493 -0.2293 -0.3020  0.2356
 1802TIP3    H1 5370   0.505   4.595   3.524  1.0043  0.6038 -2.0259
 1802TIP3    H2 5371   0.379   4.549   3.454 -0.2971 -0.6452  0.9605
 1803TIP3   OH2 5372   7.019   4.282   2.191  0.2166 -0.1516 -0.5505
 1803TIP3    H1 5373   6.952   4.216   2.172 -0.3068  0.2539 -0.1508
 1803TIP3    H2 5374   7.087   4.234   2.238 -0.5593 -0.2450  0.5182
 1804TIP3   OH2 5375   6.890   1.611   0.828 -0.1764  0.2834  0.5706
 1804TIP3    H1 5376   6.974   1.582   0.863 -0.2891  0.6355  1.1436
 1804TIP3    H2 5377   6.843   1.530   0.809  0.1017  0.0887  0.7085
 1805TIP3   OH2 5378   3.596   3.243   3.105 -0.0160  0.2258  0.2574
 1805TIP3    H1 5379   3.658   3.197   3.162 -1.2477  2.1346  3.3952
 1805TIP3    H2 5380   3.637   3.328   3.089 -0.4411  0.3204 -0.3484
 1806TIP3   OH2 5381   0.288   1.414   4.091 -0.4115 -0.4085  0.0544
 1806TIP3    H1 5382   0.316   1.427   4.181 -3.1248  3.2456  0.6033
 1806TIP3    H2 5383   0.230   1.337   4.094 -2.0271  0.8037  1.9219
 1807TIP3   OH2 5384   3.870   5.551   2.502 -0.1718  0.5264  0.3033
 1807TIP3    H1 5385   3.824   5.625   2.544  1.7482  2.0486 -0.1386
 1807TIP3    H2 5386   3.845   5.475   2.555 -1.7390  1.5730  1.1636
 1808TIP3   OH2 5387   4.554   0.018   5.190 -0.2848  0.3132  0.0362
 1808TIP3    H1 5388   4.637   0.058   5.165  0.1882  0.8051  2.1245
 1808TIP3    H2 5389   4.558  -0.071   5.155 -0.3141  1.2680 -2.6214
 1809TIP3   OH2 5390   0.446   3.587   3.176  0.0823 -0.4857  0.1792
 1809TIP3    H1 5391   0.419   3.530   3.104  0.2466  0.6531 -0.8108
 1809TIP3    H2 5392   0.541   3.588   3.172  0.0642  0.8771 -0.6741
 1810TIP3   OH2 5393   6.309   0.332   0.243 -0.0130  0.5911  0.1949
 1810TIP3    H1 5394   6.387   0.355   0.192  1.7413 -2.9663  0.9446
 1810TIP3    H2 5395   6.343   0.307   0.329 -2.0736 -0.2735  0.8196
 1811TIP3   OH2 5396   0.349   3.089   1.199 -0.8497 -0.2248 -0.5842
 1811TIP3    H1 5397   0.272   3.061   1.248 -0.7557  0.2202 -0.1641
 1811TIP3    H2 5398   0.338   3.184   1.190  0.2702  0.0504  0.6223
 1812TIP3   OH2 5399   0.041   6.452   4.634  0.3671  0.6265  0.0108
 1812TIP3    H1 5400   0.074   6.371   4.673  0.2411  0.5455 -0.0494
 1812TIP3    H2 5401   0.039   6.434   4.540 -0.5277  0.3773  0.0730
 1813TIP3   OH2 5402   4.699   4.793   1.824  0.3432  0.3281  0.2275
 1813TIP3    H1 5403   4.781   4.836   1.799  1.1456 -0.7906  0.8283
 1813TIP3    H2 5404   4.702   4.709   1.779 -0.6078  0.3876  0.0450
 1814TIP3   OH2 5405   7.027   0.206   2.160  0.2206  0.5854 -0.0426
 1814TIP3    H1 5406   6.975   0.151   2.219  1.0797  1.4500  1.5817
 1814TIP3    H2 5407   7.111   0.161   2.152 -0.4709 -0.4835 -2.1638
 1815TIP3   OH2 5408   0.551   3.373   0.584 -0.0074  0.4375 -0.1881
 1815TIP3    H1 5409   0.524   3.382   0.493 -0.3124 -0.8282 -0.2380
 1815TIP3    H2 5410   0.469   3.353   0.631  0.3340 -0.1910  0.1547
 1816TIP3   OH2 5411   5.960   2.198   3.385  0.0931  0.0007  0.1402
 1816TIP3    H1 5412   6.034   2.142   3.360 -0.4419 -0.3663 -0.6631
 1816TIP3    H2 5413   5.970   2.275   3.329 -0.1201 -0.0405  0.0465
 1817TIP3   OH2 5414   5.275   0.051   3.851  0.7347  0.2507 -0.1395
 1817TIP3    H1 5415   5.342   0.119   3.852  0.2471  0.8103 -1.6046
 1817TIP3    H2 5416   5.301  -0.010   3.920  2.0265  1.1191  0.1832
 1818TIP3   OH2 5417   5.038   2.926   5.066  0.0737  0.0991  0.1793
 1818TIP3    H1 5418   5.120   2.896   5.105  1.4234  1.9741 -1.0436
 1818TIP3    H2 5419   5.053   2.924   4.972 -1.2010  0.6844 -0.0653
 1819TIP3   OH2 5420   3.533   4.510   0.489  1.0162  0.1589 -0.4554
 1819TIP3    H1 5421   3.469   4.538   0.423  0.7160 -0.5975 -0.4892
 1819TIP3    H2 5422   3.530   4.578   0.556 -0.9135 -0.5919  0.2771
 1820TIP3   OH2 5423   1.532   1.256   0.642 -0.2180 -0.2835 -0.7421
 1820TIP3    H1 5424   1.494   1.185   0.694  0.4961 -0.1059  0.0471
 1820TIP3    H2 5425   1.461   1.319   0.632  0.2949  0.9577  2.3515
 1821TIP3   OH2 5426   6.280   1.779   2.123  0.1163 -0.0633 -0.2064
 1821TIP3    H1 5427   6.369   1.764   2.090  0.5138  0.0922  0.7485
 1821TIP3    H2 5428   6.288   1.858   2.177 -0.6340  0.0265 -0.2180
 1822TIP3   OH2 5429   4.041   4.503   4.640 -0.3948  0.5526  0.9411
 1822TIP3    H1 5430   4.129   4.533   4.661 -0.1945 -0.1017  1.0382
 1822TIP3    H2 5431   4.006   4.571   4.582  0.1722  0.8053  0.8890
 1823TIP3   OH2 5432   2.994   6.114   2.025 -0.5069 -0.1039  0.0100
 1823TIP3    H1 5433   3.015   6.021   2.018  1.5952  0.3223 -0.1377
 1823TIP3    H2 5434   3.017   6.150   1.939 -3.7128  0.1987 -0.8318
 1824TIP3   OH2 5435   5.073   1.959   2.571 -0.1963  0.3638 -0.3325
 1824TIP3    H1 5436   5.077   2.053   2.590 -2.5072  0.1947  1.4420
 1824TIP3    H2 5437   5.108   1.917   2.649 -2.8025 -0.2437  0.5995
 1825TIP3   OH2 5438   6.880   1.964   5.839 -0.0619  0.5124 -0.1032
 1825TIP3    H1 5439   6.866   1.898   5.771  0.4747  1.1997 -0.9002
 1825TIP3    H2 5440   6.829   2.040   5.809 -1.4399  0.1930  1.2674
 1826TIP3   OH2 5441   4.790   5.253   2.527 -0.1753 -0.6115 -0.6168
 1826TIP3    H1 5442   4.752   5.332   2.488  1.5547  0.7298  0.2909
 1826TIP3    H2 5443   4.882   5.255   2.502  0.0801 -1.9405  0.0935
 1827TIP3   OH2 5444   3.206   1.288   2.193  0.3871  0.3969 -0.6467
 1827TIP3    H1 5445   3.145   1.303   2.265 -0.1896  1.2956 -1.3001
 1827TIP3    H2 5446   3.284   1.251   2.235 -0.0333  0.6604  0.3988
 1828TIP3   OH2 5447   1.629   6.634   4.926  0.2809 -0.7282  0.0957
 1828TIP3    H1 5448   1.718   6.605   4.945  0.3537 -1.1298 -0.8090
 1828TIP3    H2 5449   1.605   6.588   4.846 -0.4425  0.0022 -0.1217
 1829TIP3   OH2 5450   1.106   3.716   4.638  0.3147  0.3726 -0.2379
 1829TIP3    H1 5451   1.142   3.642   4.688 -2.0040  0.0739  1.1621
 1829TIP3    H2 5452   1.182   3.771   4.619  1.6039 -0.5253  1.9059
 1830TIP3   OH2 5453   6.132   5.927   0.689 -0.2006 -0.8296 -0.5449
 1830TIP3    H1 5454   6.074   5.903   0.761 -0.1052 -2.5800 -1.0021
 1830TIP3    H2 5455   6.131   6.023   0.688 -0.3124 -0.7567  1.6779
 1831TIP3   OH2 5456   1.516   0.503   3.027  0.3110  0.3101  0.2569
 1831TIP3    H1 5457   1.472   0.507   2.942  2.0638  0.1574 -0.7055
 1831TIP3    H2 5458   1.565   0.421   3.024  0.1308  0.1309  1.5828
 1832TIP3   OH2 5459   1.888   2.505   5.660 -0.0506 -0.7797 -0.9153
 1832TIP3    H1 5460   1.824   2.434   5.659 -2.4473  1.1152  1.6281
 1832TIP3    H2 5461   1.960   2.471   5.712 -2.1817 -0.7409  2.3200
 1833TIP3   OH2 5462   0.634   1.570   5.608 -0.2651 -0.5040 -0.1856
 1833TIP3    H1 5463   0.672   1.645   5.653 -0.2421  0.3216 -1.5229
 1833TIP3    H2 5464   0.663   1.579   5.517 -2.9463 -0.2580 -1.1123
 1834TIP3   OH2 5465   3.535   0.160   0.754  0.3164 -0.0092  0.0161
 1834TIP3    H1 5466   3.584   0.163   0.672  2.9407 -2.0639  1.3288
 1834TIP3    H2 5467   3.512   0.251   0.772  2.2621  0.8721 -1.5509
 1835TIP3   OH2 5468   3.689   5.953   0.426 -0.1895 -0.2968  0.0368
 1835TIP3    H1 5469   3.615   5.946   0.486 -0.7754  1.7220 -0.3865
 1835TIP3    H2 5470   3.657   5.916   0.344 -1.4775  2.2639 -0.7159
 1836TIP3   OH2 5471   6.965   0.903   2.405  0.7519  0.4339 -0.2541
 1836TIP3    H1 5472   7.053   0.940   2.412  0.5530  0.7349  0.7949
 1836TIP3    H2 5473   6.936   0.893   2.495  0.4561 -1.5040 -0.5123
 1837TIP3   OH2 5474   0.292   5.925   0.788 -0.4261 -0.1936 -0.3126
 1837TIP3    H1 5475   0.260   5.935   0.698 -0.0193 -2.1033 -0.7162
 1837TIP3    H2 5476   0.240   5.986   0.839  0.1660  1.8482 -2.0088
 1838TIP3   OH2 5477   5.602   4.704   3.700  0.4875  0.3327 -0.5493
 1838TIP3    H1 5478   5.653   4.758   3.640  0.2610  1.5428  0.3031
 1838TIP3    H2 5479   5.517   4.694   3.656  0.8273 -0.0881 -1.1155
 1839TIP3   OH2 5480   5.405   5.264   1.961 -0.3000  0.5481 -0.1051
 1839TIP3    H1 5481   5.318   5.289   1.930 -0.1124  1.2255 -0.1142
 1839TIP3    H2 5482   5.391   5.185   2.013 -0.9196  0.6518 -0.1109
 1840TIP3   OH2 5483   0.490   0.226   4.382  0.0351 -0.3716 -0.2730
 1840TIP3    H1 5484   0.433   0.251   4.455 -1.2627 -0.6897 -1.1532
 1840TIP3    H2 5485   0.563   0.288   4.387  0.1826 -0.6351  1.5187
 1841TIP3   OH2 5486   5.480   2.875   3.277  0.2629 -0.7891  0.9376
 1841TIP3    H1 5487   5.404   2.824   3.303 -0.1952  0.2458  1.7249
 1841TIP3    H2 5488   5.511   2.914   3.359 -0.5152  1.6591  0.1516
 1842TIP3   OH2 5489   6.975   0.225   4.353 -0.0550 -0.6370  0.6606
 1842TIP3    H1 5490   7.010   0.165   4.419  1.0831  2.0445  2.6751
 1842TIP3    H2 5491   6.995   0.312   4.387 -2.2689  0.9458 -1.7366
 1843TIP3   OH2 5492   3.025   0.185   1.890 -0.1298 -0.4683 -0.4714
 1843TIP3    H1 5493   3.103   0.215   1.842 -2.5157  1.3669 -3.6269
 1843TIP3    H2 5494   3.019   0.092   1.871 -0.2413 -0.0499 -2.7640
 1844TIP3   OH2 5495   5.841   6.318   2.161  0.0067  0.3074 -0.2566
 1844TIP3    H1 5496   5.875   6.232   2.185  2.2505  0.6831 -1.6878
 1844TIP3    H2 5497   5.747   6.306   2.151 -0.5507 -0.7678  4.3065
 1845TIP3   OH2 5498   5.070   2.860   4.027  0.9812  0.0088 -0.2181
 1845TIP3    H1 5499   5.061   2.820   3.940  1.6365 -1.2519  0.2717
 1845TIP3    H2 5500   5.122   2.797   4.077 -0.1483  0.2901  1.3759
 1846TIP3   OH2 5501   6.623   5.016   2.737  0.0258  0.1852 -0.0100
 1846TIP3    H1 5502   6.613   4.937   2.685  0.5405  0.2136 -0.1595
 1846TIP3    H2 5503   6.614   4.987   2.828 -0.2593  0.0341 -0.0859
 1847TIP3   OH2 5504   4.882   2.914   0.300 -0.8297 -0.0728  0.2741
 1847TIP3    H1 5505   4.804   2.934   0.248 -1.2847 -0.2006  0.9009
 1847TIP3    H2 5506   4.894   2.820   0.290  0.3746  0.2002 -1.3659
 1848TIP3   OH2 5507   2.790   1.520   1.570 -0.1184  0.2342 -0.4042
 1848TIP3    H1 5508   2.862   1.566   1.526 -0.1111  1.1389  0.5388
 1848TIP3    H2 5509   2.812   1.523   1.663 -2.1642  1.9903  0.1038
 1849TIP3   OH2 5510   0.835   3.007   0.911  0.5382  0.1310  0.1156
 1849TIP3    H1 5511   0.807   3.096   0.893 -0.4301  0.0075  0.9298
 1849TIP3    H2 5512   0.831   2.963   0.826  1.4221  0.9546 -0.3629
 1850TIP3   OH2 5513   3.099   0.199   3.737 -0.1063  0.0177  0.5316
 1850TIP3    H1 5514   3.040   0.252   3.685 -0.7178 -0.4364  0.7563
 1850TIP3    H2 5515   3.095   0.112   3.698  0.7583  0.0875  0.2691
 1851TIP3   OH2 5516   6.131   3.562   5.115 -0.0058  0.1710  0.0625
 1851TIP3    H1 5517   6.138   3.647   5.071 -0.7349  1.5155  2.3578
 1851TIP3    H2 5518   6.048   3.566   5.163  0.7808 -1.1130  1.6515
 1852TIP3   OH2 5519   7.220   0.866   3.492  0.1504  0.5181  0.0817
 1852TIP3    H1 5520   7.264   0.879   3.408  0.5305 -0.8131  0.0475
 1852TIP3    H2 5521   7.127   0.882   3.473  0.1777 -0.1663 -0.7099
 1853TIP3   OH2 5522   6.601   5.816   2.898  0.3147  0.1296  0.4179
 1853TIP3    H1 5523   6.574   5.793   2.987  1.0269 -2.1939  0.1083
 1853TIP3    H2 5524   6.519   5.839   2.854 -0.4491 -1.3184  0.9920
 1854TIP3   OH2 5525   4.451   5.318   0.734  0.1919 -0.2433  0.1665
 1854TIP3    H1 5526   4.458   5.355   0.647 -0.2096 -0.6264 -0.0354
 1854TIP3    H2 5527   4.446   5.223   0.719 -0.2133 -0.2938  0.5767
 1855TIP3   OH2 5528   2.119   4.572   5.446  0.4660  0.5112 -0.2841
 1855TIP3    H1 5529   2.210   4.542   5.450  0.4581  0.5939  0.8661
 1855TIP3    H2 5530   2.081   4.544   5.529 -1.1153 -1.2076 -1.4796
 1856TIP3   OH2 5531   0.666   2.094   4.834 -0.6767  0.5189 -0.2924
 1856TIP3    H1 5532   0.608   2.050   4.772  0.1075 -1.1134  0.0728
 1856TIP3    H2 5533   0.750   2.100   4.788 -0.6061  1.1053 -0.0985
 1857TIP3   OH2 5534   0.628   2.797   1.059 -0.8236  0.3839  0.5169
 1857TIP3    H1 5535   0.576   2.874   1.035 -0.8209  0.2869  0.1976
 1857TIP3    H2 5536   0.673   2.823   1.139  0.4487  1.3005 -0.4610
 1858TIP3   OH2 5537   4.111   3.068   1.809 -0.1954 -0.1576 -0.4021
 1858TIP3    H1 5538   4.158   3.128   1.752  0.2744 -0.3161 -0.1845
 1858TIP3    H2 5539   4.034   3.043   1.758 -1.0738  1.6021 -0.0102
 1859TIP3   OH2 5540   5.470   6.318   2.609  0.3196  0.7850  0.5468
 1859TIP3    H1 5541   5.554   6.275   2.625  0.7651  0.4488 -2.2408
 1859TIP3    H2 5542   5.407   6.268   2.661  1.4063 -0.8165  0.3801
 1860TIP3   OH2 5543   0.188   6.423   2.713 -0.2825  0.4540 -0.1272
 1860TIP3    H1 5544   0.159   6.335   2.738  1.0519  0.0256 -0.0299
 1860TIP3    H2 5545   0.271   6.435   2.758  0.1959  1.2430 -1.1731
 1861TIP3   OH2 5546   5.861   4.820   5.618  0.1184 -0.1538  0.1839
 1861TIP3    H1 5547   5.948   4.839   5.584 -0.0077 -0.1413 -0.1368
 1861TIP3    H2 5548   5.871   4.736   5.664  0.3614 -0.0095  0.3937
 1862TIP3   OH2 5549   5.107   6.638   0.551 -0.3962  0.1314 -0.1102
 1862TIP3    H1 5550   5.102   6.636   0.456 -1.9975  0.1841 -0.0531
 1862TIP3    H2 5551   5.192   6.599   0.571  0.0955  0.3941 -1.5589
 1863TIP3   OH2 5552   6.770   3.178   5.761 -0.4878 -0.4008  0.1855
 1863TIP3    H1 5553   6.853   3.131   5.751  1.3513  2.7507 -0.7551
 1863TIP3    H2 5554   6.730   3.175   5.675 -0.4516 -0.3791  0.1677
 1864TIP3   OH2 5555   5.198   1.913   2.027  0.1461 -0.2350  0.0265
 1864TIP3    H1 5556   5.127   1.852   2.044 -2.1162  1.4563 -2.5660
 1864TIP3    H2 5557   5.215   1.954   2.112 -0.5903 -1.9942  1.0896
 1865TIP3   OH2 5558   3.801   4.121   1.298  0.1638  0.1778  0.0046
 1865TIP3    H1 5559   3.893   4.131   1.274 -0.3033  0.7662 -1.6371
 1865TIP3    H2 5560   3.775   4.206   1.332  0.4528 -0.2652  1.4199
 1866TIP3   OH2 5561   3.944   1.880   2.652  0.2405  0.6027 -0.8348
 1866TIP3    H1 5562   3.943   1.943   2.723 -1.9344 -0.3146  0.0255
 1866TIP3    H2 5563   3.967   1.797   2.694  0.4672  0.3330 -1.4783
 1867TIP3   OH2 5564   6.842   6.560   1.307  0.4465  0.2811  0.1299
 1867TIP3    H1 5565   6.802   6.497   1.367  0.2433 -1.0392 -1.3302
 1867TIP3    H2 5566   6.935   6.555   1.324  0.3641  0.1084  0.5280
 1868TIP3   OH2 5567   3.293   1.486   4.558  0.0906  0.1716  0.1992
 1868TIP3    H1 5568   3.295   1.580   4.542  2.0881  0.2176  0.3689
 1868TIP3    H2 5569   3.220   1.472   4.618 -0.6822  1.4964 -0.4086
 1869TIP3   OH2 5570   4.925   2.441   0.736 -0.0498 -0.1159  0.3093
 1869TIP3    H1 5571   4.969   2.432   0.820 -0.1463 -0.9189  0.2775
 1869TIP3    H2 5572   4.916   2.536   0.724 -1.6991  0.0061  2.0685
 1870TIP3   OH2 5573   4.877   3.420   5.235 -0.2185  0.5218 -0.0385
 1870TIP3    H1 5574   4.824   3.449   5.162  0.2608  0.1004 -0.5616
 1870TIP3    H2 5575   4.960   3.468   5.227 -0.4410  1.0305  0.6573
 1871TIP3   OH2 5576   3.840   2.420   1.458 -0.2051 -0.4017 -0.1242
 1871TIP3    H1 5577   3.833   2.443   1.550  0.9843 -0.8372  0.0913
 1871TIP3    H2 5578   3.805   2.331   1.452 -0.5660 -0.2577 -0.1461
 1872TIP3   OH2 5579   1.652   5.975   3.647  0.6372 -0.0111 -0.8817
 1872TIP3    H1 5580   1.745   5.994   3.634  0.0712  1.6277 -3.6003
 1872TIP3    H2 5581   1.645   5.881   3.634  1.8601 -0.0667 -1.3677
 1873TIP3   OH2 5582   0.914   4.884   4.717 -0.4291  0.2217  0.2041
 1873TIP3    H1 5583   0.893   4.826   4.791  1.0888 -1.0885 -0.3176
 1873TIP3    H2 5584   0.855   4.958   4.727  0.1483  0.4298  3.1227
 1874TIP3   OH2 5585   4.030   4.401   1.571  0.0914  0.4693 -0.2603
 1874TIP3    H1 5586   4.046   4.355   1.654  0.2224  0.6777 -0.1698
 1874TIP3    H2 5587   3.973   4.474   1.594 -1.1226 -0.3317 -0.5983
 1875TIP3   OH2 5588   4.967   4.176   2.652  0.5169  0.0915  0.2858
 1875TIP3    H1 5589   4.892   4.119   2.674 -0.5141  0.6020 -1.6298
 1875TIP3    H2 5590   5.044   4.126   2.679 -0.4759 -0.7241  1.7516
 1876TIP3   OH2 5591   0.407   3.722   0.309  0.5827 -0.1717 -0.0691
 1876TIP3    H1 5592   0.329   3.736   0.362  0.2262  0.8705 -0.8290
 1876TIP3    H2 5593   0.456   3.805   0.316  1.3720 -0.6292 -0.0027
 1877TIP3   OH2 5594   0.106   0.811   4.921 -0.4009  0.0891 -0.1326
 1877TIP3    H1 5595   0.048   0.847   4.987 -2.1520 -0.4125 -1.3353
 1877TIP3    H2 5596   0.130   0.725   4.954 -1.0489 -0.0493 -0.0105
 1878TIP3   OH2 5597   0.131   2.958   0.007  0.2971  0.0339 -0.1807
 1878TIP3    H1 5598   0.093   2.941   0.093  0.0632  1.6163  0.0605
 1878TIP3    H2 5599   0.203   2.895  -0.000 -2.4213 -3.3425 -0.7858
 1879TIP3   OH2 5600   5.391   0.409   3.624  0.2654 -0.0203 -0.0878
 1879TIP3    H1 5601   5.433   0.361   3.553 -0.2016 -1.7940  0.7676
 1879TIP3    H2 5602   5.440   0.383   3.702 -0.2501  0.6074  0.4537
 1880TIP3   OH2 5603   4.553   6.766   4.651  0.0761 -0.1946 -0.3837
 1880TIP3    H1 5604   4.636   6.783   4.606  0.0090  1.8265  0.1776
 1880TIP3    H2 5605   4.498   6.841   4.630 -0.1075  0.6742  2.6510
 1881TIP3   OH2 5606   5.189   3.830   2.100  0.3918 -1.2843 -0.2754
 1881TIP3    H1 5607   5.101   3.865   2.087  1.3547  0.9777 -1.3355
 1881TIP3    H2 5608   5.190   3.748   2.052 -0.7906 -0.7077 -1.3453
 1882TIP3   OH2 5609   2.793   1.445   3.411  0.0162 -0.1639 -0.5091
 1882TIP3    H1 5610   2.850   1.419   3.483 -0.9364 -1.6511 -0.2364
 1882TIP3    H2 5611   2.782   1.539   3.422 -1.3349 -0.5439  2.2803
 1883TIP3   OH2 5612   1.433   6.356   4.087 -0.0547  0.0311  0.8018
 1883TIP3    H1 5613   1.488   6.294   4.135  0.1930 -0.3098  0.0980
 1883TIP3    H2 5614   1.465   6.351   3.997 -0.8457  0.2714  0.4995
 1884TIP3   OH2 5615   6.290   4.310   0.874  0.0613 -0.1407 -0.1808
 1884TIP3    H1 5616   6.283   4.230   0.926  2.0053  0.5798  1.3108
 1884TIP3    H2 5617   6.291   4.381   0.938  0.0409  0.9856 -1.3699
 1885TIP3   OH2 5618   4.073   4.170   2.410  0.1943 -0.0908 -0.3229
 1885TIP3    H1 5619   4.167   4.181   2.423  0.1874 -0.8886  0.4890
 1885TIP3    H2 5620   4.056   4.209   2.324  1.3151 -0.1814 -0.6039
 1886TIP3   OH2 5621   1.501   4.131   2.153  0.5022  0.6998 -0.4234
 1886TIP3    H1 5622   1.428   4.165   2.205  2.1009  1.7573  1.2390
 1886TIP3    H2 5623   1.578   4.176   2.187  1.9807 -0.5215 -1.9869
 1887TIP3   OH2 5624   5.628   6.467   1.543  0.2255  0.6311  0.4138
 1887TIP3    H1 5625   5.622   6.385   1.494 -0.7061  1.2535 -0.5439
 1887TIP3    H2 5626   5.552   6.466   1.601  0.6734  0.4535  1.0169
 1888TIP3   OH2 5627   6.827   5.891   1.143  0.2020 -0.2227 -0.0225
 1888TIP3    H1 5628   6.834   5.864   1.051 -0.0190  0.6454 -0.3081
 1888TIP3    H2 5629   6.909   5.939   1.160 -0.2936  0.6902 -0.1506
 1889TIP3   OH2 5630   4.503   4.953   3.110  0.4625  0.0336 -0.2856
 1889TIP3    H1 5631   4.422   4.979   3.155 -0.7132 -1.9306 -1.1235
 1889TIP3    H2 5632   4.497   4.996   3.024  0.9957  0.9656  0.1288
 1890TIP3   OH2 5633   6.719   1.336   1.916  0.0010 -0.0724 -0.2053
 1890TIP3    H1 5634   6.729   1.391   1.994  0.7992  0.1805 -0.4669
 1890TIP3    H2 5635   6.738   1.247   1.946 -0.0200 -0.0201 -0.0385
 1891TIP3   OH2 5636   0.004   0.910   3.912 -0.2681  0.3148 -0.1915
 1891TIP3    H1 5637   0.017   0.817   3.895 -1.1664  0.4705 -1.9546
 1891TIP3    H2 5638   0.090   0.949   3.900  0.1156 -0.2687  0.5613
 1892TIP3   OH2 5639   6.748   6.369   5.780  0.0982  0.2514  0.0555
 1892TIP3    H1 5640   6.753   6.335   5.691  2.7400  0.1806  0.1606
 1892TIP3    H2 5641   6.748   6.464   5.770  1.6032  0.2653 -0.0382
 1893TIP3   OH2 5642   4.841   4.936   2.342 -0.1222  1.0697  0.5075
 1893TIP3    H1 5643   4.768   4.906   2.397 -0.1424  1.0420  0.4652
 1893TIP3    H2 5644   4.838   4.880   2.265  1.1009 -0.2506  1.3519
 1894TIP3   OH2 5645   1.836   3.600   5.397 -0.9091  0.2677 -0.5380
 1894TIP3    H1 5646   1.807   3.597   5.488  0.9531  2.9052  0.2652
 1894TIP3    H2 5647   1.890   3.522   5.386  1.5552  1.4652  1.7620
 1895TIP3   OH2 5648   2.245   5.774   2.255 -0.0640 -0.2476  0.0963
 1895TIP3    H1 5649   2.326   5.789   2.207  0.1346 -0.1758  0.4504
 1895TIP3    H2 5650   2.231   5.855   2.305 -0.3695 -0.2473  0.0168
 1896TIP3   OH2 5651   0.446   6.692   5.151 -0.2004  0.1085 -0.0254
 1896TIP3    H1 5652   0.525   6.700   5.203  1.0804  1.2550 -2.0306
 1896TIP3    H2 5653   0.387   6.758   5.187  1.6008  2.6916 -1.4931
 1897TIP3   OH2 5654   1.320   5.184   1.562 -0.4252  0.2309  0.2170
 1897TIP3    H1 5655   1.279   5.271   1.565  1.6657  1.3173 -0.1989
 1897TIP3    H2 5656   1.250   5.125   1.537 -1.8768  1.8506  0.2745
 1898TIP3   OH2 5657   6.667   1.752   4.356 -0.9176 -0.0254 -0.0178
 1898TIP3    H1 5658   6.619   1.711   4.428 -0.1739  1.4844  1.3871
 1898TIP3    H2 5659   6.748   1.703   4.350 -0.8101  0.0894  0.4493
 1899TIP3   OH2 5660   3.628   5.680   4.102 -0.0744 -0.3344 -0.1542
 1899TIP3    H1 5661   3.655   5.749   4.042  0.0844  0.3145  0.6416
 1899TIP3    H2 5662   3.703   5.621   4.106 -0.1605 -0.4896 -0.7333
 1900TIP3   OH2 5663   7.038   2.244   2.330 -0.0178  0.1426 -0.0132
 1900TIP3    H1 5664   7.028   2.232   2.236 -1.4890 -0.4561  0.1895
 1900TIP3    H2 5665   7.064   2.158   2.363 -2.0523 -0.3613  0.4068
 1901TIP3   OH2 5666   3.650   3.494   1.076  0.3745  0.7311  0.2490
 1901TIP3    H1 5667   3.666   3.469   1.167  0.4059 -2.5582 -0.5371
 1901TIP3    H2 5668   3.735   3.486   1.034  0.2046  1.4632 -0.2563
 1902TIP3   OH2 5669   3.441   3.266   3.464 -0.3973 -0.2034 -0.6861
 1902TIP3    H1 5670   3.434   3.357   3.434 -2.1480 -0.5710 -1.5451
 1902TIP3    H2 5671   3.534   3.254   3.483 -0.1929  1.8746 -0.1646
 1903TIP3   OH2 5672   3.869   4.956   0.025  0.1622 -0.3270  0.1670
 1903TIP3    H1 5673   3.860   5.036  -0.026  0.6285  0.9828  2.0112
 1903TIP3    H2 5674   3.780   4.937   0.055 -0.0439 -0.8572 -0.7549
 1904TIP3   OH2 5675   2.718   2.636   5.686 -0.2728  0.3629  0.2317
 1904TIP3    H1 5676   2.663   2.688   5.628 -0.3239  0.4485  0.3551
 1904TIP3    H2 5677   2.760   2.700   5.743  0.7373  0.3791 -0.5170
 1905TIP3   OH2 5678   3.386   5.551   0.816  0.7493  0.3105 -0.1755
 1905TIP3    H1 5679   3.426   5.516   0.896  1.3001 -1.4575 -1.1718
 1905TIP3    H2 5680   3.450   5.615   0.784  0.5411  1.0020  0.7719
 1906TIP3   OH2 5681   0.046   2.494   1.257  0.5033  0.1825  0.2768
 1906TIP3    H1 5682   0.119   2.535   1.303  0.2272 -0.7264  1.5893
 1906TIP3    H2 5683  -0.031   2.542   1.288  0.5054  1.0852 -1.0404
 1907TIP3   OH2 5684   4.273   5.776   3.427 -0.3604  0.6992 -0.2405
 1907TIP3    H1 5685   4.352   5.723   3.441 -0.3871  0.5719 -0.5526
 1907TIP3    H2 5686   4.301   5.865   3.446 -0.3954  0.5375  0.5887
 1908TIP3   OH2 5687   2.087   2.413   1.367  0.1599  0.0447  0.2206
 1908TIP3    H1 5688   2.078   2.330   1.320 -0.4679  0.0695  0.2820
 1908TIP3    H2 5689   2.152   2.396   1.435  0.7636 -0.1137 -0.3867
 1909TIP3   OH2 5690   0.611   1.700   3.201 -0.0655  0.1373  0.2881
 1909TIP3    H1 5691   0.521   1.666   3.206 -0.4135  1.1567  1.2583
 1909TIP3    H2 5692   0.634   1.718   3.292  0.7310  0.8889 -0.0563
 1910TIP3   OH2 5693   1.057   3.209   5.192 -0.2734 -0.3366  0.0139
 1910TIP3    H1 5694   1.080   3.178   5.279 -0.6432 -0.6032  0.0210
 1910TIP3    H2 5695   1.061   3.304   5.198 -1.8322 -0.2910  0.7633
 1911TIP3   OH2 5696   4.881   4.059   1.010 -0.9336  0.0912  0.1145
 1911TIP3    H1 5697   4.789   4.034   1.013 -0.7482 -1.1042 -2.0571
 1911TIP3    H2 5698   4.928   3.979   1.037 -0.4954  1.1279  2.7146
 1912TIP3   OH2 5699   1.685   2.569   5.115 -0.1055  0.0546  0.1651
 1912TIP3    H1 5700   1.623   2.553   5.186  1.5110 -0.2358  1.5733
 1912TIP3    H2 5701   1.670   2.660   5.089 -0.8764  0.0898  0.7233
 1913TIP3   OH2 5702   6.612   1.975   1.175  0.2646  0.1860 -0.3919
 1913TIP3    H1 5703   6.522   2.004   1.187 -0.2593 -1.5735  0.3052
 1913TIP3    H2 5704   6.608   1.912   1.103  1.0545  0.5154 -0.7448
 1914TIP3   OH2 5705   0.608   4.959   5.781 -0.5863 -0.1151  0.0879
 1914TIP3    H1 5706   0.599   5.002   5.696 -0.3194 -0.8383 -0.3221
 1914TIP3    H2 5707   0.599   5.029   5.845 -1.3967  0.3468 -0.5155
 1915TIP3   OH2 5708   5.425   0.358   4.209 -0.0285 -0.1241 -0.1569
 1915TIP3    H1 5709   5.400   0.428   4.269  1.1081 -1.4353  1.9769
 1915TIP3    H2 5710   5.344   0.335   4.163 -0.8745  1.1037  0.6663
 1916TIP3   OH2 5711   1.351   0.711   1.557  0.1314  0.5629 -0.7264
 1916TIP3    H1 5712   1.322   0.620   1.563  0.7511  0.2688 -1.9123
 1916TIP3    H2 5713   1.343   0.745   1.646 -2.5050  0.1096 -0.7144
 1917TIP3   OH2 5714   0.564   0.374   5.801  0.0242 -0.0686  0.6674
 1917TIP3    H1 5715   0.489   0.372   5.861  0.2644 -1.8827  0.9696
 1917TIP3    H2 5716   0.640   0.362   5.857  0.1357 -3.7939 -0.0344
 1918TIP3   OH2 5717   7.057   3.260   3.033  0.3824 -0.1961 -0.1585
 1918TIP3    H1 5718   6.962   3.261   3.033  0.3887  0.4498 -0.2982
 1918TIP3    H2 5719   7.080   3.174   2.996 -0.1376 -1.2853  1.8639
 1919TIP3   OH2 5720   4.738   1.014   2.583 -0.8250  0.4618  0.4887
 1919TIP3    H1 5721   4.767   0.934   2.539 -0.0971  0.5270  0.8291
 1919TIP3    H2 5722   4.706   0.985   2.668  0.2575  0.6052  0.9671
 1920TIP3   OH2 5723   1.055   3.877   2.503  0.4376  0.5985 -0.5685
 1920TIP3    H1 5724   0.966   3.849   2.484 -0.8643  3.2227  1.1724
 1920TIP3    H2 5725   1.091   3.806   2.558 -1.2033  0.2977  0.1746
 1921TIP3   OH2 5726   5.276   1.411   5.328 -0.4299 -0.0143  0.1984
 1921TIP3    H1 5727   5.343   1.355   5.291  1.1395  1.5379  0.5322
 1921TIP3    H2 5728   5.256   1.372   5.413  1.2138  0.2904  0.7734
 1922TIP3   OH2 5729   2.788   3.692   1.281  0.1753  0.2659  0.0200
 1922TIP3    H1 5730   2.778   3.786   1.264 -1.1470  0.4107  1.3776
 1922TIP3    H2 5731   2.703   3.654   1.263 -0.0352 -0.2396  1.8626
 1923TIP3   OH2 5732   5.295   2.946   2.063  0.2912  0.7371 -0.4113
 1923TIP3    H1 5733   5.330   2.861   2.036  0.8654  1.0204 -0.5786
 1923TIP3    H2 5734   5.204   2.946   2.031 -0.2032 -0.4074  0.8999
 1924TIP3   OH2 5735   1.410   5.324   3.317 -0.1232 -0.4249  0.4127
 1924TIP3    H1 5736   1.335   5.318   3.257 -0.0871 -1.2237  0.4268
 1924TIP3    H2 5737   1.477   5.270   3.276  0.7391  0.9375  0.0008
 1925TIP3   OH2 5738   5.909   5.916   1.770  0.2082  0.7519  0.4215
 1925TIP3    H1 5739   5.947   5.830   1.757 -0.7591  0.6636 -2.5174
 1925TIP3    H2 5740   5.831   5.900   1.824 -0.5568 -0.3992 -0.9761
 1926TIP3   OH2 5741   4.457   3.363   2.126  0.2178 -0.3743 -0.1351
 1926TIP3    H1 5742   4.463   3.267   2.129 -0.0831 -0.5716 -2.8691
 1926TIP3    H2 5743   4.368   3.382   2.153 -0.3847 -1.0914 -1.4958
 1927TIP3   OH2 5744   3.216   5.254   5.244 -0.2777 -0.4856  0.1020
 1927TIP3    H1 5745   3.155   5.231   5.314  0.2764 -1.7157  0.2078
 1927TIP3    H2 5746   3.227   5.349   5.251 -2.3711 -0.1906 -0.0962
 1928TIP3   OH2 5747   0.486   5.681   1.370 -0.8534  0.1580 -0.1157
 1928TIP3    H1 5748   0.552   5.655   1.306 -0.1656 -1.0513  1.0534
 1928TIP3    H2 5749   0.508   5.772   1.391 -0.2232  0.1107 -0.5477
 1929TIP3   OH2 5750   2.150   4.522   1.921  0.1043 -0.3165  0.5407
 1929TIP3    H1 5751   2.238   4.556   1.908  0.7222 -1.9506  0.2876
 1929TIP3    H2 5752   2.104   4.592   1.968  2.5998 -0.8042  4.1268
 1930TIP3   OH2 5753   3.111   3.759   3.814 -0.3537  0.3429 -0.0290
 1930TIP3    H1 5754   3.136   3.680   3.767 -0.1074  0.5807 -0.3025
 1930TIP3    H2 5755   3.034   3.792   3.768 -0.2184  0.4791 -0.1592
 1931TIP3   OH2 5756   6.783   4.251   1.959  0.9224  0.6242  0.1037
 1931TIP3    H1 5757   6.806   4.180   2.018 -0.3385 -0.1560 -0.3192
 1931TIP3    H2 5758   6.807   4.219   1.872  0.2931  0.6874 -0.0975
 1932TIP3   OH2 5759   3.030   6.149   3.324  0.0867  0.0967 -0.2124
 1932TIP3    H1 5760   2.952   6.204   3.319  0.3145  0.6167  1.3378
 1932TIP3    H2 5761   2.998   6.063   3.350 -0.1127 -0.0923 -1.0699
 1933TIP3   OH2 5762   1.863   6.543   3.916  0.1375  0.0946  0.4367
 1933TIP3    H1 5763   1.850   6.537   3.821 -0.9094 -0.4984  0.6044
 1933TIP3    H2 5764   1.958   6.551   3.926  0.4658 -1.8288 -0.5765
 1934TIP3   OH2 5765   2.487   3.619   4.177 -0.3625  0.4354 -0.4572
 1934TIP3    H1 5766   2.478   3.537   4.129 -0.2020  0.7083 -0.9630
 1934TIP3    H2 5767   2.458   3.686   4.116  0.1733  0.8207 -0.3024
 1935TIP3   OH2 5768   5.649   1.800   5.733 -0.2145  0.2743  0.4653
 1935TIP3    H1 5769   5.710   1.759   5.794  0.3327 -0.2755 -0.4373
 1935TIP3    H2 5770   5.622   1.881   5.777 -1.0905 -0.8731  2.1473
 1936TIP3   OH2 5771   2.796   3.602   1.546 -0.2731 -0.0594 -0.4719
 1936TIP3    H1 5772   2.795   3.651   1.464 -0.7291 -0.1250 -0.5046
 1936TIP3    H2 5773   2.707   3.608   1.580  0.5622  2.6460  1.6300
 1937TIP3   OH2 5774   0.937   0.465   5.721  0.0053  0.1310  0.7261
 1937TIP3    H1 5775   0.873   0.474   5.651  0.9652  0.7416 -0.0985
 1937TIP3    H2 5776   0.889   0.423   5.792 -1.1289 -0.0147 -0.0997
 1938TIP3   OH2 5777   6.094   4.034   1.427  0.2687 -0.0591  0.6294
 1938TIP3    H1 5778   6.183   4.066   1.426  0.2865  0.4869 -4.0801
 1938TIP3    H2 5779   6.043   4.101   1.381 -1.6932 -2.1438 -0.4697
 1939TIP3   OH2 5780   4.997   2.118   1.726 -0.3070  0.5575 -0.7036
 1939TIP3    H1 5781   5.066   2.111   1.792  0.0491  0.7061 -1.0556
 1939TIP3    H2 5782   4.940   2.043   1.742 -0.5013  0.8638  0.0868
 1940TIP3   OH2 5783   6.807   2.513   5.667 -0.4383  0.1902 -0.2593
 1940TIP3    H1 5784   6.834   2.512   5.759 -0.7090  0.1453 -0.1794
 1940TIP3    H2 5785   6.889   2.507   5.618 -0.2432  0.9081 -0.0326
 1941TIP3   OH2 5786   5.992   1.193   0.101 -0.3918  0.1828  0.6311
 1941TIP3    H1 5787   5.965   1.228   0.016 -0.3797 -1.2492  0.0212
 1941TIP3    H2 5788   5.921   1.133   0.126  0.4090 -0.6939  0.8280
 1942TIP3   OH2 5789   4.152   1.562   5.532 -0.4697 -0.0392  0.6745
 1942TIP3    H1 5790   4.155   1.588   5.440  0.2783  0.9556  0.9559
 1942TIP3    H2 5791   4.215   1.490   5.539 -1.1699 -0.7064  0.2511
 1943TIP3   OH2 5792   3.335   3.054   3.157 -0.0058  0.2666 -0.6591
 1943TIP3    H1 5793   3.391   3.121   3.196 -0.8327  1.2373 -1.0738
 1943TIP3    H2 5794   3.292   3.099   3.084 -1.4595 -0.3700 -0.2321
 1944TIP3   OH2 5795   4.252   6.733   1.253  0.4647 -0.6603 -0.0769
 1944TIP3    H1 5796   4.179   6.671   1.256  0.7417 -1.0419 -0.7992
 1944TIP3    H2 5797   4.315   6.693   1.193  0.5105  0.4621 -0.8257
 1945TIP3   OH2 5798   5.718   1.335   2.172 -0.3665 -0.1228  0.6032
 1945TIP3    H1 5799   5.687   1.281   2.244  0.2169 -1.3096 -0.0115
 1945TIP3    H2 5800   5.813   1.325   2.173 -0.2549  0.8287  0.4204
 1946TIP3   OH2 5801   6.222   1.095   4.963  0.0880 -0.6531  0.1241
 1946TIP3    H1 5802   6.185   1.113   4.877  3.0617  0.1656 -1.1035
 1946TIP3    H2 5803   6.241   1.001   4.961 -0.9910 -0.8851  0.3976
 1947TIP3   OH2 5804   5.019   0.251   3.890 -0.2244  0.1497  0.6386
 1947TIP3    H1 5805   5.068   0.171   3.909  0.5776  0.9526  2.1397
 1947TIP3    H2 5806   5.057   0.284   3.808  1.5292  0.5514  1.5718
 1948TIP3   OH2 5807   5.937   0.746   5.610 -0.2550 -0.0552 -0.3671
 1948TIP3    H1 5808   5.931   0.758   5.705  2.1922  2.1218 -0.3681
 1948TIP3    H2 5809   5.889   0.820   5.573  0.3591  0.1657 -0.7543
 1949TIP3   OH2 5810   4.396   3.679   2.128 -0.0762 -0.5556 -0.3118
 1949TIP3    H1 5811   4.319   3.644   2.173 -0.4311  1.0214  0.3623
 1949TIP3    H2 5812   4.470   3.628   2.163 -0.6729 -1.2989 -0.1163
 1950TIP3   OH2 5813   6.822   1.915   1.598 -0.2315  0.1153 -0.3331
 1950TIP3    H1 5814   6.848   1.908   1.690 -0.7706  2.1732  0.0185
 1950TIP3    H2 5815   6.727   1.903   1.598 -0.3728  1.1395 -0.4646
 1951TIP3   OH2 5816   4.366   5.280   3.243  0.1368  0.0573 -0.0728
 1951TIP3    H1 5817   4.373   5.206   3.303 -0.1127 -0.1226 -0.2677
 1951TIP3    H2 5818   4.456   5.312   3.235  0.6910 -1.7956 -1.9747
 1952TIP3   OH2 5819   0.526   1.039   3.990 -0.3416  0.1254  0.4445
 1952TIP3    H1 5820   0.575   1.120   4.000  0.6983 -0.1816 -1.6767
 1952TIP3    H2 5821   0.581   0.972   4.032 -0.1266  0.1794  0.2519
 1953TIP3   OH2 5822   4.758   1.527   2.196  1.1471  0.0354 -0.2378
 1953TIP3    H1 5823   4.694   1.598   2.187  0.0726 -0.7378  0.9720
 1953TIP3    H2 5824   4.834   1.568   2.236  0.6019  0.5497  0.2816
 1954TIP3   OH2 5825   5.942   6.115   3.582  0.2507 -0.2296  0.0894
 1954TIP3    H1 5826   6.031   6.125   3.548  0.6571 -2.5272  0.3290
 1954TIP3    H2 5827   5.924   6.022   3.574 -2.3739  0.2516 -0.4531
 1955TIP3   OH2 5828   3.850   3.814   5.249  0.0907  0.3247  0.3656
 1955TIP3    H1 5829   3.807   3.732   5.270  0.2989  0.5822  1.9178
 1955TIP3    H2 5830   3.867   3.809   5.155 -0.6704 -1.0228  0.2761
 1956TIP3   OH2 5831   6.658   6.717   2.279 -0.4535  0.5808  0.3455
 1956TIP3    H1 5832   6.676   6.811   2.288 -3.0256  1.2113 -0.1927
 1956TIP3    H2 5833   6.637   6.705   2.187  2.2758 -1.0970 -0.1625
 1957TIP3   OH2 5834   2.567   1.812   1.843  0.3784 -0.4183  0.5408
 1957TIP3    H1 5835   2.529   1.791   1.758 -0.6915  0.2939  0.8220
 1957TIP3    H2 5836   2.607   1.898   1.832  0.0507 -0.2274  0.8024
 1958TIP3   OH2 5837   6.339   1.890   3.553  0.0751 -0.6886 -0.4996
 1958TIP3    H1 5838   6.326   1.890   3.458  0.1618 -1.8938 -0.5283
 1958TIP3    H2 5839   6.256   1.858   3.588  0.5569 -1.7133 -0.2696
 1959TIP3   OH2 5840   6.218   4.356   1.699  0.0712 -0.0253  0.7257
 1959TIP3    H1 5841   6.294   4.412   1.718 -0.1310  0.6322 -0.3293
 1959TIP3    H2 5842   6.217   4.347   1.604 -0.6114 -0.8421  0.7971
 1960TIP3   OH2 5843   5.436   4.763   1.634 -0.1689  0.4129  0.0752
 1960TIP3    H1 5844   5.444   4.681   1.585 -1.6723  0.5766 -0.4951
 1960TIP3    H2 5845   5.513   4.814   1.608 -0.0795 -0.1633 -0.8260
 1961TIP3   OH2 5846   0.561  -0.022   1.172  0.4940  0.6299  0.2862
 1961TIP3    H1 5847   0.637  -0.036   1.228  2.1333  3.0261 -1.1162
 1961TIP3    H2 5848   0.542   0.072   1.182 -2.8602 -0.0543  1.2066
 1962TIP3   OH2 5849   5.033   5.690   4.679 -0.3576 -0.1427 -0.1310
 1962TIP3    H1 5850   5.000   5.779   4.671  2.9118  1.8413  4.3198
 1962TIP3    H2 5851   4.967   5.644   4.731 -0.9482  0.4195 -0.3775
 1963TIP3   OH2 5852   1.232   2.176   3.132 -0.0717  0.0577  0.6070
 1963TIP3    H1 5853   1.146   2.201   3.097 -0.6007  0.0999  1.8844
 1963TIP3    H2 5854   1.232   2.210   3.221  1.0561 -0.4454  0.8113
 1964TIP3   OH2 5855   4.077   5.535   1.875 -0.2143  0.1550 -0.3721
 1964TIP3    H1 5856   4.092   5.629   1.871 -0.5525  0.1891 -1.2054
 1964TIP3    H2 5857   4.089   5.506   1.784 -0.8091 -0.4853 -0.2514
 1965TIP3   OH2 5858   2.052   6.438   3.435  0.2731 -0.0819  0.1367
 1965TIP3    H1 5859   2.063   6.349   3.403 -0.8403 -0.2304  0.1301
 1965TIP3    H2 5860   2.077   6.493   3.361 -1.5651 -0.4166 -0.7892
 1966TIP3   OH2 5861   6.589   4.130   3.089 -0.0621  0.4582 -0.0535
 1966TIP3    H1 5862   6.589   4.035   3.103  0.2829  0.5488  0.5792
 1966TIP3    H2 5863   6.511   4.161   3.134 -0.2866  0.4582 -0.4329
 1967TIP3   OH2 5864   0.208   6.487   3.619 -0.2164  0.1777  0.0779
 1967TIP3    H1 5865   0.169   6.423   3.678 -1.1954 -0.9317 -1.6865
 1967TIP3    H2 5866   0.243   6.435   3.547 -0.1962  1.5515 -0.9475
 1968TIP3   OH2 5867   1.278   6.510   1.057 -0.5995  0.3499 -0.1565
 1968TIP3    H1 5868   1.228   6.506   1.138 -0.0202 -0.0656  0.1816
 1968TIP3    H2 5869   1.225   6.461   0.994 -0.1611 -0.9216  0.4475
 1969TIP3   OH2 5870   3.167   3.924   2.347  0.5079 -0.1204  0.4660
 1969TIP3    H1 5871   3.240   3.930   2.285  0.5771 -0.0173  0.5585
 1969TIP3    H2 5872   3.170   4.006   2.397 -2.3985  2.1219 -2.5494
 1970TIP3   OH2 5873   0.457   2.892   5.756 -0.0144 -0.5353  0.0366
 1970TIP3    H1 5874   0.362   2.878   5.762 -0.5294  2.5508  0.8002
 1970TIP3    H2 5875   0.482   2.851   5.673 -2.1432 -0.8311 -0.5187
 1971TIP3   OH2 5876   1.516   3.437   0.723  0.0745 -0.1144 -0.2146
 1971TIP3    H1 5877   1.562   3.521   0.728 -1.1858  0.8777 -3.2669
 1971TIP3    H2 5878   1.424   3.459   0.742 -0.4175 -0.5698 -1.8847
 1972TIP3   OH2 5879   6.531   5.430   2.391 -0.2946  0.5919 -0.1283
 1972TIP3    H1 5880   6.520   5.360   2.454 -1.3898 -0.9768 -1.9454
 1972TIP3    H2 5881   6.619   5.465   2.407  0.4510 -1.4910  0.5521
 1973TIP3   OH2 5882   2.151   0.976   5.481 -0.1668  0.0045  0.1976
 1973TIP3    H1 5883   2.243   0.949   5.485 -0.3679 -0.6042  0.8012
 1973TIP3    H2 5884   2.108   0.907   5.430 -0.3734  0.0461  0.3143
 1974TIP3   OH2 5885   6.211   5.978   3.038  0.4464  0.5050 -0.5441
 1974TIP3    H1 5886   6.130   5.999   3.085  0.7010 -0.3152  0.2894
 1974TIP3    H2 5887   6.238   6.061   2.999  0.0071  1.1336  0.4470
 1975TIP3   OH2 5888   0.818   0.112   2.538  0.0572 -0.5598  0.1782
 1975TIP3    H1 5889   0.769   0.167   2.599 -0.4892 -1.6403  0.7224
 1975TIP3    H2 5890   0.892   0.079   2.589  2.1152  1.9431 -0.9118
 1976TIP3   OH2 5891   1.477   3.211   2.132  0.1046 -0.4988  0.5799
 1976TIP3    H1 5892   1.451   3.239   2.044  1.2402  0.0998  0.4197
 1976TIP3    H2 5893   1.567   3.239   2.141 -0.4235  0.8027  2.4949
 1977TIP3   OH2 5894   5.352   1.733   2.896 -0.0097  0.6875  0.0421
 1977TIP3    H1 5895   5.371   1.646   2.859 -1.1025  1.1393 -1.6873
 1977TIP3    H2 5896   5.438   1.770   2.916  0.5827  0.0078 -1.1465
 1978TIP3   OH2 5897   3.871   0.329   3.097 -0.2571 -0.5263 -0.0284
 1978TIP3    H1 5898   3.785   0.324   3.138 -0.4212  1.7174  0.0152
 1978TIP3    H2 5899   3.933   0.319   3.169 -0.5420  2.2958  0.6976
 1979TIP3   OH2 5900   4.298   4.286   0.555  0.3418  0.2603  0.1538
 1979TIP3    H1 5901   4.338   4.211   0.510  1.6824  0.2977  1.2188
 1979TIP3    H2 5902   4.231   4.317   0.494  1.5050 -0.2122 -1.4433
 1980TIP3   OH2 5903   1.321   0.120   5.556 -0.2743 -0.5475  0.4021
 1980TIP3    H1 5904   1.328   0.072   5.639 -0.6628  0.2743  0.9197
 1980TIP3    H2 5905   1.231   0.153   5.555  0.2644  0.9783  0.5011
 1981TIP3   OH2 5906   0.153   4.419   0.040 -0.1390 -0.1193  0.4358
 1981TIP3    H1 5907   0.203   4.501   0.036 -0.6144  0.1531 -0.1323
 1981TIP3    H2 5908   0.157   4.384  -0.049 -1.0989 -0.0010  0.3391
 1982TIP3   OH2 5909   5.729   4.488   0.477 -0.0004  0.1980  0.5345
 1982TIP3    H1 5910   5.821   4.484   0.504 -0.1345 -0.9544  0.9000
 1982TIP3    H2 5911   5.732   4.495   0.382  0.4729 -0.2559  0.5122
 1983TIP3   OH2 5912   4.916   2.142   2.801 -0.2157  0.0676 -0.5736
 1983TIP3    H1 5913   4.936   2.068   2.859 -0.9980  1.0395  1.0153
 1983TIP3    H2 5914   4.856   2.106   2.736  0.2939 -0.9445 -0.4990
 1984TIP3   OH2 5915   0.477   2.289   3.440 -0.2798  0.0206  0.7024
 1984TIP3    H1 5916   0.450   2.238   3.364  1.1890 -1.1624  0.9296
 1984TIP3    H2 5917   0.499   2.375   3.404 -0.3858 -0.2759 -0.0890
 1985TIP3   OH2 5918   1.635   1.800   4.974  0.4430 -0.0860  0.6035
 1985TIP3    H1 5919   1.697   1.741   5.016  1.9290 -0.1998 -1.6066
 1985TIP3    H2 5920   1.689   1.863   4.927 -1.0810  0.0552 -1.0772
 1986TIP3   OH2 5921   2.649   4.633   1.189  0.4019 -0.3346 -0.3669
 1986TIP3    H1 5922   2.709   4.575   1.237 -0.8840 -0.8377  0.7154
 1986TIP3    H2 5923   2.614   4.692   1.256 -1.5685 -1.1640 -0.5722
 1987TIP3   OH2 5924   3.990   5.593   4.889 -0.3099 -0.0979  0.1859
 1987TIP3    H1 5925   4.041   5.674   4.899  0.6972 -0.7387  0.4015
 1987TIP3    H2 5926   3.914   5.619   4.836 -1.5714  1.6214  2.6423
 1988TIP3   OH2 5927   6.932   6.037   0.629  0.3193  0.1440  0.0056
 1988TIP3    H1 5928   6.999   5.969   0.627 -1.5100 -1.7460 -0.5404
 1988TIP3    H2 5929   6.856   5.998   0.586 -0.7913  2.6001 -0.4512
 1989TIP3   OH2 5930   4.380   5.470   5.612  0.1742 -0.1641 -0.1026
 1989TIP3    H1 5931   4.413   5.448   5.699  1.3383  1.3466 -0.1034
 1989TIP3    H2 5932   4.349   5.561   5.621 -0.2350 -0.1934 -1.1175
 1990TIP3   OH2 5933   5.789   6.380   2.612 -0.2319  0.0629 -0.3648
 1990TIP3    H1 5934   5.795   6.284   2.617  0.2476  0.1282  0.4198
 1990TIP3    H2 5935   5.805   6.400   2.520  1.8993 -0.4700 -0.1715
 1991TIP3   OH2 5936   2.021   0.040   0.199 -0.0860 -0.2542  0.4898
 1991TIP3    H1 5937   2.005   0.099   0.274 -1.7997  0.7775 -0.6264
 1991TIP3    H2 5938   2.112   0.012   0.210  0.2340  1.2179  2.0375
 1992TIP3   OH2 5939   4.621   0.424   1.554 -0.0030 -0.1474 -0.4987
 1992TIP3    H1 5940   4.610   0.329   1.552 -0.3480 -0.1320  0.2330
 1992TIP3    H2 5941   4.620   0.450   1.462 -2.5015 -0.5914 -0.6885
 1993TIP3   OH2 5942   6.392   0.146   0.465 -0.2784  0.4247  0.2620
 1993TIP3    H1 5943   6.355   0.118   0.548 -0.2024  1.2935  0.6008
 1993TIP3    H2 5944   6.483   0.168   0.485  0.3849 -1.4322 -0.5083
 1994TIP3   OH2 5945   6.549   2.320   3.792  0.0872  0.0176 -0.3434
 1994TIP3    H1 5946   6.545   2.234   3.749  0.4478 -0.5163  0.6558
 1994TIP3    H2 5947   6.469   2.325   3.843 -0.4079  0.7114 -1.1595
 1995TIP3   OH2 5948   5.413   0.469   2.949 -0.2269 -0.2690  0.1915
 1995TIP3    H1 5949   5.435   0.523   3.025  1.0357 -0.1942 -0.1912
 1995TIP3    H2 5950   5.451   0.383   2.969  0.2195 -0.2147 -0.3933
 1996TIP3   OH2 5951   4.393   6.276   2.665  0.6366 -0.1870  0.2153
 1996TIP3    H1 5952   4.299   6.266   2.675  0.6122  0.1551  0.3341
 1996TIP3    H2 5953   4.420   6.199   2.615  0.9011 -2.6710  3.7223
 1997TIP3   OH2 5954   3.013   3.655   1.769  0.6863  0.8199  0.1335
 1997TIP3    H1 5955   2.971   3.738   1.746  1.0422  0.6916 -1.0468
 1997TIP3    H2 5956   2.977   3.592   1.707 -0.5898 -0.2276  1.8770
 1998TIP3   OH2 5957   1.151   6.299   0.406  0.1084  0.3297 -0.4648
 1998TIP3    H1 5958   1.241   6.265   0.404 -0.0470 -0.1422  0.0962
 1998TIP3    H2 5959   1.137   6.334   0.318  1.1126  1.1414 -0.3149
 1999TIP3   OH2 5960   1.314   5.695   5.142 -0.3754  0.3652  0.6111
 1999TIP3    H1 5961   1.305   5.603   5.118 -1.0156  0.5726  0.0218
 1999TIP3    H2 5962   1.379   5.695   5.213  1.7793 -0.2371 -1.2497
 2000TIP3   OH2 5963   1.563   2.823   3.930  1.0357 -0.3165  0.2726
 2000TIP3    H1 5964   1.509   2.825   3.851 -0.5169  0.2813  1.2939
 2000TIP3    H2 5965   1.628   2.755   3.913  1.3915  0.4810 -1.8944
 2001TIP3   OH2 5966   0.285   5.532   0.804  0.7352  0.2340  0.0758
 2001TIP3    H1 5967   0.234   5.555   0.882  0.3905 -0.5592  0.0985
 2001TIP3    H2 5968   0.332   5.453   0.828  0.8835  0.1676 -0.4097
 2002TIP3   OH2 5969   4.501   5.297   1.008  0.2128  0.7947 -0.0764
 2002TIP3    H1 5970   4.455   5.249   0.939 -0.2442  2.2350 -0.8039
 2002TIP3    H2 5971   4.566   5.349   0.962  2.5925 -1.0740  0.9048
 2003TIP3   OH2 5972   0.776   2.588   4.027 -0.3401 -0.3738 -0.1070
 2003TIP3    H1 5973   0.800   2.495   4.018  0.5690  0.0387 -3.5975
 2003TIP3    H2 5974   0.682   2.586   4.049  0.1021 -2.0474  1.9451
 2004TIP3   OH2 5975   3.420   4.730   5.045  0.0779 -0.6542 -0.1555
 2004TIP3    H1 5976   3.438   4.800   5.108  0.6162 -1.4806  0.6305
 2004TIP3    H2 5977   3.325   4.730   5.035  0.1099  0.6773 -0.7553
 2005TIP3   OH2 5978   5.550   0.925   5.708 -0.0140 -0.1210 -0.1436
 2005TIP3    H1 5979   5.617   0.909   5.642  1.1944 -1.3186  1.3174
 2005TIP3    H2 5980   5.598   0.953   5.785 -1.3368  0.4033  0.5310
 2006TIP3   OH2 5981   4.976   4.541   3.272 -0.0175  0.4585 -0.4092
 2006TIP3    H1 5982   4.907   4.475   3.282  1.1690 -1.0243 -1.4539
 2006TIP3    H2 5983   4.972   4.565   3.179  0.8572  0.3487 -0.4803
 2007TIP3   OH2 5984   2.434   1.460   4.589 -0.0706 -0.2844  0.2571
 2007TIP3    H1 5985   2.492   1.526   4.628 -0.8577 -0.6522  2.1887
 2007TIP3    H2 5986   2.490   1.382   4.580  1.1416  0.7860 -2.9532
 2008TIP3   OH2 5987   6.239   4.806   5.335 -0.3940 -0.3991  0.0768
 2008TIP3    H1 5988   6.202   4.723   5.306 -1.4118  0.3368 -0.8302
 2008TIP3    H2 5989   6.186   4.873   5.290  1.3097  0.7186 -0.3525
 2009TIP3   OH2 5990   2.035   1.005   0.739 -0.8559  0.4726  0.0227
 2009TIP3    H1 5991   2.008   1.081   0.790 -0.3630 -0.3339  1.5202
 2009TIP3    H2 5992   1.990   0.931   0.780  0.7271 -0.3953  0.2528
 2010TIP3   OH2 5993   6.673   6.398   4.494  0.0386 -0.3606 -0.2620
 2010TIP3    H1 5994   6.735   6.391   4.566  1.1800  1.2479 -1.0381
 2010TIP3    H2 5995   6.614   6.324   4.506 -0.6322  0.5786  3.0741
 2011TIP3   OH2 5996   1.472   5.009   2.605 -0.0754 -0.1400  0.5807
 2011TIP3    H1 5997   1.512   5.056   2.531  1.0627 -1.0037  0.6138
 2011TIP3    H2 5998   1.379   5.006   2.584  0.2801 -0.7737 -1.0609
 2012TIP3   OH2 5999   0.986   4.334   2.623  0.9645  0.6079  0.3277
 2012TIP3    H1 6000   0.939   4.320   2.541  0.3613  1.2943  0.5451
 2012TIP3    H2 6001   1.001   4.246   2.657  1.3883  0.3025 -0.6028
 2013TIP3   OH2 6002   4.012   2.301   1.133 -0.4115  0.0187  0.0502
 2013TIP3    H1 6003   4.009   2.282   1.039  0.2901 -0.0289  0.0314
 2013TIP3    H2 6004   4.091   2.256   1.164 -0.9314 -0.4233  0.7706
 2014TIP3   OH2 6005   0.506   5.757   1.886  0.0471  0.3851 -0.1382
 2014TIP3    H1 6006   0.567   5.686   1.866 -0.8004 -0.6690  0.9021
 2014TIP3    H2 6007   0.552   5.811   1.951  0.0862 -0.1162  0.2585
 2015TIP3   OH2 6008   3.784   6.712   1.240  0.7073  0.3742 -0.2679
 2015TIP3    H1 6009   3.820   6.792   1.278 -2.0910  1.4323  0.4293
 2015TIP3    H2 6010   3.738   6.741   1.161 -2.4748  0.0126  1.2912
 2016TIP3   OH2 6011   2.355   0.407   4.835 -0.0558 -0.4127  0.2047
 2016TIP3    H1 6012   2.439   0.370   4.861 -1.0622 -1.8787  1.5415
 2016TIP3    H2 6013   2.290   0.357   4.885 -1.6039  2.2987  1.1401
 2017TIP3   OH2 6014   4.579   5.517   1.301  0.6206  0.6252 -0.7671
 2017TIP3    H1 6015   4.514   5.582   1.275 -0.1350  0.6616  1.0059
 2017TIP3    H2 6016   4.532   5.433   1.296  0.8923  0.4810 -0.9112
 2018TIP3   OH2 6017   0.780   1.711   5.400  0.7720 -0.0470 -0.6509
 2018TIP3    H1 6018   0.866   1.671   5.402  0.6513 -0.3474  1.5253
 2018TIP3    H2 6019   0.797   1.805   5.402  1.0330 -0.0699 -1.4646
 2019TIP3   OH2 6020   2.996   3.509   2.724 -0.2072  0.1593  0.6850
 2019TIP3    H1 6021   2.958   3.509   2.636  0.3812  0.3494  0.4244
 2019TIP3    H2 6022   2.990   3.600   2.753  0.3272  0.2549  0.5128
 2020TIP3   OH2 6023   0.048   6.095   0.868 -0.3071  0.1935  0.3206
 2020TIP3    H1 6024   0.035   6.124   0.778 -2.2882 -2.2039 -0.2976
 2020TIP3    H2 6025  -0.029   6.127   0.915  0.1816  0.5248  0.9010
 2021TIP3   OH2 6026   6.898   5.039   0.592 -0.5655 -0.0170  0.4158
 2021TIP3    H1 6027   6.983   5.069   0.558  0.7027 -2.8266  0.7973
 2021TIP3    H2 6028   6.903   5.056   0.686 -0.0726 -0.8523  0.5523
 2022TIP3   OH2 6029   3.733   2.294   1.158 -0.0320 -0.1301 -0.2305
 2022TIP3    H1 6030   3.740   2.330   1.069  0.1826 -1.3841 -0.7326
 2022TIP3    H2 6031   3.811   2.239   1.168 -0.7201 -1.0345  0.2533
 2023TIP3   OH2 6032   4.638   6.175   3.361  0.1043  0.4171  0.0827
 2023TIP3    H1 6033   4.588   6.199   3.439 -0.8415 -0.0428 -0.3689
 2023TIP3    H2 6034   4.613   6.241   3.296  0.9347  0.8339  0.1796
 2024TIP3   OH2 6035   3.460   3.424   0.317 -0.4675  0.1638  1.0547
 2024TIP3    H1 6036   3.398   3.492   0.342 -0.0114  0.4817  1.3507
 2024TIP3    H2 6037   3.433   3.347   0.368 -1.1601  0.0369  0.4983
 2025TIP3   OH2 6038   0.103   6.269   3.022  0.1765 -0.3183  0.3031
 2025TIP3    H1 6039   0.171   6.333   3.044 -0.4599 -0.4029  2.9356
 2025TIP3    H2 6040   0.137   6.186   3.056 -1.7682 -0.0964  3.1374
 2026TIP3   OH2 6041   4.207   2.017   2.772 -0.1953  0.3098 -0.4398
 2026TIP3    H1 6042   4.211   2.000   2.678 -0.7216 -0.5992 -0.3118
 2026TIP3    H2 6043   4.183   1.932   2.811  1.0917  0.3885  0.6131
 2027TIP3   OH2 6044   4.679   3.458   5.431 -0.0189  0.4621 -0.3894
 2027TIP3    H1 6045   4.752   3.489   5.378  0.4389  0.3944  0.1902
 2027TIP3    H2 6046   4.603   3.506   5.397  0.6409  2.1366  0.3755
 2028TIP3   OH2 6047   1.219   3.326   2.925 -0.3160 -0.2450 -0.0946
 2028TIP3    H1 6048   1.128   3.298   2.932 -0.3606  0.2344  1.6906
 2028TIP3    H2 6049   1.270   3.250   2.953 -0.0738 -0.8507 -2.0241
 2029TIP3   OH2 6050   5.805   5.202   3.938  0.4696 -0.5547 -1.1196
 2029TIP3    H1 6051   5.710   5.190   3.934  0.2560 -0.6222  1.8569
 2029TIP3    H2 6052   5.823   5.270   3.873 -1.6734 -0.2524 -1.4735
 2030TIP3   OH2 6053   1.471   1.328   3.041  0.1207 -0.4571 -0.2637
 2030TIP3    H1 6054   1.384   1.295   3.016 -0.5111  0.0990  1.1268
 2030TIP3    H2 6055   1.486   1.402   2.983  0.3799 -1.4969 -1.5831
 2031TIP3   OH2 6056   6.721   5.894   0.516  0.1686  0.4945 -0.2762
 2031TIP3    H1 6057   6.708   5.865   0.426 -1.5107 -2.0867  0.6945
 2031TIP3    H2 6058   6.639   5.873   0.561  0.5699  2.5914  1.6957
 2032TIP3   OH2 6059   1.042   3.989   0.836 -0.0876  0.3678  0.9285
 2032TIP3    H1 6060   1.101   4.048   0.789 -1.6260  1.1633 -0.1243
 2032TIP3    H2 6061   1.063   4.003   0.929  3.3869 -1.6285  0.6160
 2033TIP3   OH2 6062   3.254   6.502   4.724 -0.2694  0.7423  0.4644
 2033TIP3    H1 6063   3.163   6.521   4.749 -0.9261 -1.0349 -0.3813
 2033TIP3    H2 6064   3.282   6.435   4.787 -0.6686 -1.0302 -1.1622
 2034TIP3   OH2 6065   0.700   1.331   0.783 -0.0666 -0.3046 -0.0738
 2034TIP3    H1 6066   0.694   1.272   0.708 -3.2310  0.9217 -0.9689
 2034TIP3    H2 6067   0.765   1.397   0.756  1.3722 -1.7230 -0.2284
 2035TIP3   OH2 6068   7.111   3.677   4.949 -0.3231  0.5455 -0.5744
 2035TIP3    H1 6069   7.183   3.693   5.010 -0.0505 -0.4375 -0.6201
 2035TIP3    H2 6070   7.152   3.682   4.862 -0.1918 -0.5098 -0.5852
 2036TIP3   OH2 6071   2.226   5.204   3.136  0.0536  0.6662  0.7715
 2036TIP3    H1 6072   2.296   5.264   3.108 -0.1459  1.3051  1.5846
 2036TIP3    H2 6073   2.224   5.136   3.069 -0.2188  1.9729 -0.6283
 2037TIP3   OH2 6074   4.654   5.246   0.512 -0.5417 -0.6765  0.2486
 2037TIP3    H1 6075   4.742   5.283   0.516 -0.2116 -1.5029  0.8535
 2037TIP3    H2 6076   4.600   5.316   0.474  0.6559 -0.6920 -1.6145
 2038TIP3   OH2 6077   2.279   5.248   4.484 -0.2226 -0.0856  0.2284
 2038TIP3    H1 6078   2.196   5.228   4.529 -1.9736  1.3862 -2.0939
 2038TIP3    H2 6079   2.319   5.162   4.469 -0.9192 -0.7904  2.0218
 2039TIP3   OH2 6080   2.250   5.155   3.610 -0.1509  0.3318 -0.4582
 2039TIP3    H1 6081   2.174   5.098   3.614  0.1960 -0.0919  0.1152
 2039TIP3    H2 6082   2.248   5.206   3.691  0.6714 -0.3277 -0.0066
 2040TIP3   OH2 6083   4.744   3.741   0.145 -0.2535 -0.4509  0.3341
 2040TIP3    H1 6084   4.810   3.734   0.214 -1.4121 -1.0823  1.4258
 2040TIP3    H2 6085   4.678   3.676   0.169 -1.2383  0.1178 -0.7515
 2041TIP3   OH2 6086   4.423   1.035   1.542 -0.5318  0.5982  0.1990
 2041TIP3    H1 6087   4.332   1.024   1.568 -0.3687 -0.5796  0.3243
 2041TIP3    H2 6088   4.418   1.069   1.453 -1.1290 -1.1629 -0.4838
 2042TIP3   OH2 6089   3.126   1.017   1.756 -0.6925 -0.1339  0.1066
 2042TIP3    H1 6090   3.064   0.945   1.771 -0.6596 -0.0600  0.6284
 2042TIP3    H2 6091   3.184   1.014   1.832  0.7332 -0.9974 -0.9650
 2043TIP3   OH2 6092   5.319   1.527   0.589 -0.3172 -0.9738  0.0074
 2043TIP3    H1 6093   5.395   1.585   0.592 -0.8134 -0.3221  0.2173
 2043TIP3    H2 6094   5.248   1.577   0.629 -1.5984 -0.4519 -2.6614
 2044TIP3   OH2 6095   3.948   0.994   0.313  0.1565 -0.2382 -0.2143
 2044TIP3    H1 6096   3.969   0.922   0.253  1.5934  0.4557 -0.5892
 2044TIP3    H2 6097   4.018   1.058   0.299 -2.2034  2.2471 -1.4829
 2045TIP3   OH2 6098   4.202   3.317   0.706 -0.4859  0.0975  0.4848
 2045TIP3    H1 6099   4.161   3.253   0.765 -1.2515 -0.4236 -0.5699
 2045TIP3    H2 6100   4.275   3.270   0.667 -0.3413  0.2463  0.5798
 2046TIP3   OH2 6101   5.903   3.613   5.254 -0.0419 -0.1362 -0.3361
 2046TIP3    H1 6102   5.813   3.611   5.220  0.0708 -1.1175 -0.6173
 2046TIP3    H2 6103   5.907   3.692   5.307 -0.6304  0.7092 -1.5213
 2047TIP3   OH2 6104   6.637   4.055   4.160 -0.2963  0.2582 -0.7569
 2047TIP3    H1 6105   6.599   4.111   4.091 -0.4678  1.1178  0.0093
 2047TIP3    H2 6106   6.673   3.980   4.113 -1.0594  0.4643 -1.7181
 2048TIP3   OH2 6107   5.169   4.781   0.464 -0.2312 -0.1326  0.2376
 2048TIP3    H1 6108   5.208   4.867   0.453  0.1175 -0.4189 -0.7782
 2048TIP3    H2 6109   5.132   4.759   0.379  0.0430 -1.1720  0.3718
 2049TIP3   OH2 6110   2.465   0.976   0.278  0.5210 -0.3672  0.4377
 2049TIP3    H1 6111   2.522   1.038   0.233 -0.5552  0.0066 -0.4419
 2049TIP3    H2 6112   2.458   1.010   0.367  0.5703  0.3498  0.1711
 2050TIP3   OH2 6113   6.664   6.538   3.783  0.2769  0.4741  0.0033
 2050TIP3    H1 6114   6.690   6.513   3.871 -0.4741  0.3101  0.1850
 2050TIP3    H2 6115   6.696   6.628   3.773  2.4882 -0.3003 -0.4543
 2051TIP3   OH2 6116   2.838   3.871   1.029  0.7592 -0.3250 -0.0026
 2051TIP3    H1 6117   2.780   3.946   1.048  0.0612 -1.1351  1.2048
 2051TIP3    H2 6118   2.918   3.889   1.078  0.6760 -0.2668  0.1116
 2052TIP3   OH2 6119   1.514   1.193   2.757  0.3171 -0.2857  0.1944
 2052TIP3    H1 6120   1.424   1.161   2.750  0.7233 -1.2592 -0.8365
 2052TIP3    H2 6121   1.521   1.225   2.847 -1.2300  0.3711  0.1214
 2053TIP3   OH2 6122   4.031   1.369   0.537 -0.7756 -0.2102  0.0408
 2053TIP3    H1 6123   4.007   1.461   0.521 -1.2912 -0.0412  1.5787
 2053TIP3    H2 6124   3.947   1.323   0.538 -0.5224 -0.6958 -0.6624
 2054TIP3   OH2 6125   4.753   5.709   4.895  0.1079 -0.2992  0.1919
 2054TIP3    H1 6126   4.750   5.616   4.920 -1.9361 -0.0336  1.0961
 2054TIP3    H2 6127   4.665   5.742   4.915  0.3424  1.5025 -1.4465
 2055TIP3   OH2 6128   6.127   4.369   3.042 -0.8074 -0.1110  0.1167
 2055TIP3    H1 6129   6.180   4.290   3.048  0.2805  0.6286  0.5589
 2055TIP3    H2 6130   6.040   4.338   3.016 -0.4189 -1.4450  0.3439
 2056TIP3   OH2 6131   2.547   3.160   4.697 -0.5177  0.0087 -0.0335
 2056TIP3    H1 6132   2.483   3.227   4.676  0.8423  0.7691 -2.0346
 2056TIP3    H2 6133   2.632   3.199   4.674  0.3645 -2.1723 -0.7669
 2057TIP3   OH2 6134   2.402   4.583   3.228 -0.0445  0.1654  0.0469
 2057TIP3    H1 6135   2.367   4.503   3.188 -0.9997  0.8376 -0.5020
 2057TIP3    H2 6136   2.364   4.584   3.316 -0.9705  0.5905 -0.3440
 2058TIP3   OH2 6137   6.845   4.468   3.000  0.3065 -0.1304 -0.9308
 2058TIP3    H1 6138   6.852   4.496   2.908 -0.0797  0.1469 -0.8784
 2058TIP3    H2 6139   6.936   4.454   3.027  0.4222 -0.2251 -1.3586
 2059TIP3   OH2 6140   3.968   2.021   4.055  0.2061  0.6251 -0.0711
 2059TIP3    H1 6141   4.024   1.946   4.072  1.3117  1.9982  3.1632
 2059TIP3    H2 6142   4.024   2.084   4.010 -0.5755 -0.1927 -2.3158
 2060TIP3   OH2 6143   3.479   1.634   4.117 -0.6765  0.0944 -0.3706
 2060TIP3    H1 6144   3.486   1.640   4.021 -0.4328  1.5445 -0.2878
 2060TIP3    H2 6145   3.390   1.663   4.136 -0.1561  1.5378 -0.0545
 2061TIP3   OH2 6146   3.348   5.620   2.817 -0.3291  0.3180  0.1101
 2061TIP3    H1 6147   3.340   5.688   2.750 -0.5517 -0.1690 -0.3748
 2061TIP3    H2 6148   3.276   5.638   2.878 -0.1155  0.7751  0.2288
 2062TIP3   OH2 6149   4.502   5.977   4.998  0.2821  0.1104 -0.3869
 2062TIP3    H1 6150   4.491   5.910   5.065  0.3885 -1.3342 -1.7307
 2062TIP3    H2 6151   4.430   6.038   5.013  1.1680  0.6851  1.9241
 2063TIP3   OH2 6152   2.166   0.119   4.333 -0.4397 -0.7263 -0.5812
 2063TIP3    H1 6153   2.188   0.136   4.425 -0.0569  1.1836 -0.9881
 2063TIP3    H2 6154   2.132   0.202   4.300  0.4616 -1.0512 -2.4731
 2064TIP3   OH2 6155   6.496   6.726   1.453  0.1279  0.3813 -0.2449
 2064TIP3    H1 6156   6.487   6.633   1.471  0.1163  0.3643 -0.3377
 2064TIP3    H2 6157   6.541   6.761   1.530 -1.0132  0.5328  0.3720
 2065TIP3   OH2 6158   0.516   1.344   4.645  0.6743  0.3602 -0.4420
 2065TIP3    H1 6159   0.556   1.291   4.576  1.3843  1.0728 -0.5994
 2065TIP3    H2 6160   0.540   1.299   4.726  1.8147  0.7540 -0.5328
 2066TIP3   OH2 6161   0.335   1.918   2.889  0.2113 -0.4302  0.0862
 2066TIP3    H1 6162   0.251   1.900   2.932 -0.5911  1.2334 -0.6915
 2066TIP3    H2 6163   0.319   1.900   2.797  0.1496  1.5702 -0.3243
 2067TIP3   OH2 6164   2.219   4.535   2.564  0.1314 -0.8633  0.0784
 2067TIP3    H1 6165   2.211   4.447   2.599 -0.0920 -1.5462 -1.5959
 2067TIP3    H2 6166   2.129   4.563   2.548  0.2162 -0.4540  0.3061
 2068TIP3   OH2 6167   6.653   1.637   2.422  0.5673 -0.0829 -0.1970
 2068TIP3    H1 6168   6.616   1.717   2.459  0.0825 -0.4056  0.0226
 2068TIP3    H2 6169   6.748   1.649   2.430  0.5026  0.5182 -0.2773
 2069TIP3   OH2 6170   0.167   6.178   3.645 -0.4994 -0.7626  0.0346
 2069TIP3    H1 6171   0.174   6.234   3.723  2.1479 -2.9625  1.5895
 2069TIP3    H2 6172   0.077   6.190   3.615 -0.6601  2.7432  1.3689
 2070TIP3   OH2 6173   4.778   2.834   4.914 -0.1907  0.2835  0.2655
 2070TIP3    H1 6174   4.836   2.887   4.859 -1.0249  0.7034 -0.2370
 2070TIP3    H2 6175   4.708   2.894   4.941 -1.0129 -0.4716 -0.1013
 2071TIP3   OH2 6176   6.736   6.254   2.530  0.4554 -0.2131  0.2698
 2071TIP3    H1 6177   6.726   6.341   2.489  1.2390 -0.1502  0.1887
 2071TIP3    H2 6178   6.661   6.247   2.589  0.3117  0.4707  0.1863
 2072TIP3   OH2 6179   4.545   3.018   1.588  0.3436  0.0514  0.4523
 2072TIP3    H1 6180   4.538   2.942   1.645  0.3087 -0.4331 -0.1933
 2072TIP3    H2 6181   4.468   3.012   1.531  0.7171  0.1878 -0.0666
 2073TIP3   OH2 6182   0.973   3.420   0.844  0.4728  0.5328 -0.7145
 2073TIP3    H1 6183   0.963   3.514   0.859 -0.1013  0.6966 -1.9745
 2073TIP3    H2 6184   1.059   3.399   0.882  0.3255  1.4243  0.1543
 2074TIP3   OH2 6185   6.834   4.067   2.171 -0.6479  0.1391  0.4051
 2074TIP3    H1 6186   6.833   3.976   2.201 -0.9062  0.6523  2.0604
 2074TIP3    H2 6187   6.781   4.114   2.235 -0.0341  1.5641 -0.0884
 2075TIP3   OH2 6188   0.831   6.374   4.661  0.5653 -0.0930  0.8532
 2075TIP3    H1 6189   0.919   6.379   4.700  1.3705  0.6691 -0.9457
 2075TIP3    H2 6190   0.837   6.301   4.599  0.5712  1.1889 -0.7084
 2076TIP3   OH2 6191   4.569   2.957   3.262 -0.7496  0.4257 -0.6137
 2076TIP3    H1 6192   4.609   3.043   3.251 -0.0995  0.2186  0.0659
 2076TIP3    H2 6193   4.602   2.905   3.188  2.2970 -0.4817  1.2027
 2077TIP3   OH2 6194   0.025   2.043   3.212 -0.0379  0.6251 -0.6784
 2077TIP3    H1 6195   0.083   1.999   3.275  0.4877  0.0112 -1.5716
 2077TIP3    H2 6196   0.032   2.136   3.235 -0.8106  0.3175  0.9514
 2078TIP3   OH2 6197   6.245   6.530   2.257 -0.8087 -0.1893 -0.8987
 2078TIP3    H1 6198   6.292   6.540   2.339 -0.7011  0.8006 -1.0675
 2078TIP3    H2 6199   6.286   6.455   2.214  0.6834  0.6828 -1.0717
 2079TIP3   OH2 6200   6.217   0.912   4.143  0.0012  0.1105  0.4346
 2079TIP3    H1 6201   6.297   0.917   4.090 -1.3073 -0.3069 -1.6625
 2079TIP3    H2 6202   6.205   0.819   4.160  0.3753  0.2336  1.4968
 2080TIP3   OH2 6203   6.244   1.179   2.450 -0.1464 -0.4536  0.5383
 2080TIP3    H1 6204   6.331   1.140   2.445 -0.4965 -1.2340  0.4292
 2080TIP3    H2 6205   6.234   1.205   2.542 -0.1840 -1.2872  0.7804
 2081TIP3   OH2 6206   1.125   6.221   2.549  0.7190  0.0785 -0.4047
 2081TIP3    H1 6207   1.123   6.305   2.595 -3.0466 -0.5283  0.8773
 2081TIP3    H2 6208   1.045   6.222   2.495  0.6214 -2.6098 -0.4234
 2082TIP3   OH2 6209   4.726   4.532   0.268  0.6674 -0.2944 -0.7559
 2082TIP3    H1 6210   4.776   4.510   0.346  2.1342  0.9527 -1.2735
 2082TIP3    H2 6211   4.645   4.482   0.276  0.6428  0.0164  1.6778
 2083TIP3   OH2 6212   2.515   2.232   0.518  0.4920  0.0774 -0.5248
 2083TIP3    H1 6213   2.468   2.313   0.538  0.7406  0.1023 -0.0040
 2083TIP3    H2 6214   2.555   2.207   0.602  0.8894 -0.2750 -0.8174
 2084TIP3   OH2 6215   0.311   3.707   4.348 -0.4658 -0.5762  0.1517
 2084TIP3    H1 6216   0.304   3.676   4.258  0.1216  0.1565 -0.1636
 2084TIP3    H2 6217   0.254   3.650   4.398 -1.7390 -0.2454 -0.8673
 2085TIP3   OH2 6218   4.359   0.040   2.808  0.2995  0.0524  0.1698
 2085TIP3    H1 6219   4.431  -0.021   2.827  0.6236  0.6109  0.7914
 2085TIP3    H2 6220   4.282  -0.016   2.798  0.7828 -0.5359 -0.2914
 2086TIP3   OH2 6221   5.069   6.542   2.211 -0.6557  0.3224  0.0374
 2086TIP3    H1 6222   5.109   6.602   2.274 -0.6427 -0.3126  0.6424
 2086TIP3    H2 6223   4.975   6.552   2.223 -0.7061  1.5119 -1.1009
 2087TIP3   OH2 6224   3.825   6.412   2.666  0.6105  0.2703  0.4606
 2087TIP3    H1 6225   3.776   6.493   2.651  0.7672  0.2679 -0.1031
 2087TIP3    H2 6226   3.799   6.355   2.594  2.8247  0.9375 -0.9930
 2088TIP3   OH2 6227   3.063   6.565   3.818  0.4966 -0.4241  0.2497
 2088TIP3    H1 6228   3.126   6.624   3.860  0.3945 -0.3986  0.3667
 2088TIP3    H2 6229   2.978   6.592   3.852  0.5340 -1.2638  1.0621
 2089TIP3   OH2 6230   6.580   0.766   1.474  0.4939  0.1144  0.1278
 2089TIP3    H1 6231   6.531   0.736   1.551 -0.4851  2.0252  0.2941
 2089TIP3    H2 6232   6.520   0.753   1.400  0.6851  0.1256 -0.0313
 2090TIP3   OH2 6233   2.544   6.241   1.569 -0.1867  0.5888 -0.5817
 2090TIP3    H1 6234   2.562   6.226   1.661  0.3274  1.4399 -0.5311
 2090TIP3    H2 6235   2.459   6.283   1.567 -0.2821  0.4015 -0.5163
 2091TIP3   OH2 6236   0.587   1.859   1.100  0.3399 -0.1786  0.1622
 2091TIP3    H1 6237   0.500   1.879   1.135  0.5034  0.6025  0.1293
 2091TIP3    H2 6238   0.643   1.857   1.177  0.1629 -1.4785  0.2795
 2092TIP3   OH2 6239   0.501   3.035   0.994  0.5414  0.0961  0.3824
 2092TIP3    H1 6240   0.539   3.122   0.994  0.5085  0.1134  0.1525
 2092TIP3    H2 6241   0.445   3.032   1.072 -0.8204  0.8903 -0.5179
 2093TIP3   OH2 6242   1.759   5.971   3.936 -0.1256  0.0141  0.3187
 2093TIP3    H1 6243   1.711   5.998   3.857 -1.4252  0.1942  1.1437
 2093TIP3    H2 6244   1.850   5.988   3.915 -0.3428 -0.7732 -1.4897
 2094TIP3   OH2 6245   1.856   3.573   2.793  0.3892 -0.6995 -0.2059
 2094TIP3    H1 6246   1.832   3.585   2.701  0.6239 -0.0010 -0.1803
 2094TIP3    H2 6247   1.950   3.559   2.791  0.2702 -1.5586 -0.1408
 2095TIP3   OH2 6248   3.959   0.336   1.301  0.0872  0.0736  0.2990
 2095TIP3    H1 6249   3.996   0.387   1.229 -2.2872  0.4934 -0.7094
 2095TIP3    H2 6250   3.968   0.393   1.377  1.5380  0.1055  0.1427
 2096TIP3   OH2 6251   4.010   2.095   4.601 -0.6371  0.2404 -0.5198
 2096TIP3    H1 6252   3.944   2.033   4.569 -0.2918 -0.2121 -0.3538
 2096TIP3    H2 6253   4.028   2.151   4.525 -0.4951 -0.2522 -0.8529
 2097TIP3   OH2 6254   7.032   1.029   1.142 -0.0600 -0.3354 -0.5382
 2097TIP3    H1 6255   6.977   1.087   1.089  0.8612 -0.7352 -1.9783
 2097TIP3    H2 6256   7.048   1.078   1.223 -2.4331 -0.1608 -0.1020
 2098TIP3   OH2 6257   4.192   0.453   2.912  0.2341 -0.1762  0.4048
 2098TIP3    H1 6258   4.262   0.433   2.849  0.1160  1.2040 -0.2014
 2098TIP3    H2 6259   4.225   0.418   2.995  1.4939  0.1327  0.0626
 2099TIP3   OH2 6260   1.935   5.526   1.065 -0.4105 -0.3670  0.1673
 2099TIP3    H1 6261   1.944   5.489   1.153 -1.0667  0.5580  0.6390
 2099TIP3    H2 6262   1.996   5.475   1.011  0.2636 -0.7032  1.2243
 2100TIP3   OH2 6263   0.297   5.007   0.680  0.0790  0.4222 -0.1037
 2100TIP3    H1 6264   0.323   5.071   0.746 -1.1019  3.1485 -2.0704
 2100TIP3    H2 6265   0.211   4.975   0.709 -0.3419  1.4511 -0.1745
 2101TIP3   OH2 6266   0.280   2.486   2.091 -0.3350  0.3286  0.9311
 2101TIP3    H1 6267   0.346   2.510   2.156  0.1924  0.1180  0.4848
 2101TIP3    H2 6268   0.299   2.543   2.016  0.4195 -0.8769  0.1685
 2102TIP3   OH2 6269   6.287   4.040   2.429  0.4251 -0.0311  0.9896
 2102TIP3    H1 6270   6.245   4.119   2.395  2.8009  0.5421 -0.8728
 2102TIP3    H2 6271   6.355   4.073   2.488  0.3330 -0.7667  1.5116
 2103TIP3   OH2 6272   1.876   1.559   0.563  0.3409 -0.4300 -0.5261
 2103TIP3    H1 6273   1.970   1.561   0.546  0.5494 -1.0037  0.5091
 2103TIP3    H2 6274   1.858   1.470   0.593 -0.5657 -0.3786 -0.8901
 2104TIP3   OH2 6275   5.651   3.137   2.472 -0.4808 -0.4134  0.2331
 2104TIP3    H1 6276   5.633   3.210   2.412  0.7249 -0.4563 -0.2075
 2104TIP3    H2 6277   5.687   3.179   2.550  0.4818 -0.5362 -0.1296
 2105TIP3   OH2 6278   6.774   4.319   4.375  0.2679 -0.1251 -0.2101
 2105TIP3    H1 6279   6.695   4.329   4.322  0.3679  2.5061  0.0015
 2105TIP3    H2 6280   6.846   4.335   4.314  0.3873  2.7515  0.5057
 2106TIP3   OH2 6281   3.396   2.048   0.842  0.4306 -0.8403  0.8200
 2106TIP3    H1 6282   3.332   2.024   0.775  1.1485 -2.5107  0.6885
 2106TIP3    H2 6283   3.343   2.065   0.920 -0.2684 -0.9514  0.3793
 2107TIP3   OH2 6284   7.109   5.619   2.133  0.1812  0.5847 -0.1502
 2107TIP3    H1 6285   7.051   5.576   2.069 -1.0089  1.0486  0.5893
 2107TIP3    H2 6286   7.191   5.631   2.085  0.4598 -2.0989 -0.5502
 2108TIP3   OH2 6287   0.182   2.336   3.459  0.4168 -0.1628 -0.7937
 2108TIP3    H1 6288   0.210   2.427   3.450  2.8185 -0.9095 -1.6657
 2108TIP3    H2 6289   0.262   2.288   3.478 -0.8787 -2.0521  0.2306
 2109TIP3   OH2 6290   4.056   4.809   5.747  0.0466  0.1505  0.2958
 2109TIP3    H1 6291   4.034   4.897   5.778  0.9176 -0.0395  1.5571
 2109TIP3    H2 6292   3.995   4.751   5.793 -0.6264  0.0951 -0.6477
 2110TIP3   OH2 6293   6.335   6.639   3.720  0.3231  0.3773  0.1788
 2110TIP3    H1 6294   6.409   6.614   3.665 -0.3903 -0.5473 -0.3903
 2110TIP3    H2 6295   6.268   6.667   3.658  0.2933  1.5154  0.7026
 2111TIP3   OH2 6296   0.389   3.627   5.399 -0.0059  0.0944 -0.1978
 2111TIP3    H1 6297   0.400   3.532   5.402  0.0346  0.1036 -0.0427
 2111TIP3    H2 6298   0.432   3.653   5.317 -0.4623 -0.0761 -0.4948
 2112TIP3   OH2 6299   6.278   0.488   1.854 -0.7174  0.1418 -0.1230
 2112TIP3    H1 6300   6.246   0.450   1.772 -0.4421 -0.3470 -0.0081
 2112TIP3    H2 6301   6.293   0.413   1.911 -1.2722  0.5052  0.5123
 2113TIP3   OH2 6302   4.283   5.423   0.282 -0.0103 -0.1189 -0.3855
 2113TIP3    H1 6303   4.310   5.331   0.276  1.2913  0.2531 -0.6168
 2113TIP3    H2 6304   4.197   5.426   0.241 -0.1971 -1.2937 -0.0931
 2114TIP3   OH2 6305   1.232   4.265   3.030 -0.5058 -0.2438 -0.6129
 2114TIP3    H1 6306   1.249   4.215   2.950 -1.7797 -0.4532 -0.7725
 2114TIP3    H2 6307   1.172   4.334   3.004 -3.4676 -2.1364  0.6554
 2115TIP3   OH2 6308   4.538   4.036   5.105 -0.0744  0.2219 -0.0513
 2115TIP3    H1 6309   4.461   4.002   5.060  0.4567  0.5453 -1.2261
 2115TIP3    H2 6310   4.569   4.107   5.050  0.7544  0.4581  0.6940
 2116TIP3   OH2 6311   0.846   5.910   4.992 -0.1509  0.2651  0.8385
 2116TIP3    H1 6312   0.889   5.935   4.910 -1.2194  0.7543  0.4041
 2116TIP3    H2 6313   0.917   5.885   5.050  0.5526 -1.9578 -0.8392
 2117TIP3   OH2 6314   4.528   3.838   1.929 -0.2732  0.1368 -0.0857
 2117TIP3    H1 6315   4.527   3.767   1.993 -0.3856 -0.1183 -0.3667
 2117TIP3    H2 6316   4.527   3.918   1.981 -2.9410 -0.0346  0.2580
 2118TIP3   OH2 6317   2.704   4.513   2.652  0.7062 -0.7758 -0.1577
 2118TIP3    H1 6318   2.697   4.460   2.573  0.7708 -3.2035  1.3464
 2118TIP3    H2 6319   2.638   4.477   2.711  1.8052 -0.2192  1.4991
 2119TIP3   OH2 6320   0.522   5.969   2.067  0.5119 -0.3766 -0.0609
 2119TIP3    H1 6321   0.454   6.007   2.124  0.2019 -1.7188  0.5046
 2119TIP3    H2 6322   0.527   6.029   1.993  0.7957  1.3287  1.2825
 2120TIP3   OH2 6323   0.097  -0.006   0.664 -0.2451  0.0684 -0.1825
 2120TIP3    H1 6324   0.112   0.086   0.640  2.3655 -0.2365 -0.0344
 2120TIP3    H2 6325   0.167  -0.054   0.619  0.1164 -1.4876  1.8833
 2121TIP3   OH2 6326   2.628   3.141   0.205  0.5903 -0.1465  0.1996
 2121TIP3    H1 6327   2.537   3.163   0.187  0.8810  0.6985 -0.2883
 2121TIP3    H2 6328   2.633   3.136   0.300  0.3824  1.4605  0.3306
 2122TIP3   OH2 6329   6.190   2.850   2.452  0.5410  0.3109 -0.3001
 2122TIP3    H1 6330   6.231   2.864   2.537  2.2240  1.4827 -1.2318
 2122TIP3    H2 6331   6.153   2.762   2.457  1.7843 -0.1822  1.1781
 2123TIP3   OH2 6332   4.215   1.224   3.594 -0.0099 -0.4269 -0.2441
 2123TIP3    H1 6333   4.179   1.144   3.555 -0.8650  0.0267 -0.4142
 2123TIP3    H2 6334   4.157   1.242   3.668  0.7687 -0.5067  0.3928
 2124TIP3   OH2 6335   2.708   0.729   1.665 -0.4728 -0.0389 -0.0639
 2124TIP3    H1 6336   2.625   0.756   1.703  0.3274  2.7984 -0.1167
 2124TIP3    H2 6337   2.773   0.752   1.731  0.4091 -1.0559 -0.5442
 2125TIP3   OH2 6338   1.400   6.711   3.051  0.0062 -0.3385  0.3814
 2125TIP3    H1 6339   1.428   6.679   3.137 -1.4372  0.3815  1.1710
 2125TIP3    H2 6340   1.332   6.776   3.071  0.5629  0.8272 -1.2677
 2126TIP3   OH2 6341   3.198   4.285   3.772  0.5993  0.4199  0.5529
 2126TIP3    H1 6342   3.208   4.226   3.698  0.6713 -0.9881  1.6406
 2126TIP3    H2 6343   3.251   4.246   3.842 -0.1527  1.2247  1.6120
 2127TIP3   OH2 6344   3.949   0.892   3.313  0.4649  0.8683 -0.0154
 2127TIP3    H1 6345   3.953   0.797   3.323  1.0243  0.9433  0.5817
 2127TIP3    H2 6346   3.931   0.924   3.401  0.2517  1.3134 -0.2199
 2128TIP3   OH2 6347   1.051   1.717   0.323 -0.7132  0.4387 -0.0346
 2128TIP3    H1 6348   1.143   1.745   0.322 -0.8832  1.0171 -1.1232
 2128TIP3    H2 6349   1.055   1.623   0.308 -0.2326  0.1553  1.6523
 2129TIP3   OH2 6350   7.186   5.791   0.397  0.0754  0.1765  0.2588
 2129TIP3    H1 6351   7.267   5.841   0.405  0.6470 -0.5764 -0.5652
 2129TIP3    H2 6352   7.163   5.768   0.487  0.5796  0.7045  0.5280
 2130TIP3   OH2 6353   4.492   3.528   4.347  0.1702 -0.0127 -0.3498
 2130TIP3    H1 6354   4.503   3.444   4.303 -2.5594 -0.7206  0.1236
 2130TIP3    H2 6355   4.505   3.508   4.440 -2.1487 -0.3788 -0.0401
 2131TIP3   OH2 6356   0.432   1.476   1.720  1.0696 -0.3417 -0.4500
 2131TIP3    H1 6357   0.523   1.488   1.746  0.9399  0.7299 -0.4601
 2131TIP3    H2 6358   0.436   1.447   1.629  1.3926 -0.1026 -0.5128
 2132TIP3   OH2 6359   0.790   4.026   2.848 -0.2412  0.0082 -0.3626
 2132TIP3    H1 6360   0.799   3.977   2.930  1.6611 -1.1351 -1.1930
 2132TIP3    H2 6361   0.843   3.978   2.786  0.7874  2.5114 -1.5480
 2133TIP3   OH2 6362   0.992   5.641   1.238  0.2926  0.2864  0.0280
 2133TIP3    H1 6363   1.002   5.696   1.316 -0.9436  0.3030  0.1856
 2133TIP3    H2 6364   1.081   5.636   1.201  0.4575  2.2585  0.0812
 2134TIP3   OH2 6365   1.683   6.658   1.919 -0.7822 -0.1095 -0.1653
 2134TIP3    H1 6366   1.693   6.563   1.924  0.6493  0.0123 -0.4148
 2134TIP3    H2 6367   1.753   6.687   1.861 -0.7298  1.1722  0.4952
 2135TIP3   OH2 6368   3.762   0.784   0.125 -0.0107  0.3179 -0.1586
 2135TIP3    H1 6369   3.673   0.793   0.090  0.6591 -2.4500 -3.0090
 2135TIP3    H2 6370   3.788   0.695   0.102  3.1884  0.6820  1.4767
 2136TIP3   OH2 6371   4.017   3.370   5.028  0.0304 -0.4209 -0.3432
 2136TIP3    H1 6372   4.022   3.455   5.073 -1.5998 -0.5865  0.2114
 2136TIP3    H2 6373   3.991   3.308   5.096  2.9718 -1.7831 -0.3183
 2137TIP3   OH2 6374   4.448   0.668   1.724  0.1194  0.1559  0.0004
 2137TIP3    H1 6375   4.453   0.573   1.714 -0.3374  0.1895 -0.5910
 2137TIP3    H2 6376   4.358   0.690   1.702 -0.1265  0.5967  1.3626
 2138TIP3   OH2 6377   0.299   4.667   4.241 -0.2081 -0.0137  0.0276
 2138TIP3    H1 6378   0.241   4.702   4.174 -0.7629 -1.3761 -0.2485
 2138TIP3    H2 6379   0.240   4.640   4.311  0.2604  0.2235  0.5199
 2139TIP3   OH2 6380   5.858   3.223   5.709  0.6946 -0.1959 -0.4954
 2139TIP3    H1 6381   5.907   3.298   5.674 -1.0841  0.3992 -1.8351
 2139TIP3    H2 6382   5.883   3.150   5.652 -1.8603  0.6756 -2.9309
 2140TIP3   OH2 6383   3.082   1.498   1.471 -0.4687 -0.2323 -0.1121
 2140TIP3    H1 6384   3.146   1.433   1.501  0.8529  0.1821 -1.8552
 2140TIP3    H2 6385   3.135   1.563   1.425 -1.9202  1.3810  0.4268
 2141TIP3   OH2 6386   5.419   5.952   4.387 -0.2097 -0.2652  0.3915
 2141TIP3    H1 6387   5.479   5.905   4.445 -0.6385  0.2922  1.3136
 2141TIP3    H2 6388   5.471   6.026   4.354 -0.6266  0.8088  1.9882
 2142TIP3   OH2 6389   3.707   4.483   0.911 -0.2866 -0.1124 -0.0827
 2142TIP3    H1 6390   3.713   4.389   0.894 -0.3089  0.0463 -1.0411
 2142TIP3    H2 6391   3.734   4.492   1.002  0.7549 -0.9359 -0.2752
 2143TIP3   OH2 6392   2.354   1.445   3.522  0.2749  0.0273 -0.0504
 2143TIP3    H1 6393   2.366   1.481   3.435  2.1933 -1.5721 -0.4961
 2143TIP3    H2 6394   2.317   1.358   3.508  2.6180 -1.1528  0.5127
 2144TIP3   OH2 6395   5.575   2.413   3.822 -0.2259 -0.3183 -0.3383
 2144TIP3    H1 6396   5.605   2.354   3.753  1.9166 -1.4342  1.4362
 2144TIP3    H2 6397   5.481   2.395   3.829 -0.2117 -1.2320 -1.9466
 2145TIP3   OH2 6398   4.164   0.834   5.372 -0.0908  0.1927 -0.0512
 2145TIP3    H1 6399   4.076   0.836   5.334 -0.4531 -2.1227  0.5403
 2145TIP3    H2 6400   4.211   0.903   5.326 -0.9845 -1.3007 -3.5508
 2146TIP3   OH2 6401   3.865   1.475   0.130  0.3275  0.2587 -0.0606
 2146TIP3    H1 6402   3.916   1.537   0.182  0.1060  0.6749 -0.3343
 2146TIP3    H2 6403   3.878   1.503   0.039  2.4858 -1.7576 -0.4682
 2147TIP3   OH2 6404   4.779   3.665   1.060  0.3689  1.0506  0.3418
 2147TIP3    H1 6405   4.864   3.709   1.057  2.5266 -2.6803 -0.6269
 2147TIP3    H2 6406   4.768   3.639   1.152  2.4627 -1.9297 -0.1211
 2148TIP3   OH2 6407   6.559   5.972   2.031 -0.3784 -0.5621 -0.0710
 2148TIP3    H1 6408   6.545   6.063   2.060 -1.2157 -0.4498 -0.7946
 2148TIP3    H2 6409   6.585   5.926   2.110 -0.3933  0.2142  0.4035
 2149TIP3   OH2 6410   6.301   6.458   5.031  0.1126  0.3145  0.2994
 2149TIP3    H1 6411   6.227   6.404   5.060  0.3757 -0.0827  0.2300
 2149TIP3    H2 6412   6.274   6.548   5.052  0.3278  0.0459  1.8948
 2150TIP3   OH2 6413   5.231   0.839   2.917  0.1664  0.2206 -0.2431
 2150TIP3    H1 6414   5.145   0.879   2.927 -0.5279 -1.3508  0.3224
 2150TIP3    H2 6415   5.219   0.772   2.850  1.6831  1.8680 -2.3342
 2151TIP3   OH2 6416   0.541   4.622   1.436  0.0856 -0.4347 -0.1859
 2151TIP3    H1 6417   0.580   4.703   1.470 -0.7464 -0.4567  0.8794
 2151TIP3    H2 6418   0.499   4.582   1.512  1.8620 -2.7268 -0.2977
 2152TIP3   OH2 6419   1.394   3.942   1.982 -0.2409  0.8910 -0.5202
 2152TIP3    H1 6420   1.395   4.025   2.031 -0.4465 -0.1085  1.2504
 2152TIP3    H2 6421   1.424   3.876   2.045  1.5470 -0.1821 -2.3553
 2153TIP3   OH2 6422   2.657   5.152   2.920  0.4390 -0.1490  0.2855
 2153TIP3    H1 6423   2.674   5.102   3.000  1.0617 -0.0070  0.2494
 2153TIP3    H2 6424   2.715   5.113   2.854  0.1655 -0.0538 -0.0175
 2154TIP3   OH2 6425   2.617   1.547   2.986 -0.7913  0.2088  0.0212
 2154TIP3    H1 6426   2.696   1.506   3.019 -0.9394  0.7216  1.0474
 2154TIP3    H2 6427   2.551   1.478   2.988 -0.6292  0.0580  0.1699
 2155TIP3   OH2 6428   4.584   3.327   3.518  0.0481  0.3079  0.4110
 2155TIP3    H1 6429   4.613   3.241   3.547 -0.9426 -0.3552 -0.4562
 2155TIP3    H2 6430   4.636   3.345   3.439  0.0064  0.3499  0.3927
 2156TIP3   OH2 6431   0.732   3.896   1.520 -0.2558  0.2476 -0.5355
 2156TIP3    H1 6432   0.804   3.836   1.539 -1.1175 -0.9313 -0.8759
 2156TIP3    H2 6433   0.653   3.843   1.530 -1.1070  1.5842  0.0967
 2157TIP3   OH2 6434   2.434   5.733   5.250 -0.4431  0.6223  0.0486
 2157TIP3    H1 6435   2.431   5.647   5.291 -1.0135 -0.3820 -1.9572
 2157TIP3    H2 6436   2.503   5.725   5.183 -0.7368  1.6006 -0.3917
 2158TIP3   OH2 6437   1.436   2.363   0.957 -1.0151  0.7606  0.1826
 2158TIP3    H1 6438   1.348   2.325   0.955 -0.6655 -0.2250  1.5269
 2158TIP3    H2 6439   1.427   2.441   1.012 -1.5220  2.1018 -1.7259
 2159TIP3   OH2 6440   6.729   0.032   3.873  0.3625 -0.2637  0.1236
 2159TIP3    H1 6441   6.774  -0.019   3.940  1.4585 -0.4394 -0.7143
 2159TIP3    H2 6442   6.796   0.089   3.837 -0.0264 -0.6359 -1.2658
 2160TIP3   OH2 6443   7.116   0.634   0.383  0.1391  0.2923 -0.2550
 2160TIP3    H1 6444   7.164   0.552   0.371  0.2123  0.2176  0.5083
 2160TIP3    H2 6445   7.046   0.612   0.444 -2.2214 -0.1277 -2.8977
 2161TIP3   OH2 6446   0.331   3.654   1.868 -0.1431 -0.0220 -0.2977
 2161TIP3    H1 6447   0.328   3.747   1.893 -1.5563 -0.4013  1.0524
 2161TIP3    H2 6448   0.243   3.622   1.883  0.2558 -1.5436 -1.0291
 2162TIP3   OH2 6449   1.347   0.749   2.722  0.3236  0.1594 -0.4452
 2162TIP3    H1 6450   1.430   0.743   2.675  1.2124 -0.3346  1.0947
 2162TIP3    H2 6451   1.344   0.840   2.754  1.0773 -0.2349  0.8277
 2163TIP3   OH2 6452   1.865   1.298   3.510 -0.3358  0.2984 -0.1262
 2163TIP3    H1 6453   1.904   1.303   3.597  0.1641  1.6434 -0.4111
 2163TIP3    H2 6454   1.809   1.376   3.504  0.4014  0.7584 -1.3623
 2164TIP3   OH2 6455   1.667   2.177   2.122  0.2505 -0.3681  0.0092
 2164TIP3    H1 6456   1.606   2.105   2.104  0.1420 -0.8129  1.8896
 2164TIP3    H2 6457   1.679   2.174   2.217  2.7360  0.1115 -0.2226
 2165TIP3   OH2 6458   7.009   1.015   5.507  0.2354  0.5432 -0.5660
 2165TIP3    H1 6459   7.103   1.001   5.518  0.0870 -0.6866 -0.6685
 2165TIP3    H2 6460   7.000   1.047   5.417  0.4761 -0.4529 -0.9625
 2166TIP3   OH2 6461   0.222   6.331   0.325 -0.1662 -0.4454  0.4370
 2166TIP3    H1 6462   0.160   6.351   0.254 -0.8378 -1.1624  0.8112
 2166TIP3    H2 6463   0.254   6.417   0.354  0.6626 -0.1576 -1.1922
 2167TIP3   OH2 6464   0.514   6.376   4.807  0.0918  0.2763  0.4088
 2167TIP3    H1 6465   0.464   6.457   4.812  1.8531  1.3466  2.4222
 2167TIP3    H2 6466   0.592   6.400   4.757  1.2535  0.2569  2.1235
 2168TIP3   OH2 6467   6.319   1.695   0.872  0.4676 -0.3009 -0.0090
 2168TIP3    H1 6468   6.308   1.660   0.961  0.9007 -0.6931 -0.1089
 2168TIP3    H2 6469   6.229   1.712   0.843  0.3274  0.0015  0.5668
 2169TIP3   OH2 6470   7.031   6.112   3.820 -0.2312  0.7757  0.0776
 2169TIP3    H1 6471   7.018   6.201   3.852 -0.5414  0.6748  0.2332
 2169TIP3    H2 6472   7.036   6.121   3.725 -1.0850  0.8613  0.0375
 2170TIP3   OH2 6473   6.046   6.080   4.300  0.2180 -0.3647 -0.2958
 2170TIP3    H1 6474   5.976   6.023   4.335  1.5512 -1.2634  1.0259
 2170TIP3    H2 6475   6.126   6.030   4.314  1.3324  1.4162 -0.0898
 2171TIP3   OH2 6476   1.349   6.243   1.563  0.2737  0.5736 -0.0949
 2171TIP3    H1 6477   1.359   6.314   1.498 -0.4348  1.9143  1.2016
 2171TIP3    H2 6478   1.255   6.241   1.580  0.3986 -0.1263  0.5091
 2172TIP3   OH2 6479   1.171   3.634   2.188 -0.0852 -0.2643 -0.5724
 2172TIP3    H1 6480   1.211   3.555   2.227 -0.6183 -0.2714 -0.0212
 2172TIP3    H2 6481   1.084   3.606   2.162 -1.1099  0.6431  1.5969
 2173TIP3   OH2 6482   2.006   5.885   0.686  0.3449  0.6012 -0.4097
 2173TIP3    H1 6483   2.002   5.920   0.776 -1.2829  0.6228 -0.4559
 2173TIP3    H2 6484   2.060   5.807   0.694 -0.2330  0.2854  0.7178
 2174TIP3   OH2 6485   5.670   0.822   0.771  0.5107  0.1697  0.4231
 2174TIP3    H1 6486   5.656   0.877   0.694  0.2781 -0.6057 -0.1100
 2174TIP3    H2 6487   5.728   0.873   0.827  0.7817  0.7056 -0.3189
 2175TIP3   OH2 6488   2.093   6.275   2.629 -0.1093 -0.3483 -0.3102
 2175TIP3    H1 6489   2.074   6.235   2.714 -0.7753  0.4687 -0.0654
 2175TIP3    H2 6490   2.017   6.330   2.611  0.8151  0.8482 -0.6131
 2176TIP3   OH2 6491   5.877   0.783   1.458  1.2106 -0.1653  0.8449
 2176TIP3    H1 6492   5.808   0.738   1.409  0.1309  2.3448 -0.0855
 2176TIP3    H2 6493   5.852   0.773   1.550 -1.3027  1.8959  0.4913
 2177TIP3   OH2 6494   3.361   5.380   1.721  0.1132  0.0867  0.3065
 2177TIP3    H1 6495   3.404   5.295   1.721 -0.0737 -0.0099  0.3396
 2177TIP3    H2 6496   3.430   5.443   1.702  0.0987 -0.1453 -0.5665
 2178TIP3   OH2 6497   2.877   5.286   1.341  0.2380  0.4803  0.9806
 2178TIP3    H1 6498   2.823   5.289   1.420 -0.7101 -1.8168  0.4983
 2178TIP3    H2 6499   2.944   5.220   1.360  1.2496  1.3608  0.5794
 2179TIP3   OH2 6500   1.509   1.696   3.540 -0.4050  0.0723 -0.4182
 2179TIP3    H1 6501   1.422   1.672   3.571  0.2265 -0.7458  0.8281
 2179TIP3    H2 6502   1.541   1.758   3.606  0.8566 -1.4764  0.5126
 2180TIP3   OH2 6503   0.730   0.935   4.960 -0.3104  0.1821 -0.5544
 2180TIP3    H1 6504   0.771   0.878   4.895  0.8982 -0.7517  0.9716
 2180TIP3    H2 6505   0.706   0.877   5.032  0.0575  1.4221  0.6165
 2181TIP3   OH2 6506   4.179   4.149   3.812 -0.2952  0.4869  0.2029
 2181TIP3    H1 6507   4.101   4.202   3.794 -0.1528  0.5472 -0.2536
 2181TIP3    H2 6508   4.240   4.172   3.741  0.2519  0.6670  0.7172
 2182TIP3   OH2 6509   6.159   0.780   0.100 -0.0373  0.3184  0.5243
 2182TIP3    H1 6510   6.064   0.770   0.086 -0.0978 -1.0423  1.7050
 2182TIP3    H2 6511   6.168   0.862   0.148 -0.4255  1.3720 -1.0993
 2183TIP3   OH2 6512   2.523   2.136   3.492  0.5555 -0.6408  0.4221
 2183TIP3    H1 6513   2.607   2.173   3.517 -0.0203  0.1773  1.1973
 2183TIP3    H2 6514   2.516   2.055   3.542  0.9117 -0.7657  0.2776
 2184TIP3   OH2 6515   3.449   5.487   1.089  0.1457  0.1474  0.1208
 2184TIP3    H1 6516   3.372   5.477   1.145 -1.9198 -2.2425 -2.7593
 2184TIP3    H2 6517   3.450   5.579   1.066 -2.1912  0.1890 -0.0699
 2185TIP3   OH2 6518   2.605   1.305   4.041 -0.5303  0.3524  0.1309
 2185TIP3    H1 6519   2.528   1.342   4.085  0.6356  0.9840  1.7239
 2185TIP3    H2 6520   2.580   1.301   3.949 -2.0738  1.5883  0.4505
 2186TIP3   OH2 6521   5.953   0.012   3.915 -0.1790 -0.6195 -0.3128
 2186TIP3    H1 6522   5.979   0.096   3.953  0.2754 -0.7316 -0.3711
 2186TIP3    H2 6523   5.947   0.030   3.821  0.8696 -0.8922 -0.4337
 2187TIP3   OH2 6524   2.300   1.695   0.320 -0.1344  0.1463  0.5121
 2187TIP3    H1 6525   2.299   1.624   0.256  0.3764  0.8362 -0.2920
 2187TIP3    H2 6526   2.389   1.731   0.314 -0.2410  0.5559  1.2399
 2188TIP3   OH2 6527   3.404   6.598   3.088  0.3576  0.0504 -0.0730
 2188TIP3    H1 6528   3.378   6.667   3.027  0.4720 -0.6843 -0.9709
 2188TIP3    H2 6529   3.352   6.522   3.062 -0.4294  0.0126  1.4679
 2189TIP3   OH2 6530   2.321   3.576   4.389 -0.6489  0.1170 -0.4812
 2189TIP3    H1 6531   2.289   3.490   4.362 -2.4489  1.0276 -1.4226
 2189TIP3    H2 6532   2.409   3.582   4.351 -0.8790 -0.9422 -1.2138
 2190TIP3   OH2 6533   5.488   3.063   5.278 -0.7342  0.0696  0.2281
 2190TIP3    H1 6534   5.523   3.042   5.192 -0.6474 -0.4120  0.3791
 2190TIP3    H2 6535   5.399   3.027   5.278 -1.8239  2.4977 -0.6685
 2191TIP3   OH2 6536   3.278   4.887   4.648  0.3267 -0.0298 -0.2775
 2191TIP3    H1 6537   3.344   4.838   4.696 -0.0816  1.6775  2.1957
 2191TIP3    H2 6538   3.326   4.959   4.607  0.1818  0.5735  0.5965
 2192TIP3   OH2 6539   1.500   6.132   1.826 -0.0026  0.0030 -0.7330
 2192TIP3    H1 6540   1.442   6.126   1.902  0.1893  0.1902 -0.5711
 2192TIP3    H2 6541   1.444   6.164   1.755  0.1134  1.1418 -0.3376
 2193TIP3   OH2 6542   5.547   3.983   0.736 -0.0491  0.1856 -0.3264
 2193TIP3    H1 6543   5.560   4.024   0.821  0.1884  1.7816 -1.0972
 2193TIP3    H2 6544   5.452   3.978   0.726 -0.1007  1.3671 -0.5737
 2194TIP3   OH2 6545   0.020   2.604   5.726  0.3823  0.3257 -0.2539
 2194TIP3    H1 6546   0.037   2.698   5.731  2.1617 -0.0044  0.7651
 2194TIP3    H2 6547   0.025   2.574   5.817  0.7071 -0.8901 -0.6533
 2195TIP3   OH2 6548   0.595   4.374   1.238 -0.6619 -0.3914 -0.8345
 2195TIP3    H1 6549   0.687   4.355   1.220 -0.6487  0.5086 -1.8028
 2195TIP3    H2 6550   0.597   4.433   1.313 -0.3091  1.1676 -2.0197
 2196TIP3   OH2 6551   0.789   5.456   2.907  0.0979 -1.0125  0.0517
 2196TIP3    H1 6552   0.710   5.492   2.869 -0.2737  0.1854  1.8484
 2196TIP3    H2 6553   0.763   5.424   2.994  1.0663 -2.9275 -0.2907
 2197TIP3   OH2 6554   1.612   0.836   5.530 -0.1698 -0.6266 -0.0225
 2197TIP3    H1 6555   1.584   0.764   5.475 -2.0217 -0.6585  0.8548
 2197TIP3    H2 6556   1.683   0.878   5.482 -1.4188 -0.8827 -2.2431
 2198TIP3   OH2 6557   1.225   2.428   3.452 -0.0842 -0.0972  0.2490
 2198TIP3    H1 6558   1.258   2.391   3.534 -1.9725  0.9105  1.5333
 2198TIP3    H2 6559   1.151   2.372   3.428 -0.9624  0.9120  0.5024
 2199TIP3   OH2 6560   5.878   4.209   1.882 -0.0096  0.1943 -0.1716
 2199TIP3    H1 6561   5.843   4.126   1.913 -0.1802  0.8322  1.4108
 2199TIP3    H2 6562   5.842   4.275   1.941  1.6088  1.1858 -0.2260
 2200TIP3   OH2 6563   6.047   4.595   4.806 -0.5264  0.4193 -0.3695
 2200TIP3    H1 6564   6.088   4.660   4.749 -1.3074  1.2245 -0.0316
 2200TIP3    H2 6565   6.120   4.552   4.849  0.1234 -0.5638 -2.3239
 2201TIP3   OH2 6566   5.267   6.183   2.734 -0.4420  0.4061  0.0444
 2201TIP3    H1 6567   5.212   6.105   2.723 -1.0369  0.8090  0.1105
 2201TIP3    H2 6568   5.218   6.237   2.796 -1.4936  2.1245 -2.1431
 2202TIP3   OH2 6569   6.081   3.740   1.386 -0.2953  0.0509  0.3607
 2202TIP3    H1 6570   6.101   3.830   1.414  0.4581 -0.1279  0.4274
 2202TIP3    H2 6571   6.029   3.703   1.457  0.2468  0.1161  0.8001
 2203TIP3   OH2 6572   2.427   0.128   4.163 -0.2474  0.0361 -0.2034
 2203TIP3    H1 6573   2.413   0.221   4.182 -0.3064 -0.5129  3.1147
 2203TIP3    H2 6574   2.358   0.084   4.213 -0.2906 -1.8344 -1.8119
 2204TIP3   OH2 6575   1.134   3.568   5.742  0.3227 -0.4020  0.1810
 2204TIP3    H1 6576   1.198   3.559   5.671 -0.4976 -1.2449 -0.4796
 2204TIP3    H2 6577   1.123   3.479   5.776 -0.7742 -0.3486  0.0174
 2205TIP3   OH2 6578   0.393   2.219   5.256  0.0525  0.1484 -0.4178
 2205TIP3    H1 6579   0.365   2.304   5.291  1.3645  0.7576 -0.7904
 2205TIP3    H2 6580   0.362   2.155   5.321 -0.2158  0.9845  0.3020
 2206TIP3   OH2 6581   1.799   1.881   2.735  0.7136  0.3094 -0.1364
 2206TIP3    H1 6582   1.884   1.870   2.691 -1.0659  0.8006 -4.1217
 2206TIP3    H2 6583   1.750   1.802   2.713 -0.3883  0.7154  0.7766
 2207TIP3   OH2 6584   1.618   2.358   0.265 -0.1472 -0.5503  0.1425
 2207TIP3    H1 6585   1.558   2.293   0.302 -1.7147 -0.3973 -1.9020
 2207TIP3    H2 6586   1.693   2.307   0.235 -0.5437 -1.1780  0.1989
 2208TIP3   OH2 6587   5.212   2.752   4.315 -0.1713  0.7286  0.0076
 2208TIP3    H1 6588   5.268   2.770   4.391  1.6742 -1.7533 -0.6361
 2208TIP3    H2 6589   5.273   2.724   4.247 -1.9574  1.1549 -1.8572
 2209TIP3   OH2 6590   1.647   3.787   2.829  0.0703  0.3541 -0.4522
 2209TIP3    H1 6591   1.705   3.712   2.822  1.4037  1.4102 -1.0498
 2209TIP3    H2 6592   1.700   3.854   2.872  0.1812  2.1729 -3.2256
 2210TIP3   OH2 6593   1.722   6.574   0.314  0.1007 -0.1445 -0.6274
 2210TIP3    H1 6594   1.729   6.668   0.295 -1.0630  0.1698  0.3938
 2210TIP3    H2 6595   1.791   6.557   0.378 -0.9443  0.4800  0.7231
 2211TIP3   OH2 6596   6.298   5.232   2.811 -0.4331  0.4275 -0.1475
 2211TIP3    H1 6597   6.251   5.149   2.799 -0.6679  0.2509  1.7242
 2211TIP3    H2 6598   6.231   5.299   2.802 -0.4200  0.3742 -0.7027
 2212TIP3   OH2 6599   7.151   2.614   3.797 -0.1219  0.4450 -0.1816
 2212TIP3    H1 6600   7.149   2.542   3.735  1.0889 -1.3781  1.7745
 2212TIP3    H2 6601   7.205   2.583   3.870  0.2633  3.2337  0.8818
 2213TIP3   OH2 6602   2.238   3.844   4.388  0.4552 -0.3619 -0.2863
 2213TIP3    H1 6603   2.277   3.760   4.413  1.3205  0.6643  2.1529
 2213TIP3    H2 6604   2.306   3.887   4.335  0.6005 -0.6043 -0.2988
 2214TIP3   OH2 6605   3.171   5.826   3.894 -0.1949  0.1716  0.4051
 2214TIP3    H1 6606   3.256   5.834   3.850 -0.4541 -0.2267 -0.1833
 2214TIP3    H2 6607   3.117   5.777   3.832 -1.3800  1.8750  0.0581
 2215TIP3   OH2 6608   0.146   4.668   1.804  0.4239  0.3011 -0.0243
 2215TIP3    H1 6609   0.151   4.722   1.725  2.4578  1.9094  1.1104
 2215TIP3    H2 6610   0.228   4.619   1.805  0.2226 -0.0423  0.8640
 2216TIP3   OH2 6611   0.311   5.816   2.510  0.3864  0.7542  0.2777
 2216TIP3    H1 6612   0.304   5.853   2.422 -0.9706  0.9639  0.4559
 2216TIP3    H2 6613   0.305   5.891   2.569 -1.7163  0.3838  0.6168
 2217TIP3   OH2 6614   5.631   5.048   0.722 -0.1945 -0.1422  0.0373
 2217TIP3    H1 6615   5.705   5.091   0.679  0.2899  1.3316  2.1784
 2217TIP3    H2 6616   5.592   4.993   0.654  1.2922  1.0334 -1.8628
 2218TIP3   OH2 6617   0.129   6.385   0.078 -0.7653  0.0221 -0.7527
 2218TIP3    H1 6618   0.090   6.351  -0.002  0.1209  2.4509 -2.3665
 2218TIP3    H2 6619   0.145   6.478   0.059  0.4911  0.4500  1.8631
 2219TIP3   OH2 6620   5.608   5.541   0.073 -0.5413  0.4661  0.3574
 2219TIP3    H1 6621   5.616   5.462   0.127 -1.2325  0.4209  0.3989
 2219TIP3    H2 6622   5.538   5.592   0.114 -0.4733  0.8452  0.0134
 2220TIP3   OH2 6623   5.353   2.070   1.048 -0.0155 -0.7208  0.3511
 2220TIP3    H1 6624   5.425   2.130   1.065  1.0321 -2.0568  0.8561
 2220TIP3    H2 6625   5.286   2.092   1.112 -0.3650  0.9591 -0.5366
 2221TIP3   OH2 6626   2.575   0.149   0.109  0.4080  0.6508 -0.4508
 2221TIP3    H1 6627   2.484   0.176   0.124  0.2575  0.1109 -0.3617
 2221TIP3    H2 6628   2.568   0.058   0.081  0.9662  0.3799  0.2536
 2222TIP3   OH2 6629   4.036   4.925   4.349  0.2610  0.0842 -0.7036
 2222TIP3    H1 6630   4.055   5.005   4.397 -0.8806  0.0566 -0.1624
 2222TIP3    H2 6631   4.078   4.856   4.400 -1.0833  0.0356  0.4061
 2223TIP3   OH2 6632   1.760   5.194   4.044 -0.0080 -0.6795  0.5299
 2223TIP3    H1 6633   1.694   5.263   4.041  1.3756  0.7028  0.0600
 2223TIP3    H2 6634   1.755   5.160   4.133  0.0080  0.8188  1.1377
 2224TIP3   OH2 6635   0.582   1.305   5.269  0.6370  0.5130  0.1295
 2224TIP3    H1 6636   0.595   1.227   5.215  1.7033 -0.0598  1.1736
 2224TIP3    H2 6637   0.526   1.275   5.341  1.0140  0.7189  0.5117
 2225TIP3   OH2 6638   2.355   5.699   3.018 -0.4389  0.3536  1.0939
 2225TIP3    H1 6639   2.407   5.639   3.071 -0.0857 -1.0106 -0.6898
 2225TIP3    H2 6640   2.417   5.765   2.987  0.7831 -2.0671 -2.2206
 2226TIP3   OH2 6641   7.043   5.694   2.796 -0.5315  0.5357 -0.1556
 2226TIP3    H1 6642   7.016   5.763   2.735 -0.9292  0.3420 -0.2087
 2226TIP3    H2 6643   7.011   5.613   2.755  1.0768  0.1767 -0.7432
 2227TIP3   OH2 6644   4.908   4.236   4.387  0.2355 -0.5802 -0.0287
 2227TIP3    H1 6645   4.900   4.313   4.443 -0.3783 -1.4091  1.0713
 2227TIP3    H2 6646   4.900   4.269   4.298 -2.7026  0.3450  0.4901
 2228TIP3   OH2 6647   1.347   4.328   5.581  0.1822 -0.0866 -0.0264
 2228TIP3    H1 6648   1.283   4.368   5.640 -1.3067  1.5741 -2.5569
 2228TIP3    H2 6649   1.424   4.385   5.587  1.0051 -1.2755  1.9423
 2229TIP3   OH2 6650   0.489   3.573   2.751  0.5920  0.4176 -0.4167
 2229TIP3    H1 6651   0.554   3.524   2.802 -0.4836 -0.3810  0.2251
 2229TIP3    H2 6652   0.444   3.627   2.816 -0.3975 -0.1755 -0.5926
 2230TIP3   OH2 6653   5.832   0.405   3.986 -0.2267  0.3897  0.3152
 2230TIP3    H1 6654   5.765   0.367   4.043 -1.1283  1.6918  0.1808
 2230TIP3    H2 6655   5.898   0.336   3.977 -1.5872 -0.9729  0.3655
 2231TIP3   OH2 6656   5.571   3.307   2.268  0.3655  0.0702  0.1065
 2231TIP3    H1 6657   5.490   3.322   2.318  0.7816 -1.0569  1.1476
 2231TIP3    H2 6658   5.543   3.306   2.176 -0.4433  1.9899  0.2799
 2232TIP3   OH2 6659   0.660   4.820   4.576 -0.0142  0.5436 -0.0244
 2232TIP3    H1 6660   0.593   4.759   4.545 -0.4008  0.4904  0.8735
 2232TIP3    H2 6661   0.742   4.773   4.564 -0.3474 -0.3969  1.1449
 2233TIP3   OH2 6662   0.341   0.418   2.699 -0.2708 -0.9336  0.3558
 2233TIP3    H1 6663   0.387   0.334   2.702  0.6732 -0.4268  1.1376
 2233TIP3    H2 6664   0.270   0.409   2.762  0.2033 -0.9625  0.9008
 2234TIP3   OH2 6665   0.979   5.753   3.908 -0.7382  0.4512  0.3449
 2234TIP3    H1 6666   0.973   5.809   3.831  1.4459  1.9691  1.1809
 2234TIP3    H2 6667   1.067   5.713   3.902 -1.2549 -0.8914  1.0972
 2235TIP3   OH2 6668   3.920   5.222   1.525 -0.2909  0.0375  0.1790
 2235TIP3    H1 6669   3.881   5.233   1.438  0.8438  1.2676 -0.2017
 2235TIP3    H2 6670   3.959   5.134   1.523 -2.2607 -0.9111  0.3046
 2236TIP3   OH2 6671   0.307   1.601   2.102  0.2811  0.4581 -0.1294
 2236TIP3    H1 6672   0.328   1.509   2.122  0.8019  0.4992 -0.4858
 2236TIP3    H2 6673   0.255   1.596   2.022  0.0288  0.4554  0.0316
 2237TIP3   OH2 6674   5.397   2.480   4.230  0.0757 -0.1360 -0.2212
 2237TIP3    H1 6675   5.322   2.422   4.243  1.4231 -2.1437 -0.8958
 2237TIP3    H2 6676   5.360   2.559   4.190 -1.9617 -0.0722  1.6192
 2238TIP3   OH2 6677   1.210   5.678   3.361 -0.7697 -0.4785  1.0568
 2238TIP3    H1 6678   1.139   5.739   3.340  0.7289  0.8981 -0.2415
 2238TIP3    H2 6679   1.257   5.667   3.278  0.1724 -1.8708  1.7401
 2239TIP3   OH2 6680   4.468   2.407   0.874  0.3363 -0.5808 -0.4137
 2239TIP3    H1 6681   4.442   2.452   0.794 -1.1780  2.0634  1.3818
 2239TIP3    H2 6682   4.386   2.398   0.924  1.5150  0.0805  1.7947
 2240TIP3   OH2 6683   6.892   1.891   0.751  0.5598  0.1329  0.2546
 2240TIP3    H1 6684   6.876   1.801   0.782 -0.8812  0.2423 -0.1127
 2240TIP3    H2 6685   6.987   1.896   0.742  0.8430 -0.7214  2.1594
 2241TIP3   OH2 6686   1.899   1.201   3.240  0.5047 -0.3903 -0.1559
 2241TIP3    H1 6687   1.827   1.263   3.253 -2.2709 -3.2171 -0.8294
 2241TIP3    H2 6688   1.948   1.202   3.322 -0.8873  0.9339  0.6937
 2242TIP3   OH2 6689   3.335   3.501   0.035  0.2607 -0.0429 -0.2116
 2242TIP3    H1 6690   3.350   3.440   0.107 -0.3786 -1.5273 -1.2815
 2242TIP3    H2 6691   3.356   3.450  -0.044  0.9030  1.5198 -1.0884
 2243TIP3   OH2 6692   3.939   3.681   2.367  0.2554  0.0626 -0.5140
 2243TIP3    H1 6693   3.982   3.754   2.322  1.3642 -0.4261 -0.2786
 2243TIP3    H2 6694   4.005   3.611   2.368 -0.3110 -0.4794  0.4731
 2244TIP3   OH2 6695   5.744   1.688   3.345 -0.2395  0.1009  0.3506
 2244TIP3    H1 6696   5.738   1.593   3.353 -2.2923  0.0843 -0.7529
 2244TIP3    H2 6697   5.779   1.717   3.430 -1.1946 -1.5152  1.3466
 2245TIP3   OH2 6698   6.015   3.752   4.366  0.3772 -0.0359  0.3486
 2245TIP3    H1 6699   5.958   3.814   4.320  2.0918  1.2141 -0.1963
 2245TIP3    H2 6700   6.000   3.770   4.459 -0.6979 -0.3220  0.2531
 2246TIP3   OH2 6701   6.848   1.178   3.006 -0.4086 -0.1804 -0.0734
 2246TIP3    H1 6702   6.761   1.152   3.036 -0.3594 -0.1309  0.1095
 2246TIP3    H2 6703   6.881   1.237   3.074 -0.6391  0.6007 -0.6137
 2247TIP3   OH2 6704   0.265   1.599   0.232  0.1290 -0.0414  0.6397
 2247TIP3    H1 6705   0.265   1.662   0.159 -2.8074 -0.0092  0.5586
 2247TIP3    H2 6706   0.321   1.639   0.298  1.1054  0.9819 -0.7509
 2248TIP3   OH2 6707   3.999   4.594   3.064 -0.6250  0.3376 -0.5494
 2248TIP3    H1 6708   3.947   4.568   3.141  0.5552 -0.0752  0.1351
 2248TIP3    H2 6709   4.055   4.518   3.046  1.1663  1.4632 -0.0142
 2249TIP3   OH2 6710   0.533   1.528   2.456  0.3854  0.2880  0.1228
 2249TIP3    H1 6711   0.584   1.580   2.517 -0.3380  3.6201 -1.8805
 2249TIP3    H2 6712   0.452   1.577   2.443 -0.9101 -1.9645 -1.0583
 2250TIP3   OH2 6713   1.057   5.659   1.923 -0.8779 -0.0447  0.0114
 2250TIP3    H1 6714   1.034   5.752   1.926 -1.4824 -0.1489 -1.2662
 2250TIP3    H2 6715   1.046   5.634   1.832 -1.9721 -1.7039  0.5734
 2251TIP3   OH2 6716   3.111   4.342   5.879  0.3701  0.5873  0.2444
 2251TIP3    H1 6717   3.087   4.433   5.861 -0.1570  0.6092  0.9937
 2251TIP3    H2 6718   3.028   4.296   5.886  0.6307 -0.5168 -2.6296
 2252TIP3   OH2 6719   4.831   2.044   3.498  0.4323  0.1690  0.7038
 2252TIP3    H1 6720   4.777   2.014   3.425 -0.5102  2.3981  0.4229
 2252TIP3    H2 6721   4.909   2.081   3.457 -1.5439  4.5785  0.3488
 2253TIP3   OH2 6722   6.044   5.183   4.958 -0.1157 -0.0873  0.0230
 2253TIP3    H1 6723   6.091   5.259   4.992 -0.5558 -0.0936  0.6605
 2253TIP3    H2 6724   5.969   5.221   4.911 -0.8876 -0.1407  1.1789
 2254TIP3   OH2 6725   4.890   2.106   2.228 -0.0361  0.1519 -0.0732
 2254TIP3    H1 6726   4.810   2.074   2.188  0.3062 -1.0476  0.1509
 2254TIP3    H2 6727   4.929   2.164   2.163 -0.2299 -0.6102 -0.8753
 2255TIP3   OH2 6728   6.948   2.102   2.829  0.9495 -0.1272 -0.0710
 2255TIP3    H1 6729   6.975   2.014   2.802 -0.1788 -0.9503  1.3066
 2255TIP3    H2 6730   6.971   2.107   2.922 -2.3281 -0.4498  0.8765
 2256TIP3   OH2 6731   3.215   0.173   3.292 -0.2562  0.7197  0.2314
 2256TIP3    H1 6732   3.240   0.098   3.347 -1.3406  0.8424  0.9277
 2256TIP3    H2 6733   3.165   0.133   3.220 -0.9548  0.7735  0.6779
 2257TIP3   OH2 6734   2.555   3.744   1.013 -0.3229  0.1184  0.0717
 2257TIP3    H1 6735   2.523   3.781   0.930  0.6086 -0.3087 -0.4852
 2257TIP3    H2 6736   2.650   3.749   1.007 -0.0830 -2.9280 -0.3303
 2258TIP3   OH2 6737   3.904   2.848   0.856  0.5143  0.2998  0.3130
 2258TIP3    H1 6738   3.865   2.913   0.797  2.1922  1.8183  0.8127
 2258TIP3    H2 6739   3.829   2.812   0.905 -0.4196  2.1385  0.3118
 2259TIP3   OH2 6740   5.255   1.973   0.625 -0.1904  0.2241 -0.1335
 2259TIP3    H1 6741   5.162   1.984   0.606 -0.3169  0.0998  0.4078
 2259TIP3    H2 6742   5.298   2.042   0.574 -0.9251  3.2176  2.9667
 2260TIP3   OH2 6743   3.022   2.487   1.488  0.0627  0.2415  0.3037
 2260TIP3    H1 6744   2.933   2.452   1.491  0.3031 -0.5990 -1.2803
 2260TIP3    H2 6745   3.042   2.509   1.579 -1.2067 -0.9503  0.9101
 2261TIP3   OH2 6746   1.897   1.481   5.781 -0.2795 -0.1642 -0.2901
 2261TIP3    H1 6747   1.944   1.428   5.717 -1.3736  0.1692 -1.4196
 2261TIP3    H2 6748   1.939   1.462   5.865  0.9442 -0.9053 -1.0468
 2262TIP3   OH2 6749   0.924   3.281   5.474 -0.0868  1.1736  0.4705
 2262TIP3    H1 6750   0.972   3.348   5.522  0.8012 -0.2010  1.6072
 2262TIP3    H2 6751   0.909   3.212   5.539  0.2837 -0.3353 -0.9761
 2263TIP3   OH2 6752   2.612   6.121   1.829  0.2760  0.4998 -0.2259
 2263TIP3    H1 6753   2.559   6.043   1.847  0.6550  0.2819 -0.0155
 2263TIP3    H2 6754   2.582   6.186   1.893  1.0620 -0.0088  0.7098
 2264TIP3   OH2 6755   6.050   6.664   4.068  0.6667 -0.1244 -0.0345
 2264TIP3    H1 6756   6.090   6.695   4.149  0.1107  1.4021 -0.3083
 2264TIP3    H2 6757   5.998   6.588   4.095 -1.6964  1.8948  1.6253
 2265TIP3   OH2 6758   6.818   4.260   5.543  0.9532  0.0432 -0.1937
 2265TIP3    H1 6759   6.892   4.266   5.481  1.2542  1.3580  0.2596
 2265TIP3    H2 6760   6.821   4.170   5.575  0.6131 -0.7642 -2.2888
 2266TIP3   OH2 6761   0.821   5.006   3.434  0.2987 -0.3744  0.0682
 2266TIP3    H1 6762   0.772   5.057   3.499  0.4999  0.2590 -0.2746
 2266TIP3    H2 6763   0.784   4.918   3.440  0.7848 -0.5147  1.5444
 2267TIP3   OH2 6764   6.669   1.182   1.295  0.0164 -0.5228 -0.7183
 2267TIP3    H1 6765   6.692   1.119   1.364 -1.1773  0.8523  1.0153
 2267TIP3    H2 6766   6.745   1.240   1.290 -0.4951  0.3014  0.5896
 2268TIP3   OH2 6767   6.743   1.018   4.521 -0.2611  0.3233 -0.1914
 2268TIP3    H1 6768   6.690   0.977   4.589  0.5263 -0.6567 -0.1569
 2268TIP3    H2 6769   6.765   0.947   4.460  1.6175  0.5319  0.1888
 2269TIP3   OH2 6770   6.663   3.887   1.423  0.6678  0.2964 -0.1697
 2269TIP3    H1 6771   6.725   3.815   1.411 -1.7544 -1.9771  0.0855
 2269TIP3    H2 6772   6.596   3.873   1.356  1.1855  3.7053 -1.6084
 2270TIP3   OH2 6773   0.297   1.314   0.224 -0.0969  0.3111  0.3028
 2270TIP3    H1 6774   0.292   1.409   0.210  0.0354  0.0808 -1.4849
 2270TIP3    H2 6775   0.217   1.280   0.186  0.2005 -0.3666  0.2705
 2271TIP3   OH2 6776   5.795   1.591   1.535  0.0860  0.5205 -0.4043
 2271TIP3    H1 6777   5.705   1.623   1.546  0.3391  0.8656  0.7356
 2271TIP3    H2 6778   5.849   1.670   1.536  0.6656  0.1548  1.9399
 2272TIP3   OH2 6779   1.775   4.866   2.089  0.1299  0.0270  0.1199
 2272TIP3    H1 6780   1.766   4.850   2.183  0.4687 -0.9939 -0.0024
 2272TIP3    H2 6781   1.801   4.958   2.083 -2.0603  0.7462  0.8789
 2273TIP3   OH2 6782   5.980   1.346   2.233  0.0132  0.3354 -0.2190
 2273TIP3    H1 6783   5.967   1.421   2.291  3.4519 -0.6692  2.1386
 2273TIP3    H2 6784   6.016   1.383   2.152  1.9363  1.2937  1.0173
 2274TIP3   OH2 6785   0.488   1.701   3.716  0.4342  0.1915 -0.4933
 2274TIP3    H1 6786   0.508   1.793   3.699  1.4066  0.1916  0.5303
 2274TIP3    H2 6787   0.447   1.701   3.803  0.7053 -0.3745 -0.3627
 2275TIP3   OH2 6788   5.527   6.325   2.330  0.4819 -0.1187 -0.5255
 2275TIP3    H1 6789   5.522   6.350   2.422 -0.8355 -0.8369 -0.3785
 2275TIP3    H2 6790   5.436   6.314   2.303  0.8965 -1.7820 -1.3866
 2276TIP3   OH2 6791   4.951   3.496   2.167  0.2491  0.0526  0.1013
 2276TIP3    H1 6792   4.984   3.496   2.257  0.5268  0.0925 -0.0004
 2276TIP3    H2 6793   5.023   3.533   2.115 -0.0823  0.4528 -0.0733
 2277TIP3   OH2 6794   0.589   0.446   3.060 -0.2881  0.0454 -0.3981
 2277TIP3    H1 6795   0.684   0.453   3.070 -0.3290  0.6103 -0.3816
 2277TIP3    H2 6796   0.559   0.536   3.051 -0.6209 -0.2240 -2.3536
 2278TIP3   OH2 6797   5.037   2.339   2.095 -0.7529  0.5484  0.7882
 2278TIP3    H1 6798   5.129   2.326   2.120 -0.5743 -1.0277 -0.5383
 2278TIP3    H2 6799   5.014   2.423   2.135  1.5633  1.4964  0.3348
 2279TIP3   OH2 6800   0.276   4.419   3.349  0.6464 -0.2474 -0.4873
 2279TIP3    H1 6801   0.315   4.366   3.280  0.8923 -1.0274  0.2405
 2279TIP3    H2 6802   0.221   4.482   3.302 -0.9744 -2.1759 -1.3413
 2280TIP3   OH2 6803   6.837   4.171   3.757  0.5745  0.3694  0.1870
 2280TIP3    H1 6804   6.785   4.169   3.676 -2.2283 -1.3371  1.8557
 2280TIP3    H2 6805   6.891   4.092   3.753  0.6144  0.4107 -0.1001
 2281TIP3   OH2 6806   7.114   3.708   0.439 -0.5036  0.2358 -0.2807
 2281TIP3    H1 6807   7.020   3.721   0.426 -0.8216 -1.7124 -0.1158
 2281TIP3    H2 6808   7.121   3.662   0.522  0.6643  0.9581  0.0481
 2282TIP3   OH2 6809   0.109   1.534   3.065  0.0947  0.1951 -0.8283
 2282TIP3    H1 6810   0.082   1.595   2.996 -0.1949  0.5867 -0.3767
 2282TIP3    H2 6811   0.028   1.517   3.114  0.4495  0.5765 -0.0829
 2283TIP3   OH2 6812   3.517   5.870   5.322  0.0355 -0.2231 -0.1083
 2283TIP3    H1 6813   3.431   5.835   5.301  0.4157 -1.4166  0.2915
 2283TIP3    H2 6814   3.523   5.951   5.270 -2.4285  1.4444  1.9891
 2284TIP3   OH2 6815   4.753   0.449   3.285 -0.2240 -0.1748  0.2611
 2284TIP3    H1 6816   4.763   0.357   3.261  4.8086  0.0591  0.4729
 2284TIP3    H2 6817   4.749   0.496   3.201 -0.6090 -0.4562  0.1227
 2285TIP3   OH2 6818   3.762   6.678   2.139 -0.2319  0.6486  0.3805
 2285TIP3    H1 6819   3.670   6.691   2.117 -0.3475  0.3755  0.6986
 2285TIP3    H2 6820   3.795   6.767   2.154 -0.6123  0.7041  0.9276
 2286TIP3   OH2 6821   1.880   5.100   2.042 -0.0730 -0.0447  0.6563
 2286TIP3    H1 6822   1.837   5.172   2.088 -0.2658  0.0032  0.4050
 2286TIP3    H2 6823   1.849   5.108   1.952  0.0583 -0.3253  0.5865
 2287TIP3   OH2 6824   4.741   1.708   3.735 -0.4585  0.0550 -0.6508
 2287TIP3    H1 6825   4.781   1.673   3.656 -0.3842 -0.1541 -0.5216
 2287TIP3    H2 6826   4.776   1.654   3.806 -0.5328  0.2336 -0.4763
 2288TIP3   OH2 6827   4.865   1.846   5.166  0.1639 -0.0058 -0.6210
 2288TIP3    H1 6828   4.959   1.845   5.182  0.2156  2.8893 -0.1667
 2288TIP3    H2 6829   4.857   1.861   5.072  0.2242  1.2721 -0.4388
 2289TIP3   OH2 6830   2.932   5.866   2.271 -0.4758 -0.2350  0.1311
 2289TIP3    H1 6831   2.953   5.861   2.178  0.9888  0.7168  0.3743
 2289TIP3    H2 6832   2.853   5.812   2.281 -0.3517 -0.7893 -1.5529
 2290TIP3   OH2 6833   6.909   2.845   2.006  0.2787  0.7900  0.3070
 2290TIP3    H1 6834   6.861   2.918   1.965  0.2863  0.8769  0.4543
 2290TIP3    H2 6835   6.999   2.857   1.977 -0.1545 -0.7192 -1.9474
 2291TIP3   OH2 6836   7.091   6.411   2.055 -0.3677 -0.0355 -0.2884
 2291TIP3    H1 6837   7.153   6.458   1.999  0.0687 -1.8809 -1.4555
 2291TIP3    H2 6838   7.069   6.332   2.005 -0.9773 -1.1235  1.6004
 2292TIP3   OH2 6839   3.182   0.320   0.220 -0.1949 -0.4590  0.4545
 2292TIP3    H1 6840   3.202   0.323   0.126 -0.3180  2.3683  0.4292
 2292TIP3    H2 6841   3.257   0.275   0.259  2.8910  3.3058 -0.4635
 2293TIP3   OH2 6842   6.886   5.787   2.354 -0.4038 -0.0613  0.2708
 2293TIP3    H1 6843   6.944   5.748   2.289 -0.3103  1.3559 -0.5415
 2293TIP3    H2 6844   6.834   5.851   2.305 -2.5961 -1.2036  1.0048
 2294TIP3   OH2 6845   0.424   0.596   4.481  0.1879 -0.2704  0.0842
 2294TIP3    H1 6846   0.515   0.623   4.483  0.9327 -2.5507  1.1532
 2294TIP3    H2 6847   0.411   0.560   4.394  0.8644 -1.4861  0.4563
 2295TIP3   OH2 6848   4.127   6.299   1.067  0.4530 -0.2924 -0.1744
 2295TIP3    H1 6849   4.137   6.238   0.994  2.0590 -2.9845  2.0864
 2295TIP3    H2 6850   4.113   6.243   1.143  0.3741  2.2967  1.8591
 2296TIP3   OH2 6851   3.387   4.378   3.480 -0.0969 -0.3960 -0.2884
 2296TIP3    H1 6852   3.370   4.443   3.411 -0.1960  0.2676  0.3454
 2296TIP3    H2 6853   3.406   4.297   3.432  1.2311  0.3758 -1.1499
 2297TIP3   OH2 6854   7.127   1.427   0.526 -0.1414 -0.3923  0.0595
 2297TIP3    H1 6855   7.122   1.332   0.513 -0.2045 -0.7832  2.5019
 2297TIP3    H2 6856   7.039   1.453   0.553  0.3757 -0.0307  1.4758
 2298TIP3   OH2 6857   2.891   6.519   5.654 -0.2474  0.4102  0.1709
 2298TIP3    H1 6858   2.816   6.573   5.634  0.6313  1.5493 -0.1484
 2298TIP3    H2 6859   2.963   6.556   5.602  0.3638 -1.1213 -0.1430
 2299TIP3   OH2 6860   3.659   2.999   3.527 -0.1670 -0.2621  0.2170
 2299TIP3    H1 6861   3.697   3.086   3.542 -1.6738  0.1909  1.8365
 2299TIP3    H2 6862   3.716   2.958   3.462  1.8764  1.0886  1.0600
 2300TIP3   OH2 6863   6.768   3.327   3.026  0.3545  0.0509 -0.3772
 2300TIP3    H1 6864   6.711   3.359   2.956  0.3749 -3.0210 -1.9965
 2300TIP3    H2 6865   6.722   3.347   3.107 -1.2990  0.8070 -1.4548
 2301TIP3   OH2 6866   5.773   6.368   3.220  0.3780  0.2524  1.2129
 2301TIP3    H1 6867   5.821   6.437   3.265 -0.5186  0.5145  1.7954
 2301TIP3    H2 6868   5.753   6.304   3.288 -2.9127  1.6878  1.7953
 2302TIP3   OH2 6869   5.705   2.330   1.727 -0.2377  0.1165  0.0150
 2302TIP3    H1 6870   5.725   2.408   1.675 -0.3403  0.7494  0.8870
 2302TIP3    H2 6871   5.773   2.267   1.705 -1.3809 -0.3919 -2.3739
 2303TIP3   OH2 6872   3.977   2.457   3.020  0.0811 -0.1707 -0.0665
 2303TIP3    H1 6873   4.009   2.372   2.987  0.6197 -0.0559  0.1559
 2303TIP3    H2 6874   4.050   2.517   3.006  1.3374 -0.6144  3.5503
 2304TIP3   OH2 6875   5.620   3.991   4.158  0.1967 -0.5590 -0.3109
 2304TIP3    H1 6876   5.543   4.009   4.105  0.4138 -1.8341 -1.1050
 2304TIP3    H2 6877   5.624   4.063   4.221 -2.4950 -1.2066  0.7399
 2305TIP3   OH2 6878   0.961   0.735   2.010 -0.4453 -0.3858  0.0228
 2305TIP3    H1 6879   0.985   0.704   2.098 -1.2411  0.0088  0.3866
 2305TIP3    H2 6880   0.998   0.669   1.951  1.1337 -0.0345  0.5776
 2306TIP3   OH2 6881   0.789   5.866   4.211 -0.2794 -0.6045 -0.3910
 2306TIP3    H1 6882   0.798   5.848   4.305 -1.3281 -1.9581 -0.5238
 2306TIP3    H2 6883   0.877   5.886   4.182  0.2553 -1.3098  0.6721
 2307TIP3   OH2 6884   0.533   6.105   2.389 -0.3932 -0.4087 -0.3003
 2307TIP3    H1 6885   0.457   6.058   2.422 -0.4039 -1.3119 -1.5750
 2307TIP3    H2 6886   0.498   6.166   2.324 -0.2555  0.6895  0.6113
 2308TIP3   OH2 6887   5.383   2.565   4.907  1.1292  0.0605  0.0432
 2308TIP3    H1 6888   5.323   2.624   4.862 -0.3003 -1.0726  0.3866
 2308TIP3    H2 6889   5.453   2.548   4.843 -0.2651 -0.6242 -1.3560
 2309TIP3   OH2 6890   5.718   2.330   2.315  0.0619  0.1771  0.4484
 2309TIP3    H1 6891   5.711   2.323   2.220 -1.5069  0.9484  0.4802
 2309TIP3    H2 6892   5.705   2.241   2.347 -0.2775  0.0552 -0.0185
 2310TIP3   OH2 6893   0.333   0.824   4.035  0.1882 -1.2703 -0.0186
 2310TIP3    H1 6894   0.417   0.778   4.034 -0.1586 -2.1566  2.8661
 2310TIP3    H2 6895   0.355   0.915   4.014  1.5805 -1.8038 -1.0050
 2311TIP3   OH2 6896   4.511   1.328   5.686 -0.1067 -0.1929  0.3948
 2311TIP3    H1 6897   4.606   1.339   5.676 -0.2622  1.8917  0.8858
 2311TIP3    H2 6898   4.500   1.233   5.696  1.4980 -0.9544 -3.4332
 2312TIP3   OH2 6899   4.066   5.323   4.959  0.2019 -0.1031  0.0455
 2312TIP3    H1 6900   4.019   5.407   4.954  1.6047  0.7326  0.4424
 2312TIP3    H2 6901   3.996   5.258   4.968 -0.8955  1.0752  0.4892
 2313TIP3   OH2 6902   6.345   5.568   0.910 -0.3788 -0.2519  0.2864
 2313TIP3    H1 6903   6.371   5.476   0.918  1.6171  0.2754  0.2044
 2313TIP3    H2 6904   6.408   5.616   0.963 -0.3286  1.2232 -1.0345
 2314TIP3   OH2 6905   1.645   3.079   3.334  0.8452 -1.0588  0.2288
 2314TIP3    H1 6906   1.557   3.043   3.340  0.6837 -0.4395  2.5298
 2314TIP3    H2 6907   1.633   3.168   3.299  0.3174 -0.3784  2.0267
 2315TIP3   OH2 6908   0.248   2.553   3.669  0.0906 -0.5919  0.5549
 2315TIP3    H1 6909   0.181   2.591   3.612  1.1906 -0.6533 -0.8376
 2315TIP3    H2 6910   0.208   2.553   3.756 -1.7464 -0.7140 -0.2341
 2316TIP3   OH2 6911   1.721   5.461   5.624 -0.0896  0.1154  0.0460
 2316TIP3    H1 6912   1.663   5.529   5.659  0.4131 -1.0323  3.3645
 2316TIP3    H2 6913   1.809   5.486   5.652  0.3275 -1.0209 -0.1669
 2317TIP3   OH2 6914   3.131   1.727   1.298 -0.9381  0.6323  0.2233
 2317TIP3    H1 6915   3.061   1.769   1.348  0.3434  2.2380  0.7461
 2317TIP3    H2 6916   3.113   1.750   1.207 -0.4349  2.1257  0.4700
 2318TIP3   OH2 6917   0.374   6.363   0.917  0.6900 -0.6582 -0.4854
 2318TIP3    H1 6918   0.468   6.359   0.898  1.0350  2.3214 -0.0035
 2318TIP3    H2 6919   0.333   6.373   0.831  1.1936  1.2532 -0.5709
 2319TIP3   OH2 6920   7.011   4.069   1.522 -0.0955  0.3727  0.0781
 2319TIP3    H1 6921   7.098   4.039   1.495 -0.4176 -0.0509 -0.5009
 2319TIP3    H2 6922   6.990   4.140   1.462  0.3933  1.3655  1.0453
 2320TIP3   OH2 6923   0.550   2.155   3.973  0.1397 -0.1903 -0.4656
 2320TIP3    H1 6924   0.465   2.186   3.941  1.0640  2.6679 -0.4441
 2320TIP3    H2 6925   0.560   2.068   3.933 -2.2539 -0.1192 -1.4108
 2321TIP3   OH2 6926   5.149   6.006   2.174  0.0605  0.5287  0.0321
 2321TIP3    H1 6927   5.104   5.979   2.094 -0.1412 -1.2487  0.7098
 2321TIP3    H2 6928   5.131   5.937   2.237  1.1154  1.3557  1.3041
 2322TIP3   OH2 6929   1.445   6.471   2.565  0.5191  0.2841 -0.2385
 2322TIP3    H1 6930   1.392   6.391   2.560  0.3781  0.3595  0.0247
 2322TIP3    H2 6931   1.468   6.478   2.658  0.9905  0.2514 -0.3522
 2323TIP3   OH2 6932   1.936   0.821   0.920  0.3421 -0.3527 -0.1642
 2323TIP3    H1 6933   1.878   0.745   0.924 -2.2117  1.3824 -1.1802
 2323TIP3    H2 6934   1.880   0.894   0.946  2.9922  1.1001  1.8886
 2324TIP3   OH2 6935   5.203   0.725   1.290 -0.2426 -0.7358  0.0807
 2324TIP3    H1 6936   5.143   0.773   1.233  0.1274 -1.8644 -1.3128
 2324TIP3    H2 6937   5.203   0.636   1.257  1.4604 -0.9927  0.6482
 2325TIP3   OH2 6938   5.437   3.382   3.243 -0.3505  0.4112 -0.7799
 2325TIP3    H1 6939   5.468   3.473   3.242 -0.6732  0.6716  2.3868
 2325TIP3    H2 6940   5.343   3.388   3.227 -0.1555  0.4558 -1.9979
 2326TIP3   OH2 6941   0.340   0.478   1.018  0.0161  0.2283  0.2314
 2326TIP3    H1 6942   0.392   0.412   0.972  0.1437  0.7583 -0.4018
 2326TIP3    H2 6943   0.261   0.488   0.965 -0.8203 -0.6976  1.2860
 2327TIP3   OH2 6944   2.505   0.493   0.533 -0.3087 -0.4307 -0.1671
 2327TIP3    H1 6945   2.458   0.477   0.451 -0.6601  0.2368 -0.0994
 2327TIP3    H2 6946   2.445   0.465   0.602 -0.6549  0.4828 -0.0781
 2328TIP3   OH2 6947   5.971   4.969   4.700 -0.3460 -0.2238  0.1439
 2328TIP3    H1 6948   6.058   5.009   4.699 -0.4656  0.0355  0.1319
 2328TIP3    H2 6949   5.978   4.900   4.766 -0.1142 -0.2391  0.1033
 2329TIP3   OH2 6950   4.821   2.397   4.827 -0.3608  0.2165  0.4641
 2329TIP3    H1 6951   4.893   2.416   4.887  0.2403  0.9629 -0.4583
 2329TIP3    H2 6952   4.742   2.412   4.878  0.1376  0.9555  1.0345
 2330TIP3   OH2 6953   4.992   2.593   5.562 -0.3800 -0.3546  0.2164
 2330TIP3    H1 6954   5.026   2.523   5.618 -1.5202 -1.3275 -0.2831
 2330TIP3    H2 6955   5.070   2.632   5.522  0.2336 -1.8466 -0.1015
 2331TIP3   OH2 6956   3.605   0.744   1.721  0.4236 -0.2170 -0.0665
 2331TIP3    H1 6957   3.682   0.801   1.724  0.7544 -0.6452 -0.3615
 2331TIP3    H2 6958   3.634   0.662   1.760 -0.6522  0.4774  2.4442
 2332TIP3   OH2 6959   5.992   0.519   1.501 -0.2658 -0.2895  0.4923
 2332TIP3    H1 6960   5.986   0.595   1.445  0.9240 -1.5561 -1.4641
 2332TIP3    H2 6961   5.966   0.445   1.445  0.5939 -1.5635  1.6948
 2333TIP3   OH2 6962   5.568   3.345   1.426 -0.2078  0.3960  0.0025
 2333TIP3    H1 6963   5.504   3.277   1.405  0.4311 -0.8604  1.7851
 2333TIP3    H2 6964   5.574   3.399   1.347 -0.0342 -2.2050 -1.8969
 2334TIP3   OH2 6965   0.904   2.364   0.694  0.3510 -0.3012 -0.1836
 2334TIP3    H1 6966   0.837   2.324   0.749 -0.1334 -1.2728 -1.4393
 2334TIP3    H2 6967   0.983   2.312   0.710 -0.2089 -1.6628 -1.6070
 2335TIP3   OH2 6968   2.343   3.316   4.627 -0.5542 -0.1578 -0.2604
 2335TIP3    H1 6969   2.260   3.268   4.622  0.1114 -1.2600 -1.0364
 2335TIP3    H2 6970   2.319   3.407   4.608 -1.6785 -0.3514  0.1645
 2336TIP3   OH2 6971   5.035   3.337   4.414 -0.2818 -0.1342  0.2852
 2336TIP3    H1 6972   4.988   3.420   4.407 -0.4695 -0.2397  0.2931
 2336TIP3    H2 6973   4.990   3.278   4.353  0.8721  0.2330 -0.9598
 2337TIP3   OH2 6974   1.321   2.120   0.782 -0.3362 -0.0369  0.7163
 2337TIP3    H1 6975   1.254   2.107   0.849 -0.4966 -0.9177  0.3912
 2337TIP3    H2 6976   1.291   2.198   0.734 -0.3781  0.4185  1.4673
 2338TIP3   OH2 6977   6.299   5.740   4.903 -0.6207  0.2477 -0.6355
 2338TIP3    H1 6978   6.373   5.729   4.963 -0.6314 -3.0413 -1.0281
 2338TIP3    H2 6979   6.223   5.742   4.961 -0.4854 -0.8760 -0.3822
 2339TIP3   OH2 6980   5.944   3.988   4.753  0.3729  0.4623 -0.2598
 2339TIP3    H1 6981   5.941   4.045   4.676  0.7370  2.3468  1.0509
 2339TIP3    H2 6982   5.855   3.991   4.788  0.4856  0.5429  0.0230
 2340TIP3   OH2 6983   3.857   3.295   4.062  0.2399  0.0207  0.0678
 2340TIP3    H1 6984   3.880   3.383   4.091  0.6901 -0.9703  3.1070
 2340TIP3    H2 6985   3.763   3.289   4.074 -0.1597  0.6816 -2.2067
 2341TIP3   OH2 6986   6.658   3.690   0.894  0.6110 -0.1753 -0.5699
 2341TIP3    H1 6987   6.564   3.686   0.914  0.2064  0.8566 -2.0692
 2341TIP3    H2 6988   6.684   3.598   0.883 -0.5088 -0.4385 -1.2314
 2342TIP3   OH2 6989   1.684   2.283   4.893 -0.7240 -0.8738  0.8405
 2342TIP3    H1 6990   1.739   2.329   4.955 -1.2573  1.2072 -0.1432
 2342TIP3    H2 6991   1.629   2.226   4.947  0.6012 -1.0879  2.0238
 2343TIP3   OH2 6992   1.163   2.322   0.284 -0.3704 -0.0612 -1.0923
 2343TIP3    H1 6993   1.087   2.380   0.292 -0.0971  0.1089  0.6914
 2343TIP3    H2 6994   1.230   2.376   0.242 -0.1541  0.9555  0.4440
 2344TIP3   OH2 6995   1.837   0.833   4.117  0.0853  0.0739 -0.2725
 2344TIP3    H1 6996   1.777   0.882   4.173 -0.7004 -0.2190 -0.8348
 2344TIP3    H2 6997   1.839   0.745   4.154  1.4815  0.5064  0.7264
 2345TIP3   OH2 6998   7.131   4.178   3.021  0.4313 -0.0957  0.3722
 2345TIP3    H1 6999   7.107   4.099   3.069  0.2923  0.2843  0.9349
 2345TIP3    H2 7000   7.073   4.177   2.944  0.6163 -0.6736  0.2341
 2346TIP3   OH2 7001   3.881   1.456   3.650 -0.1089  0.3546 -0.2392
 2346TIP3    H1 7002   3.917   1.514   3.717 -1.3679 -0.4552  1.2324
 2346TIP3    H2 7003   3.808   1.412   3.694 -0.1826 -1.1736 -1.7731
 2347TIP3   OH2 7004   7.212   5.515   1.702  0.1164  0.3203 -0.2661
 2347TIP3    H1 7005   7.132   5.462   1.709  0.0866  0.2758 -0.9200
 2347TIP3    H2 7006   7.282   5.451   1.689  0.3923  0.2950  1.1478
 2348TIP3   OH2 7007   6.485   5.849   3.687 -0.9268  0.0967  0.0913
 2348TIP3    H1 7008   6.544   5.920   3.663  0.8931 -0.7046  1.9216
 2348TIP3    H2 7009   6.462   5.807   3.604  0.5520  0.8216 -0.7185
 2349TIP3   OH2 7010   2.208   1.176   2.996  0.1092  0.0792  0.0362
 2349TIP3    H1 7011   2.193   1.113   2.925 -1.4692  1.1038 -0.5837
 2349TIP3    H2 7012   2.123   1.216   3.012  0.7614  0.9865  1.4675
 2350TIP3   OH2 7013   5.340   0.665   3.506  0.3366  0.1136  0.4636
 2350TIP3    H1 7014   5.367   0.604   3.575  0.0785  0.0572  0.5176
 2350TIP3    H2 7015   5.295   0.609   3.442  3.3720 -0.4244 -1.3958
 2351TIP3   OH2 7016   0.213   3.046   5.448 -0.4313  0.4226 -0.8961
 2351TIP3    H1 7017   0.122   3.071   5.467  0.0366  1.1788  0.4510
 2351TIP3    H2 7018   0.207   2.998   5.365 -2.4596 -2.0150  0.4973
 2352TIP3   OH2 7019   4.224   1.935   2.011 -0.4571 -0.3777  0.0662
 2352TIP3    H1 7020   4.172   1.924   1.931  0.6616  0.0274 -0.7501
 2352TIP3    H2 7021   4.238   1.845   2.042  0.6838 -0.7118 -1.2841
 2353TIP3   OH2 7022   5.574   4.109   1.762 -0.7837  0.2220 -0.0883
 2353TIP3    H1 7023   5.647   4.121   1.822  0.6888 -1.6647 -1.3798
 2353TIP3    H2 7024   5.498   4.142   1.810  0.6793  1.0460  1.8108
 2354TIP3   OH2 7025   7.019   5.058   2.135 -0.6838 -0.2988 -1.0189
 2354TIP3    H1 7026   6.998   4.988   2.074 -0.1525  0.3479 -1.9609
 2354TIP3    H2 7027   6.982   5.137   2.095  0.1519  0.2196 -0.7922
 2355TIP3   OH2 7028   7.011   1.588   3.768 -0.2071  0.2478 -0.5769
 2355TIP3    H1 7029   6.922   1.608   3.737  0.0875  1.8056 -0.4934
 2355TIP3    H2 7030   7.044   1.671   3.802  0.9604 -0.5174  0.2386
 2356TIP3   OH2 7031   2.739   5.709   1.582  0.6611 -0.2263  0.5331
 2356TIP3    H1 7032   2.736   5.800   1.551 -3.4804 -0.6815 -1.0564
 2356TIP3    H2 7033   2.768   5.659   1.506  0.5775 -0.4241  0.6307
 2357TIP3   OH2 7034   2.341   6.427   3.065  0.7974 -0.4389 -0.4083
 2357TIP3    H1 7035   2.274   6.433   3.133  1.8992  0.6221  0.6465
 2357TIP3    H2 7036   2.349   6.333   3.048 -0.4045 -0.6312  0.0003
 2358TIP3   OH2 7037   3.943   5.067   5.774  0.6557  0.4643 -0.5195
 2358TIP3    H1 7038   3.955   5.160   5.795  3.0399 -0.0421  0.6854
 2358TIP3    H2 7039   3.864   5.042   5.821  1.0111  1.4585  0.6597
 2359TIP3   OH2 7040   6.715   3.934   2.530 -0.2675 -0.3191  0.0586
 2359TIP3    H1 7041   6.714   3.956   2.624  1.5958 -1.1071  0.3133
 2359TIP3    H2 7042   6.733   3.840   2.528 -1.1674 -0.4832 -1.1017
 2360TIP3   OH2 7043   0.185   1.162   3.455 -0.4732  0.0799  0.0476
 2360TIP3    H1 7044   0.231   1.119   3.527 -0.3687  0.3599  0.1474
 2360TIP3    H2 7045   0.158   1.090   3.398  0.1637 -0.0764 -0.0617
 2361TIP3   OH2 7046   6.517   0.542   0.368 -0.5231 -0.1460  0.4536
 2361TIP3    H1 7047   6.533   0.469   0.309  1.0935 -0.3803  1.1267
 2361TIP3    H2 7048   6.496   0.616   0.310 -1.1460 -0.8753 -0.2750
 2362TIP3   OH2 7049   4.379   5.179   0.215 -0.0486 -0.5734  0.2930
 2362TIP3    H1 7050   4.450   5.123   0.245 -0.2926 -2.8041 -2.7176
 2362TIP3    H2 7051   4.390   5.182   0.120 -0.7290  3.7687  0.1557
 2363TIP3   OH2 7052   4.674   2.805   3.793 -0.5806 -0.2988  0.0707
 2363TIP3    H1 7053   4.600   2.746   3.809  0.0616 -0.8877  0.9656
 2363TIP3    H2 7054   4.677   2.814   3.698  0.0989 -2.8225 -0.2325
 2364TIP3   OH2 7055   3.146   0.700   0.428  0.0043  0.2048  0.1977
 2364TIP3    H1 7056   3.057   0.736   0.426  0.1007  0.4288 -0.8945
 2364TIP3    H2 7057   3.145   0.633   0.359  0.2718 -0.8110  1.1690
 2365TIP3   OH2 7058   1.401   4.926   5.770  0.4467 -0.3516 -0.3244
 2365TIP3    H1 7059   1.418   5.020   5.767  1.3729 -0.5252 -0.7488
 2365TIP3    H2 7060   1.474   4.890   5.820 -0.8744 -0.6537  1.5256
 2366TIP3   OH2 7061   0.701   0.015   2.146  0.0718 -0.6103 -0.2392
 2366TIP3    H1 7062   0.644   0.076   2.193 -0.6545 -0.4543 -1.2903
 2366TIP3    H2 7063   0.662  -0.071   2.162 -0.0005 -0.5893 -0.2998
 2367TIP3   OH2 7064   0.697   1.244   1.337  0.5333  0.3086  0.0507
 2367TIP3    H1 7065   0.715   1.160   1.379  2.3430  0.9364  0.6047
 2367TIP3    H2 7066   0.693   1.225   1.244 -0.5160 -0.6125  0.2691
 2368TIP3   OH2 7067   2.083   5.757   1.766 -0.4428  0.0632  0.1309
 2368TIP3    H1 7068   2.162   5.731   1.719 -0.3931 -0.1126  0.3121
 2368TIP3    H2 7069   2.102   5.738   1.858 -0.7010  0.0051  0.1729
 2369TIP3   OH2 7070   3.197   2.168   5.409 -0.2353 -0.5924 -0.1417
 2369TIP3    H1 7071   3.254   2.231   5.455  1.8037 -1.5609 -1.2160
 2369TIP3    H2 7072   3.133   2.141   5.476 -1.9682  3.3489  0.0949
 2370TIP3   OH2 7073   5.645   6.366   4.505 -0.6926  0.1402 -0.4950
 2370TIP3    H1 7074   5.587   6.411   4.566  0.0012  0.0114  0.2784
 2370TIP3    H2 7075   5.723   6.422   4.501  0.0208 -0.7807  0.1806
 2371TIP3   OH2 7076   5.308   4.866   1.317  0.2119 -0.1079 -0.3380
 2371TIP3    H1 7077   5.317   4.937   1.254 -0.5887 -0.9586 -1.4522
 2371TIP3    H2 7078   5.246   4.805   1.276  0.1260 -0.9729  1.0153
 2372TIP3   OH2 7079   5.042   4.188   3.429 -0.2728 -0.4038 -0.0234
 2372TIP3    H1 7080   4.976   4.257   3.428 -1.3285 -1.3742  0.1660
 2372TIP3    H2 7081   5.055   4.164   3.337 -0.0818 -0.1183 -0.0705
 2373TIP3   OH2 7082   4.738   4.119   5.258  0.6246  0.1475  0.2732
 2373TIP3    H1 7083   4.725   4.063   5.334  0.5701  0.0658  0.2035
 2373TIP3    H2 7084   4.678   4.085   5.192  1.5549 -0.5577 -0.2278
 2374TIP3   OH2 7085   4.778   3.909   1.379  0.0051 -0.2102  0.0736
 2374TIP3    H1 7086   4.872   3.911   1.396 -0.0433  1.0057  0.2918
 2374TIP3    H2 7087   4.747   3.830   1.425  1.2482 -2.0240 -2.0023
 2375TIP3   OH2 7088   0.366   2.714   2.565 -0.2061  0.4397  0.1902
 2375TIP3    H1 7089   0.395   2.800   2.596 -1.7049  0.5348  1.4820
 2375TIP3    H2 7090   0.270   2.718   2.571 -0.3450 -0.9769 -0.6896
 2376TIP3   OH2 7091   7.172   6.205   0.645 -0.5942 -0.4394 -0.5180
 2376TIP3    H1 7092   7.202   6.180   0.558  1.6681 -0.8811  0.3389
 2376TIP3    H2 7093   7.083   6.169   0.651 -0.5096 -1.0500 -2.3468
 2377TIP3   OH2 7094   1.075   3.937   4.291 -0.0430  0.5605 -0.3226
 2377TIP3    H1 7095   1.050   3.979   4.208  1.4453  0.7342 -0.7072
 2377TIP3    H2 7096   1.018   3.861   4.298 -1.7300  1.7666 -0.3863
 2378TIP3   OH2 7097   3.062   3.852   1.509  0.1250  0.0641 -0.0324
 2378TIP3    H1 7098   3.099   3.764   1.498 -1.0673 -0.6135  1.0602
 2378TIP3    H2 7099   2.973   3.846   1.473 -0.4677  0.4026  1.2916
 2379TIP3   OH2 7100   5.034   4.344   0.555 -0.2056  0.5324 -0.2563
 2379TIP3    H1 7101   5.101   4.408   0.581  0.8711 -1.0374  1.0003
 2379TIP3    H2 7102   4.953   4.394   0.555  0.7956  2.2502 -0.7851
 2380TIP3   OH2 7103   3.614   6.193   4.717  0.2397 -0.4412 -0.3827
 2380TIP3    H1 7104   3.602   6.101   4.743 -1.4696 -0.5519 -1.3673
 2380TIP3    H2 7105   3.553   6.205   4.644 -0.5353  1.8297  0.5488
 2381TIP3   OH2 7106   1.568   1.148   1.509  0.0596 -0.2813  0.1865
 2381TIP3    H1 7107   1.474   1.156   1.524  0.0823  0.4283 -0.0546
 2381TIP3    H2 7108   1.600   1.238   1.504  0.3418 -0.4533 -2.3546
 2382TIP3   OH2 7109   0.550   0.188   5.342  0.3412 -0.2259 -0.2826
 2382TIP3    H1 7110   0.507   0.272   5.357  1.9787  0.4724  0.8848
 2382TIP3    H2 7111   0.481   0.123   5.353 -1.0087  0.9534 -1.4163
 2383TIP3   OH2 7112   4.460   1.881   4.256  0.4919 -0.0496  0.5580
 2383TIP3    H1 7113   4.424   1.818   4.194  1.2629 -0.3269  0.3833
 2383TIP3    H2 7114   4.430   1.850   4.341 -0.6447  0.3803  0.3374
 2384TIP3   OH2 7115   0.327   2.472   1.097  0.6480  0.4887 -0.6556
 2384TIP3    H1 7116   0.319   2.389   1.144 -3.8194  2.1268  1.9922
 2384TIP3    H2 7117   0.296   2.452   1.008 -1.4336 -0.5150  0.2480
 2385TIP3   OH2 7118   3.300   6.163   3.195  0.0488 -0.1035  0.3518
 2385TIP3    H1 7119   3.206   6.154   3.210 -0.0069  1.4641  1.1216
 2385TIP3    H2 7120   3.309   6.172   3.101 -0.6266  0.3099  0.3230
 2386TIP3   OH2 7121   5.322   4.526   2.568  0.0278  0.0340 -0.2225
 2386TIP3    H1 7122   5.250   4.489   2.518 -1.3113  1.5159  0.5040
 2386TIP3    H2 7123   5.292   4.613   2.593  1.6745  0.3234  0.9703
 2387TIP3   OH2 7124   1.352   3.976   4.855 -0.0279 -0.1403  0.7485
 2387TIP3    H1 7125   1.305   4.055   4.828 -2.3761 -1.5688  0.3274
 2387TIP3    H2 7126   1.372   3.931   4.773 -0.5518 -0.9522  1.0546
 2388TIP3   OH2 7127   0.836   3.153   1.748 -0.1245  0.2939  0.5025
 2388TIP3    H1 7128   0.807   3.238   1.781  1.2908  0.9837  0.0442
 2388TIP3    H2 7129   0.854   3.101   1.826 -0.8136  0.4643  0.7833
 2389TIP3   OH2 7130   5.436   0.083   2.579 -0.5975  0.5739  0.2242
 2389TIP3    H1 7131   5.397   0.020   2.640 -0.4267 -0.3667 -0.6157
 2389TIP3    H2 7132   5.379   0.160   2.584 -3.0369 -0.9778 -1.4835
 2390TIP3   OH2 7133   1.716   4.219   2.333 -0.2365  0.5500 -0.5255
 2390TIP3    H1 7134   1.721   4.200   2.427 -0.7788 -1.1239 -0.8038
 2390TIP3    H2 7135   1.729   4.314   2.327 -1.4340  0.8803  1.3449
 2391TIP3   OH2 7136   3.091   5.890   4.439  0.7333 -0.1583 -0.2501
 2391TIP3    H1 7137   3.120   5.958   4.378  0.9608 -0.5766 -0.6116
 2391TIP3    H2 7138   3.154   5.819   4.428  0.7550 -0.2591  0.4442
 2392TIP3   OH2 7139   4.121   4.255   2.776  0.1008 -0.3330 -0.3006
 2392TIP3    H1 7140   4.047   4.297   2.733  0.3810  2.2591  1.4881
 2392TIP3    H2 7141   4.082   4.209   2.850  0.1120 -0.0893 -0.1386
 2393TIP3   OH2 7142   6.248   1.339   0.968 -0.2375  0.0545 -0.1772
 2393TIP3    H1 7143   6.207   1.261   1.005 -0.5413  0.4285  0.2930
 2393TIP3    H2 7144   6.253   1.321   0.874 -1.0620 -0.2007 -0.1867
 2394TIP3   OH2 7145   4.528   2.262   4.739  0.4985  0.2983  0.6912
 2394TIP3    H1 7146   4.569   2.330   4.792  0.2879 -0.5454  1.9910
 2394TIP3    H2 7147   4.529   2.184   4.795 -0.2803 -0.4740 -0.3291
 2395TIP3   OH2 7148   6.480   4.680   1.757  0.1081 -0.4787  0.1797
 2395TIP3    H1 7149   6.487   4.588   1.734  0.5369 -0.5061  0.4097
 2395TIP3    H2 7150   6.456   4.680   1.850 -2.0080 -0.3759 -0.3080
 2396TIP3   OH2 7151   3.439   1.295   4.667  0.6881 -0.0598 -0.0291
 2396TIP3    H1 7152   3.468   1.350   4.740 -1.2228  0.4459  0.4318
 2396TIP3    H2 7153   3.379   1.352   4.618 -1.5856 -1.7218  0.6099
 2397TIP3   OH2 7154   6.117   5.102   3.317  0.0109 -0.3462 -0.2769
 2397TIP3    H1 7155   6.050   5.164   3.345  0.1077 -1.0654  1.6921
 2397TIP3    H2 7156   6.078   5.016   3.333  1.0951 -0.7701  0.1572
 2398TIP3   OH2 7157   3.207   2.958   2.484  0.0278 -0.3457  0.3513
 2398TIP3    H1 7158   3.213   2.863   2.478  0.3479 -0.3162  0.1600
 2398TIP3    H2 7159   3.113   2.976   2.483 -0.0612 -0.5165 -2.1176
 2399TIP3   OH2 7160   1.196   1.818   1.285 -0.2068 -0.0119  0.0599
 2399TIP3    H1 7161   1.254   1.743   1.269  0.6668  0.1606  2.0995
 2399TIP3    H2 7162   1.254   1.895   1.279 -1.0497  0.5312 -1.7854
 2400TIP3   OH2 7163   3.911   0.728   1.642  0.0487 -0.0742 -0.8369
 2400TIP3    H1 7164   3.944   0.755   1.728 -2.6913  0.0788  0.2586
 2400TIP3    H2 7165   3.941   0.796   1.582  0.2913  0.9167  0.3791
 2401TIP3   OH2 7166   4.234   1.754   4.908 -0.2840 -0.0523  0.2797
 2401TIP3    H1 7167   4.237   1.850   4.908 -2.8414  0.1026 -0.1608
 2401TIP3    H2 7168   4.326   1.727   4.905  0.4880  2.3735 -0.3792
 2402TIP3   OH2 7169   0.812   6.268   2.751  0.5791 -0.0078 -0.1487
 2402TIP3    H1 7170   0.818   6.292   2.843 -2.8358  0.8678 -0.0322
 2402TIP3    H2 7171   0.872   6.327   2.706  0.6653  1.0301  1.2950
 2403TIP3   OH2 7172   2.179   3.817   4.978  0.7353 -0.1195  0.6436
 2403TIP3    H1 7173   2.254   3.870   5.005  0.1777  0.6787  0.6484
 2403TIP3    H2 7174   2.160   3.847   4.890  1.7630 -1.8444 -0.2084
 2404TIP3   OH2 7175   5.205   2.301   4.206  0.2466 -0.1127  0.2884
 2404TIP3    H1 7176   5.142   2.238   4.240 -0.5741  1.1043  1.1320
 2404TIP3    H2 7177   5.172   2.323   4.118 -1.4550  1.6454  1.2824
 2405TIP3   OH2 7178   4.075   0.681   3.505  0.3725 -0.5241 -0.1906
 2405TIP3    H1 7179   4.074   0.693   3.599  1.4022 -0.3481 -0.1837
 2405TIP3    H2 7180   4.167   0.696   3.480  0.3469 -1.6493 -1.0662
 2406TIP3   OH2 7181   1.395   4.078   5.150  0.2292 -0.1400  0.0354
 2406TIP3    H1 7182   1.414   4.038   5.065  1.8005  0.6021  0.0087
 2406TIP3    H2 7183   1.408   4.007   5.213  0.9558 -0.2091 -0.1849
 2407TIP3   OH2 7184   2.076   2.853   0.851  0.3013  0.2745 -0.1724
 2407TIP3    H1 7185   2.124   2.907   0.913  3.5909 -2.3972 -0.1077
 2407TIP3    H2 7186   2.063   2.910   0.775 -0.0834  2.3172  1.3416
 2408TIP3   OH2 7187   4.192   5.906   2.129 -0.1785 -0.0119 -0.4704
 2408TIP3    H1 7188   4.200   5.939   2.218  4.0869 -1.5355 -0.0172
 2408TIP3    H2 7189   4.200   5.811   2.138 -2.0897 -0.4303 -2.3720
 2409TIP3   OH2 7190   7.234   1.933   4.335  0.6955  0.0459 -0.0210
 2409TIP3    H1 7191   7.215   1.883   4.414  0.5118  0.0519 -0.0596
 2409TIP3    H2 7192   7.150   1.972   4.311  1.0490  1.2627  0.6177
 2410TIP3   OH2 7193   1.733   3.836   5.390 -0.0347 -0.5497  0.2610
 2410TIP3    H1 7194   1.796   3.898   5.427 -0.3584 -0.8536  1.3681
 2410TIP3    H2 7195   1.780   3.753   5.388 -0.9972 -1.2792  3.1294
 2411TIP3   OH2 7196   5.096   2.730   1.753 -0.3198  0.7876  0.1491
 2411TIP3    H1 7197   5.154   2.662   1.788  0.9670  2.3572  1.1927
 2411TIP3    H2 7198   5.068   2.696   1.668  1.8769 -0.1834 -0.2494
 2412TIP3   OH2 7199   3.608   5.577   2.876 -0.0724  0.3569 -0.0889
 2412TIP3    H1 7200   3.523   5.607   2.844  0.4601  1.4230 -0.5454
 2412TIP3    H2 7201   3.587   5.512   2.943 -1.2539  1.1987  0.3841
 2413TIP3   OH2 7202   2.516   2.826   5.859 -0.2125  0.1481 -0.3793
 2413TIP3    H1 7203   2.476   2.908   5.887  0.0061 -0.0718  0.5909
 2413TIP3    H2 7204   2.489   2.817   5.767 -0.4898  1.1415 -0.4078
 2414TIP3   OH2 7205   1.789   0.215   2.344  0.5703  0.3215  0.4452
 2414TIP3    H1 7206   1.762   0.284   2.405 -0.5471  1.0050 -0.7698
 2414TIP3    H2 7207   1.883   0.229   2.332  0.2524  2.1821 -0.3545
 2415TIP3   OH2 7208   0.139   3.284   4.613 -0.1142 -0.5954  0.2771
 2415TIP3    H1 7209   0.199   3.349   4.649  1.0541 -0.8408 -1.1214
 2415TIP3    H2 7210   0.072   3.273   4.680  0.5363  0.8675  1.2090
 2416TIP3   OH2 7211   1.993   3.166   2.839 -0.2611  0.4139  0.1067
 2416TIP3    H1 7212   1.968   3.188   2.929  0.0964  2.3957 -0.2225
 2416TIP3    H2 7213   2.086   3.146   2.844 -0.3575  0.0151  0.2663
 2417TIP3   OH2 7214   0.021   1.437   2.304  0.1407 -0.1138  0.3693
 2417TIP3    H1 7215   0.104   1.404   2.338 -0.0254 -0.9056  0.0247
 2417TIP3    H2 7216  -0.026   1.359   2.276  0.9030  0.5207 -3.1719
 2418TIP3   OH2 7217   7.163   1.092   2.525 -0.4122 -0.7183  0.3849
 2418TIP3    H1 7218   7.246   1.093   2.573 -0.4560  0.8998  0.4732
 2418TIP3    H2 7219   7.127   1.180   2.537 -2.1227 -1.3658  0.2903
 2419TIP3   OH2 7220   4.342   6.547   1.069  0.0436  0.7257 -0.2328
 2419TIP3    H1 7221   4.282   6.476   1.087  2.1345 -1.3349 -0.9161
 2419TIP3    H2 7222   4.425   6.519   1.108  1.5235  1.6889 -2.4830
 2420TIP3   OH2 7223   5.545   0.147   3.844 -0.4385  0.0868  0.3722
 2420TIP3    H1 7224   5.552   0.128   3.751  0.0218  0.1710  0.3874
 2420TIP3    H2 7225   5.589   0.073   3.887  0.2079  0.5305  0.4814
 2421TIP3   OH2 7226   5.629   3.578   2.441  0.0956 -0.0007 -0.0698
 2421TIP3    H1 7227   5.711   3.587   2.490 -0.0253  2.1355 -0.1683
 2421TIP3    H2 7228   5.656   3.581   2.350  0.0463 -1.1861 -0.1446
 2422TIP3   OH2 7229   1.310   5.417   5.468 -0.0629  0.1630 -0.1053
 2422TIP3    H1 7230   1.250   5.461   5.408 -0.0035  2.2414  1.2461
 2422TIP3    H2 7231   1.397   5.442   5.438  0.0537 -0.6879 -0.4996
 2423TIP3   OH2 7232   6.421   5.332   4.059  0.4102  0.1924 -0.3281
 2423TIP3    H1 7233   6.457   5.251   4.096  0.6114  1.0704  1.4632
 2423TIP3    H2 7234   6.475   5.402   4.095 -0.3793  1.2146 -1.0728
 2424TIP3   OH2 7235   0.368   3.998   3.074  0.0077 -0.3904  0.6855
 2424TIP3    H1 7236   0.410   4.067   3.125  1.1465  0.5727 -1.4275
 2424TIP3    H2 7237   0.283   4.034   3.049 -1.0085 -1.2561  2.6020
 2425TIP3   OH2 7238   1.457   0.162   1.293  0.2081  0.1454 -0.4285
 2425TIP3    H1 7239   1.447   0.216   1.215  0.9862  0.0868 -0.5754
 2425TIP3    H2 7240   1.415   0.079   1.271 -0.0680  0.3237 -0.5774
 2426TIP3   OH2 7241   3.708   6.042   3.701 -0.7931 -0.4898 -0.1339
 2426TIP3    H1 7242   3.800   6.026   3.678 -1.0513 -0.8768 -0.9344
 2426TIP3    H2 7243   3.684   6.119   3.650 -0.1308  1.3817  2.2026
 2427TIP3   OH2 7244   5.690   4.777  -0.032 -0.3526  0.0371 -0.2267
 2427TIP3    H1 7245   5.768   4.766   0.021  0.4246 -2.3818 -1.7362
 2427TIP3    H2 7246   5.624   4.812   0.029  1.1519 -0.3274  1.6964
 2428TIP3   OH2 7247   7.098   1.398   4.850  0.0272 -0.1447  0.7422
 2428TIP3    H1 7248   7.065   1.436   4.769  2.3924  0.2617 -0.1090
 2428TIP3    H2 7249   7.025   1.345   4.883 -0.9939 -0.3648 -1.6525
 2429TIP3   OH2 7250   0.814   4.280   5.834 -0.6298 -0.2358 -0.0323
 2429TIP3    H1 7251   0.747   4.332   5.880 -1.3222 -1.2083  0.0780
 2429TIP3    H2 7252   0.804   4.192   5.869  0.5191 -0.4645 -0.2421
 2430TIP3   OH2 7253   0.675   0.291   3.751 -0.1174  0.0818  0.3188
 2430TIP3    H1 7254   0.631   0.324   3.829 -0.8369 -0.6313  0.2284
 2430TIP3    H2 7255   0.768   0.308   3.767 -0.4738  2.9099 -0.1140
 2431TIP3   OH2 7256   2.704   2.099   1.106 -0.4170  0.5525 -0.7973
 2431TIP3    H1 7257   2.638   2.137   1.048 -1.1954 -0.6736 -0.7545
 2431TIP3    H2 7258   2.678   2.007   1.114  1.5189 -0.0632 -1.0974
 2432TIP3   OH2 7259   0.496   2.993   3.718 -0.1869  0.0533 -0.3588
 2432TIP3    H1 7260   0.426   2.936   3.752 -0.7814  1.5868  1.1220
 2432TIP3    H2 7261   0.569   2.980   3.778  0.7709 -1.3701 -1.7728
 2433TIP3   OH2 7262   1.388   6.692   5.762  0.0246 -0.0107  0.3837
 2433TIP3    H1 7263   1.339   6.724   5.839 -0.0197  1.5539 -0.2488
 2433TIP3    H2 7264   1.338   6.725   5.687  0.3231 -1.1230 -0.3280
 2434TIP3   OH2 7265   0.781   1.774   5.720 -0.3501 -0.1760  0.0156
 2434TIP3    H1 7266   0.754   1.813   5.803 -0.1495  0.0098 -0.0048
 2434TIP3    H2 7267   0.806   1.848   5.665 -0.0131 -0.3248 -0.0399
 2435TIP3   OH2 7268   1.281   3.424   0.440 -0.0480  0.7921 -0.1011
 2435TIP3    H1 7269   1.242   3.372   0.371  1.3812  1.0019 -1.1047
 2435TIP3    H2 7270   1.375   3.423   0.422  0.6682 -0.8412  2.9685
 2436TIP3   OH2 7271   3.115   0.331   2.125 -0.3648 -0.4202  0.1754
 2436TIP3    H1 7272   3.108   0.244   2.085  2.2116 -0.5978 -0.0702
 2436TIP3    H2 7273   3.162   0.383   2.060  0.0338  0.5346  1.2082
 2437TIP3   OH2 7274   4.768   0.822   3.646  0.3378 -0.0185  0.6290
 2437TIP3    H1 7275   4.847   0.851   3.692  0.7922  0.4375 -0.4001
 2437TIP3    H2 7276   4.751   0.734   3.680  2.1457 -0.7288 -0.1611
 2438TIP3   OH2 7277   6.719   2.410   2.069  0.2643 -0.1399 -0.2150
 2438TIP3    H1 7278   6.657   2.441   2.136 -0.9713 -0.2978 -1.2352
 2438TIP3    H2 7279   6.796   2.466   2.080  0.0211 -0.0231  1.1875
 2439TIP3   OH2 7280   6.662   3.776   4.657 -0.2249  0.0253  0.0922
 2439TIP3    H1 7281   6.728   3.780   4.588 -1.1251 -0.1845 -0.8000
 2439TIP3    H2 7282   6.621   3.690   4.646 -0.8858  0.2912  0.4030
 2440TIP3   OH2 7283   4.754   0.832   0.093  0.2036  0.0563 -0.0194
 2440TIP3    H1 7284   4.822   0.765   0.090 -0.9335 -1.1677  0.3846
 2440TIP3    H2 7285   4.750   0.866   0.004  1.0823 -0.1059 -0.1318
 2441TIP3   OH2 7286   5.002   3.811   1.092  0.0926  0.1978  0.3636
 2441TIP3    H1 7287   5.042   3.724   1.091  0.1867  0.2311  1.0593
 2441TIP3    H2 7288   5.031   3.851   1.174 -0.8620  0.4618  0.5917
 2442TIP3   OH2 7289   5.786   0.862   3.814  0.3001  0.1627  0.1544
 2442TIP3    H1 7290   5.724   0.802   3.857 -0.1628 -0.7313 -1.6630
 2442TIP3    H2 7291   5.736   0.943   3.804  0.1228  0.1041  0.5158
 2443TIP3   OH2 7292   5.055   6.482   3.184 -0.0467  1.0455  0.4611
 2443TIP3    H1 7293   5.086   6.510   3.099  2.1970 -1.0140  0.4851
 2443TIP3    H2 7294   5.056   6.561   3.238  0.0929  2.0449 -0.9637
 2444TIP3   OH2 7295   1.849   5.828   1.640 -0.2759 -0.5009  0.3375
 2444TIP3    H1 7296   1.932   5.817   1.688 -1.0750 -1.2336  1.6137
 2444TIP3    H2 7297   1.827   5.920   1.651 -0.2336 -0.5696  1.0239
 2445TIP3   OH2 7298   3.417   1.142   1.423 -0.6877 -0.7326  0.2250
 2445TIP3    H1 7299   3.479   1.139   1.351 -1.1323 -0.0076 -0.2044
 2445TIP3    H2 7300   3.440   1.067   1.478  0.7975 -0.2915  0.2700
 2446TIP3   OH2 7301   3.238   4.667   1.132 -0.5060  0.0989 -0.6616
 2446TIP3    H1 7302   3.304   4.632   1.073 -0.1590 -1.9739  0.8495
 2446TIP3    H2 7303   3.255   4.762   1.134  0.7448 -0.0514 -2.2653
 2447TIP3   OH2 7304   4.828   5.650   2.013 -0.3386  0.3246  0.0662
 2447TIP3    H1 7305   4.805   5.589   1.942  1.0263  0.6689 -0.7092
 2447TIP3    H2 7306   4.749   5.701   2.027 -0.7428  0.0209 -0.9803
 2448TIP3   OH2 7307   0.655   2.419   3.079  0.1404 -0.0271  0.1982
 2448TIP3    H1 7308   0.569   2.459   3.091 -0.6812 -1.6016 -0.0994
 2448TIP3    H2 7309   0.717   2.489   3.098 -1.1857  0.8022  1.7812
 2449TIP3   OH2 7310   2.011   5.032   4.824  0.0425  0.5266  0.4570
 2449TIP3    H1 7311   2.087   4.977   4.841  0.0289  0.7336  1.2283
 2449TIP3    H2 7312   1.942   4.971   4.798 -0.3556 -0.0071  2.5701
 2450TIP3   OH2 7313   3.260   3.899   2.931  0.0373  0.0138  0.7048
 2450TIP3    H1 7314   3.303   3.848   2.999  1.0012  1.0721  0.9336
 2450TIP3    H2 7315   3.312   3.884   2.852  1.1533  1.5984  1.0698
 2451TIP3   OH2 7316   6.029   1.144   0.808 -0.2961  0.3165  0.0834
 2451TIP3    H1 7317   5.983   1.091   0.873 -1.3682  0.1756 -0.7591
 2451TIP3    H2 7318   5.961   1.172   0.747  0.5653  1.0607 -0.5735
 2452TIP3   OH2 7319   0.118   2.257   2.551 -0.5290 -0.4740 -0.4256
 2452TIP3    H1 7320   0.182   2.246   2.621  0.4958  2.0068 -0.8761
 2452TIP3    H2 7321   0.135   2.185   2.490  3.9183  1.5799 -2.0148
 2453TIP3   OH2 7322   6.590   5.372   1.125 -0.5781 -0.0555 -0.7741
 2453TIP3    H1 7323   6.547   5.457   1.113  0.8534  0.7506 -0.4445
 2453TIP3    H2 7324   6.581   5.354   1.218  4.3748  2.8547  0.6453
 2454TIP3   OH2 7325   1.165   5.007   0.832 -0.1178 -0.2084 -1.0795
 2454TIP3    H1 7326   1.079   4.966   0.823 -0.0119 -0.4918 -0.8133
 2454TIP3    H2 7327   1.169   5.070   0.759 -0.3949 -0.4687 -1.3233
 2455TIP3   OH2 7328   5.517   2.182   1.980  0.1202 -0.3091  0.4333
 2455TIP3    H1 7329   5.423   2.179   1.997  0.4604 -0.1167  2.7020
 2455TIP3    H2 7330   5.546   2.091   1.992 -0.0967 -0.9447 -2.9546
 2456TIP3   OH2 7331   6.738   2.806   3.658  0.3589  0.0663  0.4364
 2456TIP3    H1 7332   6.716   2.814   3.565  3.1438 -0.9055 -0.4125
 2456TIP3    H2 7333   6.724   2.714   3.678  0.3223  0.1528  0.8001
 2457TIP3   OH2 7334   2.417   0.999   5.244  0.4995  0.0503  0.1866
 2457TIP3    H1 7335   2.463   1.057   5.182  1.4857  0.5664  1.3524
 2457TIP3    H2 7336   2.325   1.005   5.218  0.8582  0.3980 -1.1017
 2458TIP3   OH2 7337   5.833   4.204   0.029  0.1923 -0.1943 -0.0448
 2458TIP3    H1 7338   5.753   4.256   0.023  0.1552 -0.3588 -1.3188
 2458TIP3    H2 7339   5.889   4.251   0.091 -1.4870 -0.9180  2.1304
 2459TIP3   OH2 7340   2.189   6.600   3.284  0.5022  0.0274 -0.1663
 2459TIP3    H1 7341   2.225   6.645   3.360  1.6551 -0.9291 -0.1123
 2459TIP3    H2 7342   2.169   6.670   3.222 -0.0987  0.7857  0.8516
 2460TIP3   OH2 7343   2.774   1.322   5.841  0.0719 -0.5081  0.4064
 2460TIP3    H1 7344   2.834   1.248   5.837  1.1556  0.2721  1.5457
 2460TIP3    H2 7345   2.822   1.395   5.803 -0.6787 -0.1774  0.0620
 2461TIP3   OH2 7346   0.970   5.374   3.539  0.1650 -0.2664  0.0016
 2461TIP3    H1 7347   1.062   5.354   3.558 -0.0685 -0.4560  0.9837
 2461TIP3    H2 7348   0.965   5.469   3.543  0.1212 -0.3008  0.9598
 2462TIP3   OH2 7349   3.563   0.053   3.107 -0.3442 -0.6141  0.1164
 2462TIP3    H1 7350   3.556   0.131   3.162  0.7668  0.1195 -0.7380
 2462TIP3    H2 7351   3.508   0.073   3.031 -0.5978 -0.9579  0.2066
 2463TIP3   OH2 7352   3.478   4.269   0.609  0.4981  0.2668 -0.2297
 2463TIP3    H1 7353   3.511   4.357   0.593  0.3544  0.1934 -0.9640
 2463TIP3    H2 7354   3.430   4.246   0.529 -1.1042  0.2697  0.6945
 2464TIP3   OH2 7355   0.131   2.086   4.880  0.1551 -0.4225  0.6653
 2464TIP3    H1 7356   0.085   2.149   4.825 -2.6931 -1.0359  2.1654
 2464TIP3    H2 7357   0.209   2.133   4.911  0.6969  0.6373 -2.0362
 2465TIP3   OH2 7358   6.072   3.867   5.063  0.0082 -0.1317 -0.1415
 2465TIP3    H1 7359   6.063   3.938   5.000  2.9246  0.4153 -0.1165
 2465TIP3    H2 7360   6.040   3.903   5.146  0.8725  0.9602 -0.2674
 2466TIP3   OH2 7361   5.519   2.235   0.837 -0.1976 -0.1480 -0.1050
 2466TIP3    H1 7362   5.522   2.140   0.832  0.2362 -0.2305  1.3105
 2466TIP3    H2 7363   5.598   2.264   0.790 -0.5713 -0.4477 -0.9397
 2467TIP3   OH2 7364   0.048   3.872   1.931  0.1047  0.4374  0.2167
 2467TIP3    H1 7365   0.030   3.851   1.840 -1.1988  0.7706  0.3797
 2467TIP3    H2 7366  -0.010   3.815   1.981  0.9403  0.1272  0.8473
 2468TIP3   OH2 7367   0.070   0.465   2.016 -0.0440  0.2702 -0.2832
 2468TIP3    H1 7368   0.139   0.443   2.078 -0.7019 -0.7032  0.1334
 2468TIP3    H2 7369   0.007   0.516   2.066 -0.5877 -0.5353 -0.1262
 2469TIP3   OH2 7370   2.133   3.690   3.379  0.0547  0.5590  0.6562
 2469TIP3    H1 7371   2.123   3.596   3.387 -0.7083  0.6055  0.2935
 2469TIP3    H2 7372   2.145   3.705   3.285  3.6383  0.5176  0.9616
 2470TIP3   OH2 7373   7.049   6.450   5.640 -0.4363 -0.1775  0.2472
 2470TIP3    H1 7374   6.999   6.531   5.634 -0.5153 -0.2835 -0.6521
 2470TIP3    H2 7375   7.136   6.473   5.608  0.5540  0.3417  3.0514
 2471TIP3   OH2 7376   0.887   3.711   4.315  0.1105 -0.0512 -0.4495
 2471TIP3    H1 7377   0.825   3.726   4.387  0.4681  0.2563 -0.2003
 2471TIP3    H2 7378   0.903   3.617   4.315 -0.6551 -0.1871 -0.7642
 2472TIP3   OH2 7379   1.394   3.710   3.679  0.0062  0.8623 -0.7528
 2472TIP3    H1 7380   1.353   3.765   3.746 -2.2292  0.6705 -1.8690
 2472TIP3    H2 7381   1.389   3.621   3.715  0.7027  0.9879 -0.3212
 2473TIP3   OH2 7382   1.652   0.355   4.450  0.0879  0.0514 -0.4188
 2473TIP3    H1 7383   1.720   0.287   4.447 -0.7689 -0.8130 -0.7025
 2473TIP3    H2 7384   1.647   0.379   4.542  0.3565 -0.3180 -0.3025
 2474TIP3   OH2 7385   3.918   1.545   0.842 -0.3085 -0.1197 -0.2127
 2474TIP3    H1 7386   3.956   1.484   0.905 -0.9828 -0.8780 -0.5191
 2474TIP3    H2 7387   3.824   1.527   0.845 -0.4323  0.3728 -0.8667
 2475TIP3   OH2 7388   1.243   2.391   4.290 -0.2854  0.0185 -0.2697
 2475TIP3    H1 7389   1.203   2.477   4.282  1.4079  0.9173  0.4320
 2475TIP3    H2 7390   1.228   2.366   4.381  2.6869  1.4709  0.7531
 2476TIP3   OH2 7391   4.604   6.292   0.023 -0.3524 -0.2770 -0.4232
 2476TIP3    H1 7392   4.514   6.278   0.052 -0.5099 -0.4882 -0.9839
 2476TIP3    H2 7393   4.615   6.229  -0.049  0.3832 -0.5542 -0.0732
 2477TIP3   OH2 7394   5.942   2.080   0.008  0.6962 -0.2959 -0.3131
 2477TIP3    H1 7395   5.984   2.049   0.088  0.1098  0.0676  0.1497
 2477TIP3    H2 7396   5.965   2.173   0.004 -2.4613  0.7644  1.6348
 2478TIP3   OH2 7397   6.778   4.698   5.232 -0.1398 -0.3773 -0.0374
 2478TIP3    H1 7398   6.819   4.625   5.277  0.4385  0.5924  1.0710
 2478TIP3    H2 7399   6.685   4.677   5.231  0.0565 -1.2918 -0.0808
 2479TIP3   OH2 7400   6.117   4.562   4.078 -0.4237  0.3188  0.0845
 2479TIP3    H1 7401   6.125   4.657   4.073 -0.6013  0.2729 -3.3623
 2479TIP3    H2 7402   6.024   4.546   4.096 -1.1125  0.9032 -2.5342
 2480TIP3   OH2 7403   6.397   3.077   1.905  0.5273  0.0494 -0.0379
 2480TIP3    H1 7404   6.396   2.982   1.892 -2.8372  0.0191 -0.2648
 2480TIP3    H2 7405   6.387   3.089   1.999 -0.5165  0.1480 -0.1532
 2481TIP3   OH2 7406   5.014   0.636   2.034 -0.1391 -0.3396  0.0293
 2481TIP3    H1 7407   5.029   0.565   1.972 -0.4810  1.7486 -2.6125
 2481TIP3    H2 7408   4.967   0.702   1.984  0.8289  2.0899  2.1103
 2482TIP3   OH2 7409   6.941   3.589   2.778  0.5028 -0.3306 -0.3237
 2482TIP3    H1 7410   6.855   3.580   2.737 -0.8264  0.4742  2.0784
 2482TIP3    H2 7411   6.994   3.520   2.738 -1.5349 -1.4781 -1.2140
 2483TIP3   OH2 7412   2.697   0.270   2.060  0.3619 -0.4047 -0.7495
 2483TIP3    H1 7413   2.625   0.260   1.997  0.3397 -2.5704 -0.4529
 2483TIP3    H2 7414   2.776   0.274   2.005  0.1006  1.1626 -1.0395
 2484TIP3   OH2 7415   6.101   5.392   4.067  0.2127 -0.4621 -0.4506
 2484TIP3    H1 7416   6.183   5.344   4.051  0.3915 -0.6202  0.8418
 2484TIP3    H2 7417   6.118   5.480   4.035  1.5980  0.0564  1.5331
 2485TIP3   OH2 7418   6.253   4.725   1.958 -0.0504  0.0542 -0.2537
 2485TIP3    H1 7419   6.218   4.695   1.874  0.6713  0.6095 -0.7653
 2485TIP3    H2 7420   6.318   4.659   1.983  1.4555  1.0697 -1.3224
 2486TIP3   OH2 7421   0.862   0.527   2.400 -0.1615  0.1353  0.0588
 2486TIP3    H1 7422   0.821   0.590   2.458  0.0598  1.5349 -1.2234
 2486TIP3    H2 7423   0.892   0.456   2.457 -0.5371  1.1302  1.5328
 2487TIP3   OH2 7424   1.994   2.321   0.397  0.0065 -0.1661 -0.1659
 2487TIP3    H1 7425   1.965   2.320   0.488  0.7152  0.0544  0.0726
 2487TIP3    H2 7426   1.944   2.391   0.356  0.4972  0.4976  0.3425
 2488TIP3   OH2 7427   5.559   4.487   2.457  0.3473  0.5888  0.1072
 2488TIP3    H1 7428   5.471   4.506   2.489  0.9010  1.2884  1.2932
 2488TIP3    H2 7429   5.546   4.418   2.392 -1.2029  1.5953 -0.7175
 2489TIP3   OH2 7430   3.198   2.054   1.070  0.4377  0.5739 -0.1685
 2489TIP3    H1 7431   3.116   2.014   1.096  0.9072 -0.7877 -0.6987
 2489TIP3    H2 7432   3.257   2.041   1.145  0.1034  1.8350  0.3411
 2490TIP3   OH2 7433   0.420   5.394   3.573  0.1100  0.0476 -0.4066
 2490TIP3    H1 7434   0.479   5.464   3.544 -1.0802  1.4631  0.4106
 2490TIP3    H2 7435   0.366   5.374   3.496 -0.2450  0.8060 -0.3668
 2491TIP3   OH2 7436   5.784   1.417   3.058 -0.0790  0.3357  0.0139
 2491TIP3    H1 7437   5.805   1.395   2.968  0.9026  0.2044  0.2659
 2491TIP3    H2 7438   5.705   1.366   3.078  0.0637 -0.1172 -0.5681
 2492TIP3   OH2 7439   1.062   3.400   1.934 -0.3712  0.4440  0.0032
 2492TIP3    H1 7440   1.007   3.410   2.012 -1.8474  0.1610 -0.9711
 2492TIP3    H2 7441   1.065   3.487   1.895  0.1155  0.5181  0.1961
 2493TIP3   OH2 7442   3.190   2.616   2.954 -0.4052 -1.2206  0.1378
 2493TIP3    H1 7443   3.266   2.573   2.914 -0.4419 -0.7549 -0.4524
 2493TIP3    H2 7444   3.163   2.557   3.024  0.5733 -1.3357  0.4343
 2494TIP3   OH2 7445   1.549   1.193   3.394  0.2823 -0.6282 -0.0881
 2494TIP3    H1 7446   1.618   1.135   3.428 -1.0675 -1.8411  0.6929
 2494TIP3    H2 7447   1.595   1.254   3.336  2.3746  0.1860  2.2729
 2495TIP3   OH2 7448   0.578   2.027   4.275  0.4964  0.0022 -0.6522
 2495TIP3    H1 7449   0.556   2.074   4.195 -0.2062  0.1525 -0.3802
 2495TIP3    H2 7450   0.533   1.943   4.267  0.7861 -0.1590 -0.6110
 2496TIP3   OH2 7451   0.632   4.461   0.959  0.6022 -0.2702 -0.1720
 2496TIP3    H1 7452   0.618   4.441   1.051  2.6073 -0.2960  0.1703
 2496TIP3    H2 7453   0.660   4.378   0.920  1.1036  0.0336 -0.4810
 2497TIP3   OH2 7454   3.210   1.378   3.466 -0.7379  0.5184 -0.5220
 2497TIP3    H1 7455   3.234   1.466   3.435 -1.2172  1.3871  1.4271
 2497TIP3    H2 7456   3.115   1.381   3.472 -0.8023 -0.3593 -0.9918
 2498TIP3   OH2 7457   2.549   1.585   0.726  0.2483 -0.0638  0.6151
 2498TIP3    H1 7458   2.595   1.630   0.655  1.2415 -0.1133  1.2018
 2498TIP3    H2 7459   2.542   1.494   0.696  1.2973 -0.2371  0.8692
 2499TIP3   OH2 7460   0.548   1.095   3.378 -0.1301 -0.2120  0.4671
 2499TIP3    H1 7461   0.606   1.083   3.453  0.8324 -1.3392 -0.4296
 2499TIP3    H2 7462   0.605   1.129   3.309 -0.6527 -0.7745 -0.2556
 2500TIP3   OH2 7463   7.080   3.717   3.305 -0.1327  0.2711  0.2411
 2500TIP3    H1 7464   7.084   3.635   3.255 -0.2645 -0.4412  1.3727
 2500TIP3    H2 7465   6.989   3.724   3.333 -0.1416  0.8548  0.0845
 2501TIP3   OH2 7466   7.126   1.188   3.276  0.2349 -0.5162  0.2747
 2501TIP3    H1 7467   7.159   1.138   3.201  0.9377  0.9662 -0.4628
 2501TIP3    H2 7468   7.084   1.123   3.332 -0.9500 -1.5894 -1.7313
 2502TIP3   OH2 7469   1.840   3.511   3.649 -0.2049 -0.3652  0.2699
 2502TIP3    H1 7470   1.868   3.423   3.673 -0.1592 -0.7514 -1.1392
 2502TIP3    H2 7471   1.746   3.512   3.667 -0.2793 -0.8318 -0.1014
 2503TIP3   OH2 7472   0.023   0.684   0.656 -0.8022 -0.0641  0.7871
 2503TIP3    H1 7473   0.060   0.616   0.712 -0.7017 -1.6374 -1.0820
 2503TIP3    H2 7474  -0.067   0.656   0.641 -1.5784  1.6070  2.0323
 2504TIP3   OH2 7475   7.007   2.984   2.677  0.8315  0.0599 -0.4033
 2504TIP3    H1 7476   7.016   2.889   2.669 -0.8209 -0.2110  0.4673
 2504TIP3    H2 7477   6.991   3.013   2.587 -0.2446 -0.7200 -0.4911
 2505TIP3   OH2 7478   5.279   2.772   2.564  0.1066  0.3786 -0.3679
 2505TIP3    H1 7479   5.353   2.817   2.525  0.3209  0.7594  0.4431
 2505TIP3    H2 7480   5.316   2.693   2.603  0.0439  0.4325 -0.1962
 2506TIP3   OH2 7481   1.895   6.753   1.294 -0.1362 -0.6006 -0.7733
 2506TIP3    H1 7482   1.957   6.818   1.262 -0.4687  0.7778  1.2169
 2506TIP3    H2 7483   1.825   6.804   1.334 -0.4983 -2.1729  0.7228
 2507TIP3   OH2 7484   2.068   6.406   0.267 -0.0166  0.2556  0.3252
 2507TIP3    H1 7485   2.039   6.459   0.340 -0.2415  0.5533  0.0216
 2507TIP3    H2 7486   2.126   6.463   0.217 -0.3726  0.2661 -0.0800
 2508TIP3   OH2 7487   5.514   6.591   1.904  0.4346 -0.0126 -0.1135
 2508TIP3    H1 7488   5.481   6.650   1.837  1.0646  0.4634 -0.0147
 2508TIP3    H2 7489   5.607   6.579   1.882  0.7600  0.4928  0.8970
 2509TIP3   OH2 7490   6.780   5.864   5.889  0.3243 -0.0051 -0.1344
 2509TIP3    H1 7491   6.731   5.873   5.807  1.5275 -1.5846 -1.0762
 2509TIP3    H2 7492   6.847   5.931   5.885  1.1835 -0.8844 -1.0834
 2510TIP3   OH2 7493   6.358   6.265   2.185 -0.3734  0.1110  0.2919
 2510TIP3    H1 7494   6.347   6.230   2.097 -2.1970  1.5570 -0.1064
 2510TIP3    H2 7495   6.318   6.199   2.242  0.0286 -0.4179 -0.0285
 2511TIP3   OH2 7496   3.505   1.577   0.419 -0.0896  0.1928  0.0369
 2511TIP3    H1 7497   3.487   1.669   0.399  2.2314  0.4711 -1.0812
 2511TIP3    H2 7498   3.522   1.537   0.334  3.6768 -0.1000  0.7550
 2512TIP3   OH2 7499   6.342   1.018   3.015  0.3228  0.2350 -0.4866
 2512TIP3    H1 7500   6.328   1.112   3.025 -0.5870 -0.0565  1.5699
 2512TIP3    H2 7501   6.322   0.982   3.101 -0.3838 -1.9717 -1.5017
 2513TIP3   OH2 7502   5.469   6.224   0.015 -0.2350  0.4723 -0.2850
 2513TIP3    H1 7503   5.473   6.131   0.040  0.5994  0.4685 -0.3882
 2513TIP3    H2 7504   5.376   6.243   0.006 -0.4502 -0.1513  0.5099
 2514TIP3   OH2 7505   0.027   0.942   5.181  0.0112 -0.1562 -0.5922
 2514TIP3    H1 7506   0.103   0.995   5.203 -1.7482  1.4431  2.0309
 2514TIP3    H2 7507  -0.022   0.994   5.118 -0.3760  0.1572 -0.0381
 2515TIP3   OH2 7508   1.169   0.866   4.997 -0.2966  0.2712  0.7757
 2515TIP3    H1 7509   1.079   0.838   5.014 -0.1665 -1.3597 -0.9123
 2515TIP3    H2 7510   1.204   0.801   4.935  1.6345  1.5684  0.3935
 2516TIP3   OH2 7511   3.426   5.861   3.801 -0.0385  0.1893 -0.1826
 2516TIP3    H1 7512   3.520   5.876   3.809  0.1576 -0.7196 -0.6141
 2516TIP3    H2 7513   3.410   5.862   3.707 -0.5307  0.7401 -0.0915
 2517TIP3   OH2 7514   3.829   6.253   1.122 -0.2312 -0.3879 -0.4279
 2517TIP3    H1 7515   3.916   6.289   1.139 -1.0164  0.8042  1.3605
 2517TIP3    H2 7516   3.789   6.314   1.060 -0.7153  0.5783  0.7988
 2518TIP3   OH2 7517   1.653   2.287   3.227  0.2284 -0.3277  0.4467
 2518TIP3    H1 7518   1.663   2.380   3.209  1.2716 -0.2195  1.4851
 2518TIP3    H2 7519   1.595   2.283   3.303  0.6283 -0.4885  0.7492
 2519TIP3   OH2 7520   6.191   0.716   0.495 -0.0626 -1.0267 -0.2237
 2519TIP3    H1 7521   6.197   0.702   0.589 -0.9999 -1.0696 -0.1656
 2519TIP3    H2 7522   6.160   0.633   0.459 -0.6583 -0.7104 -0.4548
 2520TIP3   OH2 7523   4.043   0.716   3.783 -0.4669  0.4261  0.3193
 2520TIP3    H1 7524   4.042   0.624   3.810  0.1343  0.1641 -0.4778
 2520TIP3    H2 7525   3.991   0.762   3.849  0.5693 -0.2361  1.6446
 2521TIP3   OH2 7526   3.202   6.657   2.138 -0.1863 -0.0393  0.5346
 2521TIP3    H1 7527   3.172   6.653   2.229 -0.1073  1.6531  0.6720
 2521TIP3    H2 7528   3.229   6.748   2.126 -1.2695  0.0717 -1.5134
 2522TIP3   OH2 7529   6.192   3.282   5.032 -0.3302  0.6283 -0.5309
 2522TIP3    H1 7530   6.129   3.354   5.032 -0.5855  0.4144  0.2481
 2522TIP3    H2 7531   6.275   3.323   5.052 -0.6867  0.5593  1.2599
 2523TIP3   OH2 7532   4.725   6.647   1.079  0.1955  0.1309 -0.2579
 2523TIP3    H1 7533   4.766   6.690   1.004 -1.5302  1.9182 -0.2684
 2523TIP3    H2 7534   4.727   6.713   1.148 -2.4330  0.2808 -0.2309
 2524TIP3   OH2 7535   5.884   3.617   1.570  0.1856 -0.2330  0.6719
 2524TIP3    H1 7536   5.914   3.553   1.634 -0.0836 -0.1365  0.8954
 2524TIP3    H2 7537   5.849   3.564   1.498  0.4306 -0.3404  0.6312
 2525TIP3   OH2 7538   6.894   3.986   1.147 -0.4856  0.5053 -0.3148
 2525TIP3    H1 7539   6.925   3.918   1.207  0.6250  1.8800  0.7375
 2525TIP3    H2 7540   6.810   3.953   1.115 -0.4946 -0.8622  0.9922
 2526TIP3   OH2 7541   6.325   5.128   5.283  0.0749  0.0390 -0.1930
 2526TIP3    H1 7542   6.280   5.066   5.225  1.6361 -0.4823 -0.9127
 2526TIP3    H2 7543   6.259   5.194   5.303 -1.7364 -1.9603  0.8074
 2527TIP3   OH2 7544   5.312   0.649   0.465 -0.5650 -0.3383  0.5391
 2527TIP3    H1 7545   5.322   0.593   0.542  0.2943 -0.5941  0.2460
 2527TIP3    H2 7546   5.322   0.590   0.391 -1.1470 -0.0489  0.2244
 2528TIP3   OH2 7547   5.269   3.579   0.614 -0.1375  0.1753 -0.7312
 2528TIP3    H1 7548   5.290   3.490   0.585  1.0819  0.0186  0.5073
 2528TIP3    H2 7549   5.234   3.568   0.702 -2.1629  0.7769 -1.4064
 2529TIP3   OH2 7550   5.299   4.765   0.743 -0.2280 -0.1008  0.7947
 2529TIP3    H1 7551   5.370   4.749   0.804 -1.0830 -0.0098  1.8516
 2529TIP3    H2 7552   5.340   4.805   0.667  0.8445 -0.0842  1.3705
 2530TIP3   OH2 7553   1.247   0.831   1.792  0.1781 -0.4695 -0.2228
 2530TIP3    H1 7554   1.172   0.864   1.742  0.6721 -0.0559 -0.7021
 2530TIP3    H2 7555   1.208   0.773   1.857 -0.6903  0.7605  0.4013
 2531TIP3   OH2 7556   3.873   2.184   2.221 -0.4565 -0.3709 -0.4179
 2531TIP3    H1 7557   3.855   2.145   2.307  2.0612  1.8621  1.2968
 2531TIP3    H2 7558   3.937   2.125   2.181  0.3241 -0.1289  0.4249
 2532TIP3   OH2 7559   6.921   4.633   0.890 -0.2706  0.7951  0.0225
 2532TIP3    H1 7560   6.947   4.582   0.967  0.9906 -0.3419 -1.1046
 2532TIP3    H2 7561   6.930   4.572   0.817  1.1130  2.5640 -1.3671
 2533TIP3   OH2 7562   0.326   5.026   5.394 -0.0261  0.3442  0.3654
 2533TIP3    H1 7563   0.265   4.953   5.388  0.9084 -0.4345 -0.0996
 2533TIP3    H2 7564   0.273   5.104   5.381 -0.8408 -0.3341 -0.4964
 2534TIP3   OH2 7565   6.802   0.053   5.253  1.0657 -0.2791 -0.1427
 2534TIP3    H1 7566   6.712   0.029   5.277  1.1383 -0.9810 -0.5684
 2534TIP3    H2 7567   6.856   0.018   5.324  0.8403  2.0742  1.3158
 2535TIP3   OH2 7568   1.562   0.105   3.317  0.4977  0.4457  0.3729
 2535TIP3    H1 7569   1.541   0.133   3.228  0.6957  1.7341  0.7018
 2535TIP3    H2 7570   1.658   0.098   3.318  0.4498 -0.2279  0.3033
 2536TIP3   OH2 7571   3.980   2.431   5.594 -0.0186  0.0913  0.2271
 2536TIP3    H1 7572   4.015   2.449   5.506  2.3694 -2.8444  0.3955
 2536TIP3    H2 7573   4.006   2.507   5.646  1.0662  0.6253 -1.0313
 2537TIP3   OH2 7574   6.542   2.384   5.285 -0.2590  0.2854 -0.5714
 2537TIP3    H1 7575   6.539   2.293   5.256 -0.9768  0.3726 -0.8013
 2537TIP3    H2 7576   6.600   2.383   5.361 -0.2746 -0.3626 -0.5581
 2538TIP3   OH2 7577   2.367   2.204   5.070  0.0387  0.0689  0.0796
 2538TIP3    H1 7578   2.430   2.255   5.121 -0.0208  1.1107 -0.8704
 2538TIP3    H2 7579   2.300   2.267   5.045  0.0300 -0.4370 -1.2269
 2539TIP3   OH2 7580   2.497   2.854   0.940 -0.4833 -0.0987 -0.1857
 2539TIP3    H1 7581   2.518   2.901   1.021 -0.7164 -0.9659  0.3854
 2539TIP3    H2 7582   2.475   2.765   0.969 -1.6641 -0.1182 -1.0888
 2540TIP3   OH2 7583   2.321   1.468   5.419  0.1396 -0.2366 -0.3614
 2540TIP3    H1 7584   2.289   1.436   5.335 -1.8435 -0.7927  0.5421
 2540TIP3    H2 7585   2.398   1.521   5.397 -0.5433 -0.0453 -2.5435
 2541TIP3   OH2 7586   7.195   4.258   4.047 -0.3717 -0.1134  0.5815
 2541TIP3    H1 7587   7.210   4.180   4.100  1.1665 -0.7252 -0.7017
 2541TIP3    H2 7588   7.193   4.227   3.957 -1.0313  1.1709  0.1272
 2542TIP3   OH2 7589   5.332   0.257   5.228  0.6273  0.5306 -0.0801
 2542TIP3    H1 7590   5.263   0.191   5.220 -0.2089  1.2717  0.7388
 2542TIP3    H2 7591   5.404   0.222   5.177 -0.1883 -0.4934 -0.5825
 2543TIP3   OH2 7592   3.483   1.749   3.027 -0.4816 -0.2317  0.5297
 2543TIP3    H1 7593   3.540   1.691   3.077 -1.2285 -0.1806  1.4645
 2543TIP3    H2 7594   3.461   1.819   3.089 -1.8264 -0.4364  0.2924
 2544TIP3   OH2 7595   4.336   1.349   1.879 -0.8465 -0.3798  0.9631
 2544TIP3    H1 7596   4.374   1.270   1.919  0.3457 -0.7944 -0.8805
 2544TIP3    H2 7597   4.412   1.403   1.856 -1.5779  0.5637  0.6994
 2545TIP3   OH2 7598   7.180   1.235   3.611 -0.0400  0.0691 -0.0758
 2545TIP3    H1 7599   7.264   1.209   3.573 -0.0910 -0.9043  0.4443
 2545TIP3    H2 7600   7.143   1.153   3.645 -0.5764  0.7074  0.9142
 2546TIP3   OH2 7601   2.947   2.038   2.277  1.0502  0.9385 -0.3274
 2546TIP3    H1 7602   2.880   2.104   2.298  0.4337  0.5665 -1.0971
 2546TIP3    H2 7603   2.959   2.046   2.182 -0.4607 -1.3482 -0.8080
 2547TIP3   OH2 7604   4.077   4.603   2.380  0.2978  0.1234  0.0103
 2547TIP3    H1 7605   4.168   4.595   2.351 -0.1791 -1.4238 -1.2108
 2547TIP3    H2 7606   4.027   4.614   2.299 -0.9755 -3.2801  0.1709
 2548TIP3   OH2 7607   2.627   4.643   4.647  0.0954 -0.7694  0.1844
 2548TIP3    H1 7608   2.708   4.633   4.697  1.9815 -2.4305 -2.9013
 2548TIP3    H2 7609   2.605   4.554   4.619 -0.9107  0.0437 -1.8023
 2549TIP3   OH2 7610   2.314   4.138   1.408 -0.1469  0.0229  0.1715
 2549TIP3    H1 7611   2.394   4.110   1.364  0.8599  1.9041  0.7083
 2549TIP3    H2 7612   2.287   4.063   1.460 -1.3975 -2.3600 -3.4938
 2550TIP3   OH2 7613   0.929   2.969   5.010 -0.3986  0.1595 -0.2619
 2550TIP3    H1 7614   0.846   2.947   5.053  0.0277  0.0839  0.5373
 2550TIP3    H2 7615   0.974   3.026   5.072  1.1004 -1.5538  0.3364
 2551TIP3   OH2 7616   0.687   1.439   3.450 -0.9365 -0.4034 -0.1538
 2551TIP3    H1 7617   0.632   1.445   3.528 -1.0267  1.8473 -0.3115
 2551TIP3    H2 7618   0.643   1.376   3.394 -0.9074 -2.0254  1.5578
 2552TIP3   OH2 7619   5.951   3.675   5.536 -0.5282 -0.2441 -0.3593
 2552TIP3    H1 7620   5.959   3.762   5.498 -2.7638 -0.2895 -1.0912
 2552TIP3    H2 7621   5.857   3.663   5.548 -0.1597 -1.8686  1.3998
 2553TIP3   OH2 7622   1.546   1.698   0.225 -0.3294  0.3469 -0.0563
 2553TIP3    H1 7623   1.556   1.677   0.317  0.0400 -1.8287 -0.5338
 2553TIP3    H2 7624   1.635   1.710   0.193 -0.2221 -1.7599 -0.6834
 2554TIP3   OH2 7625   2.064   0.905   2.006 -0.6198 -0.0671  0.1602
 2554TIP3    H1 7626   2.003   0.976   2.028 -0.4437  0.1893 -0.1595
 2554TIP3    H2 7627   2.042   0.882   1.916  1.3558  1.7324 -0.8730
 2555TIP3   OH2 7628   4.458   1.254   0.723 -0.7314 -0.4733  0.1580
 2555TIP3    H1 7629   4.511   1.312   0.668 -2.0024  1.1084  0.5184
 2555TIP3    H2 7630   4.379   1.237   0.672 -1.3272 -0.0892  0.9223
 2556TIP3   OH2 7631   2.638   3.611   5.535 -0.0475 -0.1829  0.2052
 2556TIP3    H1 7632   2.571   3.553   5.571 -0.4513 -1.6621 -2.6628
 2556TIP3    H2 7633   2.590   3.689   5.507 -0.0167  0.1386  0.9981
 2557TIP3   OH2 7634   1.601   5.286   2.720  0.4324  0.2678 -0.1927
 2557TIP3    H1 7635   1.606   5.200   2.763 -0.0546  0.9956  1.3991
 2557TIP3    H2 7636   1.508   5.296   2.698  0.4098  0.5718  0.0356
 2558TIP3   OH2 7637   6.995   5.643   3.540 -0.4037 -0.0459  0.6504
 2558TIP3    H1 7638   6.900   5.650   3.542 -0.5264 -0.1053 -1.8955
 2558TIP3    H2 7639   7.023   5.707   3.475  1.2434 -0.5149  0.8489
 2559TIP3   OH2 7640   4.789   1.775   1.603 -0.1587  0.2062 -0.7954
 2559TIP3    H1 7641   4.861   1.760   1.543  0.2444  0.4815 -0.3828
 2559TIP3    H2 7642   4.829   1.817   1.679 -0.1224 -2.8113  0.9838
 2560TIP3   OH2 7643   4.170   5.180   1.314 -0.1560 -0.4214  0.5608
 2560TIP3    H1 7644   4.139   5.094   1.342 -1.2629 -0.3643 -0.4139
 2560TIP3    H2 7645   4.257   5.188   1.352 -0.1987 -1.8065  0.9904
 2561TIP3   OH2 7646   3.680   0.589   1.170 -0.2909  0.2519 -0.2780
 2561TIP3    H1 7647   3.701   0.619   1.259  1.5943 -0.2517 -0.5052
 2561TIP3    H2 7648   3.680   0.494   1.177 -1.5326  0.2149 -0.5564
 2562TIP3   OH2 7649   2.926   4.084   1.974  0.2850  0.0475 -0.2614
 2562TIP3    H1 7650   2.899   4.168   2.011 -1.7221 -0.2950 -0.8116
 2562TIP3    H2 7651   2.972   4.106   1.894  1.5995  0.6647  0.6313
 2563TIP3   OH2 7652   5.634   0.180   1.113  0.3385 -0.0123  0.5975
 2563TIP3    H1 7653   5.676   0.123   1.178  0.4575  0.3271  0.8169
 2563TIP3    H2 7654   5.696   0.183   1.041 -0.3357 -1.4179 -0.0913
 2564TIP3   OH2 7655   1.662   5.276   3.630 -0.4651 -0.5035  0.2009
 2564TIP3    H1 7656   1.584   5.232   3.596 -0.9221  0.2698  0.2283
 2564TIP3    H2 7657   1.732   5.252   3.569 -1.1133  0.2594 -0.8633
 2565TIP3   OH2 7658   3.455   0.200   1.151  0.2561  0.0347  0.5230
 2565TIP3    H1 7659   3.547   0.226   1.144 -0.1930  1.8786  0.9211
 2565TIP3    H2 7660   3.408   0.282   1.165 -1.5971 -0.7213 -0.8276
 2566TIP3   OH2 7661   7.072   0.901   4.443  0.1472 -0.2883  0.2469
 2566TIP3    H1 7662   7.047   0.845   4.516 -1.8726  0.3719  0.1141
 2566TIP3    H2 7663   7.040   0.988   4.467  2.5696  0.7154  0.1174
 2567TIP3   OH2 7664   1.748   4.582   4.309 -0.1109  0.3799  0.3218
 2567TIP3    H1 7665   1.677   4.601   4.248  0.3995 -0.2024 -0.4831
 2567TIP3    H2 7666   1.807   4.657   4.302 -0.2907  0.5305  0.4456
 2568TIP3   OH2 7667   5.490   1.860   1.983 -0.6347  0.4760  0.3403
 2568TIP3    H1 7668   5.517   1.837   2.072  0.2814  0.5202  0.0758
 2568TIP3    H2 7669   5.394   1.868   1.989 -0.6323 -0.0217  1.2009
 2569TIP3   OH2 7670   0.148   4.508   5.144 -0.1954 -0.2326  0.3293
 2569TIP3    H1 7671   0.228   4.559   5.132 -0.4632  0.2734  0.6858
 2569TIP3    H2 7672   0.164   4.458   5.225 -0.4302  0.2369  0.6688
 2570TIP3   OH2 7673   2.314   5.158   0.471  0.1540 -0.1994  0.3336
 2570TIP3    H1 7674   2.349   5.243   0.447 -0.2416 -0.3464 -0.8255
 2570TIP3    H2 7675   2.304   5.111   0.388 -0.5733 -1.0069  0.8491
 2571TIP3   OH2 7676   1.485   5.000   1.686  0.3595  0.1234  0.3086
 2571TIP3    H1 7677   1.429   5.070   1.651  0.0410 -0.2706  0.0203
 2571TIP3    H2 7678   1.468   4.925   1.629 -0.1587 -0.5287  1.2929
 2572TIP3   OH2 7679   3.398   1.501   0.876  0.3211 -0.1343  0.2283
 2572TIP3    H1 7680   3.424   1.498   0.968  1.5750  1.2810 -0.0478
 2572TIP3    H2 7681   3.395   1.594   0.855 -0.1515 -0.4350 -1.1189
 2573TIP3   OH2 7682   0.928   0.917   0.939  0.2182 -0.0383  0.1577
 2573TIP3    H1 7683   0.969   0.842   0.982 -2.9756 -1.9410  0.2168
 2573TIP3    H2 7684   0.930   0.896   0.846 -1.2793 -0.5894  0.2262
 2574TIP3   OH2 7685   3.504   1.525   2.781 -0.2829  0.3655 -0.0061
 2574TIP3    H1 7686   3.572   1.591   2.771  2.0043 -1.5635  1.6950
 2574TIP3    H2 7687   3.462   1.546   2.865  0.8605 -0.5801  0.8468
 2575TIP3   OH2 7688   5.697   6.050   5.771 -0.4660 -0.2182 -0.0011
 2575TIP3    H1 7689   5.709   5.977   5.711 -0.2755  0.2584 -0.5443
 2575TIP3    H2 7690   5.748   6.122   5.733 -1.0958  0.3642  0.2340
 2576TIP3   OH2 7691   4.229   0.019   0.302 -0.3971  0.3580 -0.1529
 2576TIP3    H1 7692   4.309   0.070   0.313 -1.5672  2.3134 -0.1900
 2576TIP3    H2 7693   4.199   0.040   0.214 -0.8454 -0.5521 -0.2326
 2577TIP3   OH2 7694   2.938   1.748   1.968 -0.5209  0.5883 -0.1037
 2577TIP3    H1 7695   3.017   1.773   2.015 -0.8119  0.2386  0.5912
 2577TIP3    H2 7696   2.959   1.663   1.930 -0.8132  0.1147  0.7509
 2578TIP3   OH2 7697   3.334   4.583   4.558 -0.5357  0.0147  0.4442
 2578TIP3    H1 7698   3.318   4.677   4.554 -0.8649  0.0058  1.3690
 2578TIP3    H2 7699   3.361   4.567   4.648  0.7943 -0.5912 -0.0434
 2579TIP3   OH2 7700   0.922   4.677   1.147  0.0844 -0.5007 -0.3196
 2579TIP3    H1 7701   0.897   4.585   1.155 -0.5989 -0.3353 -0.4578
 2579TIP3    H2 7702   1.008   4.675   1.105  0.6782 -1.1171  0.8825
 2580TIP3   OH2 7703   6.655   0.834   5.828 -0.0726 -0.3127  0.2230
 2580TIP3    H1 7704   6.692   0.872   5.907 -2.8197  4.6380 -0.4499
 2580TIP3    H2 7705   6.700   0.878   5.756 -2.0409  0.2828 -0.7271
 2581TIP3   OH2 7706   3.721   5.500   1.417 -0.1981 -0.4505  0.6054
 2581TIP3    H1 7707   3.637   5.456   1.402 -0.3563 -0.0575  0.3262
 2581TIP3    H2 7708   3.743   5.478   1.508 -0.2870 -1.0791  0.4778
 2582TIP3   OH2 7709   6.904   4.207   2.849 -0.4071 -0.0415 -0.2975
 2582TIP3    H1 7710   6.919   4.175   2.760  0.2065  0.5640 -0.4236
 2582TIP3    H2 7711   6.900   4.302   2.839  1.5022  0.1665  0.5607
 2583TIP3   OH2 7712   0.819   5.031   1.441  0.0331  0.8860 -0.5013
 2583TIP3    H1 7713   0.840   5.012   1.350 -0.4818 -0.1762 -0.4131
 2583TIP3    H2 7714   0.900   5.013   1.488 -0.4547 -1.3737 -0.4056
 2584TIP3   OH2 7715   1.731   4.140   3.044  0.3406 -0.4720 -0.3533
 2584TIP3    H1 7716   1.664   4.083   3.081  0.9337 -0.2127  1.1746
 2584TIP3    H2 7717   1.803   4.136   3.107 -0.0153  2.8180  0.4092
 2585TIP3   OH2 7718   6.319   3.719   3.491 -0.1680 -0.1063  0.2716
 2585TIP3    H1 7719   6.271   3.738   3.410 -0.3654 -1.6247  0.0145
 2585TIP3    H2 7720   6.256   3.675   3.547  0.6247 -1.1923  0.3356
 2586TIP3   OH2 7721   0.940   1.087   5.393  0.1806  0.5521 -0.2673
 2586TIP3    H1 7722   0.925   1.176   5.360 -1.5613  0.6364  0.6363
 2586TIP3    H2 7723   0.899   1.030   5.329  1.3869  0.3651 -0.8985
 2587TIP3   OH2 7724   4.964   6.773   2.547 -0.0986 -0.0448 -0.1802
 2587TIP3    H1 7725   5.030   6.740   2.487  0.6776  0.4648  0.3768
 2587TIP3    H2 7726   4.897   6.704   2.549  0.0384 -0.2306 -1.3212
 2588TIP3   OH2 7727   6.320   5.756   2.561  0.4474 -0.5373 -0.2013
 2588TIP3    H1 7728   6.369   5.686   2.604 -1.1093 -2.7564 -1.7960
 2588TIP3    H2 7729   6.229   5.739   2.584  0.0743  1.4876 -0.0075
 2589TIP3   OH2 7730   1.673   1.960   3.278 -0.0473  0.0460 -1.3865
 2589TIP3    H1 7731   1.739   1.949   3.210  0.1680 -2.5367 -0.8416
 2589TIP3    H2 7732   1.590   1.964   3.230  0.3266  1.8547 -1.9702
 2590TIP3   OH2 7733   2.132   6.039   4.787 -0.1934 -0.8885 -0.3079
 2590TIP3    H1 7734   2.225   6.048   4.763  0.1005  1.5951  1.3819
 2590TIP3    H2 7735   2.085   6.064   4.708  0.6633  0.6672 -0.3809
 2591TIP3   OH2 7736   0.403   5.605   5.909  0.2806 -0.2460  0.0416
 2591TIP3    H1 7737   0.444   5.686   5.879 -0.6559  0.6212  0.9897
 2591TIP3    H2 7738   0.315   5.608   5.872  0.0602 -0.5458  0.5328
 2592TIP3   OH2 7739   4.610   4.104   1.693  0.2049  0.0046 -0.0197
 2592TIP3    H1 7740   4.632   4.171   1.628  1.3318  0.0824  0.4089
 2592TIP3    H2 7741   4.524   4.130   1.727  0.2574  0.7692 -0.4516
 2593TIP3   OH2 7742   3.392   3.391   2.972 -0.1613  0.0593  0.1844
 2593TIP3    H1 7743   3.438   3.312   3.000 -0.8611 -0.3505  0.2185
 2593TIP3    H2 7744   3.318   3.399   3.032  0.1802  1.0277  0.4904
 2594TIP3   OH2 7745   3.784   2.609   2.641 -0.2058 -0.8588  0.2567
 2594TIP3    H1 7746   3.811   2.534   2.694  1.6774  0.5017  1.3679
 2594TIP3    H2 7747   3.857   2.623   2.581 -0.0223  0.7131  0.8010
 2595TIP3   OH2 7748   2.106   3.791   0.366 -0.4485  0.0337  0.4697
 2595TIP3    H1 7749   2.142   3.873   0.400  0.3405 -0.7481  1.6068
 2595TIP3    H2 7750   2.171   3.725   0.389 -0.0474 -0.6468 -2.2961
 2596TIP3   OH2 7751   2.589   6.610   4.726 -0.0682 -0.0321  0.2014
 2596TIP3    H1 7752   2.547   6.691   4.698 -1.0248  0.1670  2.0375
 2596TIP3    H2 7753   2.518   6.546   4.727  0.5793 -0.7816 -0.7696
 2597TIP3   OH2 7754   1.014   0.628   0.518  0.4722 -0.1689 -0.4082
 2597TIP3    H1 7755   1.008   0.534   0.535 -0.9646 -0.0044  0.1732
 2597TIP3    H2 7756   0.987   0.638   0.427  0.1857 -0.2781 -0.3359
 2598TIP3   OH2 7757   7.209   5.340   5.484  0.0027 -0.0445 -0.2941
 2598TIP3    H1 7758   7.139   5.331   5.421 -0.4147 -1.6847  0.3563
 2598TIP3    H2 7759   7.226   5.434   5.488 -0.3939  0.1570 -2.3305
 2599TIP3   OH2 7760   1.269   2.954   1.494  0.5318  0.0541 -0.3985
 2599TIP3    H1 7761   1.357   2.925   1.472 -0.2840 -1.7180 -1.5404
 2599TIP3    H2 7762   1.278   3.048   1.511  2.4931  0.0542 -1.2042
 2600TIP3   OH2 7763   2.377   3.995   5.367  0.0581  0.8556  0.6232
 2600TIP3    H1 7764   2.372   4.066   5.303  0.8239  0.4673  0.1119
 2600TIP3    H2 7765   2.302   4.008   5.424 -1.0235  0.8339 -0.7443
 2601TIP3   OH2 7766   1.882   0.211   4.441 -0.7142 -0.4519  0.1965
 2601TIP3    H1 7767   1.967   0.182   4.475 -1.0898 -1.2542  0.4692
 2601TIP3    H2 7768   1.904   0.274   4.372  0.1066 -0.8429  0.0931
 2602TIP3   OH2 7769   0.500   5.197   3.731 -0.0040 -0.3083  0.0946
 2602TIP3    H1 7770   0.447   5.117   3.733 -0.7554  0.1259 -1.1208
 2602TIP3    H2 7771   0.456   5.252   3.666  1.7971  0.1706 -0.7600
 2603TIP3   OH2 7772   5.784   0.652   2.434  0.4006 -0.0924  0.0189
 2603TIP3    H1 7773   5.726   0.616   2.368  0.4873 -1.5905  0.7317
 2603TIP3    H2 7774   5.818   0.576   2.481  2.0425  0.8095  0.3723
 2604TIP3   OH2 7775   2.393   0.142   3.810  0.5673 -0.3739 -0.0734
 2604TIP3    H1 7776   2.474   0.102   3.843 -0.1006 -1.2242  0.5660
 2604TIP3    H2 7777   2.384   0.223   3.860  0.5907 -0.6853  0.4338
 2605TIP3   OH2 7778   5.855   2.007   3.852  0.9631 -0.0603 -0.3392
 2605TIP3    H1 7779   5.851   2.029   3.945 -0.0989 -1.8090  0.0789
 2605TIP3    H2 7780   5.845   2.091   3.807  0.6374  0.7189  1.1235
 2606TIP3   OH2 7781   3.080   4.368   3.129 -0.4881  0.0405  0.4182
 2606TIP3    H1 7782   3.095   4.278   3.098 -1.3744 -0.5449  1.5882
 2606TIP3    H2 7783   3.046   4.357   3.217 -0.4481  1.5577  0.6467
 2607TIP3   OH2 7784   2.004   1.910   5.058  0.3163  0.0159  0.8561
 2607TIP3    H1 7785   2.055   1.891   5.137 -1.1365  0.5729  2.0004
 2607TIP3    H2 7786   1.930   1.962   5.090  0.7496  2.0447 -1.1878
 2608TIP3   OH2 7787   3.631   4.233   5.251  0.1430 -0.0578 -0.7078
 2608TIP3    H1 7788   3.656   4.158   5.197  2.7019  0.0655  0.1693
 2608TIP3    H2 7789   3.682   4.222   5.331 -2.3337  0.6146  1.0753
 2609TIP3   OH2 7790   2.240   5.225   5.745 -0.1640 -0.0720  0.0297
 2609TIP3    H1 7791   2.296   5.174   5.804 -0.5123  0.1832  0.5877
 2609TIP3    H2 7792   2.180   5.271   5.803 -1.2213 -0.6514 -0.5902
 2610TIP3   OH2 7793   1.554   4.762   5.068  0.4245  0.5320  0.8182
 2610TIP3    H1 7794   1.508   4.686   5.104  0.8088 -1.3608 -2.3245
 2610TIP3    H2 7795   1.511   4.778   4.984  2.8915  1.2417 -0.3894
 2611TIP3   OH2 7796   6.578   5.038   3.525 -0.3790 -0.1890  0.3446
 2611TIP3    H1 7797   6.659   5.088   3.526  0.7182 -1.8598 -0.0936
 2611TIP3    H2 7798   6.517   5.093   3.476  0.6573  0.8701  0.1851
 2612TIP3   OH2 7799   2.902   0.581   1.218  0.3491 -0.0088  0.0778
 2612TIP3    H1 7800   2.944   0.505   1.257  0.3510  0.5190  1.1503
 2612TIP3    H2 7801   2.948   0.656   1.256 -1.0594  0.5715  0.7394
 2613TIP3   OH2 7802   5.462   0.714   2.091 -0.0944  0.2269 -0.3751
 2613TIP3    H1 7803   5.370   0.729   2.114 -0.2916 -2.2524  0.8264
 2613TIP3    H2 7804   5.508   0.790   2.126 -1.8244  2.4217 -2.6030
 2614TIP3   OH2 7805   3.208   2.439   4.649  0.1942 -0.5848 -0.1476
 2614TIP3    H1 7806   3.291   2.405   4.681  0.1809  0.2064  0.7737
 2614TIP3    H2 7807   3.162   2.469   4.727  0.5475  2.2441 -0.8924
 2615TIP3   OH2 7808   0.264   4.266   1.394 -0.0855  0.1570 -0.4853
 2615TIP3    H1 7809   0.273   4.241   1.302  0.4070 -0.2646 -0.3309
 2615TIP3    H2 7810   0.242   4.359   1.392 -0.7229 -0.0002 -1.0444
 2616TIP3   OH2 7811   0.085   2.158   2.853 -0.2941  0.0250 -0.2551
 2616TIP3    H1 7812   0.036   2.084   2.820 -1.5360  1.0275 -0.7538
 2616TIP3    H2 7813   0.021   2.209   2.902  0.9849 -0.2509  1.8359
 2617TIP3   OH2 7814   3.912   3.888   1.800 -0.3330 -0.1866  0.3980
 2617TIP3    H1 7815   3.837   3.841   1.763  0.8954 -0.2041 -2.3135
 2617TIP3    H2 7816   3.886   3.980   1.799 -0.0585 -0.0943 -1.3902
 2618TIP3   OH2 7817   4.236   3.037   5.301 -0.0555  0.0431 -0.1178
 2618TIP3    H1 7818   4.257   3.079   5.218 -1.7715 -1.0284 -1.1589
 2618TIP3    H2 7819   4.303   2.969   5.312  0.8955  0.9845  0.0145
 2619TIP3   OH2 7820   6.892   4.914   3.841  0.0162 -0.1953 -0.4567
 2619TIP3    H1 7821   6.908   4.920   3.935 -0.0424 -3.3295 -0.1615
 2619TIP3    H2 7822   6.799   4.893   3.833  0.2844 -1.1605 -1.1366
 2620TIP3   OH2 7823   4.261   1.704   1.812 -0.3074  0.0042 -0.2285
 2620TIP3    H1 7824   4.282   1.655   1.733 -0.1776 -0.7606  0.2715
 2620TIP3    H2 7825   4.340   1.697   1.866 -1.1338 -1.2606  0.8471
 2621TIP3   OH2 7826   2.285   6.454   0.726  0.2813  0.2577  0.0361
 2621TIP3    H1 7827   2.323   6.405   0.654 -2.4452 -0.1207 -1.2606
 2621TIP3    H2 7828   2.240   6.528   0.684 -2.0154 -0.3806  1.1951
 2622TIP3   OH2 7829   4.921   5.170   3.847 -0.1857  0.3002 -0.2742
 2622TIP3    H1 7830   4.972   5.103   3.802  0.0490  2.3439 -3.4326
 2622TIP3    H2 7831   4.837   5.171   3.801 -0.3948  1.7127  0.0827
 2623TIP3   OH2 7832   1.226   2.186   5.194 -0.1607 -0.0024  0.1914
 2623TIP3    H1 7833   1.307   2.191   5.244  0.6283 -0.2148 -1.0236
 2623TIP3    H2 7834   1.174   2.120   5.239 -0.0183  0.7108  1.4533
 2624TIP3   OH2 7835   3.059   3.241   2.150  0.2263 -0.3377 -0.4799
 2624TIP3    H1 7836   3.091   3.310   2.093 -0.0293 -0.2570 -0.5261
 2624TIP3    H2 7837   3.137   3.212   2.198  0.2101  0.4810  0.0722
 2625TIP3   OH2 7838   4.998   2.923   0.654  0.3081 -0.1716  0.2565
 2625TIP3    H1 7839   4.986   2.947   0.746 -0.4281  0.7551 -0.0561
 2625TIP3    H2 7840   4.919   2.956   0.611  1.3247  0.7835 -0.9556
 2626TIP3   OH2 7841   4.281   2.453   3.375  0.0924 -0.4979  0.1098
 2626TIP3    H1 7842   4.331   2.519   3.425  0.5074 -1.4334  0.9687
 2626TIP3    H2 7843   4.338   2.376   3.374  0.0863 -0.5222 -1.8331
 2627TIP3   OH2 7844   6.189   3.588   3.851  0.1400 -0.5350  0.2276
 2627TIP3    H1 7845   6.198   3.556   3.941  0.6154  1.2221  0.8376
 2627TIP3    H2 7846   6.104   3.632   3.849  0.1309 -0.5652 -0.1852
 2628TIP3   OH2 7847   1.782   1.766   4.437  0.0857 -0.0332  0.1471
 2628TIP3    H1 7848   1.863   1.715   4.441  0.2008  0.0128 -1.0873
 2628TIP3    H2 7849   1.714   1.702   4.457  0.3359 -0.3587 -0.0206
 2629TIP3   OH2 7850   5.460   1.834   2.661 -0.1935 -0.4925 -0.3553
 2629TIP3    H1 7851   5.473   1.891   2.737 -0.8415 -0.1437 -0.4984
 2629TIP3    H2 7852   5.476   1.889   2.585 -3.0779  0.2038 -0.5782
 2630TIP3   OH2 7853   1.902   0.475   3.493  0.1230 -0.5063  0.3458
 2630TIP3    H1 7854   1.920   0.381   3.487 -1.1067 -0.7166 -0.3560
 2630TIP3    H2 7855   1.851   0.495   3.415  1.4994  1.0436 -0.2187
 2631TIP3   OH2 7856   0.442   0.158   3.321  0.0892  0.4960 -0.4135
 2631TIP3    H1 7857   0.491   0.154   3.238 -0.9966  0.4330 -1.0701
 2631TIP3    H2 7858   0.509   0.143   3.388  1.6637  3.9900 -0.9913
 2632TIP3   OH2 7859   1.384   2.596   3.282  0.2704 -0.0881 -0.0512
 2632TIP3    H1 7860   1.333   2.542   3.343 -0.3501  0.2462 -0.2602
 2632TIP3    H2 7861   1.351   2.571   3.195 -0.5981  1.1812 -0.1092
 2633TIP3   OH2 7862   1.088   0.313   4.312  0.4528 -0.4569  0.1345
 2633TIP3    H1 7863   1.127   0.290   4.396  0.5568 -2.1558 -0.3493
 2633TIP3    H2 7864   1.045   0.398   4.328  1.7726  0.0040  1.4616
 2634TIP3   OH2 7865   3.052   4.703   1.349 -0.3844 -0.2927 -0.0077
 2634TIP3    H1 7866   3.126   4.694   1.288 -1.0469 -0.7417 -0.7774
 2634TIP3    H2 7867   3.092   4.700   1.436  0.5013 -0.5684 -0.4079
 2635TIP3   OH2 7868   5.451   1.327   0.425 -0.0185  0.6948  0.3686
 2635TIP3    H1 7869   5.424   1.412   0.460 -1.6282  0.1045  0.6444
 2635TIP3    H2 7870   5.474   1.275   0.502  1.0199  0.8713  0.1974
 2636TIP3   OH2 7871   3.827   0.768   2.002 -0.5165 -0.5161  0.3666
 2636TIP3    H1 7872   3.769   0.788   2.076 -4.1827 -0.7097 -2.1982
 2636TIP3    H2 7873   3.776   0.709   1.947  2.1399 -0.6070 -2.2226
 2637TIP3   OH2 7874   6.580   6.122   2.741  0.2694  0.1703 -0.2853
 2637TIP3    H1 7875   6.661   6.072   2.733  0.1287  0.0764 -1.3426
 2637TIP3    H2 7876   6.544   6.097   2.826  1.7590  0.8542  0.5802
 2638TIP3   OH2 7877   3.819   0.413   5.666  0.7784  0.1803  0.4551
 2638TIP3    H1 7878   3.903   0.457   5.654  1.1436 -0.5773  0.1858
 2638TIP3    H2 7879   3.841   0.330   5.708  0.2471 -0.3295 -0.2432
 2639TIP3   OH2 7880   5.061   5.232   0.043 -0.1361  0.4593  0.2690
 2639TIP3    H1 7881   5.097   5.293   0.108 -0.8704  0.9000  0.2762
 2639TIP3    H2 7882   5.022   5.162   0.096  0.7925 -0.0847  0.2592
 2640TIP3   OH2 7883   3.064   2.132   3.645 -0.0846  0.6428 -0.0307
 2640TIP3    H1 7884   3.037   2.114   3.554 -1.0831 -0.3502  0.4389
 2640TIP3    H2 7885   3.153   2.165   3.637  0.2537 -0.4548 -1.3137
 2641TIP3   OH2 7886   7.191   0.591   1.040 -0.3314  0.5234  0.2375
 2641TIP3    H1 7887   7.139   0.667   1.065 -1.0499  0.4325 -0.9400
 2641TIP3    H2 7888   7.183   0.530   1.114 -0.9779  0.9679  0.5344
 2642TIP3   OH2 7889   2.396   3.382   0.995 -0.1515 -0.5908 -0.7207
 2642TIP3    H1 7890   2.454   3.311   1.025 -0.1705 -0.7604 -1.0717
 2642TIP3    H2 7891   2.338   3.339   0.931 -0.4500 -0.3509 -0.6109
 2643TIP3   OH2 7892   3.788   4.920   0.561  0.1103  0.0658 -0.5057
 2643TIP3    H1 7893   3.782   4.835   0.607  0.6321 -0.1284 -0.7970
 2643TIP3    H2 7894   3.804   4.983   0.631  0.9347 -0.2340 -0.4152
 2644TIP3   OH2 7895   1.577   6.485   4.708 -0.1978 -0.1857 -0.2452
 2644TIP3    H1 7896   1.533   6.402   4.727 -1.0762  0.2377 -0.3856
 2644TIP3    H2 7897   1.666   6.459   4.680 -0.0317 -0.9867  0.9783
 2645TIP3   OH2 7898   0.284   6.793   1.348 -0.0729  0.1849 -0.7193
 2645TIP3    H1 7899   0.329   6.854   1.406 -0.7736 -0.2139  0.2633
 2645TIP3    H2 7900   0.267   6.716   1.403 -1.4428  0.1086 -1.2283
 2646TIP3   OH2 7901   2.187   2.432   0.012 -0.2083 -0.5057 -0.0662
 2646TIP3    H1 7902   2.238   2.493   0.065  0.4979 -0.4230 -0.8162
 2646TIP3    H2 7903   2.252   2.368  -0.019 -1.1211 -2.4281  1.7731
 2647TIP3   OH2 7904   1.119   6.460   2.695 -0.1692 -0.0388 -0.5118
 2647TIP3    H1 7905   1.048   6.499   2.644 -0.3377 -1.7944 -1.7281
 2647TIP3    H2 7906   1.184   6.529   2.704 -0.9566  0.8583 -1.5211
 2648TIP3   OH2 7907   2.843   0.430   2.660  0.1280  0.1846  0.1077
 2648TIP3    H1 7908   2.833   0.503   2.599  0.5620  1.6532  1.7046
 2648TIP3    H2 7909   2.925   0.388   2.634  0.5378  1.0619 -0.0609
 2649TIP3   OH2 7910   3.277   2.757   4.496 -0.0843 -0.1726  0.0431
 2649TIP3    H1 7911   3.312   2.683   4.447 -0.1277 -0.5698  0.6133
 2649TIP3    H2 7912   3.319   2.833   4.455 -1.6306 -0.2869 -1.9513
 2650TIP3   OH2 7913   1.786   5.388   0.653  0.2755  0.3843  0.2141
 2650TIP3    H1 7914   1.746   5.420   0.734  1.6335  1.1073  0.6475
 2650TIP3    H2 7915   1.833   5.309   0.679 -0.3664 -0.1184 -0.1521
 2651TIP3   OH2 7916   0.211   2.831   1.044 -0.0571  0.0581 -0.3270
 2651TIP3    H1 7917   0.160   2.839   1.124  0.3907 -3.9463  0.5620
 2651TIP3    H2 7918   0.152   2.789   0.981  0.6580 -0.1122 -0.9065
 2652TIP3   OH2 7919   3.509   4.386   2.037 -0.0367 -0.1606  0.3494
 2652TIP3    H1 7920   3.515   4.306   2.089  1.5519 -0.4708 -0.2525
 2652TIP3    H2 7921   3.535   4.360   1.949  1.7036  1.2058  0.3919
 2653TIP3   OH2 7922   5.382   6.419   1.698  0.1538  0.4030  0.0257
 2653TIP3    H1 7923   5.405   6.501   1.742  1.8422  0.0636 -0.1717
 2653TIP3    H2 7924   5.297   6.436   1.658  1.1576  2.5696 -1.3066
 2654TIP3   OH2 7925   3.635   4.195   0.860 -0.6860 -0.1601  0.9062
 2654TIP3    H1 7926   3.580   4.225   0.788 -1.1624 -1.2753  0.7888
 2654TIP3    H2 7927   3.699   4.136   0.820 -1.0801 -0.9512  1.4043
 2655TIP3   OH2 7928   1.804   2.512   4.501  0.6813  0.1474  0.3791
 2655TIP3    H1 7929   1.716   2.501   4.539  1.2660  1.3977  2.2172
 2655TIP3    H2 7930   1.789   2.567   4.423 -0.2731 -0.5661  0.0301
 2656TIP3   OH2 7931   0.243   4.300   4.216 -0.1839 -0.6523 -0.2414
 2656TIP3    H1 7932   0.204   4.296   4.303 -0.1695  0.0062 -0.1980
 2656TIP3    H2 7933   0.177   4.263   4.158 -0.6247 -0.1384 -0.0816
 2657TIP3   OH2 7934   6.248   1.357   3.028 -0.4424 -0.1755  0.6679
 2657TIP3    H1 7935   6.159   1.367   3.062 -0.2089  2.5276  0.6962
 2657TIP3    H2 7936   6.238   1.361   2.933 -0.4533 -1.3324  0.6023
 2658TIP3   OH2 7937   4.127   5.978   4.323 -0.0918 -0.6904 -0.0657
 2658TIP3    H1 7938   4.076   5.899   4.307  0.1345 -1.3457  2.0668
 2658TIP3    H2 7939   4.121   5.991   4.418 -0.8912  2.3868 -0.4344
 2659TIP3   OH2 7940   4.630   5.341   2.188 -0.1825 -0.8269  0.1836
 2659TIP3    H1 7941   4.613   5.398   2.263  3.0075 -1.3669  1.4601
 2659TIP3    H2 7942   4.593   5.256   2.213 -0.2932 -0.6596  0.5916
 2660TIP3   OH2 7943   7.062   4.997   2.739  0.3565 -0.1861 -0.0865
 2660TIP3    H1 7944   7.126   5.047   2.790 -0.2210  1.1478 -0.6170
 2660TIP3    H2 7945   6.982   5.051   2.741  0.2246 -0.2270 -2.1214
 2661TIP3   OH2 7946   3.361   1.103   3.030  0.3268  0.0906 -0.2740
 2661TIP3    H1 7947   3.433   1.083   3.090  1.0527  2.9871 -0.0677
 2661TIP3    H2 7948   3.293   1.140   3.086 -0.9417 -1.5588 -0.6431
 2662TIP3   OH2 7949   3.378   3.998   2.637 -0.6345 -0.0713 -0.2807
 2662TIP3    H1 7950   3.436   4.015   2.711 -1.1431 -1.3912  0.4590
 2662TIP3    H2 7951   3.429   3.941   2.579 -0.4982  0.3581 -0.5810
 2663TIP3   OH2 7952   6.536   4.403   5.787  0.1338 -0.3700  0.6293
 2663TIP3    H1 7953   6.554   4.329   5.844 -1.6569 -3.1574 -2.1154
 2663TIP3    H2 7954   6.442   4.398   5.769  0.5262  0.4248 -2.3009
 2664TIP3   OH2 7955   2.241   6.696   2.482 -0.2917 -0.2163 -0.1079
 2664TIP3    H1 7956   2.320   6.722   2.528 -1.5434  1.1982  1.3796
 2664TIP3    H2 7957   2.231   6.760   2.412 -0.0951 -0.4542 -0.3585
 2665TIP3   OH2 7958   2.712   4.583   0.838  0.1089  0.1641  0.1439
 2665TIP3    H1 7959   2.804   4.609   0.829  0.4390 -0.2090  1.9974
 2665TIP3    H2 7960   2.690   4.605   0.928 -2.5552  2.9932 -1.0261
 2666TIP3   OH2 7961   6.138   3.638   4.137 -0.1092 -0.3158 -0.4038
 2666TIP3    H1 7962   6.099   3.609   4.220  1.7217  1.1978  1.1156
 2666TIP3    H2 7963   6.119   3.732   4.133  1.0470 -0.0784 -0.9268
 2667TIP3   OH2 7964   0.885   4.327   4.272 -0.3767 -0.6202  0.5000
 2667TIP3    H1 7965   0.838   4.401   4.311  0.6914  0.0574  0.5365
 2667TIP3    H2 7966   0.893   4.263   4.343  0.9448  0.3148  1.2450
 2668TIP3   OH2 7967   2.765   3.805   0.109  0.5639 -0.5423  0.1021
 2668TIP3    H1 7968   2.677   3.836   0.086  0.0125 -1.2706  1.1539
 2668TIP3    H2 7969   2.807   3.881   0.150 -0.3135 -0.7453  1.4512
 2669TIP3   OH2 7970   5.449   3.700   4.908 -0.3974  0.0207 -0.3059
 2669TIP3    H1 7971   5.465   3.789   4.941 -0.0816  0.4614 -1.5928
 2669TIP3    H2 7972   5.514   3.646   4.954 -0.3628  0.5082  0.2340
 2670TIP3   OH2 7973   5.832   5.564   2.555 -0.2450 -0.3515  0.3670
 2670TIP3    H1 7974   5.770   5.637   2.563  1.3983  1.2272 -0.4770
 2670TIP3    H2 7975   5.844   5.533   2.645  0.2995  1.5693  1.0037
 2671TIP3   OH2 7976   2.339   4.367   1.641  0.2274 -0.2901  0.9698
 2671TIP3    H1 7977   2.317   4.324   1.559 -3.8439  1.4990  0.8787
 2671TIP3    H2 7978   2.297   4.314   1.709  0.8114 -0.0191  1.5613
 2672TIP3   OH2 7979   5.531   6.793   0.860 -0.1548  0.1901 -0.0310
 2672TIP3    H1 7980   5.440   6.809   0.885 -0.4669 -0.3921 -0.7661
 2672TIP3    H2 7981   5.557   6.717   0.913  0.0537  0.6269  0.5051
 2673TIP3   OH2 7982   4.119   1.442   4.991 -0.1717 -0.1625 -0.0223
 2673TIP3    H1 7983   4.198   1.400   4.954  1.2412  1.9060  0.4851
 2673TIP3    H2 7984   4.071   1.473   4.915 -0.2527 -0.9710 -0.3178
 2674TIP3   OH2 7985   6.886   6.138  -0.018 -0.5526  0.0825  0.0488
 2674TIP3    H1 7986   6.856   6.156   0.071 -0.2491 -0.4290  0.2597
 2674TIP3    H2 7987   6.980   6.124  -0.009 -0.4709  0.3093 -0.3993
 2675TIP3   OH2 7988   2.095   4.384   0.957  0.0798  0.0486 -0.0751
 2675TIP3    H1 7989   2.029   4.315   0.944 -1.0369  0.8974  0.8365
 2675TIP3    H2 7990   2.072   4.451   0.893  0.7648 -0.1232 -0.5149
 2676TIP3   OH2 7991   5.926   0.120   2.539 -0.5118 -0.2875  0.3611
 2676TIP3    H1 7992   5.877   0.147   2.461  1.7203  0.0467 -1.0297
 2676TIP3    H2 7993   5.868   0.059   2.584 -2.3759  0.4643 -0.8764
 2677TIP3   OH2 7994   0.904   4.692   3.582 -0.5940  0.3694 -0.5552
 2677TIP3    H1 7995   0.846   4.714   3.655 -0.0762 -0.2101  0.0436
 2677TIP3    H2 7996   0.851   4.708   3.503 -1.2021  0.8759 -0.0577
 2678TIP3   OH2 7997   6.416   0.893   4.476 -0.4030 -0.1317  0.1835
 2678TIP3    H1 7998   6.394   0.802   4.455 -0.0569  0.0156 -0.9016
 2678TIP3    H2 7999   6.341   0.943   4.445 -0.5520 -0.0368  0.6960
 2679TIP3   OH2 8000   1.693   2.290   1.070 -0.0801  0.3482  0.5298
 2679TIP3    H1 8001   1.689   2.215   1.130 -0.2904  0.7471  1.0266
 2679TIP3    H2 8002   1.602   2.310   1.050  0.0181 -0.8455 -1.3088
 2680TIP3   OH2 8003   6.182   2.571   1.219  0.1754  0.2625  0.4295
 2680TIP3    H1 8004   6.091   2.580   1.248 -0.4450 -3.0575 -0.0443
 2680TIP3    H2 8005   6.176   2.569   1.123  0.3550 -2.1896  0.4077
 2681TIP3   OH2 8006   6.526   3.254   5.321 -0.1235  0.4730 -0.2831
 2681TIP3    H1 8007   6.517   3.316   5.394  0.0247 -0.7075  0.7646
 2681TIP3    H2 8008   6.537   3.310   5.244  0.4019  1.7423  0.6757
 2682TIP3   OH2 8009   1.227   4.111   4.018 -0.0209 -0.0298 -0.3859
 2682TIP3    H1 8010   1.133   4.111   4.036 -0.0920 -0.6240 -0.6975
 2682TIP3    H2 8011   1.263   4.178   4.075 -0.4198 -0.8627  0.8898
 2683TIP3   OH2 8012   1.373   3.112   3.342 -0.5223 -0.1723 -0.3065
 2683TIP3    H1 8013   1.289   3.096   3.385 -2.0113 -1.3724 -3.3115
 2683TIP3    H2 8014   1.363   3.073   3.255  2.6004  1.0929 -1.3913
 2684TIP3   OH2 8015   6.766   4.545   5.683 -0.0697  0.1105 -0.0254
 2684TIP3    H1 8016   6.780   4.550   5.777  0.3971  0.2015 -0.0981
 2684TIP3    H2 8017   6.759   4.451   5.665 -0.7480  0.1176  0.1802
 2685TIP3   OH2 8018   3.276   0.819   2.435  0.1639 -0.2616 -0.4586
 2685TIP3    H1 8019   3.336   0.766   2.487  1.0017  0.5738 -0.5431
 2685TIP3    H2 8020   3.327   0.897   2.413 -0.2061 -0.5418 -2.4528
 2686TIP3   OH2 8021   1.348   4.554   1.662 -0.1269  0.3835 -0.4647
 2686TIP3    H1 8022   1.403   4.609   1.606  0.5423 -0.1238 -0.3175
 2686TIP3    H2 8023   1.352   4.596   1.748 -0.2749  0.5564 -0.5419
 2687TIP3   OH2 8024   3.313   2.480   0.591 -0.5608 -0.6922 -0.3228
 2687TIP3    H1 8025   3.347   2.461   0.503  0.0124 -0.0439 -0.2452
 2687TIP3    H2 8026   3.390   2.504   0.641 -0.5037 -3.2085  0.9840
 2688TIP3   OH2 8027   7.121   2.975   3.241 -0.1307 -0.3288 -0.2430
 2688TIP3    H1 8028   7.108   2.978   3.146  1.3866 -2.3079 -0.5793
 2688TIP3    H2 8029   7.216   2.974   3.253 -0.2888 -0.3345  1.2854
 2689TIP3   OH2 8030   0.897   0.819   1.405 -0.1841  0.0010  0.6535
 2689TIP3    H1 8031   0.925   0.739   1.450  1.3687  0.0917 -0.0661
 2689TIP3    H2 8032   0.926   0.806   1.315 -1.7389  0.5392  0.0462
 2690TIP3   OH2 8033   3.576   6.585   2.566 -0.5606  0.1129  0.4132
 2690TIP3    H1 8034   3.576   6.604   2.472 -1.0566  1.7305  0.7074
 2690TIP3    H2 8035   3.530   6.502   2.574  0.5669 -0.6680 -0.8682
 2691TIP3   OH2 8036   6.773   0.959   5.102  0.8052 -0.4167  0.2631
 2691TIP3    H1 8037   6.817   0.902   5.165  4.3434 -0.0244 -1.5922
 2691TIP3    H2 8038   6.782   1.047   5.140  0.3284 -0.4769  0.5257
 2692TIP3   OH2 8039   0.188   3.257   5.642 -0.3975 -0.1425  0.1952
 2692TIP3    H1 8040   0.232   3.313   5.706  2.0822 -0.6591 -0.9470
 2692TIP3    H2 8041   0.245   3.259   5.566 -1.4745 -2.3457 -0.7353
 2693TIP3   OH2 8042   4.362   2.978   3.013  0.3936  0.1581  0.3397
 2693TIP3    H1 8043   4.281   2.948   3.054 -0.2490 -0.0212 -0.9771
 2693TIP3    H2 8044   4.432   2.948   3.071 -0.4210 -0.7997  0.8560
 2694TIP3   OH2 8045   0.447   4.652   4.488 -0.2446 -0.2131  0.8889
 2694TIP3    H1 8046   0.375   4.613   4.538 -0.5960  0.7291  1.1445
 2694TIP3    H2 8047   0.421   4.643   4.397 -0.5344 -0.1635  0.9662
 2695TIP3   OH2 8048   3.976   3.391   1.227 -0.1123  0.1173  0.1107
 2695TIP3    H1 8049   3.932   3.442   1.295 -1.1477 -1.4542  0.6798
 2695TIP3    H2 8050   4.053   3.442   1.205 -1.0436  1.8710  0.7099
 2696TIP3   OH2 8051   3.688   1.578   3.112 -0.4666 -0.6762 -0.4043
 2696TIP3    H1 8052   3.643   1.494   3.106 -2.3446  0.2927 -0.7403
 2696TIP3    H2 8053   3.781   1.556   3.115 -0.7806 -2.6819 -2.6044
 2697TIP3   OH2 8054   3.791   5.775   5.389  0.0070 -0.7705 -0.0765
 2697TIP3    H1 8055   3.829   5.741   5.308  1.0800  1.6377 -0.6837
 2697TIP3    H2 8056   3.697   5.773   5.373  0.1122 -1.9990 -0.6527
 2698TIP3   OH2 8057   0.909   2.759   1.797 -0.2710  0.5880 -0.2825
 2698TIP3    H1 8058   0.959   2.773   1.717  0.8018 -0.7747  0.1119
 2698TIP3    H2 8059   0.970   2.779   1.868 -0.4969 -0.4128  0.2061
 2699TIP3   OH2 8060   3.230   4.836   3.814 -0.4852 -0.5028  0.5720
 2699TIP3    H1 8061   3.257   4.750   3.844  0.3076 -0.6327 -0.4347
 2699TIP3    H2 8062   3.149   4.821   3.766 -0.2592 -0.7241  0.2545
 2700TIP3   OH2 8063   1.178   0.297   0.638 -0.2021 -0.2769  0.6173
 2700TIP3    H1 8064   1.249   0.360   0.639  0.3222 -0.8558  1.3701
 2700TIP3    H2 8065   1.108   0.337   0.690  0.7197 -0.9391  2.4510
 2701TIP3   OH2 8066   2.659   1.776   4.279  0.0502  0.4870 -0.2631
 2701TIP3    H1 8067   2.740   1.745   4.319  0.4609  0.4709 -1.0729
 2701TIP3    H2 8068   2.688   1.830   4.205 -0.6750  0.3462 -0.6649
 2702TIP3   OH2 8069   2.885   1.470   3.057  0.2341 -0.1563  0.6297
 2702TIP3    H1 8070   2.910   1.533   3.124  1.2642  0.1250  0.0068
 2702TIP3    H2 8071   2.889   1.385   3.100  0.5183  0.0558  1.0230
 2703TIP3   OH2 8072   4.140   6.543   2.030  0.2803  0.4093 -0.1017
 2703TIP3    H1 8073   4.144   6.618   1.971 -0.0250 -0.0126 -0.6569
 2703TIP3    H2 8074   4.193   6.476   1.988 -1.2447 -0.4539 -0.7170
 2704TIP3   OH2 8075   0.037   3.538   5.735 -0.0753 -0.3623  0.0053
 2704TIP3    H1 8076   0.031   3.458   5.787 -1.4692  0.6046  1.4358
 2704TIP3    H2 8077   0.085   3.599   5.790  0.2401  0.0540 -0.7163
 2705TIP3   OH2 8078   3.413   6.194   0.666  0.6881  0.0635  0.0191
 2705TIP3    H1 8079   3.356   6.161   0.736  0.7552  0.3733  0.2217
 2705TIP3    H2 8080   3.468   6.259   0.709  1.6542 -0.7079 -0.0386
 2706TIP3   OH2 8081   4.370   5.178   3.868  0.5301 -0.2707  0.0675
 2706TIP3    H1 8082   4.308   5.195   3.939  1.4523  0.1710  0.7900
 2706TIP3    H2 8083   4.340   5.096   3.829 -0.6165  0.0390  0.2681
 2707TIP3   OH2 8084   0.612   4.799   4.267 -0.1761  0.1839 -0.2782
 2707TIP3    H1 8085   0.535   4.829   4.315 -0.4363  1.7922 -1.6236
 2707TIP3    H2 8086   0.665   4.877   4.255  0.4684 -0.4176 -1.5246
 2708TIP3   OH2 8087   1.002   4.929   1.234 -0.4044  0.3698 -0.0178
 2708TIP3    H1 8088   0.967   4.959   1.150  1.5793  0.3969 -0.8987
 2708TIP3    H2 8089   0.979   4.836   1.237 -0.8109  0.4508 -0.4021
 2709TIP3   OH2 8090   1.777   3.839   1.619  0.5177 -0.1882  0.3842
 2709TIP3    H1 8091   1.758   3.746   1.609  0.7672 -0.2088  0.0461
 2709TIP3    H2 8092   1.695   3.877   1.650 -0.1342 -0.2545 -1.1341
 2710TIP3   OH2 8093   2.695   1.496   3.785 -0.8560  0.1148  0.0840
 2710TIP3    H1 8094   2.773   1.495   3.730 -0.8453 -1.5064  0.0800
 2710TIP3    H2 8095   2.728   1.509   3.874 -0.5816 -0.5332  0.0777
 2711TIP3   OH2 8096   3.634   3.462   1.833  0.6538  0.2434 -0.3251
 2711TIP3    H1 8097   3.720   3.458   1.876  1.2312  1.8814 -1.2397
 2711TIP3    H2 8098   3.646   3.410   1.753  0.8834  0.6787 -0.5777
 2712TIP3   OH2 8099   6.256   4.055   0.966  0.4555  0.0669  0.1237
 2712TIP3    H1 8100   6.193   4.016   0.906  3.1249 -2.1621 -1.4679
 2712TIP3    H2 8101   6.252   4.001   1.045  0.5555 -0.2322 -0.0752
 2713TIP3   OH2 8102   3.361   2.462   3.718  0.0947  0.2518 -0.0894
 2713TIP3    H1 8103   3.449   2.477   3.682  0.9649  0.9626  2.1621
 2713TIP3    H2 8104   3.370   2.481   3.811 -3.0324  2.6589 -0.1204
 2714TIP3   OH2 8105   2.194   2.414   1.640  0.3689 -0.1919  0.0477
 2714TIP3    H1 8106   2.234   2.498   1.616  1.4093 -1.1493 -1.7389
 2714TIP3    H2 8107   2.159   2.429   1.728  1.8261  1.6770  0.3746
 2715TIP3   OH2 8108   2.233   6.047   5.406 -0.3517  0.0176  0.5121
 2715TIP3    H1 8109   2.213   6.118   5.345  0.6789 -0.3077 -0.2251
 2715TIP3    H2 8110   2.155   6.040   5.461 -1.1743  0.5415 -0.5575
 2716TIP3   OH2 8111   0.137   4.864   5.210 -0.0390 -0.5184  0.0258
 2716TIP3    H1 8112   0.104   4.940   5.257 -1.5401 -1.0424 -0.1100
 2716TIP3    H2 8113   0.102   4.873   5.121  2.9952  0.6126 -1.1864
 2717TIP3   OH2 8114   0.246   5.445   4.602  0.0733 -0.2261  0.7969
 2717TIP3    H1 8115   0.254   5.452   4.507 -0.9005  1.7095  0.8123
 2717TIP3    H2 8116   0.232   5.352   4.618 -0.7559 -0.4550 -1.0382
 2718TIP3   OH2 8117   6.949   0.871   4.142 -0.3044  0.2848  0.3184
 2718TIP3    H1 8118   6.925   0.821   4.220  0.3882 -0.3221  0.1599
 2718TIP3    H2 8119   6.897   0.831   4.072 -1.7312  1.5213  0.6230
 2719TIP3   OH2 8120   3.063   1.394   4.702  0.1706  0.2362 -0.3186
 2719TIP3    H1 8121   2.987   1.390   4.643  0.3527  0.4333 -0.5681
 2719TIP3    H2 8122   3.060   1.312   4.750 -0.2275  0.2585 -0.3001
 2720TIP3   OH2 8123   2.715   3.651   1.853  0.4382  0.1341 -0.0431
 2720TIP3    H1 8124   2.649   3.632   1.786  0.5326  2.9029 -1.0656
 2720TIP3    H2 8125   2.755   3.566   1.872 -0.0719 -0.8988 -2.9952
 2721TIP3   OH2 8126   5.233   4.526   0.611 -0.1514  0.1123  0.2480
 2721TIP3    H1 8127   5.249   4.525   0.705  2.6253  0.1179 -0.1366
 2721TIP3    H2 8128   5.209   4.616   0.591 -0.1927  0.2452  0.8837
 2722TIP3   OH2 8129   3.533   4.011   4.354  0.3422  0.4891 -0.0024
 2722TIP3    H1 8130   3.516   3.961   4.433 -1.0658 -0.1713 -0.6850
 2722TIP3    H2 8131   3.491   4.096   4.369 -2.7213 -0.6817 -1.1642
 2723TIP3   OH2 8132   4.381   3.405   5.789  0.1314 -0.0530 -0.5256
 2723TIP3    H1 8133   4.404   3.423   5.880  2.5240  0.1104 -1.1030
 2723TIP3    H2 8134   4.363   3.311   5.787 -1.8607  0.2541  0.4362
 2724TIP3   OH2 8135   4.421   2.125   2.260  0.1763  0.6728 -0.3836
 2724TIP3    H1 8136   4.486   2.195   2.264  1.6004 -0.6650  2.0914
 2724TIP3    H2 8137   4.441   2.077   2.179  2.7259 -0.0382  0.5818
 2725TIP3   OH2 8138   1.721   0.737   4.587  0.3292 -0.1588  0.2264
 2725TIP3    H1 8139   1.664   0.777   4.522 -0.0630 -1.0366  0.0182
 2725TIP3    H2 8140   1.676   0.752   4.671 -0.5758 -1.4447 -0.0061
 2726TIP3   OH2 8141   1.127   4.971   0.216  0.3336 -0.1969  0.2504
 2726TIP3    H1 8142   1.086   4.894   0.255 -0.0225 -0.3446 -0.4056
 2726TIP3    H2 8143   1.174   4.938   0.139 -0.9464  0.4042 -0.8441
 2727TIP3   OH2 8144   5.652   4.680   2.981 -0.1636 -0.1319 -1.0731
 2727TIP3    H1 8145   5.648   4.672   2.885 -1.8099 -0.9409 -0.9725
 2727TIP3    H2 8146   5.615   4.598   3.013 -0.0131  0.3067  0.2683
 2728TIP3   OH2 8147   5.935   5.603   3.598 -0.1554 -0.1478  0.2220
 2728TIP3    H1 8148   5.892   5.674   3.646 -1.5031 -0.2683 -0.7210
 2728TIP3    H2 8149   5.909   5.524   3.645 -1.4718 -0.2652 -0.6422
 2729TIP3   OH2 8150   0.955   4.207   5.191  0.0970  0.5680 -0.2872
 2729TIP3    H1 8151   1.017   4.207   5.264 -0.6689 -0.4281  0.3982
 2729TIP3    H2 8152   0.989   4.140   5.132 -0.3851 -0.0785  0.1569
 2730TIP3   OH2 8153   4.947   1.889   4.164  0.0676  0.4163  0.1738
 2730TIP3    H1 8154   5.003   1.837   4.222 -0.5950  0.4620  0.8686
 2730TIP3    H2 8155   4.865   1.898   4.212  0.3717  2.6429  0.3578
 2731TIP3   OH2 8156   5.514   4.089   1.206  0.0308 -0.0877 -0.0431
 2731TIP3    H1 8157   5.534   4.072   1.298  0.2485 -1.9704 -0.3934
 2731TIP3    H2 8158   5.597   4.073   1.161 -0.2532  0.1192 -0.6513
 2732TIP3   OH2 8159   4.986   5.070   0.515  0.5562  0.3387  0.4507
 2732TIP3    H1 8160   4.952   5.113   0.437  2.4797  2.1822  0.5577
 2732TIP3    H2 8161   5.076   5.046   0.493  1.0276  0.5757  1.9603
 2733TIP3   OH2 8162   5.506   3.644   3.201 -0.6212 -0.7022  0.6615
 2733TIP3    H1 8163   5.432   3.670   3.146 -0.3091 -0.1735  0.4878
 2733TIP3    H2 8164   5.583   3.676   3.155 -0.4553  1.6223  2.3984
 2734TIP3   OH2 8165   1.772   6.554   0.681  0.2141  0.5469  0.2827
 2734TIP3    H1 8166   1.772   6.523   0.772  0.8873  0.2698  0.1973
 2734TIP3    H2 8167   1.681   6.577   0.664 -0.0362  0.0182  0.8349
 2735TIP3   OH2 8168   5.572   5.475   1.407  0.2067 -0.3338 -0.3947
 2735TIP3    H1 8169   5.579   5.419   1.485 -1.2461 -0.3052 -0.2178
 2735TIP3    H2 8170   5.662   5.485   1.377  0.6962 -1.1522  0.7164
 2736TIP3   OH2 8171   2.967   2.869   4.920  0.4409  0.2691  0.1980
 2736TIP3    H1 8172   2.902   2.908   4.862  1.1039 -0.8232 -1.3428
 2736TIP3    H2 8173   2.917   2.842   4.997 -0.9373 -0.3796 -0.8719
 2737TIP3   OH2 8174   0.215   4.761   3.622  0.3431  0.4379  0.1350
 2737TIP3    H1 8175   0.145   4.707   3.587 -0.0735  0.2266  1.2419
 2737TIP3    H2 8176   0.296   4.715   3.599 -0.0081 -0.8708  1.3293
 2738TIP3   OH2 8177   0.266   1.999   0.491  0.0103  0.5633 -0.3219
 2738TIP3    H1 8178   0.233   1.918   0.533 -0.0831  0.9537  0.3806
 2738TIP3    H2 8179   0.274   1.976   0.399 -2.6009  0.5357 -0.6213
 2739TIP3   OH2 8180   0.165   5.230   1.410 -0.2366  0.3600  0.1918
 2739TIP3    H1 8181   0.241   5.231   1.469  1.5776  0.2402 -2.0026
 2739TIP3    H2 8182   0.195   5.180   1.334 -3.5482 -2.3727  0.4466
 2740TIP3   OH2 8183   1.654   6.594   2.404  0.5090 -0.3220 -0.1909
 2740TIP3    H1 8184   1.604   6.658   2.354  1.6389 -1.6348 -3.2612
 2740TIP3    H2 8185   1.587   6.545   2.454 -1.0720 -0.5777 -2.4065
 2741TIP3   OH2 8186   4.913   4.865   5.698  0.2934 -0.0142 -0.3968
 2741TIP3    H1 8187   4.908   4.958   5.719  1.4188 -0.2245  0.9022
 2741TIP3    H2 8188   5.007   4.846   5.695  0.0756 -1.1348 -0.5657
 2742TIP3   OH2 8189   3.557   2.042   2.435  0.0615 -0.8070  0.1239
 2742TIP3    H1 8190   3.552   2.042   2.531  0.9717 -0.8011  0.1765
 2742TIP3    H2 8191   3.641   2.083   2.415 -0.5223  0.0365 -0.7138
 2743TIP3   OH2 8192  -0.008   3.425   2.336  0.5861  0.3665 -0.1910
 2743TIP3    H1 8193   0.002   3.344   2.287  2.0679 -0.1216  0.8531
 2743TIP3    H2 8194   0.042   3.490   2.287 -1.0912  0.8380 -1.3517
 2744TIP3   OH2 8195   5.449   6.420   0.368  0.1963  0.2168  0.1563
 2744TIP3    H1 8196   5.394   6.351   0.330  0.9384 -0.3825  0.1396
 2744TIP3    H2 8197   5.509   6.444   0.297  0.3655  0.4181  0.3664
 2745TIP3   OH2 8198   6.242   6.361   2.652 -0.0736 -0.2939  0.1004
 2745TIP3    H1 8199   6.218   6.289   2.711 -1.4064  0.0004 -0.0553
 2745TIP3    H2 8200   6.194   6.342   2.571  0.5002  0.1527 -0.3540
 2746TIP3   OH2 8201   0.731   0.069   1.520 -0.1733  0.7006  0.1583
 2746TIP3    H1 8202   0.771   0.030   1.442  0.7938  1.0310  0.4697
 2746TIP3    H2 8203   0.805   0.104   1.569 -0.9456  2.2086  0.2862
 2747TIP3   OH2 8204   6.443   0.013   4.878  0.5853  0.2326  0.0711
 2747TIP3    H1 8205   6.522   0.063   4.854  0.5343  0.0679 -0.4435
 2747TIP3    H2 8206   6.476  -0.075   4.897  0.3160 -0.3555 -1.9701
 2748TIP3   OH2 8207   0.026   0.255   4.844 -0.0676  0.2693 -0.1852
 2748TIP3    H1 8208  -0.004   0.340   4.812 -2.9413 -1.8110 -3.7917
 2748TIP3    H2 8209   0.104   0.235   4.792  0.7713  0.7207  0.8536
 2749TIP3   OH2 8210   3.658   0.038   5.545  0.0162  0.3936  0.4326
 2749TIP3    H1 8211   3.631   0.129   5.547  1.9594  1.0461  2.4210
 2749TIP3    H2 8212   3.713   0.030   5.467 -2.8158 -0.0571 -1.6522
 2750TIP3   OH2 8213   6.473   6.526   4.078 -0.2232  0.1523 -0.3867
 2750TIP3    H1 8214   6.437   6.597   4.027  0.5843  0.0990 -1.0586
 2750TIP3    H2 8215   6.427   6.448   4.048  0.9212 -0.0306 -1.7818
 2751TIP3   OH2 8216   1.342   5.591   1.960  0.1000  0.8402 -0.2393
 2751TIP3    H1 8217   1.305   5.671   1.997  0.4115  0.9213 -0.0981
 2751TIP3    H2 8218   1.310   5.590   1.869  0.6536  1.4888 -0.4517
 2752TIP3   OH2 8219   6.768   3.620   5.789 -0.0299  0.6320 -0.1323
 2752TIP3    H1 8220   6.695   3.670   5.754 -0.4749  1.0933  1.3981
 2752TIP3    H2 8221   6.846   3.660   5.751 -0.5099  0.7342 -1.0332
 2753TIP3   OH2 8222   0.566   4.223   4.340 -0.0395  0.0434 -0.5678
 2753TIP3    H1 8223   0.569   4.218   4.435  0.1813 -0.0211 -0.5789
 2753TIP3    H2 8224   0.605   4.307   4.319  0.9347 -0.4154 -0.6600
 2754TIP3   OH2 8225   4.991   3.197   2.761  0.4135  0.1914 -0.2821
 2754TIP3    H1 8226   4.948   3.135   2.820  0.4180 -0.5175 -1.0090
 2754TIP3    H2 8227   5.076   3.158   2.741  1.4807  1.6210  1.1988
 2755TIP3   OH2 8228   0.204   0.694   0.330 -0.2542 -0.1951  0.2164
 2755TIP3    H1 8229   0.127   0.728   0.376 -0.6527  0.0367 -0.6180
 2755TIP3    H2 8230   0.186   0.708   0.238  1.3938  1.1524  0.0494
 2756TIP3   OH2 8231   0.986   3.532   5.157 -0.0827 -0.3508  0.0357
 2756TIP3    H1 8232   0.915   3.521   5.220  0.8846 -1.2764  1.0138
 2756TIP3    H2 8233   0.957   3.484   5.079 -0.9689  0.1740  0.0288
 2757TIP3   OH2 8234   5.665   4.933   4.290 -0.1447  0.5892 -0.3427
 2757TIP3    H1 8235   5.739   4.883   4.255 -0.7326 -0.2304 -0.4711
 2757TIP3    H2 8236   5.598   4.925   4.221 -0.8972 -0.0323  0.4380
 2758TIP3   OH2 8237   1.321   3.093   4.033 -0.7598  0.3641 -0.0437
 2758TIP3    H1 8238   1.307   3.063   4.123  1.2626 -1.0030 -0.1150
 2758TIP3    H2 8239   1.316   3.013   3.981 -0.7172  0.9684 -0.9966
 2759TIP3   OH2 8240   6.965   2.278   0.128 -0.0006 -0.8253  0.7687
 2759TIP3    H1 8241   7.007   2.277   0.214 -0.1979 -3.6215  0.9141
 2759TIP3    H2 8242   6.929   2.367   0.120  2.5834  0.4988  2.2436
 2760TIP3   OH2 8243   1.802   4.411   3.027  0.3801  0.1091 -0.8091
 2760TIP3    H1 8244   1.827   4.431   2.937  0.6953  1.6294 -0.4083
 2760TIP3    H2 8245   1.761   4.324   3.022  2.9984 -1.1828 -1.9617
 2761TIP3   OH2 8246   4.266   0.053   5.235 -0.7535 -0.5098 -0.0981
 2761TIP3    H1 8247   4.248   0.127   5.294 -0.1644 -1.4381  1.2962
 2761TIP3    H2 8248   4.361   0.044   5.238 -0.8195 -1.2954 -0.2914
 2762TIP3   OH2 8249   1.625   3.849   3.364  0.4017  0.4708  0.4010
 2762TIP3    H1 8250   1.572   3.875   3.289 -0.4023 -1.4093  0.2669
 2762TIP3    H2 8251   1.669   3.930   3.391  0.1089  1.3504 -1.5830
 2763TIP3   OH2 8252   6.258   5.449   1.197  0.6125  0.1805 -0.4033
 2763TIP3    H1 8253   6.209   5.383   1.247  2.6714 -2.4944 -1.6770
 2763TIP3    H2 8254   6.303   5.500   1.264 -0.7881  0.1477  0.6195
 2764TIP3   OH2 8255   0.624   6.463   3.160 -0.5057 -0.0015 -0.3780
 2764TIP3    H1 8256   0.577   6.544   3.141 -2.5611 -1.0400  0.0349
 2764TIP3    H2 8257   0.673   6.482   3.240 -0.7827  0.8829 -0.4057
 2765TIP3   OH2 8258   2.219   2.029   2.305 -0.6212  0.8021 -0.5226
 2765TIP3    H1 8259   2.190   2.038   2.396  4.4148  0.6043  1.4568
 2765TIP3    H2 8260   2.191   1.942   2.279  3.4620 -2.2855  3.6999
 2766TIP3   OH2 8261   7.100   5.330   0.174 -0.4173  0.2337  0.0296
 2766TIP3    H1 8262   7.172   5.306   0.115 -1.8031 -0.9611 -1.2557
 2766TIP3    H2 8263   7.100   5.426   0.174  0.5849  0.2543 -0.6647
 2767TIP3   OH2 8264   6.134   2.117   3.170  0.1080  0.2664  0.7449
 2767TIP3    H1 8265   6.083   2.066   3.107  1.2400 -0.5002  0.4215
 2767TIP3    H2 8266   6.139   2.204   3.131  0.7527 -0.1877 -0.2409
 2768TIP3   OH2 8267   2.309   3.429   1.626  0.1470  0.4197  0.1327
 2768TIP3    H1 8268   2.299   3.334   1.618  1.5522  0.3182 -0.9319
 2768TIP3    H2 8269   2.288   3.463   1.539  1.3669  0.8780 -0.0068
 2769TIP3   OH2 8270   2.174   3.998   5.553  0.2220 -0.1760  0.8897
 2769TIP3    H1 8271   2.084   3.966   5.557 -0.2596  1.1628  1.0090
 2769TIP3    H2 8272   2.182   4.057   5.627  0.8280  0.6345  0.1993
 2770TIP3   OH2 8273   6.445   2.299   2.492  0.2257 -0.2827 -0.4400
 2770TIP3    H1 8274   6.502   2.258   2.426  2.3205  1.5045  0.1323
 2770TIP3    H2 8275   6.437   2.233   2.561  0.9806 -0.8730 -0.8979
 2771TIP3   OH2 8276   0.276   0.508   1.824  0.4380  0.4505  0.0598
 2771TIP3    H1 8277   0.327   0.581   1.859  1.7065 -0.6875  0.6628
 2771TIP3    H2 8278   0.214   0.486   1.893 -0.6179  1.5392 -0.4972
 2772TIP3   OH2 8279   6.936   0.177   3.765 -0.5061  0.1385  0.0190
 2772TIP3    H1 8280   6.892   0.199   3.683 -0.6865  0.1291  0.1138
 2772TIP3    H2 8281   6.962   0.262   3.801 -1.0529  0.1902  0.3016
 2773TIP3   OH2 8282   4.717   6.644   2.508 -0.0408 -0.1163 -0.5680
 2773TIP3    H1 8283   4.680   6.560   2.537  0.0438  0.0976  0.1839
 2773TIP3    H2 8284   4.723   6.636   2.413 -2.6641  0.0919 -0.8447
 2774TIP3   OH2 8285   5.866   0.734   3.256  0.3033  0.2819 -0.1094
 2774TIP3    H1 8286   5.949   0.693   3.282  0.1176 -1.7664 -2.3324
 2774TIP3    H2 8287   5.887   0.780   3.175 -0.4526  0.8982  0.0447
 2775TIP3   OH2 8288   4.554   6.329   4.640  0.6355  0.1759  0.5327
 2775TIP3    H1 8289   4.547   6.250   4.588  0.7413  0.5392 -0.0419
 2775TIP3    H2 8290   4.567   6.399   4.576 -2.3058  1.0904  0.7948
 2776TIP3   OH2 8291   4.491   3.066   4.682  0.1421  0.0477  0.1533
 2776TIP3    H1 8292   4.513   3.071   4.775  0.9909 -0.2893 -0.0231
 2776TIP3    H2 8293   4.396   3.053   4.681  0.0605  0.5181  0.9575
 2777TIP3   OH2 8294   0.629   4.479   3.347  0.3026  0.4735  0.3973
 2777TIP3    H1 8295   0.547   4.459   3.302  0.2675  0.7382  0.3444
 2777TIP3    H2 8296   0.660   4.394   3.379 -0.7490  0.5547  1.7032
 2778TIP3   OH2 8297   2.995   2.986   5.233  0.2194 -0.1854 -0.3032
 2778TIP3    H1 8298   2.937   2.942   5.295 -0.7515  0.5687 -0.6535
 2778TIP3    H2 8299   3.063   2.921   5.214 -0.3679 -1.0002  0.2993
 2779TIP3   OH2 8300   4.101   6.040   0.489 -0.1574 -0.0797  0.5421
 2779TIP3    H1 8301   4.018   6.059   0.532 -0.5099 -0.0311 -0.1431
 2779TIP3    H2 8302   4.100   6.094   0.410 -1.7319 -3.5516 -2.1251
 2780TIP3   OH2 8303   4.025   1.067   5.178  0.5313 -0.6546 -0.4580
 2780TIP3    H1 8304   3.999   0.981   5.147 -1.9126  0.0309 -0.5527
 2780TIP3    H2 8305   3.958   1.126   5.142  0.2900  0.8269  2.1776
 2781TIP3   OH2 8306   4.193   1.084   4.035  0.2156 -0.0061 -0.0384
 2781TIP3    H1 8307   4.264   1.032   3.997  0.3336  0.5408 -0.5915
 2781TIP3    H2 8308   4.238   1.161   4.070  0.1015 -0.4777  1.1751
 2782TIP3   OH2 8309   6.844   5.844   0.875 -0.2689  0.4686  0.1632
 2782TIP3    H1 8310   6.860   5.930   0.837 -1.1765  0.0854 -1.1565
 2782TIP3    H2 8311   6.838   5.785   0.800  0.0576 -0.7073  1.0246
 2783TIP3   OH2 8312   6.580   2.722   0.202 -0.2253 -0.2124  0.6828
 2783TIP3    H1 8313   6.674   2.711   0.220  0.2161  0.0224 -1.2604
 2783TIP3    H2 8314   6.545   2.758   0.283  1.6422  1.0093  1.0339
 2784TIP3   OH2 8315   5.417   1.609   4.557  0.3510  0.2660  0.2463
 2784TIP3    H1 8316   5.354   1.611   4.485 -0.6561 -1.3503  1.0173
 2784TIP3    H2 8317   5.364   1.597   4.635  1.6174 -2.7066  0.7894
 2785TIP3   OH2 8318   5.032   1.485   5.624  0.4264  0.4229 -0.1486
 2785TIP3    H1 8319   5.111   1.434   5.605  0.8087  1.0002 -0.1590
 2785TIP3    H2 8320   5.046   1.519   5.713  1.2918  2.4595 -0.9983
 2786TIP3   OH2 8321   1.138   0.941   0.294 -0.4449  0.0717  0.3765
 2786TIP3    H1 8322   1.057   0.906   0.257 -0.9538  2.4376 -0.9602
 2786TIP3    H2 8323   1.194   0.956   0.218  0.6191  0.0278  1.1303
 2787TIP3   OH2 8324   2.289   6.264   2.114  0.6078  0.6161  0.1005
 2787TIP3    H1 8325   2.245   6.255   2.199  0.8315 -0.1453  0.1515
 2787TIP3    H2 8326   2.255   6.191   2.062  1.1003  0.5834 -0.1776
 2788TIP3   OH2 8327   1.413   0.634   4.295  0.4107  0.4371 -0.0460
 2788TIP3    H1 8328   1.414   0.592   4.381 -0.1207  1.6114  0.5683
 2788TIP3    H2 8329   1.457   0.572   4.237  0.5604 -0.4890  1.0189
 2789TIP3   OH2 8330   1.690   6.143   2.117 -0.6933  0.2679  0.2800
 2789TIP3    H1 8331   1.733   6.135   2.032 -1.4076  1.0774 -0.1739
 2789TIP3    H2 8332   1.642   6.062   2.128 -0.8077  0.2672 -0.2135
 2790TIP3   OH2 8333   2.472   1.013   4.867  0.4093  0.2271  0.1367
 2790TIP3    H1 8334   2.467   0.918   4.876 -2.9163  0.2483  0.0691
 2790TIP3    H2 8335   2.489   1.027   4.774  1.8937 -0.2431  0.3114
 2791TIP3   OH2 8336   0.068   5.717   4.382  0.0426  0.8246  0.1523
 2791TIP3    H1 8337   0.002   5.746   4.319 -0.6861  0.2297  0.6279
 2791TIP3    H2 8338   0.020   5.660   4.443  0.6598  1.6277  1.4281
 2792TIP3   OH2 8339   2.825   0.585   0.819 -0.2912 -0.3025  0.0542
 2792TIP3    H1 8340   2.771   0.573   0.896 -0.5980 -1.9913 -0.3766
 2792TIP3    H2 8341   2.834   0.680   0.810 -1.9258 -0.0188  0.9893
 2793TIP3   OH2 8342   4.508   4.632   2.006  0.2212 -0.6468 -0.2620
 2793TIP3    H1 8343   4.556   4.565   1.957  0.9360 -0.3269 -0.0160
 2793TIP3    H2 8344   4.496   4.703   1.943  2.0712  0.2091  0.2642
 2794TIP3   OH2 8345   0.069   1.601   1.924 -0.3375  0.1952 -0.1675
 2794TIP3    H1 8346   0.029   1.612   1.838  1.1815 -0.2732 -0.9718
 2794TIP3    H2 8347   0.103   1.512   1.924  1.0499  0.6943  0.3116
 2795TIP3   OH2 8348   3.065   0.653   3.079 -0.1236 -0.5063  0.3246
 2795TIP3    H1 8349   2.983   0.692   3.048 -0.0766 -0.3817  0.3543
 2795TIP3    H2 8350   3.052   0.559   3.071 -0.8072 -0.5532  1.6468
 2796TIP3   OH2 8351   3.406   5.183   4.808 -0.7384 -0.5941 -0.0310
 2796TIP3    H1 8352   3.318   5.215   4.828 -0.7302  0.3129 -1.3696
 2796TIP3    H2 8353   3.402   5.157   4.716  0.7148  0.6042 -0.4712
 2797TIP3   OH2 8354   2.864   5.968   4.145 -0.5589 -0.1070  0.5095
 2797TIP3    H1 8355   2.873   6.053   4.188  0.3379  0.4640 -0.7550
 2797TIP3    H2 8356   2.940   5.962   4.087 -2.5035 -0.1188 -2.2306
 2798TIP3   OH2 8357   4.254   3.440   4.080  0.6103 -0.5103  0.5596
 2798TIP3    H1 8358   4.255   3.387   4.000  1.6489 -0.1805  0.3478
 2798TIP3    H2 8359   4.241   3.377   4.150 -2.4756 -0.6438  0.0465
 2799TIP3   OH2 8360   2.446   3.180   1.796  0.0325 -0.6160 -0.0780
 2799TIP3    H1 8361   2.516   3.158   1.735 -0.5384  1.0317 -1.3941
 2799TIP3    H2 8362   2.367   3.185   1.742 -0.6945 -0.2410  0.9835
 2800TIP3   OH2 8363   5.603   6.179   4.309 -0.0849 -0.5512  0.1752
 2800TIP3    H1 8364   5.698   6.174   4.303  0.0059 -2.6083  1.9161
 2800TIP3    H2 8365   5.585   6.263   4.349  1.0185 -0.3245  0.2153
 2801TIP3   OH2 8366   2.708   0.424   2.897 -0.1478 -0.0662 -0.6749
 2801TIP3    H1 8367   2.741   0.445   2.810 -0.4411 -0.3839 -0.8621
 2801TIP3    H2 8368   2.785   0.433   2.954  0.4374 -1.4518 -1.1971
 2802TIP3   OH2 8369   5.831   4.559   5.828  0.4252  0.3524 -0.2386
 2802TIP3    H1 8370   5.736   4.558   5.816  0.5525  0.8556 -1.3285
 2802TIP3    H2 8371   5.843   4.529   5.919 -0.8398  1.6587  0.3961
 2803TIP3   OH2 8372   3.527   1.282   4.355  0.1742 -0.7865  0.0751
 2803TIP3    H1 8373   3.595   1.347   4.336  1.2459 -1.0546  2.6132
 2803TIP3    H2 8374   3.471   1.323   4.420 -1.5939 -0.9562 -1.2542
 2804TIP3   OH2 8375   6.129   6.297   5.138 -0.4416  0.8920 -0.5608
 2804TIP3    H1 8376   6.049   6.328   5.180 -0.2552  0.1552  0.3716
 2804TIP3    H2 8377   6.113   6.204   5.121  0.5428  0.5032  0.4839
 2805TIP3   OH2 8378   3.844   2.324   0.867  0.6801 -0.0658  0.5219
 2805TIP3    H1 8379   3.788   2.344   0.792 -0.0517  0.5372  1.2128
 2805TIP3    H2 8380   3.878   2.236   0.849 -1.1578 -0.8207  0.4623
 2806TIP3   OH2 8381   0.148   3.491   1.035 -0.7718 -0.3518 -0.8244
 2806TIP3    H1 8382   0.138   3.548   0.959 -0.7893 -0.4939 -0.9290
 2806TIP3    H2 8383   0.110   3.407   1.007 -2.1866  0.0247 -0.1481
 2807TIP3   OH2 8384   2.510   2.373   2.615 -0.5590 -0.2771 -0.6590
 2807TIP3    H1 8385   2.492   2.462   2.644 -0.9576  0.4010 -2.8226
 2807TIP3    H2 8386   2.541   2.328   2.694 -1.1466  1.5269  0.6649
 2808TIP3   OH2 8387   6.690   2.133   2.122 -1.3234 -0.1790  0.1079
 2808TIP3    H1 8388   6.683   2.228   2.118  3.3659  0.4083  0.5823
 2808TIP3    H2 8389   6.687   2.104   2.031 -1.4734  0.5646 -0.1248
 2809TIP3   OH2 8390   5.434   1.261   5.147 -0.0462  0.0686 -0.4240
 2809TIP3    H1 8391   5.386   1.240   5.068 -0.9716  0.1098  0.1124
 2809TIP3    H2 8392   5.452   1.176   5.188  0.7791  0.0180 -0.8554
 2810TIP3   OH2 8393   2.653   2.291   5.118  0.0966  0.1202  0.5920
 2810TIP3    H1 8394   2.643   2.385   5.104  1.0078  0.1386  0.0235
 2810TIP3    H2 8395   2.741   2.281   5.153  0.7123 -0.6814 -1.0735
 2811TIP3   OH2 8396   6.010   1.489   2.013  0.0916  0.8088  0.2977
 2811TIP3    H1 8397   6.099   1.507   1.984  0.4449 -0.3573  0.5917
 2811TIP3    H2 8398   5.957   1.498   1.934  0.4356  1.6830  0.1555
 2812TIP3   OH2 8399   0.034   4.583   2.988  0.0252  0.0514  0.0950
 2812TIP3    H1 8400   0.004   4.567   2.898 -1.5487  0.9482  0.4402
 2812TIP3    H2 8401  -0.036   4.550   3.043  0.4626  0.5680  0.9798
 2813TIP3   OH2 8402   5.057   5.898   1.956  0.3010  0.4682  0.1514
 2813TIP3    H1 8403   5.012   5.851   2.026  1.2123  0.7595  0.9474
 2813TIP3    H2 8404   4.988   5.953   1.917 -1.0738 -2.2228 -1.5392
 2814TIP3   OH2 8405   4.228   2.320   2.461 -0.0749 -0.3281 -0.2517
 2814TIP3    H1 8406   4.320   2.306   2.482 -0.1504 -1.5070 -0.6021
 2814TIP3    H2 8407   4.228   2.355   2.372  0.1065  1.7471  0.5165
 2815TIP3   OH2 8408   6.827   4.076   1.727  0.2864  0.4802  1.0346
 2815TIP3    H1 8409   6.843   3.999   1.780 -1.0668 -0.3765  0.2804
 2815TIP3    H2 8410   6.877   4.061   1.647  1.3052  1.1673  1.5238
 2816TIP3   OH2 8411   0.110   4.904   0.247 -0.6720  0.5089 -0.3034
 2816TIP3    H1 8412   0.146   4.992   0.239  0.1697 -0.0021 -2.9676
 2816TIP3    H2 8413   0.121   4.882   0.340  3.0615  1.5802 -0.3392
 2817TIP3   OH2 8414   1.135   2.081   4.414  0.7289  0.1840 -0.2800
 2817TIP3    H1 8415   1.049   2.039   4.404 -0.0400  2.0426 -2.1301
 2817TIP3    H2 8416   1.166   2.052   4.500 -1.5690 -0.8429  0.2745
 2818TIP3   OH2 8417   6.958   3.439   2.435  0.2458 -0.9601 -0.0803
 2818TIP3    H1 8418   6.947   3.356   2.482 -1.1579 -2.2071 -2.4344
 2818TIP3    H2 8419   7.047   3.436   2.400  0.0909 -1.6381 -0.4259
 2819TIP3   OH2 8420   5.731   2.871   3.689 -0.2483  0.2873  0.0565
 2819TIP3    H1 8421   5.728   2.797   3.750 -0.6182 -0.2947 -0.6594
 2819TIP3    H2 8422   5.781   2.938   3.736 -0.9265  0.0277  1.1846
 2820TIP3   OH2 8423   5.904   0.743   0.050 -0.3044  0.4876  0.0302
 2820TIP3    H1 8424   5.818   0.783   0.039 -0.3917 -0.1508 -2.1927
 2820TIP3    H2 8425   5.887   0.655   0.083 -0.6421 -0.0724 -1.5512
 2821TIP3   OH2 8426   6.045   4.671   3.079 -0.1936  0.0515  0.1778
 2821TIP3    H1 8427   5.990   4.627   3.143  0.0638 -0.3058  0.1600
 2821TIP3    H2 8428   5.984   4.715   3.020 -0.4840 -0.9528 -0.2849
 2822TIP3   OH2 8429   6.521   3.776   0.498  0.2420 -0.5372  0.5850
 2822TIP3    H1 8430   6.473   3.726   0.431 -0.2532 -0.9715  1.2469
 2822TIP3    H2 8431   6.545   3.710   0.563  3.9246 -0.8563 -0.8400
 2823TIP3   OH2 8432   6.012   6.564   2.684  0.3994 -0.0751 -0.4741
 2823TIP3    H1 8433   6.085   6.505   2.700 -0.0411 -0.0989  1.8314
 2823TIP3    H2 8434   5.940   6.507   2.658  1.0251 -0.0996 -2.2510
 2824TIP3   OH2 8435   0.727   4.381   0.383  0.0646 -0.2796 -0.1285
 2824TIP3    H1 8436   0.770   4.296   0.397 -1.5073 -1.1286 -0.2476
 2824TIP3    H2 8437   0.655   4.362   0.324 -0.6961  1.0346  0.3468
 2825TIP3   OH2 8438   6.377   4.482   4.108  0.0836 -0.0154 -0.0151
 2825TIP3    H1 8439   6.409   4.567   4.138  0.4165  0.4243 -1.5561
 2825TIP3    H2 8440   6.282   4.491   4.107 -0.0824 -0.5903  2.4009
 2826TIP3   OH2 8441   3.677   1.506   4.255  0.4430  0.4392 -0.2200
 2826TIP3    H1 8442   3.744   1.486   4.190  1.4467  0.8423  0.6529
 2826TIP3    H2 8443   3.604   1.541   4.204  0.4500 -1.0453 -1.2970
 2827TIP3   OH2 8444   0.030   4.759   1.402 -0.1046 -0.0665  0.0738
 2827TIP3    H1 8445   0.106   4.713   1.367 -0.2652 -0.8419  0.7128
 2827TIP3    H2 8446   0.053   4.780   1.492 -0.5326 -0.0274  0.1777
 2828TIP3   OH2 8447   4.282   3.909   5.094 -0.4415  0.2841 -0.3133
 2828TIP3    H1 8448   4.255   3.838   5.152 -1.4123  0.1219 -0.9512
 2828TIP3    H2 8449   4.244   3.988   5.133  2.2159  0.8093  1.4807
 2829TIP3   OH2 8450   0.514   2.549   3.339  0.9126  0.2415  0.1442
 2829TIP3    H1 8451   0.457   2.568   3.265 -1.9733  1.1117  2.4064
 2829TIP3    H2 8452   0.522   2.632   3.385  2.3550 -0.3410  1.0085
 2830TIP3   OH2 8453   5.463   5.353   4.885  0.2215 -0.4055 -0.3705
 2830TIP3    H1 8454   5.508   5.272   4.862  0.0660 -0.2985 -1.0952
 2830TIP3    H2 8455   5.463   5.403   4.803 -0.1763  0.0849 -0.0707
 2831TIP3   OH2 8456   2.820   2.743   4.508 -0.5578 -0.2535  0.1331
 2831TIP3    H1 8457   2.834   2.763   4.416  0.8064 -0.2416  0.3198
 2831TIP3    H2 8458   2.881   2.671   4.527 -0.3042  0.2108  1.1789
 2832TIP3   OH2 8459   0.980   1.252   4.018  0.0755 -0.2003  0.0784
 2832TIP3    H1 8460   1.022   1.220   3.939  0.8397  0.0524  0.3726
 2832TIP3    H2 8461   0.893   1.211   4.018  0.6825 -1.5302 -0.0360
 2833TIP3   OH2 8462   6.098   1.197   4.735 -0.2584 -0.1443 -0.2780
 2833TIP3    H1 8463   6.002   1.199   4.735 -0.2833 -1.0533 -0.1872
 2833TIP3    H2 8464   6.123   1.275   4.685 -1.0108  0.9262  0.9365
 2834TIP3   OH2 8465   4.468   5.443   0.467 -0.0397 -0.2479  0.1774
 2834TIP3    H1 8466   4.450   5.517   0.525  1.9398  0.2309  0.2538
 2834TIP3    H2 8467   4.407   5.455   0.394 -0.2931  1.0207  0.5598
 2835TIP3   OH2 8468   5.827   0.086   1.327  0.0869  0.1177 -0.1492
 2835TIP3    H1 8469   5.803  -0.006   1.325 -0.1704  0.1931 -0.6697
 2835TIP3    H2 8470   5.897   0.091   1.392  0.8861 -0.6404 -0.9236
 2836TIP3   OH2 8471   3.996   1.807   0.806  0.0115 -0.3442  0.0609
 2836TIP3    H1 8472   4.085   1.795   0.839 -0.0868 -0.2223  0.3716
 2836TIP3    H2 8473   3.944   1.743   0.855 -0.2410  0.2546  0.5890
 2837TIP3   OH2 8474   5.741   1.492   2.546 -0.3094 -0.3247  0.0936
 2837TIP3    H1 8475   5.833   1.498   2.521 -0.3549  0.5067  0.0680
 2837TIP3    H2 8476   5.738   1.526   2.636 -0.4826 -1.0739  0.3778
 2838TIP3   OH2 8477   5.763   2.189   4.719 -0.0373 -0.3388 -0.9980
 2838TIP3    H1 8478   5.729   2.145   4.641  0.1098 -0.5696 -0.9322
 2838TIP3    H2 8479   5.785   2.118   4.779 -1.2328 -0.1324 -0.2934
 2839TIP3   OH2 8480   6.053   2.484   3.648  0.2676  0.6225  0.3055
 2839TIP3    H1 8481   6.122   2.431   3.608  0.1628 -1.1737  2.3378
 2839TIP3    H2 8482   6.089   2.512   3.732 -0.6694  1.5197  0.4298
 2840TIP3   OH2 8483   0.521   5.504   4.640 -0.0431  0.1331  0.4675
 2840TIP3    H1 8484   0.542   5.504   4.547  2.0000 -1.5678  0.8471
 2840TIP3    H2 8485   0.445   5.445   4.647  0.7508 -0.9933  0.0018
 2841TIP3   OH2 8486   1.863   4.611   3.678 -0.3128  0.1016 -0.2598
 2841TIP3    H1 8487   1.823   4.692   3.708 -0.3989  0.1251 -0.4391
 2841TIP3    H2 8488   1.956   4.619   3.702 -0.3424  0.2028 -0.1775
 2842TIP3   OH2 8489   2.356   4.020   3.516  0.6933  0.2753 -0.2091
 2842TIP3    H1 8490   2.372   4.114   3.526 -1.6870  0.6963  0.2647
 2842TIP3    H2 8491   2.316   4.011   3.430  1.4794 -0.4157 -0.5147
 2843TIP3   OH2 8492   5.511   3.844   0.310  0.1656 -0.9217  0.0260
 2843TIP3    H1 8493   5.448   3.913   0.329  0.9825 -0.5758  1.5942
 2843TIP3    H2 8494   5.554   3.872   0.229  0.5785  0.4950  0.7046
 2844TIP3   OH2 8495   4.219   5.721   5.627 -0.0710 -0.2239  0.5826
 2844TIP3    H1 8496   4.199   5.777   5.701 -0.1760  2.0671 -1.0788
 2844TIP3    H2 8497   4.135   5.682   5.602 -0.5372  1.0441  0.1105
 2845TIP3   OH2 8498   1.698   4.529   1.681  0.1079 -0.2474  0.6443
 2845TIP3    H1 8499   1.759   4.462   1.651  1.7397  1.9572 -1.3295
 2845TIP3    H2 8500   1.709   4.530   1.776  2.6389 -0.4666  0.4279
 2846TIP3   OH2 8501   4.467   0.391   2.492 -0.1961 -0.0281 -0.0384
 2846TIP3    H1 8502   4.394   0.391   2.430  1.6281 -0.9953 -2.3157
 2846TIP3    H2 8503   4.496   0.482   2.494  0.6975 -0.2185 -1.9202
 2847TIP3   OH2 8504   6.413   4.831   3.183 -0.3471  0.1854  0.7561
 2847TIP3    H1 8505   6.426   4.854   3.091  2.1307 -1.8984  0.5048
 2847TIP3    H2 8506   6.485   4.874   3.229  0.0396 -1.0427  1.3191
 2848TIP3   OH2 8507   6.652   1.237   1.638 -0.0906  0.2114 -0.6785
 2848TIP3    H1 8508   6.559   1.248   1.619  0.0363  1.1323 -0.7986
 2848TIP3    H2 8509   6.661   1.263   1.730  0.2176  1.1451 -0.9662
 2849TIP3   OH2 8510  -0.005   4.027   2.283  0.1703 -0.3917  0.4394
 2849TIP3    H1 8511   0.086   4.046   2.306 -0.4678  1.3601  1.7468
 2849TIP3    H2 8512  -0.021   3.940   2.318  1.6938 -1.2866 -0.9585
 2850TIP3   OH2 8513   4.507   3.922   2.447 -0.0013  0.4085 -0.2777
 2850TIP3    H1 8514   4.461   3.983   2.505  1.2762  1.3946 -0.2518
 2850TIP3    H2 8515   4.559   3.868   2.507  1.3212  1.4284 -0.4640
 2851TIP3   OH2 8516   1.673   4.537   1.156 -0.2596  0.5880  0.1282
 2851TIP3    H1 8517   1.610   4.577   1.216 -0.2417  2.2749 -0.9145
 2851TIP3    H2 8518   1.654   4.577   1.071  1.0410 -0.2195 -0.5712
 2852TIP3   OH2 8519   4.544   1.235   2.104 -0.4379  0.5344  0.5583
 2852TIP3    H1 8520   4.561   1.177   2.178 -1.4898  0.3796  0.6884
 2852TIP3    H2 8521   4.536   1.176   2.029 -0.2412  0.6211  0.4680
 2853TIP3   OH2 8522   0.669   5.701   2.304  0.1995  0.5014  0.3700
 2853TIP3    H1 8523   0.582   5.675   2.274 -0.0540  0.5846  1.0171
 2853TIP3    H2 8524   0.729   5.646   2.253 -0.2619 -0.1362  0.4952
 2854TIP3   OH2 8525   4.921   6.240   3.229 -0.1851 -0.1249 -0.4022
 2854TIP3    H1 8526   4.998   6.193   3.259 -0.4017  0.2173  0.7912
 2854TIP3    H2 8527   4.954   6.323   3.194  0.1798 -1.0481 -2.3512
 2855TIP3   OH2 8528   0.633   3.878   5.714  0.4764 -0.5486  0.1747
 2855TIP3    H1 8529   0.592   3.945   5.769  0.9590  0.7552 -0.9730
 2855TIP3    H2 8530   0.654   3.924   5.632  0.9720 -2.0787 -0.6013
 2856TIP3   OH2 8531   4.228   5.840   0.663 -0.4437  0.7495  0.4870
 2856TIP3    H1 8532   4.161   5.863   0.727 -0.2815 -0.0581  0.9735
 2856TIP3    H2 8533   4.218   5.904   0.593 -0.7420  1.5484  1.2390
 2857TIP3   OH2 8534   6.503   4.398   1.713  0.0146  0.0389  0.2119
 2857TIP3    H1 8535   6.494   4.303   1.720  0.4547  0.0648  1.3090
 2857TIP3    H2 8536   6.583   4.412   1.662 -0.7762 -0.1647 -1.1293
 2858TIP3   OH2 8537   5.808   5.131   3.081 -0.0072  0.3106 -0.1277
 2858TIP3    H1 8538   5.764   5.103   3.162  1.5199  0.8304  0.9285
 2858TIP3    H2 8539   5.822   5.225   3.093  0.4454  0.3481 -0.8928
 2859TIP3   OH2 8540   1.819   2.371   2.674 -0.9427 -0.2632 -0.0731
 2859TIP3    H1 8541   1.837   2.401   2.763 -0.9856 -0.6089  0.0557
 2859TIP3    H2 8542   1.869   2.429   2.618  1.2255 -1.6661  0.2959
 2860TIP3   OH2 8543   5.989   1.141   2.434  0.5844  0.6860 -0.0859
 2860TIP3    H1 8544   6.083   1.149   2.447  0.9401 -0.9057 -1.3625
 2860TIP3    H2 8545   5.965   1.216   2.379  0.9869  1.4059  0.7064
 2861TIP3   OH2 8546   4.966   1.020   0.197  0.1486 -0.5345 -0.2356
 2861TIP3    H1 8547   4.923   0.997   0.279 -0.6507  0.6220 -0.3185
 2861TIP3    H2 8548   4.932   0.958   0.133  1.3615 -1.9564  0.4274
 2862TIP3   OH2 8549   3.348   1.086   2.348 -0.2096  0.1168  0.1732
 2862TIP3    H1 8550   3.359   1.094   2.443 -0.4506 -1.2395  0.3308
 2862TIP3    H2 8551   3.428   1.125   2.312 -1.3676  3.3095  0.7843
 2863TIP3   OH2 8552   2.279   4.401   1.168  0.4669  0.3410  1.0364
 2863TIP3    H1 8553   2.325   4.483   1.155 -0.5967  1.1017  1.8667
 2863TIP3    H2 8554   2.255   4.373   1.080  0.4520  1.1517  0.7742
 2864TIP3   OH2 8555   6.757   3.074   4.577 -0.1156  0.0256 -0.8627
 2864TIP3    H1 8556   6.812   3.068   4.656  0.1580 -0.5982 -1.0905
 2864TIP3    H2 8557   6.816   3.051   4.506 -0.4464  0.2711 -1.2178
 2865TIP3   OH2 8558   2.540   3.317   4.994  0.3909 -0.3008 -0.0869
 2865TIP3    H1 8559   2.577   3.405   4.999 -2.3756  0.9765 -0.5817
 2865TIP3    H2 8560   2.517   3.306   4.902 -0.7445 -0.8884  0.2524
 2866TIP3   OH2 8561   0.686   5.112   4.098 -0.1586 -0.4735 -0.8525
 2866TIP3    H1 8562   0.769   5.159   4.109 -1.0095  0.7635  0.7034
 2866TIP3    H2 8563   0.626   5.176   4.061 -0.5917 -1.1974 -1.4349
 2867TIP3   OH2 8564   1.309   1.091   1.810  0.2110 -0.3869 -0.3770
 2867TIP3    H1 8565   1.263   1.143   1.744 -0.4523  0.7138  0.8882
 2867TIP3    H2 8566   1.290   1.000   1.788 -1.1997  0.0060 -0.8434
 2868TIP3   OH2 8567   4.232   0.390   5.724  0.1774  0.4304 -0.3332
 2868TIP3    H1 8568   4.274   0.355   5.645 -0.1951 -2.1703  0.5312
 2868TIP3    H2 8569   4.163   0.328   5.744  0.4966  0.8035  2.2530
 2869TIP3   OH2 8570   5.386   1.271   4.138 -0.2593 -0.0909 -0.1377
 2869TIP3    H1 8571   5.419   1.186   4.111 -0.3451  0.0656 -0.7753
 2869TIP3    H2 8572   5.394   1.273   4.233  2.1605  0.1861 -0.3021
 2870TIP3   OH2 8573   6.337   4.581   3.134 -0.1234  0.3900 -0.5729
 2870TIP3    H1 8574   6.406   4.540   3.185 -1.1949  0.2875  0.8483
 2870TIP3    H2 8575   6.363   4.672   3.125 -0.6310  0.7959  1.5364
 2871TIP3   OH2 8576   6.776   3.017   1.532  0.1868  0.7888 -0.1793
 2871TIP3    H1 8577   6.766   3.111   1.552  1.8086  0.6676  1.6129
 2871TIP3    H2 8578   6.726   2.973   1.601  2.0234  0.3780  0.9863
 2872TIP3   OH2 8579   2.682   5.167   5.705  0.5639  0.6270 -0.3876
 2872TIP3    H1 8580   2.749   5.233   5.684  0.4664  1.0506  0.5571
 2872TIP3    H2 8581   2.603   5.199   5.662  0.8347  0.4000 -1.0718
 2873TIP3   OH2 8582   0.450   5.599   2.132 -0.9005  0.5299 -0.2363
 2873TIP3    H1 8583   0.399   5.520   2.116 -0.8288  1.0909 -4.2729
 2873TIP3    H2 8584   0.446   5.647   2.049  0.9803  3.6564  1.3132
 2874TIP3   OH2 8585   0.233  -0.028   1.231  0.5920  0.4534  0.1377
 2874TIP3    H1 8586   0.318  -0.006   1.267  0.3099  0.9428  0.5147
 2874TIP3    H2 8587   0.211   0.045   1.173  0.4543  0.3022 -0.0047
 2875TIP3   OH2 8588   3.931   5.200   4.725  0.0142 -0.0449 -0.7946
 2875TIP3    H1 8589   3.930   5.283   4.678  0.2243  0.1307 -0.4960
 2875TIP3    H2 8590   3.851   5.155   4.698 -0.1368  0.2879 -0.8998
 2876TIP3   OH2 8591   2.817   5.295   0.607  0.7386 -0.2909 -0.0645
 2876TIP3    H1 8592   2.729   5.313   0.574  0.8866  2.0729  0.6043
 2876TIP3    H2 8593   2.861   5.249   0.536 -0.5633 -0.0875 -1.0453
 2877TIP3   OH2 8594   2.235   0.243   1.551 -0.4041  0.6946  0.2349
 2877TIP3    H1 8595   2.163   0.187   1.523  0.3998  0.2590 -1.0778
 2877TIP3    H2 8596   2.207   0.331   1.527 -0.9041  0.6510  0.6340
 2878TIP3   OH2 8597   6.300   5.894   4.290  0.1689 -0.3663  0.3504
 2878TIP3    H1 8598   6.377   5.932   4.331  0.0137 -1.2447  1.4946
 2878TIP3    H2 8599   6.255   5.847   4.361 -1.1152 -0.3449 -0.4089
 2879TIP3   OH2 8600   3.337   2.029   1.292 -0.1049  0.1300 -0.4642
 2879TIP3    H1 8601   3.287   2.021   1.373  0.1710 -0.4887 -0.3536
 2879TIP3    H2 8602   3.406   2.092   1.313  0.6057 -0.8180  0.1074
 2880TIP3   OH2 8603   6.551   5.338   1.383  0.1343 -0.2047 -0.2359
 2880TIP3    H1 8604   6.557   5.243   1.393  0.4909 -0.2138 -0.5029
 2880TIP3    H2 8605   6.635   5.371   1.414  0.3779 -0.0568 -1.0252
 2881TIP3   OH2 8606   6.866   0.395   2.438 -0.3233  0.4859  0.2864
 2881TIP3    H1 8607   6.790   0.415   2.383  0.8169  0.4121 -1.4166
 2881TIP3    H2 8608   6.926   0.468   2.423  0.7365 -0.4000  0.0108
 2882TIP3   OH2 8609   1.944   6.683   4.279  0.0793  0.0686 -0.3157
 2882TIP3    H1 8610   1.954   6.775   4.251  1.3444 -0.6564 -2.5550
 2882TIP3    H2 8611   2.022   6.666   4.332 -1.1314  0.7723  1.8014
 2883TIP3   OH2 8612   2.935   5.008   1.875  0.1633 -0.2468  0.5439
 2883TIP3    H1 8613   2.862   5.010   1.937 -0.5620  0.9011 -0.3132
 2883TIP3    H2 8614   2.894   5.010   1.789  1.1723  1.3579  0.0455
 2884TIP3   OH2 8615   4.832   4.495   0.024 -0.2119 -0.1532  0.3833
 2884TIP3    H1 8616   4.802   4.520   0.111 -1.6391 -0.0703 -0.1036
 2884TIP3    H2 8617   4.819   4.574  -0.029 -0.0128 -0.4140 -0.0601
 2885TIP3   OH2 8618   6.206   0.816   3.490  0.5884  0.0386  0.0531
 2885TIP3    H1 8619   6.148   0.858   3.554  0.4286 -0.3494  0.1658
 2885TIP3    H2 8620   6.166   0.730   3.474 -0.3599  0.7924 -1.8978
 2886TIP3   OH2 8621   0.130   0.691   0.063 -0.1630 -0.3068  0.2491
 2886TIP3    H1 8622   0.051   0.644   0.092 -0.8030  1.0204  0.7690
 2886TIP3    H2 8623   0.171   0.632   0.001 -2.4441 -0.3999 -1.3089
 2887TIP3   OH2 8624   6.610   4.180   3.918 -0.6314  0.3027 -0.2112
 2887TIP3    H1 8625   6.697   4.156   3.886 -0.7992 -1.2541  0.4237
 2887TIP3    H2 8626   6.623   4.264   3.961  0.5811  0.0373 -0.0261
 2888TIP3   OH2 8627   0.668   1.569   5.170  0.2779  0.0029 -0.1448
 2888TIP3    H1 8628   0.634   1.494   5.219 -1.0967  0.0288 -0.9897
 2888TIP3    H2 8629   0.688   1.635   5.237 -0.2606 -0.4526  0.4749
 2889TIP3   OH2 8630   5.023   0.265   0.013 -0.3330  0.3996 -0.3796
 2889TIP3    H1 8631   5.078   0.274  -0.064 -0.5278  0.1868 -0.5458
 2889TIP3    H2 8632   5.062   0.324   0.078  1.2087 -1.1655  0.1562
 2890TIP3   OH2 8633   1.296   2.098   1.943 -0.4929 -0.2090  0.1491
 2890TIP3    H1 8634   1.272   2.125   1.854 -1.9142  1.6528  1.0295
 2890TIP3    H2 8635   1.382   2.057   1.933 -1.7280 -2.5254 -2.4433
 2891TIP3   OH2 8636   6.778   3.207   4.894  0.2119  0.4490  0.1089
 2891TIP3    H1 8637   6.724   3.206   4.815 -0.0690  0.7566  0.2953
 2891TIP3    H2 8638   6.856   3.157   4.870  0.4100  1.0568 -0.5656
 2892TIP3   OH2 8639   2.362   2.234   1.532  0.3223 -0.1426  0.0502
 2892TIP3    H1 8640   2.305   2.183   1.474  2.2326 -1.1396 -1.0609
 2892TIP3    H2 8641   2.303   2.293   1.578 -1.7747 -2.0083 -0.0536
 2893TIP3   OH2 8642   1.969   0.979   3.926  0.5888 -0.1261  0.2637
 2893TIP3    H1 8643   1.934   1.060   3.964 -0.2178 -0.3066 -0.0844
 2893TIP3    H2 8644   1.946   0.911   3.989  0.1127 -0.2770 -0.0694
 2894TIP3   OH2 8645   0.319   3.921   1.491  0.1703 -0.8133  0.4183
 2894TIP3    H1 8646   0.298   3.975   1.567  0.8636 -0.6886  0.5311
 2894TIP3    H2 8647   0.388   3.970   1.445 -0.4066 -0.7685 -0.4271
 2895TIP3   OH2 8648   6.319   5.730   0.604 -0.1545 -0.1190  0.3897
 2895TIP3    H1 8649   6.396   5.737   0.660  0.6032  1.7453 -0.7761
 2895TIP3    H2 8650   6.263   5.803   0.630 -0.3176  0.0753 -0.4693
 2896TIP3   OH2 8651   6.390   1.321   3.855 -0.4147 -0.6796 -0.5716
 2896TIP3    H1 8652   6.410   1.323   3.948 -1.5830 -1.4972 -0.2837
 2896TIP3    H2 8653   6.469   1.355   3.813  0.2592 -0.6279  0.6875
 2897TIP3   OH2 8654   4.335   6.417   2.398 -0.1749  0.1215 -0.5165
 2897TIP3    H1 8655   4.385   6.348   2.354  1.6759  0.6884  0.5679
 2897TIP3    H2 8656   4.310   6.378   2.482 -1.2753 -0.0314 -0.9031
 2898TIP3   OH2 8657   0.989   2.577   5.465  0.4189  0.0715 -0.0020
 2898TIP3    H1 8658   0.913   2.520   5.452  0.2194  0.4037 -0.3134
 2898TIP3    H2 8659   1.008   2.570   5.558 -0.2201  0.2544  0.1519
 2899TIP3   OH2 8660   1.532   5.921   3.350 -0.2533  0.4992  0.0357
 2899TIP3    H1 8661   1.449   5.881   3.322 -0.2367  1.7188 -1.9690
 2899TIP3    H2 8662   1.545   5.889   3.439 -2.4415 -0.4155  0.0984
 2900TIP3   OH2 8663   5.653   1.486   1.291  0.0151 -0.4862  0.0841
 2900TIP3    H1 8664   5.663   1.517   1.381 -0.5683  0.8311 -0.2799
 2900TIP3    H2 8665   5.691   1.556   1.237 -1.4280 -0.3251 -0.7750
 2901TIP3   OH2 8666   4.859   3.742   5.090 -0.2209 -0.5065  0.8722
 2901TIP3    H1 8667   4.786   3.762   5.149  0.2969 -2.4011  2.2932
 2901TIP3    H2 8668   4.935   3.736   5.148  1.0477  1.1474 -0.5396
 2902TIP3   OH2 8669   7.139   5.615   0.174  0.8095 -0.5734 -0.3448
 2902TIP3    H1 8670   7.170   5.654   0.256  0.3067  2.8657 -1.6115
 2902TIP3    H2 8671   7.188   5.661   0.106 -0.0489 -2.0820 -2.0681
 2903TIP3   OH2 8672   6.571   4.451   3.633  0.1891  0.3288 -0.1755
 2903TIP3    H1 8673   6.506   4.446   3.703  0.7408 -0.4565  0.2927
 2903TIP3    H2 8674   6.562   4.540   3.599  0.8948  1.2529  1.8630
 2904TIP3   OH2 8675   3.213   1.754   5.706 -0.5136  0.3848 -0.4043
 2904TIP3    H1 8676   3.207   1.760   5.801  0.0007  1.0836 -0.4075
 2904TIP3    H2 8677   3.281   1.689   5.690 -1.3526 -0.5394 -0.3121
 2905TIP3   OH2 8678   1.781   0.068   0.961 -0.0484 -0.3510  0.0511
 2905TIP3    H1 8679   1.788   0.041   1.053  0.2368 -0.4083  0.0145
 2905TIP3    H2 8680   1.717   0.139   0.961 -0.3095 -0.5858  0.2456
 2906TIP3   OH2 8681   5.126   6.503   5.844 -0.2994 -0.6508 -0.0233
 2906TIP3    H1 8682   5.080   6.507   5.928 -0.9226  0.6054 -0.3857
 2906TIP3    H2 8683   5.056   6.492   5.780 -0.1270  1.1437 -0.5765
 2907TIP3   OH2 8684   5.896   0.055   5.567  0.5082  0.3805 -0.1033
 2907TIP3    H1 8685   5.956   0.120   5.530 -0.9225  0.3431 -2.7392
 2907TIP3    H2 8686   5.856   0.014   5.491 -0.5578 -1.8037  1.5354
 2908TIP3   OH2 8687   1.952   1.661   3.259  0.4587  0.3449 -0.0947
 2908TIP3    H1 8688   1.925   1.632   3.172 -0.0368  0.3000  0.0706
 2908TIP3    H2 8689   1.989   1.584   3.301  2.2809  0.7581 -0.8697
 2909TIP3   OH2 8690   6.424   1.216   5.132  0.1794  0.3959 -0.1632
 2909TIP3    H1 8691   6.365   1.225   5.057  0.3321 -0.0884 -0.3471
 2909TIP3    H2 8692   6.486   1.149   5.105  1.0257  1.1408 -0.0941
 2910TIP3   OH2 8693   6.902   4.493   2.335 -0.4035 -0.0952  0.6160
 2910TIP3    H1 8694   6.966   4.445   2.283 -0.8305 -0.8532  0.7856
 2910TIP3    H2 8695   6.938   4.582   2.340  0.4074 -0.3968  0.3336
 2911TIP3   OH2 8696   6.146   4.938   2.845 -0.1698  0.2267 -0.1216
 2911TIP3    H1 8697   6.186   4.971   2.925 -1.9261  0.5656  0.6747
 2911TIP3    H2 8698   6.062   4.902   2.874 -2.0369  2.6432 -2.1144
 2912TIP3   OH2 8699   5.509   4.905   2.067 -0.3420 -0.5646  0.0522
 2912TIP3    H1 8700   5.536   4.960   2.141  1.7816 -0.5923 -0.6548
 2912TIP3    H2 8701   5.590   4.881   2.023 -1.5027 -0.9653 -2.0273
 2913TIP3   OH2 8702   6.534   0.257   5.309  0.4451 -0.1348 -0.2635
 2913TIP3    H1 8703   6.610   0.221   5.355  2.4701  1.4932 -2.1146
 2913TIP3    H2 8704   6.520   0.342   5.349 -1.1021 -0.7916  0.7026
 2914TIP3   OH2 8705   5.736   0.889   2.861 -0.1168  0.6308 -0.2030
 2914TIP3    H1 8706   5.821   0.876   2.820  0.5862 -1.2220  1.6471
 2914TIP3    H2 8707   5.674   0.852   2.799  0.7480 -0.6566 -0.3422
 2915TIP3   OH2 8708   4.921   5.143   4.773 -0.1380 -0.6031  0.0025
 2915TIP3    H1 8709   4.922   5.170   4.865  0.5156 -0.8083  0.0582
 2915TIP3    H2 8710   5.008   5.168   4.740 -0.7268  0.4420 -0.8440
 2916TIP3   OH2 8711   0.547   1.358   3.707  0.0000 -0.0168 -0.1636
 2916TIP3    H1 8712   0.551   1.418   3.781  1.2347  0.0831 -0.2823
 2916TIP3    H2 8713   0.454   1.346   3.690 -0.2737  1.4375  0.2007
 2917TIP3   OH2 8714   4.894   6.278   0.355 -0.1755  0.5649  0.1178
 2917TIP3    H1 8715   4.943   6.254   0.433 -0.5996 -2.5951 -0.4481
 2917TIP3    H2 8716   4.953   6.335   0.305  1.2556  0.2120  1.3580
 2918TIP3   OH2 8717   6.495   2.908   4.593 -0.2233  0.0345  0.6443
 2918TIP3    H1 8718   6.555   2.872   4.659 -0.7653 -0.8363  0.6894
 2918TIP3    H2 8719   6.412   2.863   4.610 -0.7595  0.8640  0.2763
 2919TIP3   OH2 8720   1.003   5.580   4.328  0.3756 -0.2135  0.4370
 2919TIP3    H1 8721   1.051   5.660   4.308 -0.2544  0.3428  1.1023
 2919TIP3    H2 8722   0.942   5.570   4.255 -0.6390  0.7909  1.1319
 2920TIP3   OH2 8723   4.952   5.008   0.151  0.0373  0.7244  0.2797
 2920TIP3    H1 8724   5.010   4.935   0.174 -1.4674 -0.8478 -0.5998
 2920TIP3    H2 8725   4.910   4.980   0.069 -1.9809  1.7368  0.9041
 2921TIP3   OH2 8726   6.536   4.444   3.311  0.3438 -0.1949 -0.5969
 2921TIP3    H1 8727   6.534   4.498   3.389  0.1289 -1.6789  0.4627
 2921TIP3    H2 8728   6.590   4.494   3.249  0.9379  0.7704  0.6564
 2922TIP3   OH2 8729   3.195   3.687   2.507  0.2290  0.3118  0.0934
 2922TIP3    H1 8730   3.104   3.680   2.537  0.6910  2.1811  2.1514
 2922TIP3    H2 8731   3.189   3.738   2.425 -0.7307 -1.7849 -1.2345
 2923TIP3   OH2 8732   1.703   4.016   0.096  0.1342  0.1303 -0.0756
 2923TIP3    H1 8733   1.727   4.080   0.029 -0.0403  0.3534  0.0721
 2923TIP3    H2 8734   1.786   3.976   0.122 -0.0437 -2.1098 -2.5169
 2924TIP3   OH2 8735   0.170   5.577   5.746 -0.2286 -0.2640 -0.2681
 2924TIP3    H1 8736   0.236   5.533   5.693 -0.3259 -0.0250 -0.5916
 2924TIP3    H2 8737   0.127   5.638   5.686  0.1289  0.5226  0.2473
 2925TIP3   OH2 8738   0.602   2.533   0.354  0.3134 -0.0022  0.5029
 2925TIP3    H1 8739   0.579   2.447   0.320  2.1266 -0.5426  0.4995
 2925TIP3    H2 8740   0.545   2.546   0.430 -2.2071  0.2333 -1.3272
 2926TIP3   OH2 8741   6.011   2.434   3.239 -0.1915  0.2958 -0.1914
 2926TIP3    H1 8742   5.932   2.429   3.185  0.2829 -0.0447 -0.8771
 2926TIP3    H2 8743   6.083   2.437   3.175  0.4568 -1.3321  0.4261
 2927TIP3   OH2 8744   6.535   3.938   0.074 -0.4657 -0.0776 -0.5245
 2927TIP3    H1 8745   6.601   3.872   0.054  0.5614  0.5528  0.6118
 2927TIP3    H2 8746   6.543   4.002   0.004  3.2366  2.2242  1.6543
 2928TIP3   OH2 8747   0.329   1.503   5.166 -0.0529  0.0399 -0.0625
 2928TIP3    H1 8748   0.348   1.461   5.250  3.1529  1.0812 -0.1359
 2928TIP3    H2 8749   0.296   1.590   5.190 -1.1225 -0.3734  0.0559
 2929TIP3   OH2 8750   2.771   2.728   1.293  0.8345  0.4636  0.0292
 2929TIP3    H1 8751   2.863   2.725   1.317  1.1174 -0.7901 -1.0908
 2929TIP3    H2 8752   2.732   2.790   1.354  2.2750  0.4604  0.9897
 2930TIP3   OH2 8753   3.188   2.301   0.756 -0.2307 -0.0217  0.0278
 2930TIP3    H1 8754   3.185   2.351   0.837  1.0587 -0.0929  0.1332
 2930TIP3    H2 8755   3.249   2.349   0.700  0.7014 -1.2109 -0.0236
 2931TIP3   OH2 8756   1.922   0.700   4.372 -0.4362  0.2042 -0.5571
 2931TIP3    H1 8757   1.871   0.631   4.328 -0.6703 -0.1830  0.3035
 2931TIP3    H2 8758   1.867   0.728   4.445 -0.5912  1.7317 -1.2379
 2932TIP3   OH2 8759   4.993   3.333   0.683  0.8167  0.1157  0.0574
 2932TIP3    H1 8760   5.078   3.328   0.639  0.3062 -2.5780 -0.8014
 2932TIP3    H2 8761   4.930   3.344   0.612  0.1709 -1.9342  0.2555
 2933TIP3   OH2 8762   3.373   6.119   2.464 -0.1981  0.5319  0.8636
 2933TIP3    H1 8763   3.317   6.042   2.453  2.2433 -1.3417  0.8517
 2933TIP3    H2 8764   3.404   6.139   2.376  0.0226  0.8899  1.0204
 2934TIP3   OH2 8765   6.891   0.742   1.704 -0.7942  0.4001 -0.0114
 2934TIP3    H1 8766   6.949   0.732   1.780 -0.3906 -1.4691 -0.4951
 2934TIP3    H2 8767   6.911   0.829   1.669 -0.6697  1.1104  1.7397
 2935TIP3   OH2 8768   1.633   6.065   1.428 -0.2959  0.5942 -0.3385
 2935TIP3    H1 8769   1.691   6.002   1.387 -0.6122  0.4534 -0.5699
 2935TIP3    H2 8770   1.551   6.017   1.441  0.2412  0.1315  1.8463
 2936TIP3   OH2 8771   6.264   5.110   0.526 -0.1165  0.0571  0.7156
 2936TIP3    H1 8772   6.330   5.092   0.592 -0.4010 -0.0024  0.9877
 2936TIP3    H2 8773   6.309   5.098   0.442  0.1243 -0.3028  0.8981
 2937TIP3   OH2 8774   3.149   3.237   3.383  0.1161 -0.1262  0.0290
 2937TIP3    H1 8775   3.141   3.142   3.368  2.2013 -0.4139  0.4123
 2937TIP3    H2 8776   3.229   3.246   3.434 -0.7176  1.7703  1.0999
 2938TIP3   OH2 8777   2.398   2.596   5.502  0.4431 -0.1445 -0.2286
 2938TIP3    H1 8778   2.428   2.512   5.536  0.8589  0.1753  0.2013
 2938TIP3    H2 8779   2.385   2.581   5.408  1.6441 -0.3746 -0.3729
 2939TIP3   OH2 8780   4.969   4.006   1.736 -0.1839 -0.1275 -0.6388
 2939TIP3    H1 8781   4.884   3.963   1.727  0.0375 -0.6587 -0.2782
 2939TIP3    H2 8782   4.953   4.097   1.711 -1.3011  0.2729  1.2890
 2940TIP3   OH2 8783   1.315   6.181   1.254 -0.4554  0.2486  0.4330
 2940TIP3    H1 8784   1.362   6.123   1.193 -0.7363 -1.4055  1.7221
 2940TIP3    H2 8785   1.366   6.262   1.253  0.7119 -0.4559 -0.4530
 2941TIP3   OH2 8786   4.017   5.847   5.853  0.4076 -0.3149  0.5192
 2941TIP3    H1 8787   4.097   5.854   5.905 -1.4370  2.1931  3.4235
 2941TIP3    H2 8788   3.963   5.784   5.901  0.8335 -2.7541 -1.9448
 2942TIP3   OH2 8789   2.551   1.969   5.242  0.1815 -0.1472  0.1125
 2942TIP3    H1 8790   2.569   2.063   5.250  1.1461 -0.1677 -1.3591
 2942TIP3    H2 8791   2.600   1.942   5.165 -0.8819 -1.6722 -0.0767
 2943TIP3   OH2 8792   2.237   4.636   0.215 -0.4101  0.3005 -0.3700
 2943TIP3    H1 8793   2.251   4.542   0.219  0.1351  0.3339 -1.1495
 2943TIP3    H2 8794   2.157   4.651   0.265  0.2447 -0.4005  0.9399
 2944TIP3   OH2 8795   2.671   0.095   3.147  0.1817 -0.5341  0.3968
 2944TIP3    H1 8796   2.601   0.150   3.181 -0.2025 -1.1244  0.5612
 2944TIP3    H2 8797   2.627   0.023   3.103  0.6820 -0.6822  0.1204
 2945TIP3   OH2 8798   2.925   1.586   0.221 -0.0376  0.0513  0.2439
 2945TIP3    H1 8799   3.000   1.539   0.184 -0.9754 -1.0367 -0.3436
 2945TIP3    H2 8800   2.892   1.527   0.289 -1.7869 -0.6204 -1.1231
 2946TIP3   OH2 8801   2.650   0.981   2.626  0.7524 -0.0362 -0.0737
 2946TIP3    H1 8802   2.631   0.963   2.533 -1.0273  1.5738 -0.0703
 2946TIP3    H2 8803   2.568   0.961   2.671  1.1741  0.5451  0.9641
 2947TIP3   OH2 8804   1.404   1.699   2.656  0.1070  0.3629 -0.4410
 2947TIP3    H1 8805   1.404   1.626   2.594  0.0555 -0.3872  0.4323
 2947TIP3    H2 8806   1.338   1.676   2.721 -0.8508  1.8036 -0.8470
 2948TIP3   OH2 8807   3.862   1.881   2.167  0.1460 -0.4539 -0.2829
 2948TIP3    H1 8808   3.935   1.900   2.226  0.2860 -2.1497  0.1425
 2948TIP3    H2 8809   3.899   1.825   2.099 -0.3702  0.1919 -1.1226
 2949TIP3   OH2 8810   2.159   3.551   2.473 -0.1530  0.2826 -0.1057
 2949TIP3    H1 8811   2.109   3.632   2.459  1.4583  1.4810  0.6154
 2949TIP3    H2 8812   2.162   3.541   2.568  1.4054  0.5754 -0.0951
 2950TIP3   OH2 8813   4.357   2.114   4.549 -0.8375 -0.3633  0.1162
 2950TIP3    H1 8814   4.304   2.168   4.490 -2.2335 -1.3823  0.3546
 2950TIP3    H2 8815   4.430   2.169   4.574 -0.9252  0.5681 -1.5091
 2951TIP3   OH2 8816   4.370   1.384   4.877 -0.0073 -0.0250 -0.0471
 2951TIP3    H1 8817   4.330   1.320   4.818  0.7685  0.7490 -1.4747
 2951TIP3    H2 8818   4.364   1.467   4.830  1.4615  0.4610  0.5502
 2952TIP3   OH2 8819   3.331   3.586   3.233  0.8605 -0.6071 -0.5298
 2952TIP3    H1 8820   3.264   3.521   3.211  0.3374 -0.4886  0.6521
 2952TIP3    H2 8821   3.286   3.670   3.222  1.5486 -0.4037 -2.1076
 2953TIP3   OH2 8822   3.548   2.497   0.726 -0.2513 -0.1534  0.5837
 2953TIP3    H1 8823   3.609   2.439   0.680 -0.4383 -0.7964  1.1262
 2953TIP3    H2 8824   3.597   2.578   0.739  0.0996 -0.2673  0.0245
 2954TIP3   OH2 8825   2.608   6.485   3.546  0.0812  0.1756  0.2929
 2954TIP3    H1 8826   2.533   6.490   3.607 -0.3038  2.0861 -0.2679
 2954TIP3    H2 8827   2.568   6.484   3.459  0.6878 -0.7893  0.0030
 2955TIP3   OH2 8828   3.629   0.991   4.409 -0.3061 -0.5978 -0.0904
 2955TIP3    H1 8829   3.589   0.971   4.494 -0.6259  1.8191  0.3815
 2955TIP3    H2 8830   3.592   1.075   4.383  1.1712 -0.3889 -1.7534
 2956TIP3   OH2 8831   4.015   0.630  -0.013  0.8496  0.0613 -0.0886
 2956TIP3    H1 8832   3.991   0.571   0.059  1.8036 -1.3986 -0.9317
 2956TIP3    H2 8833   4.089   0.681   0.022  1.1164 -0.4282  0.0693
 2957TIP3   OH2 8834   7.036   5.530   1.371  0.1529  0.0493  0.6687
 2957TIP3    H1 8835   7.041   5.447   1.419  0.4960  0.2015  0.8970
 2957TIP3    H2 8836   6.957   5.521   1.317 -0.1185 -0.2112  1.0991
 2958TIP3   OH2 8837   6.046   5.292   0.205 -0.6968 -0.3926  0.1581
 2958TIP3    H1 8838   6.094   5.356   0.153 -2.3208  0.5961 -0.1667
 2958TIP3    H2 8839   6.099   5.212   0.198  1.3524  0.8541  0.5489
 2959TIP3   OH2 8840   2.643   1.963   4.066 -0.0161  0.3971  0.6186
 2959TIP3    H1 8841   2.604   2.009   4.140 -0.3527 -0.9910  1.3362
 2959TIP3    H2 8842   2.618   2.015   3.989 -2.1204  0.3086  1.1869
 2960TIP3   OH2 8843   5.004   1.438   1.603  0.2181 -0.4274 -0.2982
 2960TIP3    H1 8844   5.076   1.426   1.665  0.3981 -1.0136 -0.6130
 2960TIP3    H2 8845   4.977   1.349   1.581  0.7954 -0.2477 -1.8200
 2961TIP3   OH2 8846   0.852   1.314   5.267  0.0506  0.0372  0.4766
 2961TIP3    H1 8847   0.763   1.350   5.256 -0.1851 -0.3499  1.0500
 2961TIP3    H2 8848   0.906   1.366   5.208 -0.8376 -0.8247 -1.1745
 2962TIP3   OH2 8849   2.589   5.807   5.630  0.2097 -0.0757 -0.3566
 2962TIP3    H1 8850   2.558   5.718   5.649  0.8798 -0.3834 -0.6747
 2962TIP3    H2 8851   2.684   5.800   5.630  0.3306  1.0123  1.3288
 2963TIP3   OH2 8852   0.863   5.129   5.369  0.3144 -0.0668  0.4627
 2963TIP3    H1 8853   0.786   5.132   5.312  0.3128  1.5147  0.5094
 2963TIP3    H2 8854   0.832   5.165   5.452  0.7528 -0.7687  0.9336
 2964TIP3   OH2 8855   3.685   4.858   5.756  0.2681  0.1342  0.3244
 2964TIP3    H1 8856   3.767   4.843   5.802  0.4046  0.4004  0.1722
 2964TIP3    H2 8857   3.650   4.938   5.796 -0.5694 -0.6895  1.2971
 2965TIP3   OH2 8858   2.090   6.073   1.486  0.1985  0.2685  0.1183
 2965TIP3    H1 8859   2.038   6.144   1.448  0.8193  1.1042  0.7730
 2965TIP3    H2 8860   2.078   6.082   1.580  1.8529  0.7751  0.3130
 2966TIP3   OH2 8861   5.700   4.128   3.825  0.4055  0.3754  0.3656
 2966TIP3    H1 8862   5.645   4.143   3.748  0.5138 -0.4325  0.1177
 2966TIP3    H2 8863   5.658   4.176   3.895 -1.0718 -0.8489  0.3683
 2967TIP3   OH2 8864   5.203   5.681   1.870  0.2637  0.2244 -0.1155
 2967TIP3    H1 8865   5.159   5.764   1.889  0.4228  0.4624 -0.7368
 2967TIP3    H2 8866   5.162   5.651   1.789  1.7931  0.8759 -1.1867
 2968TIP3   OH2 8867   2.750   2.583   5.388  0.1467 -0.1303  0.0507
 2968TIP3    H1 8868   2.739   2.496   5.427 -0.5103 -0.1489 -0.1691
 2968TIP3    H2 8869   2.697   2.581   5.309  0.5395  0.3040 -0.2306
 2969TIP3   OH2 8870   1.382   3.832   4.619  0.7859  0.0969 -0.7121
 2969TIP3    H1 8871   1.459   3.783   4.648  1.3537  2.5260  2.4034
 2969TIP3    H2 8872   1.408   3.868   4.534  2.8139  0.2119 -0.1118
 2970TIP3   OH2 8873   2.846   0.883   3.999 -0.2433 -0.2750  0.2877
 2970TIP3    H1 8874   2.887   0.885   4.085 -0.4769  1.2826  0.3995
 2970TIP3    H2 8875   2.920   0.874   3.938  0.0501 -0.0258  0.6004
 2971TIP3   OH2 8876   3.415   2.052   1.648  0.3728  0.1261  0.2173
 2971TIP3    H1 8877   3.413   2.086   1.558 -0.8567  0.0786  0.2101
 2971TIP3    H2 8878   3.323   2.056   1.677  0.7399  0.0597  1.4406
 2972TIP3   OH2 8879   3.837   2.882   4.764 -0.6382 -0.0033 -0.2968
 2972TIP3    H1 8880   3.845   2.975   4.742 -1.0134 -0.3275 -1.9973
 2972TIP3    H2 8881   3.745   2.870   4.787 -0.3388  0.2537  1.0797
 2973TIP3   OH2 8882   3.504   2.322   5.359 -0.2158 -0.2099 -0.1844
 2973TIP3    H1 8883   3.500   2.278   5.274  0.9094 -0.6419 -0.0289
 2973TIP3    H2 8884   3.531   2.254   5.421  1.2019  0.5688  0.1181
 2974TIP3   OH2 8885   1.588   5.467   0.444  0.2523 -0.0857 -0.1250
 2974TIP3    H1 8886   1.620   5.426   0.524  0.4180  0.4846  0.1074
 2974TIP3    H2 8887   1.536   5.542   0.474 -0.8309 -0.6551 -0.5165
 2975TIP3   OH2 8888   2.891   0.465   4.639 -0.4417 -0.2959 -0.0487
 2975TIP3    H1 8889   2.822   0.404   4.615 -0.7592  0.0747 -0.0806
 2975TIP3    H2 8890   2.967   0.437   4.587 -1.1274  0.5173 -1.5631
 2976TIP3   OH2 8891   1.305   1.666   0.898 -0.2688  0.3620  0.1516
 2976TIP3    H1 8892   1.377   1.624   0.850 -0.3265  1.3254 -0.8012
 2976TIP3    H2 8893   1.260   1.719   0.832 -0.9746  0.9047  1.0561
 2977TIP3   OH2 8894   5.937   3.345   1.669 -0.2950  0.3337  0.1357
 2977TIP3    H1 8895   5.985   3.277   1.717  0.7121  0.6053 -0.4439
 2977TIP3    H2 8896   5.913   3.302   1.586 -2.9989 -0.4900  1.2550
 2978TIP3   OH2 8897   6.629   5.243   5.815  0.2058  0.4567 -0.1441
 2978TIP3    H1 8898   6.580   5.274   5.739  1.1619  2.1145 -0.1284
 2978TIP3    H2 8899   6.663   5.158   5.788 -2.3327 -0.5988 -0.2736
 2979TIP3   OH2 8900   3.093   4.107   2.997 -0.4660 -0.4801 -0.5443
 2979TIP3    H1 8901   3.152   4.033   2.987 -0.0815 -0.3168  0.3516
 2979TIP3    H2 8902   3.018   4.072   3.045 -1.0108 -0.6393 -1.4971
 2980TIP3   OH2 8903   4.155   1.244   1.687  0.3363  0.4271 -0.3535
 2980TIP3    H1 8904   4.208   1.292   1.750  1.2734 -0.7344 -0.2384
 2980TIP3    H2 8905   4.081   1.211   1.739 -0.0691  1.3066 -0.3396
 2981TIP3   OH2 8906   4.761   5.622   5.759  0.3330 -0.1245 -0.4032
 2981TIP3    H1 8907   4.803   5.604   5.675 -2.2835  1.5582 -2.2244
 2981TIP3    H2 8908   4.820   5.584   5.824  3.4045  0.0870 -2.8492
 2982TIP3   OH2 8909   2.104   6.580   1.168 -0.5577  0.2121  0.3764
 2982TIP3    H1 8910   2.024   6.617   1.206 -0.5120 -0.7102  1.4188
 2982TIP3    H2 8911   2.075   6.501   1.123 -0.6546  1.4338 -1.8382
 2983TIP3   OH2 8912   2.324   4.690   4.134  0.5184  0.7378  0.2073
 2983TIP3    H1 8913   2.348   4.646   4.215  0.9607  1.3310  0.4028
 2983TIP3    H2 8914   2.238   4.653   4.111  0.8237 -0.1319  0.4224
 2984TIP3   OH2 8915   4.989   5.279   4.383 -0.2921  0.0230 -0.5008
 2984TIP3    H1 8916   5.065   5.233   4.418 -0.5342 -0.3457 -0.4471
 2984TIP3    H2 8917   4.969   5.233   4.301 -0.4286  0.1443 -0.5369
 2985TIP3   OH2 8918   3.749   0.255   0.304 -0.4448 -0.2531  0.1791
 2985TIP3    H1 8919   3.676   0.194   0.313 -0.6663  0.1079  0.9594
 2985TIP3    H2 8920   3.818   0.205   0.262 -0.1088 -1.4706  2.0839
 2986TIP3   OH2 8921   1.376   0.869   3.114  0.8563  0.1483  0.6630
 2986TIP3    H1 8922   1.371   0.846   3.207 -0.0783  1.7717  1.0573
 2986TIP3    H2 8923   1.442   0.939   3.111 -0.5320  1.5039  0.4594
 2987TIP3   OH2 8924   2.954   4.904   5.818  0.0377 -0.3633  0.2537
 2987TIP3    H1 8925   2.914   4.931   5.736  0.2352 -1.6784 -0.2962
 2987TIP3    H2 8926   2.900   4.831   5.849  0.8261 -0.8632  0.5074
 2988TIP3   OH2 8927   4.779   0.783   4.932  0.3339  0.1941 -0.3695
 2988TIP3    H1 8928   4.689   0.814   4.918 -0.1556 -0.2509  1.5905
 2988TIP3    H2 8929   4.817   0.846   4.993  1.3416  0.2926 -1.0686
 2989TIP3   OH2 8930   3.887   0.612   3.311 -0.2181  0.0555 -0.8468
 2989TIP3    H1 8931   3.886   0.516   3.304 -0.6326  0.0781 -1.0900
 2989TIP3    H2 8932   3.955   0.630   3.376 -0.5563 -0.4373 -0.3501
 2990TIP3   OH2 8933   2.742   0.218   1.541  0.3020  0.3486  0.1167
 2990TIP3    H1 8934   2.718   0.284   1.476 -2.1823  0.6176  1.1655
 2990TIP3    H2 8935   2.794   0.265   1.605 -0.9489  1.1984  0.5467
 2991TIP3   OH2 8936   7.063   3.577   0.700  0.4184 -0.0339  0.0067
 2991TIP3    H1 8937   7.110   3.496   0.680  1.1517  0.6148 -0.9846
 2991TIP3    H2 8938   7.012   3.557   0.779  0.7496 -1.3855 -0.1094
 2992TIP3   OH2 8939   5.343   1.817   1.323 -0.7555  0.2945 -0.5139
 2992TIP3    H1 8940   5.433   1.848   1.321 -1.4292  2.5322  0.7289
 2992TIP3    H2 8941   5.333   1.778   1.410 -0.9307 -0.1395 -0.7259
 2993TIP3   OH2 8942   0.262   5.000  -0.014 -0.3877  0.4485  0.3085
 2993TIP3    H1 8943   0.194   5.064   0.008 -1.3268 -1.0113  2.0082
 2993TIP3    H2 8944   0.337   5.027   0.038 -0.6994  0.3320  0.8317
 2994TIP3   OH2 8945   0.989   1.013   2.078 -0.3201 -0.3284 -0.0112
 2994TIP3    H1 8946   0.912   1.059   2.111 -0.6431 -1.4725  0.8955
 2994TIP3    H2 8947   0.961   0.975   1.994 -0.9178 -1.1452  0.5414
 2995TIP3   OH2 8948   0.555   2.035   3.012 -0.3102  0.0371 -0.7175
 2995TIP3    H1 8949   0.493   1.980   2.964 -0.4556  0.0429 -0.5395
 2995TIP3    H2 8950   0.556   2.117   2.964 -1.4537  0.5124  0.0107
 2996TIP3   OH2 8951   1.194   1.001   5.510  0.3213 -0.2997  0.2355
 2996TIP3    H1 8952   1.232   1.060   5.575  0.6331 -0.0824 -0.1386
 2996TIP3    H2 8953   1.114   1.045   5.481  2.0127  1.4165 -2.1806
 2997TIP3   OH2 8954   3.703   4.611   5.588  0.0714 -0.5091  0.3544
 2997TIP3    H1 8955   3.752   4.607   5.671 -2.6371 -1.9011  2.0202
 2997TIP3    H2 8956   3.611   4.608   5.614 -0.9761  1.2829 -2.6571
 2998TIP3   OH2 8957   6.941   2.054   5.539  0.2353  0.4793 -0.3792
 2998TIP3    H1 8958   6.846   2.061   5.549  0.2294  1.0747 -0.7564
 2998TIP3    H2 8959   6.954   2.039   5.445  0.4538 -1.0281 -0.1222
 2999TIP3   OH2 8960   4.005   3.111   3.373  0.0520  0.0612  0.2031
 2999TIP3    H1 8961   3.919   3.129   3.334  1.0319  1.3933 -1.4702
 2999TIP3    H2 8962   4.004   3.017   3.391 -1.4506 -0.1031 -0.5942
 3000TIP3   OH2 8963   1.600   1.441   4.147 -0.1008 -0.0933 -0.0952
 3000TIP3    H1 8964   1.692   1.432   4.122 -0.2140  2.0340 -1.5821
 3000TIP3    H2 8965   1.554   1.455   4.064 -2.0184 -2.3447  0.4679
 3001TIP3   OH2 8966   4.806   2.006   5.370 -0.1136  0.0042  0.1233
 3001TIP3    H1 8967   4.843   1.958   5.296 -0.7936  1.2180 -1.0495
 3001TIP3    H2 8968   4.780   1.939   5.433  1.6219 -0.9975 -0.1705
 3002TIP3   OH2 8969   6.365   2.547   2.575  0.6541  0.7196  0.6198
 3002TIP3    H1 8970   6.283   2.544   2.526  0.3299  4.0012  0.7445
 3002TIP3    H2 8971   6.407   2.463   2.557 -2.8768 -1.2853  0.9378
 3003TIP3   OH2 8972   0.677   0.851   5.569 -0.4924 -0.0463  0.3217
 3003TIP3    H1 8973   0.718   0.926   5.612 -1.3862  0.4254  0.3723
 3003TIP3    H2 8974   0.749   0.790   5.553 -0.0596 -0.0548  2.0874
 3004TIP3   OH2 8975   4.209   4.709   4.429 -0.3438 -0.1970 -0.0307
 3004TIP3    H1 8976   4.235   4.704   4.337 -1.4400 -1.3633 -0.3102
 3004TIP3    H2 8977   4.285   4.676   4.477  0.3295  0.6488 -0.4731
 3005TIP3   OH2 8978   0.614   0.272   1.231 -0.2386  0.0543 -0.1130
 3005TIP3    H1 8979   0.691   0.296   1.179 -1.6342  1.6679 -1.5973
 3005TIP3    H2 8980   0.613   0.335   1.302 -0.3266  0.2238 -0.2621
 3006TIP3   OH2 8981   1.183   4.788   3.553  0.3342 -0.3139  0.3159
 3006TIP3    H1 8982   1.090   4.811   3.558  0.3084 -0.3921  0.2033
 3006TIP3    H2 8983   1.226   4.850   3.611 -0.1276 -2.1329  2.7702
 3007TIP3   OH2 8984   1.913   4.142   3.242 -0.5879  0.5364 -0.4433
 3007TIP3    H1 8985   1.881   4.152   3.332 -0.4208  2.0354 -0.5217
 3007TIP3    H2 8986   1.978   4.072   3.247 -1.5708 -0.3437  0.3290
 3008TIP3   OH2 8987   2.715   3.803   5.825 -0.2080 -0.1815  0.2815
 3008TIP3    H1 8988   2.635   3.766   5.789 -0.5871  0.3281  0.5922
 3008TIP3    H2 8989   2.772   3.814   5.749 -1.3791  1.8421 -0.3991
 3009TIP3   OH2 8990   3.220   1.631   3.372  0.6503 -0.5467  0.0972
 3009TIP3    H1 8991   3.183   1.663   3.454 -0.9583  0.7134 -1.0460
 3009TIP3    H2 8992   3.298   1.684   3.359  0.7111 -0.4969  0.6412
 3010TIP3   OH2 8993   0.337   2.505   3.090 -0.4362 -0.0450 -0.0342
 3010TIP3    H1 8994   0.302   2.422   3.061 -2.2344  0.6360  0.0692
 3010TIP3    H2 8995   0.324   2.565   3.016 -3.9338  1.3864  1.5161
 3011TIP3   OH2 8996   2.437   0.222   5.171  0.2147 -0.2103 -0.2613
 3011TIP3    H1 8997   2.460   0.215   5.078  0.4062  0.1777 -0.2445
 3011TIP3    H2 8998   2.354   0.175   5.178  0.8560 -1.3836 -0.3755
 3012TIP3   OH2 8999   4.975   5.959   0.819 -0.1277  0.1107 -0.2861
 3012TIP3    H1 9000   4.987   5.981   0.727 -0.1278  0.4014 -0.2180
 3012TIP3    H2 9001   4.881   5.947   0.829 -0.0640 -0.6227 -0.4766
 3013TIP3   OH2 9002   3.518   6.475   0.752 -0.2204  0.8048 -0.6627
 3013TIP3    H1 9003   3.600   6.524   0.752  0.6678 -0.4791  2.4171
 3013TIP3    H2 9004   3.479   6.493   0.838 -0.7054 -2.3869 -0.0913
 3014TIP3   OH2 9005   1.524   5.486   3.516 -0.1626  0.0544 -0.6229
 3014TIP3    H1 9006   1.504   5.463   3.425 -1.9461  2.5800 -0.9565
 3014TIP3    H2 9007   1.562   5.406   3.552 -1.1308 -1.6386 -3.0435
 3015TIP3   OH2 9008   4.252   4.959   3.231  0.0268  0.2205  0.3334
 3015TIP3    H1 9009   4.212   4.883   3.188 -1.8621  2.3088 -1.8819
 3015TIP3    H2 9010   4.178   5.014   3.255  1.3735  2.1180  0.3439
 3016TIP3   OH2 9011   6.173   2.285   5.260  0.7210 -0.3825 -0.1332
 3016TIP3    H1 9012   6.220   2.347   5.316  2.0678 -2.1917  0.8287
 3016TIP3    H2 9013   6.084   2.283   5.295  0.7314  0.7736 -0.0103
 3017TIP3   OH2 9014   5.901   0.373   1.280  0.4088 -0.3246 -0.0190
 3017TIP3    H1 9015   5.861   0.409   1.201  1.6904 -0.6395 -0.8291
 3017TIP3    H2 9016   5.855   0.290   1.295 -0.3406  0.0843  0.0169
 3018TIP3   OH2 9017   3.839   3.045   5.070 -0.0538  0.2523 -0.7346
 3018TIP3    H1 9018   3.808   3.073   4.984 -1.0543 -0.0619 -0.4903
 3018TIP3    H2 9019   3.762   3.052   5.127  0.6787  0.8202  0.2308
 3019TIP3   OH2 9020   1.996   2.579   2.521  0.7757  0.1995  0.0683
 3019TIP3    H1 9021   2.052   2.537   2.456 -0.5030 -2.0628  0.3156
 3019TIP3    H2 9022   2.039   2.561   2.605  0.1127 -0.9136  0.1945
 3020TIP3   OH2 9023   1.338   2.030   1.201  0.2168  0.0564 -0.0931
 3020TIP3    H1 9024   1.423   2.005   1.238  0.4350  0.8583 -0.0303
 3020TIP3    H2 9025   1.354   2.033   1.106 -0.5472 -2.7861 -0.3940
 3021TIP3   OH2 9026   0.752   1.885   1.663 -0.1075  0.4180 -0.1642
 3021TIP3    H1 9027   0.662   1.853   1.667  0.1003 -0.3328 -1.3497
 3021TIP3    H2 9028   0.743   1.977   1.637 -0.5796  0.7415  1.0532
 3022TIP3   OH2 9029   6.279   1.736   4.975  0.1239 -0.2181 -0.2988
 3022TIP3    H1 9030   6.198   1.786   4.960 -0.8021 -2.1877 -2.4529
 3022TIP3    H2 9031   6.254   1.645   4.961  2.7086 -0.9070 -0.9711
 3023TIP3   OH2 9032   5.935   0.898   0.488 -0.1295 -0.3128  0.2636
 3023TIP3    H1 9033   5.932   0.982   0.533 -0.1033 -0.5637  0.7439
 3023TIP3    H2 9034   6.021   0.897   0.445 -0.7680  0.5927 -1.1317
 3024TIP3   OH2 9035   5.224   6.041   3.985  0.3537  0.2303  0.2017
 3024TIP3    H1 9036   5.254   6.000   3.904 -0.8820  2.2644 -1.3970
 3024TIP3    H2 9037   5.301   6.086   4.019  0.7787 -0.2604 -0.0998
 3025TIP3   OH2 9038   5.579   0.756   1.823  0.3795 -0.0345 -0.2548
 3025TIP3    H1 9039   5.537   0.807   1.753 -0.2913 -0.6621 -0.3184
 3025TIP3    H2 9040   5.515   0.757   1.895  0.7511 -0.0215  0.0808
 3026TIP3   OH2 9041   4.540   3.643   5.715 -0.7249  0.5096  0.3768
 3026TIP3    H1 9042   4.490   3.562   5.706  1.2475 -0.9913  2.0727
 3026TIP3    H2 9043   4.515   3.696   5.639 -3.9510 -0.5937  0.5521
 3027TIP3   OH2 9044   3.071   6.080   3.969  0.3665  0.0363  0.7531
 3027TIP3    H1 9045   3.114   6.146   3.915 -1.3417  0.2980 -0.3618
 3027TIP3    H2 9046   3.119   5.999   3.952  1.0319  0.5142  0.3252
 3028TIP3   OH2 9047   2.654   6.614   1.464  0.5837 -0.5414 -0.4087
 3028TIP3    H1 9048   2.655   6.593   1.370  1.2405 -0.4541 -0.4299
 3028TIP3    H2 9049   2.733   6.572   1.499  0.6924 -0.0385 -0.0246
 3029TIP3   OH2 9050   3.986   0.229   0.614 -0.3593 -0.6464 -0.3223
 3029TIP3    H1 9051   3.982   0.323   0.632 -1.0272 -0.3773 -1.7211
 3029TIP3    H2 9052   4.051   0.222   0.543 -0.7938 -1.1580 -0.6726
 3030TIP3   OH2 9053   3.256   0.589   0.914  0.5132  0.6328 -0.1377
 3030TIP3    H1 9054   3.238   0.575   0.821  1.0467  0.9526 -0.2892
 3030TIP3    H2 9055   3.276   0.683   0.921 -2.5949  1.3633  0.7905
 3031TIP3   OH2 9056   0.847   0.929   1.839  0.4867  0.1655 -0.0559
 3031TIP3    H1 9057   0.897   0.916   1.758 -0.6255 -0.7803 -0.6158
 3031TIP3    H2 9058   0.860   0.849   1.889 -0.2280  0.0291 -0.0800
 3032TIP3   OH2 9059   5.442   0.708   1.039 -0.0987  0.2338  0.0800
 3032TIP3    H1 9060   5.535   0.704   1.017  0.0514  0.5243  0.6405
 3032TIP3    H2 9061   5.431   0.794   1.079 -0.2954 -0.4039  1.4379
 3033TIP3   OH2 9062   2.050   5.268   2.633  0.0449 -0.9696 -0.0276
 3033TIP3    H1 9063   2.040   5.359   2.661  0.3182 -0.9564  0.0306
 3033TIP3    H2 9064   1.985   5.257   2.564  0.6547 -0.4510 -0.6958
 3034TIP3   OH2 9065   6.323   6.019   0.045 -0.7260 -0.3517 -0.2799
 3034TIP3    H1 9066   6.362   6.046  -0.038 -1.8981 -2.8694 -1.7809
 3034TIP3    H2 9067   6.234   5.991   0.021 -1.5169 -0.0363  2.0627
 3035TIP3   OH2 9068   4.967   4.809   4.369 -0.2030 -0.0736  0.2285
 3035TIP3    H1 9069   4.963   4.902   4.390  0.1296 -0.0756  0.3171
 3035TIP3    H2 9070   5.020   4.771   4.440  1.3108 -0.0061 -0.8214
 3036TIP3   OH2 9071   5.389   1.667   0.303 -0.2419 -0.0285 -0.3738
 3036TIP3    H1 9072   5.315   1.615   0.271 -0.6701 -0.1840  0.8226
 3036TIP3    H2 9073   5.360   1.758   0.293 -0.1452 -0.0529 -0.9306
 3037TIP3   OH2 9074   5.262   1.668   2.590  0.1086 -0.0546  0.1939
 3037TIP3    H1 9075   5.216   1.698   2.668  1.4773 -2.8599  2.2229
 3037TIP3    H2 9076   5.352   1.701   2.601  0.2421 -0.2155 -0.3613
 3038TIP3   OH2 9077   2.012   1.030   1.212  0.1862 -0.2336  0.0695
 3038TIP3    H1 9078   1.976   0.945   1.236  1.1959 -0.9257 -0.7624
 3038TIP3    H2 9079   1.937   1.081   1.182 -0.2306 -1.3933 -0.9320
 3039TIP3   OH2 9080   3.085   6.412   2.779 -0.2439 -0.0323 -0.6217
 3039TIP3    H1 9081   3.009   6.469   2.772  0.4411  0.8354 -1.1880
 3039TIP3    H2 9082   3.048   6.323   2.779 -1.2111  0.3528 -1.4836
 3040TIP3   OH2 9083   5.073   4.146   2.367 -0.1382  0.6473 -0.4432
 3040TIP3    H1 9084   5.016   4.084   2.321  0.2637 -0.1856  0.1635
 3040TIP3    H2 9085   5.021   4.175   2.442 -0.7069  1.8321 -1.2632
 3041TIP3   OH2 9086   5.328   1.683   1.084  0.2050 -0.4750  0.2149
 3041TIP3    H1 9087   5.320   1.755   1.147  1.3968 -0.7039  0.6469
 3041TIP3    H2 9088   5.346   1.727   1.001 -2.6626 -0.0856 -0.3193
 3042TIP3   OH2 9089   4.996   3.572   3.702  0.1461 -0.3023 -0.1076
 3042TIP3    H1 9090   5.075   3.565   3.756  0.0502  0.6807  0.1787
 3042TIP3    H2 9091   4.936   3.626   3.754 -1.2110 -2.0262  0.2274
 3043TIP3   OH2 9092   3.335   4.024   5.193 -0.6485  0.8462 -0.6503
 3043TIP3    H1 9093   3.245   4.008   5.164  0.1714 -1.3446 -2.2658
 3043TIP3    H2 9094   3.379   4.062   5.117  0.3676 -0.3861 -0.7094
 3044TIP3   OH2 9095   6.619   3.783   4.941  0.4934 -0.2273  0.3554
 3044TIP3    H1 9096   6.623   3.751   4.851  1.6868  0.9957 -0.0562
 3044TIP3    H2 9097   6.698   3.750   4.982  1.5541  1.7813  0.0292
 3045TIP3   OH2 9098   2.234   6.287   5.086  0.2141 -0.0377  0.1671
 3045TIP3    H1 9099   2.291   6.260   5.014  0.4091 -3.5291  1.4412
 3045TIP3    H2 9100   2.280   6.260   5.165 -0.7847  2.1094  1.5909
 3046TIP3   OH2 9101   4.779   4.909   4.019  0.4407  0.2730 -0.2240
 3046TIP3    H1 9102   4.726   4.938   3.944  0.7951  0.4953 -0.3954
 3046TIP3    H2 9103   4.727   4.840   4.060  0.2391  0.1486 -0.6771
 3047TIP3   OH2 9104   7.087   1.849   3.809 -0.0121 -1.0875  0.0467
 3047TIP3    H1 9105   7.051   1.884   3.727  1.1253 -0.9311 -0.4087
 3047TIP3    H2 9106   7.067   1.916   3.875  1.6527  0.2543 -0.7070
 3048TIP3   OH2 9107   4.813   5.839   5.196 -0.0164 -0.4766 -0.0116
 3048TIP3    H1 9108   4.743   5.774   5.198  0.0234 -0.7464 -2.7700
 3048TIP3    H2 9109   4.769   5.922   5.213 -0.3237 -1.0017  1.9958
 3049TIP3   OH2 9110   2.288   4.670   1.410  0.1222 -0.1873 -0.2273
 3049TIP3    H1 9111   2.229   4.685   1.336 -0.6445 -0.5440  0.3097
 3049TIP3    H2 9112   2.244   4.605   1.463  1.3783 -1.0760 -0.2393
 3050TIP3   OH2 9113   0.732   1.239   2.084  0.9838 -0.2899 -0.4253
 3050TIP3    H1 9114   0.758   1.183   2.157  1.2459 -0.1348 -0.3983
 3050TIP3    H2 9115   0.779   1.321   2.098 -1.1468  0.8197  0.8132
 3051TIP3   OH2 9116   2.937   3.754   2.837  0.0119  0.0479 -0.0956
 3051TIP3    H1 9117   2.854   3.800   2.826 -1.0700 -1.7255  0.2926
 3051TIP3    H2 9118   3.001   3.809   2.790 -1.7263  0.4252 -2.1884
 3052TIP3   OH2 9119   2.456   2.955   3.064 -0.2321  0.0317  0.0957
 3052TIP3    H1 9120   2.431   2.864   3.074  2.0564 -0.6395  0.3206
 3052TIP3    H2 9121   2.509   2.957   2.984 -0.7195  1.2838 -0.2233
 3053TIP3   OH2 9122   1.802   2.026   5.826  0.5702 -0.2455  0.6199
 3053TIP3    H1 9123   1.890   2.018   5.862  0.8771  0.5224  0.0688
 3053TIP3    H2 9124   1.784   1.941   5.785  1.7184  0.1257 -0.7172
 3054TIP3   OH2 9125   3.866   2.387   4.182 -0.3004  0.3089  0.4969
 3054TIP3    H1 9126   3.842   2.471   4.143  1.4503  0.0948 -1.2264
 3054TIP3    H2 9127   3.808   2.324   4.139  1.1222  0.1717 -1.3370
 3055TIP3   OH2 9128   2.600   0.954   3.444 -0.1821  0.2981  0.4653
 3055TIP3    H1 9129   2.567   0.938   3.533 -0.5325  0.0029  0.2871
 3055TIP3    H2 9130   2.527   0.929   3.387  0.2277 -0.0112  0.0742
 3056TIP3   OH2 9131   0.506   3.718   5.169 -0.1335 -0.5064  0.4854
 3056TIP3    H1 9132   0.552   3.717   5.085  0.5139  1.4352  0.7774
 3056TIP3    H2 9133   0.491   3.810   5.188 -3.3954 -1.0039  0.8790
 3057TIP3   OH2 9134   5.686   0.511   3.195  0.1119  0.3976  0.0364
 3057TIP3    H1 9135   5.687   0.524   3.100 -2.1560  2.0816  0.1700
 3057TIP3    H2 9136   5.743   0.579   3.229 -2.0168  2.3455 -0.0018
 3058TIP3   OH2 9137   4.175   6.096   5.252 -0.2721 -0.1408 -0.1941
 3058TIP3    H1 9138   4.081   6.111   5.259 -0.0384  1.7307 -0.4490
 3058TIP3    H2 9139   4.209   6.177   5.214  1.8424  0.6607  2.9897
 3059TIP3   OH2 9140   6.494   3.854   2.852  0.0616  0.7969  0.5215
 3059TIP3    H1 9141   6.582   3.887   2.834  1.2271 -2.6135 -1.1417
 3059TIP3    H2 9142   6.467   3.814   2.769 -2.6131  0.7625  1.3252
 3060TIP3   OH2 9143   6.819   3.421   0.148 -0.1407  0.1298  0.0815
 3060TIP3    H1 9144   6.811   3.377   0.063 -1.2261 -0.2566  0.3672
 3060TIP3    H2 9145   6.887   3.373   0.193 -0.8493 -0.8579  0.1290
 3061TIP3   OH2 9146   1.411   2.244   2.871  0.1562 -0.0494  0.4460
 3061TIP3    H1 9147   1.488   2.196   2.900 -1.7536 -1.7449  3.1499
 3061TIP3    H2 9148   1.382   2.292   2.949 -0.6643  1.8526 -0.9437
 3062TIP3   OH2 9149   5.768   6.594   1.869  0.2683 -0.3424 -0.1545
 3062TIP3    H1 9150   5.854   6.573   1.904 -0.3401  0.5391  1.9990
 3062TIP3    H2 9151   5.785   6.624   1.779  2.3024  0.7304  0.5418
 3063TIP3   OH2 9152   6.865   4.513   5.421  0.1582  0.0085 -0.3577
 3063TIP3    H1 9153   6.835   4.441   5.476  0.2267 -0.9571 -1.5584
 3063TIP3    H2 9154   6.934   4.555   5.473  0.8612 -1.4338 -0.0609
 3064TIP3   OH2 9155   1.328   4.808   3.840 -0.0770  0.0984  0.1780
 3064TIP3    H1 9156   1.383   4.738   3.873  2.3217  2.3935  1.4736
 3064TIP3    H2 9157   1.293   4.850   3.918 -0.8210  0.8373 -0.5231
 3065TIP3   OH2 9158   6.482   3.711   2.209  0.1797 -0.0171  0.3483
 3065TIP3    H1 9159   6.498   3.628   2.163 -1.9718 -0.9765  1.1714
 3065TIP3    H2 9160   6.416   3.755   2.155  1.0654  1.0237  0.1006
 3066TIP3   OH2 9161   3.590   1.447   4.877  0.5040 -0.2514  0.2740
 3066TIP3    H1 9162   3.561   1.517   4.935  0.3432  0.2861 -0.4401
 3066TIP3    H2 9163   3.678   1.472   4.851  0.5630 -0.4726  0.2573
 3067TIP3   OH2 9164   6.781   4.873   0.938 -0.5145 -0.1241  0.0029
 3067TIP3    H1 9165   6.719   4.859   0.866  1.1957  0.0174 -1.5619
 3067TIP3    H2 9166   6.852   4.811   0.920  1.9509  2.7042 -0.8590
 3068TIP3   OH2 9167   6.366   2.976   3.348 -0.5247  0.1237  0.1986
 3068TIP3    H1 9168   6.322   3.059   3.329  0.6620  0.5340 -0.9420
 3068TIP3    H2 9169   6.323   2.943   3.426 -2.3366  0.8588 -0.4304
 3069TIP3   OH2 9170   0.058   3.566   1.287 -0.2218 -0.3727 -0.0286
 3069TIP3    H1 9171   0.150   3.593   1.287 -0.0503 -0.9310 -0.5371
 3069TIP3    H2 9172   0.050   3.509   1.210 -1.0159 -0.2541 -0.0423
 3070TIP3   OH2 9173   1.157   5.747   5.873  0.7018 -0.6220 -0.1790
 3070TIP3    H1 9174   1.078   5.800   5.885  1.2855  0.7667 -2.0972
 3070TIP3    H2 9175   1.229   5.808   5.887  1.5907 -2.0976  2.6953
 3071TIP3   OH2 9176   1.518   2.842   3.655 -0.1543 -0.4041 -0.1366
 3071TIP3    H1 9177   1.554   2.753   3.648  0.5196 -0.2281  0.7805
 3071TIP3    H2 9178   1.484   2.862   3.568 -1.0841 -1.8814 -0.1371
 3072TIP3   OH2 9179   4.880   5.809   3.111 -0.0786 -0.0752 -0.4742
 3072TIP3    H1 9180   4.803   5.847   3.152 -0.6588  0.0238 -1.6169
 3072TIP3    H2 9181   4.879   5.717   3.139 -0.4161  0.0071 -0.2089
 3073TIP3   OH2 9182   1.751   3.696   4.272  0.2908 -0.5501  0.0058
 3073TIP3    H1 9183   1.785   3.781   4.246 -0.1217 -0.0833  0.9412
 3073TIP3    H2 9184   1.783   3.683   4.361 -2.1489  0.0669  1.0651
 3074TIP3   OH2 9185   0.946   2.787   3.954  0.4124  0.0474  0.3254
 3074TIP3    H1 9186   0.884   2.724   3.990  0.7860 -1.2210 -1.1842
 3074TIP3    H2 9187   1.030   2.761   3.992  0.8818 -1.5635 -1.7049
 3075TIP3   OH2 9188   6.620   4.418   4.607 -0.0562 -0.0709 -0.5092
 3075TIP3    H1 9189   6.687   4.375   4.554  0.5950 -0.5929  0.6980
 3075TIP3    H2 9190   6.610   4.362   4.684  0.4040  1.6100  0.8431
 3076TIP3   OH2 9191   3.376   4.227   4.376  0.2567 -0.1345  0.3233
 3076TIP3    H1 9192   3.307   4.291   4.357  0.4475 -0.2662 -0.9005
 3076TIP3    H2 9193   3.415   4.257   4.458 -0.4462  0.6346  0.3907
 3077TIP3   OH2 9194   6.395   0.646   1.658 -0.2110 -0.4176  0.2145
 3077TIP3    H1 9195   6.357   0.732   1.674  3.3644  1.2067  1.0102
 3077TIP3    H2 9196   6.404   0.607   1.745  0.8518 -0.2710  0.1865
 3078TIP3   OH2 9197   6.147   2.535   0.798 -0.0902 -0.1169 -0.1750
 3078TIP3    H1 9198   6.166   2.611   0.854  0.4729 -0.2046 -0.2416
 3078TIP3    H2 9199   6.078   2.487   0.844 -0.8805  0.7491 -0.4171
 3079TIP3   OH2 9200   0.713   6.710   3.719 -0.4791 -0.2781  0.8516
 3079TIP3    H1 9201   0.737   6.707   3.811 -0.1322  2.9530  0.9704
 3079TIP3    H2 9202   0.625   6.672   3.716  0.3938 -2.5753  2.0710
 3080TIP3   OH2 9203   0.961   4.080   4.079 -0.3607  0.0276  0.4769
 3080TIP3    H1 9204   0.938   4.162   4.036  0.7803 -1.6340 -3.8044
 3080TIP3    H2 9205   0.876   4.039   4.098 -0.9365  1.0857  0.2781
 3081TIP3   OH2 9206   0.920   4.627   0.693 -0.0202 -0.0228 -0.0701
 3081TIP3    H1 9207   0.828   4.603   0.701  0.1475 -0.4692  0.6692
 3081TIP3    H2 9208   0.925   4.716   0.726 -0.1862  0.0148 -0.1423
 3082TIP3   OH2 9209   1.722   0.325   1.775 -0.1971 -0.4696  0.1409
 3082TIP3    H1 9210   1.682   0.265   1.712  0.0304  0.2430 -0.7055
 3082TIP3    H2 9211   1.749   0.401   1.723  1.3282 -0.4763  0.8419
 3083TIP3   OH2 9212   2.114   5.648   2.474  0.8760  0.2468  0.5692
 3083TIP3    H1 9213   2.143   5.710   2.407  1.9382  0.4453  1.1868
 3083TIP3    H2 9214   2.058   5.586   2.427 -0.4419  1.7923 -0.0295
 3084TIP3   OH2 9215   4.320   0.953   3.340 -0.3374 -0.6668 -0.0053
 3084TIP3    H1 9216   4.342   0.898   3.265  0.5104  0.5879 -0.7223
 3084TIP3    H2 9217   4.286   0.892   3.406 -0.8409 -1.8253 -1.2995
 3085TIP3   OH2 9218   1.096   1.843   0.808  0.2307 -0.1997  0.0884
 3085TIP3    H1 9219   1.111   1.912   0.873  1.1161 -0.1146 -0.1922
 3085TIP3    H2 9220   1.014   1.801   0.835 -0.5371  1.2177  0.0357
 3086TIP3   OH2 9221   3.970   5.906   2.783 -0.4518 -0.4545 -0.2690
 3086TIP3    H1 9222   3.917   5.860   2.717  0.1718  0.3404 -1.3645
 3086TIP3    H2 9223   3.984   5.993   2.746  2.0436 -0.7837 -0.2871
 3087TIP3   OH2 9224   6.436   5.151   2.203 -0.2214  0.1516  0.1322
 3087TIP3    H1 9225   6.516   5.186   2.242 -1.1860 -0.1056  2.5117
 3087TIP3    H2 9226   6.460   5.063   2.175 -0.0931 -0.7853  2.8320
 3088TIP3   OH2 9227   4.180   0.340   0.351 -0.2626  0.4226  0.5462
 3088TIP3    H1 9228   4.229   0.394   0.413  0.7991  1.5182 -1.1477
 3088TIP3    H2 9229   4.247   0.293   0.302 -1.0510 -0.1358 -0.0241
 3089TIP3   OH2 9230   4.441   5.679   4.281  0.2287  0.0891 -0.0937
 3089TIP3    H1 9231   4.409   5.761   4.242  0.6576 -0.6492 -2.1429
 3089TIP3    H2 9232   4.530   5.698   4.308 -1.0077  1.5018  3.5516
 3090TIP3   OH2 9233   1.389   3.148   0.315  0.0923  0.2845  0.3891
 3090TIP3    H1 9234   1.476   3.182   0.297 -0.6251  1.0981 -1.8808
 3090TIP3    H2 9235   1.394   3.114   0.405  2.8992 -0.3008  0.0902
 3091TIP3   OH2 9236   0.050   4.202   3.773 -0.1062 -0.0127  0.0791
 3091TIP3    H1 9237   0.127   4.155   3.807 -0.2721 -0.5877 -0.3231
 3091TIP3    H2 9238   0.086   4.269   3.716  0.1252  0.2178  0.4848
 3092TIP3   OH2 9239   4.709   1.678   2.502  0.3430 -0.2503  0.0626
 3092TIP3    H1 9240   4.670   1.591   2.493  0.8914 -0.5422  0.4646
 3092TIP3    H2 9241   4.798   1.662   2.533 -0.1650  0.5147  2.0776
 3093TIP3   OH2 9242   2.800   3.420   2.057  0.4831  0.7938 -0.1747
 3093TIP3    H1 9243   2.843   3.369   1.989 -0.2323  2.1299 -1.6867
 3093TIP3    H2 9244   2.871   3.451   2.113  1.3428  1.5010 -1.6050
 3094TIP3   OH2 9245   5.702   1.696   2.719  0.2340  0.8258 -0.2750
 3094TIP3    H1 9246   5.697   1.696   2.815  0.6812 -0.6060 -0.2431
 3094TIP3    H2 9247   5.614   1.724   2.692 -0.9069 -1.6328  0.5497
 3095TIP3   OH2 9248   1.778   6.373   3.268  0.5858 -0.5238 -0.4199
 3095TIP3    H1 9249   1.844   6.401   3.331  0.2024 -0.8883  0.1578
 3095TIP3    H2 9250   1.709   6.334   3.322 -0.2849  0.2138 -0.9740
 3096TIP3   OH2 9251   5.719   1.530   5.637  0.1542  0.3050 -0.3811
 3096TIP3    H1 9252   5.774   1.577   5.575 -0.7709  0.1701 -1.3398
 3096TIP3    H2 9253   5.678   1.599   5.690  0.3446  0.4654 -0.4450
 3097TIP3   OH2 9254   5.588   6.223   2.079 -0.5809  0.2967 -0.1306
 3097TIP3    H1 9255   5.522   6.271   2.029  1.9090  2.4258 -1.6555
 3097TIP3    H2 9256   5.570   6.245   2.171 -2.5129  0.0207 -0.4101
 3098TIP3   OH2 9257   4.307   6.525   3.169 -0.1407  0.0358 -0.2723
 3098TIP3    H1 9258   4.344   6.540   3.082 -1.5777  0.2566 -0.8806
 3098TIP3    H2 9259   4.320   6.608   3.215  2.1376 -0.6026  0.3566
 3099TIP3   OH2 9260   7.102   1.659   4.171  0.0847  0.6806  0.1905
 3099TIP3    H1 9261   7.044   1.592   4.134  2.0618 -0.3780 -1.2330
 3099TIP3    H2 9262   7.159   1.610   4.231  1.8619  0.9410 -1.2150
 3100TIP3   OH2 9263   2.462   6.184   0.812 -0.0831  0.7900 -0.0649
 3100TIP3    H1 9264   2.519   6.108   0.798 -0.1539  0.5779  0.7916
 3100TIP3    H2 9265   2.516   6.245   0.862  0.2138  1.6158 -1.3275
 3101TIP3   OH2 9266   7.191   5.164   4.382 -0.3859  0.1136 -0.3120
 3101TIP3    H1 9267   7.211   5.237   4.324 -0.3784 -0.7948 -1.4973
 3101TIP3    H2 9268   7.101   5.140   4.361 -1.5595  1.7156  2.2754
 3102TIP3   OH2 9269   4.429   2.927   3.498 -0.0970 -0.0947  0.7151
 3102TIP3    H1 9270   4.355   2.881   3.458 -0.1776  1.4357 -1.0166
 3102TIP3    H2 9271   4.495   2.930   3.430  0.6293  0.7080  1.4319
 3103TIP3   OH2 9272   1.160   0.145   4.110 -0.8377  0.3403  0.5134
 3103TIP3    H1 9273   1.137   0.212   4.175 -0.0397  1.2208 -0.0786
 3103TIP3    H2 9274   1.237   0.102   4.146 -1.2812 -0.1912  0.8390
 3104TIP3   OH2 9275   6.234   0.376   3.098  0.3129 -0.8842 -0.1113
 3104TIP3    H1 9276   6.283   0.412   3.024  1.4124  1.1248  1.4783
 3104TIP3    H2 9277   6.161   0.436   3.109  1.6969  0.5492  2.0588
 3105TIP3   OH2 9278   1.079   1.266   2.207 -0.1941 -0.5485  0.0981
 3105TIP3    H1 9279   1.136   1.335   2.241  0.1916 -0.5752 -0.4842
 3105TIP3    H2 9280   1.031   1.308   2.135 -0.7120 -0.6043  0.4034
 3106TIP3   OH2 9281   2.657   5.707   3.391 -0.0329  0.7079 -0.1372
 3106TIP3    H1 9282   2.719   5.640   3.419 -1.5451 -0.2209  1.2020
 3106TIP3    H2 9283   2.620   5.672   3.310 -1.3638 -0.5308  0.9443
 3107TIP3   OH2 9284   2.503   2.902   0.045  0.5971  0.8886 -0.6618
 3107TIP3    H1 9285   2.560   2.909   0.122  0.0844 -0.5079 -0.1196
 3107TIP3    H2 9286   2.464   2.815   0.052 -0.8776  1.4459 -1.5297
 3108TIP3   OH2 9287   6.527   2.756   2.700 -0.7993 -0.6691  0.3429
 3108TIP3    H1 9288   6.564   2.725   2.783  0.1364 -3.2863 -0.9474
 3108TIP3    H2 9289   6.508   2.676   2.651  0.7618  0.7590 -2.8579
 3109TIP3   OH2 9290   2.223   2.592   0.915  0.0367  0.5348 -0.4088
 3109TIP3    H1 9291   2.141   2.599   0.965  1.0449 -0.4439  1.5049
 3109TIP3    H2 9292   2.196   2.556   0.830 -1.4999  0.0134  0.2591
 3110TIP3   OH2 9293   2.327   4.490   4.363  0.2179 -0.2402 -0.1510
 3110TIP3    H1 9294   2.236   4.518   4.356 -0.2897 -1.8142 -0.0623
 3110TIP3    H2 9295   2.343   4.482   4.457  0.4796  0.0849 -0.1636
 3111TIP3   OH2 9296   0.329   4.959   3.768 -0.7382  0.1104  0.3712
 3111TIP3    H1 9297   0.258   4.974   3.831 -1.1261  0.6931 -0.1951
 3111TIP3    H2 9298   0.291   4.897   3.706 -1.4060  1.7478 -0.9380
 3112TIP3   OH2 9299   0.236   2.790   2.224 -0.7237  0.2451 -1.1005
 3112TIP3    H1 9300   0.305   2.723   2.220 -0.5907  0.3521 -0.6665
 3112TIP3    H2 9301   0.219   2.800   2.317  0.9895  2.5709 -0.9457
 3113TIP3   OH2 9302   1.471   6.264   0.983 -0.0685  0.1519  0.9166
 3113TIP3    H1 9303   1.409   6.290   0.914  0.7493  0.4556  0.2771
 3113TIP3    H2 9304   1.461   6.169   0.990  0.7102 -0.0709 -0.5133
 3114TIP3   OH2 9305   0.359   0.548   4.219  0.2827 -0.1306  0.3546
 3114TIP3    H1 9306   0.286   0.520   4.165  0.0675  0.8499  0.1071
 3114TIP3    H2 9307   0.421   0.587   4.157  0.8303 -0.5710  0.6112
 3115TIP3   OH2 9308   2.521   5.727   4.556  1.2392  0.0343  0.3613
 3115TIP3    H1 9309   2.612   5.736   4.527  0.6872  1.2837 -1.1032
 3115TIP3    H2 9310   2.505   5.633   4.558  2.4853 -0.1877  0.4137
 3116TIP3   OH2 9311   1.428   4.589   0.046 -0.4073  0.3194  0.5101
 3116TIP3    H1 9312   1.418   4.606   0.140 -0.0289 -1.1887  0.8584
 3116TIP3    H2 9313   1.426   4.493   0.039 -1.6026  0.4286 -1.1668
 3117TIP3   OH2 9314   1.775   3.800   3.949 -0.4423 -0.1470 -0.3353
 3117TIP3    H1 9315   1.686   3.830   3.936 -0.2386  0.3898 -0.5257
 3117TIP3    H2 9316   1.812   3.795   3.861  0.7133  2.7793 -0.1337
 3118TIP3   OH2 9317   3.625   3.190   5.198  0.0869  0.0544  0.4516
 3118TIP3    H1 9318   3.605   3.274   5.157  1.4728 -0.9734 -2.6671
 3118TIP3    H2 9319   3.544   3.139   5.188  0.6745 -0.5450 -2.3658
 3119TIP3   OH2 9320   0.069   3.556   4.357  0.1906  0.1052 -0.2929
 3119TIP3    H1 9321  -0.003   3.619   4.348  0.7224  0.9794  1.1045
 3119TIP3    H2 9322   0.028   3.471   4.349 -0.7226  0.6166 -1.2228
 3120TIP3   OH2 9323   0.675   3.961   1.032 -0.0763 -0.1856 -0.6039
 3120TIP3    H1 9324   0.597   3.958   1.088 -0.7792 -1.3574 -1.5944
 3120TIP3    H2 9325   0.687   4.054   1.012 -0.4036  0.1394  0.6676
 3121TIP3   OH2 9326   4.647   2.571   0.374 -0.2945  0.1646 -0.4284
 3121TIP3    H1 9327   4.595   2.566   0.294  0.3169 -1.9139 -0.7561
 3121TIP3    H2 9328   4.724   2.624   0.349 -0.2725 -0.1855 -1.1295
 3122TIP3   OH2 9329   6.436   0.114   1.344 -0.2868  0.4566 -0.5081
 3122TIP3    H1 9330   6.483   0.152   1.418 -0.6473  0.5575 -0.3316
 3122TIP3    H2 9331   6.506   0.085   1.285  0.0058  0.2115 -0.0508
 3123TIP3   OH2 9332   4.172   0.274   3.656 -0.3823 -0.0377  0.5220
 3123TIP3    H1 9333   4.107   0.284   3.725 -1.0293 -0.8984  0.0504
 3123TIP3    H2 9334   4.125   0.231   3.584 -0.0637  1.9375 -0.9500
 3124TIP3   OH2 9335   5.761   3.133   1.477 -0.3259  0.3372 -0.1749
 3124TIP3    H1 9336   5.693   3.197   1.458  0.4839  1.3077  0.0775
 3124TIP3    H2 9337   5.767   3.081   1.397 -0.4187  1.1337 -0.7191
 3125TIP3   OH2 9338   1.579   3.283   5.393 -0.9589  0.4037 -0.4542
 3125TIP3    H1 9339   1.551   3.317   5.308  0.4605 -0.1317 -1.1654
 3125TIP3    H2 9340   1.498   3.280   5.445 -1.9239  0.4105 -1.8856
 3126TIP3   OH2 9341   3.267   5.424   1.463  0.0152  0.2495  0.2263
 3126TIP3    H1 9342   3.180   5.393   1.487  0.4454 -1.4575 -0.2777
 3126TIP3    H2 9343   3.322   5.401   1.538  0.1867  0.5192  0.1820
 3127TIP3   OH2 9344   6.236   4.794   3.808  0.0365  0.3724  0.3631
 3127TIP3    H1 9345   6.223   4.861   3.740  0.0475  0.3416  0.3304
 3127TIP3    H2 9346   6.226   4.841   3.890  1.7704  0.7927  0.3768
 3128TIP3   OH2 9347   3.459   6.106   3.409  0.0796 -0.4600 -0.2410
 3128TIP3    H1 9348   3.407   6.153   3.343 -1.5648 -2.1609 -0.2399
 3128TIP3    H2 9349   3.497   6.175   3.462  1.2375  0.9889 -2.7580
 3129TIP3   OH2 9350   3.841   3.043   4.435 -0.4936  0.0188 -0.3242
 3129TIP3    H1 9351   3.779   3.083   4.497  0.7804 -1.0171  1.7109
 3129TIP3    H2 9352   3.805   2.956   4.420  0.2736 -0.4879  0.6543
 3130TIP3   OH2 9353   1.681   2.260   5.744  0.7150 -0.5135 -0.5739
 3130TIP3    H1 9354   1.713   2.171   5.762  1.3719 -0.3447 -0.8862
 3130TIP3    H2 9355   1.649   2.291   5.829 -0.5844 -1.4585 -0.6823
 3131TIP3   OH2 9356   5.321   3.076   2.294 -0.2870  0.6371 -0.0924
 3131TIP3    H1 9357   5.388   3.026   2.341 -0.0201  0.6818 -0.4250
 3131TIP3    H2 9358   5.321   3.039   2.206  0.4670  1.7446 -0.5721
 3132TIP3   OH2 9359   2.543   0.358   3.472  0.0715 -0.1608 -0.5718
 3132TIP3    H1 9360   2.601   0.402   3.535 -0.2851  1.6563 -1.4311
 3132TIP3    H2 9361   2.494   0.295   3.524 -0.1390  1.2104  0.9782
 3133TIP3   OH2 9362   3.536   2.949   5.615  0.7029  0.0879  0.4486
 3133TIP3    H1 9363   3.630   2.958   5.626  1.4000 -3.3378 -1.3083
 3133TIP3    H2 9364   3.508   2.896   5.690 -0.1736  2.1206  1.6569
 3134TIP3   OH2 9365   4.860   0.781   5.427 -0.1513  0.2956 -0.0744
 3134TIP3    H1 9366   4.768   0.790   5.400 -0.1766  0.1217 -0.0492
 3134TIP3    H2 9367   4.901   0.732   5.356  0.5019  2.4912 -1.2854
 3135TIP3   OH2 9368   0.317   5.365   2.185  0.1501  0.2491 -0.0886
 3135TIP3    H1 9369   0.343   5.277   2.159 -1.3096  0.2908 -1.9345
 3135TIP3    H2 9370   0.290   5.356   2.276  0.2133 -1.1669 -0.1848
 3136TIP3   OH2 9371   2.512   4.323   5.618  0.0087 -0.3260  0.0213
 3136TIP3    H1 9372   2.506   4.319   5.522  0.0263  0.0838 -0.0016
 3136TIP3    H2 9373   2.595   4.280   5.639  0.1723 -0.1064 -0.1748
 3137TIP3   OH2 9374   1.436   1.888   3.166 -0.3556 -0.1427  0.3535
 3137TIP3    H1 9375   1.366   1.902   3.229 -1.0889 -0.5299 -0.3462
 3137TIP3    H2 9376   1.390   1.875   3.082  0.5917  0.5145 -0.2825
 3138TIP3   OH2 9377   1.071   5.982   4.256 -0.5864  0.5685  0.4640
 3138TIP3    H1 9378   1.100   5.930   4.331  1.3798  1.6040  0.4915
 3138TIP3    H2 9379   1.093   6.072   4.279  0.3217  0.8870 -1.4382
 3139TIP3   OH2 9380   6.194   5.922   1.918  0.2150 -0.6687 -0.2942
 3139TIP3    H1 9381   6.144   5.876   1.986  0.8220 -0.7233  0.1188
 3139TIP3    H2 9382   6.193   5.861   1.844 -1.5355 -0.0858 -0.8184
 3140TIP3   OH2 9383   2.681   6.483   4.326 -0.3527 -0.0844 -0.5781
 3140TIP3    H1 9384   2.690   6.555   4.263 -1.3883  0.4042 -0.1990
 3140TIP3    H2 9385   2.587   6.477   4.342 -0.3155 -1.7325 -0.8113
 3141TIP3   OH2 9386   6.512   3.436   2.212 -0.5488 -0.4621  0.2000
 3141TIP3    H1 9387   6.478   3.386   2.138 -0.2533  2.5740 -2.1836
 3141TIP3    H2 9388   6.606   3.420   2.212 -0.6715 -1.2450  0.6133
 3142TIP3   OH2 9389   0.674   3.600   0.584  0.4746  0.5080 -0.0749
 3142TIP3    H1 9390   0.626   3.655   0.647 -0.5109  2.8257 -2.6531
 3142TIP3    H2 9391   0.627   3.517   0.586  0.3035  0.5911  1.9989
 3143TIP3   OH2 9392   4.178   3.741   5.292 -0.2324 -0.0499  0.2642
 3143TIP3    H1 9393   4.136   3.795   5.359 -1.2945  0.5838 -0.8708
 3143TIP3    H2 9394   4.113   3.673   5.272  0.3252 -0.6053  0.3006
 3144TIP3   OH2 9395   4.632   6.046   3.780  0.2975 -0.8121  0.6121
 3144TIP3    H1 9396   4.660   6.125   3.826 -1.0142  0.3623 -0.5364
 3144TIP3    H2 9397   4.703   6.028   3.719  0.3343 -0.1707  0.4579
 3145TIP3   OH2 9398   1.506   2.057   2.371  0.2857  0.1793 -0.0215
 3145TIP3    H1 9399   1.489   2.100   2.454 -1.9200 -0.4827 -0.0551
 3145TIP3    H2 9400   1.424   2.066   2.322  0.7548 -1.4147 -1.2085
 3146TIP3   OH2 9401   3.174   5.627   4.088  0.1894  0.0266 -0.3341
 3146TIP3    H1 9402   3.177   5.691   4.017  0.1886  0.6657  0.2318
 3146TIP3    H2 9403   3.196   5.677   4.167 -2.4658 -0.0280  0.5558
 3147TIP3   OH2 9404   4.466   6.196   5.735 -0.7336 -0.2650 -0.1184
 3147TIP3    H1 9405   4.416   6.178   5.814 -1.2005  0.5673 -0.2154
 3147TIP3    H2 9406   4.458   6.116   5.682  1.1401 -1.5992  1.4445
 3148TIP3   OH2 9407   1.258   0.557   0.851 -0.2916  0.1245  0.0765
 3148TIP3    H1 9408   1.251   0.617   0.777 -1.3621  0.2193  0.2365
 3148TIP3    H2 9409   1.309   0.483   0.817 -1.1019 -0.0142 -0.8992
 3149TIP3   OH2 9410   2.115   0.032   2.759  0.1494 -0.4879 -0.5250
 3149TIP3    H1 9411   2.106  -0.029   2.685 -1.3927  0.6505 -1.3479
 3149TIP3    H2 9412   2.083   0.116   2.724 -1.2487 -0.0642  1.6278
 3150TIP3   OH2 9413   3.576   1.532   3.461 -0.2279 -0.0510 -0.6639
 3150TIP3    H1 9414   3.582   1.558   3.552  0.2978  1.5822 -1.1426
 3150TIP3    H2 9415   3.532   1.605   3.417  1.0073 -0.0639 -1.9958
 3151TIP3   OH2 9416   6.311   4.200   0.375  0.0706 -0.1714  0.3022
 3151TIP3    H1 9417   6.396   4.175   0.409  2.0360  3.3696 -1.4054
 3151TIP3    H2 9418   6.322   4.202   0.280 -1.9338  0.3706  0.0265
 3152TIP3   OH2 9419   4.376   3.676   4.115  0.3563  0.0197  0.2029
 3152TIP3    H1 9420   4.423   3.667   4.197  0.6439 -0.2416  0.0133
 3152TIP3    H2 9421   4.355   3.586   4.089  1.0612  0.0213 -0.4511
 3153TIP3   OH2 9422   0.325   2.878   4.997 -0.0125  0.1217  0.3809
 3153TIP3    H1 9423   0.406   2.914   4.961 -1.0869  1.8075 -0.4749
 3153TIP3    H2 9424   0.345   2.786   5.012  1.9470  0.4078 -0.1421
 3154TIP3   OH2 9425   1.866   5.601   4.532 -0.1584  0.1139 -0.2054
 3154TIP3    H1 9426   1.843   5.677   4.479  1.6709 -0.3303 -1.7330
 3154TIP3    H2 9427   1.934   5.632   4.592  0.3649 -0.2304 -0.6134
 3155TIP3   OH2 9428   3.888   0.846   3.953  0.2244  0.4144  0.2751
 3155TIP3    H1 9429   3.924   0.882   4.033  0.8074  1.4405 -0.4281
 3155TIP3    H2 9430   3.793   0.845   3.967  0.2700  1.2617  0.7088
 3156TIP3   OH2 9431   1.124   3.163   1.325 -0.2799 -0.0835  0.6694
 3156TIP3    H1 9432   1.053   3.220   1.296 -1.6314 -0.5281  2.8308
 3156TIP3    H2 9433   1.192   3.223   1.354 -0.3760  0.3852 -0.0629
 3157TIP3   OH2 9434   6.004   3.670   3.041  0.0091 -0.0239 -1.0304
 3157TIP3    H1 9435   6.027   3.740   2.981  1.5377  0.1857 -0.2588
 3157TIP3    H2 9436   6.028   3.589   2.996  0.7621  0.1112 -0.8842
 3158TIP3   OH2 9437   3.867   3.189   5.807  0.1365 -0.3615 -0.1796
 3158TIP3    H1 9438   3.871   3.179   5.712 -1.8148 -0.9396 -0.2310
 3158TIP3    H2 9439   3.844   3.102   5.839  0.1013 -0.0121  0.7641
 3159TIP3   OH2 9440   0.238   2.688   5.431 -0.5502  0.2626 -0.0364
 3159TIP3    H1 9441   0.201   2.746   5.365  1.0408  0.2981 -0.9404
 3159TIP3    H2 9442   0.184   2.704   5.509 -1.3900  1.4772 -0.8194
 3160TIP3   OH2 9443   5.220   3.576   4.913  0.4490  0.0340 -0.3030
 3160TIP3    H1 9444   5.156   3.606   4.848 -0.2198 -1.2028 -0.2454
 3160TIP3    H2 9445   5.290   3.642   4.910 -0.8472  1.4747 -0.3074
 3161TIP3   OH2 9446   3.992   4.489   5.055 -0.0758  0.3964 -0.8748
 3161TIP3    H1 9447   3.896   4.491   5.054 -0.0789  1.4099 -0.2573
 3161TIP3    H2 9448   4.017   4.510   4.965 -0.4463  1.2073 -0.8002
 3162TIP3   OH2 9449   0.214   0.373   1.319  0.1482 -0.1836  0.0679
 3162TIP3    H1 9450   0.197   0.423   1.399 -0.6259  1.3161 -0.9662
 3162TIP3    H2 9451   0.286   0.421   1.277 -0.1532 -0.3289 -0.6199
 3163TIP3   OH2 9452   1.103   3.916   2.925  0.9140  0.1011  0.2669
 3163TIP3    H1 9453   1.104   3.860   3.002  1.8708  0.6952  0.7058
 3163TIP3    H2 9454   1.195   3.925   2.900  0.7967  1.4259  0.1995
 3164TIP3   OH2 9455   6.086   5.152   5.558  0.3741 -0.4850 -0.1697
 3164TIP3    H1 9456   6.094   5.216   5.487 -2.8934 -0.0704 -0.3310
 3164TIP3    H2 9457   6.073   5.068   5.514  0.2141 -0.5232 -0.0510
 3165TIP3   OH2 9458   0.739   3.760   4.541 -0.2192 -0.2837  0.7087
 3165TIP3    H1 9459   0.754   3.810   4.622 -3.6498  0.6713  0.9302
 3165TIP3    H2 9460   0.674   3.695   4.566 -0.5904 -0.6246 -1.0571
 3166TIP3   OH2 9461   3.323   0.645   3.617  0.0120 -0.0249 -0.0913
 3166TIP3    H1 9462   3.326   0.555   3.583 -1.4518 -0.6446  1.2367
 3166TIP3    H2 9463   3.230   0.658   3.639  0.3169  1.5918  0.3161
 3167TIP3   OH2 9464   4.251   4.121   5.673 -0.0332 -0.4590 -0.2766
 3167TIP3    H1 9465   4.233   4.169   5.755  1.1690  0.1225 -0.3322
 3167TIP3    H2 9466   4.208   4.036   5.685 -1.4444  0.2768  0.1998
 3168TIP3   OH2 9467   0.261   4.769   2.054 -0.2313 -0.0787  0.0265
 3168TIP3    H1 9468   0.214   4.757   2.137 -0.2308  2.8684  0.5513
 3168TIP3    H2 9469   0.193   4.791   1.991 -0.0743 -0.9909 -0.4811
 3169TIP3   OH2 9470   2.628   0.415   0.131 -0.6225  0.0871  1.2509
 3169TIP3    H1 9471   2.537   0.442   0.139 -0.7687  0.7677 -1.5826
 3169TIP3    H2 9472   2.624   0.321   0.118 -1.0263  0.2392  0.1933
 3170TIP3   OH2 9473   1.103   0.226   2.236  0.1990  0.2427  0.2430
 3170TIP3    H1 9474   1.074   0.139   2.210 -0.1159  0.8193 -1.4952
 3170TIP3    H2 9475   1.065   0.285   2.171  1.6537  1.5136  0.4641
 3171TIP3   OH2 9476   2.207   6.599   3.907  0.0446 -0.6579  0.5237
 3171TIP3    H1 9477   2.210   6.581   3.813 -1.9220  0.4874  0.2035
 3171TIP3    H2 9478   2.239   6.689   3.916 -0.1617 -0.6191  0.9141
 3172TIP3   OH2 9479   1.344   2.906   5.196 -0.4004  0.4414  0.0189
 3172TIP3    H1 9480   1.374   2.996   5.190 -0.6473  0.5064 -0.2704
 3172TIP3    H2 9481   1.336   2.890   5.290 -2.2921  1.3817  0.0673
 3173TIP3   OH2 9482   3.188   3.113   0.680  0.0146  0.0599 -0.7495
 3173TIP3    H1 9483   3.196   3.021   0.705  0.1551 -0.2325 -1.8270
 3173TIP3    H2 9484   3.245   3.122   0.604 -0.1765  0.9902 -0.7920
 3174TIP3   OH2 9485   5.330   1.014   0.533  0.1036  0.1841 -0.2612
 3174TIP3    H1 9486   5.277   1.088   0.505  0.9573  0.5343 -0.9896
 3174TIP3    H2 9487   5.401   1.053   0.583  1.6034  0.0692 -2.2028
 3175TIP3   OH2 9488   2.837   6.555   0.286 -0.2557 -0.1703 -0.2447
 3175TIP3    H1 9489   2.849   6.526   0.377  0.9636 -0.5994 -0.5252
 3175TIP3    H2 9490   2.836   6.474   0.235 -0.4879  0.0911 -0.6563
 3176TIP3   OH2 9491   3.094   2.414   0.102  0.7176 -0.1049  0.0325
 3176TIP3    H1 9492   3.038   2.360   0.158 -0.1634 -0.0476 -0.7641
 3176TIP3    H2 9493   3.070   2.388   0.013  0.9288  0.9563 -0.3430
 3177TIP3   OH2 9494   4.604   2.199   5.673  0.4393  0.0752 -0.0988
 3177TIP3    H1 9495   4.643   2.236   5.753  0.5082  0.4270 -0.2935
 3177TIP3    H2 9496   4.605   2.105   5.688  0.4618  0.1370  0.3147
 3178TIP3   OH2 9497   5.014   0.902   1.469 -0.0784  0.2774 -0.3300
 3178TIP3    H1 9498   4.989   0.810   1.457 -1.3402  0.7112 -1.2108
 3178TIP3    H2 9499   5.069   0.921   1.393  0.1398  0.2638 -0.1745
 3179TIP3   OH2 9500   1.759   5.141   4.326 -0.8484 -0.0073 -0.2538
 3179TIP3    H1 9501   1.728   5.059   4.365 -0.6628 -0.0287 -0.1471
 3179TIP3    H2 9502   1.690   5.204   4.345 -0.9010 -0.0922 -0.1598
 3180TIP3   OH2 9503   6.427   0.099   4.330 -0.1311  0.0155  0.6893
 3180TIP3    H1 9504   6.343   0.089   4.285  0.0992 -0.0511  0.2730
 3180TIP3    H2 9505   6.492   0.078   4.264  0.1943 -0.8650  1.2680
 3181TIP3   OH2 9506   6.521   2.898   3.791 -0.0310  0.2584  0.1337
 3181TIP3    H1 9507   6.593   2.865   3.736  0.2116  2.4311 -0.9679
 3181TIP3    H2 9508   6.516   2.991   3.770 -1.3986  0.7272  2.2350
 3182TIP3   OH2 9509   6.806   0.691   3.907  0.0578  0.2133 -0.0527
 3182TIP3    H1 9510   6.841   0.603   3.923 -0.0159  0.2321  0.2054
 3182TIP3    H2 9511   6.712   0.679   3.898 -0.2529  0.5608  2.2403
 3183TIP3   OH2 9512   3.744   4.194   3.589 -0.2892  0.1297 -0.2090
 3183TIP3    H1 9513   3.831   4.182   3.551 -0.7938 -0.2167 -1.3224
 3183TIP3    H2 9514   3.711   4.105   3.601 -1.0573  0.2514 -1.2271
 3184TIP3   OH2 9515   2.608   5.552   2.470  0.4496 -0.0434 -0.6396
 3184TIP3    H1 9516   2.526   5.577   2.513  0.1378 -0.5373 -0.9350
 3184TIP3    H2 9517   2.676   5.567   2.536 -0.0533 -1.0827  0.1362
 3185TIP3   OH2 9518   0.679   1.611   1.975  0.1928 -0.0654  0.8210
 3185TIP3    H1 9519   0.631   1.553   2.034 -0.5499 -0.6601 -0.3387
 3185TIP3    H2 9520   0.700   1.557   1.899  2.1877  0.3530  1.0163
 3186TIP3   OH2 9521   4.930   6.576   0.892  0.2475  0.1917  0.1704
 3186TIP3    H1 9522   5.005   6.624   0.928 -0.1277  0.5568  0.4727
 3186TIP3    H2 9523   4.969   6.507   0.838  0.9833 -2.3129  3.5811
 3187TIP3   OH2 9524   0.574   4.195   3.766 -0.1522 -0.4205 -0.0686
 3187TIP3    H1 9525   0.615   4.207   3.852  0.7400  2.3321 -0.7843
 3187TIP3    H2 9526   0.481   4.186   3.784  0.0470 -0.1149  1.1984
 3188TIP3   OH2 9527   6.253   4.996   0.233  0.3407  0.2452  0.2948
 3188TIP3    H1 9528   6.256   4.989   0.138  0.8890  0.8852  0.2549
 3188TIP3    H2 9529   6.307   5.073   0.253  2.3432 -1.3485  1.3071
 3189TIP3   OH2 9530   2.960   5.397   4.739 -0.2299 -0.0090 -0.0140
 3189TIP3    H1 9531   3.013   5.321   4.714 -0.5034  0.0072 -0.6684
 3189TIP3    H2 9532   2.995   5.425   4.823  0.8384  0.0252 -0.4543
 3190TIP3   OH2 9533   5.714   2.073   2.380  0.3182  0.0432  0.0830
 3190TIP3    H1 9534   5.619   2.065   2.390  0.5640 -3.1292  1.2667
 3190TIP3    H2 9535   5.734   2.015   2.306  1.3929 -0.1107  0.4839
 3191TIP3   OH2 9536   1.775   2.623   0.258  0.6479  0.0724  0.6555
 3191TIP3    H1 9537   1.737   2.535   0.259  1.9068 -0.5091  0.1933
 3191TIP3    H2 9538   1.809   2.636   0.347  0.7869 -0.0593  0.6215
 3192TIP3   OH2 9539   5.962   5.108   1.156 -0.0371  0.1251 -0.1673
 3192TIP3    H1 9540   6.044   5.150   1.184 -1.4769  2.5877  0.7149
 3192TIP3    H2 9541   5.950   5.138   1.066  0.6786 -1.3997 -0.8076
 3193TIP3   OH2 9542   3.546   5.183   4.312  0.1468  0.1340  0.6775
 3193TIP3    H1 9543   3.634   5.145   4.318 -1.1295 -3.7012 -1.2868
 3193TIP3    H2 9544   3.540   5.213   4.221  0.0101  2.3519  1.3560
 3194TIP3   OH2 9545   4.857   4.535   4.552  0.1622 -0.1491  0.1672
 3194TIP3    H1 9546   4.777   4.588   4.546 -0.6346 -1.4002 -0.7549
 3194TIP3    H2 9547   4.927   4.597   4.535 -0.7224  0.6916 -0.5638
 3195TIP3   OH2 9548   0.138   0.053   5.685 -0.1226 -0.1353 -0.1467
 3195TIP3    H1 9549   0.095   0.136   5.704 -1.9594 -1.0049 -0.2739
 3195TIP3    H2 9550   0.189   0.033   5.764  0.2426  1.0321 -0.0744
 3196TIP3   OH2 9551   3.382   3.369   4.645 -0.1993 -0.4412 -0.5818
 3196TIP3    H1 9552   3.426   3.414   4.718  0.3371  3.6430 -3.1202
 3196TIP3    H2 9553   3.295   3.408   4.643  0.0768  0.1619 -2.5413
 3197TIP3   OH2 9554   5.843   6.631   1.618 -0.0446  0.2601  0.6515
 3197TIP3    H1 9555   5.785   6.562   1.586  1.9115 -1.5634  0.7942
 3197TIP3    H2 9556   5.931   6.600   1.595  0.9242  2.5561  1.0652
 3198TIP3   OH2 9557   5.065  -0.014   3.649 -0.2701  0.4838 -0.3936
 3198TIP3    H1 9558   5.120   0.015   3.721 -0.4333 -0.4857  0.1459
 3198TIP3    H2 9559   5.116   0.003   3.571  1.2429 -1.2757  0.1405
 3199TIP3   OH2 9560   3.614   5.822   5.842 -0.3788 -0.4021  0.0298
 3199TIP3    H1 9561   3.682   5.857   5.899 -2.2868  1.2367  1.4602
 3199TIP3    H2 9562   3.609   5.884   5.769 -0.2472 -0.5863 -0.1355
 3200TIP3   OH2 9563   2.952   4.943   3.776 -0.4185  0.3971  0.2876
 3200TIP3    H1 9564   2.865   4.950   3.738 -0.4750  0.3590  0.4110
 3200TIP3    H2 9565   2.996   5.024   3.748 -1.1469  1.4023  1.9029
 3201TIP3   OH2 9566   0.389   6.043   1.169  0.1375  0.5589 -0.2688
 3201TIP3    H1 9567   0.306   6.084   1.148 -1.3730 -1.8281  0.5858
 3201TIP3    H2 9568   0.452   6.085   1.111 -2.0044  1.0982 -2.3697
 3202TIP3   OH2 9569   6.191   6.540   5.464  0.0449  0.3453 -1.4193
 3202TIP3    H1 9570   6.260   6.500   5.517  0.3474  1.9925 -0.4997
 3202TIP3    H2 9571   6.116   6.481   5.474  0.6455 -0.3088 -0.6238
 3203TIP3   OH2 9572   0.858   0.167   4.399  0.8761  0.0721  0.0615
 3203TIP3    H1 9573   0.846   0.092   4.341  2.4566 -0.4960  0.4288
 3203TIP3    H2 9574   0.949   0.193   4.387  1.7459 -1.0240  3.3285
 3204TIP3   OH2 9575   0.406   4.030   4.078 -0.2099  0.1760 -0.3438
 3204TIP3    H1 9576   0.385   4.108   4.027 -1.8672 -1.2495 -1.9957
 3204TIP3    H2 9577   0.375   4.049   4.166 -0.1731  1.5339 -0.6051
 3205TIP3   OH2 9578   1.209   3.858   5.171 -0.0033 -0.6556 -0.3608
 3205TIP3    H1 9579   1.170   3.945   5.162 -0.5078 -0.9591 -1.3454
 3205TIP3    H2 9580   1.266   3.865   5.247 -0.9853  0.1840  0.3312
 3206TIP3   OH2 9581   0.435   1.398   0.530  0.3992  0.1571 -0.4687
 3206TIP3    H1 9582   0.474   1.333   0.589 -2.3714 -0.7655  0.5256
 3206TIP3    H2 9583   0.499   1.407   0.459  1.7584 -2.2500  0.3180
 3207TIP3   OH2 9584   5.107   1.382   3.340  0.4931 -0.3788 -0.2624
 3207TIP3    H1 9585   5.067   1.346   3.418 -0.5436 -1.5266 -1.2770
 3207TIP3    H2 9586   5.146   1.465   3.368 -2.9936  1.1023  0.7139
 3208TIP3   OH2 9587   5.187   2.218   4.538  0.0583  0.0514  0.0580
 3208TIP3    H1 9588   5.151   2.212   4.449  0.2145 -1.6162  0.0780
 3208TIP3    H2 9589   5.223   2.306   4.543 -0.5158  0.3961 -1.3146
 3209TIP3   OH2 9590   3.606   2.635   3.157 -0.2559 -0.4931 -0.0523
 3209TIP3    H1 9591   3.672   2.646   3.226 -0.9729 -1.3180  0.7846
 3209TIP3    H2 9592   3.636   2.558   3.108  0.9162  0.7903 -1.4808
 3210TIP3   OH2 9593   6.743   3.424   0.816  0.3670 -0.3868 -0.2312
 3210TIP3    H1 9594   6.773   3.402   0.904 -0.1504 -1.4739 -0.3130
 3210TIP3    H2 9595   6.777   3.353   0.761 -0.5840 -0.5187 -0.6620
 3211TIP3   OH2 9596   5.378   5.447   3.837 -0.4885  0.3013  0.3791
 3211TIP3    H1 9597   5.393   5.475   3.927  0.8577  0.7910  0.0262
 3211TIP3    H2 9598   5.282   5.448   3.828 -0.8366 -2.2041  2.5272
 3212TIP3   OH2 9599   6.118   2.227   1.832  0.3697  0.3689 -0.0789
 3212TIP3    H1 9600   6.191   2.287   1.845  1.0820 -0.7551  1.5532
 3212TIP3    H2 9601   6.160   2.143   1.811 -0.2315 -0.8174  2.9395
 3213TIP3   OH2 9602   2.097   1.483   2.190  0.4402  0.2160  0.7082
 3213TIP3    H1 9603   2.122   1.510   2.102 -1.0360 -1.6996 -0.3821
 3213TIP3    H2 9604   2.105   1.388   2.189 -2.0788 -0.1074  1.7619
 3214TIP3   OH2 9605   6.053   6.102   3.225  0.3225  0.2540  0.6635
 3214TIP3    H1 9606   6.000   6.023   3.233 -1.2372  1.2605  0.7661
 3214TIP3    H2 9607   6.087   6.118   3.313 -0.9753  0.7350  1.1075
 3215TIP3   OH2 9608   3.480   3.677   1.231 -0.1164  0.3950  0.1854
 3215TIP3    H1 9609   3.528   3.627   1.165 -0.0919  0.2470  0.3140
 3215TIP3    H2 9610   3.469   3.616   1.304 -0.2512  0.5186  0.2694
 3216TIP3   OH2 9611   0.036   1.010   4.713  0.1688  0.4064 -0.3438
 3216TIP3    H1 9612   0.051   0.948   4.784  0.6242  0.5728 -0.2898
 3216TIP3    H2 9613   0.089   0.976   4.640 -0.2770  0.2485 -0.6013
 3217TIP3   OH2 9614   5.355   3.655   5.266  0.0009  0.2152  0.4426
 3217TIP3    H1 9615   5.355   3.587   5.333 -2.9374  1.1534  1.5470
 3217TIP3    H2 9616   5.411   3.724   5.302  1.0532 -0.5888  0.3999
 3218TIP3   OH2 9617   4.291   3.962   3.048 -0.0328 -0.1225  0.3073
 3218TIP3    H1 9618   4.287   3.868   3.032  0.7066 -0.0477 -0.3476
 3218TIP3    H2 9619   4.341   3.998   2.975  0.6818  0.6337  1.1308
 3219TIP3   OH2 9620   4.612   0.933   0.987  0.0067 -0.1555 -0.0791
 3219TIP3    H1 9621   4.656   0.933   1.072 -1.1552  0.5693  0.5469
 3219TIP3    H2 9622   4.547   0.863   0.993  0.3082 -0.4803 -0.5770
 3220TIP3   OH2 9623   3.706   6.297   2.460 -0.4722  0.3282  0.6433
 3220TIP3    H1 9624   3.617   6.279   2.492 -1.1441  3.0839  0.5494
 3220TIP3    H2 9625   3.697   6.302   2.365  0.4091 -2.1470  0.3561
 3221TIP3   OH2 9626   0.797   4.470   4.013 -0.1715 -0.3500 -0.5752
 3221TIP3    H1 9627   0.714   4.498   3.976 -0.3156  1.4315  0.9719
 3221TIP3    H2 9628   0.774   4.429   4.096  0.3681 -1.7202 -1.0686
 3222TIP3   OH2 9629   1.100   3.952   3.416  0.2886 -0.5701 -0.0035
 3222TIP3    H1 9630   1.077   3.870   3.460  0.9922 -0.8497 -0.1374
 3222TIP3    H2 9631   1.107   4.017   3.486 -0.9926 -0.4495  0.0247
 3223TIP3   OH2 9632   4.760   2.080   4.008 -0.1103 -0.7498  0.6981
 3223TIP3    H1 9633   4.845   2.040   4.029 -0.1899 -2.0691 -1.2355
 3223TIP3    H2 9634   4.743   2.053   3.918 -2.2878  0.0554  0.8237
 3224TIP3   OH2 9635   0.952   3.947   4.674 -0.3308 -0.0220  0.1521
 3224TIP3    H1 9636   0.990   3.872   4.629  1.5438 -0.3390  2.1483
 3224TIP3    H2 9637   1.009   4.021   4.650 -0.7827  0.3027  0.0608
 3225TIP3   OH2 9638   3.822   4.388   4.379 -0.4021 -0.0424 -0.6715
 3225TIP3    H1 9639   3.828   4.477   4.413  0.1378 -0.2598 -0.1826
 3225TIP3    H2 9640   3.733   4.380   4.345 -1.7065 -0.4761  2.5089
 3226TIP3   OH2 9641   0.138   4.501   4.860 -0.1855 -0.5624  0.4202
 3226TIP3    H1 9642   0.131   4.510   4.955 -0.0063  1.0402  0.3106
 3226TIP3    H2 9643   0.087   4.574   4.825  1.4995  0.1545 -0.6752
 3227TIP3   OH2 9644   4.605   2.253   4.140 -0.1211 -0.2114 -0.4218
 3227TIP3    H1 9645   4.515   2.220   4.138 -0.0949 -0.2955 -0.2158
 3227TIP3    H2 9646   4.655   2.192   4.086 -0.0169 -0.6754  0.1889
 3228TIP3   OH2 9647   4.676   0.159   5.420 -0.0507  0.0183  0.0221
 3228TIP3    H1 9648   4.747   0.097   5.436 -0.3336  0.0104  1.3265
 3228TIP3    H2 9649   4.608   0.107   5.377 -0.7506 -0.9202  2.1051
 3229TIP3   OH2 9650   5.834   6.654   5.443 -0.5226  0.0871  0.0198
 3229TIP3    H1 9651   5.877   6.683   5.363  0.6544  0.9430  0.9253
 3229TIP3    H2 9652   5.757   6.711   5.450  0.2845  1.1767  0.3500
 3230TIP3   OH2 9653   0.518   3.402   5.508 -0.5843  0.9486  0.3578
 3230TIP3    H1 9654   0.537   3.467   5.576  1.1269 -1.0552  1.9412
 3230TIP3    H2 9655   0.561   3.322   5.539 -1.7008 -0.6783 -2.0056
 3231TIP3   OH2 9656   1.436   0.156   3.722  0.8577 -0.4710  0.3371
 3231TIP3    H1 9657   1.366   0.216   3.749  0.6683 -0.2983 -0.5350
 3231TIP3    H2 9658   1.391   0.086   3.674  1.4184  0.3808 -1.4865
 3232TIP3   OH2 9659   0.082   3.935   0.162 -0.3509  0.2965 -0.3245
 3232TIP3    H1 9660   0.175   3.946   0.143 -0.5129  0.2355 -1.2082
 3232TIP3    H2 9661   0.043   3.907   0.079 -0.8151 -1.8357  0.5221
 3233TIP3   OH2 9662   0.029   3.342   0.643  0.0258 -0.2874 -0.2485
 3233TIP3    H1 9663   0.111   3.365   0.688 -0.0380 -0.1140 -0.2172
 3233TIP3    H2 9664   0.052   3.343   0.550 -0.3308  1.4522 -0.3543
 3234TIP3   OH2 9665   7.029   0.237   5.534  0.0035  0.3745  0.2948
 3234TIP3    H1 9666   6.983   0.184   5.599 -1.4234 -0.0822 -1.0084
 3234TIP3    H2 9667   7.106   0.271   5.579 -0.7296 -0.2507  2.0753
 3235TIP3   OH2 9668   1.994   6.742   4.786  0.2318  0.3268 -0.0295
 3235TIP3    H1 9669   1.959   6.667   4.834  1.0434 -0.6014 -0.8314
 3235TIP3    H2 9670   1.935   6.751   4.710 -0.0067  0.6621  0.1930
 3236TIP3   OH2 9671   4.201   2.868   5.738 -0.0679  0.2177 -0.0128
 3236TIP3    H1 9672   4.289   2.831   5.739  0.0806  0.4858 -1.3673
 3236TIP3    H2 9673   4.175   2.870   5.830  1.6503  0.8974  0.5045
 3237TIP3   OH2 9674   2.672   6.531   2.702  0.2984 -0.1859  0.2217
 3237TIP3    H1 9675   2.594   6.475   2.696 -1.7484  2.4020  1.1157
 3237TIP3    H2 9676   2.710   6.529   2.614 -1.6454 -0.3605 -0.6598
 3238TIP3   OH2 9677   1.888   5.800   0.056  0.2096  0.3254  0.0400
 3238TIP3    H1 9678   1.853   5.811   0.144 -0.6619  0.0040 -0.2592
 3238TIP3    H2 9679   1.979   5.828   0.063  0.3736 -0.4276  1.2182
 3239TIP3   OH2 9680   4.200   3.082   1.136 -0.1873  0.5512  0.1820
 3239TIP3    H1 9681   4.227   3.157   1.083 -1.8649  0.6016 -0.6749
 3239TIP3    H2 9682   4.255   3.010   1.106  0.1382  1.0056 -0.3331
 3240TIP3   OH2 9683   5.347   0.048   0.367  0.6544 -0.5525 -0.2271
 3240TIP3    H1 9684   5.301  -0.035   0.382  0.2357  0.0925  2.4767
 3240TIP3    H2 9685   5.440   0.024   0.371  0.6542 -1.3656 -2.8369
 3241TIP3   OH2 9686   1.048   3.177   4.031 -0.2080  0.0213 -0.1142
 3241TIP3    H1 9687   1.138   3.155   4.009  0.0178  0.2350  0.5748
 3241TIP3    H2 9688   1.001   3.094   4.027  0.2963 -0.3275  0.8139
 3242TIP3   OH2 9689   0.887   5.557   0.150  0.3262 -0.0442 -0.3655
 3242TIP3    H1 9690   0.860   5.621   0.216  2.4489 -1.5727  2.1966
 3242TIP3    H2 9691   0.939   5.607   0.088  0.5930  1.0059  0.6757
 3243TIP3   OH2 9692   0.894   4.145   2.410 -0.0337  0.4708 -0.3613
 3243TIP3    H1 9693   0.818   4.147   2.468  1.0589  1.5325  1.1248
 3243TIP3    H2 9694   0.952   4.079   2.449 -0.0756 -0.2018 -1.3762
 3244TIP3   OH2 9695   1.475   1.178   0.224  0.5806 -1.2640  0.0972
 3244TIP3    H1 9696   1.404   1.127   0.184 -0.4712 -1.0728  1.6656
 3244TIP3    H2 9697   1.438   1.212   0.305  1.3898  1.6298 -0.6253
 3245TIP3   OH2 9698   5.491   0.070   5.379 -0.0034  0.8155 -0.5553
 3245TIP3    H1 9699   5.400   0.071   5.350 -0.9471  0.4221  2.1082
 3245TIP3    H2 9700   5.511   0.161   5.401  0.0062  0.7936 -0.4723
 3246TIP3   OH2 9701   4.065   4.558   4.037  0.2690  0.5552  0.1733
 3246TIP3    H1 9702   4.159   4.555   4.054  0.5013  0.2904 -1.0946
 3246TIP3    H2 9703   4.046   4.476   3.991 -0.5912  0.5857  0.4546
 3247TIP3   OH2 9704   2.826   0.336   3.148  0.4142  0.2999  0.4977
 3247TIP3    H1 9705   2.782   0.251   3.143  0.0820  0.5273 -1.0028
 3247TIP3    H2 9706   2.917   0.318   3.127  0.0304  0.4982 -1.5868
 3248TIP3   OH2 9707   6.823   5.323   1.470 -0.2498 -0.0126  0.4807
 3248TIP3    H1 9708   6.847   5.259   1.403  0.6906  0.1836  0.6118
 3248TIP3    H2 9709   6.803   5.271   1.547  0.9115 -0.1456  0.7062
 3249TIP3   OH2 9710   0.068   4.986   4.972  0.1971  0.6516  0.1761
 3249TIP3    H1 9711   0.108   5.069   4.995 -0.2373  1.3449 -1.4054
 3249TIP3    H2 9712  -0.020   5.009   4.941 -0.6689 -0.6060  1.5205
 3250TIP3   OH2 9713   1.488   0.473   2.349  0.1944  0.4938  0.2662
 3250TIP3    H1 9714   1.432   0.550   2.338 -0.2150 -0.0645 -1.8208
 3250TIP3    H2 9715   1.428   0.402   2.372  0.5443  0.6742  1.9131
 3251TIP3   OH2 9716   4.709   5.410   0.202 -0.6121 -0.0984 -0.3265
 3251TIP3    H1 9717   4.726   5.374   0.114 -2.3568 -2.1580  0.0984
 3251TIP3    H2 9718   4.614   5.405   0.211 -0.5391  1.0496  1.3171
 3252TIP3   OH2 9719   0.342   6.029   2.701  0.5562  0.1064 -0.2922
 3252TIP3    H1 9720   0.265   6.086   2.705 -0.2139 -0.5623 -3.2471
 3252TIP3    H2 9721   0.353   5.997   2.791 -3.5581 -0.9563  0.0080
 3253TIP3   OH2 9722   1.469   0.179   4.663 -0.0328  0.1521 -0.1669
 3253TIP3    H1 9723   1.379   0.200   4.638  0.5209 -1.4088 -3.9912
 3253TIP3    H2 9724   1.511   0.265   4.672 -1.2674  0.8593 -0.8201
 3254TIP3   OH2 9725   3.510   4.053   4.996  0.2038  0.3868 -0.2435
 3254TIP3    H1 9726   3.503   4.039   4.902  0.2478 -0.3806 -0.1353
 3254TIP3    H2 9727   3.604   4.045   5.014  0.1606  0.2250 -0.0894
 3255TIP3   OH2 9728   4.483   0.851   3.672  0.1579 -0.4692  0.3102
 3255TIP3    H1 9729   4.469   0.884   3.761  0.6944  0.8500 -0.0678
 3255TIP3    H2 9730   4.577   0.861   3.658 -0.0551  0.2147 -0.7246
 3256TIP3   OH2 9731   3.616   4.043   4.730 -0.1726  0.0080 -0.2492
 3256TIP3    H1 9732   3.600   4.001   4.645 -1.8127  0.8218 -0.3880
 3256TIP3    H2 9733   3.699   4.006   4.760 -0.7930 -2.1986 -1.0410
 3257TIP3   OH2 9734   3.815   2.742   5.214  0.3341 -0.2101  0.0007
 3257TIP3    H1 9735   3.870   2.691   5.154 -0.2305 -0.4607 -0.3204
 3257TIP3    H2 9736   3.877   2.789   5.270  0.8709 -0.7159 -0.1528
 3258TIP3   OH2 9737   1.847   3.179   2.611 -0.0612  0.1452 -0.6318
 3258TIP3    H1 9738   1.773   3.118   2.615  0.7765 -1.0362 -2.1231
 3258TIP3    H2 9739   1.897   3.161   2.690 -1.4224  1.0912  0.4943
 3259TIP3   OH2 9740   0.544   1.771   4.126  0.1477  0.0619 -0.3042
 3259TIP3    H1 9741   0.631   1.767   4.087 -0.0125 -1.1839 -0.5805
 3259TIP3    H2 9742   0.485   1.741   4.057 -0.1755 -1.7968  0.7057
 3260TIP3   OH2 9743   5.118   3.707   4.660  0.3026  0.0164 -0.5340
 3260TIP3    H1 9744   5.035   3.737   4.697  1.1019  1.4797  0.1924
 3260TIP3    H2 9745   5.136   3.767   4.588  0.9540  0.0310 -0.3718
 3261TIP3   OH2 9746   5.067   4.619   3.643 -0.0199 -0.2027 -0.2428
 3261TIP3    H1 9747   5.137   4.674   3.679  0.9463 -1.4523 -0.1154
 3261TIP3    H2 9748   5.114   4.548   3.598 -1.2031 -1.0521 -0.1800
 3262TIP3   OH2 9749   6.367   6.671   0.980  0.0707 -0.3330  0.3073
 3262TIP3    H1 9750   6.438   6.661   1.044 -0.1132  0.7675  0.7046
 3262TIP3    H2 9751   6.410   6.664   0.895  1.0620  2.3378  0.4942
 3263TIP3   OH2 9752   0.716   3.617   3.171  0.7276 -0.2574 -0.1071
 3263TIP3    H1 9753   0.787   3.618   3.235 -0.1198 -1.2486  0.8730
 3263TIP3    H2 9754   0.757   3.649   3.090  1.9775  0.3651  0.7344
 3264TIP3   OH2 9755   0.091   0.481   4.138  0.1632  0.3306  0.2571
 3264TIP3    H1 9756   0.071   0.572   4.160  0.5810  0.6714 -0.7343
 3264TIP3    H2 9757   0.014   0.451   4.089 -1.0454 -0.6215  2.6105
 3265TIP3   OH2 9758   0.953   3.785   3.591 -0.4499  0.4786  0.3204
 3265TIP3    H1 9759   0.865   3.756   3.614  0.1917 -0.8901  1.1786
 3265TIP3    H2 9760   0.972   3.856   3.653 -0.4385 -0.1632  1.0715
 3266TIP3   OH2 9761   5.373   6.586   2.165 -0.1996  0.1498 -0.5780
 3266TIP3    H1 9762   5.406   6.569   2.077 -0.1992 -0.6119 -0.4362
 3266TIP3    H2 9763   5.342   6.501   2.196  0.9437  0.1338  0.6273
 3267TIP3   OH2 9764   3.602   4.489   2.675 -0.5473  0.5862  0.3467
 3267TIP3    H1 9765   3.674   4.459   2.730  0.0111 -0.4852 -0.9195
 3267TIP3    H2 9766   3.644   4.548   2.612 -0.7176 -0.2358 -0.5503
 3268TIP3   OH2 9767   6.134   1.162   1.359 -0.0093 -0.1113 -0.2333
 3268TIP3    H1 9768   6.084   1.227   1.409  1.1148  1.3849 -0.9756
 3268TIP3    H2 9769   6.170   1.103   1.425 -1.2121 -0.1214  0.4408
 3269TIP3   OH2 9770   3.194   5.381   3.508  0.0589 -0.1393  0.2802
 3269TIP3    H1 9771   3.221   5.469   3.534  0.3839  0.5459 -2.0921
 3269TIP3    H2 9772   3.208   5.327   3.586  1.3764  1.5903  1.3157
 3270TIP3   OH2 9773   0.227   4.396   3.654  0.1667  0.2029  0.3102
 3270TIP3    H1 9774   0.170   4.472   3.666 -2.2323 -1.0122 -2.0772
 3270TIP3    H2 9775   0.246   4.395   3.560  3.2356 -0.1628  0.8420
 3271TIP3   OH2 9776   6.660   1.407   3.832  0.0706  0.2673  0.2468
 3271TIP3    H1 9777   6.685   1.499   3.843 -0.1487  0.4411 -0.6518
 3271TIP3    H2 9778   6.738   1.358   3.859  0.4457  0.7378  0.0379
 3272TIP3   OH2 9779   3.404   1.924   1.901  0.3163  0.4059 -0.3822
 3272TIP3    H1 9780   3.472   1.976   1.943  1.4106 -0.8774 -0.4797
 3272TIP3    H2 9781   3.401   1.955   1.811 -0.2691  1.4593 -0.0099
 3273TIP3   OH2 9782   2.507   6.369   0.128  0.6669  0.4485 -0.6324
 3273TIP3    H1 9783   2.576   6.414   0.177  0.7943 -1.2858  0.8956
 3273TIP3    H2 9784   2.476   6.434   0.065  1.9201  2.1092  0.3766
 3274TIP3   OH2 9785   4.184   6.306   3.060 -0.3612  0.7404  0.4714
 3274TIP3    H1 9786   4.211   6.376   3.120  2.8408 -0.4666  0.6307
 3274TIP3    H2 9787   4.222   6.227   3.097 -1.1853 -0.5924 -1.3723
 3275TIP3   OH2 9788   1.163   4.707   0.569  0.0998 -0.3817  0.3510
 3275TIP3    H1 9789   1.115   4.787   0.550 -0.5108 -0.5189  1.2818
 3275TIP3    H2 9790   1.096   4.640   0.577  0.7067 -1.5125 -2.6765
 3276TIP3   OH2 9791   5.802   0.973   2.335  0.2768  0.8181 -0.3642
 3276TIP3    H1 9792   5.793   0.883   2.367  2.3607 -0.2998 -2.5553
 3276TIP3    H2 9793   5.854   1.017   2.402  0.7217 -0.1309 -0.0607
 3277TIP3   OH2 9794   2.031   0.015   3.659  0.1596  0.0392  0.0844
 3277TIP3    H1 9795   1.999   0.032   3.748 -0.2039 -0.9530  0.1604
 3277TIP3    H2 9796   2.022   0.099   3.614  0.2587  0.5289  0.9534
 3278TIP3   OH2 9797   0.311   5.372   3.035 -0.0172 -0.3908  0.6937
 3278TIP3    H1 9798   0.310   5.388   2.941 -1.6178  1.9344  1.0302
 3278TIP3    H2 9799   0.400   5.395   3.062 -0.1170  0.8982  0.0009
 3279TIP3   OH2 9800   5.415   4.044   3.989 -0.4142 -0.1741 -0.2449
 3279TIP3    H1 9801   5.342   4.051   4.050  0.4550 -0.3613  0.8513
 3279TIP3    H2 9802   5.376   4.057   3.902 -1.7430 -0.3474  0.3121
 3280TIP3   OH2 9803   5.815   3.601   0.313 -0.6022 -0.1009 -0.0117
 3280TIP3    H1 9804   5.773   3.613   0.228  0.0443 -1.2996 -0.5175
 3280TIP3    H2 9805   5.901   3.643   0.304 -0.2137 -0.9321 -0.2237
 3281TIP3   OH2 9806   0.169   4.049   3.377 -0.0377 -0.3515  0.0681
 3281TIP3    H1 9807   0.216   4.097   3.446  0.3613 -1.4998  0.6188
 3281TIP3    H2 9808   0.085   4.027   3.417 -0.1461 -0.2789 -0.1188
 3282TIP3   OH2 9809   5.276   3.007   3.452 -0.3071  0.7005  0.1020
 3282TIP3    H1 9810   5.211   3.051   3.397 -1.2789  1.5275  1.8003
 3282TIP3    H2 9811   5.318   3.077   3.501  0.5389  0.0030  0.4128
 3283TIP3   OH2 9812   4.389   5.400   1.539  0.2893 -0.3407  0.0629
 3283TIP3    H1 9813   4.476   5.398   1.579  1.8312 -1.8323 -3.0325
 3283TIP3    H2 9814   4.373   5.310   1.512 -2.0353  0.0030  0.1148
 3284TIP3   OH2 9815   0.782   0.516   3.512  0.4282 -0.2424  0.0179
 3284TIP3    H1 9816   0.785   0.464   3.431  0.9312 -0.2971  0.0672
 3284TIP3    H2 9817   0.874   0.533   3.533  0.2642  1.1387 -0.2857
 3285TIP3   OH2 9818   0.758   5.770   0.587  0.4243 -0.0951  0.4420
 3285TIP3    H1 9819   0.779   5.860   0.609 -0.3671  0.1460  0.2489
 3285TIP3    H2 9820   0.662   5.765   0.596  0.1347 -0.2076 -2.0553
 3286TIP3   OH2 9821   1.699   0.956   0.670  0.5019  0.5109  0.3811
 3286TIP3    H1 9822   1.734   0.878   0.628 -2.9274 -0.1416 -1.6342
 3286TIP3    H2 9823   1.725   1.028   0.613  1.1492  0.4613  0.6084
 3287TIP3   OH2 9824   4.885   1.566   5.418  0.0895 -0.5544 -0.5963
 3287TIP3    H1 9825   4.947   1.557   5.490 -0.8939  0.6421  0.4727
 3287TIP3    H2 9826   4.939   1.567   5.339  1.3425 -0.4489  0.2321
 3288TIP3   OH2 9827   2.240   6.341   3.668 -0.3087 -0.4677 -0.0564
 3288TIP3    H1 9828   2.230   6.374   3.579  2.6668 -0.5686 -0.5341
 3288TIP3    H2 9829   2.152   6.317   3.695 -1.2637 -0.9189 -3.1737
 3289TIP3   OH2 9830   0.242   6.375   0.670  0.4360 -0.5424 -0.6774
 3289TIP3    H1 9831   0.197   6.439   0.614 -1.7105 -1.0125  0.3850
 3289TIP3    H2 9832   0.171   6.324   0.709  2.0042 -2.2489  0.0909
 3290TIP3   OH2 9833   7.237   6.076   1.727  0.2918 -0.1611  0.2397
 3290TIP3    H1 9834   7.149   6.078   1.690  0.6498  0.1106 -0.6432
 3290TIP3    H2 9835   7.232   6.013   1.799 -0.6587 -0.0190  0.3086
 3291TIP3   OH2 9836   0.518   0.631   3.464  0.1185  0.1902  0.1125
 3291TIP3    H1 9837   0.574   0.702   3.495  0.2334  0.2983 -0.3415
 3291TIP3    H2 9838   0.578   0.563   3.436  0.0030 -0.3065  1.0413
 3292TIP3   OH2 9839   5.573   0.425   3.853 -0.1980  0.0071 -0.5532
 3292TIP3    H1 9840   5.571   0.334   3.881  0.7087  0.7725  2.3432
 3292TIP3    H2 9841   5.666   0.445   3.840 -0.3425  0.6520 -0.6694
 3293TIP3   OH2 9842   1.709   6.798   5.760  0.3365 -0.2534  0.3248
 3293TIP3    H1 9843   1.780   6.739   5.785  0.8526  0.3654  0.3618
 3293TIP3    H2 9844   1.722   6.814   5.667 -1.1444 -1.9670 -0.2091
 3294TIP3   OH2 9845   0.841   5.588   3.292 -0.2552  0.3067  0.3116
 3294TIP3    H1 9846   0.761   5.614   3.248 -0.2750 -1.1400 -0.5618
 3294TIP3    H2 9847   0.908   5.589   3.223 -0.2339 -1.7262  0.2608
 3295TIP3   OH2 9848   6.253   5.745   2.312 -0.1793 -0.0270  0.7242
 3295TIP3    H1 9849   6.268   5.725   2.404  0.2072 -1.5493  0.3506
 3295TIP3    H2 9850   6.160   5.730   2.299 -0.2019  0.0293  0.8171
 3296TIP3   OH2 9851   0.296   1.936   4.357  0.3730 -0.1993  0.3982
 3296TIP3    H1 9852   0.314   1.854   4.402 -0.4235 -1.2473 -1.1038
 3296TIP3    H2 9853   0.200   1.939   4.348  0.3086  1.3265  1.1637
 3297TIP3   OH2 9854   5.386   2.420   5.429 -0.1461 -0.4609 -0.6641
 3297TIP3    H1 9855   5.343   2.501   5.456 -0.4087 -1.0159  0.6606
 3297TIP3    H2 9856   5.478   2.443   5.417 -0.2982  0.1233 -0.6925
 3298TIP3   OH2 9857   1.986   6.270   3.844 -0.3132  0.6038  0.2131
 3298TIP3    H1 9858   2.048   6.290   3.914  0.3944  2.2649 -0.8161
 3298TIP3    H2 9859   2.006   6.180   3.819 -0.3505  0.0929  1.8688
 3299TIP3   OH2 9860   6.272   0.878   1.769 -0.0907  0.1897  0.0515
 3299TIP3    H1 9861   6.335   0.933   1.816 -0.0298 -0.6330  0.9770
 3299TIP3    H2 9862   6.219   0.838   1.838 -0.0887 -0.9535 -0.5870
 3300TIP3   OH2 9863   4.239   6.578   5.860  0.4918  0.2871  0.4218
 3300TIP3    H1 9864   4.220   6.672   5.851  0.6882  0.1680 -1.9577
 3300TIP3    H2 9865   4.333   6.571   5.844  1.0596 -0.0807  3.4239
 3301TIP3   OH2 9866   0.942   5.654   4.576  0.4074 -0.5978  0.4560
 3301TIP3    H1 9867   0.963   5.575   4.625  1.6468 -0.2583  0.5048
 3301TIP3    H2 9868   0.981   5.640   4.490  2.7131  0.8529  1.1544
 3302TIP3   OH2 9869   1.532   3.578   3.056 -0.2354  0.2265 -0.4788
 3302TIP3    H1 9870   1.476   3.519   3.106  0.0400  1.0302  0.8223
 3302TIP3    H2 9871   1.478   3.655   3.039  0.9272  1.8682  2.4835
 3303TIP3   OH2 9872   5.528   5.755   4.599  0.7257  0.0714 -0.6318
 3303TIP3    H1 9873   5.543   5.666   4.567 -0.7235 -1.1549  1.7578
 3303TIP3    H2 9874   5.598   5.770   4.662 -0.0607 -0.1890  0.3489
 3304TIP3   OH2 9875   5.866   1.389   2.812 -0.2424  0.0386 -0.2470
 3304TIP3    H1 9876   5.907   1.472   2.788  0.4858  0.2095  1.4602
 3304TIP3    H2 9877   5.933   1.323   2.795  0.4303  0.2033  1.5340
 3305TIP3   OH2 9878   1.833   5.879   1.376 -0.5058 -0.2439  0.1047
 3305TIP3    H1 9879   1.790   5.813   1.430 -1.9434  0.0918 -0.5802
 3305TIP3    H2 9880   1.921   5.888   1.414 -0.4841 -2.0692  0.5958
 3306TIP3   OH2 9881   4.880   3.200   1.739 -0.1060  0.4189  0.2994
 3306TIP3    H1 9882   4.886   3.199   1.644 -2.8483 -1.6493  0.0147
 3306TIP3    H2 9883   4.798   3.248   1.756 -0.0196  0.1394  1.5685
 3307TIP3   OH2 9884   2.223   4.430   3.785 -0.1518 -0.5480 -0.2758
 3307TIP3    H1 9885   2.272   4.356   3.821  0.5072 -0.0552 -0.1392
 3307TIP3    H2 9886   2.181   4.395   3.707 -0.1215 -1.1546 -0.0234
 3308TIP3   OH2 9887   6.652   2.163   5.827 -0.8208 -0.3675  0.2244
 3308TIP3    H1 9888   6.610   2.173   5.913  0.0206 -1.4911  0.7886
 3308TIP3    H2 9889   6.723   2.227   5.827 -0.4478 -0.7736  0.6184
 3309TIP3   OH2 9890   3.346   0.457   1.120 -0.2535  0.0264  0.2064
 3309TIP3    H1 9891   3.301   0.496   1.045 -0.6945 -0.8259  0.0051
 3309TIP3    H2 9892   3.338   0.521   1.190  2.2964  1.9808 -1.1177
 3310TIP3   OH2 9893   1.620   6.248   3.467 -0.0618  0.1032  0.0722
 3310TIP3    H1 9894   1.652   6.286   3.549  3.1654 -2.0879 -0.0021
 3310TIP3    H2 9895   1.549   6.190   3.493 -0.9704  1.5141  0.8928
 3311TIP3   OH2 9896   2.148   0.671   5.130 -0.7382 -0.2936 -0.2096
 3311TIP3    H1 9897   2.113   0.639   5.046 -1.3990 -0.7493  0.2280
 3311TIP3    H2 9898   2.227   0.619   5.145  1.1352  1.8169 -1.9846
 3312TIP3   OH2 9899   7.129   2.909   5.750 -0.0653 -0.5722  0.2359
 3312TIP3    H1 9900   7.094   2.864   5.827 -0.2964 -1.1063 -0.1731
 3312TIP3    H2 9901   7.054   2.919   5.692  0.6281 -2.7592 -1.1459
 3313TIP3   OH2 9902   3.851   4.576   2.186  0.7608 -0.0912 -0.4127
 3313TIP3    H1 9903   3.769   4.623   2.200 -0.8540 -2.2400 -1.9807
 3313TIP3    H2 9904   3.866   4.582   2.092  1.9040 -0.5725 -0.2761
 3314TIP3   OH2 9905   4.786   0.026   0.112 -0.3349  0.6339  0.2072
 3314TIP3    H1 9906   4.797   0.107   0.163  2.2455  0.9865 -0.7761
 3314TIP3    H2 9907   4.870  -0.019   0.120 -1.5040 -1.6813  0.1717
 3315TIP3   OH2 9908   4.332   3.312   3.839 -0.1835 -0.7338 -0.2355
 3315TIP3    H1 9909   4.353   3.219   3.843 -0.8751 -0.8693  0.2564
 3315TIP3    H2 9910   4.416   3.354   3.820  0.2586 -1.4031  0.2008
 3316TIP3   OH2 9911   6.686   1.892   4.784 -0.3591 -0.0735  0.4844
 3316TIP3    H1 9912   6.715   1.850   4.703 -1.6208 -1.4198  0.6913
 3316TIP3    H2 9913   6.728   1.841   4.853 -1.1580 -0.4389  0.7159
 3317TIP3   OH2 9914   0.631   5.147   2.027  0.4967 -0.0137  0.3034
 3317TIP3    H1 9915   0.707   5.199   2.053 -0.5848  2.3913 -0.9485
 3317TIP3    H2 9916   0.667   5.073   1.978  2.1032 -0.2897  1.8319
 3318TIP3   OH2 9917   5.570   0.933   3.076  0.2966 -0.0823 -0.3523
 3318TIP3    H1 9918   5.608   0.933   2.988  0.4349  0.7209 -0.3049
 3318TIP3    H2 9919   5.644   0.947   3.134 -0.1110  2.3462 -0.3083
 3319TIP3   OH2 9920   1.712   4.811   0.867  0.4545  0.1935 -0.0307
 3319TIP3    H1 9921   1.682   4.725   0.836 -0.7284 -0.6006  2.9782
 3319TIP3    H2 9922   1.806   4.800   0.878  0.9304  0.4833 -2.9134
 3320TIP3   OH2 9923   5.235   0.443   2.748  0.4049 -0.1788  0.2305
 3320TIP3    H1 9924   5.224   0.348   2.746 -0.6902 -0.0770  0.8300
 3320TIP3    H2 9925   5.303   0.458   2.814 -0.4521 -0.4737  1.1954
 3321TIP3   OH2 9926   2.909   4.607   3.945 -0.2923  0.3688  0.3126
 3321TIP3    H1 9927   2.834   4.548   3.947 -0.3478  0.2443  4.3748
 3321TIP3    H2 9928   2.872   4.693   3.965  0.5258  0.3546  2.0981
 3322TIP3   OH2 9929   2.973   6.482   5.354 -0.4794 -0.0378 -0.7743
 3322TIP3    H1 9930   2.881   6.471   5.330 -0.5507 -1.1767 -0.0372
 3322TIP3    H2 9931   3.019   6.415   5.304 -0.2955 -0.6905  0.2509
 3323TIP3   OH2 9932   0.726   6.043   2.594 -0.4006  0.2981 -0.6049
 3323TIP3    H1 9933   0.786   6.110   2.628 -0.1583  0.0262 -0.4963
 3323TIP3    H2 9934   0.665   6.092   2.538  1.6571  0.2407 -3.0969
 3324TIP3   OH2 9935   6.447   2.506   4.128  0.1952 -0.0529 -0.3921
 3324TIP3    H1 9936   6.429   2.525   4.220  2.2779  1.0730 -0.1590
 3324TIP3    H2 9937   6.458   2.411   4.125  0.1635 -0.0908  0.5257
 3325TIP3   OH2 9938   2.319   2.564   4.331 -0.1769  0.5454 -0.6911
 3325TIP3    H1 9939   2.413   2.579   4.343 -0.4962  1.9342  0.3488
 3325TIP3    H2 9940   2.303   2.479   4.372  0.7020  0.0193 -1.3916
 3326TIP3   OH2 9941   3.099   3.347   4.218  0.2247 -0.1325  0.1249
 3326TIP3    H1 9942   3.076   3.354   4.126  3.1439 -2.1281 -0.9144
 3326TIP3    H2 9943   3.173   3.286   4.220  1.9701  1.7788  3.5128
 3327TIP3   OH2 9944   7.114   0.355   0.698  0.6501  0.1524 -0.2196
 3327TIP3    H1 9945   7.171   0.300   0.645 -0.6764 -1.1351 -0.3799
 3327TIP3    H2 9946   7.063   0.293   0.751 -0.7120  1.2304 -0.2166
 3328TIP3   OH2 9947   4.702   4.048   3.252  0.3650 -0.1522  0.4453
 3328TIP3    H1 9948   4.713   3.957   3.224 -0.9799 -0.0741 -0.4403
 3328TIP3    H2 9949   4.620   4.047   3.301 -0.3920  0.8074 -0.7482
 3329TIP3   OH2 9950   3.359   3.120   2.696  0.2795  0.5150 -0.3144
 3329TIP3    H1 9951   3.310   3.183   2.748 -0.1503  0.3874 -0.5560
 3329TIP3    H2 9952   3.292   3.078   2.641  0.4910 -0.4460  0.1468
 3330TIP3   OH2 9953   6.737   3.279   1.545 -0.3560  0.3866 -0.5647
 3330TIP3    H1 9954   6.663   3.278   1.484  0.0045  1.5296 -1.0453
 3330TIP3    H2 9955   6.814   3.280   1.488  0.0430 -0.7810 -0.0692
 3331TIP3   OH2 9956   2.846   5.777   5.730  0.5901  0.0833  0.4118
 3331TIP3    H1 9957   2.930   5.740   5.703  0.4906  1.1218 -1.4824
 3331TIP3    H2 9958   2.860   5.872   5.729 -0.3242  0.2436  1.1180
 3332TIP3   OH2 9959   6.353   0.493   3.826  0.3647  0.3227 -0.1385
 3332TIP3    H1 9960   6.378   0.411   3.869 -2.5262  0.0227  1.1638
 3332TIP3    H2 9961   6.286   0.468   3.762 -0.6110  1.6490  0.3231
 3333TIP3   OH2 9962   4.071   5.151   5.330 -0.0148  0.7594 -0.2310
 3333TIP3    H1 9963   4.000   5.140   5.392  0.6522  1.4333  0.6886
 3333TIP3    H2 9964   4.029   5.155   5.244 -0.9476 -0.1706  0.1756
 3334TIP3   OH2 9965   2.093   5.092   5.569  0.1464  0.2584 -0.6852
 3334TIP3    H1 9966   2.124   5.004   5.589  0.7916  0.6603  0.1281
 3334TIP3    H2 9967   2.145   5.149   5.625 -0.6515  1.1150 -0.7976
 3335TIP3   OH2 9968   5.979   6.516   0.202 -0.3922  0.2281  0.7060
 3335TIP3    H1 9969   6.058   6.555   0.239  0.8602 -1.8529  0.3457
 3335TIP3    H2 9970   5.923   6.498   0.277  0.3692 -0.1963  1.1798
 3336TIP3   OH2 9971   0.817   5.774   0.295  0.0049 -0.3257 -0.2914
 3336TIP3    H1 9972   0.803   5.785   0.389 -0.7264  0.0017 -0.4316
 3336TIP3    H2 9973   0.798   5.861   0.258  0.8090 -0.3087 -0.6873
 3337TIP3   OH2 9974   2.386   4.957   3.934  0.0960 -0.1739 -0.5010
 3337TIP3    H1 9975   2.453   4.948   4.002 -0.7171 -1.3922  0.1678
 3337TIP3    H2 9976   2.430   4.930   3.854  0.7129  0.1049 -0.2703
 3338TIP3   OH2 9977   3.690   1.805   2.376  0.3566  0.0382 -0.1042
 3338TIP3    H1 9978   3.745   1.840   2.305  1.7627 -2.2029 -0.2486
 3338TIP3    H2 9979   3.630   1.876   2.398  2.2075  2.0458 -1.1258
 3339TIP3   OH2 9980   3.203   0.623   1.662  0.2699 -0.2363  0.3558
 3339TIP3    H1 9981   3.157   0.696   1.621  1.3693 -0.6531 -1.7473
 3339TIP3    H2 9982   3.268   0.664   1.719 -0.5653  0.3679  0.9001
 3340TIP3   OH2 9983   2.714   5.113   0.406  0.4493 -0.5861 -0.2845
 3340TIP3    H1 9984   2.721   5.129   0.312  0.0101  0.1946 -0.1903
 3340TIP3    H2 9985   2.679   5.024   0.412 -1.5570  0.0919 -0.9139
 3341TIP3   OH2 9986   3.379   0.916   2.834  0.3371 -0.3896 -0.0622
 3341TIP3    H1 9987   3.357   0.988   2.893  0.9419 -0.3132  0.0737
 3341TIP3    H2 9988   3.474   0.907   2.841  0.6848  0.7452 -2.2961
 3342TIP3   OH2 9989   2.379   5.592   3.609 -0.2821 -0.0924 -0.2581
 3342TIP3    H1 9990   2.337   5.639   3.537  1.3298 -0.4811 -1.5267
 3342TIP3    H2 9991   2.402   5.507   3.571 -0.1297 -0.6117  0.9734
 3343TIP3   OH2 9992   3.480   2.339   4.736 -0.3238 -0.1633  1.0137
 3343TIP3    H1 9993   3.518   2.420   4.772 -0.5703  0.6722 -0.5104
 3343TIP3    H2 9994   3.539   2.314   4.665 -1.4466 -0.0308  0.0007
 3344TIP3   OH2 9995   1.530   4.936   5.512 -0.2889  0.2791  0.2043
 3344TIP3    H1 9996   1.436   4.956   5.519 -0.7482 -1.2742 -0.9408
 3344TIP3    H2 9997   1.544   4.923   5.418  0.4254 -2.3210  0.6075
 3345TIP3   OH2 9998   2.850   3.818   5.583 -0.3764 -0.2563  0.0084
 3345TIP3    H1 9999   2.771   3.811   5.529 -0.5189  0.0001  0.1823
 3345TIP3    H210000   2.903   3.743   5.556  0.0252  0.4502 -1.2551
 3346TIP3   OH210001   5.747   6.292   3.504 -0.4886  0.0728 -0.2571
 3346TIP3    H110002   5.808   6.220   3.522 -0.6476 -0.3688 -1.4231
 3346TIP3    H210003   5.779   6.364   3.559  0.3310 -0.5381  0.0984
 3347TIP3   OH210004   0.988   0.041   0.071 -0.0117  0.0486 -0.6854
 3347TIP3    H110005   0.915   0.090   0.034  0.1471  0.2820 -0.6975
 3347TIP3    H210006   1.055   0.042   0.002 -0.2426 -0.7418 -0.9351
 3348TIP3   OH210007   2.764   5.462   5.261 -0.6399 -0.0498  0.0382
 3348TIP3    H110008   2.697   5.499   5.204  1.8195  1.8896 -1.8098
 3348TIP3    H210009   2.768   5.522   5.336 -0.6320  0.0936 -0.0782
 3349TIP3   OH210010   3.032   2.250   3.923  0.0178  0.1577 -0.1939
 3349TIP3    H110011   2.940   2.242   3.949  0.3791 -0.7179  0.9010
 3349TIP3    H210012   3.037   2.203   3.839 -0.2270 -1.2753  0.5535
 3350TIP3   OH210013   6.402   3.359   1.098  0.1494  0.1933  0.3717
 3350TIP3    H110014   6.337   3.320   1.156 -0.4769  0.6154 -0.0358
 3350TIP3    H210015   6.393   3.454   1.113  1.9067  0.2183  1.6381
 3351TIP3   OH210016   0.309   3.636   4.917 -0.0213  0.3172  0.2738
 3351TIP3    H110017   0.276   3.630   5.007  2.8204 -0.7162  1.3655
 3351TIP3    H210018   0.393   3.680   4.926  1.1820 -1.4434 -1.6293
 3352TIP3   OH210019   3.311   6.628   1.352  0.0154 -0.3761 -0.3340
 3352TIP3    H110020   3.256   6.567   1.401  0.0960  0.1187  0.3865
 3352TIP3    H210021   3.255   6.659   1.281  0.3299 -2.1170 -1.3854
 3353TIP3   OH210022   2.355   3.587   3.081 -0.1706  0.0504 -0.0612
 3353TIP3    H110023   2.432   3.610   3.133  0.7432  0.9207 -1.7112
 3353TIP3    H210024   2.389   3.532   3.010 -1.1264  0.1293 -0.6003
 3354TIP3   OH210025   5.292   5.794   5.346  0.0810 -1.3487 -0.0040
 3354TIP3    H110026   5.211   5.822   5.302  0.5734 -0.2551 -0.2418
 3354TIP3    H210027   5.310   5.708   5.310 -1.3089 -1.8864  0.5045
 3355TIP3   OH210028   5.559   2.355   0.432 -0.3094 -0.3573  0.0490
 3355TIP3    H110029   5.499   2.424   0.405 -0.6830 -1.1719 -1.2768
 3355TIP3    H210030   5.564   2.364   0.527 -1.3284  0.7011  0.0257
 3356TIP3   OH210031   2.025   0.908   4.902  0.5698 -0.3592  0.2025
 3356TIP3    H110032   1.932   0.892   4.913  0.1863  0.5080 -1.5433
 3356TIP3    H210033   2.048   0.867   4.819  2.0798 -1.7498  1.2287
 3357TIP3   OH210034   5.115   6.340   1.072 -0.2749 -0.3481  0.3909
 3357TIP3    H110035   5.057   6.264   1.069 -0.4731 -0.1817  0.0004
 3357TIP3    H210036   5.128   6.365   0.981  1.1126 -0.9071  0.4026
 3358TIP3   OH210037   5.145   1.131   3.204  0.1418 -0.3662  0.5112
 3358TIP3    H110038   5.165   1.224   3.215 -0.5987 -0.3320  1.7266
 3358TIP3    H210039   5.194   1.105   3.126  1.1553  0.8028  0.7278
 3359TIP3   OH210040   5.470   2.138  -0.027  0.0797 -0.3374 -0.0526
 3359TIP3    H110041   5.384   2.106  -0.000  0.2689  0.2837  1.3895
 3359TIP3    H210042   5.485   2.215   0.029  2.2578 -1.3641  0.8581
 3360TIP3   OH210043   4.623   4.189   2.518  0.0485 -0.0346 -0.5168
 3360TIP3    H110044   4.688   4.254   2.492 -0.9466  0.5162 -1.7563
 3360TIP3    H210045   4.639   4.115   2.459  0.4539 -0.4777  0.1366
 3361TIP3   OH210046   3.814   3.780   4.435  0.1673 -0.3119  0.4451
 3361TIP3    H110047   3.887   3.758   4.377 -0.2691  0.7839 -0.5650
 3361TIP3    H210048   3.774   3.857   4.394 -1.2077 -0.5531  1.2879
 3362TIP3   OH210049   2.885   5.554   1.020  0.0818 -0.4193 -0.6003
 3362TIP3    H110050   2.861   5.569   0.928  0.5371 -0.4332 -0.7245
 3362TIP3    H210051   2.865   5.636   1.064  0.3985 -0.2170 -0.8273
 3363TIP3   OH210052   0.798   0.541   1.442  0.1043  0.3453  0.3053
 3363TIP3    H110053   0.737   0.476   1.478 -1.9955  0.7302 -2.2331
 3363TIP3    H210054   0.882   0.495   1.438 -0.8792 -1.5976  0.3560
 3364TIP3   OH210055   5.330   6.253   3.039 -0.4154 -0.0523  0.5846
 3364TIP3    H110056   5.310   6.220   3.127 -0.1235 -0.1181  0.6284
 3364TIP3    H210057   5.245   6.258   2.995 -0.5013 -0.5795  0.6800
 3365TIP3   OH210058   5.208   2.144   1.510 -0.4476  0.1795 -0.0924
 3365TIP3    H110059   5.204   2.226   1.559 -1.0518 -0.5928  1.2202
 3365TIP3    H210060   5.128   2.097   1.534  0.0829 -0.9709 -0.4752
 3366TIP3   OH210061   0.981   2.879   4.314 -0.4954 -0.3960  0.8164
 3366TIP3    H110062   0.987   2.884   4.409 -0.4704 -0.1004  0.8012
 3366TIP3    H210063   0.904   2.932   4.292 -0.8122 -0.8925  0.7105
 3367TIP3   OH210064   0.771   6.070   3.384 -0.1169 -0.1021  1.0525
 3367TIP3    H110065   0.836   6.124   3.338 -0.3684 -0.1479  0.6423
 3367TIP3    H210066   0.715   6.134   3.429 -1.8907  0.1608 -1.3440
 3368TIP3   OH210067   0.510   6.015   4.336  0.5611  0.1076 -0.4189
 3368TIP3    H110068   0.531   5.947   4.400  0.5135  2.7912  2.6759
 3368TIP3    H210069   0.595   6.049   4.308  0.5504 -0.0450 -0.6435
 3369TIP3   OH210070   2.919   0.932   3.684  0.1060  0.4200 -0.4768
 3369TIP3    H110071   2.983   0.862   3.674  0.3495  0.6757 -0.7240
 3369TIP3    H210072   2.851   0.913   3.619  0.8439  1.1503 -1.4969
 3370TIP3   OH210073   2.177   5.096   0.720  0.2250 -0.2448 -0.1133
 3370TIP3    H110074   2.237   5.135   0.657  1.2474 -1.3284  0.1597
 3370TIP3    H210075   2.231   5.078   0.797 -0.1776 -2.2299 -0.2536
 3371TIP3   OH210076   0.757   5.606   3.771  0.2799  0.0822  0.3975
 3371TIP3    H110077   0.705   5.673   3.814 -0.7112 -1.1325  1.1632
 3371TIP3    H210078   0.716   5.596   3.684  1.0719  1.1599 -0.1218
 3372TIP3   OH210079   0.549   0.099   0.531 -0.2235 -0.4004  0.5345
 3372TIP3    H110080   0.537   0.004   0.526  1.6619 -0.6151 -1.1176
 3372TIP3    H210081   0.636   0.110   0.570 -0.8692  0.7031  1.7137
 3373TIP3   OH210082   4.192   0.683   4.991 -0.0155 -0.5022 -0.1748
 3373TIP3    H110083   4.160   0.616   4.930 -1.9756 -0.8453  1.1187
 3373TIP3    H210084   4.127   0.753   4.985  1.2761  0.7198 -0.4984
 3374TIP3   OH210085   1.135   5.344   5.657  0.3061  0.0804 -0.0639
 3374TIP3    H110086   1.129   5.418   5.717 -1.1221 -1.0043  1.2220
 3374TIP3    H210087   1.202   5.369   5.594  1.5251  1.4757  1.6979
 3375TIP3   OH210088   2.820   2.986   3.572 -0.0160  0.0512  0.4658
 3375TIP3    H110089   2.779   2.981   3.486  0.0520 -0.7272  0.4708
 3375TIP3    H210090   2.782   3.064   3.612 -0.9588 -0.2656  0.2027
 3376TIP3   OH210091   0.567   5.602   2.793 -0.3863 -0.1682 -0.0067
 3376TIP3    H110092   0.481   5.600   2.834 -0.8507  0.1427 -0.9428
 3376TIP3    H210093   0.586   5.695   2.780  0.6417 -0.1679  1.2875
 3377TIP3   OH210094   4.774   5.115   1.096  0.7277 -0.2287  0.7391
 3377TIP3    H110095   4.715   5.124   1.021  0.7593 -1.6200  0.5201
 3377TIP3    H210096   4.734   5.048   1.151  0.8154  0.6295  1.8912
 3378TIP3   OH210097   5.770   2.401   3.124 -0.5681 -0.2788 -0.1941
 3378TIP3    H110098   5.737   2.471   3.181  0.5956  0.4814 -0.4169
 3378TIP3    H210099   5.691   2.354   3.096 -1.3200  0.5091  0.5115
 3379TIP3   OH210100   4.439   3.742   1.113 -0.3789 -0.1848 -0.2681
 3379TIP3    H110101   4.394   3.743   1.029 -0.5582 -0.8061 -0.1834
 3379TIP3    H210102   4.500   3.816   1.109 -0.4470 -0.1620 -0.9087
 3380TIP3   OH210103   6.932   1.766   0.395  0.1660 -0.0070 -0.2799
 3380TIP3    H110104   6.848   1.811   0.406  0.0504 -0.0461 -0.9883
 3380TIP3    H210105   6.924   1.687   0.448  0.3550  0.7614  0.9404
 3381TIP3   OH210106   5.658   2.035   0.994  0.0518  0.1709 -0.4147
 3381TIP3    H110107   5.594   1.973   1.027  0.3648 -0.4648 -0.9764
 3381TIP3    H210108   5.721   2.046   1.065 -0.0735 -0.0561 -0.2714
 3382TIP3   OH210109   4.891   1.666   0.914 -0.2101 -0.1215  0.3814
 3382TIP3    H110110   4.895   1.758   0.888 -1.2924 -0.5269 -1.3547
 3382TIP3    H210111   4.833   1.665   0.989 -2.3864  0.3523 -1.1894
 3383TIP3   OH210112   4.588   6.426   4.875  0.2813  0.2088  0.0977
 3383TIP3    H110113   4.674   6.469   4.880  1.6066 -2.3001  1.0739
 3383TIP3    H210114   4.585   6.389   4.787  1.0023 -1.0717  0.5730
 3384TIP3   OH210115   6.532   0.726   3.859 -0.1041 -0.0995 -0.6541
 3384TIP3    H110116   6.511   0.772   3.778  1.3466  1.6419 -0.1088
 3384TIP3    H210117   6.493   0.639   3.848 -1.1828  0.5693 -2.5916
 3385TIP3   OH210118   3.034   0.558   3.444  0.4422 -0.5440  0.2418
 3385TIP3    H110119   2.985   0.618   3.500  2.0400 -0.2260  1.3611
 3385TIP3    H210120   3.097   0.614   3.398  1.1294 -1.2023  0.3698
 3386TIP3   OH210121   5.805   0.502   0.150 -0.1687 -0.1838 -0.0301
 3386TIP3    H110122   5.832   0.509   0.242 -0.6913 -1.2457  0.2244
 3386TIP3    H210123   5.798   0.408   0.135 -0.1070 -0.0132 -1.1592
 3387TIP3   OH210124   2.614   4.666   1.599  0.2392  0.5357 -0.0139
 3387TIP3    H110125   2.630   4.725   1.526  0.5845  0.5245  0.0546
 3387TIP3    H210126   2.697   4.660   1.645  0.3259 -0.3544 -0.2677
 3388TIP3   OH210127   1.595   6.728   4.450  0.0340  0.2748  0.1383
 3388TIP3    H110128   1.587   6.756   4.359  0.3360  1.7636  0.5527
 3388TIP3    H210129   1.513   6.683   4.469 -0.3018  0.5331 -0.6736
 3389TIP3   OH210130   6.156   2.026   1.510 -0.6610  0.4836 -0.4988
 3389TIP3    H110131   6.184   2.015   1.601 -0.1722  0.1024 -0.6851
 3389TIP3    H210132   6.202   2.105   1.480  1.2244 -0.7818 -1.1530
 3390TIP3   OH210133   0.821   3.034   1.505  0.0132 -0.7037 -0.2766
 3390TIP3    H110134   0.832   3.082   1.587 -3.3058 -0.3104  0.0818
 3390TIP3    H210135   0.906   2.994   1.489  1.4163  1.0221  2.1584
 3391TIP3   OH210136   0.057   2.679   4.631  0.1124 -0.4823  0.0277
 3391TIP3    H110137   0.122   2.608   4.622  0.1632 -0.5803  1.0838
 3391TIP3    H210138   0.083   2.743   4.565  0.2236 -1.3193 -0.7693
 3392TIP3   OH210139   2.526   0.551   2.039  0.2488 -0.5467  0.2221
 3392TIP3    H110140   2.480   0.590   2.113  0.0720 -1.0222  0.3656
 3392TIP3    H210141   2.479   0.470   2.022  1.2188 -1.2004  0.5776
 3393TIP3   OH210142   1.712   2.497   4.122  0.2907 -0.1968  0.8092
 3393TIP3    H110143   1.717   2.429   4.189 -2.5425  0.0184  1.3465
 3393TIP3    H210144   1.780   2.559   4.146  1.5505 -1.7702  1.5139
 3394TIP3   OH210145   3.859   6.065   0.830  0.9400  0.1866  0.5267
 3394TIP3    H110146   3.924   6.136   0.837 -0.4020  1.4613  0.6049
 3394TIP3    H210147   3.911   5.985   0.827  2.5552  1.2104 -0.2162
 3395TIP3   OH210148   4.331   0.790   2.973  0.0644  0.1987  0.1433
 3395TIP3    H110149   4.237   0.772   2.983  0.0224 -0.8014 -1.5028
 3395TIP3    H210150   4.335   0.882   2.950 -0.5424  0.2052  0.0297
 3396TIP3   OH210151   6.310   5.972   1.553 -0.2994  0.4198  0.5694
 3396TIP3    H110152   6.319   5.961   1.459 -1.3342  1.2619  0.3496
 3396TIP3    H210153   6.289   5.885   1.586 -2.2854  0.5193 -0.3097
 3397TIP3   OH210154   4.311   6.204   4.752 -0.5996 -0.1213 -0.2068
 3397TIP3    H110155   4.375   6.154   4.699 -0.9948 -2.4634  1.3934
 3397TIP3    H210156   4.365   6.250   4.817 -0.3432  0.3981 -0.7731
 3398TIP3   OH210157   1.536   5.989   3.039 -0.7167  0.4515 -0.7079
 3398TIP3    H110158   1.498   5.919   2.986 -1.5068  0.8218 -0.6455
 3398TIP3    H210159   1.628   5.992   3.012 -0.3877 -1.3403  0.0845
 3399TIP3   OH210160   1.233   6.064   4.627 -0.4639  0.4199 -0.6020
 3399TIP3    H110161   1.208   6.150   4.593 -0.4302  0.8442  0.4158
 3399TIP3    H210162   1.328   6.062   4.621 -0.2115  1.5539  1.8115
 3400TIP3   OH210163   6.063   3.231   4.261 -0.0095 -0.5511  0.1203
 3400TIP3    H110164   6.139   3.261   4.310 -0.1898  0.4392 -0.1927
 3400TIP3    H210165   6.097   3.208   4.175  0.0568 -0.8284  0.2204
 3401TIP3   OH210166   5.067   5.940   1.211 -0.8883 -0.5177  0.3556
 3401TIP3    H110167   5.023   5.922   1.294 -0.1939  3.3543  1.7599
 3401TIP3    H210168   5.138   6.000   1.234  0.7427 -1.0252 -2.8043
 3402TIP3   OH210169   6.156   1.706   4.618 -0.4109 -0.0469 -0.2428
 3402TIP3    H110170   6.147   1.654   4.538  0.9423 -1.0401  0.2079
 3402TIP3    H210171   6.106   1.657   4.684  1.2669 -1.0957  0.2993
 3403TIP3   OH210172   2.710   4.189   3.724  0.0529 -0.2381 -0.0761
 3403TIP3    H110173   2.685   4.113   3.671  0.0185  0.5629 -1.2386
 3403TIP3    H210174   2.796   4.214   3.691  0.8103 -0.7241  1.4060
 3404TIP3   OH210175   5.660   2.823   0.791  0.3897 -0.0619 -0.7823
 3404TIP3    H110176   5.627   2.742   0.829  1.2688 -0.5087 -0.9555
 3404TIP3    H210177   5.659   2.807   0.696 -0.4860  0.5468 -0.8926
 3405TIP3   OH210178   1.369   6.150   3.662 -0.4930  0.5703  0.4971
 3405TIP3    H110179   1.430   6.084   3.627  1.6010  3.0889 -0.9345
 3405TIP3    H210180   1.351   6.120   3.751  1.1161 -1.4325  0.2391
 3406TIP3   OH210181   2.076   5.707   4.684  0.1858  0.1494  0.5097
 3406TIP3    H110182   2.159   5.704   4.637 -0.4092  0.5926 -0.6018
 3406TIP3    H210183   2.058   5.801   4.695 -0.4711  0.0718  0.1648
 3407TIP3   OH210184   1.195   4.732   4.623  0.2005 -0.2094  0.3565
 3407TIP3    H110185   1.137   4.739   4.699  0.4693 -0.1822  0.5646
 3407TIP3    H210186   1.141   4.695   4.554  0.0727 -0.6955  0.7080
 3408TIP3   OH210187   3.943   3.893   3.408  0.0310 -0.0839  0.0443
 3408TIP3    H110188   3.995   3.814   3.424 -1.3060 -1.0266 -0.0743
 3408TIP3    H210189   3.989   3.938   3.337 -0.1008 -1.6853 -1.1299
 3409TIP3   OH210190   6.972   1.399   5.513 -0.1969 -0.2588 -0.0762
 3409TIP3    H110191   6.891   1.435   5.550 -0.2824  2.2048 -2.3029
 3409TIP3    H210192   7.035   1.405   5.585 -1.6395 -1.1331  1.3540
 3410TIP3   OH210193   2.509   3.183   4.339 -0.2354 -0.0762 -0.0992
 3410TIP3    H110194   2.525   3.146   4.252  0.0776  0.4834 -0.2830
 3410TIP3    H210195   2.449   3.255   4.324 -0.6418 -0.3429  0.2267
 3411TIP3   OH210196   6.454   1.361   5.836  0.3422  0.5306  0.1955
 3411TIP3    H110197   6.394   1.294   5.868 -1.6450  1.5490 -1.1680
 3411TIP3    H210198   6.513   1.377   5.909 -0.2714 -1.3938  1.1826
 3412TIP3   OH210199   4.081   3.113   0.849  0.9580  0.5267 -0.3794
 3412TIP3    H110200   4.027   3.041   0.817  2.9384 -0.9007 -0.6909
 3412TIP3    H210201   4.048   3.129   0.938 -1.1712  1.0074 -1.1935
 3413TIP3   OH210202   2.238   3.665   5.430 -0.2478 -0.2483 -0.3358
 3413TIP3    H110203   2.237   3.760   5.446  0.8426 -0.5405  1.8623
 3413TIP3    H210204   2.159   3.633   5.473 -0.9338 -0.3086 -1.5930
 3414TIP3   OH210205   1.099   2.053   0.982  0.4556  0.5046 -0.3659
 3414TIP3    H110206   1.127   2.054   1.073 -0.8875  1.0221  0.0754
 3414TIP3    H210207   1.014   2.097   0.983 -0.1826 -0.6151 -1.6744
 3415TIP3   OH210208   2.117   4.998   3.987 -0.1818 -0.1776 -0.4475
 3415TIP3    H110209   2.208   4.989   3.959  0.2772  0.9330  0.6251
 3415TIP3    H210210   2.078   5.059   3.924 -0.4051 -1.2179 -1.3439
 3416TIP3   OH210211   2.721   4.523   5.517 -0.2978  0.0093 -0.3330
 3416TIP3    H110212   2.638   4.485   5.545 -0.6247 -0.0304 -1.3146
 3416TIP3    H210213   2.766   4.452   5.471 -0.7937  0.6887 -1.9351
 3417TIP3   OH210214   3.254   6.780   4.241  0.0517  0.0991  0.0150
 3417TIP3    H110215   3.256   6.822   4.326 -0.7195  0.7536 -0.2724
 3417TIP3    H210216   3.236   6.688   4.260  1.6574 -0.1173  0.6429
 3418TIP3   OH210217   6.813   5.976   2.924  0.4970  0.0830 -0.3993
 3418TIP3    H110218   6.741   5.916   2.905  2.6348 -1.4859 -5.1547
 3418TIP3    H210219   6.873   5.924   2.978 -0.9947  0.8453  2.1654
 3419TIP3   OH210220   1.863   2.323   0.616 -0.1051  0.0121 -0.1763
 3419TIP3    H110221   1.873   2.288   0.705  0.3170 -0.7829 -0.5209
 3419TIP3    H210222   1.769   2.337   0.606  0.0608  2.6842  1.3291
 3420TIP3   OH210223   0.221   5.849   4.554 -0.0680  0.8248  0.4754
 3420TIP3    H110224   0.173   5.814   4.479 -0.4870  0.5310  0.8754
 3420TIP3    H210225   0.193   5.796   4.628  0.5935  0.8957  0.7884
 3421TIP3   OH210226   6.043   5.307   5.335  0.9965  0.1942  0.1726
 3421TIP3    H110227   5.982   5.233   5.338  2.0355 -0.6608  2.0675
 3421TIP3    H210228   6.053   5.325   5.242 -0.5841 -0.9526 -0.2683
 3422TIP3   OH210229   4.399   0.365   1.355  0.0857  0.3111 -0.0647
 3422TIP3    H110230   4.429   0.356   1.264  0.3822 -0.5516  0.1133
 3422TIP3    H210231   4.338   0.291   1.367  0.6053 -0.0073  0.6588
 3423TIP3   OH210232   3.114   4.298   1.362 -0.7740 -0.4952 -0.7102
 3423TIP3    H110233   3.152   4.360   1.424 -0.0995 -0.6713 -0.9310
 3423TIP3    H210234   3.178   4.227   1.357 -2.0714 -1.7960  0.4172
 3424TIP3   OH210235   6.012   0.043   1.519  0.1814 -0.3150 -0.1944
 3424TIP3    H110236   6.095   0.068   1.477 -0.0738  0.4341 -0.2590
 3424TIP3    H210237   6.039   0.002   1.601  0.6378 -0.5645 -0.4621
 3425TIP3   OH210238   3.246   3.703   1.950 -0.3484 -0.6259  0.8504
 3425TIP3    H110239   3.269   3.725   1.860  0.0301 -3.3777  0.1768
 3425TIP3    H210240   3.150   3.710   1.952 -0.2977  0.2444  0.4768
 3426TIP3   OH210241   6.485   0.243   0.752  0.0760 -0.1559  0.1716
 3426TIP3    H110242   6.442   0.212   0.832 -0.3303 -1.9655 -0.6925
 3426TIP3    H210243   6.571   0.200   0.753  0.2635  0.2016 -0.1420
 3427TIP3   OH210244   3.912   6.060   5.723  0.2719 -0.2866 -0.1341
 3427TIP3    H110245   3.942   5.984   5.772 -0.5570 -1.1771 -0.9630
 3427TIP3    H210246   3.987   6.084   5.668  0.9260  0.2223  0.9408
 3428TIP3   OH210247   5.257   6.256   0.244 -0.2798  0.8155 -0.2413
 3428TIP3    H110248   5.196   6.274   0.173 -1.3284 -0.7370  0.2114
 3428TIP3    H210249   5.273   6.162   0.238  1.0601  0.9789  0.4665
 3429TIP3   OH210250   3.739   0.326   1.551 -0.0591  0.1535 -0.2792
 3429TIP3    H110251   3.729   0.258   1.484  0.3055 -0.6629  0.4743
 3429TIP3    H210252   3.833   0.330   1.567 -0.0299  1.1928 -0.6694
 3430TIP3   OH210253   2.610   6.654   0.183  0.1591  0.5548  0.2691
 3430TIP3    H110254   2.534   6.622   0.232 -0.5505  1.5473 -0.1373
 3430TIP3    H210255   2.686   6.615   0.227 -0.5540 -0.0411  1.0032
 3431TIP3   OH210256   4.726   6.066   1.524 -0.2977 -0.0012  0.0310
 3431TIP3    H110257   4.679   6.147   1.504 -0.0717  0.1830  0.2368
 3431TIP3    H210258   4.733   6.065   1.620  0.6392  0.2801 -0.0211
 3432TIP3   OH210259   5.837   3.621   3.274 -0.0680 -0.2007  0.2706
 3432TIP3    H110260   5.917   3.646   3.228  0.6032 -2.5766  0.0056
 3432TIP3    H210261   5.767   3.669   3.229  1.2120  2.8172  1.2221
 3433TIP3   OH210262   2.632   4.124   2.027 -0.2946 -0.0433 -0.0519
 3433TIP3    H110263   2.654   4.112   2.119  0.4730 -0.4250 -0.2684
 3433TIP3    H210264   2.704   4.081   1.980 -0.4479  0.5260 -0.8284
 3434TIP3   OH210265   1.063   0.895   2.734  0.2737  0.3938 -0.3334
 3434TIP3    H110266   1.004   0.898   2.809 -1.6287 -0.0287 -1.7456
 3434TIP3    H210267   1.060   0.803   2.706  1.2322  0.4783 -0.7286
 3435TIP3   OH210268   5.377   5.728   5.743  0.7024  0.7483  0.2198
 3435TIP3    H110269   5.340   5.806   5.700  0.2122  0.9993  1.0800
 3435TIP3    H210270   5.305   5.692   5.793  0.8432 -0.4691 -0.4271
 3436TIP3   OH210271   2.222   6.552   1.777  0.0978  0.0893  0.3212
 3436TIP3    H110272   2.250   6.561   1.868  0.9188 -0.2204  0.1102
 3436TIP3    H210273   2.277   6.614   1.729 -1.0977  1.0692  0.1615
 3437TIP3   OH210274   0.206   5.644   4.791  0.4221 -0.5016 -0.1438
 3437TIP3    H110275   0.166   5.607   4.869  1.6392  0.8072  1.1692
 3437TIP3    H210276   0.233   5.568   4.739 -0.1679 -1.4028  0.8406
 3438TIP3   OH210277   3.420   5.182   3.419 -0.3264 -0.0981  0.1240
 3438TIP3    H110278   3.393   5.271   3.395 -0.5423 -0.6002 -1.6350
 3438TIP3    H210279   3.470   5.193   3.500  1.0891  1.8412 -0.9469
 3439TIP3   OH210280   6.723   0.644   5.664 -0.2689  0.2919  0.2060
 3439TIP3    H110281   6.691   0.721   5.712 -0.4151  1.1598 -1.2249
 3439TIP3    H210282   6.791   0.607   5.720 -0.0498  1.5908  0.8356
 3440TIP3   OH210283   6.823   3.767   0.494 -0.0347  0.1081  0.3811
 3440TIP3    H110284   6.820   3.673   0.481  0.2696  0.4086 -2.7489
 3440TIP3    H210285   6.734   3.790   0.523 -0.5442 -0.9842 -0.2523
 3441TIP3   OH210286   3.828   5.494   0.433 -0.4519  0.1569 -0.1979
 3441TIP3    H110287   3.859   5.422   0.488  1.3702  2.1925  1.5816
 3441TIP3    H210288   3.881   5.488   0.354 -0.3697 -0.4829 -0.1014
 3442TIP3   OH210289   5.207   0.949   2.533 -0.2822  0.5988 -0.4223
 3442TIP3    H110290   5.142   1.017   2.555 -1.0439 -0.2768  0.1342
 3442TIP3    H210291   5.194   0.882   2.600  1.5802  0.6339  0.0058
 3443TIP3   OH210292   4.878   2.546   3.620 -0.2390  0.3021  0.6261
 3443TIP3    H110293   4.869   2.528   3.714  1.0680  0.9545  0.9020
 3443TIP3    H210294   4.886   2.460   3.580 -0.1256  0.0372  1.1988
 3444TIP3   OH210295   1.872   3.996   2.861  0.1282  0.3370  0.2395
 3444TIP3    H110296   1.834   4.035   2.940  0.5514  0.0484  0.5892
 3444TIP3    H210297   1.961   4.030   2.857  0.2668 -0.0255  0.1530
 3445TIP3   OH210298   2.420   5.400   0.423 -0.3337  0.0494 -0.4906
 3445TIP3    H110299   2.376   5.451   0.354 -1.4084 -1.3786 -0.9119
 3445TIP3    H210300   2.513   5.407   0.401 -0.6517 -0.4041 -2.1416
 3446TIP3   OH210301   4.469   4.557   5.442 -0.3890 -0.4599 -0.3345
 3446TIP3    H110302   4.403   4.594   5.383 -1.4110 -0.6552  0.6462
 3446TIP3    H210303   4.531   4.514   5.384  0.3742  2.0025 -1.4524
 3447TIP3   OH210304   6.827   3.209   0.617 -0.0581  0.1173 -0.7462
 3447TIP3    H110305   6.739   3.172   0.625 -0.3299  0.6539 -1.1556
 3447TIP3    H210306   6.878   3.141   0.573  0.4444 -1.2747  1.7991
 3448TIP3   OH210307   1.829   4.690   5.025  0.9313 -0.1381  0.4738
 3448TIP3    H110308   1.819   4.595   5.021  0.5961 -0.1825  1.9792
 3448TIP3    H210309   1.746   4.722   5.058  0.5542  0.8308 -1.2604
 3449TIP3   OH210310   5.148   0.236   4.242  0.2883  0.6182  0.4085
 3449TIP3    H110311   5.058   0.260   4.222  0.0985  0.0451  0.5646
 3449TIP3    H210312   5.145   0.142   4.258  0.8852  0.6237  0.5801
 3450TIP3   OH210313   5.071   1.630   0.706 -0.4706 -0.0226 -0.1525
 3450TIP3    H110314   5.058   1.698   0.773 -0.1125 -0.4749  0.3792
 3450TIP3    H210315   5.007   1.563   0.727 -0.0740 -0.3588 -0.0072
 3451TIP3   OH210316   4.085   0.544   1.125  0.3161  0.1182 -0.1413
 3451TIP3    H110317   4.161   0.580   1.171  1.3234 -1.4969 -0.4563
 3451TIP3    H210318   4.097   0.572   1.035  0.4864 -0.0516 -0.1720
 3452TIP3   OH210319   3.940   1.161   0.737 -0.1322  0.0398 -0.5363
 3452TIP3    H110320   3.923   1.074   0.701 -1.6087 -0.1167  0.4216
 3452TIP3    H210321   3.894   1.221   0.678 -0.0399  0.0614 -0.5857
 3453TIP3   OH210322   6.303   1.945   3.280 -0.5954  0.0733  0.0209
 3453TIP3    H110323   6.360   1.905   3.214  0.3970  0.7648  0.4446
 3453TIP3    H210324   6.244   2.001   3.229 -1.7137 -1.5369 -0.5370
 3454TIP3   OH210325   0.837   1.854   0.163  0.5004  0.5090  0.2341
 3454TIP3    H110326   0.918   1.869   0.211  0.5971  1.7960 -0.3040
 3454TIP3    H210327   0.820   1.760   0.175  0.5133  0.7491  2.7518
 3455TIP3   OH210328   2.793   1.993   0.769  0.2879  0.0641  0.3182
 3455TIP3    H110329   2.885   2.016   0.778  0.6423 -0.4272 -1.5318
 3455TIP3    H210330   2.794   1.898   0.754 -0.3825  0.2548 -1.0628
 3456TIP3   OH210331   6.173   0.238   2.531 -0.0340  0.0656  0.0300
 3456TIP3    H110332   6.097   0.182   2.548 -0.1226 -0.0137 -0.5971
 3456TIP3    H210333   6.220   0.240   2.614 -0.7258  0.1235  0.4279
 3457TIP3   OH210334   2.314   2.955   3.492  0.0213  0.6786  0.3090
 3457TIP3    H110335   2.271   2.961   3.577 -1.3306 -0.5843 -0.2435
 3457TIP3    H210336   2.254   2.903   3.439 -0.1119  2.9947 -2.0181
 3458TIP3   OH210337   4.926   1.149   2.850 -0.4858  0.5978 -0.1373
 3458TIP3    H110338   4.953   1.150   2.759  1.7885  1.2933  0.4906
 3458TIP3    H210339   4.882   1.234   2.862  0.0317  0.9034 -0.3701
 3459TIP3   OH210340   5.690   3.470   4.719 -0.3516 -0.1301  0.2077
 3459TIP3    H110341   5.759   3.489   4.655  0.5835 -0.4554  1.0964
 3459TIP3    H210342   5.693   3.545   4.779 -0.8133 -0.1182  0.2129
 3460TIP3   OH210343   4.071   3.487   5.614  0.7272 -0.0778 -0.1682
 3460TIP3    H110344   4.055   3.521   5.526  1.2588  1.0017  0.1291
 3460TIP3    H210345   4.017   3.408   5.620 -0.5764  0.7263 -0.8851
 3461TIP3   OH210346   5.191   3.588   3.890  0.6802 -0.3018 -0.0709
 3461TIP3    H110347   5.148   3.606   3.974  1.0338 -0.8470  0.2369
 3461TIP3    H210348   5.263   3.650   3.886  0.1593  0.2987 -0.3714
 3462TIP3   OH210349   4.120   3.176   3.682 -0.1308 -0.0593  0.2502
 3462TIP3    H110350   4.176   3.245   3.719  0.4674 -1.0894  1.3253
 3462TIP3    H210351   4.126   3.188   3.587  1.1100  0.4860  0.3830
 3463TIP3   OH210352   2.292   1.754   4.722  0.3591 -0.2799  0.1051
 3463TIP3    H110353   2.312   1.805   4.800  2.4558 -1.0415  0.1125
 3463TIP3    H210354   2.363   1.773   4.661 -0.0867 -1.3506 -0.7914
 3464TIP3   OH210355   5.403   5.661   0.196  0.0777 -0.3787 -1.1305
 3464TIP3    H110356   5.357   5.577   0.206 -2.2842  0.9096 -0.5542
 3464TIP3    H210357   5.336   5.722   0.167  0.8081  2.1727  2.0030
 3465TIP3   OH210358   0.857   4.213   4.886  0.0548 -0.4018 -0.1519
 3465TIP3    H110359   0.775   4.211   4.936  0.2269 -1.6952  0.1076
 3465TIP3    H210360   0.869   4.123   4.855 -0.0002  0.3376 -2.4947
 3466TIP3   OH210361   5.825   0.207   0.902 -0.4408 -0.5555 -0.0319
 3466TIP3    H110362   5.826   0.129   0.847 -3.3534 -0.5335 -0.2871
 3466TIP3    H210363   5.783   0.274   0.847 -0.0740  0.5233  0.9709
 3467TIP3   OH210364   2.915   1.510   0.696  0.0387 -0.5858  0.3589
 3467TIP3    H110365   3.010   1.517   0.697 -0.0145  0.1439  0.9917
 3467TIP3    H210366   2.888   1.522   0.787 -0.7375  0.6083 -0.0045
 3468TIP3   OH210367   4.457   2.813   5.015  0.3501 -0.6808  0.0026
 3468TIP3    H110368   4.532   2.821   5.075  0.0184 -0.7305  0.4245
 3468TIP3    H210369   4.465   2.725   4.978  1.1965 -0.2491 -0.8937
 3469TIP3   OH210370   4.347   3.122   5.673 -0.1711 -0.1439  0.1505
 3469TIP3    H110371   4.283   3.052   5.687 -1.3797  0.5274 -1.5704
 3469TIP3    H210372   4.323   3.158   5.588  2.3892  0.3164 -0.4471
 3470TIP3   OH210373   5.705   1.699   0.062 -0.0319  0.4193  0.3315
 3470TIP3    H110374   5.691   1.794   0.055  1.2272  0.5108 -2.6855
 3470TIP3    H210375   5.800   1.689   0.057 -0.2087 -1.0436 -0.4945
 3471TIP3   OH210376   6.102   5.622   0.044  0.4434 -0.7653  0.0994
 3471TIP3    H110377   6.128   5.673  -0.032 -3.5115 -0.6694 -1.4072
 3471TIP3    H210378   6.144   5.537   0.031  2.1691  0.1414 -0.5696
 3472TIP3   OH210379   4.066   1.555   3.434 -0.2266  0.5512 -0.7444
 3472TIP3    H110380   3.999   1.504   3.481  0.8210 -1.4057 -1.2438
 3472TIP3    H210381   4.086   1.628   3.493 -0.4812 -0.6373  0.9059
 3473TIP3   OH210382   2.184   6.173   3.338  0.2945  0.2969 -0.1390
 3473TIP3    H110383   2.271   6.188   3.300  0.2149  0.3556 -0.2956
 3473TIP3    H210384   2.195   6.092   3.388  0.5634  0.5526  0.2259
 3474TIP3   OH210385   6.092   4.835   4.138  0.8255  0.3174  0.1710
 3474TIP3    H110386   6.064   4.917   4.098 -2.8053 -1.1129 -0.5857
 3474TIP3    H210387   6.110   4.858   4.230 -1.2594  1.8119  0.2711
 3475TIP3   OH210388   2.601   5.650   4.143  0.4075  0.4954 -0.0329
 3475TIP3    H110389   2.547   5.635   4.065  2.5215 -0.8272 -1.3506
 3475TIP3    H210390   2.593   5.570   4.194  0.4728  0.6274  0.1861
 3476TIP3   OH210391   4.125   4.692   3.762 -0.5541  0.5601  0.3584
 3476TIP3    H110392   4.048   4.693   3.820  0.2059 -0.4535  1.4268
 3476TIP3    H210393   4.088   4.699   3.674 -2.0975 -2.2638  0.6722
 3477TIP3   OH210394   5.449   5.009   0.927 -0.1933 -0.1248 -0.3330
 3477TIP3    H110395   5.484   4.923   0.951 -0.8629 -0.9968 -2.2548
 3477TIP3    H210396   5.492   5.030   0.844 -0.2305  1.2991 -0.0145
 3478TIP3   OH210397   0.875   0.840   0.678  0.0367 -0.0414 -0.1379
 3478TIP3    H110398   0.884   0.753   0.638  0.8322 -0.8705  1.7065
 3478TIP3    H210399   0.782   0.848   0.696 -0.1530 -0.1786 -1.0227
 3479TIP3   OH210400   0.270   2.019   4.004 -0.1108 -0.1837 -0.4218
 3479TIP3    H110401   0.264   2.070   4.085 -0.4835 -0.0092 -0.5578
 3479TIP3    H210402   0.214   1.943   4.019  0.1751 -0.3798 -0.3478
 3480TIP3   OH210403   0.534   6.234   3.438 -0.3152 -0.3077 -0.2297
 3480TIP3    H110404   0.520   6.328   3.438 -1.0522 -0.3738 -1.8628
 3480TIP3    H210405   0.458   6.198   3.393  0.5684 -1.5627 -0.8123
 3481TIP3   OH210406   3.761   5.132   3.620  0.8182  0.9217  0.6496
 3481TIP3    H110407   3.742   5.164   3.532  0.8246  0.6089  0.5315
 3481TIP3    H210408   3.856   5.136   3.627  0.8261  0.8293  0.5967
 3482TIP3   OH210409   3.665   4.614   3.507  0.6388 -0.4927 -0.2849
 3482TIP3    H110410   3.604   4.558   3.555  0.9116 -0.4881  0.0662
 3482TIP3    H210411   3.661   4.699   3.552  0.3746 -0.2827 -0.6951
 3483TIP3   OH210412   5.427   3.878   5.587  0.0192  0.0854  0.1254
 3483TIP3    H110413   5.448   3.857   5.678  0.1623  0.3788  0.1609
 3483TIP3    H210414   5.369   3.807   5.558  0.6263 -0.4455  0.1939
 3484TIP3   OH210415   0.085   6.533   0.529  0.5941 -0.2371  0.5730
 3484TIP3    H110416   0.004   6.515   0.482  1.0131 -1.4316  0.2865
 3484TIP3    H210417   0.146   6.562   0.461  0.6719 -0.2019  0.6574
 3485TIP3   OH210418   6.034   2.622   4.453 -0.4900 -0.1510 -0.4012
 3485TIP3    H110419   6.099   2.667   4.508 -1.0776  0.5786 -0.2856
 3485TIP3    H210420   5.964   2.686   4.443 -1.4977 -1.1608  0.0309
 3486TIP3   OH210421   0.765   0.511   0.993  0.6765 -0.2072 -0.0691
 3486TIP3    H110422   0.738   0.572   1.061  1.3177 -0.2900  0.2676
 3486TIP3    H210423   0.852   0.481   1.021  1.1528  0.1152 -1.1685
 3487TIP3   OH210424   3.198   5.704   3.034  0.4592 -0.1625 -0.9330
 3487TIP3    H110425   3.104   5.692   3.046  0.4425  0.7289 -0.0317
 3487TIP3    H210426   3.234   5.699   3.123  0.9796  1.6345 -1.0047
 3488TIP3   OH210427   3.393   0.019   1.332  0.3170 -0.2223 -0.5620
 3488TIP3    H110428   3.299   0.032   1.344  0.3993 -1.0721  1.5154
 3488TIP3    H210429   3.417   0.078   1.261 -1.3793  1.7230  0.3745
 3489TIP3   OH210430   4.729   0.274   4.628 -0.4223  0.6439  0.3271
 3489TIP3    H110431   4.715   0.274   4.533  0.2189 -1.9269  0.1567
 3489TIP3    H210432   4.704   0.186   4.656  3.0128  0.0181  1.9143
 3490TIP3   OH210433   6.234   4.523   0.127  0.7082  0.0153 -0.0102
 3490TIP3    H110434   6.242   4.499   0.035  0.9259 -1.0961  0.2834
 3490TIP3    H210435   6.323   4.516   0.162  0.4943 -0.3788  0.4681
 3491TIP3   OH210436   3.731   2.182   4.087 -0.3528  0.4751 -0.3188
 3491TIP3    H110437   3.815   2.136   4.090 -0.2331  0.7491  0.7789
 3491TIP3    H210438   3.668   2.120   4.125 -0.4169  0.7549  0.0301
 3492TIP3   OH210439   1.448   3.578   1.887  0.6767  0.0907 -0.2453
 3492TIP3    H110440   1.535   3.585   1.927  0.4286  0.7158  0.1841
 3492TIP3    H210441   1.430   3.484   1.887  1.6746 -0.1290 -1.0387
 3493TIP3   OH210442   1.272   2.100   5.573  0.6833  0.2992 -0.1237
 3493TIP3    H110443   1.181   2.126   5.563  0.7821  0.5403 -0.4307
 3493TIP3    H210444   1.268   2.011   5.609  0.2821 -0.4669 -1.9445
 3494TIP3   OH210445   6.957   0.228   5.846  0.1633  0.0810 -0.3541
 3494TIP3    H110446   6.965   0.148   5.794 -0.1457  0.7265 -1.4324
 3494TIP3    H210447   6.961   0.198   5.937  1.1496 -1.0342 -0.7411
 3495TIP3   OH210448   4.275   1.692   2.117 -0.5205  0.7744  0.8756
 3495TIP3    H110449   4.364   1.659   2.105 -1.1378 -0.7735  0.2527
 3495TIP3    H210450   4.222   1.613   2.125 -1.9547  1.6627  0.4249
 3496TIP3   OH210451   3.789   4.371   1.417 -0.3320  0.2576  0.3636
 3496TIP3    H110452   3.875   4.375   1.459 -1.1034 -0.2706  2.0727
 3496TIP3    H210453   3.732   4.423   1.473 -1.2046  0.3710 -0.5968
 3497TIP3   OH210454   6.884   6.614   3.468 -0.0562  0.0485  0.3047
 3497TIP3    H110455   6.868   6.681   3.534 -1.7928 -0.1524  0.1496
 3497TIP3    H210456   6.911   6.537   3.518 -0.6458  0.1107  0.7374
 3498TIP3   OH210457   1.800   3.028   5.011 -0.5903  0.2348  0.1728
 3498TIP3    H110458   1.796   3.052   5.104 -0.3182  1.1741 -0.0449
 3498TIP3    H210459   1.767   3.105   4.965  0.0240  0.0792 -0.5496
 3499TIP3   OH210460   6.653   6.140   4.832 -0.5239 -0.4381 -0.0075
 3499TIP3    H110461   6.580   6.197   4.858  1.0595  0.9122  1.6936
 3499TIP3    H210462   6.700   6.191   4.765 -0.1631 -0.5609  0.1530
 3500TIP3   OH210463   5.856   6.642   2.997 -0.3041 -0.3824  0.0542
 3500TIP3    H110464   5.800   6.632   3.074 -1.9502  2.9976 -0.5060
 3500TIP3    H210465   5.797   6.673   2.928  1.5368 -0.9496 -1.9119
 3501TIP3   OH210466   5.125   5.795   0.131 -0.6271  0.1613  0.2547
 3501TIP3    H110467   5.074   5.719   0.102  0.5328 -0.0314 -1.4680
 3501TIP3    H210468   5.077   5.871   0.098 -0.2603  0.0149 -0.6526
 3502TIP3   OH210469   5.934   2.139   0.904 -0.5227  0.0593 -0.1933
 3502TIP3    H110470   6.011   2.176   0.860 -1.0315  0.6809 -0.5916
 3502TIP3    H210471   5.884   2.099   0.833 -0.6502 -0.2004  0.0422
 3503TIP3   OH210472   2.567   3.934   4.953 -0.3343 -0.0440 -0.1496
 3503TIP3    H110473   2.486   3.966   4.914 -1.3187 -0.7448  1.2404
 3503TIP3    H210474   2.540   3.890   5.033  1.2025 -2.2222 -0.7289
 3504TIP3   OH210475   3.026   6.654   3.422 -0.0463  0.0185 -0.1904
 3504TIP3    H110476   2.984   6.589   3.477  1.9904 -1.4928 -0.2989
 3504TIP3    H210477   3.085   6.604   3.366 -1.0795  1.6158 -2.9085
 3505TIP3   OH210478   6.361   2.187   2.725 -0.1072 -0.4765  0.1628
 3505TIP3    H110479   6.422   2.179   2.798  0.7079  2.0055 -0.1368
 3505TIP3    H210480   6.344   2.281   2.719  0.4711 -0.4745 -3.2875
 3506TIP3   OH210481   4.210   2.523   0.269 -0.1277  0.0969 -0.3450
 3506TIP3    H110482   4.282   2.518   0.207  0.2150  1.1935 -0.0466
 3506TIP3    H210483   4.250   2.508   0.355 -0.6113 -1.5106 -0.3568
 3507TIP3   OH210484   7.054   5.719   5.710 -0.2848 -0.5010 -0.3072
 3507TIP3    H110485   6.993   5.787   5.739  0.5165 -0.0631  0.3745
 3507TIP3    H210486   7.140   5.748   5.740  0.2670 -1.1428 -1.2059
 3508TIP3   OH210487   3.134   5.251   3.089 -0.1954  0.1584  0.4310
 3508TIP3    H110488   3.135   5.281   2.998 -0.6258 -0.3000  0.2765
 3508TIP3    H210489   3.189   5.315   3.135 -2.2293  2.0889  0.3801
 3509TIP3   OH210490   5.268   4.858   5.399  0.6658  0.0284  0.5950
 3509TIP3    H110491   5.213   4.796   5.351  1.2757  1.1667 -1.7402
 3509TIP3    H210492   5.320   4.803   5.459  1.2518 -1.7744 -1.4300
 3510TIP3   OH210493   3.187   4.840   1.927  0.2757 -0.1855  0.7497
 3510TIP3    H110494   3.145   4.778   1.987 -0.9786  0.7030  0.8317
 3510TIP3    H210495   3.147   4.823   1.842  0.7296 -0.2236  0.5389
 3511TIP3   OH210496   1.555   0.699   5.296 -0.1747  0.6626 -0.5784
 3511TIP3    H110497   1.514   0.623   5.256 -2.6277  2.1427 -1.0618
 3511TIP3    H210498   1.605   0.740   5.225 -0.7621  0.7629 -0.9385
 3512TIP3   OH210499   6.293   5.404   3.634  0.3017  0.1993  0.4104
 3512TIP3    H110500   6.229   5.373   3.698 -0.5512  1.0840  0.0089
 3512TIP3    H210501   6.353   5.458   3.685 -0.3056  0.8040  0.4910
 3513TIP3   OH210502   3.864   4.581   3.345 -0.0133 -0.4656 -0.0654
 3513TIP3    H110503   3.926   4.633   3.396 -0.3527 -2.3318  2.4392
 3513TIP3    H210504   3.784   4.580   3.397 -1.4087 -0.0696 -2.0943
 3514TIP3   OH210505   2.506   3.497   0.754  0.4003 -0.5745 -0.0199
 3514TIP3    H110506   2.473   3.473   0.840 -2.1000 -1.5179 -1.1188
 3514TIP3    H210507   2.529   3.413   0.713  0.7032 -0.2330 -0.5684
 3515TIP3   OH210508   2.397   6.021   5.646  0.4258  0.1575 -0.0830
 3515TIP3    H110509   2.383   5.927   5.656  1.5629 -0.1464 -1.2124
 3515TIP3    H210510   2.357   6.043   5.562  0.4991  0.6124 -0.0007
 3516TIP3   OH210511   6.922   3.715   0.020 -0.1501  0.2853 -0.1314
 3516TIP3    H110512   6.868   3.765   0.082 -0.2810  0.8555 -0.6920
 3516TIP3    H210513   6.965   3.648   0.074 -0.4271  0.6332  0.5359
 3517TIP3   OH210514   5.369   2.492   0.309 -0.0766 -0.5021  0.6893
 3517TIP3    H110515   5.358   2.494   0.214  3.5547 -0.2959  0.1165
 3517TIP3    H210516   5.319   2.567   0.341 -0.6809 -0.0605 -1.1456
 3518TIP3   OH210517   1.879   3.519   0.195  0.1843  0.4261 -0.2054
 3518TIP3    H110518   1.854   3.538   0.285  0.3882  1.2342 -0.3099
 3518TIP3    H210519   1.803   3.474   0.158  0.4185 -0.6585  0.5935
 3519TIP3   OH210520   2.747   6.223   3.448 -0.3154 -0.8731 -0.4173
 3519TIP3    H110521   2.659   6.227   3.485 -0.3125  0.6180 -0.5498
 3519TIP3    H210522   2.762   6.309   3.409  0.9099 -1.3553 -1.0835
 3520TIP3   OH210523   0.523   0.138   1.878 -0.2126  0.2048  0.0998
 3520TIP3    H110524   0.482   0.070   1.932 -2.2504  3.4244  3.0587
 3520TIP3    H210525   0.617   0.120   1.884 -0.4754 -0.7587  3.2638
 3521TIP3   OH210526   4.992   6.425   1.810 -0.1507  0.7861 -0.3884
 3521TIP3    H110527   5.042   6.384   1.881 -1.6846  0.7562  0.7217
 3521TIP3    H210528   5.058   6.460   1.752  1.2023 -1.0562 -0.0621
 3522TIP3   OH210529   6.513   2.487   2.273 -0.5152  0.2489 -0.2534
 3522TIP3    H110530   6.569   2.503   2.349  0.1406  1.3583 -0.9242
 3522TIP3    H210531   6.469   2.571   2.258 -1.0176 -0.1014 -0.7887
 3523TIP3   OH210532   5.502   1.121   0.188 -0.4508 -0.2514 -0.2023
 3523TIP3    H110533   5.445   1.144   0.262  0.0794 -0.5558  0.3093
 3523TIP3    H210534   5.507   1.200   0.135 -0.4281  0.1295  0.3618
 3524TIP3   OH210535   6.019   3.150   0.851  0.2197  0.1206 -0.2458
 3524TIP3    H110536   5.942   3.092   0.846 -0.5339  0.9988  0.7715
 3524TIP3    H210537   6.052   3.138   0.940  0.8164  0.3215 -0.4369
 3525TIP3   OH210538   6.814   4.605   4.395 -0.6303 -0.3279 -0.5743
 3525TIP3    H110539   6.805   4.631   4.303 -0.4750 -0.4193 -0.6143
 3525TIP3    H210540   6.804   4.510   4.394 -0.9830 -0.2940 -0.4531
 3526TIP3   OH210541   0.964   1.783   4.552  0.3625 -0.1691  0.3332
 3526TIP3    H110542   1.024   1.753   4.620  1.5486  0.8112 -0.2565
 3526TIP3    H210543   0.973   1.719   4.481  0.1561 -0.4285  0.5403
 3527TIP3   OH210544   1.979   0.234   3.355  0.0280 -0.2375 -0.0228
 3527TIP3    H110545   2.056   0.180   3.335 -0.6929 -1.5278  0.6058
 3527TIP3    H210546   1.906   0.188   3.314 -0.3697  1.2530 -1.0551
 3528TIP3   OH210547   3.894   5.770   3.005  0.1068 -0.0105  0.5591
 3528TIP3    H110548   3.916   5.804   2.918 -0.5913 -0.7725  0.0774
 3528TIP3    H210549   3.940   5.829   3.065 -1.1522  1.9159 -0.2340
 3529TIP3   OH210550   2.444   0.647   5.046 -0.3310  0.1702 -0.7622
 3529TIP3    H110551   2.461   0.652   4.952  0.5443 -2.0407 -0.7826
 3529TIP3    H210552   2.503   0.710   5.085 -0.2946  0.6982 -1.6508
 3530TIP3   OH210553   6.290   1.933   2.642 -0.1075 -0.7920  0.3278
 3530TIP3    H110554   6.315   2.020   2.672 -0.2152  0.0570 -1.8381
 3530TIP3    H210555   6.259   1.888   2.720 -1.7796  1.7184  1.2036
 3531TIP3   OH210556   2.584   2.586   4.427  0.3130 -0.0788 -0.3000
 3531TIP3    H110557   2.569   2.510   4.483 -2.5362  0.0557 -0.7628
 3531TIP3    H210558   2.626   2.650   4.485 -1.8818 -0.1995  1.5679
 3532TIP3   OH210559   0.356   3.188   3.866 -0.0512  0.1857  0.1511
 3532TIP3    H110560   0.400   3.166   3.784 -0.6918  0.1917 -0.2011
 3532TIP3    H210561   0.406   3.262   3.901 -1.5012  2.2156 -1.7523
 3533TIP3   OH210562   1.819   4.390   3.418  0.2275  0.1357  0.3548
 3533TIP3    H110563   1.737   4.370   3.373 -0.2648  0.9700  0.8596
 3533TIP3    H210564   1.794   4.405   3.509  1.0086 -0.0629  0.6127
 3534TIP3   OH210565   3.912   3.332   2.376  0.1218 -0.4005  0.2796
 3534TIP3    H110566   3.978   3.403   2.374  0.3458 -0.6031  0.4322
 3534TIP3    H210567   3.964   3.252   2.373 -0.1877 -0.5647 -1.7991
 3535TIP3   OH210568   1.153   1.435   4.557 -0.4104 -0.3550 -0.4187
 3535TIP3    H110569   1.227   1.490   4.530  0.6527 -1.0585  0.9167
 3535TIP3    H210570   1.103   1.490   4.617  1.8658 -1.3820  2.7002
 3536TIP3   OH210571   7.022   0.513   3.512 -0.6330  0.4891  0.0120
 3536TIP3    H110572   7.090   0.499   3.447 -0.6670  0.9306 -0.1206
 3536TIP3    H210573   6.984   0.426   3.527  0.8911 -0.0247  1.1352
 3537TIP3   OH210574   0.841   5.987   2.948 -0.0047 -0.2019 -0.5735
 3537TIP3    H110575   0.773   6.053   2.938 -1.6061 -1.2712  2.0958
 3537TIP3    H210576   0.920   6.036   2.970 -0.8387  0.9153  0.0248
 3538TIP3   OH210577   3.909   0.169   2.510 -0.1687 -0.0639  0.1790
 3538TIP3    H110578   3.898   0.139   2.600  0.3016 -1.2062 -0.1318
 3538TIP3    H210579   3.991   0.219   2.512  0.9707 -1.8368 -0.0111
 3539TIP3   OH210580   3.848   6.508   5.452  0.0142  0.4868  0.7749
 3539TIP3    H110581   3.908   6.537   5.521  0.6828  1.1211 -0.0570
 3539TIP3    H210582   3.840   6.583   5.394  0.1154 -0.3037 -0.2892
 3540TIP3   OH210583   0.278   6.464   3.138 -0.4824 -0.0592 -0.0051
 3540TIP3    H110584   0.370   6.490   3.143 -0.3074 -0.7092  0.1662
 3540TIP3    H210585   0.232   6.545   3.117  0.2342  0.0923 -1.0527
 3541TIP3   OH210586   2.056   5.252   4.641  0.6310  0.0796 -0.4135
 3541TIP3    H110587   2.021   5.177   4.690  1.5536  0.2986  0.6063
 3541TIP3    H210588   2.092   5.310   4.708  1.6705  0.5294 -1.3387
 3542TIP3   OH210589   6.655   0.509   1.207  0.1257 -0.4002 -0.1136
 3542TIP3    H110590   6.592   0.570   1.245  2.0209  1.8256 -0.3012
 3542TIP3    H210591   6.739   0.554   1.216  1.2628 -1.8167 -2.7397
 3543TIP3   OH210592   3.882   3.152   0.002  0.1787  0.6988  0.4941
 3543TIP3    H110593   3.967   3.142   0.044 -0.4908 -0.3843  1.6759
 3543TIP3    H210594   3.847   3.233   0.038 -0.0200  0.2271  1.3962
 3544TIP3   OH210595   1.391   5.174   0.016 -0.2943 -0.2542 -0.1402
 3544TIP3    H110596   1.423   5.124   0.091 -0.1908  0.7250  0.4988
 3544TIP3    H210597   1.318   5.226   0.051 -1.7947 -1.4993 -1.2797
 3545TIP3   OH210598   5.603   0.596   0.588  0.0467 -0.8930  0.0625
 3545TIP3    H110599   5.674   0.654   0.615 -0.9979  0.4040  0.0883
 3545TIP3    H210600   5.540   0.653   0.545 -0.7873 -2.0976 -0.3750
 3546TIP3   OH210601   6.511   4.417   4.989 -0.6087 -0.4134  0.2307
 3546TIP3    H110602   6.494   4.460   5.073 -0.7661 -1.7958  0.9345
 3546TIP3    H210603   6.542   4.488   4.932 -0.7435  0.6015  1.3676
 3547TIP3   OH210604   1.626   2.057   0.687  0.8156 -0.4057  0.2700
 3547TIP3    H110605   1.696   2.029   0.628  3.1335  2.2051  1.5424
 3547TIP3    H210606   1.625   1.990   0.756 -1.3394 -3.0186 -2.0833
 3548TIP3   OH210607   3.838   5.505   2.240 -0.8314  0.1410  0.3834
 3548TIP3    H110608   3.846   5.534   2.331 -0.3394 -1.1220  0.7699
 3548TIP3    H210609   3.927   5.482   2.214 -1.1190 -0.4989 -0.0663
 3549TIP3   OH210610   3.220   5.977   0.737 -0.0625  0.4733  0.1797
 3549TIP3    H110611   3.293   5.975   0.675 -0.2704 -0.4483 -0.0477
 3549TIP3    H210612   3.262   5.976   0.823  0.2059  0.3405  0.0480
 3550TIP3   OH210613   6.113   4.910   2.553 -0.5042  0.9918 -0.2046
 3550TIP3    H110614   6.129   4.905   2.647  0.2413 -1.0551 -0.4082
 3550TIP3    H210615   6.194   4.944   2.516 -0.5152  1.0406 -0.1843
 3551TIP3   OH210616   3.171   1.832   5.444 -0.4007  0.0194  0.3188
 3551TIP3    H110617   3.231   1.765   5.409 -0.7932 -0.8046  1.1796
 3551TIP3    H210618   3.196   1.839   5.536 -1.2341  0.1041  0.5382
 3552TIP3   OH210619   6.321   3.058   0.164 -0.8253  0.0974 -0.6576
 3552TIP3    H110620   6.368   3.051   0.247 -0.9203  2.3661 -0.3615
 3552TIP3    H210621   6.232   3.083   0.189 -0.3526  2.9079 -1.4161
 3553TIP3   OH210622   3.589   1.748   4.556 -0.1284  0.4703 -0.0321
 3553TIP3    H110623   3.494   1.743   4.567 -0.0454  2.1266  1.9202
 3553TIP3    H210624   3.604   1.825   4.501  0.0986  0.2570 -0.2750
 3554TIP3   OH210625   5.015   2.411   5.035  0.0937 -0.3313  1.1244
 3554TIP3    H110626   5.080   2.395   4.966  0.0186  2.6428  0.2131
 3554TIP3    H210627   5.054   2.373   5.114  2.1097 -0.2167  0.2479
 3555TIP3   OH210628   3.443   5.229   4.045 -0.3756  0.3675 -0.3264
 3555TIP3    H110629   3.398   5.307   4.013 -1.8478 -0.4559 -0.3528
 3555TIP3    H210630   3.379   5.158   4.035  0.0547 -0.4329  1.8692
 3556TIP3   OH210631   5.368   5.131   0.056 -0.1463  0.3954 -0.5346
 3556TIP3    H110632   5.355   5.168   0.143  0.7594 -0.3059 -0.0827
 3556TIP3    H210633   5.325   5.193  -0.003  0.5872  1.7081  0.2614
 3557TIP3   OH210634   0.887   2.996   3.795  0.0809  0.2214 -0.3143
 3557TIP3    H110635   0.815   3.019   3.853  2.1210  0.7218  2.2393
 3557TIP3    H210636   0.909   2.906   3.820  1.0395  0.4677 -0.2456
 3558TIP3   OH210637   4.767   1.976   3.775  0.2958 -0.0119 -0.2337
 3558TIP3    H110638   4.752   1.882   3.762 -1.6946  0.1948  0.2716
 3558TIP3    H210639   4.812   2.004   3.695 -1.1879 -0.9791 -1.4748
 3559TIP3   OH210640   3.856   0.926   0.961 -0.1622  0.3193 -0.0105
 3559TIP3    H110641   3.796   0.902   0.890 -0.2996  0.4156  0.0718
 3559TIP3    H210642   3.848   1.022   0.966 -0.3369  0.2879  0.2996
 3560TIP3   OH210643   4.931   2.338   3.406  0.4506 -0.3052 -0.0047
 3560TIP3    H110644   4.964   2.248   3.406 -0.9229 -0.8331  0.1069
 3560TIP3    H210645   4.839   2.330   3.380  0.3763  1.0981 -0.2581
 3561TIP3   OH210646   5.566   5.891   0.646 -0.7463 -0.0287  0.4692
 3561TIP3    H110647   5.501   5.949   0.686  3.0619  2.5385  3.7818
 3561TIP3    H210648   5.589   5.829   0.716 -0.3468 -1.5762 -0.9662
 3562TIP3   OH210649   0.568  -0.009   0.089 -0.0666  0.2037  0.0416
 3562TIP3    H110650   0.588   0.082   0.108 -1.5596  0.7987 -1.1063
 3562TIP3    H210651   0.564  -0.013  -0.007  0.2104 -1.1206  0.0663
 3563TIP3   OH210652   4.382   3.383   2.894 -0.2838  0.3114  0.2275
 3563TIP3    H110653   4.435   3.378   2.974  0.7554 -0.7235 -0.4789
 3563TIP3    H210654   4.300   3.340   2.917 -0.1337  0.3404  0.8415
 3564TIP3   OH210655   5.987   0.286   5.480  0.3180 -0.0060 -0.1835
 3564TIP3    H110656   6.041   0.274   5.403  1.5389  0.2160  0.6101
 3564TIP3    H210657   6.022   0.364   5.522 -0.3567 -0.0939  0.5713
 3565TIP3   OH210658   2.684   5.336   2.308 -0.1715 -0.1018  0.0519
 3565TIP3    H110659   2.663   5.409   2.366 -0.0159  0.2561 -0.3391
 3565TIP3    H210660   2.599   5.302   2.280 -0.2697 -0.8970  1.2452
 3566TIP3   OH210661   1.185   2.052   0.477 -0.2941  0.0042 -0.3711
 3566TIP3    H110662   1.128   2.083   0.407 -1.8533 -0.8578  0.4659
 3566TIP3    H210663   1.240   2.128   0.498 -0.9770  0.7950 -1.3556
 3567TIP3   OH210664   6.209   5.424   0.696  0.8778 -0.1953  0.0110
 3567TIP3    H110665   6.282   5.441   0.756  1.1104 -0.6002 -0.1601
 3567TIP3    H210666   6.251   5.408   0.611  0.6129 -0.8646  0.0064
 3568TIP3   OH210667   0.703   5.401   4.997  0.2067  0.5557 -0.2061
 3568TIP3    H110668   0.757   5.322   4.996  0.1304  0.5064 -0.4349
 3568TIP3    H210669   0.762   5.471   4.968  0.4987  0.7315  0.7605
 3569TIP3   OH210670   3.765   4.917   2.278  0.0396  0.5804 -0.2729
 3569TIP3    H110671   3.707   4.916   2.354  1.0958 -0.5334  0.5549
 3569TIP3    H210672   3.710   4.884   2.207 -0.3486 -0.5436  0.5149
 3570TIP3   OH210673   1.162   2.251   4.058 -0.5799 -0.5508  0.2622
 3570TIP3    H110674   1.245   2.253   4.011 -1.6483 -2.1606 -1.8885
 3570TIP3    H210675   1.170   2.318   4.126  2.2809 -0.3814 -0.1458
 3571TIP3   OH210676   4.700   4.736   4.699  0.4007 -0.4915  0.3327
 3571TIP3    H110677   4.743   4.664   4.745 -2.2241 -1.2836  1.7321
 3571TIP3    H210678   4.674   4.797   4.768  0.9274  0.9133 -0.6569
 3572TIP3   OH210679   1.811   2.236   0.117 -0.3827 -0.2542 -0.2800
 3572TIP3    H110680   1.891   2.205   0.074 -0.6150  1.9572 -2.6022
 3572TIP3    H210681   1.750   2.163   0.111  0.8984 -1.3697 -0.0815
 3573TIP3   OH210682   0.160   3.960   3.944 -0.1623  0.0403 -0.7533
 3573TIP3    H110683   0.253   3.950   3.923 -0.3398  0.2991 -1.6778
 3573TIP3    H210684   0.114   3.920   3.871 -0.7840 -0.1984 -0.2388
 3574TIP3   OH210685   4.082   6.549   1.727 -0.3310 -0.0827 -0.0347
 3574TIP3    H110686   4.109   6.465   1.763  0.1374  0.0168 -0.1465
 3574TIP3    H210687   4.150   6.610   1.754 -0.7786  0.3060  0.2294
 3575TIP3   OH210688   2.606   1.061   1.654 -0.6951 -0.1326 -0.0155
 3575TIP3    H110689   2.517   1.026   1.648 -1.0028  0.1688  2.0372
 3575TIP3    H210690   2.627   1.057   1.748  1.6483 -0.6469 -0.5048
 3576TIP3   OH210691   3.944   1.446   4.746  0.1503 -0.2009 -0.2643
 3576TIP3    H110692   3.882   1.443   4.673 -0.3571  1.7040  0.0188
 3576TIP3    H210693   3.918   1.524   4.796  1.9657 -0.1034  0.6019
 3577TIP3   OH210694   0.573   0.134   2.366 -0.3291 -0.2849  0.4798
 3577TIP3    H110695   0.615   0.220   2.360  0.5528 -0.7996 -2.1462
 3577TIP3    H210696   0.629   0.084   2.426  1.1308  0.0104 -0.5570
 3578TIP3   OH210697   1.193   1.691   3.115  0.4494 -0.2227 -0.4175
 3578TIP3    H110698   1.170   1.768   3.167  2.9055  2.0628 -2.4107
 3578TIP3    H210699   1.253   1.641   3.171 -0.8221 -0.5280  0.7270
 3579TIP3   OH210700   0.999   2.550   0.065 -0.1894 -0.0450 -0.0354
 3579TIP3    H110701   1.083   2.507   0.050  0.1008  1.1843 -2.4015
 3579TIP3    H210702   1.020   2.644   0.069 -1.0559  0.1491  3.0592
 3580TIP3   OH210703   2.299   3.580   4.991  0.1436 -0.1518  0.3083
 3580TIP3    H110704   2.323   3.572   5.083 -0.3071  1.3416  0.5872
 3580TIP3    H210705   2.262   3.668   4.983 -1.8601 -1.0009 -0.8295
 3581TIP3   OH210706   2.128   2.492   1.918 -0.1384 -0.2212  0.7408
 3581TIP3    H110707   2.072   2.565   1.892  0.3136 -0.4472 -1.0054
 3581TIP3    H210708   2.180   2.526   1.991 -0.6015  0.8933  0.5639
 3582TIP3   OH210709   1.414   5.107   3.064 -0.7583 -1.0620 -0.2520
 3582TIP3    H110710   1.409   5.052   2.986 -0.6080  0.2662 -1.2221
 3582TIP3    H210711   1.395   5.047   3.136 -1.8454 -2.1335 -1.3681
 3583TIP3   OH210712   1.551   3.962   3.117 -0.3865  0.0493 -0.2307
 3583TIP3    H110713   1.523   3.887   3.065 -0.6182 -1.8336  2.4133
 3583TIP3    H210714   1.470   4.007   3.141 -0.2849  0.8706 -1.3369
 3584TIP3   OH210715   1.664   3.705   4.631 -0.8929  0.2412 -0.2994
 3584TIP3    H110716   1.655   3.614   4.660 -1.3075 -0.0595 -1.3187
 3584TIP3    H210717   1.643   3.757   4.709 -0.6140 -0.5299  0.3052
 3585TIP3   OH210718   5.003   6.038   4.110 -0.1858 -0.3285  0.1248
 3585TIP3    H110719   5.097   6.036   4.093 -0.3549  1.8838 -1.4513
 3585TIP3    H210720   4.995   6.061   4.202  0.7936 -0.8294  0.3481
 3586TIP3   OH210721   6.413   3.549   3.095 -0.1002  0.2544  0.6281
 3586TIP3    H110722   6.440   3.535   3.186 -0.7581 -0.8107  0.6667
 3586TIP3    H210723   6.339   3.610   3.101 -1.3608 -1.2653  0.9723
 3587TIP3   OH210724   2.477   6.233   4.159  0.1638 -0.7228  0.6350
 3587TIP3    H110725   2.469   6.219   4.064  3.1393 -2.0654  0.4355
 3587TIP3    H210726   2.482   6.144   4.195  1.7908 -0.2587  1.6647
 3588TIP3   OH210727   0.630   5.713   3.144 -0.0319 -1.0824 -0.0052
 3588TIP3    H110728   0.682   5.762   3.081 -0.4151  0.4511  0.8364
 3588TIP3    H210729   0.588   5.779   3.198 -1.1160 -2.3287  0.7462
 3589TIP3   OH210730   6.658   1.790   2.767 -0.2229  0.2613  0.3040
 3589TIP3    H110731   6.636   1.697   2.757  1.5805 -0.3289  1.3752
 3589TIP3    H210732   6.618   1.832   2.691 -1.5352 -1.2926  0.0716
 3590TIP3   OH210733   0.631   2.573   2.471 -0.1527  0.2830 -0.3642
 3590TIP3    H110734   0.689   2.518   2.419 -0.3908 -0.2998 -0.0235
 3590TIP3    H210735   0.687   2.645   2.502  0.2028  0.1312 -0.6512
 3591TIP3   OH210736   3.023   2.114   0.827  0.4675  0.4731  0.7134
 3591TIP3    H110737   3.077   2.186   0.794 -0.7603  1.0130 -0.2347
 3591TIP3    H210738   3.075   2.074   0.896  0.2008  3.9114  3.1560
 3592TIP3   OH210739   0.868   1.341   1.074 -0.5839 -0.2112 -0.3545
 3592TIP3    H110740   0.932   1.369   1.140 -0.4870 -1.3074  0.0458
 3592TIP3    H210741   0.919   1.330   0.994  0.0155 -2.2926  0.2609
 3593TIP3   OH210742   2.664   5.444   2.881  0.0734 -0.0632 -0.1479
 3593TIP3    H110743   2.578   5.468   2.916 -1.4750 -1.7021 -2.5298
 3593TIP3    H210744   2.670   5.350   2.896  2.4022  0.2664  1.6714
 3594TIP3   OH210745   5.897   3.397   3.424 -0.2949 -0.0660  0.3487
 3594TIP3    H110746   5.860   3.475   3.383  1.2887 -0.0827 -1.2661
 3594TIP3    H210747   5.822   3.340   3.440 -1.4114  1.5615  1.0750
 3595TIP3   OH210748   3.823   5.318   2.628  0.1635  0.4662  0.0593
 3595TIP3    H110749   3.801   5.311   2.535  3.4365 -0.5386 -0.7674
 3595TIP3    H210750   3.846   5.229   2.654  2.5653  1.2440  0.8586
 3596TIP3   OH210751   5.762   3.532   2.167 -0.0524 -0.4964 -1.1276
 3596TIP3    H110752   5.779   3.480   2.088  1.5738  2.0730 -2.6066
 3596TIP3    H210753   5.844   3.529   2.215  0.2591  1.0665 -1.5136
 3597TIP3   OH210754   0.637   2.053   5.292  0.3963 -0.5704 -0.4522
 3597TIP3    H110755   0.686   2.072   5.212  0.0976  1.9016 -0.1235
 3597TIP3    H210756   0.566   2.116   5.292 -0.5194 -1.5390  1.0252
 3598TIP3   OH210757   4.676   4.585   3.487 -0.0199  0.3260 -0.2502
 3598TIP3    H110758   4.756   4.536   3.467 -0.4052 -0.0771 -0.8574
 3598TIP3    H210759   4.707   4.665   3.529  0.5557 -1.0607  2.1401
 3599TIP3   OH210760   0.296   4.217   0.434  0.8210  0.1874  0.7079
 3599TIP3    H110761   0.366   4.214   0.369  0.2222  0.6143  0.0320
 3599TIP3    H210762   0.222   4.256   0.388 -0.3582 -1.6426  0.9396
 3600TIP3   OH210763   2.074   1.803   2.942  0.1271  0.7028 -0.1899
 3600TIP3    H110764   2.100   1.889   2.908  1.0107  1.4547  2.2008
 3600TIP3    H210765   2.151   1.769   2.986 -0.1679 -1.4417 -1.1956
 3601TIP3   OH210766   6.584   5.096   4.002 -0.1860 -0.1077  0.8821
 3601TIP3    H110767   6.580   5.035   3.929  0.3151 -0.0261  0.7774
 3601TIP3    H210768   6.660   5.152   3.982 -1.1310  1.1044  0.5476
 3602TIP3   OH210769   0.935   3.760   0.113  0.4669  0.5029  0.1898
 3602TIP3    H110770   0.944   3.684   0.056 -0.6553  1.0985 -0.8336
 3602TIP3    H210771   0.852   3.745   0.160  1.9727 -0.6141  2.7313
 3603TIP3   OH210772   1.363   6.420   3.217  0.0579  0.1168 -0.2502
 3603TIP3    H110773   1.438   6.473   3.242  0.1539  1.8477 -3.5483
 3603TIP3    H210774   1.292   6.483   3.205 -0.3031 -0.6100 -2.5830
 3604TIP3   OH210775   6.876   2.365   3.010 -0.1548 -0.3500  0.1392
 3604TIP3    H110776   6.821   2.412   3.072  0.7100 -1.0529  1.4794
 3604TIP3    H210777   6.891   2.280   3.051  0.7422 -0.7012 -0.8691
 3605TIP3   OH210778   3.435   0.506   2.125  0.1504 -0.2997  0.3972
 3605TIP3    H110779   3.405   0.483   2.213  1.0935 -1.1066  0.5335
 3605TIP3    H210780   3.462   0.422   2.087  0.6509  0.1706 -0.2995
 3606TIP3   OH210781   3.905   1.946   2.924  0.6641 -0.0591 -0.0103
 3606TIP3    H110782   3.870   1.986   3.004  0.5536  0.6018 -0.3874
 3606TIP3    H210783   3.914   1.853   2.946  0.2952  0.0569  0.6528
 3607TIP3   OH210784   2.740   0.125   5.825 -0.4593  0.7060  0.7871
 3607TIP3    H110785   2.782   0.141   5.909  2.2863  2.4953 -0.8059
 3607TIP3    H210786   2.718   0.211   5.792 -0.8369  0.0780 -0.6741
 3608TIP3   OH210787   6.645   3.093   5.499  0.1117  0.5158 -0.3321
 3608TIP3    H110788   6.592   3.122   5.425 -0.2665 -1.2161 -0.7798
 3608TIP3    H210789   6.583   3.051   5.558  0.6146  0.7411  0.3675
 3609TIP3   OH210790   6.304   3.843   5.261  0.2969 -0.0640  0.0765
 3609TIP3    H110791   6.333   3.800   5.180 -3.2810 -1.3282 -0.6883
 3609TIP3    H210792   6.259   3.922   5.231 -1.3976 -0.7353  0.7452
 3610TIP3   OH210793   3.464   3.497   0.609  0.1940 -0.0903  0.2205
 3610TIP3    H110794   3.459   3.513   0.703  0.6864  1.3248  0.0379
 3610TIP3    H210795   3.446   3.403   0.599 -0.3648 -0.1600  1.6630
 3611TIP3   OH210796   0.242   5.978   2.958 -0.7337 -0.1423  0.3196
 3611TIP3    H110797   0.210   5.888   2.969  0.9024 -0.8045 -0.1023
 3611TIP3    H210798   0.244   6.014   3.047 -1.4493 -0.4940  0.4866
 3612TIP3   OH210799   4.375   3.490   4.697 -0.5034  0.2040  0.8652
 3612TIP3    H110800   4.313   3.468   4.766 -0.6170 -0.3824  0.5849
 3612TIP3    H210801   4.361   3.423   4.630  0.6627 -0.1526  0.9420
 3613TIP3   OH210802   4.038   4.026   0.886 -0.4947  0.4323 -0.4650
 3613TIP3    H110803   4.128   4.001   0.862 -0.0246 -0.0661  1.6388
 3613TIP3    H210804   4.006   4.073   0.809  2.0488  1.8280 -0.7929
 3614TIP3   OH210805   0.487   4.582   3.118 -0.1859 -0.0924 -0.3108
 3614TIP3    H110806   0.559   4.644   3.127  0.1985 -0.0970 -2.7519
 3614TIP3    H210807   0.520   4.514   3.060 -0.9297 -2.1458  1.5188
 3615TIP3   OH210808   6.275   4.132   3.033 -0.3550 -0.0124 -0.3491
 3615TIP3    H110809   6.310   4.125   3.122 -1.0663  0.3791 -0.0326
 3615TIP3    H210810   6.220   4.054   3.023 -0.3947  0.0209 -0.3879
 3616TIP3   OH210811   6.216   6.637   0.265 -0.2150  0.0538 -0.1176
 3616TIP3    H110812   6.234   6.688   0.345  0.5630 -1.9437  1.0553
 3616TIP3    H210813   6.303   6.610   0.235 -0.6582 -2.6327  0.7557
 3617TIP3   OH210814   1.524   1.585   5.262 -0.0708 -0.2267 -0.2584
 3617TIP3    H110815   1.572   1.589   5.345 -1.1713  1.7490  0.3634
 3617TIP3    H210816   1.591   1.584   5.195  0.8438 -1.4063  0.6252
 3618TIP3   OH210817   0.286   3.334   1.409 -0.6433  0.3201  0.6559
 3618TIP3    H110818   0.209   3.283   1.385 -0.0771 -0.6951  0.9522
 3618TIP3    H210819   0.328   3.356   1.326  0.6807 -2.1952  0.5746
 3619TIP3   OH210820   2.370   0.389   4.145 -0.2922  0.1792 -0.2508
 3619TIP3    H110821   2.354   0.431   4.060  0.9081 -0.3217 -0.7442
 3619TIP3    H210822   2.296   0.417   4.199 -1.3441  0.1085 -1.5976
 3620TIP3   OH210823   4.778   4.360   3.341  0.0134 -0.4038 -0.4624
 3620TIP3    H110824   4.708   4.337   3.402 -0.7922  0.6812 -0.9368
 3620TIP3    H210825   4.761   4.306   3.263  1.3112 -2.1309  0.3897
 3621TIP3   OH210826   1.917   0.003   3.910 -0.5189  0.8758  0.6215
 3621TIP3    H110827   1.953  -0.023   3.995 -0.5365  1.6329  0.8657
 3621TIP3    H210828   1.848   0.065   3.931 -2.8237 -1.3761  0.2489
 3622TIP3   OH210829   1.107   0.346   4.893  0.5661  0.0362  0.3865
 3622TIP3    H110830   1.144   0.311   4.812 -1.0380  0.1409 -0.4286
 3622TIP3    H210831   1.088   0.438   4.874 -0.7980 -0.1991  0.5078
 3623TIP3   OH210832   5.018   1.115   3.449  0.0731 -0.2795 -0.1444
 3623TIP3    H110833   5.078   1.117   3.375  1.0130 -1.5097  0.5438
 3623TIP3    H210834   4.994   1.023   3.458 -0.1998 -0.1210  0.9284
 3624TIP3   OH210835   6.199   0.172   3.513 -0.6163 -0.8962 -0.8626
 3624TIP3    H110836   6.194   0.107   3.583 -2.6554 -1.2054 -1.2389
 3624TIP3    H210837   6.149   0.134   3.441 -0.1368  0.2290 -1.8167
 3625TIP3   OH210838   1.432   0.405   2.081  0.2273 -0.3377 -0.1012
 3625TIP3    H110839   1.415   0.311   2.089  0.3002 -0.3685 -0.3219
 3625TIP3    H210840   1.502   0.422   2.144 -0.4967 -0.2391  0.7097
 3626TIP3   OH210841   3.571   0.292   5.479 -0.4282  0.2268  0.5679
 3626TIP3    H110842   3.482   0.260   5.469 -0.2451 -0.4759  1.1339
 3626TIP3    H210843   3.609   0.285   5.392  0.3376 -3.3600  1.0420
 3627TIP3   OH210844   1.887   6.458   3.013 -0.2412 -0.2538 -0.1543
 3627TIP3    H110845   1.811   6.437   3.068 -0.3445  0.6131  0.0543
 3627TIP3    H210846   1.871   6.412   2.931 -0.6958 -0.5721  0.1096
 3628TIP3   OH210847   4.858   2.545   3.902  0.5776  0.2093 -0.3921
 3628TIP3    H110848   4.860   2.449   3.903  1.2546  0.2051 -1.0903
 3628TIP3    H210849   4.772   2.567   3.937  0.5308 -0.6444  0.0690
 3629TIP3   OH210850   5.526   5.186   3.904  0.1275 -0.0186  0.2301
 3629TIP3    H110851   5.463   5.120   3.877  1.6856 -1.6653  0.4512
 3629TIP3    H210852   5.489   5.269   3.872 -1.8158 -0.9738 -0.1519
 3630TIP3   OH210853   1.153   1.959   5.809  0.1914 -0.0804  0.0298
 3630TIP3    H110854   1.070   1.934   5.848 -0.9243  0.6721 -1.7180
 3630TIP3    H210855   1.190   2.023   5.870 -0.3347 -0.6667  0.9913
 3631TIP3   OH210856   2.983   5.494   2.335  0.2480  0.0234  0.3628
 3631TIP3    H110857   2.930   5.556   2.285 -0.6803 -0.7219  0.4048
 3631TIP3    H210858   2.927   5.417   2.345  0.9062 -0.3327  1.4302
 3632TIP3   OH210859   1.564   2.879   1.024  0.1328  0.1414 -0.3706
 3632TIP3    H110860   1.645   2.908   1.067  0.2016  0.0271 -0.4233
 3632TIP3    H210861   1.502   2.950   1.040 -0.2868 -0.5326  1.1795
 3633TIP3   OH210862   4.457   1.186   1.307  0.1948 -0.0876  0.0408
 3633TIP3    H110863   4.366   1.168   1.283 -0.2331  0.5664  1.0999
 3633TIP3    H210864   4.459   1.280   1.323  0.3647 -0.4437  2.6525
 3634TIP3   OH210865   2.909   6.133   3.650  0.3566 -0.1527 -0.3939
 3634TIP3    H110866   2.940   6.210   3.697  0.9527 -1.2447  1.0370
 3634TIP3    H210867   2.872   6.169   3.569  0.9517  1.5967  0.0630
 3635TIP3   OH210868   5.828   5.178   4.344 -0.2596 -0.4243  0.1062
 3635TIP3    H110869   5.825   5.209   4.434  1.0643 -1.1526  0.4213
 3635TIP3    H210870   5.764   5.107   4.341 -0.8962  0.1345  0.2465
 3636TIP3   OH210871   2.501   4.915   0.587 -0.0869  0.6394  0.0814
 3636TIP3    H110872   2.445   4.863   0.530  0.7160 -0.6323  0.3959
 3636TIP3    H210873   2.480   5.006   0.566 -2.9369  0.2471  0.8715
 3637TIP3   OH210874   2.438   6.731   2.107 -0.0974 -0.0853 -0.1366
 3637TIP3    H110875   2.500   6.803   2.122 -0.0285 -0.0030 -0.8039
 3637TIP3    H210876   2.477   6.657   2.154 -0.0608  0.2522  0.3773
 3638TIP3   OH210877   5.367   0.599   3.924 -0.0917 -0.1141 -0.0883
 3638TIP3    H110878   5.402   0.687   3.909 -1.2361  0.1222 -1.6520
 3638TIP3    H210879   5.434   0.540   3.891  0.3339  0.1884  0.2257
 3639TIP3   OH210880   1.497   3.776   2.151 -0.0550 -0.1931 -0.0704
 3639TIP3    H110881   1.481   3.755   2.244  0.3624 -0.2272 -0.0045
 3639TIP3    H210882   1.533   3.695   2.115 -0.4768 -0.2650 -0.3272
 3640TIP3   OH210883   5.864   4.469   4.124 -0.2754  0.2606 -0.2969
 3640TIP3    H110884   5.809   4.541   4.095 -1.0435 -1.0453 -2.2647
 3640TIP3    H210885   5.864   4.476   4.220  0.0569  3.0842 -0.4296
 3641TIP3   OH210886   3.351   4.587   3.306 -0.3320 -0.2603 -0.5196
 3641TIP3    H110887   3.351   4.670   3.354 -0.3966 -0.4576 -0.1758
 3641TIP3    H210888   3.277   4.596   3.245 -0.3762 -0.0900 -0.4437
 3642TIP3   OH210889   5.400   3.764   3.696 -0.3599  0.4657 -0.0682
 3642TIP3    H110890   5.332   3.699   3.715  0.0501 -0.5393 -1.8173
 3642TIP3    H210891   5.460   3.759   3.771 -0.0821 -1.5323 -0.3763
 3643TIP3   OH210892   3.748   0.490   0.123  0.4328 -0.3762 -0.8284
 3643TIP3    H110893   3.837   0.469   0.152  0.1700 -0.5700 -0.1583
 3643TIP3    H210894   3.697   0.496   0.203 -0.1006  0.0399 -1.1915
 3644TIP3   OH210895   5.237   6.382   5.454  0.2409  0.5538  0.0344
 3644TIP3    H110896   5.214   6.347   5.540  3.1060  0.4698  0.8731
 3644TIP3    H210897   5.199   6.319   5.392  1.0814 -1.3805  1.3702
 3645TIP3   OH210898   1.256   2.108   0.155 -0.3441  0.3329 -0.0476
 3645TIP3    H110899   1.208   2.165   0.215 -1.3897 -1.7073  1.1863
 3645TIP3    H210900   1.333   2.159   0.129 -0.5045  1.7705  2.0441
 3646TIP3   OH210901   2.873   1.781   2.989 -0.2157 -0.3483  0.1214
 3646TIP3    H110902   2.969   1.778   2.997 -0.1464 -1.0570 -0.7759
 3646TIP3    H210903   2.844   1.695   3.021 -0.4472 -0.5927 -0.7156
 3647TIP3   OH210904   3.970   4.348   0.119  0.3605 -0.0105  0.0735
 3647TIP3    H110905   3.876   4.344   0.140  0.3269 -1.6966 -0.2507
 3647TIP3    H210906   4.006   4.266   0.153  1.2797 -0.4319 -1.7703
 3648TIP3   OH210907   1.607   4.619   0.510 -0.0205  0.2980  0.4325
 3648TIP3    H110908   1.647   4.662   0.434 -1.7775 -0.4698 -1.0028
 3648TIP3    H210909   1.576   4.535   0.476 -1.3124  0.1519  1.8842
 3649TIP3   OH210910   4.918   3.261   1.465  0.0277  0.1448 -0.4336
 3649TIP3    H110911   4.861   3.193   1.429 -2.0371  1.2955  0.4745
 3649TIP3    H210912   4.993   3.263   1.406  0.2924 -3.0190 -0.3849
 3650TIP3   OH210913   5.438   5.665   3.207 -0.2658  0.3291  0.0380
 3650TIP3    H110914   5.505   5.728   3.178 -0.3948  0.5353  0.1875
 3650TIP3    H210915   5.455   5.587   3.154 -0.5782  0.7432 -0.6820
 3651TIP3   OH210916   2.335   4.076   4.886 -0.4140  0.2888 -0.5721
 3651TIP3    H110917   2.255   4.062   4.835 -0.9871 -1.9447  0.7908
 3651TIP3    H210918   2.372   4.158   4.852 -2.0091  0.1363 -2.8550
 3652TIP3   OH210919   2.627   5.262   3.562  0.3429  0.0991 -0.4366
 3652TIP3    H110920   2.610   5.179   3.516  0.5766 -0.5686  0.6376
 3652TIP3    H210921   2.590   5.248   3.649 -1.7205  1.9832 -0.9046
 3653TIP3   OH210922   0.421   3.949   2.634  0.0043  0.3775 -0.7988
 3653TIP3    H110923   0.468   3.983   2.711  0.1629  0.3942 -0.9014
 3653TIP3    H210924   0.490   3.931   2.570 -0.2613  2.4944 -1.7737
 3654TIP3   OH210925   1.887   0.290   3.757  0.3442  0.0058  0.0740
 3654TIP3    H110926   1.846   0.319   3.838 -0.5172  0.2308 -0.4294
 3654TIP3    H210927   1.819   0.239   3.713  0.8596 -0.2514 -0.4310
 3655TIP3   OH210928   0.846   2.046   4.361  0.0894  0.1678  0.1704
 3655TIP3    H110929   0.756   2.020   4.343 -0.0992 -0.1381  1.4594
 3655TIP3    H210930   0.841   2.091   4.446  0.7812  2.3127 -0.8584
 3656TIP3   OH210931   3.309   5.344   0.040  0.0859  0.2639  0.2268
 3656TIP3    H110932   3.216   5.359   0.025  0.2794  0.9671 -0.3603
 3656TIP3    H210933   3.313   5.271   0.101 -0.8006 -1.3448 -1.5331
 3657TIP3   OH210934   7.063   1.237   5.323  0.1671 -0.1277  0.5354
 3657TIP3    H110935   7.104   1.302   5.266  2.2789 -1.0852  0.8761
 3657TIP3    H210936   7.033   1.288   5.399 -1.1833  0.8935 -0.6138
 3658TIP3   OH210937   7.098   5.026   1.723  0.2616 -0.0300  0.1887
 3658TIP3    H110938   7.090   4.931   1.719 -1.1921  0.1102 -0.6404
 3658TIP3    H210939   7.074   5.057   1.636  2.2029  1.0390 -0.0367
 3659TIP3   OH210940   2.729   5.858   3.945  0.0631  0.0103 -0.2344
 3659TIP3    H110941   2.767   5.899   4.022 -0.8447  0.2827  0.0735
 3659TIP3    H210942   2.687   5.930   3.897 -0.2170 -0.3131 -0.4833
 3660TIP3   OH210943   5.558   1.490   0.170 -0.5879  0.3432  0.0998
 3660TIP3    H110944   5.512   1.537   0.240  0.5233 -0.4357  1.3895
 3660TIP3    H210945   5.592   1.560   0.113  0.3448  1.1279  1.5457
 3661TIP3   OH210946   1.584   5.745   3.911  0.1204  0.1221  0.1649
 3661TIP3    H110947   1.605   5.698   3.831 -0.6249  0.1082 -0.0290
 3661TIP3    H210948   1.650   5.814   3.917 -0.5620  0.9165 -1.1280
 3662TIP3   OH210949   4.644   1.790   2.254  0.2794  0.0859  0.0869
 3662TIP3    H110950   4.568   1.831   2.297 -0.7346 -1.8835  0.3060
 3662TIP3    H210951   4.709   1.783   2.323  0.4768  1.2947  0.0426
 3663TIP3   OH210952   6.849   5.279   2.047 -0.0843 -0.0264  0.0734
 3663TIP3    H110953   6.875   5.370   2.034  0.5682  0.1881  2.4453
 3663TIP3    H210954   6.760   5.274   2.011  0.6302  0.9609 -1.9943
 3664TIP3   OH210955   5.298   2.406   3.802 -0.3581  0.5735 -0.2462
 3664TIP3    H110956   5.236   2.448   3.743 -1.3814 -0.2778  0.1828
 3664TIP3    H210957   5.246   2.383   3.879  0.1873 -1.3115 -0.3932
 3665TIP3   OH210958   1.888   0.112   5.320 -0.4241 -0.5909  0.7571
 3665TIP3    H110959   1.830   0.123   5.395 -0.2692  0.2774  0.7553
 3665TIP3    H210960   1.850   0.038   5.271 -0.9148 -0.7139  1.3169
 3666TIP3   OH210961   1.871   4.656   3.137  0.0263  0.3001 -0.1051
 3666TIP3    H110962   1.966   4.648   3.128  0.0310 -0.6018  0.6382
 3666TIP3    H210963   1.837   4.573   3.102 -0.3747 -0.1056  1.1941
 3667TIP3   OH210964   3.120   3.234   1.475  0.0272  0.3619  0.2580
 3667TIP3    H110965   3.039   3.273   1.508  1.3479  2.0678  1.7265
 3667TIP3    H210966   3.140   3.284   1.396 -0.9613 -0.9289 -0.8615
 3668TIP3   OH210967   6.498   6.704   5.229  0.1378 -0.1068 -0.0633
 3668TIP3    H110968   6.417   6.750   5.252  0.8542  0.9916  0.3254
 3668TIP3    H210969   6.520   6.654   5.308  0.7174  0.9076  0.4346
 3669TIP3   OH210970   3.235   3.341   1.250  0.1383  0.2127 -0.4522
 3669TIP3    H110971   3.311   3.285   1.237 -1.2749 -1.4075 -2.4945
 3669TIP3    H210972   3.252   3.419   1.197  0.9818  0.5556  0.3017
 3670TIP3   OH210973   6.141   2.943   4.383  0.3732  0.3106  0.3076
 3670TIP3    H110974   6.099   2.991   4.313  0.7960  0.1829 -0.0388
 3670TIP3    H210975   6.231   2.930   4.353  0.9432  1.4339  1.4544
 3671TIP3   OH210976   2.722   4.727   2.459 -0.0124  0.2561 -0.2857
 3671TIP3    H110977   2.634   4.708   2.489 -0.0938  0.6196 -0.2865
 3671TIP3    H210978   2.776   4.719   2.537 -0.2664  1.4855  0.0422
 3672TIP3   OH210979   4.767   6.441   3.360  0.0610  0.5036 -0.8971
 3672TIP3    H110980   4.678   6.417   3.335 -1.0427  1.8233  1.3883
 3672TIP3    H210981   4.821   6.367   3.333 -1.9747 -1.0745 -0.8695
 3673TIP3   OH210982   6.555   3.228   4.718 -0.1315  0.3275  0.1397
 3673TIP3    H110983   6.530   3.155   4.775  2.4799  0.6445  1.8327
 3673TIP3    H210984   6.608   3.187   4.649 -1.8144  0.1975 -1.1596
 3674TIP3   OH210985   2.445   0.155   4.505 -0.5053  0.1156  0.7023
 3674TIP3    H110986   2.486   0.155   4.418  2.8428 -0.1697  2.1263
 3674TIP3    H210987   2.410   0.243   4.515 -1.8910 -0.1379 -1.2685
 3675TIP3   OH210988   4.395   1.601   0.967 -0.0940 -0.6805  0.7501
 3675TIP3    H110989   4.348   1.615   0.885  0.9184 -0.5342  0.1805
 3675TIP3    H210990   4.330   1.561   1.025 -1.4898  1.2366  0.6258
 3676TIP3   OH210991   0.931   3.735   5.567  0.3636  0.1222 -0.8332
 3676TIP3    H110992   0.993   3.675   5.608 -0.8412 -0.1911  0.6023
 3676TIP3    H210993   0.978   3.819   5.564  1.1071 -0.2648 -0.4448
 3677TIP3   OH210994   0.913   3.507   2.125  0.2634  0.1136  0.3846
 3677TIP3    H110995   0.851   3.473   2.191  0.0812 -1.6713 -0.6265
 3677TIP3    H210996   0.860   3.562   2.068 -0.4679 -1.3898 -0.4626
 3678TIP3   OH210997   4.925   0.879   2.927  0.0040 -0.7343 -0.3440
 3678TIP3    H110998   4.936   0.974   2.927  1.6460 -0.8424 -2.2625
 3678TIP3    H210999   4.888   0.860   2.840 -1.0258 -1.8080  0.3057
 3679TIP3   OH211000   3.714   4.362   0.226 -0.0602  0.3199 -0.2386
 3679TIP3    H111001   3.698   4.282   0.277 -0.4106 -0.9876 -2.2785
 3679TIP3    H211002   3.671   4.431   0.276 -0.9971 -1.0015  0.8755
 3680TIP3   OH211003   2.578   2.384   3.750  0.1241  0.1574  0.2375
 3680TIP3    H111004   2.527   2.460   3.722 -0.3131 -0.0966  0.3383
 3680TIP3    H211005   2.537   2.358   3.832 -0.9792 -1.3622 -0.7433
 3681TIP3   OH211006   0.497   3.216   4.355  0.1627  0.6592 -0.7169
 3681TIP3    H111007   0.439   3.293   4.352 -1.0240 -0.2195 -0.9103
 3681TIP3    H211008   0.472   3.165   4.278 -0.1392 -0.6663  0.2305
 3682TIP3   OH211009   0.778   0.681   3.775  0.2822  0.1618 -0.3520
 3682TIP3    H111010   0.773   0.604   3.719 -0.2514 -0.3382  0.3605
 3682TIP3    H211011   0.858   0.667   3.826  0.7780  0.6259 -0.9922
 3683TIP3   OH211012   6.814   3.358   1.082  0.7034  0.2253 -0.0682
 3683TIP3    H111013   6.845   3.330   1.168  1.7401  1.5460  0.0085
 3683TIP3    H211014   6.789   3.277   1.038  0.0463 -0.4619  1.5092
 3684TIP3   OH211015   5.774   4.694   1.582  0.3976 -0.7611 -0.1282
 3684TIP3    H111016   5.738   4.700   1.494 -0.2963 -1.1147  0.1281
 3684TIP3    H211017   5.809   4.781   1.600 -1.2296 -0.1183  0.0046
 3685TIP3   OH211018   0.950   4.422   3.634  0.4168 -0.2599 -0.0286
 3685TIP3    H111019   1.043   4.440   3.625  0.4274 -0.1433  0.3396
 3685TIP3    H211020   0.908   4.508   3.631  0.0887 -0.4019 -2.7807
 3686TIP3   OH211021   6.312   3.674   5.489  0.1632  0.3690  0.8593
 3686TIP3    H111022   6.275   3.588   5.472 -1.5044  0.9702  1.2945
 3686TIP3    H211023   6.289   3.726   5.412 -0.7897  1.0221  1.5683
 3687TIP3   OH211024   5.479   0.124   5.051 -0.1508  0.4177  0.2087
 3687TIP3    H111025   5.425   0.061   5.099  0.5762 -0.1529  0.2938
 3687TIP3    H211026   5.542   0.070   5.004 -0.4947  1.0010 -0.9550
 3688TIP3   OH211027   2.165   0.834   4.354 -0.0787  0.1702  0.3960
 3688TIP3    H111028   2.088   0.797   4.395  0.5838 -1.5711  0.1687
 3688TIP3    H211029   2.192   0.905   4.412 -2.2074  1.3052  0.1123
 3689TIP3   OH211030   0.995   5.121   3.694 -0.3407 -0.7705 -0.1778
 3689TIP3    H111031   0.996   5.026   3.708  0.2931 -0.7392  0.0055
 3689TIP3    H211032   0.911   5.137   3.650  0.0959 -1.5844 -1.3550
 3690TIP3   OH211033   4.906   3.232   3.907 -0.0821  0.1190 -0.0365
 3690TIP3    H111034   4.975   3.210   3.970  0.6641 -1.1777 -1.2536
 3690TIP3    H211035   4.841   3.279   3.959  0.5134 -0.8782  1.7163
 3691TIP3   OH211036   3.421   2.654   3.448 -0.2831 -1.0027  0.0473
 3691TIP3    H111037   3.516   2.667   3.451 -0.2743 -1.1156  0.2326
 3691TIP3    H211038   3.403   2.636   3.356 -0.0998 -1.1834  0.0469
 3692TIP3   OH211039   3.041   5.635   4.563  0.0559 -0.6729  0.0562
 3692TIP3    H111040   3.091   5.576   4.619  2.0557  0.8185 -0.0440
 3692TIP3    H211041   3.061   5.607   4.474  0.9159  0.0171  0.0115
 3693TIP3   OH211042   6.287   4.377   2.416 -0.2341 -0.0230  0.0403
 3693TIP3    H111043   6.215   4.439   2.427 -2.2564 -1.7631 -2.1784
 3693TIP3    H211044   6.298   4.369   2.321  1.4557 -1.4130  0.2945
 3694TIP3   OH211045   0.606   3.340   3.718  0.7305  0.3159 -0.3325
 3694TIP3    H111046   0.629   3.433   3.719  0.2407  0.4445 -0.4017
 3694TIP3    H211047   0.678   3.296   3.763  1.8950  0.5092 -1.9080
 3695TIP3   OH211048   3.866   2.921   0.388 -0.3512 -0.5935  0.4379
 3695TIP3    H111049   3.931   2.855   0.415  1.0332  0.1050 -1.0109
 3695TIP3    H211050   3.866   2.916   0.293 -2.1020 -0.2195  0.3996
 3696TIP3   OH211051   6.228   4.458   1.407 -0.8121 -0.1740 -0.3921
 3696TIP3    H111052   6.225   4.366   1.378 -1.6209 -0.4702  0.6010
 3696TIP3    H211053   6.321   4.481   1.401 -0.3631 -1.5210  0.7232
 3697TIP3   OH211054   5.269   3.247   2.475 -0.0926  0.0152 -0.4356
 3697TIP3    H111055   5.267   3.182   2.546 -2.3838  0.7928  0.2986
 3697TIP3    H211056   5.283   3.195   2.396  1.5800 -0.9759  0.4376
 3698TIP3   OH211057   3.852   3.074   2.892  0.4663  0.2434 -0.2626
 3698TIP3    H111058   3.769   3.026   2.894  0.4464  0.2699 -0.4296
 3698TIP3    H211059   3.866   3.094   2.799 -0.2629  1.8112 -0.0791
 3699TIP3   OH211060   0.646   6.547   2.272  0.2074  0.4315  0.3484
 3699TIP3    H111061   0.721   6.489   2.282 -0.4367 -0.4792  0.0962
 3699TIP3    H211062   0.574   6.500   2.315 -1.1898 -0.6631 -2.8418
 3700TIP3   OH211063   4.866   0.194   3.238 -0.5007 -0.6440 -0.5382
 3700TIP3    H111064   4.843   0.142   3.315 -0.0513 -3.5322 -2.2233
 3700TIP3    H211065   4.960   0.210   3.248 -0.7654  0.5583  0.3220
 3701TIP3   OH211066   2.141   6.518   5.190 -0.3908 -0.2731 -0.3047
 3701TIP3    H111067   2.143   6.425   5.165 -0.4097 -0.4014  0.1552
 3701TIP3    H211068   2.078   6.521   5.262 -0.2736  0.0747 -0.2173
 3702TIP3   OH211069   3.503   3.965   0.289  0.6923 -0.2451  0.5092
 3702TIP3    H111070   3.454   4.040   0.325 -3.4372 -1.1943 -2.4967
 3702TIP3    H211071   3.505   3.901   0.360 -2.5827 -0.1052  0.8544
 3703TIP3   OH211072   0.631   3.026   1.291 -0.3298  0.0204  0.4212
 3703TIP3    H111073   0.650   3.071   1.373 -2.1173  0.7922  0.4632
 3703TIP3    H211074   0.539   3.047   1.273  0.2802  0.7158 -2.2992
 3704TIP3   OH211075   6.399   3.496   3.351  0.0728  0.3201 -0.2306
 3704TIP3    H111076   6.398   3.577   3.403 -1.6888  0.4512 -0.3927
 3704TIP3    H211077   6.332   3.441   3.391 -3.0752  1.3027 -3.5680
 3705TIP3   OH211078   5.022   1.194   4.617  0.2226  0.3011 -0.5651
 3705TIP3    H111079   5.080   1.158   4.550  1.1100 -1.0758  0.8983
 3705TIP3    H211080   5.061   1.168   4.700 -2.4031 -0.5852  0.5050
 3706TIP3   OH211081   3.133   3.577   1.457  0.4557 -0.1920 -0.1636
 3706TIP3    H111082   3.175   3.592   1.372 -0.0488 -0.9655 -0.5609
 3706TIP3    H211083   3.178   3.501   1.493  2.3841  1.5747  1.4364
 3707TIP3   OH211084   3.373   4.303   5.300 -0.1111  0.4625 -0.3918
 3707TIP3    H111085   3.464   4.281   5.279 -0.0638  1.3393 -1.2208
 3707TIP3    H211086   3.321   4.234   5.259  0.0944  1.1121 -1.8114
 3708TIP3   OH211087   5.664   6.088   3.766  0.0031 -0.1192  0.1618
 3708TIP3    H111088   5.636   6.171   3.729 -0.2374  0.6543  1.9550
 3708TIP3    H211089   5.745   6.109   3.813  0.1416 -0.9807  0.3302
 3709TIP3   OH211090   0.671   2.937   5.126 -0.1248  0.8717 -0.0408
 3709TIP3    H111091   0.576   2.937   5.140 -0.1824  1.4656 -0.3987
 3709TIP3    H211092   0.705   2.881   5.195 -0.8577 -0.6061 -0.8239
 3710TIP3   OH211093   4.881   5.168   4.156 -0.5073  0.2496 -0.7157
 3710TIP3    H111094   4.802   5.125   4.187  0.6697 -1.7843 -0.3609
 3710TIP3    H211095   4.908   5.117   4.079  0.4307  0.9304 -0.8632
 3711TIP3   OH211096   5.398   0.907   3.370 -0.4963 -0.0589 -0.1785
 3711TIP3    H111097   5.365   0.833   3.420 -0.8854 -0.6495 -1.2844
 3711TIP3    H211098   5.392   0.880   3.279  1.2618  0.5500 -0.5223
 3712TIP3   OH211099   4.308   4.442   2.298  0.0380  0.6545 -0.1084
 3712TIP3    H111100   4.306   4.350   2.324 -0.6060  0.8040  0.4122
 3712TIP3    H211101   4.302   4.440   2.203 -1.8094  0.1752 -0.0263
 3713TIP3   OH211102   6.187   3.772   3.259  0.0026  0.0499  0.8824
 3713TIP3    H111103   6.159   3.864   3.257  0.8564  0.3140  0.2842
 3713TIP3    H211104   6.129   3.728   3.197 -0.0741  0.2856  0.7858
 3714TIP3   OH211105   6.941   6.457   0.881 -0.3468 -0.4572 -0.0308
 3714TIP3    H111106   7.014   6.499   0.837 -0.6562 -2.1296 -2.2779
 3714TIP3    H211107   6.886   6.423   0.810 -2.2530 -1.0196  1.6202
 3715TIP3   OH211108   0.155   5.860   3.836 -0.5786  0.1214 -1.0491
 3715TIP3    H111109   0.066   5.830   3.817 -1.3856  2.4920 -1.2335
 3715TIP3    H211110   0.193   5.878   3.749 -0.6544  1.0896 -0.8867
 3716TIP3   OH211111   3.618   5.561   3.626  0.2444 -0.6393 -0.3780
 3716TIP3    H111112   3.560   5.525   3.559  0.7170 -1.3489 -0.4141
 3716TIP3    H211113   3.653   5.641   3.586 -2.1807  0.9151  0.3801
 3717TIP3   OH211114   6.596   3.846   3.139 -0.2520 -0.6131  0.5035
 3717TIP3    H111115   6.580   3.819   3.048  1.6171 -0.0802 -0.0337
 3717TIP3    H211116   6.643   3.772   3.178 -0.3981 -0.5449  0.8064
 3718TIP3   OH211117   4.028   2.870   5.371  0.1980 -0.6329  0.5695
 3718TIP3    H111118   4.055   2.857   5.462  1.2371  0.1393  0.4024
 3718TIP3    H211119   4.098   2.925   5.334 -0.2187 -0.9288 -0.6878
 3719TIP3   OH211120   4.901   1.552   2.919 -0.0916 -0.1945 -0.1974
 3719TIP3    H111121   4.973   1.534   2.979  0.2079 -0.9043 -0.7482
 3719TIP3    H211122   4.863   1.634   2.950  0.2462 -0.3945  0.7711
 3720TIP3   OH211123   2.588   2.152   5.880  0.4795  0.6120 -0.3922
 3720TIP3    H111124   2.500   2.177   5.853 -0.0549 -1.4207 -0.7474
 3720TIP3    H211125   2.635   2.138   5.798  0.4760 -0.3565 -0.2415
 3721TIP3   OH211126   6.134   1.473   5.911 -0.0282  0.0568  0.1404
 3721TIP3    H111127   6.171   1.540   5.854 -0.6125  0.4509  0.2246
 3721TIP3    H211128   6.174   1.391   5.879 -2.4291 -0.1767 -2.7365
 3722TIP3   OH211129   5.134   5.403   3.556 -0.1527  0.1953 -0.0915
 3722TIP3    H111130   5.099   5.459   3.625 -0.9966  0.1947 -0.4944
 3722TIP3    H211131   5.082   5.426   3.478 -1.9009 -2.4265  0.1469
 3723TIP3   OH211132   5.207   5.940   5.597 -0.2231  0.0837  0.3947
 3723TIP3    H111133   5.172   5.931   5.508 -0.5566  1.2755  0.3914
 3723TIP3    H211134   5.143   5.895   5.652 -0.4097  0.0049  0.1145
 3724TIP3   OH211135   1.147   2.633   2.895 -0.6272  0.0373 -0.1733
 3724TIP3    H111136   1.101   2.648   2.812 -0.4245 -0.0278 -0.2964
 3724TIP3    H211137   1.219   2.695   2.895 -0.1042 -0.5668 -0.4420
 3725TIP3   OH211138   6.175   3.980   2.666 -0.3424  0.1114  0.0183
 3725TIP3    H111139   6.234   3.988   2.590  0.7768 -0.1588  0.8262
 3725TIP3    H211140   6.106   4.044   2.649 -1.1957 -1.2566 -2.1498
 3726TIP3   OH211141   4.487   6.595   3.572  0.0242 -0.2892 -0.0539
 3726TIP3    H111142   4.417   6.596   3.637  0.6262 -2.0046  0.6684
 3726TIP3    H211143   4.567   6.579   3.623  0.6824 -0.3859 -1.0806
 3727TIP3   OH211144   3.629   6.285   0.403 -0.0975  0.1523  0.2489
 3727TIP3    H111145   3.640   6.199   0.363  0.1453 -0.3573  1.3664
 3727TIP3    H211146   3.670   6.277   0.489  0.9277  1.7345 -0.0510
 3728TIP3   OH211147   1.997   5.050   3.563  0.1153 -0.1567 -0.4007
 3728TIP3    H111148   1.942   5.094   3.498  2.2138  1.3837 -1.2630
 3728TIP3    H211149   2.020   4.966   3.522 -1.1486 -0.6100 -0.2242
 3729TIP3   OH211150   6.126   2.650   5.597 -0.2844  0.5281  0.0507
 3729TIP3    H111151   6.138   2.618   5.507  0.2615  0.3194  0.1927
 3729TIP3    H211152   6.031   2.654   5.608 -0.3679  1.2420 -0.7813
 3730TIP3   OH211153   6.014   1.446   1.161  0.8586 -0.0165 -0.8131
 3730TIP3    H111154   5.993   1.409   1.247  1.7486  0.8860 -0.1802
 3730TIP3    H211155   6.001   1.540   1.172  1.2321  0.1338 -1.5878
 3731TIP3   OH211156   5.579   4.979   4.542  0.5024  0.8916  0.3323
 3731TIP3    H111157   5.511   4.911   4.547  0.4245  0.9690  0.3265
 3731TIP3    H211158   5.628   4.956   4.463  0.8383  0.5079  0.6483
 3732TIP3   OH211159   3.294   5.115   1.992  0.3804  0.4581  0.0775
 3732TIP3    H111160   3.296   5.210   2.004 -1.9767  0.7980 -1.4453
 3732TIP3    H211161   3.385   5.088   1.994  1.0390  2.5516  1.8545
 3733TIP3   OH211162   0.050   4.349   4.437  0.3615 -0.4017 -0.6290
 3733TIP3    H111163   0.046   4.444   4.427  0.3025 -0.3979 -0.5678
 3733TIP3    H211164  -0.030   4.326   4.484  0.5845 -0.4301 -0.2506
 3734TIP3   OH211165   7.105   4.479   0.614  0.1510 -0.5561 -0.0274
 3734TIP3    H111166   7.148   4.557   0.649  0.2277 -1.1981  1.3985
 3734TIP3    H211167   7.169   4.409   0.627  0.8898 -0.5776 -3.0939
 3735TIP3   OH211168   2.645   1.985   4.695  0.0051 -0.3767 -0.1803
 3735TIP3    H111169   2.607   2.052   4.752 -0.4483  1.3853 -2.4009
 3735TIP3    H211170   2.731   2.020   4.672 -0.5734 -0.0619 -2.0370
 3736TIP3   OH211171   3.260   6.038   5.579 -0.4137 -0.4222  0.6704
 3736TIP3    H111172   3.241   6.085   5.661 -0.9194  0.1777  0.2215
 3736TIP3    H211173   3.355   6.033   5.576 -0.3549  0.3870  0.8500
 3737TIP3   OH211174   4.984   1.449   5.195 -0.5231 -0.4522 -0.2418
 3737TIP3    H111175   5.079   1.439   5.207 -0.7222 -0.7605  1.3693
 3737TIP3    H211176   4.974   1.480   5.105  1.2064  1.0031  0.0082
 3738TIP3   OH211177   5.638   3.562   3.541 -0.3411 -0.2238  0.3174
 3738TIP3    H111178   5.681   3.647   3.536  0.0822 -0.4676 -0.1943
 3738TIP3    H211179   5.551   3.582   3.576  0.1420  0.2762  1.2730
 3739TIP3   OH211180   1.369   5.294   1.865 -0.2693  0.0349 -0.5532
 3739TIP3    H111181   1.284   5.307   1.908  0.7363  1.0659  1.2855
 3739TIP3    H211182   1.366   5.352   1.789 -0.7259  1.0987  0.2492
 3740TIP3   OH211183   2.698   3.210   4.010  0.2336  0.1029  0.2089
 3740TIP3    H111184   2.638   3.202   3.936 -1.6346 -0.1283  1.6825
 3740TIP3    H211185   2.749   3.289   3.991 -0.7911  0.5157 -0.9229
 3741TIP3   OH211186   2.886   3.591   0.393  0.6823 -0.1931 -0.2609
 3741TIP3    H111187   2.816   3.627   0.447  0.3086 -0.3827 -0.6173
 3741TIP3    H211188   2.901   3.657   0.325  1.6045  0.3480  0.4396
 3742TIP3   OH211189   0.587   3.085   0.406 -0.3505 -0.0616  0.8263
 3742TIP3    H111190   0.548   3.033   0.476 -0.7086  0.0758  0.7282
 3742TIP3    H211191   0.519   3.091   0.339  0.0750 -0.3924  0.3649
 3743TIP3   OH211192   4.657   0.056   3.114 -0.4578  0.2038 -0.3831
 3743TIP3    H111193   4.644   0.113   3.037 -0.3593 -0.2622 -0.7496
 3743TIP3    H211194   4.640   0.113   3.189 -1.3570  0.4639 -0.7685
 3744TIP3   OH211195   2.280   0.520   2.382 -0.0835  0.0506  0.8651
 3744TIP3    H111196   2.282   0.448   2.319  2.6987 -1.0171  2.0246
 3744TIP3    H211197   2.189   0.522   2.412 -0.6928 -1.6499 -0.6528
 3745TIP3   OH211198   1.090   5.958   1.871 -0.3996  0.0054  0.8580
 3745TIP3    H111199   1.155   5.935   1.804 -0.9457  0.8519  0.0043
 3745TIP3    H211200   1.141   5.975   1.950  0.6297  2.1570 -0.1717
 3746TIP3   OH211201   6.499   5.725   4.126  0.0124  0.3786  0.0787
 3746TIP3    H111202   6.578   5.773   4.100 -0.0191  1.5903  1.9694
 3746TIP3    H211203   6.460   5.780   4.195 -2.5213 -0.1613 -0.8091
 3747TIP3   OH211204   3.834   1.505   5.870 -0.2071 -0.5669  0.0279
 3747TIP3    H111205   3.916   1.469   5.838  0.5443  1.9533 -1.1106
 3747TIP3    H211206   3.773   1.495   5.797  0.4742  1.8089 -0.9577
 3748TIP3   OH211207   0.917   1.478   2.551 -0.5949 -0.2765 -0.7902
 3748TIP3    H111208   0.942   1.481   2.643  0.4036  0.2188 -1.0633
 3748TIP3    H211209   0.896   1.386   2.535 -0.7708 -0.3627 -0.0698
 3749TIP3   OH211210   3.088   3.869   0.804 -0.2251  0.2987  0.2336
 3749TIP3    H111211   3.119   3.787   0.765 -0.5041  0.3689 -0.1371
 3749TIP3    H211212   3.030   3.842   0.875  0.5990  0.1661  0.8686
 3750TIP3   OH211213   2.187   2.441   2.666 -0.4516  0.3597 -0.2731
 3750TIP3    H111214   2.274   2.480   2.677 -0.0539 -0.4400 -0.5547
 3750TIP3    H211215   2.183   2.372   2.731  1.3199 -3.3707 -3.7141
 3751TIP3   OH211216   2.936   4.505   4.581 -0.2087 -0.0021  0.3681
 3751TIP3    H111217   3.003   4.465   4.636  0.9224  2.6694  1.0740
 3751TIP3    H211218   2.975   4.587   4.550 -2.9565  1.4678  0.4606
 3752TIP3   OH211219   2.167   0.295   4.971  0.5307  0.3316  0.3399
 3752TIP3    H111220   2.149   0.212   4.926  1.6204  0.5543 -0.5535
 3752TIP3    H211221   2.099   0.300   5.039  0.6127 -1.4231  0.6126
 3753TIP3   OH211222   5.129   1.284   2.260 -0.6697 -0.1706  0.0131
 3753TIP3    H111223   5.077   1.275   2.180  0.2949  1.5806 -0.8889
 3753TIP3    H211224   5.215   1.247   2.237 -0.3542  0.4414  0.1856
 3754TIP3   OH211225   3.559   0.630   2.853  0.4333 -0.0654 -0.4125
 3754TIP3    H111226   3.620   0.698   2.881  1.6880 -0.8526 -1.1671
 3754TIP3    H211227   3.513   0.604   2.933  1.9039 -0.2582  0.4037
 3755TIP3   OH211228   5.218   1.297   0.706  0.2037 -0.4353 -0.9153
 3755TIP3    H111229   5.259   1.377   0.674  0.1738 -0.2511 -0.5030
 3755TIP3    H211230   5.273   1.270   0.779 -0.4611 -0.1197 -0.2763
 3756TIP3   OH211231   2.845   2.335   1.164 -0.1916 -0.3035  0.3304
 3756TIP3    H111232   2.807   2.258   1.124 -1.5489 -0.0215  1.0289
 3756TIP3    H211233   2.794   2.408   1.128  0.2151  0.1533  0.6729
 3757TIP3   OH211234   2.727   2.553   0.715 -0.0174 -0.0643 -0.2409
 3757TIP3    H111235   2.667   2.521   0.782  0.5590  1.1277  0.8922
 3757TIP3    H211236   2.772   2.475   0.683 -0.1241 -0.6384  0.9467
 3758TIP3   OH211237   1.804   0.986   5.394  0.5496 -0.1753  0.2433
 3758TIP3    H111238   1.881   0.930   5.381  0.8976  0.6955 -1.6549
 3758TIP3    H211239   1.840   1.073   5.410 -0.0316 -0.1100  1.3149
 3759TIP3   OH211240   4.763   6.156   5.734  0.0947 -0.4423  0.2840
 3759TIP3    H111241   4.818   6.235   5.733 -0.4724 -0.0294 -1.8963
 3759TIP3    H211242   4.673   6.189   5.732 -0.2867 -1.1503  2.4676
 3760TIP3   OH211243   3.422   4.227   0.342  0.6239 -0.1933 -0.9042
 3760TIP3    H111244   3.339   4.191   0.310  0.6618 -0.7030 -0.4321
 3760TIP3    H211245   3.422   4.318   0.310  0.0130 -0.2713 -1.1420
 3761TIP3   OH211246   4.317   3.790   4.509 -0.0894 -0.3642 -0.3899
 3761TIP3    H111247   4.274   3.741   4.579 -0.7632 -2.8259 -2.3774
 3761TIP3    H211248   4.261   3.867   4.496  0.2237  0.3385  1.8864
 3762TIP3   OH211249   1.364   0.407   5.074  0.1858 -0.1031 -0.4097
 3762TIP3    H111250   1.292   0.349   5.100 -0.8625  0.2481 -2.3721
 3762TIP3    H211251   1.334   0.448   4.993  2.8723 -0.4224 -1.6491
 3763TIP3   OH211252   3.799   1.829   1.586  0.3738 -0.0639  0.0293
 3763TIP3    H111253   3.877   1.799   1.634  1.1277  1.1336 -0.3896
 3763TIP3    H211254   3.755   1.888   1.646  0.0268 -0.4019  0.1064
 3764TIP3   OH211255   3.253   2.881   5.722 -0.6529  0.2584  0.0693
 3764TIP3    H111256   3.326   2.894   5.782  0.1184  2.0490 -1.1693
 3764TIP3    H211257   3.178   2.866   5.779  0.2683  0.6557  1.4476
 3765TIP3   OH211258   1.561   5.383   3.896  0.4457  0.2494  0.0485
 3765TIP3    H111259   1.634   5.365   3.836  1.1881 -2.2423  1.5213
 3765TIP3    H211260   1.502   5.309   3.885 -0.3388  0.7096  1.0172
 3766TIP3   OH211261   4.045   3.099   2.559 -0.2340  0.4267  0.1656
 3766TIP3    H111262   4.100   3.034   2.514 -0.6087  1.9394 -2.6822
 3766TIP3    H211263   3.958   3.060   2.558 -0.1155  0.1558  0.1605
 3767TIP3   OH211264   6.039   4.621   3.732  0.5911 -0.0510 -0.0298
 3767TIP3    H111265   6.041   4.675   3.653  0.0055 -0.5043 -0.3598
 3767TIP3    H211266   6.114   4.651   3.783  0.2163  1.1558 -0.1481
 3768TIP3   OH211267   6.615   0.110   4.125  0.6199  0.3705 -0.1120
 3768TIP3    H111268   6.699   0.136   4.162  0.6531 -0.0527  0.1141
 3768TIP3    H211269   6.637   0.064   4.044  0.5113  2.0773 -1.1542
 3769TIP3   OH211270   6.313   4.097   5.128 -0.6730  0.1749  0.3624
 3769TIP3    H111271   6.254   4.099   5.052 -2.1258 -1.6905  1.3324
 3769TIP3    H211272   6.399   4.076   5.091 -1.5702 -1.9479 -0.7405
 3770TIP3   OH211273   2.267   3.053   5.047  0.1214 -0.5371 -0.1936
 3770TIP3    H111274   2.218   3.130   5.017  0.7798  0.7262  1.7812
 3770TIP3    H211275   2.285   3.003   4.967 -2.6986 -0.0908 -1.2176
 3771TIP3   OH211276   5.348   4.061   0.395  0.2088 -0.1976 -0.6384
 3771TIP3    H111277   5.420   4.112   0.432  1.4158 -1.4847 -1.1299
 3771TIP3    H211278   5.326   4.107   0.313  0.2209  0.4075 -0.3086
 3772TIP3   OH211279   5.266   4.451   3.583  0.1529  0.3510 -0.3222
 3772TIP3    H111280   5.302   4.454   3.672  0.4302  0.3521 -0.4344
 3772TIP3    H211281   5.302   4.371   3.545 -0.7932 -0.1946 -0.0811
 3773TIP3   OH211282   5.699   3.794   1.300  0.1788 -0.1957  0.0218
 3773TIP3    H111283   5.760   3.821   1.369 -0.1078 -1.1230  0.6679
 3773TIP3    H211284   5.713   3.857   1.229 -0.8724  1.9810  1.6291
 3774TIP3   OH211285   5.717   2.200   2.757  0.9333 -1.0988  0.3066
 3774TIP3    H111286   5.680   2.263   2.695  2.7854  0.4907  0.6950
 3774TIP3    H211287   5.797   2.169   2.714  2.5784  0.4875  2.0262
 3775TIP3   OH211288   4.339   5.464   4.468  0.0256 -0.3760 -0.4511
 3775TIP3    H111289   4.367   5.503   4.385 -0.0122 -0.1897 -0.3755
 3775TIP3    H211290   4.417   5.469   4.524  0.1211 -0.7144 -0.5518
 3776TIP3   OH211291   4.934   0.583   1.645  0.0613 -0.1025  0.3292
 3776TIP3    H111292   4.976   0.578   1.559  0.3635  0.0942  0.4646
 3776TIP3    H211293   4.984   0.649   1.692  1.2866 -1.7620  1.4376
 3777TIP3   OH211294   2.517   0.704   4.783 -0.2083  1.1839  0.2161
 3777TIP3    H111295   2.478   0.674   4.701 -1.5884 -1.1177  1.6158
 3777TIP3    H211296   2.611   0.693   4.770 -0.3584  1.4059 -1.2364
 3778TIP3   OH211297   1.589   6.686   1.559  0.1692 -0.4951 -0.1227
 3778TIP3    H111298   1.614   6.776   1.536 -0.0635 -0.4494 -0.1925
 3778TIP3    H211299   1.624   6.633   1.488 -1.6826 -0.2211 -1.2791
 3779TIP3   OH211300   2.067   3.911   0.944  0.3662  0.2181 -0.9055
 3779TIP3    H111301   2.122   3.918   1.023  0.4905 -1.1703 -0.8377
 3779TIP3    H211302   2.099   3.980   0.886 -0.1332  1.6776  0.4781
 3780TIP3   OH211303   0.667   3.525   1.160  0.3905  0.3006  0.1762
 3780TIP3    H111304   0.732   3.550   1.226 -0.0279  1.9459  0.0078
 3780TIP3    H211305   0.687   3.582   1.085  0.3166 -0.9401 -0.8073
 3781TIP3   OH211306   0.676   0.997   1.439  0.4993  0.3469 -0.1895
 3781TIP3    H111307   0.750   0.937   1.441 -1.3145 -2.0749 -0.9575
 3781TIP3    H211308   0.638   0.991   1.527  0.2116  0.2188 -0.3211
 3782TIP3   OH211309   4.179   0.248   4.792 -0.4260  0.1597 -0.3198
 3782TIP3    H111310   4.154   0.194   4.716  0.0653  0.2071 -0.5174
 3782TIP3    H211311   4.135   0.206   4.866 -3.2047  1.7013 -0.9745
 3783TIP3   OH211312   4.544   6.251   2.322 -0.2315 -1.0000 -0.3405
 3783TIP3    H111313   4.540   6.194   2.399 -0.5437 -1.1123 -0.4375
 3783TIP3    H211314   4.630   6.291   2.326  0.5744 -2.5866 -1.0567
 3784TIP3   OH211315   2.910   0.726   4.531  0.2544  0.2296 -0.1054
 3784TIP3    H111316   2.914   0.645   4.582 -0.6536  0.0195 -0.3415
 3784TIP3    H211317   2.968   0.787   4.577  1.0081 -0.5715  0.0312
 3785TIP3   OH211318   2.341   1.312   4.148  0.3791 -0.1953  0.2571
 3785TIP3    H111319   2.337   1.346   4.237  0.5355 -0.9113  0.5423
 3785TIP3    H211320   2.265   1.351   4.104  0.4384  0.3536  0.6262
 3786TIP3   OH211321   3.620   2.991   4.169 -0.5883  0.3766 -0.0700
 3786TIP3    H111322   3.609   3.074   4.122  1.1982  0.2566 -0.7886
 3786TIP3    H211323   3.597   3.011   4.259  2.1141  2.3728  0.3180
 3787TIP3   OH211324   0.110   1.215   4.910 -0.6733 -0.2446 -0.0950
 3787TIP3    H111325   0.027   1.259   4.925  1.1896  3.0637  1.9711
 3787TIP3    H211326   0.090   1.143   4.851 -4.8053  0.8447 -0.2912
 3788TIP3   OH211327   4.713   5.401   5.179 -0.3787 -0.8095 -0.1636
 3788TIP3    H111328   4.708   5.496   5.192  0.9556 -0.3793 -2.2528
 3788TIP3    H211329   4.805   5.379   5.195 -0.2176 -1.3617 -1.6395
 3789TIP3   OH211330   1.370   5.988   1.470  0.4139 -0.2237 -0.0775
 3789TIP3    H111331   1.341   6.012   1.382 -0.0437 -1.0450 -0.1658
 3789TIP3    H211332   1.363   6.068   1.521 -1.0730 -0.1499 -0.3498
 3790TIP3   OH211333   6.077   6.113   1.048  0.1240 -0.6478 -0.0836
 3790TIP3    H111334   6.085   6.155   0.963  2.0500 -0.0104  0.3457
 3790TIP3    H211335   6.065   6.020   1.029 -4.2539 -0.1055 -1.0664
 3791TIP3   OH211336   2.799   5.807   1.135 -0.3412  0.2008  0.1032
 3791TIP3    H111337   2.791   5.872   1.204 -0.4746 -0.1100  0.3838
 3791TIP3    H211338   2.709   5.781   1.116 -0.5053  1.7714 -1.6379
 3792TIP3   OH211339   6.374   6.173   4.980  0.4652  0.3002  0.3546
 3792TIP3    H111340   6.383   6.267   4.972  0.7445  0.3152  0.8186
 3792TIP3    H211341   6.343   6.144   4.894  0.8288  0.7564  0.0665
 3793TIP3   OH211342   0.507   2.368   0.751 -0.4974  0.6462 -0.8605
 3793TIP3    H111343   0.495   2.457   0.785  2.7627 -0.1419  3.1134
 3793TIP3    H211344   0.437   2.318   0.793  0.4485  0.6014  0.7313
 3794TIP3   OH211345   0.853   5.575   2.142  0.3511  0.0611 -0.0286
 3794TIP3    H111346   0.947   5.565   2.131  0.6761  0.3409  2.0857
 3794TIP3    H211347   0.823   5.488   2.168 -0.0426 -0.0963 -0.9637
 3795TIP3   OH211348   5.729   5.873   5.549  0.1564  0.3181  0.4371
 3795TIP3    H111349   5.640   5.888   5.519  1.1120  1.2307 -2.3126
 3795TIP3    H211350   5.744   5.780   5.535  0.6410  0.7259 -2.5972
 3796TIP3   OH211351   0.928   0.062   4.000 -0.6682 -0.1522 -0.1730
 3796TIP3    H111352   1.016   0.097   4.016 -0.0798 -1.7527  0.3269
 3796TIP3    H211353   0.922   0.057   3.904 -0.4706  0.5632 -0.2304
 3797TIP3   OH211354   6.741   0.284   2.662 -0.0999  0.4573  0.0202
 3797TIP3    H111355   6.776   0.320   2.581 -0.3403  0.9084  0.1154
 3797TIP3    H211356   6.654   0.323   2.670 -0.5550 -0.4916 -0.1125
 3798TIP3   OH211357   6.561   3.554   0.086  0.1536  0.6210 -0.0656
 3798TIP3    H111358   6.637   3.506   0.121  0.6519  1.3865 -0.0657
 3798TIP3    H211359   6.530   3.499   0.014 -0.5560 -0.7100  1.2095
 3799TIP3   OH211360   0.684   0.367   2.262  0.1300 -0.6096 -0.0974
 3799TIP3    H111361   0.658   0.414   2.183 -0.2995 -0.2101  0.2840
 3799TIP3    H211362   0.750   0.422   2.303  0.0162 -0.5967  0.0686
 3800TIP3   OH211363   7.109   5.842   4.184  0.0233  0.3986  0.0427
 3800TIP3    H111364   7.056   5.906   4.136 -0.0314  1.2299  1.1777
 3800TIP3    H211365   7.199   5.872   4.172  0.0919  0.0587 -0.3198
 3801TIP3   OH211366   3.867   2.690   3.686  0.0843  0.1428  0.5296
 3801TIP3    H111367   3.881   2.636   3.763  1.2679 -1.4310 -0.7176
 3801TIP3    H211368   3.918   2.769   3.702 -0.9110  0.5247  1.9740
 3802TIP3   OH211369   3.793   0.636   0.538  0.0692 -0.0577  0.5696
 3802TIP3    H111370   3.810   0.730   0.543  0.0473 -0.0529  0.5499
 3802TIP3    H211371   3.868   0.597   0.583 -1.1078  0.0732  2.8089
 3803TIP3   OH211372   6.551   5.672   1.070 -0.3216  0.0336 -0.1038
 3803TIP3    H111373   6.557   5.767   1.085  0.1596 -0.1389  0.8445
 3803TIP3    H211374   6.630   5.651   1.019  0.3641 -0.0822  0.9688
 3804TIP3   OH211375   5.220   4.830   2.264  0.0747  0.5813 -0.2815
 3804TIP3    H111376   5.239   4.853   2.355  0.0221  1.1966 -0.4194
 3804TIP3    H211377   5.286   4.764   2.242 -0.1100  0.1960  0.2956
 3805TIP3   OH211378   7.202   3.791   5.246  0.3221  0.1254 -0.1400
 3805TIP3    H111379   7.129   3.852   5.233 -0.0196 -0.4007 -0.7810
 3805TIP3    H211380   7.251   3.827   5.319  1.6652  2.6518 -2.1147
 3806TIP3   OH211381   1.342   6.644   0.843  0.2545 -1.0698  0.6920
 3806TIP3    H111382   1.253   6.680   0.850  1.1353  1.1198  1.4999
 3806TIP3    H211383   1.358   6.605   0.929 -0.1582 -2.1285  0.3053
 3807TIP3   OH211384   1.292   4.699   1.897  0.2080 -0.1182  0.0344
 3807TIP3    H111385   1.329   4.645   1.966  0.1610 -1.5122 -0.9848
 3807TIP3    H211386   1.197   4.686   1.904  0.2347 -0.8776 -0.7219
 3808TIP3   OH211387   0.119   2.035   0.177 -0.0502  0.1357 -0.1334
 3808TIP3    H111388   0.086   2.035   0.266  0.1690 -0.7728 -0.0448
 3808TIP3    H211389   0.204   1.991   0.182  1.1777  2.3182 -0.3732
 3809TIP3   OH211390   5.922   3.385   1.235 -0.4653 -0.4987 -0.1991
 3809TIP3    H111391   5.830   3.404   1.253 -0.7961 -1.2008 -1.1016
 3809TIP3    H211392   5.948   3.451   1.171 -0.4199 -0.4773 -0.1590
 3810TIP3   OH211393   2.275   0.092   1.780  0.0565  0.4091  0.0685
 3810TIP3    H111394   2.361   0.052   1.767  0.2802  1.1386 -0.8340
 3810TIP3    H211395   2.266   0.153   1.707 -0.6480  1.3613  0.9250
 3811TIP3   OH211396   1.657   6.204   2.550 -0.2286  0.3354  0.1107
 3811TIP3    H111397   1.601   6.141   2.506 -1.7702  1.3342  0.5915
 3811TIP3    H211398   1.697   6.154   2.621 -0.5481 -0.3750 -0.2001
 3812TIP3   OH211399   0.703   4.419   5.455  0.2303  0.2862 -0.1079
 3812TIP3    H111400   0.671   4.502   5.419 -1.2889 -0.7332 -1.2719
 3812TIP3    H211401   0.797   4.431   5.465  0.0722  2.0463 -0.5189
 3813TIP3   OH211402   1.153   3.389   3.581  0.1182 -0.4170  0.5146
 3813TIP3    H111403   1.128   3.303   3.614  0.2341  0.3774  2.8430
 3813TIP3    H211404   1.222   3.419   3.640  1.3574  0.5439 -1.3383
 3814TIP3   OH211405   3.760   5.508   0.867  0.2398 -0.5591 -0.1795
 3814TIP3    H111406   3.804   5.572   0.923 -0.9715  1.9874 -1.9528
 3814TIP3    H211407   3.747   5.432   0.924  0.4003  1.2938  2.5343
 3815TIP3   OH211408   3.616   0.569   3.694 -0.0399 -0.7189 -0.1808
 3815TIP3    H111409   3.620   0.595   3.602  1.1275 -1.7521 -0.4523
 3815TIP3    H211410   3.631   0.475   3.692  0.4656 -0.6793  1.1038
 3816TIP3   OH211411   1.707   1.096   5.720 -0.7683  0.6516 -0.3165
 3816TIP3    H111412   1.790   1.111   5.675 -0.7555  1.2072 -0.1140
 3816TIP3    H211413   1.697   1.171   5.778 -1.0006  0.1626  0.2889
 3817TIP3   OH211414   2.522   3.149   1.092 -0.0757 -0.1699 -0.1704
 3817TIP3    H111415   2.602   3.097   1.086  0.1709  0.2367 -0.4575
 3817TIP3    H211416   2.486   3.129   1.179  1.4333  1.2041  0.8282
 3818TIP3   OH211417   0.784   4.903   0.336  0.5941 -0.2560  0.1500
 3818TIP3    H111418   0.708   4.913   0.279  0.2950  0.1091  0.6149
 3818TIP3    H211419   0.783   4.810   0.361 -0.5735  0.0520  1.3636
 3819TIP3   OH211420   7.017   0.365   0.399  0.2045 -0.0811  0.2570
 3819TIP3    H111421   7.021   0.387   0.492 -0.3814 -0.3433  0.3524
 3819TIP3    H211422   6.923   0.364   0.379  0.3532  2.7901 -1.0390
 3820TIP3   OH211423   4.703   5.775   0.574  0.1968 -0.1258 -0.6353
 3820TIP3    H111424   4.663   5.723   0.504 -0.6872  1.1279 -1.0909
 3820TIP3    H211425   4.638   5.842   0.594  1.7059  1.4480 -0.8029
 3821TIP3   OH211426   5.890   2.361   4.508 -0.4413 -0.0793 -0.3657
 3821TIP3    H111427   5.871   2.330   4.596  0.5070 -2.6614 -0.9954
 3821TIP3    H211428   5.935   2.445   4.521 -1.4816  0.2370  1.5017
 3822TIP3   OH211429   5.973   1.553   5.448  0.2693 -0.2412  0.1286
 3822TIP3    H111430   5.975   1.459   5.463 -1.6786 -0.2603  0.5636
 3822TIP3    H211431   5.987   1.563   5.354  1.5599 -0.8692  0.2362
 3823TIP3   OH211432   3.327   0.764   0.061  0.2201  0.2165  0.2328
 3823TIP3    H111433   3.269   0.708   0.113  1.2827 -0.8657  0.2995
 3823TIP3    H211434   3.390   0.703   0.022  0.9033  1.2840 -0.3786
 3824TIP3   OH211435   4.547   2.672   5.569 -0.3654  0.2361  0.8373
 3824TIP3    H111436   4.458   2.659   5.536 -0.2507  0.8873  0.2528
 3824TIP3    H211437   4.537   2.668   5.665 -1.0273  0.3569  0.7799
 3825TIP3   OH211438   1.303   2.547   2.123  0.3779 -0.2279 -0.0888
 3825TIP3    H111439   1.243   2.481   2.088 -0.9578  0.5495  0.6415
 3825TIP3    H211440   1.257   2.630   2.109  0.8432  0.2986  1.3875
 3826TIP3   OH211441   5.566   4.759   0.950 -0.0410  0.1897  0.0898
 3826TIP3    H111442   5.545   4.682   1.004 -0.2926 -0.2797 -0.6609
 3826TIP3    H211443   5.599   4.722   0.869 -0.5016  0.8763 -0.4150
 3827TIP3   OH211444   3.798   0.838   4.238 -0.0664  0.2902  0.1125
 3827TIP3    H111445   3.735   0.895   4.281 -1.0964 -0.5824 -0.1922
 3827TIP3    H211446   3.751   0.803   4.163  0.6683 -0.6420  0.0694
 3828TIP3   OH211447   3.024   4.356   5.588  0.3555 -0.2895  0.0100
 3828TIP3    H111448   2.986   4.268   5.588 -0.3547  0.0058  0.6953
 3828TIP3    H211449   2.974   4.404   5.654  0.0492  0.9249 -1.0576
 3829TIP3   OH211450   4.216   0.625   4.276  0.3833 -0.4780 -0.1428
 3829TIP3    H111451   4.130   0.585   4.276  0.4584 -0.6619  1.0351
 3829TIP3    H211452   4.199   0.719   4.277  0.2112 -0.4568 -1.9401
 3830TIP3   OH211453   0.513   0.931   0.649 -0.4395 -0.5401 -0.0943
 3830TIP3    H111454   0.508   0.885   0.566 -0.1653  0.2743 -0.5674
 3830TIP3    H211455   0.501   0.862   0.715 -1.1020 -1.1211 -0.8055
 3831TIP3   OH211456   2.631   0.344   2.420 -0.9181  0.0780 -0.3181
 3831TIP3    H111457   2.590   0.277   2.476  1.5718 -1.0834  0.2371
 3831TIP3    H211458   2.587   0.425   2.445 -2.4674 -0.9800  0.6247
 3832TIP3   OH211459   6.558   2.018   4.332  0.2423 -0.3843 -0.1780
 3832TIP3    H111460   6.573   1.940   4.385  0.7439 -0.4294 -0.3833
 3832TIP3    H211461   6.640   2.067   4.337 -0.0186  0.0612 -0.1676
 3833TIP3   OH211462   2.066   1.861   3.537  0.1847 -0.0056 -0.1692
 3833TIP3    H111463   2.121   1.868   3.459  1.2421  1.0990  0.6295
 3833TIP3    H211464   1.980   1.837   3.504  0.0854  2.4200 -1.9200
 3834TIP3   OH211465   3.737   4.688   0.761  0.0431 -0.2276 -0.3159
 3834TIP3    H111466   3.716   4.756   0.825  3.7414 -0.2461  1.1470
 3834TIP3    H211467   3.714   4.606   0.805  0.4976 -0.1418  0.0871
 3835TIP3   OH211468   4.457   5.795   2.271 -0.4200 -0.1337 -0.1369
 3835TIP3    H111469   4.406   5.731   2.221  0.1751 -1.8130  1.2746
 3835TIP3    H211470   4.406   5.809   2.350  0.5548 -0.6886  0.6141
 3836TIP3   OH211471   4.246   2.990   4.430  0.2275 -0.4596  0.6480
 3836TIP3    H111472   4.192   2.922   4.389 -1.6567  1.0135  0.5667
 3836TIP3    H211473   4.316   3.007   4.368  1.1937 -2.7973  0.9857
 3837TIP3   OH211474   2.447   6.685   1.234  0.7854 -0.0207  0.2850
 3837TIP3    H111475   2.412   6.631   1.163  0.4333  1.2404 -0.5372
 3837TIP3    H211476   2.437   6.631   1.312 -0.5498 -0.7304 -0.3416
 3838TIP3   OH211477   0.454   0.858   0.352  0.6734  0.0011  0.1861
 3838TIP3    H111478   0.418   0.942   0.323 -0.7370 -0.3373  0.8346
 3838TIP3    H211479   0.377   0.807   0.379  1.4766 -1.5588 -0.3261
 3839TIP3   OH211480   5.066   6.127   4.695  0.2357 -0.0416 -0.7194
 3839TIP3    H111481   5.155   6.103   4.723  0.1826  0.4752 -0.0954
 3839TIP3    H211482   5.015   6.128   4.776 -0.6497 -1.5892 -1.2051
 3840TIP3   OH211483   2.474   0.848   4.170  0.0164  0.6731  0.0306
 3840TIP3    H111484   2.560   0.815   4.196 -0.3528 -0.7541 -0.4446
 3840TIP3    H211485   2.493   0.911   4.100  0.8649  2.9973  2.2114
 3841TIP3   OH211486   4.922   3.834   2.391 -0.5479  0.3585 -0.2315
 3841TIP3    H111487   4.926   3.791   2.306  3.6771 -0.5362  0.1915
 3841TIP3    H211488   4.902   3.763   2.453  0.6619  0.1073 -0.1069
 3842TIP3   OH211489   6.160   1.019   0.245 -0.1228 -0.0170  0.0931
 3842TIP3    H111490   6.159   1.039   0.338  1.1014  1.6044 -0.2083
 3842TIP3    H211491   6.114   1.093   0.204  1.7387  0.7280 -0.7870
 3843TIP3   OH211492   6.872   1.820   1.846 -0.2561  0.4562  0.5530
 3843TIP3    H111493   6.958   1.849   1.875 -0.7600  2.8034 -0.0805
 3843TIP3    H211494   6.846   1.754   1.910  2.7261 -1.7626 -0.2851
 3844TIP3   OH211495   2.711   5.025   2.047 -0.4992  0.4116 -0.0264
 3844TIP3    H111496   2.788   5.064   2.089  0.7880 -0.7061 -1.2194
 3844TIP3    H211497   2.644   5.023   2.115  0.8137  0.6170  1.3235
 3845TIP3   OH211498   4.014   5.101   2.307  0.3388 -1.2326  0.2183
 3845TIP3    H111499   3.924   5.069   2.321  0.0658 -0.9333 -0.7885
 3845TIP3    H211500   4.036   5.072   2.219  1.0862 -0.9569  0.3114
 3846TIP3   OH211501   3.091   1.180   4.887  0.2174 -0.3372 -0.2217
 3846TIP3    H111502   3.055   1.133   4.962  1.4867 -0.2814  0.4404
 3846TIP3    H211503   3.167   1.128   4.860  0.1583 -0.0066 -1.0731
 3847TIP3   OH211504   6.945   6.470   4.640  0.3011 -0.4049  0.1443
 3847TIP3    H111505   7.034   6.497   4.661  0.2605  0.7841 -0.9992
 3847TIP3    H211506   6.938   6.484   4.545 -1.1314 -0.3204  0.2345
 3848TIP3   OH211507   5.305   4.513   2.117 -0.1181  0.3781  0.0894
 3848TIP3    H111508   5.378   4.574   2.131  0.5947 -0.3173 -0.4606
 3848TIP3    H211509   5.287   4.476   2.203  0.6335  0.0697  0.1233
 3849TIP3   OH211510   6.417   1.479   0.703 -0.1431 -0.3406  0.3934
 3849TIP3    H111511   6.415   1.550   0.766  1.0760 -0.7894  0.9704
 3849TIP3    H211512   6.329   1.442   0.705 -0.1377 -0.3159  1.7989
 3850TIP3   OH211513   2.458   2.924   2.623  0.2908  0.3379 -0.2984
 3850TIP3    H111514   2.476   3.016   2.602  0.2636  0.1209 -1.3277
 3850TIP3    H211515   2.410   2.891   2.547  0.5565 -0.6047 -0.0701
 3851TIP3   OH211516   2.799   2.838   5.855  0.2724 -0.2058  0.3223
 3851TIP3    H111517   2.704   2.830   5.847  0.1006  0.2561  1.6047
 3851TIP3    H211518   2.821   2.917   5.807  0.4403 -1.8411 -2.5075
 3852TIP3   OH211519   5.200   0.791   2.148 -0.1202 -0.0460  0.3980
 3852TIP3    H111520   5.115   0.751   2.129  0.2390 -0.6125 -0.0592
 3852TIP3    H211521   5.182   0.856   2.215 -1.2662  1.2943 -1.1330
 3853TIP3   OH211522   5.084   4.735   1.676 -0.0308  0.0107  0.5595
 3853TIP3    H111523   5.144   4.795   1.720 -0.5373  0.9276  0.0396
 3853TIP3    H211524   5.129   4.651   1.677  1.1305  0.6118  0.4504
 3854TIP3   OH211525   5.965   1.097   1.134  0.0396  0.0282  0.3293
 3854TIP3    H111526   6.051   1.139   1.142  0.0010  0.1167  0.2700
 3854TIP3    H211527   5.930   1.097   1.224  0.0054  0.1916  0.3155
 3855TIP3   OH211528   1.521   6.429   5.096  0.3377  0.6082  0.1765
 3855TIP3    H111529   1.550   6.375   5.169 -0.5896 -0.2965 -0.1146
 3855TIP3    H211530   1.574   6.399   5.022  1.3908  1.6326  0.4798
 3856TIP3   OH211531   3.211   0.351   5.364  0.0339 -0.7597 -0.0050
 3856TIP3    H111532   3.166   0.269   5.348 -0.0862 -0.5556 -0.7398
 3856TIP3    H211533   3.148   0.405   5.411  0.0689 -1.0394  0.3630
 3857TIP3   OH211534   6.489   4.130   0.718  0.3874  0.1806 -0.4011
 3857TIP3    H111535   6.413   4.181   0.747 -0.0061 -1.4997  1.8452
 3857TIP3    H211536   6.557   4.195   0.704 -1.0409  1.6080 -1.0860
 3858TIP3   OH211537   2.523   1.110   5.541  0.3634 -0.1910  0.0400
 3858TIP3    H111538   2.478   1.085   5.460 -2.3051  0.1370  1.3005
 3858TIP3    H211539   2.532   1.028   5.590  2.2510 -0.4395 -0.6642
 3859TIP3   OH211540   2.568   3.335   3.015  0.0979 -0.2579  0.1244
 3859TIP3    H111541   2.549   3.246   3.044 -0.3652  0.3766  1.9235
 3859TIP3    H211542   2.637   3.325   2.950 -0.0427 -1.9323  0.1922
 3860TIP3   OH211543   7.088   0.588   1.553 -0.4911 -0.3364 -0.4381
 3860TIP3    H111544   7.002   0.628   1.546 -0.2285  0.2389 -0.4817
 3860TIP3    H211545   7.109   0.589   1.646 -0.1319  0.4178 -0.5153
 3861TIP3   OH211546   2.013   2.977   4.500  0.1117  0.4083  0.0146
 3861TIP3    H111547   2.017   2.882   4.495  0.1631  0.4688 -1.3347
 3861TIP3    H211548   2.105   3.005   4.500  0.0929  0.4709  0.1660
 3862TIP3   OH211549   1.416   6.682   0.318 -0.0448 -0.5064  0.2180
 3862TIP3    H111550   1.367   6.637   0.386 -1.0777  1.3330  0.7579
 3862TIP3    H211551   1.474   6.615   0.282 -2.2106 -2.5401  0.2312
 3863TIP3   OH211552   2.932   5.650   3.614  0.9974  0.7164 -0.2812
 3863TIP3    H111553   2.878   5.648   3.693  0.5525 -1.1951 -0.5910
 3863TIP3    H211554   3.003   5.588   3.631  1.6362  1.2489 -0.9064
 3864TIP3   OH211555   1.575   2.396   4.674  0.0867  0.0992 -0.0382
 3864TIP3    H111556   1.646   2.375   4.735  0.8805 -0.7501 -1.2107
 3864TIP3    H211557   1.508   2.438   4.728  1.7541  1.5777  1.0041
 3865TIP3   OH211558   4.117   1.642   2.692  0.0358  0.1139 -0.6705
 3865TIP3    H111559   4.163   1.670   2.613  1.8365  0.9744  0.6235
 3865TIP3    H211560   4.183   1.594   2.743 -0.1689  2.0983  1.6433
 3866TIP3   OH211561   2.929   3.586   2.462 -0.3087  0.4640 -0.5279
 3866TIP3    H111562   2.870   3.511   2.457 -2.6495  2.2415 -1.6803
 3866TIP3    H211563   2.954   3.603   2.371  0.1408  1.1099 -0.2885
 3867TIP3   OH211564   3.892   0.293   4.454  0.2121 -0.4660 -0.4274
 3867TIP3    H111565   3.843   0.219   4.489 -2.2965  0.9879 -0.5925
 3867TIP3    H211566   3.984   0.264   4.455 -0.5956 -3.3335 -0.0546
 3868TIP3   OH211567   3.967   5.318   3.618  0.0641 -0.0242  0.3493
 3868TIP3    H111568   3.955   5.363   3.535 -0.0250  1.2627  1.0234
 3868TIP3    H211569   4.027   5.375   3.667 -1.4508  0.2936  1.9221
 3869TIP3   OH211570   4.608   6.547   4.400  0.0281  0.7410 -0.4622
 3869TIP3    H111571   4.528   6.588   4.431  0.6566  0.9108  1.0149
 3869TIP3    H211572   4.602   6.552   4.305 -0.7936  2.5501 -0.3569
 3870TIP3   OH211573   4.619   6.713   5.383 -0.0720  0.3012  0.3676
 3870TIP3    H111574   4.579   6.658   5.452 -1.1675  0.6320  0.0269
 3870TIP3    H211575   4.632   6.653   5.310  1.1867 -0.0744  0.8744
 3871TIP3   OH211576   4.226   1.479   3.871  0.1980 -0.4131  0.1044
 3871TIP3    H111577   4.283   1.540   3.824 -1.5060 -0.1990 -1.8678
 3871TIP3    H211578   4.285   1.416   3.912  1.9407  1.5846  0.8214
 3872TIP3   OH211579   7.072   3.296   3.685  0.3326  0.0372  0.4826
 3872TIP3    H111580   7.021   3.224   3.648  1.5154 -0.0832 -1.0160
 3872TIP3    H211581   7.064   3.285   3.780 -1.3339 -0.7195  0.2878
 3873TIP3   OH211582   1.968   3.697   5.111  0.0434 -0.0562  0.0049
 3873TIP3    H111583   1.997   3.606   5.111 -1.5006 -0.6658 -2.4341
 3873TIP3    H211584   2.028   3.742   5.051  0.3107  0.3639  0.5762
 3874TIP3   OH211585   6.435   4.704   1.295 -1.1486  0.5734 -0.2071
 3874TIP3    H111586   6.431   4.609   1.292 -1.9520  0.4987  2.0261
 3874TIP3    H211587   6.519   4.724   1.337 -0.9136  0.8833 -0.7992
 3875TIP3   OH211588   5.098   2.720   0.881 -0.7400  0.8528 -0.3721
 3875TIP3    H111589   5.016   2.739   0.836  0.1181  3.7601 -0.9334
 3875TIP3    H211590   5.099   2.781   0.955  1.1201  1.3264 -0.7230
 3876TIP3   OH211591   3.577   1.679   5.058 -0.4266 -0.1342  0.4095
 3876TIP3    H111592   3.492   1.721   5.071 -0.0235  1.4341 -1.6148
 3876TIP3    H211593   3.640   1.751   5.059  0.5483 -0.9154 -0.9420
 3877TIP3   OH211594   2.814   6.500   4.622 -0.9286  0.3780  0.1413
 3877TIP3    H111595   2.775   6.465   4.541 -1.7738 -0.3510  0.8439
 3877TIP3    H211596   2.738   6.524   4.676 -0.4238 -1.1089  1.5733
 3878TIP3   OH211597   1.893   3.910   5.622 -0.3326 -0.0870  0.2700
 3878TIP3    H111598   1.884   3.957   5.705  1.1102  1.3993 -0.3697
 3878TIP3    H211599   1.889   3.817   5.647 -0.5377  0.3276  1.9039
 3879TIP3   OH211600   4.677   3.836   2.205  0.0551  0.3108 -0.1207
 3879TIP3    H111601   4.604   3.869   2.258  0.7817  0.1159  1.0520
 3879TIP3    H211602   4.666   3.741   2.204  0.7674  0.2043  0.8215
 3880TIP3   OH211603   6.889   1.032   1.632 -0.5714 -0.0383  0.1479
 3880TIP3    H111604   6.818   1.096   1.641  0.2148  1.1573 -1.5893
 3880TIP3    H211605   6.935   1.035   1.716 -0.6552  1.5920  0.1695
 3881TIP3   OH211606   5.644   2.232   4.470  0.0094  0.1509 -0.3512
 3881TIP3    H111607   5.735   2.260   4.472 -0.1745  0.7957 -0.8815
 3881TIP3    H211608   5.619   2.235   4.378 -0.5984  0.1359 -0.1907
 3882TIP3   OH211609   0.232   2.417   5.031  0.3625  0.7901  0.6106
 3882TIP3    H111610   0.177   2.380   5.100 -1.8479  0.9794 -0.9490
 3882TIP3    H211611   0.292   2.346   5.008  0.9993  0.6498  2.5100
 3883TIP3   OH211612   1.528   5.074   1.261 -0.1639 -0.4768  0.2337
 3883TIP3    H111613   1.465   5.139   1.229  1.6444  1.1678 -0.1850
 3883TIP3    H211614   1.509   4.995   1.210 -0.3083  0.7256 -1.6860
 3884TIP3   OH211615   0.161   3.146   2.984 -0.2621 -0.4245 -0.2892
 3884TIP3    H111616   0.119   3.169   3.067  1.3816  1.2921  0.1210
 3884TIP3    H211617   0.104   3.183   2.917 -1.1848 -1.1368  0.0687
 3885TIP3   OH211618   1.561   2.493   0.500 -0.1276 -0.3634  0.1932
 3885TIP3    H111619   1.570   2.442   0.420  0.0600  0.3507 -0.2491
 3885TIP3    H211620   1.542   2.428   0.568  1.8122 -1.2253 -0.0387
 3886TIP3   OH211621   3.425   4.446   0.165  0.2598 -0.1187 -0.2659
 3886TIP3    H111622   3.468   4.405   0.091  3.1061  2.9278 -0.5595
 3886TIP3    H211623   3.357   4.501   0.126  0.4446 -0.0124 -0.4376
 3887TIP3   OH211624   3.714   2.354   3.355 -0.7376  0.0163  0.0905
 3887TIP3    H111625   3.658   2.296   3.303  0.2128  0.2475 -1.2418
 3887TIP3    H211626   3.800   2.313   3.352 -0.3917  0.7075  0.4248
 3888TIP3   OH211627   5.845   1.452   1.793  0.1514 -0.3411 -0.0620
 3888TIP3    H111628   5.832   1.500   1.712 -0.7124  2.7750  1.7694
 3888TIP3    H211629   5.760   1.455   1.837  1.2761  0.6938  2.2119
 3889TIP3   OH211630   3.203   6.388   0.828  0.3458 -0.0465 -0.0768
 3889TIP3    H111631   3.212   6.474   0.869 -2.6531  0.3610 -0.0914
 3889TIP3    H211632   3.220   6.404   0.735  1.4761  0.1565  0.1529
 3890TIP3   OH211633   5.351   2.947   1.685  0.4371  0.7159 -0.3466
 3890TIP3    H111634   5.387   2.909   1.765  1.0658  2.6735  0.3683
 3890TIP3    H211635   5.258   2.928   1.689  0.7512 -0.9536 -0.1882
 3891TIP3   OH211636   5.852   3.373   5.063  0.1730 -0.7053  0.4206
 3891TIP3    H111637   5.891   3.448   5.018  0.0791 -0.3255  0.9538
 3891TIP3    H211638   5.758   3.388   5.059 -0.0350 -2.1592 -1.7885
 3892TIP3   OH211639   6.539   1.972   1.689  0.3466 -0.3290  0.0068
 3892TIP3    H111640   6.446   1.959   1.708  0.0689  0.1939 -0.9461
 3892TIP3    H211641   6.546   1.961   1.594  1.1288  0.4028 -0.0286
 3893TIP3   OH211642   3.712   2.615   3.426 -0.4108 -0.3862  0.0121
 3893TIP3    H111643   3.725   2.520   3.416  1.1861 -0.1082 -0.7387
 3893TIP3    H211644   3.790   2.646   3.471 -1.7463  0.3561  1.9788
 3894TIP3   OH211645   2.308   6.032   1.968  0.0872 -0.2532  0.3525
 3894TIP3    H111646   2.376   5.966   1.948 -0.3757 -0.6427  0.0415
 3894TIP3    H211647   2.252   6.032   1.891 -0.3910 -0.0864  0.6988
 3895TIP3   OH211648   0.230   4.310   0.693  0.3223 -0.2599  0.6180
 3895TIP3    H111649   0.262   4.281   0.608 -0.9949  0.5386 -0.1808
 3895TIP3    H211650   0.166   4.244   0.719 -0.9502  0.6296 -0.1125
 3896TIP3   OH211651   3.121   2.318   1.034 -0.1357 -0.0834 -0.4380
 3896TIP3    H111652   3.048   2.324   1.095 -0.6310  1.0715 -1.1069
 3896TIP3    H211653   3.132   2.224   1.019 -0.2959 -0.3591  1.0525
 3897TIP3   OH211654   5.433   6.621   3.632  0.0506 -0.0298 -0.7100
 3897TIP3    H111655   5.513   6.569   3.639  1.0516  1.6131  0.8350
 3897TIP3    H211656   5.406   6.637   3.723 -1.2845  0.5851 -1.1770
 3898TIP3   OH211657   7.131   1.723   5.228 -0.1779 -0.7589  0.3936
 3898TIP3    H111658   7.214   1.727   5.275 -0.2364 -0.5667  0.4821
 3898TIP3    H211659   7.152   1.678   5.147  0.7494  2.0514 -1.0823
 3899TIP3   OH211660   3.144   1.762   0.729  0.7155 -0.3478  0.0163
 3899TIP3    H111661   3.238   1.747   0.735  0.6979 -1.0502 -1.1519
 3899TIP3    H211662   3.135   1.837   0.670  0.5380 -0.3436  0.0468
 3900TIP3   OH211663   0.101   1.070   1.353  0.0872 -0.5497  0.0758
 3900TIP3    H111664   0.023   1.124   1.346  0.2533 -0.1850  0.9125
 3900TIP3    H211665   0.163   1.108   1.290  0.1467  0.1492  0.5420
 3901TIP3   OH211666   7.128   6.389   5.294 -0.8014 -0.1530 -0.0904
 3901TIP3    H111667   7.091   6.461   5.242 -0.2699  0.1424 -0.0747
 3901TIP3    H211668   7.182   6.433   5.359 -2.7543 -0.4350  1.8012
 3902TIP3   OH211669   3.333   1.960   2.286 -0.3742  0.5479  0.0384
 3902TIP3    H111670   3.421   1.989   2.310 -0.5753  1.9937 -0.8115
 3902TIP3    H211671   3.307   2.020   2.215 -0.6536 -2.0342 -2.2159
 3903TIP3   OH211672   4.075   5.041   3.552  0.1532  0.4036 -0.1736
 3903TIP3    H111673   4.164   5.004   3.546 -0.1802 -0.2122 -1.6493
 3903TIP3    H211674   4.046   5.018   3.641  0.8545 -0.8582 -0.2432
 3904TIP3   OH211675   3.893   6.114   2.512  0.2971 -0.3877  0.0886
 3904TIP3    H111676   3.828   6.179   2.486  0.3489 -0.4092 -0.0958
 3904TIP3    H211677   3.894   6.052   2.439  0.7634 -0.2085 -0.0561
 3905TIP3   OH211678   6.955   2.795   3.818 -0.5616 -0.3415 -0.0149
 3905TIP3    H111679   7.014   2.721   3.807 -0.5110 -0.3908  0.5285
 3905TIP3    H211680   6.893   2.788   3.745  0.9484  0.5337 -1.4492
 3906TIP3   OH211681   1.726   2.295   2.386  0.7468  0.1512 -0.2484
 3906TIP3    H111682   1.698   2.297   2.477  1.3570  0.4811 -0.0635
 3906TIP3    H211683   1.821   2.307   2.389  0.5466  2.5081 -1.0226
 3907TIP3   OH211684   3.888   3.569   4.178 -0.0902 -0.1695  0.0513
 3907TIP3    H111685   3.931   3.527   4.253 -0.1664 -0.1554  0.1028
 3907TIP3    H211686   3.957   3.621   4.137  0.2775 -1.1620 -0.6250
 3908TIP3   OH211687   3.801   0.229   4.821 -0.1078 -0.0400  0.4044
 3908TIP3    H111688   3.824   0.300   4.761  0.2526  0.8684  1.5953
 3908TIP3    H211689   3.807   0.150   4.767  0.3735  0.7334 -0.7121
 3909TIP3   OH211690   1.211   1.237   2.444  0.2466 -0.2113 -0.1077
 3909TIP3    H111691   1.284   1.192   2.401 -0.2636  0.8967 -2.2366
 3909TIP3    H211692   1.242   1.326   2.457 -0.8474  0.4109 -1.4929
 3910TIP3   OH211693   1.108   5.211   5.265  0.3176  0.3311 -0.2502
 3910TIP3    H111694   1.094   5.150   5.192  0.6737  0.2051 -0.2148
 3910TIP3    H211695   1.031   5.200   5.320  0.7551 -0.6960  0.1839
 3911TIP3   OH211696   6.482   6.233   4.541  0.4349 -0.4598  0.7097
 3911TIP3    H111697   6.420   6.215   4.612 -0.1835  0.6757  0.4826
 3911TIP3    H211698   6.441   6.303   4.491  0.9167 -1.1541 -0.7142
 3912TIP3   OH211699   0.789   2.281   3.281 -0.1676 -0.0094 -0.3057
 3912TIP3    H111700   0.810   2.364   3.324  2.6356 -0.5469 -0.4130
 3912TIP3    H211701   0.715   2.302   3.224 -0.3790  2.0754  0.6187
 3913TIP3   OH211702   5.056   3.594   4.126 -0.0825  0.3852  0.4034
 3913TIP3    H111703   4.962   3.581   4.109  0.3291 -3.2666  0.1512
 3913TIP3    H211704   5.059   3.615   4.220 -1.1955  2.1251  0.0988
 3914TIP3   OH211705   3.980   4.419   2.610  0.1667 -0.0371  0.0793
 3914TIP3    H111706   3.919   4.386   2.544 -1.8505 -0.2933  1.9411
 3914TIP3    H211707   4.050   4.461   2.560 -3.2263  3.5301 -2.2794
 3915TIP3   OH211708   6.238   1.083   1.135  0.1922 -0.0306 -0.3642
 3915TIP3    H111709   6.328   1.060   1.161  0.0294 -0.2023  0.0536
 3915TIP3    H211710   6.196   1.112   1.216 -0.3381 -0.6159 -0.4230
 3916TIP3   OH211711   0.576   3.429   1.640 -0.3441 -0.3863 -0.0543
 3916TIP3    H111712   0.545   3.355   1.693  0.2091 -1.4221 -1.1185
 3916TIP3    H211713   0.641   3.390   1.581  1.1418  1.2627  0.4351
 3917TIP3   OH211714   0.848   5.642   5.224  0.0774 -0.0746 -0.4064
 3917TIP3    H111715   0.895   5.596   5.155 -1.6560 -1.5647 -0.6697
 3917TIP3    H211716   0.851   5.734   5.199  1.7500 -0.2818 -1.0399
 3918TIP3   OH211717   6.501   4.954   4.708  0.1721 -0.0421 -0.1207
 3918TIP3    H111718   6.565   4.919   4.646 -0.1667 -2.6573  0.8560
 3918TIP3    H211719   6.466   5.032   4.666  1.4175 -0.5721 -2.2738
 3919TIP3   OH211720   1.275   2.459   3.049 -0.0692 -0.6226 -0.0239
 3919TIP3    H111721   1.205   2.393   3.056 -1.6669  0.9697 -0.3833
 3919TIP3    H211722   1.239   2.526   2.992  1.2801  0.8652  0.8004
 3920TIP3   OH211723   4.113   6.426   4.664  1.0164  0.0977  0.8757
 3920TIP3    H111724   4.104   6.337   4.700  2.1801 -1.2164 -1.7799
 3920TIP3    H211725   4.173   6.470   4.725 -1.1365 -0.1711  3.3582
 3921TIP3   OH211726   6.349   2.684   2.221  0.5086  0.3091  0.4634
 3921TIP3    H111727   6.289   2.701   2.148  1.3795  0.1961 -0.3033
 3921TIP3    H211728   6.292   2.674   2.297 -0.6339 -2.0571 -0.5896
 3922TIP3   OH211729   5.430   2.014   2.438 -0.5017 -0.3985  0.2973
 3922TIP3    H111730   5.401   2.056   2.518 -1.6712 -0.7532  0.0692
 3922TIP3    H211731   5.350   1.987   2.393  0.1193 -0.1364 -1.0364
 3923TIP3   OH211732   7.181   5.467   4.684  0.1482  0.1462 -0.0463
 3923TIP3    H111733   7.159   5.538   4.745 -1.6236  0.6747 -1.2135
 3923TIP3    H211734   7.275   5.475   4.670  0.0410  2.0777  0.1046
 3924TIP3   OH211735   7.043   5.547   0.934 -0.5388  0.2672  0.1670
 3924TIP3    H111736   7.090   5.484   0.878 -1.9956 -0.6569 -0.0619
 3924TIP3    H211737   7.095   5.551   1.014 -0.5628 -1.4920  0.3110
 3925TIP3   OH211738   1.524   4.177   0.865 -0.4524  0.0737  0.1202
 3925TIP3    H111739   1.483   4.092   0.878  2.0059 -1.1367  0.4756
 3925TIP3    H211740   1.552   4.205   0.952 -0.9292  1.0986 -0.0380
 3926TIP3   OH211741   3.957   3.287   1.956  0.1883  0.0165  0.1125
 3926TIP3    H111742   3.902   3.230   2.011  1.8028 -1.5887  0.1441
 3926TIP3    H211743   4.033   3.234   1.934  0.6463  1.3688 -1.8900
 3927TIP3   OH211744   4.466   6.050   1.655  0.0412  0.4219 -0.1353
 3927TIP3    H111745   4.412   6.042   1.734  0.0684  0.9528 -0.0653
 3927TIP3    H211746   4.484   6.143   1.647 -0.6606  0.4805 -1.2328
 3928TIP3   OH211747   0.222   6.587   4.185  0.2515  0.1726 -0.1485
 3928TIP3    H111748   0.280   6.511   4.188  0.4858  0.3694  0.5354
 3928TIP3    H211749   0.195   6.600   4.276  1.0923  1.5692 -0.0553
 3929TIP3   OH211750   0.946   3.096   2.600  0.3252 -0.4309 -0.1347
 3929TIP3    H111751   0.950   3.010   2.559 -0.5053 -0.4138 -0.2547
 3929TIP3    H211752   0.879   3.088   2.668 -2.3041  1.0315 -2.3830
 3930TIP3   OH211753   6.598   0.285   3.097 -0.3023 -0.2710  0.5087
 3930TIP3    H111754   6.578   0.271   3.190  0.2474 -0.3690  0.6157
 3930TIP3    H211755   6.554   0.367   3.075 -2.9413 -1.6951  0.0725
 3931TIP3   OH211756   3.135   5.734   0.289  0.5461  0.1459 -0.2922
 3931TIP3    H111757   3.097   5.805   0.238 -0.0966 -0.0357 -0.0807
 3931TIP3    H211758   3.206   5.699   0.234 -1.5267 -1.5223 -2.0954
 3932TIP3   OH211759   3.797   6.492   4.420  0.0035 -0.0163 -0.1611
 3932TIP3    H111760   3.711   6.485   4.378 -0.1810  0.1337  0.1859
 3932TIP3    H211761   3.806   6.410   4.469  0.9934 -1.0034 -1.8994
 3933TIP3   OH211762   0.889   3.964   1.811 -0.2707  0.3317  0.2818
 3933TIP3    H111763   0.918   3.914   1.735  0.3948  0.1769  0.6269
 3933TIP3    H211764   0.800   3.932   1.828 -0.7628  0.9953 -0.9408
 3934TIP3   OH211765   6.944   2.471   5.041  0.1916  0.5083 -0.4508
 3934TIP3    H111766   6.978   2.524   5.113 -2.9597  1.7476  0.2937
 3934TIP3    H211767   7.020   2.458   4.983  2.0601  2.2534  1.4178
 3935TIP3   OH211768   4.831   3.074   5.084  0.0053 -0.4022  0.6567
 3935TIP3    H111769   4.821   3.132   5.009  2.0432  0.0319  0.6499
 3935TIP3    H211770   4.907   3.020   5.062  1.1869  0.3135  2.7341
 3936TIP3   OH211771   2.899   1.061   5.335 -0.0149 -0.7182 -0.4407
 3936TIP3    H111772   2.975   1.103   5.375  1.2676 -1.9612 -1.4583
 3936TIP3    H211773   2.840   1.133   5.311  0.7889  0.2574  0.4509
 3937TIP3   OH211774   3.519   5.945   4.660 -0.1751  0.3108 -0.2286
 3937TIP3    H111775   3.519   5.924   4.566 -0.8692 -0.9727  0.0388
 3937TIP3    H211776   3.450   5.890   4.697 -0.1013  1.0122  0.9964
 3938TIP3   OH211777   1.402   3.964   3.499  0.1925  0.3850  1.1205
 3938TIP3    H111778   1.410   4.029   3.569 -1.1200  3.1730 -1.1091
 3938TIP3    H211779   1.312   3.972   3.469  0.5835 -1.0701 -0.6053
 3939TIP3   OH211780   0.580   0.830   4.243 -0.0477 -0.0884 -0.0637
 3939TIP3    H111781   0.614   0.790   4.163  1.6437 -1.2739  1.1736
 3939TIP3    H211782   0.657   0.863   4.288 -0.0577 -4.0137  3.5000
 3940TIP3   OH211783   5.450   1.481   3.107  0.0955 -0.4253  0.0722
 3940TIP3    H111784   5.489   1.403   3.146 -0.3604 -0.0750  1.2647
 3940TIP3    H211785   5.416   1.531   3.181  0.0270  0.7192 -0.6976
 3941TIP3   OH211786   5.335   4.427   4.236  0.2159 -0.0427  0.2493
 3941TIP3    H111787   5.291   4.454   4.155  0.0646  0.5219  0.5124
 3941TIP3    H211788   5.395   4.499   4.255  0.4488 -0.3016  0.4935
 3942TIP3   OH211789   0.978   2.644   5.738 -0.1430 -0.5134 -0.2406
 3942TIP3    H111790   0.904   2.700   5.761  0.6318 -0.4248  2.3802
 3942TIP3    H211791   1.055   2.688   5.775  1.0469 -1.3263 -1.6111
 3943TIP3   OH211792   6.906   2.912   1.104  0.6849  0.1131 -0.2000
 3943TIP3    H111793   6.971   2.862   1.054  0.3498  0.2927 -0.8368
 3943TIP3    H211794   6.958   2.971   1.159  1.0690 -0.3281 -0.0856
 3944TIP3   OH211795   1.788   1.233   0.550 -0.4081 -0.1378  0.3335
 3944TIP3    H111796   1.781   1.254   0.457 -1.6912 -0.0751  0.4310
 3944TIP3    H211797   1.705   1.260   0.588 -1.1427 -2.9602  0.9388
 3945TIP3   OH211798   3.577   6.556   4.054 -0.1498 -0.5303  0.0532
 3945TIP3    H111799   3.670   6.552   4.073  0.1597  1.7633 -0.6871
 3945TIP3    H211800   3.566   6.635   4.001 -2.4620 -0.9502 -0.2245
 3946TIP3   OH211801   0.536   2.365   4.786 -0.7300 -0.5321  0.5115
 3946TIP3    H111802   0.614   2.408   4.751 -1.2653 -0.3831 -0.5432
 3946TIP3    H211803   0.566   2.277   4.809 -0.2251 -0.4555  0.1775
 3947TIP3   OH211804   0.274   2.419   5.397 -0.3686 -0.4731  0.0330
 3947TIP3    H111805   0.205   2.397   5.459 -0.5650 -0.6876 -0.2555
 3947TIP3    H211806   0.280   2.514   5.400 -0.2907 -0.4913  0.4690
 3948TIP3   OH211807   1.947   6.565   1.570  0.1848  0.1931 -0.1443
 3948TIP3    H111808   1.898   6.509   1.630 -0.1375  1.1039  0.4550
 3948TIP3    H211809   1.891   6.570   1.492 -1.3858  2.3070  1.0255
 3949TIP3   OH211810   6.626   5.176   3.155 -0.0160  0.1021 -0.6032
 3949TIP3    H111811   6.667   5.205   3.074  0.9163  0.8385  0.1071
 3949TIP3    H211812   6.674   5.222   3.224  1.4671 -2.9813  0.6269
 3950TIP3   OH211813   5.275   5.593   4.418 -0.3746  0.2425  0.3374
 3950TIP3    H111814   5.335   5.526   4.451  0.0939  0.5766  0.1679
 3950TIP3    H211815   5.246   5.560   4.333 -2.0669 -0.9265  1.2835
 3951TIP3   OH211816   1.827   0.613   0.116 -0.0025 -0.2875  0.3278
 3951TIP3    H111817   1.907   0.573   0.081 -0.3412 -0.6000 -0.0992
 3951TIP3    H211818   1.830   0.703   0.083  0.6041 -0.0373  1.0333
 3952TIP3   OH211819   4.556   0.105   1.250  0.5080 -0.0811  0.4556
 3952TIP3    H111820   4.586   0.045   1.318 -3.0746 -2.6334  0.1049
 3952TIP3    H211821   4.514   0.176   1.297  1.8999  0.5278  0.8455
 3953TIP3   OH211822   4.312   1.865   3.563  0.0377  0.0293 -0.1430
 3953TIP3    H111823   4.332   1.772   3.577 -0.5182  0.0850  1.0991
 3953TIP3    H211824   4.280   1.869   3.473  0.7010 -0.8705 -0.4330
 3954TIP3   OH211825   4.450   4.448   0.303 -0.5378  0.3309  0.1437
 3954TIP3    H111826   4.405   4.533   0.299 -2.7298 -0.5933  2.6244
 3954TIP3    H211827   4.447   4.423   0.395  2.3635 -1.3237 -0.0886
 3955TIP3   OH211828   0.863   2.118   2.592 -0.8282  0.3958  0.3767
 3955TIP3    H111829   0.777   2.081   2.571 -0.2437 -0.8564  0.0692
 3955TIP3    H211830   0.923   2.043   2.586  0.3012  1.2691  0.4876
 3956TIP3   OH211831   4.789   3.518   0.505 -0.1289 -0.1548 -0.0186
 3956TIP3    H111832   4.838   3.592   0.469 -1.9237  0.6947 -0.8303
 3956TIP3    H211833   4.730   3.557   0.569  1.0861 -1.3266  1.9092
 3957TIP3   OH211834   7.138   3.197   5.713  0.8971 -0.2710 -0.3613
 3957TIP3    H111835   7.220   3.210   5.664  0.3002 -1.0714 -1.6518
 3957TIP3    H211836   7.083   3.147   5.653 -0.3208 -0.2797  0.7242
 3958TIP3   OH211837   0.342   2.609   1.857 -0.5970  0.0013 -0.1170
 3958TIP3    H111838   0.387   2.525   1.853 -0.2825  0.1665 -0.0368
 3958TIP3    H211839   0.337   2.638   1.766  0.0674  0.3052 -0.0617
 3959TIP3   OH211840   0.408   2.205   1.186 -0.0313  0.0202 -0.0965
 3959TIP3    H111841   0.339   2.209   1.253 -0.0675 -0.8649 -0.0622
 3959TIP3    H211842   0.391   2.124   1.139  0.4260  0.2766 -0.7152
 3960TIP3   OH211843   5.147   0.406   5.076  0.4793 -0.1280 -0.1617
 3960TIP3    H111844   5.227   0.409   5.129  0.2931 -0.0682  0.1214
 3960TIP3    H211845   5.174   0.438   4.990  0.9984 -1.1439 -0.3935
 3961TIP3   OH211846   6.876   3.716   3.006  0.1880  0.2151  0.2685
 3961TIP3    H111847   6.918   3.672   2.933  0.1031  4.7301 -2.9018
 3961TIP3    H211848   6.789   3.676   3.011  0.7941 -1.3653 -0.8807
 3962TIP3   OH211849   1.861   1.082   2.863 -0.2627  0.3835 -0.4999
 3962TIP3    H111850   1.877   1.174   2.881 -0.5177  0.8000 -2.2077
 3962TIP3    H211851   1.947   1.045   2.845 -0.2673  0.5359 -0.8396
 3963TIP3   OH211852   3.622   3.882   5.565 -0.1786 -0.0999  0.0339
 3963TIP3    H111853   3.622   3.854   5.656  0.2552  1.3549  0.5138
 3963TIP3    H211854   3.705   3.850   5.530 -0.8054 -1.5826 -0.1887
 3964TIP3   OH211855   6.966   5.848   4.535  0.0271 -0.4669  0.0311
 3964TIP3    H111856   7.043   5.848   4.479 -0.8598 -0.1656 -1.2447
 3964TIP3    H211857   6.994   5.804   4.615  1.6394  0.0765 -0.2082
 3965TIP3   OH211858   5.660   1.106   3.820  0.2099 -0.0581  0.5757
 3965TIP3    H111859   5.738   1.161   3.818  0.6354 -0.6120 -1.8573
 3965TIP3    H211860   5.588   1.166   3.839  0.9038  0.9800  0.0080
 3966TIP3   OH211861   7.117   3.416   4.810  0.2270 -0.1133  0.2265
 3966TIP3    H111862   7.153   3.342   4.858  2.2578  0.7272  0.0852
 3966TIP3    H211863   7.108   3.485   4.875  0.4611  0.2072 -0.0795
 3967TIP3   OH211864   1.756   4.927   2.355 -0.1644 -0.6444  0.2511
 3967TIP3    H111865   1.668   4.965   2.353 -0.1951 -0.5136  2.3377
 3967TIP3    H211866   1.756   4.870   2.431  1.2147 -1.5736 -0.4023
 3968TIP3   OH211867   6.773   4.387   1.574 -0.4717  0.0912 -0.3801
 3968TIP3    H111868   6.748   4.320   1.511 -0.6497 -0.0599 -0.1501
 3968TIP3    H211869   6.824   4.341   1.639  2.6748  0.8078 -2.1505
 3969TIP3   OH211870   4.553   0.431   0.994 -0.2068  0.1209  0.4040
 3969TIP3    H111871   4.573   0.360   0.932  1.9184  0.2052  0.9070
 3969TIP3    H211872   4.484   0.481   0.951  0.4751 -0.4269 -1.4518
 3970TIP3   OH211873   5.222   5.412   5.484  0.2735 -0.2594 -0.3341
 3970TIP3    H111874   5.306   5.436   5.524 -0.4056  2.2362 -0.2123
 3970TIP3    H211875   5.210   5.477   5.414 -1.6927 -0.3588 -0.1343
 3971TIP3   OH211876   5.769   3.622   0.940 -0.0170 -0.1591 -0.1548
 3971TIP3    H111877   5.818   3.552   0.897 -0.8970  0.0624 -1.5835
 3971TIP3    H211878   5.788   3.700   0.887  1.6227  0.9127  1.8928
 3972TIP3   OH211879   7.017   2.682   1.331  0.2226  0.5594 -0.0844
 3972TIP3    H111880   7.000   2.612   1.394 -2.6537 -0.2470 -1.5878
 3972TIP3    H211881   6.941   2.740   1.338  1.3474  2.1621 -0.6524
 3973TIP3   OH211882   0.812   3.866   0.512 -0.0021  0.1783 -0.1757
 3973TIP3    H111883   0.773   3.779   0.510 -1.4387  0.8078 -0.7137
 3973TIP3    H211884   0.768   3.909   0.586  1.7153  0.0190  0.9934
 3974TIP3   OH211885   4.640   1.528   5.059 -0.5818 -0.0615 -0.3215
 3974TIP3    H111886   4.588   1.448   5.043  0.4791 -0.6571 -0.8932
 3974TIP3    H211887   4.652   1.529   5.154  1.6481 -2.1037 -0.4774
 3975TIP3   OH211888   1.337   3.404   2.311  0.2806  0.6049 -0.0626
 3975TIP3    H111889   1.366   3.365   2.228  1.2058 -1.7627  1.2935
 3975TIP3    H211890   1.416   3.408   2.365 -0.6781  0.1955  1.4178
 3976TIP3   OH211891   5.325   4.205   5.808  0.1078 -0.0235  0.2942
 3976TIP3    H111892   5.311   4.117   5.843 -1.1174  0.2448  0.5224
 3976TIP3    H211893   5.240   4.249   5.818  0.9965  1.5604  1.2715
 3977TIP3   OH211894   5.514   3.830   1.748 -0.6951  0.6689 -0.1424
 3977TIP3    H111895   5.580   3.781   1.798 -1.3237  1.7966  1.9507
 3977TIP3    H211896   5.530   3.921   1.774 -1.3028  1.2685 -1.7969
 3978TIP3   OH211897   1.244   5.449   1.288  0.6276 -0.3161 -0.3814
 3978TIP3    H111898   1.265   5.367   1.244  0.4773 -0.0354 -0.9870
 3978TIP3    H211899   1.215   5.422   1.375  0.1287 -0.9472 -0.7265
 3979TIP3   OH211900   2.570   0.012   2.817 -0.2041 -0.1154  0.6808
 3979TIP3    H111901   2.508  -0.043   2.865 -2.1583 -0.0975 -1.6317
 3979TIP3    H211902   2.528   0.098   2.814  1.3593  0.7216  1.5515
 3980TIP3   OH211903   6.253   0.418   4.691 -0.4437  0.0537 -0.4993
 3980TIP3    H111904   6.263   0.441   4.598  1.9324 -1.6788 -0.7582
 3980TIP3    H211905   6.289   0.330   4.698  1.0754  0.7620  2.3435
 3981TIP3   OH211906   2.032   1.537   5.233  0.4267  0.0567  1.1341
 3981TIP3    H111907   2.044   1.443   5.246 -0.8009 -0.1652  0.7855
 3981TIP3    H211908   2.022   1.573   5.321  1.7068  0.0032  1.3240
 3982TIP3   OH211909   4.938   1.494   0.144  0.0194 -0.2218 -0.2324
 3982TIP3    H111910   4.847   1.526   0.148 -0.0304 -0.2635 -0.9610
 3982TIP3    H211911   4.967   1.515   0.056  1.1418  0.8956  0.3716
 3983TIP3   OH211912   2.673   1.500   1.284 -0.0301 -0.2183  0.4372
 3983TIP3    H111913   2.715   1.418   1.257 -2.3110 -0.9792 -1.0853
 3983TIP3    H211914   2.660   1.490   1.378  0.9084 -1.0260  0.4931
 3984TIP3   OH211915   6.461   6.135   0.953 -0.1969  0.4326  0.1847
 3984TIP3    H111916   6.377   6.182   0.960 -0.7961 -0.5154 -0.4605
 3984TIP3    H211917   6.496   6.162   0.868  0.0084  0.5932  0.3204
 3985TIP3   OH211918   0.761   2.491   3.474  0.1352  0.0680 -0.0876
 3985TIP3    H111919   0.761   2.582   3.505  0.3802 -0.1838  0.6765
 3985TIP3    H211920   0.683   2.484   3.419  1.0207  1.2049 -1.5669
 3986TIP3   OH211921   1.504   6.191   4.703 -0.4823 -0.1987  0.0831
 3986TIP3    H111922   1.590   6.155   4.726 -0.4784  0.9794  2.2081
 3986TIP3    H211923   1.455   6.189   4.785 -2.0623  0.3119 -0.8184
 3987TIP3   OH211924   2.866   4.719   4.823  0.3133  0.3053  0.0299
 3987TIP3    H111925   2.836   4.787   4.883 -0.0530 -0.3288  0.5806
 3987TIP3    H211926   2.938   4.760   4.775  1.1450  0.5979  1.4395
 3988TIP3   OH211927   3.541   5.547   0.342 -0.4838  0.3892  0.0515
 3988TIP3    H111928   3.508   5.533   0.430 -2.2987  0.9891 -0.4818
 3988TIP3    H211929   3.631   5.516   0.344 -0.3545  0.7860  2.2125
 3989TIP3   OH211930   4.915   4.950   0.875 -0.2182  0.4710 -0.0488
 3989TIP3    H111931   5.008   4.972   0.878  0.2922 -1.6307  1.2379
 3989TIP3    H211932   4.875   5.011   0.938  0.3023  1.2109 -0.4095
 3990TIP3   OH211933   4.579   3.928   4.502 -0.4383  0.1141  0.3505
 3990TIP3    H111934   4.515   3.857   4.512 -0.1411  0.0555  2.2848
 3990TIP3    H211935   4.584   3.967   4.589  0.4295  1.6362 -0.3499
 3991TIP3   OH211936   6.606   3.350   3.235  0.1449  0.4707 -0.5167
 3991TIP3    H111937   6.518   3.365   3.270  0.1783  0.1706 -0.3021
 3991TIP3    H211938   6.614   3.255   3.230  0.7691  0.4778  0.2405
 3992TIP3   OH211939   6.563   4.399   0.737  0.1891 -0.2551 -0.6916
 3992TIP3    H111940   6.652   4.424   0.713  1.4397 -0.9412  2.6942
 3992TIP3    H211941   6.508   4.437   0.668  3.0460  0.1877 -2.9122
 3993TIP3   OH211942   4.974   5.623   5.306 -0.3447  0.3238 -0.4211
 3993TIP3    H111943   4.935   5.705   5.275  2.6456  2.0423 -0.0047
 3993TIP3    H211944   5.066   5.630   5.281 -0.0241 -3.0520 -0.5313
 3994TIP3   OH211945   1.053   1.953   2.817 -0.3884  0.2647  0.2357
 3994TIP3    H111946   1.013   1.905   2.745  0.5802  0.4808 -0.4734
 3994TIP3    H211947   0.980   1.983   2.870 -1.0944 -0.3191 -0.3861
 3995TIP3   OH211948   3.176   3.702   0.103 -0.1150  0.0164 -0.0879
 3995TIP3    H111949   3.230   3.625   0.083 -0.6282 -0.0625 -1.2875
 3995TIP3    H211950   3.197   3.723   0.193  2.2168  0.2138 -0.6133
 3996TIP3   OH211951   5.720   3.116   2.954  0.7360 -0.3175  0.6322
 3996TIP3    H111952   5.711   3.195   3.006  0.2355 -0.7195  1.1678
 3996TIP3    H211953   5.724   3.045   3.018  0.2780 -0.8065  0.1322
 3997TIP3   OH211954   6.101   0.437   1.039  0.4248 -0.0971  0.6796
 3997TIP3    H111955   6.106   0.348   1.074 -0.6136 -0.2733  0.3980
 3997TIP3    H211956   6.161   0.436   0.964  0.6298 -0.4824  0.8461
 3998TIP3   OH211957   3.919   3.425   1.697 -0.1917 -0.1988 -0.3056
 3998TIP3    H111958   3.956   3.440   1.784 -1.7949 -1.2711  0.6320
 3998TIP3    H211959   3.850   3.360   1.712  0.7646 -1.9097 -2.6828
 3999TIP3   OH211960   2.844   1.896   1.737 -0.5727  0.0903  0.4485
 3999TIP3    H111961   2.830   1.842   1.815 -0.7201 -1.2949 -0.4909
 3999TIP3    H211962   2.933   1.930   1.747 -0.1248 -1.0747  0.6821
 4000TIP3   OH211963   4.691   4.029   5.505  0.6077 -0.1615  0.0670
 4000TIP3    H111964   4.702   3.987   5.590  1.2068  1.2060  0.7041
 4000TIP3    H211965   4.600   4.011   5.481  0.1009  0.3274  1.5176
 4001TIP3   OH211966   5.332   5.761   4.022  0.5574  0.1437 -0.4401
 4001TIP3    H111967   5.269   5.830   4.041  1.2164  0.6857 -0.1786
 4001TIP3    H211968   5.412   5.808   3.998  1.8400 -0.4216  2.2713
 4002TIP3   OH211969   0.522   1.560   1.259  0.2523  0.4417 -0.3278
 4002TIP3    H111970   0.570   1.571   1.177  1.1825 -1.3105 -0.0680
 4002TIP3    H211971   0.432   1.543   1.232  0.6377 -0.5739 -1.0335
 4003TIP3   OH211972   0.284   6.298   5.662 -0.1472  1.4702  0.4643
 4003TIP3    H111973   0.212   6.360   5.674  1.1204  3.2911 -0.9366
 4003TIP3    H211974   0.358   6.338   5.707  0.7078  1.0039 -0.4978
 4004TIP3   OH211975   2.571   1.806   0.293 -0.4768  0.8465 -0.2002
 4004TIP3    H111976   2.629   1.813   0.218 -2.1481  2.5714 -1.4355
 4004TIP3    H211977   2.545   1.896   0.312 -0.3667  0.4188  2.2716
 4005TIP3   OH211978   1.869   3.362   2.407 -0.3012  0.4296 -0.3404
 4005TIP3    H111979   1.955   3.357   2.366  0.4389  0.2792  1.1870
 4005TIP3    H211980   1.871   3.297   2.477 -1.7262  0.2873 -0.3968
 4006TIP3   OH211981   0.711   1.509   0.374  0.8768 -0.0680 -0.1772
 4006TIP3    H111982   0.780   1.445   0.357  1.4596 -0.1313  2.0657
 4006TIP3    H211983   0.683   1.538   0.288  1.0120 -2.8737 -1.2563
 4007TIP3   OH211984   0.087   6.161   2.769 -0.1573  0.3855 -0.3435
 4007TIP3    H111985  -0.003   6.187   2.788 -0.5247 -1.3425  0.4693
 4007TIP3    H211986   0.123   6.134   2.853  1.2560  1.3434 -0.5949
 4008TIP3   OH211987   1.328   5.623   2.228 -0.3446 -0.3384  0.2438
 4008TIP3    H111988   1.309   5.575   2.147 -0.6680 -0.3371  0.3160
 4008TIP3    H211989   1.242   5.648   2.261 -0.3714 -2.0045  1.6063
 4009TIP3   OH211990   7.025   1.188   4.406 -0.6288  0.3219 -0.1665
 4009TIP3    H111991   7.104   1.178   4.352 -0.4134 -0.4458  0.2691
 4009TIP3    H211992   6.953   1.188   4.343 -0.4414 -1.3085 -0.4332
 4010TIP3   OH211993   3.377   4.853   2.686  0.2793 -0.1394  0.2948
 4010TIP3    H111994   3.284   4.830   2.683 -0.0040  0.5763  2.1381
 4010TIP3    H211995   3.380   4.946   2.665  0.6183 -0.2269 -0.0573
 4011TIP3   OH211996   3.667   3.111   1.919 -0.1088 -0.0806  0.5288
 4011TIP3    H111997   3.668   3.141   2.010 -1.1636 -1.7465  1.1309
 4011TIP3    H211998   3.699   3.021   1.923 -0.1593 -0.1668 -0.7509
 4012TIP3   OH211999   1.002   6.627   0.671 -0.3313  0.2430 -0.0270
 4012TIP3    H112000   0.978   6.678   0.748 -0.5199  0.8706 -0.4857
 4012TIP3    H212001   0.951   6.546   0.678 -0.5211  0.3978  0.3927
 4013TIP3   OH212002   5.715   5.290   2.399  0.4303  0.2147 -0.0613
 4013TIP3    H112003   5.620   5.290   2.385  0.7309  0.2145 -2.3997
 4013TIP3    H212004   5.727   5.237   2.478 -1.4597 -0.4754 -0.1851
 4014TIP3   OH212005   5.437   6.596   2.454  0.2366  0.6992 -0.8313
 4014TIP3    H112006   5.498   6.590   2.380  0.2239 -0.5096 -0.7590
 4014TIP3    H212007   5.480   6.548   2.525 -0.8973 -0.4165 -0.8636
 4015TIP3   OH212008   6.219   4.765   4.677  0.0040 -0.2446 -0.0710
 4015TIP3    H112009   6.222   4.849   4.723  2.1283  0.3198 -1.0668
 4015TIP3    H212010   6.304   4.760   4.632  0.2516 -3.2289  0.4679
 4016TIP3   OH212011   2.606   2.643   1.561  0.0732  0.2410  0.3490
 4016TIP3    H112012   2.610   2.556   1.521 -0.1860 -0.7495  2.3611
 4016TIP3    H212013   2.682   2.646   1.620 -0.8910  0.6705  1.6146
 4017TIP3   OH212014   6.218   6.209   1.271 -0.0427 -0.0374 -0.7356
 4017TIP3    H112015   6.187   6.210   1.181 -1.1519 -1.8366 -0.4241
 4017TIP3    H212016   6.235   6.117   1.290  0.8902  0.3801  0.6764
 4018TIP3   OH212017   0.055   1.864   2.953  0.2931  0.2695  0.0708
 4018TIP3    H112018  -0.023   1.819   2.921  0.1014 -0.3754  1.3734
 4018TIP3    H212019   0.030   1.894   3.041  1.7922 -0.7302  0.8686
 4019TIP3   OH212020   1.271   3.648   0.184 -0.2218 -0.6531  0.1110
 4019TIP3    H112021   1.288   3.567   0.138 -0.1494  0.1177 -1.2674
 4019TIP3    H212022   1.357   3.679   0.212  0.2359  0.7226 -2.5109
 4020TIP3   OH212023   6.156   4.821   5.607  0.5755 -0.1355  0.2611
 4020TIP3    H112024   6.143   4.747   5.666  1.8494  0.4776  1.3761
 4020TIP3    H212025   6.209   4.786   5.535  0.1395 -0.5756  0.1503
 4021TIP3   OH212026   2.125   2.669   3.823 -0.0056  0.3051  0.0888
 4021TIP3    H112027   2.138   2.729   3.750  1.1226 -0.4643 -0.3725
 4021TIP3    H212028   2.062   2.605   3.790  0.1521  0.2192 -0.0444
 4022TIP3   OH212029   3.940   3.645   0.319  0.1182  0.3758 -0.4853
 4022TIP3    H112030   4.013   3.590   0.348  1.6509  3.0593  1.2038
 4022TIP3    H212031   3.862   3.594   0.342  1.4304 -1.3141  0.5065
 4023TIP3   OH212032   6.708   6.281   5.509 -1.0522  0.5480 -0.6480
 4023TIP3    H112033   6.775   6.284   5.442 -1.1689  1.3999 -0.7432
 4023TIP3    H212034   6.683   6.189   5.515  0.7901  0.0542  0.0761
 4024TIP3   OH212035   0.921   1.203   3.036  0.3540  0.2623 -0.5945
 4024TIP3    H112036   0.986   1.140   3.067  1.6467  0.8757 -1.9493
 4024TIP3    H212037   0.887   1.164   2.956  0.3585  0.7651 -0.8456
 4025TIP3   OH212038   2.893   6.752   4.318 -0.3636 -0.0204 -0.0157
 4025TIP3    H112039   2.956   6.703   4.372  0.2306 -1.1375 -1.6128
 4025TIP3    H212040   2.818   6.767   4.375 -0.0056 -1.6604  0.9547
 4026TIP3   OH212041   6.632   6.786   1.213  0.3566 -0.3812  0.6973
 4026TIP3    H112042   6.719   6.761   1.244  0.4136  0.2914  1.0877
 4026TIP3    H212043   6.572   6.748   1.278  0.4615  0.7637  1.5001
 4027TIP3   OH212044   1.466   5.230   5.614  0.7813 -0.0815  0.2843
 4027TIP3    H112045   1.392   5.250   5.557 -1.3810 -0.4234  2.7605
 4027TIP3    H212046   1.514   5.162   5.567  1.4166  2.2597 -2.7869
 4028TIP3   OH212047   2.336   4.439   0.721  0.0280 -0.2727 -0.2499
 4028TIP3    H112048   2.357   4.386   0.798 -1.8573 -0.4475  0.1829
 4028TIP3    H212049   2.421   4.461   0.683  1.0284  0.2068  2.1316
 4029TIP3   OH212050   0.697   3.430   2.878  0.6459 -0.2167 -0.5711
 4029TIP3    H112051   0.766   3.489   2.848 -0.1286  0.7489 -0.5198
 4029TIP3    H212052   0.703   3.433   2.974 -1.2146  2.1153 -0.4378
 4030TIP3   OH212053   6.994   3.206   0.284 -0.1141  0.2416  0.4714
 4030TIP3    H112054   7.009   3.171   0.372 -1.2328  0.0244  0.5814
 4030TIP3    H212055   7.043   3.147   0.226 -1.9304 -1.5271  0.6515
 4031TIP3   OH212056   6.078   2.551   0.450 -0.1979 -0.2381 -0.7999
 4031TIP3    H112057   6.129   2.488   0.400  0.2787 -0.7952  0.3627
 4031TIP3    H212058   6.140   2.589   0.512 -0.7565  0.5029 -0.6753
 4032TIP3   OH212059   2.725   0.551   0.364  0.0746  0.0455  0.2858
 4032TIP3    H112060   2.691   0.539   0.276  2.6020 -0.1974 -0.7488
 4032TIP3    H212061   2.652   0.530   0.422 -1.5456 -0.1310 -1.7280
 4033TIP3   OH212062   5.645   5.522   4.041 -0.0288  0.8487  0.1656
 4033TIP3    H112063   5.718   5.480   4.087 -0.4368  0.1306  0.1590
 4033TIP3    H212064   5.588   5.555   4.111  0.0493  0.9744  0.1703
 4034TIP3   OH212065   2.027   4.003   1.695 -0.2116 -0.5802  0.3004
 4034TIP3    H112066   1.953   3.943   1.707 -0.5239 -0.1541  0.5396
 4034TIP3    H212067   2.062   4.017   1.783  1.5639 -2.5154 -0.0405
 4035TIP3   OH212068   6.734   2.619   4.365 -0.2051 -0.1431  0.0412
 4035TIP3    H112069   6.647   2.635   4.401 -1.9982  1.6228 -4.3215
 4035TIP3    H212070   6.723   2.540   4.312  1.1079 -0.3578  0.0562
 4036TIP3   OH212071   4.064   4.671   5.497 -0.2468  0.3399 -0.1225
 4036TIP3    H112072   4.041   4.580   5.514 -1.7336  0.2490 -2.3380
 4036TIP3    H212073   4.036   4.718   5.576 -2.2067 -0.7142 -0.1464
 4037TIP3   OH212074   5.649   0.343   4.964  0.4608  0.7223 -0.2514
 4037TIP3    H112075   5.714   0.332   4.894  0.7720  0.6586  0.0433
 4037TIP3    H212076   5.693   0.308   5.042  0.0387  0.6019 -0.0680
 4038TIP3   OH212077   2.649   2.789   4.987 -0.1389 -0.5825  0.0700
 4038TIP3    H112078   2.557   2.792   4.961  0.5010  0.5260 -2.4091
 4038TIP3    H212079   2.669   2.878   5.016  0.1759 -0.8233  0.6166
 4039TIP3   OH212080   0.644   3.208   4.591 -0.1492 -0.2082  0.2472
 4039TIP3    H112081   0.735   3.188   4.568 -0.6563 -0.7915 -1.3828
 4039TIP3    H212082   0.595   3.196   4.509 -1.8608 -0.8663  1.3156
 4040TIP3   OH212083   2.022   4.971   2.387  0.5513 -0.3192 -0.4060
 4040TIP3    H112084   1.933   4.971   2.352  0.0542  0.7712  0.7776
 4040TIP3    H212085   2.011   4.991   2.480  1.9361 -1.6747  0.0853
 4041TIP3   OH212086   0.800   2.056   0.492  0.8695  0.4039 -0.0707
 4041TIP3    H112087   0.726   2.117   0.494 -0.3879 -1.0726  0.9833
 4041TIP3    H212088   0.859   2.088   0.560 -0.9423 -0.8265  2.2424
 4042TIP3   OH212089   1.674   3.044   3.717  0.3175 -0.2068  0.2829
 4042TIP3    H112090   1.625   2.962   3.707 -1.7742  0.9079  0.6927
 4042TIP3    H212091   1.606   3.110   3.732  1.8557  1.7746 -0.9916
 4043TIP3   OH212092   4.289   2.057   5.780 -0.6903 -0.2459  0.3042
 4043TIP3    H112093   4.329   1.998   5.716  0.7889 -0.0974  1.0478
 4043TIP3    H212094   4.347   2.052   5.857 -2.7515 -0.9067  1.9064
 4044TIP3   OH212095   5.370   1.436   5.832  0.2189 -0.4808  0.3058
 4044TIP3    H112096   5.355   1.528   5.814  0.9639 -0.2993  0.5681
 4044TIP3    H212097   5.366   1.393   5.747  0.2884 -0.1465  0.1346
 4045TIP3   OH212098   4.060   3.922   2.288 -0.0154  0.1928  0.0485
 4045TIP3    H112099   4.148   3.913   2.252 -0.6310  0.9514 -1.7757
 4045TIP3    H212100   4.064   4.001   2.342  0.2969  0.5354 -0.4648
 4046TIP3   OH212101   4.166   4.023   4.537  0.3029 -0.1078  0.2348
 4046TIP3    H112102   4.144   3.974   4.617 -2.3107  0.3688 -0.1239
 4046TIP3    H212103   4.118   4.105   4.546 -0.0511 -0.0554 -1.8264
 4047TIP3   OH212104   1.918   1.425   4.201  0.3744 -0.2151  0.6113
 4047TIP3    H112105   2.006   1.436   4.165 -0.2623  1.2257 -0.5978
 4047TIP3    H212106   1.918   1.336   4.237  2.5464  0.0147  1.3303
 4048TIP3   OH212107   2.299   6.409   5.497  0.4518  0.5799  0.1059
 4048TIP3    H112108   2.334   6.370   5.577  0.5116  0.7770  0.1746
 4048TIP3    H212109   2.345   6.364   5.427 -0.7855 -0.8010  0.1122
 4049TIP3   OH212110   0.290   3.415   2.983  0.4116 -0.0105 -0.2859
 4049TIP3    H112111   0.274   3.344   3.045  1.1997  0.8324  0.9385
 4049TIP3    H212112   0.220   3.478   3.000  0.8528  0.3992  0.0329
 4050TIP3   OH212113   5.129   1.422   4.933  0.2538 -0.3373  0.6335
 4050TIP3    H112114   5.128   1.327   4.942  1.4278 -0.6885 -2.0955
 4050TIP3    H212115   5.042   1.445   4.903  0.7769 -0.9854 -1.5739
 4051TIP3   OH212116   0.226   5.927   5.096 -0.1961 -0.2116  0.2357
 4051TIP3    H112117   0.180   5.900   5.175 -0.2025 -0.0305  0.2950
 4051TIP3    H212118   0.297   5.864   5.086  0.1789  0.1259  0.7272
 4052TIP3   OH212119   6.694   5.633   3.558  0.2918 -0.7221  0.2182
 4052TIP3    H112120   6.632   5.601   3.493 -0.2694 -0.4876  0.6325
 4052TIP3    H212121   6.676   5.581   3.636  1.9663 -2.0651 -0.2157
 4053TIP3   OH212122   3.089   6.681   1.151 -0.0267 -0.4462 -0.2707
 4053TIP3    H112123   3.051   6.599   1.180  1.0174 -1.2242 -1.0283
 4053TIP3    H212124   3.022   6.747   1.171 -1.9417 -1.7844 -1.9301
 4054TIP3   OH212125   2.797   0.648   4.848 -0.6979 -0.7254  0.2118
 4054TIP3    H112126   2.847   0.624   4.926 -0.3112 -1.8720 -0.3732
 4054TIP3    H212127   2.827   0.588   4.780 -0.2967  0.9079 -1.1136
 4055TIP3   OH212128   3.528   0.808   1.098  0.3057 -0.2021  0.1083
 4055TIP3    H112129   3.588   0.743   1.134  0.6989 -0.3380 -0.7793
 4055TIP3    H212130   3.520   0.785   1.005  0.6870  1.1952 -0.2904
 4056TIP3   OH212131   2.874   6.235   2.240  0.2119 -0.1093  0.0646
 4056TIP3    H112132   2.892   6.325   2.212  0.5139  0.3480  1.6723
 4056TIP3    H212133   2.914   6.181   2.171 -1.3014  0.9463 -1.7416
 4057TIP3   OH212134   3.087   0.311   4.194  1.0891 -0.1000 -0.4237
 4057TIP3    H112135   3.160   0.368   4.220  0.1183  0.9042  0.2324
 4057TIP3    H212136   3.018   0.372   4.167  0.1895 -0.9834 -0.1756
 4058TIP3   OH212137   6.205   1.339   3.660 -0.7630  0.2564 -0.0536
 4058TIP3    H112138   6.209   1.258   3.609 -2.1031  0.4748 -0.5377
 4058TIP3    H212139   6.267   1.325   3.732 -1.4404 -1.4736  0.2477
 4059TIP3   OH212140   6.778   3.118   0.964 -0.3883 -0.3501  0.1280
 4059TIP3    H112141   6.778   3.043   1.025  0.4593 -0.0053  0.5762
 4059TIP3    H212142   6.848   3.098   0.902  0.8296  0.7011  1.0935
 4060TIP3   OH212143   1.816   3.585   2.266 -0.3746  0.8183 -0.2960
 4060TIP3    H112144   1.816   3.504   2.317  1.6168  1.0816  0.1974
 4060TIP3    H212145   1.875   3.644   2.314  0.3969  1.5824 -2.0929
 4061TIP3   OH212146   6.230   3.879   2.917 -0.0619 -0.1031  0.1167
 4061TIP3    H112147   6.325   3.879   2.926 -0.1161 -0.5628  0.8441
 4061TIP3    H212148   6.214   3.896   2.825  0.6875  1.4572  0.2407
 4062TIP3   OH212149   5.776   0.399   2.910  0.3509  0.1059  0.0196
 4062TIP3    H112150   5.851   0.455   2.892 -0.1787  0.5296 -0.9849
 4062TIP3    H212151   5.716   0.416   2.837 -1.8015  1.5909  1.9992
 4063TIP3   OH212152   2.992   0.034   4.972  0.1338  0.8380 -0.5893
 4063TIP3    H112153   2.943  -0.023   5.031  0.1397  1.3033 -0.1304
 4063TIP3    H212154   3.081   0.035   5.007  0.5486 -0.2039 -1.5613
 4064TIP3   OH212155   2.092   1.722   3.905  0.0385  0.1479  0.4222
 4064TIP3    H112156   2.137   1.678   3.833 -0.0046  0.5314  0.1572
 4064TIP3    H212157   2.157   1.783   3.940 -0.8761  2.2602 -1.3225
 4065TIP3   OH212158   3.919   6.617   2.391 -0.5215  0.2757  0.2462
 4065TIP3    H112159   3.865   6.618   2.312 -0.1862 -2.6160 -0.1061
 4065TIP3    H212160   4.007   6.599   2.360  0.0839  1.6016  1.1147
 4066TIP3   OH212161   0.828   6.025   1.832 -0.3934 -0.3317 -0.5491
 4066TIP3    H112162   0.803   5.968   1.905  0.7013  0.0569  0.1544
 4066TIP3    H212163   0.914   5.992   1.805 -0.0017  0.6188 -0.5040
 4067TIP3   OH212164   0.287   4.048   5.586  0.4857  0.4724  0.6434
 4067TIP3    H112165   0.324   4.133   5.563  0.4557  0.2524 -0.2499
 4067TIP3    H212166   0.290   3.997   5.505  1.7655 -0.8578  1.4581
 4068TIP3   OH212167   0.482   6.529   1.447  0.3579  0.2446  0.0597
 4068TIP3    H112168   0.438   6.488   1.373 -0.0819 -0.8605  0.9023
 4068TIP3    H212169   0.572   6.544   1.417  0.0174  0.4307 -0.9057
 4069TIP3   OH212170   6.842   5.659   0.668 -0.4539 -0.3592 -0.0081
 4069TIP3    H112171   6.890   5.576   0.667 -0.2220 -0.2321  0.4806
 4069TIP3    H212172   6.850   5.692   0.578  1.6778  0.3937  0.3993
 4070TIP3   OH212173   2.618   2.908   2.846 -0.0052  0.3537 -0.0084
 4070TIP3    H112174   2.539   2.886   2.797 -0.0990 -0.9774  0.7189
 4070TIP3    H212175   2.687   2.855   2.806 -0.2349 -1.3508  1.7609
 4071TIP3   OH212176   1.846   3.013   1.046  0.4180 -0.1705  0.3481
 4071TIP3    H112177   1.821   3.104   1.060 -0.2795 -0.3310  0.1947
 4071TIP3    H212178   1.844   3.003   0.951  2.9843  0.3288  0.1872
 4072TIP3   OH212179   5.393   3.508   2.538 -0.2804 -0.2165  0.1311
 4072TIP3    H112180   5.484   3.499   2.510 -0.4865 -0.7766 -0.3889
 4072TIP3    H212181   5.370   3.421   2.573 -0.5398 -0.0109  0.4754
 4073TIP3   OH212182   6.915   6.181   4.988 -0.3587  0.0629  0.1017
 4073TIP3    H112183   7.000   6.225   4.984  0.5328 -1.5991 -0.0851
 4073TIP3    H212184   6.887   6.177   4.897 -0.9760  1.1677  0.2182
 4074TIP3   OH212185   0.696   5.427   2.519  0.7206 -0.3578 -0.1304
 4074TIP3    H112186   0.602   5.447   2.516  0.7490 -0.0712  0.6309
 4074TIP3    H212187   0.708   5.381   2.602  1.4267  0.5417  0.2824
 4075TIP3   OH212188   4.392   5.225   5.488  0.1814 -0.2885  0.6087
 4075TIP3    H112189   4.431   5.175   5.559 -0.3357 -0.0510  1.0683
 4075TIP3    H212190   4.373   5.310   5.527 -1.3029 -0.5768  0.5601
 4076TIP3   OH212191   1.318   6.757   2.774 -0.5780 -0.4288 -0.2314
 4076TIP3    H112192   1.387   6.822   2.786 -0.8623 -0.1712  0.0214
 4076TIP3    H212193   1.298   6.726   2.862  0.6426 -2.0147 -0.4692
 4077TIP3   OH212194   3.599   4.984   5.506  0.5370 -0.1073 -0.0578
 4077TIP3    H112195   3.614   4.927   5.581 -0.4680  0.4513  0.5920
 4077TIP3    H212196   3.538   5.050   5.538 -0.6861 -0.4126 -1.6211
 4078TIP3   OH212197   2.393   3.196   5.463  0.1966  0.0997  0.8200
 4078TIP3    H112198   2.369   3.287   5.481 -0.1563  0.2172 -0.1696
 4078TIP3    H212199   2.394   3.191   5.368 -1.9425 -1.4578  0.8030
 4079TIP3   OH212200   4.493   3.553   0.479 -0.1348 -0.0691  0.3651
 4079TIP3    H112201   4.416   3.518   0.433 -0.8555  1.6381  0.1869
 4079TIP3    H212202   4.540   3.601   0.411 -1.2829  2.6065  1.3468
 4080TIP3   OH212203   4.959   6.197   5.442  0.9836  0.2466  0.0108
 4080TIP3    H112204   4.963   6.103   5.461  1.6895  0.3622  0.4630
 4080TIP3    H212205   5.016   6.208   5.366  0.3106  0.2011 -0.5076
 4081TIP3   OH212206   4.505   5.085   2.274 -0.1441  0.0193 -0.4676
 4081TIP3    H112207   4.585   5.042   2.306 -0.1817 -0.5089 -1.0798
 4081TIP3    H212208   4.434   5.033   2.312 -0.2362  1.2561  1.1543
 4082TIP3   OH212209   0.424   0.680   1.499 -0.2941 -0.0059 -0.2626
 4082TIP3    H112210   0.433   0.652   1.408 -1.9976 -0.0101 -0.4602
 4082TIP3    H212211   0.361   0.619   1.537 -1.5223  1.5065  0.2212
 4083TIP3   OH212212   3.032   0.073   1.604  0.5050 -0.0224 -0.0503
 4083TIP3    H112213   3.057   0.015   1.676 -0.4477  0.2314  0.5071
 4083TIP3    H212214   2.948   0.038   1.574 -0.4981  1.5162  0.8334
 4084TIP3   OH212215   5.946   2.166   0.473  0.2308  0.8660  0.0771
 4084TIP3    H112216   6.029   2.212   0.462  0.6939  0.0790  0.2231
 4084TIP3    H212217   5.941   2.106   0.399  0.6896 -0.4179  1.0402
 4085TIP3   OH212218   0.033   4.691   0.755 -0.2874 -0.1325 -0.1687
 4085TIP3    H112219   0.004   4.780   0.774 -1.6885 -0.4828 -0.6186
 4085TIP3    H212220   0.034   4.648   0.840  1.2844  0.5284  0.1954
 4086TIP3   OH212221   2.221   5.229   3.862  0.0139  0.4203 -0.6394
 4086TIP3    H112222   2.249   5.271   3.943  1.3228 -0.6383 -0.5064
 4086TIP3    H212223   2.125   5.234   3.863 -0.1154 -1.0796  1.8405
 4087TIP3   OH212224   0.706   4.150   2.615 -0.1343  0.4803  0.6119
 4087TIP3    H112225   0.631   4.202   2.644 -1.1431  0.1352 -1.2406
 4087TIP3    H212226   0.730   4.099   2.692 -4.2165 -2.2025  0.4029
 4088TIP3   OH212227   4.604   0.514   3.531  0.6023 -0.5181  0.0456
 4088TIP3    H112228   4.649   0.505   3.447  0.5478  2.3506 -0.3738
 4088TIP3    H212229   4.512   0.493   3.511  0.7248 -0.6093 -0.4285
 4089TIP3   OH212230   0.977   5.913   3.691 -0.2107  0.0369 -0.3186
 4089TIP3    H112231   0.933   5.967   3.626 -1.4608  2.4739  2.3379
 4089TIP3    H212232   1.060   5.959   3.708  0.3906 -0.9161 -0.5931
 4090TIP3   OH212233   4.469   5.316   1.964  0.1839 -0.1565 -0.2191
 4090TIP3    H112234   4.407   5.388   1.965  0.5402  0.1626 -0.8190
 4090TIP3    H212235   4.533   5.339   2.031  1.6920  1.3528 -2.0613
 4091TIP3   OH212236   2.270   2.276   0.896 -0.1006  0.3109 -0.4594
 4091TIP3    H112237   2.230   2.274   0.809 -1.6847 -0.2034  0.2266
 4091TIP3    H212238   2.211   2.332   0.947  1.2384  1.2560  0.0996
 4092TIP3   OH212239   3.376   3.665   4.432 -0.4774  0.3277 -0.0954
 4092TIP3    H112240   3.409   3.587   4.477 -0.0792 -0.0828 -1.0878
 4092TIP3    H212241   3.287   3.675   4.466 -1.3981 -1.9194 -1.6261
 4093TIP3   OH212242   3.063   1.449   1.188  0.0483  0.1329  0.1416
 4093TIP3    H112243   3.088   1.390   1.260 -0.6595 -0.1547  0.1600
 4093TIP3    H212244   3.067   1.536   1.227 -1.7712 -0.1165  0.9908
 4094TIP3   OH212245   2.314   4.263   5.797  0.2163  0.1284 -0.1074
 4094TIP3    H112246   2.385   4.255   5.733  1.6030  0.1304  1.3537
 4094TIP3    H212247   2.359   4.283   5.879 -1.4800 -0.1260  0.9192
 4095TIP3   OH212248   0.216   2.493   0.630 -0.2884 -0.2612 -0.0003
 4095TIP3    H112249   0.173   2.527   0.708 -0.2466 -1.7679  0.7272
 4095TIP3    H212250   0.183   2.403   0.622 -0.7895  0.0555 -2.0943
 4096TIP3   OH212251   3.269   5.432   3.228 -0.0899 -0.1209  0.2543
 4096TIP3    H112252   3.229   5.422   3.315  0.5126 -0.4565  0.4950
 4096TIP3    H212253   3.294   5.524   3.224  1.3037 -0.4301  1.0758
 4097TIP3   OH212254   1.135   3.034   5.440 -0.1345 -0.1951 -0.4710
 4097TIP3    H112255   1.169   2.944   5.442 -1.2874 -0.6443  1.6343
 4097TIP3    H212256   1.056   3.031   5.494 -2.0450  1.3933 -2.9536
 4098TIP3   OH212257   2.321   2.646   2.089  0.1822  0.4351  0.4569
 4098TIP3    H112258   2.414   2.659   2.074  0.5914 -0.8941  1.6485
 4098TIP3    H212259   2.281   2.730   2.066  1.6501  1.0040 -0.1262
 4099TIP3   OH212260   1.512   3.963   4.407 -0.2978 -0.0864  0.3560
 4099TIP3    H112261   1.523   3.940   4.315 -1.1406  1.9379 -0.3133
 4099TIP3    H212262   1.540   4.055   4.412  0.9863 -0.5256  2.3996
 4100TIP3   OH212263   2.767   4.730   3.457  0.3545 -0.5414  0.1470
 4100TIP3    H112264   2.729   4.725   3.369  0.9478 -0.9961 -0.0854
 4100TIP3    H212265   2.850   4.775   3.444 -1.0362  2.5356  0.9647
 4101TIP3   OH212266   3.858   2.563   1.212 -0.2734 -0.0309 -0.1444
 4101TIP3    H112267   3.812   2.543   1.293 -0.0117 -0.5312 -0.1170
 4101TIP3    H212268   3.895   2.479   1.184  1.4369  0.5139  0.3461
 4102TIP3   OH212269   0.304   4.456   5.779 -0.1697  0.2401  0.5011
 4102TIP3    H112270   0.330   4.511   5.853 -1.6123 -0.2096  1.3695
 4102TIP3    H212271   0.282   4.371   5.817  1.1611 -0.7056 -0.7239
 4103TIP3   OH212272   4.041   2.502   1.694  0.1989  0.0599  0.5105
 4103TIP3    H112273   4.069   2.591   1.715 -1.2690  1.1705 -1.8704
 4103TIP3    H212274   4.100   2.473   1.626 -0.3852 -0.1035  0.0654
 4104TIP3   OH212275   5.206   1.929   5.480 -0.7008 -0.3242 -0.4402
 4104TIP3    H112276   5.268   1.866   5.514 -0.2886  0.4621  0.3054
 4104TIP3    H212277   5.227   1.937   5.387  0.2084 -0.1928 -0.2281
 4105TIP3   OH212278   6.647   0.061   2.414  0.3534  0.6482  0.7045
 4105TIP3    H112279   6.592   0.112   2.354  1.6118  0.5696 -0.5497
 4105TIP3    H212280   6.637  -0.029   2.385  0.5190  0.5321  0.9974
 4106TIP3   OH212281   6.585   1.647   1.669  0.0729  0.3564  0.0898
 4106TIP3    H112282   6.584   1.649   1.574  0.6061  0.2676  0.0756
 4106TIP3    H212283   6.673   1.678   1.692  0.8574 -1.9659  0.4716
 4107TIP3   OH212284   2.139   3.906   3.667  0.0526  0.0595  0.3801
 4107TIP3    H112285   2.182   3.821   3.678 -0.0722 -0.3026 -1.5034
 4107TIP3    H212286   2.207   3.962   3.628 -0.3836  0.2933 -0.0527
 4108TIP3   OH212287   5.728   4.847   1.893  0.8345 -0.5625  0.3867
 4108TIP3    H112288   5.758   4.870   1.805  1.0116 -0.7742  0.3906
 4108TIP3    H212289   5.772   4.910   1.950 -0.1395  0.2802  0.2226
 4109TIP3   OH212290   4.061   2.371   4.917  0.2372  0.5002 -0.3885
 4109TIP3    H112291   4.123   2.303   4.945 -0.2978 -1.3199 -3.2523
 4109TIP3    H212292   4.044   2.421   4.997  2.6804 -1.0822  1.2786
 4110TIP3   OH212293   5.587   6.640   1.324 -0.3251 -0.5885 -0.0919
 4110TIP3    H112294   5.598   6.601   1.410  0.7291 -0.5656 -0.1977
 4110TIP3    H212295   5.667   6.617   1.277 -0.1302  0.8190 -0.4973
 4111TIP3   OH212296   1.716   0.124   4.999  0.0250 -0.0621  0.3471
 4111TIP3    H112297   1.621   0.115   4.993 -0.0818  1.0240  0.2809
 4111TIP3    H212298   1.741   0.069   5.073 -1.0317  1.9928  2.3379
 4112TIP3   OH212299   3.345   2.319   5.826 -0.3653  0.5256  0.1961
 4112TIP3    H112300   3.417   2.335   5.888 -0.4432  0.2646  0.3546
 4112TIP3    H212301   3.305   2.237   5.856  0.2515 -0.1636 -0.8247
 4113TIP3   OH212302   2.250   6.542   0.113  0.0944 -0.0291  0.0387
 4113TIP3    H112303   2.277   6.553   0.021  0.4860 -1.8455 -0.1057
 4113TIP3    H212304   2.255   6.630   0.150 -1.0326  0.9457 -1.9237
 4114TIP3   OH212305   2.761   4.077   5.347  0.9787 -0.1558 -0.0842
 4114TIP3    H112306   2.820   4.150   5.367  1.4818 -0.3642 -0.7620
 4114TIP3    H212307   2.747   4.084   5.252 -0.4731  0.1727  0.1402
 4115TIP3   OH212308   5.508   0.216   4.444  0.0986 -0.0302 -0.1626
 4115TIP3    H112309   5.442   0.273   4.404  0.4431 -0.1128 -0.8725
 4115TIP3    H212310   5.464   0.177   4.520 -1.2977 -1.4624 -1.6142
 4116TIP3   OH212311   3.208   0.668   4.329 -0.2874 -0.0827  0.1941
 4116TIP3    H112312   3.218   0.637   4.239  0.6154  1.2126 -0.1779
 4116TIP3    H212313   3.282   0.630   4.376 -0.3220 -0.1269  0.2134
 4117TIP3   OH212314   5.587   2.682   1.439 -0.2754  0.2677 -0.3314
 4117TIP3    H112315   5.565   2.592   1.464  0.8428  0.6295  2.2744
 4117TIP3    H212316   5.672   2.674   1.395  0.9767  0.1798  1.9441
 4118TIP3   OH212317   5.810   3.375   1.952  0.4004  0.2159  0.2802
 4118TIP3    H112318   5.837   3.404   1.864 -0.5657  1.4578  0.3698
 4118TIP3    H212319   5.847   3.288   1.960 -0.3812 -0.3731 -1.7940
 4119TIP3   OH212320   4.700   6.788   0.499  0.1875  0.4956 -0.0116
 4119TIP3    H112321   4.735   6.720   0.440  1.2509  0.8690  0.1625
 4119TIP3    H212322   4.749   6.776   0.581 -0.1415  0.9973  0.2626
 4120TIP3   OH212323   5.388   3.791   3.397  0.5136 -0.2554  0.2434
 4120TIP3    H112324   5.426   3.733   3.331 -2.2599 -1.1318 -0.7444
 4120TIP3    H212325   5.450   3.789   3.470  1.3367 -3.1487 -0.4106
 4121TIP3   OH212326   4.233   4.629   4.941 -0.0915 -0.0917 -0.2457
 4121TIP3    H112327   4.296   4.684   4.894 -1.9243  0.4540 -2.1748
 4121TIP3    H212328   4.188   4.690   4.999  1.5434 -0.6116  1.7207
 4122TIP3   OH212329   5.412   4.703   5.583  0.2670 -0.5018 -0.1321
 4122TIP3    H112330   5.435   4.703   5.676 -1.7895 -0.4381  0.4138
 4122TIP3    H212331   5.482   4.652   5.542  1.7272  0.2325  1.2842
 4123TIP3   OH212332   3.790   1.603   2.568  0.6526  0.1718 -0.1381
 4123TIP3    H112333   3.787   1.659   2.646  2.2501  0.5471 -0.3245
 4123TIP3    H212334   3.787   1.664   2.494  1.3362 -0.0510 -0.3531
 4124TIP3   OH212335   2.101   5.765   3.900  0.4056  0.1863 -0.4922
 4124TIP3    H112336   2.109   5.681   3.857  0.2743  0.7127 -1.5731
 4124TIP3    H212337   2.088   5.744   3.993  2.7261 -0.9394 -0.3517
 4125TIP3   OH212338   2.021   3.598   4.462 -0.2289 -0.3120  0.0508
 4125TIP3    H112339   2.013   3.588   4.557  1.8394 -1.0677  0.2095
 4125TIP3    H212340   2.098   3.654   4.450 -1.8816  1.8682 -1.1972
 4126TIP3   OH212341   2.351   1.287   5.678  0.1239 -0.3716 -0.1227
 4126TIP3    H112342   2.269   1.237   5.675  0.0182 -0.2034 -0.0492
 4126TIP3    H212343   2.412   1.237   5.623  0.0768 -0.6820  0.1065
 4127TIP3   OH212344   6.110   5.367   0.961 -0.2880 -0.7605 -0.1035
 4127TIP3    H112345   6.182   5.334   0.907  0.2105 -0.4350  0.3555
 4127TIP3    H212346   6.153   5.408   1.036 -0.8206  1.7053 -1.0624
 4128TIP3   OH212347   6.461   0.581   2.447  0.3041 -0.3750  0.2843
 4128TIP3    H112348   6.404   0.533   2.507  0.9249 -1.6534 -0.1075
 4128TIP3    H212349   6.401   0.614   2.379 -0.4359  1.3099  1.6933
 4129TIP3   OH212350   2.305   2.559   5.234  0.5076  0.2292 -0.1248
 4129TIP3    H112351   2.253   2.640   5.240 -0.2348 -0.2499  0.0688
 4129TIP3    H212352   2.252   2.502   5.178 -0.2367 -1.0563  1.7818
 4130TIP3   OH212353   1.517   0.853   3.425 -0.3354 -0.0595  0.3401
 4130TIP3    H112354   1.562   0.774   3.455 -1.2468 -0.3910  0.8805
 4130TIP3    H212355   1.584   0.921   3.427  0.7881 -1.0580 -1.3222
 4131TIP3   OH212356   5.167   5.223   1.256  0.0982  0.0762  0.0579
 4131TIP3    H112357   5.127   5.254   1.174 -0.9878  0.1247  0.5918
 4131TIP3    H212358   5.242   5.171   1.227 -1.0605 -1.0817 -1.0526
 4132TIP3   OH212359   0.743   1.758   3.939 -0.2751 -0.2653  0.2671
 4132TIP3    H112360   0.795   1.837   3.930 -1.4529  0.5845  0.6693
 4132TIP3    H212361   0.750   1.714   3.854 -0.5502  0.8611 -0.3519
 4133TIP3   OH212362   2.169   6.643   0.573  0.1726 -0.1479  0.3634
 4133TIP3    H112363   2.169   6.720   0.630 -0.6627  0.1531 -0.0188
 4133TIP3    H212364   2.149   6.679   0.486 -0.7697 -0.8604  0.2806
 4134TIP3   OH212365   6.583   0.299   3.594 -0.3797 -0.3080 -0.1746
 4134TIP3    H112366   6.558   0.211   3.565 -0.5643 -0.5616  0.6978
 4134TIP3    H212367   6.504   0.351   3.585 -0.1342 -0.1000 -1.1670
 4135TIP3   OH212368   2.193   4.857   1.779  0.0715  0.0125  0.0122
 4135TIP3    H112369   2.133   4.819   1.843  1.8254  0.4784  2.0861
 4135TIP3    H212370   2.237   4.782   1.740 -2.1678 -0.3645 -1.9763
 4136TIP3   OH212371   5.663   0.467   4.377 -0.4858  0.2126 -0.1723
 4136TIP3    H112372   5.696   0.445   4.290  1.6610 -0.1269  0.6661
 4136TIP3    H212373   5.603   0.396   4.399 -0.0147 -0.4158 -0.8491
 4137TIP3   OH212374   3.810   4.469   1.161 -0.0611 -0.4733  0.0483
 4137TIP3    H112375   3.799   4.427   1.246  1.2507 -1.0888 -0.0607
 4137TIP3    H212376   3.891   4.432   1.126  0.7491  1.5519 -0.4112
 4138TIP3   OH212377   1.513   5.447   5.042  0.2713 -0.3906  0.0625
 4138TIP3    H112378   1.421   5.463   5.025  0.6611 -0.0170 -1.9619
 4138TIP3    H212379   1.547   5.529   5.078 -0.0713 -0.3738  0.3482
 4139TIP3   OH212380   3.333   6.710   3.520 -0.4314 -0.4116  0.4732
 4139TIP3    H112381   3.241   6.735   3.516  0.2331  2.1514 -0.9263
 4139TIP3    H212382   3.345   6.648   3.448 -0.6868  0.8393 -0.6876
 4140TIP3   OH212383   1.245   1.489   4.109 -0.4087  0.2131 -0.2595
 4140TIP3    H112384   1.154   1.475   4.082 -0.3002  1.3037 -1.2544
 4140TIP3    H212385   1.296   1.474   4.029  0.2680 -0.1086  0.2261
 4141TIP3   OH212386   4.938   5.614   4.380  0.2386 -0.3362 -0.8034
 4141TIP3    H112387   4.981   5.537   4.344 -0.9143 -2.2527  1.6478
 4141TIP3    H212388   4.974   5.624   4.468 -0.7745  0.9841 -0.4969
 4142TIP3   OH212389   4.263   5.398   1.149 -0.3428 -0.1523  0.0450
 4142TIP3    H112390   4.337   5.358   1.103 -0.2649  1.3150 -1.1883
 4142TIP3    H212391   4.223   5.325   1.196  1.2668 -1.1851 -0.0709
 4143TIP3   OH212392   3.625   6.342   3.287 -0.6012 -0.0530  0.1833
 4143TIP3    H112393   3.716   6.318   3.270 -0.0948  1.3905  0.7189
 4143TIP3    H212394   3.576   6.305   3.213  0.7023  0.9239 -1.2259
 4144TIP3   OH212395   3.274   0.395   1.492  0.9415 -0.6722  0.5836
 4144TIP3    H112396   3.342   0.373   1.556 -0.7766 -0.7194  2.5286
 4144TIP3    H212397   3.234   0.474   1.527  1.8549  1.0923 -2.1021
 4145TIP3   OH212398   2.795   4.368   1.061  0.2830 -0.0759 -0.2150
 4145TIP3    H112399   2.746   4.423   1.122 -0.6532 -1.2317  0.1290
 4145TIP3    H212400   2.883   4.404   1.061  0.0485  0.5572  1.0547
 4146TIP3   OH212401   2.531   4.267   1.237 -0.2731 -0.2592 -0.1485
 4146TIP3    H112402   2.440   4.285   1.211 -0.4345 -0.2185  0.4326
 4146TIP3    H212403   2.550   4.332   1.304  0.1821 -0.2782 -0.2585
 4147TIP3   OH212404   1.977   2.955   4.799 -0.2833 -0.2442  0.5925
 4147TIP3    H112405   2.010   3.035   4.758  1.1665 -0.2356  1.6935
 4147TIP3    H212406   1.943   2.985   4.883  0.0615 -0.7538  0.9122
 4148TIP3   OH212407   4.414   6.763   3.379  0.1533  0.1738  0.8293
 4148TIP3    H112408   4.320   6.750   3.395 -0.1874  0.0213 -1.0970
 4148TIP3    H212409   4.456   6.723   3.455 -1.3135 -0.7559  1.1988
 4149TIP3   OH212410   6.551   5.297   0.487 -0.2327  0.2807 -0.0092
 4149TIP3    H112411   6.610   5.347   0.430  0.0079  0.5733  0.4872
 4149TIP3    H212412   6.482   5.359   0.510  0.6289  0.7516  1.4743
 4150TIP3   OH212413   5.828   4.494   5.498 -0.4700 -0.2216 -0.2223
 4150TIP3    H112414   5.830   4.582   5.462 -1.3506 -1.0162 -2.3861
 4150TIP3    H212415   5.741   4.485   5.536 -0.4307 -0.2067 -0.1290
 4151TIP3   OH212416   3.014   4.097   1.676  0.1584 -0.2508 -0.0379
 4151TIP3    H112417   2.949   4.027   1.663  0.1211 -0.4424  1.0555
 4151TIP3    H212418   3.073   4.089   1.601 -0.6482 -0.5552 -0.6582
 4152TIP3   OH212419   6.663   5.821   0.087 -0.1654 -0.3582  0.0410
 4152TIP3    H112420   6.696   5.910   0.100  0.9601 -0.8545  0.7381
 4152TIP3    H212421   6.623   5.798   0.170 -2.5106  0.2771 -0.8275
 4153TIP3   OH212422   1.864   1.600   1.597  0.6344 -0.3163  0.2226
 4153TIP3    H112423   1.943   1.611   1.649 -0.1823  0.1078  1.4052
 4153TIP3    H212424   1.809   1.675   1.620 -1.3697 -2.1229  1.7611
 4154TIP3   OH212425   2.893   3.385   3.936 -0.1000  0.0578 -0.2248
 4154TIP3    H112426   2.945   3.390   3.856 -1.6535  0.6363 -1.2610
 4154TIP3    H212427   2.912   3.467   3.982  0.8859 -0.3281  0.0627
 4155TIP3   OH212428   0.581   1.470   2.196 -1.2236 -0.0837  0.0850
 4155TIP3    H112429   0.586   1.463   2.291  1.6605 -1.3310 -0.0420
 4155TIP3    H212430   0.540   1.388   2.168  0.1408 -0.8163  0.1778
 4156TIP3   OH212431   2.752   3.437   4.800  0.7617 -0.2858 -0.3107
 4156TIP3    H112432   2.688   3.465   4.735  0.9683  0.8398 -0.0525
 4156TIP3    H212433   2.836   3.463   4.764  0.9491 -0.4320  0.0197
 4157TIP3   OH212434   3.533   3.477   5.483 -0.0993  0.6011 -0.5359
 4157TIP3    H112435   3.509   3.521   5.565  0.0743 -1.2392  0.5578
 4157TIP3    H212436   3.452   3.476   5.431 -0.0087  2.5298 -0.8079
 4158TIP3   OH212437   4.320   2.512   2.704  0.3192  0.0399 -1.1078
 4158TIP3    H112438   4.353   2.435   2.657  0.5315 -1.0339  0.6812
 4158TIP3    H212439   4.389   2.577   2.698  1.5441 -1.0919  0.0178
 4159TIP3   OH212440   6.615   3.454   4.338  0.4679 -0.1495 -0.0613
 4159TIP3    H112441   6.650   3.395   4.272 -0.6701 -1.3985  0.3984
 4159TIP3    H212442   6.528   3.479   4.305  0.3050  0.0250  0.4828
 4160TIP3   OH212443   4.643   6.188   0.299  0.1991 -0.2137  0.1392
 4160TIP3    H112444   4.639   6.123   0.229 -0.3898  1.2488 -1.2530
 4160TIP3    H212445   4.734   6.218   0.300  0.2162 -0.2645  0.0277
 4161TIP3   OH212446   2.378   2.577   4.055  0.3809  0.3150 -0.9832
 4161TIP3    H112447   2.387   2.506   3.992  1.8080 -0.2402 -0.1929
 4161TIP3    H212448   2.426   2.547   4.132 -0.0910  1.5961 -0.1552
 4162TIP3   OH212449   2.974   4.647   0.854 -0.5402 -0.3442  0.0604
 4162TIP3    H112450   3.001   4.574   0.909 -0.0583 -0.1587  0.0824
 4162TIP3    H212451   3.041   4.650   0.785 -1.6905 -1.2136 -1.1336
 4163TIP3   OH212452   0.630   3.274   2.624 -1.1656  0.4561  0.0543
 4163TIP3    H112453   0.649   3.353   2.676 -0.4837  0.0358  0.4599
 4163TIP3    H212454   0.537   3.257   2.639 -0.6324 -0.6567  2.6033
 4164TIP3   OH212455   1.234   4.041   1.730  0.1522  0.0026  0.5276
 4164TIP3    H112456   1.250   4.020   1.822  0.9901 -0.8195  0.2109
 4164TIP3    H212457   1.240   4.136   1.725 -0.4556  0.0928  1.4222
 4165TIP3   OH212458   2.771   1.035   4.729  0.3500  0.1477  0.4141
 4165TIP3    H112459   2.866   1.045   4.739  0.3343 -0.2397  0.9753
 4165TIP3    H212460   2.756   0.941   4.736 -0.0864  0.2169  0.4347
 4166TIP3   OH212461   6.424   3.149   2.191  0.2600 -0.2283 -0.1667
 4166TIP3    H112462   6.450   3.058   2.205  1.5371  0.0664 -0.5136
 4166TIP3    H212463   6.459   3.197   2.266  0.0211  0.0614 -0.2342
 4167TIP3   OH212464   5.493   5.263   0.520  0.1988  0.2802  0.4757
 4167TIP3    H112465   5.498   5.172   0.491 -0.8663  0.3968 -0.1169
 4167TIP3    H212466   5.449   5.259   0.605  0.1358  0.2442  0.4414
 4168TIP3   OH212467   3.512   2.716   2.080 -0.0200  0.3034 -0.0999
 4168TIP3    H112468   3.506   2.794   2.134  0.6690 -0.2309  0.7809
 4168TIP3    H212469   3.582   2.735   2.018 -1.5597  1.3593 -1.6098
 4169TIP3   OH212470   4.855   1.911   1.831  0.2009  0.0817 -0.5024
 4169TIP3    H112471   4.816   1.957   1.905 -0.2206 -1.1590  0.0831
 4169TIP3    H212472   4.911   1.844   1.872  0.3472 -0.2974 -1.3078
 4170TIP3   OH212473   2.419   1.628   1.240  0.1445 -0.0765  0.1018
 4170TIP3    H112474   2.432   1.618   1.146  1.4236  1.0130  0.1358
 4170TIP3    H212475   2.506   1.649   1.274 -0.5956  1.1641  1.3027
 4171TIP3   OH212476   0.081   6.272   4.106  0.4165  0.3332  0.6218
 4171TIP3    H112477   0.069   6.328   4.183  0.2023  0.4955  0.4706
 4171TIP3    H212478   0.089   6.184   4.141  0.5634  0.4360  0.8479
 4172TIP3   OH212479   0.275   3.670   4.076 -0.5120  0.5104 -0.7293
 4172TIP3    H112480   0.261   3.714   3.992 -2.4109  0.4590 -0.4934
 4172TIP3    H212481   0.244   3.581   4.062  0.6284  0.0502 -0.3957
 4173TIP3   OH212482   6.401   1.025   5.395  0.2076 -0.2696 -0.2326
 4173TIP3    H112483   6.396   1.048   5.302 -0.1650 -2.0723 -0.7073
 4173TIP3    H212484   6.449   0.942   5.397 -1.1092 -1.0547  1.0073
 4174TIP3   OH212485   5.883   2.884   0.367  0.2564 -0.3636 -0.0227
 4174TIP3    H112486   5.791   2.867   0.386  0.2225  1.1491  1.3825
 4174TIP3    H212487   5.931   2.834   0.432  0.2101  2.7760  2.6751
 4175TIP3   OH212488   0.705   4.311   3.577 -0.2101  0.9686  0.1729
 4175TIP3    H112489   0.789   4.354   3.593 -0.4672  1.2473  0.7879
 4175TIP3    H212490   0.669   4.294   3.664 -0.2943 -0.1568 -0.0566
 4176TIP3   OH212491   1.382   2.226   3.630 -0.3652 -0.1272  0.0468
 4176TIP3    H112492   1.307   2.172   3.655 -1.0478 -0.9262 -3.2633
 4176TIP3    H212493   1.433   2.172   3.571  0.2038  2.0128 -1.5610
 4177TIP3   OH212494   1.926   3.300   0.886 -0.3627  0.6635 -0.3448
 4177TIP3    H112495   1.838   3.281   0.919 -0.6350  0.4617 -1.1823
 4177TIP3    H212496   1.979   3.309   0.966 -1.0998  0.6322  0.1654
 4178TIP3   OH212497   5.938   3.984   5.502 -0.1128 -0.3311  0.2450
 4178TIP3    H112498   5.874   4.036   5.550 -1.6199 -3.0595  1.4130
 4178TIP3    H212499   5.992   4.048   5.456 -2.2155  2.1826  1.0652
 4179TIP3   OH212500   0.975   3.634   3.325  0.6532 -0.5327 -0.6541
 4179TIP3    H112501   0.956   3.548   3.363 -0.3547  0.2547  0.7306
 4179TIP3    H212502   0.940   3.696   3.389 -2.2531  0.8919 -3.4101
 4180TIP3   OH212503   3.933   5.507   3.118 -0.0230 -0.0741 -0.3768
 4180TIP3    H112504   3.958   5.596   3.092  0.0392 -0.1846 -0.6925
 4180TIP3    H212505   3.917   5.461   3.036  1.2687 -0.7429 -0.2805
 4181TIP3   OH212506   7.187   5.753   0.663 -0.3670 -0.2382 -0.1863
 4181TIP3    H112507   7.270   5.711   0.690 -0.9969 -2.1974 -1.0895
 4181TIP3    H212508   7.138   5.762   0.745 -0.2400 -1.4065  0.0422
 4182TIP3   OH212509   0.858   4.557   2.995  0.3272 -0.2670 -0.7112
 4182TIP3    H112510   0.829   4.469   2.970 -0.4069 -0.5006  0.8567
 4182TIP3    H212511   0.948   4.545   3.024 -0.1941 -0.7923  0.7971
 4183TIP3   OH212512   2.681   2.549   4.103 -0.3810 -0.1043  0.2357
 4183TIP3    H112513   2.761   2.546   4.049 -0.3847  0.2304  0.2090
 4183TIP3    H212514   2.709   2.517   4.189 -0.7730 -2.3825 -0.4302
 4184TIP3   OH212515   2.053   0.447   1.502  0.2220  0.0148  0.4004
 4184TIP3    H112516   1.961   0.474   1.498 -0.2574 -1.3670  1.2376
 4184TIP3    H212517   2.085   0.457   1.413 -0.6637  0.7968  0.1590
 4185TIP3   OH212518   2.775   4.183   1.481  0.4533 -0.4718 -0.6741
 4185TIP3    H112519   2.854   4.215   1.438  0.5931  1.6205  0.9967
 4185TIP3    H212520   2.707   4.247   1.459 -0.5579 -1.6915 -1.2531
 4186TIP3   OH212521   3.804   4.236   4.065 -0.2510  0.1238 -0.4888
 4186TIP3    H112522   3.779   4.146   4.047 -2.0983  0.4172  0.4031
 4186TIP3    H212523   3.721   4.284   4.072  0.6773  2.0529 -1.5908
 4187TIP3   OH212524   2.950   6.696   5.159 -0.3672  0.5352  0.4683
 4187TIP3    H112525   2.976   6.624   5.215  3.1742  0.5600 -0.9243
 4187TIP3    H212526   2.864   6.670   5.125 -0.2182 -1.8976  1.7798
 4188TIP3   OH212527   0.581   2.083   2.561 -0.1325 -0.1041 -0.0014
 4188TIP3    H112528   0.573   2.030   2.482 -1.7375 -0.4496  0.3517
 4188TIP3    H212529   0.504   2.140   2.560  0.3992  0.6618  0.7554
 4189TIP3   OH212530   3.752   1.239   3.801 -0.0909 -0.3486 -1.0509
 4189TIP3    H112531   3.844   1.231   3.825 -0.0598  0.1177 -1.0145
 4189TIP3    H212532   3.714   1.153   3.822  0.8455 -1.4133 -3.3729
 4190TIP3   OH212533   4.246   6.352   1.836 -0.6843 -0.2332  0.2356
 4190TIP3    H112534   4.333   6.372   1.800 -0.8412 -0.5456 -0.3315
 4190TIP3    H212535   4.250   6.258   1.856 -0.3721  0.0552  1.6975
 4191TIP3   OH212536   1.768   3.435   0.584 -0.0340  0.3445  0.7283
 4191TIP3    H112537   1.699   3.461   0.645  0.3260  0.6796  0.9990
 4191TIP3    H212538   1.782   3.513   0.530 -0.4823 -0.0120  0.0888
 4192TIP3   OH212539   1.395   6.449   1.348 -0.1453 -0.0895  0.1472
 4192TIP3    H112540   1.480   6.485   1.321 -1.1890  0.9595 -1.9714
 4192TIP3    H212541   1.376   6.492   1.431  1.7669 -1.0595  1.1734
 4193TIP3   OH212542   4.789   3.301   2.632  0.4932 -0.1257  0.1291
 4193TIP3    H112543   4.836   3.274   2.711  0.4746  0.1874  0.2458
 4193TIP3    H212544   4.840   3.264   2.560  0.4423 -0.5170  0.2899
 4194TIP3   OH212545   2.456   6.060   4.405 -0.6562  0.1700  0.6133
 4194TIP3    H112546   2.363   6.035   4.397 -0.5223 -0.8761  1.9565
 4194TIP3    H212547   2.502   5.996   4.351 -0.7234  1.0176 -0.4939
 4195TIP3   OH212548   6.948   3.039   4.774  0.0188 -0.1653 -0.6567
 4195TIP3    H112549   7.036   3.073   4.760  0.1231  0.0992  0.5111
 4195TIP3    H212550   6.960   2.946   4.794 -0.0875 -0.4294 -1.7745
 4196TIP3   OH212551   5.270   4.412   5.627  0.2150  0.4752 -0.5713
 4196TIP3    H112552   5.322   4.343   5.669 -1.3224 -1.0212 -1.0107
 4196TIP3    H212553   5.180   4.390   5.649 -0.3569  2.0360 -1.2352
 4197TIP3   OH212554   6.364   3.167   5.876 -0.7571 -0.1546  0.9316
 4197TIP3    H112555   6.407   3.110   5.812 -0.7265 -0.8969  1.5915
 4197TIP3    H212556   6.421   3.243   5.883  0.5205 -1.1507  1.8524
 4198TIP3   OH212557   6.019   4.535   0.432  0.0800  0.2678 -0.0091
 4198TIP3    H112558   6.021   4.545   0.528 -1.5124  0.5619  0.0308
 4198TIP3    H212559   6.079   4.602   0.399 -0.5481  1.2442  0.7500
 4199TIP3   OH212560   4.352   6.201   0.069  0.1292  0.0103  0.3609
 4199TIP3    H112561   4.283   6.173   0.010  2.2607 -0.7336 -1.9457
 4199TIP3    H212562   4.367   6.125   0.126 -0.6010  0.0136  0.5729
 4200TIP3   OH212563   5.583   4.287   2.277 -0.0782 -0.1618  0.4596
 4200TIP3    H112564   5.611   4.196   2.289 -2.0832 -0.9922 -0.6896
 4200TIP3    H212565   5.488   4.282   2.270 -0.0737  1.4581 -3.6498
 4201TIP3   OH212566   0.946   0.213   0.972  0.5475  0.0913  0.2138
 4201TIP3    H112567   0.990   0.131   0.951  1.4811  0.9793 -1.6213
 4201TIP3    H212568   0.881   0.224   0.902 -0.0408  0.5765  0.8247
 4202TIP3   OH212569   2.922   4.703   5.491 -0.7585 -0.1208  0.0427
 4202TIP3    H112570   2.861   4.629   5.499 -2.0870  1.1152  2.4465
 4202TIP3    H212571   2.866   4.780   5.501  0.9914  1.1287  0.5030
 4203TIP3   OH212572   7.217   6.106   0.377  0.1512 -0.8248 -0.0426
 4203TIP3    H112573   7.126   6.118   0.349  0.2771  0.0333 -0.1047
 4203TIP3    H212574   7.267   6.098   0.296  0.3546  0.4704 -0.0703
 4204TIP3   OH212575   1.873   0.243   2.761  0.5090  0.2799 -0.3805
 4204TIP3    H112576   1.780   0.262   2.747  0.1161  0.2084  1.7824
 4204TIP3    H212577   1.919   0.307   2.707 -0.7951  0.7333 -0.9961
 4205TIP3   OH212578   2.040   5.397   3.542 -0.8701 -0.7035  0.0823
 4205TIP3    H112579   2.023   5.418   3.450  0.1762 -1.5474 -0.3142
 4205TIP3    H212580   2.027   5.302   3.548  1.4915 -1.0731  0.2156
 4206TIP3   OH212581   0.513   5.135   0.361 -0.1591 -0.1201 -0.5975
 4206TIP3    H112582   0.510   5.161   0.453 -1.1752 -2.5850  0.1570
 4206TIP3    H212583   0.558   5.051   0.362  0.2191  0.0201 -2.4437
 4207TIP3   OH212584   4.070   4.848   0.853 -1.0507 -0.2093  0.2921
 4207TIP3    H112585   4.107   4.933   0.877 -0.1776 -1.3177  3.4523
 4207TIP3    H212586   4.090   4.838   0.760  0.4128  2.2624  0.2620
 4208TIP3   OH212587   0.399   3.134   0.192 -0.2730 -0.4048  0.3680
 4208TIP3    H112588   0.421   3.188   0.117 -0.3036 -0.7552  0.1064
 4208TIP3    H212589   0.325   3.179   0.233 -0.5753 -0.4786 -0.0945
 4209TIP3   OH212590   4.257   1.217   5.302 -0.0475  0.0813  0.5784
 4209TIP3    H112591   4.314   1.144   5.276  0.8178  0.5395  1.1286
 4209TIP3    H212592   4.171   1.193   5.269  0.4086 -0.7613 -0.0514
 4210TIP3   OH212593   0.132   1.121   1.053  0.3989 -0.2997  0.7834
 4210TIP3    H112594   0.057   1.078   1.096  0.6323 -0.6500  0.8506
 4210TIP3    H212595   0.124   1.097   0.961  0.7582 -0.8488  0.8842
 4211TIP3   OH212596   5.934   1.701   3.141  0.7854 -0.4586  0.3554
 4211TIP3    H112597   5.865   1.692   3.207  0.4366 -0.2291  0.0319
 4211TIP3    H212598   5.922   1.624   3.085  0.0092  0.1893 -0.4034
 4212TIP3   OH212599   4.380   1.120   0.947  0.1480 -0.5554  0.4050
 4212TIP3    H112600   4.396   1.128   1.041  1.6641  0.2537  0.1188
 4212TIP3    H212601   4.457   1.160   0.907 -0.8766 -0.1007 -1.1838
 4213TIP3   OH212602   7.203   1.175   2.272 -0.6527 -0.2131  0.0766
 4213TIP3    H112603   7.168   1.178   2.361 -0.9652 -0.3801 -0.0414
 4213TIP3    H212604   7.218   1.082   2.255 -0.3178 -0.1591  0.0582
 4214TIP3   OH212605   2.088   2.002   5.646 -0.5907  0.5323  0.7768
 4214TIP3    H112606   2.082   2.071   5.580  0.2316 -0.8301 -0.8134
 4214TIP3    H212607   2.074   1.921   5.597  1.3322 -0.6399  2.0162
 4215TIP3   OH212608   5.503   0.161   1.364 -0.5929 -0.3893  0.4631
 4215TIP3    H112609   5.416   0.184   1.396 -0.6088  0.5924 -0.2578
 4215TIP3    H212610   5.502   0.186   1.272  0.9026  0.8940  0.7680
 4216TIP3   OH212611   6.988   2.119   3.106  0.8791 -0.5564  0.1836
 4216TIP3    H112612   6.929   2.075   3.167 -1.2194  1.1302 -0.4773
 4216TIP3    H212613   7.076   2.098   3.137 -0.0649 -0.6041  3.1652
 4217TIP3   OH212614   3.073   3.295   0.122  0.6753 -0.1500 -0.4745
 4217TIP3    H112615   2.988   3.286   0.166  0.8878 -2.2207 -0.3796
 4217TIP3    H212616   3.060   3.366   0.060 -1.0075 -0.1258 -0.1497
 4218TIP3   OH212617   1.692   4.163   4.428 -0.0014 -0.2478  0.0760
 4218TIP3    H112618   1.733   4.224   4.366  0.3545 -0.8127 -0.2523
 4218TIP3    H212619   1.676   4.216   4.506  0.9929  0.0946  0.0700
 4219TIP3   OH212620   7.171   2.154  -0.026 -0.0938 -0.2126 -0.0041
 4219TIP3    H112621   7.098   2.194   0.021  1.0552  1.8886  0.1184
 4219TIP3    H212622   7.230   2.124   0.042  0.6470  1.0613 -0.0445
 4220TIP3   OH212623   0.401   1.890   5.026 -0.3558  0.1204 -0.4400
 4220TIP3    H112624   0.411   1.854   5.114 -0.1492  0.5658 -0.2764
 4220TIP3    H212625   0.488   1.881   4.986 -0.6532 -0.8224 -0.8901
 4221TIP3   OH212626   3.741   5.252   2.379 -0.5731 -0.3883  0.4346
 4221TIP3    H112627   3.652   5.218   2.375 -1.0640  0.8732 -0.1842
 4221TIP3    H212628   3.762   5.276   2.288  0.0553  0.1623  0.7122
 4222TIP3   OH212629   2.715   2.595   1.944  0.2476 -0.0146  0.5568
 4222TIP3    H112630   2.688   2.643   2.022  2.7009  0.7218  1.0398
 4222TIP3    H212631   2.747   2.511   1.977  0.5684 -0.0073  0.2747
 4223TIP3   OH212632   3.324   0.174   5.541 -0.2312  0.6609 -0.0665
 4223TIP3    H112633   3.276   0.234   5.484 -0.5916 -0.1527 -0.6400
 4223TIP3    H212634   3.308   0.207   5.629 -1.5698  0.6155 -0.2664
 4224TIP3   OH212635   5.887   3.980   3.692 -0.3000  0.6042  0.0495
 4224TIP3    H112636   5.981   3.985   3.710 -0.3309  0.8866  0.1365
 4224TIP3    H212637   5.850   4.053   3.741 -0.4496  1.0547 -0.7198
 4225TIP3   OH212638   4.101   5.347   5.697  0.1305  0.4300  0.1711
 4225TIP3    H112639   4.143   5.262   5.712 -0.8988  0.0566  1.0042
 4225TIP3    H212640   4.172   5.402   5.664  0.9803 -0.5488  0.2945
 4226TIP3   OH212641   6.316   5.082   2.435  0.1005 -0.2737 -0.8063
 4226TIP3    H112642   6.331   5.131   2.354 -1.9843  2.1620  0.1428
 4226TIP3    H212643   6.380   5.117   2.497  1.3826 -1.8058 -1.1982
 4227TIP3   OH212644   2.200   0.686   0.707  0.0980 -0.1613  0.2833
 4227TIP3    H112645   2.199   0.604   0.755  0.1169 -1.6887 -2.1826
 4227TIP3    H212646   2.269   0.738   0.750 -0.6916 -0.9156  2.5908
 4228TIP3   OH212647   3.001   0.377   0.956  0.0870 -0.6989  0.3253
 4228TIP3    H112648   2.954   0.445   0.907  1.2339 -0.7239 -0.8661
 4228TIP3    H212649   3.033   0.422   1.035  3.3495  1.1057 -1.7792
 4229TIP3   OH212650   5.047   4.088   0.485 -0.2291 -0.5289 -0.3512
 4229TIP3    H112651   5.043   4.183   0.478  1.6327 -0.5522 -3.1569
 4229TIP3    H212652   5.140   4.067   0.481 -0.5851 -2.4963  0.3622
 4230TIP3   OH212653   3.638   0.588   4.673  0.6483  0.4735  0.4725
 4230TIP3    H112654   3.603   0.555   4.756  0.1395  0.3026  0.1893
 4230TIP3    H212655   3.728   0.555   4.670  0.4718 -0.0281  0.6665
 4231TIP3   OH212656   3.192   2.806   0.621 -0.2332  0.6279 -0.4346
 4231TIP3    H112657   3.222   2.825   0.532 -1.1952 -1.2468 -1.2171
 4231TIP3    H212658   3.097   2.820   0.618 -0.1672  1.3324  0.5233
 4232TIP3   OH212659   1.918   1.601   3.006  0.4068  0.1202 -0.0813
 4232TIP3    H112660   1.988   1.657   2.972  0.5084  0.2892  0.4001
 4232TIP3    H212661   1.844   1.616   2.947  0.4108  0.8167  0.0854
 4233TIP3   OH212662   4.704   4.741   4.413 -0.9280  0.5470  0.7138
 4233TIP3    H112663   4.788   4.784   4.403  1.3472 -2.5875  3.7508
 4233TIP3    H212664   4.684   4.749   4.507 -2.4974 -1.2451  0.6025
 4234TIP3   OH212665   0.188   0.778   5.449 -0.0550  0.0079 -0.5274
 4234TIP3    H112666   0.263   0.742   5.401 -0.3820 -1.3240 -0.0706
 4234TIP3    H212667   0.118   0.714   5.437 -0.4271  0.0921  0.9571
 4235TIP3   OH212668   4.231   0.887   4.225  0.1212 -0.0160 -0.0419
 4235TIP3    H112669   4.325   0.877   4.211 -0.2998 -1.3465 -2.4695
 4235TIP3    H212670   4.205   0.952   4.159 -0.4471  1.6706  1.7650
 4236TIP3   OH212671   2.839   1.784   0.605  0.0815  0.2459  0.8336
 4236TIP3    H112672   2.924   1.744   0.627  0.8004  0.6060 -1.1276
 4236TIP3    H212673   2.781   1.710   0.591  0.7587 -0.0959 -0.3043
 4237TIP3   OH212674   2.285   5.886   1.579  0.6147 -0.3369 -0.3236
 4237TIP3    H112675   2.303   5.810   1.524 -1.1185 -0.4139 -0.8287
 4237TIP3    H212676   2.240   5.948   1.522  3.7535  2.0090 -0.4970
 4238TIP3   OH212677   3.750   5.977   4.940 -0.3588  0.3766  0.0647
 4238TIP3    H112678   3.767   5.989   4.846  1.6802  0.1183  0.3604
 4238TIP3    H212679   3.788   6.055   4.981 -2.6165  1.2737  0.6011
 4239TIP3   OH212680   3.567   5.021   2.078  0.5821  0.0652 -0.0014
 4239TIP3    H112681   3.641   5.065   2.037  0.3300 -0.0683 -0.5996
 4239TIP3    H212682   3.559   5.064   2.163  1.2510  0.1826  0.0132
 4240TIP3   OH212683   5.323   2.991   5.863  0.1154 -0.7594 -0.4338
 4240TIP3    H112684   5.313   2.909   5.815 -0.7245  0.3761 -2.3185
 4240TIP3    H212685   5.258   3.050   5.824  2.5423  1.6909 -1.1994
 4241TIP3   OH212686   5.765   0.279   2.349  0.3822 -0.4238 -0.1701
 4241TIP3    H112687   5.689   0.250   2.299  1.0013 -1.4754 -0.5400
 4241TIP3    H212688   5.826   0.313   2.283 -1.2689  4.3315  0.3768
 4242TIP3   OH212689   1.872   6.515   4.882  0.1607  0.4952  0.2770
 4242TIP3    H112690   1.853   6.495   4.791  0.2665  0.2908  0.2975
 4242TIP3    H212691   1.887   6.429   4.922  0.3591  0.6004  0.4301
 4243TIP3   OH212692   6.178   0.703   0.763 -0.3923  0.6058 -0.1278
 4243TIP3    H112693   6.244   0.643   0.797  0.9365  2.4040  0.6485
 4243TIP3    H212694   6.119   0.719   0.837 -0.7684  0.2606 -0.3453
 4244TIP3   OH212695   4.052   1.473   2.413 -0.0408  0.0022 -0.0313
 4244TIP3    H112696   4.039   1.563   2.384  1.8104  0.2032 -0.3578
 4244TIP3    H212697   4.138   1.472   2.453  0.7625 -1.9563 -1.5636
 4245TIP3   OH212698   5.921   6.341   1.435 -0.0660  0.1855  0.3482
 4245TIP3    H112699   5.931   6.302   1.348 -0.2681  0.1949  0.3210
 4245TIP3    H212700   5.999   6.312   1.483 -0.4421 -0.6271  0.4772
 4246TIP3   OH212701   2.230   6.543   2.070 -0.3121 -0.0404  0.3549
 4246TIP3    H112702   2.289   6.618   2.076  0.9422 -0.8412 -1.2758
 4246TIP3    H212703   2.277   6.472   2.114 -0.4983 -0.4262 -0.0643
 4247TIP3   OH212704   0.150   1.961   2.198 -0.5403 -0.2519  0.6716
 4247TIP3    H112705   0.181   2.049   2.181  1.5934 -0.6002  2.2692
 4247TIP3    H212706   0.055   1.969   2.202 -0.5543  1.4887 -1.4471
 4248TIP3   OH212707   1.781   6.371   1.668  0.0925  0.1598  0.1078
 4248TIP3    H112708   1.844   6.383   1.739  0.2608 -2.9651  0.5933
 4248TIP3    H212709   1.699   6.348   1.713 -0.6516  1.2354 -0.6415
 4249TIP3   OH212710   0.673   3.936   4.784 -0.1008 -0.3505 -0.3190
 4249TIP3    H112711   0.633   4.017   4.815  1.0289 -0.4624  1.5832
 4249TIP3    H212712   0.744   3.965   4.726  0.5871  0.0547  0.7091
 4250TIP3   OH212713   2.122   1.703   4.923  0.2261 -0.4356 -0.1634
 4250TIP3    H112714   2.180   1.661   4.986  0.3329  0.5134  0.3966
 4250TIP3    H212715   2.095   1.784   4.967  1.2207  0.8301 -1.8028
 4251TIP3   OH212716   4.087   4.423   1.087 -0.0320 -0.2747  0.3125
 4251TIP3    H112717   4.132   4.349   1.128  1.2368  0.4601  0.3074
 4251TIP3    H212718   4.153   4.463   1.031 -0.2615  1.6577  1.3411
 4252TIP3   OH212719   1.013   1.587   5.442 -0.6801 -0.4811  0.0037
 4252TIP3    H112720   1.071   1.663   5.446 -1.2009 -0.0704 -0.1254
 4252TIP3    H212721   1.037   1.533   5.518 -0.3600 -0.1536  0.1349
 4253TIP3   OH212722   0.246   1.881   3.365 -0.5360  0.3334  0.1192
 4253TIP3    H112723   0.273   1.800   3.322 -0.3794 -0.5331  1.7915
 4253TIP3    H212724   0.207   1.853   3.447 -1.1986  1.9244  0.3780
 4254TIP3   OH212725   1.060   1.288   1.907  0.3184  0.2825 -0.6708
 4254TIP3    H112726   1.002   1.312   1.835  0.1105 -0.4179 -0.7380
 4254TIP3    H212727   1.057   1.193   1.911  1.6716  0.2095 -0.8396
 4255TIP3   OH212728   5.189   2.178   3.088  0.0011 -0.0447 -0.4486
 4255TIP3    H112729   5.271   2.184   3.136 -0.9418 -2.2953  1.6985
 4255TIP3    H212730   5.135   2.249   3.123  0.7177  0.9158 -1.2588
 4256TIP3   OH212731   2.151   4.270   4.254  0.1753 -0.1730 -0.0769
 4256TIP3    H112732   2.207   4.342   4.282  0.1056 -0.0345 -0.2897
 4256TIP3    H212733   2.138   4.217   4.332 -2.8487  2.0232  1.0704
 4257TIP3   OH212734   3.907   4.603   0.353 -0.0258 -0.0598 -0.2335
 4257TIP3    H112735   3.828   4.605   0.300 -0.3147 -1.8980  0.0552
 4257TIP3    H212736   3.949   4.687   0.338 -1.9031  0.8531 -0.5854
 4258TIP3   OH212737   3.768   5.190   0.717 -0.0894  0.0226  0.1647
 4258TIP3    H112738   3.674   5.183   0.732 -0.3226 -1.1393 -1.5126
 4258TIP3    H212739   3.807   5.121   0.771 -0.2304  0.2072  0.5055
 4259TIP3   OH212740   1.047   1.440   1.646  0.3799 -0.3740  0.0075
 4259TIP3    H112741   1.121   1.470   1.594 -1.5462  2.4498 -1.4223
 4259TIP3    H212742   1.033   1.510   1.710 -2.4391  0.4719 -1.3772
 4260TIP3   OH212743   5.127   1.885   4.572  0.4217 -0.1723  0.1463
 4260TIP3    H112744   5.075   1.959   4.604 -0.8186 -0.5856 -0.8255
 4260TIP3    H212745   5.204   1.925   4.533  1.4488  0.4010  2.5910
 4261TIP3   OH212746   7.026   1.390   3.986 -0.2623 -0.4030  0.4795
 4261TIP3    H112747   6.957   1.335   3.947  0.1399 -1.0910  0.7127
 4261TIP3    H212748   7.030   1.467   3.930  1.8996 -2.3557 -2.3684
 4262TIP3   OH212749   5.365   6.743   2.867  0.0144  0.1717  0.0375
 4262TIP3    H112750   5.375   6.676   2.935  0.8427  0.7655  0.5190
 4262TIP3    H212751   5.435   6.723   2.804  0.0771  0.4059  0.0334
 4263TIP3   OH212752   1.109   5.391   1.531  0.3361 -1.0055  0.2162
 4263TIP3    H112753   1.074   5.354   1.612 -1.3338  1.9297  0.9907
 4263TIP3    H212754   1.072   5.480   1.527  3.3504  0.3184 -1.8701
 4264TIP3   OH212755   3.655   3.415   5.046 -0.2752 -0.2777  0.7635
 4264TIP3    H112756   3.713   3.348   5.009 -0.0198 -0.6506  1.7796
 4264TIP3    H212757   3.574   3.407   4.996 -0.0794 -1.0238  0.5463
 4265TIP3   OH212758   0.143   4.382   2.418  0.3396  0.2685  0.1850
 4265TIP3    H112759   0.078   4.315   2.439 -0.6352  1.1930  0.2170
 4265TIP3    H212760   0.106   4.462   2.454  0.7366  1.1001 -1.1991
 4266TIP3   OH212761   3.416   6.115   1.138  0.3717 -0.5614 -0.5628
 4266TIP3    H112762   3.441   6.203   1.166 -0.3747 -0.0852 -1.3468
 4266TIP3    H212763   3.414   6.064   1.219 -0.2971  0.4240  0.0668
 4267TIP3   OH212764   1.989   2.284   4.504 -0.4299  0.0107  0.0832
 4267TIP3    H112765   1.925   2.252   4.441 -0.4646  0.7596 -0.2658
 4267TIP3    H212766   1.946   2.275   4.589 -1.4122  1.4352 -0.2234
 4268TIP3   OH212767   1.657   0.819   2.322  0.2941  0.1231  0.0846
 4268TIP3    H112768   1.646   0.904   2.278 -0.6139 -0.0494 -0.0429
 4268TIP3    H212769   1.681   0.759   2.252  0.6674  0.2205  0.1294
 4269TIP3   OH212770   5.077   1.812   3.489  0.1801 -0.3923 -0.4322
 4269TIP3    H112771   5.107   1.903   3.479 -0.5220 -0.2818 -1.6627
 4269TIP3    H212772   5.022   1.796   3.413 -1.7817 -1.0562  1.0587
 4270TIP3   OH212773   3.245   4.970   0.095 -0.5267  0.1386  0.6535
 4270TIP3    H112774   3.151   4.962   0.115 -0.3359 -2.1562  0.8325
 4270TIP3    H212775   3.248   4.993   0.003 -1.2848 -1.2612  0.2498
 4271TIP3   OH212776   7.165   4.868   3.090  0.1799 -0.1423 -0.2010
 4271TIP3    H112777   7.149   4.789   3.141  0.8968 -0.7663 -0.9032
 4271TIP3    H212778   7.079   4.911   3.084 -0.0453 -0.4134  0.9130
 4272TIP3   OH212779   6.789   0.599   3.044 -0.2526  0.3539 -0.0655
 4272TIP3    H112780   6.810   0.691   3.026  0.9131  0.0281 -0.4752
 4272TIP3    H212781   6.817   0.552   2.965 -1.0289 -0.3446  0.0527
 4273TIP3   OH212782   1.278   4.885   5.189  0.5111  0.3885 -0.2724
 4273TIP3    H112783   1.294   4.952   5.122 -0.3498  0.8769 -0.0030
 4273TIP3    H212784   1.365   4.860   5.218  0.8787  0.7249 -1.0318
 4274TIP3   OH212785   0.719   4.961   0.616  0.0886  0.2530 -0.0598
 4274TIP3    H112786   0.631   4.929   0.596 -0.3344  1.3997 -0.0994
 4274TIP3    H212787   0.746   5.007   0.537  0.1467  1.1144  0.4521
 4275TIP3   OH212788   0.692   3.203   5.760 -0.3333  0.1177 -0.5821
 4275TIP3    H112789   0.786   3.206   5.744 -0.3008 -0.5148 -0.5290
 4275TIP3    H212790   0.684   3.205   5.856 -0.1986 -3.0079 -0.3903
 4276TIP3   OH212791   5.752   1.100   1.935 -0.3193 -0.1112 -0.0412
 4276TIP3    H112792   5.684   1.047   1.976  1.0059 -1.4615  0.4720
 4276TIP3    H212793   5.717   1.189   1.937 -1.1866 -0.4420  2.1421
 4277TIP3   OH212794   1.052   6.533   1.244 -0.3749 -0.6793  0.1750
 4277TIP3    H112795   1.050   6.615   1.294 -1.5053 -0.7187  0.2158
 4277TIP3    H212796   0.994   6.548   1.170  1.0002 -0.7555 -0.9606
 4278TIP3   OH212797   6.346   4.183   1.430  0.3548 -0.0707 -0.4274
 4278TIP3    H112798   6.395   4.181   1.347 -0.2525 -2.8641 -0.8250
 4278TIP3    H212799   6.406   4.145   1.494  0.4151  1.0400  0.1949
 4279TIP3   OH212800   4.005   2.672   5.683 -0.2260 -0.0746 -0.3614
 4279TIP3    H112801   3.931   2.723   5.648 -0.7950 -0.5414  0.1302
 4279TIP3    H212802   4.076   2.735   5.690 -0.7622  0.5329 -0.2623
 4280TIP3   OH212803   2.352   3.673   0.639 -0.2916 -0.4143 -0.4087
 4280TIP3    H112804   2.400   3.600   0.678 -1.5866 -0.1502  1.8485
 4280TIP3    H212805   2.402   3.751   0.663 -1.6194 -0.1570  1.7727
 4281TIP3   OH212806   1.405   3.662   2.373 -0.2741 -0.3654 -0.0461
 4281TIP3    H112807   1.368   3.665   2.461 -2.9597  1.2199 -1.1263
 4281TIP3    H212808   1.359   3.589   2.330  1.0652 -1.1728 -0.1768
 4282TIP3   OH212809   5.995   5.070   1.764 -0.0826  0.2420 -0.1325
 4282TIP3    H112810   5.938   5.140   1.733  0.5052  0.8299  0.1080
 4282TIP3    H212811   5.965   5.052   1.853  1.1743  1.7328  0.6357
 4283TIP3   OH212812   3.123   5.282   4.154 -0.1468  0.4511  0.7012
 4283TIP3    H112813   3.165   5.217   4.097 -0.9889  0.0425  0.5299
 4283TIP3    H212814   3.117   5.239   4.239 -0.7772  0.2764  0.5677
 4284TIP3   OH212815   0.875   1.510   2.135 -0.1559  0.4398  0.2807
 4284TIP3    H112816   0.825   1.553   2.065 -1.0935  0.7790  1.1486
 4284TIP3    H212817   0.852   1.558   2.214  0.4833 -0.2891  0.9248
 4285TIP3   OH212818   1.089   6.154   3.573  0.0894 -0.6653  0.4419
 4285TIP3    H112819   1.098   6.137   3.479  1.2113  1.3958  0.1143
 4285TIP3    H212820   1.179   6.163   3.605 -0.2966  1.5390  1.0824
 4286TIP3   OH212821   6.633   4.121   2.354 -0.0692 -0.7524 -0.0529
 4286TIP3    H112822   6.557   4.142   2.409  1.4425  1.7324  1.3007
 4286TIP3    H212823   6.655   4.031   2.378 -0.4851 -0.3207  2.2369
 4287TIP3   OH212824   0.889   4.400   1.143 -0.1237  0.3347 -0.3203
 4287TIP3    H112825   0.883   4.339   1.070 -0.9414 -0.5086  0.4241
 4287TIP3    H212826   0.953   4.361   1.202 -1.3342 -0.3304  0.6064
 4288TIP3   OH212827   4.418   3.794   5.517  0.6265  0.3501  0.5576
 4288TIP3    H112828   4.412   3.881   5.477 -0.0433  0.6312  1.2344
 4288TIP3    H212829   4.358   3.798   5.591 -0.3902 -1.1197 -0.1481
 4289TIP3   OH212830   6.064   6.011   5.144 -0.1086  0.5931 -0.3212
 4289TIP3    H112831   5.983   5.986   5.100 -0.8142  1.8391  0.2422
 4289TIP3    H212832   6.038   6.039   5.231  1.1312 -0.5703  0.4563
 4290TIP3   OH212833   5.601   0.931   4.416 -0.4531 -0.0653 -0.0712
 4290TIP3    H112834   5.513   0.946   4.452  0.4533  3.3779  1.1513
 4290TIP3    H212835   5.657   0.990   4.466  2.5591 -1.9001 -1.0317
 4291TIP3   OH212836   2.750   4.215   5.696 -0.0588  0.1136 -0.2053
 4291TIP3    H112837   2.804   4.177   5.626  0.5037 -0.9437  0.7777
 4291TIP3    H212838   2.788   4.181   5.777 -1.8159 -0.1765  0.5497
 4292TIP3   OH212839   0.105   2.126   4.518 -0.2894  0.0573  0.0019
 4292TIP3    H112840   0.190   2.153   4.552  1.1389 -0.2074 -3.0070
 4292TIP3    H212841   0.098   2.034   4.541  0.0725  0.1700  0.5820
 4293TIP3   OH212842   2.863   1.507   2.709 -0.5183 -0.1836 -0.6319
 4293TIP3    H112843   2.802   1.561   2.658 -0.4375  0.5305  0.0171
 4293TIP3    H212844   2.902   1.448   2.644 -0.3038  0.8026 -1.4358
 4294TIP3   OH212845   4.122   6.274   2.202  0.5035  0.2041 -0.0984
 4294TIP3    H112846   4.174   6.196   2.222  0.8946  0.6731  0.7474
 4294TIP3    H212847   4.169   6.345   2.245  0.9326  1.1517 -2.0153
 4295TIP3   OH212848   1.075   0.617   2.249  0.4466 -0.5419  0.3362
 4295TIP3    H112849   1.008   0.595   2.314  1.7752 -1.2933  1.5108
 4295TIP3    H212850   1.083   0.539   2.196 -0.9518  0.2238 -1.0778
 4296TIP3   OH212851   0.511   0.607   3.980  0.2276  0.1530  0.3042
 4296TIP3    H112852   0.540   0.516   3.989  1.0029  0.4031  0.4505
 4296TIP3    H212853   0.491   0.616   3.887 -0.8658 -0.4465  0.4617
 4297TIP3   OH212854   1.117   3.195   0.736  0.0170  0.0384  0.0052
 4297TIP3    H112855   1.028   3.223   0.756  0.0151 -0.0398  0.1098
 4297TIP3    H212856   1.164   3.207   0.819  0.4891  1.5681 -0.4468
 4298TIP3   OH212857   5.121   3.285   4.058  0.2455 -0.3272  0.2450
 4298TIP3    H112858   5.130   3.364   4.005  0.7838 -0.8836 -0.5117
 4298TIP3    H212859   5.207   3.242   4.053 -0.3040 -1.4152 -0.0994
 4299TIP3   OH212860   3.588   4.842   3.622  0.0616 -0.1412  0.1008
 4299TIP3    H112861   3.636   4.924   3.630 -2.0569  1.2970 -0.9798
 4299TIP3    H212862   3.517   4.849   3.685 -0.1727 -1.1243 -0.0352
 4300TIP3   OH212863   3.156   3.377   0.788  0.0132  0.1434  0.2852
 4300TIP3    H112864   3.161   3.283   0.769 -0.3385  0.0640  0.5748
 4300TIP3    H212865   3.113   3.415   0.711  1.3315  0.2653 -0.4282
 4301TIP3   OH212866   1.278   1.685   0.004 -0.5537 -0.4420 -0.3789
 4301TIP3    H112867   1.319   1.719   0.084 -0.4418  0.6012 -0.8596
 4301TIP3    H212868   1.200   1.739  -0.006 -0.1939 -0.0903 -1.3513
 4302TIP3   OH212869   7.054   6.490   1.696  0.0032 -0.2104  0.4743
 4302TIP3    H112870   7.094   6.483   1.609  0.4396 -3.3310  0.8299
 4302TIP3    H212871   7.127   6.506   1.755  0.2461 -1.7895  0.6428
 4303TIP3   OH212872   0.184   0.212   2.420 -0.3524 -0.5074 -0.4946
 4303TIP3    H112873   0.141   0.141   2.466  0.0717 -0.1413  0.4898
 4303TIP3    H212874   0.138   0.291   2.448  0.1623 -0.2391 -0.3777
 4304TIP3   OH212875   5.228   0.606   1.541  0.2628  0.4682 -0.0655
 4304TIP3    H112876   5.252   0.655   1.463 -1.2564  0.5777 -0.4742
 4304TIP3    H212877   5.223   0.672   1.610  0.0458  0.6069 -0.2143
 4305TIP3   OH212878   0.409   2.947   2.739 -0.6656 -0.4672  0.2700
 4305TIP3    H112879   0.436   2.897   2.816 -0.8164 -0.1733  0.5153
 4305TIP3    H212880   0.365   3.024   2.774  0.7421  0.5344 -0.0550
 4306TIP3   OH212881   1.472   2.578   3.736 -0.1006 -0.2677 -0.0437
 4306TIP3    H112882   1.432   2.558   3.820 -1.3820 -1.4494 -0.9011
 4306TIP3    H212883   1.563   2.550   3.746 -0.2836 -0.5753  0.8787
 4307TIP3   OH212884   6.632   3.593   2.909 -0.4019  0.1587  0.0823
 4307TIP3    H112885   6.571   3.555   2.973 -0.6304 -1.4753 -1.0473
 4307TIP3    H212886   6.580   3.660   2.864 -1.9486 -2.1987 -1.8720
 4308TIP3   OH212887   0.920   6.083   0.400 -0.3589  0.5220 -0.7759
 4308TIP3    H112888   0.889   6.090   0.310 -1.5888  2.0329 -0.2966
 4308TIP3    H212889   1.014   6.100   0.396 -0.2642 -0.2063 -1.8466
 4309TIP3   OH212890   3.122   2.680   0.122  0.4140 -0.2823 -0.6352
 4309TIP3    H112891   3.194   2.671   0.059 -0.3998 -0.4092 -1.5608
 4309TIP3    H212892   3.081   2.594   0.125 -0.4008  0.0773 -0.9916
 4310TIP3   OH212893   2.129   0.717   1.084 -0.2560  0.7069 -0.0533
 4310TIP3    H112894   2.180   0.796   1.097 -1.5028  1.7878 -1.3512
 4310TIP3    H212895   2.070   0.738   1.011 -2.7348 -0.3251  1.4898
 4311TIP3   OH212896   2.450   4.325   0.430 -0.1158  0.5657 -0.5182
 4311TIP3    H112897   2.486   4.398   0.480 -0.6118  1.0867 -0.9090
 4311TIP3    H212898   2.504   4.250   0.455  1.0352  1.2602 -0.8502
 4312TIP3   OH212899   0.727   4.002   3.598  0.1909 -0.1761  0.0608
 4312TIP3    H112900   0.717   4.025   3.690 -0.5038 -0.0644 -0.0344
 4312TIP3    H212901   0.710   4.083   3.550  1.1913 -0.0782 -0.1464
 4313TIP3   OH212902   0.058   1.270   4.081  0.1145 -0.0013  0.1599
 4313TIP3    H112903  -0.008   1.314   4.027  1.4273  2.0061  0.0897
 4313TIP3    H212904   0.018   1.186   4.104 -1.1193 -0.2909 -2.6248
 4314TIP3   OH212905   4.832   1.130   4.394  0.3494  0.5261  0.1077
 4314TIP3    H112906   4.752   1.180   4.408 -1.2150 -1.5072 -1.0698
 4314TIP3    H212907   4.871   1.122   4.481 -0.4649  1.9537  0.6250
 4315TIP3   OH212908   0.717   1.224   4.065 -0.4842 -0.1900 -0.4342
 4315TIP3    H112909   0.722   1.203   4.158  1.9083  0.5878 -0.3166
 4315TIP3    H212910   0.669   1.306   4.061 -1.3289 -0.6495  0.0082
 4316TIP3   OH212911   5.417   2.278   1.707  0.1507  0.2314 -0.1565
 4316TIP3    H112912   5.506   2.270   1.741 -0.0243  1.8998  0.7802
 4316TIP3    H212913   5.368   2.209   1.752  0.4495  0.8804  1.1885
 4317TIP3   OH212914   6.422   0.102   1.006  0.0447 -0.1345  0.4660
 4317TIP3    H112915   6.449   0.014   0.980 -0.3358  0.3027 -1.6187
 4317TIP3    H212916   6.499   0.140   1.048  1.8535  0.0652 -2.6707
 4318TIP3   OH212917   7.178   4.192   0.044  0.1321 -0.0662  0.5370
 4318TIP3    H112918   7.230   4.151   0.113  0.8243  0.0624  0.0903
 4318TIP3    H212919   7.215   4.279   0.033 -0.8158  0.3979  0.9081
 4319TIP3   OH212920   2.093   2.965   1.766  0.0975  0.2957  0.5581
 4319TIP3    H112921   2.090   2.910   1.844 -0.2677  1.1937  1.1970
 4319TIP3    H212922   2.092   2.904   1.693  0.0521 -0.5470  1.2564
 4320TIP3   OH212923   2.802   5.034   1.161 -0.4362  0.3506  0.3399
 4320TIP3    H112924   2.770   5.113   1.117 -0.9359 -0.2106 -0.3148
 4320TIP3    H212925   2.804   4.967   1.092  0.1510 -0.1672  0.8497
 4321TIP3   OH212926   3.527   1.038   3.250  0.2984  0.0662 -0.8681
 4321TIP3    H112927   3.533   1.109   3.313  0.6855 -0.6737 -0.0530
 4321TIP3    H212928   3.505   0.961   3.302  2.8769 -1.0424 -1.2494
 4322TIP3   OH212929   3.389   0.843   3.419 -0.0873  0.4480 -0.0494
 4322TIP3    H112930   3.380   0.788   3.497  0.3035  0.3532 -0.0686
 4322TIP3    H212931   3.331   0.803   3.354 -0.5695  0.6461  0.2560
 4323TIP3   OH212932   4.243   4.442   3.029  0.0434 -0.3747 -0.0363
 4323TIP3    H112933   4.200   4.420   2.946  0.5740 -0.6599 -0.2372
 4323TIP3    H212934   4.312   4.377   3.038  0.5263  0.1659  0.2150
 4324TIP3   OH212935   4.518   5.860   3.550  0.3731 -0.4236  0.8340
 4324TIP3    H112936   4.555   5.783   3.593  1.8967 -0.9581 -1.2655
 4324TIP3    H212937   4.571   5.933   3.582  1.0278 -0.7164  0.4444
 4325TIP3   OH212938   0.631   1.812   4.909  0.2911  0.1366 -0.1250
 4325TIP3    H112939   0.596   1.723   4.903 -0.9778  0.6279 -0.5393
 4325TIP3    H212940   0.671   1.827   4.823 -1.2315  0.6163 -0.7919
 4326TIP3   OH212941   5.379   0.630   4.986 -0.3846  0.4597 -0.2487
 4326TIP3    H112942   5.470   0.636   4.956 -0.6061  0.7023 -0.9058
 4326TIP3    H212943   5.336   0.574   4.921 -0.5333 -0.2993  0.4881
 4327TIP3   OH212944   5.113   5.664   0.744 -0.4100 -0.4456 -0.2471
 4327TIP3    H112945   5.019   5.649   0.749 -0.7835  1.2637 -1.1656
 4327TIP3    H212946   5.129   5.738   0.804  0.1681 -0.0957 -0.8183
 4328TIP3   OH212947   5.836   6.496   4.915 -0.2698 -0.2410  0.0996
 4328TIP3    H112948   5.766   6.485   4.850  0.0774  0.1154 -0.3419
 4328TIP3    H212949   5.916   6.473   4.868  0.0885  0.8906  0.1153
 4329TIP3   OH212950   1.121   4.983   2.077  0.0390  0.2126 -0.3599
 4329TIP3    H112951   1.209   4.956   2.103  0.2515  0.0001 -1.2640
 4329TIP3    H212952   1.069   4.974   2.157  0.0740 -2.9539 -0.5527
 4330TIP3   OH212953   3.527   3.099   4.424 -0.1853 -0.0524 -0.1028
 4330TIP3    H112954   3.445   3.059   4.393  0.1790 -0.1801 -0.9037
 4330TIP3    H212955   3.512   3.193   4.417 -0.4649 -0.0646  0.2845
 4331TIP3   OH212956   3.888   3.180   0.472 -0.5311  0.5785  0.0114
 4331TIP3    H112957   3.845   3.203   0.555 -0.6824  0.1800  0.0448
 4331TIP3    H212958   3.881   3.085   0.467 -1.2513  0.6681 -0.8568
 4332TIP3   OH212959   1.761   0.778   3.746 -0.5706  0.2988  1.0125
 4332TIP3    H112960   1.849   0.810   3.727 -0.2206 -0.7429  0.7996
 4332TIP3    H212961   1.727   0.838   3.811 -0.0075  1.1933  0.5007
 4333TIP3   OH212962   4.818   4.987   2.626 -0.5868  0.0471  0.3944
 4333TIP3    H112963   4.899   4.955   2.586 -1.0542 -1.5747  0.6789
 4333TIP3    H212964   4.808   5.076   2.592 -0.6059 -0.9882 -2.6232
 4334TIP3   OH212965   6.797   0.570   0.057  0.2153 -0.0015 -0.5992
 4334TIP3    H112966   6.706   0.595   0.043  0.0059  1.5284  2.7628
 4334TIP3    H212967   6.793   0.494   0.116  1.0799  0.9248  0.7042
 4335TIP3   OH212968   0.457   4.118   3.517  0.4422  0.2937  0.4771
 4335TIP3    H112969   0.427   4.158   3.435 -2.4683 -0.9998  0.7847
 4335TIP3    H212970   0.509   4.186   3.560  0.5461  1.6082 -1.6218
 4336TIP3   OH212971   5.007   4.721   4.013 -0.0640 -0.1978 -0.4814
 4336TIP3    H112972   5.054   4.690   4.090 -2.0675  0.2262  0.9834
 4336TIP3    H212973   4.943   4.783   4.046 -2.1408 -1.2442 -2.2261
 4337TIP3   OH212974   3.125   4.785   1.623  0.2113  0.2083  0.0074
 4337TIP3    H112975   3.040   4.749   1.646  0.2063 -0.7902 -1.4350
 4337TIP3    H212976   3.107   4.874   1.595 -0.5656 -0.3817 -1.4586
 4338TIP3   OH212977   6.836   0.146   1.926 -0.1614  0.0862  0.4053
 4338TIP3    H112978   6.895   0.111   1.993 -1.9212 -1.9298  0.9763
 4338TIP3    H212979   6.873   0.232   1.905  2.0518 -0.4243  1.8800
 4339TIP3   OH212980   2.850   3.333   3.432 -0.4444  0.2396  0.2393
 4339TIP3    H112981   2.854   3.284   3.514  1.8874  0.4234  0.2945
 4339TIP3    H212982   2.854   3.266   3.364  0.3688  0.2269  0.2977
 4340TIP3   OH212983   0.005   2.279   4.046  0.4166  0.0500 -0.3480
 4340TIP3    H112984  -0.050   2.344   4.090  1.8680  1.6106 -0.7437
 4340TIP3    H212985   0.064   2.247   4.115  0.5675  0.1132 -0.4479
 4341TIP3   OH212986   2.948   6.442   1.206  0.0597  0.2539  0.2153
 4341TIP3    H112987   2.990   6.357   1.220 -0.3656  0.2546  1.6643
 4341TIP3    H212988   2.855   6.422   1.194  0.1941  0.3938 -1.2660
 4342TIP3   OH212989   4.903   0.584   3.845 -0.1309  0.5274  0.1339
 4342TIP3    H112990   4.923   0.491   3.862  1.8548  1.0489  1.0095
 4342TIP3    H212991   4.808   0.589   3.845 -0.3546 -1.8015 -1.6639
 4343TIP3   OH212992   6.507   1.410   3.086 -0.5083  0.5404  0.4145
 4343TIP3    H112993   6.414   1.393   3.099 -0.6881  1.7008  0.7602
 4343TIP3    H212994   6.524   1.492   3.133  0.3699  1.1220 -0.8548
 4344TIP3   OH212995   5.556   3.122   1.687 -0.3161 -0.2843 -0.2510
 4344TIP3    H112996   5.619   3.083   1.626 -0.1714 -0.9601  0.3158
 4344TIP3    H212997   5.485   3.058   1.693  0.8655 -1.4886  2.2467
 4345TIP3   OH212998   1.597   0.252   2.815 -0.1882  0.4857  0.4836
 4345TIP3    H112999   1.534   0.266   2.744 -1.4985 -0.9076  1.2931
 4345TIP3    H213000   1.554   0.188   2.872  3.2098 -3.1344 -0.5591
 4346TIP3   OH213001   1.690   6.677   1.100 -0.2900  0.2650  0.0262
 4346TIP3    H113002   1.688   6.636   1.014 -1.1288  2.0973 -0.8819
 4346TIP3    H213003   1.769   6.731   1.099 -1.4221  1.9872 -0.4799
 4347TIP3   OH213004   2.976   4.250   3.597 -0.4285 -0.0833  0.2907
 4347TIP3    H113005   3.021   4.307   3.659  0.6782  0.7997 -1.2550
 4347TIP3    H213006   3.025   4.168   3.601 -0.4372 -0.0708  0.6667
 4348TIP3   OH213007   3.729   2.541   4.572  0.5722 -0.1025 -0.0060
 4348TIP3    H113008   3.714   2.456   4.531 -0.6591  0.0503  0.1026
 4348TIP3    H213009   3.740   2.601   4.499  1.9333 -0.4108 -0.0873
 4349TIP3   OH213010   3.502   1.923   4.782  0.2132 -0.0653  0.0292
 4349TIP3    H113011   3.540   1.857   4.723 -0.3537 -0.6453  0.3055
 4349TIP3    H213012   3.573   1.944   4.843  0.9287  0.8164 -1.0735
 4350TIP3   OH213013   7.082   5.729   4.754  0.4297  0.3259  0.7264
 4350TIP3    H113014   7.152   5.776   4.800  0.9328 -1.1406  1.5323
 4350TIP3    H213015   7.030   5.690   4.825  0.6478 -1.1809  0.1000
 4351TIP3   OH213016   3.989   0.963   4.575 -0.2140  0.4146  0.6446
 4351TIP3    H113017   4.077   0.948   4.611 -0.5740  0.6277  1.6559
 4351TIP3    H213018   3.931   0.953   4.650 -0.9500  1.4740  0.2447
 4352TIP3   OH213019   4.927   4.512   5.458  0.4779 -0.4557  0.5352
 4352TIP3    H113020   4.851   4.491   5.404  0.4140  1.1289 -0.0486
 4352TIP3    H213021   4.890   4.536   5.543  0.3781 -0.2900  0.4445
 4353TIP3   OH213022   0.272   3.154   4.984 -0.2097 -0.2119 -0.3266
 4353TIP3    H113023   0.330   3.167   5.060  1.3980  2.0703 -1.8309
 4353TIP3    H213024   0.289   3.063   4.958  1.2468 -0.2002  0.4483
 4354TIP3   OH213025   6.717   5.890   4.973 -0.3625 -0.1349  0.3674
 4354TIP3    H113026   6.689   5.968   4.924 -1.6192 -2.0051 -2.1858
 4354TIP3    H213027   6.644   5.871   5.031  0.3537  1.0539  1.7244
 4355TIP3   OH213028   3.898   1.273   3.443  0.2425 -0.0942 -0.8155
 4355TIP3    H113029   3.906   1.328   3.521  3.1589  0.7079 -1.5785
 4355TIP3    H213030   3.902   1.183   3.477  0.1709  0.2242  0.0628
 4356TIP3   OH213031   6.853   2.368   1.079  0.1230  0.1271  0.0896
 4356TIP3    H113032   6.808   2.431   1.135  0.8219  1.3179 -0.6669
 4356TIP3    H213033   6.834   2.283   1.120  0.0903  0.8986  1.7549
 4357TIP3   OH213034   6.513   6.186   5.860 -0.0124 -0.9449 -0.4924
 4357TIP3    H113035   6.544   6.135   5.786 -0.2680 -0.2318 -1.1147
 4357TIP3    H213036   6.588   6.240   5.885 -0.9428  1.6746 -2.7760
 4358TIP3   OH213037   1.837   2.029   0.497 -0.4669  0.2025 -0.6211
 4358TIP3    H113038   1.823   2.014   0.404 -0.3543 -0.4222 -0.5412
 4358TIP3    H213039   1.911   1.974   0.520 -1.3541 -0.7127  0.1270
 4359TIP3   OH213040   5.223   4.438   0.880  0.0816  0.1530  0.5883
 4359TIP3    H113041   5.289   4.455   0.947  0.8424  0.1051 -0.1198
 4359TIP3    H213042   5.145   4.484   0.909 -0.3985 -1.8383  2.7288
 4360TIP3   OH213043   1.359   6.560   4.260 -0.0483 -0.3205  0.5295
 4360TIP3    H113044   1.382   6.633   4.203  0.0366  0.0749  1.0708
 4360TIP3    H213045   1.368   6.483   4.204  0.0078  0.0649 -0.0014
 4361TIP3   OH213046   1.736   0.604   0.385 -0.1249 -0.5334 -0.0138
 4361TIP3    H113047   1.764   0.621   0.295 -1.0295 -0.7083 -0.3404
 4361TIP3    H213048   1.794   0.658   0.439 -1.1342  1.4859 -0.8580
 4362TIP3   OH213049   1.314   6.155   3.099  0.7534 -0.0818  0.6616
 4362TIP3    H113050   1.338   6.237   3.142  1.7704 -0.6107  1.1552
 4362TIP3    H213051   1.398   6.116   3.075  0.3414 -1.5950  1.5984
 4363TIP3   OH213052   0.304   4.394   0.991 -0.0353 -0.0570 -0.3906
 4363TIP3    H113053   0.316   4.341   0.912  0.2253 -0.3773 -0.1391
 4363TIP3    H213054   0.356   4.473   0.975  0.9610 -0.6196 -0.0784
 4364TIP3   OH213055   0.265   6.086   1.612  0.0739 -0.1150  0.0889
 4364TIP3    H113056   0.183   6.078   1.661 -0.8649  0.5430 -1.2828
 4364TIP3    H213057   0.303   5.998   1.614 -1.6865 -0.9671 -0.8790
 4365TIP3   OH213058   1.999   2.926   2.691 -0.3436 -0.5476  0.2487
 4365TIP3    H113059   1.984   3.008   2.737 -0.2031  0.1832 -0.9464
 4365TIP3    H213060   2.004   2.951   2.598 -0.7454 -1.9654 -0.1863
 4366TIP3   OH213061   3.068   2.561   5.204  0.2881 -0.0613  0.0882
 4366TIP3    H113062   3.125   2.634   5.178  2.5495 -1.7261  0.1262
 4366TIP3    H213063   3.048   2.578   5.296 -0.5232  1.2883 -0.3068
 4367TIP3   OH213064   0.519   1.652   0.796  0.4896 -0.7729 -0.4964
 4367TIP3    H113065   0.596   1.619   0.844  0.4493  0.6468  0.5980
 4367TIP3    H213066   0.556   1.696   0.719  0.7304 -0.6822 -0.3310
 4368TIP3   OH213067   6.925   0.528   5.811 -0.0981 -0.9125 -0.6980
 4368TIP3    H113068   6.895   0.546   5.900  1.0869  0.1183 -0.4709
 4368TIP3    H213069   6.967   0.443   5.816 -0.9252 -1.3183 -0.5087
 4369TIP3   OH213070   3.057   3.035   5.542 -0.1061 -0.0774 -0.7128
 4369TIP3    H113071   3.014   2.956   5.509 -0.8892  0.6996 -1.6092
 4369TIP3    H213072   3.129   3.002   5.596 -2.3889 -1.4780  1.7329
 4370TIP3   OH213073   2.724   5.102   0.117  0.2888 -0.2593 -0.4929
 4370TIP3    H113074   2.707   5.196   0.126 -1.4589 -0.5994  0.0565
 4370TIP3    H213075   2.665   5.074   0.047 -0.3856 -1.2286  0.4412
 4371TIP3   OH213076   2.839   3.385   0.742  0.1874  0.7370 -0.3379
 4371TIP3    H113077   2.838   3.473   0.778 -0.3200  0.7699 -0.4259
 4371TIP3    H213078   2.924   3.377   0.698  0.6930  0.7961  0.6092
 4372TIP3   OH213079   1.907   2.933   0.477  0.4214 -0.0559  0.0657
 4372TIP3    H113080   1.931   3.022   0.450 -0.6961  0.0101 -0.8190
 4372TIP3    H213081   1.824   2.917   0.432 -0.1358 -1.0039  1.3836
 4373TIP3   OH213082   3.174   0.752   3.284 -0.2427 -0.0520 -0.1062
 4373TIP3    H113083   3.143   0.842   3.272  2.4528  0.8797 -0.7300
 4373TIP3    H213084   3.149   0.707   3.202 -2.5449 -0.2655  0.6287
 4374TIP3   OH213085   3.493   0.418   0.851 -0.2182  0.3290 -0.3095
 4374TIP3    H113086   3.472   0.442   0.942 -0.7572 -0.5957 -0.1707
 4374TIP3    H213087   3.492   0.501   0.803 -1.7785  0.6256  0.1858
 4375TIP3   OH213088   3.042   2.383   4.248  0.4002 -0.0558 -0.4382
 4375TIP3    H113089   3.002   2.443   4.311  0.6196 -1.2184  0.8501
 4375TIP3    H213090   3.082   2.440   4.183 -0.0050  1.1904  0.3724
 4376TIP3   OH213091   0.700   3.598   5.691 -0.4395  0.0569 -0.0572
 4376TIP3    H113092   0.784   3.628   5.655  0.0691 -1.2977 -0.0638
 4376TIP3    H213093   0.652   3.679   5.711  0.9325  0.8660  0.1049
 4377TIP3   OH213094   5.870   2.051   4.345  0.1935  0.5253 -0.2429
 4377TIP3    H113095   5.810   2.027   4.416 -0.1086 -0.9721 -0.9752
 4377TIP3    H213096   5.951   2.074   4.389  0.5775 -2.1083  0.5422
 4378TIP3   OH213097   0.846   1.939   1.232  0.5353  0.0668  0.3517
 4378TIP3    H113098   0.914   2.003   1.254 -0.0104  0.8327 -0.1566
 4378TIP3    H213099   0.765   1.990   1.228  0.1758 -0.5555 -0.6021
 4379TIP3   OH213100   1.572   2.777   4.557  0.2956 -0.2295 -0.2612
 4379TIP3    H113101   1.648   2.784   4.614 -0.4392 -1.3882  0.9252
 4379TIP3    H213102   1.601   2.812   4.474  1.0132  2.8849  1.1606
 4380TIP3   OH213103   7.195   1.967   0.996  0.0260  0.2053  0.2988
 4380TIP3    H113104   7.134   1.989   1.066 -0.1604  0.2315  0.1266
 4380TIP3    H213105   7.141   1.958   0.918  0.2889  0.6125  0.0635
 4381TIP3   OH213106   4.436   5.917   3.113 -0.3538 -0.2788  0.5759
 4381TIP3    H113107   4.508   5.882   3.166 -0.0162  1.2402  1.1858
 4381TIP3    H213108   4.471   5.922   3.024  0.1751  0.0888  0.7999
 4382TIP3   OH213109   6.844   2.612   1.619 -0.1961 -0.3130 -0.2369
 4382TIP3    H113110   6.878   2.702   1.623 -0.9602 -0.0573  1.5010
 4382TIP3    H213111   6.756   2.622   1.582 -0.8445 -0.1188  1.2753
 4383TIP3   OH213112   3.748   2.306   5.669  0.2045 -0.4704  0.0506
 4383TIP3    H113113   3.727   2.243   5.600 -0.3467  0.6753 -0.8683
 4383TIP3    H213114   3.832   2.344   5.643  0.9121 -1.3240  0.9937
 4384TIP3   OH213115   4.185   0.682   2.416 -0.0466  0.1427 -0.3443
 4384TIP3    H113116   4.164   0.589   2.428  2.6107 -0.4882  0.1152
 4384TIP3    H213117   4.196   0.715   2.505 -2.6716  1.4266 -0.4110
 4385TIP3   OH213118   2.538   4.584   5.847  0.1473 -0.1181  0.3791
 4385TIP3    H113119   2.451   4.568   5.810 -0.7381  0.9443  1.8891
 4385TIP3    H213120   2.546   4.520   5.918  0.2025  0.4006  0.8431
 4386TIP3   OH213121   0.223   5.566   1.347  0.1448  0.1024  0.1887
 4386TIP3    H113122   0.203   5.568   1.441  1.3598 -0.8881  0.4894
 4386TIP3    H213123   0.295   5.628   1.336  0.4518 -0.2787  0.0292
 4387TIP3   OH213124   1.648   5.963   1.107 -0.3134  0.2771  0.6614
 4387TIP3    H113125   1.670   5.876   1.074  0.1881  0.7873 -0.4123
 4387TIP3    H213126   1.700   5.972   1.187 -0.2961 -0.3667  0.7294
 4388TIP3   OH213127   4.651   4.253   4.943 -1.0440 -0.2385  0.6642
 4388TIP3    H113128   4.695   4.329   4.981  3.2679 -0.9465 -2.3039
 4388TIP3    H213129   4.612   4.286   4.862 -2.3737 -0.5666  1.1322
 4389TIP3   OH213130   2.904   1.245   1.648  0.8549  0.2018  0.5004
 4389TIP3    H113131   2.888   1.297   1.569 -2.7812 -2.1500 -0.5982
 4389TIP3    H213132   2.931   1.159   1.615  0.8867 -0.3407  1.8717
 4390TIP3   OH213133   5.371   3.383   1.186 -0.2109  0.3038 -0.3447
 4390TIP3    H113134   5.373   3.299   1.232  0.9258  0.8006  0.5806
 4390TIP3    H213135   5.393   3.362   1.096 -1.0923 -0.5288 -0.3768
 4391TIP3   OH213136   5.193   3.478   0.270  0.5491  0.3280 -0.3895
 4391TIP3    H113137   5.272   3.437   0.233  1.5454  1.2888  0.5879
 4391TIP3    H213138   5.178   3.432   0.352  1.6839  1.7949  0.7248
 4392TIP3   OH213139   4.823   1.894   0.325  0.7449  0.1398  0.1605
 4392TIP3    H113140   4.844   1.876   0.234 -0.6700 -1.0529  0.0318
 4392TIP3    H213141   4.775   1.977   0.322 -0.7091 -0.6819 -0.4188
 4393TIP3   OH213142   0.943   0.667   0.227  0.1370 -0.5964 -0.4284
 4393TIP3    H113143   0.969   0.727   0.156  0.0337  1.0107  0.8459
 4393TIP3    H213144   0.860   0.702   0.259  1.0130 -0.2678  1.5945
 4394TIP3   OH213145   1.715   6.405   1.976  0.4358  0.0517  0.1352
 4394TIP3    H113146   1.809   6.415   1.991  0.4002  0.1053  0.3144
 4394TIP3    H213147   1.679   6.381   2.061  0.2448  0.3264  0.1344
 4395TIP3   OH213148   5.319   1.430   2.863 -0.1463  0.4233 -0.0687
 4395TIP3    H113149   5.240   1.425   2.917 -0.3022  0.7255 -0.2601
 4395TIP3    H213150   5.389   1.448   2.925 -0.1045 -0.6237  0.1949
 4396TIP3   OH213151   2.025   3.888   5.291  0.4486  0.0794  0.2743
 4396TIP3    H113152   2.043   3.954   5.224  0.2156  0.2029  0.3339
 4396TIP3    H213153   2.024   3.805   5.242  4.8442 -0.4806  0.7424
 4397TIP3   OH213154   4.700   3.157   5.568  0.0587 -0.1168  0.3020
 4397TIP3    H113155   4.719   3.130   5.478 -0.0286  0.4543  0.1111
 4397TIP3    H213156   4.689   3.252   5.563 -0.3156 -0.1290  0.8522
 4398TIP3   OH213157   0.217   3.322   4.309 -0.0403  0.7687  0.3930
 4398TIP3    H113158   0.190   3.413   4.296 -0.6085  0.7775  1.4729
 4398TIP3    H213159   0.166   3.293   4.385 -1.5360 -1.1459 -1.2446
 4399TIP3   OH213160   1.714   0.955   1.016  0.1595  0.0706  0.7855
 4399TIP3    H113161   1.695   0.977   1.107 -0.9140 -0.0937  0.6101
 4399TIP3    H213162   1.629   0.949   0.974  0.5954 -0.8403 -0.0115
 4400TIP3   OH213163   2.102   4.360   3.159 -0.5949 -0.1009 -0.2223
 4400TIP3    H113164   2.019   4.350   3.205 -0.6954  0.2025 -0.3395
 4400TIP3    H213165   2.166   4.315   3.215 -0.7192  0.2516  0.2051
 4401TIP3   OH213166   1.884   1.169   4.318  0.0437 -0.4384  0.1733
 4401TIP3    H113167   1.841   1.182   4.402 -0.7749 -0.9736 -0.1511
 4401TIP3    H213168   1.828   1.107   4.271  1.5959 -1.8341  0.0631
 4402TIP3   OH213169   5.350   2.725   5.750  0.1636 -0.1763  0.6971
 4402TIP3    H113170   5.437   2.688   5.735  0.7615  1.0867  0.9164
 4402TIP3    H213171   5.306   2.661   5.806  0.7195 -1.1243  0.0810
 4403TIP3   OH213172   0.328   4.634   3.908  0.7201  0.0638  0.0560
 4403TIP3    H113173   0.243   4.598   3.935 -0.1331  0.1458 -2.3040
 4403TIP3    H213174   0.306   4.714   3.860  2.1223  0.0932 -0.5897
 4404TIP3   OH213175   4.627   2.868   4.511 -0.2503 -0.5117  0.5071
 4404TIP3    H113176   4.592   2.944   4.559  0.0710 -0.3496  0.4860
 4404TIP3    H213177   4.572   2.795   4.540 -1.1601 -0.1198 -0.1613
 4405TIP3   OH213178   5.694   5.690   1.616 -0.3247  0.3690  0.5574
 4405TIP3    H113179   5.604   5.678   1.646 -0.4264  1.1221  0.5754
 4405TIP3    H213180   5.697   5.646   1.532 -0.9807  1.1367  0.1161
 4406TIP3   OH213181   3.168   2.123   4.350  0.1912 -0.3944 -0.3057
 4406TIP3    H113182   3.122   2.195   4.305 -0.2922 -0.6771 -0.2752
 4406TIP3    H213183   3.259   2.152   4.355 -0.3917  1.3524  1.9204
 4407TIP3   OH213184   7.160   2.632   0.090  0.5358 -0.1894 -0.6990
 4407TIP3    H113185   7.160   2.719   0.130 -2.2941  0.2814 -1.5207
 4407TIP3    H213186   7.239   2.631   0.036  1.6744  1.0825  0.8424
 4408TIP3   OH213187   2.416   3.913   3.751  0.9641  0.0188  0.1560
 4408TIP3    H113188   2.398   3.922   3.658 -1.1038  1.7436  0.6539
 4408TIP3    H213189   2.474   3.987   3.771  0.3545  0.4276  0.4518
 4409TIP3   OH213190   6.780   2.407   2.759 -0.3162 -0.4346  0.0600
 4409TIP3    H113191   6.699   2.449   2.787  1.2438  3.0200 -0.1535
 4409TIP3    H213192   6.825   2.383   2.840 -1.0870 -1.5639  0.1843
 4410TIP3   OH213193   3.895   1.175   4.118  0.4967  0.3703 -0.0029
 4410TIP3    H113194   3.976   1.130   4.095  0.1628 -0.8787  1.1218
 4410TIP3    H213195   3.879   1.150   4.209 -1.3145  0.3279 -0.2996
 4411TIP3   OH213196   5.950   0.010   4.941 -0.4196 -0.2514 -0.1711
 4411TIP3    H113197   6.031   0.019   4.891 -0.8702  0.9447 -0.7454
 4411TIP3    H213198   5.887   0.064   4.893 -1.8265 -1.9128 -0.2992
 4412TIP3   OH213199   0.869   2.427   0.417 -0.5246 -0.0084 -0.1450
 4412TIP3    H113200   0.878   2.414   0.512  0.6929 -0.6006 -0.3334
 4412TIP3    H213201   0.777   2.407   0.399 -0.4765 -1.1208  0.7240
 4413TIP3   OH213202   6.224   0.696   1.417 -0.0634 -0.1941 -0.0640
 4413TIP3    H113203   6.226   0.656   1.504 -1.1868  0.8266  0.4675
 4413TIP3    H213204   6.246   0.625   1.357 -0.7266 -1.2864  0.9371
 4414TIP3   OH213205   3.392   3.217   1.848  0.8173 -0.6747 -0.4825
 4414TIP3    H113206   3.471   3.189   1.893 -0.0531 -1.1099  0.8587
 4414TIP3    H213207   3.352   3.281   1.907 -1.4454 -2.7946  0.4825
 4415TIP3   OH213208   5.234   1.692   2.294  0.3078  0.4731 -0.1403
 4415TIP3    H113209   5.229   1.704   2.389  0.5450  0.1690 -0.0899
 4415TIP3    H213210   5.327   1.696   2.274  0.3515 -0.6583 -0.2025
 4416TIP3   OH213211   5.604   6.514   5.844 -0.1872  0.0282 -0.3092
 4416TIP3    H113212   5.536   6.454   5.812 -0.8931  1.1716 -1.0205
 4416TIP3    H213213   5.559   6.569   5.907 -0.3193  1.7197 -1.8023
 4417TIP3   OH213214   5.921   1.115   5.191 -0.4254 -0.0912 -0.4044
 4417TIP3    H113215   5.969   1.188   5.152 -2.4353  1.2930 -0.4880
 4417TIP3    H213216   5.889   1.064   5.116  2.5409 -2.2665 -0.3370
 4418TIP3   OH213217   2.994   1.563   4.284 -0.0280  0.2026 -0.6541
 4418TIP3    H113218   2.954   1.642   4.321  0.6166  0.6793 -0.9570
 4418TIP3    H213219   3.000   1.502   4.358 -1.6158 -0.0202 -0.6653
 4419TIP3   OH213220   4.541   2.843   4.230 -0.1813 -0.5293  0.3899
 4419TIP3    H113221   4.610   2.839   4.163 -1.0812 -3.0588 -0.4934
 4419TIP3    H213222   4.589   2.855   4.312  1.2930 -1.6896 -0.2446
 4420TIP3   OH213223   5.215   0.153   2.779  0.6564  0.6117  0.0081
 4420TIP3    H113224   5.281   0.137   2.846  0.9625 -0.9885 -0.6323
 4420TIP3    H213225   5.132   0.139   2.825  0.8103  0.9186  0.3901
 4421TIP3   OH213226   0.464   1.803   5.283  0.1682 -0.0667 -0.4781
 4421TIP3    H113227   0.372   1.796   5.311  0.5362  0.4599  0.9608
 4421TIP3    H213228   0.486   1.895   5.296  0.6506 -0.0043 -1.6681
 4422TIP3   OH213229   1.326   1.784   3.924 -0.5124 -0.0232  0.0109
 4422TIP3    H113230   1.350   1.811   4.013 -1.7758 -0.1224  0.4050
 4422TIP3    H213231   1.359   1.694   3.917 -2.7508 -1.0220  1.3965
 4423TIP3   OH213232   6.476   1.969   0.444 -0.1989  0.0632  0.2539
 4423TIP3    H113233   6.443   1.885   0.476 -1.1457 -0.2909 -1.4970
 4423TIP3    H213234   6.463   2.030   0.517 -1.3590 -0.8809  0.8636
 4424TIP3   OH213235   4.422   1.823   0.358 -0.5253 -0.0727 -0.6256
 4424TIP3    H113236   4.352   1.785   0.303 -1.5511  1.8258 -0.7162
 4424TIP3    H213237   4.412   1.780   0.443 -1.5536 -0.1276 -0.7631
 4425TIP3   OH213238   6.521   2.810   1.107 -0.4443 -0.6597  0.9228
 4425TIP3    H113239   6.487   2.820   1.196  0.0889  0.7874  1.0042
 4425TIP3    H213240   6.491   2.889   1.062  2.1857  0.3846  0.8341
 4426TIP3   OH213241   4.333   5.998   0.243  0.0480 -0.1479  0.2499
 4426TIP3    H113242   4.291   5.941   0.307 -0.2306 -1.0446 -0.6966
 4426TIP3    H213243   4.422   5.964   0.234  0.0939 -0.0127  0.1769
 4427TIP3   OH213244   0.633   2.636   2.018  0.1423  0.2286 -0.2268
 4427TIP3    H113245   0.643   2.664   1.927 -4.1438  0.0630 -0.9594
 4427TIP3    H213246   0.614   2.543   2.012 -1.0408  0.3967  0.7261
 4428TIP3   OH213247   3.266   0.409   3.470 -0.0013 -0.0574  0.0524
 4428TIP3    H113248   3.178   0.446   3.483 -0.5216 -1.0359 -0.5145
 4428TIP3    H213249   3.252   0.336   3.409  1.5434  1.2265 -2.0082
 4429TIP3   OH213250   6.469   5.417   5.059  0.0166  0.4126 -0.2725
 4429TIP3    H113251   6.514   5.491   5.100  0.2045 -0.1610  0.5977
 4429TIP3    H213252   6.474   5.434   4.965  1.7368  0.5556 -0.1839
 4430TIP3   OH213253   6.538   3.171   0.657  0.5437  0.1404  0.2054
 4430TIP3    H113254   6.533   3.105   0.726  0.0270  0.0501  0.0855
 4430TIP3    H213255   6.490   3.246   0.691  0.0061 -0.0242 -0.1856
 4431TIP3   OH213256   5.707   1.406   0.758  0.2533 -0.0525  0.2446
 4431TIP3    H113257   5.779   1.388   0.818  1.5049 -0.8388 -1.4240
 4431TIP3    H213258   5.710   1.501   0.745  0.0945  0.1009  1.2374
 4432TIP3   OH213259   3.915   3.288   3.070 -0.2575 -0.1397 -0.1164
 4432TIP3    H113260   3.862   3.273   2.992 -2.3307  1.9834  0.7604
 4432TIP3    H213261   3.982   3.219   3.068 -1.3965 -1.2818 -2.7228
 4433TIP3   OH213262   6.898   6.202   4.696  0.5607 -0.2288  0.2627
 4433TIP3    H113263   6.942   6.286   4.693  2.7946 -1.3610 -0.8887
 4433TIP3    H213264   6.968   6.138   4.709 -1.2662 -1.8033  4.0326
 4434TIP3   OH213265   6.847   4.395   3.330  0.0111 -0.2113  0.0160
 4434TIP3    H113266   6.823   4.365   3.418  2.5127 -0.9103  0.5220
 4434TIP3    H213267   6.859   4.315   3.279  2.3805 -0.0227  0.1586
 4435TIP3   OH213268   2.183   1.019   3.230  0.4134 -0.0573  0.3315
 4435TIP3    H113269   2.194   1.063   3.146  1.0294  0.3373  0.6160
 4435TIP3    H213270   2.232   0.937   3.222  1.1100  0.3316  0.5666
 4436TIP3   OH213271   0.078   3.148   4.132 -0.2208  0.0112 -0.0080
 4436TIP3    H113272   0.037   3.061   4.136 -1.4160  0.4870 -1.1533
 4436TIP3    H213273   0.055   3.190   4.214  0.3840 -0.7498  0.5664
 4437TIP3   OH213274   0.671   5.737   4.492  0.1108  0.1213  0.3385
 4437TIP3    H113275   0.655   5.767   4.581  1.1560 -0.6270  0.8046
 4437TIP3    H213276   0.748   5.680   4.500 -0.1470 -0.4329 -0.9447
 4438TIP3   OH213277   7.006   1.339   1.859  0.1928 -0.1010 -0.1488
 4438TIP3    H113278   6.916   1.321   1.883 -0.4380  1.7912 -0.9273
 4438TIP3    H213279   7.054   1.259   1.883 -1.9584 -1.8963 -1.4196
 4439TIP3   OH213280   5.726   4.575   0.203 -0.1992  0.0669  0.1275
 4439TIP3    H113281   5.658   4.523   0.160  1.2985 -0.9287 -1.1454
 4439TIP3    H213282   5.768   4.623   0.132  0.6565  0.3719  0.8241
 4440TIP3   OH213283   3.467   5.927   4.983  0.2175  0.2567 -0.0375
 4440TIP3    H113284   3.539   5.931   4.920  1.0826  0.5247  0.9461
 4440TIP3    H213285   3.499   5.973   5.060 -0.3992 -0.9963  1.0154
 4441TIP3   OH213286   4.774   3.268   2.192  0.3523  0.6206 -0.6283
 4441TIP3    H113287   4.816   3.225   2.267 -0.0440  1.7448  0.2621
 4441TIP3    H213288   4.837   3.335   2.165  0.2569  0.5784 -0.9577
 4442TIP3   OH213289   6.756   4.593   3.866 -0.1070  0.1182  0.2135
 4442TIP3    H113290   6.751   4.637   3.781 -1.6278 -0.8992 -0.2811
 4442TIP3    H213291   6.807   4.513   3.849 -0.3794 -0.0669  0.2599
 4443TIP3   OH213292   3.878   6.151   2.172  0.2080 -0.1160  0.0993
 4443TIP3    H113293   3.963   6.195   2.176  0.0170  0.3030 -0.3983
 4443TIP3    H213294   3.814   6.222   2.168 -0.0300 -0.3813 -2.2917
 4444TIP3   OH213295   5.181   0.096   1.438 -0.3037 -0.3501 -0.0554
 4444TIP3    H113296   5.218   0.064   1.356 -0.8122  1.2094 -0.9237
 4444TIP3    H213297   5.127   0.023   1.470  3.0807 -2.6181  1.1066
 4445TIP3   OH213298   1.718   0.791   5.794 -0.3661 -0.2379  0.3902
 4445TIP3    H113299   1.673   0.816   5.713  1.6500  1.5446 -0.2657
 4445TIP3    H213300   1.684   0.850   5.860  0.9375  1.1101 -0.1048
 4446TIP3   OH213301   6.889   0.930   2.652  0.0386  0.4607 -0.4334
 4446TIP3    H113302   6.810   0.933   2.706  0.6332  0.9534  0.4346
 4446TIP3    H213303   6.958   0.965   2.708  0.9228 -0.1448 -1.1095
 4447TIP3   OH213304   3.211   0.206   0.917  0.2710  0.1502  0.4583
 4447TIP3    H113305   3.140   0.269   0.904  0.3230  0.1636  0.2303
 4447TIP3    H213306   3.285   0.258   0.945  0.2111  0.1451  0.6270
 4448TIP3   OH213307   2.358   4.926   2.000  0.6853  0.2824 -0.2452
 4448TIP3    H113308   2.325   4.907   1.912 -0.0117 -0.1908  0.1047
 4448TIP3    H213309   2.284   4.966   2.045  0.6792 -0.5009  0.4589
 4449TIP3   OH213310   2.905   1.257   3.211  0.2230  0.0825  0.3635
 4449TIP3    H113311   2.863   1.296   3.288  0.5567  0.4940  0.3409
 4449TIP3    H213312   2.851   1.181   3.190 -1.0794  1.1274 -0.2463
 4450TIP3   OH213313   2.469   3.794   2.719 -0.1183 -0.2737 -0.1674
 4450TIP3    H113314   2.517   3.717   2.689  0.5025  0.4285 -1.0176
 4450TIP3    H213315   2.413   3.818   2.646 -0.2985  0.0919  0.0878
 4451TIP3   OH213316   6.819   4.286   5.063  0.4071  0.1800 -0.2334
 4451TIP3    H113317   6.761   4.257   5.133 -0.9526  0.1019 -1.3569
 4451TIP3    H213318   6.896   4.229   5.071 -0.3653 -0.8327  0.2665
 4452TIP3   OH213319   4.744   2.782   3.532 -0.4350  0.1040 -0.1743
 4452TIP3    H113320   4.791   2.811   3.454 -1.3678  1.5302 -0.2589
 4452TIP3    H213321   4.789   2.703   3.560  0.2652 -0.1215 -1.8298
 4453TIP3   OH213322   1.835   2.150   3.414  0.0654 -0.2614  0.7829
 4453TIP3    H113323   1.771   2.080   3.402 -2.4599  1.6325  2.1002
 4453TIP3    H213324   1.832   2.200   3.332  1.0826 -1.0527  0.2453
 4454TIP3   OH213325   7.059   4.024   3.805  0.2884  0.4441  0.3070
 4454TIP3    H113326   7.073   4.006   3.898 -0.0385 -1.5906 -0.0016
 4454TIP3    H213327   7.122   4.094   3.785  1.1871  0.1078  1.7844
 4455TIP3   OH213328   3.439   3.728   5.027 -0.2916  0.0096 -0.0675
 4455TIP3    H113329   3.395   3.665   5.084 -1.1336  0.5849 -0.0610
 4455TIP3    H213330   3.399   3.812   5.048  0.2813  0.4334 -0.6104
 4456TIP3   OH213331   1.725   2.860   4.334  0.2165 -0.3885  0.3867
 4456TIP3    H113332   1.679   2.883   4.253  1.0809 -0.8604 -0.2555
 4456TIP3    H213333   1.792   2.798   4.306 -0.5816 -1.9302  1.7253
 4457TIP3   OH213334   5.155   1.071   4.393  0.5114 -0.0993 -0.2794
 4457TIP3    H113335   5.148   1.067   4.297 -2.3399  1.8340 -0.2896
 4457TIP3    H213336   5.101   0.998   4.424  1.4381 -0.7284 -0.1137
 4458TIP3   OH213337   5.258   2.175   3.631  0.1912 -0.2787  0.5650
 4458TIP3    H113338   5.267   2.249   3.691  0.5237 -1.1403  1.5985
 4458TIP3    H213339   5.294   2.100   3.678 -0.5349 -1.2035 -0.2860
 4459TIP3   OH213340   4.824   2.463   1.641 -1.0050 -0.5023 -0.1181
 4459TIP3    H113341   4.789   2.374   1.638  0.2973 -1.0328 -2.0271
 4459TIP3    H213342   4.770   2.511   1.577 -0.1534 -0.5828 -0.9143
 4460TIP3   OH213343   3.542   3.915   3.166  0.3048  0.5329  0.3017
 4460TIP3    H113344   3.599   3.919   3.089 -0.0909  2.0383  0.0540
 4460TIP3    H213345   3.566   3.991   3.218 -0.6202  0.4910  0.8073
 4461TIP3   OH213346   4.440   2.894   5.384  0.2181 -0.4862 -0.2192
 4461TIP3    H113347   4.455   2.833   5.311  0.4665 -0.4308 -0.2146
 4461TIP3    H213348   4.477   2.849   5.460  1.5927  0.2232 -0.4379
 4462TIP3   OH213349   2.469   0.323   5.713  0.0293 -0.2085 -0.4448
 4462TIP3    H113350   2.534   0.358   5.773  1.8964 -0.0719 -2.4386
 4462TIP3    H213351   2.401   0.391   5.710  1.2867  1.0909 -0.6230
 4463TIP3   OH213352   4.369   0.027   3.838  0.3218  0.1629  0.1542
 4463TIP3    H113353   4.291  -0.008   3.882 -0.0583 -1.6265 -1.8240
 4463TIP3    H213354   4.397   0.099   3.895 -1.6154 -0.3838  1.9470
 4464TIP3   OH213355   4.605   2.977   0.287 -0.8104  0.1111  0.2815
 4464TIP3    H113356   4.516   2.945   0.304 -1.4222  1.1248 -0.9119
 4464TIP3    H213357   4.643   2.989   0.374 -2.1537  0.5255  0.8301
 4465TIP3   OH213358   5.815   1.284   4.720  0.2485  0.5257 -0.3935
 4465TIP3    H113359   5.789   1.279   4.812  0.7969 -0.5825 -0.2876
 4465TIP3    H213360   5.739   1.252   4.672 -0.2137  1.5411 -0.3782
 4466TIP3   OH213361   2.440   0.682   4.466  0.4544 -0.2849 -0.3568
 4466TIP3    H113362   2.417   0.768   4.501  0.7201  0.0043 -0.8808
 4466TIP3    H213363   2.493   0.701   4.389  2.0155 -0.9102  0.5022
 4467TIP3   OH213364   4.680   3.384   3.991  0.0627  0.3518 -0.2333
 4467TIP3    H113365   4.659   3.293   4.012  1.4727 -0.8986 -3.5999
 4467TIP3    H213366   4.638   3.400   3.906 -1.6363  3.5415  0.9998
 4468TIP3   OH213367   6.147   3.471   1.374  0.7630 -0.9857 -0.0294
 4468TIP3    H113368   6.063   3.443   1.337 -1.0595  1.6079  1.7692
 4468TIP3    H213369   6.161   3.558   1.336  1.4646 -0.4488  1.3887
 4469TIP3   OH213370   4.923   6.388   5.614 -0.3752 -0.0541 -0.2991
 4469TIP3    H113371   4.925   6.462   5.554  1.1052 -0.7707 -1.1678
 4469TIP3    H213372   4.935   6.311   5.559 -1.3342 -0.9285  0.6542
 4470TIP3   OH213373   3.522   6.557   5.013 -0.4729 -0.0193 -0.2705
 4470TIP3    H113374   3.521   6.644   4.972  1.4453  0.5959  0.8315
 4470TIP3    H213375   3.432   6.542   5.041 -1.3024  0.6354 -2.4074
 4471TIP3   OH213376   3.360   3.410   1.631 -0.2540 -0.4554  0.0085
 4471TIP3    H113377   3.402   3.496   1.629 -0.1385 -0.4524  1.5222
 4471TIP3    H213378   3.427   3.351   1.665 -0.7629 -0.8645  0.3204
 4472TIP3   OH213379   5.099   5.598   1.592 -0.7542  0.1003  0.5003
 4472TIP3    H113380   5.158   5.562   1.526  1.6921 -1.0649  3.1233
 4472TIP3    H213381   5.114   5.693   1.589  2.1965 -0.2256  1.7734
 4473TIP3   OH213382   2.254   0.953   1.107 -0.4080  0.9350  0.2201
 4473TIP3    H113383   2.167   0.993   1.104 -0.0662  1.8333  1.3184
 4473TIP3    H213384   2.291   0.984   1.190  1.6958  2.1925 -1.0821
 4474TIP3   OH213385   4.676   0.818   3.393 -0.3722  0.1225  0.5261
 4474TIP3    H113386   4.750   0.834   3.335 -0.2843 -2.9166 -0.3595
 4474TIP3    H213387   4.716   0.802   3.479 -0.1963  0.7233  0.5596
 4475TIP3   OH213388   2.579   0.986   3.979 -0.5500 -0.1187 -0.0232
 4475TIP3    H113389   2.585   1.080   3.998 -2.6820  0.6309 -2.4697
 4475TIP3    H213390   2.670   0.956   3.976  0.3284  2.3973 -1.5185
 4476TIP3   OH213391   1.423   6.010   5.053  0.0829 -0.1929 -0.4979
 4476TIP3    H113392   1.397   6.037   5.141 -0.5694 -0.7083 -0.5264
 4476TIP3    H213393   1.505   5.963   5.066 -0.3452 -0.8399 -0.0771
 4477TIP3   OH213394   4.802   2.146   5.136 -0.3053 -0.1765  0.0079
 4477TIP3    H113395   4.808   2.081   5.206  0.6486 -1.1912 -0.9849
 4477TIP3    H213396   4.815   2.230   5.180 -1.3474 -0.6378  1.2809
 4478TIP3   OH213397   5.967   3.729   4.801 -0.3188  0.7178 -0.5465
 4478TIP3    H113398   5.881   3.699   4.829  0.3248  0.0023  0.7475
 4478TIP3    H213399   5.956   3.823   4.786 -1.0985  0.8243  0.5880
 4479TIP3   OH213400   4.493   6.388   1.738  0.3580 -0.9042 -0.3974
 4479TIP3    H113401   4.544   6.371   1.658  3.1493 -0.5279  1.1585
 4479TIP3    H213402   4.471   6.481   1.732  0.7609 -0.8204 -0.6210
 4480TIP3   OH213403   7.176   3.662   0.157  0.2636 -0.1508  0.2786
 4480TIP3    H113404   7.166   3.654   0.252 -0.6156 -1.3931  0.1164
 4480TIP3    H213405   7.197   3.754   0.143 -0.5137  0.2655  1.6087
 4481TIP3   OH213406   1.970   2.020   4.274  0.7193  0.6218  0.5125
 4481TIP3    H113407   2.022   1.943   4.296 -0.4638 -0.6234 -0.7764
 4481TIP3    H213408   1.941   2.004   4.184 -1.9767  1.1736  1.1992
 4482TIP3   OH213409   4.591   3.855   4.020 -0.0453  0.1854  0.2522
 4482TIP3    H113410   4.553   3.927   4.070 -1.4319 -0.5537  0.2964
 4482TIP3    H213411   4.528   3.783   4.028  0.8543 -0.7370 -0.5643
 4483TIP3   OH213412   6.170   5.314   1.853 -0.1417  0.1388  0.9180
 4483TIP3    H113413   6.142   5.223   1.843  0.6259 -0.1085  0.9133
 4483TIP3    H213414   6.120   5.346   1.928 -1.7529  0.2839 -0.1824
 4484TIP3   OH213415   3.691   2.479   1.782  0.1207 -0.3735 -0.7844
 4484TIP3    H113416   3.682   2.439   1.868 -1.1247 -2.3895 -1.7876
 4484TIP3    H213417   3.771   2.532   1.788  1.1000 -1.9551  1.0342
 4485TIP3   OH213418   0.637   4.101   2.131  0.0184  0.4287  0.1184
 4485TIP3    H113419   0.550   4.141   2.125  0.3951  1.1389 -0.7616
 4485TIP3    H213420   0.698   4.174   2.139  0.6120 -0.0190 -0.1938
 4486TIP3   OH213421   2.539   4.344   3.092  0.2242  0.0089  0.1479
 4486TIP3    H113422   2.599   4.349   3.166  3.0907 -0.4215 -2.0063
 4486TIP3    H213423   2.561   4.419   3.037 -0.5445 -0.6806 -1.1586
 4487TIP3   OH213424   1.526   5.561   4.119  0.9315  0.0376 -0.2240
 4487TIP3    H113425   1.533   5.494   4.051 -2.2823 -1.7038  0.9406
 4487TIP3    H213426   1.441   5.602   4.104  1.5592  1.8588  0.8639
 4488TIP3   OH213427   5.081   1.528   1.239  0.7633 -0.5453 -0.2598
 4488TIP3    H113428   5.144   1.488   1.298  0.0474 -0.2959  0.6819
 4488TIP3    H213429   5.083   1.472   1.161  0.2272 -2.0738  0.7862
 4489TIP3   OH213430   2.475   5.457   4.559 -0.2917  0.2060  0.2409
 4489TIP3    H113431   2.516   5.429   4.641  2.2253  0.0217 -0.9829
 4489TIP3    H213432   2.400   5.399   4.549  1.0379 -1.7467  0.9946
 4490TIP3   OH213433   1.303   1.997   4.218 -0.1970 -0.6537 -0.3410
 4490TIP3    H113434   1.231   1.944   4.185 -1.0866  1.4403 -1.9934
 4490TIP3    H213435   1.267   2.039   4.297  0.0802 -1.4650  0.2332
 4491TIP3   OH213436   5.743   3.648   4.929 -0.3032  0.3724 -0.7336
 4491TIP3    H113437   5.729   3.739   4.954 -1.0918  0.3371 -1.0219
 4491TIP3    H213438   5.713   3.597   5.005 -0.8585  0.3256 -0.9798
 4492TIP3   OH213439   0.476   4.644   5.349 -0.5724  0.3939  0.0574
 4492TIP3    H113440   0.561   4.675   5.380 -0.9900  0.7142  0.9223
 4492TIP3    H213441   0.420   4.646   5.427 -1.4354  0.4155 -0.5500
 4493TIP3   OH213442   0.913   0.404   0.612 -0.8654 -0.0655  0.9560
 4493TIP3    H113443   0.857   0.409   0.535  0.8476 -0.7725 -0.3939
 4493TIP3    H213444   0.901   0.315   0.645  0.3208 -0.6630 -0.0930
 4494TIP3   OH213445   4.773   4.411   5.792 -0.3754  0.0385 -0.3121
 4494TIP3    H113446   4.746   4.434   5.881 -0.9313 -1.7727  0.0372
 4494TIP3    H213447   4.755   4.489   5.741 -1.7742  0.5258  0.8421
 4495TIP3   OH213448   0.104   0.049   2.799 -0.5784 -0.2415  0.6583
 4495TIP3    H113449   0.011   0.074   2.804 -0.3645  0.8048 -0.2137
 4495TIP3    H213450   0.124   0.051   2.706  0.4733  0.0908  0.8843
 4496TIP3   OH213451   0.065   4.016   1.462  0.6418  0.1818  0.0015
 4496TIP3    H113452   0.150   3.973   1.477  0.9818  0.6360 -0.5938
 4496TIP3    H213453   0.075   4.060   1.377 -0.7589 -1.1539 -0.8985
 4497TIP3   OH213454   3.027   3.402   0.533 -0.5091 -0.2391  0.1190
 4497TIP3    H113455   3.079   3.341   0.482 -1.0110 -0.6713  0.1182
 4497TIP3    H213456   2.972   3.446   0.469 -1.0308 -0.6733  0.2622
 4498TIP3   OH213457   0.902   1.791   2.639 -0.3213 -0.4191 -0.5683
 4498TIP3    H113458   0.914   1.706   2.681 -1.0533  0.2894  1.2136
 4498TIP3    H213459   0.809   1.793   2.617 -0.0785 -0.5049 -1.6222
 4499TIP3   OH213460   5.398   6.266   4.957  0.1211 -0.4508  0.5118
 4499TIP3    H113461   5.334   6.237   4.891  0.8855  1.8057 -1.3821
 4499TIP3    H213462   5.359   6.345   4.994  1.4517  0.5889 -0.2121
 4500TIP3   OH213463   1.333   0.445   0.284  1.1399 -0.3772 -0.2660
 4500TIP3    H113464   1.403   0.383   0.262  0.2969 -1.0180 -1.2122
 4500TIP3    H213465   1.264   0.391   0.323  0.3327 -0.0682 -1.2333
 4501TIP3   OH213466   4.707   6.556   3.713  0.0938  0.0914 -0.3797
 4501TIP3    H113467   4.710   6.631   3.771 -0.5662 -0.1022 -0.0809
 4501TIP3    H213468   4.775   6.573   3.647  1.4121 -0.0730  0.8867
 4502TIP3   OH213469   5.951   0.949   2.011 -0.1198  0.2140  0.2144
 4502TIP3    H113470   5.877   0.995   1.974  1.6520  0.8804 -2.8096
 4502TIP3    H213471   5.960   0.984   2.100 -3.6413 -0.3062  0.9015
 4503TIP3   OH213472   0.816   3.198   3.589 -0.1978  0.1520 -0.2026
 4503TIP3    H113473   0.864   3.205   3.671 -0.0359  1.5253 -0.4014
 4503TIP3    H213474   0.725   3.213   3.613 -0.4789 -1.7405  0.0609
 4504TIP3   OH213475   3.342   5.646   5.513 -0.0281  0.0828  0.3582
 4504TIP3    H113476   3.299   5.713   5.461  1.2567  0.3660 -0.3721
 4504TIP3    H213477   3.284   5.632   5.587 -1.1410  0.7705 -0.3632
 4505TIP3   OH213478   0.700   2.856   2.414  0.7183 -0.0111 -0.5520
 4505TIP3    H113479   0.687   2.841   2.321  0.6128  2.5630 -1.0181
 4505TIP3    H213480   0.795   2.871   2.422  0.4680  1.8453 -0.6475
 4506TIP3   OH213481   0.643   1.761   2.576  0.3635  0.5629 -0.1203
 4506TIP3    H113482   0.662   1.781   2.484  1.2831 -0.7430 -0.2316
 4506TIP3    H213483   0.592   1.837   2.606 -1.5705  0.1912 -2.1816
 4507TIP3   OH213484   3.470   1.789   3.472 -0.2908  0.7636 -0.2217
 4507TIP3    H113485   3.561   1.816   3.484 -0.2802  1.4621 -1.6761
 4507TIP3    H213486   3.429   1.805   3.558  1.5505 -2.3405  1.4099
 4508TIP3   OH213487   3.822   6.592   5.843  0.2349 -0.0290  0.3678
 4508TIP3    H113488   3.831   6.525   5.910 -0.4061 -2.8652 -2.1443
 4508TIP3    H213489   3.885   6.567   5.775 -1.5498  0.5409 -1.6371
 4509TIP3   OH213490   0.164   2.609   3.367 -0.0953  0.3620  0.5453
 4509TIP3    H113491   0.212   2.599   3.285  0.8487 -0.6815  1.1916
 4509TIP3    H213492   0.075   2.632   3.340 -0.3270 -1.8731 -0.8740
 4510TIP3   OH213493   6.609   1.479   1.110 -0.2406  0.0797  0.0687
 4510TIP3    H113494   6.516   1.497   1.121 -0.2430 -0.7823  1.6891
 4510TIP3    H213495   6.613   1.388   1.080  0.0642  0.2413 -0.3854
 4511TIP3   OH213496   1.429   3.238   4.864 -0.0175 -0.0499 -0.3887
 4511TIP3    H113497   1.428   3.209   4.773 -0.1707  0.5943 -0.6027
 4511TIP3    H213498   1.338   3.228   4.894  0.1857 -1.0005 -0.0527
 4512TIP3   OH213499   2.437   3.432   2.431 -0.0618  0.2332  0.5074
 4512TIP3    H113500   2.363   3.492   2.430  2.5808  3.9055  2.6098
 4512TIP3    H213501   2.495   3.463   2.362  0.9517 -0.4763  1.0084
 4513TIP3   OH213502   6.267   2.890   3.890 -0.0221 -0.2335 -0.3971
 4513TIP3    H113503   6.244   2.820   3.950 -3.1245 -0.9546 -2.1511
 4513TIP3    H213504   6.361   2.881   3.877 -0.0455 -3.1024  0.6277
 4514TIP3   OH213505   2.954   2.329   3.416 -0.9631  0.0694 -0.1119
 4514TIP3    H113506   3.036   2.361   3.452 -0.1663 -1.2950 -0.6419
 4514TIP3    H213507   2.906   2.295   3.492  0.1510 -1.5993 -0.0956
 4515TIP3   OH213508   3.392   5.408   2.640 -0.6052 -0.4687 -0.0103
 4515TIP3    H113509   3.347   5.431   2.559  1.6516 -0.1504 -1.2380
 4515TIP3    H213510   3.403   5.491   2.686  0.4606 -0.2475 -0.6515
 4516TIP3   OH213511   1.005   1.011   0.527  0.1264  0.0296 -0.9347
 4516TIP3    H113512   0.952   0.934   0.549  0.5225  0.0371  0.1072
 4516TIP3    H213513   1.049   0.987   0.445  0.8512 -1.1918 -0.2268
 4517TIP3   OH213514   4.008   5.855   3.399 -0.5112  0.1036  0.2461
 4517TIP3    H113515   4.093   5.812   3.408 -1.0466 -0.8880  0.8081
 4517TIP3    H213516   4.010   5.895   3.312 -0.0136 -1.1505 -0.3454
 4518TIP3   OH213517   6.467   0.723   1.204  0.1802  0.8272 -0.5805
 4518TIP3    H113518   6.378   0.687   1.199  0.2570  0.1238  1.8800
 4518TIP3    H213519   6.458   0.812   1.172 -1.6172  1.0660  0.4414
 4519TIP3   OH213520   1.412   4.608   5.667 -0.5881  0.0267 -0.2702
 4519TIP3    H113521   1.340   4.668   5.651 -1.1469  0.0752  2.0970
 4519TIP3    H213522   1.491   4.660   5.653 -1.0566  0.8641  0.1328
 4520TIP3   OH213523   3.314   2.116   4.792 -0.2709 -0.0771 -0.0718
 4520TIP3    H113524   3.378   2.186   4.779  0.9637 -0.7538  1.9083
 4520TIP3    H213525   3.367   2.036   4.801 -1.6036 -1.1938 -1.5333
 4521TIP3   OH213526   1.239   5.879   1.220 -0.2555  0.1386 -0.2206
 4521TIP3    H113527   1.218   5.798   1.172  1.4065 -0.8611  0.6421
 4521TIP3    H213528   1.282   5.934   1.155  0.3888 -0.4987 -0.3583
 4522TIP3   OH213529   3.157   5.975   0.434 -0.1784 -0.5339  0.0387
 4522TIP3    H113530   3.132   5.887   0.407 -2.7945  0.1434 -0.0311
 4522TIP3    H213531   3.078   6.027   0.423  0.9884  1.6198  1.0819
 4523TIP3   OH213532   0.403   5.097   2.169 -0.2552 -0.4052 -0.0455
 4523TIP3    H113533   0.436   5.017   2.209 -0.3018 -0.6733 -0.5403
 4523TIP3    H213534   0.481   5.145   2.141 -0.2093 -0.0761  0.6280
 4524TIP3   OH213535   2.818   5.571   1.349 -0.6331  0.0665 -0.2854
 4524TIP3    H113536   2.824   5.612   1.263 -1.3354  0.9630  0.0787
 4524TIP3    H213537   2.849   5.482   1.335  2.1798  1.0257 -0.8522
 4525TIP3   OH213538   5.491   4.893   4.091 -0.2761  0.1724  0.1648
 4525TIP3    H113539   5.484   4.811   4.042 -1.7413  0.0267  0.5609
 4525TIP3    H213540   5.413   4.943   4.065  1.0107  1.8311 -0.7208
 4526TIP3   OH213541   1.401   6.664   5.100  0.3269  0.1758 -0.0594
 4526TIP3    H113542   1.426   6.572   5.109  0.8483  0.1579 -1.4175
 4526TIP3    H213543   1.467   6.701   5.041  0.0884  1.4093  0.4114
 4527TIP3   OH213544   3.613   1.438   5.606  0.3849 -0.2338  0.1886
 4527TIP3    H113545   3.681   1.472   5.549  0.3816  0.1263  0.3958
 4527TIP3    H213546   3.598   1.349   5.575  1.5204 -0.6005  0.6476
 4528TIP3   OH213547   2.409   1.845   0.711 -0.1332  0.8760 -0.0666
 4528TIP3    H113548   2.347   1.871   0.779 -0.6881 -0.9111  0.1725
 4528TIP3    H213549   2.437   1.757   0.737 -1.2795 -0.3933 -2.7175
 4529TIP3   OH213550   4.524   0.285   4.057  0.4083  0.1544  0.0187
 4529TIP3    H113551   4.493   0.324   3.976  0.5210 -0.1732 -0.1862
 4529TIP3    H213552   4.507   0.350   4.124 -1.5740 -0.3756  0.0753
 4530TIP3   OH213553   0.169   5.432   4.314  0.1140  0.2845  0.3988
 4530TIP3    H113554   0.176   5.467   4.225 -0.4239 -1.7804 -0.5234
 4530TIP3    H213555   0.077   5.443   4.336 -0.2603 -1.1932 -0.2491
 4531TIP3   OH213556   6.168   0.355   1.637  0.9436  0.3211 -0.2338
 4531TIP3    H113557   6.155   0.291   1.568 -2.9650  0.6727 -0.0442
 4531TIP3    H213558   6.111   0.428   1.614 -1.6561 -0.1074  3.8704
 4532TIP3   OH213559   0.727   0.764   0.379 -0.3692 -0.0503  0.2443
 4532TIP3    H113560   0.719   0.720   0.464 -1.3085  0.5855  0.4970
 4532TIP3    H213561   0.639   0.799   0.362  0.2310  1.2758 -0.1978
 4533TIP3   OH213562   5.913   1.830   1.598  0.3030  0.1741 -0.9295
 4533TIP3    H113563   5.928   1.897   1.532 -0.1222  1.2755  0.0435
 4533TIP3    H213564   5.939   1.872   1.681  0.1323 -0.9057 -0.3065
 4534TIP3   OH213565   3.688   5.026   4.656 -0.2545 -0.1021 -0.2922
 4534TIP3    H113566   3.629   4.958   4.689 -0.4912 -0.2048 -0.9160
 4534TIP3    H213567   3.728   4.987   4.579 -1.2108  0.8535 -1.2910
 4535TIP3   OH213568   5.809   2.929   4.748 -0.3795 -0.1242  0.0692
 4535TIP3    H113569   5.842   2.847   4.711 -0.6012 -0.9307  1.5664
 4535TIP3    H213570   5.887   2.971   4.785 -0.1774  0.6245 -1.1458
 4536TIP3   OH213571   6.507   4.314   4.288  0.4873 -0.4472 -0.3100
 4536TIP3    H113572   6.485   4.224   4.264  1.1519 -0.3996 -1.1443
 4536TIP3    H213573   6.464   4.368   4.221  0.6583 -0.1825 -0.2072
 4537TIP3   OH213574   1.141   6.713   5.083 -0.9553 -0.6324 -0.1938
 4537TIP3    H113575   1.121   6.693   5.174  0.0977  1.7963  0.6682
 4537TIP3    H213576   1.234   6.691   5.073 -0.4021  1.3443  0.1105
 4538TIP3   OH213577   0.536   4.943   0.870  0.1369  0.1372 -0.0754
 4538TIP3    H113578   0.521   4.896   0.787 -2.7610  0.1278  0.3352
 4538TIP3    H213579   0.586   4.882   0.923 -0.7878 -1.2391 -0.7109
 4539TIP3   OH213580   1.132   3.155   4.550  0.4543  0.0457  0.1288
 4539TIP3    H113581   1.120   3.132   4.642  1.2431 -0.6599  0.0711
 4539TIP3    H213582   1.174   3.241   4.551 -0.5117  0.5292  0.3952
 4540TIP3   OH213583   1.505   1.365   3.686  0.6639 -0.1770  0.1688
 4540TIP3    H113584   1.580   1.409   3.647  1.1324 -0.5465  0.6336
 4540TIP3    H213585   1.453   1.335   3.612 -0.0027  1.6775 -0.1892
 4541TIP3   OH213586   3.609   2.048   3.482 -0.1073  0.3096  0.4654
 4541TIP3    H113587   3.603   2.064   3.576  0.3430  0.9942  0.3824
 4541TIP3    H213588   3.695   2.007   3.471 -0.5437 -0.6415  0.4588
 4542TIP3   OH213589   6.766   6.510   4.060  0.5932 -0.0567 -0.0988
 4542TIP3    H113590   6.791   6.601   4.074 -0.3155  0.1725  0.0931
 4542TIP3    H213591   6.677   6.504   4.094  0.2943 -0.7885 -0.9776
 4543TIP3   OH213592   1.914   2.995   3.077  0.5043  0.1637  0.4237
 4543TIP3    H113593   2.004   3.012   3.103  0.4937  0.1736  0.4548
 4543TIP3    H213594   1.861   3.033   3.147  0.4808  0.0121  0.4889
 4544TIP3   OH213595   0.064   3.545   1.878  0.6078 -0.0331 -0.2787
 4544TIP3    H113596   0.107   3.488   1.814 -1.5157 -2.1732  0.0740
 4544TIP3    H213597  -0.029   3.537   1.859  0.0672  1.2263  1.5388
 4545TIP3   OH213598   0.094   5.171   5.706 -0.0166  0.4970 -0.4155
 4545TIP3    H113599   0.162   5.231   5.736 -1.8949  1.7345  1.6103
 4545TIP3    H213600   0.058   5.213   5.627 -0.3578  1.3372  0.1749
 4546TIP3   OH213601   4.208   4.143   5.249 -0.5263 -0.2720 -0.0566
 4546TIP3    H113602   4.249   4.227   5.224 -1.0420 -0.3172 -1.0818
 4546TIP3    H213603   4.114   4.161   5.247 -0.6175 -0.1376  2.4094
 4547TIP3   OH213604   4.863   5.639   0.773 -0.3068 -0.4212  0.7016
 4547TIP3    H113605   4.867   5.688   0.855  1.5653  0.0154  0.4066
 4547TIP3    H213606   4.830   5.703   0.709  0.0917 -0.1727  0.7412
 4548TIP3   OH213607   2.511   1.711   3.284 -0.5647  0.3223 -0.6601
 4548TIP3    H113608   2.516   1.618   3.260  1.4114 -0.2883  1.7332
 4548TIP3    H213609   2.602   1.736   3.300 -1.1892  2.3445 -0.0854
 4549TIP3   OH213610   0.763   6.729   5.825 -0.5311 -0.4528 -0.2239
 4549TIP3    H113611   0.745   6.677   5.747 -0.2218 -1.0671  0.1037
 4549TIP3    H213612   0.740   6.819   5.800 -0.5642 -0.6604 -0.9698
 4550TIP3   OH213613   5.665   0.247   4.141  0.0546  0.3974  0.0709
 4550TIP3    H113614   5.586   0.276   4.187  0.2602  2.9704 -0.9886
 4550TIP3    H213615   5.680   0.158   4.171 -3.4491 -0.3327  0.0272
 4551TIP3   OH213616   0.079   0.909   2.237  0.7252 -0.0513  0.2409
 4551TIP3    H113617   0.129   0.900   2.319  0.5101  0.2175  0.4048
 4551TIP3    H213618   0.048   0.821   2.218  0.5344 -0.0692  0.6092
 4552TIP3   OH213619   4.040   1.226   3.823  0.4218  0.3634  0.1247
 4552TIP3    H113620   4.085   1.147   3.854  0.3807  0.8142  1.3636
 4552TIP3    H213621   4.108   1.294   3.825  0.2504  0.5475 -0.1800
 4553TIP3   OH213622   3.123   3.200   5.103 -0.0914 -0.2777 -0.1807
 4553TIP3    H113623   3.092   3.114   5.132 -0.0203 -0.2706 -0.0856
 4553TIP3    H213624   3.056   3.229   5.040  0.2907 -0.7468 -0.8103
 4554TIP3   OH213625   1.973   4.306   0.197  0.2004 -0.7974 -0.2489
 4554TIP3    H113626   1.935   4.332   0.281 -0.3602  0.3129 -0.8210
 4554TIP3    H213627   2.048   4.365   0.185 -1.3117  0.9405 -1.7426
 4555TIP3   OH213628   3.207   6.391   2.032 -0.7893  0.0843 -0.5120
 4555TIP3    H113629   3.172   6.384   1.943 -1.1560  0.5564 -0.4093
 4555TIP3    H213630   3.201   6.484   2.052 -0.3690  0.0262 -0.1275
 4556TIP3   OH213631   4.646   3.311   1.297 -0.1846  0.3042 -0.3269
 4556TIP3    H113632   4.609   3.286   1.381  1.0396  0.5519  0.3075
 4556TIP3    H213633   4.585   3.375   1.261 -0.7541  0.1375  0.3339
 4557TIP3   OH213634   3.087   0.706   3.757  0.1650 -0.6142  0.5843
 4557TIP3    H113635   3.109   0.773   3.822  0.6043 -0.6695  0.5006
 4557TIP3    H213636   3.070   0.627   3.808 -0.8691 -0.3182  0.7187
 4558TIP3   OH213637   3.583   2.032   4.431 -0.1586  0.7728 -0.0534
 4558TIP3    H113638   3.637   2.109   4.449  0.7238  0.2658 -0.4661
 4558TIP3    H213639   3.585   2.023   4.335 -0.2489  0.2360 -0.0074
 4559TIP3   OH213640   4.691   5.118   0.844  0.4715  0.3759 -0.1445
 4559TIP3    H113641   4.767   5.061   0.857 -0.4792 -0.4053  2.7409
 4559TIP3    H213642   4.651   5.086   0.762 -0.4840 -3.8393  1.6867
 4560TIP3   OH213643   0.771   2.423   5.525  0.0369 -0.1692  0.2645
 4560TIP3    H113644   0.694   2.427   5.581 -0.7789  0.7853 -0.8581
 4560TIP3    H213645   0.736   2.400   5.438  0.7071  2.1730 -0.7047
 4561TIP3   OH213646   7.210   1.913   5.466 -0.3093  0.5148  0.0671
 4561TIP3    H113647   7.158   1.846   5.510 -0.8929  1.4248  0.7937
 4561TIP3    H213648   7.147   1.959   5.410 -0.1821  1.2830  0.5470
 4562TIP3   OH213649   6.392   4.500   5.400 -0.4213 -0.2051 -0.0902
 4562TIP3    H113650   6.381   4.564   5.471 -0.8614 -0.5708  0.1789
 4562TIP3    H213651   6.438   4.426   5.441  1.1541  0.4024 -0.6840
 4563TIP3   OH213652   4.007   3.083   4.206  0.4217 -0.4384  0.1186
 4563TIP3    H113653   3.959   3.146   4.152 -1.2974 -1.0970  0.7776
 4563TIP3    H213654   3.941   3.049   4.266  1.4772 -2.2446  0.3293
 4564TIP3   OH213655   3.736   3.017   2.354 -0.1443  0.4047  0.1341
 4564TIP3    H113656   3.658   2.977   2.392  0.1698  0.4473  0.8517
 4564TIP3    H213657   3.747   3.099   2.403  1.4696 -0.5342  1.4720
 4565TIP3   OH213658   1.996   5.974   0.966  0.1583  0.0754 -0.0077
 4565TIP3    H113659   2.078   6.015   0.939  0.7037 -0.9204  0.0903
 4565TIP3    H213660   2.023   5.895   1.013 -0.8487 -0.0540  0.3743
 4566TIP3   OH213661   5.544   3.835   5.335 -0.2772  0.1265 -0.6767
 4566TIP3    H113662   5.522   3.877   5.418 -1.6284  0.9732 -1.4241
 4566TIP3    H213663   5.633   3.863   5.316  1.3480 -2.6908  2.0345
 4567TIP3   OH213664   1.753   0.202   0.205 -0.5590  0.3924  0.0882
 4567TIP3    H113665   1.835   0.212   0.254  0.4610  1.3176 -1.6742
 4567TIP3    H213666   1.764   0.119   0.158 -0.1803  0.9796 -0.8916
 4568TIP3   OH213667   3.185   4.170   0.213 -0.0896 -0.3125  0.5632
 4568TIP3    H113668   3.234   4.115   0.151  0.3399 -0.8579  1.3742
 4568TIP3    H213669   3.176   4.254   0.167  1.9055 -0.0800  0.4993
 4569TIP3   OH213670   0.342   0.496   0.517  0.4651 -0.1313 -0.0309
 4569TIP3    H113671   0.288   0.560   0.470  1.7199  1.5362  0.7142
 4569TIP3    H213672   0.323   0.413   0.474 -2.3615  0.4413 -0.0716
 4570TIP3   OH213673   2.278   5.740   5.631  0.0018  0.4251 -0.5496
 4570TIP3    H113674   2.354   5.686   5.654 -0.1307 -0.6780 -2.4953
 4570TIP3    H213675   2.206   5.677   5.621 -1.3572  1.4929  1.7265
 4571TIP3   OH213676   3.712   2.287   0.612  0.0580 -0.2684  0.1558
 4571TIP3    H113677   3.626   2.260   0.581  0.2814 -0.3242 -0.4164
 4571TIP3    H213678   3.773   2.249   0.550  0.3949  1.6109 -0.7245
 4572TIP3   OH213679   6.885   0.603   4.264  0.4388 -0.2635 -0.0282
 4572TIP3    H113680   6.896   0.540   4.335 -0.5591 -1.2818 -0.7411
 4572TIP3    H213681   6.956   0.582   4.202  0.5413 -0.2132  0.0723
 4573TIP3   OH213682   5.379   2.897   1.401 -0.1944  0.0005  0.5140
 4573TIP3    H113683   5.463   2.852   1.406  1.2740  2.5058  0.1740
 4573TIP3    H213684   5.358   2.920   1.491  0.4504  0.9879  0.4198
 4574TIP3   OH213685   2.340   4.696   1.117  0.2598  0.6750  0.5733
 4574TIP3    H113686   2.414   4.726   1.170 -0.4889  0.6298  1.6661
 4574TIP3    H213687   2.366   4.715   1.027  0.8407  2.3211  1.0594
 4575TIP3   OH213688   4.924   6.593   3.536  0.1892  0.3426  0.0258
 4575TIP3    H113689   4.878   6.531   3.480 -1.1712  0.7972  0.5964
 4575TIP3    H213690   5.017   6.572   3.525 -0.1724 -0.8713 -0.8410
 4576TIP3   OH213691   4.757   5.968   3.534 -0.1254  0.8121 -0.3492
 4576TIP3    H113692   4.742   6.029   3.461 -0.7686  1.9681  0.7137
 4576TIP3    H213693   4.848   5.984   3.560  0.0460  0.5335 -0.7735
 4577TIP3   OH213694   6.164   1.884   4.233 -0.3213  0.8693  0.0054
 4577TIP3    H113695   6.256   1.863   4.247 -0.7780 -1.0667  0.4241
 4577TIP3    H213696   6.156   1.977   4.256  1.0476  0.4649  2.3964
 4578TIP3   OH213697   3.884   0.545   2.619  0.1156 -0.0497 -0.3361
 4578TIP3    H113698   3.962   0.497   2.590 -1.1283 -1.5311 -1.3613
 4578TIP3    H213699   3.885   0.537   2.714  2.0986  1.4433 -0.1596
 4579TIP3   OH213700   5.785   0.332   3.580 -0.1340 -0.1762  0.1028
 4579TIP3    H113701   5.716   0.345   3.514 -0.5455 -2.6452 -0.0345
 4579TIP3    H213702   5.824   0.419   3.590 -1.6850  0.7991 -1.5738
 4580TIP3   OH213703   1.318   4.214   0.699  0.2914  0.4425  0.0114
 4580TIP3    H113704   1.398   4.205   0.750  1.0416  0.1592 -1.1820
 4580TIP3    H213705   1.347   4.217   0.608 -0.9978  1.1679 -0.4021
 4581TIP3   OH213706   7.223   4.605   3.506  0.4181 -0.0751  0.1155
 4581TIP3    H113707   7.192   4.518   3.480  0.0885 -0.4685  1.7094
 4581TIP3    H213708   7.157   4.665   3.472  0.4310 -0.4714 -0.6450
 4582TIP3   OH213709   1.542   0.375   3.423  0.4447  0.1137  0.4226
 4582TIP3    H113710   1.608   0.421   3.372 -0.0791 -0.0569 -0.4185
 4582TIP3    H213711   1.546   0.285   3.392 -1.0237  0.3526 -0.5397
 4583TIP3   OH213712   2.431   1.681   4.137 -0.3947 -0.1529 -0.5246
 4583TIP3    H113713   2.507   1.690   4.195 -1.1793  1.3137  0.3364
 4583TIP3    H213714   2.469   1.682   4.049  0.6880 -0.7957 -0.0822
 4584TIP3   OH213715   2.509   2.335   5.345 -0.6805  0.5304 -0.1214
 4584TIP3    H113716   2.572   2.303   5.280 -1.3188  0.2473 -0.6129
 4584TIP3    H213717   2.455   2.397   5.295 -0.9212  0.6174  0.2504
 4585TIP3   OH213718   1.224   3.728   1.879  0.6136  0.0139 -0.2305
 4585TIP3    H113719   1.231   3.790   1.951  0.0853  1.0832 -1.0708
 4585TIP3    H213720   1.296   3.666   1.894  2.0808  1.6481 -0.1183
 4586TIP3   OH213721   6.357   0.074   5.555  0.1679  0.3296  0.5933
 4586TIP3    H113722   6.302   0.014   5.504 -0.1854  0.4123  0.8704
 4586TIP3    H213723   6.422   0.106   5.494  1.0057 -1.1390  0.6702
 4587TIP3   OH213724   1.768   5.199   1.105 -0.8246  0.5838  0.2271
 4587TIP3    H113725   1.831   5.206   1.177  0.5770 -0.8347 -0.7795
 4587TIP3    H213726   1.717   5.121   1.126  0.8642 -1.0079 -1.1416
 4588TIP3   OH213727   0.497   5.848   5.878  0.4498  0.2693  0.0407
 4588TIP3    H113728   0.420   5.864   5.823 -1.0163 -1.2588  1.4894
 4588TIP3    H213729   0.557   5.919   5.857 -2.1432  2.7041  0.1839
 4589TIP3   OH213730   2.399   2.882   3.944  1.1324  0.0912  0.3450
 4589TIP3    H113731   2.351   2.965   3.944  1.3301  0.2425 -1.3242
 4589TIP3    H213732   2.331   2.815   3.939  1.0218  0.3173 -2.4562
 4590TIP3   OH213733   6.391   4.006   5.588  0.1219  0.1067 -0.4053
 4590TIP3    H113734   6.405   4.028   5.680  1.1618 -0.3737 -0.4357
 4590TIP3    H213735   6.308   4.049   5.566 -1.4391 -1.7057  1.4030
 4591TIP3   OH213736   0.034   4.755   0.478  0.3439  0.3048 -0.4010
 4591TIP3    H113737   0.053   4.721   0.565  1.7549  0.5503 -0.5865
 4591TIP3    H213738  -0.062   4.756   0.472  0.2531 -1.5143  0.4227
 4592TIP3   OH213739   5.991   3.393   5.558 -0.4831  0.4397 -0.1445
 4592TIP3    H113740   5.969   3.485   5.542  1.1411  1.0354  0.8496
 4592TIP3    H213741   6.069   3.377   5.505 -0.0888 -0.0220  0.5612
 4593TIP3   OH213742   2.957   4.067   4.421  0.2033 -0.6401 -0.4925
 4593TIP3    H113743   3.041   4.064   4.377  0.7321  1.5910  0.2323
 4593TIP3    H213744   2.914   4.145   4.386 -0.7058 -0.6106  0.6174
 4594TIP3   OH213745   3.297   5.636   0.084 -0.2815  0.1615 -0.4475
 4594TIP3    H113746   3.331   5.693   0.016 -0.1919  1.0581  0.3195
 4594TIP3    H213747   3.345   5.554   0.073  0.3284  0.5750 -0.9365
 4595TIP3   OH213748   1.071   3.069   3.419 -0.5032  0.1036  0.4530
 4595TIP3    H113749   1.002   3.132   3.399 -2.3251 -1.1719  2.4021
 4595TIP3    H213750   1.064   3.003   3.351 -2.2265 -0.7522  1.3950
 4596TIP3   OH213751   0.553   0.336   3.981  0.0231  0.2436  0.5964
 4596TIP3    H113752   0.630   0.307   4.030  0.2998 -1.9474 -1.0305
 4596TIP3    H213753   0.482   0.282   4.014 -0.6145  1.4262  1.2335
 4597TIP3   OH213754   1.130   0.473   4.051  0.1789  0.3795 -0.0628
 4597TIP3    H113755   1.143   0.404   4.115 -3.8472 -1.0692 -0.4932
 4597TIP3    H213756   1.068   0.533   4.093 -0.6263  0.7104 -1.6300
 4598TIP3   OH213757   6.511   3.388   5.557  0.1445  0.0145  0.1380
 4598TIP3    H113758   6.435   3.443   5.577  0.7843  0.6908  0.7851
 4598TIP3    H213759   6.537   3.352   5.642 -0.1025 -1.1026 -0.2391
 4599TIP3   OH213760   6.456   3.391   5.108 -0.2906 -0.4363 -0.6854
 4599TIP3    H113761   6.402   3.468   5.121 -0.8366 -0.9494  0.2463
 4599TIP3    H213762   6.539   3.424   5.073 -0.6519  0.5174 -0.6447
 4600TIP3   OH213763   5.727   5.166   3.378 -0.1128 -0.3921  0.6435
 4600TIP3    H113764   5.803   5.223   3.392 -0.6421  0.3432  0.5838
 4600TIP3    H213765   5.659   5.225   3.346 -0.4785 -1.1744 -0.0559
 4601TIP3   OH213766   0.869   4.127   4.447 -0.3914 -0.1304 -0.1634
 4601TIP3    H113767   0.836   4.065   4.382 -0.4178 -1.1603  0.7826
 4601TIP3    H213768   0.961   4.102   4.458 -0.5407 -0.3783  0.6149
 4602TIP3   OH213769   3.262   6.369   0.196 -0.1458 -0.4277 -0.2908
 4602TIP3    H113770   3.295   6.321   0.272  1.6691  0.4685 -0.4412
 4602TIP3    H213771   3.333   6.430   0.174 -0.8416 -0.2855 -2.3679
 4603TIP3   OH213772   6.642   0.074   5.510 -0.0107  0.9045 -0.0188
 4603TIP3    H113773   6.659  -0.010   5.552 -1.7162  0.6060  0.1280
 4603TIP3    H213774   6.670   0.139   5.575  1.9235  0.5231 -0.3810
 4604TIP3   OH213775   5.548   5.016   4.996  0.6416  0.3899 -0.1652
 4604TIP3    H113776   5.603   5.005   4.919 -0.4157 -0.7438 -0.7942
 4604TIP3    H213777   5.460   4.994   4.966  0.1884  0.0251  1.3306
 4605TIP3   OH213778   1.740   5.240   0.168 -0.0083  0.2496  0.0543
 4605TIP3    H113779   1.730   5.335   0.176 -1.7002  0.1235 -0.0676
 4605TIP3    H213780   1.650   5.207   0.164  0.5478 -1.3539 -0.0366
 4606TIP3   OH213781   5.448   5.234   2.315 -0.3576 -0.2957 -0.5760
 4606TIP3    H113782   5.390   5.175   2.267 -1.2122 -0.4647  0.6172
 4606TIP3    H213783   5.417   5.321   2.293 -0.9432 -0.3816 -0.1052
 4607TIP3   OH213784   4.062   2.221   2.926  0.3224  0.2345 -0.1647
 4607TIP3    H113785   3.977   2.218   2.882  0.7698  0.2505 -1.0745
 4607TIP3    H213786   4.098   2.133   2.916  0.1431  0.0521  0.7801
 4608TIP3   OH213787   3.839   5.173   5.135 -0.5039  0.4231  0.6605
 4608TIP3    H113788   3.786   5.113   5.083  1.5054 -0.6645 -0.2787
 4608TIP3    H213789   3.779   5.209   5.199 -2.6212  0.2004 -1.0814
 4609TIP3   OH213790   2.945   1.911   4.325  0.2435  0.0761  0.3799
 4609TIP3    H113791   2.960   2.005   4.331  2.2857 -0.2332  0.9976
 4609TIP3    H213792   2.929   1.883   4.415 -1.7846 -0.0255  0.0480
 4610TIP3   OH213793   6.556   5.305   5.419 -0.3496  0.4647 -0.0927
 4610TIP3    H113794   6.649   5.296   5.442  0.1721 -0.1133 -2.1665
 4610TIP3    H213795   6.519   5.218   5.434 -0.1778  0.2818 -0.6901
 4611TIP3   OH213796   4.782   3.616   2.605  0.0801  0.5018  0.0704
 4611TIP3    H113797   4.802   3.575   2.521 -1.5681  0.2397 -0.2379
 4611TIP3    H213798   4.754   3.544   2.661 -0.8854  0.9257  0.1583
 4612TIP3   OH213799   3.888   2.170   0.426 -0.5029  0.3403  0.2960
 4612TIP3    H113800   3.932   2.097   0.467  0.7826  0.6433 -0.4904
 4612TIP3    H213801   3.842   2.132   0.351 -0.7040  0.1947  0.4906
 4613TIP3   OH213802   5.440   1.078   2.342 -0.2626  0.3930  0.0800
 4613TIP3    H113803   5.379   1.073   2.415  1.0526 -1.0182  1.1743
 4613TIP3    H213804   5.506   1.142   2.370  0.3664 -0.3145  0.2738
 4614TIP3   OH213805   6.594   2.610   1.466 -0.9695 -0.1195 -0.3096
 4614TIP3    H113806   6.507   2.576   1.446 -2.3637  0.8489  3.2985
 4614TIP3    H213807   6.593   2.700   1.436 -1.7137  0.2590  0.7990
 4615TIP3   OH213808   1.676   1.372   3.244 -0.1552 -0.0584 -0.3451
 4615TIP3    H113809   1.613   1.378   3.172 -0.7138  0.4856  0.1760
 4615TIP3    H213810   1.646   1.437   3.308 -0.9884 -2.0461  1.4077
 4616TIP3   OH213811   6.316   3.365   0.462 -0.0530  0.1029 -0.4170
 4616TIP3    H113812   6.367   3.424   0.516 -0.8536  0.6058 -0.2026
 4616TIP3    H213813   6.381   3.309   0.419  0.6808  0.8587 -0.2993
 4617TIP3   OH213814   3.654   4.511   3.925 -0.0433  0.2548  0.3945
 4617TIP3    H113815   3.639   4.440   3.986  2.1419 -1.0501 -0.4879
 4617TIP3    H213816   3.619   4.479   3.842 -0.8207  1.0494  0.3920
 4618TIP3   OH213817   5.291   2.983   3.759  0.6000 -0.3287  0.5669
 4618TIP3    H113818   5.297   3.015   3.849  0.1293  0.0739  0.4604
 4618TIP3    H213819   5.329   3.053   3.706 -2.1127  0.9638  0.1561
 4619TIP3   OH213820   5.637   2.549   0.865 -0.3841 -0.7250  0.4631
 4619TIP3    H113821   5.631   2.560   0.960 -0.4829 -1.5874  0.5657
 4619TIP3    H213822   5.707   2.485   0.852  0.0598 -0.1402 -0.0864
 4620TIP3   OH213823   6.944   4.891   4.106 -0.0336  0.2962  0.2024
 4620TIP3    H113824   6.987   4.944   4.174  1.1327  1.3497 -1.2996
 4620TIP3    H213825   6.873   4.847   4.152  1.4964 -0.0547  2.4074
 4621TIP3   OH213826   6.190   2.644   5.143 -0.1095  0.6282 -0.1673
 4621TIP3    H113827   6.211   2.736   5.160  0.1184  0.5957 -0.2748
 4621TIP3    H213828   6.095   2.640   5.149 -0.0300  0.5549  1.4870
 4622TIP3   OH213829   2.227   2.134   1.312  0.4640  0.5075 -0.5427
 4622TIP3    H113830   2.156   2.075   1.288 -1.5972  2.6068  0.0339
 4622TIP3    H213831   2.290   2.125   1.240 -0.0327 -1.8776 -0.7594
 4623TIP3   OH213832   2.120   4.331   2.186 -0.6696  0.4143  0.7509
 4623TIP3    H113833   2.124   4.260   2.250 -1.7400  1.5626  2.1684
 4623TIP3    H213834   2.201   4.381   2.200  0.2731 -0.6999 -0.5170
 4624TIP3   OH213835   7.046   6.400   3.918 -0.0570  0.0405 -0.0567
 4624TIP3    H113836   6.985   6.351   3.975 -0.8242  0.0764 -0.8304
 4624TIP3    H213837   7.088   6.462   3.977  0.4187 -1.0680  0.8119
 4625TIP3   OH213838   2.725   4.951   3.630  0.6838  0.2961 -0.1808
 4625TIP3    H113839   2.731   4.869   3.580  0.2672  0.6753 -0.8766
 4625TIP3    H213840   2.637   4.983   3.611  0.8234  0.8706  0.1391
 4626TIP3   OH213841   1.973   6.484   0.523 -0.5469  0.6762  0.1868
 4626TIP3    H113842   2.043   6.541   0.554 -0.9652  1.1822  0.2058
 4626TIP3    H213843   1.901   6.499   0.584 -0.5878 -0.0373  0.3245
 4627TIP3   OH213844   6.206   5.014   4.817  0.1805 -0.0945  0.4440
 4627TIP3    H113845   6.281   4.987   4.869 -0.8044 -1.4898  1.1988
 4627TIP3    H213846   6.150   5.062   4.878 -0.1997 -0.2850  0.2480
 4628TIP3   OH213847   1.690   2.939   2.650 -0.2328 -0.2139 -0.3560
 4628TIP3    H113848   1.727   2.878   2.585 -1.5472 -0.2292 -1.1232
 4628TIP3    H213849   1.700   2.894   2.734 -0.1287 -0.9785 -0.7709
 4629TIP3   OH213850   3.478   3.649   2.903  0.1693  0.2688 -0.1946
 4629TIP3    H113851   3.453   3.559   2.923 -1.2468  0.5892 -0.3812
 4629TIP3    H213852   3.483   3.652   2.808 -0.2569  0.4858 -0.2157
 4630TIP3   OH213853   6.863   2.690   0.243 -0.0983 -0.2440 -0.8105
 4630TIP3    H113854   6.843   2.597   0.251  0.5433 -0.2142  2.3153
 4630TIP3    H213855   6.958   2.694   0.243 -0.1103  0.4114 -1.7090
 4631TIP3   OH213856   3.785   2.000   3.175 -0.5751 -0.1234 -0.0734
 4631TIP3    H113857   3.694   2.003   3.146 -0.1070  0.7883 -1.5647
 4631TIP3    H213858   3.780   1.996   3.271 -2.1656  0.9672 -0.0781
 4632TIP3   OH213859   2.100   3.524   3.003 -0.2755  0.5203  0.4372
 4632TIP3    H113860   2.058   3.599   3.045 -1.1529 -0.4608  1.3507
 4632TIP3    H213861   2.193   3.534   3.024 -0.6282  0.3346  2.1995
 4633TIP3   OH213862   6.170   1.206   1.913 -0.0536 -0.3080 -0.1884
 4633TIP3    H113863   6.233   1.142   1.881  1.0635 -0.7047  2.5124
 4633TIP3    H213864   6.119   1.158   1.979 -1.1025  0.8515 -0.1146
 4634TIP3   OH213865   0.379   5.231   5.814  0.0597  0.1886 -0.1516
 4634TIP3    H113866   0.382   5.249   5.908  2.0621  1.0962 -0.3466
 4634TIP3    H213867   0.467   5.250   5.783 -0.6388  0.2051 -2.2806
 4635TIP3   OH213868   1.984   5.326   3.228  0.1083  0.5707 -0.0523
 4635TIP3    H113869   1.961   5.397   3.168  3.2941  3.5661  1.9319
 4635TIP3    H213870   2.069   5.294   3.196  0.1281 -0.2854  0.8075
 4636TIP3   OH213871   5.179   1.223   0.216 -0.0919 -0.3455  0.0457
 4636TIP3    H113872   5.198   1.254   0.128 -0.1844 -0.1734  0.0867
 4636TIP3    H213873   5.118   1.150   0.203 -0.4980  0.0040 -0.0016
 4637TIP3   OH213874   6.133   5.200   4.556 -0.2784 -0.0762 -0.2188
 4637TIP3    H113875   6.140   5.253   4.476 -1.1885 -0.5531 -0.6374
 4637TIP3    H213876   6.038   5.194   4.571 -0.1840 -1.4022 -0.0646
 4638TIP3   OH213877   5.859   3.925   4.217 -0.0390  0.6117  0.3739
 4638TIP3    H113878   5.882   4.017   4.231  0.9283  0.6632 -1.1908
 4638TIP3    H213879   5.764   3.925   4.205 -0.1052  1.3333  0.8348
 4639TIP3   OH213880   5.079   1.502   3.107 -0.1182 -0.3828 -0.1682
 4639TIP3    H113881   5.047   1.585   3.142  0.3778  0.3519 -1.3908
 4639TIP3    H213882   5.085   1.444   3.183  0.4800  1.0100  0.8747
 4640TIP3   OH213883   0.798   3.641   4.056 -0.7565 -0.4986 -0.4127
 4640TIP3    H113884   0.857   3.664   4.127  0.8497  1.6161 -2.3108
 4640TIP3    H213885   0.728   3.706   4.061 -0.2877  0.0755 -1.1239
 4641TIP3   OH213886   6.681   5.206   4.419 -0.2698 -0.6077 -0.2188
 4641TIP3    H113887   6.596   5.207   4.463 -0.4910 -1.9313 -0.5674
 4641TIP3    H213888   6.674   5.136   4.355  0.4005  0.6047 -1.6764
 4642TIP3   OH213889   4.049   0.818   3.034  0.3187 -0.0356 -0.1785
 4642TIP3    H113890   4.084   0.897   3.076  0.7420 -0.5786  0.5152
 4642TIP3    H213891   3.955   0.818   3.056  0.1238  0.7698 -0.9886
 4643TIP3   OH213892   2.008   0.785   5.348  0.3851 -0.5305 -0.0222
 4643TIP3    H113893   1.986   0.714   5.408  3.6940 -0.6201  1.3388
 4643TIP3    H213894   2.046   0.741   5.272 -0.9882 -0.2887 -0.8824
 4644TIP3   OH213895   5.266   2.479   4.604 -0.2332  0.2531  0.4714
 4644TIP3    H113896   5.352   2.485   4.562  0.2981 -0.3620  1.4295
 4644TIP3    H213897   5.258   2.562   4.652 -1.5900  1.7273 -2.1304
 4645TIP3   OH213898   0.540   0.350   0.894  0.2334  0.3143  0.4245
 4645TIP3    H113899   0.627   0.363   0.933  1.5935  0.0299 -2.2352
 4645TIP3    H213900   0.525   0.430   0.844 -0.9668  0.2667  0.6999
 4646TIP3   OH213901   1.507   6.400   0.674  0.0412  0.1970 -0.0730
 4646TIP3    H113902   1.545   6.380   0.588 -1.1938  0.2262 -0.6553
 4646TIP3    H213903   1.487   6.493   0.670  0.2798  0.2702  0.3796
 4647TIP3   OH213904   3.097   4.476   2.318  0.7884 -0.6218 -0.3262
 4647TIP3    H113905   3.078   4.383   2.325 -0.8564 -0.3634 -0.8805
 4647TIP3    H213906   3.067   4.513   2.401  0.6014 -0.4629 -0.4644
 4648TIP3   OH213907   3.375   0.133   2.925 -0.6861 -0.0255  0.0741
 4648TIP3    H113908   3.337   0.046   2.914  0.7748 -0.8856  1.4999
 4648TIP3    H213909   3.350   0.180   2.845 -0.1808 -2.2445 -1.4631
 4649TIP3   OH213910   6.735   3.988   2.797 -0.6646  0.0161  0.0557
 4649TIP3    H113911   6.746   4.082   2.813 -1.5620  0.1166  0.0951
 4649TIP3    H213912   6.825   3.954   2.794 -0.2811  1.0707 -1.1569
 4650TIP3   OH213913   1.194   2.719   4.857 -0.2463  0.4610  0.2584
 4650TIP3    H113914   1.245   2.794   4.829  2.1162 -1.0890  0.1045
 4650TIP3    H213915   1.228   2.697   4.944 -0.7720 -0.5272  0.2342
 4651TIP3   OH213916   1.399   0.284   4.362 -0.5113  0.1805  0.6017
 4651TIP3    H113917   1.341   0.296   4.437  0.0786 -0.0987  1.1145
 4651TIP3    H213918   1.485   0.313   4.394  0.2156 -2.0182  0.7687
 4652TIP3   OH213919   2.811   0.755   3.472 -0.0510 -0.4360 -0.0347
 4652TIP3    H113920   2.739   0.816   3.459  0.9328  0.7719 -0.0045
 4652TIP3    H213921   2.859   0.756   3.389 -0.3091 -1.5909 -0.2241
 4653TIP3   OH213922   1.918   5.130   5.109 -0.2169 -0.1190  0.1043
 4653TIP3    H113923   1.939   5.217   5.073  0.6394 -0.0199  0.8077
 4653TIP3    H213924   1.964   5.069   5.051  0.8739  0.0201  0.8104
 4654TIP3   OH213925   3.244   0.638   1.302 -0.4375 -0.0647 -0.3275
 4654TIP3    H113926   3.173   0.626   1.366 -1.1005  0.7454 -0.8900
 4654TIP3    H213927   3.320   0.663   1.355 -0.5007 -1.1206  0.3018
 4655TIP3   OH213928   3.252   2.334   1.545 -0.6612  0.9431  0.0025
 4655TIP3    H113929   3.206   2.251   1.530  1.2954 -0.3435  0.7086
 4655TIP3    H213930   3.210   2.396   1.486 -1.4164 -0.8308 -1.4247
 4656TIP3   OH213931   6.419   3.628   1.210  0.0398  0.3032  0.0329
 4656TIP3    H113932   6.416   3.627   1.305  1.6947  1.6141  0.1214
 4656TIP3    H213933   6.512   3.635   1.188 -0.2646 -0.4646 -1.7004
 4657TIP3   OH213934   3.878   1.934   4.806  0.2215  0.3027  0.2387
 4657TIP3    H113935   3.933   2.001   4.766 -1.4661  1.2769 -0.5381
 4657TIP3    H213936   3.872   1.961   4.898  1.5677 -0.2013  0.4950
 4658TIP3   OH213937   4.171   5.513   3.337  0.6088 -0.3597  0.1286
 4658TIP3    H113938   4.216   5.548   3.260 -0.2796  0.3179 -0.1016
 4658TIP3    H213939   4.164   5.587   3.397  2.8149 -1.2580  1.6503
 4659TIP3   OH213940   2.631   3.583   5.089 -0.1044  0.3306 -1.1699
 4659TIP3    H113941   2.660   3.607   5.000 -1.3316  1.7571 -1.2244
 4659TIP3    H213942   2.537   3.597   5.088 -0.0849  0.7056  0.4648
 4660TIP3   OH213943   6.075   6.320   2.432 -0.0272 -0.4960 -0.3439
 4660TIP3    H113944   6.116   6.243   2.393  2.0902  0.1792  0.4102
 4660TIP3    H213945   6.110   6.393   2.381 -0.7251  0.0856 -0.0057
 4661TIP3   OH213946   6.183   0.115   4.830 -0.3034 -0.0535  0.3028
 4661TIP3    H113947   6.275   0.093   4.815 -0.2478  0.3907 -0.0153
 4661TIP3    H213948   6.185   0.185   4.896 -0.3465  0.7457 -0.5202
 4662TIP3   OH213949   2.009   5.580   0.691  0.2979 -0.0391 -0.5191
 4662TIP3    H113950   1.916   5.579   0.664  0.3190  0.4677 -0.6243
 4662TIP3    H213951   2.024   5.493   0.727 -0.7756  0.5297  1.4194
 4663TIP3   OH213952   3.406   4.070   3.865 -0.0982 -0.4909  0.0036
 4663TIP3    H113953   3.422   4.027   3.781  2.5219  0.2309  0.0295
 4663TIP3    H213954   3.489   4.113   3.885 -1.4111  1.3895  1.8065
 4664TIP3   OH213955   3.727   0.588   1.433  0.3543 -0.4643 -0.2482
 4664TIP3    H113956   3.779   0.647   1.487 -1.2826  1.3772 -0.5775
 4664TIP3    H213957   3.738   0.502   1.473  0.1141  0.6277  2.3355
 4665TIP3   OH213958   4.630   2.341   3.612  0.9417 -0.1264  0.1234
 4665TIP3    H113959   4.597   2.430   3.625  0.4699 -0.4650  1.3813
 4665TIP3    H213960   4.626   2.327   3.517 -3.1770 -0.3520  0.1562
 4666TIP3   OH213961   6.346   5.571   0.213 -0.5862 -0.5406 -0.5447
 4666TIP3    H113962   6.423   5.539   0.166 -1.2784 -1.5389 -1.0456
 4666TIP3    H213963   6.312   5.641   0.159 -1.3630 -1.6648 -1.5685
 4667TIP3   OH213964   3.950   2.508   3.888 -1.0943 -1.0847  0.1648
 4667TIP3    H113965   4.019   2.531   3.950  1.3883  0.4974 -2.9169
 4667TIP3    H213966   3.968   2.418   3.863  0.1434 -0.5826 -0.8573
 4668TIP3   OH213967   7.061   1.995   1.256 -0.3789  0.0759  0.0470
 4668TIP3    H113968   7.090   2.026   1.342  0.7300 -1.1857  0.1614
 4668TIP3    H213969   6.974   2.033   1.245  0.0467  1.4384  1.0906
 4669TIP3   OH213970   3.090   0.019   1.121 -0.4579  0.3988  0.2928
 4669TIP3    H113971   3.003   0.058   1.123  0.0416  1.5465  0.5998
 4669TIP3    H213972   3.137   0.071   1.056  0.1400  0.1144  0.4940
 4670TIP3   OH213973   1.155   5.510   0.401  0.0164  0.9252  0.3962
 4670TIP3    H113974   1.153   5.495   0.496 -0.7419 -0.1006  0.2249
 4670TIP3    H213975   1.077   5.563   0.383 -1.2991 -1.0490  0.0144
 4671TIP3   OH213976   1.872   1.530   0.093 -0.0616  0.2679  0.0854
 4671TIP3    H113977   1.853   1.439   0.068  0.3307 -0.3763  1.9641
 4671TIP3    H213978   1.963   1.542   0.069  0.8074 -0.8848  2.4800
 4672TIP3   OH213979   2.668   6.052   0.101  0.0970  0.2146  0.0440
 4672TIP3    H113980   2.594   6.003   0.137  0.7622 -1.8597 -1.2391
 4672TIP3    H213981   2.696   6.001   0.026  1.2924  2.2783 -0.9899
 4673TIP3   OH213982   0.968   4.481   4.781 -0.1089  0.2852 -0.2188
 4673TIP3    H113983   0.927   4.549   4.835 -0.5760  0.7068 -1.0777
 4673TIP3    H213984   0.924   4.400   4.808 -0.8102  0.5894 -0.4139
 4674TIP3   OH213985   2.321   5.857   0.923  0.5966  0.0232  0.0340
 4674TIP3    H113986   2.268   5.926   0.884 -1.0397 -1.6365 -0.8738
 4674TIP3    H213987   2.389   5.838   0.857  0.0740 -0.2868 -0.4264
 4675TIP3   OH213988   5.277   0.515   0.880  0.9337 -0.4427 -0.0441
 4675TIP3    H113989   5.364   0.477   0.883  0.6926 -0.9759  0.3353
 4675TIP3    H213990   5.287   0.601   0.921  1.1590 -0.7492  0.5489
 4676TIP3   OH213991   0.046   0.857   2.775  0.2962 -0.0463 -0.2895
 4676TIP3    H113992   0.086   0.926   2.723 -2.0821  0.6689 -1.3396
 4676TIP3    H213993  -0.028   0.900   2.819  0.6473 -1.2374  1.6092
 4677TIP3   OH213994   3.090   2.127   5.693  0.0326 -0.8304 -0.3764
 4677TIP3    H113995   3.023   2.061   5.710 -0.3149 -0.5354 -0.5860
 4677TIP3    H213996   3.131   2.143   5.778 -2.0042  0.9919  0.3397
 4678TIP3   OH213997   5.810   2.935   1.854 -0.1922 -0.2712 -0.6130
 4678TIP3    H113998   5.754   2.865   1.819 -0.2276 -0.8596  0.5685
 4678TIP3    H213999   5.783   2.944   1.946  1.5425 -0.4912 -0.0346
 4679TIP3   OH214000   7.124   0.807   1.228 -0.4817  0.1455  0.0337
 4679TIP3    H114001   7.211   0.837   1.256 -0.4986  0.3689 -0.1475
 4679TIP3    H214002   7.073   0.888   1.220 -1.1942 -0.0812  1.7540
 4680TIP3   OH214003   5.113   0.718   2.679 -0.2695  0.0528 -0.1356
 4680TIP3    H114004   5.138   0.626   2.683 -0.1653  0.0959  0.2723
 4680TIP3    H214005   5.019   0.717   2.666 -0.1915 -0.1126 -0.6865
 4681TIP3   OH214006   3.972   5.158   4.044 -0.5644  0.5903 -0.0717
 4681TIP3    H114007   3.882   5.163   4.012 -0.7544  0.7497  0.4675
 4681TIP3    H214008   3.969   5.202   4.129 -0.5414 -1.7396  1.1960
 4682TIP3   OH214009   0.369   2.532   5.730 -0.4293 -0.1552 -0.2279
 4682TIP3    H114010   0.420   2.466   5.684 -3.0093 -0.8686 -2.2948
 4682TIP3    H214011   0.384   2.613   5.680  1.1041  0.4389  1.0897
 4683TIP3   OH214012   1.593   5.686   1.658  0.4197 -0.6079 -0.4054
 4683TIP3    H114013   1.571   5.683   1.565  0.2330  0.8731 -0.4304
 4683TIP3    H214014   1.673   5.738   1.662 -0.1533  0.2441  0.3414
 4684TIP3   OH214015   3.647   3.868   2.914 -0.2179 -0.7235  0.0976
 4684TIP3    H114016   3.595   3.788   2.908 -1.1637 -0.2120  1.1620
 4684TIP3    H214017   3.588   3.937   2.885 -0.1889 -0.1187  1.4320
 4685TIP3   OH214018   6.022   4.360   0.222  0.0426 -0.2958 -0.3035
 4685TIP3    H114019   6.100   4.388   0.174  1.3227 -2.1526  0.5577
 4685TIP3    H214020   6.018   4.418   0.298 -0.1276  0.5741 -0.9672
 4686TIP3   OH214021   4.646   3.052   0.818  0.3526  0.1139 -0.2858
 4686TIP3    H114022   4.553   3.038   0.801  0.7912 -0.8986 -2.0982
 4686TIP3    H214023   4.652   3.061   0.913 -1.6518  0.7795 -0.1785
 4687TIP3   OH214024   5.295   4.962   4.854 -0.2276 -0.7002  0.2353
 4687TIP3    H114025   5.213   4.972   4.903  0.0303 -0.6469  0.6591
 4687TIP3    H214026   5.280   5.012   4.773 -0.1913  0.2967  0.8296
 4688TIP3   OH214027   6.420   6.115   5.519  0.0015 -0.3223 -0.1343
 4688TIP3    H114028   6.402   6.163   5.438  0.2841 -2.2911 -1.4625
 4688TIP3    H214029   6.415   6.023   5.493 -0.8929 -1.0429  2.3533
 4689TIP3   OH214030   2.482   6.464   2.471 -0.1250  0.7490 -1.1332
 4689TIP3    H114031   2.527   6.386   2.440 -1.2473  0.4221 -1.9818
 4689TIP3    H214032   2.489   6.526   2.398 -0.5092  0.9216 -1.0240
 4690TIP3   OH214033   4.824   5.870   2.821  0.3262 -0.2363  0.3712
 4690TIP3    H114034   4.836   5.849   2.914  1.5166 -1.4281 -0.0071
 4690TIP3    H214035   4.913   5.876   2.787 -0.0683  1.4568 -0.4619
 4691TIP3   OH214036   6.791   0.183   2.935  0.4241  0.1577 -0.7577
 4691TIP3    H114037   6.766   0.178   2.843 -1.0715  0.1342 -0.3755
 4691TIP3    H214038   6.712   0.213   2.980  1.2545  0.6158  0.4693
 4692TIP3   OH214039   6.128   5.703   2.815  0.0210 -0.3984 -0.4680
 4692TIP3    H114040   6.090   5.722   2.901 -1.7335  0.1235 -1.3311
 4692TIP3    H214041   6.091   5.770   2.757  0.5290 -1.2501 -1.8078
 4693TIP3   OH214042   3.163   3.150   4.029  0.1392 -0.2063 -0.4577
 4693TIP3    H114043   3.113   3.134   3.949 -0.1958  0.1403 -0.3194
 4693TIP3    H214044   3.135   3.081   4.089 -0.7079  0.3872 -0.1395
 4694TIP3   OH214045   4.617   3.069   1.092  0.0751  0.0610 -0.3674
 4694TIP3    H114046   4.656   3.080   1.179 -0.6240 -1.1702  0.1369
 4694TIP3    H214047   4.527   3.101   1.102 -1.2871 -3.5385  0.5342
 4695TIP3   OH214048   1.364   3.520   1.179 -0.2180  0.9881 -0.4669
 4695TIP3    H114049   1.363   3.526   1.084 -0.4062  0.1084 -0.5290
 4695TIP3    H214050   1.407   3.600   1.208  0.2274  1.0608 -1.3098
 4696TIP3   OH214051   0.991   5.851   3.306 -0.3804  0.3855  0.5311
 4696TIP3    H114052   0.963   5.865   3.216 -0.1135  0.8683  0.5195
 4696TIP3    H214053   0.909   5.842   3.355 -0.5544  1.1105  0.3937
 4697TIP3   OH214054   4.165   0.259   5.381 -0.1109  0.3636  0.4182
 4697TIP3    H114055   4.137   0.325   5.317 -0.6497 -0.7618 -0.5448
 4697TIP3    H214056   4.246   0.294   5.416  0.1886  1.0432 -0.8636
 4698TIP3   OH214057   0.556   1.021   2.046 -0.3120 -0.0625  0.4053
 4698TIP3    H114058   0.460   1.025   2.039 -0.3258 -2.3543 -2.5773
 4698TIP3    H214059   0.583   1.113   2.045 -2.3930  0.6331 -1.5171
 4699TIP3   OH214060   6.305   6.774   1.979 -0.1518  0.1609  0.3689
 4699TIP3    H114061   6.345   6.715   1.914 -1.0918  0.1915 -0.2502
 4699TIP3    H214062   6.232   6.723   2.016  0.5281  0.0431  1.6108
 4700TIP3   OH214063   2.695   0.691   2.759  0.3093 -0.2795 -0.2395
 4700TIP3    H114064   2.767   0.714   2.700  0.9728 -0.2549  0.5582
 4700TIP3    H214065   2.617   0.693   2.703  0.8282  0.3743 -0.9779
 4701TIP3   OH214066   2.157   2.714   3.029  0.0777 -0.1930  0.0576
 4701TIP3    H114067   2.064   2.714   3.010  0.1823 -1.3678 -0.5182
 4701TIP3    H214068   2.199   2.690   2.947  0.9386  0.8083  0.1754
 4702TIP3   OH214069   2.930   4.006   0.151  0.0490 -0.9338 -0.1567
 4702TIP3    H114070   2.995   4.062   0.192 -0.3240 -1.0928  0.6913
 4702TIP3    H214071   2.931   4.030   0.059 -0.0791  0.4381  0.1830
 4703TIP3   OH214072   2.935   4.278   0.546  0.6210 -0.0856 -0.2047
 4703TIP3    H114073   2.990   4.202   0.563 -2.0869 -2.0087  0.6135
 4703TIP3    H214074   2.984   4.329   0.481  3.1864 -1.7353  0.2802
 4704TIP3   OH214075   6.681   3.580   5.401  0.1247  0.2680  0.0744
 4704TIP3    H114076   6.655   3.506   5.455  0.0320 -1.3514 -2.0591
 4704TIP3    H214077   6.759   3.551   5.354  1.0811  2.1505  0.3817
 4705TIP3   OH214078   0.834   1.065   5.624  0.3717  0.2974 -0.0497
 4705TIP3    H114079   0.879   1.041   5.542 -0.0283  2.0736 -0.8419
 4705TIP3    H214080   0.844   1.160   5.629 -0.4947  0.3308  1.4573
 4706TIP3   OH214081   4.836   0.362   0.196 -0.2835  0.0232 -0.4168
 4706TIP3    H114082   4.889   0.343   0.119 -0.9507 -0.7568 -0.6978
 4706TIP3    H214083   4.763   0.414   0.164 -0.4749 -0.1619 -0.2867
 4707TIP3   OH214084   1.018   1.468   1.313 -0.3657  0.1304  0.6509
 4707TIP3    H114085   0.958   1.509   1.375 -0.4415 -1.2195  1.4958
 4707TIP3    H214086   1.024   1.531   1.241 -1.2532  1.1630  1.4433
 4708TIP3   OH214087   4.632   0.497   0.370 -0.3273  0.3672 -0.6683
 4708TIP3    H114088   4.612   0.588   0.351  1.1345  1.4418  2.2865
 4708TIP3    H214089   4.547   0.459   0.394 -0.8293  1.1599 -1.1301
 4709TIP3   OH214090   2.663   0.458   4.401 -0.6544 -0.4163  0.2421
 4709TIP3    H114091   2.618   0.472   4.484  0.1770  2.2138  0.3611
 4709TIP3    H214092   2.720   0.383   4.417  0.7790  1.0517  2.7112
 4710TIP3   OH214093   5.905   1.880   2.690 -0.4012 -0.1440 -0.3128
 4710TIP3    H114094   5.823   1.832   2.702 -0.3297 -0.6454 -1.6923
 4710TIP3    H214095   5.973   1.817   2.715 -0.4083  0.2312  0.7111
 4711TIP3   OH214096   2.029   0.842   2.419 -0.2856  0.2800 -0.2421
 4711TIP3    H114097   1.954   0.892   2.453 -0.0244  0.9919 -0.7023
 4711TIP3    H214098   2.059   0.792   2.495 -1.4869 -0.3579 -0.1519
 4712TIP3   OH214099   5.134   0.471   0.652 -0.2472  0.6398 -0.2667
 4712TIP3    H114100   5.183   0.498   0.729 -0.9399  1.2098 -0.0195
 4712TIP3    H214101   5.085   0.394   0.680  0.4503  0.0910 -0.5038
 4713TIP3   OH214102   2.112   4.030   1.947 -0.0240 -0.2214  0.0493
 4713TIP3    H114103   2.190   3.984   1.978  0.9956  0.4660 -1.3807
 4713TIP3    H214104   2.145   4.115   1.917 -1.2333 -0.1311 -1.1164
 4714TIP3   OH214105   2.871   2.665   0.910 -0.5515 -0.0163 -0.0675
 4714TIP3    H114106   2.842   2.632   0.825 -2.1078 -1.3787  0.9459
 4714TIP3    H214107   2.804   2.636   0.972  0.6434  0.7580  1.6781
 4715TIP3   OH214108   3.182   0.153   1.403 -0.2162  0.2976 -0.0664
 4715TIP3    H114109   3.134   0.117   1.477 -0.9995  0.2342 -0.5856
 4715TIP3    H214110   3.225   0.231   1.437  1.7067 -1.2048  1.1425
 4716TIP3   OH214111   2.571   2.398   3.168  0.0245 -0.5269  0.1651
 4716TIP3    H114112   2.595   2.412   3.260 -0.1554  0.3381  0.0828
 4716TIP3    H214113   2.494   2.341   3.172 -1.2883  1.2166  0.6504
 4717TIP3   OH214114   3.418   1.585   5.719 -0.1150 -0.2508  0.0676
 4717TIP3    H114115   3.372   1.505   5.746 -0.0253 -0.9176 -1.6734
 4717TIP3    H214116   3.503   1.555   5.687  0.6206  0.7405  0.9977
 4718TIP3   OH214117   6.177   2.278   1.146  0.5817  0.2912 -0.3202
 4718TIP3    H114118   6.082   2.284   1.141  0.4793  0.9022  1.6137
 4718TIP3    H214119   6.204   2.356   1.195  2.2055  0.7138 -1.7917
 4719TIP3   OH214120   3.877   2.892   0.089 -0.0851  0.2366 -0.4455
 4719TIP3    H114121   3.883   2.976   0.044  0.9827 -0.1382 -1.0449
 4719TIP3    H214122   3.949   2.840   0.053  0.2362 -0.4058  1.0317
 4720TIP3   OH214123   6.983   2.361   1.454 -0.6895 -0.3343  0.3401
 4720TIP3    H114124   6.991   2.278   1.407  0.0225  0.6410 -1.3579
 4720TIP3    H214125   7.011   2.341   1.543  2.8264 -1.2309 -0.8228
 4721TIP3   OH214126   5.500   4.632   3.972  0.1056  0.0111  0.6098
 4721TIP3    H114127   5.423   4.578   3.953  0.1956  0.1132 -0.0407
 4721TIP3    H214128   5.552   4.628   3.893  0.8801 -0.2302  1.1213
 4722TIP3   OH214129   0.281   5.066   1.906  0.4316 -0.5028 -0.5018
 4722TIP3    H114130   0.329   5.059   1.989  0.5239 -0.4118 -0.5479
 4722TIP3    H214131   0.192   5.089   1.933  0.2538 -1.3207 -0.3838
 4723TIP3   OH214132   4.639   2.075   2.893 -0.4402  0.3618 -0.3923
 4723TIP3    H114133   4.597   2.012   2.834 -2.2286  1.1024 -0.0003
 4723TIP3    H214134   4.622   2.160   2.852  1.9632  0.6318 -0.9281
 4724TIP3   OH214135   5.700   0.627   5.519 -0.1649 -0.1623 -0.1949
 4724TIP3    H114136   5.792   0.641   5.542  0.0237 -0.5071 -0.7085
 4724TIP3    H214137   5.702   0.552   5.459 -0.7195  0.1874 -0.6561
 4725TIP3   OH214138   1.263   4.316   0.021  0.5973 -0.2726 -0.0141
 4725TIP3    H114139   1.191   4.267   0.061 -0.6479  1.1166 -0.4776
 4725TIP3    H214140   1.229   4.405   0.010  2.4890  0.4969  0.0046
 4726TIP3   OH214141   1.287   5.669   4.286  0.0702 -0.4345 -0.2719
 4726TIP3    H114142   1.251   5.731   4.350 -0.8888 -1.2919  0.0420
 4726TIP3    H214143   1.360   5.716   4.246 -1.4729  1.4490 -1.0345
 4727TIP3   OH214144   3.708   5.292   1.011 -0.0560  0.1806 -0.2256
 4727TIP3    H114145   3.628   5.241   0.998 -0.8056  1.1454  0.4198
 4727TIP3    H214146   3.779   5.228   1.009 -1.0194 -1.0153  1.3578
 4728TIP3   OH214147   1.096   3.178   3.717 -0.4166  0.3837 -0.0093
 4728TIP3    H114148   1.027   3.114   3.735  1.2533 -1.0958  1.5927
 4728TIP3    H214149   1.139   3.191   3.802  2.7198 -0.5522 -1.2932
 4729TIP3   OH214150   2.211   0.073   5.200  0.0348  0.0397  0.1289
 4729TIP3    H114151   2.209  -0.016   5.166  0.5365  0.3648 -0.8082
 4729TIP3    H214152   2.126   0.086   5.241 -0.5705 -0.4035 -0.9544
 4730TIP3   OH214153   0.507   2.365   5.565  0.2682  0.1191 -0.1533
 4730TIP3    H114154   0.493   2.275   5.594  3.1693 -0.8355 -1.3596
 4730TIP3    H214155   0.432   2.383   5.508 -1.0317 -1.0113  1.1184
 4731TIP3   OH214156   5.258   6.623   0.269  0.1284  0.5127  0.2112
 4731TIP3    H114157   5.313   6.694   0.237 -0.7325  1.0189 -0.1695
 4731TIP3    H214158   5.319   6.565   0.315  0.8551  1.4499  0.4685
 4732TIP3   OH214159   5.132   2.164   5.241 -0.1372  0.2454 -0.1494
 4732TIP3    H114160   5.211   2.213   5.265 -0.7524 -0.4286  4.0280
 4732TIP3    H214161   5.165   2.083   5.201  1.5918 -0.8899  3.1572
 4733TIP3   OH214162   6.560   4.030   4.999 -0.8117 -0.2763  0.1631
 4733TIP3    H114163   6.565   4.078   4.916 -0.7500  0.5432  0.6292
 4733TIP3    H214164   6.588   3.941   4.977  0.6826  0.3019 -0.4005
 4734TIP3   OH214165   1.830   4.368   5.018  0.1565 -0.1689  0.5499
 4734TIP3    H114166   1.838   4.376   5.113 -1.8830  0.4458  0.7086
 4734TIP3    H214167   1.785   4.285   5.004  1.5336 -0.8637  0.0139
 4735TIP3   OH214168   6.995   0.631   2.447 -0.1437  0.6837  0.1055
 4735TIP3    H114169   7.026   0.616   2.535 -0.1602  0.4492  0.0699
 4735TIP3    H214170   6.961   0.721   2.449 -0.3651  0.5946  0.4003
 4736TIP3   OH214171   1.139   4.516   2.996 -0.0305  0.2026  0.0733
 4736TIP3    H114172   1.191   4.546   2.921  1.5570  0.4753  1.2197
 4736TIP3    H214173   1.172   4.568   3.070 -0.5016 -1.0774  1.2256
 4737TIP3   OH214174   3.128   2.417   3.142 -0.1178 -0.1033 -0.0083
 4737TIP3    H114175   3.032   2.411   3.139 -0.1681  0.6073  0.0288
 4737TIP3    H214176   3.148   2.412   3.236 -0.1049 -0.4179 -0.0269
 4738TIP3   OH214177   4.376   3.602   1.479  0.4701 -0.2822  0.1469
 4738TIP3    H114178   4.295   3.561   1.511 -0.4726  1.4910  0.1418
 4738TIP3    H214179   4.401   3.663   1.548 -0.2282  1.8141 -1.3667
 4739TIP3   OH214180   5.917   6.245   5.727  0.4730 -0.3630  0.6776
 4739TIP3    H114181   5.957   6.159   5.713 -2.0783 -1.4720 -0.5203
 4739TIP3    H214182   5.916   6.285   5.640 -2.6227 -1.2317  0.1841
 4740TIP3   OH214183   3.192   1.607   4.095 -0.5424  0.0068 -0.2379
 4740TIP3    H114184   3.245   1.531   4.117 -0.0927  0.2939 -0.2999
 4740TIP3    H214185   3.129   1.615   4.167  0.2880  0.3667  0.4653
 4741TIP3   OH214186   7.124   1.555   1.704 -0.1628  0.4158  0.4927
 4741TIP3    H114187   7.103   1.531   1.614  3.3829 -1.1258 -0.0771
 4741TIP3    H214188   7.084   1.485   1.757  1.7557 -1.4381 -0.3784
 4742TIP3   OH214189   0.883   3.639   2.937  0.1414 -0.3151 -0.1489
 4742TIP3    H114190   0.835   3.696   2.876 -1.8886 -1.3195  0.4088
 4742TIP3    H214191   0.929   3.699   2.996 -0.7553  0.7188 -0.4770
 4743TIP3   OH214192   6.222   3.777   2.342 -0.0742  0.8462 -0.2478
 4743TIP3    H114193   6.302   3.735   2.311 -0.6430 -0.4813  0.0001
 4743TIP3    H214194   6.250   3.861   2.377  1.6136 -0.5905  2.1220
 4744TIP3   OH214195   4.689   3.522   5.071 -0.8645 -0.0939  0.2772
 4744TIP3    H114196   4.710   3.602   5.119 -0.7189 -0.5837  1.0421
 4744TIP3    H214197   4.632   3.551   4.999  0.6411  0.9636 -0.5546
 4745TIP3   OH214198   5.803   3.206   4.499 -0.2172 -0.2507 -0.2790
 4745TIP3    H114199   5.856   3.172   4.426 -0.1511 -2.3992  0.6850
 4745TIP3    H214200   5.763   3.127   4.537  1.2696  0.5344  3.2222
 4746TIP3   OH214201   0.988   6.504   0.069  0.0973  0.0027 -0.0642
 4746TIP3    H114202   1.059   6.448   0.037  0.3008  0.5055 -0.4967
 4746TIP3    H214203   0.970   6.565  -0.003  0.2893  0.8851  0.6218
 4747TIP3   OH214204   2.978   3.878   2.145  0.4536  0.6072  0.1090
 4747TIP3    H114205   2.944   3.947   2.088 -1.6712  1.2209  1.9465
 4747TIP3    H214206   3.029   3.924   2.211 -0.8046  0.4610  1.2277
 4748TIP3   OH214207   1.481   5.211   0.608  0.0080  0.4727  0.2657
 4748TIP3    H114208   1.449   5.231   0.520 -1.8428  0.5181  0.9144
 4748TIP3    H214209   1.518   5.123   0.600 -1.3452 -0.0706 -0.2859
 4749TIP3   OH214210   3.066   4.728   4.513 -0.7015 -0.2625  0.5735
 4749TIP3    H114211   3.101   4.727   4.424 -0.5376 -2.0159  0.6149
 4749TIP3    H214212   3.108   4.803   4.555 -0.0410  0.0086 -0.5360
 4750TIP3   OH214213   1.574   6.359   0.407  0.2326  0.1214 -0.3435
 4750TIP3    H114214   1.628   6.436   0.388 -0.2478  0.2389 -1.2732
 4750TIP3    H214215   1.630   6.284   0.385  0.6668  0.1938  0.4716
 4751TIP3   OH214216   0.923   3.262   4.798 -0.1952  0.1045 -0.5072
 4751TIP3    H114217   0.852   3.287   4.857  0.7799  1.5926  0.0993
 4751TIP3    H214218   0.923   3.329   4.730 -0.1548 -0.5858 -1.2022
 4752TIP3   OH214219   1.853   3.521   3.976 -0.0874  0.2971 -0.1483
 4752TIP3    H114220   1.903   3.567   4.042 -2.2240  1.7965  0.5450
 4752TIP3    H214221   1.819   3.590   3.919 -3.8763 -0.1459  1.2666
 4753TIP3   OH214222   1.100   6.265   4.217 -0.1527  0.4261 -0.2989
 4753TIP3    H114223   1.111   6.340   4.274  1.5780  0.6506 -0.8704
 4753TIP3    H214224   1.109   6.300   4.129  0.8921 -0.4483 -0.5664
 4754TIP3   OH214225   1.970   6.370   1.084  0.3169 -0.5469  0.2318
 4754TIP3    H114226   1.906   6.353   1.152  0.3660  0.0281  0.4265
 4754TIP3    H214227   1.918   6.381   1.004  0.2191 -0.6772  0.2774
 4755TIP3   OH214228   7.170   6.573   2.259  0.0741 -0.2077 -0.2337
 4755TIP3    H114229   7.178   6.508   2.189  1.1613  0.0393 -0.3628
 4755TIP3    H214230   7.131   6.526   2.332  0.3407 -0.8652 -0.5120
 4756TIP3   OH214231   4.433   1.641   5.411 -0.2044 -0.3813 -0.3030
 4756TIP3    H114232   4.436   1.732   5.384 -0.5459 -0.0961  0.5841
 4756TIP3    H214233   4.375   1.598   5.348 -1.3221  0.3500  0.2024
 4757TIP3   OH214234   1.647   2.771   5.481  0.1937 -0.6077  0.1348
 4757TIP3    H114235   1.632   2.697   5.422  0.2479  0.1452 -0.8529
 4757TIP3    H214236   1.641   2.733   5.568  0.2260 -1.7787 -0.3458
 4758TIP3   OH214237   6.518   6.169   0.506  0.2514  0.2257  0.0141
 4758TIP3    H114238   6.479   6.242   0.555  0.8236 -0.2752  1.2690
 4758TIP3    H214239   6.446   6.108   0.493  0.0373  0.4740  0.0210
 4759TIP3   OH214240   6.523   2.330   0.140  0.2399  0.1890  0.3988
 4759TIP3    H114241   6.507   2.415   0.099 -1.7249 -0.2389  0.2036
 4759TIP3    H214242   6.602   2.344   0.192  1.5448  1.3603 -1.7412
 4760TIP3   OH214243   6.188   2.733   4.089  0.1048  0.1089  0.1549
 4760TIP3    H114244   6.264   2.676   4.074 -1.4382 -1.5487 -2.0867
 4760TIP3    H214245   6.165   2.719   4.181  2.0948  0.1696  0.6992
 4761TIP3   OH214246   0.240   0.798   4.336  0.2628 -0.2169 -0.4593
 4761TIP3    H114247   0.276   0.710   4.331  0.4584 -0.0985 -1.1960
 4761TIP3    H214248   0.279   0.845   4.262  3.1663  1.6063  1.9820
 4762TIP3   OH214249   5.919   2.472   2.917  0.1688 -0.2739  0.9412
 4762TIP3    H114250   5.857   2.545   2.911  0.0372 -0.3838  0.9631
 4762TIP3    H214251   5.867   2.399   2.950  0.2300 -0.4624  0.6285
 4763TIP3   OH214252   5.439   4.777   3.475 -0.2961  0.2760 -0.2828
 4763TIP3    H114253   5.367   4.830   3.443 -0.2229 -0.6600 -2.0903
 4763TIP3    H214254   5.500   4.772   3.402  0.3099 -1.2005  0.2865
 4764TIP3   OH214255   1.373   6.800   2.139  0.0767  0.7410  0.2321
 4764TIP3    H114256   1.359   6.759   2.225  2.1733  0.8309  0.6670
 4764TIP3    H214257   1.379   6.727   2.078 -0.4930  0.6301  0.3054
 4765TIP3   OH214258   0.651   0.834   3.581 -0.1228 -0.3525 -0.2998
 4765TIP3    H114259   0.681   0.924   3.575 -0.0939 -0.3446 -0.0615
 4765TIP3    H214260   0.714   0.791   3.638 -1.1277 -0.0682  1.0901
 4766TIP3   OH214261   1.958   4.856   1.016  0.2563 -0.3953 -0.1163
 4766TIP3    H114262   1.916   4.849   1.102 -1.0155  0.6951 -0.5981
 4766TIP3    H214263   2.017   4.931   1.024  1.1573 -1.1183  0.1752
 4767TIP3   OH214264   2.619   3.028   0.471 -0.6228  0.2956 -0.3880
 4767TIP3    H114265   2.712   3.010   0.460 -0.7965 -0.9458  0.0003
 4767TIP3    H214266   2.599   3.000   0.561 -0.9126  2.7020  0.3796
 4768TIP3   OH214267   6.065   6.634   2.073 -0.2137  0.5276 -0.1955
 4768TIP3    H114268   6.120   6.622   2.151 -1.3740  0.0730  0.5860
 4768TIP3    H214269   6.051   6.545   2.040  1.0761  0.7876 -1.5338
 4769TIP3   OH214270   6.925   0.055   2.653  0.2389 -0.1166  0.2023
 4769TIP3    H114271   6.943  -0.028   2.608 -0.2748  0.4682 -1.1411
 4769TIP3    H214272   6.832   0.072   2.635 -0.2839 -0.3461  2.3588
 4770TIP3   OH214273   4.660   4.306   5.558  0.1811  0.4507  0.2969
 4770TIP3    H114274   4.683   4.342   5.644  1.0610  0.8336 -0.0947
 4770TIP3    H214275   4.648   4.212   5.574  2.5314  0.1161  0.4523
 4771TIP3   OH214276   4.004   5.695   4.257 -0.3297  0.1059 -0.0040
 4771TIP3    H114277   4.093   5.686   4.223 -0.1292  0.0878  0.5307
 4771TIP3    H214278   3.950   5.648   4.193  0.0169  0.2740 -0.4272
 4772TIP3   OH214279   2.002   0.187   0.659  0.1395 -0.0526 -0.2554
 4772TIP3    H114280   1.930   0.157   0.604  0.1035  0.1849 -0.3401
 4772TIP3    H214281   2.035   0.108   0.701  0.4120 -0.3025 -0.9097
 4773TIP3   OH214282   1.083   4.481   1.377  0.2228  0.5024  0.4371
 4773TIP3    H114283   1.146   4.458   1.446  0.7416  1.1047  0.1672
 4773TIP3    H214284   0.998   4.480   1.422  0.2400 -1.5392  0.5355
 4774TIP3   OH214285   0.024   2.578   2.188  0.2604  0.5037 -0.5037
 4774TIP3    H114286  -0.005   2.532   2.267 -1.1773  2.3753  0.1296
 4774TIP3    H214287   0.112   2.610   2.210  0.1602  0.4006  0.0796
 4775TIP3   OH214288   0.434   6.504   5.832 -0.1363 -0.3462  0.9539
 4775TIP3    H114289   0.352   6.501   5.882  1.1911 -0.4824  3.2461
 4775TIP3    H214290   0.503   6.498   5.898  1.8342  2.5417 -0.6492
 4776TIP3   OH214291   3.081   3.695   4.488  0.3668  0.3001 -0.4501
 4776TIP3    H114292   3.082   3.744   4.570 -3.2393 -1.7900  1.0877
 4776TIP3    H214293   3.036   3.752   4.426  0.5451  0.7789 -0.1428
 4777TIP3   OH214294   5.813   1.179   0.636  0.2115 -0.4840 -0.2540
 4777TIP3    H114295   5.755   1.243   0.676  1.0250 -1.1042  2.0748
 4777TIP3    H214296   5.826   1.211   0.547 -1.3289  1.2403  0.0807
 4778TIP3   OH214297   0.229   2.219   2.108  0.1345  0.0227  0.3996
 4778TIP3    H114298   0.256   2.187   2.021  0.2683  0.7676  0.1614
 4778TIP3    H214299   0.210   2.312   2.094  0.2011  0.1554  1.1823
 4779TIP3   OH214300   3.199   2.719   1.147  0.6169  0.3401 -0.6689
 4779TIP3    H114301   3.153   2.749   1.225  2.9830  0.7573  0.6713
 4779TIP3    H214302   3.137   2.661   1.102 -0.3289 -1.1464  2.3179
 4780TIP3   OH214303   0.074   3.688   3.498 -0.1661  0.1756 -0.6673
 4780TIP3    H114304   0.144   3.716   3.439  0.2716 -0.2998 -0.3821
 4780TIP3    H214305  -0.007   3.708   3.451  0.1607  0.6939 -1.0153
 4781TIP3   OH214306   2.096   0.472   4.562  0.4157  0.3348  0.2328
 4781TIP3    H114307   2.089   0.479   4.466 -0.7822  1.3648  0.3729
 4781TIP3    H214308   2.164   0.406   4.576  1.8748  1.4033 -1.3224
 4782TIP3   OH214309   1.145   2.361   4.563  0.3823  0.0081  0.5767
 4782TIP3    H114310   1.195   2.280   4.555  0.9541  0.3339  0.7579
 4782TIP3    H214311   1.174   2.398   4.647 -0.3209  0.0995  0.7843
 4783TIP3   OH214312   2.704   5.419   3.351 -0.0931  0.4955 -0.0169
 4783TIP3    H114313   2.767   5.361   3.309 -1.6672 -0.3419 -1.3458
 4783TIP3    H214314   2.674   5.371   3.428 -1.2280 -0.4212 -0.9930
 4784TIP3   OH214315   2.628   1.170   0.066  0.1006 -0.5551 -0.3449
 4784TIP3    H114316   2.677   1.090   0.086 -0.4557 -0.7988  0.0498
 4784TIP3    H214317   2.652   1.190  -0.025  1.4751 -0.2720  0.0583
 4785TIP3   OH214318   4.965   4.736   0.667 -0.0979 -0.3275 -0.4517
 4785TIP3    H114319   5.042   4.726   0.610 -1.1693  0.4678 -2.0994
 4785TIP3    H214320   4.984   4.815   0.718  0.1063 -0.0264 -0.9846
 4786TIP3   OH214321   3.366   5.110   0.487  0.8333 -0.4365 -0.2519
 4786TIP3    H114322   3.439   5.138   0.542  0.8963 -1.4372  0.1991
 4786TIP3    H214323   3.400   5.033   0.440  1.4149  1.4267 -3.1331
 4787TIP3   OH214324   4.616   0.330   0.742  0.5550  0.5822 -0.5071
 4787TIP3    H114325   4.546   0.384   0.705  0.5298  0.6441 -0.3701
 4787TIP3    H214326   4.697   0.368   0.708  0.6958  2.1751  1.4173
 4788TIP3   OH214327   3.475   3.107   0.850  0.0519  0.4071 -0.2582
 4788TIP3    H114328   3.485   3.014   0.868 -1.8911 -0.3287 -2.4981
 4788TIP3    H214329   3.389   3.129   0.887 -0.9322  0.4697 -2.4269
 4789TIP3   OH214330   3.706   4.706   0.183 -0.7126  0.2676  0.2220
 4789TIP3    H114331   3.620   4.682   0.217 -0.2318 -0.8901  0.6759
 4789TIP3    H214332   3.702   4.684   0.090 -0.9909  0.4529  0.1902
 4790TIP3   OH214333   0.186   4.196   2.905  0.2344 -0.4291  0.4337
 4790TIP3    H114334   0.103   4.179   2.949 -0.6379  0.7027 -0.7038
 4790TIP3    H214335   0.197   4.291   2.912  1.0432 -0.4738 -0.1200
 4791TIP3   OH214336   0.583   1.598   4.559  0.4653  0.2034 -0.0417
 4791TIP3    H114337   0.575   1.528   4.625 -0.2917 -0.5937 -0.9563
 4791TIP3    H214338   0.495   1.606   4.522  0.5954  1.5054 -0.1080
 4792TIP3   OH214339   2.181   6.353   4.037  0.1631 -0.1312  0.2804
 4792TIP3    H114340   2.196   6.424   3.974  0.4586  0.0188  0.5163
 4792TIP3    H214341   2.147   6.396   4.115  1.8323 -0.0399  0.9901
 4793TIP3   OH214342   4.283   4.187   0.827 -0.2511 -0.6781  0.1016
 4793TIP3    H114343   4.195   4.214   0.799 -0.2563 -1.5826 -0.7788
 4793TIP3    H214344   4.328   4.163   0.747  0.6697 -0.6304  0.5963
 4794TIP3   OH214345   5.617   0.541   2.244 -0.0426 -0.6486  0.3097
 4794TIP3    H114346   5.548   0.489   2.286 -0.0681 -0.2045  0.8224
 4794TIP3    H214347   5.569   0.599   2.185 -0.1205 -0.2536  0.7579
 4795TIP3   OH214348   7.052   1.141   0.411  0.4578  0.4604 -0.3317
 4795TIP3    H114349   7.049   1.198   0.334  1.2391  0.4571 -0.3781
 4795TIP3    H214350   7.052   1.052   0.375  1.9157  0.4650 -0.3990
 4796TIP3   OH214351   5.786   5.020   0.415  0.0674 -0.2687  0.3756
 4796TIP3    H114352   5.849   5.087   0.443  0.0880 -0.6919  1.3837
 4796TIP3    H214353   5.829   4.975   0.343  0.0585  0.7933 -0.3116
 4797TIP3   OH214354   1.484   1.197   1.978 -0.1430 -0.0952 -0.1200
 4797TIP3    H114355   1.534   1.250   1.916  0.0293 -0.7934 -0.5902
 4797TIP3    H214356   1.419   1.152   1.925  0.1095 -0.8255  0.1657
 4798TIP3   OH214357   6.495   1.189   2.121  0.0655 -0.0504 -0.3468
 4798TIP3    H114358   6.546   1.213   2.198  0.3926 -0.0419 -0.5614
 4798TIP3    H214359   6.501   1.093   2.117 -1.1706 -0.1784  0.4635
 4799TIP3   OH214360   3.037   0.411   2.891  0.5014 -0.4166 -0.4282
 4799TIP3    H114361   3.011   0.327   2.851 -0.4447 -0.5479  0.4390
 4799TIP3    H214362   3.069   0.463   2.817 -0.8498 -0.7933 -1.3083
 4800TIP3   OH214363   4.681   2.987   0.544 -0.4364  0.7373 -0.2109
 4800TIP3    H114364   4.682   3.039   0.625 -0.8701 -0.4591  0.5975
 4800TIP3    H214365   4.645   2.902   0.571 -0.7632  0.3775 -1.7118
 4801TIP3   OH214366   4.228   1.095   4.922  0.9941 -0.7011 -0.3283
 4801TIP3    H114367   4.214   1.067   5.013  0.9002 -1.7389 -0.6439
 4801TIP3    H214368   4.142   1.124   4.893  1.3183  1.0302  0.3478
 4802TIP3   OH214369   4.447   3.652   2.637 -0.0677  0.3129 -0.2523
 4802TIP3    H114370   4.357   3.623   2.651  0.4360 -1.6023 -0.6250
 4802TIP3    H214371   4.468   3.621   2.549  0.5835  1.8073 -0.6463
 4803TIP3   OH214372   3.409   6.160   3.757  0.7246 -0.2532  0.2098
 4803TIP3    H114373   3.403   6.070   3.790  1.0634 -0.2683  0.2282
 4803TIP3    H214374   3.472   6.202   3.815 -1.9548  1.0000  2.4808
 4804TIP3   OH214375   3.926   3.258   5.557  0.0362  0.6094  0.6450
 4804TIP3    H114376   3.981   3.230   5.484  1.1803  2.4157  0.7356
 4804TIP3    H214377   3.836   3.252   5.523  0.3926 -0.6008 -0.1523
 4805TIP3   OH214378   2.771   2.191  -0.018 -0.1440 -0.0900 -0.6257
 4805TIP3    H114379   2.844   2.166   0.038  0.5514  2.5929 -0.1839
 4805TIP3    H214380   2.698   2.205   0.043 -0.6324 -1.2845 -0.9052
 4806TIP3   OH214381   0.163   5.197   0.524  0.1680 -0.3461  0.2633
 4806TIP3    H114382   0.182   5.214   0.432 -0.8446 -3.3874 -0.6388
 4806TIP3    H214383   0.212   5.117   0.545 -3.5784 -2.7996  0.6758
 4807TIP3   OH214384   6.364   5.481   0.471 -0.4022  0.1234 -0.1738
 4807TIP3    H114385   6.340   5.563   0.514  0.0426  0.4140 -0.4699
 4807TIP3    H214386   6.349   5.498   0.378 -0.8831 -0.3349 -0.1863
 4808TIP3   OH214387   1.517   1.053   5.107 -0.5938  0.0496 -0.0535
 4808TIP3    H114388   1.584   0.986   5.113 -1.1120 -0.3500  1.9063
 4808TIP3    H214389   1.548   1.113   5.038  1.9947  0.1458  1.1143
 4809TIP3   OH214390   3.665   2.981   1.119  0.2702  0.2372 -0.0937
 4809TIP3    H114391   3.753   3.019   1.107  0.6888 -1.4299 -3.3953
 4809TIP3    H214392   3.674   2.890   1.094 -2.4139 -0.0329 -0.3777
 4810TIP3   OH214393   1.768   5.654   4.126  0.0284  0.5983  0.1902
 4810TIP3    H114394   1.764   5.731   4.183 -0.2470  0.7608 -0.0439
 4810TIP3    H214395   1.678   5.621   4.125  0.2062  0.0761  0.5520
 4811TIP3   OH214396   2.123  -0.012   5.698  0.0042  0.3686  0.0779
 4811TIP3    H114397   2.041  -0.028   5.652  1.3987 -1.6803 -1.9117
 4811TIP3    H214398   2.151   0.075   5.669 -0.6812  0.4034 -0.4829
 4812TIP3   OH214399   1.233   2.992   4.309  0.6935 -0.3705 -0.1666
 4812TIP3    H114400   1.184   3.032   4.381 -0.2473 -0.3879 -0.7842
 4812TIP3    H214401   1.168   2.942   4.261  1.1443  0.3318 -1.5435
 4813TIP3   OH214402   1.303   4.752   4.230 -0.1859 -0.1369 -0.1819
 4813TIP3    H114403   1.250   4.673   4.240 -1.3571  0.8027  1.2921
 4813TIP3    H214404   1.260   4.802   4.160 -1.7100  0.9402  1.4660
 4814TIP3   OH214405   4.110   1.040   2.473 -0.1045 -0.2692  0.8866
 4814TIP3    H114406   4.101   0.977   2.401  0.3168 -0.2202  0.7831
 4814TIP3    H214407   4.117   0.986   2.551 -1.3011 -0.3040  0.9861
 4815TIP3   OH214408   5.317   0.303   3.302  0.1215  0.3045  0.9721
 4815TIP3    H114409   5.314   0.399   3.313 -0.6513  0.1755  2.0606
 4815TIP3    H214410   5.261   0.285   3.227  0.4775  0.7201  0.5984
 4816TIP3   OH214411   5.008   4.054   5.782  0.0182 -0.1188  0.4521
 4816TIP3    H114412   5.056   4.015   5.709 -0.3276  1.9299 -0.9338
 4816TIP3    H214413   5.031   3.999   5.857  2.2635 -0.9009 -0.7149
 4817TIP3   OH214414   5.463   5.803   3.580 -0.6332  0.1560 -0.1286
 4817TIP3    H114415   5.426   5.717   3.563 -1.8808  0.3242  1.5068
 4817TIP3    H214416   5.558   5.789   3.575 -0.7719 -1.5806  1.2037
 4818TIP3   OH214417   5.856   4.994   2.502 -0.3378  0.6861 -0.4529
 4818TIP3    H114418   5.945   4.963   2.522 -0.9527 -1.0408 -0.2538
 4818TIP3    H214419   5.850   5.077   2.548  0.4716 -0.1744  1.3366
 4819TIP3   OH214420   7.164   3.162   2.235 -0.2391 -0.4191  0.1371
 4819TIP3    H114421   7.256   3.136   2.242 -0.0697  0.2133  0.4286
 4819TIP3    H214422   7.114   3.082   2.254  0.2417 -0.9348 -0.7229
 4820TIP3   OH214423   0.705   0.752   4.701  0.3712 -0.5552 -0.3560
 4820TIP3    H114424   0.656   0.821   4.656 -2.9864 -2.9131 -0.6642
 4820TIP3    H214425   0.647   0.723   4.771  1.5168 -3.2068 -0.3902
 4821TIP3   OH214426   4.368   4.078   4.362 -0.5026  0.1684 -0.5790
 4821TIP3    H114427   4.294   4.076   4.422 -1.4034 -1.8990 -1.6540
 4821TIP3    H214428   4.432   4.017   4.400  0.2818  1.2127 -0.1581
 4822TIP3   OH214429   6.523   5.717   2.237 -0.3870 -0.0335  0.0780
 4822TIP3    H114430   6.441   5.751   2.274 -1.1513 -1.2456 -0.4528
 4822TIP3    H214431   6.552   5.652   2.301 -1.2637 -1.5186 -0.9652
 4823TIP3   OH214432   2.574   0.706   5.797 -0.4725  0.4152 -0.1000
 4823TIP3    H114433   2.592   0.652   5.719  3.5763 -1.8212  2.0390
 4823TIP3    H214434   2.600   0.794   5.770  0.0887 -0.1457 -1.5293
 4824TIP3   OH214435   6.347   4.858   1.070 -0.9292 -0.1307  0.6462
 4824TIP3    H114436   6.342   4.953   1.086  2.8749  0.1652  0.9786
 4824TIP3    H214437   6.389   4.823   1.148  2.0154 -1.2959 -1.2819
 4825TIP3   OH214438   5.581   5.884   3.158 -0.3089 -0.2998  0.4969
 4825TIP3    H114439   5.642   5.939   3.206  0.5790 -0.9462  0.1558
 4825TIP3    H214440   5.536   5.943   3.098 -0.0009  0.1862  0.7427
 4826TIP3   OH214441   2.831   0.961   1.467  0.1234  0.2145  0.5844
 4826TIP3    H114442   2.781   0.948   1.548 -1.4804  1.8579 -0.0710
 4826TIP3    H214443   2.764   0.980   1.401  1.5758  1.7627 -0.5002
 4827TIP3   OH214444   3.398   3.850   2.147  0.2901  0.4217 -0.3161
 4827TIP3    H114445   3.398   3.763   2.186 -1.6384  1.1143  1.3783
 4827TIP3    H214446   3.367   3.836   2.057  0.9998 -0.7271 -0.4036
 4828TIP3   OH214447   0.807   0.082   1.885  0.3839 -0.1468 -0.2942
 4828TIP3    H114448   0.782   0.048   1.971 -0.3691 -2.6803 -1.4117
 4828TIP3    H214449   0.885   0.134   1.902  0.2790 -0.6095  1.9190
 4829TIP3   OH214450   0.450   4.442   4.139 -0.1355  0.0956  0.1994
 4829TIP3    H114451   0.362   4.427   4.173  0.0312 -0.2731  0.4787
 4829TIP3    H214452   0.472   4.531   4.165  0.0400 -0.2169  1.1906
 4830TIP3   OH214453   4.552   4.325   3.854 -0.5087  0.1428  0.7584
 4830TIP3    H114454   4.532   4.252   3.911 -1.1099 -1.1382 -0.9936
 4830TIP3    H214455   4.472   4.378   3.851 -0.2924  0.5199  1.5045
 4831TIP3   OH214456   1.866   2.931   2.277  0.0194 -0.1909 -0.7008
 4831TIP3    H114457   1.836   2.864   2.338  1.0875 -0.0482  0.0181
 4831TIP3    H214458   1.936   2.976   2.324  1.6304 -0.7772 -2.4257
 4832TIP3   OH214459   3.191   0.908   3.934  0.4933  0.3764  0.2733
 4832TIP3    H114460   3.237   0.980   3.891 -0.3009  1.0306  0.4811
 4832TIP3    H214461   3.218   0.914   4.026  1.3730 -0.3638  0.0732
 4833TIP3   OH214462   5.272   3.375   1.896 -0.1058 -0.4464  0.0690
 4833TIP3    H114463   5.204   3.307   1.892  0.4109 -0.9213 -1.6905
 4833TIP3    H214464   5.350   3.329   1.928 -0.5950  0.1365  2.2572
 4834TIP3   OH214465   4.229   3.477   1.807 -0.2477  0.0416  0.1201
 4834TIP3    H114466   4.166   3.528   1.858  1.2114  0.2042  1.8698
 4834TIP3    H214467   4.309   3.528   1.809  0.6575 -1.3188  0.1120
 4835TIP3   OH214468   0.248   4.929   4.757  0.1925  0.3080  0.6870
 4835TIP3    H114469   0.208   4.847   4.728  2.9943 -1.3113  1.0180
 4835TIP3    H214470   0.185   4.967   4.818 -1.0312 -1.8042  0.8307
 4836TIP3   OH214471   0.477   2.535   2.771 -0.3724  0.3581  0.0742
 4836TIP3    H114472   0.501   2.607   2.830  0.5681  0.3262 -0.2459
 4836TIP3    H214473   0.511   2.457   2.814  0.3873  0.3418 -0.5156
 4837TIP3   OH214474   1.687   0.126   3.637 -0.5497 -0.1322 -0.4281
 4837TIP3    H114475   1.596   0.128   3.667  0.1182 -0.6128  1.8430
 4837TIP3    H214476   1.706   0.033   3.624  0.0826 -0.2163  0.8616
 4838TIP3   OH214477   3.216   4.541   3.900 -0.1995 -0.2770  0.0232
 4838TIP3    H114478   3.248   4.472   3.842  1.4965  0.9723 -0.6116
 4838TIP3    H214479   3.121   4.536   3.894 -0.0742 -1.2485 -1.5746
 4839TIP3   OH214480   6.218   2.523   3.886  0.5921  0.2303 -0.0610
 4839TIP3    H114481   6.243   2.433   3.911  1.9486  0.2971 -1.0670
 4839TIP3    H214482   6.301   2.571   3.885  0.0749  1.1290 -1.0030
 4840TIP3   OH214483   6.528   1.946   3.903  0.0583  0.2325  0.1263
 4840TIP3    H114484   6.507   1.870   3.848  1.6801 -1.6947  1.9782
 4840TIP3    H214485   6.609   1.981   3.867  0.0620  0.1983  0.1015
 4841TIP3   OH214486   7.198   3.272   1.110 -0.1487 -0.3808  0.3621
 4841TIP3    H114487   7.104   3.261   1.125 -0.1426 -0.0086  0.6944
 4841TIP3    H214488   7.239   3.245   1.191 -0.0846  1.1155  0.8574
 4842TIP3   OH214489   1.776   4.842   3.766 -0.0013  0.0994  0.4959
 4842TIP3    H114490   1.840   4.880   3.825  0.4746 -0.9852  0.7007
 4842TIP3    H214491   1.697   4.894   3.779  0.1955  0.0937  1.8455
 4843TIP3   OH214492   2.039   2.034   1.863  0.1502 -0.3399  0.0187
 4843TIP3    H114493   2.108   2.000   1.805  0.4217 -0.4457  0.4045
 4843TIP3    H214494   1.981   1.959   1.877 -1.1672  0.2268 -1.9009
 4844TIP3   OH214495   1.450   4.082   5.521  0.5573  0.0840 -0.4537
 4844TIP3    H114496   1.542   4.100   5.540  0.5705  1.7917 -1.8631
 4844TIP3    H214497   1.403   4.157   5.557 -0.3732 -0.9830  0.6471
 4845TIP3   OH214498   1.477   1.518   4.653 -0.0554 -0.0855 -0.0853
 4845TIP3    H114499   1.425   1.454   4.701  1.0438 -0.8865  0.0792
 4845TIP3    H214500   1.466   1.600   4.702  2.3792 -1.2233  2.6378
 4846TIP3   OH214501   0.531   2.909   1.568  0.8324  0.1076 -0.1565
 4846TIP3    H114502   0.614   2.922   1.523  2.3952 -2.4936  1.6472
 4846TIP3    H214503   0.493   2.996   1.575  2.4510  1.1365 -2.7297
 4847TIP3   OH214504   3.238   2.796   5.218  0.4363  0.1255 -0.2212
 4847TIP3    H114505   3.287   2.871   5.185 -0.6426  0.4226 -1.2286
 4847TIP3    H214506   3.305   2.730   5.239  1.2447 -0.1428 -3.1787
 4848TIP3   OH214507   0.397   1.059   4.315 -0.3681 -0.2659  0.1985
 4848TIP3    H114508   0.424   0.968   4.305 -1.0502 -0.6119  1.3683
 4848TIP3    H214509   0.471   1.102   4.358 -1.0931 -0.9044  2.1548
 4849TIP3   OH214510   1.785   5.333   4.599  0.0547 -0.6109 -0.2139
 4849TIP3    H114511   1.867   5.283   4.594 -0.7090 -1.8378 -1.1487
 4849TIP3    H214512   1.811   5.424   4.583  1.4340 -0.7123  1.1738
 4850TIP3   OH214513   1.489   5.980   2.454  0.2241  0.2910  0.2822
 4850TIP3    H114514   1.418   6.000   2.515  0.8229 -2.3738  2.0428
 4850TIP3    H214515   1.456   5.905   2.404  0.6254  1.0327 -1.1442
 4851TIP3   OH214516   0.219   0.203   1.091 -0.0877  0.6514  0.1304
 4851TIP3    H114517   0.216   0.268   1.161 -0.2665 -0.1129  0.8568
 4851TIP3    H214518   0.256   0.250   1.016  0.7334  1.3209  0.9242
 4852TIP3   OH214519   0.580   0.451   5.075  0.2789 -0.3489 -0.1809
 4852TIP3    H114520   0.490   0.422   5.062  0.3511 -1.8806  2.1113
 4852TIP3    H214521   0.624   0.429   4.993 -0.9250 -1.8404 -0.4859
 4853TIP3   OH214522   1.363   2.668   5.079 -0.3965 -0.3919 -1.1716
 4853TIP3    H114523   1.453   2.679   5.048 -0.2825 -0.3962 -0.8422
 4853TIP3    H214524   1.351   2.738   5.143 -0.2423 -1.0979 -0.3549
 4854TIP3   OH214525   1.250   2.866   3.518 -0.2995  0.3662 -0.0983
 4854TIP3    H114526   1.194   2.791   3.497 -0.1590  0.1426  0.3027
 4854TIP3    H214527   1.190   2.940   3.525 -0.5140  0.1763  0.0800
 4855TIP3   OH214528   2.936   5.540   0.732 -0.3702  0.2733  0.1535
 4855TIP3    H114529   2.953   5.570   0.643 -0.1616 -1.4137 -0.4116
 4855TIP3    H214530   2.904   5.450   0.721 -1.0757  0.3009  1.7372
 4856TIP3   OH214531   6.963   2.735   4.888 -0.2137 -0.4922  0.6154
 4856TIP3    H114532   6.884   2.698   4.929  0.1874 -0.5221  1.3787
 4856TIP3    H214533   7.004   2.660   4.845  0.0696 -0.7547  1.3161
 4857TIP3   OH214534   4.423   6.183   5.362  0.0533 -0.0315  0.4234
 4857TIP3    H114535   4.390   6.110   5.415  2.4732 -0.7087  1.1226
 4857TIP3    H214536   4.380   6.261   5.400  0.0518 -0.7302  1.9540
 4858TIP3   OH214537   1.251   4.752   2.493  0.1915 -0.3279  0.0043
 4858TIP3    H114538   1.220   4.831   2.538 -1.5889 -1.5152  0.9432
 4858TIP3    H214539   1.288   4.785   2.411  0.9887  1.6282  1.0805
 4859TIP3   OH214540   0.777   2.801   1.303 -0.2606 -0.5984  0.2867
 4859TIP3    H114541   0.863   2.804   1.346 -0.1555 -0.9251  0.1033
 4859TIP3    H214542   0.732   2.879   1.335 -0.4230 -1.1632  1.4835
 4860TIP3   OH214543   4.080   0.829   2.063  0.2674  0.1491  0.0928
 4860TIP3    H114544   3.986   0.814   2.049  0.2733  0.6738 -0.5766
 4860TIP3    H214545   4.088   0.846   2.156  0.0248 -2.2244  0.6093
 4861TIP3   OH214546   1.884   1.264   3.880  0.4680  0.0825  0.0707
 4861TIP3    H114547   1.840   1.347   3.901 -0.4568 -0.5915  0.8677
 4861TIP3    H214548   1.817   1.197   3.889  1.2153 -0.7778 -0.5145
 4862TIP3   OH214549   5.429   3.363   0.169 -0.1138  0.1303  0.2646
 4862TIP3    H114550   5.473   3.320   0.095 -0.2988 -0.8532  0.7087
 4862TIP3    H214551   5.498   3.408   0.216  0.6489 -2.1880  1.5081
 4863TIP3   OH214552   6.844   6.404   2.222 -0.1234 -0.0652  0.1097
 4863TIP3    H114553   6.913   6.434   2.162 -0.0385 -0.1811  0.1492
 4863TIP3    H214554   6.882   6.327   2.265 -1.6261 -2.5145 -2.6055
 4864TIP3   OH214555   5.395   6.036   0.821  0.0717  0.6668  0.6381
 4864TIP3    H114556   5.334   6.001   0.886  1.3864  0.6426  1.9330
 4864TIP3    H214557   5.436   6.111   0.864 -0.3956  1.8560 -0.9122
 4865TIP3   OH214558   2.289   1.935   2.784 -0.1239  0.2296 -0.4389
 4865TIP3    H114559   2.358   1.955   2.847  0.6733 -1.1882 -0.8217
 4865TIP3    H214560   2.320   1.856   2.739 -2.0422 -0.5190 -0.5337
 4866TIP3   OH214561   4.079   2.547   5.350  0.1506  0.2955  0.2567
 4866TIP3    H114562   4.018   2.621   5.350 -1.0554 -0.6119 -1.6945
 4866TIP3    H214563   4.150   2.574   5.292  0.0824  0.2078  0.1314
 4867TIP3   OH214564   6.973   4.370   4.169  0.4110 -0.1680  0.1996
 4867TIP3    H114565   6.964   4.350   4.076 -0.3052 -0.1373  0.2547
 4867TIP3    H214566   7.067   4.381   4.183  0.5936 -0.9418 -0.3656
 4868TIP3   OH214567   6.715   4.867   2.350  0.1287 -0.1960 -0.1474
 4868TIP3    H114568   6.701   4.958   2.324 -0.3763 -0.1749  0.1853
 4868TIP3    H214569   6.643   4.819   2.309  0.2225 -0.4005 -0.0732
 4869TIP3   OH214570   5.589   5.477   4.615  0.9101  0.1508 -0.1470
 4869TIP3    H114571   5.683   5.467   4.599  0.9544 -1.4165  0.7804
 4869TIP3    H214572   5.547   5.445   4.535  1.1815 -1.5298  0.3287
 4870TIP3   OH214573   4.608   0.736   5.309  0.8817 -0.5230 -0.2658
 4870TIP3    H114574   4.592   0.704   5.220 -1.4611  0.9156 -0.4646
 4870TIP3    H214575   4.542   0.691   5.363  0.8898  0.1837  0.3488
 4871TIP3   OH214576   3.734   3.252   3.500  0.6830 -0.1514  1.0025
 4871TIP3    H114577   3.748   3.328   3.443  0.6576  0.2095  1.4782
 4871TIP3    H214578   3.750   3.284   3.588 -0.7308 -0.3499  1.3423
 4872TIP3   OH214579   1.815   2.141   2.837 -0.1183  0.2631 -0.0614
 4872TIP3    H114580   1.776   2.063   2.796  0.1554 -0.8484  1.6821
 4872TIP3    H214581   1.813   2.208   2.769  0.4313 -1.5157 -1.9135
 4873TIP3   OH214582   6.461   2.653   3.915  0.4097  0.6754 -0.3790
 4873TIP3    H114583   6.513   2.727   3.885 -0.5755  1.0661 -1.1708
 4873TIP3    H214584   6.513   2.614   3.986  1.1988  1.7701 -0.3386
 4874TIP3   OH214585   0.931   1.241   1.527 -0.2158  0.0926 -0.6731
 4874TIP3    H114586   0.972   1.310   1.578  2.3899 -0.8112 -1.4034
 4874TIP3    H214587   0.857   1.283   1.484  0.3144  1.9935  0.1926
 4875TIP3   OH214588   2.674   4.229   2.730  0.0945 -0.4617 -0.4992
 4875TIP3    H114589   2.744   4.272   2.778  0.4153  0.0232 -1.3810
 4875TIP3    H214590   2.713   4.204   2.647 -1.1562  1.1952 -1.6487
 4876TIP3   OH214591   1.299   3.844   5.706  0.4349  0.0942 -0.2259
 4876TIP3    H114592   1.217   3.871   5.665  0.4693  1.4834  0.5632
 4876TIP3    H214593   1.274   3.774   5.766  0.0158 -0.2696 -0.8138
 4877TIP3   OH214594   2.197   1.148   0.262  0.8162  0.0045  0.0909
 4877TIP3    H114595   2.187   1.081   0.330  1.5028 -1.4528 -1.1870
 4877TIP3    H214596   2.157   1.109   0.184  1.3991  1.0180 -0.7368
 4878TIP3   OH214597   1.648   6.251   3.038  0.1037 -0.0529 -0.1458
 4878TIP3    H114598   1.670   6.281   3.126  1.8612 -0.8781 -0.2688
 4878TIP3    H214599   1.618   6.161   3.050  0.4367 -0.1985 -0.3875
 4879TIP3   OH214600   2.549   5.969   1.525  0.0210  0.2645  0.4919
 4879TIP3    H114601   2.543   6.064   1.536  1.8936  0.4157  0.5673
 4879TIP3    H214602   2.462   5.937   1.546 -0.8346  2.0244 -0.2082
 4880TIP3   OH214603   1.967   0.852   1.727 -0.4394  0.3149 -0.2051
 4880TIP3    H114604   1.875   0.876   1.715 -0.1283  0.6183 -2.5599
 4880TIP3    H214605   1.997   0.830   1.639  1.3503 -1.3162  0.7531
 4881TIP3   OH214606   2.778   3.423   5.699  0.2770  0.0859 -0.4846
 4881TIP3    H114607   2.774   3.515   5.672  0.6113  0.7595  1.6249
 4881TIP3    H214608   2.871   3.400   5.687  0.7429  0.8410  1.4066
 4882TIP3   OH214609   6.715   0.217   5.731  0.0639  0.3517  0.2248
 4882TIP3    H114610   6.683   0.307   5.733 -0.5817  0.1065  1.2582
 4882TIP3    H214611   6.776   0.211   5.805 -3.0005 -1.1514  2.8565
 4883TIP3   OH214612   2.523   6.678   5.269 -0.0772  0.7933  0.1722
 4883TIP3    H114613   2.466   6.696   5.344 -0.3940 -2.5044  0.9035
 4883TIP3    H214614   2.464   6.676   5.194 -0.0899  2.1731  0.1362
 4884TIP3   OH214615   2.964   4.087   5.571  0.2861 -0.4183 -0.5183
 4884TIP3    H114616   2.931   4.007   5.530 -0.0395 -1.0794  0.9648
 4884TIP3    H214617   3.059   4.074   5.577  0.6757  0.6588 -3.0289
 4885TIP3   OH214618   1.270   4.044   3.186  0.2499  0.5525 -0.4448
 4885TIP3    H114619   1.259   4.124   3.135  0.9057  1.4832  0.8158
 4885TIP3    H214620   1.216   4.056   3.264  0.6325 -0.0625 -0.0682
 4886TIP3   OH214621   7.075   5.925   3.489  0.2298 -0.9980 -0.2345
 4886TIP3    H114622   6.982   5.919   3.464  0.4627 -2.2197 -0.8531
 4886TIP3    H214623   7.122   5.924   3.406  0.7968  0.0241  0.0582
 4887TIP3   OH214624   3.748   1.108   2.725 -0.4082  0.2580 -1.0077
 4887TIP3    H114625   3.672   1.158   2.756  2.0398  2.0410  2.8468
 4887TIP3    H214626   3.814   1.174   2.704  1.6749 -1.1862  0.5565
 4888TIP3   OH214627   6.072   4.029   1.689  0.0252 -0.0625 -0.4859
 4888TIP3    H114628   6.081   4.038   1.594  1.8831  1.4265 -0.2165
 4888TIP3    H214629   6.108   4.111   1.724 -2.4952  0.3377  1.4477
 4889TIP3   OH214630   2.694   2.900   1.488 -0.0746 -0.3012 -0.0069
 4889TIP3    H114631   2.661   2.824   1.536  0.8867 -0.6432  0.1307
 4889TIP3    H214632   2.784   2.910   1.518 -0.5146  1.6004  0.8519
 4890TIP3   OH214633   6.621   3.150   3.734  0.2755  0.1697  0.3472
 4890TIP3    H114634   6.631   3.239   3.767 -0.4317 -0.8503  3.6028
 4890TIP3    H214635   6.709   3.124   3.706  0.9486  1.1280  1.5183
 4891TIP3   OH214636   1.855   4.824   2.637  0.2981  0.2085  0.1231
 4891TIP3    H114637   1.829   4.807   2.728  2.0488 -0.9330  0.4539
 4891TIP3    H214638   1.927   4.887   2.644 -0.5255  1.2682 -0.6008
 4892TIP3   OH214639   2.434   0.039   1.093  0.3621 -0.2643 -0.0631
 4892TIP3    H114640   2.359   0.074   1.140 -1.1491 -1.6610 -1.3310
 4892TIP3    H214641   2.506   0.100   1.113 -1.1920  1.3528  0.8387
 4893TIP3   OH214642   5.143   4.969   4.136 -0.4861 -0.0564 -0.3552
 4893TIP3    H114643   5.072   4.971   4.200  0.2054 -0.6622  0.4540
 4893TIP3    H214644   5.187   5.054   4.145 -0.8579  0.1627 -0.5813
 4894TIP3   OH214645   3.873   0.573   5.101  0.4499  0.5301  0.2791
 4894TIP3    H114646   3.893   0.495   5.049  0.3681  1.9866 -2.0842
 4894TIP3    H214647   3.782   0.562   5.127 -0.0702  0.5413 -1.4322
 4895TIP3   OH214648   4.745   1.787   5.534  0.1997 -0.2268  0.3132
 4895TIP3    H114649   4.782   1.706   5.497  2.5773  0.1220  1.7103
 4895TIP3    H214650   4.680   1.756   5.597 -0.3582 -0.9636 -0.5989
 4896TIP3   OH214651   4.416   1.601   3.302  0.2186  0.1311  0.0439
 4896TIP3    H114652   4.426   1.533   3.369 -2.6527 -0.0063  0.4410
 4896TIP3    H214653   4.488   1.584   3.240  1.8605 -0.8591  2.0971
 4897TIP3   OH214654   5.574   1.976   4.054 -0.0741  0.0640  0.0608
 4897TIP3    H114655   5.512   2.047   4.039 -0.3602 -0.5487 -1.9622
 4897TIP3    H214656   5.653   2.020   4.087 -0.4930  1.2376 -0.4377
 4898TIP3   OH214657   3.333   2.971   4.312  0.7201  0.3451 -0.3450
 4898TIP3    H114658   3.362   2.922   4.235  0.0803 -0.0573 -0.3362
 4898TIP3    H214659   3.244   3.000   4.290  1.1951  1.7968 -0.4856
 4899TIP3   OH214660   5.437   3.768   1.466 -0.5894 -0.1505  0.4553
 4899TIP3    H114661   5.402   3.857   1.454  1.4939  1.0578  2.4943
 4899TIP3    H214662   5.519   3.768   1.417 -0.1987 -0.6628  1.0918
 4900TIP3   OH214663   5.935   4.177   3.415  0.2374 -0.1511 -0.1434
 4900TIP3    H114664   5.926   4.262   3.459  0.4732 -0.5668  0.7236
 4900TIP3    H214665   5.919   4.113   3.484 -0.1735 -0.8146 -0.8462
 4901TIP3   OH214666   2.801   4.868   0.920 -0.3554 -0.0143 -0.5502
 4901TIP3    H114667   2.867   4.801   0.898 -0.9176 -0.4057 -1.0685
 4901TIP3    H214668   2.794   4.921   0.841  1.7969  2.1570  0.5905
 4902TIP3   OH214669   4.274   3.015   4.991 -0.2242 -0.6919 -0.5025
 4902TIP3    H114670   4.345   2.951   4.988 -0.3211 -0.8521  0.3410
 4902TIP3    H214671   4.201   2.971   4.948  0.2314 -0.4513 -1.5490
 4903TIP3   OH214672   3.470   2.669   1.130 -0.3514  0.3439  0.2824
 4903TIP3    H114673   3.461   2.574   1.118  1.5084  0.3248 -1.5821
 4903TIP3    H214674   3.380   2.700   1.143 -1.1884 -1.4961 -0.6767
 4904TIP3   OH214675   5.586   1.231   3.174 -0.2585  0.1447  0.0430
 4904TIP3    H114676   5.524   1.179   3.122 -0.2753  1.4253 -1.3154
 4904TIP3    H214677   5.638   1.167   3.222 -0.2794 -1.1295 -1.5430
 4905TIP3   OH214678   3.278   4.850   5.289 -0.4294 -0.0611 -0.0600
 4905TIP3    H114679   3.338   4.856   5.363  1.7613 -0.3114 -1.7233
 4905TIP3    H214680   3.310   4.914   5.226 -1.2294 -0.9801 -1.4689
 4906TIP3   OH214681   2.469   3.156   3.545 -0.2986 -0.4183  0.6274
 4906TIP3    H114682   2.501   3.122   3.628 -1.8562 -1.0161  1.0316
 4906TIP3    H214683   2.412   3.087   3.512  1.3907 -0.8022 -1.6777
 4907TIP3   OH214684   3.121   5.981   2.438  0.3998 -0.0779 -0.0130
 4907TIP3    H114685   3.065   6.042   2.485  0.3803 -0.8660  1.0233
 4907TIP3    H214686   3.060   5.933   2.381  0.3227  0.4052 -0.3459
 4908TIP3   OH214687   5.913   4.708   2.643  0.2825  0.3729  0.2872
 4908TIP3    H114688   5.830   4.673   2.674  0.6080 -0.5633  0.1439
 4908TIP3    H214689   5.898   4.801   2.632 -1.4895 -0.0851 -2.0000
 4909TIP3   OH214690   2.642   1.531   2.250 -0.3477  0.3529  0.2331
 4909TIP3    H114691   2.642   1.490   2.164 -0.6700  1.0243 -0.0964
 4909TIP3    H214692   2.734   1.548   2.270 -0.1846 -0.7826  0.5065
 4910TIP3   OH214693   6.374   6.712   5.646 -0.2733 -0.6563 -0.0035
 4910TIP3    H114694   6.373   6.648   5.717 -2.3341 -0.1410  0.5180
 4910TIP3    H214695   6.300   6.686   5.591 -1.4513  1.4813  0.4651
 4911TIP3   OH214696   3.372   4.492   4.206 -0.1243  0.2410 -0.3305
 4911TIP3    H114697   3.341   4.566   4.152  0.7205 -0.0688 -1.2774
 4911TIP3    H214698   3.294   4.462   4.252 -0.5700  1.4562 -0.2476
 4912TIP3   OH214699   6.579   0.789   3.250  0.1739  0.1525 -0.1011
 4912TIP3    H114700   6.564   0.813   3.158 -0.8917  0.9393  0.2543
 4912TIP3    H214701   6.584   0.873   3.295  1.7403 -0.1938  0.4310
 4913TIP3   OH214702   1.261   6.546   0.504 -0.5068 -0.3019  0.5496
 4913TIP3    H114703   1.219   6.474   0.457  0.1571  0.5915 -1.4919
 4913TIP3    H214704   1.214   6.550   0.588 -1.5391 -2.1298  0.1148
 4914TIP3   OH214705   5.824   1.533   4.216 -0.3851  0.1426  0.3711
 4914TIP3    H114706   5.858   1.460   4.268 -1.9406  0.9350  2.6978
 4914TIP3    H214707   5.875   1.609   4.245  0.0538  0.3001 -0.7568
 4915TIP3   OH214708   1.522   0.402   5.289  0.1471 -0.3120 -0.4538
 4915TIP3    H114709   1.459   0.372   5.355 -0.8699  2.3863 -0.0902
 4915TIP3    H214710   1.477   0.391   5.206  0.3972 -1.2151 -0.4789
 4916TIP3   OH214711   3.921   1.627   1.152 -0.4654 -0.1322 -0.3425
 4916TIP3    H114712   3.881   1.557   1.204  0.5001  0.0200  0.6296
 4916TIP3    H214713   3.852   1.693   1.144 -1.4957 -1.2769 -1.5276
 4917TIP3   OH214714   4.989   5.539   2.667 -0.4780 -0.0766 -0.0233
 4917TIP3    H114715   4.931   5.589   2.609  0.6009  1.9530  0.5359
 4917TIP3    H214716   5.030   5.474   2.611 -2.2407 -0.6611 -0.7087
 4918TIP3   OH214717   6.671   4.910   3.248 -0.2584  0.6767 -0.5114
 4918TIP3    H114718   6.652   5.002   3.267 -0.2495  0.4863  0.4320
 4918TIP3    H214719   6.747   4.913   3.189 -0.6604  1.2917 -1.0099
 4919TIP3   OH214720   7.123   0.703   5.401  0.1774  0.3853 -0.2092
 4919TIP3    H114721   7.142   0.755   5.324  0.0314  1.1294  0.2504
 4919TIP3    H214722   7.155   0.615   5.380 -0.7736  0.3320 -1.5065
 4920TIP3   OH214723   1.561   5.602   4.652 -0.1863  0.3031 -0.0780
 4920TIP3    H114724   1.466   5.615   4.652 -0.3295 -0.6615 -0.6281
 4920TIP3    H214725   1.580   5.566   4.565  0.1526 -3.0527  1.2227
 4921TIP3   OH214726   5.689   3.955   1.053 -0.1160  0.0768  0.2172
 4921TIP3    H114727   5.783   3.951   1.038  0.1410 -0.0167  1.7205
 4921TIP3    H214728   5.662   3.863   1.060 -0.5569  0.0489 -1.4062
 4922TIP3   OH214729   3.859   6.274   4.573 -0.0913  0.3255  0.0699
 4922TIP3    H114730   3.768   6.263   4.599 -0.3698  0.1462 -0.9359
 4922TIP3    H214731   3.906   6.289   4.655 -1.2023  1.6647  0.5033
 4923TIP3   OH214732   0.745   5.061   2.311  0.3037 -0.2703 -0.4411
 4923TIP3    H114733   0.704   4.992   2.259  1.6972 -1.6519  0.1884
 4923TIP3    H214734   0.838   5.035   2.315  0.7889  1.4549  0.1404
 4924TIP3   OH214735   5.978   5.257   3.507 -0.3113  0.5423 -0.0883
 4924TIP3    H114736   5.948   5.279   3.595  0.5971  0.4158  0.2629
 4924TIP3    H214737   6.019   5.337   3.475  1.3561 -0.0447  0.4826
 4925TIP3   OH214738   6.634   0.671   4.848  0.3645 -0.3116 -1.1550
 4925TIP3    H114739   6.707   0.678   4.910  0.8764  0.8537 -1.8595
 4925TIP3    H214740   6.630   0.577   4.827 -0.3208 -0.8925  1.1653
 4926TIP3   OH214741   5.681   6.308   0.500 -0.1445 -0.6940  0.1373
 4926TIP3    H114742   5.620   6.249   0.456 -0.8137  0.1041 -0.0496
 4926TIP3    H214743   5.631   6.390   0.509  1.1002  0.1866 -0.5849
 4927TIP3   OH214744   2.917   5.666   0.489 -0.5707  0.5082 -0.0708
 4927TIP3    H114745   2.958   5.675   0.403 -1.4157 -1.9971 -0.8161
 4927TIP3    H214746   2.867   5.746   0.501  1.3664  1.9148 -0.8519
 4928TIP3   OH214747   4.812   4.987   4.578  0.1172  0.0015  0.0370
 4928TIP3    H114748   4.853   5.050   4.637 -0.7593  0.2135  0.4374
 4928TIP3    H214749   4.812   4.904   4.626  2.8195 -0.7859 -1.1324
 4929TIP3   OH214750   1.507   5.077   0.258 -0.0603 -0.3888  0.3990
 4929TIP3    H114751   1.434   5.087   0.319  1.3268  2.1227  1.7758
 4929TIP3    H214752   1.575   5.033   0.309  0.2379 -0.6003 -0.1669
 4930TIP3   OH214753   2.039   5.018   0.398  0.1772 -0.6775 -0.4342
 4930TIP3    H114754   2.098   5.064   0.459 -0.0031 -1.6340  0.4873
 4930TIP3    H214755   2.060   5.055   0.313 -2.1332  3.5310  0.5341
 4931TIP3   OH214756   1.821   3.020   1.908 -0.4604  0.0402  0.6323
 4931TIP3    H114757   1.916   3.006   1.905 -0.1683  1.4955  1.7168
 4931TIP3    H214758   1.784   2.940   1.873  1.1596 -0.9879  1.1415
 4932TIP3   OH214759   4.181   4.501   3.461  0.0383 -0.3418 -0.3817
 4932TIP3    H114760   4.264   4.546   3.444 -0.5880  1.1230  0.2926
 4932TIP3    H214761   4.122   4.570   3.491 -1.1737 -1.5142  0.0126
 4933TIP3   OH214762   4.998   5.067   3.533 -0.1251 -0.0332 -0.3498
 4933TIP3    H114763   5.076   5.076   3.589 -0.0269  0.7123 -0.6004
 4933TIP3    H214764   5.024   5.107   3.450  0.1393 -2.1410 -1.3613
 4934TIP3   OH214765   3.263   5.758   2.590 -0.1793  0.3435 -0.0129
 4934TIP3    H114766   3.241   5.687   2.530 -1.7085  1.4303 -0.7999
 4934TIP3    H214767   3.216   5.834   2.556  0.0806  1.3477  1.7398
 4935TIP3   OH214768   5.622   3.294   3.439 -0.1194 -0.1332  0.3543
 4935TIP3    H114769   5.625   3.375   3.490 -0.4224  0.3923 -0.4497
 4935TIP3    H214770   5.572   3.316   3.361 -1.2944 -1.4337  0.7077
 4936TIP3   OH214771   1.739   6.352   3.713  0.4624 -0.1509 -0.1681
 4936TIP3    H114772   1.757   6.444   3.693 -1.2471  0.1746 -0.3824
 4936TIP3    H214773   1.819   6.320   3.753  1.6593  0.9933 -1.5237
 4937TIP3   OH214774   0.727   2.772   0.460 -0.3663 -0.1742 -0.2808
 4937TIP3    H114775   0.706   2.698   0.403  1.4134 -1.8494  1.1027
 4937TIP3    H214776   0.672   2.759   0.537  0.7520 -0.7273  0.4451
 4938TIP3   OH214777   5.569   5.091   2.583  0.0086 -0.5154  0.5520
 4938TIP3    H114778   5.576   5.072   2.677  0.1256 -0.6223  0.5216
 4938TIP3    H214779   5.519   5.173   2.579 -0.9224 -1.0624  0.6643
 4939TIP3   OH214780   6.163   3.029   2.130 -0.2194 -0.2183  0.1169
 4939TIP3    H114781   6.245   3.056   2.172 -0.2376  0.8844 -0.5460
 4939TIP3    H214782   6.163   2.933   2.139  0.8111 -0.1824  0.7146
 4940TIP3   OH214783   0.586   0.094   3.549  0.1917 -0.1412  0.2366
 4940TIP3    H114784   0.586   0.171   3.605  0.8431 -0.2016  0.3279
 4940TIP3    H214785   0.576   0.020   3.609 -0.4728 -0.1359  0.1463
 4941TIP3   OH214786   3.804   4.316   0.546  0.4163  0.5847  0.2087
 4941TIP3    H114787   3.800   4.250   0.477 -1.3923 -1.2995  2.0154
 4941TIP3    H214788   3.735   4.379   0.522  1.1603  1.0869 -0.7205
 4942TIP3   OH214789   1.397   5.447   2.459 -0.6932  0.4425 -0.3886
 4942TIP3    H114790   1.336   5.376   2.438 -0.2915 -0.0578  0.0960
 4942TIP3    H214791   1.417   5.487   2.374 -0.9608  0.0015 -0.6649
 4943TIP3   OH214792   5.419   4.320   1.273 -0.1730 -0.1242  0.6448
 4943TIP3    H114793   5.472   4.246   1.243 -2.0317 -0.5400 -2.0586
 4943TIP3    H214794   5.343   4.279   1.314 -0.0051  0.3731  1.4676
 4944TIP3   OH214795   4.085   2.147   5.245  0.3981 -0.3055 -0.2214
 4944TIP3    H114796   4.135   2.154   5.326  0.9676  1.7925 -0.6880
 4944TIP3    H214797   4.137   2.194   5.180 -0.1014 -1.8387 -1.8098
 4945TIP3   OH214798   6.098   0.217   0.813 -0.0663  0.3256  0.3430
 4945TIP3    H114799   6.021   0.194   0.865  1.3131  0.2099  2.4538
 4945TIP3    H214800   6.074   0.299   0.770 -2.0579 -0.7224 -0.6968
 4946TIP3   OH214801   2.023   4.648   0.864  0.1700 -0.2294 -0.0724
 4946TIP3    H114802   2.010   4.718   0.927  0.7870 -0.1446 -0.0273
 4946TIP3    H214803   2.079   4.686   0.796  2.4458 -1.2684  1.0834
 4947TIP3   OH214804   3.291   4.232   1.690  0.1691 -0.4678 -0.8048
 4947TIP3    H114805   3.242   4.191   1.760 -0.5752 -0.0318 -1.0576
 4947TIP3    H214806   3.260   4.323   1.689  0.1462 -0.4758 -1.7120
 4948TIP3   OH214807   2.395   1.750   1.639 -0.7769  0.4008  0.2916
 4948TIP3    H114808   2.408   1.738   1.545 -1.7623 -0.9661  0.2905
 4948TIP3    H214809   2.354   1.668   1.667 -1.5538  1.2358  1.7015
 4949TIP3   OH214810   1.954   1.220   4.833 -0.0374 -0.0464 -0.3773
 4949TIP3    H114811   1.929   1.132   4.860  1.0241 -0.3203 -0.2402
 4949TIP3    H214812   2.048   1.226   4.852 -0.2202  1.3462  0.2281
 4950TIP3   OH214813   2.475   6.599   5.783  0.3243 -0.0671 -0.0310
 4950TIP3    H114814   2.451   6.666   5.846  0.9373  0.7639 -0.6420
 4950TIP3    H214815   2.515   6.530   5.835  0.4977  0.4469  0.5300
 4951TIP3   OH214816   4.081   5.011   3.845  0.0892 -0.2638 -0.0102
 4951TIP3    H114817   4.039   5.093   3.872 -1.6137 -0.7264 -1.0610
 4951TIP3    H214818   4.076   4.956   3.923 -2.0083 -0.5420 -0.2760
 4952TIP3   OH214819   7.109   3.466   3.192  0.7404  0.3461  0.2425
 4952TIP3    H114820   7.083   3.425   3.275  1.7347 -0.5110  0.1464
 4952TIP3    H214821   7.111   3.395   3.129 -0.0478  1.0062 -0.5385
 4953TIP3   OH214822   5.378   6.030   3.727 -0.4629 -0.1169 -0.2877
 4953TIP3    H114823   5.426   6.062   3.803 -1.0402 -1.5208  0.7055
 4953TIP3    H214824   5.441   5.976   3.679  0.1048  1.3072 -1.2277
 4954TIP3   OH214825   3.273   0.698   5.407  0.5684  0.0237  0.6589
 4954TIP3    H114826   3.224   0.656   5.477 -0.0954 -0.3733 -0.0301
 4954TIP3    H214827   3.281   0.789   5.434 -0.3234  0.0336  0.9018
 4955TIP3   OH214828   3.218   0.101   0.649 -0.1823 -0.3147  0.0475
 4955TIP3    H114829   3.274   0.137   0.717 -0.3123 -0.9072  0.4700
 4955TIP3    H214830   3.132   0.093   0.690 -0.4138 -0.0777 -0.3813
 4956TIP3   OH214831   2.134   0.249   2.567  0.0400 -0.4384  0.6503
 4956TIP3    H114832   2.174   0.305   2.634  0.3279 -0.2413  0.3116
 4956TIP3    H214833   2.100   0.310   2.502 -0.2131 -0.6345  0.5971
 4957TIP3   OH214834   0.447   6.262   0.507 -0.1023  0.3563 -0.4126
 4957TIP3    H114835   0.391   6.318   0.561  1.3268 -1.0653  2.8408
 4957TIP3    H214836   0.386   6.210   0.456 -1.7126  0.5420  1.2030
 4958TIP3   OH214837   4.887   1.041   1.097  0.4673  0.1331  0.2464
 4958TIP3    H114838   4.882   1.103   1.024  1.1744  0.0570  0.1221
 4958TIP3    H214839   4.810   1.061   1.150 -0.4649 -0.3001 -0.8971
 4959TIP3   OH214840   1.701   0.973   1.928  0.0860  0.3303  0.1798
 4959TIP3    H114841   1.693   0.974   1.832 -1.9770  1.3581  0.3071
 4959TIP3    H214842   1.611   0.972   1.960  0.7307 -0.0979  2.1322
 4960TIP3   OH214843   3.328   0.765   2.125 -0.1647  0.4422 -0.1317
 4960TIP3    H114844   3.370   0.679   2.119  0.5363  0.8382 -1.3047
 4960TIP3    H214845   3.343   0.793   2.215  0.8289 -0.0675 -0.1234
 4961TIP3   OH214846   5.357   6.307   1.961 -0.4311 -0.1202 -0.2770
 4961TIP3    H114847   5.356   6.291   1.867  0.1678  0.1134 -0.3224
 4961TIP3    H214848   5.265   6.321   1.984 -0.5176  0.3879 -0.9178
 4962TIP3   OH214849   0.022   1.622   1.036 -0.4958  0.0334  0.2872
 4962TIP3    H114850  -0.020   1.674   1.104 -1.8524  0.2061 -0.6344
 4962TIP3    H214851   0.081   1.683   0.992  1.1476 -0.3360  1.9108
 4963TIP3   OH214852   3.586   0.468   4.902  0.9577 -0.0878 -0.2665
 4963TIP3    H114853   3.579   0.374   4.919 -0.8470 -0.0664 -0.6913
 4963TIP3    H214854   3.626   0.504   4.981  2.5872 -1.3090 -0.4956
 4964TIP3   OH214855   4.615   0.597   3.830  0.2935  0.1325  0.1528
 4964TIP3    H114856   4.534   0.588   3.880  0.4122 -0.1688  0.2939
 4964TIP3    H214857   4.587   0.598   3.739  0.2031 -0.8605  0.1635
 4965TIP3   OH214858   6.846   1.750   1.347 -0.1222 -0.4909 -0.0844
 4965TIP3    H114859   6.822   1.819   1.408  1.6886 -0.9288  1.2353
 4965TIP3    H214860   6.770   1.693   1.343 -2.0462  1.9847 -1.9691
 4966TIP3   OH214861   0.553   6.476   2.527  0.2323 -0.2628  0.2734
 4966TIP3    H114862   0.539   6.439   2.614  0.7726 -1.6646 -0.1941
 4966TIP3    H214863   0.474   6.526   2.508  0.3947  0.6462  1.8304
 4967TIP3   OH214864   6.287   3.694   5.776  0.0793  0.6859  0.1260
 4967TIP3    H114865   6.269   3.600   5.774  0.1205  0.6778  0.1353
 4967TIP3    H214866   6.269   3.723   5.686 -1.2820  0.9194  0.4498
 4968TIP3   OH214867   5.316   3.730   2.698 -0.5889 -0.2284 -0.2714
 4968TIP3    H114868   5.336   3.677   2.621 -0.7312 -0.9841  0.2070
 4968TIP3    H214869   5.400   3.740   2.743 -0.8200 -1.3014  0.4182
 4969TIP3   OH214870   3.362   0.721   5.139 -0.4144 -0.2732 -0.2922
 4969TIP3    H114871   3.294   0.745   5.076  0.4198 -1.1178 -1.5465
 4969TIP3    H214872   3.317   0.721   5.223 -2.1773 -1.5599 -1.1743
 4970TIP3   OH214873   4.507   6.053   2.522 -0.6955  0.2561 -0.2815
 4970TIP3    H114874   4.600   6.070   2.539 -1.0002  1.9344 -0.0374
 4970TIP3    H214875   4.494   5.962   2.547  0.8874 -0.0136 -0.3262
 4971TIP3   OH214876   6.260   4.352   5.224  0.7747 -0.4826  0.3222
 4971TIP3    H114877   6.317   4.391   5.289  0.8794 -1.4689  0.8344
 4971TIP3    H214878   6.284   4.260   5.223 -1.7590 -1.2334  1.5888
 4972TIP3   OH214879   1.871   3.486   3.322 -0.0039 -0.2631  0.0488
 4972TIP3    H114880   1.875   3.544   3.399 -2.2255  0.3073 -0.2145
 4972TIP3    H214881   1.874   3.546   3.247  1.1342 -0.7582 -0.3357
 4973TIP3   OH214882   5.121   0.326   5.747  0.1662  0.3629 -0.1835
 4973TIP3    H114883   5.030   0.297   5.750 -0.2838  1.7271  0.0978
 4973TIP3    H214884   5.168   0.252   5.711 -0.9677 -0.5820  0.1948
 4974TIP3   OH214885   4.870   2.041   0.083  0.0655 -0.3090  0.1691
 4974TIP3    H114886   4.860   2.120   0.136 -2.2962  0.4099 -1.2025
 4974TIP3    H214887   4.910   2.071   0.002 -1.0164 -0.4614 -0.4338
 4975TIP3   OH214888   5.330   4.596   4.645 -0.3637  0.1195  0.2612
 4975TIP3    H114889   5.317   4.504   4.669 -0.5213 -0.0858 -0.5559
 4975TIP3    H214890   5.370   4.636   4.722 -0.2582 -0.6459  0.6149
 4976TIP3   OH214891   5.714   5.867   1.952 -0.5406 -0.0003  0.1741
 4976TIP3    H114892   5.660   5.928   1.901  0.3008  2.1673  1.7158
 4976TIP3    H214893   5.657   5.792   1.968 -3.2263  2.1728  1.7292
 4977TIP3   OH214894   2.069   6.284   5.467 -0.0345  0.3548 -0.3794
 4977TIP3    H114895   2.151   6.333   5.476  1.5487 -2.4712  2.4577
 4977TIP3    H214896   2.023   6.299   5.549 -1.6467  0.5453 -1.2666
 4978TIP3   OH214897   2.867   0.260   4.848  0.4537 -0.3229 -0.3984
 4978TIP3    H114898   2.903   0.322   4.785 -0.0809 -1.6596 -2.0847
 4978TIP3    H214899   2.940   0.204   4.872  0.4388 -0.4253 -0.5919
 4979TIP3   OH214900   0.405   3.428   3.977  0.0582  0.3815 -0.8656
 4979TIP3    H114901   0.310   3.433   3.977  0.1136  2.1604 -2.0144
 4979TIP3    H214902   0.430   3.446   4.068 -0.6796  0.2855 -0.6381
 4980TIP3   OH214903   3.483   3.530   3.445 -0.0805  0.2894  0.1344
 4980TIP3    H114904   3.504   3.616   3.480  1.3226 -0.3025  0.8046
 4980TIP3    H214905   3.428   3.548   3.369 -1.4414  1.6771  1.3978
 4981TIP3   OH214906   2.527   2.735   3.354  0.2254  0.2849 -0.1551
 4981TIP3    H114907   2.614   2.695   3.358  1.9025  3.5816 -0.3602
 4981TIP3    H214908   2.498   2.739   3.445 -0.4601 -2.0853 -0.1925
 4982TIP3   OH214909   5.931   4.190   4.189 -0.3069  0.2567  0.2796
 4982TIP3    H114910   5.989   4.213   4.262  1.0053 -1.4255 -0.1724
 4982TIP3    H214911   5.894   4.273   4.160  0.7113  1.1914  1.5745
 4983TIP3   OH214912   6.759   2.809   1.320 -0.2932 -0.0621  0.1903
 4983TIP3    H114913   6.755   2.884   1.379  0.4187  0.7347 -0.7325
 4983TIP3    H214914   6.778   2.847   1.234 -0.3440 -1.2682 -0.3819
 4984TIP3   OH214915   3.410   2.398   1.064  0.1693 -0.5035  0.2154
 4984TIP3    H114916   3.316   2.380   1.055  0.2751 -0.5290 -0.9700
 4984TIP3    H214917   3.445   2.386   0.976  1.2195 -0.0706  0.5653
 4985TIP3   OH214918   4.519   5.976   0.609  0.2445 -0.2536 -0.3622
 4985TIP3    H114919   4.450   5.985   0.675 -0.4925 -2.4174 -0.7768
 4985TIP3    H214920   4.481   6.014   0.530 -0.1207 -0.6276 -0.3657
 4986TIP3   OH214921   1.658   1.425   2.141  0.0199 -0.1755  0.1678
 4986TIP3    H114922   1.659   1.481   2.219 -2.1655 -0.4061  0.4213
 4986TIP3    H214923   1.571   1.385   2.142  1.5240 -3.8320  0.1460
 4987TIP3   OH214924   0.593   5.149   2.509 -0.5100 -0.1825  0.2744
 4987TIP3    H114925   0.658   5.135   2.579 -0.8365 -0.2716  0.5601
 4987TIP3    H214926   0.637   5.118   2.430 -0.0198  0.2108  0.3885
 4988TIP3   OH214927   2.226   0.715   2.604  0.2322 -0.3879 -0.3102
 4988TIP3    H114928   2.267   0.647   2.549  0.2177 -1.3332  0.8012
 4988TIP3    H214929   2.255   0.694   2.693 -2.6834 -1.1470  0.5629
 4989TIP3   OH214930   0.579   4.677   2.459 -0.2679  0.7871  0.6030
 4989TIP3    H114931   0.561   4.605   2.519 -1.6439  1.0399  0.5231
 4989TIP3    H214932   0.599   4.751   2.516 -1.9960  1.1408  0.8175
 4990TIP3   OH214933   3.801   0.078   1.420 -0.5306 -0.0644  0.4945
 4990TIP3    H114934   3.784   0.062   1.327 -0.0980  2.8313 -0.1727
 4990TIP3    H214935   3.896   0.090   1.425 -0.8307  2.7063  0.7134
 4991TIP3   OH214936   1.703   4.916   4.496 -0.4741 -0.4168 -0.1473
 4991TIP3    H114937   1.745   4.864   4.565 -0.5747 -0.9594 -0.4877
 4991TIP3    H214938   1.610   4.915   4.520 -0.4971 -0.5337 -0.2355
 4992TIP3   OH214939   3.469   0.990   1.631  0.3323  0.3060  0.0430
 4992TIP3    H114940   3.511   0.916   1.676 -1.9588 -0.6299  0.8436
 4992TIP3    H214941   3.453   1.054   1.701  2.0855  1.4995 -0.6058
 4993TIP3   OH214942   0.410   6.057   5.654 -0.0633 -0.1396  0.2727
 4993TIP3    H114943   0.498   6.092   5.640 -0.3564  0.2911 -0.6151
 4993TIP3    H214944   0.362   6.128   5.697  0.1214 -0.5162  1.1156
 4994TIP3   OH214945   3.586   6.284   4.972  0.0363  0.1450  0.1424
 4994TIP3    H114946   3.595   6.379   4.980  0.5483  0.0102  1.2523
 4994TIP3    H214947   3.601   6.267   4.879 -2.1055  1.3558 -0.4880
 4995TIP3   OH214948   0.158   2.475   1.658  0.2117 -0.5998 -0.0865
 4995TIP3    H114949   0.204   2.445   1.736 -0.5734 -3.9318 -0.7391
 4995TIP3    H214950   0.100   2.544   1.690  0.1256 -1.6543  2.2490
 4996TIP3   OH214951   5.612   0.959   2.156 -0.1585  0.5862 -0.8455
 4996TIP3    H114952   5.692   0.987   2.199 -0.1802 -0.8125  0.1977
 4996TIP3    H214953   5.541   0.993   2.211 -0.2160 -0.1194 -0.4723
 4997TIP3   OH214954   1.348   4.509   0.704  0.8485 -1.3430 -0.0924
 4997TIP3    H114955   1.297   4.587   0.681  2.6098 -0.2118 -0.4408
 4997TIP3    H214956   1.290   4.457   0.759 -0.7748 -0.3158 -0.7563
 4998TIP3   OH214957   3.943   0.720   4.461 -0.6326 -0.1924  0.6552
 4998TIP3    H114958   3.903   0.756   4.382  2.7317  0.6953 -0.8333
 4998TIP3    H214959   3.977   0.796   4.508  1.8017 -0.9376  0.2721
 4999TIP3   OH214960   2.907   3.577   3.067 -0.0241 -0.2630 -0.7469
 4999TIP3    H114961   2.939   3.500   3.021 -1.1880 -0.2018 -1.7037
 4999TIP3    H214962   2.910   3.647   3.002 -0.7815  0.0535 -0.4495
 5000TIP3   OH214963   3.899   1.279   2.275 -0.3187 -0.0703  0.0978
 5000TIP3    H114964   3.985   1.314   2.296  0.2592 -0.7733 -1.0247
 5000TIP3    H214965   3.842   1.356   2.268  0.2154  0.3955  0.7754
 5001TIP3   OH214966   3.159   4.071   4.250  0.4340 -0.4309  0.1000
 5001TIP3    H114967   3.153   4.046   4.158  0.2416  0.0477 -0.0239
 5001TIP3    H214968   3.250   4.100   4.260  0.4587 -0.4958  0.0650
 5002TIP3   OH214969   5.619   0.677   1.313  0.0065 -0.7991 -0.5302
 5002TIP3    H114970   5.650   0.685   1.223 -1.1596 -1.1462 -0.9672
 5002TIP3    H214971   5.563   0.600   1.313 -3.1253  1.3238 -0.4117
 5003TIP3   OH214972   0.778   5.465   1.498 -0.2930 -0.3116  0.3433
 5003TIP3    H114973   0.761   5.372   1.485  1.5712 -0.5998 -0.3755
 5003TIP3    H214974   0.732   5.509   1.427  2.3669 -1.1178 -2.0707
 5004TIP3   OH214975   1.122   2.539   0.666 -0.2340 -0.3252 -0.2921
 5004TIP3    H114976   1.138   2.530   0.760  0.7763  0.6070 -0.3617
 5004TIP3    H214977   1.031   2.513   0.655  0.0680 -2.0006  0.7125
 5005TIP3   OH214978   1.382   0.399   1.747 -0.2274  0.2169  0.5253
 5005TIP3    H114979   1.446   0.390   1.818 -0.1814 -0.7722  0.3779
 5005TIP3    H214980   1.315   0.333   1.767 -2.1533  2.3723  1.6349
 5006TIP3   OH214981   3.815   4.497   1.858 -0.3447  0.7164  0.2639
 5006TIP3    H114982   3.905   4.469   1.874 -0.3532  0.1472 -0.6600
 5006TIP3    H214983   3.788   4.448   1.781 -1.0489  1.7589 -0.1704
 5007TIP3   OH214984   5.509   2.344   3.479 -0.6342  0.5271  0.2861
 5007TIP3    H114985   5.425   2.361   3.522 -0.9684 -0.1669 -0.0840
 5007TIP3    H214986   5.564   2.419   3.504 -0.0206 -0.9267  3.8651
 5008TIP3   OH214987   2.581   3.478   2.214  0.3161 -0.7623 -0.0562
 5008TIP3    H114988   2.656   3.468   2.155 -0.4535 -1.8134 -0.9070
 5008TIP3    H214989   2.504   3.467   2.157 -0.5424  1.5010  0.5690
 5009TIP3   OH214990   0.948   1.493   3.692 -0.7005  0.2644 -0.7731
 5009TIP3    H114991   0.873   1.545   3.664 -0.8588  0.4675 -0.0073
 5009TIP3    H214992   1.011   1.557   3.723 -1.4967 -0.0057  1.6416
 5010TIP3   OH214993   5.315   5.502   2.248  0.4741  0.2925 -0.5218
 5010TIP3    H114994   5.228   5.513   2.210  0.9688  0.7572 -1.5487
 5010TIP3    H214995   5.344   5.590   2.268  0.6958  0.1333 -0.1304
 5011TIP3   OH214996   5.974   2.412   4.200  0.5183  0.1037 -0.5523
 5011TIP3    H114997   5.912   2.484   4.193 -1.2162 -1.4655 -2.3330
 5011TIP3    H214998   5.953   2.370   4.283 -1.1428 -0.6286 -1.2967
 5012TIP3   OH214999   1.762   0.872   0.016 -0.5031 -0.8894 -0.0931
 5012TIP3    H115000   1.691   0.890   0.078  1.3760 -1.3839  2.3781
 5012TIP3    H215001   1.837   0.918   0.052  1.0512 -2.4586 -1.1930
 5013TIP3   OH215002   2.000   5.943   5.043  0.5550  0.9528 -0.0067
 5013TIP3    H115003   2.025   5.995   4.966 -0.6275 -0.7142 -1.6028
 5013TIP3    H215004   2.069   5.876   5.049 -1.7009 -1.9109 -2.7065
 5014TIP3   OH215005   4.429   4.686   2.282 -0.3217  0.1996  0.2657
 5014TIP3    H115006   4.392   4.599   2.299  0.2057  0.0517  0.7096
 5014TIP3    H215007   4.460   4.681   2.191 -2.0012  0.5657 -0.3666
 5015TIP3   OH215008   3.941   3.767   4.985 -0.4444 -0.3782  0.1832
 5015TIP3    H115009   3.905   3.803   4.904  1.9764 -0.1178 -0.8551
 5015TIP3    H215010   4.012   3.710   4.957 -0.9789 -2.0829  2.0552
 5016TIP3   OH215011   4.210   2.697   5.140 -0.1387 -0.1014  0.6822
 5016TIP3    H115012   4.301   2.723   5.124 -0.0386 -0.6091  0.4006
 5016TIP3    H215013   4.158   2.763   5.095  0.1140 -0.3627 -0.0066
 5017TIP3   OH215014   7.144   2.658   1.758 -0.3307  0.5579 -0.2657
 5017TIP3    H115015   7.180   2.709   1.830  1.5303 -0.5489 -0.3495
 5017TIP3    H215016   7.104   2.723   1.700  1.8056  1.9360 -0.2935
 5018TIP3   OH215017   5.411   0.055   4.690  0.7813 -0.1285  0.1237
 5018TIP3    H115018   5.421  -0.011   4.621 -1.7219  1.2304 -1.6976
 5018TIP3    H215019   5.337   0.024   4.742 -0.7358  1.3990 -1.0458
 5019TIP3   OH215020   2.480   1.698   5.312 -0.0965 -0.3902  0.0654
 5019TIP3    H115021   2.439   1.672   5.229  1.5869 -0.5545 -0.7494
 5019TIP3    H215022   2.489   1.793   5.305  0.6097 -0.4760 -0.2108
 5020TIP3   OH215023   3.050   3.364   5.674 -0.2113 -0.0833 -0.3553
 5020TIP3    H115024   3.060   3.299   5.604  0.9760 -0.0730 -0.2190
 5020TIP3    H215025   3.134   3.362   5.720 -0.8046  0.2640  0.7735
 5021TIP3   OH215026   1.809   4.093   1.503 -0.3772 -0.0563  0.4767
 5021TIP3    H115027   1.863   4.082   1.425 -0.6620  2.7015 -0.1981
 5021TIP3    H215028   1.818   4.009   1.550  0.9764 -1.2491 -1.7347
 5022TIP3   OH215029   2.972   6.055   1.565  0.4452  0.2893  0.4579
 5022TIP3    H115030   3.027   6.010   1.501 -1.1693 -0.6254 -0.3457
 5022TIP3    H215031   3.032   6.077   1.637  1.9265 -0.2922 -0.5479
 5023TIP3   OH215032   4.813   1.229   5.126  0.7381 -0.0228 -0.1969
 5023TIP3    H115033   4.851   1.307   5.168 -1.2044  0.6412  0.4578
 5023TIP3    H215034   4.723   1.255   5.107 -0.3036 -2.4631  1.0537
 5024TIP3   OH215035   0.467   3.409   0.073 -0.0975 -0.0677  0.0839
 5024TIP3    H115036   0.563   3.411   0.075 -0.0891  2.9547  0.5453
 5024TIP3    H215037   0.443   3.456  -0.006 -1.2115 -0.3117  0.2582
 5025TIP3   OH215038   2.242   3.565   1.170  0.4196  0.0482  0.7857
 5025TIP3    H115039   2.280   3.520   1.095 -0.6459 -1.2835  1.0112
 5025TIP3    H215040   2.264   3.509   1.245  1.6784  1.4697  1.5591
 5026TIP3   OH215041   0.964   2.228   1.535  0.0940  0.6843 -0.6690
 5026TIP3    H115042   0.886   2.200   1.584 -1.9505  1.2603 -3.3651
 5026TIP3    H215043   0.954   2.323   1.528  0.0833  0.5809 -2.4964
 5027TIP3   OH215044   7.194   4.933   2.338  0.2292  0.3836 -0.4408
 5027TIP3    H115045   7.237   4.984   2.406 -3.3983 -0.0700  2.5564
 5027TIP3    H215046   7.182   4.994   2.266 -0.0354  2.4547  1.2616
 5028TIP3   OH215047   3.723   4.794   4.292 -0.7853 -0.3110 -0.1624
 5028TIP3    H115048   3.709   4.727   4.359  1.3892 -0.0631  0.6104
 5028TIP3    H215049   3.768   4.748   4.221  0.6966  0.2871  0.3639
 5029TIP3   OH215050   3.918   4.332   5.762 -0.3087 -0.4782 -1.0801
 5029TIP3    H115051   3.993   4.297   5.810  0.2130 -0.0439 -1.5599
 5029TIP3    H215052   3.878   4.255   5.721 -2.4982 -1.3365  2.2666
 5030TIP3   OH215053   2.060   2.065   0.985 -0.3718 -0.3662 -0.2568
 5030TIP3    H115054   2.079   2.159   0.988  2.6357 -0.8704  0.1592
 5030TIP3    H215055   2.009   2.053   0.905 -2.9899  1.8624  0.9225
 5031TIP3   OH215056   0.276   1.734   0.904 -0.5173  0.0002 -0.0790
 5031TIP3    H115057   0.274   1.820   0.947  1.1355 -0.2524  0.5766
 5031TIP3    H215058   0.358   1.734   0.855 -1.2354 -0.6401 -1.3188
 5032TIP3   OH215059   7.058   6.325   0.159 -0.6336  0.2181 -0.2370
 5032TIP3    H115060   7.042   6.382   0.083  1.1689  1.5585  0.3298
 5032TIP3    H215061   7.127   6.266   0.130 -0.7740 -0.0481 -0.0273
 5033TIP3   OH215062   2.815   6.320   0.165  0.3350  0.0660  0.0133
 5033TIP3    H115063   2.872   6.334   0.090  0.4041 -0.0545  0.0430
 5033TIP3    H215064   2.763   6.243   0.143 -0.3582  0.6199 -0.3364
 5034TIP3   OH215065   5.659   6.112   5.296  0.2254  0.2676  0.0387
 5034TIP3    H115066   5.627   6.202   5.292 -0.1543  0.1001 -1.8969
 5034TIP3    H215067   5.604   6.070   5.362  1.5285  1.8176  2.2360
 5035TIP3   OH215068   3.754   3.216   2.555  0.0984 -0.2579  0.3075
 5035TIP3    H115069   3.690   3.280   2.588  0.7219  0.1713  0.7074
 5035TIP3    H215070   3.822   3.270   2.513 -0.2504 -0.7539 -0.9325
 5036TIP3   OH215071   3.695   5.734   3.218 -0.8630  0.4104 -0.2850
 5036TIP3    H115072   3.639   5.812   3.219 -0.1085  0.9629  0.1674
 5036TIP3    H215073   3.744   5.741   3.136 -0.3836  0.7311  0.0183
 5037TIP3   OH215074   2.034   2.304   2.372  0.2599 -0.3962 -0.0325
 5037TIP3    H115075   2.127   2.281   2.369  0.1734 -0.6612 -1.5495
 5037TIP3    H215076   1.991   2.234   2.324 -0.6594  0.0111  0.1901
 5038TIP3   OH215077   6.625   0.263   5.024 -0.8568 -0.4781 -0.1341
 5038TIP3    H115078   6.596   0.277   5.114 -1.2009  0.5749 -0.3888
 5038TIP3    H215079   6.713   0.302   5.021  0.1554 -2.6250  0.3364
 5039TIP3   OH215080   4.099   4.852   0.599  0.0567  0.2874 -0.2504
 5039TIP3    H115081   4.017   4.885   0.563  0.2060 -0.8695 -1.7447
 5039TIP3    H215082   4.165   4.914   0.568 -0.1045  0.6078  0.0367
 5040TIP3   OH215083   6.412   2.587   3.176 -0.8109  0.3458 -0.1357
 5040TIP3    H115084   6.319   2.576   3.160 -0.5493  0.9347 -2.3796
 5040TIP3    H215085   6.427   2.681   3.165  0.1339  0.1848 -0.3139
 5041TIP3   OH215086   0.351   0.493   5.624 -0.5771 -0.7272  0.0553
 5041TIP3    H115087   0.294   0.453   5.558 -1.6057  0.1486  0.3694
 5041TIP3    H215088   0.388   0.419   5.671 -1.0154 -1.3424 -0.5294
 5042TIP3   OH215089   2.548   2.205   4.843 -0.5057 -0.1385 -0.6337
 5042TIP3    H115090   2.621   2.230   4.901  0.7754 -0.3351 -2.0932
 5042TIP3    H215091   2.471   2.207   4.900  0.4561  1.1613  0.7151
 5043TIP3   OH215092   6.782   5.200   1.029 -0.4750  0.0761  0.1196
 5043TIP3    H115093   6.737   5.116   1.015  0.1736 -0.1882 -0.4266
 5043TIP3    H215094   6.713   5.258   1.062 -0.7097 -0.9388  1.5045
 5044TIP3   OH215095   4.404   3.797   3.422  0.1659 -0.1256 -0.4464
 5044TIP3    H115096   4.408   3.859   3.349  1.9251  0.2625 -0.0601
 5044TIP3    H215097   4.463   3.833   3.488 -0.0358 -1.3757  0.4624
 5045TIP3   OH215098   2.859   2.129   1.382 -0.4429 -0.1717 -0.1632
 5045TIP3    H115099   2.781   2.153   1.432  1.0598  2.7099  0.9918
 5045TIP3    H215100   2.845   2.169   1.296 -0.9065 -1.0501 -0.5124
 5046TIP3   OH215101   2.381   3.984   2.006  0.3229 -0.0838 -0.1857
 5046TIP3    H115102   2.402   3.948   1.920 -1.1588 -0.8109 -0.2795
 5046TIP3    H215103   2.455   4.041   2.027  1.7410 -1.5522 -0.9651
 5047TIP3   OH215104   4.190   2.786   1.458 -0.0161  0.0366 -0.3781
 5047TIP3    H115105   4.241   2.735   1.521 -0.5246  1.7152  1.4942
 5047TIP3    H215106   4.172   2.725   1.386  1.3753 -1.6854  0.6644
 5048TIP3   OH215107   4.613   0.727   2.982 -0.1676 -0.1747 -0.3848
 5048TIP3    H115108   4.520   0.748   2.986 -0.5549 -1.1782 -2.5373
 5048TIP3    H215109   4.657   0.811   2.991 -1.3846  0.6265 -1.4852
 5049TIP3   OH215110   5.694   2.274   1.346 -0.0971  0.2728  0.5157
 5049TIP3    H115111   5.640   2.223   1.286  0.1321  1.0554 -0.3774
 5049TIP3    H215112   5.631   2.317   1.404 -0.4359  1.0111 -0.3804
 5050TIP3   OH215113   1.216   3.333   5.877 -0.3800  0.1471 -0.1360
 5050TIP3    H115114   1.283   3.376   5.931 -0.4391 -2.3557  2.1488
 5050TIP3    H215115   1.260   3.256   5.841 -1.5412 -0.5583 -0.0786
 5051TIP3   OH215116   0.568   5.371   5.227 -0.0176 -0.4625  0.3180
 5051TIP3    H115117   0.485   5.375   5.181  0.3937  2.0729 -0.3723
 5051TIP3    H215118   0.632   5.408   5.165  0.8127  1.7292  2.2962
 5052TIP3   OH215119   0.341   1.543   3.523  0.4235  0.2998 -0.0207
 5052TIP3    H115120   0.362   1.595   3.445  0.0631 -1.1878 -1.1412
 5052TIP3    H215121   0.401   1.576   3.591 -0.6175  3.0039 -0.3054
 5053TIP3   OH215122   6.869   2.558   3.986  0.5576  0.4734 -0.4665
 5053TIP3    H115123   6.965   2.553   3.976  0.5214  0.0877 -0.6364
 5053TIP3    H215124   6.852   2.512   4.068  0.6495  1.8040  0.3388
 5054TIP3   OH215125   1.845   0.498   4.690 -0.4582 -0.7564  0.1110
 5054TIP3    H115126   1.897   0.497   4.609 -1.3486 -0.5851 -0.4714
 5054TIP3    H215127   1.774   0.559   4.673  0.3973  0.7787  1.7206
 5055TIP3   OH215128   4.315   0.043   0.989 -0.3556 -0.6169 -0.1331
 5055TIP3    H115129   4.268   0.071   0.911 -0.4268 -2.0879 -0.6538
 5055TIP3    H215130   4.407   0.043   0.964 -0.1456  1.0247  0.4946
 5056TIP3   OH215131   1.260   1.454   0.269  0.0447  0.2285  0.2263
 5056TIP3    H115132   1.284   1.451   0.362 -2.1171  3.0710  1.0424
 5056TIP3    H215133   1.170   1.420   0.267  0.2201 -0.1803 -0.8819
 5057TIP3   OH215134   2.880   1.800   3.755 -0.0397  0.3101  0.4143
 5057TIP3    H115135   2.837   1.883   3.778  0.1627  0.1538  1.3878
 5057TIP3    H215136   2.884   1.751   3.837  1.6454  0.1486  0.2692
 5058TIP3   OH215137   6.795   1.588   3.600 -0.3886  0.0638 -0.0384
 5058TIP3    H115138   6.728   1.656   3.606  0.9329  1.3494  0.8824
 5058TIP3    H215139   6.788   1.555   3.510 -1.8115  0.6130 -0.1487
 5059TIP3   OH215140   2.255   3.653   3.640  0.0371 -0.0192 -0.3541
 5059TIP3    H115141   2.199   3.667   3.563 -1.1869  0.8057  0.6455
 5059TIP3    H215142   2.240   3.561   3.663 -2.4828  0.6267  1.0033
 5060TIP3   OH215143   6.740   3.153   2.213  0.1775 -0.3541 -0.0548
 5060TIP3    H115144   6.754   3.247   2.201 -1.3834 -0.0330  0.3482
 5060TIP3    H215145   6.763   3.114   2.128  0.4549  0.4359 -0.3492
 5061TIP3   OH215146   6.924   6.252   4.132  0.5098  0.4166 -0.1293
 5061TIP3    H115147   6.843   6.301   4.118  0.4949  0.1152 -1.1651
 5061TIP3    H215148   6.916   6.217   4.221 -0.9389 -0.4269 -0.5575
 5062TIP3   OH215149   0.255   6.582   3.915  0.4006  0.0424  0.7206
 5062TIP3    H115150   0.191   6.512   3.904 -0.7084  1.2344 -0.9246
 5062TIP3    H215151   0.232   6.623   3.999 -0.1837 -0.3396  0.7542
 5063TIP3   OH215152   1.274   4.608   2.766  0.2972 -0.2491  0.1907
 5063TIP3    H115153   1.368   4.595   2.758  0.1937 -1.7664  1.0924
 5063TIP3    H215154   1.246   4.638   2.680  1.6491  0.6177  0.0274
 5064TIP3   OH215155   4.432   1.395   4.299 -0.1702 -0.1540  0.3518
 5064TIP3    H115156   4.509   1.437   4.337 -0.0496  0.5026 -0.5674
 5064TIP3    H215157   4.369   1.390   4.371 -0.1324  1.4743  0.5465
 5065TIP3   OH215158   1.942   0.718   0.602  0.6279 -0.0455 -0.1573
 5065TIP3    H115159   1.987   0.741   0.521  0.7990 -0.7588 -0.2711
 5065TIP3    H215160   2.011   0.693   0.662  0.6636  2.2876  0.8535
 5066TIP3   OH215161   4.763   3.857   4.289  0.1130 -0.2724  0.0746
 5066TIP3    H115162   4.770   3.774   4.243 -1.2285 -0.0816 -0.5377
 5066TIP3    H215163   4.678   3.852   4.334 -0.0922  0.8470 -0.1646
 5067TIP3   OH215164   6.424   5.430   2.131  0.0338  0.2165 -0.0692
 5067TIP3    H115165   6.428   5.335   2.135 -0.6969  0.2046  0.7988
 5067TIP3    H215166   6.492   5.460   2.192 -1.6508  0.1877  1.9393
 5068TIP3   OH215167   6.669   6.531   2.469  0.5039  0.1922  0.1700
 5068TIP3    H115168   6.582   6.507   2.499  0.7162 -0.7941  0.0301
 5068TIP3    H215169   6.654   6.585   2.391  0.0175 -2.5998 -1.8115
 5069TIP3   OH215170   5.123   0.752   3.899  0.1056 -0.1803 -0.3703
 5069TIP3    H115171   5.203   0.708   3.928  0.3761  0.1032 -0.6715
 5069TIP3    H215172   5.060   0.681   3.883  0.0940 -0.3664  0.4626
 5070TIP3   OH215173   5.602   2.935   1.105  0.4466  0.0593  0.4653
 5070TIP3    H115174   5.530   2.898   1.054 -0.7933  0.3760  1.8862
 5070TIP3    H215175   5.636   3.007   1.052  0.3351 -0.6783 -0.6302
 5071TIP3   OH215176   0.657   1.520   1.025  0.0799  0.4499  0.2070
 5071TIP3    H115177   0.595   1.447   1.023 -0.7170  1.0253  1.8860
 5071TIP3    H215178   0.740   1.480   1.051 -0.2120  0.0432  0.5248
 5072TIP3   OH215179   5.869   0.284   4.799  0.3111  0.6016 -0.5515
 5072TIP3    H115180   5.956   0.256   4.828  0.2083 -0.7133 -1.4315
 5072TIP3    H215181   5.884   0.327   4.715 -0.0864 -1.8085 -1.9444
 5073TIP3   OH215182   2.081   3.223   4.687 -0.1111 -0.6397  0.3077
 5073TIP3    H115183   2.022   3.295   4.665  0.0061 -0.4227  0.6943
 5073TIP3    H215184   2.053   3.151   4.630  1.1543  0.3469 -1.6402
 5074TIP3   OH215185   1.090   2.773   2.668  0.2485 -0.0960 -0.1404
 5074TIP3    H115186   1.137   2.857   2.665 -0.3716  0.2768  0.2286
 5074TIP3    H215187   1.153   2.709   2.637  0.8213  0.4737 -0.1795
 5075TIP3   OH215188   2.373   1.796   2.056 -0.0443  0.3002 -0.2680
 5075TIP3    H115189   2.432   1.819   1.984  1.3929 -1.2449  0.3330
 5075TIP3    H215190   2.335   1.880   2.084  0.4324  1.0930 -1.8988
 5076TIP3   OH215191   6.783   1.182   5.260  0.2498 -0.4892  0.4671
 5076TIP3    H115192   6.752   1.154   5.346 -1.1937  0.1008  0.1759
 5076TIP3    H215193   6.774   1.277   5.261 -0.7636 -0.5509 -0.6748
 5077TIP3   OH215194   1.627   4.917   3.466  0.4405 -0.1026  0.1238
 5077TIP3    H115195   1.700   4.918   3.528  1.6123 -1.6245 -1.1645
 5077TIP3    H215196   1.667   4.903   3.381 -1.2542  0.5748 -0.8457
 5078TIP3   OH215197   0.772   0.284   1.716 -0.3907  0.0100 -0.0920
 5078TIP3    H115198   0.778   0.202   1.765  0.1539 -1.3125 -2.2552
 5078TIP3    H215199   0.682   0.313   1.729 -0.8118 -1.3156  0.1411
 5079TIP3   OH215200   4.484   5.805   2.809 -0.3366  0.3110 -0.4017
 5079TIP3    H115201   4.507   5.897   2.813  1.5039 -0.1126  3.5719
 5079TIP3    H215202   4.388   5.804   2.804 -0.3411  2.2527 -3.2245
 5080TIP3   OH215203   6.335   3.368   0.764  0.4370  0.1516  0.4279
 5080TIP3    H115204   6.270   3.409   0.822  0.5631 -1.1012  1.5093
 5080TIP3    H215205   6.284   3.307   0.710  0.6202 -0.3654  0.8334
 5081TIP3   OH215206   3.009   5.408   2.616 -0.2625 -0.5194  0.5153
 5081TIP3    H115207   3.063   5.330   2.610  1.5002  0.4699  2.3095
 5081TIP3    H215208   3.045   5.467   2.550 -1.1594 -0.9437 -0.3758
 5082TIP3   OH215209   3.048   5.082   1.275  0.5961  0.3498  0.3536
 5082TIP3    H115210   2.973   5.038   1.238  0.0801 -0.7461  2.5137
 5082TIP3    H215211   3.097   5.115   1.200 -1.2878 -0.1273 -1.1509
 5083TIP3   OH215212   3.488   3.638   5.693 -0.1350 -0.2057  0.3918
 5083TIP3    H115213   3.400   3.677   5.683 -0.2114  0.7466  3.4799
 5083TIP3    H215214   3.519   3.673   5.777  2.7687 -1.4072 -0.0839
 5084TIP3   OH215215   5.621   1.095   0.990 -0.4122 -0.1862  0.5556
 5084TIP3    H115216   5.710   1.061   0.977 -0.4096 -0.6190  1.5880
 5084TIP3    H215217   5.632   1.189   1.001 -0.1477 -0.1575  0.0338
 5085TIP3   OH215218   5.116   0.371   3.632 -0.6152 -0.3629  0.1661
 5085TIP3    H115219   5.113   0.358   3.537 -0.3834  0.8369 -0.0144
 5085TIP3    H215220   5.207   0.391   3.651 -1.0274  1.5749  0.3114
 5086TIP3   OH215221   1.946   6.633   5.819 -0.1582 -0.0826 -0.0509
 5086TIP3    H115222   2.003   6.572   5.771  0.3282 -0.6398  1.2024
 5086TIP3    H215223   1.887   6.577   5.869  0.7924  0.4364  1.7087
 5087TIP3   OH215224   5.790   2.320   0.670 -0.3294 -0.4096  0.1592
 5087TIP3    H115225   5.844   2.295   0.595 -1.0188 -1.5544  0.0245
 5087TIP3    H215226   5.797   2.415   0.674  0.9904 -0.4616 -0.3796
 5088TIP3   OH215227   3.638   0.996   0.777  0.6637  0.6514 -0.2665
 5088TIP3    H115228   3.560   1.016   0.725  0.1989  0.6818  0.4269
 5088TIP3    H215229   3.644   1.068   0.840  0.8818  0.3208  0.0973
 5089TIP3   OH215230   6.262   6.685   0.725  0.1695 -0.1962 -0.0616
 5089TIP3    H115231   6.178   6.722   0.699 -0.5646 -0.1833  2.0757
 5089TIP3    H215232   6.253   6.672   0.820  3.0120  0.9555  0.4565
 5090TIP3   OH215233   2.120   6.104   4.158 -0.6584 -0.2258 -0.5906
 5090TIP3    H115234   2.152   6.149   4.080  0.9151 -1.2894 -0.6102
 5090TIP3    H215235   2.032   6.140   4.173  0.5422  2.9523 -0.4804
 5091TIP3   OH215236   0.277   0.340   3.789 -0.3446  1.1866  0.0029
 5091TIP3    H115237   0.218   0.312   3.719  1.2515  0.3320 -1.0711
 5091TIP3    H215238   0.325   0.413   3.751  0.2055  1.0258  0.3777
 5092TIP3   OH215239   4.491   4.175   5.817 -0.1088 -0.1682  0.0002
 5092TIP3    H115240   4.569   4.120   5.829 -1.2245 -1.7744  0.2790
 5092TIP3    H215241   4.436   4.125   5.756 -1.8096 -0.0881  1.4051
 5093TIP3   OH215242   5.411   0.517   1.814 -0.6416 -0.3004  0.2516
 5093TIP3    H115243   5.358   0.597   1.811 -2.7014 -1.5899 -0.2369
 5093TIP3    H215244   5.493   0.541   1.771 -1.3957  1.4000 -0.3364
 5094TIP3   OH215245   2.200   4.447   2.918 -0.5576 -0.1844 -0.0960
 5094TIP3    H115246   2.162   4.410   2.998  2.3445  0.4846  1.7379
 5094TIP3    H215247   2.154   4.530   2.907 -0.4140  0.1306  1.4327
 5095TIP3   OH215248   0.734   3.598   3.585  0.1173 -0.2967  0.4693
 5095TIP3    H115249   0.732   3.637   3.672  1.5083 -0.8978  0.7944
 5095TIP3    H215250   0.649   3.621   3.546  0.2572  1.6727  1.2322
 5096TIP3   OH215251   1.914   3.638   1.854 -0.5101 -0.3537  0.1366
 5096TIP3    H115252   1.914   3.573   1.784 -0.8059 -0.6480  0.4042
 5096TIP3    H215253   1.999   3.682   1.847  0.1897 -1.5705  0.7001
 5097TIP3   OH215254   6.158   3.354   2.472 -0.1665 -0.1331  0.0469
 5097TIP3    H115255   6.238   3.406   2.479 -1.3051  1.4537  3.5658
 5097TIP3    H215256   6.109   3.395   2.401  0.6832  1.1227  0.1549
 5098TIP3   OH215257   4.964   5.408   0.509  0.0173 -0.2227  0.3050
 5098TIP3    H115258   4.963   5.503   0.495 -1.4633 -0.0745  1.1764
 5098TIP3    H215259   4.954   5.371   0.422 -1.8513  0.5009  0.1670
 5099TIP3   OH215260   3.998   1.403   4.376  0.0198 -0.4546 -0.3454
 5099TIP3    H115261   4.081   1.381   4.417  0.1777  2.7275  1.4398
 5099TIP3    H215262   3.944   1.325   4.387  2.0754 -1.8516  0.3937
 5100TIP3   OH215263   0.500   0.699   5.763  0.7264 -0.4742 -0.1283
 5100TIP3    H115264   0.407   0.678   5.755  0.7552 -1.6908  2.0248
 5100TIP3    H215265   0.526   0.725   5.674 -1.1517 -2.1950 -1.2849
 5101TIP3   OH215266   3.077   4.614   5.895  0.5082  0.0025  0.5450
 5101TIP3    H115267   3.125   4.664   5.829  1.2817 -1.6300 -0.1981
 5101TIP3    H215268   2.985   4.631   5.877  0.7371  0.3854 -0.2960
 5102TIP3   OH215269   4.538   5.604   3.646 -0.2639  0.2737 -0.2968
 5102TIP3    H115270   4.516   5.589   3.738  1.3289 -0.1491  0.0353
 5102TIP3    H215271   4.489   5.536   3.598 -0.8656  0.3104  0.2548
 5103TIP3   OH215272   0.231   2.051   2.432  0.0612  0.2575  0.1850
 5103TIP3    H115273   0.260   2.021   2.346  0.7123  0.1886  0.4179
 5103TIP3    H215274   0.245   1.975   2.489  0.9519  0.7382  0.6216
 5104TIP3   OH215275   4.182   4.681   2.754 -0.4100  0.3273  0.5795
 5104TIP3    H115276   4.204   4.717   2.840 -0.5651  2.4822 -0.2210
 5104TIP3    H215277   4.259   4.630   2.729 -0.0241  0.3715  1.6351
 5105TIP3   OH215278   5.718   0.821   3.525  0.3999  0.0459 -0.6236
 5105TIP3    H115279   5.737   0.914   3.541  2.0163 -0.0467 -1.7781
 5105TIP3    H215280   5.713   0.814   3.430 -2.0994 -0.6665 -0.5239
 5106TIP3   OH215281   1.750   2.735   5.736 -0.1472  0.0083 -0.2826
 5106TIP3    H115282   1.806   2.665   5.702  1.4703  0.3318  1.5649
 5106TIP3    H215283   1.685   2.690   5.789  1.2709 -0.1347  1.4240
 5107TIP3   OH215284   1.247   5.360   3.560  0.2384 -0.2204 -0.3027
 5107TIP3    H115285   1.295   5.328   3.484 -1.0671  0.5972 -1.5218
 5107TIP3    H215286   1.283   5.448   3.576  0.3462 -0.2965 -0.1234
 5108TIP3   OH215287   6.812   4.629   1.700 -0.0338 -0.2232  0.3314
 5108TIP3    H115288   6.812   4.534   1.686 -0.1680 -0.3976  1.4554
 5108TIP3    H215289   6.769   4.641   1.785  0.7428  0.7885  0.5974
 5109TIP3   OH215290   3.343   1.403   0.542 -0.3661  0.1341 -0.6185
 5109TIP3    H115291   3.334   1.351   0.463  0.4337 -0.4136 -0.3626
 5109TIP3    H215292   3.410   1.468   0.521  0.3661 -0.4630 -0.1739
 5110TIP3   OH215293   3.845   6.364   1.585  0.1112  0.0314 -0.1440
 5110TIP3    H115294   3.820   6.373   1.677 -1.3021 -1.1756 -0.3644
 5110TIP3    H215295   3.867   6.452   1.557 -1.1370  0.7123  0.8957
 5111TIP3   OH215296   1.880   6.251   1.413 -0.3540  0.2511  0.1827
 5111TIP3    H115297   1.815   6.255   1.343 -0.9171 -0.3403  0.6612
 5111TIP3    H215298   1.842   6.303   1.484  0.0449  0.5415  0.1852
 5112TIP3   OH215299   4.049   3.607   2.011  0.0542 -0.4535  0.0442
 5112TIP3    H115300   4.092   3.557   2.080  0.0373  1.4328  1.4952
 5112TIP3    H215301   3.956   3.597   2.028 -0.0010 -1.2928 -0.6984
 5113TIP3   OH215302   5.126   4.754   3.354  0.0128  0.6637  0.6321
 5113TIP3    H115303   5.047   4.808   3.366 -1.0154  0.1845 -2.7507
 5113TIP3    H215304   5.093   4.664   3.352  0.8072  0.3750  0.3215
 5114TIP3   OH215305   0.703   6.382   0.908 -0.0079 -0.3434 -0.1310
 5114TIP3    H115306   0.685   6.396   0.815 -0.0232  1.5661  0.1013
 5114TIP3    H215307   0.769   6.448   0.929 -1.0764  0.2586  1.5214
 5115TIP3   OH215308   4.524   0.926   4.844  0.2284 -0.0685  0.2833
 5115TIP3    H115309   4.589   0.918   4.774  2.4845  1.1048  2.1161
 5115TIP3    H215310   4.448   0.966   4.802  0.7989 -1.0650 -1.8463
 5116TIP3   OH215311   1.357   4.230   1.332 -0.8620 -0.4688 -0.5396
 5116TIP3    H115312   1.339   4.136   1.338  1.1060 -0.8584 -0.1874
 5116TIP3    H215313   1.440   4.242   1.377 -1.3886  1.5713 -0.0095
 5117TIP3   OH215314   0.129   5.981   4.121  0.2541  0.0601 -0.2621
 5117TIP3    H115315   0.219   5.952   4.132  0.2272 -0.2933 -0.8728
 5117TIP3    H215316   0.117   5.986   4.026 -0.9132 -1.6971 -0.2725
 5118TIP3   OH215317   4.385   6.032   0.835 -0.0771  0.0680  0.3772
 5118TIP3    H115318   4.413   5.957   0.889  0.1185 -2.5613 -3.0115
 5118TIP3    H215319   4.458   6.094   0.841 -0.2168  0.1228  3.2526
 5119TIP3   OH215320   0.388   4.499   1.617 -0.0101  0.2849 -0.0742
 5119TIP3    H115321   0.457   4.506   1.684 -0.5965  1.9771  0.4052
 5119TIP3    H215322   0.328   4.434   1.653 -0.9674  2.0546  1.7309
 5120TIP3   OH215323   5.027   1.396   3.628  0.3246 -0.0534  0.3062
 5120TIP3    H115324   4.967   1.327   3.659  0.7100 -1.1455 -1.2468
 5120TIP3    H215325   4.970   1.471   3.611 -0.5089 -0.8029 -0.3226
 5121TIP3   OH215326   1.191   3.455   1.373  0.1601 -0.2416  0.1765
 5121TIP3    H115327   1.244   3.472   1.451 -0.9235  1.1484  0.6458
 5121TIP3    H215328   1.237   3.500   1.302  0.5105 -0.4931  0.2404
 5122TIP3   OH215329   6.429   2.840   1.365 -0.2725 -0.4010  0.4145
 5122TIP3    H115330   6.346   2.809   1.329 -1.0732  0.0073  1.8085
 5122TIP3    H215331   6.404   2.914   1.422  0.7817 -1.4717  2.3840
 5123TIP3   OH215332   4.420   4.042   5.405 -0.5295  0.5372  0.1425
 5123TIP3    H115333   4.342   4.090   5.432 -0.8508  0.9782 -1.4277
 5123TIP3    H215334   4.422   4.053   5.310  0.3244 -1.1860 -0.0668
 5124TIP3   OH215335   0.111   3.627   3.078  0.0435  0.5495 -0.0061
 5124TIP3    H115336   0.141   3.654   3.166  0.6889 -1.1526  0.3391
 5124TIP3    H215337   0.029   3.581   3.094 -0.2338  0.9011 -0.4003
 5125TIP3   OH215338   5.837   3.940   2.399  0.2561  0.3927  0.1100
 5125TIP3    H115339   5.760   3.971   2.352  0.0445 -0.0620  0.1491
 5125TIP3    H215340   5.897   3.910   2.330 -1.0081 -2.5173  0.1449
 5126TIP3   OH215341   1.210   2.332   1.126 -0.5000  0.3799 -0.5999
 5126TIP3    H115342   1.162   2.252   1.144 -1.1248  0.3523 -2.2234
 5126TIP3    H215343   1.248   2.357   1.210 -0.3120 -1.5937 -0.0529
 5127TIP3   OH215344   1.978   4.030   2.336  0.1397 -0.6524 -0.6358
 5127TIP3    H115345   1.901   3.986   2.301 -1.1056  1.8988 -1.3418
 5127TIP3    H215346   1.953   4.052   2.426  0.2648 -0.3404 -0.6766
 5128TIP3   OH215347   4.117   2.828   3.984 -0.3409  0.0723 -0.0806
 5128TIP3    H115348   4.087   2.737   3.977  0.3253 -0.1617  0.0475
 5128TIP3    H215349   4.066   2.863   4.058 -0.6878 -0.1580 -0.2054
 5129TIP3   OH215350   5.721   3.770   3.062  0.4643 -0.1617  0.5594
 5129TIP3    H115351   5.752   3.852   3.100 -0.8753  0.6030  0.0553
 5129TIP3    H215352   5.784   3.752   2.992  0.6389  0.5624  0.5182
 5130TIP3   OH215353   6.422   5.440   1.778  0.1525  0.5546 -0.0127
 5130TIP3    H115354   6.447   5.531   1.797 -1.7041  1.0384  0.3052
 5130TIP3    H215355   6.329   5.436   1.800 -0.0231 -1.1804 -0.9257
 5131TIP3   OH215356   1.661   6.250   4.962 -0.1376 -0.0930 -0.1576
 5131TIP3    H115357   1.742   6.276   5.005  0.8789  1.1629 -2.6204
 5131TIP3    H215358   1.686   6.178   4.904 -0.5538  0.8143 -1.5205
 5132TIP3   OH215359   3.130   4.560   3.573 -0.3480  0.2451  0.1755
 5132TIP3    H115360   3.177   4.480   3.549  0.2770  0.4947  0.5311
 5132TIP3    H215361   3.190   4.631   3.548  0.4193  0.5210  2.6021
 5133TIP3   OH215362   3.579   0.044   1.558  0.9006  0.1848 -0.4339
 5133TIP3    H115363   3.520   0.071   1.487  1.7718 -1.4380 -1.8731
 5133TIP3    H215364   3.666   0.067   1.526  1.3751 -1.3009 -0.2910
 5134TIP3   OH215365   3.910   3.723   3.795  0.8104  0.1976  0.3180
 5134TIP3    H115366   3.944   3.728   3.884  1.5316 -0.0920  0.0701
 5134TIP3    H215367   3.964   3.656   3.752  0.2965  0.1389 -0.2582
 5135TIP3   OH215368   1.350   6.245   4.922  0.3967  0.2632  0.6543
 5135TIP3    H115369   1.383   6.313   4.981 -0.3773  0.2850  1.0690
 5135TIP3    H215370   1.351   6.165   4.974 -0.4503  0.3142  0.7692
 5136TIP3   OH215371   0.404   2.096   3.221  0.4832  0.2580 -0.4908
 5136TIP3    H115372   0.369   2.014   3.255 -0.3770 -0.3485 -2.6777
 5136TIP3    H215373   0.476   2.069   3.163  0.0512  1.0143 -1.3978
 5137TIP3   OH215374   1.925   1.130   2.025  0.2717  0.4052  0.0643
 5137TIP3    H115375   1.849   1.097   1.978 -0.0421 -0.9764  1.4628
 5137TIP3    H215376   1.974   1.180   1.960 -1.2168  0.3355 -1.1605
 5138TIP3   OH215377   4.393   0.558   0.200 -0.3385  0.0467 -0.0207
 5138TIP3    H115378   4.459   0.626   0.186 -1.3513  0.6460 -2.5088
 5138TIP3    H215379   4.367   0.568   0.291 -0.0034  2.6238 -0.1266
 5139TIP3   OH215380   3.011   1.293   0.285  0.1775  0.0550  0.0242
 5139TIP3    H115381   2.941   1.279   0.350  0.9677 -2.6243  0.4066
 5139TIP3    H215382   3.045   1.205   0.267  2.6092  1.1462 -1.1106
 5140TIP3   OH215383   1.638   4.372   4.648  0.3915  0.0806  0.3431
 5140TIP3    H115384   1.602   4.459   4.635  0.9423  0.4253  1.0624
 5140TIP3    H215385   1.617   4.350   4.738  0.3106 -0.5089  0.1872
 5141TIP3   OH215386   6.438   1.461   3.533  0.0302  0.1902  0.2822
 5141TIP3    H115387   6.411   1.489   3.445 -1.9143 -1.4542  0.2925
 5141TIP3    H215388   6.356   1.452   3.582  0.8851 -1.4168  1.4855
 5142TIP3   OH215389   5.549   5.989   1.260 -0.2421  0.4423 -0.0245
 5142TIP3    H115390   5.520   5.922   1.322 -1.3793  0.8928 -0.0426
 5142TIP3    H215391   5.613   5.945   1.204  1.8174  0.3319  2.2295
 5143TIP3   OH215392   4.392   1.695   0.605 -0.3443  0.0145  0.0039
 5143TIP3    H115393   4.449   1.622   0.579  0.1147 -0.1377  1.3735
 5143TIP3    H215394   4.331   1.656   0.667  0.5152  0.9675  1.4999
 5144TIP3   OH215395   0.384   3.472   3.568  0.2995  0.2012  0.4246
 5144TIP3    H115396   0.433   3.405   3.615  0.8281 -1.1405 -1.8600
 5144TIP3    H215397   0.293   3.458   3.595  0.2455 -2.1974 -0.7169
 5145TIP3   OH215398   2.694   4.190   0.663 -0.0713 -0.8567 -0.6611
 5145TIP3    H115399   2.743   4.107   0.668 -0.5765 -1.1027  0.7168
 5145TIP3    H215400   2.753   4.250   0.618  0.7290 -1.6842 -0.7508
 5146TIP3   OH215401   2.459   5.234   5.571  0.1150  0.5738 -0.0376
 5146TIP3    H115402   2.409   5.283   5.506  0.6088 -0.0786 -0.9454
 5146TIP3    H215403   2.398   5.219   5.643 -0.6916  0.6469 -0.6944
 5147TIP3   OH215404   4.773   6.138   2.549  0.4630 -0.0434 -0.6168
 5147TIP3    H115405   4.807   6.139   2.638  1.2789 -2.1326 -0.8476
 5147TIP3    H215406   4.850   6.153   2.494  0.0981  0.4209 -1.0145
 5148TIP3   OH215407   3.197   6.740   0.460 -0.0803 -0.1258 -0.2238
 5148TIP3    H115408   3.263   6.778   0.402 -0.9030  1.6254 -0.0627
 5148TIP3    H215409   3.235   6.657   0.488  0.6900 -0.6339 -2.6036
 5149TIP3   OH215410   6.341   5.290   3.136 -0.1266  0.1877  0.5634
 5149TIP3    H115411   6.431   5.287   3.168  0.3681  1.6643 -0.5961
 5149TIP3    H215412   6.336   5.219   3.071 -0.2575 -0.8491  1.6782
 5150TIP3   OH215413   3.904   3.766   0.607 -0.5053 -0.7973 -0.0707
 5150TIP3    H115414   3.952   3.684   0.619  0.8235 -0.2845 -1.5540
 5150TIP3    H215415   3.831   3.743   0.549 -0.7614 -1.1131  0.3611
 5151TIP3   OH215416   0.708   1.120   3.648 -0.0305 -0.3705 -0.5798
 5151TIP3    H115417   0.657   1.200   3.664  0.0546 -0.2976 -0.6691
 5151TIP3    H215418   0.799   1.147   3.659  0.0368 -0.2922 -1.2757
 5152TIP3   OH215419   2.718   1.490   4.703  0.6931  0.1783  0.3116
 5152TIP3    H115420   2.704   1.578   4.739 -2.0487  0.3477 -0.9634
 5152TIP3    H215421   2.703   1.432   4.778 -1.7213  0.6716  0.3029
 5153TIP3   OH215422   5.608   4.003   2.240  0.0209 -0.2337 -0.2041
 5153TIP3    H115423   5.587   3.914   2.269 -1.6170  0.3166  0.4143
 5153TIP3    H215424   5.531   4.030   2.189  0.7123  0.6626 -0.8060
 5154TIP3   OH215425   1.941   4.783   4.009 -0.6390  0.0987 -0.0545
 5154TIP3    H115426   2.001   4.855   4.026 -0.9174  0.1086  0.9091
 5154TIP3    H215427   1.989   4.726   3.949 -0.0098  0.5519  0.0072
 5155TIP3   OH215428   6.549   1.031   4.931  0.9751  0.7271  0.1466
 5155TIP3    H115429   6.526   0.951   4.884  0.8059  0.1911  1.1170
 5155TIP3    H215430   6.627   1.008   4.981  2.6129  2.0030 -1.7044
 5156TIP3   OH215431   4.682   2.777   5.228 -0.4190  0.0349 -0.2676
 5156TIP3    H115432   4.722   2.784   5.314 -0.1786 -0.3758 -0.3440
 5156TIP3    H215433   4.752   2.743   5.172 -0.2902  1.1654 -0.8287
 5157TIP3   OH215434   3.087   1.797   3.560  0.0760 -0.4968  0.1549
 5157TIP3    H115435   3.043   1.799   3.646  0.4744 -0.3656  0.3567
 5157TIP3    H215436   3.076   1.885   3.526  0.9169 -0.2262  0.5787
 5158TIP3   OH215437   1.345   0.102   1.721  0.0459  0.0457 -0.2731
 5158TIP3    H115438   1.382   0.054   1.795 -1.4131 -1.2929 -0.3486
 5158TIP3    H215439   1.252   0.076   1.719 -0.1233  0.5930 -2.1362
 5159TIP3   OH215440   1.281   1.698   2.239  0.1296 -0.2614  0.2196
 5159TIP3    H115441   1.251   1.739   2.158 -1.0082  1.3881  1.4200
 5159TIP3    H215442   1.203   1.692   2.293  1.2458  0.7615  2.0513
 5160TIP3   OH215443   5.977   3.159   2.003  0.0367 -0.7284  0.4712
 5160TIP3    H115444   6.032   3.121   2.071  1.7006 -2.0775 -1.4755
 5160TIP3    H215445   5.960   3.085   1.943 -0.9709  0.4712 -0.7798
 5161TIP3   OH215446   1.251   0.092   0.189  0.1134  0.4226  0.0972
 5161TIP3    H115447   1.209   0.147   0.255 -0.2220  1.2915 -0.8114
 5161TIP3    H215448   1.187   0.024   0.170 -0.3357  0.9588 -0.3094
 5162TIP3   OH215449   3.156   5.770   3.480 -0.0874 -0.3158  0.5312
 5162TIP3    H115450   3.164   5.859   3.513  0.5709  0.2868 -1.1613
 5162TIP3    H215451   3.062   5.750   3.486 -0.3731  0.8358  0.0639
 5163TIP3   OH215452   4.903   0.891   3.194  0.2317 -0.1689  0.4585
 5163TIP3    H115453   4.898   0.861   3.103 -1.4309 -1.6292  0.9765
 5163TIP3    H215454   4.932   0.814   3.243  0.1467  0.3217  1.2861
 5164TIP3   OH215455   5.724   5.030   4.781 -0.3594  0.1946  0.5163
 5164TIP3    H115456   5.693   4.988   4.701 -0.3700  0.7334  0.2316
 5164TIP3    H215457   5.818   5.014   4.782 -0.6556 -1.7932  1.5887
 5165TIP3   OH215458   0.388   6.359   4.133 -0.2321  0.2055 -0.3506
 5165TIP3    H115459   0.363   6.338   4.223 -2.2333  1.6449 -0.4973
 5165TIP3    H215460   0.374   6.277   4.085  1.0497 -0.6313  0.6498
 5166TIP3   OH215461   1.972   3.353   5.354  0.3688 -0.4119 -0.3494
 5166TIP3    H115462   2.039   3.299   5.394  0.5253 -0.0428 -0.1003
 5166TIP3    H215463   1.904   3.292   5.326  1.1491 -0.8650 -1.3126
 5167TIP3   OH215464   5.357   2.529   3.222  0.3683  0.2541  0.3572
 5167TIP3    H115465   5.298   2.604   3.231  1.0644  0.7670  0.7966
 5167TIP3    H215466   5.299   2.453   3.222 -0.3094  0.7542  0.5060
 5168TIP3   OH215467   0.810   6.519   5.614 -0.5136 -0.4370  0.4437
 5168TIP3    H115468   0.896   6.559   5.622 -0.4006 -0.5505 -0.1476
 5168TIP3    H215469   0.828   6.425   5.614 -0.5094 -0.4602 -0.8433
 5169TIP3   OH215470   3.054   0.187   2.733 -0.1325 -0.2142 -0.2924
 5169TIP3    H115471   3.146   0.211   2.738  0.3480 -2.0266  0.3358
 5169TIP3    H215472   3.048   0.127   2.659 -0.9077  0.2212 -0.6005
 5170TIP3   OH215473   5.078   2.955   1.510 -0.6085  0.1949  0.8909
 5170TIP3    H115474   5.075   2.859   1.513 -0.5453  0.1575  0.1142
 5170TIP3    H215475   4.988   2.981   1.489 -0.2894  0.2011 -0.6044
 5171TIP3   OH215476   4.118   0.132   1.394 -0.0442 -0.6978 -0.4224
 5171TIP3    H115477   4.094   0.166   1.480  1.3396 -0.5005 -0.0995
 5171TIP3    H215478   4.101   0.205   1.334  0.3506 -0.3387 -0.1061
 5172TIP3   OH215479   5.118   5.100   1.826 -0.4360 -0.0390  0.0744
 5172TIP3    H115480   5.176   5.076   1.753 -0.6003 -1.3729  0.3651
 5172TIP3    H215481   5.163   5.066   1.903 -0.9561  0.1243  0.4469
 5173TIP3   OH215482   2.464   6.219   3.537  0.3839  0.1209 -0.1552
 5173TIP3    H115483   2.509   6.168   3.605  0.8780  0.9821  0.1794
 5173TIP3    H215484   2.372   6.217   3.563  0.4948 -0.0143  0.2434
 5174TIP3   OH215485   6.619   6.547   5.406 -0.2297  0.3923  0.2233
 5174TIP3    H115486   6.674   6.532   5.330 -2.5567 -0.3341 -1.4206
 5174TIP3    H215487   6.620   6.464   5.454 -0.4956  0.1369 -0.2137
 5175TIP3   OH215488   4.356   3.648   3.799  0.6464  0.0078  0.7086
 5175TIP3    H115489   4.356   3.743   3.787  1.0103 -0.0512  0.2481
 5175TIP3    H215490   4.287   3.633   3.864  1.5392  0.7228  1.8604
 5176TIP3   OH215491   1.358   5.200   2.114 -0.1042 -0.1856  0.5591
 5176TIP3    H115492   1.375   5.286   2.076  0.7604  0.2463  1.8434
 5176TIP3    H215493   1.363   5.139   2.040  1.1973  0.6510 -0.0781
 5177TIP3   OH215494   2.646   3.140   1.599  0.0522 -0.1684  0.1546
 5177TIP3    H115495   2.724   3.155   1.652 -0.4513  0.2767  0.7907
 5177TIP3    H215496   2.662   3.056   1.556  0.1882 -0.9112  1.5615
 5178TIP3   OH215497   3.494   4.737   0.644  0.0855 -0.5597  0.3362
 5178TIP3    H115498   3.459   4.795   0.711 -0.7886  0.6145 -1.0585
 5178TIP3    H215499   3.587   4.729   0.665  0.5982  2.5855 -0.1753
 5179TIP3   OH215500   5.902   1.344   0.928 -1.0217  0.7583  0.2019
 5179TIP3    H115501   5.974   1.282   0.913 -0.9276  1.0131 -0.4332
 5179TIP3    H215502   5.929   1.393   1.006 -1.1527 -0.0682  0.7839
 5180TIP3   OH215503   4.957   4.434   2.794 -0.8581 -0.0459  0.1104
 5180TIP3    H115504   4.872   4.416   2.753  0.0269  1.2890 -2.5473
 5180TIP3    H215505   5.020   4.383   2.742  0.5088  2.9687 -1.4319
 5181TIP3   OH215506   3.533   4.797   4.787 -0.8392 -0.8156  0.5849
 5181TIP3    H115507   3.595   4.724   4.781 -0.7426 -0.7331  0.5733
 5181TIP3    H215508   3.509   4.800   4.880 -0.9159 -0.9222  0.5685
 5182TIP3   OH215509   0.224   4.555   1.342  0.0556  0.6187  0.5603
 5182TIP3    H115510   0.257   4.526   1.257  0.0234 -1.3593  1.1547
 5182TIP3    H215511   0.303   4.574   1.393  0.1680 -0.2811  0.7400
 5183TIP3   OH215512   1.926   3.315   3.053 -0.0895  0.1115 -0.3671
 5183TIP3    H115513   1.948   3.405   3.030 -0.1700  0.1494 -0.2937
 5183TIP3    H215514   1.838   3.302   3.018  0.8204 -0.7140 -2.5971
 5184TIP3   OH215515   6.577   3.288   0.287  0.5256  0.0673  0.0950
 5184TIP3    H115516   6.643   3.322   0.227  0.2575  1.8041  0.7441
 5184TIP3    H215517   6.498   3.282   0.235  0.4674  0.8941  0.0820
 5185TIP3   OH215518   3.927   6.615   4.622  0.4388  0.2088  0.2783
 5185TIP3    H115519   3.892   6.558   4.554 -1.3298  0.0080  1.2985
 5185TIP3    H215520   3.982   6.558   4.675 -3.4438 -1.4800  2.9479
 5186TIP3   OH215521   2.457   1.951   3.710 -0.4403 -0.2823  0.1009
 5186TIP3    H115522   2.384   1.959   3.772  0.0367  0.5826  0.5690
 5186TIP3    H215523   2.471   1.857   3.702 -1.8092 -0.4834 -0.2531
 5187TIP3   OH215524   6.963   4.788   0.456 -0.0649  0.0803  0.0758
 5187TIP3    H115525   6.912   4.855   0.500 -1.2222 -0.8560  0.1976
 5187TIP3    H215526   6.899   4.732   0.413  0.9476 -0.1401 -1.2166
 5188TIP3   OH215527   4.846   2.461   3.034  0.6021 -0.1926 -0.7324
 5188TIP3    H115528   4.757   2.431   3.052  0.4896 -1.2738 -2.7540
 5188TIP3    H215529   4.837   2.518   2.957  1.5446  0.4385 -0.3895
 5189TIP3   OH215530   1.097   3.635   0.407  0.0846 -0.0944  0.1773
 5189TIP3    H115531   1.167   3.576   0.439 -2.9422 -4.7861 -0.8072
 5189TIP3    H215532   1.110   3.638   0.313 -0.9986 -1.1419 -0.0334
 5190TIP3   OH215533   3.572   2.960   2.831  0.4840  0.7086  0.3758
 5190TIP3    H115534   3.495   3.009   2.801 -1.1442 -2.4168 -1.0134
 5190TIP3    H215535   3.556   2.946   2.925 -0.9266 -0.2429  0.0288
 5191TIP3   OH215536   5.198   5.118   2.754  0.1483 -0.1326  0.3190
 5191TIP3    H115537   5.215   5.040   2.806  1.2523 -0.3105 -0.2808
 5191TIP3    H215538   5.106   5.139   2.771 -0.0006 -1.2270  0.9283
 5192TIP3   OH215539   0.201   1.645   2.478  0.1746 -0.2945  0.2371
 5192TIP3    H115540   0.230   1.586   2.548  1.7119 -0.9230 -0.8683
 5192TIP3    H215541   0.122   1.605   2.443  0.2362 -0.7688  0.6335
 5193TIP3   OH215542   5.161   1.542   3.840  0.3393 -0.0919  0.2400
 5193TIP3    H115543   5.128   1.630   3.819  0.5793 -0.0935 -0.1568
 5193TIP3    H215544   5.132   1.488   3.766  2.8670  0.2901 -1.1660
 5194TIP3   OH215545   5.860   5.972   4.981 -0.0965 -0.1643  0.0074
 5194TIP3    H115546   5.778   6.019   4.968  1.1104  1.8987 -0.5334
 5194TIP3    H215547   5.872   5.922   4.900 -0.2954  0.3599 -0.3515
 5195TIP3   OH215548   3.933   3.051   2.099 -0.0606  0.2076  0.0894
 5195TIP3    H115549   3.995   3.098   2.155 -1.3227 -0.3603  2.0784
 5195TIP3    H215550   3.948   2.959   2.119  0.4225 -0.1041 -1.6162
 5196TIP3   OH215551   4.760   3.585   4.180  0.0144 -0.4390 -0.1487
 5196TIP3    H115552   4.701   3.575   4.255 -0.8824 -0.1307 -0.7896
 5196TIP3    H215553   4.712   3.547   4.107  0.1870  0.7133 -0.8892
 5197TIP3   OH215554   3.549   2.540   5.641 -0.0393  0.2996 -0.2520
 5197TIP3    H115555   3.560   2.470   5.576  0.3876  1.1154 -1.0809
 5197TIP3    H215556   3.466   2.581   5.618  0.7392  1.4273 -1.1165
 5198TIP3   OH215557   0.864   6.500   2.589  0.0173 -0.1198  0.2175
 5198TIP3    H115558   0.772   6.497   2.616 -0.6275  0.7742 -1.6534
 5198TIP3    H215559   0.861   6.472   2.497  1.8647 -1.6843  0.5705
 5199TIP3   OH215560   2.771   2.720   2.735  0.6650  0.1071 -0.0624
 5199TIP3    H115561   2.763   2.717   2.640  0.3830  0.3746 -0.0491
 5199TIP3    H215562   2.798   2.632   2.760 -1.5695 -0.6659 -0.1620
 5200TIP3   OH215563   5.021   6.013   3.569 -0.7348 -0.0776 -0.0062
 5200TIP3    H115564   5.089   5.945   3.573 -1.2007 -0.6042 -0.7132
 5200TIP3    H215565   5.019   6.050   3.657  1.6827  1.1897 -0.3977
 5201TIP3   OH215566   3.156   4.992   4.273  0.3957  0.5536  0.2219
 5201TIP3    H115567   3.114   5.048   4.339  1.2978  2.3903 -0.6958
 5201TIP3    H215568   3.082   4.959   4.221 -0.1374  1.2167  0.5325
 5202TIP3   OH215569   2.535   1.883   1.070 -0.3238 -0.1336 -0.2094
 5202TIP3    H115570   2.469   1.888   1.001  0.2517  1.1634 -0.6957
 5202TIP3    H215571   2.601   1.824   1.035  0.3595  1.1362 -1.1585
 5203TIP3   OH215572   4.387   3.767   1.704  0.3848  0.0051 -0.0465
 5203TIP3    H115573   4.305   3.798   1.742  0.3052  1.5402 -1.3638
 5203TIP3    H215574   4.455   3.793   1.766 -0.0287 -0.4379  0.5986
 5204TIP3   OH215575   6.737   5.999   4.566  1.0380 -0.6485  0.5351
 5204TIP3    H115576   6.769   6.070   4.622  0.4282 -1.3350  1.8056
 5204TIP3    H215577   6.792   5.924   4.589  0.5363 -1.0347  0.4923
 5205TIP3   OH215578   2.310   5.016   1.341 -0.2187  0.1709 -0.0069
 5205TIP3    H115579   2.266   4.932   1.354 -1.1676  0.4118 -1.5201
 5205TIP3    H215580   2.288   5.067   1.419 -0.1254 -0.7565  0.6453
 5206TIP3   OH215581   5.972   1.785   3.981 -0.6452  0.2382 -0.5119
 5206TIP3    H115582   6.028   1.820   4.051 -1.0686  0.3263 -0.2086
 5206TIP3    H215583   5.930   1.862   3.943 -1.6290  0.0724  0.2004
 5207TIP3   OH215584   1.209   3.252   1.024 -0.0986 -0.3792  0.7811
 5207TIP3    H115585   1.274   3.183   1.034  1.6108  0.9299 -0.5071
 5207TIP3    H215586   1.212   3.300   1.106  1.8286  0.6175  0.1987
 5208TIP3   OH215587   1.713   4.095   3.437  0.1090  0.0343  0.1683
 5208TIP3    H115588   1.644   4.153   3.406 -0.4921  0.0739  1.4748
 5208TIP3    H215589   1.723   4.118   3.530  0.3108 -1.4989  0.5499
 5209TIP3   OH215590   5.637   3.505   2.811  0.4850 -0.4666  0.4456
 5209TIP3    H115591   5.724   3.543   2.820  0.8720 -1.0703 -0.5825
 5209TIP3    H215592   5.652   3.411   2.801 -0.1864 -0.4422 -0.9918
 5210TIP3   OH215593   7.188   1.011   4.151  0.0673  0.0788  0.2919
 5210TIP3    H115594   7.115   0.949   4.156  0.3603 -0.3084 -0.0967
 5210TIP3    H215595   7.222   1.000   4.062  0.4045  0.4740  0.3714
 5211TIP3   OH215596   2.912   0.511   0.560  0.0777 -0.1170  0.4608
 5211TIP3    H115597   2.841   0.528   0.498  0.0961 -0.3189  0.3827
 5211TIP3    H215598   2.871   0.515   0.646  0.3668  1.8287  0.5386
 5212TIP3   OH215599   1.325   0.793   4.090 -0.3122 -0.4130  0.6318
 5212TIP3    H115600   1.340   0.744   4.170 -2.4209 -3.5571 -0.6839
 5212TIP3    H215601   1.388   0.758   4.027  1.3936  2.0898  0.7819
 5213TIP3   OH215602   7.071   3.915   5.859 -0.4115  0.5926  0.0252
 5213TIP3    H115603   6.985   3.953   5.842 -0.5147 -0.2377 -1.4621
 5213TIP3    H215604   7.129   3.959   5.796 -0.0919 -0.0527 -0.1386
 5214TIP3   OH215605   2.218   5.923   3.035 -0.3217 -0.5144  0.1963
 5214TIP3    H115606   2.258   5.836   3.033 -0.3831 -0.5431 -2.0024
 5214TIP3    H215607   2.136   5.910   3.083 -1.7066 -2.3719 -2.4310
 5215TIP3   OH215608   1.652   1.107   3.841 -0.3848  0.2724  0.1501
 5215TIP3    H115609   1.610   1.181   3.797 -2.1913 -0.0584  1.2175
 5215TIP3    H215610   1.591   1.034   3.829 -0.5645 -0.0335  2.4738
 5216TIP3   OH215611   4.887   5.970   5.892  0.0041  0.2048 -0.9763
 5216TIP3    H115612   4.932   5.910   5.832  1.2865  1.5855 -1.4518
 5216TIP3    H215613   4.830   6.022   5.835 -0.1345  0.2952 -0.7529
 5217TIP3   OH215614   5.649   0.362   0.708  0.0811  0.0550 -0.3312
 5217TIP3    H115615   5.573   0.332   0.757 -0.1882 -0.4182 -1.0237
 5217TIP3    H215616   5.622   0.448   0.674  1.2821  1.7817  2.6516
 5218TIP3   OH215617   1.022   1.378   0.361  0.0948  0.0612  0.1146
 5218TIP3    H115618   0.993   1.356   0.450  0.7144 -0.8021  0.1158
 5218TIP3    H215619   0.967   1.323   0.304  0.8078 -0.6096  0.0556
 5219TIP3   OH215620   3.495   2.872   1.714  0.7951  0.2905 -0.1815
 5219TIP3    H115621   3.540   2.936   1.769  0.7542  0.6842 -0.5924
 5219TIP3    H215622   3.565   2.822   1.672  0.8212 -0.2735  0.5237
 5220TIP3   OH215623   4.365   3.855   0.852  0.0687 -0.0900  0.7790
 5220TIP3    H115624   4.388   3.769   0.818 -2.2488 -0.2080 -0.6787
 5220TIP3    H215625   4.410   3.917   0.794 -1.1444 -0.3296 -0.4571
 5221TIP3   OH215626   2.285   5.671   0.653  0.4105 -0.2637  0.0298
 5221TIP3    H115627   2.266   5.659   0.560 -0.2717 -0.9660  0.2509
 5221TIP3    H215628   2.209   5.633   0.698 -0.1394  1.6720  0.8420
 5222TIP3   OH215629   3.895   6.511   0.123 -0.2280 -0.2865 -0.2492
 5222TIP3    H115630   3.909   6.514   0.217 -2.9691  0.7294  0.2079
 5222TIP3    H215631   3.937   6.590   0.089  1.9208 -1.3166 -0.1361
 5223TIP3   OH215632   0.682   4.718   3.781  0.1890 -0.1617  0.3176
 5223TIP3    H115633   0.630   4.761   3.713 -1.6774 -0.7078  1.3182
 5223TIP3    H215634   0.630   4.640   3.804  0.5916  0.1731  2.5684
 5224TIP3   OH215635  -0.019   4.413   2.745 -0.2010  0.1086 -0.2592
 5224TIP3    H115636   0.071   4.444   2.730 -0.4787  1.2103  0.2504
 5224TIP3    H215637  -0.030   4.341   2.684  2.7853 -3.6475  3.0389
 5225TIP3   OH215638   0.759   0.943   5.855  0.3544 -0.1245 -0.4525
 5225TIP3    H115639   0.785   0.990   5.776  0.5593 -1.6730 -1.3393
 5225TIP3    H215640   0.819   0.869   5.860 -0.7414 -0.9981  0.2215
 5226TIP3   OH215641   0.690   4.770   3.103 -0.1780  0.2127 -0.5084
 5226TIP3    H115642   0.724   4.849   3.063  0.3196  0.5392  0.5307
 5226TIP3    H215643   0.761   4.706   3.095  1.2507  1.2101  2.6383
 5227TIP3   OH215644   3.763   2.257   4.478 -0.3472  0.0518 -0.4782
 5227TIP3    H115645   3.843   2.269   4.428  0.3421 -0.6232  0.4438
 5227TIP3    H215646   3.789   2.270   4.570 -0.6575 -2.8193  0.1194
 5228TIP3   OH215647   5.272   5.464   1.403 -0.2479 -0.0310 -0.4562
 5228TIP3    H115648   5.245   5.418   1.323 -1.5147  0.3948 -0.2965
 5228TIP3    H215649   5.345   5.518   1.376  0.4464 -1.1681 -0.9398
 5229TIP3   OH215650   3.166   1.835   3.931  0.2480 -0.1700 -0.4811
 5229TIP3    H115651   3.080   1.877   3.941  0.2150 -0.1300 -0.9395
 5229TIP3    H215652   3.156   1.751   3.975  0.0540 -0.0562 -0.3024
 5230TIP3   OH215653   1.393   6.141   0.700 -0.0313  0.1608  0.0932
 5230TIP3    H115654   1.297   6.140   0.702 -0.1092  1.4550 -1.7202
 5230TIP3    H215655   1.416   6.233   0.691  1.3082 -0.2836 -1.4098
 5231TIP3   OH215656   5.040   5.136   5.464 -0.3345  0.1219  0.8004
 5231TIP3    H115657   5.125   5.154   5.503 -0.8431  1.9038  1.1774
 5231TIP3    H215658   4.981   5.127   5.538 -0.4536 -1.4329  0.5536
 5232TIP3   OH215659   5.457   1.343   0.899  0.4647  0.0878  0.3270
 5232TIP3    H115660   5.548   1.365   0.881  0.7328  0.3520  1.8843
 5232TIP3    H215661   5.436   1.389   0.981 -1.8041  2.0151 -1.1973
 5233TIP3   OH215662   1.548   5.508   3.118  0.0580  0.0436  0.1025
 5233TIP3    H115663   1.603   5.472   3.049 -1.1878 -0.2122 -0.8069
 5233TIP3    H215664   1.497   5.433   3.150 -1.2527  0.6106 -0.5547
 5234TIP3   OH215665   3.971   0.464   4.244 -0.2910 -0.0135 -0.4255
 5234TIP3    H115666   3.935   0.403   4.308 -0.5546  0.7296  0.1465
 5234TIP3    H215667   3.929   0.548   4.264  0.9931  0.6466 -0.3836
 5235TIP3   OH215668   7.004   4.290   1.723 -0.2658  0.1941 -0.3458
 5235TIP3    H115669   7.020   4.196   1.710 -0.8893 -0.1383  1.1164
 5235TIP3    H215670   7.091   4.328   1.734 -0.0430 -0.3030 -0.3727
 5236TIP3   OH215671   0.594   0.335   1.509  0.2373  0.5115 -0.4246
 5236TIP3    H115672   0.628   0.246   1.503 -0.9262  0.1303 -2.6123
 5236TIP3    H215673   0.516   0.327   1.564  0.0973  0.1426 -0.6677
 5237TIP3   OH215674   1.021   3.359   2.513 -0.1318 -0.1771 -0.0119
 5237TIP3    H115675   1.110   3.376   2.542  0.0092 -0.1334 -0.4616
 5237TIP3    H215676   0.995   3.279   2.559 -0.3275  0.5195  1.1040
 5238TIP3   OH215677   5.509   2.425   1.501  0.5207  0.2399  0.4032
 5238TIP3    H115678   5.441   2.405   1.436  0.3622  0.7074  0.4182
 5238TIP3    H215679   5.473   2.394   1.584  0.8489 -0.6281  0.2276
 5239TIP3   OH215680   5.816   1.996   0.672  0.0197  0.4705 -0.4559
 5239TIP3    H115681   5.855   2.032   0.593  0.3766 -0.1938 -0.5958
 5239TIP3    H215682   5.726   1.975   0.648  0.7008 -1.7335 -1.3812
 5240TIP3   OH215683   5.290   6.020   1.823 -0.1280 -0.3457 -0.0022
 5240TIP3    H115684   5.228   6.001   1.892  0.3169  1.2182  0.8756
 5240TIP3    H215685   5.375   5.992   1.858  0.3239  1.7569  0.7529
 5241TIP3   OH215686   6.520   5.766   0.330 -0.7163  0.6657 -0.0384
 5241TIP3    H115687   6.464   5.689   0.321 -0.7379  0.7452 -0.6458
 5241TIP3    H215688   6.459   5.840   0.331 -0.8714  0.6099  2.5896
 5242TIP3   OH215689   1.061   0.258   5.541  0.5671  0.4032  0.2810
 5242TIP3    H115690   0.993   0.191   5.532  0.8263  0.0024  1.2245
 5242TIP3    H215691   1.026   0.320   5.604  1.4547 -0.3204  1.5223
 5243TIP3   OH215692   4.710   1.974   0.585  0.7703 -0.6945  0.1877
 5243TIP3    H115693   4.703   2.060   0.544 -2.8456 -0.4102  1.1489
 5243TIP3    H215694   4.710   1.913   0.512  0.2349  0.0173 -0.4214
 5244TIP3   OH215695   2.784   2.904   4.713 -0.0988 -0.5135 -0.5705
 5244TIP3    H115696   2.693   2.913   4.740  0.3348 -2.1551  1.6662
 5244TIP3    H215697   2.780   2.846   4.636 -0.9284 -0.5477 -0.5116
 5245TIP3   OH215698   3.771   2.236   3.793  0.0954 -0.5706  0.1501
 5245TIP3    H115699   3.863   2.233   3.769  0.2517 -2.4734  0.8340
 5245TIP3    H215700   3.769   2.210   3.885 -1.1425 -1.0506  0.0140
 5246TIP3   OH215701   0.422   5.216   4.140  0.8046  0.4389 -0.3208
 5246TIP3    H115702   0.410   5.282   4.208 -0.1756  0.3193 -0.3599
 5246TIP3    H215703   0.474   5.147   4.181 -0.6942 -0.1473  0.6745
 5247TIP3   OH215704   2.718   2.399   1.464  0.6540 -0.7421  0.5413
 5247TIP3    H115705   2.695   2.312   1.497 -0.0018 -1.3487 -1.3560
 5247TIP3    H215706   2.700   2.394   1.370 -1.3921  2.0735  0.6691
 5248TIP3   OH215707   4.473   2.035   3.708 -0.3287  0.4995 -0.0025
 5248TIP3    H115708   4.566   2.016   3.714 -0.6012 -0.9574  0.0731
 5248TIP3    H215709   4.444   1.993   3.627 -0.4558  3.1673 -1.4144
 5249TIP3   OH215710   6.193   2.226   0.863  0.2718  0.1710 -0.1646
 5249TIP3    H115711   6.208   2.253   0.954  1.7408 -1.3231  0.0781
 5249TIP3    H215712   6.211   2.132   0.862  3.1780  0.6086 -2.5201
 5250TIP3   OH215713   6.719   2.326   5.472  0.5701 -0.0412  0.0673
 5250TIP3    H115714   6.706   2.237   5.505 -2.8765  0.7432  1.2102
 5250TIP3    H215715   6.736   2.379   5.550  1.9683  0.4665 -0.5367
 5251TIP3   OH215716   2.847   3.228   4.231 -0.3101  0.1252 -0.7063
 5251TIP3    H115717   2.940   3.245   4.218  0.1122 -1.9479 -0.7844
 5251TIP3    H215718   2.811   3.221   4.143 -1.3895  4.4998 -0.7996
 5252TIP3   OH215719   0.968   6.248   3.824 -0.2021  0.1019 -0.2721
 5252TIP3    H115720   1.040   6.293   3.867 -1.3777  1.7276  0.1041
 5252TIP3    H215721   0.995   6.239   3.733  0.4184  0.7855 -0.1615
 5253TIP3   OH215722   3.779   0.236   2.288  0.3113  0.2979 -0.3910
 5253TIP3    H115723   3.829   0.219   2.368  0.9864 -0.4305 -0.9440
 5253TIP3    H215724   3.748   0.150   2.260  1.0890  0.3582 -1.5324
 5254TIP3   OH215725   6.825   2.158   1.272 -0.3135  0.0213 -0.3620
 5254TIP3    H115726   6.789   2.174   1.359  0.4729  0.1685 -0.0574
 5254TIP3    H215727   6.763   2.096   1.231 -1.3706  0.9180 -0.1745
 5255TIP3   OH215728   6.904   1.678   5.372 -0.3682 -0.0931  0.0989
 5255TIP3    H115729   6.867   1.604   5.324  1.6305 -0.7293 -0.5799
 5255TIP3    H215730   6.987   1.697   5.327 -0.2166  1.7284  1.0512
 5256TIP3   OH215731   3.264   6.710   3.954  0.2833 -0.1583  0.0075
 5256TIP3    H115732   3.359   6.723   3.962  0.3275 -1.1229  1.3452
 5256TIP3    H215733   3.231   6.722   4.043 -0.9666  0.8697 -0.5633
 5257TIP3   OH215734   4.299   6.004   1.408 -0.6971  0.0424 -0.1327
 5257TIP3    H115735   4.358   6.016   1.482 -0.5902 -0.7718 -0.0735
 5257TIP3    H215736   4.350   6.029   1.331 -0.2226 -0.7743 -0.0950
 5258TIP3   OH215737   6.657   2.081   5.541  0.1139 -0.2537  0.5398
 5258TIP3    H115738   6.585   2.073   5.605  1.9402 -2.4646  2.5136
 5258TIP3    H215739   6.636   2.016   5.474 -1.4385  1.5632 -0.8269
 5259TIP3   OH215740   0.340   5.358   1.144  0.2202 -0.0728  0.5248
 5259TIP3    H115741   0.301   5.401   1.220 -0.5483  1.4672 -0.6792
 5259TIP3    H215742   0.395   5.426   1.103  0.8575 -0.9558 -0.1258
 5260TIP3   OH215743   6.833   5.624   3.020 -0.4592  0.3517 -0.3317
 5260TIP3    H115744   6.760   5.575   2.982 -1.9567  1.5892  0.7957
 5260TIP3    H215745   6.906   5.608   2.961 -1.7801 -0.5180 -1.8119
 5261TIP3   OH215746   6.309   1.406   4.689 -0.0129 -0.3461 -0.3520
 5261TIP3    H115747   6.342   1.469   4.625 -0.5152  1.2654  0.9042
 5261TIP3    H215748   6.388   1.370   4.729  0.3259  1.2627  0.5399
 5262TIP3   OH215749   0.723   3.362   0.161 -0.2950 -0.2912 -0.1771
 5262TIP3    H115750   0.788   3.306   0.118  1.4504  2.4259 -1.3625
 5262TIP3    H215751   0.772   3.408   0.229 -0.9908  1.5439 -0.8410
 5263TIP3   OH215752   5.970   1.767   5.613  0.0559  0.0078 -0.7881
 5263TIP3    H115753   5.982   1.684   5.568  3.9697  0.4240 -0.8028
 5263TIP3    H215754   6.023   1.760   5.693 -2.1801  1.3510  0.9519
 5264TIP3   OH215755   5.843   4.763   2.379  0.2630  0.1712  0.6872
 5264TIP3    H115756   5.853   4.857   2.394  0.0968  0.4826 -0.9292
 5264TIP3    H215757   5.914   4.740   2.319 -0.0801 -0.6038  0.5619
 5265TIP3   OH215758   0.539   1.900   0.594  0.4576 -0.1054 -0.2537
 5265TIP3    H115759   0.594   1.956   0.649 -1.2353 -0.7367  2.2950
 5265TIP3    H215760   0.491   1.960   0.537  3.0070  0.5001 -1.9110
 5266TIP3   OH215761   3.442   6.552   1.001  0.0929  0.2771  0.0730
 5266TIP3    H115762   3.423   6.501   1.080  1.2989  1.7936  1.4069
 5266TIP3    H215763   3.359   6.595   0.980  0.1920  1.3905  1.7341
 5267TIP3   OH215764   3.039   4.182   0.931  0.6295  0.2045  0.4914
 5267TIP3    H115765   3.118   4.148   0.889 -0.1275  0.2891 -1.0702
 5267TIP3    H215766   3.003   4.244   0.867 -0.9597 -0.1907  0.9684
 5268TIP3   OH215767   0.114   0.821   1.520 -0.2160 -0.7579  0.0065
 5268TIP3    H115768   0.107   0.909   1.484 -0.4607 -0.2483  1.2569
 5268TIP3    H215769   0.157   0.771   1.451 -0.0113  0.3477 -0.7009
 5269TIP3   OH215770   4.671   0.828   1.815 -0.0072 -0.4826  1.0155
 5269TIP3    H115771   4.632   0.873   1.890 -1.4994  0.6219 -0.3526
 5269TIP3    H215772   4.622   0.746   1.808  1.1368 -1.3000  2.0924
 5270TIP3   OH215773   1.211   4.427   4.675 -0.5305 -0.1975  0.0754
 5270TIP3    H115774   1.252   4.468   4.751 -0.5579  1.7732 -0.9023
 5270TIP3    H215775   1.123   4.464   4.673 -1.0285 -1.3440 -0.1192
 5271TIP3   OH215776   6.109   3.924   4.089  0.8350 -0.1478 -0.0277
 5271TIP3    H115777   6.106   3.952   3.998  0.5899 -0.2157 -0.0407
 5271TIP3    H215778   6.018   3.913   4.114  0.9277 -1.1127 -0.0765
 5272TIP3   OH215779   4.769   5.109   3.358 -0.1809  0.7866 -0.4447
 5272TIP3    H115780   4.852   5.107   3.406 -0.1778 -0.6913 -0.4772
 5272TIP3    H215781   4.785   5.055   3.280 -1.9273 -1.7910  0.8662
 5273TIP3   OH215782   6.573   4.707   3.490 -0.0068  0.2277  0.0688
 5273TIP3    H115783   6.653   4.744   3.527 -0.1062 -2.0534  2.8600
 5273TIP3    H215784   6.540   4.775   3.431  3.6717  1.4405 -0.8157
 5274TIP3   OH215785   3.707   5.860   3.917  0.2130 -0.3402  0.2795
 5274TIP3    H115786   3.709   5.945   3.874  1.6485  0.0188  1.0015
 5274TIP3    H215787   3.782   5.813   3.882  1.1150 -0.2329  1.9422
 5275TIP3   OH215788   4.116   5.393   2.232  0.4776 -0.4516  0.5454
 5275TIP3    H115789   4.114   5.299   2.251 -0.0823 -0.3896  0.8301
 5275TIP3    H215790   4.106   5.434   2.318 -0.6190 -0.1468  0.2980
 5276TIP3   OH215791   3.602   4.988   1.266  0.1159  0.1692  0.1324
 5276TIP3    H115792   3.694   4.984   1.292 -0.0445 -1.3721  0.5868
 5276TIP3    H215793   3.563   5.054   1.324  1.1436  1.7589 -0.8978
 5277TIP3   OH215794   3.401   4.605   0.947  0.3073  0.4785  0.2266
 5277TIP3    H115795   3.386   4.529   0.892  1.5000  2.4477 -3.1190
 5277TIP3    H215796   3.494   4.601   0.969  0.3456  0.8984  0.1543
 5278TIP3   OH215797   2.992   5.650   1.720 -0.4958  0.5409 -0.3747
 5278TIP3    H115798   2.903   5.649   1.684 -0.5967  0.8557 -0.1343
 5278TIP3    H215799   2.989   5.714   1.791  0.2288  1.4674 -1.1586
 5279TIP3   OH215800   3.698   0.850   3.703 -0.0182 -0.2738 -0.5680
 5279TIP3    H115801   3.694   0.763   3.743  0.7561 -0.1748 -0.2602
 5279TIP3    H215802   3.721   0.832   3.611 -0.9424 -0.4496 -0.7747
 5280TIP3   OH215803   1.564   3.649   0.175  0.0146  0.0655 -0.4880
 5280TIP3    H115804   1.588   3.738   0.202 -0.1065  0.5971 -2.0543
 5280TIP3    H215805   1.550   3.655   0.081 -0.7859 -1.4518 -0.5033
 5281TIP3   OH215806   6.294   0.635   5.460  0.6004 -0.1443  0.0394
 5281TIP3    H115807   6.322   0.710   5.512 -0.3120  0.2266  0.0084
 5281TIP3    H215808   6.365   0.622   5.397  0.6664  0.8386 -0.1018
 5282TIP3   OH215809   3.860   2.280   0.054  0.0642 -0.0122  0.0081
 5282TIP3    H115810   3.855   2.369   0.020  0.3761 -0.5090 -1.3867
 5282TIP3    H215811   3.937   2.280   0.111 -0.0250  0.6328  0.1325
 5283TIP3   OH215812   2.545   2.001   3.234  0.3381  0.1642  0.0165
 5283TIP3    H115813   2.504   1.924   3.273 -0.5073 -0.4689 -2.0170
 5283TIP3    H215814   2.532   2.070   3.299  0.7859 -1.2812  1.7272
 5284TIP3   OH215815   0.755   1.667   2.332  0.0711  0.4032  0.2741
 5284TIP3    H115816   0.684   1.710   2.283  0.9299 -0.2706 -1.6296
 5284TIP3    H215817   0.718   1.583   2.357 -0.2347  0.5837  0.4481
 5285TIP3   OH215818   0.632   4.575   0.664  0.0727  0.3571 -0.4578
 5285TIP3    H115819   0.601   4.555   0.752  0.4071 -0.1215 -0.4464
 5285TIP3    H215820   0.568   4.638   0.630  0.7694  1.7191  0.6630
 5286TIP3   OH215821   2.902   5.339   5.623  0.5394  0.0954 -0.1451
 5286TIP3    H115822   2.979   5.357   5.569  0.3965  1.6474  0.1255
 5286TIP3    H215823   2.938   5.316   5.709  0.7199 -0.6653 -0.4140
 5287TIP3   OH215824   0.153   1.145   4.353 -0.3332 -0.0595 -0.9627
 5287TIP3    H115825   0.228   1.108   4.305 -0.9060 -1.7209 -0.6542
 5287TIP3    H215826   0.080   1.086   4.333 -0.6037 -0.8617  1.8673
 5288TIP3   OH215827   1.811   4.401   0.416 -0.2077  0.1337 -0.1507
 5288TIP3    H115828   1.860   4.444   0.486 -0.0270  1.3595 -1.0059
 5288TIP3    H215829   1.725   4.384   0.455  0.2514 -0.2412  0.7244
 5289TIP3   OH215830   6.991   3.329   2.739  0.8722  0.3946 -0.0669
 5289TIP3    H115831   7.002   3.337   2.834  0.9025  0.1037 -0.0430
 5289TIP3    H215832   7.079   3.308   2.707  0.7558 -0.0829 -0.0900
 5290TIP3   OH215833   4.385   6.755   4.981  0.2567  0.1270  0.0604
 5290TIP3    H115834   4.465   6.788   4.939 -1.4232  2.3517 -1.6885
 5290TIP3    H215835   4.395   6.780   5.073  1.0738  1.5064 -0.3586
 5291TIP3   OH215836   5.803   6.238   1.655 -0.2335 -0.1606 -0.1627
 5291TIP3    H115837   5.849   6.288   1.588 -0.7008  1.6592  0.8013
 5291TIP3    H215838   5.795   6.298   1.728 -1.3447 -1.4874  0.8604
 5292TIP3   OH215839   6.677   0.765   4.587  0.1867  0.4330  0.4835
 5292TIP3    H115840   6.605   0.740   4.530  1.4486 -1.6828 -0.2957
 5292TIP3    H215841   6.651   0.735   4.674 -1.0277  2.2154  0.8034
 5293TIP3   OH215842   1.034   6.164   3.042 -0.4802 -0.0331  0.1584
 5293TIP3    H115843   1.051   6.253   3.012 -1.0005 -0.5803 -1.8918
 5293TIP3    H215844   1.120   6.129   3.063 -0.2182  0.7744  0.4493
 5294TIP3   OH215845   3.774   0.079   4.567 -0.3462  0.2262 -0.6389
 5294TIP3    H115846   3.678   0.078   4.564 -0.4264  0.3268  0.8067
 5294TIP3    H215847   3.798  -0.014   4.569 -0.3749  0.1946 -1.6472
 5295TIP3   OH215848   2.238   3.128   1.606  0.3566 -0.6047 -0.1500
 5295TIP3    H115849   2.170   3.154   1.543  1.0565 -1.9276 -1.4998
 5295TIP3    H215850   2.201   3.053   1.652 -0.2950  0.5642  1.3498
 5296TIP3   OH215851   1.107   1.113   3.821 -0.0273  0.2309 -0.4081
 5296TIP3    H115852   1.085   1.159   3.740 -0.4455  1.1746  0.2351
 5296TIP3    H215853   1.180   1.056   3.796  0.6710  1.4177 -1.1626
 5297TIP3   OH215854   6.120   2.058   4.467 -0.8028 -0.6501 -0.3774
 5297TIP3    H115855   6.178   1.982   4.465  0.7343  0.4588 -0.1233
 5297TIP3    H215856   6.113   2.080   4.559  1.1035  1.1642 -0.5984
 5298TIP3   OH215857   3.087   3.488   2.006 -0.3264  0.1921  0.0083
 5298TIP3    H115858   3.064   3.519   1.918  0.1557 -1.8918 -0.9181
 5298TIP3    H215859   3.182   3.475   2.002 -0.4768 -1.1904  0.3627
 5299TIP3   OH215860   3.150   0.535   0.665 -0.3383 -0.1186 -0.3104
 5299TIP3    H115861   3.209   0.527   0.590 -0.1995 -1.2325 -0.0981
 5299TIP3    H215862   3.063   0.545   0.626 -0.0024  1.9550 -0.6307
 5300TIP3   OH215863   3.290   3.141   4.803 -0.1849 -0.8862  0.2450
 5300TIP3    H115864   3.334   3.150   4.719  1.6086  0.9129  1.2625
 5300TIP3    H215865   3.200   3.170   4.787  0.6240  1.3198 -0.6929
 5301TIP3   OH215866   2.962   4.972   0.189  0.0267  0.2823  0.6354
 5301TIP3    H115867   2.870   4.994   0.174 -0.2250 -0.2679  1.3348
 5301TIP3    H215868   2.989   5.028   0.261 -0.5555 -1.4576  2.2731
 5302TIP3   OH215869   1.380   2.853   2.837  0.3293 -0.2482  0.1667
 5302TIP3    H115870   1.401   2.861   2.931  0.9535  0.3331 -0.0119
 5302TIP3    H215871   1.456   2.809   2.800 -0.1778 -1.0085  0.0243
 5303TIP3   OH215872   0.567   2.617   5.256 -0.1601  0.2339 -0.2753
 5303TIP3    H115873   0.625   2.542   5.238  0.1737  0.0294  1.5097
 5303TIP3    H215874   0.506   2.618   5.182  0.4505 -1.1959 -0.8385
 5304TIP3   OH215875   6.887   2.822   5.267 -0.0490  0.4837  0.3805
 5304TIP3    H115876   6.807   2.855   5.225 -0.5454 -0.4872  0.5462
 5304TIP3    H215877   6.856   2.751   5.324  0.8797  0.4032  0.7908
 5305TIP3   OH215878   0.426   3.419   0.339 -0.0009  0.5077  0.2688
 5305TIP3    H115879   0.443   3.512   0.333  1.1093  0.2531 -0.9142
 5305TIP3    H215880   0.432   3.387   0.249 -0.9914 -0.6007  0.5677
 5306TIP3   OH215881   4.864   3.458   5.654 -0.5162 -0.1632  0.4456
 5306TIP3    H115882   4.804   3.454   5.579  0.6352  1.5004 -0.6705
 5306TIP3    H215883   4.933   3.395   5.633 -0.4528 -0.0589  0.3361
 5307TIP3   OH215884   3.762   3.933   1.029  0.6498 -0.1377 -0.5461
 5307TIP3    H115885   3.836   3.874   1.049  0.6516 -0.0495 -0.2870
 5307TIP3    H215886   3.785   4.015   1.073  0.1509 -0.2744 -0.0177
 5308TIP3   OH215887   6.483   5.730   4.713  0.1574 -0.8704 -0.1097
 5308TIP3    H115888   6.399   5.719   4.758  0.0892 -0.0868 -0.0290
 5308TIP3    H215889   6.542   5.764   4.780  0.4340 -1.0535 -0.2600
 5309TIP3   OH215890   6.757   6.220   1.080 -0.1618  0.3067  0.3224
 5309TIP3    H115891   6.715   6.204   0.995  0.7493  0.4558 -0.1619
 5309TIP3    H215892   6.831   6.278   1.060  0.8847 -0.7525  1.0168
 5310TIP3   OH215893   5.866   1.777   0.875  0.4012 -0.0208 -0.1060
 5310TIP3    H115894   5.885   1.850   0.816 -1.4769  1.0709  0.5570
 5310TIP3    H215895   5.782   1.743   0.844 -0.2866  0.1348  1.4799
 5311TIP3   OH215896   6.473   2.217   4.116 -0.5686 -0.5508  0.7456
 5311TIP3    H115897   6.487   2.197   4.209 -0.2355  0.9092  1.0307
 5311TIP3    H215898   6.531   2.157   4.070  2.4034  1.3851  1.6839
 5312TIP3   OH215899   0.136   4.463   2.156  0.1662 -0.1422  0.6158
 5312TIP3    H115900   0.179   4.541   2.191  1.7390 -1.0362  0.7484
 5312TIP3    H215901   0.129   4.404   2.232  0.4341 -0.7390  0.1851
 5313TIP3   OH215902   0.325   0.966   3.610  0.0794 -0.0721  0.6197
 5313TIP3    H115903   0.294   0.875   3.611  1.7690 -0.7245 -0.8125
 5313TIP3    H215904   0.420   0.958   3.607  0.2381  1.7260 -0.7087
 5314TIP3   OH215905   7.207   4.193   2.555  0.0304 -0.0542 -0.3060
 5314TIP3    H115906   7.274   4.129   2.575  0.3735 -0.4948 -2.5785
 5314TIP3    H215907   7.125   4.143   2.554 -0.1005  0.1320  0.7421
 5315TIP3   OH215908   0.919   4.269   3.872 -0.2001 -0.3240  0.3599
 5315TIP3    H115909   0.883   4.349   3.909  0.9922 -0.1470  1.1884
 5315TIP3    H215910   0.910   4.280   3.777  0.0364  0.8452  0.4550
 5316TIP3   OH215911   0.946   1.833   3.284 -0.4076  0.5253 -0.1840
 5316TIP3    H115912   1.024   1.855   3.335 -1.2740 -1.6260  2.2973
 5316TIP3    H215913   0.915   1.751   3.322 -3.7216  1.1428 -1.2309
 5317TIP3   OH215914   4.765   4.148   1.996 -0.5920 -0.0993 -0.1206
 5317TIP3    H115915   4.671   4.158   2.012 -0.9614 -0.8276 -1.6932
 5317TIP3    H215916   4.775   4.163   1.902  0.9739  0.6238  0.1268
 5318TIP3   OH215917   0.517   6.285   2.759 -0.3763  0.4139 -0.7241
 5318TIP3    H115918   0.613   6.285   2.767 -0.3852  3.2508  0.6547
 5318TIP3    H215919   0.492   6.194   2.769  2.0569 -0.1699  0.9172
 5319TIP3   OH215920   1.241   1.465   1.935 -0.3007  0.9649 -0.0407
 5319TIP3    H115921   1.190   1.389   1.908  1.7287 -0.8101  0.8252
 5319TIP3    H215922   1.183   1.540   1.918 -3.2941 -0.8798  1.2024
 5320TIP3   OH215923   6.274   6.148   4.717  0.2134  0.3891 -0.1085
 5320TIP3    H115924   6.271   6.064   4.672  0.3360 -0.0661  0.7118
 5320TIP3    H215925   6.183   6.175   4.726 -0.0024 -0.8478  1.7818
 5321TIP3   OH215926   6.383   6.550   3.344  0.1501  0.1641  0.4576
 5321TIP3    H115927   6.423   6.617   3.401  2.9054 -1.5561  0.7205
 5321TIP3    H215928   6.447   6.479   3.341 -2.8522 -2.8364  0.7144
 5322TIP3   OH215929   6.451   6.214   3.720 -0.7101 -0.2048 -0.3482
 5322TIP3    H115930   6.489   6.162   3.649 -0.4345 -1.3638  0.6235
 5322TIP3    H215931   6.491   6.300   3.711  0.8336 -0.8991 -0.4206
 5323TIP3   OH215932   7.161   0.399   3.821  0.6803  0.4279  0.0802
 5323TIP3    H115933   7.188   0.367   3.735 -2.4219  1.3439 -1.3694
 5323TIP3    H215934   7.204   0.484   3.830 -1.8203  2.1476 -2.4344
 5324TIP3   OH215935   3.557   3.028   4.673  0.7293  0.2841  0.7360
 5324TIP3    H115936   3.535   3.054   4.584  1.0942  1.0683  0.8648
 5324TIP3    H215937   3.548   2.933   4.674  0.3974  0.3068 -0.0437
 5325TIP3   OH215938   0.267   6.280   3.359  0.4536  0.3745  0.3725
 5325TIP3    H115939   0.296   6.319   3.277  1.1917  0.2609  0.5710
 5325TIP3    H215940   0.233   6.194   3.334  0.4724  0.4281  0.1585
 5326TIP3   OH215941   6.832   0.326   5.358  0.2680  0.7613  0.9455
 5326TIP3    H115942   6.893   0.302   5.428  0.9449 -1.6588 -0.3498
 5326TIP3    H215943   6.827   0.248   5.303 -1.2127  2.1422 -1.0228
 5327TIP3   OH215944   6.549   0.655  -0.002  0.7083  0.4006  0.2769
 5327TIP3    H115945   6.514   0.732   0.043  0.6605 -1.1471  3.0715
 5327TIP3    H215946   6.471   0.613  -0.041  0.5379  0.9337  0.0263
 5328TIP3   OH215947   0.057   3.752   2.478  0.1421 -0.0176 -0.1109
 5328TIP3    H115948   0.064   3.781   2.569 -1.4792  0.3305 -0.0644
 5328TIP3    H215949   0.128   3.690   2.467  1.7340  1.5557  0.7484
 5329TIP3   OH215950   7.162   6.589   0.774  0.0347 -0.1658  0.1391
 5329TIP3    H115951   7.208   6.544   0.703  0.0984 -0.0403  0.1002
 5329TIP3    H215952   7.226   6.592   0.846 -0.3121 -1.0287  0.4909
 5330TIP3   OH215953   2.449   2.808   1.833  0.6183 -0.5185 -0.4143
 5330TIP3    H115954   2.493   2.891   1.851  0.2666 -0.6545  1.2108
 5330TIP3    H215955   2.508   2.742   1.870 -0.4769 -0.7648  0.9586
 5331TIP3   OH215956   2.983   5.494   4.282  0.9514 -0.8490 -0.8063
 5331TIP3    H115957   2.950   5.583   4.270 -2.1951 -2.1591 -3.5408
 5331TIP3    H215958   2.933   5.460   4.356  1.4181 -0.6757 -0.4065
 5332TIP3   OH215959   5.952   2.719   0.131 -0.6276  0.7734 -0.0064
 5332TIP3    H115960   6.036   2.741   0.093  0.1140  0.4511  1.3796
 5332TIP3    H215961   5.930   2.794   0.187 -0.8088  0.4564  0.3523
 5333TIP3   OH215962   4.195   0.138   2.557  0.2566 -0.1286 -0.1926
 5333TIP3    H115963   4.226   0.109   2.471  2.0263  0.6820  0.1323
 5333TIP3    H215964   4.184   0.057   2.607 -0.3598 -0.5759 -1.0231
 5334TIP3   OH215965   5.135   3.205   4.857  0.4362  0.2648  0.0093
 5334TIP3    H115966   5.069   3.272   4.844  0.8889  0.3000 -2.8308
 5334TIP3    H215967   5.196   3.242   4.921 -0.3493  1.7264 -0.0634
 5335TIP3   OH215968   6.816   4.769   2.809  0.2808  0.0048 -0.2954
 5335TIP3    H115969   6.888   4.734   2.756 -0.4852  0.1470 -1.4744
 5335TIP3    H215970   6.737   4.748   2.759 -0.4731  0.1560  0.8028
 5336TIP3   OH215971   3.127   2.046   2.847  0.2907 -0.3960 -0.2675
 5336TIP3    H115972   3.174   1.973   2.888  0.6910 -0.2725 -0.5028
 5336TIP3    H215973   3.134   2.030   2.753  0.4697 -0.0046 -0.3241
 5337TIP3   OH215974   1.534   4.593   4.512  0.1055 -0.1566  0.4894
 5337TIP3    H115975   1.505   4.682   4.535  0.7979 -0.0663  1.0676
 5337TIP3    H215976   1.596   4.607   4.440 -0.8009 -0.2963 -0.3339
 5338TIP3   OH215977   5.123   0.605   0.210  0.2207 -0.0595 -0.1897
 5338TIP3    H115978   5.120   0.571   0.299  1.3805  0.2047 -0.0288
 5338TIP3    H215979   5.211   0.583   0.179 -0.7154 -1.7523 -1.9253
 5339TIP3   OH215980   2.681   2.166   2.158 -0.8870 -0.3570  0.5548
 5339TIP3    H115981   2.611   2.193   2.218 -1.5389  1.1536 -0.7962
 5339TIP3    H215982   2.653   2.081   2.124 -1.3606 -0.4170  1.0808
 5340TIP3   OH215983   5.464   2.985   4.231  0.4778  0.3410 -0.1906
 5340TIP3    H115984   5.465   2.982   4.326  0.7909  0.0160 -0.1986
 5340TIP3    H215985   5.515   3.063   4.208 -0.6820  1.1521 -0.0780
 5341TIP3   OH215986   6.373   3.403   3.781 -0.0802  0.7190 -0.4791
 5341TIP3    H115987   6.455   3.452   3.786  0.9957 -1.0693  3.0873
 5341TIP3    H215988   6.306   3.467   3.802  0.7768  1.5666 -0.2610
 5342TIP3   OH215989   4.012   3.149   1.353 -0.3093  0.3448 -0.1717
 5342TIP3    H115990   4.047   3.133   1.266 -3.3955 -0.0059 -1.4787
 5342TIP3    H215991   3.994   3.243   1.354  1.2874  0.6722  0.7852
 5343TIP3   OH215992   4.420   2.698   3.084  0.2737 -0.0663  0.0868
 5343TIP3    H115993   4.385   2.714   3.172  0.5317 -2.3105  0.6596
 5343TIP3    H215994   4.343   2.702   3.027 -0.4244 -1.6264  0.8673
 5344TIP3   OH215995   1.350   4.903   2.877 -0.0430  0.3605 -0.3027
 5344TIP3    H115996   1.260   4.873   2.865  1.0353 -2.8024 -1.3652
 5344TIP3    H215997   1.364   4.966   2.806 -0.9060 -0.4701 -1.2347
 5345TIP3   OH215998   0.513   1.170   0.300  0.0118 -0.2897 -0.1223
 5345TIP3    H115999   0.523   1.144   0.209 -0.7952 -0.5268 -0.1544
 5345TIP3    H216000   0.435   1.225   0.301  1.1899  1.4521  0.0899
 5346TIP3   OH216001   1.742   3.346   5.613 -0.4369  0.4869 -0.0605
 5346TIP3    H116002   1.679   3.357   5.542 -1.1344  0.0584  0.4784
 5346TIP3    H216003   1.791   3.267   5.589 -1.6742 -0.5330  0.6474
 5347TIP3   OH216004   3.669   3.263   5.489  0.0100  0.2092 -0.4931
 5347TIP3    H116005   3.629   3.349   5.501 -1.8081 -0.7132  0.3878
 5347TIP3    H216006   3.668   3.249   5.394 -0.0340  0.9829 -0.6172
 5348TIP3   OH216007   5.869   6.542   4.510 -0.2469  0.2980 -0.1290
 5348TIP3    H116008   5.942   6.499   4.554 -0.9925  0.3397  1.2352
 5348TIP3    H216009   5.838   6.606   4.574 -1.4768  0.2602 -0.6624
 5349TIP3   OH216010   0.976   0.753   5.862 -0.1808  0.3648 -0.5879
 5349TIP3    H116011   0.981   0.666   5.822 -0.5153  0.1785 -0.2258
 5349TIP3    H216012   1.067   0.779   5.875 -0.0810  0.0868 -0.7324
 5350TIP3   OH216013   4.706   1.082   1.323 -0.9064  0.0030  0.3679
 5350TIP3    H116014   4.617   1.112   1.342 -0.7795  1.5617 -1.1855
 5350TIP3    H216015   4.762   1.134   1.380 -0.7956  1.7340 -1.2235
 5351TIP3   OH216016   5.402   5.525   3.576  0.5668  0.2894  0.1407
 5351TIP3    H116017   5.316   5.490   3.551 -0.1467  1.9285  0.1962
 5351TIP3    H216018   5.416   5.492   3.664  0.1405 -0.2536  0.0144
 5352TIP3   OH216019   2.675   1.679   0.975 -0.4610  0.0894  0.0883
 5352TIP3    H116020   2.688   1.591   1.012 -0.2733 -0.2111 -0.6743
 5352TIP3    H216021   2.630   1.664   0.892  2.6917  0.3694 -1.8448
 5353TIP3   OH216022   4.008   1.727   1.960 -0.3788 -0.1843  1.1853
 5353TIP3    H116023   4.069   1.656   1.981 -1.0931 -1.5792 -1.0860
 5353TIP3    H216024   4.050   1.774   1.888 -0.0997  1.5298  2.4092
 5354TIP3   OH216025   4.000   6.109   3.834 -0.3512  0.4683 -0.4969
 5354TIP3    H116026   4.093   6.120   3.855 -0.0163 -1.2525 -0.9410
 5354TIP3    H216027   4.000   6.064   3.749 -1.5398 -0.9886  0.2227
 5355TIP3   OH216028   7.084   2.855   5.091 -0.2399  0.0835 -0.5058
 5355TIP3    H116029   7.004   2.832   5.138 -1.1405  1.3198 -1.3653
 5355TIP3    H216030   7.070   2.820   5.003 -0.4070  1.3944 -1.0152
 5356TIP3   OH216031   2.220   3.304   4.914 -0.2637  0.4785 -0.4586
 5356TIP3    H116032   2.174   3.258   4.843 -1.6437  1.7211 -0.4114
 5356TIP3    H216033   2.267   3.375   4.871  0.3440  0.1731 -0.3135
 5357TIP3   OH216034   6.473   1.626   1.969 -0.0618 -0.5270 -0.1143
 5357TIP3    H116035   6.496   1.629   1.876  0.6202 -1.3912  0.0013
 5357TIP3    H216036   6.436   1.538   1.982 -0.3809 -0.3262  0.3808
 5358TIP3   OH216037   0.538   1.305   5.674 -0.1289  0.2572 -0.5030
 5358TIP3    H116038   0.593   1.277   5.601  0.8491 -1.0316  0.6708
 5358TIP3    H216039   0.575   1.388   5.702  0.6962 -0.1749 -0.2782
 5359TIP3   OH216040   2.084   2.893   5.572 -0.1076 -0.1031  0.1993
 5359TIP3    H116041   2.133   2.827   5.622 -0.0901  0.8564  1.4740
 5359TIP3    H216042   2.121   2.886   5.483  0.2012 -1.4930  0.4045
 5360TIP3   OH216043   6.297   2.337   3.618  0.0307 -0.0545 -0.2909
 5360TIP3    H116044   6.368   2.290   3.574  0.8230  1.0825 -0.2758
 5360TIP3    H216045   6.297   2.303   3.707  0.5346 -0.0939 -0.3024
 5361TIP3   OH216046   1.510   3.962   1.607 -0.2532 -0.3587 -0.1812
 5361TIP3    H116047   1.538   4.046   1.569 -0.8738 -0.3683 -0.6820
 5361TIP3    H216048   1.415   3.970   1.616  0.0535  0.5532  3.6755
 5362TIP3   OH216049   2.870   2.157   0.543 -0.3047 -0.0641 -0.2660
 5362TIP3    H116050   2.837   2.243   0.570  0.4824  0.1038  0.1992
 5362TIP3    H216051   2.888   2.112   0.625  2.3180  0.5275 -0.4211
 5363TIP3   OH216052   6.591   3.073   3.204  0.1504 -0.2998 -0.0696
 5363TIP3    H116053   6.551   3.069   3.117 -1.1522  0.2127  0.4796
 5363TIP3    H216054   6.526   3.033   3.262  0.9075 -0.4286  0.7024
 5364TIP3   OH216055   2.136   4.780   3.455 -0.2800  0.5876  0.3908
 5364TIP3    H116056   2.191   4.707   3.483  0.3316  1.1390  0.6625
 5364TIP3    H216057   2.050   4.741   3.439  0.3628 -0.4193 -0.7452
 5365TIP3   OH216058   4.379   3.064   2.391  0.4982  0.5426 -0.2424
 5365TIP3    H116059   4.440   3.116   2.444  1.5228  0.8278 -1.6486
 5365TIP3    H216060   4.410   3.074   2.301 -1.7610  0.8943 -1.0726
 5366TIP3   OH216061   1.467   4.290   0.195  0.1375  0.3246  0.0097
 5366TIP3    H116062   1.397   4.292   0.130  0.3960 -0.0289 -0.2826
 5366TIP3    H216063   1.546   4.308   0.145  0.6402 -2.1600 -0.1855
 5367TIP3   OH216064   4.177   5.602   3.769  0.3986  0.2321  0.2526
 5367TIP3    H116065   4.198   5.667   3.702 -3.6508 -0.7729 -2.3801
 5367TIP3    H216066   4.256   5.548   3.776  1.7294  1.6802 -2.1919
 5368TIP3   OH216067   3.735   5.745   3.496 -0.1878  0.0945  0.5181
 5368TIP3    H116068   3.758   5.768   3.406 -0.6435  0.6742  0.5430
 5368TIP3    H216069   3.819   5.729   3.539 -0.0194 -3.3869 -0.8070
 5369TIP3   OH216070   4.306   4.078   2.648 -0.0216 -0.0177 -0.1656
 5369TIP3    H116071   4.248   4.140   2.691 -0.7736 -1.8116  1.5622
 5369TIP3    H216072   4.257   3.995   2.647  0.4133 -0.4099 -3.5063
 5370TIP3   OH216073   4.547   4.975   5.876  0.1940 -0.0893 -0.3380
 5370TIP3    H116074   4.631   4.930   5.885  0.1375 -0.7874 -2.5449
 5370TIP3    H216075   4.570   5.061   5.838 -0.1112 -0.8194 -2.3130
 5371TIP3   OH216076   0.415   1.891   1.985 -0.4089 -0.0582 -0.1021
 5371TIP3    H116077   0.501   1.877   2.024 -0.0871 -0.2005 -0.8304
 5371TIP3    H216078   0.352   1.869   2.054  0.1296 -1.3393  0.0046
 5372TIP3   OH216079   1.816   6.132   0.095 -0.3124  0.0998 -0.5001
 5372TIP3    H116080   1.807   6.220   0.058 -0.2272 -0.4328 -1.8171
 5372TIP3    H216081   1.895   6.096   0.053  0.1559 -0.3032  0.6751
 5373TIP3   OH216082   0.521   1.078   5.111  0.0198  0.0039  0.2843
 5373TIP3    H116083   0.574   1.083   5.031  0.5764  1.5423  0.7137
 5373TIP3    H216084   0.469   0.999   5.100 -0.1551  0.3449 -1.7478
 5374TIP3   OH216085   2.449   4.954   3.607 -0.2776  0.0310  0.6037
 5374TIP3    H116086   2.385   5.022   3.626  0.3601  0.6225  0.7193
 5374TIP3    H216087   2.461   4.958   3.512  0.5775  0.8756  0.7216
 5375TIP3   OH216088   2.199   6.800   1.004 -0.3248  0.6108  0.3333
 5375TIP3    H116089   2.180   6.839   1.090 -1.0021 -0.8230  0.8745
 5375TIP3    H216090   2.206   6.706   1.022 -1.9366  0.1106 -1.3928
 5376TIP3   OH216091   5.421   3.349   0.885 -0.2550 -0.1250 -0.3230
 5376TIP3    H116092   5.357   3.421   0.880 -0.7511 -0.5525 -0.1531
 5376TIP3    H216093   5.485   3.370   0.816 -0.9533 -0.0637 -0.9660
 5377TIP3   OH216094   1.611   2.111   3.012 -0.0088  0.1527  0.3984
 5377TIP3    H116095   1.621   2.161   3.093 -0.6207  1.1124 -0.0904
 5377TIP3    H216096   1.695   2.119   2.968 -0.0704  0.6814  0.3705
 5378TIP3   OH216097   0.616   1.991   0.269 -0.0529 -0.1628 -0.1048
 5378TIP3    H116098   0.673   1.956   0.201  0.6976  0.2377  0.3033
 5378TIP3    H216099   0.670   1.992   0.348 -1.3550 -1.9918  0.8683
 5379TIP3   OH216100   0.200   1.761   5.364  0.1864  0.4897  0.6737
 5379TIP3    H116101   0.133   1.825   5.388  1.1950  1.6026  0.6204
 5379TIP3    H216102   0.190   1.690   5.428 -0.9273  0.7055  0.7545
 5380TIP3   OH216103   2.428   0.215   3.240 -0.4110  0.4256 -0.7452
 5380TIP3    H116104   2.428   0.213   3.336  0.0643 -0.1431 -0.7485
 5380TIP3    H216105   2.467   0.300   3.218 -0.6438  0.6145 -0.4400
 5381TIP3   OH216106   0.731   4.681   5.454  0.3274  0.0654  0.6616
 5381TIP3    H116107   0.804   4.688   5.393  0.0333 -0.3602  0.2548
 5381TIP3    H216108   0.750   4.746   5.522  0.5830  0.6524  0.0386
 5382TIP3   OH216109   3.719   4.645   5.323  0.0447 -0.1465  0.1733
 5382TIP3    H116110   3.713   4.635   5.418  1.6164  0.7498  0.4009
 5382TIP3    H216111   3.791   4.706   5.310  0.3012 -0.7778 -1.6386
 5383TIP3   OH216112   4.369   4.443   4.338 -0.7017 -0.2892  0.3356
 5383TIP3    H116113   4.457   4.442   4.374 -1.0087 -1.4010  1.1075
 5383TIP3    H216114   4.363   4.361   4.288 -1.6036 -0.7166  1.1046
 5384TIP3   OH216115   1.431   0.675   0.065 -0.2238 -0.8290 -0.4086
 5384TIP3    H116116   1.490   0.713   0.130  1.6009 -1.6278 -1.5036
 5384TIP3    H216117   1.402   0.592   0.105  0.5778 -1.1332 -0.4393
 5385TIP3   OH216118   1.471   3.125   5.119  0.2842 -0.3327  0.1590
 5385TIP3    H116119   1.456   3.167   5.034 -1.0885 -0.3685  0.3618
 5385TIP3    H216120   1.508   3.195   5.173 -1.3768  0.4830  0.3010
 5386TIP3   OH216121   0.546   5.861   3.766  0.0271 -0.1233  0.2256
 5386TIP3    H116122   0.598   5.897   3.838  0.9545 -0.5997 -0.1874
 5386TIP3    H216123   0.508   5.938   3.723 -0.7638  0.1432  1.3887
 5387TIP3   OH216124   5.297   3.173   2.908  0.0426  0.1733  0.0683
 5387TIP3    H116125   5.349   3.145   2.983  0.1442 -0.5432 -0.2651
 5387TIP3    H216126   5.326   3.263   2.891  1.0724 -0.1707 -0.0271
 5388TIP3   OH216127   0.198   5.980   2.325 -0.5202 -0.1762  0.5470
 5388TIP3    H116128   0.225   6.036   2.252 -1.8514  1.2217  1.0714
 5388TIP3    H216129   0.172   5.898   2.283  0.0208  0.1150 -0.4041
 5389TIP3   OH216130   4.460   1.529   2.276  0.4684 -0.0959 -0.1000
 5389TIP3    H116131   4.533   1.468   2.283 -0.0088 -0.8411 -1.1483
 5389TIP3    H216132   4.384   1.472   2.259 -0.1782  0.7199  0.0208
 5390TIP3   OH216133   0.282   4.043   2.386 -0.0667 -0.1432  0.1190
 5390TIP3    H116134   0.321   4.130   2.388  0.7999 -0.4757 -0.9030
 5390TIP3    H216135   0.304   4.005   2.471  0.8783  0.0971 -0.0039
 5391TIP3   OH216136   5.999   5.585   0.615  0.1905  0.1230 -0.1619
 5391TIP3    H116137   6.085   5.548   0.633  0.9073  1.3738 -0.8667
 5391TIP3    H216138   5.959   5.525   0.552 -0.4239 -1.7002  1.8363
 5392TIP3   OH216139   6.320   4.967   4.432 -0.6740  0.2257 -0.4117
 5392TIP3    H116140   6.238   5.015   4.442 -0.6466  0.0854  0.6166
 5392TIP3    H216141   6.387   5.035   4.424 -0.5165  0.4413  1.9768
 5393TIP3   OH216142   4.373   3.285   4.519  0.1334 -0.2174 -0.6406
 5393TIP3    H116143   4.410   3.238   4.593  0.5063 -0.5481 -1.0302
 5393TIP3    H216144   4.435   3.270   4.447 -0.7744 -0.8415 -1.3225
 5394TIP3   OH216145   1.631   4.314   4.104 -0.1648  0.6244  0.0030
 5394TIP3    H116146   1.700   4.296   4.168  0.0905  0.7247 -0.2412
 5394TIP3    H216147   1.605   4.404   4.122 -1.0373  0.2256  0.8452
 5395TIP3   OH216148   4.361   4.293   4.705 -0.0288  0.1595  0.5930
 5395TIP3    H116149   4.338   4.353   4.634 -2.2878  0.9989  1.9273
 5395TIP3    H216150   4.416   4.346   4.764 -0.6024  0.4197  0.9088
 5396TIP3   OH216151   1.129   0.354   5.268  0.5293 -0.4428  0.4927
 5396TIP3    H116152   1.216   0.392   5.286  0.8318 -1.0023  0.2464
 5396TIP3    H216153   1.103   0.315   5.352  1.8668 -2.9054 -0.1398
 5397TIP3   OH216154   6.078   4.118   4.973 -0.0063  0.2613 -0.0165
 5397TIP3    H116155   6.140   4.111   4.900  0.0219 -0.1717  0.0454
 5397TIP3    H216156   5.992   4.102   4.932  0.1264 -1.2324  0.2486
 5398TIP3   OH216157   0.809   0.928   4.391 -0.4347  0.4546 -0.2219
 5398TIP3    H116158   0.781   1.019   4.382  0.6901  1.1941  2.5973
 5398TIP3    H216159   0.892   0.933   4.438 -1.1466 -2.0659  1.5031
 5399TIP3   OH216160   2.855   4.353   2.016  0.4036 -0.5815  0.2965
 5399TIP3    H116161   2.804   4.390   1.944  0.5328 -2.4723 -0.8288
 5399TIP3    H216162   2.928   4.415   2.027 -0.7663  0.8528  0.2850
 5400TIP3   OH216163   1.658   6.828   3.015 -0.0860  0.4875  0.2397
 5400TIP3    H116164   1.725   6.793   3.074  0.7947 -0.2294 -1.1284
 5400TIP3    H216165   1.583   6.769   3.027  0.4120 -0.2163 -0.0116
 5401TIP3   OH216166   4.971   6.122   3.810 -0.3342 -0.2825 -0.3811
 5401TIP3    H116167   4.960   6.216   3.828 -1.8262 -0.5319  0.1383
 5401TIP3    H216168   4.983   6.083   3.897  2.5931 -0.3660 -0.7070
 5402TIP3   OH216169   1.047   5.373  -0.003  0.4032 -0.3449  0.4346
 5402TIP3    H116170   1.015   5.293   0.040 -1.9451 -0.0667 -0.6673
 5402TIP3    H216171   1.016   5.444   0.053  0.6016 -0.1180  0.2561
 5403TIP3   OH216172   5.180   3.672   1.572 -0.8183  0.2852 -0.6155
 5403TIP3    H116173   5.191   3.617   1.494  1.4454 -4.5323  2.6262
 5403TIP3    H216174   5.086   3.668   1.591 -1.1099 -0.0887 -2.0160
 5404TIP3   OH216175   1.075   5.395   2.903  0.2127 -0.1138 -0.3884
 5404TIP3    H116176   1.047   5.378   2.813 -1.3126 -1.6065  0.3041
 5404TIP3    H216177   0.994   5.421   2.948  0.1590 -2.8862  1.3236
 5405TIP3   OH216178   5.920   2.529   3.951  0.4954 -0.3056  0.8047
 5405TIP3    H116179   5.908   2.457   4.013  0.7563 -0.1351  1.0622
 5405TIP3    H216180   6.008   2.516   3.916  1.4875  1.1456  2.5663
 5406TIP3   OH216181   5.158   2.800   1.200  0.1915  0.0692  0.1918
 5406TIP3    H116182   5.227   2.820   1.263 -0.0852 -0.6961  0.7610
 5406TIP3    H216183   5.141   2.707   1.212 -0.2723  0.0396 -0.6187
 5407TIP3   OH216184   5.653   0.540   5.796  0.1108 -0.4247 -0.0191
 5407TIP3    H116185   5.729   0.497   5.836 -0.2489 -1.6424 -0.6200
 5407TIP3    H216186   5.683   0.565   5.709  0.0477 -0.2409  0.0121
 5408TIP3   OH216187   0.512   3.250   3.288  0.1947  0.1291  0.1307
 5408TIP3    H116188   0.445   3.318   3.284 -0.2745 -0.3095  0.4000
 5408TIP3    H216189   0.476   3.184   3.348  0.3705 -0.6465 -0.5963
 5409TIP3   OH216190   5.602   2.714   0.528 -0.2698  0.9939 -0.0797
 5409TIP3    H116191   5.681   2.662   0.538 -0.1447  0.7335 -2.0422
 5409TIP3    H216192   5.531   2.658   0.559  0.2996  1.3520  2.0092
 5410TIP3   OH216193   4.257   4.470   2.001  0.0437 -0.7328  0.2740
 5410TIP3    H116194   4.232   4.509   1.917 -1.4050 -0.4531  0.8194
 5410TIP3    H216195   4.249   4.542   2.064  2.7315 -0.4676  0.4604
 5411TIP3   OH216196   4.769   5.401   1.850  0.0594 -0.9647 -0.6726
 5411TIP3    H116197   4.815   5.384   1.767 -0.0702 -4.2753 -0.1951
 5411TIP3    H216198   4.677   5.387   1.829 -0.0491 -1.0886 -0.1254
 5412TIP3   OH216199   5.693   2.643   3.880 -0.2038  0.0775  0.1878
 5412TIP3    H116200   5.777   2.605   3.907 -0.7006  0.0120  1.7670
 5412TIP3    H216201   5.641   2.568   3.851  0.4923  0.2006 -1.5110
 5413TIP3   OH216202   5.878   3.435   4.320  0.0092 -0.1568 -0.2623
 5413TIP3    H116203   5.793   3.417   4.359 -1.0701 -0.3022 -2.5268
 5413TIP3    H216204   5.930   3.357   4.337 -0.1302  0.0726  1.4463
 5414TIP3   OH216205   5.009   1.131   4.918  0.4728  0.3677 -0.4607
 5414TIP3    H116206   5.056   1.048   4.930  0.0669  0.1686 -0.1982
 5414TIP3    H216207   4.949   1.135   4.992 -0.4316  0.2652 -1.1691
 5415TIP3   OH216208   1.413   0.010   2.673  0.3230  0.3274 -0.5955
 5415TIP3    H116209   1.466  -0.016   2.749  1.2364  0.0870 -1.2875
 5415TIP3    H216210   1.478   0.034   2.607 -0.4685  2.7513 -0.5623
 5416TIP3   OH216211   3.501   6.499   3.688  0.0778 -0.2835  0.2349
 5416TIP3    H116212   3.425   6.448   3.716  0.1585 -1.1105 -0.9907
 5416TIP3    H216213   3.463   6.575   3.644 -0.0315 -0.0338  0.7472
 5417TIP3   OH216214   5.699   4.442   4.612 -1.0108 -0.5175  0.1317
 5417TIP3    H116215   5.751   4.472   4.538  0.3601 -1.6779  0.5679
 5417TIP3    H216216   5.694   4.517   4.671 -2.1033  0.4070 -1.1093
 5418TIP3   OH216217   3.658   0.363   0.585 -0.3959  0.2117 -0.0559
 5418TIP3    H116218   3.657   0.313   0.504  0.6376 -0.7051  0.4632
 5418TIP3    H216219   3.708   0.442   0.564 -0.0037 -0.0940 -0.2719
 5419TIP3   OH216220   6.063   6.673   5.011  0.0126 -0.0950 -0.4084
 5419TIP3    H116221   6.117   6.672   4.931  2.4395 -3.2645  1.0491
 5419TIP3    H216222   5.990   6.615   4.991 -0.2965  0.4215 -0.8175
 5420TIP3   OH216223   6.475   2.606   1.735 -0.3158 -0.0498  0.1881
 5420TIP3    H116224   6.536   2.633   1.803 -0.3642  3.0223 -0.8417
 5420TIP3    H216225   6.523   2.618   1.653 -0.9666 -1.6025 -0.4674
 5421TIP3   OH216226   4.245   3.223   4.265 -0.1346 -0.0212 -0.2978
 5421TIP3    H116227   4.170   3.172   4.234 -0.7394  0.3526  0.5274
 5421TIP3    H216228   4.251   3.204   4.358  1.9710 -1.5119 -0.6481
 5422TIP3   OH216229   0.794   1.539   1.470 -0.4596 -0.3186 -0.3392
 5422TIP3    H116230   0.836   1.622   1.447 -0.8009 -0.2432 -0.6995
 5422TIP3    H216231   0.732   1.523   1.399 -1.6496 -0.0177  0.5952
 5423TIP3   OH216232   1.226   0.345   3.444  0.4763 -0.0003 -0.2202
 5423TIP3    H116233   1.315   0.375   3.462  0.5564 -0.7423  0.6873
 5423TIP3    H216234   1.220   0.345   3.348  0.9921  1.3378 -0.2806
 5424TIP3   OH216235   2.471   0.849   1.469  0.0997  0.1230  0.0165
 5424TIP3    H116236   2.394   0.845   1.526  1.7942 -0.3294  2.4219
 5424TIP3    H216237   2.500   0.759   1.461  0.0791  0.2172 -1.3853
 5425TIP3   OH216238   5.642   0.966   0.540 -0.8531 -0.4560  0.0228
 5425TIP3    H116239   5.704   1.036   0.523 -0.4830 -0.4833  1.1484
 5425TIP3    H216240   5.627   0.925   0.455 -1.3516  1.2014 -0.7108
 5426TIP3   OH216241   0.094   6.490   1.851 -0.4998 -0.1534  0.4179
 5426TIP3    H116242   0.105   6.436   1.772 -1.0351 -0.8017  0.7698
 5426TIP3    H216243   0.167   6.465   1.907 -0.2834  0.0931  0.2463
 5427TIP3   OH216244   2.641   6.274   3.126  0.1740 -0.1046 -0.0987
 5427TIP3    H116245   2.566   6.222   3.099  0.2786 -0.3454  0.0676
 5427TIP3    H216246   2.716   6.215   3.117  0.3094  0.0535 -0.0218
 5428TIP3   OH216247   4.513   1.784   1.662 -0.3507  0.2977 -0.0826
 5428TIP3    H116248   4.607   1.789   1.642 -0.5802  2.1986 -0.9084
 5428TIP3    H216249   4.471   1.780   1.576 -1.0170 -2.1884  0.2934
 5429TIP3   OH216250   4.082   1.947   1.765 -0.9917  0.8367  1.2831
 5429TIP3    H116251   4.142   1.950   1.690 -2.4002 -2.2106 -0.1590
 5429TIP3    H216252   4.051   2.037   1.775  0.0562  1.5459 -1.1436
 5430TIP3   OH216253   3.205   0.061   5.178 -0.2356 -0.1941  0.0701
 5430TIP3    H116254   3.278   0.099   5.128 -0.4283  0.3089  0.1734
 5430TIP3    H216255   3.246  -0.008   5.230  0.1040 -0.1804 -0.1722
 5431TIP3   OH216256   4.172   5.753   4.994 -0.0542  0.2212  0.9941
 5431TIP3    H116257   4.236   5.821   5.017 -1.3327  2.0448 -0.5097
 5431TIP3    H216258   4.215   5.671   5.016  0.9632  1.5246  4.4015
 5432TIP3   OH216259   0.383   1.754   2.299  0.0633 -0.7064  0.1607
 5432TIP3    H116260   0.320   1.735   2.368 -1.1621 -0.2942 -0.7941
 5432TIP3    H216261   0.346   1.712   2.221  0.0489  0.9984 -0.7971
 5433TIP3   OH216262   1.930   6.036   3.523  0.0727 -0.6683  0.3871
 5433TIP3    H116263   1.958   5.945   3.509  0.8067 -0.4363  0.2670
 5433TIP3    H216264   1.898   6.065   3.437 -0.2597 -0.8442  0.4509
 5434TIP3   OH216265   5.906   1.135   5.859 -0.0359  0.3248  0.0538
 5434TIP3    H116266   5.878   1.205   5.917 -1.3113  0.8004 -1.0863
 5434TIP3    H216267   5.897   1.171   5.771 -0.1779 -1.0683 -0.5315
 5435TIP3   OH216268   6.214   3.408   5.760 -0.0671 -0.7471 -0.5839
 5435TIP3    H116269   6.121   3.400   5.738 -1.7944  0.3931  4.9271
 5435TIP3    H216270   6.241   3.320   5.786 -1.0201 -0.3396  1.9821
 5436TIP3   OH216271   2.481   0.765   1.851  0.2934 -0.5649  0.2276
 5436TIP3    H116272   2.460   0.856   1.873 -0.0031 -0.2871 -1.1353
 5436TIP3    H216273   2.513   0.728   1.933  2.1062  1.2545  0.4334
 5437TIP3   OH216274   4.432   6.671   1.701  0.3253  0.3998 -0.3315
 5437TIP3    H116275   4.425   6.734   1.772 -0.3501 -0.8566  0.7718
 5437TIP3    H216276   4.395   6.715   1.625  0.6223  1.6055  0.2113
 5438TIP3   OH216277   3.539   6.013   2.035 -0.3222  0.2723  0.2626
 5438TIP3    H116278   3.565   6.078   1.970  0.4233  0.6163  0.8997
 5438TIP3    H216279   3.596   5.938   2.017  0.8996  0.8894  1.4164
 5439TIP3   OH216280   2.703   1.837   2.082  0.0296 -0.2640 -0.6698
 5439TIP3    H116281   2.638   1.794   2.027  0.8738 -1.6341 -0.6632
 5439TIP3    H216282   2.787   1.817   2.040  0.4779  1.3614 -0.6238
 5440TIP3   OH216283   4.247   4.657   5.880  0.0978 -0.3746  0.9236
 5440TIP3    H116284   4.183   4.699   5.822  1.3078 -0.3098 -0.4520
 5440TIP3    H216285   4.286   4.588   5.826  1.5464 -0.0606  1.5137
 5441TIP3   OH216286   0.165   0.423   4.519  0.4132  0.0777  0.1234
 5441TIP3    H116287   0.238   0.478   4.492  0.9215 -0.7695 -0.2679
 5441TIP3    H216288   0.199   0.373   4.594  0.1807 -0.1884  0.0540
 5442TIP3   OH216289   0.807   3.216   0.464  0.0259 -0.2955  0.3768
 5442TIP3    H116290   0.722   3.183   0.434 -0.6334  1.3238  0.3424
 5442TIP3    H216291   0.807   3.308   0.438  2.1916 -0.4726 -0.4305
 5443TIP3   OH216292   5.155   0.978   5.293 -0.3404  0.0056 -0.6949
 5443TIP3    H116293   5.129   0.908   5.233  2.9960 -1.0048 -1.1466
 5443TIP3    H216294   5.251   0.980   5.288 -0.1767  2.9942  1.1729
 5444TIP3   OH216295   2.583   2.586   2.952 -0.0521 -0.1623 -0.1773
 5444TIP3    H116296   2.652   2.533   2.911 -1.5947 -2.8670  0.4448
 5444TIP3    H216297   2.567   2.543   3.036 -0.5004  2.1819  1.0180
 5445TIP3   OH216298   3.277   3.222   5.800 -0.2424 -0.1709  0.2446
 5445TIP3    H116299   3.341   3.197   5.734  0.1104  2.2579 -0.4053
 5445TIP3    H216300   3.323   3.282   5.858 -1.7730  1.2941  0.0218
 5446TIP3   OH216301   5.540   0.610   4.635  0.2277 -0.0463 -0.5357
 5446TIP3    H116302   5.513   0.702   4.632 -0.1727 -0.1772 -1.0577
 5446TIP3    H216303   5.567   0.596   4.726 -0.0167  0.4992 -0.3739
 5447TIP3   OH216304   4.282   1.628   2.452 -0.3175  0.1061  0.7733
 5447TIP3    H116305   4.300   1.666   2.366 -3.5897 -0.7780 -0.4471
 5447TIP3    H216306   4.356   1.569   2.468  0.5487  0.5724 -1.2309
 5448TIP3   OH216307   2.734   1.245   1.213 -0.6231  0.1172  0.1287
 5448TIP3    H116308   2.779   1.184   1.272 -2.2365  0.6993  2.0672
 5448TIP3    H216309   2.649   1.204   1.197 -1.1457  1.1423  0.2220
 5449TIP3   OH216310   6.539   0.463   2.690 -0.3009  0.4948 -0.5451
 5449TIP3    H116311   6.534   0.486   2.783  0.5956  0.8058 -0.5626
 5449TIP3    H216312   6.579   0.539   2.649  0.4855 -0.1300 -0.9800
 5450TIP3   OH216313   4.881   5.999   0.170  0.4378 -0.1851 -0.4546
 5450TIP3    H116314   4.945   6.038   0.229 -1.2551  0.5538  0.9984
 5450TIP3    H216315   4.870   6.064   0.100  0.6414  0.0657 -0.2539
 5451TIP3   OH216316   1.151   0.847   4.469 -0.1714 -0.8230  0.0239
 5451TIP3    H116317   1.190   0.766   4.502  0.2804 -1.1177 -1.1946
 5451TIP3    H216318   1.120   0.825   4.381 -0.2397  0.2690 -0.2427
 5452TIP3   OH216319   5.566   2.965   5.751 -0.2810 -0.0746 -0.1898
 5452TIP3    H116320   5.496   2.978   5.815 -0.0089  0.0000  0.0927
 5452TIP3    H216321   5.645   2.994   5.795 -0.3280  1.7135 -1.1982
 5453TIP3   OH216322   1.230   1.170   0.412 -0.3357 -0.1116 -0.0460
 5453TIP3    H116323   1.190   1.218   0.340  0.9683 -1.1681 -1.5483
 5453TIP3    H216324   1.205   1.079   0.396  2.6394 -0.8454 -1.1585
 5454TIP3   OH216325   2.457   0.714   2.232  0.0099 -0.3707 -0.5674
 5454TIP3    H116326   2.523   0.783   2.234  0.8423 -1.0875 -1.8696
 5454TIP3    H216327   2.375   0.759   2.250  0.7616  0.6357  0.5457
 5455TIP3   OH216328   5.268   2.427   2.460  0.5271 -0.4265  0.0890
 5455TIP3    H116329   5.217   2.349   2.483  0.3694 -0.7330 -1.2341
 5455TIP3    H216330   5.229   2.497   2.513 -1.2354 -0.6753 -0.8081
 5456TIP3   OH216331   4.508   4.722   3.943  0.7441 -0.1197 -0.5848
 5456TIP3    H116332   4.582   4.675   3.905  0.3373  0.1575 -1.7341
 5456TIP3    H216333   4.492   4.794   3.884 -2.3284 -1.8250 -2.0599
 5457TIP3   OH216334   0.179   2.170   5.803 -0.1178 -0.4993  0.3206
 5457TIP3    H116335   0.192   2.210   5.889 -0.4305 -2.2596  1.2138
 5457TIP3    H216336   0.090   2.137   5.805  0.2307 -1.4962 -0.2819
 5458TIP3   OH216337   5.287   5.011   3.895 -0.2049 -0.0063  0.6087
 5458TIP3    H116338   5.215   4.985   3.953  0.8540 -2.8777  0.7823
 5458TIP3    H216339   5.244   5.049   3.819 -1.7876  0.3771  1.6395
 5459TIP3   OH216340   3.374   4.894   0.852 -0.2981 -0.4086 -0.2453
 5459TIP3    H116341   3.380   4.818   0.910 -0.7920 -0.6463 -0.4973
 5459TIP3    H216342   3.291   4.936   0.875 -0.7574 -0.8093 -1.1353
 5460TIP3   OH216343   0.099   3.345   5.286 -0.2617 -0.6200  0.6366
 5460TIP3    H116344   0.179   3.306   5.252  0.0317 -0.5646  1.2367
 5460TIP3    H216345   0.037   3.272   5.292  0.2562 -0.9997  1.6764
 5461TIP3   OH216346   6.330   3.320   1.525  0.4345  0.7302 -0.5437
 5461TIP3    H116347   6.265   3.369   1.475  1.2814  1.5100 -0.9066
 5461TIP3    H216348   6.414   3.347   1.488  1.0446  0.7767  0.8035
 5462TIP3   OH216349   4.276   2.041   3.871 -0.1383  0.1674  0.4314
 5462TIP3    H116350   4.343   2.052   3.804 -1.0238 -0.5189 -0.6151
 5462TIP3    H216351   4.264   1.946   3.878 -1.2090  0.2758  0.3495
 5463TIP3   OH216352   1.183   6.081   3.327  0.0640 -0.2175 -0.0350
 5463TIP3    H116353   1.233   6.101   3.248  0.2320  1.0595  0.3674
 5463TIP3    H216354   1.155   5.990   3.317 -0.1141  0.0022 -1.6631
 5464TIP3   OH216355   0.704   6.155   1.405  0.1183 -0.4809  0.2634
 5464TIP3    H116356   0.693   6.193   1.492  1.5781  1.2500 -0.2381
 5464TIP3    H216357   0.737   6.227   1.351 -1.7185 -1.1986 -2.0083
 5465TIP3   OH216358   5.186   2.541   3.605  0.3987 -0.5505  0.1259
 5465TIP3    H116359   5.238   2.621   3.594 -1.4406  0.7556  0.4247
 5465TIP3    H216360   5.130   2.539   3.527 -1.1091 -0.3029  1.1699
 5466TIP3   OH216361   3.457   3.656   1.590 -0.1542 -0.5499  0.5937
 5466TIP3    H116362   3.433   3.747   1.610  1.8906  0.1856 -0.0476
 5466TIP3    H216363   3.553   3.656   1.589 -0.1075 -2.6393  0.1772
 5467TIP3   OH216364   0.549   1.566   4.940  0.1776  0.7495  0.5475
 5467TIP3    H116365   0.597   1.574   5.023  0.9528 -3.6173  0.7498
 5467TIP3    H216366   0.478   1.505   4.960 -0.4855  0.7018 -1.7181
 5468TIP3   OH216367   2.245   3.276   3.098  0.1944 -0.3287 -0.2468
 5468TIP3    H116368   2.307   3.324   3.153 -1.0791 -0.9552  1.8548
 5468TIP3    H216369   2.165   3.329   3.099 -0.4831 -1.3194  0.2128
 5469TIP3   OH216370   2.357   4.173   5.166 -0.2356  0.7353  0.0013
 5469TIP3    H116371   2.363   4.163   5.071  0.5494  0.0765  0.1106
 5469TIP3    H216372   2.347   4.268   5.179  1.4891  1.0467 -0.6767
 5470TIP3   OH216373   6.044   2.284   4.726  0.1312  0.2443 -0.1182
 5470TIP3    H116374   6.123   2.229   4.723  1.3822  1.9390  0.0701
 5470TIP3    H216375   5.988   2.242   4.791  0.8161 -1.0779 -0.3485
 5471TIP3   OH216376   4.336   1.639   4.157  0.3723 -0.4013  0.1365
 5471TIP3    H116377   4.359   1.561   4.206  0.1036 -1.7426 -1.7495
 5471TIP3    H216378   4.246   1.659   4.185 -0.1187 -1.6933 -0.4556
 5472TIP3   OH216379   4.558   2.875   1.315  0.0147  0.3576  0.3491
 5472TIP3    H116380   4.489   2.939   1.330 -0.0822 -0.1020  2.1134
 5472TIP3    H216381   4.535   2.833   1.232 -0.2658  2.1110 -0.5084
 5473TIP3   OH216382   6.261   2.340   0.374 -0.2584 -0.3778 -0.5098
 5473TIP3    H116383   6.289   2.268   0.318  0.4814  0.9205 -1.8968
 5473TIP3    H216384   6.343   2.386   0.395 -0.8488  0.9319 -0.9526
 5474TIP3   OH216385   1.787   2.056   3.738  0.0645  0.0141 -0.5727
 5474TIP3    H116386   1.778   2.125   3.804  0.9858 -2.6529  2.6631
 5474TIP3    H216387   1.881   2.042   3.730 -0.1045 -2.1295  0.4435
 5475TIP3   OH216388   0.478   4.862   0.556  0.3854  0.3798  0.2776
 5475TIP3    H116389   0.409   4.912   0.600  0.2464 -1.2794  2.0927
 5475TIP3    H216390   0.431   4.791   0.511  0.8211 -0.3834  0.9924
 5476TIP3   OH216391   0.479   6.106   1.831  0.8426 -0.4343  0.0692
 5476TIP3    H116392   0.416   6.108   1.759 -0.5216 -1.2422  1.1908
 5476TIP3    H216393   0.547   6.168   1.805 -1.2416  1.8144 -0.4441
 5477TIP3   OH216394   4.192   1.102   0.189 -0.5854 -0.2543 -0.0486
 5477TIP3    H116395   4.247   1.164   0.140 -1.7678  1.2607  0.4646
 5477TIP3    H216396   4.175   1.031   0.127  0.2731  0.2371 -0.8753
 5478TIP3   OH216397   6.708   0.642   3.435 -0.0196  0.1288  0.2384
 5478TIP3    H116398   6.739   0.715   3.489  1.1572  0.3675 -0.7210
 5478TIP3    H216399   6.638   0.681   3.381 -0.8520  0.0086  1.1912
 5479TIP3   OH216400   3.223   4.087   5.588  0.3131 -0.1109  0.0870
 5479TIP3    H116401   3.261   4.102   5.674  1.4790  1.6924 -0.6886
 5479TIP3    H216402   3.287   4.031   5.543 -0.9658 -2.2763  0.7944
 5480TIP3   OH216403   3.841   5.727   0.560  0.1884  0.1562  0.2210
 5480TIP3    H116404   3.821   5.802   0.505  0.1857  0.5571  0.7552
 5480TIP3    H216405   3.835   5.652   0.502 -1.7127  0.3610  0.0649
 5481TIP3   OH216406   1.868   4.715   3.416  0.6244 -0.4715 -0.4614
 5481TIP3    H116407   1.836   4.646   3.358 -2.5850  1.1885 -0.9443
 5481TIP3    H216408   1.841   4.688   3.503 -1.0914  0.2953 -0.7093
 5482TIP3   OH216409   3.205   4.265   4.988  0.0306  0.1543  0.0555
 5482TIP3    H116410   3.296   4.282   4.963  0.3319 -0.9173  0.3647
 5482TIP3    H216411   3.186   4.332   5.054  0.3150  0.9013 -0.6087
 5483TIP3   OH216412   5.254   3.563   0.896  0.2609 -0.5867 -0.0257
 5483TIP3    H116413   5.181   3.546   0.957 -0.0475 -0.3101 -0.3181
 5483TIP3    H216414   5.251   3.657   0.881  3.0530  0.1679  2.9810
 5484TIP3   OH216415   2.314   5.294   2.575  0.4540 -0.1684 -0.3272
 5484TIP3    H116416   2.373   5.246   2.634 -0.7590  1.6169  2.5641
 5484TIP3    H216417   2.226   5.273   2.607 -0.2786  0.6033 -1.7439
 5485TIP3   OH216418   2.051   1.849   0.578  0.6807  0.1636 -0.2779
 5485TIP3    H116419   2.021   1.763   0.548  2.2829 -0.5826  0.1459
 5485TIP3    H216420   2.129   1.830   0.631 -0.3636  1.6623  1.9427
 5486TIP3   OH216421   4.378   2.722   0.466  0.7169  0.0118  0.5208
 5486TIP3    H116422   4.336   2.805   0.445 -2.0053 -1.3350  0.2694
 5486TIP3    H216423   4.420   2.694   0.385  0.7143  0.6238  0.3095
 5487TIP3   OH216424   3.301   1.365   4.161  0.5603  0.3804 -0.3293
 5487TIP3    H116425   3.318   1.382   4.254  0.7677 -0.3699 -0.2188
 5487TIP3    H216426   3.322   1.272   4.150  1.1879  0.6244 -1.2779
 5488TIP3   OH216427   2.171   1.152   4.577  0.1316 -0.1600  0.6402
 5488TIP3    H116428   2.197   1.151   4.485 -1.7995  1.9744 -0.0059
 5488TIP3    H216429   2.098   1.090   4.582 -1.2089  1.3285  0.1980
 5489TIP3   OH216430   1.866   4.215   2.087 -0.0606 -0.3102  0.7891
 5489TIP3    H116431   1.834   4.221   2.177 -0.3120  2.6469  0.5933
 5489TIP3    H216432   1.956   4.246   2.092 -0.1857  0.2130 -0.0051
 5490TIP3   OH216433   0.775   1.544   0.091 -0.1001  0.1020 -0.1368
 5490TIP3    H116434   0.701   1.517   0.037 -0.8348 -1.6430  1.6087
 5490TIP3    H216435   0.853   1.519   0.040 -0.7358 -0.3219 -0.9206
 5491TIP3   OH216436   3.184   4.641   0.662  0.5366  0.0646  0.4049
 5491TIP3    H116437   3.226   4.591   0.731  0.6428 -3.2495 -1.8328
 5491TIP3    H216438   3.256   4.683   0.615  0.6941  0.0855  0.6640
 5492TIP3   OH216439   1.404   5.734   3.172  0.4296  0.2230  0.2525
 5492TIP3    H116440   1.459   5.663   3.139  1.8676  2.1452 -1.7932
 5492TIP3    H216441   1.382   5.785   3.094  0.0722  2.4459  1.7234
 5493TIP3   OH216442   5.763   0.954   4.974 -0.2064 -0.2267  0.2634
 5493TIP3    H116443   5.825   0.881   4.965 -0.3012 -0.2651 -0.0990
 5493TIP3    H216444   5.680   0.912   4.998  0.1284 -0.0969  1.7441
 5494TIP3   OH216445   3.525   4.879   0.365 -0.2357  0.0238 -0.3544
 5494TIP3    H116446   3.611   4.908   0.333 -0.5120  0.7141 -0.4816
 5494TIP3    H216447   3.540   4.858   0.458  0.1098 -0.0415 -0.4221
 5495TIP3   OH216448   0.440   3.976   0.691 -0.0382 -0.2183 -0.0726
 5495TIP3    H116449   0.356   3.937   0.666 -0.1985  0.0288  0.0688
 5495TIP3    H216450   0.444   4.057   0.641  0.4551 -0.5891 -0.6304
 5496TIP3   OH216451   2.528   5.855   1.826 -0.0209  0.2101  0.7129
 5496TIP3    H116452   2.450   5.806   1.798 -1.2573  1.9662  0.9367
 5496TIP3    H216453   2.601   5.812   1.780 -1.3132 -0.4347 -0.8473
 5497TIP3   OH216454   5.255   3.604   1.299  0.3080  0.4647  0.7494
 5497TIP3    H116455   5.315   3.667   1.339  1.5778 -0.0070 -0.3345
 5497TIP3    H216456   5.312   3.534   1.267 -0.8136  0.0734 -0.4646
 5498TIP3   OH216457   6.401   2.623   3.641  1.0221  0.3941 -0.1588
 5498TIP3    H116458   6.408   2.671   3.724 -2.2169  1.0713 -0.1314
 5498TIP3    H216459   6.379   2.534   3.667 -0.9285  0.8119 -0.1929
 5499TIP3   OH216460   0.941   3.812   4.927 -0.2987 -0.2515  0.1394
 5499TIP3    H116461   1.011   3.749   4.944 -0.0188 -0.0394 -0.2231
 5499TIP3    H216462   0.927   3.808   4.833 -0.6330 -0.1407  0.1815
 5500TIP3   OH216463   6.740   5.420   0.309  0.4207  0.4628  0.1508
 5500TIP3    H116464   6.787   5.341   0.283  1.4928  1.1322 -0.0066
 5500TIP3    H216465   6.770   5.487   0.248 -1.6363  0.6539 -0.6884
 5501TIP3   OH216466   0.552   3.805   4.153 -0.0452 -0.5912 -0.6031
 5501TIP3    H116467   0.500   3.881   4.127 -0.2035 -0.8647 -1.1117
 5501TIP3    H216468   0.501   3.730   4.123 -1.0910 -1.0297  2.0690
 5502TIP3   OH216469   0.089   5.267   3.170 -0.3347  0.5001 -0.1158
 5502TIP3    H116470   0.168   5.295   3.125 -0.8304  1.5609 -0.3465
 5502TIP3    H216471   0.017   5.294   3.112 -0.8527 -1.1792 -0.3123
 5503TIP3   OH216472   0.915   1.801   0.554  0.2768  0.0230  0.9430
 5503TIP3    H116473   0.971   1.775   0.481 -0.5882  0.0100  0.2710
 5503TIP3    H216474   0.866   1.877   0.521  0.2672  0.3489  1.6952
 5504TIP3   OH216475   0.935   0.712   5.073 -0.7763  0.1428  0.2805
 5504TIP3    H116476   0.914   0.665   4.992  1.7201 -2.0929  0.8160
 5504TIP3    H216477   0.864   0.688   5.133 -1.3699 -0.1050 -0.4925
 5505TIP3   OH216478   5.303   5.525   0.971  0.2240  1.1947 -0.1628
 5505TIP3    H116479   5.257   5.567   0.899 -0.4748  1.2662  0.3132
 5505TIP3    H216480   5.330   5.597   1.028 -1.2050  1.0171  0.7883
 5506TIP3   OH216481   2.753   5.132   0.824  0.0393 -0.4005  0.0591
 5506TIP3    H116482   2.774   5.184   0.746  0.3161  0.0204  0.4087
 5506TIP3    H216483   2.771   5.191   0.897  0.4081 -1.0040  0.4657
 5507TIP3   OH216484   5.653   5.992   3.417  0.4488  0.2697  0.1330
 5507TIP3    H116485   5.570   5.971   3.460 -0.7340  0.4507 -1.9444
 5507TIP3    H216486   5.659   6.088   3.421 -1.8107  0.7445 -3.6113
 5508TIP3   OH216487   4.744   0.514   4.113 -0.6862  0.5672 -0.2877
 5508TIP3    H116488   4.656   0.546   4.132 -0.0077  2.6004 -0.3298
 5508TIP3    H216489   4.794   0.592   4.093  1.4161 -0.4018  0.8277
 5509TIP3   OH216490   4.170   6.430   1.411  0.3118 -0.3582  0.7860
 5509TIP3    H116491   4.107   6.473   1.353  2.3120 -1.8030 -2.7857
 5509TIP3    H216492   4.116   6.381   1.473 -1.9770  2.0387  0.8487
 5510TIP3   OH216493   2.640   2.803   2.133  0.0941  0.2014  0.1647
 5510TIP3    H116494   2.719   2.789   2.185  0.4120 -0.9286 -0.6021
 5510TIP3    H216495   2.655   2.886   2.088  0.2948  0.6234  0.9849
 5511TIP3   OH216496   4.731   2.575   2.151  0.3169  0.3261  0.1300
 5511TIP3    H116497   4.711   2.598   2.060  0.6264 -0.5793 -0.1785
 5511TIP3    H216498   4.802   2.635   2.175 -0.1173  0.9207 -0.0492
 5512TIP3   OH216499   4.486   1.929   0.749 -0.2190 -0.3341 -0.1446
 5512TIP3    H116500   4.469   1.841   0.716  1.3765 -0.9348  0.5668
 5512TIP3    H216501   4.581   1.937   0.749 -0.2397  0.5513  1.9545
 5513TIP3   OH216502   1.212   6.052   0.039 -0.3292 -0.2106  0.2355
 5513TIP3    H116503   1.203   6.042   0.133 -2.4425  0.2142  0.1340
 5513TIP3    H216504   1.306   6.043   0.022 -0.1571 -3.1181  2.0142
 5514TIP3   OH216505   0.914   6.069   4.013  0.2709 -0.1389 -0.0109
 5514TIP3    H116506   0.934   6.131   3.944  2.1328 -2.0748 -1.3311
 5514TIP3    H216507   0.968   6.097   4.087 -0.3453  0.8801  0.0641
 5515TIP3   OH216508   0.051   5.600   2.389 -0.0482 -0.5009  0.1689
 5515TIP3    H116509   0.122   5.660   2.368  1.3420 -2.1096  0.0635
 5515TIP3    H216510  -0.017   5.619   2.325  1.3489 -0.6576 -1.4155
 5516TIP3   OH216511   6.834   3.886   0.210  0.3529 -0.1701 -0.0943
 5516TIP3    H116512   6.796   3.836   0.282  0.6862 -1.8358 -1.0308
 5516TIP3    H216513   6.844   3.975   0.245  2.0077 -1.2606  2.4851
 5517TIP3   OH216514   1.961   2.199   5.436 -0.1198 -0.2916 -0.1516
 5517TIP3    H116515   2.000   2.196   5.349 -0.0335 -0.1694 -0.1166
 5517TIP3    H216516   1.983   2.285   5.470 -0.8259 -0.0370 -0.3177
 5518TIP3   OH216517   6.404   3.073   5.617 -0.4084 -0.2517 -0.1050
 5518TIP3    H116518   6.399   2.979   5.633 -0.0703 -0.0799  1.1137
 5518TIP3    H216519   6.334   3.091   5.555 -0.7997 -1.2248  0.0394
 5519TIP3   OH216520   6.504   6.367   2.727  0.3720 -0.5468  0.1263
 5519TIP3    H116521   6.531   6.276   2.728 -0.0483 -0.8788 -3.8109
 5519TIP3    H216522   6.413   6.366   2.696  0.8906  1.1903 -1.7064
 5520TIP3   OH216523   4.157   0.031   5.503  0.4988  0.0963  0.3859
 5520TIP3    H116524   4.127   0.114   5.465  1.1353  0.2779  0.2765
 5520TIP3    H216525   4.133  -0.035   5.438 -1.0244  0.0325  0.9569
 5521TIP3   OH216526   6.196   3.088   5.454  0.0564  0.5496 -0.4277
 5521TIP3    H116527   6.111   3.074   5.495  0.6230 -1.8185  0.1120
 5521TIP3    H216528   6.190   3.040   5.371  1.1250 -0.4561  0.0404
 5522TIP3   OH216529   4.353   1.810   5.636 -0.1319  0.2478  0.0912
 5522TIP3    H116530   4.320   1.745   5.697  0.0290  0.3815  0.3204
 5522TIP3    H216531   4.370   1.761   5.555 -2.3650  0.4541 -0.5542
 5523TIP3   OH216532   1.420   3.882   5.345  0.2001  0.0007 -0.1811
 5523TIP3    H116533   1.506   3.840   5.349  1.5235  2.5154 -0.4847
 5523TIP3    H216534   1.421   3.945   5.416 -1.0951  0.5929 -0.6664
 5524TIP3   OH216535   0.551   1.453   3.992  0.5454  0.1523 -0.6027
 5524TIP3    H116536   0.466   1.423   4.025  0.6049 -0.5693 -1.0729
 5524TIP3    H216537   0.591   1.498   4.066  0.0337 -0.0973 -0.1673
 5525TIP3   OH216538   0.363   2.857   0.400  0.0022  0.5217 -0.2118
 5525TIP3    H116539   0.356   2.777   0.454 -0.2171  0.4101 -0.4069
 5525TIP3    H216540   0.274   2.890   0.394  0.1203  0.8949  0.0330
 5526TIP3   OH216541   0.998   1.567   4.745 -0.6869 -0.1663 -0.2846
 5526TIP3    H116542   0.991   1.645   4.799  0.9787 -1.6943  2.3354
 5526TIP3    H216543   0.912   1.525   4.752 -0.9597  0.4226 -0.1038
 5527TIP3   OH216544   4.563   3.106   5.198 -0.3950 -0.4589 -0.0224
 5527TIP3    H116545   4.622   3.031   5.201 -0.2763 -0.3882  3.1884
 5527TIP3    H216546   4.594   3.163   5.269 -1.0115  2.2536 -1.7700
 5528TIP3   OH216547   1.151   0.155   1.262  0.1182 -0.7290  0.3569
 5528TIP3    H116548   1.228   0.200   1.296  0.6828 -0.6158 -1.0247
 5528TIP3    H216549   1.175   0.062   1.263 -0.4765 -0.8995  1.7485
 5529TIP3   OH216550   1.218   5.657   1.040 -0.4722  0.1815  0.5016
 5529TIP3    H116551   1.190   5.718   0.972 -0.1731  0.6523  0.7864
 5529TIP3    H216552   1.275   5.595   0.995 -0.8276  0.0746  0.1952
 5530TIP3   OH216553   3.153   0.512   2.632 -0.5469  0.4122  0.0507
 5530TIP3    H116554   3.118   0.561   2.557 -0.6803 -0.0906 -0.2221
 5530TIP3    H216555   3.182   0.579   2.693  1.5745  0.9127 -1.3633
 5531TIP3   OH216556   1.100   1.750   3.782  0.3033  0.1889  0.8236
 5531TIP3    H116557   1.046   1.776   3.857  0.9497 -0.0229  1.3757
 5531TIP3    H216558   1.189   1.749   3.817  0.5398 -0.5358  0.2153
 5532TIP3   OH216559   1.732   5.587   3.699  0.1071  0.0673 -0.0719
 5532TIP3    H116560   1.690   5.506   3.670  0.6968 -0.7997  1.3968
 5532TIP3    H216561   1.795   5.559   3.765  0.0481  1.7606  0.7506
 5533TIP3   OH216562   2.352   4.206   3.894 -0.3232 -0.4464  0.4888
 5533TIP3    H116563   2.419   4.138   3.902 -0.6378 -0.6472  1.4888
 5533TIP3    H216564   2.280   4.176   3.950 -0.4105  0.7725  1.0641
 5534TIP3   OH216565   0.246   6.820   3.775  0.0908  0.0835  0.2786
 5534TIP3    H116566   0.276   6.730   3.788  1.4637  0.4666 -0.1165
 5534TIP3    H216567   0.241   6.830   3.680  2.8561  1.2990  0.1745
 5535TIP3   OH216568   6.788   5.082   0.316 -0.8139 -0.0701  0.2923
 5535TIP3    H116569   6.713   5.032   0.347 -0.5410  0.0880  1.2532
 5535TIP3    H216570   6.851   5.077   0.388  0.8856 -1.8035 -1.2482
 5536TIP3   OH216571   0.970   2.090   4.124 -0.2693  0.4975  0.1848
 5536TIP3    H116572   1.040   2.156   4.116 -0.7230  0.8473 -1.2541
 5536TIP3    H216573   0.947   2.091   4.216  2.3470 -0.3817  0.9439
 5537TIP3   OH216574   4.054   6.539   3.868  0.2892 -0.0875 -0.5058
 5537TIP3    H116575   4.062   6.628   3.833 -2.9174  0.2490 -0.6536
 5537TIP3    H216576   3.984   6.499   3.816 -0.2099 -1.7599  1.3427
 5538TIP3   OH216577   6.820   2.841   4.078 -0.0860 -0.4385 -0.8761
 5538TIP3    H116578   6.889   2.830   4.013  0.1957 -0.6531 -0.5425
 5538TIP3    H216579   6.778   2.755   4.084  0.1987 -0.5482 -0.4260
 5539TIP3   OH216580   5.384   4.214   3.091  0.0377  0.4517  0.2897
 5539TIP3    H116581   5.372   4.120   3.104  0.6048  0.2972 -0.2909
 5539TIP3    H216582   5.297   4.251   3.107 -0.3521 -0.2466 -0.1863
 5540TIP3   OH216583   2.168   5.514   5.541 -0.6536  0.1601  0.4347
 5540TIP3    H116584   2.231   5.502   5.469  0.0119  1.6350  0.7195
 5540TIP3    H216585   2.124   5.430   5.549  2.0382 -1.3058  0.9288
 5541TIP3   OH216586   3.383   0.572   4.517  0.4888 -0.0029 -0.1108
 5541TIP3    H116587   3.373   0.606   4.606 -0.6688 -1.3206  0.2925
 5541TIP3    H216588   3.477   0.555   4.508  0.4351 -1.4609  1.5060
 5542TIP3   OH216589   5.648   3.938   3.297  0.0990 -0.0778  0.0802
 5542TIP3    H116590   5.696   4.001   3.243 -0.5995  0.1475 -0.3029
 5542TIP3    H216591   5.556   3.955   3.276 -0.1357 -0.6530  0.6178
 5543TIP3   OH216592   6.596   2.163   0.605  0.0223  0.4447  0.2452
 5543TIP3    H116593   6.534   2.235   0.602 -2.3318 -1.4786 -0.8122
 5543TIP3    H216594   6.574   2.115   0.685  1.6753  0.9148  1.0344
 5544TIP3   OH216595   0.067   0.224   0.515 -0.2497 -0.1535 -0.1654
 5544TIP3    H116596   0.152   0.232   0.473 -0.8078 -1.9751 -1.7648
 5544TIP3    H216597   0.010   0.185   0.448 -2.4969  1.4559  0.6705
 5545TIP3   OH216598   5.916   1.433   3.989  0.1848 -0.1960  0.6349
 5545TIP3    H116599   5.835   1.455   4.034  0.3227  3.7184 -0.6598
 5545TIP3    H216600   5.969   1.513   3.993  2.7675 -1.6490 -1.0940
 5546TIP3   OH216601   2.972   3.055   1.337 -0.4065 -0.0727  0.0909
 5546TIP3    H116602   2.976   2.971   1.383 -1.5526 -0.3398 -0.2641
 5546TIP3    H216603   3.025   3.114   1.391  0.7748 -1.1134  0.1176
 5547TIP3   OH216604   6.380   0.769   0.271  0.8329 -0.3264  0.4326
 5547TIP3    H116605   6.324   0.788   0.347  1.5372  0.7241  0.6975
 5547TIP3    H216606   6.318   0.749   0.201  0.1371 -0.0291  0.9461
 5548TIP3   OH216607   4.676   1.934   2.578 -0.6638  0.2502  0.7716
 5548TIP3    H116608   4.691   1.861   2.518  0.5368  1.1401 -0.0653
 5548TIP3    H216609   4.606   1.903   2.636 -1.8941 -0.6662 -1.0736
 5549TIP3   OH216610   3.748   2.748   5.560 -1.2036  0.0379 -0.7368
 5549TIP3    H116611   3.704   2.677   5.607 -1.7849  0.7001 -0.2613
 5549TIP3    H216612   3.685   2.774   5.493 -2.3749  2.1578  1.0295
 5550TIP3   OH216613   2.995   3.035   2.721  0.4110  0.2972 -0.3005
 5550TIP3    H116614   3.025   2.959   2.771 -0.3244 -0.5265 -1.0693
 5550TIP3    H216615   2.913   3.061   2.763  0.3046  0.2278 -0.4638
 5551TIP3   OH216616   5.121   5.258   3.168  0.1683 -0.3421 -0.5847
 5551TIP3    H116617   5.215   5.247   3.154  0.3164  1.0649 -0.8196
 5551TIP3    H216618   5.111   5.348   3.197 -1.3037  0.1658 -2.4822
 5552TIP3   OH216619   3.568   1.510   0.166  0.2960 -0.1750 -0.2402
 5552TIP3    H116620   3.661   1.529   0.152 -0.2777  2.0495 -1.5561
 5552TIP3    H216621   3.550   1.434   0.110  0.6041  1.6069 -2.9493
 5553TIP3   OH216622   1.799   3.139   5.275  0.2794  0.3210  0.3733
 5553TIP3    H116623   1.816   3.056   5.320 -1.9323  0.8227  2.2891
 5553TIP3    H216624   1.719   3.172   5.314  0.9281  3.2695 -0.5333
 5554TIP3   OH216625   6.245   2.135   5.840 -0.0394  0.2030  0.1575
 5554TIP3    H116626   6.215   2.218   5.801 -0.7257 -0.9489 -1.9269
 5554TIP3    H216627   6.164   2.085   5.854  0.4781 -0.7134 -0.0793
 5555TIP3   OH216628   1.154   3.592   2.865 -0.2129 -0.4103 -0.1288
 5555TIP3    H116629   1.194   3.517   2.908  0.5917  0.4221  0.6092
 5555TIP3    H216630   1.078   3.614   2.919 -0.2105 -0.4302 -0.1175
 5556TIP3   OH216631   5.153   1.042   4.116 -0.2869 -0.0119  0.3354
 5556TIP3    H116632   5.223   0.976   4.119  0.6677  0.9772  0.5074
 5556TIP3    H216633   5.142   1.061   4.023 -1.8928 -1.7538  0.1265
 5557TIP3   OH216634   3.938   0.050   4.076  0.3229 -0.4831 -0.0661
 5557TIP3    H116635   3.969  -0.030   4.033  1.1982 -0.8242  1.1729
 5557TIP3    H216636   3.846   0.032   4.095  0.8650 -1.8232  1.5206
 5558TIP3   OH216637   0.044   1.592   4.962 -0.5076 -0.2300 -0.1367
 5558TIP3    H116638   0.089   1.657   4.909  0.5873  0.0698  1.1046
 5558TIP3    H216639  -0.018   1.551   4.902 -1.3905  2.0732 -0.9145
 5559TIP3   OH216640   2.362   3.250   5.212  0.0483 -0.2809 -0.3562
 5559TIP3    H116641   2.429   3.286   5.154 -0.1067 -0.2254 -0.4991
 5559TIP3    H216642   2.319   3.182   5.160 -0.5799  0.2658 -0.5554
 5560TIP3   OH216643   3.521   3.846   4.583 -0.2369  0.1386 -0.3608
 5560TIP3    H116644   3.497   3.772   4.528 -2.0706  1.0955 -0.9133
 5560TIP3    H216645   3.483   3.827   4.668 -2.4865  1.2935 -1.0298
 5561TIP3   OH216646   6.800   4.245   1.198 -0.0189  0.5697  0.3770
 5561TIP3    H116647   6.752   4.288   1.128 -0.6160 -0.6354  0.0167
 5561TIP3    H216648   6.822   4.159   1.163  1.7973  0.8182  0.8086
 5562TIP3   OH216649   4.441   1.580   3.732  0.0239  0.4211 -0.5215
 5562TIP3    H116650   4.423   1.541   3.646 -1.2913  1.7550 -0.9060
 5562TIP3    H216651   4.529   1.617   3.724 -0.1836  0.7524 -1.3982
 5563TIP3   OH216652   6.127   4.568   4.505 -0.1820 -0.2409 -0.7258
 5563TIP3    H116653   6.150   4.645   4.557  1.5017 -1.3229  0.2485
 5563TIP3    H216654   6.162   4.585   4.418  0.9901 -0.2642 -0.2691
 5564TIP3   OH216655   2.867   2.073   4.800  0.3068  0.2808  0.2142
 5564TIP3    H116656   2.962   2.070   4.812  0.3398 -1.0104 -0.1305
 5564TIP3    H216657   2.846   2.166   4.789  1.7820  0.4794 -1.4612
 5565TIP3   OH216658   2.962   6.682   4.064  0.2569  0.1597  0.0366
 5565TIP3    H116659   2.986   6.592   4.083  0.7864  0.4091  0.5861
 5565TIP3    H216660   2.935   6.718   4.148  0.7962  0.7344 -0.0248
 5566TIP3   OH216661   3.164   1.171   1.542  0.0014  0.0743 -0.5156
 5566TIP3    H116662   3.164   1.120   1.623 -1.1650  0.4801 -0.2388
 5566TIP3    H216663   3.255   1.167   1.511  0.9538  1.4929  1.7979
 5567TIP3   OH216664   0.659   4.846   1.578 -0.1867  0.0888  0.2016
 5567TIP3    H116665   0.635   4.888   1.661  0.9048 -0.6678  0.9209
 5567TIP3    H216666   0.696   4.917   1.526  0.1903  0.3392  0.8023
 5568TIP3   OH216667   4.725   3.955   5.802  0.0150  0.4023  0.0809
 5568TIP3    H116668   4.763   3.867   5.810  0.7369  0.7879  1.0189
 5568TIP3    H216669   4.792   4.006   5.757 -1.0658  0.1023 -2.0136
 5569TIP3   OH216670   6.010   2.456   1.989  0.5151  0.0597  0.8361
 5569TIP3    H116671   6.047   2.406   1.916  0.0449  1.5360 -0.4731
 5569TIP3    H216672   5.952   2.394   2.033  0.5267 -0.7718 -0.2728
 5570TIP3   OH216673   2.592   4.109   2.969 -0.7776  0.5994  0.3395
 5570TIP3    H116674   2.563   4.193   3.004 -1.0345  0.6841 -0.0687
 5570TIP3    H216675   2.611   4.126   2.876  0.3313  0.4833  0.5281
 5571TIP3   OH216676   0.395   5.091   2.780 -0.4182 -0.2524  0.5462
 5571TIP3    H116677   0.414   5.070   2.871  0.5960  1.5558  0.8212
 5571TIP3    H216678   0.427   5.016   2.730  0.2533 -0.6840  1.6042
 5572TIP3   OH216679   6.574   3.369   5.850 -0.3306 -0.5632 -0.1253
 5572TIP3    H116680   6.609   3.455   5.872 -0.7962 -0.4860  0.3311
 5572TIP3    H216681   6.650   3.318   5.823  0.1253 -0.3691  0.7662
 5573TIP3   OH216682   4.074   4.821   5.074 -0.6772 -0.4013 -0.1045
 5573TIP3    H116683   4.045   4.876   5.001 -1.1490  0.5880  0.8056
 5573TIP3    H216684   4.001   4.822   5.136  0.5662  0.6449  1.4010
 5574TIP3   OH216685   0.896   0.408   3.862 -0.7834 -0.5399  0.2641
 5574TIP3    H116686   0.863   0.391   3.950  2.0456 -1.5576  1.2466
 5574TIP3    H216687   0.991   0.421   3.874 -0.1421 -1.6345 -2.7160
 5575TIP3   OH216688   3.987   3.870   0.167 -0.3633  0.7469 -0.4309
 5575TIP3    H116689   3.903   3.869   0.122  0.2723  1.7609 -1.7424
 5575TIP3    H216690   3.976   3.811   0.241 -2.2791  1.0298 -0.4476
 5576TIP3   OH216691   6.997   3.880   2.799  0.9425  0.4488  0.0783
 5576TIP3    H116692   7.013   3.886   2.893 -0.1434  0.9008  0.2537
 5576TIP3    H216693   6.975   3.788   2.784 -0.1261  0.6159  0.5039
 5577TIP3   OH216694   0.810   4.859   4.028  0.3393 -0.0266  0.4599
 5577TIP3    H116695   0.753   4.814   3.964  0.3513 -0.2098  0.5782
 5577TIP3    H216696   0.773   4.947   4.034  0.4144  0.0330  0.1024
 5578TIP3   OH216697   6.290   6.701   3.965  0.1208 -0.5278 -0.1615
 5578TIP3    H116698   6.202   6.676   3.994 -0.1185  0.5666  0.1144
 5578TIP3    H216699   6.293   6.675   3.873 -0.6540 -0.1727 -0.2976
 5579TIP3   OH216700   2.578   4.498   0.589 -0.1777  0.1069 -0.3364
 5579TIP3    H116701   2.633   4.523   0.514 -0.9989  0.2205 -0.9221
 5579TIP3    H216702   2.624   4.532   0.665  0.5595  0.2009 -0.8150
 5580TIP3   OH216703   0.509   5.078   4.505 -0.5109  0.0999 -0.2219
 5580TIP3    H116704   0.555   5.013   4.557  0.0404  1.5523  1.1800
 5580TIP3    H216705   0.423   5.086   4.547 -0.0260  1.3582  0.5658
 5581TIP3   OH216706   2.863   4.712   1.935 -0.1342 -0.6460  0.0308
 5581TIP3    H116707   2.809   4.750   2.005 -2.3538 -0.9378 -1.4399
 5581TIP3    H216708   2.927   4.657   1.982  0.0537  1.0599  1.9275
 5582TIP3   OH216709   5.365   3.102   3.998  0.1847 -0.0527 -0.1526
 5582TIP3    H116710   5.441   3.159   4.007 -0.8109  1.3780 -0.3950
 5582TIP3    H216711   5.364   3.050   4.078  0.3562  1.2699  0.7324
 5583TIP3   OH216712   3.317   1.096   3.586  0.3193 -0.2574  0.1398
 5583TIP3    H116713   3.360   1.031   3.531 -0.4717 -0.2876 -0.4692
 5583TIP3    H216714   3.382   1.165   3.600  0.0087  0.6207 -2.3164
 5584TIP3   OH216715   4.648   1.100   0.197  0.0253  0.0392  0.4904
 5584TIP3    H116716   4.728   1.123   0.244  0.0105  0.0415  0.5142
 5584TIP3    H216717   4.580   1.096   0.264  0.4765 -2.4635  0.9213
 5585TIP3   OH216718   4.064   0.180   0.893 -0.2101 -0.5218 -0.1482
 5585TIP3    H116719   4.021   0.191   0.808 -1.3156  1.9143  0.6539
 5585TIP3    H216720   3.994   0.156   0.953  0.2284 -0.2734  0.4670
 5586TIP3   OH216721   6.248   6.370   0.338 -0.1711  0.3952 -0.0815
 5586TIP3    H116722   6.275   6.436   0.274 -1.4979  1.0950  0.0358
 5586TIP3    H216723   6.161   6.343   0.309 -0.6913  0.5387  1.2688
 5587TIP3   OH216724   3.539   2.733   2.653 -0.3219  0.1625 -0.8019
 5587TIP3    H116725   3.623   2.687   2.652  0.3102  1.2879 -0.8382
 5587TIP3    H216726   3.547   2.795   2.725 -1.3044 -0.0242 -0.5201
 5588TIP3   OH216727   6.487   3.048   5.130  0.4380 -0.4993  0.3035
 5588TIP3    H116728   6.491   3.099   5.211 -0.1784 -0.8902  0.5882
 5588TIP3    H216729   6.462   3.112   5.063  0.7740 -0.2104  0.4434
 5589TIP3   OH216730   2.813   2.717   0.511  0.4188 -0.1185  0.0719
 5589TIP3    H116731   2.858   2.788   0.556  0.3904 -0.0201 -0.0542
 5589TIP3    H216732   2.777   2.663   0.582  2.1694 -1.1579  0.2131
 5590TIP3   OH216733   6.319   3.109   2.475  0.3764  0.0323  0.1197
 5590TIP3    H116734   6.262   3.185   2.478  0.8564  0.4525 -0.7292
 5590TIP3    H216735   6.260   3.034   2.480 -0.1139  0.4525  0.8101
 5591TIP3   OH216736   5.973   1.964   3.007  0.2921  0.3899  0.2957
 5591TIP3    H116737   5.940   1.950   2.918  0.7036 -0.4317  0.2628
 5591TIP3    H216738   5.955   1.881   3.052  0.9451  0.4701  0.7070
 5592TIP3   OH216739   5.332   0.816   4.170  0.3597  0.6127  0.1149
 5592TIP3    H116740   5.274   0.785   4.239 -0.4003 -1.3095 -1.2912
 5592TIP3    H216741   5.414   0.769   4.184  0.1501  0.0947 -0.3737
 5593TIP3   OH216742   6.752   1.540   4.722 -0.3820 -0.5133  0.2065
 5593TIP3    H116743   6.786   1.464   4.675 -0.2942  0.8038 -1.9449
 5593TIP3    H216744   6.818   1.608   4.709 -0.1219 -0.1890  2.6755
 5594TIP3   OH216745   3.660   6.690   0.324 -0.7068 -0.3653 -0.4145
 5594TIP3    H116746   3.703   6.771   0.295  0.0544 -0.3979  0.5482
 5594TIP3    H216747   3.730   6.641   0.369 -0.9118 -1.9870 -1.7742
 5595TIP3   OH216748   0.182   0.770   1.260 -0.4546 -0.1641 -0.2538
 5595TIP3    H116749   0.201   0.736   1.172 -0.4358  1.1940 -0.8017
 5595TIP3    H216750   0.232   0.852   1.265  4.0840 -2.6434  3.0100
 5596TIP3   OH216751   7.051   5.617   3.224  0.2004 -0.0119 -0.2150
 5596TIP3    H116752   7.100   5.695   3.251  0.9640 -0.5394 -0.0684
 5596TIP3    H216753   6.989   5.650   3.159 -0.3429  0.9452  0.7293
 5597TIP3   OH216754   4.928   0.186   2.918  0.2539  0.0756 -0.0295
 5597TIP3    H116755   4.886   0.134   2.985  1.5672 -0.6315  0.2820
 5597TIP3    H216756   4.875   0.173   2.839 -0.5286 -0.1584  0.5362
 5598TIP3   OH216757   5.576   3.543   0.416  0.1867  0.8285  0.1742
 5598TIP3    H116758   5.518   3.615   0.440 -0.7076  0.9583 -2.1114
 5598TIP3    H216759   5.646   3.583   0.365 -0.4610  0.1177 -1.3439
 5599TIP3   OH216760   6.984   2.519   4.374 -0.0531  0.4151 -0.3517
 5599TIP3    H116761   6.890   2.538   4.371 -0.7937 -2.7450 -0.5938
 5599TIP3    H216762   7.005   2.522   4.468  0.0988  2.8673 -0.3992
 5600TIP3   OH216763   5.149   6.057   3.265 -0.0276 -0.0803 -0.3490
 5600TIP3    H116764   5.219   6.109   3.305  1.0088 -0.3437 -1.7473
 5600TIP3    H216765   5.157   5.971   3.307 -0.1369  0.1502  0.1636
 5601TIP3   OH216766   4.363   2.516   0.637  0.1957  0.3008  0.1890
 5601TIP3    H116767   4.362   2.450   0.567  0.2508  0.2271  0.2574
 5601TIP3    H216768   4.335   2.597   0.594 -0.4195  0.1122  0.2289
 5602TIP3   OH216769   6.591   1.597   0.508 -0.0268  0.5720 -0.1908
 5602TIP3    H116770   6.557   1.533   0.571  2.1953  0.6069  1.1412
 5602TIP3    H216771   6.532   1.671   0.514 -1.5538 -0.5724 -0.3702
 5603TIP3   OH216772   3.424   5.350   3.032  0.0470  0.3136 -0.1273
 5603TIP3    H116773   3.382   5.388   3.109  0.7039  1.7230 -0.4223
 5603TIP3    H216774   3.379   5.392   2.958 -1.1129 -1.5998 -0.5725
 5604TIP3   OH216775   6.418   3.286   4.076  0.1033 -0.4086  0.5113
 5604TIP3    H116776   6.354   3.230   4.119 -0.2217 -0.5092 -0.0961
 5604TIP3    H216777   6.406   3.269   3.982  1.6835 -1.1735  0.4212
 5605TIP3   OH216778   2.508   6.605   3.826 -0.4567  0.2187 -0.2391
 5605TIP3    H116779   2.421   6.637   3.848 -0.1412  1.1803 -0.3416
 5605TIP3    H216780   2.540   6.665   3.758  0.7517  0.6230  0.6431
 5606TIP3   OH216781   6.483   3.772   4.288  0.2271  0.4699 -0.3346
 5606TIP3    H116782   6.439   3.720   4.221  1.6165 -0.9673 -0.1948
 5606TIP3    H216783   6.462   3.863   4.265 -2.9981 -0.0889 -0.0763
 5607TIP3   OH216784   0.313   6.603   2.495 -0.4190  0.1016 -0.0613
 5607TIP3    H116785   0.247   6.590   2.563 -0.4415 -1.4924 -0.3359
 5607TIP3    H216786   0.309   6.696   2.474 -1.1779  0.4065  1.3313
 5608TIP3   OH216787   1.004   2.114   0.662  0.3113  0.1939  0.0429
 5608TIP3    H116788   1.074   2.081   0.605  1.5007  2.2094  0.2414
 5608TIP3    H216789   0.993   2.046   0.728  1.6982 -0.4307 -0.3344
 5609TIP3   OH216790   5.635   2.553   3.296  0.1631 -0.4416  0.2677
 5609TIP3    H116791   5.653   2.583   3.385  0.8383 -2.0573  0.7286
 5609TIP3    H216792   5.541   2.539   3.293  0.1421 -0.4043  0.7486
 5610TIP3   OH216793   5.788   1.942   4.574  0.1461 -0.0435 -0.0725
 5610TIP3    H116794   5.798   1.891   4.654  0.6091 -0.3885 -0.3491
 5610TIP3    H216795   5.713   1.903   4.529 -0.7807  0.7978  0.6699
 5611TIP3   OH216796   1.832   1.786   2.179  0.5827 -0.1764 -0.3473
 5611TIP3    H116797   1.746   1.771   2.139  0.6063 -1.9562  0.1984
 5611TIP3    H216798   1.814   1.847   2.251  0.0530  0.6332 -1.1274
 5612TIP3   OH216799   3.201   6.636   0.914  0.1767 -0.1678  0.7692
 5612TIP3    H116800   3.159   6.650   0.999 -0.8311  0.1165  0.2421
 5612TIP3    H216801   3.146   6.685   0.853  2.2610  1.7070  0.2747
 5613TIP3   OH216802   7.081   3.486   1.453 -0.4090  0.5443 -0.3297
 5613TIP3    H116803   7.046   3.398   1.440 -1.1785  0.6469  0.8389
 5613TIP3    H216804   7.142   3.499   1.381  1.2716 -1.7139  0.5447
 5614TIP3   OH216805   5.452   4.711   4.860 -0.3325 -0.1230  0.3017
 5614TIP3    H116806   5.409   4.673   4.937  1.6591 -0.3086  1.3837
 5614TIP3    H216807   5.417   4.800   4.854 -0.7177 -0.2039  1.2429
 5615TIP3   OH216808   4.287   6.185   4.238 -0.3103  0.4827 -0.2921
 5615TIP3    H116809   4.242   6.269   4.242  0.5105  0.8923  0.7045
 5615TIP3    H216810   4.222   6.122   4.270 -0.0508  1.1448  1.6784
 5616TIP3   OH216811   2.356   1.442   0.154  0.2949 -0.4222 -1.0369
 5616TIP3    H116812   2.376   1.357   0.115 -0.5865 -0.9051 -0.4809
 5616TIP3    H216813   2.335   1.422   0.246  0.4774  0.4488 -0.7944
 5617TIP3   OH216814   0.408   4.274   3.158 -0.1934  0.1773 -0.3153
 5617TIP3    H116815   0.412   4.311   3.070  0.7121 -1.6294 -1.1084
 5617TIP3    H216816   0.496   4.237   3.172 -0.0244  1.1886  1.7364
 5618TIP3   OH216817   3.030   1.366   5.117  0.2031 -0.0203  0.0851
 5618TIP3    H116818   3.050   1.401   5.030 -1.7855  1.3423  0.1059
 5618TIP3    H216819   3.010   1.443   5.170  1.3064 -0.8289  1.7813
 5619TIP3   OH216820   4.114   4.396   0.359 -0.3874  0.0953  0.0588
 5619TIP3    H116821   4.050   4.432   0.421  0.6539  0.5324  0.9150
 5619TIP3    H216822   4.088   4.433   0.274 -1.8532 -0.5341  0.2021
 5620TIP3   OH216823   0.870   2.199   1.043 -0.0533 -0.2890  0.0081
 5620TIP3    H116824   0.828   2.225   1.125 -0.4103  1.2883 -0.6275
 5620TIP3    H216825   0.810   2.228   0.975  2.3694  3.0110 -0.9929
 5621TIP3   OH216826   1.079   5.079   5.681  0.4241 -0.3037 -0.5746
 5621TIP3    H116827   1.099   5.067   5.774  0.3956 -1.2126 -0.6834
 5621TIP3    H216828   1.068   5.174   5.671  1.2735 -0.1151  0.1728
 5622TIP3   OH216829   3.139   3.824   4.743  0.1452 -0.6253 -0.4956
 5622TIP3    H116830   3.088   3.905   4.748 -0.6731 -0.9392 -2.5933
 5622TIP3    H216831   3.098   3.765   4.805  0.5660  0.4377  0.8418
 5623TIP3   OH216832   6.623   5.768   1.387 -0.1059 -0.6391  0.4486
 5623TIP3    H116833   6.667   5.699   1.437 -0.6513 -1.5859 -0.3391
 5623TIP3    H216834   6.680   5.785   1.313 -0.1695 -0.5347  0.4229
 5624TIP3   OH216835   0.213   4.901   3.127 -0.5416  0.3991 -0.4401
 5624TIP3    H116836   0.122   4.923   3.111 -0.4661  1.0618  0.0163
 5624TIP3    H216837   0.213   4.806   3.138 -1.4220  0.5544  1.1381
 5625TIP3   OH216838   5.881   4.608   3.290 -0.0855 -0.0089 -0.5341
 5625TIP3    H116839   5.789   4.586   3.276 -0.3281  0.8515 -0.3432
 5625TIP3    H216840   5.908   4.552   3.363  0.1654 -1.8441 -1.9686
 5626TIP3   OH216841   6.163   0.187   1.112  0.3521 -0.7170  0.3677
 5626TIP3    H116842   6.255   0.184   1.086 -0.2995  0.2696 -2.3196
 5626TIP3    H216843   6.121   0.117   1.064 -0.6943  0.3762 -0.3780
 5627TIP3   OH216844   7.028   3.697   2.373  0.6703  0.4842 -0.3224
 5627TIP3    H116845   7.109   3.718   2.421  1.6266 -1.5487 -0.9587
 5627TIP3    H216846   6.992   3.621   2.418 -0.0691  0.4329 -0.9829
 5628TIP3   OH216847   6.869   6.779   1.009  0.4353 -0.2552 -0.8535
 5628TIP3    H116848   6.776   6.786   1.031  0.4139 -1.4107 -0.5134
 5628TIP3    H216849   6.870   6.753   0.917  0.4590  0.9443 -1.2087
 5629TIP3   OH216850   2.250   4.331   0.256  0.2651 -0.3223 -0.1782
 5629TIP3    H116851   2.299   4.317   0.337  1.3622 -1.3008 -0.9731
 5629TIP3    H216852   2.300   4.283   0.189 -1.2493 -0.5204 -1.2170
 5630TIP3   OH216853   6.896   4.089   3.391  0.0312  0.4601  0.7096
 5630TIP3    H116854   6.906   4.098   3.296 -0.4564 -0.9882  0.4900
 5630TIP3    H216855   6.812   4.130   3.411 -0.5027 -0.3860  0.2854
 5631TIP3   OH216856   5.523   3.709   4.235  0.8349 -0.3045 -0.1283
 5631TIP3    H116857   5.579   3.632   4.229  0.9096 -0.4154  1.4146
 5631TIP3    H216858   5.582   3.783   4.221  1.1379 -0.4708  0.2432
 5632TIP3   OH216859   4.336   4.000   0.499 -0.3314 -0.2549 -0.0088
 5632TIP3    H116860   4.374   3.960   0.422 -1.3184 -1.2574 -0.0030
 5632TIP3    H216861   4.241   3.995   0.485 -0.5089  0.8487  0.6210
 5633TIP3   OH216862   6.985   0.880   0.886  0.2040 -0.1848  0.5698
 5633TIP3    H116863   7.017   0.902   0.973 -0.6031 -0.3337  0.9040
 5633TIP3    H216864   6.930   0.954   0.860 -0.3960 -0.6156  0.6148
 5634TIP3   OH216865   5.387   5.092   1.173  0.3586  0.5294  0.4430
 5634TIP3    H116866   5.409   5.061   1.086  0.3319  1.6231  0.0360
 5634TIP3    H216867   5.460   5.149   1.198  0.3300  0.2866  1.1063
 5635TIP3   OH216868   2.692   1.667   5.702  0.0390  0.7115 -0.2271
 5635TIP3    H116869   2.699   1.715   5.785  3.1060  0.4048 -0.1658
 5635TIP3    H216870   2.622   1.604   5.716  0.7608  0.3613  2.3610
 5636TIP3   OH216871   0.540   1.062   3.047 -0.2946  0.7237 -0.5048
 5636TIP3    H116872   0.616   1.044   2.992  1.5247 -0.1303  2.0906
 5636TIP3    H216873   0.548   1.154   3.071  0.5131  0.4009  0.5302
 5637TIP3   OH216874   3.264   5.201   1.161  0.3072  0.1679 -0.0252
 5637TIP3    H116875   3.218   5.271   1.205  1.6133 -0.4076  2.4418
 5637TIP3    H216876   3.283   5.235   1.073 -2.5592  1.2880 -0.2865
 5638TIP3   OH216877   1.184   4.430   3.928  0.6428  0.1063  0.4308
 5638TIP3    H116878   1.231   4.431   3.845 -2.9223 -1.7989 -1.8393
 5638TIP3    H216879   1.161   4.338   3.941 -2.4613  0.8974  1.2804
 5639TIP3   OH216880   6.024   1.355   3.189 -0.4052 -0.5352 -0.7153
 5639TIP3    H116881   5.966   1.354   3.113 -0.8747 -0.8211 -0.3593
 5639TIP3    H216882   5.970   1.390   3.260  0.9204  2.9178 -1.1974
 5640TIP3   OH216883   0.133   0.506   2.502 -0.4879 -0.0640  0.0233
 5640TIP3    H116884   0.188   0.458   2.564  0.3070  1.4988  0.5565
 5640TIP3    H216885   0.043   0.488   2.531 -0.1425  0.1454  1.2686
 5641TIP3   OH216886   0.696   1.826   4.618 -0.0199 -0.4500 -0.6542
 5641TIP3    H116887   0.654   1.743   4.598 -1.3010 -0.2979  1.1676
 5641TIP3    H216888   0.789   1.810   4.605 -0.3530 -1.8000 -1.4918
 5642TIP3   OH216889   3.953   4.254   5.188  0.4277  0.3246  0.3553
 5642TIP3    H116890   4.020   4.318   5.163  0.3847  0.8817  1.5847
 5642TIP3    H216891   3.898   4.301   5.250  0.9133 -1.1475  1.9776
 5643TIP3   OH216892   0.797   6.505   3.351  0.5105  0.0700  0.3867
 5643TIP3    H116893   0.738   6.460   3.411 -1.1749  1.1830 -0.3647
 5643TIP3    H216894   0.855   6.436   3.319 -1.8428 -1.5994 -0.6019
 5644TIP3   OH216895   0.325   5.149   0.909  0.0753  0.4216 -0.1292
 5644TIP3    H116896   0.323   5.211   0.981 -3.9229 -0.5980  0.9085
 5644TIP3    H216897   0.407   5.100   0.921 -0.4150  0.2417  3.8551
 5645TIP3   OH216898   4.992   1.974   0.572 -0.0911 -0.5249  0.0103
 5645TIP3    H116899   5.000   1.897   0.516  1.3721 -0.0619 -0.4503
 5645TIP3    H216900   4.904   2.008   0.552 -0.6394 -1.8770  0.0008
 5646TIP3   OH216901   0.647   3.714   0.141 -0.0606  0.0727 -0.4592
 5646TIP3    H116902   0.598   3.777   0.088 -1.1037  0.8074  1.2746
 5646TIP3    H216903   0.581   3.676   0.199  0.9426 -1.0748 -0.0336
 5647TIP3   OH216904   2.988   3.537   1.199  0.6008  0.2397  0.1740
 5647TIP3    H116905   2.970   3.470   1.265  0.9147 -0.7331 -0.6915
 5647TIP3    H216906   2.924   3.606   1.217 -0.0517 -0.4995  0.8018
 5648TIP3   OH216907   4.017   6.583   5.642 -0.7053  0.1551 -0.8144
 5648TIP3    H116908   4.030   6.675   5.667 -0.9030  0.2738 -1.1449
 5648TIP3    H216909   4.103   6.544   5.650 -0.7091  0.2499 -0.1957
 5649TIP3   OH216910   4.343   4.488   5.688  0.1731 -0.1145  0.8270
 5649TIP3    H116911   4.275   4.438   5.642 -0.3511  1.2023  0.1250
 5649TIP3    H216912   4.409   4.505   5.621 -0.2617  1.2161  0.7176
 5650TIP3   OH216913   5.610   3.409   4.365 -0.5952  0.0403  0.0278
 5650TIP3    H116914   5.519   3.436   4.357 -0.0268  2.2145  0.3649
 5650TIP3    H216915   5.618   3.378   4.455 -0.8399  0.5367  0.2216
 5651TIP3   OH216916   4.771   6.564   1.448  0.2217  0.0543 -1.0231
 5651TIP3    H116917   4.849   6.594   1.494  0.5492 -0.3933 -1.2843
 5651TIP3    H216918   4.761   6.627   1.376 -0.3916  0.8573 -0.2622
 5652TIP3   OH216919   1.906   4.151   0.948  0.5972  0.0106  0.0667
 5652TIP3    H116920   1.936   4.067   0.982  0.4199 -0.2583 -0.4314
 5652TIP3    H216921   1.828   4.172   0.999 -0.0532 -0.7107 -0.5937
 5653TIP3   OH216922   0.721   0.649   5.210 -0.0167 -0.4396 -0.0735
 5653TIP3    H116923   0.652   0.710   5.235  0.7183  1.4235 -2.2170
 5653TIP3    H216924   0.675   0.577   5.167 -0.7355 -0.1791  0.2373
 5654TIP3   OH216925   6.123   1.320   5.108  0.0378  0.2363  0.3658
 5654TIP3    H116926   6.123   1.229   5.080 -2.8583  0.6033 -1.2046
 5654TIP3    H216927   6.176   1.366   5.042 -1.3142  0.1404 -0.8201
 5655TIP3   OH216928   3.947   4.988   4.907 -0.3899  0.8478 -0.2112
 5655TIP3    H116929   3.953   5.066   4.853 -0.5116  0.2807 -1.0657
 5655TIP3    H216930   3.854   4.968   4.910 -0.1685 -1.1670 -2.8615
 5656TIP3   OH216931   4.467   3.051   3.783  0.2041 -0.1211 -0.0649
 5656TIP3    H116932   4.452   2.984   3.716 -0.0453 -1.0705  0.9117
 5656TIP3    H216933   4.433   3.013   3.864 -1.6663  1.9298  0.2144
 5657TIP3   OH216934   2.222   3.371   3.675  0.2753  0.2427  0.3695
 5657TIP3    H116935   2.199   3.390   3.584  1.6911  0.0017 -0.0613
 5657TIP3    H216936   2.161   3.302   3.701 -1.0700  1.2681  0.0876
 5658TIP3   OH216937   2.669   0.881   1.092  0.1000  0.0271  0.2582
 5658TIP3    H116938   2.735   0.943   1.061  0.8355 -0.6736  0.4129
 5658TIP3    H216939   2.634   0.920   1.172 -0.2418  0.7760 -0.2415
 5659TIP3   OH216940   5.835   2.616   4.871  0.0643 -0.4427  0.1736
 5659TIP3    H116941   5.802   2.526   4.874 -1.2427  0.0326  0.8906
 5659TIP3    H216942   5.927   2.607   4.846 -0.2650 -1.9180 -0.6373
 5660TIP3   OH216943   4.531   2.013   4.861 -0.3105  0.0735 -0.2751
 5660TIP3    H116944   4.558   1.958   4.934 -2.0785 -1.1784 -0.4819
 5660TIP3    H216945   4.575   1.975   4.785 -0.1574  0.0144 -0.1565
 5661TIP3   OH216946   0.216   1.813   3.626 -0.7330 -0.5117 -0.1782
 5661TIP3    H116947   0.271   1.746   3.666 -0.2485  1.1287  2.1184
 5661TIP3    H216948   0.127   1.781   3.638 -0.5547 -0.4530  1.6068
 5662TIP3   OH216949   0.742   3.082   2.794 -0.6404 -0.3558  0.0186
 5662TIP3    H116950   0.672   3.034   2.839 -0.7789  1.3830  1.8237
 5662TIP3    H216951   0.697   3.143   2.736 -0.5577 -0.5478 -0.2480
 5663TIP3   OH216952   3.061   2.505   4.900  0.1004 -0.2415  0.0594
 5663TIP3    H116953   3.121   2.565   4.944 -0.6383 -0.5823  1.6026
 5663TIP3    H216954   2.990   2.561   4.869  1.0341  0.1218 -1.5198
 5664TIP3   OH216955   2.093   2.008   3.760  0.1190 -0.0361 -0.6330
 5664TIP3    H116956   2.082   1.959   3.679  1.2645  0.2018 -0.9449
 5664TIP3    H216957   2.097   2.100   3.732 -4.2313  0.6053  0.1005
 5665TIP3   OH216958   4.725   1.354   3.352  0.1662 -0.3235 -0.1592
 5665TIP3    H116959   4.778   1.288   3.308 -1.7771 -0.8537 -1.8310
 5665TIP3    H216960   4.645   1.308   3.378 -2.2846  1.6736 -3.3944
 5666TIP3   OH216961   2.441   0.472   5.247 -0.9784  0.3180  0.9993
 5666TIP3    H116962   2.433   0.540   5.180 -1.6875 -0.2645  0.4793
 5666TIP3    H216963   2.415   0.392   5.203 -1.0035 -0.1523  1.8501
 5667TIP3   OH216964   2.794   5.577   1.913 -0.2135 -0.1717  0.2528
 5667TIP3    H116965   2.844   5.500   1.888  0.9013 -0.2134  2.3496
 5667TIP3    H216966   2.703   5.553   1.897  0.2800 -0.4346 -2.7825
 5668TIP3   OH216967   3.311   4.751   4.342 -0.5018  0.4168 -0.3442
 5668TIP3    H116968   3.390   4.716   4.302 -0.4154 -0.2690  0.3997
 5668TIP3    H216969   3.307   4.842   4.312  0.1700  0.2470 -0.9657
 5669TIP3   OH216970   4.800   0.741   0.550  0.2665  0.3094  0.3186
 5669TIP3    H116971   4.706   0.751   0.563  0.1664  0.3803 -0.4492
 5669TIP3    H216972   4.828   0.822   0.509  0.7137  0.3924  0.7774
 5670TIP3   OH216973   5.161   5.875   1.581 -0.0599  0.3947  0.5557
 5670TIP3    H116974   5.194   5.956   1.619 -0.5832  1.3437 -0.9080
 5670TIP3    H216975   5.105   5.904   1.508  1.0189 -1.2803 -1.0249
 5671TIP3   OH216976   0.478   4.930   1.757  0.0407  0.1955  0.0797
 5671TIP3    H116977   0.419   4.910   1.684  0.3014  2.1823 -0.7498
 5671TIP3    H216978   0.431   4.996   1.808  1.4793  1.8567 -0.6326
 5672TIP3   OH216979   5.182   3.269   5.298  0.0332  0.1040  0.5153
 5672TIP3    H116980   5.119   3.200   5.277  0.3075 -0.2448  0.8411
 5672TIP3    H216981   5.232   3.281   5.217  0.2761 -0.3880  0.5876
 5673TIP3   OH216982   4.274   4.971   2.376  0.1642 -0.2098 -0.5548
 5673TIP3    H116983   4.192   5.018   2.359 -0.0822 -0.9320 -1.4132
 5673TIP3    H216984   4.255   4.917   2.452 -0.9339 -2.1418 -2.1246
 5674TIP3   OH216985   3.125   1.948   1.787  0.0538 -0.2769  0.0397
 5674TIP3    H116986   3.160   2.028   1.826 -0.2400  0.2776 -0.7957
 5674TIP3    H216987   3.140   1.880   1.852  0.4879  0.4247  0.6800
 5675TIP3   OH216988   4.973   6.117   4.381  0.3939  0.1420  0.2741
 5675TIP3    H116989   5.038   6.058   4.418  0.8252  0.0595 -0.5981
 5675TIP3    H216990   4.902   6.118   4.446  1.6613  0.9921  1.7200
 5676TIP3   OH216991   6.756   1.933   2.977 -0.8408  0.3647 -1.2505
 5676TIP3    H116992   6.846   1.938   2.945 -0.8822 -0.8381 -1.5960
 5676TIP3    H216993   6.712   1.874   2.916 -1.9238  1.0908 -1.2022
 5677TIP3   OH216994   1.818   6.394   0.016  0.1136 -0.2658  0.0487
 5677TIP3    H116995   1.906   6.430   0.006 -0.4992  1.5236  0.7519
 5677TIP3    H216996   1.769   6.461   0.064 -1.3041 -1.7511  0.8049
 5678TIP3   OH216997   5.565   2.522   4.503 -0.4591  0.1544 -0.5397
 5678TIP3    H116998   5.521   2.498   4.421  1.5336 -0.2754 -1.5414
 5678TIP3    H216999   5.652   2.482   4.496 -0.1113  0.4018  1.6522
 5679TIP3   OH217000   4.759   2.176   2.463 -0.1591  0.5684  0.1094
 5679TIP3    H117001   4.721   2.096   2.498 -2.0461  1.0932 -0.5610
 5679TIP3    H217002   4.812   2.147   2.389  0.5941 -0.1909  0.9305
 5680TIP3   OH217003   2.637   3.249   5.834  0.3260  0.2860  0.2631
 5680TIP3    H117004   2.679   3.329   5.800 -1.2217  1.0952  0.1908
 5680TIP3    H217005   2.698   3.179   5.809  0.8296  1.2141 -1.3355
 5681TIP3   OH217006   1.845   2.111   1.472  0.6217 -0.0784 -0.6462
 5681TIP3    H117007   1.906   2.050   1.513  0.1833 -0.1990 -0.1592
 5681TIP3    H217008   1.860   2.194   1.518 -0.3177 -0.3698  0.2247
 5682TIP3   OH217009   0.834   4.561   1.508  0.1394  0.3116  0.4387
 5682TIP3    H117010   0.785   4.481   1.524  0.6064 -0.5095 -1.8548
 5682TIP3    H217011   0.767   4.627   1.487 -0.1417 -0.2488 -0.5102
 5683TIP3   OH217012   3.580   0.278   2.047  0.0307 -0.3207 -0.0324
 5683TIP3    H117013   3.652   0.251   2.103  0.6056 -0.1428 -0.6693
 5683TIP3    H217014   3.528   0.199   2.035  1.4704 -1.1055 -1.5431
 5684TIP3   OH217015   5.970   1.537   5.174 -0.1747  0.2255  0.1680
 5684TIP3    H117016   6.017   1.455   5.162 -0.7806 -0.3633  1.6020
 5684TIP3    H217017   5.948   1.565   5.086  0.1372 -1.0944 -0.3550
 5685TIP3   OH217018   2.943   2.200   3.013  0.5756  0.1389  0.0313
 5685TIP3    H117019   2.945   2.127   3.075  0.4854 -0.2352 -0.4053
 5685TIP3    H217020   2.966   2.161   2.929  0.2877  0.5716 -0.2505
 5686TIP3   OH217021   4.781   1.346   5.661  0.0743 -0.1754 -0.4582
 5686TIP3    H117022   4.812   1.436   5.653 -0.6698  0.1822  0.4883
 5686TIP3    H217023   4.857   1.297   5.691  1.4272 -0.5489 -4.0869
 5687TIP3   OH217024   4.200   4.209   2.039  0.9818  0.2289 -0.0367
 5687TIP3    H117025   4.232   4.297   2.020  1.5128 -0.3016 -1.7645
 5687TIP3    H217026   4.119   4.223   2.088  1.1905  1.6682 -0.0613
 5688TIP3   OH217027   1.431   4.865   4.544  0.1959  0.4410 -0.3212
 5688TIP3    H117028   1.398   4.949   4.511 -1.3284  0.1330  0.3353
 5688TIP3    H217029   1.371   4.800   4.507  1.3647 -0.3787 -0.8229
 5689TIP3   OH217030   1.954   2.701   3.289  0.2828 -0.3304 -0.2334
 5689TIP3    H117031   2.008   2.631   3.325  1.8918  1.4173  0.8947
 5689TIP3    H217032   2.015   2.759   3.244 -1.0414  0.2670 -1.3515
 5690TIP3   OH217033   6.454   2.012   5.730  0.3547  0.2042  0.5116
 5690TIP3    H117034   6.379   2.037   5.785  0.0955 -0.5141  0.4952
 5690TIP3    H217035   6.526   2.067   5.761  0.1028  0.1149  1.2779
 5691TIP3   OH217036   0.812   3.290   3.879  0.2081 -0.2286  0.1643
 5691TIP3    H117037   0.847   3.290   3.968  0.9577  1.3645 -0.0844
 5691TIP3    H217038   0.863   3.356   3.833 -1.5189  0.4630 -0.8878
 5692TIP3   OH217039   4.826   2.874   1.740  0.1838 -0.5138  0.2823
 5692TIP3    H117040   4.835   2.961   1.703  0.6833 -0.3624  0.7514
 5692TIP3    H217041   4.892   2.821   1.695  0.6096 -0.3925  0.7572
 5693TIP3   OH217042   5.873   0.928   4.696  0.2186  0.5011  0.4884
 5693TIP3    H117043   5.814   0.949   4.768 -1.3396 -1.7764 -0.0292
 5693TIP3    H217044   5.853   0.993   4.629 -0.2524  0.9682  1.0699
 5694TIP3   OH217045   4.318   2.149   5.414 -0.3735 -0.3016 -0.2627
 5694TIP3    H117046   4.394   2.205   5.426 -1.8015  1.7130 -0.0012
 5694TIP3    H217047   4.258   2.175   5.485 -1.2867 -1.8778 -0.4002
 5695TIP3   OH217048   6.561   1.754   1.009 -0.4515  0.4163  0.0135
 5695TIP3    H117049   6.606   1.684   1.056  0.9929  1.6011  0.4887
 5695TIP3    H217050   6.483   1.713   0.973  0.3163 -1.4142  0.3235
 5696TIP3   OH217051   5.493   1.235   1.641 -0.0811 -0.2840 -0.6835
 5696TIP3    H117052   5.527   1.240   1.551  0.1827  0.4797 -0.5486
 5696TIP3    H217053   5.561   1.275   1.695  0.1226 -1.4778 -0.0326
 5697TIP3   OH217054   4.135   6.690   0.892 -0.2727 -0.4641 -0.1571
 5697TIP3    H117055   4.223   6.671   0.858  0.5252 -1.0120  2.0661
 5697TIP3    H217056   4.079   6.622   0.854  1.0742 -2.6453  1.5442
 5698TIP3   OH217057   5.925   5.384   0.419  0.1086  0.4139  0.2770
 5698TIP3    H117058   5.981   5.360   0.345 -0.2491  1.1527 -0.2493
 5698TIP3    H217059   5.922   5.305   0.473  1.9878  0.4762  0.5391
 5699TIP3   OH217060   3.588   6.085   0.015 -0.4900 -0.0151 -0.5120
 5699TIP3    H117061   3.648   6.155   0.041 -1.5301  1.0526 -0.8641
 5699TIP3    H217062   3.526   6.078   0.087 -1.7935  1.1048 -1.4708
 5700TIP3   OH217063   6.291   1.990   0.936 -0.5294 -0.1666  0.4321
 5700TIP3    H117064   6.348   1.926   0.892 -0.3006  1.3935 -1.6827
 5700TIP3    H217065   6.333   2.004   1.020  1.4468 -0.1717 -0.4907
 5701TIP3   OH217066   3.224   3.710   5.600 -0.3530  0.7314 -0.1860
 5701TIP3    H117067   3.144   3.677   5.558  0.4361 -1.5744 -0.0370
 5701TIP3    H217068   3.253   3.781   5.544 -0.9667 -0.2941 -1.8887
 5702TIP3   OH217069   5.556   6.137   2.945 -0.4973 -0.4315  0.4943
 5702TIP3    H117070   5.488   6.199   2.968 -0.3515  0.2449 -0.8163
 5702TIP3    H217071   5.632   6.191   2.923  0.2672 -1.1490  1.2693
 5703TIP3   OH217072   0.785   2.092   5.071  0.6937 -0.4299  0.1409
 5703TIP3    H117073   0.730   2.074   4.995  1.5884 -0.2603 -0.5633
 5703TIP3    H217074   0.874   2.099   5.035  0.7914  2.6573  0.7531
 5704TIP3   OH217075   3.832   6.771   5.317 -0.5072  0.3491 -0.0237
 5704TIP3    H117076   3.740   6.754   5.295 -0.8296  1.7522  0.1433
 5704TIP3    H217077   3.855   6.848   5.265  0.6157 -0.0366 -0.1254
 5705TIP3   OH217078   6.963   5.421   3.701  0.0671  0.2418  0.1917
 5705TIP3    H117079   6.985   5.476   3.626 -1.2327 -0.4080 -0.7054
 5705TIP3    H217080   6.871   5.440   3.718  0.1007 -0.3047  1.0500
 5706TIP3   OH217081   2.926   1.052   1.028  0.2686 -0.1475  0.2430
 5706TIP3    H117082   3.014   1.059   0.991 -0.0431  0.7649 -0.3647
 5706TIP3    H217083   2.936   1.076   1.120  0.3467  1.9884 -0.2787
 5707TIP3   OH217084   4.977   3.425   4.751  0.2418  0.1260  0.0431
 5707TIP3    H117085   5.021   3.411   4.667 -1.2969  1.3265 -1.0316
 5707TIP3    H217086   4.953   3.518   4.750  0.1471  0.1425  1.7994
 5708TIP3   OH217087   6.135   5.016   3.676  0.0797  0.0260  0.0955
 5708TIP3    H117088   6.072   4.961   3.628  1.4062 -0.3160 -1.3210
 5708TIP3    H217089   6.181   5.065   3.608  3.1172 -1.6002  0.7939
 5709TIP3   OH217090   4.762   6.364   0.943  0.0773  0.3684 -0.2412
 5709TIP3    H117091   4.791   6.317   1.021 -2.0286  0.3259  0.5820
 5709TIP3    H217092   4.799   6.452   0.952  0.1418  0.2589  0.6243
 5710TIP3   OH217093   2.965   2.225   0.289  0.1296  0.0008 -0.5153
 5710TIP3    H117094   2.945   2.147   0.237  1.9641 -0.6094 -0.3804
 5710TIP3    H217095   2.929   2.206   0.375  1.4500 -1.2048 -0.1821
 5711TIP3   OH217096   1.480   3.111   4.325 -0.2727 -0.1353  0.1373
 5711TIP3    H117097   1.529   3.067   4.256  1.9135 -0.6072  1.8494
 5711TIP3    H217098   1.394   3.071   4.324  0.1249 -1.0298 -1.4395
 5712TIP3   OH217099   0.286   3.524   4.658  0.1044  0.4617  0.4874
 5712TIP3    H117100   0.363   3.570   4.624  0.0372  0.7456  0.7173
 5712TIP3    H217101   0.291   3.534   4.753  1.0655 -1.5560  0.6904
 5713TIP3   OH217102   0.889   0.323   3.329  0.1005  0.4302 -0.3803
 5713TIP3    H117103   0.847   0.245   3.295 -1.2426  1.2146 -0.6040
 5713TIP3    H217104   0.977   0.323   3.291 -0.2531 -0.4126 -1.2101
 5714TIP3   OH217105   6.296   0.440   5.088 -0.1288 -0.1400 -0.3955
 5714TIP3    H117106   6.294   0.497   5.010 -1.8089 -0.0440 -0.3196
 5714TIP3    H217107   6.347   0.490   5.152 -4.4891  3.2114  0.9709
 5715TIP3   OH217108   2.135   2.633   0.450  0.5266 -0.1181  0.2055
 5715TIP3    H117109   2.189   2.649   0.527  2.1530  1.4712 -1.1873
 5715TIP3    H217110   2.046   2.651   0.479  1.1741  1.1009  1.5591
 5716TIP3   OH217111   5.588   1.958   2.872  0.1194 -0.0579 -0.2176
 5716TIP3    H117112   5.626   1.946   2.959 -0.0117 -0.7838 -0.2532
 5716TIP3    H217113   5.632   2.035   2.836  0.8441 -0.3071  0.1257
 5717TIP3   OH217114   6.802   2.402   0.636  0.1217  0.0707 -0.1085
 5717TIP3    H117115   6.803   2.314   0.599  1.0338 -0.1689  0.4355
 5717TIP3    H217116   6.740   2.397   0.709  2.1866 -0.9402  1.7088
 5718TIP3   OH217117   0.616   3.202   2.144 -0.1741 -0.5537  0.4641
 5718TIP3    H117118   0.598   3.117   2.183 -1.1519 -0.7927 -0.4461
 5718TIP3    H217119   0.565   3.264   2.197  0.6702 -0.4980  1.2295
 5719TIP3   OH217120   1.128   5.466   0.706  0.7062 -0.2857  0.0904
 5719TIP3    H117121   1.068   5.539   0.725  1.2478  0.2425 -0.1828
 5719TIP3    H217122   1.188   5.466   0.781 -1.0230 -2.3466  1.6160
 5720TIP3   OH217123   5.388   1.697   5.759 -0.1682  0.0736  0.0800
 5720TIP3    H117124   5.332   1.774   5.764 -0.3953 -0.1432  1.0664
 5720TIP3    H217125   5.477   1.732   5.750 -0.2919  0.4480  0.3190
 5721TIP3   OH217126   4.248   0.386   3.196  0.3149  0.1497 -0.2845
 5721TIP3    H117127   4.307   0.413   3.266  0.1538 -0.6368  0.1662
 5721TIP3    H217128   4.288   0.306   3.161 -0.4077 -0.3151 -0.0629
 5722TIP3   OH217129   4.046   1.338   2.887 -0.2993 -0.1589  0.1361
 5722TIP3    H117130   3.998   1.332   2.969 -0.1070 -0.2035  0.2471
 5722TIP3    H217131   3.979   1.338   2.819 -0.4337 -0.8403  0.2569
 5723TIP3   OH217132   1.874   2.375   3.543  0.2774 -0.5571 -0.6739
 5723TIP3    H117133   1.854   2.292   3.501 -2.3897 -0.4747  0.1986
 5723TIP3    H217134   1.793   2.425   3.537  0.7207  0.6384  1.7751
 5724TIP3   OH217135   3.031   2.954   4.523  0.5360  0.4449  0.3076
 5724TIP3    H117136   2.973   2.918   4.590 -1.1045 -0.3255 -1.4515
 5724TIP3    H217137   3.112   2.904   4.531 -0.5844 -1.4905  0.0148
 5725TIP3   OH217138   2.375   3.445   5.552 -0.2635  0.0499  0.0563
 5725TIP3    H117139   2.354   3.526   5.505 -0.3979 -0.1516 -0.2338
 5725TIP3    H217140   2.334   3.455   5.637  0.7296  0.8066  0.4726
 5726TIP3   OH217141   4.848   3.113   2.438 -0.3972  0.1855  0.1488
 5726TIP3    H117142   4.777   3.077   2.492 -0.6014 -1.7470 -1.2863
 5726TIP3    H217143   4.920   3.051   2.449  0.5676  1.3200  0.4045
 5727TIP3   OH217144   1.422   0.693   3.803  0.4627  0.7975 -1.1302
 5727TIP3    H117145   1.434   0.601   3.780  1.7355  1.0486 -1.5624
 5727TIP3    H217146   1.510   0.726   3.817  0.0342  1.9878 -1.1024
 5728TIP3   OH217147   1.795   2.498   1.223 -0.1212 -0.1666 -0.1498
 5728TIP3    H117148   1.786   2.440   1.147 -2.6024  0.8866 -0.7705
 5728TIP3    H217149   1.883   2.534   1.216  0.3722 -1.5099 -1.4443
 5729TIP3   OH217150   4.523   3.222   2.566  0.5359  0.1621  0.4633
 5729TIP3    H117151   4.617   3.234   2.580  0.6081 -0.8424  0.8985
 5729TIP3    H217152   4.487   3.208   2.653  0.0119  0.3200  0.2747
 5730TIP3   OH217153   0.540   6.473   1.707 -0.1795  0.2161 -0.0496
 5730TIP3    H117154   0.520   6.475   1.614  0.8074  2.1144 -0.2715
 5730TIP3    H217155   0.583   6.389   1.721 -1.7206 -0.7623 -0.9699
 5731TIP3   OH217156   2.372   3.749   3.965 -0.3132 -0.0158  0.5336
 5731TIP3    H117157   2.285   3.709   3.962  0.0621 -0.8172 -2.2398
 5731TIP3    H217158   2.362   3.832   3.919  0.3475 -0.0192  0.3715
 5732TIP3   OH217159   6.213   3.648   4.725 -0.0840 -0.5070 -0.0467
 5732TIP3    H117160   6.121   3.677   4.731 -0.2120 -1.0401  0.8209
 5732TIP3    H217161   6.245   3.652   4.815  0.8331 -0.0853 -0.3776
 5733TIP3   OH217162   4.724   2.979   2.664  0.3296 -0.6633 -0.0353
 5733TIP3    H117163   4.632   2.994   2.685  0.4782  0.0542  0.1274
 5733TIP3    H217164   4.732   2.884   2.659 -0.2752 -0.7549  0.5828
 5734TIP3   OH217165   3.958   5.950   1.995  0.5471  0.1492  0.0388
 5734TIP3    H117166   3.890   5.989   2.049 -0.9528 -1.9607 -0.2148
 5734TIP3    H217167   4.035   5.948   2.052  0.0576  1.4246  0.7716
 5735TIP3   OH217168   6.788   3.882   5.538  0.4726 -0.0509 -0.0535
 5735TIP3    H117169   6.872   3.835   5.539  1.0883  1.0259  0.5561
 5735TIP3    H217170   6.768   3.899   5.630 -0.0933  0.2682 -0.2285
 5736TIP3   OH217171   1.623   5.994   0.700  0.1850 -0.6808  0.4197
 5736TIP3    H117172   1.684   6.053   0.745 -0.4557 -1.2291  2.0764
 5736TIP3    H217173   1.536   6.028   0.721 -0.1997  0.9131 -3.0348
 5737TIP3   OH217174   2.523   5.521   5.630  0.1231 -0.0946  0.0932
 5737TIP3    H117175   2.490   5.451   5.573 -0.0388 -1.0055  1.2551
 5737TIP3    H217176   2.467   5.516   5.708  0.4579  0.9978  0.4133
 5738TIP3   OH217177   4.576   5.612   2.991 -0.3748 -0.1329 -0.3614
 5738TIP3    H117178   4.569   5.685   2.930  0.1562  0.2391  0.0163
 5738TIP3    H217179   4.619   5.543   2.941  0.1196  0.1919 -0.3887
 5739TIP3   OH217180   4.701   0.311   4.899 -0.2251  0.2552  0.2555
 5739TIP3    H117181   4.734   0.286   4.812 -0.3399 -1.9466  0.7827
 5739TIP3    H217182   4.777   0.350   4.943  0.1361  0.3627 -0.4457
 5740TIP3   OH217183   7.126   2.674   3.230  0.2998 -0.0992  0.1422
 5740TIP3    H117184   7.058   2.621   3.273  0.9345 -0.3380  0.8631
 5740TIP3    H217185   7.085   2.760   3.219  0.2337  0.0923  1.5980
 5741TIP3   OH217186   2.105   0.350   5.432  0.0696 -0.1538  0.1146
 5741TIP3    H117187   2.059   0.324   5.353 -0.2505 -0.1203  0.2877
 5741TIP3    H217188   2.046   0.411   5.476  0.4730  0.2427  0.1151
 5742TIP3   OH217189   5.535   2.607   5.146 -0.0415 -0.3616  0.1983
 5742TIP3    H117190   5.459   2.587   5.092 -0.3637  1.2078  0.0176
 5742TIP3    H217191   5.609   2.569   5.099 -0.6591 -1.7568  0.2891
 5743TIP3   OH217192   4.428   0.236   4.919  0.6016 -0.4487 -0.4059
 5743TIP3    H117193   4.445   0.160   4.864 -0.4810 -0.0594 -1.3130
 5743TIP3    H217194   4.333   0.247   4.917  0.7713  1.3099 -0.8590
 5744TIP3   OH217195   3.890   4.754   1.079 -0.0574 -0.0325 -0.0591
 5744TIP3    H117196   3.971   4.768   1.029  0.5917 -1.6010  0.5082
 5744TIP3    H217197   3.894   4.663   1.107 -1.1295  0.3878  1.5929
 5745TIP3   OH217198   0.534   4.174   4.791 -0.0105  0.0837 -0.1485
 5745TIP3    H117199   0.567   4.241   4.732 -0.0531  1.0925  0.9353
 5745TIP3    H217200   0.471   4.220   4.847 -0.4217 -0.9724  0.2925
 5746TIP3   OH217201   2.089   4.064   4.783 -0.1574  0.1233 -0.0044
 5746TIP3    H117202   2.045   4.148   4.773 -1.8326 -0.5892  1.0520
 5746TIP3    H217203   2.019   4.002   4.803  1.2924 -1.0299  1.9129
 5747TIP3   OH217204   6.755   1.521   5.175  0.5114  0.1759  0.3529
 5747TIP3    H117205   6.695   1.521   5.100 -0.3395 -0.4939  1.0183
 5747TIP3    H217206   6.700   1.502   5.250  1.0535  2.5205  1.4303
 5748TIP3   OH217207   0.854   1.645   3.083 -0.3475  0.0089  0.5244
 5748TIP3    H117208   0.919   1.686   3.139 -0.3837  1.0476 -0.1655
 5748TIP3    H217209   0.770   1.680   3.112 -0.2751  1.5055 -0.9020
 5749TIP3   OH217210   2.362   2.115   1.090  0.3154 -0.2709  0.0810
 5749TIP3    H117211   2.380   2.023   1.068  0.0938 -0.5703  1.0676
 5749TIP3    H217212   2.335   2.155   1.007  2.0654 -0.6670 -0.7166
 5750TIP3   OH217213   3.356   3.076   5.220 -0.0162 -0.0480  0.0220
 5750TIP3    H117214   3.283   3.129   5.188  2.2270  2.0165 -2.1168
 5750TIP3    H217215   3.381   3.022   5.145  0.8298 -0.4897  0.6085
 5751TIP3   OH217216   6.415   5.431   4.768  0.2580  0.2602 -0.1556
 5751TIP3    H117217   6.419   5.500   4.701 -0.7022 -0.1634 -0.6720
 5751TIP3    H217218   6.471   5.362   4.734  1.2279  0.7617  0.3661
 5752TIP3   OH217219   4.435   6.807   0.423 -0.4725  0.5745  0.2823
 5752TIP3    H117220   4.408   6.718   0.442 -1.1885  0.7343  0.0469
 5752TIP3    H217221   4.528   6.809   0.443 -0.6440  0.0248  1.1883
 5753TIP3   OH217222   0.507   5.972   0.276 -0.1205  0.0467  0.1574
 5753TIP3    H117223   0.450   5.896   0.263 -0.0609  0.1404 -0.7062
 5753TIP3    H217224   0.457   6.045   0.239  0.7690  0.0432 -1.1127
 5754TIP3   OH217225   2.223   2.212   2.848  0.0178 -0.2596  0.1190
 5754TIP3    H117226   2.141   2.190   2.892 -1.5805  1.6076 -1.7192
 5754TIP3    H217227   2.237   2.142   2.785 -1.8235  0.7738 -1.5694
 5755TIP3   OH217228   5.148   0.414   1.255  0.1148 -0.6071  0.1894
 5755TIP3    H117229   5.063   0.452   1.275  0.7233  0.7935  0.1767
 5755TIP3    H217230   5.134   0.319   1.262 -0.5914 -0.3770  3.8111
 5756TIP3   OH217231   6.345   3.585   4.445  0.4911  0.0992 -0.0532
 5756TIP3    H117232   6.371   3.668   4.407  0.7107  1.3218  2.5296
 5756TIP3    H217233   6.319   3.607   4.535 -2.5219 -2.1424 -0.2174
 5757TIP3   OH217234   4.362   4.068   1.059  0.4705  0.1575  0.0129
 5757TIP3    H117235   4.333   4.134   0.995  0.4197  0.8758  0.7613
 5757TIP3    H217236   4.360   3.985   1.010 -0.1645  0.6009 -0.7417
 5758TIP3   OH217237   0.349   0.261   2.205  0.0214 -0.2562 -0.1443
 5758TIP3    H117238   0.296   0.241   2.282 -0.9011 -1.4968 -1.0649
 5758TIP3    H217239   0.438   0.269   2.239 -0.5751  0.7972  1.2708
 5759TIP3   OH217240   1.820   0.006   2.678  0.0552 -0.2380  0.9145
 5759TIP3    H117241   1.903   0.021   2.634  0.6845  0.0793  2.1588
 5759TIP3    H217242   1.794   0.092   2.711 -0.8046 -0.3217  0.5065
 5760TIP3   OH217243   0.411   3.988   5.164 -0.1849  0.4415 -0.6558
 5760TIP3    H117244   0.478   4.040   5.120  0.2695  0.3067 -0.1279
 5760TIP3    H217245   0.338   4.048   5.176  0.4954  1.0821  0.3291
 5761TIP3   OH217246   6.184   6.176   3.461  0.1088  0.5813 -0.1260
 5761TIP3    H117247   6.163   6.268   3.443 -0.2288  1.3253  3.3791
 5761TIP3    H217248   6.279   6.171   3.455  0.2569  1.5588  1.0693
 5762TIP3   OH217249   5.734   3.149   0.991 -0.3446 -0.0823 -0.0006
 5762TIP3    H117250   5.776   3.078   0.943  1.5354  1.0823 -0.1755
 5762TIP3    H217251   5.709   3.213   0.924 -0.2485  0.2924  0.3139
 5763TIP3   OH217252   1.883   0.720   3.261  0.1319 -0.0202 -0.2297
 5763TIP3    H117253   1.918   0.798   3.306  1.6870 -0.0496 -1.3172
 5763TIP3    H217254   1.890   0.740   3.168 -0.5921 -1.0054 -0.5205
 5764TIP3   OH217255   5.988   0.409   5.752  0.1485 -0.0395  0.3237
 5764TIP3    H117256   5.942   0.326   5.762  0.8100 -0.3245  1.0749
 5764TIP3    H217257   5.993   0.445   5.841 -1.1130  1.3521 -0.1234
 5765TIP3   OH217258   0.952   4.099   3.224 -0.1017 -0.7414  0.7652
 5765TIP3    H117259   0.982   4.185   3.252  0.6181 -0.3483 -1.0899
 5765TIP3    H217260   0.998   4.038   3.281  0.0149  0.0570  1.5447
 5766TIP3   OH217261   0.529   2.622   3.713 -0.4206  0.6891  0.0581
 5766TIP3    H117262   0.571   2.543   3.746  0.2644 -0.5002 -3.2565
 5766TIP3    H217263   0.435   2.600   3.710 -0.4626  0.7338  0.9319
 5767TIP3   OH217264   1.401   4.607   3.290 -0.3629 -0.0472 -0.1061
 5767TIP3    H117265   1.446   4.550   3.227  2.0714  1.5293  0.0890
 5767TIP3    H217266   1.309   4.605   3.262  0.4765 -0.0403 -3.2710
 5768TIP3   OH217267   3.990   4.735   3.534 -0.0350  0.1762 -0.3210
 5768TIP3    H117268   3.956   4.809   3.483  1.3584  1.0541 -0.0064
 5768TIP3    H217269   3.927   4.725   3.605 -0.7881  0.3849 -0.9349
 5769TIP3   OH217270   0.945   4.604   2.611  0.1442 -0.3474  0.4073
 5769TIP3    H117271   0.979   4.517   2.634 -0.8155 -1.0467 -0.7577
 5769TIP3    H217272   0.964   4.657   2.688  0.4813 -1.6623  1.2684
 5770TIP3   OH217273   3.400   0.431   0.528 -0.2675 -0.4282  0.2411
 5770TIP3    H117274   3.360   0.345   0.517  0.6343 -0.6678 -1.6532
 5770TIP3    H217275   3.492   0.412   0.548  0.5993 -0.0423 -2.8187
 5771TIP3   OH217276   2.564   0.216   1.806 -0.7004  0.0768  0.2987
 5771TIP3    H117277   2.623   0.257   1.743 -1.9677  2.2483  0.4328
 5771TIP3    H217278   2.563   0.124   1.782 -1.4462  0.8548 -3.1573
 5772TIP3   OH217279   2.472   3.188   2.520 -0.9701 -0.0142 -0.3513
 5772TIP3    H117280   2.462   3.283   2.518  2.2171  0.4108 -0.5050
 5772TIP3    H217281   2.505   3.165   2.433  1.2739 -0.7589  0.6166
 5773TIP3   OH217282   5.300   2.890   5.132  0.0700  0.2663  0.1783
 5773TIP3    H117283   5.366   2.910   5.065  2.7057  0.6901  2.6570
 5773TIP3    H217284   5.297   2.795   5.134 -0.5170  0.2480 -0.9406
 5774TIP3   OH217285   0.751   2.393   5.154  0.0136 -0.0703 -0.3113
 5774TIP3    H117286   0.845   2.409   5.157 -0.0386  0.0439  1.2287
 5774TIP3    H217287   0.744   2.298   5.142  0.4219 -0.7797  3.7081
 5775TIP3   OH217288   6.810   5.281   3.383  0.5406 -0.7378  0.0511
 5775TIP3    H117289   6.821   5.210   3.445  0.4709 -0.0377  0.8836
 5775TIP3    H217290   6.899   5.315   3.369  0.4008 -0.0666  0.7708
 5776TIP3   OH217291   1.073   2.573   1.298  0.7341  0.4920  0.8310
 5776TIP3    H117292   0.979   2.558   1.293  0.4611  1.6965  1.9762
 5776TIP3    H217293   1.111   2.486   1.304 -0.2200 -0.0616 -0.5925
 5777TIP3   OH217294   1.018   4.939   0.514 -0.4613 -0.0204  0.3469
 5777TIP3    H117295   0.943   4.944   0.455  0.2086 -1.0682 -0.6314
 5777TIP3    H217296   1.018   5.023   0.560 -2.5989 -0.2327  0.8506
 5778TIP3   OH217297   6.533   4.323   5.514 -0.4837  0.1758  0.1342
 5778TIP3    H117298   6.622   4.290   5.500 -0.1048  0.9707  0.6168
 5778TIP3    H217299   6.530   4.347   5.606 -1.3731 -0.3278  0.2516
 5779TIP3   OH217300   2.023   3.430   5.100 -0.0007 -0.7363  0.6616
 5779TIP3    H117301   2.090   3.388   5.046  1.4397  0.1196  1.7180
 5779TIP3    H217302   2.036   3.393   5.187 -0.8695 -0.4998  0.8962
 5780TIP3   OH217303   0.954   5.415   3.824  0.1231 -0.1397  0.4099
 5780TIP3    H117304   0.880   5.475   3.811  1.5641  1.5338 -0.5233
 5780TIP3    H217305   0.974   5.382   3.736  1.4015  0.6056  0.3951
 5781TIP3   OH217306   6.712   6.407   5.053  0.1179  0.2030 -0.0276
 5781TIP3    H117307   6.716   6.330   5.111  0.7341 -0.4096 -0.8699
 5781TIP3    H217308   6.627   6.399   5.009  0.0541  0.1745  0.0981
 5782TIP3   OH217309   5.306   3.722   3.039 -0.3605  0.5598 -0.3828
 5782TIP3    H117310   5.311   3.818   3.041 -0.9898  0.5829  0.4384
 5782TIP3    H217311   5.222   3.704   2.996 -0.1456  0.3668 -0.7295
 5783TIP3   OH217312   4.871   0.340   5.131 -0.1252  0.0884 -0.1110
 5783TIP3    H117313   4.800   0.379   5.181 -0.0660 -0.3865  0.3494
 5783TIP3    H217314   4.947   0.394   5.151  0.1434 -0.7084  1.1640
 5784TIP3   OH217315   4.817   2.337   0.497 -0.3206  0.1366 -0.0598
 5784TIP3    H117316   4.766   2.409   0.458  0.9367  0.8006 -0.5470
 5784TIP3    H217317   4.854   2.375   0.577 -0.2608 -0.2047  0.0761
 5785TIP3   OH217318   1.663   6.281   5.315 -0.0827 -0.2458  0.6317
 5785TIP3    H117319   1.744   6.230   5.312 -0.4750 -0.9617  1.7387
 5785TIP3    H217320   1.658   6.313   5.405 -1.5500 -1.0978  0.8909
 5786TIP3   OH217321   0.581   0.882   1.201 -0.8122  0.4146 -0.0159
 5786TIP3    H117322   0.595   0.898   1.295  0.0328 -0.1474 -0.0375
 5786TIP3    H217323   0.646   0.938   1.158 -1.5031  1.0182 -0.2942
 5787TIP3   OH217324   2.862   0.795   0.367  0.2853  0.1829 -0.0638
 5787TIP3    H117325   2.829   0.844   0.442  1.0185 -0.0509  0.4241
 5787TIP3    H217326   2.824   0.707   0.377 -0.5872  0.4841 -0.6378
 5788TIP3   OH217327   2.489   3.730   2.343 -0.3447 -0.1648 -0.0973
 5788TIP3    H117328   2.578   3.724   2.307 -0.9240  1.1897 -1.8634
 5788TIP3    H217329   2.435   3.681   2.282 -0.9373 -0.4552  0.6427
 5789TIP3   OH217330   3.871   4.595   5.818  0.0359 -0.4523  0.0040
 5789TIP3    H117331   3.907   4.509   5.795  1.1286 -0.5160  1.7894
 5789TIP3    H217332   3.871   4.597   5.914 -1.0567  1.1116  0.0207
 5790TIP3   OH217333   4.601   6.796   5.707  0.0405  0.1450 -0.0901
 5790TIP3    H117334   4.515   6.761   5.684  0.6918 -1.0093 -0.8642
 5790TIP3    H217335   4.652   6.719   5.734  0.7548  0.8448  0.6042
 5791TIP3   OH217336   1.258   1.065   0.076 -0.1770 -0.4564  0.4129
 5791TIP3    H117337   1.207   1.137   0.039 -1.4844 -1.5082  0.1125
 5791TIP3    H217338   1.239   0.990   0.021 -0.2389 -1.4685  1.7496
 5792TIP3   OH217339   4.630   4.284   3.591 -0.1972 -0.1494 -0.2096
 5792TIP3    H117340   4.647   4.190   3.601  0.9547  0.1600  1.0200
 5792TIP3    H217341   4.623   4.317   3.680  2.6932  1.4491 -0.4338
 5793TIP3   OH217342   3.889   1.477   1.523 -0.0155 -0.2341  0.4463
 5793TIP3    H117343   3.921   1.550   1.577 -1.4364 -0.1741  1.2400
 5793TIP3    H217344   3.812   1.512   1.479 -3.7099 -2.4367  4.4156
 5794TIP3   OH217345   5.750   4.727   5.362 -0.0863  0.2867 -0.0535
 5794TIP3    H117346   5.717   4.803   5.409 -0.5328  0.0134  0.0854
 5794TIP3    H217347   5.671   4.680   5.334  0.1399 -1.2924  1.7459
 5795TIP3   OH217348   6.594   0.911   2.375 -0.3313  0.1483  0.5970
 5795TIP3    H117349   6.512   0.889   2.420 -0.1932 -2.5363 -0.3073
 5795TIP3    H217350   6.618   0.997   2.410 -2.0609 -0.2405  2.9862
 5796TIP3   OH217351   4.400   0.183   3.049 -0.2148  0.1687 -0.2356
 5796TIP3    H117352   4.482   0.228   3.029  0.4342 -0.5372  0.6994
 5796TIP3    H217353   4.374   0.143   2.966  1.0834 -0.6595 -0.2757
 5797TIP3   OH217354   4.848   4.587   1.712 -0.3080  0.5760 -0.8373
 5797TIP3    H117355   4.872   4.525   1.642  0.2849  1.4503 -1.4237
 5797TIP3    H217356   4.917   4.652   1.711  0.4485 -0.1062  1.4897
 5798TIP3   OH217357   5.055   5.360   1.039 -0.1763  0.0578 -0.6572
 5798TIP3    H117358   5.129   5.419   1.025 -1.0074  1.2259 -0.3040
 5798TIP3    H217359   5.024   5.340   0.951  0.1803  0.0590 -0.7854
 5799TIP3   OH217360   2.830   0.774   5.425  0.1286 -0.2034 -0.0486
 5799TIP3    H117361   2.736   0.790   5.432 -0.1276 -2.0000  1.5809
 5799TIP3    H217362   2.863   0.844   5.369 -2.2203  0.2902 -0.9126
 5800TIP3   OH217363   2.048   2.350   1.039 -0.0960  0.1581  0.3679
 5800TIP3    H117364   1.959   2.363   1.007 -0.5360 -0.6308  1.2265
 5800TIP3    H217365   2.038   2.336   1.133  1.1187  1.9414  0.8272
 5801TIP3   OH217366   6.241   0.640   4.054  0.0538 -0.3062  0.1947
 5801TIP3    H117367   6.301   0.580   4.009  0.5861  0.6779 -0.4496
 5801TIP3    H217368   6.157   0.627   4.011 -0.5626 -2.5446  1.8642
 5802TIP3   OH217369   2.664   0.418   1.367  0.1138  0.4083  0.4572
 5802TIP3    H117370   2.733   0.481   1.348 -1.4897  1.8395 -0.9210
 5802TIP3    H217371   2.582   0.466   1.355 -1.1639 -1.4094  1.3111
 5803TIP3   OH217372   6.320   1.758   0.526  0.0993  0.1926 -1.0572
 5803TIP3    H117373   6.270   1.805   0.593 -0.7143  1.2547 -2.3716
 5803TIP3    H217374   6.258   1.695   0.490  0.4251 -0.1225 -1.0719
 5804TIP3   OH217375   2.190   6.700   1.460  0.3569 -0.0377 -0.2251
 5804TIP3    H117376   2.259   6.644   1.424 -0.5103 -0.2636 -1.6163
 5804TIP3    H217377   2.136   6.640   1.511 -1.6490 -0.9943 -3.2137
 5805TIP3   OH217378   1.254   5.601   2.651 -0.6602 -0.5429  0.7894
 5805TIP3    H117379   1.191   5.606   2.579 -1.6963  0.0418  1.7116
 5805TIP3    H217380   1.333   5.564   2.611 -1.0024  0.3442 -0.7847
 5806TIP3   OH217381   3.915   3.849   5.505 -0.6601 -0.2077 -0.6204
 5806TIP3    H117382   3.876   3.768   5.538 -1.9141  0.1392 -1.2144
 5806TIP3    H217383   3.888   3.854   5.414 -0.6352  0.9004 -0.5803
 5807TIP3   OH217384   1.998   6.158   2.155 -0.7592  0.0096  0.2780
 5807TIP3    H117385   1.957   6.118   2.079  1.9892 -0.5282 -1.0591
 5807TIP3    H217386   1.972   6.250   2.151 -2.2367 -0.3955 -0.1335
 5808TIP3   OH217387   2.038   4.348   4.830 -0.6820  0.3280 -0.1929
 5808TIP3    H117388   2.104   4.392   4.884 -1.7346  1.7283  0.0040
 5808TIP3    H217389   1.960   4.345   4.885 -1.3443  0.4589 -1.1037
 5809TIP3   OH217390   4.963   2.620   4.373 -0.4664  0.1710  0.0978
 5809TIP3    H117391   5.008   2.542   4.407  2.0134  2.4446  2.5911
 5809TIP3    H217392   5.032   2.668   4.327 -2.2326  0.4412 -2.4603
 5810TIP3   OH217393   3.281   6.494   0.564  0.4919  0.0118 -0.0279
 5810TIP3    H117394   3.288   6.416   0.508 -1.2285 -1.9404  2.2652
 5810TIP3    H217395   3.356   6.489   0.623 -0.2510 -0.6405  0.8973
 5811TIP3   OH217396   0.235   4.730   2.602  0.3242  0.0307 -0.1546
 5811TIP3    H117397   0.188   4.781   2.669  1.5404 -0.2993  0.9862
 5811TIP3    H217398   0.300   4.791   2.567 -0.5173  0.3042 -1.3169
 5812TIP3   OH217399   3.706   3.429   4.763  0.0474 -0.2218 -0.0443
 5812TIP3    H117400   3.683   3.488   4.834 -0.2556  0.0617 -0.3810
 5812TIP3    H217401   3.734   3.486   4.692 -1.4684 -0.4076 -0.8274
 5813TIP3   OH217402   2.559   2.418   5.663 -0.1471  0.2284  0.1446
 5813TIP3    H117403   2.631   2.369   5.623 -0.2584 -1.0026  1.3829
 5813TIP3    H217404   2.601   2.494   5.703  0.2166  0.4409 -0.6275
 5814TIP3   OH217405   0.085   3.968   4.608  0.0586 -0.2163  0.3441
 5814TIP3    H117406   0.024   3.968   4.682 -2.8368  0.8799 -1.8477
 5814TIP3    H217407   0.070   3.884   4.565 -0.2138  0.2062 -0.4087
 5815TIP3   OH217408   1.598   6.449   2.806  0.1558 -0.0403 -0.1171
 5815TIP3    H117409   1.621   6.460   2.898 -1.0740 -0.1878  0.2223
 5815TIP3    H217410   1.547   6.367   2.803 -1.8801  1.1648 -0.5034
 5816TIP3   OH217411   1.354   2.865   0.797 -0.4699 -0.2822  0.8329
 5816TIP3    H117412   1.394   2.935   0.849 -1.9692  0.8497  0.5429
 5816TIP3    H217413   1.387   2.784   0.836  2.1546  0.5322  0.5266
 5817TIP3   OH217414   3.219   0.345   5.718 -0.2532 -0.0598  0.2425
 5817TIP3    H117415   3.251   0.434   5.705  0.3319 -0.4439 -1.1899
 5817TIP3    H217416   3.142   0.354   5.774  0.3709  1.2341  0.9368
 5818TIP3   OH217417   4.099   0.396   2.561 -0.0636  0.8948 -0.6271
 5818TIP3    H117418   4.142   0.346   2.491 -0.3504  1.5435 -1.2680
 5818TIP3    H217419   4.139   0.362   2.641 -1.4591 -1.6141 -0.8883
 5819TIP3   OH217420   3.676   5.988   1.578  0.2436  0.1963 -0.7613
 5819TIP3    H117421   3.746   6.004   1.642  0.8849 -1.1742 -1.0933
 5819TIP3    H217422   3.608   6.051   1.603  0.8738  0.3812  0.6541
 5820TIP3   OH217423   1.113   6.339   5.544  0.0034  0.0301 -0.3688
 5820TIP3    H117424   1.185   6.344   5.606 -0.6190 -0.2767  0.4070
 5820TIP3    H217425   1.125   6.414   5.485 -0.5447  1.5837  1.4045
 5821TIP3   OH217426   6.805   6.407   0.658  0.5077 -0.2565  0.5760
 5821TIP3    H117427   6.814   6.390   0.565  1.0280  0.5032  0.4729
 5821TIP3    H217428   6.717   6.378   0.680  0.4482 -0.6061 -0.1088
 5822TIP3   OH217429   5.854   4.364   5.216 -0.0457  0.0020 -0.2088
 5822TIP3    H117430   5.838   4.432   5.282  0.4224  1.2632 -1.3610
 5822TIP3    H217431   5.872   4.412   5.135 -0.7016 -1.5064 -1.3034
 5823TIP3   OH217432   1.917   1.335   2.968  0.1442  0.2504 -0.4688
 5823TIP3    H117433   1.910   1.285   3.049  0.8776  0.5066 -0.2363
 5823TIP3    H217434   1.918   1.426   2.996 -1.1335  0.4094 -0.8878
 5824TIP3   OH217435   3.546   2.723   5.120 -0.7038  0.2669  0.3353
 5824TIP3    H117436   3.630   2.750   5.156 -1.7908  1.1947  2.3193
 5824TIP3    H217437   3.514   2.656   5.180 -1.5909  0.2558 -0.1208
 5825TIP3   OH217438   3.391   2.951   2.208 -0.0148 -0.6752  0.0878
 5825TIP3    H117439   3.403   2.923   2.299 -0.6666  0.1428  0.4360
 5825TIP3    H217440   3.382   3.046   2.213  1.5342 -0.4328 -1.0133
 5826TIP3   OH217441   1.895   6.562   3.634  0.0536  0.5437  0.6910
 5826TIP3    H117442   1.939   6.511   3.566  0.8392  1.5051  0.4427
 5826TIP3    H217443   1.910   6.653   3.609 -0.0140  0.9171  1.9213
 5827TIP3   OH217444   2.625   5.201   1.852  0.0539 -0.6905 -0.4367
 5827TIP3    H117445   2.663   5.115   1.867  0.6751 -0.5868 -1.3404
 5827TIP3    H217446   2.697   5.263   1.867 -0.3773 -0.3231  0.1740
 5828TIP3   OH217447   6.842   4.717   3.637 -0.2781 -0.5113  0.1445
 5828TIP3    H117448   6.849   4.708   3.542 -1.0848 -0.8898  0.1122
 5828TIP3    H217449   6.915   4.774   3.661  0.4092 -1.0423 -0.6003
 5829TIP3   OH217450   2.499   0.270   2.781  0.4399  0.1319 -0.6746
 5829TIP3    H117451   2.421   0.309   2.741  0.9124  0.4526 -1.2999
 5829TIP3    H217452   2.541   0.342   2.828 -0.6213 -0.4442  1.2647
 5830TIP3   OH217453   6.806   0.040   2.197  0.0633 -0.0310 -0.2835
 5830TIP3    H117454   6.783   0.079   2.282 -1.0674 -1.2867  0.0369
 5830TIP3    H217455   6.732   0.061   2.140  0.2469 -0.2369 -0.6018
 5831TIP3   OH217456   4.477   3.609   0.788  0.3578 -0.4747  0.0633
 5831TIP3    H117457   4.569   3.614   0.813  0.5269 -4.4407  0.8820
 5831TIP3    H217458   4.478   3.583   0.696  0.2222 -2.2716  0.5157
 5832TIP3   OH217459   3.726   0.590   3.096  0.2197  0.3816  0.4538
 5832TIP3    H117460   3.784   0.553   3.030 -0.0771  1.1493 -0.2574
 5832TIP3    H217461   3.783   0.611   3.169  0.6183 -0.1126  0.2894
 5833TIP3   OH217462   6.556   3.521   4.650  0.2213  0.0218 -0.1033
 5833TIP3    H117463   6.522   3.504   4.562  1.2223  0.7115 -0.6470
 5833TIP3    H217464   6.551   3.437   4.695 -1.4214 -0.0767 -0.4076
 5834TIP3   OH217465   3.629   5.751   1.234  0.1270 -0.5788 -0.0192
 5834TIP3    H117466   3.664   5.667   1.265  1.7309  0.5052  1.2623
 5834TIP3    H217467   3.707   5.804   1.217 -0.8644  0.7981 -0.4017
 5835TIP3   OH217468   3.197   1.144   3.264  0.3324  0.2538  0.4768
 5835TIP3    H117469   3.227   1.169   3.351  0.1482 -0.1254  0.6494
 5835TIP3    H217470   3.133   1.210   3.241  0.6525  0.5676  0.4723
 5836TIP3   OH217471   1.704   3.304   1.851  0.4074 -0.2156  0.1041
 5836TIP3    H117472   1.662   3.389   1.860 -2.6069 -1.5964  0.7836
 5836TIP3    H217473   1.731   3.281   1.940  3.6371  1.0200 -0.4511
 5837TIP3   OH217474   1.501   4.282   5.304 -0.3592 -0.2415 -0.3296
 5837TIP3    H117475   1.447   4.240   5.237 -2.1481 -0.1095  0.9507
 5837TIP3    H217476   1.503   4.220   5.377  1.2225 -0.2176 -0.3156
 5838TIP3   OH217477   3.633   1.949   5.055  0.0349 -0.0459 -0.2031
 5838TIP3    H117478   3.587   1.983   5.132 -2.4796  1.2433 -2.1172
 5838TIP3    H217479   3.722   1.983   5.063 -0.5632  1.2986  1.3695
 5839TIP3   OH217480   4.311   3.544   5.082 -0.1103 -0.0535 -0.4553
 5839TIP3    H117481   4.341   3.586   5.162 -0.3257  1.3236 -1.0744
 5839TIP3    H217482   4.303   3.451   5.105  0.2034  0.2585  0.9918
 5840TIP3   OH217483   4.468   5.818   0.970  0.1011  0.5372  0.4093
 5840TIP3    H117484   4.520   5.827   1.050 -0.2604 -0.1271  0.7347
 5840TIP3    H217485   4.405   5.748   0.991  0.7697 -0.4834 -0.8586
 5841TIP3   OH217486   6.361   6.409   4.295  0.2230 -0.9142  0.0474
 5841TIP3    H117487   6.417   6.343   4.255  2.1306 -0.2124  1.3991
 5841TIP3    H217488   6.363   6.483   4.234 -0.8914 -1.6119 -0.8606
 5842TIP3   OH217489   4.848   6.206   2.822 -0.2567  0.2099  0.0004
 5842TIP3    H117490   4.803   6.290   2.816  1.0793  0.8552 -1.6529
 5842TIP3    H217491   4.778   6.143   2.838 -1.2415  1.6504  1.6421
 5843TIP3   OH217492   1.835   4.062   2.598  1.1192  0.0964  0.7046
 5843TIP3    H117493   1.854   4.022   2.683 -1.5833 -0.3983  1.1430
 5843TIP3    H217494   1.857   4.154   2.610 -0.0476  0.2206  2.2774
 5844TIP3   OH217495   6.729   6.557   2.025 -0.1430 -0.2676  0.5256
 5844TIP3    H117496   6.763   6.536   2.112 -0.3944 -0.4131  0.5890
 5844TIP3    H217497   6.645   6.512   2.020  0.5611 -1.5619 -0.3661
 5845TIP3   OH217498   4.801   4.634   2.531 -0.0013 -0.4329  0.2409
 5845TIP3    H117499   4.848   4.622   2.614  2.5834  1.4945 -0.7826
 5845TIP3    H217500   4.761   4.721   2.539  2.9493  1.2403 -1.5520
 5846TIP3   OH217501   3.776   4.072   5.062 -0.4957 -0.4851 -0.3354
 5846TIP3    H117502   3.819   4.083   4.977  1.1922 -1.2396  0.3740
 5846TIP3    H217503   3.833   4.119   5.124 -2.4256  1.2729  0.2397
 5847TIP3   OH217504   2.187   6.388   4.449 -0.0415  0.3037 -0.2327
 5847TIP3    H117505   2.176   6.446   4.525 -1.7114 -0.0195 -0.2047
 5847TIP3    H217506   2.123   6.319   4.461  1.2627 -1.0519 -0.7756
 5848TIP3   OH217507   6.908   0.226   3.449 -0.2524  0.2827 -0.2495
 5848TIP3    H117508   6.864   0.156   3.401 -0.0709  1.1386 -1.7066
 5848TIP3    H217509   6.864   0.306   3.420 -0.3269  0.8071  1.2349
 5849TIP3   OH217510   5.195   6.466   2.557  0.1323 -0.2317  0.7725
 5849TIP3    H117511   5.231   6.381   2.585 -0.3192 -0.0368  2.0068
 5849TIP3    H217512   5.272   6.519   2.536  0.3906 -1.3190 -1.2231
 5850TIP3   OH217513   4.461   6.278   3.859 -0.1144 -0.1173  0.3761
 5850TIP3    H117514   4.525   6.241   3.800 -1.1196 -0.6904 -0.3802
 5850TIP3    H217515   4.510   6.344   3.909  0.7164  0.5383 -1.2205
 5851TIP3   OH217516   5.713   5.631   3.794 -0.2673  0.2284 -0.1057
 5851TIP3    H117517   5.680   5.596   3.877 -0.1134  0.0019 -0.1387
 5851TIP3    H217518   5.690   5.724   3.797  1.1873  0.5889  0.9198
 5852TIP3   OH217519   3.610   3.010   0.453 -0.0662  0.2429 -0.2439
 5852TIP3    H117520   3.574   3.048   0.373 -0.6149  0.9036  0.3032
 5852TIP3    H217521   3.678   2.950   0.423 -0.3058  0.4407 -1.2049
 5853TIP3   OH217522   1.725   6.509   1.340 -0.0419  0.5820 -0.1171
 5853TIP3    H117523   1.759   6.581   1.287  1.3064  1.6201  2.0201
 5853TIP3    H217524   1.724   6.434   1.280 -0.1784  2.0258 -2.0262
 5854TIP3   OH217525   4.099   0.394   2.072 -0.5267 -0.1096 -0.0699
 5854TIP3    H117526   4.075   0.305   2.048 -0.7532 -0.4568  1.3742
 5854TIP3    H217527   4.016   0.438   2.091 -0.5462  0.8549 -2.0930
 5855TIP3   OH217528   7.045   4.430   0.319  0.5699 -0.3038  0.0739
 5855TIP3    H117529   7.018   4.489   0.249 -1.7315 -2.4607 -0.9980
 5855TIP3    H217530   7.034   4.480   0.399 -0.8876  0.8634 -0.8152
 5856TIP3   OH217531   3.775   5.369   1.702 -0.2526 -0.1191  0.1961
 5856TIP3    H117532   3.811   5.333   1.783  0.3076 -0.7817 -0.3333
 5856TIP3    H217533   3.819   5.320   1.632 -0.2174  0.9003 -0.5248
 5857TIP3   OH217534   3.065   3.962   1.115 -0.4949  0.6230 -0.3856
 5857TIP3    H117535   3.145   3.966   1.168  0.3063  0.1156 -1.5004
 5857TIP3    H217536   3.049   4.052   1.088 -1.0989  0.9384  0.9521
 5858TIP3   OH217537   1.385   1.444   2.192  0.3923 -0.5119  0.0817
 5858TIP3    H117538   1.351   1.531   2.214 -0.0418 -0.7420  0.3414
 5858TIP3    H217539   1.316   1.405   2.137  0.7771 -0.5310 -0.3896
 5859TIP3   OH217540   2.378   6.216   3.889  0.0572 -0.0218 -0.1729
 5859TIP3    H117541   2.319   6.258   3.952  0.3946 -0.1249  0.2151
 5859TIP3    H217542   2.361   6.262   3.807 -0.7744 -0.2460 -0.1382
 5860TIP3   OH217543   2.372   0.615   3.505 -0.2822 -0.7404 -0.3210
 5860TIP3    H117544   2.413   0.532   3.480 -0.2647 -0.8789  0.1455
 5860TIP3    H217545   2.406   0.632   3.593 -0.0964 -0.1122 -0.5101
 5861TIP3   OH217546   0.583   5.096   5.229 -0.5736  0.0102 -0.0481
 5861TIP3    H117547   0.589   5.190   5.213 -0.0825 -0.0925 -0.4847
 5861TIP3    H217548   0.489   5.079   5.239 -0.8230  0.2557 -1.7888
 5862TIP3   OH217549   4.128   2.864   3.139 -0.4512  0.4547 -0.8658
 5862TIP3    H117550   4.048   2.915   3.151 -0.5491  0.0390  0.4140
 5862TIP3    H217551   4.107   2.800   3.071 -1.0484  0.6448 -0.8603
 5863TIP3   OH217552   3.737   5.157   3.939 -0.8152 -0.1579  0.3383
 5863TIP3    H117553   3.642   5.167   3.943 -0.8423 -0.2921  0.0671
 5863TIP3    H217554   3.759   5.180   3.849 -0.2253  2.9021  1.1664
 5864TIP3   OH217555   7.084   6.605   5.123 -0.2386 -0.4563  0.1603
 5864TIP3    H117556   7.157   6.570   5.073 -0.2467 -0.2425 -0.0025
 5864TIP3    H217557   7.012   6.611   5.060  0.2617  1.5393 -0.2886
 5865TIP3   OH217558   1.972   3.180   4.304  0.2797  0.0261  0.0654
 5865TIP3    H117559   1.965   3.098   4.352 -2.5559  0.5803  0.7297
 5865TIP3    H217560   1.941   3.160   4.216 -2.1994  0.6933  0.7176
 5866TIP3   OH217561   1.871   2.582   4.912  0.3599 -0.2095  0.3153
 5866TIP3    H117562   1.946   2.542   4.957 -0.3850 -0.7757  1.0816
 5866TIP3    H217563   1.801   2.581   4.977 -0.5378 -0.3982 -0.6377
 5867TIP3   OH217564   5.725   1.909   2.155 -0.3341  0.1228 -0.2210
 5867TIP3    H117565   5.773   1.926   2.074  0.5061  0.4030  0.3129
 5867TIP3    H217566   5.724   1.814   2.163  1.9276  0.0969  0.7360
 5868TIP3   OH217567   5.404   5.307   5.159 -0.0105  0.5781  0.3874
 5868TIP3    H117568   5.412   5.295   5.064 -0.1828  0.8626  0.3330
 5868TIP3    H217569   5.350   5.234   5.188  0.3062  0.3124  0.3153
 5869TIP3   OH217570   0.365   3.729   5.680 -0.5491 -0.3851  0.5032
 5869TIP3    H117571   0.366   3.710   5.586  0.1060  0.4496  0.3282
 5869TIP3    H217572   0.434   3.794   5.692 -1.2921  0.2720  1.3950
 5870TIP3   OH217573   0.867   3.226   1.292  0.1944 -0.0720  0.3285
 5870TIP3    H117574   0.855   3.173   1.213  0.5883 -0.0898  0.2780
 5870TIP3    H217575   0.859   3.164   1.364  0.9009 -0.2516  0.2609
 5871TIP3   OH217576   1.605   4.970   5.240  0.3228  0.4125 -0.2683
 5871TIP3    H117577   1.579   4.902   5.178  2.5227  0.3121 -1.1662
 5871TIP3    H217578   1.612   5.049   5.187 -0.4205  0.9453  0.4097
 5872TIP3   OH217579   1.409   2.526   1.642 -0.5967 -0.3728 -0.1699
 5872TIP3    H117580   1.392   2.492   1.730  0.1155 -1.0023 -0.2553
 5872TIP3    H217581   1.501   2.504   1.626 -0.1354  1.5010 -0.3011
 5873TIP3   OH217582   1.365   3.049   1.147  0.3637 -0.3211  0.3360
 5873TIP3    H117583   1.285   3.014   1.186  0.0126 -0.1814 -0.2552
 5873TIP3    H217584   1.395   3.115   1.210 -0.2859  0.0147  0.2958
 5874TIP3   OH217585   1.535   1.937   5.196 -0.2846 -0.1055  0.0844
 5874TIP3    H117586   1.570   1.882   5.125 -0.1499 -0.2546  0.2669
 5874TIP3    H217587   1.533   1.879   5.272 -0.9031 -0.0951  0.0858
 5875TIP3   OH217588   2.333   4.821   0.376 -0.3777 -0.2060 -0.6231
 5875TIP3    H117589   2.302   4.893   0.321  0.4848  0.6226 -0.0539
 5875TIP3    H217590   2.319   4.742   0.323 -1.6123  0.3359 -1.1362
 5876TIP3   OH217591   1.411   1.725   4.789 -0.0618  0.2649  0.6673
 5876TIP3    H117592   1.473   1.769   4.848 -1.0523  2.2529  0.3074
 5876TIP3    H217593   1.325   1.751   4.821 -0.6383  0.2607 -0.8067
 5877TIP3   OH217594   7.181   0.152   3.398 -0.3269 -0.2615 -0.1551
 5877TIP3    H117595   7.186   0.073   3.344  1.3139  0.2331 -0.7879
 5877TIP3    H217596   7.090   0.156   3.427 -0.5656 -2.0876 -0.5463
 5878TIP3   OH217597   4.560   5.882   0.174 -0.2694  0.1945 -0.1003
 5878TIP3    H117598   4.520   5.798   0.149 -0.2639  0.8504 -2.5583
 5878TIP3    H217599   4.640   5.858   0.220 -1.1978 -1.1272  0.9003
 5879TIP3   OH217600   4.898   5.973   0.533  0.6857 -0.2315 -0.7852
 5879TIP3    H117601   4.857   6.047   0.488  0.6240 -0.1776 -0.6421
 5879TIP3    H217602   4.824   5.919   0.561  0.7634 -1.2593 -2.4065
 5880TIP3   OH217603   0.961   1.533   4.066 -0.2048 -0.2872 -0.3081
 5880TIP3    H117604   0.953   1.443   4.034  2.6738  0.3717 -3.5258
 5880TIP3    H217605   0.878   1.575   4.040 -1.0768 -1.6609  0.1363
 5881TIP3   OH217606   7.085   5.205   3.804 -0.1823 -0.2131  0.3549
 5881TIP3    H117607   7.114   5.163   3.723  1.8084  2.0393 -0.2303
 5881TIP3    H217608   7.036   5.282   3.775 -1.4735 -0.6066  1.3629
 5882TIP3   OH217609   3.964   4.050   2.921  0.1150 -0.3065  0.5108
 5882TIP3    H117610   3.977   3.958   2.942 -0.7041 -0.7095 -0.6803
 5882TIP3    H217611   3.880   4.053   2.876  0.0508  1.0486  0.6844
 5883TIP3   OH217612   0.693   4.276   0.688  0.3301 -0.2090 -0.0412
 5883TIP3    H117613   0.753   4.248   0.619 -1.2874 -0.6313 -1.3391
 5883TIP3    H217614   0.670   4.366   0.665  1.3817  0.3965  1.1507
 5884TIP3   OH217615   3.835   5.695   1.883  0.0237  0.0738 -0.1385
 5884TIP3    H117616   3.920   5.653   1.872 -0.0735 -0.3485  0.6576
 5884TIP3    H217617   3.817   5.735   1.798  0.1017 -1.5712 -0.9816
 5885TIP3   OH217618   1.661   3.220   0.218  0.0841  0.2756 -0.3447
 5885TIP3    H117619   1.710   3.210   0.136 -0.5225 -0.3928 -0.6378
 5885TIP3    H217620   1.670   3.135   0.261 -0.9638  0.0823 -0.4913
 5886TIP3   OH217621   3.383   0.717   3.879 -0.1995  0.0268  0.4001
 5886TIP3    H117622   3.367   0.697   3.787  0.4651  0.5752  0.1525
 5886TIP3    H217623   3.311   0.775   3.904 -0.6764 -0.5515  0.3833
 5887TIP3   OH217624   4.617   1.148   3.546 -0.2047  0.5079 -0.5218
 5887TIP3    H117625   4.575   1.063   3.561  0.4707  0.3251  0.3846
 5887TIP3    H217626   4.697   1.145   3.598  0.1844  1.4354 -1.0390
 5888TIP3   OH217627   3.304   0.280   2.696  0.2894 -0.6194 -0.3048
 5888TIP3    H117628   3.353   0.264   2.615 -1.0114 -0.3648 -1.1725
 5888TIP3    H217629   3.259   0.363   2.681  0.4457 -0.3020  0.8962
 5889TIP3   OH217630   4.327   0.963   2.222  0.2212  0.4493 -0.3543
 5889TIP3    H117631   4.408   1.011   2.239  2.1696 -1.6013 -2.9051
 5889TIP3    H217632   4.322   0.899   2.293 -0.5961  2.1500  1.1948
 5890TIP3   OH217633   3.508   0.548   5.397 -0.2284  0.1126 -0.2087
 5890TIP3    H117634   3.427   0.594   5.419  0.0337  0.2217  0.5557
 5890TIP3    H217635   3.510   0.474   5.457  2.0718  2.1396  2.5304
 5891TIP3   OH217636   4.622   2.717   0.624 -1.1209  0.2817  0.6291
 5891TIP3    H117637   4.662   2.667   0.552 -0.8292  2.0716 -0.4991
 5891TIP3    H217638   4.528   2.696   0.618 -1.0053 -0.1285  0.1607
 5892TIP3   OH217639   2.816   3.344   0.237 -0.3724  0.0156  0.2361
 5892TIP3    H117640   2.767   3.270   0.200 -0.1806 -0.8269  1.6110
 5892TIP3    H217641   2.790   3.347   0.329  2.3834 -0.6997  1.1183
 5893TIP3   OH217642   1.615   3.002   4.128  0.2591  0.2044  0.0695
 5893TIP3    H117643   1.691   3.058   4.114 -0.7180  1.5388 -0.0566
 5893TIP3    H217644   1.605   2.955   4.046  1.4093 -0.5967  0.3584
 5894TIP3   OH217645   2.073   1.408   3.337 -0.2078 -0.4942 -0.4010
 5894TIP3    H117646   2.029   1.376   3.416  0.0931 -1.5754 -0.6510
 5894TIP3    H217647   2.141   1.343   3.320  2.1033  1.5387  0.4577
 5895TIP3   OH217648   0.330   5.620   0.539  0.2883 -0.3231 -0.1282
 5895TIP3    H117649   0.336   5.525   0.528  0.8027 -0.2996 -0.0798
 5895TIP3    H217650   0.325   5.633   0.633 -1.1083 -0.3667 -0.1830
 5896TIP3   OH217651   3.217   3.578   3.584 -0.0950 -0.0670 -0.2899
 5896TIP3    H117652   3.171   3.553   3.503  1.2395 -2.5285 -0.3827
 5896TIP3    H217653   3.306   3.547   3.571 -0.3960 -2.8328  3.0636
 5897TIP3   OH217654   4.442   4.004   0.236  0.2478 -0.7337 -0.0557
 5897TIP3    H117655   4.411   4.090   0.207  1.0355 -0.5007 -0.2209
 5897TIP3    H217656   4.535   4.015   0.252  0.6477 -1.8647 -1.3464
 5898TIP3   OH217657   2.947   1.845   1.463 -0.3919  0.3339 -0.0352
 5898TIP3    H117658   2.930   1.935   1.435 -1.1672 -0.2105 -1.3879
 5898TIP3    H217659   2.913   1.841   1.553 -1.2923  1.1310 -0.3196
 5899TIP3   OH217660   2.882   1.728   5.067 -0.2504 -0.0455 -0.1145
 5899TIP3    H117661   2.887   1.663   5.137  1.9513 -0.7864 -0.8876
 5899TIP3    H217662   2.934   1.690   4.996 -0.3057  1.8303 -1.2004
 5900TIP3   OH217663   2.266   5.603   3.355  0.7082 -0.2366 -0.3611
 5900TIP3    H117664   2.205   5.665   3.315 -0.3928 -0.4811  0.8883
 5900TIP3    H217665   2.216   5.522   3.362  1.4385 -0.6608 -0.0063
 5901TIP3   OH217666   2.767   3.389   5.313  0.2594  0.1256  0.0371
 5901TIP3    H117667   2.725   3.475   5.319 -0.5441 -0.3461  2.1570
 5901TIP3    H217668   2.858   3.406   5.338  0.6998  0.6800 -1.7722
 5902TIP3   OH217669   5.840   3.843   2.775 -0.3029  0.2381 -0.0179
 5902TIP3    H117670   5.770   3.835   2.710  0.5689 -1.1338 -0.8267
 5902TIP3    H217671   5.845   3.936   2.794  0.0512  0.8236 -2.6541
 5903TIP3   OH217672   4.028   2.855   4.983  0.3524  0.0602  0.3304
 5903TIP3    H117673   3.964   2.898   5.040 -0.4129  0.4829 -0.8033
 5903TIP3    H217674   3.989   2.859   4.896  0.9494 -1.6294 -0.0545
 5904TIP3   OH217675   4.031   5.202   0.082 -0.2639  0.5150 -0.4488
 5904TIP3    H117676   4.103   5.182   0.022 -1.1218  1.2811 -1.8087
 5904TIP3    H217677   3.952   5.194   0.028 -1.2992 -0.9961  1.1746
 5905TIP3   OH217678   6.310   2.486   5.378 -0.5246  0.2197 -0.0134
 5905TIP3    H117679   6.281   2.521   5.294 -2.1064 -0.3781  0.2374
 5905TIP3    H217680   6.392   2.441   5.359 -0.9771 -0.0876 -1.2892
 5906TIP3   OH217681   7.180   0.548   4.766  0.0483 -0.4512 -0.1569
 5906TIP3    H117682   7.112   0.586   4.710  0.0860 -1.8203 -1.2031
 5906TIP3    H217683   7.262   0.578   4.727  0.0565 -0.2762 -0.0015
 5907TIP3   OH217684   0.914   5.205   4.335  0.1307  0.4069 -0.1341
 5907TIP3    H117685   0.921   5.123   4.385 -2.0203  0.4071  0.2725
 5907TIP3    H217686   0.884   5.269   4.399  4.1910  2.2977  0.1906
 5908TIP3   OH217687   6.494   2.459   0.491  0.1197 -0.4580  0.2265
 5908TIP3    H117688   6.562   2.519   0.522  1.6207 -0.8704 -1.9996
 5908TIP3    H217689   6.455   2.423   0.571  1.3491  1.0824  1.5821
 5909TIP3   OH217690   3.268   5.475   4.678  0.0571 -0.5331 -0.0227
 5909TIP3    H117691   3.362   5.472   4.658  0.2555  1.0914  0.5358
 5909TIP3    H217692   3.261   5.442   4.767 -0.0461 -1.5579 -0.3892
 5910TIP3   OH217693   5.379   1.513   1.667 -0.4942 -0.0934  0.5072
 5910TIP3    H117694   5.293   1.529   1.706 -0.8255 -0.2346 -0.1597
 5910TIP3    H217695   5.361   1.467   1.585  0.3166 -1.8525  1.2622
 5911TIP3   OH217696   1.197   5.949   5.385 -0.1970  0.3317  0.1313
 5911TIP3    H117697   1.288   5.979   5.381 -0.1798  0.9029  2.6240
 5911TIP3    H217698   1.203   5.862   5.424 -0.6232 -0.7002 -1.9658
 5912TIP3   OH217699   2.939   2.396   0.643 -0.3524  0.2265 -0.0133
 5912TIP3    H117700   2.980   2.431   0.564  0.8881  1.6347  1.1749
 5912TIP3    H217701   3.012   2.385   0.705 -1.0981 -2.0040  0.5651
 5913TIP3   OH217702   0.557   2.767   3.486  0.9669  0.4150 -0.3590
 5913TIP3    H117703   0.530   2.748   3.576  0.4863  0.8912 -0.3948
 5913TIP3    H217704   0.629   2.829   3.495 -0.1395  1.7519 -0.3137
 5914TIP3   OH217705   4.104   2.873   0.601  0.5881  0.1964 -0.3115
 5914TIP3    H117706   4.186   2.840   0.636  1.1042  0.6505 -1.0591
 5914TIP3    H217707   4.042   2.867   0.674  1.0848 -0.8488  0.0402
 5915TIP3   OH217708   3.612   0.343   4.258 -0.1529 -0.3504 -0.3624
 5915TIP3    H117709   3.599   0.395   4.179  2.5998 -0.1910 -0.8348
 5915TIP3    H217710   3.645   0.405   4.322  0.9044 -1.0538 -0.1956
 5916TIP3   OH217711   1.790   6.730   3.366 -0.6486  0.5898  0.2089
 5916TIP3    H117712   1.842   6.703   3.290  0.2213 -0.4272  1.1397
 5916TIP3    H217713   1.853   6.775   3.423 -0.8404 -0.3427  1.1896
 5917TIP3   OH217714   5.827   2.260   2.071 -0.4384  0.2015  0.0543
 5917TIP3    H117715   5.884   2.212   2.131  0.0190  0.1949 -0.3813
 5917TIP3    H217716   5.774   2.193   2.029 -1.3903  0.2762  1.0859
 5918TIP3   OH217717   5.402   3.111   3.144  0.3236  0.3984  0.0976
 5918TIP3    H117718   5.428   3.044   3.207 -1.4096 -0.6162 -0.1917
 5918TIP3    H217719   5.425   3.194   3.186  0.2025 -0.2917  1.5877
 5919TIP3   OH217720   6.663   4.653   1.437 -0.2294 -0.2985  0.4366
 5919TIP3    H117721   6.740   4.611   1.399  0.0402  1.7407 -1.5456
 5919TIP3    H217722   6.693   4.689   1.520  0.5536 -0.7510  0.3581
 5920TIP3   OH217723   5.751   4.013   1.993  0.1636 -0.2239 -0.2469
 5920TIP3    H117724   5.813   3.940   2.001  2.7902  1.7668 -0.8301
 5920TIP3    H217725   5.699   4.008   2.073  0.7184 -2.2891  0.0670
 5921TIP3   OH217726   3.846   5.613   5.891 -0.7522  0.3286  0.4676
 5921TIP3    H117727   3.919   5.552   5.905 -0.1727  1.0389  0.6134
 5921TIP3    H217728   3.832   5.613   5.797  1.0761  2.0144  0.1398
 5922TIP3   OH217729   6.838   3.483   0.510 -0.3386 -0.5363 -0.5002
 5922TIP3    H117730   6.759   3.438   0.480 -0.1751 -0.9473 -0.3165
 5922TIP3    H217731   6.892   3.414   0.548 -1.4877  0.2083  2.8852
 5923TIP3   OH217732   5.471   6.003   5.486  0.0029  0.1912 -0.5092
 5923TIP3    H117733   5.405   6.070   5.507  0.5058  0.4315  0.3728
 5923TIP3    H217734   5.421   5.932   5.445 -0.7459  0.5323 -0.2092
 5924TIP3   OH217735   2.987   3.629   4.079 -0.7011 -0.2143 -0.1435
 5924TIP3    H117736   2.962   3.687   4.150 -2.1845 -0.2726 -0.5923
 5924TIP3    H217737   3.049   3.681   4.027  0.1396 -0.0565  0.9700
 5925TIP3   OH217738   0.323   0.967   2.869 -0.4547 -0.3857 -0.5411
 5925TIP3    H117739   0.375   1.009   2.800  0.3629 -0.3079  0.1130
 5925TIP3    H217740   0.363   0.997   2.950 -1.3777 -0.5213 -0.0245
 5926TIP3   OH217741   1.138   1.062   3.104 -0.4331  0.3868  0.0005
 5926TIP3    H117742   1.184   1.008   3.040 -0.5023 -0.4248  0.6166
 5926TIP3    H217743   1.198   1.069   3.178 -1.1770 -0.4780  0.7143
 5927TIP3   OH217744   5.303   3.308   1.586  0.6638  0.3990  0.2243
 5927TIP3    H117745   5.385   3.274   1.623  1.3505  1.5636 -0.1812
 5927TIP3    H217746   5.249   3.329   1.662 -0.5619 -3.2273  0.5453
 5928TIP3   OH217747   2.862   2.399   2.051  0.3098  0.3758  0.2248
 5928TIP3    H117748   2.798   2.343   2.096  0.3350 -0.5351 -0.8420
 5928TIP3    H217749   2.946   2.375   2.090  0.3481 -0.5092 -0.3792
 5929TIP3   OH217750   0.128   2.196   1.272 -0.0848  0.4914  0.1164
 5929TIP3    H117751   0.069   2.266   1.244  1.0352  1.0683 -0.9029
 5929TIP3    H217752   0.124   2.198   1.368 -0.5435  1.5382  0.0861
 5930TIP3   OH217753   1.891   5.947   2.643  0.5740  0.3474  0.1707
 5930TIP3    H117754   1.866   5.977   2.555 -1.3885  1.7723  1.1468
 5930TIP3    H217755   1.979   5.980   2.655  0.3762  1.2920 -0.7780
 5931TIP3   OH217756   6.983   4.484   1.114  0.1365  0.4634 -0.1406
 5931TIP3    H117757   6.963   4.509   1.204  0.8082  1.1532 -0.1780
 5931TIP3    H217758   6.938   4.400   1.103 -1.4458  1.2416  0.2448
 5932TIP3   OH217759   1.886   3.433   1.654 -0.3851 -0.0999 -0.2992
 5932TIP3    H117760   1.815   3.381   1.617 -0.0327 -1.3300  0.6836
 5932TIP3    H217761   1.942   3.369   1.697  0.7406  0.9752 -0.1285
 5933TIP3   OH217762   4.911   6.670   5.156 -0.3677  0.1411 -0.0815
 5933TIP3    H117763   4.839   6.608   5.145  0.4467 -0.6975 -0.8522
 5933TIP3    H217764   4.893   6.714   5.239 -1.0066 -1.0783  0.4409
 5934TIP3   OH217765   2.602   3.166   2.252 -0.6587 -0.0756 -0.1314
 5934TIP3    H117766   2.579   3.243   2.200 -2.0824  0.7402  1.5829
 5934TIP3    H217767   2.696   3.174   2.267 -0.7451  1.2210 -0.1635
 5935TIP3   OH217768   3.067   4.555   0.443 -0.4586  0.6385  0.0742
 5935TIP3    H117769   3.109   4.578   0.525  0.6523  0.3324 -0.3923
 5935TIP3    H217770   3.115   4.603   0.376 -1.2064  0.7126 -0.4198
 5936TIP3   OH217771   6.897   2.374   1.764  0.8767 -0.3021 -0.1732
 5936TIP3    H117772   6.900   2.456   1.714  2.4095 -1.0247 -1.3259
 5936TIP3    H217773   6.813   2.335   1.741  1.7444 -0.8722 -2.6586
 5937TIP3   OH217774   3.088   0.385   1.259 -0.0194 -0.0623 -0.1914
 5937TIP3    H117775   3.172   0.413   1.221 -0.3452 -1.0982 -1.7301
 5937TIP3    H217776   3.111   0.310   1.314 -0.0253 -0.8923 -1.2911
 5938TIP3   OH217777   5.928   2.041   5.602  0.0747 -0.9718  0.4197
 5938TIP3    H117778   5.907   2.053   5.694 -0.5291 -0.2731  0.2098
 5938TIP3    H217779   5.936   1.946   5.591 -1.1664 -1.1619  0.9266
 5939TIP3   OH217780   6.391   2.272   4.628  0.4988  0.0744  0.0628
 5939TIP3    H117781   6.418   2.191   4.671  2.3247 -0.7252 -2.3628
 5939TIP3    H217782   6.446   2.339   4.668  0.9117 -0.3416  0.2048
 5940TIP3   OH217783   5.931   5.869   4.736  0.3373  0.0066 -0.0621
 5940TIP3    H117784   5.874   5.794   4.753 -0.1011  0.4753  0.5749
 5940TIP3    H217785   5.989   5.839   4.666 -0.1624 -0.7517 -0.1684
 5941TIP3   OH217786   6.476   6.444   1.991  0.0894  0.1547 -0.1977
 5941TIP3    H117787   6.398   6.489   1.958  0.7043  1.3351 -0.0867
 5941TIP3    H217788   6.451   6.352   1.994 -0.9393  0.3820 -1.1896
 5942TIP3   OH217789   4.649   1.370   0.493 -0.3760 -0.4749  0.3625
 5942TIP3    H117790   4.605   1.338   0.415 -0.4497 -0.7607  0.5190
 5942TIP3    H217791   4.641   1.465   0.489 -1.1059 -0.5293  0.4453
 5943TIP3   OH217792   4.798   6.601   0.322 -0.0012  0.2993  0.3227
 5943TIP3    H117793   4.863   6.557   0.268  0.1951  1.0348 -0.0636
 5943TIP3    H217794   4.715   6.563   0.296  0.0293  0.9922 -0.8948
 5944TIP3   OH217795   6.311   4.697   4.362  0.1148  0.2428 -0.4941
 5944TIP3    H117796   6.358   4.660   4.437  1.9133  0.2623 -1.5577
 5944TIP3    H217797   6.306   4.791   4.382 -1.4497 -0.0383  0.6219
 5945TIP3   OH217798   5.303   5.275   0.294 -0.0945  0.2039  0.2560
 5945TIP3    H117799   5.237   5.342   0.276 -0.3821 -0.0675  0.2955
 5945TIP3    H217800   5.365   5.318   0.354 -0.1275  0.5208  0.0647
 5946TIP3   OH217801   3.608   0.583   5.146 -0.2821  0.0531  0.5571
 5946TIP3    H117802   3.526   0.620   5.114 -1.0784 -1.6722  0.5310
 5946TIP3    H217803   3.592   0.563   5.238 -0.6425 -2.2408  0.0427
 5947TIP3   OH217804   6.526   0.072   3.453  0.0611 -0.4016  0.3050
 5947TIP3    H117805   6.496   0.142   3.395 -1.7164 -0.1466  1.4339
 5947TIP3    H217806   6.508  -0.009   3.405  1.3230 -0.1528 -0.6478
 5948TIP3   OH217807   6.867   1.138   4.204  0.3561  0.1334 -0.4267
 5948TIP3    H117808   6.804   1.151   4.133  0.7641  1.2092 -0.6022
 5948TIP3    H217809   6.893   1.046   4.196 -2.0798 -0.6975  0.4133
 5949TIP3   OH217810   1.073   0.535   3.563  0.1046  0.2104 -0.0428
 5949TIP3    H117811   1.129   0.612   3.549  0.0445  0.0865 -1.0375
 5949TIP3    H217812   1.123   0.462   3.527 -1.1642  0.2742 -2.1162
 5950TIP3   OH217813   6.924   4.483   2.732 -0.2326  0.9735  0.4642
 5950TIP3    H117814   7.019   4.473   2.737 -0.1706  1.1715 -0.2684
 5950TIP3    H217815   6.908   4.513   2.643 -0.9864  0.9226  0.5814
 5951TIP3   OH217816   2.883   2.689   2.209 -0.2643  0.2573 -0.1624
 5951TIP3    H117817   2.884   2.613   2.150 -0.2481  0.2504 -0.1533
 5951TIP3    H217818   2.974   2.719   2.211 -0.4931  1.0575 -1.1720
 5952TIP3   OH217819   4.290   1.772   3.906 -1.0821 -0.2065  0.1139
 5952TIP3    H117820   4.290   1.735   3.994 -0.3615 -0.6529 -0.0653
 5952TIP3    H217821   4.341   1.710   3.854  0.1622  1.0116 -0.1912
 5953TIP3   OH217822   6.319   2.834   5.710  0.0575 -0.1427  0.1111
 5953TIP3    H117823   6.329   2.800   5.798 -1.9845 -1.3574 -0.0661
 5953TIP3    H217824   6.240   2.792   5.676  0.3352  0.8841 -2.0210
 5954TIP3   OH217825   3.549   0.496   3.956  0.1371  0.4867 -0.1592
 5954TIP3    H117826   3.475   0.518   3.899 -1.0292 -1.6259  0.4349
 5954TIP3    H217827   3.608   0.446   3.899 -0.1220 -0.0001 -0.0054
 5955TIP3   OH217828   3.756   3.955   0.746  0.1834  0.4862 -0.7349
 5955TIP3    H117829   3.753   3.921   0.835 -2.8379  0.7042 -0.6729
 5955TIP3    H217830   3.810   3.891   0.698  1.4682  0.1293  1.0787
 5956TIP3   OH217831   2.381   4.653   1.741  0.1795  0.1327  0.9114
 5956TIP3    H117832   2.461   4.674   1.693  0.1260  1.0660  1.2032
 5956TIP3    H217833   2.356   4.566   1.709 -0.0299  0.8459 -0.9917
 5957TIP3   OH217834   1.657   1.816   2.992  0.4039  0.2757  0.3109
 5957TIP3    H117835   1.617   1.880   3.050 -0.5165  0.4911 -0.5439
 5957TIP3    H217836   1.691   1.868   2.919 -0.0033 -0.1566 -0.1956
 5958TIP3   OH217837   2.094   2.972   3.667  0.0616  0.6723 -0.5737
 5958TIP3    H117838   2.060   2.989   3.755 -0.7937  3.5399 -1.3730
 5958TIP3    H217839   2.016   2.969   3.611  0.5847 -1.1547 -1.2899
 5959TIP3   OH217840   2.656   6.732   4.052  0.0186  0.1151 -0.3141
 5959TIP3    H117841   2.747   6.703   4.049  0.4427  1.3485 -0.1115
 5959TIP3    H217842   2.607   6.664   4.007  0.4730 -2.5166  2.7793
 5960TIP3   OH217843   3.043   2.865   2.926 -0.5803 -0.6992  0.2515
 5960TIP3    H117844   2.968   2.858   2.984 -0.1419 -2.1829  0.6980
 5960TIP3    H217845   3.092   2.783   2.940  1.4924  0.4998  0.5233
 5961TIP3   OH217846   4.457   3.006   2.775 -0.4255  0.1844  0.0168
 5961TIP3    H117847   4.420   3.000   2.864  0.6074 -0.1372  0.4405
 5961TIP3    H217848   4.389   2.969   2.719 -1.2026  0.6395  0.6436
 5962TIP3   OH217849   3.073   4.449   1.025  0.1872  0.2865 -0.0059
 5962TIP3    H117850   3.133   4.508   1.072  1.2029 -1.8623  1.5777
 5962TIP3    H217851   3.113   4.362   1.034 -2.2243 -0.9675 -0.5083
 5963TIP3   OH217852   1.473   1.644   3.265 -0.0567  0.9781  0.3266
 5963TIP3    H117853   1.496   1.672   3.353  0.0721 -0.7259  0.8771
 5963TIP3    H217854   1.478   1.723   3.212  1.3090  1.7723  1.5690
 5964TIP3   OH217855   5.050   4.214   0.807 -0.1476  0.3156  0.3170
 5964TIP3    H117856   5.111   4.268   0.858 -0.8296  0.5253  0.9143
 5964TIP3    H217857   5.043   4.259   0.723 -1.3091  1.6164  1.0696
 5965TIP3   OH217858   2.593   2.097   0.314  0.2763  0.6466 -0.1595
 5965TIP3    H117859   2.575   2.161   0.383 -0.1117  0.5421 -0.1609
 5965TIP3    H217860   2.646   2.029   0.357 -1.3405 -0.2613  0.4751
 5966TIP3   OH217861   0.485   2.443   4.265  0.1091  0.3434  0.7490
 5966TIP3    H117862   0.472   2.362   4.314 -0.4206  0.5081  0.8930
 5966TIP3    H217863   0.539   2.498   4.322  0.5937  0.0360  0.5878
 5967TIP3   OH217864   5.506   4.357   2.716 -0.4914  0.2006 -0.1875
 5967TIP3    H117865   5.439   4.423   2.731  0.5069  1.3341 -0.5602
 5967TIP3    H217866   5.490   4.325   2.627 -0.6926  0.2819 -0.1797
 5968TIP3   OH217867   6.209   1.013   4.392  0.1025 -0.2157 -0.0623
 5968TIP3    H117868   6.118   1.012   4.423  0.3172 -0.1339  0.5900
 5968TIP3    H217869   6.202   0.998   4.298 -0.5874 -0.2274 -0.0181
 5969TIP3   OH217870   3.373   2.952   4.992 -0.3172  0.0181  0.3741
 5969TIP3    H117871   3.332   2.989   4.914  0.2830 -0.9945 -0.4436
 5969TIP3    H217872   3.452   2.909   4.960 -0.9635 -1.9560  1.2426
 5970TIP3   OH217873   5.432   1.029   5.292 -0.1116 -0.4756  0.0422
 5970TIP3    H117874   5.512   0.977   5.281  0.6609  1.0849 -2.8391
 5970TIP3    H217875   5.442   1.070   5.378  0.7893 -2.4723  0.9658
 5971TIP3   OH217876   5.121   5.445   0.222  0.7800  0.1057 -0.2105
 5971TIP3    H117877   5.077   5.486   0.148 -0.1007 -1.0425 -0.3533
 5971TIP3    H217878   5.128   5.515   0.288  0.4867  0.8119 -0.9205
 5972TIP3   OH217879   4.599   6.315   1.499 -0.0743 -0.1116 -0.5725
 5972TIP3    H117880   4.640   6.397   1.473  0.3664 -0.7888 -2.1584
 5972TIP3    H217881   4.549   6.287   1.422 -1.8358 -0.3643  0.6031
 5973TIP3   OH217882   0.257   1.781   4.584  0.1547 -0.6959 -0.5996
 5973TIP3    H117883   0.256   1.747   4.674  0.1248 -0.1215 -0.3803
 5973TIP3    H217884   0.309   1.717   4.535  0.6223 -0.7377 -0.0629
 5974TIP3   OH217885   1.878   2.797   2.904  0.5195  0.7541  0.4167
 5974TIP3    H117886   1.926   2.827   2.827 -0.4086  0.5565 -0.2583
 5974TIP3    H217887   1.870   2.875   2.959  0.3484  1.1421 -0.1437
 5975TIP3   OH217888   0.061   0.099   2.202  0.1616 -0.0873 -0.0205
 5975TIP3    H117889   0.130   0.124   2.264 -0.5890  0.2778  0.6952
 5975TIP3    H217890   0.107   0.087   2.119  1.1503 -0.2853  0.5329
 5976TIP3   OH217891   5.151   1.786   4.293  0.4118  0.2026  0.4668
 5976TIP3    H117892   5.215   1.718   4.273  1.2971  1.6009 -1.9191
 5976TIP3    H217893   5.203   1.861   4.319 -0.2662  1.1025 -0.6601
 5977TIP3   OH217894   4.782   3.517   1.937 -0.4088  0.7193 -0.1671
 5977TIP3    H117895   4.793   3.612   1.935 -2.4107  0.9733 -0.9492
 5977TIP3    H217896   4.838   3.488   2.009 -2.0398  2.8629  2.1247
 5978TIP3   OH217897   0.142   6.176   5.877  0.2730 -0.1569 -0.1701
 5978TIP3    H117898   0.075   6.243   5.890 -0.8321 -1.1969 -0.3457
 5978TIP3    H217899   0.223   6.225   5.860 -0.5879  1.1248 -0.6764
 5979TIP3   OH217900   1.543   2.535   5.397  0.2409 -0.0685  0.3331
 5979TIP3    H117901   1.599   2.458   5.388  1.1310  0.5795  0.2102
 5979TIP3    H217902   1.457   2.500   5.417  0.6408 -1.0963  0.2911
 5980TIP3   OH217903   0.121   5.138   2.543  0.5496 -0.7627 -0.5921
 5980TIP3    H117904   0.196   5.190   2.513 -0.4474  1.3854  0.4183
 5980TIP3    H217905   0.143   5.112   2.632 -0.5214  1.3537  0.3646
 5981TIP3   OH217906   3.908   0.474   2.880 -0.4204 -0.0220  0.0185
 5981TIP3    H117907   4.000   0.499   2.890 -0.8636  1.9198 -0.2563
 5981TIP3    H217908   3.897   0.399   2.938  1.3964 -0.4871 -0.1616
 5982TIP3   OH217909   0.505   0.760   2.400  0.0351  0.6340  0.1540
 5982TIP3    H117910   0.595   0.786   2.381  0.7773 -1.8996 -0.0904
 5982TIP3    H217911   0.513   0.691   2.466 -1.5127 -1.3494 -1.5846
 5983TIP3   OH217912   1.014   4.944   2.322  0.2220  0.1713  0.3206
 5983TIP3    H117913   0.986   4.855   2.343 -0.1293  0.4314  0.9623
 5983TIP3    H217914   1.066   4.971   2.397  1.9057 -0.1597 -0.6742
 5984TIP3   OH217915   2.019   0.368   4.252  0.0832  0.4259 -0.5922
 5984TIP3    H117916   2.080   0.442   4.258  3.2515 -1.9295 -0.8828
 5984TIP3    H217917   2.007   0.355   4.158  0.5876 -0.1582 -0.5845
 5985TIP3   OH217918   6.124   6.300   1.625  0.2566  0.4765 -0.3446
 5985TIP3    H117919   6.163   6.218   1.594 -0.6973  0.2568 -1.0314
 5985TIP3    H217920   6.075   6.275   1.704 -1.1866  0.0628 -1.3197
 5986TIP3   OH217921   4.610   3.540   2.862 -0.5485 -0.6946 -0.6176
 5986TIP3    H117922   4.622   3.596   2.786 -0.6481 -0.8348 -0.7365
 5986TIP3    H217923   4.517   3.518   2.861 -0.2613 -1.9523 -1.3392
 5987TIP3   OH217924   3.195   5.711   2.050 -0.1736  0.3671 -0.2591
 5987TIP3    H117925   3.249   5.778   2.093  0.7612  0.6540 -1.7979
 5987TIP3    H217926   3.109   5.751   2.042  0.0345  0.8789  0.0034
 5988TIP3   OH217927   6.608   2.086   2.384  0.2084 -0.5941  0.6320
 5988TIP3    H117928   6.639   2.103   2.295 -0.3930  2.0575  0.8329
 5988TIP3    H217929   6.688   2.088   2.437  0.5012 -1.5907  0.2522
 5989TIP3   OH217930   2.824   3.131   0.821 -0.3081  0.2741 -0.5591
 5989TIP3    H117931   2.852   3.218   0.792 -0.8697 -0.1460 -2.5062
 5989TIP3    H217932   2.871   3.117   0.903  1.4282  1.5559 -1.2632
 5990TIP3   OH217933   6.644   2.556   1.097  0.2542 -0.3301  0.3782
 5990TIP3    H117934   6.632   2.648   1.074  1.9282 -0.4682 -1.2462
 5990TIP3    H217935   6.678   2.557   1.186 -1.5431  0.4770  1.1135
 5991TIP3   OH217936   3.734   4.115   0.365  0.0208 -0.1797  0.4025
 5991TIP3    H117937   3.810   4.065   0.335  1.4470  0.8375  2.0344
 5991TIP3    H217938   3.658   4.065   0.337  1.3157 -1.4955 -0.8893
 5992TIP3   OH217939   2.545   2.498   4.697  0.0582  0.3742  0.1731
 5992TIP3    H117940   2.520   2.407   4.682  1.0371 -0.2729  2.0222
 5992TIP3    H217941   2.474   2.535   4.749 -0.4187  0.7443 -0.7176
 5993TIP3   OH217942   1.312   1.471   5.380 -0.1309  0.5162  0.3531
 5993TIP3    H117943   1.364   1.536   5.334 -2.1953  2.4564  0.5781
 5993TIP3    H217944   1.349   1.387   5.354  0.6435  1.6430 -2.5088
 5994TIP3   OH217945   4.485   5.011   5.324 -0.0912  0.5029 -0.2469
 5994TIP3    H117946   4.431   4.994   5.247  0.1092 -1.1175 -0.0752
 5994TIP3    H217947   4.436   5.077   5.374 -1.7448 -0.6346 -0.2907
 5995TIP3   OH217948   0.433   4.575   0.388 -0.3034 -0.2616  0.8030
 5995TIP3    H117949   0.497   4.522   0.340 -0.1625  0.4270  0.2263
 5995TIP3    H217950   0.348   4.546   0.355 -0.1920  0.5308 -0.2154
 5996TIP3   OH217951   0.730   5.265   0.233 -0.0274  0.2543 -0.2306
 5996TIP3    H117952   0.734   5.356   0.262 -1.2345  0.0617  0.5941
 5996TIP3    H217953   0.654   5.229   0.277 -0.3805 -0.7912 -1.6174
 5997TIP3   OH217954   0.441   1.851   5.639  0.5549 -0.0348  0.1981
 5997TIP3    H117955   0.360   1.804   5.658  0.3697  0.7801  1.6250
 5997TIP3    H217956   0.511   1.788   5.657  0.2665 -0.2630  0.5353
 5998TIP3   OH217957   0.509   2.460   1.320 -0.3517  0.9030  0.2616
 5998TIP3    H117958   0.455   2.481   1.244 -1.9849  1.9223  1.6345
 5998TIP3    H217959   0.449   2.414   1.380  1.0918 -0.5667  0.6570
 5999TIP3   OH217960   3.449   3.522   0.880 -0.0414  0.7882 -0.0801
 5999TIP3    H117961   3.508   3.501   0.952 -0.2282  0.6642  0.0367
 5999TIP3    H217962   3.361   3.520   0.919  0.0151  3.4575  0.3823
 6000TIP3   OH217963   1.324   0.028   4.296 -0.4038  0.3708 -0.0385
 6000TIP3    H117964   1.330   0.104   4.353  0.2153  1.5564 -1.6091
 6000TIP3    H217965   1.412  -0.009   4.295 -0.5253  0.0717  0.1395
 6001TIP3   OH217966   3.758   3.617   5.623 -0.3727 -0.3058 -0.1124
 6001TIP3    H117967   3.787   3.536   5.666 -1.3243 -1.3987 -1.4344
 6001TIP3    H217968   3.662   3.613   5.628 -0.4413  0.4587 -0.7142
 6002TIP3   OH217969   0.695   4.153   5.211 -0.7702  0.5125 -0.0638
 6002TIP3    H117970   0.711   4.065   5.176  1.0666  1.7791 -2.7664
 6002TIP3    H217971   0.782   4.185   5.234 -1.3332  1.8705  0.2404
 6003TIP3   OH217972   0.211   2.207   4.238 -0.4707  0.0443 -0.0933
 6003TIP3    H117973   0.207   2.128   4.291  1.4685  0.2545  0.4391
 6003TIP3    H217974   0.273   2.264   4.283 -2.2142  2.1336 -0.1714
 6004TIP3   OH217975   1.497   4.367   0.467 -0.0762 -0.5100 -0.1735
 6004TIP3    H117976   1.427   4.419   0.507  0.2303 -0.3384  0.1493
 6004TIP3    H217977   1.468   4.352   0.377  0.4393  1.3710 -0.6948
 6005TIP3   OH217978   7.003   1.390   3.472  0.1799  0.4312 -0.1989
 6005TIP3    H117979   7.064   1.347   3.531  0.8748  1.7132  0.0744
 6005TIP3    H217980   6.930   1.418   3.528 -0.2941 -0.4010 -0.3844
 6006TIP3   OH217981   0.838   4.473   5.118  0.0377 -0.0781 -0.2283
 6006TIP3    H117982   0.747   4.475   5.088  0.8244  0.7929 -2.8214
 6006TIP3    H217983   0.857   4.380   5.130 -1.0313 -0.3061 -0.1970
 6007TIP3   OH217984   5.796   1.114   3.530  0.0404  0.2741  0.2242
 6007TIP3    H117985   5.804   1.169   3.608 -1.0948  1.5206 -0.4928
 6007TIP3    H217986   5.715   1.143   3.489  0.9117  0.0792 -1.7429
 6008TIP3   OH217987   0.731   6.660   5.374  0.3581 -0.2481  0.5604
 6008TIP3    H117988   0.710   6.594   5.441 -1.0974  0.7621  1.1393
 6008TIP3    H217989   0.732   6.743   5.422  2.6820  0.1474 -0.0546
 6009TIP3   OH217990   3.504   0.097   4.555 -0.0507 -0.0608  0.2454
 6009TIP3    H117991   3.445   0.101   4.631 -0.5083  1.9229 -0.1466
 6009TIP3    H217992   3.452   0.053   4.487 -0.7986  0.8752  0.1799
 6010TIP3   OH217993   1.364   5.685   1.443  0.2469 -0.4213  0.2720
 6010TIP3    H117994   1.366   5.627   1.367 -0.1327 -0.1960  0.0870
 6010TIP3    H217995   1.302   5.754   1.418 -0.9969 -1.1083  1.3600
 6011TIP3   OH217996   5.418   2.103   5.353 -0.6800 -0.2245  0.2521
 6011TIP3    H117997   5.394   2.176   5.410 -1.8918 -1.9126  1.9988
 6011TIP3    H217998   5.503   2.073   5.387 -0.7954 -0.4375  0.3517
 6012TIP3   OH217999   1.634   5.683   5.161 -0.0133 -0.4743 -0.0585
 6012TIP3    H118000   1.629   5.778   5.148 -1.1760 -0.3281  1.2038
 6012TIP3    H218001   1.690   5.672   5.238 -1.3853 -0.6645  0.9469
 6013TIP3   OH218002   5.882   3.589   0.587 -0.8551 -0.2186  0.0335
 6013TIP3    H118003   5.835   3.605   0.505  1.5420  1.9317 -1.0948
 6013TIP3    H218004   5.860   3.664   0.642  0.6429  0.5014 -0.2837
 6014TIP3   OH218005   2.175   1.541   4.114  0.3660 -0.3527  0.2050
 6014TIP3    H118006   2.126   1.606   4.064 -0.4882  0.1166  1.5914
 6014TIP3    H218007   2.260   1.581   4.131  0.0128  0.2278  0.6453
 6015TIP3   OH218008   1.416   5.290   1.134 -0.1793 -0.0391 -0.1095
 6015TIP3    H118009   1.477   5.362   1.150  0.1738 -0.3727  0.0792
 6015TIP3    H218010   1.419   5.276   1.040  1.0052 -0.8746  0.0259
 6016TIP3   OH218011   1.603   4.757   2.493 -0.3377  0.1488 -0.5675
 6016TIP3    H118012   1.661   4.780   2.566  0.1454 -1.0010 -0.5794
 6016TIP3    H218013   1.520   4.732   2.535 -0.2882  0.1731 -0.4549
 6017TIP3   OH218014   2.019   0.143   2.025 -0.6253 -0.6651  0.3681
 6017TIP3    H118015   2.014   0.238   2.031  1.8022 -0.3387 -1.2110
 6017TIP3    H218016   1.931   0.116   1.996 -1.1661  1.1633  0.1964
 6018TIP3   OH218017   4.514   2.684   2.606  0.8822  0.4973 -0.0838
 6018TIP3    H118018   4.521   2.610   2.545 -0.2885 -0.8931  1.3846
 6018TIP3    H218019   4.600   2.690   2.647  0.2811 -1.9571  1.7977
 6019TIP3   OH218020   1.813   5.803   0.322  0.2529 -0.3565  0.0625
 6019TIP3    H118021   1.871   5.877   0.338 -1.5023  1.2609 -0.6668
 6019TIP3    H218022   1.799   5.763   0.408  0.9931  0.3357  0.5053
 6020TIP3   OH218023   3.147   4.780   4.992 -0.4362 -0.6887  0.3500
 6020TIP3    H118024   3.159   4.875   4.989  1.2309 -0.9119 -1.9293
 6020TIP3    H218025   3.093   4.766   5.070  1.3890  1.8820  2.2464
 6021TIP3   OH218026   6.792   1.334   0.717  0.1012  0.1148 -0.3396
 6021TIP3    H118027   6.843   1.253   0.707  1.3454  0.2963  3.1112
 6021TIP3    H218028   6.701   1.305   0.719  0.4199 -0.9802 -0.7304
 6022TIP3   OH218029   4.796   3.930   2.689  0.1738 -0.1660  0.0303
 6022TIP3    H118030   4.780   3.866   2.759 -0.3776  1.5801  1.5987
 6022TIP3    H218031   4.864   3.890   2.635  1.8274 -0.9728  2.4911
 6023TIP3   OH218032   4.087   2.776   1.805 -0.5524 -0.9554 -0.0525
 6023TIP3    H118033   4.029   2.818   1.742  2.0097  0.3644 -1.7295
 6023TIP3    H218034   4.140   2.848   1.840  0.4378 -2.1411  0.9611
 6024TIP3   OH218035   1.397   0.973   3.794  0.5410  0.7923  0.5661
 6024TIP3    H118036   1.344   0.969   3.715  0.0712  2.0235  0.7981
 6024TIP3    H218037   1.400   0.882   3.825  1.0610  0.2260 -1.0454
 6025TIP3   OH218038   1.460   3.277   1.308 -0.3762 -0.2174  0.0059
 6025TIP3    H118039   1.553   3.274   1.331 -0.6104 -1.6356  0.9077
 6025TIP3    H218040   1.443   3.369   1.289  1.0097  0.2054  0.6675
 6026TIP3   OH218041   3.958   1.900   5.508  0.2369 -0.6409 -0.5493
 6026TIP3    H118042   3.981   1.858   5.591  2.0837  0.1905 -0.5750
 6026TIP3    H218043   3.956   1.993   5.529 -1.8767 -0.5526 -0.9154
 6027TIP3   OH218044   3.286   4.517   1.978 -0.0585 -0.0286 -0.6198
 6027TIP3    H118045   3.323   4.506   1.890  1.5407  1.4133 -0.1763
 6027TIP3    H218046   3.361   4.503   2.037 -1.2155 -1.5148  0.5767
 6028TIP3   OH218047   3.574   0.866   0.334 -0.5491  0.3535 -0.1091
 6028TIP3    H118048   3.653   0.817   0.314 -0.7371  0.0630 -0.1466
 6028TIP3    H218049   3.516   0.803   0.376 -0.3900  0.8028  0.8211
 6029TIP3   OH218050   3.440   3.629   2.621 -0.5899 -0.0787  0.0949
 6029TIP3    H118051   3.354   3.642   2.580 -1.2245 -1.9911  0.7213
 6029TIP3    H218052   3.503   3.649   2.551 -1.5881 -0.1704 -0.8581
 6030TIP3   OH218053   6.083   1.797   3.698 -0.0189 -0.0417  0.5265
 6030TIP3    H118054   6.024   1.853   3.647  0.8071 -0.3101 -0.7524
 6030TIP3    H218055   6.057   1.813   3.789 -0.8586  1.2166  0.1015
 6031TIP3   OH218056   1.330   1.955   3.696 -0.0052  0.4299  0.1996
 6031TIP3    H118057   1.418   1.919   3.694 -0.9296 -2.0143 -0.6894
 6031TIP3    H218058   1.288   1.911   3.770 -1.1102 -0.1275 -0.7316
 6032TIP3   OH218059   3.573   4.890   5.229  0.1080  0.1835  0.1487
 6032TIP3    H118060   3.618   4.808   5.251  0.4660  0.3224 -0.0598
 6032TIP3    H218061   3.584   4.945   5.306  0.5025  0.3049  0.0056
 6033TIP3   OH218062   2.300   0.745   3.255  0.0418  0.0823 -0.4868
 6033TIP3    H118063   2.394   0.762   3.256 -0.3113  2.5998 -1.6922
 6033TIP3    H218064   2.284   0.690   3.332  2.4785 -0.5437 -0.3524
 6034TIP3   OH218065   5.861   0.579   3.629 -0.5816 -0.7819 -0.8547
 6034TIP3    H118066   5.802   0.653   3.614 -0.0759 -0.0635  0.5267
 6034TIP3    H218067   5.927   0.613   3.689  0.0732 -2.1647 -0.7579
 6035TIP3   OH218068   1.161   6.514   2.305  0.1163 -0.3760  0.4405
 6035TIP3    H118069   1.246   6.555   2.287 -0.2393  1.4114  2.4792
 6035TIP3    H218070   1.105   6.544   2.233  0.1733  1.9143  1.2781
 6036TIP3   OH218071   4.007   4.128   3.535  0.1356  0.0846  0.3768
 6036TIP3    H118072   4.102   4.132   3.539  0.3024  2.5743 -2.5966
 6036TIP3    H218073   3.988   4.036   3.517  2.1486 -0.1097 -1.0691
 6037TIP3   OH218074   4.320   6.653   4.109  0.9615  0.1736 -0.4310
 6037TIP3    H118075   4.290   6.688   4.193 -1.4968  2.9460 -2.2497
 6037TIP3    H218076   4.276   6.568   4.102  0.5787  0.2456  0.7635
 6038TIP3   OH218077   6.281   0.672   2.234 -0.0205 -0.2189  0.2798
 6038TIP3    H118078   6.261   0.580   2.248  0.5074 -0.3722  0.0667
 6038TIP3    H218079   6.197   0.717   2.243 -0.5712 -0.8902 -1.1808
 6039TIP3   OH218080   4.703   1.962   4.610 -0.3223 -0.3689  0.4495
 6039TIP3    H118081   4.735   1.939   4.523  0.8229 -0.4364  0.8671
 6039TIP3    H218082   4.760   2.035   4.637  0.2632 -1.2643  1.6983
 6040TIP3   OH218083   6.307   5.012   4.002 -0.1421  0.1648  0.5627
 6040TIP3    H118084   6.272   5.085   4.055 -2.0086  0.1294 -0.5240
 6040TIP3    H218085   6.327   5.051   3.917  0.2688 -0.3060  0.4389
 6041TIP3   OH218086   1.985   0.874   5.803 -0.0018  0.2277  0.1086
 6041TIP3    H118087   1.991   0.852   5.896  1.4273 -1.2305 -0.2770
 6041TIP3    H218088   1.909   0.825   5.772  0.1097 -0.0823  0.3171
 6042TIP3   OH218089   4.408   4.053   3.289 -0.3118 -0.0548 -0.3437
 6042TIP3    H118090   4.341   4.035   3.223  1.1797  0.1916 -2.0228
 6042TIP3    H218091   4.442   4.139   3.264 -0.9405  0.9218  1.9075
 6043TIP3   OH218092   1.402   3.897   0.960 -0.5549 -0.2881  0.7730
 6043TIP3    H118093   1.374   3.808   0.982 -3.2274  0.2783  0.0328
 6043TIP3    H218094   1.376   3.908   0.868 -1.2019  1.5692  1.1383
 6044TIP3   OH218095   5.530   4.261   5.029 -0.5209  0.1225  0.4509
 6044TIP3    H118096   5.439   4.249   5.059 -0.1005 -0.5885  1.5180
 6044TIP3    H218097   5.525   4.253   4.934 -1.7113  1.0139  0.4099
 6045TIP3   OH218098   1.915   2.758   0.072 -0.0081 -0.3218  0.2607
 6045TIP3    H118099   1.874   2.720   0.149 -0.5756  0.1470  0.2015
 6045TIP3    H218100   1.845   2.808   0.030  1.2399  2.9136  1.7143
 6046TIP3   OH218101   6.732   1.947   3.637 -0.2372 -0.2110  0.2329
 6046TIP3    H118102   6.825   1.940   3.617 -0.5031  0.4676 -1.4213
 6046TIP3    H218103   6.698   1.858   3.630  0.3876 -0.5754  1.5375
 6047TIP3   OH218104   1.705   1.507   3.546 -0.5910 -0.5900  0.1543
 6047TIP3    H118105   1.634   1.567   3.522 -1.3885 -1.2175  0.8874
 6047TIP3    H218106   1.777   1.564   3.571 -0.5386  0.0670 -1.3969
 6048TIP3   OH218107   4.339   3.017   1.401  0.1614 -0.4905  0.3815
 6048TIP3    H118108   4.278   2.960   1.448 -0.0438  0.6058  1.4767
 6048TIP3    H218109   4.289   3.049   1.326  0.1505 -1.4041 -0.0195
 6049TIP3   OH218110   1.743   1.388   0.839 -0.1099  0.8978  0.2513
 6049TIP3    H118111   1.675   1.342   0.790 -0.1988  1.5084 -0.2185
 6049TIP3    H218112   1.752   1.339   0.921 -0.3360  0.1730 -0.1521
 6050TIP3   OH218113   7.114   0.487   5.011  0.2440 -0.1633 -0.0113
 6050TIP3    H118114   7.083   0.572   5.041 -2.0731 -0.4575 -1.3448
 6050TIP3    H218115   7.159   0.505   4.929  0.6612 -0.1141  0.2272
 6051TIP3   OH218116   6.137   3.509   3.512 -0.6092 -0.0337 -0.1885
 6051TIP3    H118117   6.176   3.421   3.505 -1.7364 -0.4486 -2.5278
 6051TIP3    H218118   6.048   3.498   3.478  0.0147  2.4293 -3.0561
 6052TIP3   OH218119   0.189   2.983   3.298 -0.2057  0.1333 -0.1721
 6052TIP3    H118120   0.256   2.973   3.366  1.3788 -0.8834 -1.7946
 6052TIP3    H218121   0.236   2.972   3.216 -2.2014  0.4997 -1.4385
 6053TIP3   OH218122   1.657   4.257   1.108  0.0957 -0.2276 -0.4091
 6053TIP3    H118123   1.664   4.351   1.126  0.3098 -0.1266 -0.9807
 6053TIP3    H218124   1.634   4.217   1.192 -1.0971  0.4633 -0.3817
 6054TIP3   OH218125   6.140   1.713   3.345 -0.4971 -0.2785  0.3496
 6054TIP3    H118126   6.064   1.725   3.289  0.2033 -0.6574 -0.7196
 6054TIP3    H218127   6.188   1.796   3.337  0.1475 -0.7149 -0.4916
 6055TIP3   OH218128   2.270   1.924   3.996  0.2868 -0.2905 -0.1113
 6055TIP3    H118129   2.209   1.977   3.945 -0.9198 -0.4164  1.1607
 6055TIP3    H218130   2.273   1.966   4.082  0.1838 -1.6041  0.5619
 6056TIP3   OH218131   0.934   2.144   3.602 -0.0789 -0.0536 -0.5363
 6056TIP3    H118132   0.977   2.208   3.658  0.6195 -0.4376 -0.6165
 6056TIP3    H218133   0.840   2.158   3.616  0.0815 -0.0591  0.6205
 6057TIP3   OH218134   6.318   2.941   0.801  0.3340  0.3864  0.2086
 6057TIP3    H118135   6.360   2.966   0.883 -2.1231 -0.5664  1.8709
 6057TIP3    H218136   6.299   3.023   0.756  2.0041  0.8996  0.3801
 6058TIP3   OH218137   0.751   3.913   5.135 -0.4767 -0.0818  0.4899
 6058TIP3    H118138   0.819   3.875   5.080 -1.4101 -0.3485 -0.5051
 6058TIP3    H218139   0.742   3.852   5.208 -0.5767 -0.7309 -0.0608
 6059TIP3   OH218140   3.023   2.567   5.487 -0.3548  0.3740 -0.2300
 6059TIP3    H118141   3.035   2.514   5.566  0.9642  2.0590  0.7686
 6059TIP3    H218142   2.929   2.585   5.484 -0.5868 -0.6453  0.2973
 6060TIP3   OH218143   6.450   3.121   0.955 -0.4708  0.6535  0.0815
 6060TIP3    H118144   6.544   3.124   0.971 -0.4991  0.6991  0.2348
 6060TIP3    H218145   6.415   3.198   1.000 -0.5720  0.6794 -0.0399
 6061TIP3   OH218146   1.605   5.604   1.896 -0.5838 -0.2781  0.0177
 6061TIP3    H118147   1.603   5.635   1.806 -1.2340 -0.7542 -0.1389
 6061TIP3    H218148   1.513   5.596   1.921 -0.4627  1.9865  1.4777
 6062TIP3   OH218149   4.301   4.330   4.091 -0.9275 -0.0825  0.4892
 6062TIP3    H118150   4.301   4.389   4.016 -1.6293  1.8424  1.9447
 6062TIP3    H218151   4.211   4.333   4.124 -1.2948 -2.8420  0.0064
 6063TIP3   OH218152   6.841   3.109   1.920  0.1366  0.2760  0.1717
 6063TIP3    H118153   6.936   3.120   1.931  0.2464 -1.3794  1.2356
 6063TIP3    H218154   6.807   3.198   1.917  1.6003  0.9103  1.1420
 6064TIP3   OH218155   1.090   0.796   4.219 -0.2975  0.3114 -0.2198
 6064TIP3    H118156   1.153   0.779   4.149  1.6342  0.9535  1.2701
 6064TIP3    H218157   1.006   0.804   4.174  0.6376 -0.6855 -2.2874
 6065TIP3   OH218158   4.974   4.039   3.159  0.2159 -0.3551 -0.4936
 6065TIP3    H118159   4.990   3.976   3.089 -0.2915 -0.4023 -0.5638
 6065TIP3    H218160   4.879   4.047   3.164  0.0897 -2.1707  1.7920
 6066TIP3   OH218161   0.084   1.769   3.982 -0.3037 -0.4643  0.0585
 6066TIP3    H118162   0.031   1.750   4.059  0.1228  2.2712  1.1668
 6066TIP3    H218163   0.022   1.805   3.918 -0.3536 -0.8785 -0.1295
 6067TIP3   OH218164   4.074   2.613   2.088  0.5930 -0.1416 -0.8164
 6067TIP3    H118165   4.042   2.610   1.998  2.0827  2.2102 -1.5349
 6067TIP3    H218166   4.031   2.690   2.126  1.7422  0.3003 -0.3311
 6068TIP3   OH218167   6.001   0.674   0.983 -0.4798  0.0071 -0.3277
 6068TIP3    H118168   6.051   0.734   1.038  0.8309  0.7623 -2.2392
 6068TIP3    H218169   6.033   0.587   1.006 -0.5144  0.2321  0.6125
 6069TIP3   OH218170   0.374   3.277   2.669  0.0180  0.1224  0.2771
 6069TIP3    H118171   0.357   3.289   2.762 -0.9224 -1.8092  0.4166
 6069TIP3    H218172   0.303   3.324   2.625 -0.1866  0.1003  0.5809
 6070TIP3   OH218173   0.689   1.865   2.062 -0.2750  0.1034 -0.4311
 6070TIP3    H118174   0.766   1.903   2.019 -1.5722  0.9803 -2.0752
 6070TIP3    H218175   0.688   1.774   2.034  0.1635  0.0847 -0.3919
 6071TIP3   OH218176   5.633   2.339   4.192  0.5528 -0.0393 -0.3703
 6071TIP3    H118177   5.540   2.347   4.172 -0.5963 -0.5645  3.8687
 6071TIP3    H218178   5.670   2.424   4.166 -1.6614  1.2067  0.2665
 6072TIP3   OH218179   5.326   1.580   4.813  0.7742 -0.4072 -0.0665
 6072TIP3    H118180   5.351   1.662   4.857  3.1176 -0.9212 -0.3208
 6072TIP3    H218181   5.247   1.551   4.860  0.5581  1.4002  0.7640
 6073TIP3   OH218182   0.340   1.640   3.219 -0.6598 -0.4409 -0.4793
 6073TIP3    H118183   0.353   1.677   3.131 -1.9118 -0.6036 -0.7526
 6073TIP3    H218184   0.262   1.585   3.210 -1.1260 -0.0299  0.8655
 6074TIP3   OH218185   0.198   4.181   5.889 -0.0868 -0.2267  0.2259
 6074TIP3    H118186   0.260   4.137   5.946  0.7684  1.3094  0.5321
 6074TIP3    H218187   0.167   4.113   5.829  1.1791 -1.2225  0.6785
 6075TIP3   OH218188   2.131   2.998   0.621 -0.1521 -0.0208  0.1635
 6075TIP3    H118189   2.209   2.970   0.572 -0.6380  1.8839 -1.8495
 6075TIP3    H218190   2.059   2.985   0.560 -0.9113  1.5765  0.6720
 6076TIP3   OH218191   0.671   2.666   1.728  0.3839  0.0346 -0.1248
 6076TIP3    H118192   0.745   2.712   1.767 -0.1245 -0.3705  1.4027
 6076TIP3    H218193   0.611   2.735   1.700 -1.3992  0.4805  4.1152
 6077TIP3   OH218194   0.842   0.654   5.440 -0.0383  0.7550  0.1623
 6077TIP3    H118195   0.804   0.575   5.479 -1.8166  2.3610  1.9529
 6077TIP3    H218196   0.803   0.660   5.353  0.4788 -0.5356 -0.1797
 6078TIP3   OH218197   3.841   4.130   1.830 -0.3217  0.2041  0.1597
 6078TIP3    H118198   3.816   4.141   1.922  0.1298 -0.1827  0.3347
 6078TIP3    H218199   3.759   4.114   1.784 -0.3605 -1.6351  0.8064
 6079TIP3   OH218200   3.555   5.291   1.283 -0.0329  0.0037  0.2582
 6079TIP3    H118201   3.461   5.304   1.295 -0.0898 -0.0154 -0.1389
 6079TIP3    H218202   3.571   5.317   1.192  0.3744  0.1664  0.3732
 6080TIP3   OH218203   4.437   1.536   0.078 -0.3265  0.4807  0.2996
 6080TIP3    H118204   4.517   1.587   0.072 -0.3103  0.3029 -1.4292
 6080TIP3    H218205   4.398   1.561   0.162  0.7549  1.7165  0.4491
 6081TIP3   OH218206   7.055   1.545   1.404  0.0350 -0.0550 -0.2964
 6081TIP3    H118207   7.025   1.634   1.386  1.3650  0.6933  0.9243
 6081TIP3    H218208   6.982   1.489   1.380 -0.1698  1.1837 -2.8933
 6082TIP3   OH218209   0.318   5.430   5.110  0.5806  0.4602 -0.0545
 6082TIP3    H118210   0.225   5.451   5.097  0.4692 -0.4160 -0.8027
 6082TIP3    H218211   0.365   5.501   5.067  0.2619  0.7264  0.0269
 6083TIP3   OH218212   1.730   2.702   1.428  1.0556  0.3618  0.1715
 6083TIP3    H118213   1.747   2.631   1.367 -3.7255 -0.4651 -0.6420
 6083TIP3    H218214   1.772   2.779   1.388  1.1980 -0.8655 -2.2390
 6084TIP3   OH218215   4.799   3.687   3.847 -0.1530  0.0514  0.3347
 6084TIP3    H118216   4.736   3.642   3.792  0.9388  0.9491 -1.7805
 6084TIP3    H218217   4.746   3.738   3.909 -1.4283 -0.7567 -0.0699
 6085TIP3   OH218218   0.079   1.400   1.291 -0.1922  0.2317  0.0013
 6085TIP3    H118219   0.021   1.469   1.261 -0.3639  0.1819  0.2174
 6085TIP3    H218220   0.153   1.403   1.230  0.8583  2.0376  1.2534
 6086TIP3   OH218221   0.056   0.031   5.393 -0.2495 -0.0326  0.2252
 6086TIP3    H118222  -0.037   0.031   5.414 -0.1502 -1.2489  0.7410
 6086TIP3    H218223   0.100   0.019   5.478  0.3004 -1.0852 -0.1858
 6087TIP3   OH218224   4.244   0.877   0.757  0.1308 -0.1939 -0.3762
 6087TIP3    H118225   4.289   0.947   0.804 -0.4339  0.3324 -0.6037
 6087TIP3    H218226   4.212   0.919   0.677 -1.3940 -0.3646  0.1222
 6088TIP3   OH218227   3.383   3.265   3.933 -0.3601  0.3876 -0.2307
 6088TIP3    H118228   3.363   3.228   3.848 -0.2562  0.8327 -0.4495
 6088TIP3    H218229   3.305   3.247   3.986 -0.4969  0.2703 -0.4697
 6089TIP3   OH218230   4.447   3.491   1.220 -0.5057  0.3904 -0.3536
 6089TIP3    H118231   4.447   3.560   1.153  0.6362  1.5230  0.7505
 6089TIP3    H218232   4.427   3.538   1.301  0.0494 -0.6205  0.3832
 6090TIP3   OH218233   5.548   1.704   1.529 -0.3407 -0.5851  0.0557
 6090TIP3    H118234   5.482   1.660   1.583 -1.3558  0.1424 -0.5674
 6090TIP3    H218235   5.564   1.787   1.574 -1.0161 -0.0784 -0.6256
 6091TIP3   OH218236   2.246   2.691   5.717 -0.0308 -0.2439 -0.0619
 6091TIP3    H118237   2.305   2.666   5.645 -1.6393 -2.9048 -0.5933
 6091TIP3    H218238   2.230   2.609   5.764 -1.6402  0.8159  1.3436
 6092TIP3   OH218239   5.155   1.983   2.322 -0.0074 -0.1559 -0.5214
 6092TIP3    H118240   5.137   1.946   2.408  1.2152 -2.5628 -1.2336
 6092TIP3    H218241   5.068   2.003   2.287 -0.6359 -0.8929  0.5408
 6093TIP3   OH218242   4.158   1.068   3.147  0.9874  0.5647 -0.3717
 6093TIP3    H118243   4.186   1.027   3.229 -0.4573 -1.5086 -0.8517
 6093TIP3    H218244   4.180   1.161   3.159  4.9809 -0.3048  0.4989
 6094TIP3   OH218245   3.698   1.764   5.702  0.2379 -0.6663 -0.1716
 6094TIP3    H118246   3.791   1.743   5.698 -0.0968 -2.5624  0.9593
 6094TIP3    H218247   3.658   1.707   5.637 -0.2356 -0.3561 -0.1597
 6095TIP3   OH218248   2.604   5.539   1.138  0.8272 -0.0186  0.1264
 6095TIP3    H118249   2.543   5.613   1.139 -0.3467 -0.9467  0.6253
 6095TIP3    H218250   2.557   5.469   1.184  2.2061 -0.8387  0.3522
 6096TIP3   OH218251   2.841   1.286   0.522  0.1028  0.1781 -0.1725
 6096TIP3    H118252   2.902   1.228   0.567 -0.6641 -1.3099 -0.9397
 6096TIP3    H218253   2.858   1.373   0.558  0.4128 -0.7172  1.9867
 6097TIP3   OH218254   0.909   0.409   4.617  0.0057 -0.1554  0.2133
 6097TIP3    H118255   0.963   0.330   4.616  1.1217  0.5669  0.8360
 6097TIP3    H218256   0.956   0.469   4.675 -0.9427  0.8836 -0.0627
 6098TIP3   OH218257   0.979   4.646   0.192  0.0495 -0.3197  0.1647
 6098TIP3    H118258   0.913   4.669   0.127 -0.9885 -2.8499  0.2099
 6098TIP3    H218259   0.949   4.686   0.273 -1.7246 -1.7185  0.2682
 6099TIP3   OH218260   2.863   2.445   3.181  0.2548  0.0909  0.0943
 6099TIP3    H118261   2.768   2.440   3.169  0.2653  1.7486 -1.0026
 6099TIP3    H218262   2.879   2.401   3.264 -1.4004 -0.7441  0.0059
 6100TIP3   OH218263   3.718   3.053   1.414  0.0250  0.0472  0.0895
 6100TIP3    H118264   3.812   3.039   1.422 -0.1789 -1.1633  0.5462
 6100TIP3    H218265   3.696   3.017   1.328 -0.3035 -1.3806  0.7503
 6101TIP3   OH218266   0.266   1.595   1.435 -0.2210  0.1158 -0.2620
 6101TIP3    H118267   0.197   1.539   1.471  0.5101 -0.1684  0.7430
 6101TIP3    H218268   0.228   1.683   1.437 -0.4731  0.0047  0.5640
 6102TIP3   OH218269   3.911   0.786   1.217  0.0342  0.4104 -0.0341
 6102TIP3    H118270   3.887   0.835   1.138  0.0781 -0.3583 -0.5403
 6102TIP3    H218271   3.952   0.707   1.183  0.5803  0.3396  0.7783
 6103TIP3   OH218272   6.816   0.665   0.803  0.3710  0.2851  0.3516
 6103TIP3    H118273   6.853   0.733   0.860 -0.0863  1.9035 -1.1557
 6103TIP3    H218274   6.746   0.625   0.855  1.4761  0.0642  1.7303
 6104TIP3   OH218275   3.033   5.206   5.832 -0.0225  0.3401 -0.0349
 6104TIP3    H118276   3.023   5.111   5.836 -2.6944  0.5292 -0.5392
 6104TIP3    H218277   3.119   5.223   5.871  1.3024 -2.3681 -1.5133
 6105TIP3   OH218278   1.696   6.709   2.725  0.7503 -0.3339  0.5157
 6105TIP3    H118279   1.636   6.636   2.741  0.7795 -0.2617  0.9639
 6105TIP3    H218280   1.650   6.786   2.759  0.5648 -0.0803 -0.2822
 6106TIP3   OH218281   4.685   2.589   4.334 -0.0417 -0.7453  0.1660
 6106TIP3    H118282   4.637   2.531   4.393 -0.5115 -0.8532 -0.3123
 6106TIP3    H218283   4.767   2.608   4.380  0.2608 -2.0264  0.1920
 6107TIP3   OH218284   1.552   2.714   1.960  0.1625  0.5328 -0.0478
 6107TIP3    H118285   1.509   2.784   1.911 -0.1470  1.2916  1.2463
 6107TIP3    H218286   1.555   2.747   2.050 -1.0801 -1.6089  0.8617
 6108TIP3   OH218287   5.825   3.883   1.526 -0.8711 -0.2585 -0.4209
 6108TIP3    H118288   5.893   3.919   1.583 -1.1669  1.1081 -0.8787
 6108TIP3    H218289   5.809   3.795   1.559 -0.2154  0.0880  0.8666
 6109TIP3   OH218290   1.560   6.713   0.671  0.1042  0.2189 -0.2500
 6109TIP3    H118291   1.563   6.803   0.638 -0.9524 -0.0799 -1.2445
 6109TIP3    H218292   1.473   6.706   0.711  0.4877 -0.1386  0.5538
 6110TIP3   OH218293   5.908   0.723   4.941 -0.4902 -0.6297 -0.1687
 6110TIP3    H118294   5.979   0.693   4.884  0.5029  0.1234  0.6406
 6110TIP3    H218295   5.930   0.688   5.028  0.2972  1.7026  0.6406
 6111TIP3   OH218296   1.058   2.936   2.936 -0.7974 -0.7230  0.5279
 6111TIP3    H118297   1.023   3.025   2.944 -1.4880 -0.9511  0.1079
 6111TIP3    H218298   1.009   2.897   2.863 -0.1500 -1.2834  0.3844
 6112TIP3   OH218299   5.202   5.807   3.662  0.0105 -0.3196 -0.0606
 6112TIP3    H118300   5.162   5.768   3.740 -1.2404 -1.9953 -1.4612
 6112TIP3    H218301   5.268   5.867   3.696 -1.1618 -0.2750  2.2908
 6113TIP3   OH218302   2.826   3.137   4.874  0.3115  0.2916  0.6711
 6113TIP3    H118303   2.752   3.172   4.825  0.8201 -2.2091 -2.2401
 6113TIP3    H218304   2.902   3.152   4.817  0.9827 -2.6117  0.6375
 6114TIP3   OH218305   1.256   0.551   1.940 -0.0060 -0.0889 -0.2474
 6114TIP3    H118306   1.258   0.503   1.858  1.4040  1.8964 -1.4637
 6114TIP3    H218307   1.317   0.504   1.997  0.2008 -0.6112 -0.8946
 6115TIP3   OH218308   6.654   4.600   3.119  0.5428 -0.5326 -0.5770
 6115TIP3    H118309   6.712   4.540   3.072  0.2111 -1.0480 -0.3448
 6115TIP3    H218310   6.660   4.682   3.071  3.4567  0.2470  0.8637
 6116TIP3   OH218311   5.129   3.100   5.710  0.8079 -0.2870  0.4604
 6116TIP3    H118312   5.140   3.018   5.663 -1.1228 -0.3593  0.0395
 6116TIP3    H218313   5.108   3.164   5.642 -1.0755 -0.1967  1.0606
 6117TIP3   OH218314   2.260   5.709   4.468  0.4324 -0.2009 -0.0966
 6117TIP3    H118315   2.355   5.710   4.482  0.5250 -0.2625 -0.7203
 6117TIP3    H218316   2.238   5.799   4.444  0.4983 -0.4240 -1.0204
 6118TIP3   OH218317   3.810   4.041   2.264  0.2227  0.7284  0.1175
 6118TIP3    H118318   3.885   3.982   2.267 -0.3295 -0.1020 -1.4129
 6118TIP3    H218319   3.799   4.070   2.355  1.4930 -0.2682  0.6208
 6119TIP3   OH218320   1.839   4.230   3.953  0.3431  0.0207  0.5385
 6119TIP3    H118321   1.846   4.160   4.017  0.2529  0.0978  0.6335
 6119TIP3    H218322   1.761   4.279   3.980  1.4365  1.2766  1.5986
 6120TIP3   OH218323   7.004   1.412   4.580  0.0502  0.1654  0.0564
 6120TIP3    H118324   7.100   1.415   4.572  0.2198 -0.4561  1.4708
 6120TIP3    H218325   6.979   1.333   4.532  0.1807  0.6056 -0.7503
 6121TIP3   OH218326   6.464   4.254   2.834  0.3436 -0.2478  0.4815
 6121TIP3    H118327   6.548   4.239   2.879 -0.7891 -2.5342  2.0549
 6121TIP3    H218328   6.399   4.214   2.892 -1.5754 -0.6079 -1.7803
 6122TIP3   OH218329   2.682   0.694   4.299  0.7802  0.3115  0.3782
 6122TIP3    H118330   2.666   0.609   4.339  1.8493  0.4400  1.1271
 6122TIP3    H218331   2.734   0.742   4.364 -0.1730  1.7057  0.1684
 6123TIP3   OH218332   2.981   2.346   1.801 -0.4593  0.1700 -0.2643
 6123TIP3    H118333   2.908   2.307   1.753 -0.3591  0.1816 -0.4263
 6123TIP3    H218334   2.948   2.355   1.891 -0.3769 -0.5823 -0.1510
 6124TIP3   OH218335   0.623   6.042   4.639  0.3872 -0.0923  1.0268
 6124TIP3    H118336   0.688   6.106   4.611  1.1615 -1.5922 -0.8216
 6124TIP3    H218337   0.673   5.971   4.678 -0.0938 -1.1513 -0.1842
 6125TIP3   OH218338   2.413   5.265   0.084 -0.0882  0.2683  0.3948
 6125TIP3    H118339   2.368   5.304   0.009  0.1418  0.5522  0.4025
 6125TIP3    H218340   2.469   5.335   0.117  0.8831 -0.2913 -0.0327
 6126TIP3   OH218341   6.965   2.816   0.695  0.3308  0.2521 -0.4591
 6126TIP3    H118342   6.899   2.831   0.627  0.4315 -0.0987 -0.6354
 6126TIP3    H218343   7.005   2.732   0.671  0.0339 -0.1159  0.3044
 6127TIP3   OH218344   2.282   4.728   2.741 -0.0047 -0.0097  0.4680
 6127TIP3    H118345   2.214   4.718   2.808 -0.7835 -0.5031 -0.3748
 6127TIP3    H218346   2.257   4.666   2.672  2.6500 -2.1026  1.2106
 6128TIP3   OH218347   6.114   4.631   2.469  0.0782  0.3220 -0.4375
 6128TIP3    H118348   6.113   4.680   2.387 -1.1508  0.2303 -0.4850
 6128TIP3    H218349   6.048   4.674   2.524 -0.7824 -1.0653 -0.3551
 6129TIP3   OH218350   2.389   1.086   2.295 -0.3102 -0.1691 -0.0648
 6129TIP3    H118351   2.329   1.160   2.283 -0.7778 -0.4210  0.6817
 6129TIP3    H218352   2.334   1.008   2.289  0.3495 -0.5603 -2.0650
 6130TIP3   OH218353   1.095   5.380   1.933 -0.3237  0.1508 -0.2418
 6130TIP3    H118354   1.082   5.367   2.027 -0.8612  1.4305 -0.1252
 6130TIP3    H218355   1.073   5.472   1.918 -0.6185 -0.1372 -1.6897
 6131TIP3   OH218356   6.562   4.139   4.507  0.4778 -0.5351  0.6877
 6131TIP3    H118357   6.545   4.216   4.452 -2.8440 -1.5548  0.0578
 6131TIP3    H218358   6.630   4.090   4.461  0.5034  0.5422 -0.4700
 6132TIP3   OH218359   2.267   2.648   0.193 -0.0633  0.1465  0.4757
 6132TIP3    H118360   2.209   2.625   0.266 -0.5192 -0.7417 -0.1434
 6132TIP3    H218361   2.355   2.630   0.226 -0.1559  1.0680  1.2695
 6133TIP3   OH218362   6.867   3.154   5.344 -0.0841 -0.3451 -0.1217
 6133TIP3    H118363   6.851   3.094   5.271 -1.0215  0.0472 -0.2585
 6133TIP3    H218364   6.793   3.138   5.403  0.8035 -0.8567  0.8868
 6134TIP3   OH218365   4.055   1.788   4.648  0.1825 -0.5435  0.4140
 6134TIP3    H118366   4.036   1.853   4.715  2.2258  0.0221  0.5122
 6134TIP3    H218367   3.984   1.796   4.585 -0.8553  0.1181  1.6371
 6135TIP3   OH218368   1.215   3.487   4.791  0.0523 -0.2074  0.3338
 6135TIP3    H118369   1.199   3.434   4.870 -2.7647  0.7721  0.5109
 6135TIP3    H218370   1.240   3.573   4.825 -0.8395  0.1232  0.1568
 6136TIP3   OH218371   3.770   5.774   2.138  0.6675 -0.0381  0.4515
 6136TIP3    H118372   3.810   5.776   2.051 -2.9700 -1.7202 -1.5100
 6136TIP3    H218373   3.781   5.683   2.168 -1.3601 -0.5302 -0.1108
 6137TIP3   OH218374   1.017   2.805   0.130  0.1524  0.3903 -0.4956
 6137TIP3    H118375   1.071   2.874   0.168  0.0984 -0.3254  0.9286
 6137TIP3    H218376   0.935   2.848   0.107  0.5551  1.0414 -0.7498
 6138TIP3   OH218377   3.489   6.520   2.291 -0.6112 -0.1022 -0.2262
 6138TIP3    H118378   3.438   6.444   2.263 -0.9244 -0.2503  0.7125
 6138TIP3    H218379   3.469   6.588   2.226  0.2237 -1.0132 -1.4830
 6139TIP3   OH218380   4.326   5.687   5.382  0.0884  0.5460 -0.1439
 6139TIP3    H118381   4.275   5.723   5.454  0.9736  1.7471 -0.0937
 6139TIP3    H218382   4.273   5.615   5.349 -0.1341 -0.3730  2.0170
 6140TIP3   OH218383   5.964   5.682   4.162  0.2647 -0.3786 -0.1949
 6140TIP3    H118384   5.913   5.604   4.183 -1.3515  0.9051  0.8619
 6140TIP3    H218385   5.992   5.717   4.247 -1.2829  1.6021 -0.4192
 6141TIP3   OH218386   2.637   4.349   5.067 -0.1462 -0.5546  0.4743
 6141TIP3    H118387   2.646   4.443   5.053 -3.4031 -0.1694  0.1435
 6141TIP3    H218388   2.723   4.313   5.045  0.9804  2.2413 -0.1018
 6142TIP3   OH218389   3.985   4.232   4.558 -0.3375  0.5564  0.0108
 6142TIP3    H118390   4.037   4.296   4.607  0.6792 -0.7613  0.7121
 6142TIP3    H218391   3.949   4.281   4.485 -1.5410  2.5158  1.7963
 6143TIP3   OH218392   0.296   2.335   1.460 -0.3318  0.7411 -0.3492
 6143TIP3    H118393   0.269   2.250   1.494  2.4837  0.6483  2.1192
 6143TIP3    H218394   0.270   2.398   1.527 -0.2962  1.4922 -1.0204
 6144TIP3   OH218395   0.360   4.070   0.070 -0.2058 -0.1534  0.2459
 6144TIP3    H118396   0.391   4.156   0.043  0.1872 -0.6138 -0.8558
 6144TIP3    H218397   0.440   4.016   0.072 -0.5620 -0.6948  0.0692
 6145TIP3   OH218398   6.302   4.736   0.846 -0.0180 -0.0504  0.5540
 6145TIP3    H118399   6.230   4.790   0.811 -1.1466 -1.6014  0.3708
 6145TIP3    H218400   6.303   4.756   0.939 -1.1025 -0.4194  0.6654
 6146TIP3   OH218401   0.302   3.689   1.334 -0.0494 -0.0532 -0.4783
 6146TIP3    H118402   0.314   3.766   1.390 -0.9613 -0.2618  0.0177
 6146TIP3    H218403   0.391   3.662   1.311  0.4137 -0.4946  1.6122
 6147TIP3   OH218404   3.791   2.237   2.788  0.4998  0.2247  0.2788
 6147TIP3    H118405   3.737   2.160   2.771 -0.1534  0.6768  0.2810
 6147TIP3    H218406   3.852   2.240   2.714  0.6200 -0.3646  0.3454
 6148TIP3   OH218407   2.928   4.346   0.106 -0.6247  0.0197 -0.0861
 6148TIP3    H118408   2.945   4.425   0.157  0.8833 -2.5053  3.7487
 6148TIP3    H218409   3.007   4.335   0.052 -1.8172  2.1996 -2.4541
 6149TIP3   OH218410   2.872   3.806   3.701  0.5260  0.1196  0.1332
 6149TIP3    H118411   2.829   3.861   3.635 -0.4801 -0.8083 -0.0096
 6149TIP3    H218412   2.807   3.738   3.722  1.3363 -0.3858  1.0938
 6150TIP3   OH218413   0.397   6.731   5.622 -0.3153  0.1432  0.1007
 6150TIP3    H118414   0.369   6.772   5.704 -1.8915 -1.2653  0.3186
 6150TIP3    H218415   0.428   6.644   5.648  1.1732  0.4382 -0.5788
 6151TIP3   OH218416   0.626   1.159   0.545  0.0924 -0.0616  0.4026
 6151TIP3    H118417   0.596   1.076   0.583 -0.5550 -0.8921 -1.7649
 6151TIP3    H218418   0.599   1.154   0.453  2.2784  1.4858 -0.3924
 6152TIP3   OH218419   4.951   4.238   4.978 -0.0376 -0.2589  0.1888
 6152TIP3    H118420   4.878   4.187   5.011  0.0744 -1.3256 -1.1573
 6152TIP3    H218421   4.955   4.218   4.885  2.5303 -0.9675  0.3736
 6153TIP3   OH218422   2.372   0.163   0.381  0.5081 -0.6600 -0.2014
 6153TIP3    H118423   2.414   0.139   0.463  1.3842 -0.5063 -0.5886
 6153TIP3    H218424   2.331   0.082   0.350  2.6444 -1.5138 -1.0311
 6154TIP3   OH218425   3.801   3.769   5.874 -0.1833  0.3911 -0.0598
 6154TIP3    H118426   3.803   3.701   5.806  0.5417 -0.2986  0.6265
 6154TIP3    H218427   3.891   3.802   5.877  0.1791 -0.6054  1.5377
 6155TIP3   OH218428   4.000   0.355   3.345 -0.5433  0.8096  0.4179
 6155TIP3    H118429   3.991   0.264   3.373  0.0747  1.1935  1.9749
 6155TIP3    H218430   4.081   0.356   3.293 -0.4327  0.5096  0.5816
 6156TIP3   OH218431   2.380   6.506   1.033  0.4410 -0.8425  0.2110
 6156TIP3    H118432   2.325   6.430   1.053 -0.6074 -0.2529 -0.3474
 6156TIP3    H218433   2.374   6.514   0.938  1.1488 -0.5035  0.1937
 6157TIP3   OH218434   0.260   1.058   3.859  0.2775  0.1398 -0.1475
 6157TIP3    H118435   0.338   1.055   3.914  0.8485 -1.5221 -1.0106
 6157TIP3    H218436   0.290   1.036   3.771 -0.6921  2.3243 -1.1141
 6158TIP3   OH218437   2.648   4.518   2.180  0.6341 -0.0461  0.3316
 6158TIP3    H118438   2.605   4.603   2.189 -2.4015 -1.2069 -1.4812
 6158TIP3    H218439   2.650   4.503   2.085 -1.2617 -2.9555  0.6268
 6159TIP3   OH218440   2.406   3.969   2.470 -0.0330 -0.1330 -0.1559
 6159TIP3    H118441   2.320   3.955   2.430  0.0353 -1.0752  0.0088
 6159TIP3    H218442   2.462   3.904   2.429  0.8623  1.1022 -0.9806
 6160TIP3   OH218443   5.242   6.490   5.063 -0.0705  0.3550  0.4374
 6160TIP3    H118444   5.148   6.501   5.047 -0.0962  0.5109  0.6935
 6160TIP3    H218445   5.273   6.579   5.080  0.4245  0.5482 -1.2234
 6161TIP3   OH218446   5.601   6.425   4.776 -0.3444 -0.0888  0.2258
 6161TIP3    H118447   5.548   6.366   4.831 -0.1615  0.4101  0.9493
 6161TIP3    H218448   5.539   6.491   4.745 -0.6828 -0.9893 -1.0987
 6162TIP3   OH218449   2.272   2.069   2.015 -0.1066  0.7249 -0.0069
 6162TIP3    H118450   2.179   2.058   1.995  0.4075 -2.1053 -1.2958
 6162TIP3    H218451   2.273   2.093   2.107 -2.1119 -1.2702  0.6505
 6163TIP3   OH218452   3.284   4.081   0.871 -0.0682 -0.1659  0.0972
 6163TIP3    H118453   3.227   4.004   0.867  0.0656 -0.2582 -0.0561
 6163TIP3    H218454   3.368   4.046   0.901  0.1551 -0.1763 -0.5108
 6164TIP3   OH218455   3.707   4.580   4.833 -0.2651 -0.0116  0.4304
 6164TIP3    H118456   3.699   4.584   4.928  1.4032  1.2468  0.5525
 6164TIP3    H218457   3.682   4.490   4.811 -1.3585 -0.1209  1.9550
 6165TIP3   OH218458   2.815   0.024   2.362 -0.1001  0.5283 -0.1360
 6165TIP3    H118459   2.890   0.084   2.358  0.3150  0.0441  0.2928
 6165TIP3    H218460   2.746   0.076   2.402 -1.0219  2.0132 -3.3432
 6166TIP3   OH218461   7.004   5.176   3.065 -0.0969 -0.0205  0.4829
 6166TIP3    H118462   7.057   5.206   2.991 -0.0388 -0.1721  0.4613
 6166TIP3    H218463   6.937   5.243   3.076 -0.0608  0.0392  0.3391
 6167TIP3   OH218464   1.514   1.161   4.744  0.7754  0.2189 -0.1643
 6167TIP3    H118465   1.464   1.232   4.786  1.1698  1.6409 -1.9707
 6167TIP3    H218466   1.447   1.098   4.717  0.3115  0.3749  0.5748
 6168TIP3   OH218467   2.649   3.961   3.311 -0.3106  0.7901 -0.5296
 6168TIP3    H118468   2.681   3.875   3.285  1.1557  0.9979  0.4739
 6168TIP3    H218469   2.570   3.974   3.258 -0.9415 -1.4297 -0.2280
 6169TIP3   OH218470   4.461   0.464   4.259 -0.1437  0.6771  0.0774
 6169TIP3    H118471   4.533   0.497   4.313 -2.4770  1.6672  2.8593
 6169TIP3    H218472   4.384   0.513   4.290 -2.4002 -1.7655 -1.2723
 6170TIP3   OH218473   7.091   5.204   0.463  0.1647 -0.4246  0.1839
 6170TIP3    H118474   7.186   5.204   0.478  0.4134  0.0605 -1.2695
 6170TIP3    H218475   7.079   5.255   0.383 -1.3085 -0.7277  0.1831
 6171TIP3   OH218476   1.028   2.008  -0.019 -0.5005  0.1579  0.3051
 6171TIP3    H118477   0.964   1.957   0.032  1.3945 -1.3361  1.3614
 6171TIP3    H218478   1.071   2.063   0.046  0.1665  0.1665 -0.1373
 6172TIP3   OH218479   2.303   4.455   4.644  0.4820  0.6643  0.2827
 6172TIP3    H118480   2.363   4.400   4.694  1.0085  0.9528 -0.0160
 6172TIP3    H218481   2.259   4.508   4.709 -1.2686 -1.2436  0.7559
 6173TIP3   OH218482   4.966   2.696   1.515  0.4356 -0.3834 -0.2217
 6173TIP3    H118483   4.878   2.722   1.541  0.4913 -0.6954  0.3203
 6173TIP3    H218484   4.954   2.613   1.469  0.3961 -0.1614 -0.6071
 6174TIP3   OH218485   3.746   4.216   2.773  0.2409 -0.1106 -0.3319
 6174TIP3    H118486   3.794   4.279   2.827  1.1690 -0.6790 -0.4831
 6174TIP3    H218487   3.794   4.214   2.690  0.2635 -1.0732 -0.3036
 6175TIP3   OH218488   4.189   0.202   4.121  0.6074 -0.7070 -0.4398
 6175TIP3    H118489   4.192   0.279   4.064  0.2375 -1.6390 -1.7626
 6175TIP3    H218490   4.101   0.166   4.109  0.9980 -1.7175 -0.3653
 6176TIP3   OH218491   6.055   0.251   4.056  0.0345 -0.3478  0.3231
 6176TIP3    H118492   6.115   0.214   4.121 -0.7018  0.3383  1.4322
 6176TIP3    H218493   6.110   0.266   3.979  1.3653  0.4890  1.3741
 6177TIP3   OH218494   0.665   4.530   4.327  0.6594 -0.2335  0.0941
 6177TIP3    H118495   0.632   4.607   4.280 -2.0889 -1.3566 -0.0158
 6177TIP3    H218496   0.681   4.561   4.416 -1.7395  0.2795  0.4312
 6178TIP3   OH218497   4.544   0.506   5.097 -0.2727 -0.0962 -0.1904
 6178TIP3    H118498   4.568   0.483   5.186  1.4257  0.5124 -0.4471
 6178TIP3    H218499   4.523   0.599   5.100  0.7974  0.1784 -0.5744
 6179TIP3   OH218500   5.061   2.920   2.387  0.1479 -0.1889 -0.0777
 6179TIP3    H118501   5.125   2.987   2.364  0.9710 -0.8561  0.2238
 6179TIP3    H218502   5.112   2.840   2.396 -0.9839 -1.2080 -1.9028
 6180TIP3   OH218503   5.101   2.655   2.987  0.5970 -0.0567 -0.9678
 6180TIP3    H118504   5.053   2.698   2.916 -0.5566  0.6938  0.2240
 6180TIP3    H218505   5.179   2.709   2.999  0.3340  0.3459 -1.0513
 6181TIP3   OH218506   5.417   3.440   3.728 -0.3231 -0.3422  0.1502
 6181TIP3    H118507   5.333   3.460   3.768 -0.4844 -1.7990  0.5806
 6181TIP3    H218508   5.479   3.439   3.801  0.7589  3.6666 -0.4359
 6182TIP3   OH218509   6.572   4.796   0.788  0.1052 -0.0365 -0.2227
 6182TIP3    H118510   6.477   4.805   0.783  0.1060  0.5103  0.5884
 6182TIP3    H218511   6.593   4.728   0.724 -0.9511 -0.9315  0.3410
 6183TIP3   OH218512   5.930   4.790   5.166  0.2094 -0.1771  0.4184
 6183TIP3    H118513   5.863   4.768   5.231 -0.2242  1.9669  0.7795
 6183TIP3    H218514   5.986   4.712   5.162 -2.4951 -2.2357 -0.1967
 6184TIP3   OH218515   5.034   6.093   2.473 -0.6842 -0.0001 -0.1052
 6184TIP3    H118516   4.998   6.007   2.451  1.0450 -0.6799 -0.4646
 6184TIP3    H218517   5.098   6.075   2.542  1.0709  0.6709 -1.4788
 6185TIP3   OH218518   3.235   3.372   2.752  0.0406 -0.5729  0.1172
 6185TIP3    H118519   3.163   3.433   2.737 -0.0664 -0.6904  0.1497
 6185TIP3    H218520   3.270   3.397   2.838 -0.8659 -1.4086  0.7508
 6186TIP3   OH218521   0.090   5.847   5.651 -0.0506 -0.1834  0.3100
 6186TIP3    H118522   0.080   5.874   5.743  0.3699  1.2389 -0.0343
 6186TIP3    H218523   0.122   5.926   5.607 -0.5399 -0.7645 -1.1186
 6187TIP3   OH218524   2.142   1.846   3.269  0.1648  0.1442 -0.2640
 6187TIP3    H118525   2.069   1.812   3.217 -0.2429  1.3840 -0.5493
 6187TIP3    H218526   2.220   1.816   3.222 -0.1132 -1.8496  0.4743
 6188TIP3   OH218527   5.550   5.202   3.600  0.2753 -0.5521 -0.0349
 6188TIP3    H118528   5.595   5.182   3.518  0.6266 -1.7047  0.4174
 6188TIP3    H218529   5.489   5.129   3.612 -1.8388  1.0023 -0.6787
 6189TIP3   OH218530   4.004   0.534   0.295  0.2176 -0.1420  0.6633
 6189TIP3    H118531   3.975   0.536   0.387  1.7012  0.2195  1.1677
 6189TIP3    H218532   4.071   0.466   0.293  0.7053  0.3431  0.0285
 6190TIP3   OH218533   3.599   3.282   4.090  0.1754  0.0306 -0.2069
 6190TIP3    H118534   3.550   3.297   4.172  0.0023 -0.0903 -0.2876
 6190TIP3    H218535   3.532   3.284   4.022  0.5128  1.8309 -0.5486
 6191TIP3   OH218536   6.332   2.560   4.921  0.4427  0.0391  0.0884
 6191TIP3    H118537   6.285   2.586   5.000  0.5455  1.9319 -0.4321
 6191TIP3    H218538   6.386   2.635   4.899  1.8127 -1.1438 -0.7710
 6192TIP3   OH218539   3.752   1.514   4.546  0.4267  0.0176  0.8686
 6192TIP3    H118540   3.679   1.571   4.570 -2.5106 -2.5335 -1.1593
 6192TIP3    H218541   3.754   1.517   4.450  4.6895  1.7600  0.8050
 6193TIP3   OH218542   4.676   0.074   3.974 -0.0948  0.1025 -0.6555
 6193TIP3    H118543   4.738   0.059   4.045 -1.2390 -2.5468 -0.0815
 6193TIP3    H218544   4.603   0.119   4.015 -1.1706 -2.2397  0.2240
 6194TIP3   OH218545   5.176   4.685   4.220  0.1071 -0.2236  0.0525
 6194TIP3    H118546   5.243   4.751   4.203 -0.6261  0.6315  0.4242
 6194TIP3    H218547   5.136   4.711   4.303 -0.6919 -0.7119 -0.1642
 6195TIP3   OH218548   4.353   1.085   5.711  0.5923 -0.1303 -0.2911
 6195TIP3    H118549   4.267   1.053   5.685 -0.4952  1.0975  1.5403
 6195TIP3    H218550   4.415   1.032   5.661 -1.2034  0.4868 -3.4686
 6196TIP3   OH218551   3.720   0.893   2.532  0.1472  0.0193 -0.2729
 6196TIP3    H118552   3.739   0.959   2.597  0.2125  0.7161 -0.9842
 6196TIP3    H218553   3.630   0.865   2.550 -0.2216  1.0019 -0.5640
 6197TIP3   OH218554   6.113   2.685   2.932 -0.0315 -0.3006 -0.4861
 6197TIP3    H118555   6.133   2.758   2.990 -0.0466  0.1176 -1.0114
 6197TIP3    H218556   6.024   2.658   2.958  0.4150 -0.9050  0.5054
 6198TIP3   OH218557   6.509   6.038   3.928  0.8416  0.4612 -0.0906
 6198TIP3    H118558   6.473   6.096   3.861  1.7819  1.0287 -0.1371
 6198TIP3    H218559   6.488   5.950   3.898  1.1081  0.7135 -1.0522
 6199TIP3   OH218560   5.749   6.270   0.785 -0.2087  0.3116 -0.4805
 6199TIP3    H118561   5.723   6.241   0.698  0.5326  0.7939 -0.8744
 6199TIP3    H218562   5.729   6.196   0.843  1.7062 -1.0506 -1.4577
 6200TIP3   OH218563   5.466   0.317   0.917 -0.1012  0.2440  0.1100
 6200TIP3    H118564   5.383   0.270   0.918 -0.4394  0.8041  1.8083
 6200TIP3    H218565   5.517   0.278   0.988  0.1730  1.4082  0.5834
 6201TIP3   OH218566   3.418   5.777   1.089  0.1074  0.2697  0.4572
 6201TIP3    H118567   3.435   5.834   1.015 -1.3834 -0.3157 -0.3702
 6201TIP3    H218568   3.495   5.788   1.146  1.3213  0.6687 -1.1863
 6202TIP3   OH218569   4.541   4.568   0.677 -0.4519 -0.5068 -0.5091
 6202TIP3    H118570   4.576   4.481   0.697 -0.0503 -0.4162 -0.8081
 6202TIP3    H218571   4.449   4.552   0.657 -0.1297 -1.0430 -1.7245
 6203TIP3   OH218572   1.526   6.311   2.261 -0.3962 -0.7361  0.2796
 6203TIP3    H118573   1.529   6.300   2.356 -0.1497 -0.0132  0.3642
 6203TIP3    H218574   1.587   6.246   2.226 -0.4596 -0.9767  0.6166
 6204TIP3   OH218575   4.727   1.330   1.899  0.4848  0.4901  0.0265
 6204TIP3    H118576   4.675   1.332   1.979  1.6753  1.6800  0.8283
 6204TIP3    H218577   4.770   1.244   1.900 -1.8730 -0.7856 -0.9921
 6205TIP3   OH218578   5.375   4.379   3.830  0.1507 -0.0145  0.2141
 6205TIP3    H118579   5.378   4.284   3.828 -1.7426 -0.1270  0.8671
 6205TIP3    H218580   5.298   4.400   3.883 -0.1354  1.8569 -0.8379
 6206TIP3   OH218581   2.534   4.296   0.866  0.1938 -0.3005  0.0138
 6206TIP3    H118582   2.564   4.278   0.777  1.9084 -0.9215  0.6715
 6206TIP3    H218583   2.609   4.336   0.909 -0.7690  0.4506  1.0676
 6207TIP3   OH218584   1.646   3.593   5.881  0.2334 -0.0276  0.1334
 6207TIP3    H118585   1.571   3.602   5.823 -0.7405 -1.0973  1.1857
 6207TIP3    H218586   1.612   3.549   5.959  1.7503  0.3096  1.0343
 6208TIP3   OH218587   5.288   5.606   2.954 -0.4386  0.6593  0.0682
 6208TIP3    H118588   5.341   5.533   2.984 -0.3660  0.8451  0.3930
 6208TIP3    H218589   5.322   5.682   3.000 -0.1665  0.9939 -0.6621
 6209TIP3   OH218590   3.326   4.876   5.709 -0.0502  0.9082  0.6778
 6209TIP3    H118591   3.238   4.838   5.703  0.8197 -1.0256 -1.8868
 6209TIP3    H218592   3.320   4.957   5.658 -0.5777  1.4063  1.4976
 6210TIP3   OH218593   6.672   1.923   0.246 -0.4989  0.2519  0.4485
 6210TIP3    H118594   6.680   1.833   0.212  0.1530  0.5033 -0.0800
 6210TIP3    H218595   6.594   1.920   0.301 -0.4873 -0.6458  0.4453
 6211TIP3   OH218596   6.749   5.477   5.877 -1.2248  0.3403 -0.0626
 6211TIP3    H118597   6.696   5.400   5.858 -2.3239  1.3332 -1.2036
 6211TIP3    H218598   6.725   5.540   5.809  0.1634  1.4446  0.4220
 6212TIP3   OH218599   3.481   0.230   5.791 -0.1453  0.0944  0.2128
 6212TIP3    H118600   3.541   0.178   5.737 -0.2061  0.5307 -0.2742
 6212TIP3    H218601   3.484   0.318   5.753 -0.1002  0.4351  0.9873
 6213TIP3   OH218602   5.594   1.431   1.836  0.1659  0.0333  0.0476
 6213TIP3    H118603   5.525   1.435   1.770  0.2222  0.6920  0.0224
 6213TIP3    H218604   5.551   1.457   1.917  0.0375 -1.0127  0.3286
 6214TIP3   OH218605   5.304   5.673   1.216  0.6102 -0.0184  0.3135
 6214TIP3    H118606   5.374   5.713   1.268 -1.0802 -0.6566  3.3399
 6214TIP3    H218607   5.225   5.722   1.240 -0.7398 -2.2018  0.6254
 6215TIP3   OH218608   3.947   6.175   1.427 -0.0454  0.1926  0.0611
 6215TIP3    H118609   3.895   6.125   1.490  2.1567 -1.4871  0.6578
 6215TIP3    H218610   3.936   6.266   1.454 -2.3269 -0.0961  0.3547
 6216TIP3   OH218611   5.001   5.150   2.275 -0.7570  0.2980  0.4156
 6216TIP3    H118612   4.948   5.183   2.202  1.8925 -0.0750 -1.8507
 6216TIP3    H218613   4.957   5.069   2.301 -0.1865 -1.2824 -2.9915
 6217TIP3   OH218614   5.928   3.026   5.501 -0.0455 -0.1246 -0.1810
 6217TIP3    H118615   5.885   3.092   5.447 -0.5753  0.0851  0.4879
 6217TIP3    H218616   5.897   2.942   5.466  0.3312 -0.0194 -0.7843
 6218TIP3   OH218617   1.231   4.330   1.611 -0.0783 -0.3097  0.0792
 6218TIP3    H118618   1.297   4.273   1.570  0.7679  0.9316 -0.3529
 6218TIP3    H218619   1.282   4.388   1.667 -1.1148 -1.1750  1.9957
 6219TIP3   OH218620   1.728   0.667   2.083  0.7215  0.0245  0.0087
 6219TIP3    H118621   1.784   0.702   2.014  0.3837 -0.3731 -0.4759
 6219TIP3    H218622   1.639   0.680   2.050  0.4523  1.5463  1.1871
 6220TIP3   OH218623   0.500   4.912   4.839  0.5054 -0.0496 -0.5539
 6220TIP3    H118624   0.531   4.866   4.762  0.7679  1.1326 -1.1813
 6220TIP3    H218625   0.414   4.946   4.814  1.7382  2.7314 -1.4045
 6221TIP3   OH218626   2.203   1.114   1.691 -0.0868  0.3240  0.1041
 6221TIP3    H118627   2.257   1.117   1.770  0.4864  1.5208 -0.3085
 6221TIP3    H218628   2.146   1.190   1.698  0.6849  1.0633 -1.1001
 6222TIP3   OH218629   5.313   2.370   2.202  0.3653  0.2563 -0.0733
 6222TIP3    H118630   5.405   2.346   2.186  0.3141 -1.3947  1.6548
 6222TIP3    H218631   5.311   2.397   2.294 -0.7034  1.3677 -0.3964
 6223TIP3   OH218632   0.238   4.477   2.714  0.2922 -0.8097  0.2598
 6223TIP3    H118633   0.281   4.436   2.639 -0.1105 -0.8244  0.0326
 6223TIP3    H218634   0.242   4.571   2.695 -1.0043 -0.8792 -0.4492
 6224TIP3   OH218635   6.727   6.296   3.628  0.1333  0.3083  0.3218
 6224TIP3    H118636   6.711   6.381   3.668  1.0337  0.8678 -0.4434
 6224TIP3    H218637   6.728   6.314   3.534 -2.1948 -1.0092 -0.0199
 6225TIP3   OH218638   3.184   3.054   1.793  0.0357  0.0259  0.2789
 6225TIP3    H118639   3.190   2.990   1.864  1.9499 -1.8297 -1.4053
 6225TIP3    H218640   3.260   3.110   1.805 -0.3231  0.4969  0.3780
 6226TIP3   OH218641   0.765   2.776   5.325 -0.1903 -0.2269 -0.0834
 6226TIP3    H118642   0.702   2.712   5.291 -0.5661 -0.4345  0.9456
 6226TIP3    H218643   0.844   2.725   5.344 -0.3529 -0.3197  0.3596
 6227TIP3   OH218644   0.864   1.808   5.140  0.8637  0.0447 -0.4302
 6227TIP3    H118645   0.774   1.815   5.108  0.8046  0.2912 -0.2181
 6227TIP3    H218646   0.881   1.893   5.181  0.4975 -0.6840  1.3360
 6228TIP3   OH218647   0.095   4.499   3.917 -0.1944  0.2592 -0.2528
 6228TIP3    H118648   0.064   4.424   3.968 -0.0018  0.9604  0.9101
 6228TIP3    H218649   0.019   4.556   3.910  0.4798  1.4859  1.7048
 6229TIP3   OH218650   3.443   2.560   4.369 -0.1870 -0.4808  0.1825
 6229TIP3    H118651   3.473   2.479   4.329  0.5395  0.9991 -2.5166
 6229TIP3    H218652   3.387   2.601   4.303 -1.0356  0.9622  1.6967
 6230TIP3   OH218653   4.664   0.036   4.749 -0.2897 -0.4911 -0.9175
 6230TIP3    H118654   4.701   0.042   4.837  0.7343 -2.3657 -1.1556
 6230TIP3    H218655   4.577  -0.002   4.762  0.1901 -1.5739 -0.7391
 6231TIP3   OH218656   5.666   5.203   5.210  0.0033 -0.2681  0.0763
 6231TIP3    H118657   5.622   5.127   5.173  1.0452  0.8935 -4.0825
 6231TIP3    H218658   5.619   5.278   5.175  1.7240  0.9881  0.3310
 6232TIP3   OH218659   1.488   1.659   1.476 -0.2466 -0.3070  0.2856
 6232TIP3    H118660   1.476   1.668   1.382 -0.6212  3.3747  0.5509
 6232TIP3    H218661   1.562   1.599   1.485 -0.4719 -1.0931 -2.2968
 6233TIP3   OH218662   1.132   6.054   5.629 -0.9558 -0.0292 -0.1940
 6233TIP3    H118663   1.156   6.146   5.620  1.0059 -0.1303  2.7077
 6233TIP3    H218664   1.184   6.009   5.562  0.3825  0.7224  0.3028
 6234TIP3   OH218665   5.308   3.338   5.048 -0.6839 -0.1997 -0.4392
 6234TIP3    H118666   5.402   3.355   5.035 -0.4801 -1.8557 -1.4335
 6234TIP3    H218667   5.265   3.419   5.022  0.4744  0.7339  0.4110
 6235TIP3   OH218668   6.675   5.747   3.190 -0.1799 -0.6034  0.3942
 6235TIP3    H118669   6.732   5.731   3.115  0.0170 -0.5676  0.5358
 6235TIP3    H218670   6.735   5.774   3.260 -0.3123 -1.1050  0.7037
 6236TIP3   OH218671   3.799   1.927   1.333  0.2361 -0.4242  0.1383
 6236TIP3    H118672   3.871   1.990   1.340 -1.0963  1.1286  0.4237
 6236TIP3    H218673   3.785   1.897   1.422 -2.3229  2.7069  0.9852
 6237TIP3   OH218674   5.310   6.689   5.743 -0.4646  0.0372 -0.6839
 6237TIP3    H118675   5.262   6.621   5.791  0.7102 -0.0966  0.3524
 6237TIP3    H218676   5.382   6.643   5.701  0.4272  0.6314  0.1426
 6238TIP3   OH218677   3.900   1.446   5.429  0.7577 -0.9783  0.1475
 6238TIP3    H118678   3.975   1.506   5.431 -0.0866  0.1147  2.2477
 6238TIP3    H218679   3.865   1.454   5.340  0.3162  2.2127  0.4728
 6239TIP3   OH218680   1.236   0.875   5.877 -0.3952 -0.1688  0.0704
 6239TIP3    H118681   1.254   0.917   5.962  2.0909 -0.6303 -0.1646
 6239TIP3    H218682   1.298   0.916   5.817  0.1515 -2.1680 -0.7908
 6240TIP3   OH218683   4.020   0.131   2.014 -0.0902  0.5131  0.6687
 6240TIP3    H118684   4.077   0.061   1.983 -0.1999  1.0184 -0.7410
 6240TIP3    H218685   3.946   0.085   2.054  0.0047 -0.1812  0.0751
 6241TIP3   OH218686   6.792   3.423   2.185 -0.0166  0.4253 -0.2667
 6241TIP3    H118687   6.846   3.412   2.264 -0.7367 -0.5077  0.1152
 6241TIP3    H218688   6.849   3.470   2.124  0.9292  0.2206  0.4261
 6242TIP3   OH218689   1.552   2.015   4.023  0.0188 -0.2373  0.4748
 6242TIP3    H118690   1.481   1.995   4.084  0.4058 -1.2349  0.6185
 6242TIP3    H218691   1.624   1.958   4.050  0.9796  0.9305  0.4911
 6243TIP3   OH218692   5.078   3.221   3.095 -0.4438  0.1341  0.2092
 6243TIP3    H118693   5.144   3.191   3.033 -0.3823 -0.3823  0.5113
 6243TIP3    H218694   5.100   3.313   3.112 -1.5205  0.8295 -1.8802
 6244TIP3   OH218695   0.054   5.859   5.345  0.3022 -0.0755  0.2830
 6244TIP3    H118696   0.130   5.847   5.401  1.4219  3.0947 -0.3568
 6244TIP3    H218697   0.036   5.953   5.347 -2.1506 -0.3870 -1.4718
 6245TIP3   OH218698   1.063   5.372   2.196  0.3762 -0.4415 -0.0318
 6245TIP3    H118699   1.039   5.408   2.282 -0.3551 -0.4996 -0.2056
 6245TIP3    H218700   1.113   5.292   2.217 -0.4567 -0.8745  0.3401
 6246TIP3   OH218701   7.001   1.972   5.283  0.0950  0.7766  0.1153
 6246TIP3    H118702   7.013   1.885   5.245 -0.3450 -0.3340  2.3398
 6246TIP3    H218703   6.998   2.031   5.208 -1.1945 -1.3039 -1.5771
 6247TIP3   OH218704   0.569   3.314   0.977 -0.1166  0.2984 -0.2256
 6247TIP3    H118705   0.597   3.388   1.032 -1.8722  1.1912 -0.4313
 6247TIP3    H218706   0.637   3.306   0.911  1.3293  0.1257  1.2231
 6248TIP3   OH218707   6.160   6.271   3.805  0.3213  0.1050 -0.2095
 6248TIP3    H118708   6.227   6.230   3.750  0.0081  1.2583 -1.5122
 6248TIP3    H218709   6.194   6.263   3.894  1.3201 -0.9312 -0.6530
 6249TIP3   OH218710   4.904   1.083   3.737 -0.8771 -0.7418  0.1692
 6249TIP3    H118711   4.946   1.114   3.657 -1.2136 -0.9717 -0.1019
 6249TIP3    H218712   4.974   1.077   3.801 -0.9428  1.6131  0.5605
 6250TIP3   OH218713   3.898   0.181   5.790 -0.5113 -0.0476  0.6449
 6250TIP3    H118714   3.935   0.094   5.801 -1.2604 -0.4254  0.2396
 6250TIP3    H218715   3.899   0.219   5.879  0.8436 -0.0307  0.6301
 6251TIP3   OH218716   2.417   2.617   1.089 -0.1133 -0.4131 -0.7129
 6251TIP3    H118717   2.348   2.591   1.028 -0.3667  0.7352 -0.9549
 6251TIP3    H218718   2.370   2.661   1.160  0.4121  2.0203 -1.7428
 6252TIP3   OH218719   3.608   1.110   1.227  0.3093  0.6916  0.7199
 6252TIP3    H118720   3.612   1.018   1.200 -1.3460  0.2192  1.9017
 6252TIP3    H218721   3.548   1.151   1.165  0.9731  0.9627  0.2508
 6253TIP3   OH218722   3.943   0.823   2.376  0.2024  0.5644  0.6182
 6253TIP3    H118723   3.994   0.752   2.416 -2.1925 -1.6138  0.1124
 6253TIP3    H218724   3.873   0.840   2.439  0.0799  1.6738  0.1959
 6254TIP3   OH218725   5.599   4.862   3.189 -0.1535  0.1386 -0.9096
 6254TIP3    H118726   5.528   4.923   3.169 -1.6037 -1.0830  0.3114
 6254TIP3    H218727   5.615   4.815   3.107 -1.8669 -0.6734 -0.8081
 6255TIP3   OH218728   0.076   4.443   5.538 -0.0544 -0.7097 -0.0082
 6255TIP3    H118729   0.128   4.389   5.477 -0.4108 -0.3451 -0.6424
 6255TIP3    H218730   0.072   4.529   5.496 -1.6306 -0.8733 -0.2388
 6256TIP3   OH218731   4.643   4.967   3.788  0.1156  0.0925  0.0635
 6256TIP3    H118732   4.665   5.055   3.758 -1.6216  0.8808  0.9947
 6256TIP3    H218733   4.550   4.957   3.771  0.3641 -1.7759 -0.4562
 6257TIP3   OH218734   6.796   2.354   3.528  0.7191  0.3440  0.2545
 6257TIP3    H118735   6.853   2.313   3.593 -0.4904  0.7407  1.5989
 6257TIP3    H218736   6.747   2.420   3.576 -2.2532 -1.2168 -0.4014
 6258TIP3   OH218737   1.302   0.022   5.810 -0.0460  0.1370 -0.1638
 6258TIP3    H118738   1.216  -0.007   5.780  0.2517 -0.3500 -0.5499
 6258TIP3    H218739   1.296   0.021   5.905 -1.0277  1.7708 -0.1602
 6259TIP3   OH218740   6.766   0.950   5.582 -0.0838 -0.8641  0.0747
 6259TIP3    H118741   6.860   0.966   5.580  0.0499 -1.6436 -0.9506
 6259TIP3    H218742   6.727   1.036   5.565  0.4330 -0.5276  0.5450
 6260TIP3   OH218743   1.178   6.402   5.224 -0.0926  0.3205 -0.1063
 6260TIP3    H118744   1.104   6.444   5.267 -1.2289 -1.4318 -0.2571
 6260TIP3    H218745   1.140   6.354   5.151  1.0327 -1.3892  0.3690
 6261TIP3   OH218746   4.305   0.684   2.038  0.1811  0.1149  0.0146
 6261TIP3    H118747   4.281   0.643   2.121 -1.1454 -2.5244 -1.5446
 6261TIP3    H218748   4.234   0.747   2.021 -0.2776 -0.3396  0.2265
 6262TIP3   OH218749   5.829   2.987   2.333 -0.3580 -1.0782 -0.4510
 6262TIP3    H118750   5.793   3.073   2.357  1.3695 -0.2575 -0.6428
 6262TIP3    H218751   5.886   2.964   2.406  0.9325 -0.9904 -1.3986
 6263TIP3   OH218752   0.352   5.491   0.132  0.7702  0.2134 -0.7055
 6263TIP3    H118753   0.422   5.534   0.182  1.4621  0.3217 -1.7330
 6263TIP3    H218754   0.288   5.561   0.117  0.0107 -0.0732  0.9250
 6264TIP3   OH218755   0.185   6.095   0.054  0.1267 -0.6456 -0.0917
 6264TIP3    H118756   0.236   6.174   0.070  0.5019 -0.8873 -0.0959
 6264TIP3    H218757   0.243   6.023   0.079 -0.3408 -0.9088  0.2550
 6265TIP3   OH218758   1.758   4.471   5.611 -0.0787  0.1805 -0.2068
 6265TIP3    H118759   1.786   4.461   5.702 -0.0672 -0.4164 -0.2762
 6265TIP3    H218760   1.739   4.564   5.603 -3.4094 -0.2429  1.3631
 6266TIP3   OH218761   0.111   4.781   4.067 -0.0205 -0.1698  0.0826
 6266TIP3    H118762   0.137   4.872   4.048  1.4665 -0.1362  1.9575
 6266TIP3    H218763   0.045   4.761   4.001 -1.2651  2.6827  0.3020
 6267TIP3   OH218764   0.101   1.096   2.988 -0.0753 -0.0886  0.2968
 6267TIP3    H118765   0.158   1.152   3.039 -0.4294 -1.1565  1.9417
 6267TIP3    H218766   0.153   1.018   2.969 -0.4380 -0.3439  0.3361
 6268TIP3   OH218767   4.055   0.532   0.601  0.2919  0.6041  0.3331
 6268TIP3    H118768   4.062   0.605   0.663  0.2757  1.7418 -0.9553
 6268TIP3    H218769   4.143   0.493   0.600  0.1481  0.2105  1.4619
 6269TIP3   OH218770   4.715   6.572   5.824 -0.5443  0.1189  0.1524
 6269TIP3    H118771   4.727   6.572   5.919  0.7796 -1.1603  0.0234
 6269TIP3    H218772   4.798   6.539   5.790 -1.3708 -0.4493 -1.3973
 6270TIP3   OH218773   6.361   0.903   2.501  0.2001  0.1119  0.5189
 6270TIP3    H118774   6.349   0.948   2.585  0.5987 -1.5204  1.5062
 6270TIP3    H218775   6.274   0.870   2.480 -0.0922  1.2969 -0.2046
 6271TIP3   OH218776   5.728   4.903   3.439  0.6198 -0.3745 -0.2502
 6271TIP3    H118777   5.697   4.871   3.354  0.8342 -0.8647 -0.1461
 6271TIP3    H218778   5.713   4.998   3.436 -1.2010 -0.6216 -0.0737
 6272TIP3   OH218779   5.609   5.862   5.164  0.3115  0.0552  0.3227
 6272TIP3    H118780   5.649   5.949   5.165  0.0533  0.1764  0.7002
 6272TIP3    H218781   5.611   5.834   5.256  1.1087 -0.6742  0.0944
 6273TIP3   OH218782   5.808   3.419   3.746  0.1167 -0.2380  0.2197
 6273TIP3    H118783   5.736   3.384   3.798 -0.1718  3.5523  2.7874
 6273TIP3    H218784   5.765   3.467   3.675  0.2460 -0.6787 -0.1548
 6274TIP3   OH218785   3.323   5.686   3.296 -0.4919  0.6629 -0.8347
 6274TIP3    H118786   3.256   5.730   3.348  0.3437 -0.1623  1.0364
 6274TIP3    H218787   3.398   5.745   3.298 -0.6350  0.8908 -1.6383
 6275TIP3   OH218788   5.952   4.141   4.530  0.1640 -0.0777  0.2092
 6275TIP3    H118789   5.991   4.211   4.582  1.9069  1.1459 -2.5067
 6275TIP3    H218790   6.016   4.124   4.461 -1.2353 -2.7938 -0.5630
 6276TIP3   OH218791   4.150   4.044   4.175  0.5630  0.1313 -0.1811
 6276TIP3    H118792   4.239   4.055   4.210  0.0372 -1.9215  2.0669
 6276TIP3    H218793   4.105   4.124   4.198  1.4609  0.6532 -0.1805
 6277TIP3   OH218794   0.237   3.635   2.655  0.2500  1.0177 -0.3316
 6277TIP3    H118795   0.228   3.682   2.738 -0.1276 -1.6916  1.2692
 6277TIP3    H218796   0.327   3.603   2.655 -0.5472 -1.4671  0.5434
 6278TIP3   OH218797   4.095   0.098   5.025 -0.2207  0.4451  0.7894
 6278TIP3    H118798   4.064   0.011   4.999 -0.0673  0.6368 -0.0650
 6278TIP3    H218799   4.143   0.083   5.107 -0.5886 -0.2027  0.8897
 6279TIP3   OH218800   6.605   1.492   2.810 -0.3452 -0.0849  0.0440
 6279TIP3    H118801   6.604   1.463   2.901 -0.3182  0.4026  0.2030
 6279TIP3    H218802   6.668   1.435   2.767 -1.0999 -0.9943  0.1004
 6280TIP3   OH218803   1.241   0.560   4.539 -0.4249  0.1906  0.2429
 6280TIP3    H118804   1.261   0.587   4.628 -3.0878  1.5638  0.5172
 6280TIP3    H218805   1.220   0.467   4.546  0.0920  0.1189  0.8985
 6281TIP3   OH218806   6.146   4.062   3.271  0.2146 -0.2206 -0.0885
 6281TIP3    H118807   6.071   4.102   3.315  0.8158  0.9540 -0.0929
 6281TIP3    H218808   6.217   4.125   3.282  1.4748 -1.6962  0.6997
 6282TIP3   OH218809   6.121   6.567   1.561  0.4676 -0.4199  0.4675
 6282TIP3    H118810   6.168   6.575   1.479 -0.3512 -1.3777 -0.1164
 6282TIP3    H218811   6.126   6.474   1.583 -1.2323 -0.5854  0.3066
 6283TIP3   OH218812   3.144   3.425   4.484  0.1447  0.1854 -0.0328
 6283TIP3    H118813   3.138   3.521   4.488  1.2563  0.2790 -0.4067
 6283TIP3    H218814   3.122   3.404   4.393  3.2532  0.3951 -0.9303
 6284TIP3   OH218815   3.183   3.836   3.222  0.3194 -0.1341 -0.9338
 6284TIP3    H118816   3.108   3.840   3.281  0.7682 -1.4922 -0.2329
 6284TIP3    H218817   3.147   3.859   3.136 -0.4631  1.2636 -0.2663
 6285TIP3   OH218818   6.134   6.451   3.460  0.5049 -0.4530 -0.9365
 6285TIP3    H118819   6.225   6.474   3.443  0.7411 -0.9581 -0.3699
 6285TIP3    H218820   6.083   6.514   3.408  1.1055  1.8019  1.0656
 6286TIP3   OH218821   5.089   0.051   4.478  0.4443 -0.3677  0.0199
 6286TIP3    H118822   5.009   0.001   4.493 -0.4460 -0.0122 -2.8768
 6286TIP3    H218823   5.091   0.115   4.549 -0.5148 -1.9508  1.5321
 6287TIP3   OH218824   0.952   4.971   4.445  0.1238  0.5331 -1.1400
 6287TIP3    H118825   0.945   4.964   4.540 -2.0174 -0.1890 -1.2893
 6287TIP3    H218826   0.901   4.897   4.412  1.4722  0.3082 -2.8684
 6288TIP3   OH218827   0.292   1.501   4.680  0.3950  0.0170 -0.1909
 6288TIP3    H118828   0.311   1.509   4.774  0.3121  2.7892 -0.3117
 6288TIP3    H218829   0.357   1.439   4.647  3.4939  2.3648  0.9771
 6289TIP3   OH218830   1.500   3.905   0.275  0.4926 -0.3060 -0.3390
 6289TIP3    H118831   1.544   3.939   0.197 -2.2185 -0.7811 -2.2597
 6289TIP3    H218832   1.469   3.983   0.321  1.6648 -0.0350  0.0243
 6290TIP3   OH218833   4.579   5.244   2.691 -0.5997  0.5119 -0.0093
 6290TIP3    H118834   4.509   5.240   2.626 -0.0693  0.5631 -0.5839
 6290TIP3    H218835   4.660   5.235   2.641 -0.1166  1.8659  0.4852
 6291TIP3   OH218836   7.094   2.821   0.941  0.2353 -0.1356  0.6712
 6291TIP3    H118837   7.052   2.790   0.860 -0.1165 -1.0526  1.1893
 6291TIP3    H218838   7.174   2.865   0.911 -0.9872  1.5373 -0.3295
 6292TIP3   OH218839   1.802   5.609   4.973 -0.2233  0.3286  0.3237
 6292TIP3    H118840   1.729   5.646   5.023 -0.8927  1.4220 -1.3420
 6292TIP3    H218841   1.805   5.662   4.893  1.6299 -0.4897 -0.2010
 6293TIP3   OH218842   6.963   5.124   1.258  0.6331 -0.1373  0.1473
 6293TIP3    H118843   6.952   5.037   1.296 -1.3201  0.3567  0.8470
 6293TIP3    H218844   6.922   5.118   1.171  0.4652  0.0764  0.2085
 6294TIP3   OH218845   0.576   2.199   0.500  0.2173 -0.0771  0.1140
 6294TIP3    H118846   0.538   2.251   0.570 -0.2944 -1.5570  0.9789
 6294TIP3    H218847   0.536   2.234   0.420  1.4945  2.2351  0.4027
 6295TIP3   OH218848   0.464   2.601   0.589  0.0311  0.0603  0.3205
 6295TIP3    H118849   0.377   2.563   0.597 -0.1124 -0.6146 -2.9624
 6295TIP3    H218850   0.488   2.625   0.678 -3.4582  0.2473  1.3585
 6296TIP3   OH218851   5.672   1.728   2.427  0.4987  0.0835 -0.3944
 6296TIP3    H118852   5.701   1.669   2.496  1.0065 -0.2890 -0.9190
 6296TIP3    H218853   5.694   1.816   2.459 -1.4238  0.1357  0.9720
 6297TIP3   OH218854   5.424   1.886   0.841 -0.3085  0.2830  0.4474
 6297TIP3    H118855   5.383   1.913   0.759  0.5085 -0.4756 -0.2212
 6297TIP3    H218856   5.377   1.936   0.908 -2.4538 -0.6783 -0.2478
 6298TIP3   OH218857   5.001   3.923   4.150  0.3734 -0.9726  0.4785
 6298TIP3    H118858   4.929   3.870   4.186 -0.2167  0.5875  1.7455
 6298TIP3    H218859   5.064   3.928   4.222 -0.3481  1.3523  1.0334
 6299TIP3   OH218860   0.843   3.900   3.095  0.5964  0.0419  0.0223
 6299TIP3    H118861   0.782   3.903   3.169  0.2999  0.0422 -0.2188
 6299TIP3    H218862   0.921   3.945   3.126  0.9085 -0.9337  0.7335
 6300TIP3   OH218863   5.040   2.248   0.338  0.3990  0.1422 -0.0368
 6300TIP3    H118864   4.958   2.254   0.388 -0.3807 -0.9767 -1.1043
 6300TIP3    H218865   5.104   2.216   0.401 -0.9446 -2.8988 -0.0374
 6301TIP3   OH218866   1.401   6.641   1.903  0.5331  0.0918 -0.4352
 6301TIP3    H118867   1.490   6.672   1.893  1.1613 -1.1019  0.9702
 6301TIP3    H218868   1.409   6.562   1.957 -1.5063  0.9084  1.2141
 6302TIP3   OH218869   1.224   2.583   2.529 -0.1971 -0.0902  0.1315
 6302TIP3    H118870   1.189   2.497   2.507 -0.8639  0.4217 -0.9325
 6302TIP3    H218871   1.300   2.594   2.471 -1.6919  1.0803 -1.7436
 6303TIP3   OH218872   5.535   3.944   5.037 -0.2309  0.2948  0.2481
 6303TIP3    H118873   5.578   3.952   5.122 -0.3276 -1.2144  0.4610
 6303TIP3    H218874   5.445   3.972   5.054  0.2175  1.9426  0.1515
 6304TIP3   OH218875   1.495   6.383   3.813  0.6785  0.3350 -0.0771
 6304TIP3    H118876   1.580   6.348   3.785  0.5566 -1.0709  1.1805
 6304TIP3    H218877   1.431   6.331   3.764  0.5107  1.6308 -1.2898
 6305TIP3   OH218878   6.334   0.710   2.793  0.2938  0.4436 -0.0176
 6305TIP3    H118879   6.305   0.797   2.764  4.0691  1.6421 -0.7397
 6305TIP3    H218880   6.263   0.651   2.768 -2.1450  3.1963 -0.0431
 6306TIP3   OH218881   5.776   5.389   3.706  0.0306  0.0409  0.3110
 6306TIP3    H118882   5.741   5.471   3.740 -0.1234 -0.2242  0.8060
 6306TIP3    H218883   5.708   5.356   3.647  0.3823  0.5997 -0.4127
 6307TIP3   OH218884   1.043   2.227   3.364  0.4734 -0.0588  0.2560
 6307TIP3    H118885   1.029   2.183   3.449 -1.4505 -1.6318 -0.7854
 6307TIP3    H218886   0.958   2.225   3.322  1.1848  1.5234 -1.3727
 6308TIP3   OH218887   7.195   6.708   3.605 -0.4033  0.5971  0.6573
 6308TIP3    H118888   7.180   6.614   3.617 -3.3807  0.8962  0.1244
 6308TIP3    H218889   7.222   6.740   3.691  1.2675 -0.8016  0.7001
 6309TIP3   OH218890   2.319   0.298   2.197  0.1703 -0.3931 -0.1930
 6309TIP3    H118891   2.331   0.323   2.105 -0.0955 -2.3626 -0.8231
 6309TIP3    H218892   2.378   0.224   2.209 -0.2921 -0.5799  1.0267
 6310TIP3   OH218893   5.164   0.325   4.513  0.1273 -0.2099 -0.4036
 6310TIP3    H118894   5.149   0.289   4.426 -0.9478 -1.9449  0.4418
 6310TIP3    H218895   5.205   0.410   4.498  1.7879 -1.2934 -2.5500
 6311TIP3   OH218896   4.877   3.726   5.766 -0.1308 -0.1613  0.1035
 6311TIP3    H118897   4.897   3.632   5.764 -0.0401 -0.1322 -0.5985
 6311TIP3    H218898   4.908   3.759   5.681 -0.8125  0.3628  0.0498
 6312TIP3   OH218899   5.809   5.620   3.351  0.1200 -0.3220  0.2578
 6312TIP3    H118900   5.736   5.559   3.362  0.2368 -0.6716 -0.7723
 6312TIP3    H218901   5.857   5.617   3.434  1.3667 -3.2731 -0.4449
 6313TIP3   OH218902   2.984   4.903   3.399 -0.3463  0.6904  0.1201
 6313TIP3    H118903   2.988   4.987   3.444  1.1442  0.3243  0.7445
 6313TIP3    H218904   3.055   4.906   3.335 -0.7629  0.1889 -0.3829
 6314TIP3   OH218905   7.188   3.738   0.966 -0.2007  0.0686  0.9070
 6314TIP3    H118906   7.140   3.655   0.959 -0.8757  0.4230  1.2932
 6314TIP3    H218907   7.255   3.732   0.898 -1.7539  0.1918 -0.7043
 6315TIP3   OH218908   0.539   3.953   0.325  0.2901 -0.0775 -0.1394
 6315TIP3    H118909   0.577   4.008   0.257  0.6913  0.7899  0.7643
 6315TIP3    H218910   0.531   4.010   0.401  1.2376 -1.4119  1.0087
 6316TIP3   OH218911   0.256   2.865   3.815 -0.2857 -0.6299 -0.1570
 6316TIP3    H118912   0.204   2.939   3.844  0.6329  0.9998 -2.3887
 6316TIP3    H218913   0.211   2.832   3.737  0.1453 -1.4365 -0.0830
 6317TIP3   OH218914   6.818   3.424   3.686 -0.2099 -0.2564  0.4215
 6317TIP3    H118915   6.910   3.399   3.694 -0.5443 -1.7082 -0.0139
 6317TIP3    H218916   6.795   3.403   3.596 -0.5670  1.5986  0.0498
 6318TIP3   OH218917   3.987   6.062   3.579 -0.3297 -0.4880  0.0696
 6318TIP3    H118918   3.981   5.984   3.524 -1.2339 -0.0722 -0.4434
 6318TIP3    H218919   4.005   6.133   3.517 -1.0483 -0.0611  0.3418
 6319TIP3   OH218920   1.221   1.935   3.337  0.3056 -0.1343 -0.2774
 6319TIP3    H118921   1.169   2.005   3.298  1.2724  0.7627 -0.0062
 6319TIP3    H218922   1.196   1.934   3.429  0.0216 -0.3984 -0.3570
 6320TIP3   OH218923   1.997   3.228   1.799 -0.5290 -0.3403 -0.0331
 6320TIP3    H118924   2.052   3.151   1.785 -0.0497  0.0897 -0.5827
 6320TIP3    H218925   1.910   3.192   1.816 -0.1706 -1.0179  0.4246
 6321TIP3   OH218926   5.779   4.181   5.652  0.1061  0.4123  0.3437
 6321TIP3    H118927   5.774   4.276   5.660  0.0172  0.3789  0.6945
 6321TIP3    H218928   5.688   4.153   5.638  0.0213  0.3092  1.0574
 6322TIP3   OH218929   0.672   6.641   2.768  0.5645 -0.3452  0.0232
 6322TIP3    H118930   0.683   6.683   2.683  0.5398 -2.2751 -0.9985
 6322TIP3    H218931   0.589   6.676   2.802  0.8274  0.8242 -0.5093
 6323TIP3   OH218932   5.159   6.797   5.404  0.1502  0.2296 -0.1446
 6323TIP3    H118933   5.169   6.844   5.486 -1.6781  0.6901 -0.1376
 6323TIP3    H218934   5.126   6.711   5.429 -1.0492  0.5945 -0.3989
 6324TIP3   OH218935   6.159   5.410   5.055  0.2893 -0.2392  0.1866
 6324TIP3    H118936   6.145   5.500   5.085 -0.2325 -0.2227 -0.0999
 6324TIP3    H218937   6.252   5.393   5.073  0.3244  0.2568  0.5009
 6325TIP3   OH218938   2.185   3.650   1.502 -0.1595  0.3971  0.0717
 6325TIP3    H118939   2.179   3.739   1.538 -0.1554 -0.0581  1.2410
 6325TIP3    H218940   2.271   3.647   1.461  0.0412  0.7902  0.4523
 6326TIP3   OH218941   2.407   4.704   4.814 -0.0297 -0.3372 -0.0898
 6326TIP3    H118942   2.396   4.793   4.846  0.2032 -0.8547  1.5064
 6326TIP3    H218943   2.501   4.695   4.799  0.1225 -0.6797  0.9609
 6327TIP3   OH218944   1.746   4.891   3.208  0.2982  0.0571 -0.0324
 6327TIP3    H118945   1.671   4.865   3.154 -0.1021 -0.5716  0.8187
 6327TIP3    H218946   1.800   4.812   3.214 -0.6890 -0.5153  2.1708
 6328TIP3   OH218947   4.727   0.230   0.466 -0.3736 -0.2812 -0.1857
 6328TIP3    H118948   4.655   0.168   0.452  0.6429 -1.3353 -0.9713
 6328TIP3    H218949   4.783   0.189   0.531  0.2211 -0.1240 -0.5806
 6329TIP3   OH218950   4.008   6.373   5.273  0.3178  0.3996 -0.0967
 6329TIP3    H118951   3.947   6.405   5.339 -0.1974  1.1604 -0.9074
 6329TIP3    H218952   3.952   6.349   5.199  0.8604 -0.6839 -0.1825
 6330TIP3   OH218953   4.563   3.621   3.273 -0.0706 -0.0209  0.5266
 6330TIP3    H118954   4.502   3.561   3.230 -0.4229 -0.3801  1.4969
 6330TIP3    H218955   4.508   3.673   3.332  0.4606  0.1474  0.8807
 6331TIP3   OH218956   6.816   2.234   5.228 -0.4087 -0.1747  0.2447
 6331TIP3    H118957   6.809   2.270   5.317  1.0852 -0.5648  0.5605
 6331TIP3    H218958   6.878   2.292   5.184 -0.4504 -0.5119 -0.2608
 6332TIP3   OH218959   2.940   3.800   4.269 -0.2540 -0.7144  0.1326
 6332TIP3    H118960   2.848   3.826   4.274  0.1364  0.5448  1.2320
 6332TIP3    H218961   2.986   3.879   4.243  0.3974 -1.6889 -1.9414
 6333TIP3   OH218962   3.551   2.272   0.053  0.0415 -0.1533 -0.0492
 6333TIP3    H118963   3.643   2.268   0.080  0.0629  0.3717 -0.0225
 6333TIP3    H218964   3.524   2.361   0.077 -0.0785  0.1611 -1.2914
 6334TIP3   OH218965   4.313   2.589   4.311  0.3654  0.2131  0.4710
 6334TIP3    H118966   4.244   2.654   4.323 -0.6149 -0.5795 -0.5830
 6334TIP3    H218967   4.394   2.640   4.305 -0.3834  1.3462 -0.4254
 6335TIP3   OH218968   6.670   2.265   4.806  0.7647  0.4858 -0.1732
 6335TIP3    H118969   6.646   2.326   4.736  0.5151  1.1961  0.5235
 6335TIP3    H218970   6.616   2.291   4.881  1.6429  0.2704  0.5512
 6336TIP3   OH218971   4.538   0.960   5.558  0.3349  0.6287  0.6087
 6336TIP3    H118972   4.618   0.995   5.519  0.6705 -0.4816  0.2397
 6336TIP3    H218973   4.558   0.867   5.573 -1.1324  0.1302 -0.2315
 6337TIP3   OH218974   4.841   5.694   3.660 -0.0544  0.3736 -0.0138
 6337TIP3    H118975   4.753   5.702   3.697 -0.6850  0.6843 -1.5083
 6337TIP3    H218976   4.899   5.698   3.736 -1.4091 -3.9964  1.5502
 6338TIP3   OH218977   0.943   3.181   2.928 -0.8401 -1.1256 -0.1577
 6338TIP3    H118978   0.875   3.214   2.986 -2.0665 -1.2003 -1.4938
 6338TIP3    H218979   0.896   3.153   2.849  0.6661 -1.8293 -0.8473
 6339TIP3   OH218980   1.782   2.011   4.844  0.7320  0.1056  0.1590
 6339TIP3    H118981   1.743   2.088   4.802 -1.2726 -0.8688  0.1124
 6339TIP3    H218982   1.813   2.043   4.929  1.5909  1.3254 -0.5816
 6340TIP3   OH218983   2.654   5.175   4.550  0.1584 -0.6025 -0.1364
 6340TIP3    H118984   2.618   5.236   4.615  0.5037  0.4486 -0.9055
 6340TIP3    H218985   2.610   5.092   4.568 -0.7015 -0.0040  0.6038
 6341TIP3   OH218986   3.434   1.145   0.983  0.5136 -0.6392 -0.3912
 6341TIP3    H118987   3.453   1.212   0.917 -0.2190  1.6354  1.5601
 6341TIP3    H218988   3.339   1.138   0.982  0.5065 -0.6803  0.3015
 6342TIP3   OH218989   2.830   2.792   3.066  0.1920  0.0750 -0.0870
 6342TIP3    H118990   2.846   2.776   3.159 -2.1938  1.7072  0.6955
 6342TIP3    H218991   2.749   2.744   3.047  0.0741  0.6312 -1.0346
 6343TIP3   OH218992   1.094   6.634   4.026  0.0411  0.1790  0.2305
 6343TIP3    H118993   1.082   6.697   4.097  2.6567 -0.0565  0.9942
 6343TIP3    H218994   1.082   6.686   3.946  0.0906  1.1648  0.8410
 6344TIP3   OH218995   4.105   1.756   1.381 -0.0322  0.1472  0.0929
 6344TIP3    H118996   4.116   1.664   1.407 -0.5272 -0.4487 -1.6749
 6344TIP3    H218997   4.054   1.752   1.300  3.1598  1.7279 -2.1942
 6345TIP3   OH218998   1.290   1.396   0.561 -0.3366  0.4628  0.4713
 6345TIP3    H118999   1.201   1.426   0.582 -0.8675  0.7809 -1.8940
 6345TIP3    H219000   1.277   1.306   0.530  0.2253  0.3778  0.4775
 6346TIP3   OH219001   0.102   6.088   4.381 -0.5560 -0.1090 -0.1023
 6346TIP3    H119002   0.148   6.027   4.439 -0.9304 -0.9125 -0.6440
 6346TIP3    H219003   0.101   6.045   4.296 -0.6696  0.7366 -0.5387
 6347TIP3   OH219004   3.874   3.755   2.827 -0.6971  0.1631 -0.2546
 6347TIP3    H119005   3.932   3.712   2.890  0.1408  0.5938 -0.7175
 6347TIP3    H219006   3.799   3.783   2.878 -0.4054 -0.2234  0.3944
 6348TIP3   OH219007   6.252   2.960   3.588  0.1132 -0.2318  0.1104
 6348TIP3    H119008   6.268   2.943   3.681 -0.5798  0.1927  0.3217
 6348TIP3    H219009   6.164   2.926   3.572 -0.8350  1.9691  0.2667
 6349TIP3   OH219010   4.023   6.481   0.762 -0.2619 -0.2285  0.7376
 6349TIP3    H119011   4.081   6.421   0.808  1.2260  0.2217 -0.4677
 6349TIP3    H219012   4.017   6.446   0.673 -1.7986 -0.2091  0.8047
 6350TIP3   OH219013   6.443   5.448   4.450 -0.2110 -0.4083 -0.0347
 6350TIP3    H119014   6.392   5.443   4.369 -2.4739  1.0677  1.1854
 6350TIP3    H219015   6.492   5.529   4.443  0.1735 -0.6560 -0.2309
 6351TIP3   OH219016   3.112   6.702   2.398  0.7808  0.0700 -0.7250
 6351TIP3    H119017   3.083   6.791   2.419 -0.8504 -0.4217 -0.7605
 6351TIP3    H219018   3.177   6.682   2.465 -0.4020  0.5091  0.5941
 6352TIP3   OH219019   7.099   0.571   2.950  0.6170 -0.4279  0.0415
 6352TIP3    H119020   7.063   0.502   3.007 -0.9404  1.0282  0.9307
 6352TIP3    H219021   7.033   0.582   2.881  0.7039  0.3193  0.0632
 6353TIP3   OH219022   6.584   1.572   1.390 -0.1529  0.2687 -0.1725
 6353TIP3    H119023   6.513   1.632   1.369 -0.0577  0.4723  0.0865
 6353TIP3    H219024   6.544   1.485   1.386 -0.4161  0.3826 -0.0248
 6354TIP3   OH219025   4.025   1.666   1.655 -0.2057  0.0256  0.0919
 6354TIP3    H119026   4.035   1.623   1.740 -2.7521  0.4294  0.6811
 6354TIP3    H219027   4.077   1.746   1.661  0.6752 -0.5895  0.7706
 6355TIP3   OH219028   6.867   5.471   1.179  0.7364 -0.2627 -0.4118
 6355TIP3    H119029   6.855   5.549   1.125  1.5425  0.2325  0.1037
 6355TIP3    H219030   6.855   5.398   1.119  0.6507  0.2690 -1.0507
 6356TIP3   OH219031   5.824   0.230   0.102  0.0689 -0.4353 -0.3818
 6356TIP3    H119032   5.748   0.185   0.065  0.4157 -0.2401 -1.3756
 6356TIP3    H219033   5.890   0.226   0.033  0.6728  0.1417  0.1445
 6357TIP3   OH219034   4.267   1.284   2.410 -0.7215  0.1654  0.2125
 6357TIP3    H119035   4.205   1.218   2.442 -0.5426 -1.0389 -1.7556
 6357TIP3    H219036   4.227   1.317   2.330  0.8117 -0.1154 -0.7108
 6358TIP3   OH219037   3.052   1.295  -0.035 -0.5565  0.2691  0.2959
 6358TIP3    H119038   3.030   1.378   0.006  1.1333 -0.6501  3.3782
 6358TIP3    H219039   3.031   1.229   0.030  1.0470 -1.4492 -0.8035
 6359TIP3   OH219040   5.684   6.066   0.936 -0.2434  0.7933 -0.3863
 6359TIP3    H119041   5.620   5.996   0.950  1.1795 -0.6315 -0.6267
 6359TIP3    H219042   5.767   6.028   0.965  0.7813  1.9630 -1.6701
 6360TIP3   OH219043   7.167   5.779   1.824  0.0512  0.0752 -0.3212
 6360TIP3    H119044   7.076   5.803   1.835  0.1030 -0.8571  3.6540
 6360TIP3    H219045   7.165   5.686   1.801 -0.0167  0.0026 -0.0242
 6361TIP3   OH219046   5.321   4.903   2.542  0.0630  0.1279  0.3273
 6361TIP3    H119047   5.330   4.867   2.631 -0.4457  1.0205  0.7512
 6361TIP3    H219048   5.394   4.965   2.534  0.9463 -0.9742 -0.4056
 6362TIP3   OH219049   1.725   2.669   3.546 -0.9439  0.0069  0.1756
 6362TIP3    H119050   1.769   2.749   3.516  2.4966 -1.0972  1.7568
 6362TIP3    H219051   1.710   2.618   3.467  0.2087  0.6682 -0.4930
 6363TIP3   OH219052   5.314   3.977   3.222  0.2594 -1.0008  0.3436
 6363TIP3    H119053   5.220   3.995   3.228  0.3471 -0.0894 -0.8675
 6363TIP3    H219054   5.333   3.929   3.303 -0.6902  1.2019  1.9874
 6364TIP3   OH219055   5.645   5.451   5.799 -0.1796 -0.7677  0.0384
 6364TIP3    H119056   5.652   5.511   5.873 -0.2152 -2.0427  1.1177
 6364TIP3    H219057   5.726   5.400   5.801 -0.5531 -1.3912 -0.2657
 6365TIP3   OH219058   0.516   6.023   5.392 -0.2618  0.5610 -0.6315
 6365TIP3    H119059   0.517   6.004   5.486  0.8169  0.2204 -0.6972
 6365TIP3    H219060   0.554   5.945   5.352 -0.0559  0.9905 -1.2881
 6366TIP3   OH219061   1.980   1.862   0.281  0.0701 -0.4550 -0.2653
 6366TIP3    H119062   2.040   1.793   0.311 -0.6098 -0.6573  0.6726
 6366TIP3    H219063   2.027   1.943   0.300 -0.9763 -0.4714  3.0749
 6367TIP3   OH219064   5.915   4.037   0.590 -0.4267 -0.0830  0.1087
 6367TIP3    H119065   5.953   4.099   0.528  0.0866  0.0269  0.5310
 6367TIP3    H219066   5.862   3.979   0.536 -3.3097  2.4363 -0.0124
 6368TIP3   OH219067   2.712   4.365   4.524 -0.0632 -0.3797 -0.0935
 6368TIP3    H119068   2.740   4.331   4.439 -0.9860  0.1658 -0.6405
 6368TIP3    H219069   2.786   4.416   4.556  0.3277 -0.6715 -0.5263
 6369TIP3   OH219070   3.676   5.057   2.964 -0.0956  0.2302  0.1572
 6369TIP3    H119071   3.750   5.083   3.017  0.7151 -0.2473 -0.7147
 6369TIP3    H219072   3.627   5.138   2.949  0.5857  0.6637  0.2300
 6370TIP3   OH219073   1.633   0.433   4.949 -0.1590  0.1993  0.3447
 6370TIP3    H119074   1.700   0.369   4.972 -0.6814  0.0177  1.4117
 6370TIP3    H219075   1.558   0.411   5.005 -1.0120  0.5816 -0.6029
 6371TIP3   OH219076   6.873   6.288   1.690  0.0108 -0.4738 -0.5944
 6371TIP3    H119077   6.827   6.265   1.770  1.5911 -3.0744 -0.2810
 6371TIP3    H219078   6.942   6.348   1.718 -1.0322  0.6873 -0.4802
 6372TIP3   OH219079   2.065   2.006   5.908  0.6192 -0.1999 -0.1077
 6372TIP3    H119080   2.061   1.914   5.934 -1.8127 -0.7761 -2.1617
 6372TIP3    H219081   2.082   2.003   5.813 -0.0702  1.4342 -0.3078
 6373TIP3   OH219082   0.482   6.465   5.478 -0.3916  0.2253 -0.3817
 6373TIP3    H119083   0.458   6.386   5.430 -0.1822  1.8396 -3.3934
 6373TIP3    H219084   0.418   6.530   5.450  0.3487  1.5352  0.8267
 6374TIP3   OH219085   0.634   4.537   1.773 -0.3468 -0.3601  0.1732
 6374TIP3    H119086   0.637   4.613   1.831  1.3301  1.1388 -1.7433
 6374TIP3    H219087   0.704   4.480   1.804 -2.1764 -1.6848  2.1788
 6375TIP3   OH219088   2.336   2.738   0.673  0.5071 -0.8739  0.1844
 6375TIP3    H119089   2.392   2.803   0.715 -0.0055 -1.1661  1.3636
 6375TIP3    H219090   2.288   2.697   0.745  0.2045 -1.9797 -0.6102
 6376TIP3   OH219091   4.138   5.449   1.619 -0.7058 -0.1030  0.1894
 6376TIP3    H119092   4.221   5.461   1.574 -0.3720  1.1292  1.1169
 6376TIP3    H219093   4.107   5.364   1.588  2.1646 -1.9223  1.8503
 6377TIP3   OH219094   3.717   2.345   5.042  0.0320  0.0252  0.2439
 6377TIP3    H119095   3.694   2.388   4.960 -0.5945  1.5505  1.1724
 6377TIP3    H219096   3.656   2.272   5.048 -0.9826  0.8253  0.0697
 6378TIP3   OH219097   2.077   4.755   4.843 -0.1332  0.0267 -0.4491
 6378TIP3    H119098   2.010   4.722   4.902  0.6387  1.8751  1.5522
 6378TIP3    H219099   2.153   4.698   4.859  0.1334  0.6343  0.5227
 6379TIP3   OH219100   0.383   5.311   4.400 -0.5198 -0.1351  0.2503
 6379TIP3    H119101   0.383   5.233   4.456 -0.7418 -1.0719 -0.9970
 6379TIP3    H219102   0.292   5.321   4.372 -0.7797  1.4508  1.5065
 6380TIP3   OH219103   5.340   1.601   4.286 -0.0479  0.2589  0.1687
 6380TIP3    H119104   5.414   1.615   4.227  1.4874  0.5856  2.0582
 6380TIP3    H219105   5.297   1.523   4.252  1.7921 -0.5692 -0.4181
 6381TIP3   OH219106   4.720   3.691   3.526  0.0434 -0.8290 -0.3780
 6381TIP3    H119107   4.796   3.750   3.525  1.4614 -2.5645  0.3423
 6381TIP3    H219108   4.689   3.691   3.436 -0.0084  0.9793 -0.4089
 6382TIP3   OH219109   6.001   5.094   4.085 -0.4899 -0.4667  0.6356
 6382TIP3    H119110   5.936   5.111   4.017  1.2912 -2.0233 -1.6019
 6382TIP3    H219111   5.966   5.137   4.163 -3.0703  0.6446 -1.0095
 6383TIP3   OH219112   1.657   0.999   4.234  0.0740 -0.2179 -0.1270
 6383TIP3    H119113   1.606   0.985   4.314  2.9771  0.0390  1.9263
 6383TIP3    H219114   1.598   1.048   4.177 -2.4426 -1.1814  1.4655
 6384TIP3   OH219115   3.090   0.351   4.489 -0.4315 -0.6791  0.1106
 6384TIP3    H119116   3.155   0.420   4.502 -1.8729  0.5996  0.8265
 6384TIP3    H219117   3.114   0.312   4.405 -0.0047  1.1994 -0.6908
 6385TIP3   OH219118   3.211   2.706   2.433  0.6594 -0.1831  0.0927
 6385TIP3    H119119   3.279   2.663   2.381  0.0879 -0.5093 -0.4095
 6385TIP3    H219120   3.157   2.634   2.466 -0.8204  0.1359 -1.4786
 6386TIP3   OH219121   2.143   1.260   3.784 -0.0323  0.1776  0.3491
 6386TIP3    H119122   2.196   1.186   3.812  0.1438  0.9737  2.2454
 6386TIP3    H219123   2.055   1.241   3.818 -0.2209  0.3794 -0.0142
 6387TIP3   OH219124   3.568   1.046   3.847  0.4935  0.5581 -0.1045
 6387TIP3    H119125   3.474   1.061   3.851  0.4080  0.0465  4.1516
 6387TIP3    H219126   3.579   0.972   3.788 -2.0848 -1.0338  1.2820
 6388TIP3   OH219127   3.491   1.456   1.640 -0.4763 -0.1880 -0.3883
 6388TIP3    H119128   3.406   1.494   1.661 -0.1318  0.4512 -0.1222
 6388TIP3    H219129   3.555   1.515   1.681  0.1497  0.1237 -1.7439
 6389TIP3   OH219130   4.652   1.117   3.883 -0.3253  0.0408  0.4327
 6389TIP3    H119131   4.735   1.099   3.840 -0.8637 -0.8101 -0.2943
 6389TIP3    H219132   4.676   1.153   3.969  0.8079 -1.4162  0.7583
 6390TIP3   OH219133   3.121   6.079   4.247 -0.1545  0.0293  0.1530
 6390TIP3    H119134   3.084   6.086   4.159 -1.1770 -0.1509  0.5597
 6390TIP3    H219135   3.200   6.133   4.243 -0.9018  1.1220 -0.5004
 6391TIP3   OH219136   2.576   2.818   4.144 -0.2817 -0.5965  0.3707
 6391TIP3    H119137   2.522   2.832   4.066 -0.9726  0.1328  0.9567
 6391TIP3    H219138   2.589   2.724   4.147  2.0049 -0.4673 -2.0744
 6392TIP3   OH219139   3.860   2.819   4.155  0.0289  0.5897  0.2542
 6392TIP3    H119140   3.796   2.890   4.156 -1.6638 -0.8623 -0.0316
 6392TIP3    H219141   3.811   2.742   4.125  1.1810 -1.2635  2.7185
 6393TIP3   OH219142   2.446   5.110   2.767 -0.6602  0.1129  0.4368
 6393TIP3    H119143   2.520   5.109   2.828 -0.1274  0.8235 -0.1774
 6393TIP3    H219144   2.373   5.073   2.817  0.2981 -1.3970  0.8003
 6394TIP3   OH219145   0.775   6.733   3.987 -0.2070  0.5468 -0.1691
 6394TIP3    H119146   0.847   6.761   4.045 -1.3524  0.9623  1.1031
 6394TIP3    H219147   0.707   6.798   4.001 -1.8984 -1.3294  0.7780
 6395TIP3   OH219148   5.330   3.442   5.470 -0.0601 -0.3841 -0.0893
 6395TIP3    H119149   5.324   3.394   5.552 -0.1415  2.4548  1.7158
 6395TIP3    H219150   5.313   3.377   5.402 -1.2147 -2.6053  2.1843
 6396TIP3   OH219151   6.394   6.714   4.334  0.7544  0.6642 -0.3149
 6396TIP3    H119152   6.417   6.762   4.414 -1.1634 -2.8725  2.6538
 6396TIP3    H219153   6.471   6.663   4.313  0.5440 -0.1037  0.7174
 6397TIP3   OH219154   2.656   2.963   3.362  0.0013  0.4475  0.6592
 6397TIP3    H119155   2.598   2.890   3.343  0.4803 -0.2068  1.6642
 6397TIP3    H219156   2.600   3.028   3.403 -0.7762  1.3566 -1.6534
 6398TIP3   OH219157   4.896   0.281   4.131  0.1717 -0.3767  0.4236
 6398TIP3    H119158   4.905   0.250   4.041  0.4578  0.2855  0.2201
 6398TIP3    H219159   4.850   0.365   4.123 -0.8221 -0.8564  0.9878
 6399TIP3   OH219160   1.307   0.985   2.090 -0.0898  0.4767 -0.3831
 6399TIP3    H119161   1.229   1.011   2.040 -0.0278  1.4051 -0.0088
 6399TIP3    H219162   1.368   1.057   2.080  2.2020 -1.6307 -3.5570
 6400TIP3   OH219163   1.535   3.434   0.340 -0.3251 -0.1660 -0.3314
 6400TIP3    H119164   1.591   3.359   0.318 -1.9970 -1.2912 -1.0105
 6400TIP3    H219165   1.564   3.503   0.280  0.2632 -0.7616 -0.7587
 6401TIP3   OH219166   3.142   5.465   1.166  0.2956  0.1133 -0.1222
 6401TIP3    H119167   3.072   5.485   1.104  2.0602 -0.5014 -2.4833
 6401TIP3    H219168   3.156   5.547   1.213 -1.6905  0.3573  0.1326
 6402TIP3   OH219169   2.202   3.862   1.170  0.2690 -0.1806  0.3972
 6402TIP3    H119170   2.289   3.893   1.192  1.3455 -0.2474 -3.1422
 6402TIP3    H219171   2.208   3.767   1.171  0.0065 -0.1974  0.8372
 6403TIP3   OH219172   5.211   2.504   5.866 -0.2839 -0.0159  0.5901
 6403TIP3    H119173   5.278   2.444   5.900 -0.4466  0.0099  0.9606
 6403TIP3    H219174   5.206   2.484   5.772 -0.4802 -0.7253  0.7458
 6404TIP3   OH219175   4.271   2.752   3.339 -0.7188  0.3376 -0.2184
 6404TIP3    H119176   4.205   2.690   3.369 -1.3142  0.3721 -1.4172
 6404TIP3    H219177   4.225   2.810   3.279 -0.1152  1.7971  0.6599
 6405TIP3   OH219178   2.994   4.700   4.249 -0.2553  0.0649  0.0377
 6405TIP3    H119179   2.898   4.695   4.253 -0.1643 -1.2118  2.0966
 6405TIP3    H219180   3.012   4.766   4.182 -2.5864  0.9311  0.1745
 6406TIP3   OH219181   6.275   4.867   1.513  0.0074 -0.0573  0.6557
 6406TIP3    H119182   6.323   4.827   1.441 -0.2458  2.3612 -0.9613
 6406TIP3    H219183   6.343   4.894   1.575  0.3206 -1.0620  0.7602
 6407TIP3   OH219184   1.176   2.806   3.134  0.2292  0.0381  0.2148
 6407TIP3    H119185   1.119   2.859   3.078  0.2584  0.6734  0.7697
 6407TIP3    H219186   1.120   2.781   3.208  0.5236  0.2175  0.4991
 6408TIP3   OH219187   6.921   4.557   1.421  0.0585 -0.2651 -0.0890
 6408TIP3    H119188   7.016   4.543   1.429  0.3793  2.0946  1.3446
 6408TIP3    H219189   6.883   4.493   1.481  0.8451 -0.3383  0.3556
 6409TIP3   OH219190   3.168   1.509   0.091 -0.4264 -0.6121  0.3342
 6409TIP3    H119191   3.197   1.534   0.003 -1.1525  0.6085  0.4260
 6409TIP3    H219192   3.250   1.492   0.138 -0.0417 -2.4675 -0.8633
 6410TIP3   OH219193   0.343   2.803   4.071  1.0149 -0.1508 -0.1853
 6410TIP3    H119194   0.382   2.717   4.053 -0.7097 -1.0616  0.2252
 6410TIP3    H219195   0.307   2.831   3.987 -0.4834 -0.9550  0.1520
 6411TIP3   OH219196   4.019   1.785   2.385  0.4138  0.4247  0.1574
 6411TIP3    H119197   4.090   1.835   2.347 -1.1838  2.3463 -0.4825
 6411TIP3    H219198   4.016   1.813   2.477 -0.0714  1.0336 -0.0403
 6412TIP3   OH219199   3.544   5.520   3.340 -0.1338  0.1814 -0.1506
 6412TIP3    H119200   3.618   5.563   3.297 -0.5313  0.1052 -0.9203
 6412TIP3    H219201   3.472   5.582   3.330 -0.1206  0.3589  0.8056
 6413TIP3   OH219202   5.058   5.938   5.296  0.0276 -0.1100  0.2666
 6413TIP3    H119203   4.983   5.920   5.240  0.5237  1.0825 -0.8195
 6413TIP3    H219204   5.117   5.990   5.242  1.8880 -1.4450  0.9209
 6414TIP3   OH219205   6.605   4.915   3.787  0.7108 -0.0567 -0.6819
 6414TIP3    H119206   6.590   4.939   3.696 -3.1264  1.1738  0.0879
 6414TIP3    H219207   6.586   4.821   3.789 -0.1377  0.0888 -1.0515
 6415TIP3   OH219208   2.496   1.512   1.936  0.4094  0.3294  0.1948
 6415TIP3    H119209   2.565   1.448   1.956 -0.4310 -1.7135 -2.7936
 6415TIP3    H219210   2.544   1.592   1.914  1.9221 -0.9279 -1.4528
 6416TIP3   OH219211   1.290   4.287   3.432  0.3400  0.3146  0.0238
 6416TIP3    H119212   1.293   4.362   3.493  1.1949  0.6564 -0.4296
 6416TIP3    H219213   1.199   4.285   3.402 -0.4302 -0.6056  2.2245
 6417TIP3   OH219214   1.440   0.976   5.720 -0.0648  0.5699  0.1667
 6417TIP3    H119215   1.513   1.035   5.737 -1.0558  2.1197 -0.7173
 6417TIP3    H219216   1.467   0.927   5.642 -0.1814  1.5421 -0.4981
 6418TIP3   OH219217   2.369   5.740   2.602  0.4594  0.1381 -0.3949
 6418TIP3    H119218   2.361   5.709   2.692  0.6853 -0.3141 -0.5300
 6418TIP3    H219219   2.285   5.719   2.561 -0.5138  2.3599  0.3115
 6419TIP3   OH219220   6.472   5.757   1.834 -0.7293  0.0925 -0.3811
 6419TIP3    H119221   6.519   5.837   1.855  1.0173 -0.8078 -0.7160
 6419TIP3    H219222   6.423   5.736   1.913  0.9073  0.0627  0.6624
 6420TIP3   OH219223   5.511   2.633  -0.000 -0.0976 -0.1757 -0.1125
 6420TIP3    H119224   5.523   2.640   0.095 -1.0720 -1.5859  0.1327
 6420TIP3    H219225   5.592   2.594  -0.032 -0.1895 -0.6899  0.2787
 6421TIP3   OH219226   1.871   5.490   3.927 -0.5556  0.2471 -0.1713
 6421TIP3    H119227   1.919   5.431   3.985  0.7309  0.6107 -0.8371
 6421TIP3    H219228   1.817   5.543   3.986 -0.3970 -0.3930  0.5647
 6422TIP3   OH219229   4.015   2.396   0.587 -0.3863 -0.1531 -0.6114
 6422TIP3    H119230   3.948   2.461   0.567 -1.6290 -1.1528  0.1323
 6422TIP3    H219231   3.989   2.318   0.538  0.5163 -0.4253 -0.6913
 6423TIP3   OH219232   6.392   5.640   3.121  0.5495  0.3474  0.1881
 6423TIP3    H119233   6.327   5.578   3.088  0.1603 -0.5345  2.4260
 6423TIP3    H219234   6.462   5.585   3.156  1.2889  1.2417  0.1509
 6424TIP3   OH219235   4.488   2.215   5.109  0.1587  0.4705  0.1298
 6424TIP3    H119236   4.449   2.209   5.196  0.0895  1.0476  0.1423
 6424TIP3    H219237   4.576   2.177   5.119 -0.4683 -1.1105  0.0382
 6425TIP3   OH219238   0.914   1.188   0.158  0.1863 -0.0665  0.6899
 6425TIP3    H119239   0.827   1.198   0.118 -0.7685  1.1316  2.8957
 6425TIP3    H219240   0.937   1.097   0.142 -0.6904  0.0087 -1.3881
 6426TIP3   OH219241   5.098   3.503   2.443 -0.7569 -0.0226  0.1819
 6426TIP3    H119242   5.111   3.411   2.468 -0.7329  0.1331  0.7538
 6426TIP3    H219243   5.180   3.546   2.466 -0.3361 -0.0711 -1.1517
 6427TIP3   OH219244   5.061   1.715   0.456 -0.4160 -0.0763 -0.0521
 6427TIP3    H119245   5.092   1.658   0.386 -0.3946 -0.7011  0.4514
 6427TIP3    H219246   5.077   1.664   0.536 -2.4966 -0.3044  0.2580
 6428TIP3   OH219247   5.611   4.176   3.567  0.4574 -0.7211  0.2275
 6428TIP3    H119248   5.622   4.219   3.482 -1.7272 -0.0525  0.2073
 6428TIP3    H219249   5.517   4.158   3.572  0.8634 -2.8158  1.5496
 6429TIP3   OH219250   6.067   4.150   2.263 -0.0407  1.0430 -0.6461
 6429TIP3    H119251   6.052   4.058   2.238  0.0329  1.0459 -0.6999
 6429TIP3    H219252   6.137   4.179   2.206 -0.8439  1.4748 -1.4300
 6430TIP3   OH219253   4.769   1.642   0.426  0.2253 -0.5712 -1.0213
 6430TIP3    H119254   4.813   1.630   0.510 -0.9445  0.0861 -0.2888
 6430TIP3    H219255   4.816   1.713   0.384 -0.6428  0.7403  0.1423
 6431TIP3   OH219256   2.208   6.108   0.846  0.8931 -0.5717 -0.7831
 6431TIP3    H119257   2.299   6.138   0.846  0.5991  0.3479 -0.9780
 6431TIP3    H219258   2.159   6.182   0.810 -0.2903  0.0572  1.9317
 6432TIP3   OH219259   3.960   0.967   1.439 -0.3232  0.0157  0.0530
 6432TIP3    H119260   3.954   0.913   1.360 -0.4438  0.3596 -0.1728
 6432TIP3    H219261   3.902   1.041   1.422 -0.6311 -0.0881  0.6105
 6433TIP3   OH219262   6.998   5.413   0.645 -0.0711  0.1874 -0.6004
 6433TIP3    H119263   7.024   5.350   0.578 -0.6904 -0.1465 -0.5404
 6433TIP3    H219264   7.075   5.424   0.700  0.4442  0.4550 -1.3546
 6434TIP3   OH219265   1.046   3.794   1.235 -0.3867 -0.4390  0.1813
 6434TIP3    H119266   0.956   3.811   1.264 -0.3275  0.2434 -0.0316
 6434TIP3    H219267   1.047   3.700   1.216 -1.1007 -0.4210  0.0174
 6435TIP3   OH219268   2.008   5.358   5.861 -0.3601 -0.1681 -0.2559
 6435TIP3    H119269   2.001   5.444   5.819  1.7023 -0.0752 -0.5512
 6435TIP3    H219270   1.967   5.370   5.946 -1.8221  0.5412 -1.0123
 6436TIP3   OH219271   1.427   2.796   5.716  0.9591 -0.2237  0.5494
 6436TIP3    H119272   1.387   2.826   5.798  1.4159  0.8955  0.3682
 6436TIP3    H219273   1.477   2.718   5.742  0.0118 -0.6911  1.0732
 6437TIP3   OH219274   6.417   5.598   3.791  0.2016  0.7762 -0.0866
 6437TIP3    H119275   6.473   5.674   3.783  1.2567  0.1816  1.2660
 6437TIP3    H219276   6.347   5.625   3.851  0.1344  0.9285 -0.2358
 6438TIP3   OH219277   3.629   2.827   0.637  0.5698 -0.1987  0.4201
 6438TIP3    H119278   3.559   2.835   0.702 -0.4010 -1.4945 -0.4131
 6438TIP3    H219279   3.614   2.898   0.575  1.3488  0.8850  1.4382
 6439TIP3   OH219280   6.988   5.170   5.725 -0.3593  0.1681 -0.2246
 6439TIP3    H119281   6.953   5.216   5.801 -0.1262  0.3965 -0.2521
 6439TIP3    H219282   7.081   5.158   5.745  0.1658  1.9775 -1.2927
 6440TIP3   OH219283   1.369   3.092   5.775  0.4680  0.1045 -0.4094
 6440TIP3    H119284   1.422   3.034   5.722  3.1449  2.3837 -0.4481
 6440TIP3    H219285   1.399   3.078   5.865 -0.7253 -0.3980 -0.0683
 6441TIP3   OH219286   5.094   3.602   5.199 -0.2388  0.2294  0.1346
 6441TIP3    H119287   5.101   3.598   5.104 -0.9745 -0.1302  0.0888
 6441TIP3    H219288   5.181   3.632   5.228 -0.0128  0.3557 -0.6418
 6442TIP3   OH219289   5.858   2.044   1.802 -0.6689 -0.0380  0.0096
 6442TIP3    H119290   5.839   2.065   1.710 -0.1243  0.2303 -0.0408
 6442TIP3    H219291   5.918   2.112   1.831  0.3477 -0.9622  0.1234
 6443TIP3   OH219292   5.974   0.818   2.749 -0.2234 -0.4707  0.4022
 6443TIP3    H119293   6.016   0.902   2.734 -1.3974  0.0965  0.2097
 6443TIP3    H219294   5.999   0.764   2.674  0.1759 -0.1491  0.3054
 6444TIP3   OH219295   2.081   6.125   1.785  1.0015  0.2236  0.4707
 6444TIP3    H119296   2.012   6.101   1.847  1.8228 -1.3891  0.8226
 6444TIP3    H219297   2.065   6.217   1.766 -2.0347 -0.3674 -0.4678
 6445TIP3   OH219298   4.623   5.145   5.051  0.0763 -0.3738 -0.0350
 6445TIP3    H119299   4.531   5.122   5.064 -0.1347  0.3402 -0.1935
 6445TIP3    H219300   4.634   5.227   5.099  0.6783 -0.5451  0.1305
 6446TIP3   OH219301   6.006   2.963   2.754  0.6307 -0.6568  0.2042
 6446TIP3    H119302   6.092   2.922   2.745  0.6170 -0.1473 -3.7893
 6446TIP3    H219303   5.951   2.918   2.690 -1.4157  0.7633  0.8689
 6447TIP3   OH219304   0.174   0.697   3.653 -0.1443 -0.3926 -0.0352
 6447TIP3    H119305   0.112   0.754   3.607  0.2736  0.3906  0.3651
 6447TIP3    H219306   0.187   0.623   3.593  0.0951  0.4164 -1.0161
 6448TIP3   OH219307   5.992   0.675   5.201 -0.3536 -0.1558  1.0742
 6448TIP3    H119308   6.077   0.696   5.162 -0.5519  2.2338  1.7424
 6448TIP3    H219309   6.014   0.624   5.279  0.3641 -0.7375  0.5103
 6449TIP3   OH219310   0.570   4.177   1.745 -0.6496 -0.1609 -0.0885
 6449TIP3    H119311   0.616   4.097   1.768  1.8911  1.1494 -0.2994
 6449TIP3    H219312   0.545   4.216   1.828  0.2358 -0.0025  0.1062
 6450TIP3   OH219313   6.554   2.115   5.229 -0.3980  0.1834  0.3621
 6450TIP3    H119314   6.646   2.142   5.220 -0.2478 -0.1569  0.8044
 6450TIP3    H219315   6.536   2.065   5.149  0.3160 -1.1394  0.9832
 6451TIP3   OH219316   4.204   5.211   2.766  0.1865 -0.2666  0.0571
 6451TIP3    H119317   4.163   5.207   2.680  1.9444 -0.7495 -0.7940
 6451TIP3    H219318   4.206   5.305   2.786 -1.5069 -0.2363  0.2549
 6452TIP3   OH219319   5.636   1.714   0.773  0.3784 -0.2459  0.3640
 6452TIP3    H119320   5.565   1.760   0.818  0.4854  0.2937 -0.0030
 6452TIP3    H219321   5.628   1.742   0.682  1.6583  0.6040  0.4916
 6453TIP3   OH219322   5.219   0.229   0.222 -0.0085 -0.6318 -0.1918
 6453TIP3    H119323   5.168   0.194   0.149  0.8445 -0.7188 -0.7758
 6453TIP3    H219324   5.271   0.155   0.252  0.7955 -0.2239 -0.5355
 6454TIP3   OH219325   3.395   4.589   2.322  0.0355 -0.2987  0.0412
 6454TIP3    H119326   3.438   4.518   2.371 -1.4613  0.5144  2.7203
 6454TIP3    H219327   3.302   4.568   2.326 -0.5612  2.1841  1.7280
 6455TIP3   OH219328   3.185   1.966   2.516  0.0836 -0.6909 -0.5911
 6455TIP3    H119329   3.183   1.876   2.546 -1.2374 -1.1542 -1.9196
 6455TIP3    H219330   3.240   1.964   2.437  1.3266 -0.0110  0.2268
 6456TIP3   OH219331   3.004   5.103   5.429  0.0389 -0.4343 -0.2531
 6456TIP3    H119332   2.920   5.086   5.472  0.6161 -1.0625  0.6509
 6456TIP3    H219333   2.994   5.067   5.341 -1.6391  2.0666 -1.2138
 6457TIP3   OH219334   6.355   6.462   0.581 -0.8380 -0.5706  0.3537
 6457TIP3    H119335   6.327   6.456   0.490 -0.1868 -0.2875  0.1335
 6457TIP3    H219336   6.293   6.522   0.622 -1.2990 -0.9121  0.1717
 6458TIP3   OH219337   3.106   0.409   4.858 -0.3501 -0.5737  0.0377
 6458TIP3    H119338   3.175   0.457   4.812 -0.2099 -2.8413 -2.3939
 6458TIP3    H219339   3.146   0.380   4.939  0.4388  0.9699  0.2258
 6459TIP3   OH219340   0.446   0.107   0.805  0.8061  0.1001 -0.3717
 6459TIP3    H119341   0.399   0.117   0.722  0.6828 -2.3448 -0.6831
 6459TIP3    H219342   0.483   0.193   0.823 -0.9769  1.2427 -1.8381
 6460TIP3   OH219343   5.407   2.225   3.256  0.0081 -0.2145  0.1851
 6460TIP3    H119344   5.427   2.266   3.340  1.4653 -0.9323  0.2184
 6460TIP3    H219345   5.477   2.255   3.198 -1.4587  0.9881 -1.0647
 6461TIP3   OH219346   5.193   2.483   1.203 -0.5400  0.4532 -0.6284
 6461TIP3    H119347   5.237   2.492   1.119 -1.3818 -0.4409 -1.1845
 6461TIP3    H219348   5.218   2.395   1.233 -2.3647 -0.3160 -1.2344
 6462TIP3   OH219349   4.363   3.477   3.181 -0.9544  0.0532  0.4970
 6462TIP3    H119350   4.291   3.539   3.171 -1.4807 -0.6803 -0.3750
 6462TIP3    H219351   4.321   3.395   3.207 -0.5103 -0.5562 -0.6609
 6463TIP3   OH219352   6.265   2.227   4.978  0.2321 -0.0664 -0.1055
 6463TIP3    H119353   6.254   2.266   5.065  1.9325  1.0195 -0.3350
 6463TIP3    H219354   6.355   2.247   4.954 -0.0514 -0.7930 -1.9172
 6464TIP3   OH219355   3.303   2.597   1.942 -0.4559 -0.2771  0.2843
 6464TIP3    H119356   3.349   2.544   1.877 -0.4736 -0.2255  0.2289
 6464TIP3    H219357   3.371   2.652   1.981 -0.5212  0.0290 -0.0251
 6465TIP3   OH219358   2.328   0.407   3.853  0.1654  0.0001  0.3082
 6465TIP3    H119359   2.271   0.484   3.850 -1.9338 -1.4611  0.5517
 6465TIP3    H219360   2.293   0.348   3.786  2.4005 -0.3720 -0.6439
 6466TIP3   OH219361   4.074   1.781   3.631  0.2790 -0.0840 -0.2930
 6466TIP3    H119362   4.047   1.753   3.718  1.1382 -0.6059 -0.1850
 6466TIP3    H219363   4.137   1.852   3.647 -2.0792  2.1992 -0.5620
 6467TIP3   OH219364   3.307   1.872   4.262 -0.4936  0.5326 -0.3992
 6467TIP3    H119365   3.266   1.957   4.277  0.3744  1.3078 -2.1647
 6467TIP3    H219366   3.291   1.853   4.169  2.0153  0.3048 -0.8566
 6468TIP3   OH219367   1.785   5.718   2.873  0.0159 -0.1998 -0.3003
 6468TIP3    H119368   1.816   5.790   2.817  0.2460  0.1134  0.2186
 6468TIP3    H219369   1.848   5.716   2.945 -1.1131  0.4016  0.7371
 6469TIP3   OH219370   5.580   2.532   5.832 -0.2338 -0.1005 -0.3446
 6469TIP3    H119371   5.636   2.503   5.760  0.2475  0.3867 -0.1715
 6469TIP3    H219372   5.533   2.453   5.859  0.0008 -0.4070 -0.8205
 6470TIP3   OH219373   1.551   5.277   4.729 -0.2209 -0.1190  0.0085
 6470TIP3    H119374   1.614   5.279   4.657 -2.2009  2.0156 -1.8223
 6470TIP3    H219375   1.532   5.369   4.747  0.0822 -0.5526  3.2981
 6471TIP3   OH219376   0.141   0.970   3.265  0.0211  0.0802  0.7386
 6471TIP3    H119377   0.077   0.934   3.203  0.0456 -0.5551  1.0727
 6471TIP3    H219378   0.224   0.933   3.237  0.1444  0.3825  0.7040
 6472TIP3   OH219379   5.808   6.284   2.897 -0.3533  0.4276 -0.3775
 6472TIP3    H119380   5.815   6.356   2.835 -2.3306  0.9622 -0.0531
 6472TIP3    H219381   5.780   6.325   2.979  1.0985 -0.4023  0.5816
 6473TIP3   OH219382   5.813   5.690   5.120 -0.0773  0.3908  0.1166
 6473TIP3    H119383   5.772   5.680   5.206 -1.7224  1.0812 -0.5491
 6473TIP3    H219384   5.776   5.772   5.086  0.5263  0.1101 -1.2552
 6474TIP3   OH219385   4.934   6.117   1.061  0.7226  0.2064 -0.0959
 6474TIP3    H119386   4.959   6.079   0.976  1.8385  0.5876  0.0477
 6474TIP3    H219387   4.947   6.046   1.123 -0.2683 -0.1303 -0.2406
 6475TIP3   OH219388   2.430   3.352   3.335 -0.1182 -0.2598 -0.4200
 6475TIP3    H119389   2.500   3.417   3.321 -0.6862  0.6627  0.7525
 6475TIP3    H219390   2.459   3.303   3.412 -0.5498 -0.1493 -0.1827
 6476TIP3   OH219391   2.458   4.753   2.499  0.4526  0.3242 -0.0318
 6476TIP3    H119392   2.411   4.748   2.582 -0.6042  0.3968 -0.6120
 6476TIP3    H219393   2.394   4.727   2.433  1.3686 -0.0487 -0.8003
 6477TIP3   OH219394   1.751   3.482   5.151 -0.1566  0.6252  0.7546
 6477TIP3    H119395   1.772   3.551   5.214  0.7119  0.4011  0.7130
 6477TIP3    H219396   1.835   3.455   5.115 -0.6143  0.6286 -0.3838
 6478TIP3   OH219397   0.881   6.246   5.625  0.1520 -0.4280  0.1247
 6478TIP3    H119398   0.960   6.294   5.603  0.1042  0.1769  1.2073
 6478TIP3    H219399   0.902   6.155   5.605  0.9133 -0.1991 -0.1441
 6479TIP3   OH219400   5.845   1.644   4.554  0.1871 -0.5860 -0.2052
 6479TIP3    H119401   5.909   1.574   4.563  0.8424  0.2134  1.9609
 6479TIP3    H219402   5.873   1.693   4.477  1.6356 -0.7850  0.1828
 6480TIP3   OH219403   1.590   3.037   5.540  0.0102 -0.1707 -0.4019
 6480TIP3    H119404   1.594   2.943   5.525 -0.5168 -0.1891 -0.4463
 6480TIP3    H219405   1.587   3.075   5.452  0.2493 -0.1096 -0.3846
 6481TIP3   OH219406   3.573   2.389   2.416 -0.6492 -0.1678  0.3167
 6481TIP3    H119407   3.580   2.338   2.497 -0.9307  0.7523  0.9422
 6481TIP3    H219408   3.487   2.431   2.422 -0.2854  0.6370 -0.0162
 6482TIP3   OH219409   0.288   0.299   0.187  0.1377 -0.0015  0.9559
 6482TIP3    H119410   0.293   0.318   0.093 -0.1500  0.7903  1.0899
 6482TIP3    H219411   0.221   0.230   0.193 -0.8957  0.9448  0.6954
 6483TIP3   OH219412   6.149   2.357   3.015 -0.1326 -0.0913  0.0842
 6483TIP3    H119413   6.074   2.404   2.980 -0.2144 -0.3824 -0.1351
 6483TIP3    H219414   6.215   2.360   2.945  0.5633  1.2982  0.7522
 6484TIP3   OH219415   2.186   0.950   5.113  0.1864 -0.5351 -0.0547
 6484TIP3    H119416   2.131   0.972   5.038  1.0411  0.7530 -0.3399
 6484TIP3    H219417   2.183   0.854   5.117 -1.8144 -0.5309 -0.2228
 6485TIP3   OH219418   6.604   2.222   3.365  0.1043 -0.2740  0.4132
 6485TIP3    H119419   6.678   2.271   3.399  0.9588 -0.5738 -0.9599
 6485TIP3    H219420   6.546   2.211   3.441  0.7465  1.2307  1.1691
 6486TIP3   OH219421   0.046   4.052   0.417  0.0969 -0.3525 -0.0274
 6486TIP3    H119422   0.082   4.140   0.407 -1.7060  0.4508  0.2393
 6486TIP3    H219423   0.051   4.014   0.330 -0.5621  0.6016 -0.4883
 6487TIP3   OH219424   0.584   6.037   3.163 -0.9655 -0.1917 -0.4559
 6487TIP3    H119425   0.521   5.973   3.196  1.1741 -3.0842 -1.5040
 6487TIP3    H219426   0.659   6.029   3.221 -0.6952  1.5346 -0.5304
 6488TIP3   OH219427   1.026   4.646   3.951 -0.4034  0.2180  0.0071
 6488TIP3    H119428   1.095   4.579   3.948  1.0181  1.6062  0.3883
 6488TIP3    H219429   0.952   4.601   3.992  0.4444 -1.1766  0.0999
 6489TIP3   OH219430   0.787   1.411   4.931  0.7261  0.2655 -0.7873
 6489TIP3    H119431   0.857   1.463   4.972  0.3867  0.6778 -0.7257
 6489TIP3    H219432   0.707   1.456   4.957  0.4376 -0.2194 -0.8454
 6490TIP3   OH219433   0.893   2.015   3.887  0.0461 -0.3333  0.2881
 6490TIP3    H119434   0.943   2.055   3.816 -0.1454  0.0652  0.3702
 6490TIP3    H219435   0.933   2.050   3.967  1.9773 -2.7757  0.5111
 6491TIP3   OH219436   1.463   4.688   1.239 -0.0628 -0.4079 -0.4596
 6491TIP3    H119437   1.456   4.761   1.178  0.1310 -0.1039 -0.1205
 6491TIP3    H219438   1.378   4.644   1.233  0.0749 -0.5805 -1.1937
 6492TIP3   OH219439   4.009   6.646   2.661 -0.1903  0.4577 -0.3620
 6492TIP3    H119440   4.016   6.552   2.677 -1.4638  0.3776 -0.1410
 6492TIP3    H219441   3.983   6.653   2.569 -0.4177  0.5791 -0.2884
 6493TIP3   OH219442   5.382   1.059   5.555  0.5923 -0.4208 -0.3934
 6493TIP3    H119443   5.385   0.968   5.527  0.7877 -0.1128 -1.3962
 6493TIP3    H219444   5.428   1.060   5.639  2.5812 -0.8778 -1.4108
 6494TIP3   OH219445   1.415   0.443   0.617 -0.3787 -0.4096  0.6734
 6494TIP3    H119446   1.446   0.529   0.588 -0.5134  0.0550  1.8580
 6494TIP3    H219447   1.479   0.381   0.581 -0.2680  0.1729 -0.1711
 6495TIP3   OH219448   6.979   0.368   3.087  0.1743  0.1155  0.0547
 6495TIP3    H119449   7.015   0.352   3.174 -0.2161 -0.5035  0.1103
 6495TIP3    H219450   6.885   0.351   3.096  0.1390 -0.0049 -0.5003
 6496TIP3   OH219451   3.166   6.350   1.452 -0.4859  0.1640 -0.5576
 6496TIP3    H119452   3.260   6.339   1.462 -0.7622 -1.1458  1.0876
 6496TIP3    H219453   3.145   6.308   1.368  0.3080  0.0126 -0.6847
 6497TIP3   OH219454   2.261   4.998   2.972 -0.1097  0.9541  0.7237
 6497TIP3    H119455   2.174   4.962   2.956  0.0218  1.2644 -0.7978
 6497TIP3    H219456   2.293   4.949   3.048 -0.5319 -1.0977 -0.3376
 6498TIP3   OH219457   1.557   4.303   4.914 -0.2893  0.3547 -0.5407
 6498TIP3    H119458   1.473   4.321   4.956 -1.4190 -0.7577 -2.2259
 6498TIP3    H219459   1.602   4.244   4.975 -0.3153  1.6530  0.7869
 6499TIP3   OH219460   2.195   6.743   4.381  0.6000 -0.0416 -0.2385
 6499TIP3    H119461   2.144   6.823   4.389 -0.7641 -0.5538 -2.8425
 6499TIP3    H219462   2.262   6.763   4.316  1.3916 -0.5288  0.3977
 6500TIP3   OH219463   1.645   2.015   0.090 -0.1310  0.2738  0.2827
 6500TIP3    H119464   1.657   1.946   0.156  1.2596  0.1434 -0.0865
 6500TIP3    H219465   1.679   1.976   0.009  1.7199  1.7422  0.2889
 6501TIP3   OH219466   2.423   5.251   2.310  0.7292 -0.3324  0.1823
 6501TIP3    H119467   2.352   5.310   2.283  0.0624 -1.0987  0.2194
 6501TIP3    H219468   2.408   5.237   2.403  2.3781  1.4232  0.7747
 6502TIP3   OH219469   1.549   4.288   3.364 -0.2045  0.3924  0.2731
 6502TIP3    H119470   1.463   4.255   3.390 -0.6920  1.9357  0.6977
 6502TIP3    H219471   1.536   4.324   3.276  0.2996 -0.4064 -0.1447
 6503TIP3   OH219472   0.595   6.257   5.611 -0.2593  0.0925 -0.4989
 6503TIP3    H119473   0.689   6.261   5.630 -0.2758 -1.5840  0.0995
 6503TIP3    H219474   0.572   6.346   5.586  0.5620  1.6800  3.6393
 6504TIP3   OH219475   5.636   4.713   1.316 -0.3434  0.0965 -0.9951
 6504TIP3    H119476   5.665   4.798   1.284 -1.5659  0.4939 -1.1155
 6504TIP3    H219477   5.667   4.650   1.251  0.1109  0.5027 -1.1782
 6505TIP3   OH219478   2.114   2.105   3.360 -0.2652 -0.1384 -0.4421
 6505TIP3    H119479   2.110   2.016   3.324 -1.3745  0.2140 -1.2661
 6505TIP3    H219480   2.031   2.115   3.407  0.3859  0.0490  0.6738
 6506TIP3   OH219481   5.877   3.588   4.550 -0.4714  0.1148  0.0243
 6506TIP3    H119482   5.945   3.579   4.616 -0.8276  1.6847  0.6393
 6506TIP3    H219483   5.915   3.550   4.471  1.1549  1.0642  0.3249
 6507TIP3   OH219484   2.595   5.079   4.870 -0.1569  0.6772  0.5057
 6507TIP3    H119485   2.670   5.137   4.869 -0.4537  1.1307 -1.8765
 6507TIP3    H219486   2.629   4.995   4.902  0.6598  1.6191  2.2415
 6508TIP3   OH219487   5.354   2.727   4.061 -0.3621 -0.0080 -0.7285
 6508TIP3    H119488   5.433   2.772   4.092  0.6057 -1.3534 -1.1798
 6508TIP3    H219489   5.361   2.729   3.966 -0.4935 -0.7692 -0.7614
 6509TIP3   OH219490   6.177   3.143   4.000  0.4669 -0.0955  0.3047
 6509TIP3    H119491   6.230   3.069   3.969  0.5063  0.4393 -0.9745
 6509TIP3    H219492   6.147   3.186   3.920  1.1801  1.8035  0.9892
 6510TIP3   OH219493   6.924   5.913   1.828  0.2168  0.2556 -0.2273
 6510TIP3    H119494   6.852   5.849   1.827 -0.6134  1.0092  2.6009
 6510TIP3    H219495   6.918   5.957   1.743 -2.1395 -0.3130 -0.4213
 6511TIP3   OH219496   6.042   3.099   1.169 -0.0778 -0.1594  0.1209
 6511TIP3    H119497   5.959   3.054   1.159 -0.8088  1.2145 -0.2197
 6511TIP3    H219498   6.020   3.182   1.211  1.3226 -0.4018  1.4250
 6512TIP3   OH219499   0.536   0.830   5.275 -0.2675 -0.2543  0.0243
 6512TIP3    H119500   0.444   0.808   5.260 -0.8165  1.0818  1.2557
 6512TIP3    H219501   0.541   0.851   5.368  1.3858 -0.7244  0.0700
 6513TIP3   OH219502   6.492   2.898   2.262  0.6772  0.0354  0.1053
 6513TIP3    H119503   6.425   2.832   2.246  0.3549  1.1050 -4.0701
 6513TIP3    H219504   6.575   2.850   2.260  0.3683 -0.5108 -1.7748
 6514TIP3   OH219505   2.457   4.338   1.993 -0.1644 -0.2726 -0.3985
 6514TIP3    H119506   2.459   4.408   2.057 -0.0741 -0.3533 -0.3136
 6514TIP3    H219507   2.517   4.272   2.027 -0.6448 -0.6205 -0.2142
 6515TIP3   OH219508   4.244   5.788   4.711  0.4074 -0.2029 -0.1740
 6515TIP3    H119509   4.198   5.713   4.671  1.6885 -1.2626  0.2517
 6515TIP3    H219510   4.280   5.753   4.792 -1.2186  1.6282  1.4244
 6516TIP3   OH219511   6.973   4.130   0.336  0.0829  0.4999  0.0307
 6516TIP3    H119512   6.998   4.218   0.364 -0.6018 -0.0724  2.7506
 6516TIP3    H219513   7.044   4.074   0.368  0.6189  0.0298 -1.8625
 6517TIP3   OH219514   6.273   3.789   0.103 -0.2218  0.0038 -0.4034
 6517TIP3    H119515   6.229   3.826   0.027  0.3174  1.1905 -0.1568
 6517TIP3    H219516   6.341   3.852   0.125  2.0009 -1.9752 -1.1084
 6518TIP3   OH219517   4.169   3.858   5.646 -0.0374 -0.4799  0.3042
 6518TIP3    H119518   4.149   3.790   5.709 -1.0280 -0.2031  0.3046
 6518TIP3    H219519   4.085   3.878   5.604  0.4285 -0.0012 -0.4316
 6519TIP3   OH219520   6.660   6.140   0.274 -0.1388  0.2699  0.1753
 6519TIP3    H119521   6.589   6.172   0.218 -1.0358  0.3651  1.3418
 6519TIP3    H219522   6.627   6.147   0.363  1.0706 -0.3663  0.7119
 6520TIP3   OH219523   5.420   1.445   1.157  0.6765 -0.2664 -0.5619
 6520TIP3    H119524   5.379   1.526   1.128  0.2169 -0.0448  0.6401
 6520TIP3    H219525   5.508   1.471   1.185  0.4243 -0.1079  0.1127
 6521TIP3   OH219526   1.664   1.089   2.208 -0.2809 -0.0298  0.0832
 6521TIP3    H119527   1.636   1.164   2.156 -0.2849  0.2051  0.4221
 6521TIP3    H219528   1.738   1.052   2.160 -1.0659 -0.5611 -0.7388
 6522TIP3   OH219529   7.031   4.815   5.264  0.4176  0.0109 -0.6420
 6522TIP3    H119530   6.953   4.775   5.226  0.4239  0.1305 -0.7831
 6522TIP3    H219531   7.002   4.852   5.347  0.2576  0.3148 -0.8322
 6523TIP3   OH219532   2.715   1.269   5.406  0.3470 -0.0529 -0.2770
 6523TIP3    H119533   2.679   1.206   5.469  0.3659  0.5636  0.3608
 6523TIP3    H219534   2.686   1.354   5.438  1.5149  0.3747 -0.3180
 6524TIP3   OH219535   4.511   2.767   1.739 -0.4381  0.2982  0.3128
 6524TIP3    H119536   4.481   2.788   1.828  0.9573 -0.1416  0.9240
 6524TIP3    H219537   4.546   2.678   1.747 -2.1953 -0.5940 -1.1913
 6525TIP3   OH219538   2.782   6.514   3.870  0.6137 -0.0417  0.4101
 6525TIP3    H119539   2.696   6.546   3.841  0.6364 -0.7862 -0.5462
 6525TIP3    H219540   2.788   6.425   3.834  2.6297  0.7162 -1.3734
 6526TIP3   OH219541   2.339   4.848   5.215 -0.1958  0.3929 -0.4770
 6526TIP3    H119542   2.285   4.838   5.137 -0.1588 -0.3054 -0.4193
 6526TIP3    H219543   2.354   4.942   5.222 -0.3774  0.4800 -1.1888
 6527TIP3   OH219544   7.033   1.850   4.833 -0.0092 -0.3381  0.5853
 6527TIP3    H119545   7.067   1.913   4.896  0.1689  0.7682 -0.5837
 6527TIP3    H219546   6.950   1.820   4.871  1.2649 -1.6315  2.5514
 6528TIP3   OH219547   4.345   0.645   5.715 -0.6994  0.0814  0.0466
 6528TIP3    H119548   4.341   0.550   5.709 -2.6264  0.1047  0.2377
 6528TIP3    H219549   4.425   0.663   5.765 -0.3335 -1.4254  0.0434
 6529TIP3   OH219550   1.118   5.889   0.649 -0.1931 -0.5636 -0.2346
 6529TIP3    H119551   1.048   5.841   0.695  0.5913 -1.4920  0.0320
 6529TIP3    H219552   1.194   5.830   0.654  0.1109 -0.3765 -2.1011
 6530TIP3   OH219553   1.139   1.085   4.839 -0.2893 -0.3182 -0.0460
 6530TIP3    H119554   1.047   1.110   4.854 -0.0662  0.9499 -0.7181
 6530TIP3    H219555   1.150   1.006   4.892 -2.1370 -1.2798 -0.9650
 6531TIP3   OH219556   2.124   2.705   4.428 -0.4574  0.2894 -0.0863
 6531TIP3    H119557   2.139   2.674   4.517 -0.1799  1.3686  0.2632
 6531TIP3    H219558   2.193   2.663   4.376 -1.1311 -1.0143  0.0208
 6532TIP3   OH219559   0.104   0.630   3.909  0.0240 -0.0782 -0.0918
 6532TIP3    H119560   0.142   0.664   3.828 -0.5060 -0.5413 -0.5379
 6532TIP3    H219561   0.179   0.619   3.967  0.6585 -1.4367 -1.1209
 6533TIP3   OH219562   4.052   5.029   2.890 -0.1037 -0.4704 -0.1443
 6533TIP3    H119563   4.129   5.084   2.871 -0.3728 -0.4113 -1.1320
 6533TIP3    H219564   4.046   5.029   2.986  0.7727  0.0153 -0.0733
 6534TIP3   OH219565   2.012   3.225   3.392  0.4780  0.1279 -0.3611
 6534TIP3    H119566   1.947   3.264   3.334  0.5942  0.8915  0.0143
 6534TIP3    H219567   2.028   3.138   3.355 -1.2513 -0.3571 -0.0857
 6535TIP3   OH219568   1.330   3.206   1.614 -0.9744  0.5148 -0.5162
 6535TIP3    H119569   1.377   3.284   1.586  0.9810 -0.1855  0.6402
 6535TIP3    H219570   1.391   3.160   1.671 -2.3465 -1.4925 -0.5567
 6536TIP3   OH219571   6.007   3.637   1.137 -0.4416  0.1374  0.2379
 6536TIP3    H119572   6.015   3.705   1.204 -1.0585  2.1704 -1.6361
 6536TIP3    H219573   5.972   3.683   1.061  0.5969 -1.9866 -1.6192
 6537TIP3   OH219574   6.961   4.797   2.041 -0.2570  0.6029 -0.3324
 6537TIP3    H119575   6.957   4.790   2.136 -1.0636 -1.1808 -0.4474
 6537TIP3    H219576   7.045   4.757   2.017  1.3587  3.6815 -0.2553
 6538TIP3   OH219577   4.898   5.227   0.314 -0.6749 -0.4813  0.0227
 6538TIP3    H119578   4.914   5.157   0.250  0.5259  1.2714 -1.7339
 6538TIP3    H219579   4.835   5.285   0.270 -0.9853  0.0111  1.0850
 6539TIP3   OH219580   6.507   2.361   4.989 -0.0267 -0.3618  0.1944
 6539TIP3    H119581   6.445   2.433   4.975  1.0435  0.6678  0.6632
 6539TIP3    H219582   6.538   2.372   5.078  0.4349 -1.2009  0.1501
 6540TIP3   OH219583   3.913   4.854   5.308 -0.3310 -1.1534  0.4614
 6540TIP3    H119584   3.976   4.820   5.372  0.6216 -1.4953 -0.6356
 6540TIP3    H219585   3.898   4.944   5.336  0.3711 -1.1774  0.9481
 6541TIP3   OH219586   5.102   6.351   2.867  0.2260  0.2307 -0.2030
 6541TIP3    H119587   5.104   6.446   2.883 -0.5618 -0.0111  1.5359
 6541TIP3    H219588   5.014   6.325   2.893  0.9587 -1.2357  0.8688
 6542TIP3   OH219589   3.447   2.591   5.324  0.4502  0.2258  0.3083
 6542TIP3    H119590   3.467   2.498   5.335  2.1626  0.4105 -0.9102
 6542TIP3    H219591   3.392   2.612   5.399  0.7805 -1.5467  1.1075
 6543TIP3   OH219592   0.083   3.414   3.549 -0.2301 -0.6303  0.0432
 6543TIP3    H119593  -0.005   3.396   3.583 -0.7002 -0.0575 -0.8325
 6543TIP3    H219594   0.081   3.507   3.525  0.2498 -0.8839 -1.0365
 6544TIP3   OH219595   4.238   2.971   2.028  0.1709  0.0834 -0.0068
 6544TIP3    H119596   4.254   3.039   2.093 -0.1434 -0.8480  1.0761
 6544TIP3    H219597   4.193   3.016   1.956 -1.2422  0.7678  1.2560
 6545TIP3   OH219598   0.306   4.155   1.653  0.0497 -0.1894 -0.0508
 6545TIP3    H119599   0.399   4.154   1.675  0.6922 -0.6055 -2.5337
 6545TIP3    H219600   0.302   4.195   1.566 -2.1448  0.0610  0.1010
 6546TIP3   OH219601   5.822   5.649   0.370  0.3888 -0.2603 -0.0443
 6546TIP3    H119602   5.731   5.641   0.397  0.5545  0.3794  0.7522
 6546TIP3    H219603   5.857   5.560   0.376 -0.3007 -0.6015 -0.8533
 6547TIP3   OH219604   6.251   4.085   4.764 -1.0919  0.5307 -0.4712
 6547TIP3    H119605   6.342   4.064   4.742 -1.0496 -0.0006  0.1886
 6547TIP3    H219606   6.219   4.136   4.689  0.3589  2.4978  0.1830
 6548TIP3   OH219607   1.027   1.688   2.364 -0.6865  0.5827 -0.0331
 6548TIP3    H119608   0.939   1.715   2.339 -0.4623 -0.1084 -1.6961
 6548TIP3    H219609   1.014   1.619   2.429 -1.3250  1.3481  0.6761
 6549TIP3   OH219610  -0.026   6.372   3.334  0.1993 -0.2469 -0.4378
 6549TIP3    H119611   0.046   6.329   3.289 -0.1556  0.0808 -1.3313
 6549TIP3    H219612  -0.009   6.466   3.324 -0.7969 -0.1520 -1.4235
 6550TIP3   OH219613   6.570   6.674   3.509 -0.0428  0.0882 -0.2603
 6550TIP3    H119614   6.610   6.704   3.428  1.0329  0.3675  0.3487
 6550TIP3    H219615   6.641   6.628   3.555 -0.5851  0.0755  0.5829
 6551TIP3   OH219616   4.943   4.102   0.199 -0.2571 -0.2090  0.2180
 6551TIP3    H119617   4.983   4.130   0.117 -0.2607 -2.3468 -0.5592
 6551TIP3    H219618   5.005   4.130   0.267  0.5201  0.1784 -0.6327
 6552TIP3   OH219619   6.463   4.199   2.556  0.0506 -0.0769 -0.3061
 6552TIP3    H119620   6.395   4.260   2.527  1.8504  1.7177 -1.0732
 6552TIP3    H219621   6.459   4.201   2.651 -0.8117  0.1570 -0.3385
 6553TIP3   OH219622   3.539   1.275   3.363  0.7349 -0.3329  0.3862
 6553TIP3    H119623   3.445   1.291   3.369  0.5232 -1.3617  0.0158
 6553TIP3    H219624   3.580   1.358   3.389 -0.2591 -0.1387  1.3616
 6554TIP3   OH219625   0.997   2.192   5.458  0.2805 -0.2930 -0.0319
 6554TIP3    H119626   0.926   2.243   5.420  0.3779 -0.2953 -0.2166
 6554TIP3    H219627   0.957   2.106   5.477 -0.2158  0.2259  1.4157
 6555TIP3   OH219628   3.296   3.793   0.529 -0.4988 -0.1375  0.2663
 6555TIP3    H119629   3.372   3.848   0.551  0.4550 -0.7342 -1.3420
 6555TIP3    H219630   3.259   3.768   0.614  1.6404 -0.5337  1.1603
 6556TIP3   OH219631   4.803   3.525   4.480  0.4634 -0.7696  0.3662
 6556TIP3    H119632   4.876   3.584   4.462 -0.3422  0.1686  0.1019
 6556TIP3    H219633   4.768   3.555   4.564 -0.6530 -0.1151 -0.3043
 6557TIP3   OH219634   0.034   5.542   3.595 -0.5283  0.4603  0.4348
 6557TIP3    H119635   0.060   5.580   3.511 -0.8428 -1.0602 -0.3861
 6557TIP3    H219636  -0.050   5.582   3.615 -1.0406 -0.0423 -0.6105
 6558TIP3   OH219637   1.038   1.631   1.089  0.0953 -0.1305 -0.7214
 6558TIP3    H119638   0.960   1.685   1.086 -0.5771 -0.9622  0.4636
 6558TIP3    H219639   1.089   1.657   1.013 -0.2092  2.1122 -0.2267
 6559TIP3   OH219640   2.368   0.351   1.929 -0.3265 -0.4299 -0.1821
 6559TIP3    H119641   2.297   0.379   1.871  0.8592  1.0928 -0.9949
 6559TIP3    H219642   2.418   0.288   1.877 -0.1664 -0.2644 -0.2310
 6560TIP3   OH219643   2.674   2.495   1.042  0.6513 -0.0523  0.4664
 6560TIP3    H119644   2.592   2.531   1.075  0.2286 -1.0425  0.5528
 6560TIP3    H219645   2.649   2.449   0.962  1.7743  2.9985 -1.8440
 6561TIP3   OH219646   6.805   0.807   2.208  0.3003  0.9446 -0.2722
 6561TIP3    H119647   6.727   0.852   2.238 -1.3083 -1.2057 -0.9879
 6561TIP3    H219648   6.869   0.822   2.278 -1.5093  0.7693  1.5221
 6562TIP3   OH219649   1.959   5.596   5.712  0.2570 -0.5064 -0.0218
 6562TIP3    H119650   2.009   5.581   5.632 -0.6528 -2.1463 -0.3185
 6562TIP3    H219651   2.012   5.658   5.762  0.8406  0.5920 -1.8900
 6563TIP3   OH219652   7.222   4.176   0.730 -0.0722  0.0481 -0.4724
 6563TIP3    H119653   7.155   4.138   0.787 -0.1379  0.2595 -0.4107
 6563TIP3    H219654   7.225   4.116   0.655  1.2525 -1.2284  0.5286
 6564TIP3   OH219655   6.999   5.355   1.716  0.3937  0.3284 -0.1095
 6564TIP3    H119656   7.029   5.304   1.640 -1.2687  2.0646 -2.0468
 6564TIP3    H219657   6.911   5.321   1.734  1.1355 -0.7448  1.7605
 6565TIP3   OH219658   6.994   2.846   1.601 -0.3918 -0.3796  0.3393
 6565TIP3    H119659   6.938   2.919   1.575  0.0811 -1.1594 -3.3732
 6565TIP3    H219660   7.081   2.885   1.611 -0.6444 -0.0106  1.1973
 6566TIP3   OH219661   3.479   1.941   5.748  0.0180  0.3553 -0.4943
 6566TIP3    H119662   3.525   1.872   5.699  2.4870  1.3422  0.3021
 6566TIP3    H219663   3.448   1.897   5.828  1.5010  0.1237 -0.0284
 6567TIP3   OH219664   0.497   3.663   3.436  0.7361 -0.5962  0.7112
 6567TIP3    H119665   0.430   3.614   3.484 -1.3388  0.0449 -1.3655
 6567TIP3    H219666   0.493   3.630   3.347  0.8500  1.6989 -0.2305
 6568TIP3   OH219667   6.341   1.550   2.313  0.3173 -0.1305  0.2750
 6568TIP3    H119668   6.283   1.621   2.343 -0.3000  0.0649 -1.2858
 6568TIP3    H219669   6.339   1.557   2.217  2.7459 -0.2812  0.1599
 6569TIP3   OH219670   1.466   2.193   0.445  0.4665 -0.0511 -0.2739
 6569TIP3    H119671   1.415   2.240   0.511 -1.2420 -1.4756 -0.5010
 6569TIP3    H219672   1.512   2.125   0.494  0.4503 -0.1070 -0.3356
 6570TIP3   OH219673   5.376   1.006   4.545 -0.0543 -1.0475  0.0057
 6570TIP3    H119674   5.310   1.028   4.480  0.2370 -1.9265 -0.6102
 6570TIP3    H219675   5.328   0.958   4.613 -0.6787  1.3180  1.3295
 6571TIP3   OH219676   2.111   3.964   3.333  0.6009 -0.0227  0.0514
 6571TIP3    H119677   2.092   3.876   3.364 -0.7644 -0.9416 -2.9844
 6571TIP3    H219678   2.183   3.953   3.271  0.0851  0.8881 -0.7518
 6572TIP3   OH219679   0.802   0.392   0.306  0.0683  0.4055 -0.0459
 6572TIP3    H119680   0.756   0.339   0.241  0.3242 -0.2343  0.2856
 6572TIP3    H219681   0.840   0.464   0.255 -0.4634  0.3985 -0.4673
 6573TIP3   OH219682   3.097   0.514   2.344  0.2057  0.4886  0.0778
 6573TIP3    H119683   3.079   0.462   2.266 -1.0305  0.6773  0.2115
 6573TIP3    H219684   3.162   0.464   2.393 -0.9754 -0.9589  0.2290
 6574TIP3   OH219685   2.510   0.628   2.964  0.6121 -0.5467  0.3286
 6574TIP3    H119686   2.522   0.579   3.046  0.5101 -0.2036  0.5490
 6574TIP3    H219687   2.582   0.599   2.908  2.6587  1.6081  1.6770
 6575TIP3   OH219688   1.338   6.570   1.603  0.4638 -0.2934 -0.1945
 6575TIP3    H119689   1.417   6.623   1.613  1.0608 -1.3789  1.1352
 6575TIP3    H219690   1.269   6.633   1.585  1.2518  0.8985  0.8036
 6576TIP3   OH219691   5.166   2.386   5.612  0.0414 -0.1610  0.4817
 6576TIP3    H119692   5.109   2.346   5.546 -1.4720  1.9017  0.4372
 6576TIP3    H219693   5.237   2.323   5.623 -0.4797 -1.3219 -1.9411
 6577TIP3   OH219694   1.014   1.087   1.326 -0.4542  0.8464 -0.0811
 6577TIP3    H119695   0.942   1.034   1.359 -0.7365  2.2138  1.6389
 6577TIP3    H219696   1.013   1.166   1.381  3.1161  0.4008  0.8261
 6578TIP3   OH219697   1.257   0.298   3.876 -0.1531  0.0601  0.3912
 6578TIP3    H119698   1.225   0.385   3.897  0.8215  0.4629  0.2192
 6578TIP3    H219699   1.233   0.245   3.952  0.0693  0.6844  0.9014
 6579TIP3   OH219700   5.330   0.498   5.377  0.6445 -0.0008 -0.0228
 6579TIP3    H119701   5.361   0.420   5.332  1.2311 -0.2888  0.8574
 6579TIP3    H219702   5.349   0.482   5.470 -1.1726  0.2575  0.4420
 6580TIP3   OH219703   5.668   6.676   3.193 -0.4345  0.2296  0.4168
 6580TIP3    H119704   5.627   6.742   3.249  0.1881  2.9049 -1.9930
 6580TIP3    H219705   5.595   6.639   3.142 -0.4187  2.6024 -1.5315
 6581TIP3   OH219706   3.922   0.090   0.138 -0.3475 -0.3337  0.2954
 6581TIP3    H119707   3.901   0.003   0.171  1.4373 -1.5576 -1.5383
 6581TIP3    H219708   3.879   0.094   0.052  1.2983 -0.2786 -0.5626
 6582TIP3   OH219709   3.477   4.331   4.953 -0.4495 -0.0099 -0.1232
 6582TIP3    H119710   3.516   4.244   4.944  0.9357  0.6855 -1.2936
 6582TIP3    H219711   3.532   4.376   5.017 -1.4279 -0.1213  0.8144
 6583TIP3   OH219712   0.174   5.414   3.791 -0.0696 -0.3252  0.0321
 6583TIP3    H119713   0.114   5.415   3.866 -0.3315 -0.7645 -0.1713
 6583TIP3    H219714   0.121   5.443   3.717  0.1141 -0.1850 -0.0484
 6584TIP3   OH219715   1.516   3.410   1.545 -0.3313 -0.0560  0.8184
 6584TIP3    H119716   1.535   3.501   1.567 -0.1222  0.4089 -1.1097
 6584TIP3    H219717   1.603   3.370   1.534 -0.4061 -0.6935  2.2694
 6585TIP3   OH219718   4.457   0.168   0.489  0.2089  0.8090  0.4124
 6585TIP3    H119719   4.426   0.258   0.504  1.6034  1.2712  0.6614
 6585TIP3    H219720   4.404   0.115   0.548 -0.0605  1.5806  0.8862
 6586TIP3   OH219721   6.250   1.289   5.626 -0.1361  0.0668 -0.4131
 6586TIP3    H119722   6.316   1.344   5.666  0.0657 -0.5940  0.1870
 6586TIP3    H219723   6.275   1.286   5.533 -0.3601  1.2531 -0.5238
 6587TIP3   OH219724   4.868   3.976   4.519 -0.2855 -0.8525  0.3653
 6587TIP3    H119725   4.865   4.061   4.477 -1.8382 -0.0057  2.0560
 6587TIP3    H219726   4.797   3.926   4.478 -0.5416 -0.6955  0.6116
 6588TIP3   OH219727   2.777   2.757   3.752  0.1912  0.0598 -0.9610
 6588TIP3    H119728   2.806   2.728   3.838 -0.9028  0.1332 -0.5612
 6588TIP3    H219729   2.858   2.781   3.706  0.9413 -1.4911 -0.5244
 6589TIP3   OH219730   6.206   4.763   0.396  0.0315 -0.3239 -0.2276
 6589TIP3    H119731   6.198   4.831   0.329  1.0039  0.3406  0.2944
 6589TIP3    H219732   6.300   4.744   0.400 -0.1580 -1.2487  0.0821
 6590TIP3   OH219733   6.762   0.404   3.302  0.1114  0.0874 -0.6455
 6590TIP3    H119734   6.729   0.455   3.376 -1.0298  0.3117 -1.2847
 6590TIP3    H219735   6.738   0.456   3.225  0.0577 -0.7980 -1.2348
 6591TIP3   OH219736   5.777   1.052   0.175 -0.7088 -0.1171  0.0111
 6591TIP3    H119737   5.692   1.071   0.137 -1.7887 -0.5870  2.0767
 6591TIP3    H219738   5.764   0.973   0.227  0.9993 -0.1948  0.4019
 6592TIP3   OH219739   6.789   3.807   2.225 -0.0079  0.1140 -0.8340
 6592TIP3    H119740   6.863   3.766   2.271 -0.3308  0.4439  0.0027
 6592TIP3    H219741   6.715   3.750   2.244 -0.2712  0.5844 -0.4208
 6593TIP3   OH219742   4.692   0.416   5.333  0.0050 -0.0475 -0.4182
 6593TIP3    H119743   4.706   0.327   5.366  0.7790  0.1254 -0.2541
 6593TIP3    H219744   4.748   0.471   5.388 -2.1434  0.8785  0.9948
 6594TIP3   OH219745   1.539   3.158   2.910  0.4851  0.4590  0.2233
 6594TIP3    H119746   1.552   3.133   2.818  0.7154 -1.3371  0.6995
 6594TIP3    H219747   1.603   3.228   2.925  2.2211 -0.9120 -0.3609
 6595TIP3   OH219748   1.711   4.109   5.016 -1.0795 -0.2801 -0.6067
 6595TIP3    H119749   1.675   4.062   5.091  0.2254 -0.9555 -0.3872
 6595TIP3    H219750   1.786   4.057   4.988 -0.8008  0.6209 -1.6104
 6596TIP3   OH219751   3.811   1.039   3.141 -0.5946 -0.6593  0.3947
 6596TIP3    H119752   3.873   0.994   3.199 -0.4181 -0.5745  0.2716
 6596TIP3    H219753   3.741   1.070   3.200 -0.3596 -0.4757  0.5793
 6597TIP3   OH219754   0.921   2.632   4.876  0.0127  0.2382  0.1120
 6597TIP3    H119755   1.010   2.665   4.865  0.3838 -0.4897  0.7972
 6597TIP3    H219756   0.917   2.604   4.968 -1.0024  0.4978  0.1595
 6598TIP3   OH219757   4.381   6.533   0.415  0.0034  0.3841  0.0765
 6598TIP3    H119758   4.458   6.537   0.359 -0.2212  0.5039 -0.2282
 6598TIP3    H219759   4.363   6.440   0.426 -0.3485  0.3682 -0.6030
 6599TIP3   OH219760   6.640   1.766   3.276 -0.9397 -0.1195  0.1213
 6599TIP3    H119761   6.675   1.677   3.270  0.7231  0.5683 -1.0965
 6599TIP3    H219762   6.606   1.773   3.365  0.9657 -1.2530  0.9875
 6600TIP3   OH219763   0.925   0.398   2.104 -0.2846  0.3603 -0.3110
 6600TIP3    H119764   0.900   0.441   2.022 -2.1538  0.0882  0.0742
 6600TIP3    H219765   0.843   0.389   2.152  0.9100  1.5594  2.1160
 6601TIP3   OH219766   5.407   4.067   3.685 -0.5332 -0.3532  0.0656
 6601TIP3    H119767   5.398   3.973   3.669 -0.9206 -0.3282  0.1203
 6601TIP3    H219768   5.339   4.107   3.630 -1.7838 -0.2482  1.6136
 6602TIP3   OH219769   3.071   3.001   4.242  0.6391  0.6286  0.0511
 6602TIP3    H119770   3.061   3.006   4.338 -1.3268  0.3286 -0.0959
 6602TIP3    H219771   2.986   2.971   4.211  1.0637  1.2880 -1.8661
 6603TIP3   OH219772   2.134   2.892   0.142  0.1073 -0.8030 -1.1903
 6603TIP3    H119773   2.048   2.865   0.110  0.0379 -2.8017  0.4434
 6603TIP3    H219774   2.181   2.809   0.156  1.0515  0.0551  1.1941
 6604TIP3   OH219775   5.630   3.826   3.836 -0.2737 -0.1597 -0.1947
 6604TIP3    H119776   5.675   3.846   3.754  0.7561  0.4524  0.5056
 6604TIP3    H219777   5.648   3.901   3.892  0.5302 -1.3472  1.2080
 6605TIP3   OH219778   4.235  -0.008   4.570  0.2679  0.2549 -0.0280
 6605TIP3    H119779   4.248   0.071   4.517 -0.4093  1.4821  1.5644
 6605TIP3    H219780   4.157  -0.049   4.533  1.3294 -0.4146 -1.6721
 6606TIP3   OH219781   6.217   6.732   4.788  0.4007 -0.3087 -0.4213
 6606TIP3    H119782   6.221   6.823   4.759 -2.4390 -0.6122 -2.1030
 6606TIP3    H219783   6.290   6.689   4.743  1.4284  0.9820 -0.0364
 6607TIP3   OH219784   3.023   2.556   4.480  0.6877  0.3145 -0.2522
 6607TIP3    H119785   3.095   2.618   4.491  0.3216  0.4625  1.6745
 6607TIP3    H219786   3.045   2.484   4.539 -1.0022  0.6379  0.8425
 6608TIP3   OH219787   2.693   6.266   0.637  0.6754  0.2883 -0.1682
 6608TIP3    H119788   2.619   6.303   0.685 -0.0980 -1.1275 -0.2299
 6608TIP3    H219789   2.689   6.172   0.654  1.7706  0.0396 -1.1235
 6609TIP3   OH219790   2.369   1.026   1.972  0.5118 -0.5103 -0.1077
 6609TIP3    H119791   2.286   1.009   2.017 -1.1504  2.5838 -1.6595
 6609TIP3    H219792   2.420   1.078   2.034 -0.0275  0.2327 -0.2846
 6610TIP3   OH219793   0.930   3.035   5.621  0.4658  0.0060  0.0005
 6610TIP3    H119794   0.949   3.103   5.687 -1.6246 -0.1815  0.8752
 6610TIP3    H219795   0.885   2.967   5.670  1.4110 -1.4817 -1.1271
 6611TIP3   OH219796   2.092   4.111   5.137 -0.5984 -0.2444 -0.2957
 6611TIP3    H119797   2.095   4.128   5.043 -0.9389 -0.6171 -0.3754
 6611TIP3    H219798   2.182   4.123   5.167 -0.7784  1.5740 -0.3713
 6612TIP3   OH219799   3.790   3.793   2.563 -0.2932 -0.3933 -0.0220
 6612TIP3    H119800   3.836   3.744   2.495  1.9481 -0.3655  1.3968
 6612TIP3    H219801   3.816   3.752   2.645 -1.8162  0.4728  0.9492
 6613TIP3   OH219802   0.819   6.025   0.635 -0.4096  0.0180  0.4674
 6613TIP3    H119803   0.845   6.064   0.552 -0.4001  0.6958  0.7802
 6613TIP3    H219804   0.731   6.062   0.652 -0.0840  0.5141  1.1365
 6614TIP3   OH219805   3.488   6.444   1.819 -0.2090  0.2607  0.4785
 6614TIP3    H119806   3.415   6.456   1.880 -0.3928 -2.1372  0.8206
 6614TIP3    H219807   3.448   6.452   1.732 -0.2759  1.8866  0.6148
 6615TIP3   OH219808   1.156   4.290   0.397 -0.0844  0.5919 -0.1938
 6615TIP3    H119809   1.175   4.384   0.385  2.5531  0.5042  2.1659
 6615TIP3    H219810   1.133   4.282   0.490  1.6080 -1.2946  0.1252
 6616TIP3   OH219811   2.188   3.432   3.416 -0.1539 -0.5033  0.7585
 6616TIP3    H119812   2.140   3.353   3.392 -1.0219  0.8647 -2.5172
 6616TIP3    H219813   2.280   3.410   3.399 -0.2956 -1.0697  0.7098
 6617TIP3   OH219814   2.024   3.756   3.106 -0.0901 -0.2055 -0.0400
 6617TIP3    H119815   1.931   3.733   3.115  0.0054 -1.1034 -1.1089
 6617TIP3    H219816   2.024   3.838   3.057 -0.3127 -1.9175 -3.1800
 6618TIP3   OH219817   1.021   2.303   3.042  0.1621 -0.8112  0.0459
 6618TIP3    H119818   1.000   2.388   3.082  0.7545 -0.2678 -0.7713
 6618TIP3    H219819   0.942   2.278   2.995  1.0559  1.0001 -2.6341
 6619TIP3   OH219820   0.570   4.417   2.148  1.0028 -0.0423 -0.2223
 6619TIP3    H119821   0.621   4.394   2.071  0.4669 -1.0590 -0.2962
 6619TIP3    H219822   0.610   4.497   2.181  3.4906 -1.5073  0.5168
 6620TIP3   OH219823   6.518   0.120   2.691 -0.4433  0.6048 -0.1406
 6620TIP3    H119824   6.605   0.122   2.651  0.2504  0.2583  1.3018
 6620TIP3    H219825   6.493   0.028   2.692  0.9544  0.1619  3.0633
 6621TIP3   OH219826   2.142   5.453   4.817 -0.2050 -0.1662 -0.0233
 6621TIP3    H119827   2.115   5.536   4.778  0.7636  0.2438  0.1436
 6621TIP3    H219828   2.082   5.440   4.890 -0.1376  0.5817  0.1797
 6622TIP3   OH219829   0.325   0.332   5.045 -0.0943 -0.2171  0.1094
 6622TIP3    H119830   0.244   0.310   5.090 -1.7826  1.7216 -1.7859
 6622TIP3    H219831   0.349   0.254   4.996 -1.1317 -0.6321  0.2594
 6623TIP3   OH219832   3.619   0.048   4.246  0.1966 -0.7295 -0.3069
 6623TIP3    H119833   3.647   0.128   4.289 -0.8851 -1.1031  1.1834
 6623TIP3    H219834   3.530   0.032   4.279 -0.0438 -1.9438 -1.4227
 6624TIP3   OH219835   4.649   1.180   1.607  0.8095  0.0256  0.1484
 6624TIP3    H119836   4.569   1.137   1.575  1.3576 -0.3797 -0.7113
 6624TIP3    H219837   4.654   1.261   1.556  1.1576 -0.1431 -0.0887
 6625TIP3   OH219838   0.246   4.944   5.739 -0.0704  0.1801  0.7145
 6625TIP3    H119839   0.340   4.952   5.723  0.0053 -1.2395  0.3471
 6625TIP3    H219840   0.208   5.019   5.693  0.8202  0.3377  0.2121
 6626TIP3   OH219841   3.197   3.144   2.931  0.0939 -0.1502  0.5743
 6626TIP3    H119842   3.182   3.049   2.929 -0.6389 -0.1224  2.2229
 6626TIP3    H219843   3.113   3.180   2.962  0.8008  0.9002  1.3256
 6627TIP3   OH219844   2.688   6.417   1.259 -0.0824 -0.0019  0.5514
 6627TIP3    H119845   2.634   6.344   1.230 -1.3460  1.1916 -0.2655
 6627TIP3    H219846   2.696   6.405   1.354 -2.8395  0.3701  0.9167
 6628TIP3   OH219847   4.515   4.765   5.635 -0.3449  0.1737  0.1034
 6628TIP3    H119848   4.478   4.736   5.552 -2.3213 -0.0915  1.0199
 6628TIP3    H219849   4.465   4.718   5.702 -0.2824  1.9520  1.4969
 6629TIP3   OH219850   4.581   1.050   2.288 -0.4341 -0.4105  0.5733
 6629TIP3    H119851   4.564   1.008   2.372 -0.2787 -1.1794  0.2346
 6629TIP3    H219852   4.674   1.032   2.270 -0.3651  0.0808  0.4162
 6630TIP3   OH219853   4.252   2.712   0.802  0.3341  0.0374 -0.8336
 6630TIP3    H119854   4.321   2.656   0.767  0.2968 -0.1577 -0.5969
 6630TIP3    H219855   4.181   2.651   0.825  1.6500 -0.3616  2.9391
 6631TIP3   OH219856   5.742   6.770   3.728 -0.2105 -0.7249 -0.2835
 6631TIP3    H119857   5.834   6.745   3.735  0.2179  0.8511  0.1699
 6631TIP3    H219858   5.743   6.855   3.684 -0.8938  2.1581  4.5109
 6632TIP3   OH219859   4.773   6.473   2.781  0.1720 -0.0524  0.6181
 6632TIP3    H119860   4.722   6.546   2.817  0.0448 -0.5354  1.4671
 6632TIP3    H219861   4.811   6.507   2.701 -0.5148  0.7034  0.5968
 6633TIP3   OH219862   3.664   6.229   3.014 -0.2283 -0.0686 -0.1185
 6633TIP3    H119863   3.637   6.307   2.966 -0.9712 -0.6210 -0.6228
 6633TIP3    H219864   3.637   6.156   2.958  0.1472 -0.6957  0.5012
 6634TIP3   OH219865   5.341   2.976   4.742  0.2287  0.2473 -0.3781
 6634TIP3    H119866   5.294   3.059   4.740  0.9832  0.7287  0.8507
 6634TIP3    H219867   5.397   2.981   4.820  2.0065 -0.4563 -1.5307
 6635TIP3   OH219868   6.022   1.875   4.890 -0.2864  0.3578  0.4548
 6635TIP3    H119869   6.082   1.928   4.838 -0.1810 -1.1191 -1.0344
 6635TIP3    H219870   5.967   1.938   4.936  2.8249  1.8015  2.4896
 6636TIP3   OH219871   1.772   5.743   0.589  0.2115  0.2435  0.4587
 6636TIP3    H119872   1.861   5.778   0.597  0.3569 -0.3784  1.8424
 6636TIP3    H219873   1.718   5.800   0.643 -0.4283  1.1454 -1.0625
 6637TIP3   OH219874   0.488   1.101   5.455 -0.1475  0.6043 -0.7155
 6637TIP3    H119875   0.555   1.039   5.481 -0.8714 -0.8895 -2.2420
 6637TIP3    H219876   0.427   1.103   5.528  1.0867  1.3547  0.3363
 6638TIP3   OH219877   6.780   1.447   2.190 -0.3313  0.5280  0.2042
 6638TIP3    H119878   6.826   1.487   2.263  1.0169 -2.4946  1.1411
 6638TIP3    H219879   6.713   1.392   2.231  0.9220 -1.7943 -0.6630
 6639TIP3   OH219880   5.438   6.223   1.019  0.5063  0.4458 -0.3645
 6639TIP3    H119881   5.373   6.208   1.087 -0.2686  3.8190 -0.1983
 6639TIP3    H219882   5.504   6.279   1.061  0.9632  1.0786 -1.8516
 6640TIP3   OH219883   7.155   0.131   1.590  0.0545  0.1968  0.4971
 6640TIP3    H119884   7.123   0.191   1.658 -2.3586 -0.9270  0.4733
 6640TIP3    H219885   7.230   0.176   1.551 -1.4944  3.1484  0.6113
 6641TIP3   OH219886   4.616   4.399   4.598  0.1980  0.4262 -0.3340
 6641TIP3    H119887   4.691   4.361   4.645 -0.9415  0.1857  1.3795
 6641TIP3    H219888   4.649   4.415   4.510  1.7811 -1.2287 -0.1144
 6642TIP3   OH219889   2.784   4.823   1.416  0.1603 -0.4072  0.1402
 6642TIP3    H119890   2.734   4.853   1.340  1.3158 -0.8481 -0.8291
 6642TIP3    H219891   2.863   4.783   1.379  1.5671  0.8254  1.5985
 6643TIP3   OH219892   5.961   3.245   4.732 -0.2047 -0.5582 -0.5031
 6643TIP3    H119893   5.875   3.254   4.691  0.1555 -0.9235 -1.3793
 6643TIP3    H219894   6.016   3.308   4.686 -0.1627  0.1909  0.5463
 6644TIP3   OH219895   0.737   4.740   3.359 -0.4334  0.5985 -0.7537
 6644TIP3    H119896   0.721   4.771   3.270 -0.6761 -1.5672 -1.5373
 6644TIP3    H219897   0.683   4.661   3.366  0.4534  0.1047  0.9287
 6645TIP3   OH219898   6.679   4.192   1.430 -0.4196  0.5563 -0.4056
 6645TIP3    H119899   6.654   4.102   1.451  1.2106 -0.1029 -1.1082
 6645TIP3    H219900   6.730   4.184   1.348 -0.3752  2.1294 -0.5574
 6646TIP3   OH219901   5.196   0.747   4.426 -0.2753 -0.6063  0.2341
 6646TIP3    H119902   5.132   0.710   4.365 -1.1133  0.0491  0.7067
 6646TIP3    H219903   5.157   0.735   4.512  0.8443 -1.4133  0.6584
 6647TIP3   OH219904   2.449   1.262   1.282  0.4063  0.1853  0.4013
 6647TIP3    H119905   2.453   1.353   1.311  0.6371 -0.2105  1.7107
 6647TIP3    H219906   2.356   1.240   1.284  0.2925  0.5525 -0.4910
 6648TIP3   OH219907   0.105   2.367   5.603  0.2404 -0.4790  0.4072
 6648TIP3    H119908   0.100   2.443   5.660 -0.5771 -0.8965  0.9061
 6648TIP3    H219909   0.164   2.307   5.649  1.0518 -0.0866 -0.0846
 6649TIP3   OH219910   5.239   6.263   2.319 -0.3319 -0.7677  0.1516
 6649TIP3    H119911   5.187   6.278   2.398 -0.3148 -0.7668  0.1628
 6649TIP3    H219912   5.181   6.213   2.262 -0.6943  0.0837 -0.2305
 6650TIP3   OH219913   2.830   2.114   5.296  0.3625 -0.6740 -0.1219
 6650TIP3    H119914   2.913   2.142   5.258  2.1884 -3.7032  1.2284
 6650TIP3    H219915   2.787   2.065   5.225  1.6486 -2.4253  0.2260
 6651TIP3   OH219916   3.758   3.100   0.819 -0.7630  0.3940 -0.1902
 6651TIP3    H119917   3.663   3.099   0.835 -0.5085 -1.1926  1.5846
 6651TIP3    H219918   3.793   3.151   0.892 -0.2649  1.7843 -1.3441
 6652TIP3   OH219919   3.790   3.418   2.836  0.0960  0.4968 -0.5837
 6652TIP3    H119920   3.777   3.502   2.880 -0.1485 -0.1678  0.6392
 6652TIP3    H219921   3.706   3.400   2.794  0.3445  1.1567 -1.3876
 6653TIP3   OH219922   2.908   6.140   2.789 -0.4745 -0.3358  0.1057
 6653TIP3    H119923   2.907   6.045   2.799 -0.9873 -0.4012 -0.4741
 6653TIP3    H219924   2.890   6.154   2.696  0.4057  0.3085  0.0264
 6654TIP3   OH219925   6.720   2.753   2.215  0.6130  0.6264 -0.0768
 6654TIP3    H119926   6.780   2.739   2.288  1.2421  0.2801 -0.6347
 6654TIP3    H219927   6.773   2.799   2.149 -0.5864  3.0299  0.5487
 6655TIP3   OH219928   6.434   4.962   4.986 -0.0293 -0.2125  0.3603
 6655TIP3    H119929   6.484   5.023   5.041  0.2571  0.9127 -1.0976
 6655TIP3    H219930   6.484   4.957   4.904 -0.2878 -2.0788  0.2674
 6656TIP3   OH219931   3.713   3.996   3.882 -0.4591 -0.4327  0.1422
 6656TIP3    H119932   3.799   3.974   3.918 -0.0557  1.1403  0.2074
 6656TIP3    H219933   3.708   3.946   3.801  0.7608 -0.1205 -0.1436
 6657TIP3   OH219934   0.834   4.974   2.628 -0.5679 -0.0604 -0.0975
 6657TIP3    H119935   0.929   4.977   2.626 -0.4923 -0.6199  1.4093
 6657TIP3    H219936   0.807   5.060   2.658 -0.5936  0.3677 -1.3017
 6658TIP3   OH219937   3.243   1.522   3.716  0.4301  0.1293  0.4668
 6658TIP3    H119938   3.214   1.457   3.781 -1.4186  1.7932  1.4113
 6658TIP3    H219939   3.293   1.471   3.652 -0.4406 -2.1290  1.4759
 6659TIP3   OH219940   5.857   6.837   1.988 -0.2307 -0.2993  0.5338
 6659TIP3    H119941   5.809   6.771   1.938  1.2083 -1.3546  0.4589
 6659TIP3    H219942   5.907   6.786   2.052  0.2643  0.7897  1.0402
 6660TIP3   OH219943   2.107   3.886   3.944  0.1844 -0.2568  0.0278
 6660TIP3    H119944   2.105   3.897   3.849 -0.5055 -0.5568 -0.0048
 6660TIP3    H219945   2.108   3.975   3.979  2.1736 -0.1218 -0.2546
 6661TIP3   OH219946   2.203   2.217   4.134 -0.3510  0.4308  1.3234
 6661TIP3    H119947   2.122   2.269   4.132 -0.1631  0.7065 -0.1128
 6661TIP3    H219948   2.203   2.176   4.221 -2.1915  0.1869  1.2575
 6662TIP3   OH219949   0.264   1.276   3.116  0.3785  0.2003 -0.0886
 6662TIP3    H119950   0.203   1.349   3.106 -0.6100 -0.4184  1.2301
 6662TIP3    H219951   0.328   1.306   3.180  1.1377  0.6264 -1.0262
 6663TIP3   OH219952   6.703   3.187   2.756 -0.2466  0.0729 -1.0018
 6663TIP3    H119953   6.731   3.096   2.765 -1.4547 -0.4082 -1.8296
 6663TIP3    H219954   6.784   3.237   2.759  0.3553 -0.8977  0.7445
 6664TIP3   OH219955   2.568   5.046   5.370 -0.0711 -0.2640 -0.2815
 6664TIP3    H119956   2.645   5.083   5.327  0.2307 -0.7525 -0.1594
 6664TIP3    H219957   2.527   5.121   5.414  0.4044 -0.0288 -0.2355
 6665TIP3   OH219958   5.972   6.364   0.441 -0.1635  0.3117  0.5633
 6665TIP3    H119959   5.907   6.297   0.419  0.3447 -0.0035 -0.0422
 6665TIP3    H219960   6.030   6.321   0.503  0.8671 -0.2540 -0.7290
 6666TIP3   OH219961   1.357   5.493   0.863 -0.1328 -0.7472 -0.5916
 6666TIP3    H119962   1.436   5.536   0.829 -0.5366 -0.2033 -0.8447
 6666TIP3    H219963   1.377   5.399   0.856  1.6356 -0.6821  2.0006
 6667TIP3   OH219964   6.174   1.341   0.693  0.3306 -0.0566  0.6727
 6667TIP3    H119965   6.115   1.276   0.732  0.7989 -1.6844 -1.1675
 6667TIP3    H219966   6.123   1.381   0.623  0.8489 -0.2393  0.1836
 6668TIP3   OH219967   1.869   1.364   2.699  0.3287  0.2935  0.0577
 6668TIP3    H119968   1.945   1.305   2.695  0.2600  0.1924  0.2403
 6668TIP3    H219969   1.856   1.379   2.792 -1.3797 -1.6394  0.1975
 6669TIP3   OH219970   3.440   1.220   5.012 -0.5602  0.0693  0.0258
 6669TIP3    H119971   3.434   1.291   4.947  0.5218 -0.8866 -1.1544
 6669TIP3    H219972   3.360   1.230   5.064  1.0199  4.2330  2.1488
 6670TIP3   OH219973   6.518   0.766   5.080 -0.0162 -0.2746 -0.3349
 6670TIP3    H119974   6.586   0.834   5.079  1.6979 -1.8964  0.6626
 6670TIP3    H219975   6.537   0.712   5.003 -0.8617 -0.1236 -0.6595
 6671TIP3   OH219976   0.346   1.148   0.753  0.2475 -0.1930  0.3840
 6671TIP3    H119977   0.268   1.110   0.714 -0.0796 -1.0301  1.7541
 6671TIP3    H219978   0.417   1.087   0.731  0.4092  0.2529 -0.3541
 6672TIP3   OH219979   6.626   0.724   4.263 -0.1022  0.0514 -0.1970
 6672TIP3    H119980   6.574   0.644   4.266  0.1196 -0.0763  0.8515
 6672TIP3    H219981   6.716   0.694   4.272  0.0186  0.3838 -0.3058
 6673TIP3   OH219982   0.568   6.485   3.538  0.3884  0.5539 -0.1568
 6673TIP3    H119983   0.575   6.578   3.516 -1.4114  0.6421 -0.5066
 6673TIP3    H219984   0.541   6.484   3.630 -3.0228  0.5736 -1.0127
 6674TIP3   OH219985   3.534   2.499   0.340  0.1715 -0.0847 -1.0988
 6674TIP3    H119986   3.471   2.431   0.365  1.8842 -1.3422  0.0784
 6674TIP3    H219987   3.527   2.504   0.245 -0.3572 -1.5813 -1.1747
 6675TIP3   OH219988   5.472   3.702   4.624  0.3240 -0.3132  0.0260
 6675TIP3    H119989   5.451   3.708   4.717  0.4615 -0.5039  0.0688
 6675TIP3    H219990   5.561   3.738   4.617  1.0666 -2.0098  0.2492
 6676TIP3   OH219991   5.240   3.674   5.613 -0.1099  0.1492 -0.0493
 6676TIP3    H119992   5.248   3.586   5.577 -1.0833 -0.8992  2.0852
 6676TIP3    H219993   5.224   3.660   5.706 -0.6204  2.5842  0.2937
 6677TIP3   OH219994   4.592   5.654   5.212  0.3393 -0.1601 -0.6524
 6677TIP3    H119995   4.559   5.705   5.285  2.8730  2.2738 -1.0403
 6677TIP3    H219996   4.526   5.663   5.144  1.0692  3.6676 -1.0677
 6678TIP3   OH219997   3.239   6.058   4.795  0.5632 -0.1675  0.9753
 6678TIP3    H119998   3.148   6.037   4.773  0.8351  0.1165 -0.5494
 6678TIP3    H219999   3.283   5.973   4.800  0.4783 -0.2414  0.4647
 6679TIP3   OH220000   6.725   1.704   4.035 -0.2473 -0.0514  0.3322
 6679TIP3    H120001   6.657   1.687   3.969 -0.7486  0.3937  0.7270
 6679TIP3    H220002   6.678   1.742   4.109  0.6770  1.9368 -0.0507
 6680TIP3   OH220003   1.036   1.348   3.321 -0.1211 -0.2830 -0.0902
 6680TIP3    H120004   1.030   1.362   3.226 -0.3650 -0.0964 -0.0458
 6680TIP3    H220005   1.131   1.346   3.338 -0.0757 -0.2204 -0.3233
 6681TIP3   OH220006   5.467   1.793   2.266  0.6883 -1.2013 -0.0039
 6681TIP3    H120007   5.458   1.883   2.297  0.7881 -1.0753 -0.3375
 6681TIP3    H220008   5.529   1.752   2.326  0.9459 -0.9346 -0.0901
 6682TIP3   OH220009   1.588   4.601   3.790  0.0643 -0.1375 -0.9508
 6682TIP3    H120010   1.677   4.582   3.759  0.0903 -0.7762 -0.4942
 6682TIP3    H220011   1.536   4.609   3.709  0.5616  0.3773 -1.2213
 6683TIP3   OH220012   6.655   0.223   0.462 -0.2123 -0.1428 -0.0710
 6683TIP3    H120013   6.666   0.277   0.540  1.0586  0.1678 -0.4343
 6683TIP3    H220014   6.719   0.152   0.473 -1.8527 -1.6391  0.4107
 6684TIP3   OH220015   2.102   1.445   5.586  0.3361  0.3997 -0.2509
 6684TIP3    H120016   2.191   1.438   5.550  0.1835  1.0034 -0.7594
 6684TIP3    H220017   2.064   1.520   5.541 -0.0084  0.9280  0.9031
 6685TIP3   OH220018   5.213   3.824   0.846  0.3084 -0.3921  0.2543
 6685TIP3    H120019   5.147   3.856   0.908  1.6467 -1.6512  2.4403
 6685TIP3    H220020   5.244   3.903   0.802 -0.0925  0.6849  1.8188
 6686TIP3   OH220021   2.287   2.310   3.496 -0.2045  0.0699  0.3853
 6686TIP3    H120022   2.231   2.240   3.463 -0.0728  0.2420 -0.2197
 6686TIP3    H220023   2.374   2.270   3.502 -0.1167  0.1950 -0.0203
 6687TIP3   OH220024   5.143   0.336   1.594 -0.2539  0.2088 -0.3705
 6687TIP3    H120025   5.171   0.412   1.544  1.5916 -0.2938 -0.1645
 6687TIP3    H220026   5.174   0.260   1.544 -0.0515 -0.3371  0.5446
 6688TIP3   OH220027   6.816   5.071   5.038  0.0455 -0.0074  0.0074
 6688TIP3    H120028   6.745   5.119   5.082  1.0270  0.2306  1.3882
 6688TIP3    H220029   6.888   5.072   5.101  1.8913  1.2396 -1.9750
 6689TIP3   OH220030   7.000   4.985   4.837 -0.5446 -0.3296 -0.4264
 6689TIP3    H120031   6.948   5.008   4.914  0.3718  2.0946 -0.4403
 6689TIP3    H220032   6.963   5.036   4.766  1.1338  0.6690 -0.6511
 6690TIP3   OH220033   4.926   2.150   4.665  0.1619 -0.5454 -0.1173
 6690TIP3    H120034   4.941   2.154   4.759 -0.9169  1.2246  0.0390
 6690TIP3    H220035   5.009   2.177   4.626  0.2881 -0.2280  0.3627
 6691TIP3   OH220036   4.213   3.533   4.362 -0.2607  0.0554 -0.1614
 6691TIP3    H120037   4.242   3.448   4.330  0.7895  0.6817 -0.9315
 6691TIP3    H220038   4.293   3.586   4.365 -0.8099  0.8542  0.8200
 6692TIP3   OH220039   1.125   4.974   1.491 -0.5746  0.4698 -0.0256
 6692TIP3    H120040   1.126   4.894   1.544 -1.7137  0.7001  0.3652
 6692TIP3    H220041   1.093   4.946   1.405 -0.7585  0.4669  0.0439
 6693TIP3   OH220042   5.275   2.528   1.840 -0.0527 -0.4902  0.0426
 6693TIP3    H120043   5.351   2.470   1.846 -0.5212 -0.9719  2.6788
 6693TIP3    H220044   5.214   2.482   1.783  0.3679 -1.6551  0.5071
 6694TIP3   OH220045   6.990   3.233   1.658  0.2787 -0.3310  0.1257
 6694TIP3    H120046   7.022   3.211   1.571  0.0843  1.4735 -0.4413
 6694TIP3    H220047   6.938   3.157   1.685  1.3933 -1.4451 -0.7717
 6695TIP3   OH220048   2.200   0.541   1.278 -0.1009  0.5260 -0.1821
 6695TIP3    H120049   2.173   0.622   1.234 -0.7252  0.3061 -0.2231
 6695TIP3    H220050   2.196   0.475   1.210  0.1284  0.4084 -0.0805
 6696TIP3   OH220051   3.163   2.626   0.848 -0.0807  0.4273 -0.3503
 6696TIP3    H120052   3.076   2.642   0.885 -0.1944  1.4089 -0.9874
 6696TIP3    H220053   3.156   2.655   0.757  0.2692 -1.6981 -1.1113
 6697TIP3   OH220054   6.749   5.563   0.943 -0.4102  0.6460  0.2582
 6697TIP3    H120055   6.841   5.572   0.921 -0.2036  1.8591  1.4620
 6697TIP3    H220056   6.718   5.489   0.891  1.3426 -0.0602  0.1790
 6698TIP3   OH220057   1.022   6.752   0.919  0.6508  0.2450 -0.0365
 6698TIP3    H120058   1.031   6.788   1.008 -2.7508  1.0017  0.1201
 6698TIP3    H220059   1.027   6.828   0.862  0.2201  0.0954 -0.2759
 6699TIP3   OH220060   4.222   5.641   4.107  0.6401  0.3938 -0.0526
 6699TIP3    H120061   4.304   5.666   4.150  0.6190  0.7387 -0.2107
 6699TIP3    H220062   4.190   5.722   4.069  0.2981  0.2276 -0.1166
 6700TIP3   OH220063   2.090   3.211   0.240  0.0854 -0.2682  0.0311
 6700TIP3    H120064   2.014   3.209   0.298 -0.0984  2.1293 -0.0098
 6700TIP3    H220065   2.092   3.125   0.200 -2.7633 -0.3542 -0.1332
 6701TIP3   OH220066   4.983   0.272   4.728 -0.0115  0.3540  0.2122
 6701TIP3    H120067   4.904   0.302   4.683  0.5833  0.3578 -0.8458
 6701TIP3    H220068   5.056   0.307   4.676  0.7159  1.3022  1.7806
 6702TIP3   OH220069   1.414   2.229   3.913 -0.4896  0.2095 -0.2578
 6702TIP3    H120070   1.425   2.242   3.819 -0.9391 -0.2598 -0.3844
 6702TIP3    H220071   1.468   2.152   3.932  1.2781  1.5120  0.2737
 6703TIP3   OH220072   0.406   4.870   3.372 -0.2610  0.0299  0.2692
 6703TIP3    H120073   0.364   4.785   3.388 -0.4008  0.0534  0.0297
 6703TIP3    H220074   0.337   4.924   3.334  0.1701 -0.1456 -0.8032
 6704TIP3   OH220075   6.426   5.702   3.462 -0.1507  0.0278  0.1504
 6704TIP3    H120076   6.452   5.649   3.387  0.9950  0.8396 -0.0473
 6704TIP3    H220077   6.352   5.753   3.431  1.3819  1.6315 -1.0197
 6705TIP3   OH220078   3.588   1.666   2.111 -0.6904  0.3748 -0.4385
 6705TIP3    H120079   3.626   1.747   2.146 -0.3824  0.3303 -0.6646
 6705TIP3    H220080   3.496   1.671   2.135 -0.1046 -0.7805  2.5301
 6706TIP3   OH220081   4.210   2.394   2.190  0.2503  0.3360 -0.4894
 6706TIP3    H120082   4.163   2.474   2.167 -2.6450 -1.2049 -0.3405
 6706TIP3    H220083   4.216   2.345   2.108 -1.3258 -0.8474  0.0438
 6707TIP3   OH220084   5.013   3.301   5.899 -0.1269  0.5681  0.3467
 6707TIP3    H120085   5.092   3.292   5.952 -0.5685 -0.3603  0.8686
 6707TIP3    H220086   5.038   3.268   5.812  0.7448  2.5616 -0.2322
 6708TIP3   OH220087   5.395   2.595   2.732  0.6436 -0.0709  0.2351
 6708TIP3    H120088   5.308   2.591   2.773 -0.0971  2.6909 -0.8915
 6708TIP3    H220089   5.455   2.607   2.805 -0.1974  0.5420  0.8416
 6709TIP3   OH220090   2.261   1.933   0.152 -0.6405 -0.0853  0.2612
 6709TIP3    H120091   2.268   1.861   0.215 -0.6928 -1.9095 -1.7156
 6709TIP3    H220092   2.201   1.995   0.193  0.4908 -0.4621  2.6398
 6710TIP3   OH220093   1.280   2.775   5.473  0.6860  0.1067 -0.3687
 6710TIP3    H120094   1.299   2.683   5.455  0.2282  0.0172 -0.4089
 6710TIP3    H220095   1.343   2.799   5.541  0.6992 -0.2828 -0.2378
 6711TIP3   OH220096   4.734   2.411   0.950  0.0787  0.3323  0.2280
 6711TIP3    H120097   4.644   2.416   0.919  0.1350 -1.7513 -0.4296
 6711TIP3    H220098   4.787   2.414   0.869  0.3887 -1.9652  0.2907
 6712TIP3   OH220099   7.117   4.405   5.751  0.2749  0.1092  0.3015
 6712TIP3    H120100   7.102   4.495   5.781 -0.8712 -0.0228  0.1726
 6712TIP3    H220101   7.173   4.415   5.674 -0.1268  0.7419  0.0813
 6713TIP3   OH220102   1.004   6.432   2.974 -0.3291  0.3881 -0.3339
 6713TIP3    H120103   1.023   6.444   2.881 -0.9890 -0.4977 -0.5968
 6713TIP3    H220104   0.938   6.499   2.993 -0.5518  0.2606 -0.6330
 6714TIP3   OH220105   5.026   3.282   5.535 -0.0224  0.1040 -0.1073
 6714TIP3    H120106   5.079   3.345   5.486  2.5974 -1.9067 -0.0809
 6714TIP3    H220107   4.965   3.246   5.469 -1.7374  2.6417 -0.0730
 6715TIP3   OH220108   2.403   6.145   3.026 -0.3322  0.4387  0.1498
 6715TIP3    H120109   2.412   6.165   2.933 -2.4250  2.0393  0.2260
 6715TIP3    H220110   2.341   6.073   3.029 -0.6755  0.7376  0.3146
 6716TIP3   OH220111   1.696   5.544   2.367 -0.4498  0.1134 -0.2478
 6716TIP3    H120112   1.707   5.459   2.408  2.3319 -0.0938 -1.1720
 6716TIP3    H220113   1.665   5.601   2.438 -1.5884 -1.4656  0.5759
 6717TIP3   OH220114   1.202   5.302   3.125  0.0290 -0.9911 -0.0276
 6717TIP3    H120115   1.150   5.350   3.060  1.4107  0.4109 -0.1587
 6717TIP3    H220116   1.254   5.241   3.073  0.7770 -0.2090 -0.2185
 6718TIP3   OH220117   3.519   5.810   2.533 -0.3745 -0.3587 -0.4067
 6718TIP3    H120118   3.548   5.799   2.443  0.8863 -0.6835  0.0198
 6718TIP3    H220119   3.424   5.820   2.527 -0.1629  1.2657 -1.9161
 6719TIP3   OH220120   1.958   0.989   4.602 -0.1986  0.7989  0.3649
 6719TIP3    H120121   1.938   0.895   4.611  0.2515  0.6309 -0.3090
 6719TIP3    H220122   1.892   1.033   4.655 -0.4546  0.0991  0.6362
 6720TIP3   OH220123   5.480   5.328   0.917 -0.5189 -0.3434 -0.3148
 6720TIP3    H120124   5.413   5.286   0.863 -0.9723 -0.2586  0.1690
 6720TIP3    H220125   5.434   5.401   0.958 -0.4221 -0.9122  0.8490
 6721TIP3   OH220126   5.369   1.221   4.885  0.1647  0.4945  0.6270
 6721TIP3    H120127   5.430   1.199   4.814 -3.1021 -1.0708 -1.9331
 6721TIP3    H220128   5.347   1.312   4.869  0.8658  0.6994  0.7959
 6722TIP3   OH220129   3.072   2.689   3.395 -0.2867 -0.4527 -0.5584
 6722TIP3    H120130   3.117   2.607   3.373 -0.2130 -0.2608 -1.1200
 6722TIP3    H220131   3.078   2.694   3.491  0.7051 -0.5318 -0.6023
 6723TIP3   OH220132   5.981   5.829   2.070 -0.2001 -0.0057  0.0716
 6723TIP3    H120133   5.971   5.775   2.149 -1.1282  0.7507  0.4987
 6723TIP3    H220134   5.908   5.803   2.014 -0.2399  0.2970 -0.0190
 6724TIP3   OH220135   3.921   0.842   5.019 -0.7832  0.3402  0.2090
 6724TIP3    H120136   3.870   0.878   4.947  0.3031  2.6059  0.4853
 6724TIP3    H220137   3.873   0.764   5.046 -2.0706  0.3412 -1.9030
 6725TIP3   OH220138   0.780   2.436   2.297 -0.4749  0.7545 -1.0708
 6725TIP3    H120139   0.850   2.374   2.317 -0.0511  0.5581 -2.9123
 6725TIP3    H220140   0.727   2.392   2.231 -1.8106  1.2816 -0.3969
 6726TIP3   OH220141   3.235   4.060   1.923  0.0859 -0.0558  0.3220
 6726TIP3    H120142   3.308   4.038   1.981 -1.0153 -0.6854  1.5146
 6726TIP3    H220143   3.206   4.146   1.952 -0.0775 -0.1043  0.3040
 6727TIP3   OH220144   5.081   1.115   1.272 -0.0143 -0.5149 -0.2937
 6727TIP3    H120145   5.037   1.055   1.212 -0.6963  1.1320 -1.5248
 6727TIP3    H220146   5.151   1.154   1.221  0.0424  0.1758  0.2874
 6728TIP3   OH220147   6.027   0.609   4.725  0.7291  0.2183 -0.1582
 6728TIP3    H120148   5.965   0.629   4.655  0.1788  0.4575  0.3842
 6728TIP3    H220149   6.073   0.531   4.696  2.0139  1.4901 -1.7646
 6729TIP3   OH220150   1.861   6.046   1.941  0.1931 -0.0298  0.0838
 6729TIP3    H120151   1.807   6.036   1.863  1.5121 -1.1170 -0.7294
 6729TIP3    H220152   1.858   5.960   1.983 -1.2154  0.7811  1.7544
 6730TIP3   OH220153   1.985   6.335   5.733 -0.4767  0.0423 -0.5979
 6730TIP3    H120154   2.077   6.361   5.740 -0.0322 -1.2246 -1.3596
 6730TIP3    H220155   1.977   6.260   5.793 -1.3877  1.0359  0.5611
 6731TIP3   OH220156   5.893   0.871   5.356 -0.1205 -0.1607  0.1261
 6731TIP3    H120157   5.913   0.951   5.306  0.3950  0.7318  1.6962
 6731TIP3    H220158   5.927   0.800   5.301  1.0055  0.8365 -0.5253
 6732TIP3   OH220159   1.844   5.741   2.263 -0.3911 -0.1352 -0.4895
 6732TIP3    H120160   1.820   5.672   2.325  1.2175 -0.5877 -0.3213
 6732TIP3    H220161   1.841   5.822   2.315 -1.7484 -0.1212 -0.5498
 6733TIP3   OH220162   6.674   6.666   4.407 -0.1104  0.3463 -0.0879
 6733TIP3    H120163   6.658   6.575   4.429 -0.6561  0.0844 -1.4380
 6733TIP3    H220164   6.721   6.702   4.482 -0.3306 -0.9102  0.6673
 6734TIP3   OH220165   2.670   1.331   2.032 -0.0621  0.1948  0.1171
 6734TIP3    H120166   2.691   1.249   1.987 -0.1907  0.2381 -0.0232
 6734TIP3    H220167   2.681   1.311   2.125 -0.9263 -0.2294  0.1347
 6735TIP3   OH220168   5.305   2.734   0.401  0.2122 -0.4824 -0.1209
 6735TIP3    H120169   5.355   2.787   0.463 -0.9036  2.0061 -1.2251
 6735TIP3    H220170   5.253   2.797   0.351 -0.3810 -2.5278 -2.3018
 6736TIP3   OH220171   0.652   4.735   0.999 -0.1677  0.2010  0.1238
 6736TIP3    H120172   0.649   4.640   0.989  1.1349  0.2823 -1.8021
 6736TIP3    H220173   0.745   4.754   1.015 -0.5027  1.1194  1.0645
 6737TIP3   OH220174   0.477   4.297   2.697  0.3832 -0.7525  0.0366
 6737TIP3    H120175   0.395   4.249   2.711 -1.2578  1.7524 -0.4465
 6737TIP3    H220176   0.467   4.336   2.610  1.4410  0.8149  0.5860
 6738TIP3   OH220177   7.012   1.035   3.746 -0.4232 -0.5817 -0.0657
 6738TIP3    H120178   6.985   0.955   3.701 -0.6699 -1.3758  1.4334
 6738TIP3    H220179   7.082   1.006   3.805 -1.5667 -0.0113  1.6266
 6739TIP3   OH220180   2.156   0.417   1.785  0.2238 -0.4927 -0.4405
 6739TIP3    H120181   2.136   0.405   1.692  0.4437 -0.0787 -0.5451
 6739TIP3    H220182   2.072   0.404   1.829  0.2431 -1.2932 -0.6385
 6740TIP3   OH220183   6.450   2.707   5.479 -0.4884 -0.6328  0.3864
 6740TIP3    H120184   6.398   2.743   5.550 -0.0089 -0.6682  0.7569
 6740TIP3    H220185   6.399   2.632   5.448 -1.9950  0.8900 -1.0590
 6741TIP3   OH220186   3.552   2.418   1.306 -0.2761 -0.5033 -0.0417
 6741TIP3    H120187   3.502   2.399   1.227  0.5106 -3.4347  0.0320
 6741TIP3    H220188   3.640   2.386   1.287  0.2681 -0.0703  1.5598
 6742TIP3   OH220189   0.521   4.588   4.783 -0.0307 -0.0339  0.5898
 6742TIP3    H120190   0.428   4.571   4.765  0.2541 -0.6428 -0.3775
 6742TIP3    H220191   0.564   4.577   4.698  0.6615  2.2536  0.5781
 6743TIP3   OH220192   3.877   5.294   4.297  0.4535 -0.2308 -0.2118
 6743TIP3    H120193   3.821   5.218   4.312  0.2919 -0.5372 -2.1912
 6743TIP3    H220194   3.919   5.310   4.382 -2.3968 -0.1367  1.2835
 6744TIP3   OH220195   3.088   5.916   1.365  0.1279  0.1623  0.2292
 6744TIP3    H120196   3.160   5.867   1.405 -1.5313 -1.6096  1.1977
 6744TIP3    H220197   3.077   5.876   1.279  0.4017  0.5605  0.0057
 6745TIP3   OH220198   2.419   6.544   5.044 -0.0361  0.2429  0.8080
 6745TIP3    H120199   2.447   6.486   4.973 -0.2116  0.3615  0.6399
 6745TIP3    H220200   2.337   6.506   5.075  0.0314  0.2018  0.9343
 6746TIP3   OH220201   4.043   3.991   0.516  0.1437 -0.0182  0.1410
 6746TIP3    H120202   3.996   3.914   0.548  1.2026 -1.0677 -0.7472
 6746TIP3    H220203   4.032   4.056   0.585 -1.5411 -0.6471  0.5036
 6747TIP3   OH220204   5.195   3.803   0.451  0.2453 -0.5927 -0.2788
 6747TIP3    H120205   5.226   3.890   0.476  0.5842 -0.8420  0.2078
 6747TIP3    H220206   5.237   3.744   0.515 -1.1098 -0.9649  0.2948
 6748TIP3   OH220207   3.073   2.314   2.246 -0.1530  0.1368 -0.3928
 6748TIP3    H120208   3.090   2.224   2.271  1.0756 -0.1095 -1.9279
 6748TIP3    H220209   3.085   2.365   2.326 -0.7955 -1.0388  0.4681
 6749TIP3   OH220210   1.600   1.345   1.776  0.5403 -0.0351  0.5908
 6749TIP3    H120211   1.658   1.282   1.734  0.0328  0.7654 -1.4836
 6749TIP3    H220212   1.552   1.385   1.703 -1.2608  0.6604  2.0621
 6750TIP3   OH220213   4.449   5.067   2.855 -0.0494 -0.0369  0.1279
 6750TIP3    H120214   4.355   5.077   2.838 -0.1953 -1.5438 -0.0970
 6750TIP3    H220215   4.489   5.146   2.817 -0.9914 -0.4707 -1.8804
 6751TIP3   OH220216   6.591   1.144   3.102  0.0927 -0.1341 -0.1128
 6751TIP3    H120217   6.596   1.107   3.191 -1.0759 -0.7904 -0.2932
 6751TIP3    H220218   6.539   1.224   3.112 -0.3043 -0.3713 -0.2404
 6752TIP3   OH220219   1.453   5.717   0.389  0.4090  0.2654 -0.4495
 6752TIP3    H120220   1.488   5.805   0.400  0.0397  0.2306  1.3759
 6752TIP3    H220221   1.480   5.691   0.301  0.1387  2.3536 -1.2042
 6753TIP3   OH220222   1.146   4.231   5.410  0.5775 -0.2134 -0.3920
 6753TIP3    H120223   1.107   4.310   5.447  1.0445 -0.7814  1.4320
 6753TIP3    H220224   1.235   4.229   5.447 -0.0187 -2.5142  1.1335
 6754TIP3   OH220225   1.527   1.909   1.952 -0.0819  0.3503  0.1064
 6754TIP3    H120226   1.560   1.914   1.863  1.0182  0.5411  0.5164
 6754TIP3    H220227   1.514   1.815   1.968  0.7088  0.2372  0.0978
 6755TIP3   OH220228   0.723   2.006   3.319 -0.2141 -0.1973 -0.8133
 6755TIP3    H120229   0.747   2.098   3.311  1.2831 -0.6434 -1.7415
 6755TIP3    H220230   0.806   1.959   3.322 -0.9504 -1.5104 -0.1569
 6756TIP3   OH220231   0.937   3.536   3.808 -0.0349 -0.5072  0.0238
 6756TIP3    H120232   0.945   3.577   3.722  0.6370 -0.7590 -0.0398
 6756TIP3    H220233   0.907   3.607   3.866  0.0408 -0.2029 -0.3068
 6757TIP3   OH220234   1.812   4.256   3.673 -0.3994 -0.4639 -0.0210
 6757TIP3    H120235   1.888   4.209   3.638  0.3666 -0.0142  0.9947
 6757TIP3    H220236   1.815   4.240   3.767 -1.0709  0.2902  0.1384
 6758TIP3   OH220237   1.520   0.876   4.424  0.1864 -0.1275 -0.4406
 6758TIP3    H120238   1.456   0.879   4.496  0.7814 -0.2783  0.0978
 6758TIP3    H220239   1.492   0.802   4.370  0.3124 -0.6334  0.1817
 6759TIP3   OH220240   6.079   3.317   3.780  0.0508  0.0214  0.0140
 6759TIP3    H120241   6.135   3.365   3.720  0.2944  0.4514  0.5723
 6759TIP3    H220242   6.000   3.371   3.789 -0.4271 -0.5404 -0.7033
 6760TIP3   OH220243   0.555   4.356   2.943 -0.1394 -0.4564 -0.0791
 6760TIP3    H120244   0.645   4.338   2.915 -0.2102 -0.0137 -0.6385
 6760TIP3    H220245   0.505   4.359   2.861 -0.8449 -1.5931  0.2815
 6761TIP3   OH220246   3.000   5.669   5.373  0.0292  0.1652 -0.1112
 6761TIP3    H120247   2.952   5.657   5.291  1.1074 -2.1326 -0.4876
 6761TIP3    H220248   2.939   5.640   5.441  0.0777 -0.5994 -0.3813
 6762TIP3   OH220249   2.314   2.685   1.613 -0.3147  0.5061  0.0685
 6762TIP3    H120250   2.403   2.651   1.608 -0.8407 -1.4045  1.9769
 6762TIP3    H220251   2.316   2.749   1.684 -1.0194 -1.9639  2.4994
 6763TIP3   OH220252   2.536   1.285   2.747  0.1923 -0.5167 -0.6141
 6763TIP3    H120253   2.573   1.311   2.662 -1.4951 -0.4022 -1.3670
 6763TIP3    H220254   2.611   1.275   2.804  1.3823 -0.4964 -2.1052
 6764TIP3   OH220255   2.599   2.983   5.350  0.0140  0.2863 -0.2896
 6764TIP3    H120256   2.609   3.050   5.417 -0.3142  1.7288 -1.6274
 6764TIP3    H220257   2.593   3.032   5.268 -1.9267 -1.2841 -1.1540
 6765TIP3   OH220258   7.105   0.484   4.409  0.2504 -0.3936  0.1406
 6765TIP3    H120259   7.186   0.459   4.453  0.9327  2.5526  0.7491
 6765TIP3    H220260   7.126   0.565   4.364 -1.2738 -1.7071 -3.2541
 6766TIP3   OH220261   5.072   4.925   3.774  0.1097  0.3260 -0.2958
 6766TIP3    H120262   5.157   4.896   3.741 -1.0909 -1.2408 -2.2373
 6766TIP3    H220263   5.041   4.851   3.827 -0.9567 -0.0944 -1.4458
 6767TIP3   OH220264   5.571   0.344   3.395 -0.3471 -0.1029 -0.3869
 6767TIP3    H120265   5.484   0.317   3.366 -0.1035 -0.4796 -0.7635
 6767TIP3    H220266   5.595   0.416   3.337 -0.6295  0.3686  0.0650
 6768TIP3   OH220267   6.353   6.154   1.938 -0.3738 -0.1590 -0.1994
 6768TIP3    H120268   6.400   6.153   1.855  2.0158  0.5578  1.0753
 6768TIP3    H220269   6.310   6.068   1.943  1.2444 -1.0546 -1.1929
 6769TIP3   OH220270   5.901   6.263   4.159 -0.0099  0.1367 -0.0649
 6769TIP3    H120271   5.890   6.212   4.079 -0.3631  0.1453 -0.0263
 6769TIP3    H220272   5.932   6.199   4.224 -0.7204 -0.1039  0.0570
 6770TIP3   OH220273   0.162   4.092   4.867 -0.4707  0.3842 -0.2631
 6770TIP3    H120274   0.220   4.035   4.817 -0.6529  0.0168 -0.0582
 6770TIP3    H220275   0.203   4.179   4.861 -0.1244  0.2099 -0.4663
 6771TIP3   OH220276   5.811   5.212   2.664  0.0774  0.1962 -0.0535
 6771TIP3    H120277   5.878   5.225   2.731  0.6027 -0.6367 -0.3972
 6771TIP3    H220278   5.741   5.272   2.688 -0.1883 -0.7787  1.8234
 6772TIP3   OH220279   6.991   4.016   4.700 -0.0829 -0.2227 -0.5882
 6772TIP3    H120280   6.926   3.947   4.688 -2.0725  1.2799  0.8506
 6772TIP3    H220281   6.990   4.034   4.794  1.0692  1.1059 -0.7966
 6773TIP3   OH220282   3.446   6.334   2.635  0.4061 -0.0072  0.6777
 6773TIP3    H120283   3.523   6.304   2.684  0.5283 -2.1700 -0.7202
 6773TIP3    H220284   3.411   6.255   2.593 -0.8725  1.3850 -1.0646
 6774TIP3   OH220285   5.497   5.717   2.019  0.1318 -0.4223  0.1231
 6774TIP3    H120286   5.482   5.769   2.098  0.0768 -0.1329 -0.0757
 6774TIP3    H220287   5.410   5.697   1.987  0.0977 -2.3620  1.3023
 6775TIP3   OH220288   5.237   4.913   5.729 -0.3639  0.4738 -0.1479
 6775TIP3    H120289   5.286   4.864   5.663 -0.9601  0.1855 -0.3846
 6775TIP3    H220290   5.251   5.005   5.705  1.5421  0.4916  0.8602
 6776TIP3   OH220291   0.275   0.347   3.192 -0.1627  0.0114  0.6057
 6776TIP3    H120292   0.224   0.268   3.179  0.5916 -0.1147 -2.3892
 6776TIP3    H220293   0.355   0.317   3.236  0.3562 -1.0523 -0.9784
 6777TIP3   OH220294   5.865   6.107   0.369  0.5224  1.0248  0.1606
 6777TIP3    H120295   5.851   6.044   0.440  2.7450  0.9815  0.6191
 6777TIP3    H220296   5.781   6.108   0.322 -0.6247  0.1545  2.0429
 6778TIP3   OH220297   0.882   6.652   1.528  0.0920 -0.4238  0.6708
 6778TIP3    H120298   0.945   6.717   1.497  0.2631 -0.6661  0.5063
 6778TIP3    H220299   0.807   6.662   1.469 -0.0820 -0.0430  0.9509
 6779TIP3   OH220300   6.449   2.652   4.436  0.0258  0.7089 -0.1438
 6779TIP3    H120301   6.427   2.745   4.435 -1.5942  0.3598 -0.1539
 6779TIP3    H220302   6.367   2.608   4.415  0.8413 -0.7208 -0.4746
 6780TIP3   OH220303   2.948   1.545   5.733  0.0310  0.1154 -0.0021
 6780TIP3    H120304   2.857   1.569   5.719  0.1033  0.2965 -0.1721
 6780TIP3    H220305   2.978   1.602   5.804  0.5079  1.3235 -1.1180
 6781TIP3   OH220306   0.497   0.613   0.748  0.1141 -0.4961  0.2805
 6781TIP3    H120307   0.430   0.677   0.771 -0.7830 -0.5328 -1.9822
 6781TIP3    H220308   0.457   0.559   0.679  3.0689  0.8632 -2.8265
 6782TIP3   OH220309   6.477   1.621   3.897 -0.1148 -0.3138  0.1917
 6782TIP3    H120310   6.383   1.627   3.913 -0.0273 -0.8647  0.9774
 6782TIP3    H220311   6.496   1.527   3.902 -0.2826 -0.8249 -4.6372
 6783TIP3   OH220312   4.113   5.989   1.607 -0.0795 -0.0712 -0.0823
 6783TIP3    H120313   4.116   5.938   1.527  0.5216  0.8086 -0.6452
 6783TIP3    H220314   4.204   6.018   1.620 -0.0757 -0.5989  1.1795
 6784TIP3   OH220315   3.112   2.395   5.694  0.4427 -0.4353  0.0590
 6784TIP3    H120316   3.094   2.307   5.662  0.4806  0.2293 -1.9743
 6784TIP3    H220317   3.191   2.387   5.747  0.6226 -1.5706 -0.3705
 6785TIP3   OH220318   3.771   6.196   5.534 -0.9228 -0.4344  0.1976
 6785TIP3    H120319   3.798   6.134   5.602 -0.7409 -0.2587  0.2865
 6785TIP3    H220320   3.800   6.281   5.567 -2.6835 -0.0630  0.9085
 6786TIP3   OH220321   0.550   0.850   1.663 -0.0333 -0.8379  0.0081
 6786TIP3    H120322   0.520   0.804   1.584 -0.5179 -0.4941 -0.0165
 6786TIP3    H220323   0.469   0.876   1.707  0.2359 -0.9165  0.5559
 6787TIP3   OH220324   2.113   5.766   1.058 -0.1970 -0.0309  0.0520
 6787TIP3    H120325   2.144   5.680   1.088 -1.7887 -0.7406 -0.1992
 6787TIP3    H220326   2.189   5.807   1.017  0.7563 -1.0547  0.7496
 6788TIP3   OH220327   5.692   4.430   0.895 -0.1862  0.1963  0.1556
 6788TIP3    H120328   5.740   4.411   0.814  0.8281  0.2869  0.7202
 6788TIP3    H220329   5.616   4.481   0.866  2.0244  3.4901 -0.4555
 6789TIP3   OH220330   5.027   0.809   1.110  0.0283  0.1247 -0.1950
 6789TIP3    H120331   5.046   0.762   1.028  0.6105  1.9496 -1.1643
 6789TIP3    H220332   4.952   0.864   1.090  0.6932  1.2116  0.2405
 6790TIP3   OH220333   6.472   4.185   1.162  0.4373  0.4203  0.2248
 6790TIP3    H120334   6.479   4.117   1.095  0.1015  2.8492 -2.4752
 6790TIP3    H220335   6.533   4.253   1.134  0.1659  1.6428  2.3617
 6791TIP3   OH220336   6.109   0.471   0.376  0.1841 -0.5239  0.4294
 6791TIP3    H120337   6.050   0.415   0.327  0.9677 -3.1523  2.2601
 6791TIP3    H220338   6.197   0.441   0.352  0.6732  0.6192  0.7189
 6792TIP3   OH220339   7.050   6.492   0.363 -0.0925  0.1130 -0.1084
 6792TIP3    H120340   7.063   6.406   0.322  0.2800 -1.4470  2.9470
 6792TIP3    H220341   6.955   6.500   0.372 -0.0816 -0.7947  1.0447
 6793TIP3   OH220342   0.461   5.570   2.493 -0.2068  0.2719  0.3437
 6793TIP3    H120343   0.495   5.594   2.580 -0.6303  0.7265  0.3898
 6793TIP3    H220344   0.397   5.638   2.473 -0.2566  0.0565 -0.2423
 6794TIP3   OH220345   4.184   0.524   4.773 -0.0759 -0.4863  0.0470
 6794TIP3    H120346   4.167   0.430   4.781 -0.4261 -0.4143  0.1777
 6794TIP3    H220347   4.205   0.538   4.681 -0.8458 -0.5660 -0.1515
 6795TIP3   OH220348   6.980   0.952   3.348  0.0173  0.4396 -0.3725
 6795TIP3    H120349   6.922   0.973   3.421  0.6860 -1.3374  0.7233
 6795TIP3    H220350   6.939   0.878   3.305  0.1446  0.8477 -1.2204
 6796TIP3   OH220351   6.509   2.476   5.766 -0.2788  0.1365 -0.4202
 6796TIP3    H120352   6.557   2.490   5.684 -0.5850 -0.6889 -0.7448
 6796TIP3    H220353   6.569   2.424   5.820  0.2596  1.3718  0.2189
 6797TIP3   OH220354   6.511   6.104   3.021  0.6005  0.0403  0.0632
 6797TIP3    H120355   6.596   6.127   3.057  0.3728  0.6860  0.1875
 6797TIP3    H220356   6.470   6.050   3.088  0.5929  0.3883  0.3396
 6798TIP3   OH220357   0.682   6.658   0.570  0.3486 -0.0862 -0.3134
 6798TIP3    H120358   0.748   6.718   0.603  0.1312 -0.1751  0.3112
 6798TIP3    H220359   0.606   6.673   0.626  0.1513 -0.6408 -0.4190
 6799TIP3   OH220360   5.091   2.006   3.936 -0.4442 -0.1824  0.1375
 6799TIP3    H120361   5.088   1.927   3.882  0.0723 -0.9601  1.2134
 6799TIP3    H220362   5.054   1.979   4.020  0.1074  0.6173  0.6472
 6800TIP3   OH220363   2.929   4.428   3.388 -0.0144  0.2908 -0.3293
 6800TIP3    H120364   2.866   4.490   3.424  0.5658  0.3009  0.6803
 6800TIP3    H220365   2.960   4.377   3.463  0.8049 -0.0556 -0.8800
 6801TIP3   OH220366   4.974   6.626   4.200 -0.7163 -0.2602 -0.4444
 6801TIP3    H120367   5.022   6.668   4.272  0.0622 -0.3562 -0.9003
 6801TIP3    H220368   5.038   6.569   4.158 -2.4685 -4.9365  2.3727
 6802TIP3   OH220369   4.073   4.035   3.221 -0.1529  0.2261  0.0458
 6802TIP3    H120370   4.099   4.125   3.244  2.4423 -0.7127  1.1179
 6802TIP3    H220371   4.131   4.011   3.149 -0.3633 -0.8335  0.2183
 6803TIP3   OH220372   0.638   4.815   2.706 -0.0036 -0.2072 -0.1076
 6803TIP3    H120373   0.724   4.854   2.694  1.5448 -3.2830 -0.0747
 6803TIP3    H220374   0.644   4.770   2.790 -1.0385 -1.7871 -0.8342
 6804TIP3   OH220375   2.119   5.923   5.819  0.1014  0.5589 -0.2616
 6804TIP3    H120376   2.170   5.866   5.761  1.1429 -1.1988  2.2081
 6804TIP3    H220377   2.185   5.975   5.864 -0.6469  1.4779 -0.2137
 6805TIP3   OH220378   5.280   6.745   5.163 -0.4815  0.0550 -0.1858
 6805TIP3    H120379   5.224   6.737   5.240 -1.2182 -0.0580 -0.7239
 6805TIP3    H220380   5.361   6.785   5.196 -0.9748  0.4562  0.5501
 6806TIP3   OH220381   5.820   4.787   4.119  0.0878  0.4413 -0.3657
 6806TIP3    H120382   5.800   4.755   4.031 -1.6287 -1.2411  0.5665
 6806TIP3    H220383   5.915   4.780   4.126  0.1411 -0.5379 -1.6696
 6807TIP3   OH220384   6.666   5.926   5.608  0.1080  0.0375 -0.0065
 6807TIP3    H120385   6.602   5.918   5.538  0.0110  1.4034 -0.0909
 6807TIP3    H220386   6.749   5.944   5.564  0.3209 -0.5050  0.1645
 6808TIP3   OH220387   5.035   2.249   2.566  0.4771 -0.0088  0.0019
 6808TIP3    H120388   4.960   2.244   2.507  1.0381 -0.4998 -0.6924
 6808TIP3    H220389   4.999   2.229   2.652  0.0555 -1.9424 -0.5627
 6809TIP3   OH220390   0.252   0.529   3.452 -0.8821  0.4850  0.3895
 6809TIP3    H120391   0.341   0.564   3.454 -0.9791  0.7148  0.7918
 6809TIP3    H220392   0.218   0.553   3.366 -0.3861 -0.0373  0.0397
 6810TIP3   OH220393   1.081   5.192   1.317  0.1162 -0.3871  0.2140
 6810TIP3    H120394   1.088   5.265   1.379  0.5042 -0.3185  0.0903
 6810TIP3    H220395   1.045   5.120   1.369 -0.3920 -0.0669  0.3025
 6811TIP3   OH220396   0.520   3.726   1.661 -0.8512 -0.0294 -0.1966
 6811TIP3    H120397   0.461   3.693   1.728 -0.1873  0.5310  0.6861
 6811TIP3    H220398   0.552   3.648   1.616  0.4467 -0.5978  1.6422
 6812TIP3   OH220399   2.511   3.844   3.010  0.3604  0.1015  0.5300
 6812TIP3    H120400   2.524   3.806   2.924  0.0108 -0.7151  0.8269
 6812TIP3    H220401   2.535   3.936   3.000  1.2049 -0.1871 -0.2045
 6813TIP3   OH220402   7.011   5.878   2.614  0.2039 -0.3766  0.2959
 6813TIP3    H120403   7.099   5.899   2.583 -0.2790 -0.3607 -1.1214
 6813TIP3    H220404   6.960   5.867   2.535 -0.7316 -1.9418  1.0806
 6814TIP3   OH220405   1.867   3.239   3.662  0.3922  0.3251 -0.6974
 6814TIP3    H120406   1.920   3.215   3.586  1.4206 -0.5025  0.2462
 6814TIP3    H220407   1.825   3.157   3.689 -0.0946  0.6446 -0.4731
 6815TIP3   OH220408   4.771   3.482   1.533  0.2924 -0.6856 -0.3330
 6815TIP3    H120409   4.727   3.413   1.583 -2.1125 -0.2848 -1.7364
 6815TIP3    H220410   4.839   3.436   1.484 -0.5862 -1.9287 -0.4588
 6816TIP3   OH220411   6.690   6.536   1.024  0.3384 -0.0579  0.1394
 6816TIP3    H120412   6.771   6.512   0.978  0.1683 -0.0225 -0.1784
 6816TIP3    H220413   6.720   6.582   1.102  0.6102  1.3448 -0.7529
 6817TIP3   OH220414   7.209   1.654  -0.002  0.2492 -0.1799 -0.0127
 6817TIP3    H120415   7.234   1.638   0.089 -0.0740  0.2689  0.1511
 6817TIP3    H220416   7.164   1.573  -0.029  0.3033 -0.2930  0.2354
 6818TIP3   OH220417   2.762   3.863   4.741  0.0431  0.6906 -0.6934
 6818TIP3    H120418   2.731   3.903   4.660 -0.5762  0.1789 -0.7189
 6818TIP3    H220419   2.703   3.896   4.808  1.6649  2.5832 -0.1047
 6819TIP3   OH220420   5.995   2.809   3.232 -0.0918 -0.0684 -0.4463
 6819TIP3    H120421   5.920   2.868   3.238 -0.9328 -1.1936  0.4397
 6819TIP3    H220422   5.977   2.740   3.295  2.8050  0.8024  1.5222
 6820TIP3   OH220423   1.572   0.459   4.688 -0.3271 -0.2998  0.2859
 6820TIP3    H120424   1.508   0.526   4.711 -0.3686 -0.0930 -0.4070
 6820TIP3    H220425   1.625   0.448   4.766  0.9343  1.9454 -0.1803
 6821TIP3   OH220426   7.001   6.017   5.844  0.4641  0.0840  0.4836
 6821TIP3    H120427   7.009   6.064   5.761 -0.8641  0.9205  0.8057
 6821TIP3    H220428   7.091   5.989   5.864  0.7044 -0.7709 -1.5716
 6822TIP3   OH220429   4.796   2.739   5.475  0.3699  0.1623  0.1907
 6822TIP3    H120430   4.721   2.699   5.519  0.1738  0.5714  0.2431
 6822TIP3    H220431   4.872   2.702   5.518  0.1772  1.2180  1.5046
 6823TIP3   OH220432   4.004   2.557   2.467  0.1086 -0.2842  0.0662
 6823TIP3    H120433   4.070   2.520   2.525  0.1658  1.0149  0.8720
 6823TIP3    H220434   4.053   2.617   2.410  0.1806 -2.1216 -1.9138
 6824TIP3   OH220435   5.183   5.004   4.468 -0.3137 -0.4829  0.3685
 6824TIP3    H120436   5.215   4.915   4.457 -1.0171 -1.0659  2.4473
 6824TIP3    H220437   5.262   5.058   4.467  0.1554 -1.1635 -0.5045
 6825TIP3   OH220438   5.020   5.589   2.950 -0.3581  0.4761 -0.5502
 6825TIP3    H120439   5.113   5.610   2.944  0.1756 -1.0142  1.3257
 6825TIP3    H220440   4.993   5.567   2.861  0.4848  3.0198 -1.5263
 6826TIP3   OH220441   2.839   0.226  -0.001  0.4059  0.0612  0.2050
 6826TIP3    H120442   2.907   0.159   0.003 -0.3002 -0.6057  1.9846
 6826TIP3    H220443   2.763   0.185   0.040 -1.0385  0.8433 -1.5925
 6827TIP3   OH220444   1.698   3.545   2.017 -0.2127  0.1129 -0.3770
 6827TIP3    H120445   1.732   3.550   2.106 -1.1257  1.3710 -0.0610
 6827TIP3    H220446   1.766   3.586   1.963  0.1810 -0.3192 -0.2136
 6828TIP3   OH220447   0.013   2.492   2.749  0.1186  0.5771 -0.6764
 6828TIP3    H120448  -0.024   2.436   2.818 -0.3562  0.8567 -0.6984
 6828TIP3    H220449   0.037   2.431   2.679  2.5186  0.0269  0.5121
 6829TIP3   OH220450   2.714   5.040   3.157  0.2460  0.0683  0.2425
 6829TIP3    H120451   2.775   4.976   3.120  0.8117 -0.0112  1.2782
 6829TIP3    H220452   2.771   5.106   3.196 -0.3202  1.2603 -0.8551
 6830TIP3   OH220453   5.037   1.950   0.833  0.0821 -0.2728 -0.0481
 6830TIP3    H120454   5.131   1.934   0.826  0.0434 -0.2754 -0.6669
 6830TIP3    H220455   5.008   1.962   0.742 -0.7324 -1.5429  0.0037
 6831TIP3   OH220456   3.155   6.429   1.723  0.3282 -0.0963 -0.5510
 6831TIP3    H120457   3.149   6.436   1.628  0.7391  0.0381 -0.5663
 6831TIP3    H220458   3.207   6.504   1.750  0.0999 -0.0601 -0.2066
 6832TIP3   OH220459   4.009   2.716   4.595 -0.2658 -0.2635 -0.4843
 6832TIP3    H120460   3.936   2.740   4.652  1.2062  0.2752  1.2879
 6832TIP3    H220461   4.049   2.641   4.638  0.3177 -0.4607 -1.3435
 6833TIP3   OH220462   0.808   3.363   1.509  0.2631  0.0480 -0.5778
 6833TIP3    H120463   0.880   3.309   1.543  0.4995  1.1506  0.8166
 6833TIP3    H220464   0.808   3.347   1.415  0.6829 -1.9029 -0.2905
 6834TIP3   OH220465   4.582   4.966   1.255  0.1981  0.3906  0.1380
 6834TIP3    H120466   4.530   4.949   1.177 -0.8060  1.2486  0.5928
 6834TIP3    H220467   4.577   4.884   1.305 -0.5143  0.3714  0.0528
 6835TIP3   OH220468   0.951   0.234   5.102 -0.0159 -0.5551 -0.5635
 6835TIP3    H120469   0.974   0.270   5.017 -1.3881  0.0827 -0.6963
 6835TIP3    H220470   1.007   0.280   5.164 -0.5279  0.5875 -0.9186
 6836TIP3   OH220471   1.751   5.505   0.221  0.0527  0.2509 -0.2783
 6836TIP3    H120472   1.799   5.586   0.237  1.4264 -0.4192 -0.8632
 6836TIP3    H220473   1.681   5.505   0.288  0.4973  1.5233  0.2201
 6837TIP3   OH220474   7.091   0.006   1.315  0.1104  0.5403 -0.3081
 6837TIP3    H120475   7.119   0.039   1.401  0.0009 -0.7556  0.2565
 6837TIP3    H220476   7.033   0.074   1.281  1.7328  2.0219 -0.2798
 6838TIP3   OH220477   6.459   0.847   3.598  0.1095  0.1576 -0.3203
 6838TIP3    H120478   6.382   0.809   3.556 -1.6301  0.0418  2.6826
 6838TIP3    H220479   6.425   0.921   3.649  1.7113 -0.6212  2.0594
 6839TIP3   OH220480   4.241   3.245   1.645 -0.2863 -0.0386 -0.1904
 6839TIP3    H120481   4.323   3.249   1.596 -0.9509  0.0206 -1.3431
 6839TIP3    H220482   4.238   3.327   1.694  0.5061 -0.2053  0.1548
 6840TIP3   OH220483   1.706   0.673   2.579 -0.0144 -0.4393 -0.2647
 6840TIP3    H120484   1.656   0.711   2.507  0.2618 -0.5199 -0.5056
 6840TIP3    H220485   1.712   0.743   2.644 -0.9182 -0.6133  0.0130
 6841TIP3   OH220486   5.651   1.957   1.303  0.1403  0.3356  0.2545
 6841TIP3    H120487   5.592   2.008   1.359 -0.0065  1.8664 -1.2314
 6841TIP3    H220488   5.733   2.007   1.303  0.9208 -0.9023  0.9677
 6842TIP3   OH220489   5.681   5.605   5.332 -0.2257 -0.0140  0.0382
 6842TIP3    H120490   5.667   5.518   5.295  0.1520 -0.0539 -0.0112
 6842TIP3    H220491   5.648   5.599   5.422 -1.2160  0.1047 -0.3051
 6843TIP3   OH220492   3.383   4.875   2.373 -0.2026 -0.0458  0.3422
 6843TIP3    H120493   3.294   4.896   2.401  0.0883  0.4926  0.8845
 6843TIP3    H220494   3.380   4.782   2.350 -1.1446  0.2148 -0.6283
 6844TIP3   OH220495   5.253   1.626   5.174  0.2228 -0.2288 -0.3367
 6844TIP3    H120496   5.282   1.563   5.239  1.5660 -0.0713 -0.7550
 6844TIP3    H220497   5.265   1.581   5.090  0.8067  0.4315 -0.6125
 6845TIP3   OH220498   2.026   4.387   5.634  0.4016 -0.3391 -0.0710
 6845TIP3    H120499   1.996   4.365   5.545  0.7719  1.6982 -0.7510
 6845TIP3    H220500   2.040   4.302   5.676 -1.3166 -1.3573 -1.4238
 6846TIP3   OH220501   6.541   0.796   0.669  0.0671 -0.4492  0.2302
 6846TIP3    H120502   6.519   0.711   0.632 -1.5597 -0.4851  1.1697
 6846TIP3    H220503   6.637   0.797   0.675  0.3036 -1.0503 -2.4272
 6847TIP3   OH220504   1.961   0.389   1.153  0.2022 -0.0913  0.6310
 6847TIP3    H120505   1.952   0.379   1.058  0.9211 -1.3327  0.6632
 6847TIP3    H220506   1.874   0.371   1.188 -0.3724  1.5926  0.1550
 6848TIP3   OH220507   5.229   0.075   3.446 -0.3317  0.2543  0.4879
 6848TIP3    H120508   5.262   0.000   3.396  0.9109 -1.2600  3.3046
 6848TIP3    H220509   5.254   0.152   3.394  0.6374 -1.1779 -1.2911
 6849TIP3   OH220510   3.059   2.633   2.718  0.2335  0.3772 -0.2065
 6849TIP3    H120511   2.985   2.694   2.713  1.2144  1.6865  0.3885
 6849TIP3    H220512   3.080   2.629   2.812  1.6578  1.0000 -0.4681
 6850TIP3   OH220513   2.865   5.321   1.836 -0.2527 -0.2307  0.0211
 6850TIP3    H120514   2.929   5.298   1.903 -0.9187  1.9433  1.5053
 6850TIP3    H220515   2.916   5.332   1.756  1.0023  0.0485  0.8447
 6851TIP3   OH220516   2.539   2.248   0.112  0.1310  0.5367 -0.5189
 6851TIP3    H120517   2.455   2.287   0.140  0.0904 -0.2317  0.4694
 6851TIP3    H220518   2.562   2.188   0.183  0.8979 -0.1934 -1.3723
 6852TIP3   OH220519   3.966   5.415   0.666  0.0145 -0.0329 -0.1824
 6852TIP3    H120520   4.008   5.499   0.646  1.3573 -0.7204 -0.3592
 6852TIP3    H220521   3.885   5.439   0.712  0.0870  1.3658 -0.7332
 6853TIP3   OH220522   5.205   5.662   4.964  0.2619 -0.0152 -0.1162
 6853TIP3    H120523   5.195   5.589   4.903  1.8960  0.9883 -1.6903
 6853TIP3    H220524   5.129   5.718   4.947 -1.3215 -1.5507  1.5141
 6854TIP3   OH220525   3.038   3.197   4.679  0.3318 -0.4922  0.4583
 6854TIP3    H120526   3.008   3.132   4.615 -1.4528 -0.8941  1.6252
 6854TIP3    H220527   3.035   3.281   4.633 -0.5761 -0.8234 -0.0926
 6855TIP3   OH220528   4.829   6.197   2.144 -0.1467 -0.1183 -0.1276
 6855TIP3    H120529   4.840   6.149   2.226 -0.1048 -0.8324 -0.5430
 6855TIP3    H220530   4.808   6.286   2.171 -0.3341 -0.3933  0.6552
 6856TIP3   OH220531   6.922   0.894   4.863 -0.1042 -0.3734 -0.3408
 6856TIP3    H120532   6.871   0.918   4.941  0.4042 -0.1631 -0.0748
 6856TIP3    H220533   6.938   0.977   4.818 -0.3742 -0.4918 -0.6605
 6857TIP3   OH220534   4.768   0.796   1.297  0.3774  0.1906 -0.3306
 6857TIP3    H120535   4.785   0.890   1.301  1.5730 -0.0217 -0.0808
 6857TIP3    H220536   4.684   0.784   1.342  0.5586  1.0561  0.2440
 6858TIP3   OH220537   4.995   4.519   1.010 -0.0891 -0.5898  0.3688
 6858TIP3    H120538   4.966   4.550   1.096 -0.0458  0.4606  0.0188
 6858TIP3    H220539   4.932   4.451   0.987 -0.4188 -0.5091  0.9942
 6859TIP3   OH220540   5.670   5.002   5.749 -0.0143 -0.6532 -0.1928
 6859TIP3    H120541   5.732   5.074   5.757 -1.1862  0.3342  0.3511
 6859TIP3    H220542   5.721   4.931   5.709  1.3335  0.2505 -0.1604
 6860TIP3   OH220543   1.696   1.761   4.018  0.1177 -0.1509 -0.6027
 6860TIP3    H120544   1.747   1.680   4.025 -0.2567 -0.2799  1.1121
 6860TIP3    H220545   1.636   1.758   4.093  0.0113  1.6675 -0.5739
 6861TIP3   OH220546   6.017   0.560   2.940  0.9005 -0.0034  0.0500
 6861TIP3    H120547   6.076   0.561   3.015  0.2888 -0.2615  0.5384
 6861TIP3    H220548   5.977   0.647   2.940 -1.5460 -1.0209  2.0075
 6862TIP3   OH220549   3.736   1.185   0.986 -0.3010  0.6050 -0.5881
 6862TIP3    H120550   3.717   1.210   1.077  0.4154 -0.2786 -0.1748
 6862TIP3    H220551   3.724   1.266   0.936  2.3894  1.9512  0.7504
 6863TIP3   OH220552   0.175   4.579   0.303  0.3355  0.0569 -0.6360
 6863TIP3    H120553   0.134   4.621   0.378  0.6407  0.8604 -0.9146
 6863TIP3    H220554   0.173   4.645   0.234 -0.2340 -0.7731 -1.4420
 6864TIP3   OH220555   2.257   3.140   2.834 -0.2953 -0.8683 -0.2712
 6864TIP3    H120556   2.336   3.178   2.795  1.3081 -3.4247  0.2826
 6864TIP3    H220557   2.268   3.155   2.928 -1.4857  0.4529 -0.3008
 6865TIP3   OH220558   1.192   5.945   4.010 -0.5321  0.2739 -0.1707
 6865TIP3    H120559   1.102   5.928   3.984 -0.7728  1.2937 -0.0780
 6865TIP3    H220560   1.184   5.997   4.091  0.0772  1.7833 -1.0253
 6866TIP3   OH220561   4.479   1.245   3.283  0.8864  0.5559  0.0033
 6866TIP3    H120562   4.391   1.281   3.279  1.1559  1.2642  0.3192
 6866TIP3    H220563   4.477   1.185   3.358 -0.1977 -1.8833 -1.8511
 6867TIP3   OH220564   3.525   6.470   0.222  0.3497 -0.4256  0.5935
 6867TIP3    H120565   3.557   6.558   0.242  0.1748 -0.0568 -0.6349
 6867TIP3    H220566   3.567   6.413   0.286  1.0361  0.4642  0.9418
 6868TIP3   OH220567   4.558   0.776   0.646  0.3303  0.5621 -0.4341
 6868TIP3    H120568   4.515   0.773   0.731  0.5944  0.3845 -0.3058
 6868TIP3    H220569   4.519   0.704   0.596  1.8300 -0.8447  0.3319
 6869TIP3   OH220570   1.181   3.889   2.238 -0.6389  0.2397  0.2967
 6869TIP3    H120571   1.208   3.799   2.221  0.0942  0.2480  1.3260
 6869TIP3    H220572   1.115   3.881   2.308  0.2127  0.5588  1.1601
 6870TIP3   OH220573   5.996   3.146   3.042  0.1122  0.0620 -0.1708
 6870TIP3    H120574   5.921   3.128   3.099 -0.1966  0.2297 -0.5206
 6870TIP3    H220575   5.969   3.111   2.956 -0.5106  2.1550 -0.8835
 6871TIP3   OH220576   4.690   2.707   1.513 -0.2145  0.4774 -0.1339
 6871TIP3    H120577   4.651   2.756   1.441 -2.1716 -1.1584 -0.2764
 6871TIP3    H220578   4.641   2.734   1.590  1.9216  2.2773  0.6918
 6872TIP3   OH220579   5.264   1.569   2.041 -0.0354  0.1013 -0.1344
 6872TIP3    H120580   5.333   1.546   2.104  0.8637 -0.3723 -1.2494
 6872TIP3    H220581   5.199   1.616   2.092  0.2198 -1.0805  1.3370
 6873TIP3   OH220582   3.691   1.464   2.339  0.8979 -0.5730 -0.5361
 6873TIP3    H120583   3.659   1.530   2.278 -1.2063 -0.7009  0.3327
 6873TIP3    H220584   3.733   1.514   2.409 -1.1304 -0.0288  0.3745
 6874TIP3   OH220585   5.109   4.297   5.392  0.6914  0.0239  0.3497
 6874TIP3    H120586   5.033   4.353   5.407  0.9580  0.5521 -0.2325
 6874TIP3    H220587   5.177   4.333   5.448  0.8868  0.3505 -0.0843
 6875TIP3   OH220588   2.887   6.464   3.594  0.1269  0.0229 -0.3044
 6875TIP3    H120589   2.804   6.494   3.559  1.1922  0.8701 -2.2843
 6875TIP3    H220590   2.887   6.494   3.685 -1.1374  1.2453 -0.6726
 6876TIP3   OH220591   2.546   2.890   4.403 -0.2131  0.1826  0.9419
 6876TIP3    H120592   2.541   2.983   4.383  2.0713  0.1196 -0.2129
 6876TIP3    H220593   2.557   2.847   4.318  2.5397 -0.7603  1.6644
 6877TIP3   OH220594   1.957   1.574   4.477 -0.0899  0.5972  0.1214
 6877TIP3    H120595   1.903   1.518   4.532  0.9959 -0.4987  0.1143
 6877TIP3    H220596   1.992   1.515   4.410 -0.8006  1.7526 -1.3359
 6878TIP3   OH220597   5.911   4.801   4.909 -0.0658 -0.1298  0.5131
 6878TIP3    H120598   5.918   4.821   5.002 -0.5026  0.5894  0.4023
 6878TIP3    H220599   5.957   4.718   4.899 -1.4074 -1.0653  1.6593
 6879TIP3   OH220600   0.649   5.344   4.309 -0.1803  0.1875 -0.2452
 6879TIP3    H120601   0.687   5.285   4.374 -0.7752  0.2688  0.1820
 6879TIP3    H220602   0.555   5.337   4.322 -0.2792  0.7171 -0.6467
 6880TIP3   OH220603   4.740   1.924   4.329  0.4195 -0.3053 -0.7909
 6880TIP3    H120604   4.653   1.898   4.298  0.4474 -0.2499 -0.9176
 6880TIP3    H220605   4.737   2.019   4.332 -0.5209 -0.3392  2.0853
 6881TIP3   OH220606   2.353   0.182   3.518  0.5364 -0.4686  0.1913
 6881TIP3    H120607   2.358   0.086   3.527  1.8908 -0.3740  0.5673
 6881TIP3    H220608   2.304   0.211   3.595  0.8805 -0.7899  0.5355
 6882TIP3   OH220609   0.718   6.256   3.023 -0.0497  0.2422  0.4810
 6882TIP3    H120610   0.676   6.191   3.078 -1.4877 -0.5235 -1.3869
 6882TIP3    H220611   0.701   6.340   3.066 -1.0439 -0.3321  1.2244
 6883TIP3   OH220612   4.721   4.240  -0.017  0.2733  0.4473 -0.7722
 6883TIP3    H120613   4.746   4.321   0.027 -2.1597  0.2529  1.1894
 6883TIP3    H220614   4.777   4.173   0.022 -0.2827  0.6446  0.4121
 6884TIP3   OH220615   2.672   5.987   2.445 -0.1978 -0.3670  0.9013
 6884TIP3    H120616   2.592   5.987   2.393  0.5925 -0.4673 -0.3482
 6884TIP3    H220617   2.655   5.923   2.514 -0.8458 -1.1056  0.0936
 6885TIP3   OH220618   2.180   5.967   4.406  0.7539  0.2037  0.3352
 6885TIP3    H120619   2.167   5.975   4.312 -1.6546 -1.6730  0.4140
 6885TIP3    H220620   2.128   6.038   4.444 -0.3483 -0.5431  0.2779
 6886TIP3   OH220621   5.580   6.607   5.086 -0.0304  0.2726 -0.3320
 6886TIP3    H120622   5.639   6.634   5.016 -1.4220  1.4935 -1.0750
 6886TIP3    H220623   5.548   6.689   5.124 -1.5758 -0.3350 -0.2424
 6887TIP3   OH220624   3.922   1.455   4.113 -0.2399  0.2971 -0.0780
 6887TIP3    H120625   3.943   1.369   4.077 -1.1913 -0.3397  0.8337
 6887TIP3    H220626   3.972   1.461   4.194 -0.0001  0.7026 -0.2516
 6888TIP3   OH220627   3.564   4.753   2.838  0.1781  1.0542 -0.2083
 6888TIP3    H120628   3.481   4.775   2.797 -0.7506  1.1701  1.6496
 6888TIP3    H220629   3.576   4.660   2.818 -1.5366  0.4481  1.3114
 6889TIP3   OH220630   1.769   5.276   2.488 -0.9219  0.8637 -0.2562
 6889TIP3    H120631   1.726   5.277   2.574 -0.4397  0.4015 -0.0041
 6889TIP3    H220632   1.704   5.237   2.430 -1.1869  1.0180 -0.0705
 6890TIP3   OH220633   4.632   6.012   5.253 -0.3623 -0.3565  0.0501
 6890TIP3    H120634   4.624   6.107   5.258  2.0227 -0.0235 -0.9330
 6890TIP3    H220635   4.542   5.981   5.248 -1.1955  1.9036 -0.4178
 6891TIP3   OH220636   4.911   0.235   1.464  0.1087  0.0894  0.7675
 6891TIP3    H120637   4.914   0.327   1.490  0.6015  0.3274 -0.0869
 6891TIP3    H220638   4.999   0.202   1.485 -0.1071 -0.2273  1.1921
 6892TIP3   OH220639   0.836   3.069   2.042  0.2104  0.7161 -0.4956
 6892TIP3    H120640   0.927   3.065   2.073  0.1161  0.4591 -0.2418
 6892TIP3    H220641   0.791   3.121   2.109  0.1204  0.6346 -0.4930
 6893TIP3   OH220642   6.081   3.939   0.780 -0.2900  0.8252 -0.2327
 6893TIP3    H120643   6.011   3.973   0.724 -0.2242  1.5973  0.1262
 6893TIP3    H220644   6.138   3.890   0.722 -2.0045 -1.2605 -0.2678
 6894TIP3   OH220645   3.841   4.732   3.791  0.1225 -0.0842  0.5437
 6894TIP3    H120646   3.812   4.815   3.829  1.2704  0.1957  0.8687
 6894TIP3    H220647   3.781   4.667   3.826 -1.3453  0.7083 -0.4080
 6895TIP3   OH220648   6.372   0.635   4.351 -0.6882  0.1795  0.2817
 6895TIP3    H120649   6.364   0.587   4.269  0.2656  1.5803 -0.6791
 6895TIP3    H220650   6.424   0.578   4.408  0.0059 -0.1563 -0.6595
 6896TIP3   OH220651   5.319   3.310   4.284  0.3673  0.5427 -0.0420
 6896TIP3    H120652   5.231   3.280   4.260  0.5215 -0.8558  1.0065
 6896TIP3    H220653   5.304   3.385   4.342 -0.1685 -0.0991  0.6682
 6897TIP3   OH220654   4.553   3.330   0.812  0.0035 -0.2941 -0.6461
 6897TIP3    H120655   4.496   3.402   0.787  0.5226  0.1536 -0.5527
 6897TIP3    H220656   4.567   3.281   0.731  0.2641  0.1470 -0.8732
 6898TIP3   OH220657   1.720   2.549   3.241 -0.1767 -0.4860  0.1891
 6898TIP3    H120658   1.666   2.617   3.202 -2.6877 -0.8717  2.7336
 6898TIP3    H220659   1.800   2.594   3.268 -1.6901  1.5098  1.6486
 6899TIP3   OH220660   0.447   6.663   0.107 -0.0177 -0.1142  0.4463
 6899TIP3    H120661   0.496   6.582   0.125 -1.0993 -0.9728 -0.3330
 6899TIP3    H220662   0.481   6.726   0.171  1.6127 -0.8571  0.3620
 6900TIP3   OH220663   6.733   2.616   4.974  0.3115  0.0160  0.6748
 6900TIP3    H120664   6.788   2.550   5.017  2.6806  1.3193 -0.1677
 6900TIP3    H220665   6.655   2.621   5.029  0.7747 -2.2877  1.6706
 6901TIP3   OH220666   0.220   2.708   1.341 -0.1435 -0.4129 -0.1481
 6901TIP3    H120667   0.268   2.748   1.268  0.3176 -1.1250 -0.2489
 6901TIP3    H220668   0.133   2.747   1.337  0.4328  0.9467  0.0625
 6902TIP3   OH220669   0.890   6.738   3.479  0.3481  0.8984  0.3516
 6902TIP3    H120670   0.853   6.714   3.564  0.0616 -1.3928 -0.3578
 6902TIP3    H220671   0.875   6.662   3.424 -0.6967  2.8220 -2.1943
 6903TIP3   OH220672   5.528   5.389   4.352  0.0633 -0.0422 -0.2750
 6903TIP3    H120673   5.576   5.351   4.279  0.7483  0.8844 -0.3338
 6903TIP3    H220674   5.509   5.479   4.324 -0.5645  0.0068  0.2756
 6904TIP3   OH220675   0.679   2.175   1.246  0.4791  0.5050  0.4560
 6904TIP3    H120676   0.669   2.202   1.338  0.6043 -1.4191  1.0793
 6904TIP3    H220677   0.597   2.202   1.205 -0.4118 -0.3333  1.6134
 6905TIP3   OH220678   0.470   4.328   5.197 -0.3386  0.2914 -0.5553
 6905TIP3    H120679   0.531   4.259   5.223 -1.7747  0.1453  3.0542
 6905TIP3    H220680   0.525   4.401   5.170  1.3313 -0.8900 -0.4558
 6906TIP3   OH220681   1.775   2.667   3.834 -0.6722 -0.0375  0.0300
 6906TIP3    H120682   1.813   2.584   3.864  0.1029  0.5874  0.8103
 6906TIP3    H220683   1.754   2.652   3.742  0.9739 -0.5765 -0.2857
 6907TIP3   OH220684   3.995   1.548   3.158 -0.0089 -0.1504  0.4876
 6907TIP3    H120685   3.954   1.462   3.158  0.7413 -0.5238 -0.2405
 6907TIP3    H220686   4.032   1.557   3.246  0.3220 -0.7756  0.4156
 6908TIP3   OH220687   4.784   5.167   1.390  0.2098  0.0070 -0.3348
 6908TIP3    H120688   4.866   5.134   1.426  0.2626 -0.3066 -0.7267
 6908TIP3    H220689   4.804   5.184   1.298  0.2089  1.2308 -0.1189
 6909TIP3   OH220690   6.409   5.539   2.658 -0.0072  0.1194  0.0256
 6909TIP3    H120691   6.317   5.545   2.631  0.1457  0.2159 -0.4905
 6909TIP3    H220692   6.451   5.493   2.585  0.1183 -1.0861  0.8273
 6910TIP3   OH220693   4.370   0.328   2.737 -0.1189  0.4932 -0.4602
 6910TIP3    H120694   4.397   0.326   2.646 -1.3709  1.6305 -0.8906
 6910TIP3    H220695   4.390   0.240   2.770  0.9775  0.2835 -1.6247
 6911TIP3   OH220696   5.800   5.168   0.065 -0.1575  0.5243  0.2995
 6911TIP3    H120697   5.881   5.151   0.114  0.2765  2.5009  0.3681
 6911TIP3    H220698   5.812   5.121  -0.017  1.1058  0.8263  0.2801
 6912TIP3   OH220699   1.781   0.482   5.295  0.0098 -0.7128  0.0600
 6912TIP3    H120700   1.789   0.547   5.365  0.5956 -0.4745 -0.2187
 6912TIP3    H220701   1.703   0.431   5.318  0.1305 -0.5662  0.8205
 6913TIP3   OH220702   3.034   4.534   2.063 -1.0448  0.1564  0.0885
 6913TIP3    H120703   3.124   4.520   2.033 -0.5546  1.4721  0.8483
 6913TIP3    H220704   3.043   4.547   2.158 -2.3361 -2.1203  0.5723
 6914TIP3   OH220705   1.108   6.502   4.350 -0.2723  0.4361  0.5482
 6914TIP3    H120706   1.043   6.568   4.327 -1.0739 -0.5970 -0.2071
 6914TIP3    H220707   1.192   6.544   4.331 -0.8214  0.6049 -1.7443
 6915TIP3   OH220708   3.590   1.245   0.360  0.2228  0.3550 -0.6225
 6915TIP3    H120709   3.504   1.283   0.339 -0.0754 -0.2950 -0.5839
 6915TIP3    H220710   3.632   1.231   0.276  1.0299  2.3001 -0.6162
 6916TIP3   OH220711   3.923   5.432   1.243  0.2719  0.3473 -0.5494
 6916TIP3    H120712   3.943   5.338   1.240  0.3276  0.3573 -0.5117
 6916TIP3    H220713   3.836   5.437   1.282 -0.7900  0.1817 -2.7852
 6917TIP3   OH220714   2.325   2.436   2.287  0.3722  0.4817 -0.0409
 6917TIP3    H120715   2.283   2.501   2.229  0.4733 -0.2906 -1.0113
 6917TIP3    H220716   2.370   2.489   2.353 -0.7960  1.3600  0.0822
 6918TIP3   OH220717   5.519   2.237   5.078 -0.2284 -0.3989 -0.5870
 6918TIP3    H120718   5.487   2.175   5.143 -2.0799  1.2493  0.1394
 6918TIP3    H220719   5.453   2.306   5.075  2.4937  2.4329 -0.1384
 6919TIP3   OH220720   2.892   6.178   0.929 -0.4324 -0.0302  0.7550
 6919TIP3    H120721   2.961   6.161   0.993  0.8785  0.5573 -0.4307
 6919TIP3    H220722   2.885   6.096   0.880 -1.1686 -0.3562  1.3926
 6920TIP3   OH220723   5.857   2.673   5.564  0.3133 -0.1773 -0.3744
 6920TIP3    H120724   5.810   2.722   5.497  1.0301 -0.9029 -1.4376
 6920TIP3    H220725   5.808   2.592   5.574  0.3098 -0.1486 -0.1503
 6921TIP3   OH220726   0.352   5.427   5.630  0.6767  0.3626  0.3614
 6921TIP3    H120727   0.363   5.349   5.685 -1.2103 -0.7807 -0.7500
 6921TIP3    H220728   0.345   5.392   5.541 -0.3390  1.7795 -0.1616
 6922TIP3   OH220729   6.857   4.655   4.771 -0.1017 -0.1842 -0.0089
 6922TIP3    H120730   6.806   4.706   4.834  0.5802 -0.5308  0.8343
 6922TIP3    H220731   6.801   4.581   4.748 -0.9109  0.6654 -0.8883
 6923TIP3   OH220732   3.586   1.896   0.293 -0.7389  0.3701  0.1716
 6923TIP3    H120733   3.523   1.903   0.221 -0.8747  0.1272  0.2653
 6923TIP3    H220734   3.661   1.948   0.264 -0.3986 -0.5009 -0.5856
 6924TIP3   OH220735   6.175   0.387   3.655  0.2789  0.4516 -0.2479
 6924TIP3    H120736   6.091   0.428   3.676 -0.6837 -1.0887 -0.9651
 6924TIP3    H220737   6.156   0.331   3.580  2.2853  1.1785 -1.3671
 6925TIP3   OH220738   6.376   4.957   5.778 -0.1437  0.2762 -0.0346
 6925TIP3    H120739   6.472   4.947   5.774 -0.2444 -1.2451  0.5742
 6925TIP3    H220740   6.349   4.966   5.687  0.6326  1.4625 -0.1685
 6926TIP3   OH220741   6.581   0.382   1.553  0.1326 -0.5912  0.1594
 6926TIP3    H120742   6.499   0.432   1.561  0.0532 -0.6152 -0.4324
 6926TIP3    H220743   6.646   0.435   1.598 -0.1860 -0.5156  0.5362
 6927TIP3   OH220744   4.084   3.894   4.756  0.4416 -0.0135 -0.1541
 6927TIP3    H120745   4.006   3.841   4.737  1.1952 -1.4505  0.5899
 6927TIP3    H220746   4.107   3.871   4.846  1.3081  0.9519 -0.1100
 6928TIP3   OH220747   6.890   2.151   4.157 -0.8612 -0.1259  0.2147
 6928TIP3    H120748   6.957   2.176   4.221  1.0234 -1.6902 -1.0441
 6928TIP3    H220749   6.892   2.055   4.156 -2.4736 -0.1891 -0.5737
 6929TIP3   OH220750   6.075   1.843   0.679 -0.5698 -0.1297  0.1318
 6929TIP3    H120751   6.024   1.920   0.655 -0.3306  0.1196  0.4063
 6929TIP3    H220752   6.030   1.770   0.637 -0.0551  0.3091 -1.2158
 6930TIP3   OH220753   5.723   6.784   4.919 -0.1109  0.3881 -0.0538
 6930TIP3    H120754   5.809   6.751   4.893 -0.4479 -1.1605  0.6650
 6930TIP3    H220755   5.741   6.852   4.983  0.5892 -0.0616  0.2400
 6931TIP3   OH220756   3.573   5.203   0.274 -0.0015  0.2395 -0.6258
 6931TIP3    H120757   3.529   5.245   0.348  0.2303 -0.9219  0.2118
 6931TIP3    H220758   3.666   5.221   0.288 -0.0666  1.3729 -1.5370
 6932TIP3   OH220759   0.233   0.149   1.984 -0.2728  0.1749 -0.2281
 6932TIP3    H120760   0.281   0.187   2.058  0.0944  1.0871 -0.9179
 6932TIP3    H220761   0.290   0.079   1.953 -0.3451 -0.0950  0.2322
 6933TIP3   OH220762   0.182   1.359   1.795 -0.0328 -0.2128 -0.4282
 6933TIP3    H120763   0.268   1.401   1.795 -0.4388  0.6349 -0.0700
 6933TIP3    H220764   0.179   1.311   1.712  1.5977 -1.9848  0.4302
 6934TIP3   OH220765   4.621   3.343   1.781  0.4192 -0.0924 -0.0388
 6934TIP3    H120766   4.560   3.304   1.843  0.0322  0.5642 -0.0005
 6934TIP3    H220767   4.669   3.408   1.832  0.9816 -0.4246 -0.1299
 6935TIP3   OH220768   5.903   6.567   1.231 -0.0895  0.6721  0.0356
 6935TIP3    H120769   5.910   6.516   1.312 -0.2414  0.5184 -0.0450
 6935TIP3    H220770   5.894   6.501   1.162 -0.3270  0.8085 -0.0673
 6936TIP3   OH220771   4.539   0.887   2.046  0.2378  0.6985  0.2930
 6936TIP3    H120772   4.480   0.824   2.005 -0.0515  0.7821  0.5826
 6936TIP3    H220773   4.482   0.957   2.078  0.6321  1.6086 -0.9103
 6937TIP3   OH220774   3.704   4.085   3.304  0.4126 -0.2296 -0.7746
 6937TIP3    H120775   3.774   4.020   3.306 -0.1520 -0.8990  2.0676
 6937TIP3    H220776   3.747   4.166   3.331  0.5122 -0.1280 -1.2336
 6938TIP3   OH220777   4.938   3.168   0.402 -0.3582 -0.0538  0.8462
 6938TIP3    H120778   4.905   3.217   0.327 -0.6234 -0.4135  0.7260
 6938TIP3    H220779   4.898   3.082   0.394  3.0929 -1.7054 -1.2014
 6939TIP3   OH220780   3.508   4.979   0.056 -0.0171  0.4595  0.1450
 6939TIP3    H120781   3.559   5.007   0.132  1.4429 -1.2546 -0.1501
 6939TIP3    H220782   3.424   4.952   0.092  0.7751 -0.6393  1.2214
 6940TIP3   OH220783   3.217   0.373   3.904  0.4616 -0.1978 -0.6397
 6940TIP3    H120784   3.137   0.421   3.924  0.7098 -0.2261  0.5011
 6940TIP3    H220785   3.191   0.307   3.840  0.1380  1.5450 -2.4160
 6941TIP3   OH220786   0.241   2.272   0.882  0.0399  0.0400  0.4097
 6941TIP3    H120787   0.153   2.271   0.845  0.1939  0.9075 -0.0176
 6941TIP3    H220788   0.245   2.194   0.938 -1.4500  0.6713  1.4737
 6942TIP3   OH220789   1.843   2.516   2.904 -0.7895 -0.3107 -0.3285
 6942TIP3    H120790   1.864   2.487   2.993  1.5953 -0.6621 -0.9338
 6942TIP3    H220791   1.843   2.612   2.909  0.9472 -0.2795 -0.2146
 6943TIP3   OH220792   3.607   5.548   1.920  0.6303 -0.8806 -0.1523
 6943TIP3    H120793   3.694   5.583   1.901  0.0626  0.6962 -0.0339
 6943TIP3    H220794   3.567   5.535   1.834  1.0221 -1.7444 -0.2111
 6944TIP3   OH220795   5.025   2.953   4.790  0.0530 -0.1773 -0.1113
 6944TIP3    H120796   4.999   2.931   4.700 -0.7507 -0.9637  0.3027
 6944TIP3    H220797   5.047   3.046   4.786 -0.9466  0.0438 -0.9210
 6945TIP3   OH220798   1.576   3.694   0.799  0.2623 -0.0298  0.0495
 6945TIP3    H120799   1.534   3.756   0.859 -0.3297  0.1616 -0.5530
 6945TIP3    H220800   1.531   3.707   0.716 -1.1282 -2.5503  0.3359
 6946TIP3   OH220801   6.812   4.405   0.109  0.5196 -0.1403  0.8485
 6946TIP3    H120802   6.857   4.322   0.094  0.7974  0.0521  0.6033
 6946TIP3    H220803   6.782   4.432   0.022  0.2495 -0.0837  0.9560
 6947TIP3   OH220804   0.797   0.297   4.124  0.1008  1.0105 -0.3701
 6947TIP3    H120805   0.805   0.297   4.219  0.8067  1.5066 -0.4226
 6947TIP3    H220806   0.841   0.217   4.096  0.6667  1.3046 -0.3330
 6948TIP3   OH220807   6.186   4.746   2.219 -1.0936  0.0036  0.1023
 6948TIP3    H120808   6.199   4.840   2.214 -0.0968 -0.1536 -0.4398
 6948TIP3    H220809   6.188   4.716   2.128  1.4749 -0.8858  0.3803
 6949TIP3   OH220810   5.834   1.073   1.402  0.6614 -0.1986  0.0769
 6949TIP3    H120811   5.843   0.979   1.414 -0.6071 -0.1512  1.8299
 6949TIP3    H220812   5.883   1.111   1.475 -1.1019  0.3769  1.0343
 6950TIP3   OH220813   4.403   4.337   1.762 -0.4977  0.1436  0.1572
 6950TIP3    H120814   4.412   4.338   1.667  1.3542  0.1085  0.2968
 6950TIP3    H220815   4.441   4.420   1.790 -0.4624 -0.1240  0.9103
 6951TIP3   OH220816   1.286   0.424   1.485 -0.0960  0.3595  0.5152
 6951TIP3    H120817   1.354   0.410   1.551 -0.0682 -0.1317  0.3818
 6951TIP3    H220818   1.334   0.437   1.403 -0.1645 -0.1735  0.3869
 6952TIP3   OH220819   5.183   4.973   0.870  0.1479 -0.7767 -0.0256
 6952TIP3    H120820   5.205   4.888   0.830  0.1658 -0.5748 -0.4581
 6952TIP3    H220821   5.266   5.004   0.906 -0.1747 -1.6568  1.5377
 6953TIP3   OH220822   1.649   1.621   5.509  0.7210 -0.1197  0.1397
 6953TIP3    H120823   1.630   1.570   5.588  0.4802 -0.5893 -0.2129
 6953TIP3    H220824   1.741   1.602   5.490  1.3267  1.4509  1.3416
 6954TIP3   OH220825   2.755   3.269   1.310 -0.4802  0.0733  0.2194
 6954TIP3    H120826   2.748   3.275   1.405 -0.2015  0.1552  0.2363
 6954TIP3    H220827   2.824   3.204   1.296  1.7412  2.3033  0.1124
 6955TIP3   OH220828   5.840   3.935   0.127 -0.4895 -0.5992 -0.1670
 6955TIP3    H120829   5.884   3.867   0.075  1.1676  1.4167 -1.5833
 6955TIP3    H220830   5.836   4.010   0.068 -3.9354  0.0601  0.6852
 6956TIP3   OH220831   5.637   4.654   2.708 -0.4716  0.1860  0.5736
 6956TIP3    H120832   5.617   4.585   2.645 -1.2295 -1.7203  2.7503
 6956TIP3    H220833   5.557   4.706   2.712 -0.9359 -0.5430  0.9751
 6957TIP3   OH220834   2.377   1.723   2.645 -0.3957  0.2920  0.1997
 6957TIP3    H120835   2.359   1.709   2.553 -0.6808  1.3698  0.0799
 6957TIP3    H220836   2.330   1.653   2.690 -0.2240 -0.2632 -0.4570
 6958TIP3   OH220837   5.809   4.650   3.891  0.2039 -0.3380 -0.0087
 6958TIP3    H120838   5.886   4.616   3.845  0.0639  0.5417 -0.9213
 6958TIP3    H220839   5.753   4.685   3.822 -0.9790 -0.8705  0.6597
 6959TIP3   OH220840   0.509   1.795   1.429  0.2668  0.1992  0.1283
 6959TIP3    H120841   0.505   1.739   1.351 -0.7683 -1.1281  1.0784
 6959TIP3    H220842   0.469   1.742   1.498 -0.9385  2.1921  1.0452
 6960TIP3   OH220843   4.268   1.261   0.511 -0.0171  0.0352  0.3357
 6960TIP3    H120844   4.201   1.330   0.512 -1.2308 -1.0748  2.0582
 6960TIP3    H220845   4.218   1.179   0.505  1.3279 -0.7755 -0.4229
 6961TIP3   OH220846   4.718   1.973   3.255  0.0708 -0.6003  0.0613
 6961TIP3    H120847   4.754   1.884   3.259 -0.9388 -1.0575 -0.6675
 6961TIP3    H220848   4.781   2.021   3.201  2.1895 -0.0448  2.7619
 6962TIP3   OH220849   6.329   5.675   1.340 -0.3079  0.6997 -0.1841
 6962TIP3    H120850   6.329   5.678   1.436  1.8244  0.0669 -0.0987
 6962TIP3    H220851   6.422   5.680   1.317 -0.5523 -2.0170 -2.0949
 6963TIP3   OH220852   4.999   6.368   3.962  0.6615  0.1273  0.4328
 6963TIP3    H120853   5.057   6.361   4.038 -0.0428 -0.0475  0.9651
 6963TIP3    H220854   5.008   6.460   3.934  0.5773  0.3151  1.0076
 6964TIP3   OH220855   3.083   2.489   0.424 -0.4630  0.6807  0.0467
 6964TIP3    H120856   3.151   2.541   0.467 -0.4225 -0.1447  1.0270
 6964TIP3    H220857   3.127   2.407   0.400 -1.2498 -0.1329  1.2901
 6965TIP3   OH220858   3.827   5.946   4.668  0.0846 -0.6570 -0.2113
 6965TIP3    H120859   3.769   5.948   4.592 -0.2375 -1.2720  0.0132
 6965TIP3    H220860   3.915   5.944   4.632 -0.0071  0.4977 -0.5574
 6966TIP3   OH220861   2.201   4.178   4.508  0.2588 -0.4359  0.1683
 6966TIP3    H120862   2.193   4.267   4.542 -0.4150 -0.9020  1.2955
 6966TIP3    H220863   2.220   4.125   4.586 -1.9887 -1.6411 -0.0208
 6967TIP3   OH220864   4.981   1.746   2.036 -0.7167 -0.4699  0.4982
 6967TIP3    H120865   4.940   1.678   1.982 -2.3440  1.6338 -1.0917
 6967TIP3    H220866   4.945   1.733   2.124  0.4024 -2.7050  0.6924
 6968TIP3   OH220867   1.198   2.724   1.098  0.6722  0.2877 -0.3651
 6968TIP3    H120868   1.154   2.686   1.174  2.3169  0.4951  0.7295
 6968TIP3    H220869   1.131   2.780   1.058 -0.1422  0.4273  1.1010
 6969TIP3   OH220870   4.223   2.353   3.982  0.0814  0.6652  0.5331
 6969TIP3    H120871   4.277   2.307   4.046 -0.1486 -1.7301 -0.8625
 6969TIP3    H220872   4.281   2.364   3.906 -0.6251  0.4002 -0.0536
 6970TIP3   OH220873   5.746   2.381   5.262  0.1958 -0.0313 -0.0442
 6970TIP3    H120874   5.679   2.313   5.249 -1.0758  0.1482  4.1548
 6970TIP3    H220875   5.821   2.333   5.297  0.4264  0.3758  0.0154
 6971TIP3   OH220876   2.012   1.323   1.451 -0.8332  0.7848 -0.0111
 6971TIP3    H120877   2.073   1.315   1.377  1.1377  1.1137  1.4692
 6971TIP3    H220878   2.021   1.414   1.480 -0.1775  0.2249  1.6912
 6972TIP3   OH220879   7.150   2.308   5.167  0.1062 -0.1811  0.0463
 6972TIP3    H120880   7.137   2.403   5.158  0.7356 -0.0504  0.4386
 6972TIP3    H220881   7.149   2.292   5.261  4.5268  0.1679  0.3679
 6973TIP3   OH220882   4.875   2.638   5.091 -0.4169 -0.7602 -0.6660
 6973TIP3    H120883   4.855   2.701   5.022  3.2561  2.6860  1.0149
 6973TIP3    H220884   4.910   2.562   5.045  0.7983  0.9267 -2.6920
 6974TIP3   OH220885   5.477   6.590   4.030  0.1102  0.3513 -0.3550
 6974TIP3    H120886   5.551   6.627   4.078  0.0720 -1.0325  0.8408
 6974TIP3    H220887   5.414   6.662   4.024  1.2433  1.3403 -0.7670
 6975TIP3   OH220888   7.191   2.782   2.991 -0.0841  0.5085  0.1705
 6975TIP3    H120889   7.154   2.737   3.067 -0.2966  1.3433  0.5696
 6975TIP3    H220890   7.259   2.723   2.959  0.0965  0.2057  1.0915
 6976TIP3   OH220891   4.191   4.851   1.820 -0.0384 -0.0499 -0.1089
 6976TIP3    H120892   4.209   4.761   1.793  1.3684  0.8311 -2.3876
 6976TIP3    H220893   4.277   4.885   1.848 -0.7519  0.2892  1.8379
 6977TIP3   OH220894   1.100   3.194   2.306  0.0796  0.1623 -0.0088
 6977TIP3    H120895   1.175   3.252   2.293  1.0821 -1.3054 -0.9651
 6977TIP3    H220896   1.038   3.247   2.356  1.8321  1.3469  1.0224
 6978TIP3   OH220897   3.656   5.033   5.000 -0.2671  0.3291  0.3591
 6978TIP3    H120898   3.573   5.063   4.963 -0.4595 -1.0462 -0.3939
 6978TIP3    H220899   3.631   4.982   5.078 -0.1640 -0.2452  0.0253
 6979TIP3   OH220900   6.127   5.390   5.754 -0.2742  0.0289  0.0885
 6979TIP3    H120901   6.206   5.437   5.728  0.8066 -0.3260  2.4517
 6979TIP3    H220902   6.132   5.307   5.706 -0.3423  0.8456 -1.3762
 6980TIP3   OH220903   5.315   6.592   3.316  0.2735 -0.3426  0.0968
 6980TIP3    H120904   5.337   6.618   3.405 -0.4570 -0.7837  0.4144
 6980TIP3    H220905   5.222   6.611   3.308  0.2265 -0.7568 -0.4051
 6981TIP3   OH220906   3.787   1.210   0.108  0.0122 -0.0974  0.2909
 6981TIP3    H120907   3.835   1.131   0.133  0.8205  0.3186  0.0526
 6981TIP3    H220908   3.850   1.281   0.117 -0.3729  0.3763 -0.6175
 6982TIP3   OH220909   4.466   5.605   3.246  0.0880  0.0086  0.4561
 6982TIP3    H120910   4.495   5.519   3.275  0.6795 -0.5465 -1.6267
 6982TIP3    H220911   4.498   5.613   3.156 -1.5392  1.6486 -0.0567
 6983TIP3   OH220912   5.687   3.617   0.084 -0.1785  0.1015  0.0400
 6983TIP3    H120913   5.645   3.697   0.054 -0.6031 -0.7963 -1.9752
 6983TIP3    H220914   5.758   3.602   0.022 -0.8251 -1.6515 -0.3498
 6984TIP3   OH220915   2.059   2.175   0.029 -0.2717  0.2332  0.2411
 6984TIP3    H120916   2.144   2.132   0.036 -1.0625 -1.6942 -1.1402
 6984TIP3    H220917   2.079   2.265   0.005  1.3769 -0.3674 -0.7921
 6985TIP3   OH220918   0.333   6.092   4.641 -0.7647 -0.1241 -0.4422
 6985TIP3    H120919   0.428   6.084   4.630 -0.4103 -0.1146  2.0569
 6985TIP3    H220920   0.303   6.002   4.649 -0.6378 -0.0676  0.8459
 6986TIP3   OH220921   4.762   2.111   1.348 -0.5423 -0.4408 -0.1175
 6986TIP3    H120922   4.804   2.189   1.313 -0.6977 -0.5009 -0.4361
 6986TIP3    H220923   4.820   2.039   1.324 -0.4403 -0.4352  0.1054
 6987TIP3   OH220924   2.684   1.741   4.823  0.5395 -0.0585  0.3968
 6987TIP3    H120925   2.708   1.805   4.890 -1.2423 -0.2623  1.3037
 6987TIP3    H220926   2.648   1.793   4.752 -2.7594 -0.0131  1.9289
 6988TIP3   OH220927   5.589   6.067   4.906 -0.3379 -0.0498 -0.6569
 6988TIP3    H120928   5.526   6.126   4.946 -1.4208 -0.5481 -1.6042
 6988TIP3    H220929   5.540   5.986   4.890  1.0931 -1.2541  0.6067
 6989TIP3   OH220930   2.106   3.022   1.205  0.8709 -0.2162  0.4570
 6989TIP3    H120931   2.164   3.059   1.139  0.2628 -0.9647 -0.5235
 6989TIP3    H220932   2.037   2.978   1.155 -1.7353  2.3496  1.5059
 6990TIP3   OH220933   6.569   2.706   1.978 -0.0285 -0.0245  0.5012
 6990TIP3    H120934   6.609   2.727   2.063 -1.0591  1.3495  0.6907
 6990TIP3    H220935   6.476   2.724   1.991 -0.4620 -1.4223 -0.4509
 6991TIP3   OH220936   5.922   5.792   0.152  0.3955  0.3173 -0.1209
 6991TIP3    H120937   5.881   5.748   0.227  0.5243  0.0775 -0.1902
 6991TIP3    H220938   5.998   5.737   0.132 -0.9139 -0.9548 -1.9147
 6992TIP3   OH220939   2.951   0.808   1.794  0.2624  0.1419  0.0569
 6992TIP3    H120940   3.007   0.732   1.782 -1.0434 -0.5465 -2.6758
 6992TIP3    H220941   2.910   0.796   1.880  0.3228 -2.1086 -0.1811
 6993TIP3   OH220942   6.725   5.153   2.315  0.3185  0.3110  0.7132
 6993TIP3    H120943   6.764   5.219   2.372  1.2933  0.3708  0.0155
 6993TIP3    H220944   6.783   5.150   2.238  1.3678 -2.6170  1.4703
 6994TIP3   OH220945   6.121   4.986   5.134 -0.1464 -0.2660 -0.1252
 6994TIP3    H120946   6.118   5.038   5.054  0.9505 -0.5377 -0.3594
 6994TIP3    H220947   6.030   4.963   5.152 -0.4908  0.5501 -0.7957
 6995TIP3   OH220948   3.043   1.744   4.648  0.6107  0.1600 -0.2845
 6995TIP3    H120949   3.086   1.712   4.727  0.2122 -1.0400 -0.5355
 6995TIP3    H220950   3.088   1.826   4.627  4.5554 -2.1477 -1.9267
 6996TIP3   OH220951   6.013   5.053   2.263  0.3309  0.2493  0.1210
 6996TIP3    H120952   5.964   5.077   2.342 -0.8241  0.3287 -0.5913
 6996TIP3    H220953   6.100   5.091   2.276  0.2451  0.0573  1.4531
 6997TIP3   OH220954   1.030   4.344   0.620  0.2610 -0.1327 -0.3024
 6997TIP3    H120955   1.066   4.342   0.708 -0.6983 -0.1886  0.0980
 6997TIP3    H220956   0.962   4.411   0.623 -0.1488 -0.5133 -0.8512
 6998TIP3   OH220957   4.168   5.553   0.508  0.1454  0.1640 -0.2732
 6998TIP3    H120958   4.238   5.601   0.552  1.1684 -3.2664  2.3049
 6998TIP3    H220959   4.214   5.495   0.447 -0.6988 -0.1293 -0.6378
 6999TIP3   OH220960   2.610   2.138   1.489  0.0067  0.1907 -0.0237
 6999TIP3    H120961   2.529   2.161   1.533 -0.1881 -0.8347  0.1688
 6999TIP3    H220962   2.585   2.074   1.423  0.5789  0.2964 -0.3566
 7000TIP3   OH220963   0.765   5.270   4.564 -0.2732 -0.0086 -0.1115
 7000TIP3    H120964   0.757   5.183   4.602  0.5635 -0.7350 -1.4995
 7000TIP3    H220965   0.823   5.317   4.625 -0.0950 -0.6749  0.2480
 7001TIP3   OH220966   3.435   5.899   0.515  0.0933 -0.9430 -0.4733
 7001TIP3    H120967   3.371   5.945   0.460  2.1856  0.8678 -1.5903
 7001TIP3    H220968   3.394   5.815   0.534 -2.2860 -0.1749 -1.7104
 7002TIP3   OH220969   1.141   5.050   4.249 -0.0558  0.0490  0.2239
 7002TIP3    H120970   1.101   5.012   4.328 -0.0699  0.7247  0.5536
 7002TIP3    H220971   1.144   4.978   4.186 -0.7985 -0.2867  0.5652
 7003TIP3   OH220972   6.085   5.415   2.789  0.4329 -0.0729  0.3407
 7003TIP3    H120973   5.999   5.429   2.828 -0.1871 -0.3164 -0.8800
 7003TIP3    H220974   6.111   5.502   2.756 -0.3711 -0.3813 -1.2367
 7004TIP3   OH220975   0.210   2.538   0.101  0.4171  0.3570  0.8836
 7004TIP3    H120976   0.180   2.523   0.191  1.6019 -1.9313  0.9812
 7004TIP3    H220977   0.233   2.451   0.069  1.4506  1.3036 -1.1452
 7005TIP3   OH220978   0.046   5.110   1.942  1.2336 -0.2325 -0.4807
 7005TIP3    H120979  -0.015   5.117   2.015  1.7086 -2.0333  0.1376
 7005TIP3    H220980  -0.009   5.085   1.867  0.8143  1.1645 -0.6681
 7006TIP3   OH220981   0.061   2.793   3.639 -0.6780  0.7710  0.2267
 7006TIP3    H120982   0.051   2.745   3.557 -0.4594  2.3789 -0.8013
 7006TIP3    H220983   0.026   2.735   3.706 -1.1924 -0.4499 -1.0517
 7007TIP3   OH220984   1.810   5.407   5.241  0.5163  0.1412  0.8946
 7007TIP3    H120985   1.747   5.354   5.192  0.4831 -0.2161  1.3125
 7007TIP3    H220986   1.870   5.442   5.175  0.4573 -0.3184  0.5989
 7008TIP3   OH220987   4.514   4.400   1.500 -0.0434 -0.3463  0.5465
 7008TIP3    H120988   4.584   4.406   1.435  0.7313  0.3607  1.4217
 7008TIP3    H220989   4.442   4.358   1.454  0.3138  0.5838 -0.9142
 7009TIP3   OH220990   4.002   1.353   1.993  0.1551 -0.1412 -0.1402
 7009TIP3    H120991   3.962   1.315   1.915  1.2374 -3.7300  0.8202
 7009TIP3    H220992   3.939   1.336   2.063 -0.4060  2.2303  0.0208
 7010TIP3   OH220993   4.196   4.843   1.401  0.1537  0.9002  0.0224
 7010TIP3    H120994   4.266   4.845   1.467  0.1081 -0.2548  0.1237
 7010TIP3    H220995   4.213   4.765   1.350 -1.6001  0.0307  0.6710
 7011TIP3   OH220996   0.058   4.527   0.980 -0.5420 -0.1066  0.1009
 7011TIP3    H120997   0.107   4.445   0.984  1.9646  1.2638 -0.1439
 7011TIP3    H220998  -0.024   4.509   1.026  0.2327 -2.5256  0.6693
 7012TIP3   OH220999   2.587   4.053   3.950  0.5486 -0.6525  0.4840
 7012TIP3    H121000   2.618   4.044   4.039 -0.7088  0.5430  1.0862
 7012TIP3    H221001   2.666   4.061   3.897  1.3019 -1.1068  1.5092
 7013TIP3   OH221002   0.849   1.174   4.799  0.0806  0.4554 -0.6886
 7013TIP3    H121003   0.783   1.111   4.828  2.4651 -1.5883  0.7302
 7013TIP3    H221004   0.825   1.255   4.843 -1.9209  0.0095 -0.8674
 7014TIP3   OH221005   5.844   6.411   1.020 -0.7384  0.2473  0.2758
 7014TIP3    H121006   5.812   6.391   0.932  0.4003  1.0231 -0.3377
 7014TIP3    H221007   5.829   6.331   1.070  0.0923 -0.7737 -1.0594
 7015TIP3   OH221008   1.392   4.805   4.837  0.0458 -0.4927 -0.2949
 7015TIP3    H121009   1.390   4.785   4.743  0.6174  0.2996 -0.4828
 7015TIP3    H221010   1.308   4.772   4.869 -0.6519  0.2193 -1.3026
 7016TIP3   OH221011   5.548   2.384   2.601 -0.0909  0.6813 -0.1254
 7016TIP3    H121012   5.512   2.460   2.647  0.9802  1.6109 -0.7556
 7016TIP3    H221013   5.599   2.422   2.529 -1.4790 -0.7191 -1.9261
 7017TIP3   OH221014   6.041   4.903   4.407 -0.4657 -0.5194  0.2581
 7017TIP3    H121015   6.052   4.866   4.494  2.1821  1.3293  0.8045
 7017TIP3    H221016   5.989   4.982   4.421  1.9606  1.0881  0.6113
 7018TIP3   OH221017   2.237   4.010   2.267 -0.0033 -0.4890  0.1485
 7018TIP3    H121018   2.257   4.032   2.176 -0.5447 -2.0758 -0.3796
 7018TIP3    H221019   2.142   3.997   2.268 -0.0513 -0.1384  1.0294
 7019TIP3   OH221020   3.992   0.196   1.632 -0.0845  0.1518 -0.6440
 7019TIP3    H121021   4.057   0.265   1.647  0.2176 -0.6187  2.3204
 7019TIP3    H221022   4.006   0.134   1.704 -1.3715 -2.2300 -2.3018
 7020TIP3   OH221023   1.959   5.446   1.977 -0.0689 -0.3318 -0.1287
 7020TIP3    H121024   1.981   5.429   1.886  0.7194  1.3316 -0.2932
 7020TIP3    H221025   1.982   5.538   1.990  1.6563 -1.0066  2.2639
 7021TIP3   OH221026   2.041   1.913   2.577  0.1083 -0.4556  0.0198
 7021TIP3    H121027   2.124   1.921   2.623  0.2167 -0.1185 -0.2335
 7021TIP3    H221028   2.037   1.821   2.550  0.1756 -0.5867  0.4465
 7022TIP3   OH221029   0.852   3.484   0.382  0.3187  0.4923 -0.6063
 7022TIP3    H121030   0.934   3.533   0.374  0.8518  0.1168  1.7529
 7022TIP3    H221031   0.806   3.528   0.454  0.2829 -1.6687  0.7880
 7023TIP3   OH221032   1.041   5.201   1.730  0.5108  0.5152 -0.1370
 7023TIP3    H121033   1.047   5.236   1.819 -0.3648  1.6182 -0.4921
 7023TIP3    H221034   1.049   5.106   1.741  3.8557  0.7678  0.7598
 7024TIP3   OH221035   7.066   2.066   1.533  0.1818  0.4753 -0.6395
 7024TIP3    H121036   7.058   2.112   1.616  1.4578 -1.0071  0.3648
 7024TIP3    H221037   6.991   2.008   1.529  0.7529 -0.3348  0.0917
 7025TIP3   OH221038   3.188   4.328   4.683 -0.3329  0.0538 -0.2525
 7025TIP3    H121039   3.153   4.362   4.766 -1.1153 -1.3981  0.0398
 7025TIP3    H221040   3.274   4.293   4.706  0.1212  1.0325 -0.3901
 7026TIP3   OH221041   5.854   2.579   0.581 -0.1652  0.3582 -0.2775
 7026TIP3    H121042   5.877   2.649   0.642  1.6431 -0.9849  0.6734
 7026TIP3    H221043   5.937   2.554   0.540 -1.2531  0.9881 -3.1210
 7027TIP3   OH221044   1.936   0.574   2.258  0.1829 -0.0617  0.0536
 7027TIP3    H121045   1.845   0.594   2.236  0.0489 -0.6184  0.0873
 7027TIP3    H221046   1.974   0.659   2.281 -0.2280  0.2280 -0.3193
 7028TIP3   OH221047   1.438   1.024   0.724  0.1670  0.3725  0.1183
 7028TIP3    H121048   1.424   0.970   0.802 -0.2469 -0.6581 -0.6447
 7028TIP3    H221049   1.524   0.998   0.691  0.7338  1.4418  0.7064
 7029TIP3   OH221050   6.466   6.535   0.179  0.1725 -0.0913 -0.1625
 7029TIP3    H121051   6.485   6.588   0.102 -0.0364  0.2271  0.0021
 7029TIP3    H221052   6.528   6.564   0.246  1.1010 -1.1322 -0.5323
 7030TIP3   OH221053   3.364   4.364   0.830  0.0321  0.1061  0.1361
 7030TIP3    H121054   3.370   4.324   0.744 -1.8461 -0.8225  0.3904
 7030TIP3    H221055   3.359   4.291   0.891  0.0775  0.7503  0.9391
 7031TIP3   OH221056   1.488   1.952   2.754 -0.0063  0.3949 -0.2303
 7031TIP3    H121057   1.429   1.950   2.829  1.9194 -0.0687  1.3743
 7031TIP3    H221058   1.467   1.874   2.704 -0.2239 -0.1896  0.7581
 7032TIP3   OH221059   4.353   3.940   2.208  0.4956  0.3979  0.3433
 7032TIP3    H121060   4.361   3.859   2.158 -0.8766 -0.7698  1.9196
 7032TIP3    H221061   4.394   3.922   2.292 -0.3327  1.1179  0.9325
 7033TIP3   OH221062   2.642   5.512   0.839  0.1611  0.1372 -0.3581
 7033TIP3    H121063   2.647   5.539   0.930  1.4294 -2.2896  0.3868
 7033TIP3    H221064   2.587   5.434   0.839  2.3996 -1.5503 -1.1522
 7034TIP3   OH221065   4.851   1.148   3.184 -0.0905 -0.3009 -0.0812
 7034TIP3    H121066   4.853   1.053   3.184  1.0841 -0.2953 -1.0574
 7034TIP3    H221067   4.942   1.174   3.177 -0.3196  0.9221  0.9659
 7035TIP3   OH221068   7.041   1.335   2.501  0.1128  0.4664  0.2029
 7035TIP3    H121069   6.959   1.285   2.503  0.3772  0.0422  1.5751
 7035TIP3    H221070   7.015   1.422   2.469 -1.0139  0.5389  1.2201
 7036TIP3   OH221071   4.630   5.770   4.629 -0.0394 -0.3121  0.1010
 7036TIP3    H121072   4.700   5.768   4.694 -0.3524  0.1633  0.4596
 7036TIP3    H221073   4.600   5.679   4.624  1.1236 -0.6720 -0.6448
 7037TIP3   OH221074   6.441   4.800   2.908 -0.3989 -0.7626 -0.2766
 7037TIP3    H121075   6.465   4.709   2.894  1.3097 -0.2277 -1.1358
 7037TIP3    H221076   6.375   4.818   2.842  0.2953 -1.0078 -1.0519
 7038TIP3   OH221077   1.058   1.894   3.542  0.9289  0.3777 -0.1300
 7038TIP3    H121078   0.996   1.958   3.576  0.0967 -0.2106 -0.5149
 7038TIP3    H221079   1.073   1.834   3.616  0.3724  0.0320 -0.2902
 7039TIP3   OH221080   4.762   5.603   1.086 -0.0603  0.2565 -0.1470
 7039TIP3    H121081   4.780   5.536   1.021 -1.9924 -0.8495  0.3931
 7039TIP3    H221082   4.720   5.556   1.158  3.8403  1.0033  2.9708
 7040TIP3   OH221083   1.288   3.079   3.043  0.4018 -0.3868 -0.3959
 7040TIP3    H121084   1.361   3.066   2.983  1.0207 -0.9546  0.4666
 7040TIP3    H221085   1.231   3.003   3.029  0.7861 -0.7653  0.0629
 7041TIP3   OH221086   1.963   4.591   2.515  0.6984 -0.1341  0.7494
 7041TIP3    H121087   1.906   4.568   2.442  1.4286 -0.4296  0.2525
 7041TIP3    H221088   1.931   4.676   2.545 -0.0311 -0.3208  0.5264
 7042TIP3   OH221089   0.423   1.337   3.328  0.1097 -0.1255  0.4281
 7042TIP3    H121090   0.421   1.245   3.354  1.8794  0.1275  1.6282
 7042TIP3    H221091   0.378   1.383   3.399 -0.3329 -0.0051  0.0735
 7043TIP3   OH221092   6.136   1.053   5.444 -0.3549  0.3978 -0.0508
 7043TIP3    H121093   6.232   1.054   5.440 -0.2898 -0.8832  0.5107
 7043TIP3    H221094   6.115   0.962   5.466 -1.7697  0.2498 -1.7729
 7044TIP3   OH221095   7.072   0.988   1.832 -0.4642 -0.2386  0.4501
 7044TIP3    H121096   7.075   0.909   1.886 -0.5858 -0.0215  0.7696
 7044TIP3    H221097   7.139   1.045   1.870  0.3836 -0.6055 -0.4309
 7045TIP3   OH221098   7.071   1.207   1.345  0.3574  0.0416  0.1339
 7045TIP3    H121099   7.073   1.300   1.322  1.3447  0.2147  0.8537
 7045TIP3    H221100   7.046   1.205   1.437  2.5014 -0.2321  0.7724
 7046TIP3   OH221101   2.084   4.985   2.669  0.1253  0.0112 -0.1194
 7046TIP3    H121102   2.149   4.975   2.738  0.5808  1.2041 -0.3558
 7046TIP3    H221103   2.073   5.079   2.660  0.7190 -0.0694 -2.2662
 7047TIP3   OH221104   3.585   4.693   2.133  0.3917  0.9733 -0.1397
 7047TIP3    H121105   3.518   4.699   2.201  1.5877  1.2301  1.0533
 7047TIP3    H221106   3.550   4.630   2.070 -1.2837  1.6677  0.0622
 7048TIP3   OH221107   3.584   0.822   5.386  0.3982  0.2290 -0.0607
 7048TIP3    H121108   3.533   0.749   5.352  2.5279 -0.0555 -3.0775
 7048TIP3    H221109   3.550   0.899   5.339 -1.3158  1.1872  2.5284
 7049TIP3   OH221110   6.568   5.456   3.344  0.2333 -0.1540  0.1832
 7049TIP3    H121111   6.650   5.409   3.356 -0.1945 -0.6017  1.4861
 7049TIP3    H221112   6.500   5.396   3.376 -0.4376  0.8606  0.7238
 7050TIP3   OH221113   1.696   4.208   5.519  0.0614 -0.2778  0.0952
 7050TIP3    H121114   1.787   4.180   5.522  0.2002  0.1904  0.2925
 7050TIP3    H221115   1.698   4.300   5.547 -0.1259  0.5341 -2.2607
 7051TIP3   OH221116   5.169   2.340   0.634  0.3685 -0.4815  0.0562
 7051TIP3    H121117   5.090   2.389   0.658  0.0393 -0.5292 -0.8994
 7051TIP3    H221118   5.216   2.328   0.717 -0.7738 -0.7195  0.6811
 7052TIP3   OH221119   6.309   4.509   0.699 -0.8574  0.3258  0.7680
 7052TIP3    H121120   6.333   4.436   0.758  2.2141  0.4209 -0.1757
 7052TIP3    H221121   6.324   4.587   0.751  0.4798  0.3689  0.3503
 7053TIP3   OH221122   7.146   1.991   0.704  0.1626 -0.3060 -0.4994
 7053TIP3    H121123   7.174   2.077   0.737  1.4912 -1.4581  1.5654
 7053TIP3    H221124   7.188   1.983   0.619 -0.0772  1.1277 -0.7809
 7054TIP3   OH221125   0.843   2.006   1.884 -0.5177  0.5944 -0.0167
 7054TIP3    H121126   0.925   2.055   1.874  0.8921 -1.4792  0.8434
 7054TIP3    H221127   0.829   1.966   1.798 -0.6910  1.0134 -0.1877
 7055TIP3   OH221128   0.111   6.538   1.030 -0.3448 -0.6889 -0.6375
 7055TIP3    H121129   0.093   6.630   1.053  0.0920 -0.6424 -0.4550
 7055TIP3    H221130   0.207   6.534   1.025 -0.1681 -1.7238  1.9220
 7056TIP3   OH221131   0.364   3.083   4.155  0.2678  0.2072  0.0341
 7056TIP3    H121132   0.347   2.994   4.125 -0.4355  0.5232 -0.5250
 7056TIP3    H221133   0.278   3.116   4.183  0.3910  0.9566 -0.4439
 7057TIP3   OH221134   5.489   4.280   5.369 -0.3810  0.2316  0.1423
 7057TIP3    H121135   5.565   4.239   5.328 -0.7377  0.1054 -0.4017
 7057TIP3    H221136   5.465   4.221   5.441 -0.1925  0.0792  0.0781
 7058TIP3   OH221137   6.744   3.925   5.837 -0.5165  0.3292  0.0731
 7058TIP3    H121138   6.683   3.852   5.823 -0.3383  0.0934  0.5022
 7058TIP3    H221139   6.754   3.929   5.933  1.3635 -0.6530 -0.0346
 7059TIP3   OH221140   5.623   1.834   3.817 -0.3129 -1.0741  0.4359
 7059TIP3    H121141   5.584   1.882   3.890 -0.7611  1.8916 -1.5695
 7059TIP3    H221142   5.716   1.854   3.823 -0.7233  1.9836 -1.5334
 7060TIP3   OH221143   5.166   2.721   4.771 -0.1808 -0.1501  0.2305
 7060TIP3    H121144   5.113   2.797   4.796  1.8393  1.9497 -1.4059
 7060TIP3    H221145   5.133   2.696   4.685 -0.6902 -1.0199  0.6684
 7061TIP3   OH221146   5.568   5.611   0.888 -0.2909  0.0539 -0.2753
 7061TIP3    H121147   5.641   5.634   0.831 -0.8670  1.6390 -0.4412
 7061TIP3    H221148   5.512   5.555   0.835 -0.8823  1.6001 -1.3756
 7062TIP3   OH221149   0.452   5.123   1.219  0.6450  0.5248 -0.5758
 7062TIP3    H121150   0.399   5.198   1.193 -0.7445  0.0505  0.7866
 7062TIP3    H221151   0.396   5.047   1.203  1.2073 -0.0510  0.1166
 7063TIP3   OH221152   0.365   1.373   4.942  0.0001  0.4168  0.2668
 7063TIP3    H121153   0.337   1.397   5.031 -0.1301  1.1038  0.0473
 7063TIP3    H221154   0.291   1.323   4.907  0.1634 -0.0933  0.6371
 7064TIP3   OH221155   4.578   6.108   2.863 -0.1249  0.1979  0.5601
 7064TIP3    H121156   4.538   6.193   2.884  0.1826  0.4569  0.1052
 7064TIP3    H221157   4.622   6.082   2.944 -2.8077 -1.0446  1.7743
 7065TIP3   OH221158   0.433   3.923   1.186 -0.1011  0.1605  0.3292
 7065TIP3    H121159   0.480   3.991   1.233 -0.0144 -0.5613  1.3211
 7065TIP3    H221160   0.345   3.959   1.174 -0.2084  0.2555  1.3069
 7066TIP3   OH221161   6.543   4.027   0.334 -0.8013  0.2901  0.2854
 7066TIP3    H121162   6.528   3.941   0.373 -0.4383 -0.5769 -1.4220
 7066TIP3    H221163   6.530   4.015   0.241 -0.7742  2.1113 -0.0002
 7067TIP3   OH221164   4.120   4.296   4.841 -0.0373 -0.1544 -0.4464
 7067TIP3    H121165   4.212   4.296   4.816 -0.1644 -1.4000 -1.0076
 7067TIP3    H221166   4.083   4.375   4.801  1.2459  1.6694  1.7408
 7068TIP3   OH221167   2.231   4.511   4.942 -0.2142 -0.0839  0.3551
 7068TIP3    H121168   2.208   4.528   5.033 -2.5214  3.9193 -0.7376
 7068TIP3    H221169   2.306   4.568   4.925  0.8854 -1.5782 -0.0883
 7069TIP3   OH221170   3.303   3.559   4.177  0.6065 -0.3165 -0.1350
 7069TIP3    H121171   3.213   3.528   4.186  0.0546  0.9481 -0.9239
 7069TIP3    H221172   3.330   3.580   4.267 -0.8658  1.7777 -0.0876
 7070TIP3   OH221173   6.365   3.714   4.995  0.2645 -0.0308 -0.2005
 7070TIP3    H121174   6.454   3.739   4.972  0.8805 -0.6153  1.4347
 7070TIP3    H221175   6.313   3.791   4.975  0.9556  0.0052 -2.0605
 7071TIP3   OH221176   4.318   4.244   0.184 -0.0009  0.7935 -0.3278
 7071TIP3    H121177   4.230   4.253   0.222 -0.4759  0.2895 -1.2788
 7071TIP3    H221178   4.364   4.322   0.215 -0.8422  1.1737  0.0208
 7072TIP3   OH221179   6.793   2.010   3.271  0.1592 -0.0542 -0.0703
 7072TIP3    H121180   6.719   2.063   3.304  0.7753  1.2022 -0.6270
 7072TIP3    H221181   6.751   1.938   3.223 -0.7664  1.5300 -1.7947
 7073TIP3   OH221182   0.883   6.643   4.598  0.1683  0.3641 -0.0737
 7073TIP3    H121183   0.830   6.597   4.663  0.1327  1.2072  0.5128
 7073TIP3    H221184   0.971   6.644   4.636  0.2393  0.4853 -0.2413
 7074TIP3   OH221185   3.047   5.218   2.054 -0.1540 -0.2582  0.1752
 7074TIP3    H121186   3.115   5.272   2.094  0.1413 -1.1445  0.9310
 7074TIP3    H221187   2.976   5.217   2.119 -0.5122 -0.0862 -0.2075
 7075TIP3   OH221188   2.238   2.388   4.503 -0.3413  0.2437  0.2547
 7075TIP3    H121189   2.165   2.358   4.448 -0.1611  1.9761 -0.9905
 7075TIP3    H221190   2.196   2.433   4.576 -0.5505 -0.9417  0.8867
 7076TIP3   OH221191   4.978   0.659   3.577 -0.1034 -0.5593  0.6165
 7076TIP3    H121192   4.969   0.618   3.663  0.8535  1.4035  1.7228
 7076TIP3    H221193   5.050   0.722   3.588 -2.0949  2.1351 -0.6465
 7077TIP3   OH221194   5.551   2.910   2.778  0.4026 -0.1390  0.5524
 7077TIP3    H121195   5.488   2.909   2.706  0.1047  1.2852  0.7577
 7077TIP3    H221196   5.603   2.989   2.763  1.3914 -0.6790  1.0250
 7078TIP3   OH221197   6.825   5.543   5.282  0.5965  0.4274 -0.0205
 7078TIP3    H121198   6.815   5.571   5.191 -2.9882  4.6055  1.2940
 7078TIP3    H221199   6.888   5.605   5.319 -0.6881  1.1377  1.0526
 7079TIP3   OH221200   0.705   0.660   1.210 -0.0539  0.3233 -0.0713
 7079TIP3    H121201   0.662   0.743   1.232  2.4062  1.6077  0.2468
 7079TIP3    H221202   0.742   0.630   1.293  1.5267  0.4260 -0.7153
 7080TIP3   OH221203   0.415   1.675   0.449 -0.2396  0.1020  0.0645
 7080TIP3    H121204   0.448   1.597   0.493  1.8492  1.0776  0.3127
 7080TIP3    H221205   0.457   1.748   0.494 -0.1475  1.2707 -1.8050
 7081TIP3   OH221206   2.529   6.189   1.149  0.5066  0.1147 -0.8931
 7081TIP3    H121207   2.443   6.221   1.178  0.8737 -0.6912  1.1928
 7081TIP3    H221208   2.548   6.240   1.070 -0.6775  2.2127  0.1168
 7082TIP3   OH221209   4.166   0.268   4.445 -0.4587  0.7573  0.2703
 7082TIP3    H121210   4.209   0.345   4.482  1.7532 -0.1715 -0.1717
 7082TIP3    H221211   4.221   0.243   4.371 -1.3830 -0.9718  0.1128
 7083TIP3   OH221212   2.248   6.425   5.786  0.2703  0.2147  0.7639
 7083TIP3    H121213   2.258   6.379   5.869 -0.0455  1.1183  1.3125
 7083TIP3    H221214   2.318   6.491   5.786 -0.0142  0.5191  0.5185
 7084TIP3   OH221215   0.992   2.540   5.161 -0.4030 -0.2711  0.0904
 7084TIP3    H121216   1.066   2.520   5.104 -1.1259 -2.2406 -0.2389
 7084TIP3    H221217   1.031   2.575   5.241  0.6419  2.4306 -1.4657
 7085TIP3   OH221218   1.777   2.687   0.996 -0.0079 -0.6009  0.4444
 7085TIP3    H121219   1.716   2.749   0.957  0.9201  1.3112  1.8606
 7085TIP3    H221220   1.726   2.644   1.065 -0.2857 -0.3842  0.3771
 7086TIP3   OH221221   5.264   0.452   4.814 -0.0050  0.3123 -0.0127
 7086TIP3    H121222   5.339   0.393   4.807 -0.2453  0.0391 -0.3462
 7086TIP3    H221223   5.249   0.482   4.724 -0.0217  0.7053  0.1209
 7087TIP3   OH221224   3.151   5.741   1.154 -0.2738 -0.6543  0.0458
 7087TIP3    H121225   3.242   5.767   1.141 -0.4762  0.1227  0.1140
 7087TIP3    H221226   3.113   5.740   1.066  0.0848 -2.1242 -0.1115
 7088TIP3   OH221227   1.589   1.872   3.748 -0.1818 -0.0720  0.1226
 7088TIP3    H121228   1.643   1.949   3.728 -1.6322  0.9196 -0.1456
 7088TIP3    H221229   1.610   1.852   3.839  1.7036 -0.6458 -0.3832
 7089TIP3   OH221230   0.891   6.269   5.894 -0.0673 -0.2590  0.1035
 7089TIP3    H121231   0.897   6.194   5.953 -0.3824 -0.1737  0.2485
 7089TIP3    H221232   0.856   6.233   5.812  2.9955 -0.9198 -1.0427
 7090TIP3   OH221233   6.847   6.469   2.832 -0.3358 -0.4164  0.2873
 7090TIP3    H121234   6.916   6.434   2.890  0.3951 -0.3905 -0.5440
 7090TIP3    H221235   6.854   6.416   2.753 -1.7737 -0.9009  0.4499
 7091TIP3   OH221236   6.286   4.281   2.128 -0.5366 -0.2045 -0.4645
 7091TIP3    H121237   6.375   4.261   2.099 -0.5818 -0.5399 -0.3811
 7091TIP3    H221238   6.251   4.336   2.058 -0.0422  0.4956 -0.1703
 7092TIP3   OH221239   1.357   0.800   1.252 -0.3222  0.2516  0.3865
 7092TIP3    H121240   1.345   0.759   1.337  0.9496 -0.5432  0.2029
 7092TIP3    H221241   1.299   0.752   1.193  0.3671 -0.6072  0.3915
 7093TIP3   OH221242   5.824   4.484   2.465 -0.5247  0.5373  0.0544
 7093TIP3    H121243   5.731   4.480   2.445 -0.6353 -2.7428  0.6926
 7093TIP3    H221244   5.845   4.578   2.463 -2.8880  1.2245 -4.1076
 7094TIP3   OH221245   3.214   0.643   5.784  0.0396 -0.4364 -0.2720
 7094TIP3    H121246   3.157   0.714   5.814  3.2710  2.3855 -0.2091
 7094TIP3    H221247   3.230   0.591   5.862 -0.9084 -0.1059  0.1533
 7095TIP3   OH221248   5.957   3.066   1.660 -0.6804 -0.0546  0.3106
 7095TIP3    H121249   5.918   3.030   1.739  1.0696 -1.7648  0.4460
 7095TIP3    H221250   5.883   3.078   1.600 -1.5262 -2.7467  0.7159
 7096TIP3   OH221251   6.029   3.396   0.089  0.1560 -0.3349  0.9041
 7096TIP3    H121252   6.037   3.490   0.103 -1.3967 -0.5923  4.4910
 7096TIP3    H221253   5.935   3.378   0.096 -0.4961 -1.6717 -5.1585
 7097TIP3   OH221254   1.673   0.029   4.573 -0.2904  1.2167 -0.1024
 7097TIP3    H121255   1.729   0.100   4.543 -0.3632  2.3307  2.1625
 7097TIP3    H221256   1.596   0.073   4.608 -1.2992 -0.1323 -0.5391
 7098TIP3   OH221257   3.762   1.282   0.555  0.1576  0.0685 -0.4501
 7098TIP3    H121258   3.700   1.295   0.626  2.0672  2.5332  0.9571
 7098TIP3    H221259   3.708   1.272   0.477 -1.9833 -0.5048  1.0213
 7099TIP3   OH221260   0.936   4.908   5.515 -0.3215  0.2460  0.0199
 7099TIP3    H121261   0.961   4.937   5.603  1.9580  0.4737 -0.6507
 7099TIP3    H221262   0.925   4.989   5.465 -1.8715  0.1268  0.1069
 7100TIP3   OH221263   5.649   6.098   2.641 -0.3655  0.0067 -0.1669
 7100TIP3    H121264   5.578   6.042   2.610  0.0556 -0.8608  0.4083
 7100TIP3    H221265   5.658   6.076   2.734  1.7940 -1.1649 -0.5920
 7101TIP3   OH221266   5.477   0.320   4.760  0.0079  0.2895  0.2609
 7101TIP3    H121267   5.526   0.326   4.842  2.7561 -0.3905 -1.2084
 7101TIP3    H221268   5.449   0.228   4.755  0.8547  0.0377 -0.0600
 7102TIP3   OH221269   3.495   3.210   1.258 -0.2146  0.3626 -0.5121
 7102TIP3    H121270   3.460   3.149   1.323 -1.6131  1.8046  0.1728
 7102TIP3    H221271   3.532   3.155   1.189 -1.4053 -1.2383  0.0822
 7103TIP3   OH221272   2.848   3.788   5.172 -0.3324  0.3648  0.5281
 7103TIP3    H121273   2.817   3.865   5.220 -0.8854  1.0791 -0.9098
 7103TIP3    H221274   2.770   3.735   5.158 -0.7769  1.4588 -1.8180
 7104TIP3   OH221275   2.909   1.824   2.687 -0.5509  0.2421  0.3995
 7104TIP3    H121276   2.888   1.779   2.769 -0.9146 -0.3342 -0.0095
 7104TIP3    H221277   2.829   1.871   2.664 -0.0769  1.3676  0.9879
 7105TIP3   OH221278   4.559   4.059   1.287 -0.1252 -0.2518  0.0320
 7105TIP3    H121279   4.636   4.010   1.262 -1.1300 -2.4796  1.0301
 7105TIP3    H221280   4.498   3.994   1.322 -2.8980  1.2218 -1.6253
 7106TIP3   OH221281   4.150   5.215   0.606  0.1871 -0.1043  0.1428
 7106TIP3    H121282   4.152   5.201   0.511  0.2794  0.5135  0.0496
 7106TIP3    H221283   4.104   5.298   0.617  1.4097  0.5316  0.5559
 7107TIP3   OH221284   2.614   2.951   0.724  0.5131 -1.4047  0.9278
 7107TIP3    H121285   2.679   3.016   0.752  0.4147 -1.4813  1.3417
 7107TIP3    H221286   2.573   2.923   0.806 -2.1133  0.7999  0.5069
 7108TIP3   OH221287   2.058   1.307   0.626  0.4214  0.1541  0.3751
 7108TIP3    H121288   2.130   1.310   0.564 -0.2305  1.7192 -0.3588
 7108TIP3    H221289   1.989   1.259   0.580  0.9700 -1.4199  1.1092
 7109TIP3   OH221290   6.973   1.916   3.520  0.0111 -0.0763 -0.5609
 7109TIP3    H121291   6.930   1.940   3.438  1.0034  0.8168 -0.8393
 7109TIP3    H221292   7.023   1.838   3.499 -0.1255 -0.1328 -0.6773
 7110TIP3   OH221293   5.679   1.661   5.259 -0.5049 -0.1995 -0.2637
 7110TIP3    H121294   5.755   1.603   5.255 -1.1230 -1.0943  0.3579
 7110TIP3    H221295   5.610   1.612   5.213 -1.5131 -0.7713  1.7595
 7111TIP3   OH221296   1.717   3.608   2.548  0.0336 -0.0462 -0.3428
 7111TIP3    H121297   1.642   3.650   2.591 -0.8413  0.5039 -2.2780
 7111TIP3    H221298   1.679   3.532   2.503  0.8751 -0.4755 -0.3533
 7112TIP3   OH221299   1.509   3.390   3.546 -0.0832 -0.3477 -0.0767
 7112TIP3    H121300   1.451   3.314   3.554  1.3431 -1.3787  1.0014
 7112TIP3    H221301   1.547   3.401   3.633  1.5161  0.1450 -0.7934
 7113TIP3   OH221302   0.904   2.991   4.752  0.4394  0.3499 -0.2757
 7113TIP3    H121303   0.893   3.086   4.748 -0.9374  0.2404  0.3295
 7113TIP3    H221304   0.903   2.970   4.845  0.2304 -0.2945 -0.4141
 7114TIP3   OH221305   1.501   3.699   0.487  0.4526 -0.0003 -0.0066
 7114TIP3    H121306   1.522   3.764   0.420 -0.5780  1.0132  0.6106
 7114TIP3    H221307   1.463   3.626   0.438 -1.1309  1.0918 -0.5074
 7115TIP3   OH221308   5.976   0.327   1.895 -0.1596  0.2294 -0.0138
 7115TIP3    H121309   5.945   0.403   1.846 -0.0486  0.2218 -0.0977
 7115TIP3    H221310   5.931   0.253   1.854  1.0872  0.0439 -1.1416
 7116TIP3   OH221311   5.247   0.187   0.646  0.5181 -0.0199  0.3398
 7116TIP3    H121312   5.253   0.159   0.555 -0.4983  0.1983  0.1879
 7116TIP3    H221313   5.162   0.231   0.652  1.8656  2.7134  0.6528
 7117TIP3   OH221314   0.109   6.680   3.093  0.1232 -0.1727 -0.4149
 7117TIP3    H121315   0.031   6.691   3.039  0.2266 -0.0266 -0.5372
 7117TIP3    H221316   0.077   6.686   3.183  0.0395  0.2097 -0.4694
 7118TIP3   OH221317   4.502   2.637   4.591 -0.3642  0.7839  0.1757
 7118TIP3    H121318   4.497   2.543   4.577 -0.5423  1.0738 -2.1420
 7118TIP3    H221319   4.434   2.656   4.655  0.0022 -0.6924  1.0509
 7119TIP3   OH221320   5.913   0.046   3.656  0.6990 -0.2857  0.0209
 7119TIP3    H121321   5.889   0.138   3.668 -0.4185 -0.6767  0.9935
 7119TIP3    H221322   5.842   0.010   3.602  0.4893 -0.8455  0.6616
 7120TIP3   OH221323   0.419   3.429   2.016  0.3829 -0.2780  0.0071
 7120TIP3    H121324   0.411   3.514   1.973  1.2277  0.9206  2.1103
 7120TIP3    H221325   0.416   3.448   2.109  1.0746 -2.5245  0.5613
 7121TIP3   OH221326   5.186   4.176   4.333  0.4534  0.0077 -0.0794
 7121TIP3    H121327   5.096   4.197   4.355 -0.5448 -2.1411 -1.7313
 7121TIP3    H221328   5.213   4.243   4.272 -0.6697 -0.3011 -0.9405
 7122TIP3   OH221329  -0.009   1.891   4.646 -0.4864  0.0583  0.5992
 7122TIP3    H121330   0.071   1.839   4.638 -1.8199 -1.8949 -1.0306
 7122TIP3    H221331  -0.056   1.852   4.720 -0.9988 -0.4156  0.0411
 7123TIP3   OH221332   7.053   5.078   5.179 -0.2078  0.6686  0.0845
 7123TIP3    H121333   7.052   4.983   5.193 -1.9720  0.6577  0.1980
 7123TIP3    H221334   7.064   5.115   5.267  1.8784  0.5966 -0.1108
 7124TIP3   OH221335   2.391   3.233   0.526  0.1946 -0.3810  0.0580
 7124TIP3    H121336   2.356   3.157   0.480 -0.9527 -0.2217  0.6356
 7124TIP3    H221337   2.479   3.246   0.489  0.1696 -1.6186 -0.4525
 7125TIP3   OH221338   5.682   1.978   0.048 -0.6668  0.1129 -0.9264
 7125TIP3    H121339   5.766   2.022   0.033 -0.1284 -0.7784 -0.6203
 7125TIP3    H221340   5.619   2.049   0.058  0.4117  0.9008  0.9458
 7126TIP3   OH221341   7.096   5.692   5.146  0.6031  0.2616  0.0648
 7126TIP3    H121342   7.080   5.706   5.239 -0.4838 -0.2917 -0.0262
 7126TIP3    H221343   7.113   5.780   5.111  0.2642  0.5677  0.6530
 7127TIP3   OH221344   3.883   3.206   1.067 -0.3811  0.3810  0.3771
 7127TIP3    H121345   3.883   3.256   1.148  1.2396  0.0893  0.5831
 7127TIP3    H221346   3.879   3.273   0.998 -0.5818  0.6742  0.6667
 7128TIP3   OH221347   4.175   4.587   1.735 -0.4413  0.3925 -0.6320
 7128TIP3    H121348   4.236   4.549   1.671  0.4117 -1.4586  1.1782
 7128TIP3    H221349   4.091   4.590   1.688  0.0055 -1.5079 -1.6683
 7129TIP3   OH221350   1.927   2.291   1.975 -0.0308 -0.4139  0.4481
 7129TIP3    H121351   1.964   2.205   1.955 -0.4301 -0.2304 -1.2545
 7129TIP3    H221352   2.004   2.349   1.979  0.0728 -0.3618 -1.2919
 7130TIP3   OH221353   5.002   0.386   5.449 -0.1440 -0.5402 -0.4885
 7130TIP3    H121354   4.971   0.356   5.535  1.7941  1.2742  0.9445
 7130TIP3    H221355   5.066   0.321   5.422 -0.4334 -0.8852 -0.3538
 7131TIP3   OH221356   1.320   4.779   0.871  0.1975  0.1168 -0.4944
 7131TIP3    H121357   1.381   4.813   0.806 -0.2140 -0.3461 -1.1388
 7131TIP3    H221358   1.253   4.847   0.880  1.1849  0.9699  0.7873
 7132TIP3   OH221359   3.556   4.324   4.114 -0.4733 -0.2009  0.3128
 7132TIP3    H121360   3.486   4.389   4.104 -3.3777 -3.1045 -0.1869
 7132TIP3    H221361   3.530   4.274   4.192  1.4494 -0.9969  0.4829
 7133TIP3   OH221362   6.655   0.891   1.817  0.5231 -0.4989 -0.8423
 7133TIP3    H121363   6.618   0.811   1.853  0.8041 -1.3734 -2.3637
 7133TIP3    H221364   6.695   0.863   1.734  0.6510  1.2160 -1.4039
 7134TIP3   OH221365   6.704   4.697   1.953  0.3242  0.2227 -0.4938
 7134TIP3    H121366   6.786   4.740   1.978  0.2117  0.4683 -0.5462
 7134TIP3    H221367   6.699   4.620   2.010  0.7869 -0.0138 -0.7589
 7135TIP3   OH221368   6.143   1.296   4.004  0.2284  0.3604  0.0595
 7135TIP3    H121369   6.067   1.353   4.005  0.2375  0.3805 -0.2432
 7135TIP3    H221370   6.199   1.331   3.934 -0.6537 -1.1607 -1.5165
 7136TIP3   OH221371   1.875   4.431   1.449 -0.0599  0.0312  0.7649
 7136TIP3    H121372   1.885   4.496   1.380  0.8043 -1.8569 -1.0191
 7136TIP3    H221373   1.934   4.360   1.423 -0.9115 -1.4433  2.6288
 7137TIP3   OH221374   7.120   6.270   1.041 -0.0035  0.5646  0.2904
 7137TIP3    H121375   7.115   6.356   1.000  0.1882  0.0732 -0.8027
 7137TIP3    H221376   7.189   6.279   1.107  1.4234  0.7585 -1.1386
 7138TIP3   OH221377   1.441   2.209   5.363  0.0888  0.4452 -0.3621
 7138TIP3    H121378   1.397   2.161   5.433 -1.4511  0.3217 -1.3817
 7138TIP3    H221379   1.529   2.224   5.397 -0.1118 -1.0319  0.9385
 7139TIP3   OH221380   6.069   3.408   2.971  0.6102 -0.3281  0.6289
 7139TIP3    H121381   6.160   3.386   2.956  0.4308 -0.4269 -0.3775
 7139TIP3    H221382   6.025   3.323   2.981  0.1706 -0.4610 -1.7699
 7140TIP3   OH221383   5.005   3.619   3.400  0.3912 -0.0826 -0.1383
 7140TIP3    H121384   5.017   3.599   3.493 -1.5286  0.1443  0.1943
 7140TIP3    H221385   5.023   3.713   3.392 -0.3963  0.1015  0.2012
 7141TIP3   OH221386   0.813   0.118   5.542  0.4025 -0.2316  0.5549
 7141TIP3    H121387   0.728   0.157   5.522  0.2977  0.0968  1.5358
 7141TIP3    H221388   0.794   0.027   5.563  0.3067 -0.1880  0.6560
 7142TIP3   OH221389   3.508   4.348   2.451  0.0723  0.7219  0.3931
 7142TIP3    H121390   3.584   4.356   2.394 -0.4640 -0.1246 -0.4524
 7142TIP3    H221391   3.545   4.350   2.540  0.9549  1.5150  0.0333
 7143TIP3   OH221392   3.407   1.751   0.779  0.0681 -0.5853  0.6796
 7143TIP3    H121393   3.481   1.705   0.738  0.1842 -0.1551  0.3994
 7143TIP3    H221394   3.438   1.841   0.789 -0.2903 -0.4850  0.8941
 7144TIP3   OH221395   1.433   1.255   4.264  0.2873  0.4764  0.3367
 7144TIP3    H121396   1.491   1.326   4.236 -0.0016  0.7758  0.4947
 7144TIP3    H221397   1.407   1.211   4.183  3.1733 -1.6220  0.3852
 7145TIP3   OH221398   4.591   0.566   2.034 -0.1544  0.1494 -0.1257
 7145TIP3    H121399   4.645   0.533   1.961 -0.3949 -2.3799  0.7197
 7145TIP3    H221400   4.509   0.593   1.993 -0.1233 -0.8255 -0.8897
 7146TIP3   OH221401   1.450   3.614   5.692  0.1614  0.1847 -0.1367
 7146TIP3    H121402   1.423   3.705   5.702 -0.2596 -0.0763  1.4191
 7146TIP3    H221403   1.407   3.585   5.612 -1.1458  0.8639  0.2852
 7147TIP3   OH221404   1.366   5.747   5.644 -0.8974 -1.0817  0.3079
 7147TIP3    H121405   1.345   5.792   5.725 -0.3301  2.8071 -1.4792
 7147TIP3    H221406   1.283   5.711   5.614 -1.9107  0.6819  0.8577
 7148TIP3   OH221407   5.600   3.306   5.352  0.2624 -0.8278  0.0660
 7148TIP3    H121408   5.554   3.239   5.300  1.1292 -1.9398  0.7062
 7148TIP3    H221409   5.684   3.266   5.374  0.2029 -0.1021  1.7315
 7149TIP3   OH221410   2.418   6.467   4.325  0.2224  0.5751  0.4639
 7149TIP3    H121411   2.339   6.445   4.375  1.3040 -0.4534  1.8023
 7149TIP3    H221412   2.426   6.397   4.261  0.5646  0.1255  0.9843
 7150TIP3   OH221413   3.404   2.161   4.017  0.3979  0.4571 -0.3129
 7150TIP3    H121414   3.425   2.096   4.085 -0.4950 -0.6313 -1.0312
 7150TIP3    H221415   3.427   2.117   3.935  1.9324  1.9421 -0.7299
 7151TIP3   OH221416   1.927   0.783   1.272  0.0470  0.3183  0.1754
 7151TIP3    H121417   1.845   0.743   1.299  2.1668 -2.8232  2.7777
 7151TIP3    H221418   1.971   0.716   1.220  1.2136  1.7346 -0.7617
 7152TIP3   OH221419   0.213   0.764   1.948 -0.1614 -0.3823  0.2864
 7152TIP3    H121420   0.263   0.798   1.874  0.0334 -0.8177  0.2125
 7152TIP3    H221421   0.278   0.755   2.018 -0.0158 -1.4409  0.0327
 7153TIP3   OH221422   5.911   3.128   3.325  0.2576  0.3302 -0.7998
 7153TIP3    H121423   5.982   3.082   3.371  1.6917  1.2737 -1.9685
 7153TIP3    H221424   5.919   3.219   3.353 -1.7709  0.1335  0.5413
 7154TIP3   OH221425   0.645   4.866   5.070 -0.7844  0.2364 -0.5007
 7154TIP3    H121426   0.583   4.854   4.999 -1.2494 -1.3273  0.1310
 7154TIP3    H221427   0.615   4.945   5.115 -0.1263  1.6135 -2.3391
 7155TIP3   OH221428   7.110   5.207   1.482 -0.1975 -0.3371  0.0086
 7155TIP3    H121429   7.068   5.194   1.398 -0.8297 -0.7307  0.3834
 7155TIP3    H221430   7.203   5.219   1.461  0.0243 -2.7076 -0.5806
 7156TIP3   OH221431   4.247   5.636   2.169  0.2703 -0.1436 -0.6798
 7156TIP3    H121432   4.185   5.563   2.180  0.9920 -0.5384  1.1921
 7156TIP3    H221433   4.299   5.611   2.093 -0.2161 -1.0445 -0.7384
 7157TIP3   OH221434   7.066   3.939   4.350 -0.3156 -0.6636  0.2244
 7157TIP3    H121435   7.123   4.015   4.359 -0.1394 -0.7460 -0.1714
 7157TIP3    H221436   6.989   3.960   4.404 -0.4994  0.0151 -0.2913
 7158TIP3   OH221437   1.722   5.818   2.035 -0.2114  0.0642  0.3945
 7158TIP3    H121438   1.687   5.754   1.973 -2.6173  1.6666 -0.0305
 7158TIP3    H221439   1.771   5.766   2.098  0.3063 -1.8671 -1.4984
 7159TIP3   OH221440   3.875   0.729   5.337  0.2373 -0.2581  0.5340
 7159TIP3    H121441   3.799   0.787   5.336  0.3427 -0.0942  1.3556
 7159TIP3    H221442   3.872   0.683   5.253 -1.2066 -0.8257  0.8658
 7160TIP3   OH221443   0.422   5.628   4.954 -0.3206  0.3634 -0.2604
 7160TIP3    H121444   0.378   5.680   4.886 -0.6659 -0.5760 -0.7819
 7160TIP3    H221445   0.504   5.600   4.913  0.4903  1.5662  0.4834
 7161TIP3   OH221446   5.590   6.469   0.145  0.6553  0.1203 -0.2245
 7161TIP3    H121447   5.604   6.527   0.070  1.4099  1.1276  0.6580
 7161TIP3    H221448   5.573   6.384   0.106 -4.4700  1.5013 -1.7470
 7162TIP3   OH221449   6.557   1.710   3.563  0.1278 -0.1659 -0.1798
 7162TIP3    H121450   6.481   1.764   3.583  0.1493 -0.5713  1.0950
 7162TIP3    H221451   6.523   1.621   3.555  0.0534  0.0138 -2.5166
 7163TIP3   OH221452   3.240   3.601   0.348 -0.0493  0.0670  0.2185
 7163TIP3    H121453   3.163   3.551   0.377  0.1857 -0.7506 -0.5117
 7163TIP3    H221454   3.250   3.670   0.414 -0.7236 -0.5125  0.9514
 7164TIP3   OH221455   1.390   5.924   5.860  0.2439 -0.2431  0.3468
 7164TIP3    H121456   1.363   6.016   5.858  3.0103  0.6796  0.5028
 7164TIP3    H221457   1.486   5.927   5.857  0.5131 -3.0719  1.9296
 7165TIP3   OH221458   2.317   5.111   5.230  0.3580  0.0646 -0.0784
 7165TIP3    H121459   2.330   5.187   5.287 -0.7585  0.6033 -0.5084
 7165TIP3    H221460   2.261   5.143   5.160  0.7177 -0.9026 -0.8353
 7166TIP3   OH221461   0.076   6.504   5.493  0.2389 -0.0762  0.6311
 7166TIP3    H121462   0.151   6.483   5.438  0.6374  0.3587  0.9979
 7166TIP3    H221463   0.067   6.599   5.486  1.8518  0.3711  3.2203
 7167TIP3   OH221464   4.444   4.435   0.981 -0.3821 -0.4517 -0.5028
 7167TIP3    H121465   4.520   4.493   0.977 -0.0777 -0.5329  2.1894
 7167TIP3    H221466   4.393   4.457   0.903  1.9975  0.1283 -1.9822
 7168TIP3   OH221467   3.553   6.611   5.769  0.1353 -0.7527 -0.2832
 7168TIP3    H121468   3.545   6.697   5.727  1.5586  0.5059  1.8434
 7168TIP3    H221469   3.647   6.597   5.776 -0.0853 -2.1872  0.0481
 7169TIP3   OH221470   5.140   0.217   3.097  0.3359 -0.5074  0.6217
 7169TIP3    H121471   5.068   0.235   3.038 -0.6222  0.6862  2.0892
 7169TIP3    H221472   5.131   0.124   3.119  1.4824 -1.3348 -2.0100
 7170TIP3   OH221473   5.182   6.209   5.681 -0.3063  0.9084  0.1132
 7170TIP3    H121474   5.192   6.115   5.665  0.1298  1.1526 -1.1546
 7170TIP3    H221475   5.094   6.217   5.718 -0.1871 -0.0368  0.6436
 7171TIP3   OH221476   6.997   2.454   0.863  0.2261  0.1207  0.2174
 7171TIP3    H121477   6.922   2.440   0.806  1.0300  0.4717 -0.9558
 7171TIP3    H221478   6.962   2.442   0.952 -1.2588  0.5582 -0.2826
 7172TIP3   OH221479   1.497   4.643   3.548 -0.0399 -0.0932 -0.3016
 7172TIP3    H121480   1.539   4.728   3.541  3.2613 -1.3598  1.9807
 7172TIP3    H221481   1.453   4.631   3.463  1.8441  2.5947 -1.7999
 7173TIP3   OH221482   0.989   4.257   1.742  0.0173 -0.2331 -0.5690
 7173TIP3    H121483   1.064   4.292   1.694 -0.7531  0.3016 -1.4207
 7173TIP3    H221484   1.008   4.164   1.751  0.5919 -0.1813 -1.1560
 7174TIP3   OH221485   0.986   5.495   0.972  0.4324 -0.1186 -0.2099
 7174TIP3    H121486   1.046   5.570   0.973  0.0797  0.1682  0.0057
 7174TIP3    H221487   1.034   5.425   1.014  0.8300 -0.0597 -0.5639
 7175TIP3   OH221488   5.074   0.145   4.970  0.0632  0.4429 -0.0146
 7175TIP3    H121489   5.041   0.182   4.888  2.2896 -0.6861 -1.5405
 7175TIP3    H221490   5.086   0.221   5.028  1.1707  1.7067 -1.7868
 7176TIP3   OH221491   1.703   3.265   4.929 -0.5262  0.5428 -0.6512
 7176TIP3    H121492   1.609   3.251   4.915 -0.5775 -3.4393  2.0547
 7176TIP3    H221493   1.710   3.287   5.022  1.3066 -2.1509 -0.0635
 7177TIP3   OH221494   1.821   5.721   3.478  0.0728 -0.2246  0.1181
 7177TIP3    H121495   1.784   5.707   3.391  1.1143  0.2521 -0.4222
 7177TIP3    H221496   1.769   5.665   3.535 -1.6890  0.6576 -0.5407
 7178TIP3   OH221497   5.972   2.817   0.652  0.0806 -0.4076 -0.6269
 7178TIP3    H121498   5.968   2.830   0.746  0.1362  2.3226 -0.9217
 7178TIP3    H221499   6.066   2.821   0.631 -0.0338  1.8008 -1.0234
 7179TIP3   OH221500   0.729   5.509   0.531  0.3693  0.2148  0.4022
 7179TIP3    H121501   0.759   5.598   0.554  2.2783 -0.2850  0.0105
 7179TIP3    H221502   0.760   5.454   0.603  4.4616 -1.0117 -1.9784
 7180TIP3   OH221503   4.539   4.666   3.143  0.2579  0.1441 -0.2297
 7180TIP3    H121504   4.622   4.637   3.105  0.7511 -0.5583  1.2832
 7180TIP3    H221505   4.548   4.761   3.150  1.0405  0.0577  0.1035
 7181TIP3   OH221506   5.037   0.120   1.869  0.1698 -0.5485  0.7275
 7181TIP3    H121507   5.036   0.034   1.827  2.3069  0.2460 -1.1273
 7181TIP3    H221508   4.950   0.156   1.851  0.1501 -1.2811 -0.8127
 7182TIP3   OH221509   1.158   2.517   0.937 -0.0926 -0.0076  0.1419
 7182TIP3    H121510   1.179   2.450   1.002  0.1338  0.5583  0.6636
 7182TIP3    H221511   1.152   2.599   0.987  0.3629  0.4894 -0.5901
 7183TIP3   OH221512   1.681   2.213   1.796  0.2827 -0.5409 -0.0088
 7183TIP3    H121513   1.595   2.222   1.755 -0.1902  0.8400  1.2376
 7183TIP3    H221514   1.743   2.216   1.722 -0.6214  0.5892 -0.7549
 7184TIP3   OH221515   1.829   3.791   1.241 -0.0300  0.0672  0.2694
 7184TIP3    H121516   1.859   3.730   1.308  1.2253 -2.6058 -2.4586
 7184TIP3    H221517   1.879   3.871   1.257  0.8802 -0.7819  1.9270
 7185TIP3   OH221518   1.512   4.913   1.026  0.3041  0.0054 -0.2442
 7185TIP3    H121519   1.435   4.865   0.995 -0.0924  1.5857 -1.8297
 7185TIP3    H221520   1.585   4.874   0.978  0.1444  0.2503 -0.6813
 7186TIP3   OH221521   0.312   0.204   4.011 -0.0063 -0.0480 -0.7126
 7186TIP3    H121522   0.296   0.253   3.930 -0.8528 -0.3112 -0.7076
 7186TIP3    H221523   0.256   0.247   4.076  0.0219 -0.3822 -0.4681
 7187TIP3   OH221524   2.835   2.901   4.122 -0.2593 -0.0851 -0.2766
 7187TIP3    H121525   2.846   2.928   4.031  1.2744  1.2477  0.2590
 7187TIP3    H221526   2.745   2.866   4.126  0.4003 -2.4615 -2.8051
 7188TIP3   OH221527   2.299   4.431   5.239  0.0261 -0.0221  0.3435
 7188TIP3    H121528   2.232   4.494   5.211 -0.3945 -1.0583 -1.1023
 7188TIP3    H221529   2.357   4.482   5.296 -1.1357  1.2882  0.4083
 7189TIP3   OH221530   1.719   4.518   2.378  0.1901 -0.3995 -0.1386
 7189TIP3    H121531   1.637   4.494   2.421  0.0587  0.5222  0.1531
 7189TIP3    H221532   1.692   4.571   2.303  0.4775 -0.9697 -0.6516
 7190TIP3   OH221533   4.180   4.287   3.258 -0.2991  0.6366  0.1146
 7190TIP3    H121534   4.191   4.363   3.200 -2.1246  1.0413  0.2355
 7190TIP3    H221535   4.168   4.324   3.345 -0.2119  0.1627  0.3304
 7191TIP3   OH221536   0.400   3.231   5.235  0.3117 -0.1105 -0.4435
 7191TIP3    H121537   0.492   3.257   5.238  0.5300 -0.8768  0.1071
 7191TIP3    H221538   0.393   3.161   5.300 -0.4865 -0.6242 -1.0551
 7192TIP3   OH221539   3.934   4.310   3.058 -0.0430 -0.4953  0.0020
 7192TIP3    H121540   3.878   4.329   3.132  0.7253 -2.7243  1.2636
 7192TIP3    H221541   3.974   4.225   3.079  2.8804  0.3911 -1.3564
 7193TIP3   OH221542   5.554   2.975   5.007 -0.0810  0.0466 -0.2624
 7193TIP3    H121543   5.571   3.023   4.926  0.6265  2.7558  1.3550
 7193TIP3    H221544   5.635   2.929   5.026  0.4192  0.9571 -0.1421
 7194TIP3   OH221545   2.930   0.470   3.867 -0.2721 -0.6394 -0.1036
 7194TIP3    H121546   2.891   0.387   3.839  1.1650 -1.6373  0.7192
 7194TIP3    H221547   2.865   0.508   3.926 -1.6133 -0.4068 -1.6746
 7195TIP3   OH221548   4.351   4.963   3.520 -0.3297  1.1676 -0.0580
 7195TIP3    H121549   4.369   4.920   3.437  3.3689 -2.1243  2.0870
 7195TIP3    H221550   4.414   5.035   3.524  2.0340 -0.8026  1.0806
 7196TIP3   OH221551   0.254   1.056   0.347 -0.2359  0.4675 -0.2647
 7196TIP3    H121552   0.176   1.013   0.382  1.2547 -2.0869  0.1076
 7196TIP3    H221553   0.253   1.143   0.387 -2.5490  0.3086  0.1861
 7197TIP3   OH221554   4.838   6.555   4.541 -1.0073 -0.3146  0.0429
 7197TIP3    H121555   4.906   6.491   4.520 -0.8514  0.0393 -0.5537
 7197TIP3    H221556   4.767   6.536   4.480 -1.0246 -0.0124 -0.0317
 7198TIP3   OH221557   2.345   2.231   3.124 -0.2015  0.3021 -0.1273
 7198TIP3    H121558   2.280   2.196   3.185 -0.2748 -1.3741 -1.1234
 7198TIP3    H221559   2.316   2.202   3.038  2.5857 -1.7767 -0.5051
 7199TIP3   OH221560   6.243   2.872   3.111 -0.2000  0.5317  0.6030
 7199TIP3    H121561   6.171   2.860   3.172  0.2265  1.5834  1.3435
 7199TIP3    H221562   6.284   2.955   3.137  0.0828  0.9456 -1.0200
 7200TIP3   OH221563   5.703   3.581   5.615 -0.4419  0.0191 -0.0935
 7200TIP3    H121564   5.674   3.590   5.525  0.7261 -1.6164 -0.6871
 7200TIP3    H221565   5.644   3.516   5.653 -2.0318  1.9292  0.9042
 7201TIP3   OH221566   5.069   6.721   3.348  0.3220  0.3182  0.2407
 7201TIP3    H121567   4.991   6.713   3.402  0.7618 -0.3400  0.7925
 7201TIP3    H221568   5.079   6.815   3.333 -0.9937  0.3615 -0.4667
 7202TIP3   OH221569   5.424   6.549   3.064  0.5469  0.3236  0.1215
 7202TIP3    H121570   5.417   6.454   3.062  0.1055  0.3434  0.5357
 7202TIP3    H221571   5.386   6.574   3.148 -0.6759  0.9719 -0.5974
 7203TIP3   OH221572   0.413   6.200   0.166 -0.2243  0.1391 -0.1597
 7203TIP3    H121573   0.369   6.247   0.237  0.3358  0.4952 -0.0377
 7203TIP3    H221574   0.450   6.269   0.111  0.0880 -0.1493 -0.3191
 7204TIP3   OH221575   4.746   4.480   1.971 -0.2507  0.4919 -0.7614
 7204TIP3    H121576   4.792   4.545   1.919 -1.5339  2.1061  0.0352
 7204TIP3    H221577   4.760   4.508   2.062  0.9430 -1.5738 -0.2540
 7205TIP3   OH221578   3.199   3.575   5.836 -0.4303  0.4103  0.5816
 7205TIP3    H121579   3.207   3.625   5.754 -2.0357 -1.2793 -0.6830
 7205TIP3    H221580   3.112   3.597   5.869 -0.1137  0.4341  1.4237
 7206TIP3   OH221581   2.967   1.612   5.301 -0.1853 -0.6127 -0.3533
 7206TIP3    H121582   2.955   1.704   5.320  0.3786 -0.4929 -0.5444
 7206TIP3    H221583   2.941   1.566   5.381  1.2673 -0.1768  0.4114
 7207TIP3   OH221584   0.230   0.628   4.686  0.0231 -0.0132  0.3565
 7207TIP3    H121585   0.235   0.722   4.668 -0.3524 -0.0728 -0.0949
 7207TIP3    H221586   0.270   0.587   4.610 -3.1353 -0.3319 -1.3200
 7208TIP3   OH221587   1.746   6.071   1.700 -0.6820 -0.4051  0.4562
 7208TIP3    H121588   1.652   6.083   1.719 -0.7531  0.2238 -0.2389
 7208TIP3    H221589   1.758   6.111   1.614  0.5536  1.0628  1.2606
 7209TIP3   OH221590   1.268   2.940   3.799 -0.1154 -0.5320  0.3984
 7209TIP3    H121591   1.179   2.930   3.767 -0.2466  0.3191  0.4905
 7209TIP3    H221592   1.322   2.898   3.731 -0.5305 -0.4444  0.0111
 7210TIP3   OH221593   3.111   0.569   0.193  0.3134 -0.0661 -0.3496
 7210TIP3    H121594   3.134   0.479   0.215  2.0326 -0.3428 -2.8659
 7210TIP3    H221595   3.051   0.561   0.119 -0.4424  0.8711  0.1400
 7211TIP3   OH221596   1.350   2.150   5.832 -0.2579  0.4448  0.3006
 7211TIP3    H121597   1.322   2.147   5.741 -2.3033 -0.7409  0.9264
 7211TIP3    H221598   1.327   2.238   5.861 -1.1311  0.2807  0.1207
 7212TIP3   OH221599   0.010   0.064   0.921  0.3120 -0.3049 -0.3952
 7212TIP3    H121600   0.062   0.030   0.848 -0.5726 -0.6801 -0.8666
 7212TIP3    H221601   0.074   0.096   0.984  1.0960  0.5778 -1.5987
 7213TIP3   OH221602   2.384   2.231   5.571 -0.4078  0.1242 -0.1559
 7213TIP3    H121603   2.426   2.302   5.618 -1.8238  0.8928  0.0078
 7213TIP3    H221604   2.416   2.239   5.481  1.0687 -0.3681  0.2937
 7214TIP3   OH221605   5.320   0.961   0.052 -0.5680 -0.2339 -0.1275
 7214TIP3    H121606   5.326   0.999  -0.036  0.3222 -1.9516 -0.8571
 7214TIP3    H221607   5.372   1.020   0.107  2.1349 -1.1241 -1.5401
 7215TIP3   OH221608   7.097   4.876   0.051 -0.5282 -0.3227  0.2212
 7215TIP3    H121609   7.084   4.784   0.076  0.3315 -0.0850  1.6949
 7215TIP3    H221610   7.183   4.898   0.087 -0.5698  0.9738 -0.4094
 7216TIP3   OH221611   6.647   4.944   5.744 -0.3037  0.0591 -0.0239
 7216TIP3    H121612   6.681   4.911   5.661 -0.0537  0.8174 -0.2276
 7216TIP3    H221613   6.721   4.937   5.805 -0.1772  0.4419 -0.1267
 7217TIP3   OH221614   3.627   6.642   3.401 -0.0798  0.1292  0.2758
 7217TIP3    H121615   3.656   6.732   3.387  3.3489 -1.0912 -1.7574
 7217TIP3    H221616   3.541   6.637   3.360  0.1072  2.2419 -0.4874
 7218TIP3   OH221617   4.421   3.837   2.822  0.4764 -0.1755 -0.1501
 7218TIP3    H121618   4.438   3.769   2.757  1.6625  0.9264 -1.0620
 7218TIP3    H221619   4.407   3.916   2.770 -2.3606  0.0802  0.7943
 7219TIP3   OH221620   2.141   1.536   1.228  0.6988 -0.4541 -0.1112
 7219TIP3    H121621   2.127   1.442   1.238 -1.4375 -0.2762 -0.9041
 7219TIP3    H221622   2.218   1.543   1.172  0.4556 -1.7372 -0.6361
 7220TIP3   OH221623   3.310   1.291   0.293  0.3668 -0.2963 -0.8033
 7220TIP3    H121624   3.217   1.307   0.277  0.2361  0.9252  0.8222
 7220TIP3    H221625   3.331   1.213   0.243 -2.0809 -1.8712  0.4765
 7221TIP3   OH221626   0.868   4.359   0.048 -0.2722  0.2582  0.5397
 7221TIP3    H121627   0.925   4.436   0.040  0.8338 -0.6439 -0.5639
 7221TIP3    H221628   0.922   4.294   0.093 -0.0382 -0.9382 -1.3625
 7222TIP3   OH221629   3.303   4.810   3.460  0.3663 -0.4889  0.5904
 7222TIP3    H121630   3.252   4.875   3.509  0.4488 -0.3126  0.4444
 7222TIP3    H221631   3.375   4.860   3.422  1.3746 -0.9394  1.8045
 7223TIP3   OH221632   1.279   3.066   2.633  0.5493  0.4647 -0.1397
 7223TIP3    H121633   1.276   3.007   2.557  1.8686 -0.0273  0.1641
 7223TIP3    H221634   1.288   3.007   2.708 -1.0027  0.9327  0.4565
 7224TIP3   OH221635   4.623   4.006   0.997  0.2932  0.1124  0.1264
 7224TIP3    H121636   4.554   4.047   1.049 -0.1068 -1.0724  0.5707
 7224TIP3    H221637   4.593   4.011   0.907  0.3358  0.9430  0.1563
 7225TIP3   OH221638   1.428   5.123   3.567  0.1907 -0.1325  0.1499
 7225TIP3    H121639   1.349   5.135   3.515  0.2426 -0.1651  0.0630
 7225TIP3    H221640   1.465   5.040   3.535 -0.1187 -0.4810  0.6761
 7226TIP3   OH221641   4.052   0.463   3.998  0.2817 -0.0543  0.0737
 7226TIP3    H121642   4.003   0.471   4.080 -2.0785  2.4886 -1.4209
 7226TIP3    H221643   4.011   0.389   3.954  0.6211 -0.5592  0.5943
 7227TIP3   OH221644   2.040   4.662   2.912 -0.0742 -0.0850 -0.4533
 7227TIP3    H121645   1.984   4.664   2.834  1.6814  0.0526 -1.7963
 7227TIP3    H221646   2.021   4.744   2.957 -0.0571  0.5681 -1.5764
 7228TIP3   OH221647   6.594   3.833   3.849  0.1464  0.1319 -0.0883
 7228TIP3    H121648   6.529   3.903   3.862  0.0222 -0.2461  1.6325
 7228TIP3    H221649   6.675   3.869   3.886  0.2563 -0.3561  0.1521
 7229TIP3   OH221650   0.186   6.644   4.465  0.4498  0.1713 -0.0590
 7229TIP3    H121651   0.256   6.583   4.493  1.4023  0.4685 -1.6825
 7229TIP3    H221652   0.122   6.640   4.536  0.7120 -2.3599  0.1398
 7230TIP3   OH221653   2.639   1.393   2.516 -0.5509  0.2988 -0.1304
 7230TIP3    H121654   2.602   1.468   2.563  1.4726  0.8588  0.6785
 7230TIP3    H221655   2.676   1.431   2.437 -1.4590 -0.2225 -0.8281
 7231TIP3   OH221656   0.717   0.301   2.703 -0.1701 -0.2063  0.2765
 7231TIP3    H121657   0.764   0.364   2.756 -0.9262  0.5779  0.0411
 7231TIP3    H221658   0.641   0.277   2.757  0.1118 -0.9287  0.3664
 7232TIP3   OH221659   5.071   4.704   5.280 -0.3632  0.2453  0.7738
 7232TIP3    H121660   5.002   4.720   5.216  0.8133 -3.0296 -1.5575
 7232TIP3    H221661   5.035   4.635   5.337 -0.1099  0.6961  1.4951
 7233TIP3   OH221662   1.505   3.725   1.291 -0.1545 -0.5467 -0.0811
 7233TIP3    H121663   1.548   3.712   1.375 -0.6243  0.7655  0.3842
 7233TIP3    H221664   1.561   3.787   1.245 -0.3476 -0.6105 -0.4035
 7234TIP3   OH221665   2.180   1.820   5.246  0.1169 -0.0043 -0.2759
 7234TIP3    H121666   2.228   1.750   5.201 -1.6011 -1.9832  0.7954
 7234TIP3    H221667   2.132   1.775   5.316 -3.3126  1.7232 -1.2600
 7235TIP3   OH221668   1.732   6.151   0.344  0.4899 -0.0313  0.2075
 7235TIP3    H121669   1.818   6.136   0.383  0.8804 -0.2655 -0.7366
 7235TIP3    H221670   1.743   6.132   0.251 -0.7040 -0.5185  0.1511
 7236TIP3   OH221671   4.789   4.039   4.782 -0.0437 -0.8404 -0.3216
 7236TIP3    H121672   4.700   4.071   4.794 -0.0147  0.1231 -2.3690
 7236TIP3    H221673   4.810   4.057   4.691  3.6181  2.6280  0.8985
 7237TIP3   OH221674   6.765   6.178   1.941  0.1454  0.3018  0.1052
 7237TIP3    H121675   6.731   6.090   1.959  2.6731 -0.6889  0.5635
 7237TIP3    H221676   6.727   6.233   2.010 -1.7128 -0.3361 -0.3626
 7238TIP3   OH221677   3.526   0.884   4.692 -0.0992  0.4218  0.2796
 7238TIP3    H121678   3.458   0.943   4.726 -1.2670 -0.2909 -0.7099
 7238TIP3    H221679   3.510   0.801   4.737 -0.6239 -0.0622 -0.7469
 7239TIP3   OH221680   1.966   2.666   1.780 -0.4271 -0.0063  0.2832
 7239TIP3    H121681   2.004   2.670   1.692 -1.2694 -1.0489 -0.1509
 7239TIP3    H221682   1.883   2.712   1.773 -1.1553 -1.2830  0.1448
 7240TIP3   OH221683   4.810   0.484   0.620  0.1571  0.1158  0.0350
 7240TIP3    H121684   4.797   0.578   0.619  1.1977  0.2711 -1.2487
 7240TIP3    H221685   4.876   0.470   0.688 -0.0940  0.2869  0.3175
 7241TIP3   OH221686   7.171   2.454   3.574  0.3932  0.1339 -0.9033
 7241TIP3    H121687   7.113   2.378   3.569  0.2502  0.3117 -2.2335
 7241TIP3    H221688   7.253   2.425   3.533  0.5771  0.4777 -0.7828
 7242TIP3   OH221689   1.878   3.919   4.877  0.5091  0.0515  0.1658
 7242TIP3    H121690   1.816   3.875   4.935 -0.2078 -0.4376 -0.9351
 7242TIP3    H221691   1.824   3.955   4.807  1.3778  0.3718 -0.3598
 7243TIP3   OH221692   3.164   3.516   4.942 -0.0731  0.1927  0.5223
 7243TIP3    H121693   3.134   3.522   5.032 -4.4197 -3.0232 -0.3917
 7243TIP3    H221694   3.107   3.577   4.894 -2.0698 -2.4282 -0.6568
 7244TIP3   OH221695   3.531   0.187   3.524  0.5525 -0.1318 -0.6367
 7244TIP3    H121696   3.563   0.105   3.488 -0.9349 -2.0748  2.0838
 7244TIP3    H221697   3.436   0.184   3.511  0.2481  0.1809  1.2323
 7245TIP3   OH221698   0.904   6.340   2.311 -0.3682 -0.0382 -0.2316
 7245TIP3    H121699   0.982   6.337   2.255 -0.5049  0.7504 -0.4707
 7245TIP3    H221700   0.865   6.253   2.301 -0.3672  0.0691 -1.3418
 7246TIP3   OH221701   3.931   5.300   1.923  0.0813  0.1093  0.1257
 7246TIP3    H121702   3.982   5.379   1.905 -0.5782  0.0998 -2.0552
 7246TIP3    H221703   3.985   5.228   1.889 -0.7745 -0.0283 -0.9793
 7247TIP3   OH221704   0.665   2.156   1.557 -0.0665 -0.1222  0.0315
 7247TIP3    H121705   0.662   2.246   1.589  0.4624  0.1812 -0.7537
 7247TIP3    H221706   0.586   2.147   1.503 -0.4851 -0.3569  0.6645
 7248TIP3   OH221707   3.621   6.323   5.350  0.3729 -0.1989 -0.0614
 7248TIP3    H121708   3.670   6.289   5.425  0.2149 -0.6469 -0.1570
 7248TIP3    H221709   3.671   6.399   5.322  2.1296 -1.7379 -1.3645
 7249TIP3   OH221710   4.119   5.329   2.504  0.2399 -0.0380  0.4542
 7249TIP3    H121711   4.049   5.265   2.492  0.4811 -0.0585 -1.1420
 7249TIP3    H221712   4.084   5.392   2.568 -1.4672  0.2410 -0.6815
 7250TIP3   OH221713   5.076   3.105   4.550  0.2483  0.8114  0.1984
 7250TIP3    H121714   5.064   3.187   4.502 -2.4572  0.4157  0.0500
 7250TIP3    H221715   5.063   3.037   4.484  0.4281  0.2594  0.7256
 7251TIP3   OH221716   2.067   1.708   1.017 -0.3481  0.6251 -0.2773
 7251TIP3    H121717   1.988   1.691   0.966 -0.4058 -0.6266  0.1929
 7251TIP3    H221718   2.072   1.634   1.078  0.9240  0.9375  0.0164
 7252TIP3   OH221719   5.453   3.794   2.365 -0.3484 -0.2082 -0.3889
 7252TIP3    H121720   5.504   3.725   2.408 -0.5388 -0.3321 -0.3604
 7252TIP3    H221721   5.409   3.750   2.292 -0.8756 -0.2270 -0.0635
 7253TIP3   OH221722   4.060   3.310   2.712 -0.1221  0.0267  0.3636
 7253TIP3    H121723   3.975   3.344   2.740 -0.1665  0.2453 -0.0289
 7253TIP3    H221724   4.039   3.242   2.648  0.0164  0.8567 -0.5880
 7254TIP3   OH221725   5.832   0.219   5.189  0.1638  0.0302  0.6060
 7254TIP3    H121726   5.832   0.125   5.207 -0.5688 -0.1095 -0.0743
 7254TIP3    H221727   5.918   0.249   5.219 -0.0769 -0.6129  2.0286
 7255TIP3   OH221728   0.050   1.492   5.477 -0.5788 -0.6675  0.5045
 7255TIP3    H121729   0.074   1.438   5.402 -1.6045  0.0864 -0.4014
 7255TIP3    H221730  -0.043   1.512   5.463  0.0559  2.3935  0.0731
 7256TIP3   OH221731   6.135   3.950   3.790 -0.2348  0.4612  0.0734
 7256TIP3    H121732   6.217   3.982   3.751 -0.2397  0.9966  0.4820
 7256TIP3    H221733   6.144   3.855   3.789 -0.2534  0.4623 -1.2481
 7257TIP3   OH221734   7.054   3.207   3.372 -0.3771 -0.5518  0.1511
 7257TIP3    H121735   7.127   3.178   3.427 -0.0867 -1.3508 -0.6371
 7257TIP3    H221736   7.034   3.132   3.316 -1.0743  0.0354 -0.4131
 7258TIP3   OH221737   2.540   2.375   0.825  0.0866  0.0446  0.0786
 7258TIP3    H121738   2.449   2.394   0.845 -0.6070  0.0903 -2.6947
 7258TIP3    H221739   2.545   2.279   0.826  0.5401  0.0509  2.1021
 7259TIP3   OH221740   3.049   1.472   2.030  0.2977  0.3402 -1.1828
 7259TIP3    H121741   3.124   1.434   2.077 -0.8671 -0.3582  0.1716
 7259TIP3    H221742   2.998   1.516   2.097 -3.2273 -3.4823 -0.9598
 7260TIP3   OH221743   1.619   2.057   1.283 -0.0427  0.2179 -0.3830
 7260TIP3    H121744   1.660   1.980   1.243  2.8590  1.1933  0.4593
 7260TIP3    H221745   1.663   2.066   1.368 -0.2147  2.8225 -0.4905
 7261TIP3   OH221746   0.514   3.723   0.771 -0.0447 -0.3832  0.1174
 7261TIP3    H121747   0.471   3.717   0.856 -3.1567 -1.8307 -1.3850
 7261TIP3    H221748   0.519   3.817   0.753  1.7280  0.0300  2.2612
 7262TIP3   OH221749   1.159   3.234   4.936 -0.4074  0.2470 -0.2428
 7262TIP3    H121750   1.130   3.201   5.021  0.2714 -2.7729 -1.0892
 7262TIP3    H221751   1.080   3.234   4.882  0.0060 -2.8493 -1.0137
 7263TIP3   OH221752   6.686   4.815   4.558  0.3588 -0.2970  0.2943
 7263TIP3    H121753   6.734   4.740   4.523  1.2837 -0.1259  1.1515
 7263TIP3    H221754   6.724   4.891   4.513  1.5426 -0.0771  1.5888
 7264TIP3   OH221755   2.931   3.025   0.459  0.0877 -0.3653 -0.0126
 7264TIP3    H121756   3.005   3.085   0.470  0.7163 -1.0331 -0.4648
 7264TIP3    H221757   2.934   3.000   0.367 -1.6670  0.8037 -0.4254
 7265TIP3   OH221758   3.376   6.042   1.601  0.2023  0.3678 -0.2603
 7265TIP3    H121759   3.399   5.956   1.635 -5.8910 -0.7985  2.2296
 7265TIP3    H221760   3.363   6.028   1.507 -1.1581 -1.6977  0.1753
 7266TIP3   OH221761   1.439   5.710   5.374 -0.4225 -0.5078  0.0832
 7266TIP3    H121762   1.513   5.651   5.361  0.8788  1.0716 -0.1140
 7266TIP3    H221763   1.430   5.716   5.469 -0.1370 -0.5325  0.1137
 7267TIP3   OH221764   6.018   4.138   5.233  0.1328 -0.3473 -0.6199
 7267TIP3    H121765   6.009   4.128   5.139  0.3625 -0.1878 -0.6601
 7267TIP3    H221766   5.998   4.230   5.250 -2.3503 -0.8746 -0.2061
 7268TIP3   OH221767   2.010   5.987   0.422  0.1401 -0.6088  0.1871
 7268TIP3    H121768   1.984   5.957   0.509 -0.6936 -2.0999 -0.5293
 7268TIP3    H221769   2.074   5.923   0.392  0.2525 -0.2341 -0.3974
 7269TIP3   OH221770   1.121   6.592   3.209  0.0488 -0.6389 -0.8617
 7269TIP3    H121771   1.118   6.680   3.172  3.3132 -0.6842 -1.5993
 7269TIP3    H221772   1.076   6.538   3.144 -1.1090  0.3276 -0.8941
 7270TIP3   OH221773   1.981   3.649   4.732 -0.5421 -0.2374  0.0934
 7270TIP3    H121774   1.960   3.718   4.795  2.7898 -1.2965  2.6218
 7270TIP3    H221775   1.931   3.573   4.762  2.0314 -1.1233  2.5114
 7271TIP3   OH221776   1.056   4.169   0.142  0.0052 -0.2250 -0.4005
 7271TIP3    H121777   1.076   4.198   0.231  0.7986  0.5377 -0.8114
 7271TIP3    H221778   1.093   4.082   0.135  1.3075  0.3150 -0.4546
 7272TIP3   OH221779   3.954   6.198   4.234  0.4506 -0.3951 -0.0066
 7272TIP3    H121780   3.919   6.219   4.321  0.5742 -0.4830  0.0645
 7272TIP3    H221781   3.951   6.103   4.229 -1.9079 -0.3462 -1.0689
 7273TIP3   OH221782  -0.016   4.666   2.038  0.3513  0.2091  0.1916
 7273TIP3    H121783  -0.001   4.578   2.073 -1.1561 -0.3787 -0.5252
 7273TIP3    H221784   0.038   4.669   1.958 -0.1200 -0.3415 -0.1582
 7274TIP3   OH221785   2.180   2.287   3.738 -0.1497 -0.2039  0.2677
 7274TIP3    H121786   2.117   2.353   3.768  1.1239  0.8701  0.7219
 7274TIP3    H221787   2.203   2.315   3.649  1.3841  0.8042  0.9307
 7275TIP3   OH221788   5.399   3.142   0.427 -0.3941 -0.0809 -0.4937
 7275TIP3    H121789   5.408   3.067   0.486 -1.2026 -1.2251 -1.7691
 7275TIP3    H221790   5.403   3.105   0.339 -3.3703  0.9964 -1.1964
 7276TIP3   OH221791   5.486   6.176   4.061  0.3854 -0.0043 -0.6286
 7276TIP3    H121792   5.472   6.270   4.050 -0.3496  0.0931  0.9019
 7276TIP3    H221793   5.512   6.166   4.152  0.9288 -1.2547 -0.8932
 7277TIP3   OH221794   2.302   1.339   0.434 -0.1741  0.3500 -0.1385
 7277TIP3    H121795   2.381   1.325   0.486 -0.6343  0.1776  0.5301
 7277TIP3    H221796   2.294   1.259   0.381  0.6393  0.7939 -0.9447
 7278TIP3   OH221797   4.015   3.218   5.263  0.1077 -0.2845 -0.0578
 7278TIP3    H121798   3.965   3.167   5.199 -0.6825  0.3141  0.0545
 7278TIP3    H221799   4.100   3.175   5.267 -0.2839 -1.1363 -0.5091
 7279TIP3   OH221800   4.207   5.097   0.835  0.4702  0.0086 -0.0783
 7279TIP3    H121801   4.173   5.171   0.885 -0.8329 -1.2242  0.9453
 7279TIP3    H221802   4.184   5.117   0.744 -1.8762 -0.1148  0.4170
 7280TIP3   OH221803   2.728   5.665   2.229  0.3364 -0.0407  0.5618
 7280TIP3    H121804   2.722   5.608   2.152  0.0676  0.0018  0.5516
 7280TIP3    H221805   2.712   5.606   2.303 -1.6241  0.3046  0.4679
 7281TIP3   OH221806   2.062   5.449   1.320 -0.4549  0.0005 -0.2165
 7281TIP3    H121807   2.153   5.473   1.305 -0.7681  0.8119 -0.9860
 7281TIP3    H221808   2.032   5.509   1.388 -0.3691 -0.3779  0.1550
 7282TIP3   OH221809   6.883   3.676   1.377  0.1770  0.6332  0.0279
 7282TIP3    H121810   6.958   3.735   1.370  1.9167 -1.6342 -1.9088
 7282TIP3    H221811   6.917   3.598   1.421 -1.6019  0.2959  0.9349
 7283TIP3   OH221812   7.201   3.418   0.055 -0.3016 -0.0990 -0.2500
 7283TIP3    H121813   7.124   3.416  -0.002 -0.8483 -1.4408  0.5026
 7283TIP3    H221814   7.199   3.506   0.094 -0.7529  0.3120 -1.1441
 7284TIP3   OH221815   2.680   6.021   4.746  0.0576 -0.3648 -0.1530
 7284TIP3    H121816   2.729   6.008   4.665  0.6655 -1.3409  0.3433
 7284TIP3    H221817   2.713   6.104   4.780  0.8967 -0.6666 -0.1797
 7285TIP3   OH221818   2.384   6.692   5.488  0.2120 -0.1472  0.1065
 7285TIP3    H121819   2.313   6.629   5.481  1.0099 -1.0845  0.2536
 7285TIP3    H221820   2.400   6.700   5.582  0.7574 -0.4803  0.0489
 7286TIP3   OH221821   2.535   5.991   5.397 -0.0753  0.3205 -0.3895
 7286TIP3    H121822   2.478   5.920   5.366  1.3002  0.0812 -2.6080
 7286TIP3    H221823   2.557   5.966   5.487 -2.1267 -0.4002 -0.0329
 7287TIP3   OH221824   4.066   6.282   3.458  0.4678 -0.1826 -0.3546
 7287TIP3    H121825   4.130   6.333   3.410  0.5586  0.1126  0.0746
 7287TIP3    H221826   3.985   6.331   3.450  0.1311 -0.8817 -1.4420
 7288TIP3   OH221827   2.123   3.411   2.706  0.6901 -0.1667 -0.0335
 7288TIP3    H121828   2.141   3.426   2.799  0.3358  1.7708 -0.2248
 7288TIP3    H221829   2.071   3.331   2.703 -0.6514  0.5884  1.6055
 7289TIP3   OH221830   5.784   5.707   0.771 -0.5746  0.6631  0.2997
 7289TIP3    H121831   5.855   5.680   0.713 -2.1067 -0.0405 -1.3406
 7289TIP3    H221832   5.823   5.775   0.826  1.0439  1.1754 -1.3729
 7290TIP3   OH221833   2.343   1.441   2.985 -0.3903 -0.0625  0.1230
 7290TIP3    H121834   2.294   1.359   2.992  1.6961 -1.5377 -1.3952
 7290TIP3    H221835   2.340   1.463   2.892  0.2622  0.8302  0.2993
 7291TIP3   OH221836   6.395   3.473   2.457 -0.0833  0.2167  0.8004
 7291TIP3    H121837   6.448   3.404   2.496 -1.3600 -3.0927 -2.6805
 7291TIP3    H221838   6.429   3.483   2.368 -2.8244  0.6591 -0.3158
 7292TIP3   OH221839   3.553   4.509   4.397  0.3619  0.3874  0.3412
 7292TIP3    H121840   3.509   4.492   4.314 -0.0934  0.6302  0.5293
 7292TIP3    H221841   3.485   4.545   4.454  0.4919 -0.4495  1.0496
 7293TIP3   OH221842   3.494   3.956   0.957 -0.1334  0.0462  0.3883
 7293TIP3    H121843   3.470   3.879   1.007 -0.5878 -0.4824 -0.5982
 7293TIP3    H221844   3.589   3.963   0.965 -0.0204 -0.9472  0.0468
 7294TIP3   OH221845   3.309   2.222   2.989  0.0077 -0.0616  0.5188
 7294TIP3    H121846   3.250   2.171   2.934 -0.7579 -0.5174  1.7407
 7294TIP3    H221847   3.257   2.297   3.017  0.3513  0.1082  0.7086
 7295TIP3   OH221848   5.823   5.263   4.595  0.1427  0.1261 -0.0712
 7295TIP3    H121849   5.781   5.206   4.658  0.6207 -0.6398 -0.4234
 7295TIP3    H221850   5.862   5.333   4.647 -1.2201  0.6459  0.2848
 7296TIP3   OH221851   3.843   1.809   0.046  0.5848  0.4541  0.3963
 7296TIP3    H121852   3.896   1.745  -0.001 -0.8013 -0.4153 -0.0669
 7296TIP3    H221853   3.813   1.870  -0.021  0.1792  0.3348  0.4636
 7297TIP3   OH221854   1.523   6.276   0.110 -0.1197 -1.3021 -0.0153
 7297TIP3    H121855   1.567   6.342   0.056 -1.0043 -1.0271 -0.4246
 7297TIP3    H221856   1.543   6.302   0.200 -0.9649 -0.0850 -0.1538
 7298TIP3   OH221857   2.031   0.570   2.879 -0.3000 -0.1617  0.3821
 7298TIP3    H121858   1.961   0.634   2.891  0.0385  0.9137 -2.5234
 7298TIP3    H221859   2.107   0.608   2.923 -0.3471  1.0146 -0.5080
 7299TIP3   OH221860   0.260   5.153   0.259  0.0396 -0.5076 -0.8352
 7299TIP3    H121861   0.343   5.138   0.303 -0.2367  0.9982  0.2628
 7299TIP3    H221862   0.280   5.216   0.190 -0.1330 -0.3423 -0.7367
 7300TIP3   OH221863   6.094   2.561   4.779 -0.2338 -0.6275  0.0146
 7300TIP3    H121864   6.076   2.468   4.763 -1.8144 -0.8784  2.6698
 7300TIP3    H221865   6.178   2.561   4.824 -0.8089 -0.9363  1.1279
 7301TIP3   OH221866   4.974   5.693   3.411 -0.1092 -0.4400 -0.0151
 7301TIP3    H121867   4.923   5.706   3.491 -0.4691  2.4002 -0.6080
 7301TIP3    H221868   5.040   5.762   3.413  0.3415 -0.7645 -1.8119
 7302TIP3   OH221869   1.788   6.480   4.365  0.2415  0.3201  0.0383
 7302TIP3    H121870   1.853   6.545   4.338  1.3206 -0.5230  0.5458
 7302TIP3    H221871   1.704   6.521   4.347  0.9081  0.9565 -1.8184
 7303TIP3   OH221872   4.543   0.202   3.331  0.4197  0.3470  0.2556
 7303TIP3    H121873   4.523   0.268   3.398 -0.0177 -1.3412  1.8632
 7303TIP3    H221874   4.459   0.188   3.286  0.5099  0.8443 -0.0810
 7304TIP3   OH221875   2.269   1.251   2.698 -0.5560  0.3295  0.3862
 7304TIP3    H121876   2.361   1.263   2.725 -0.7807  1.4720  0.6943
 7304TIP3    H221877   2.260   1.156   2.688  0.5600  0.1657  0.7143
 7305TIP3   OH221878   5.802   5.928   1.496 -0.4321  0.3112 -0.0247
 7305TIP3    H121879   5.761   5.847   1.526 -1.1006  0.7395  0.2352
 7305TIP3    H221880   5.856   5.956   1.570  1.2066 -0.8096 -0.7425
 7306TIP3   OH221881   1.115   6.008   2.334  0.2791 -0.7019  0.3031
 7306TIP3    H121882   1.033   6.051   2.313 -0.0006 -0.6505  1.4297
 7306TIP3    H221883   1.179   6.078   2.341 -0.3683 -0.2800  3.0765
 7307TIP3   OH221884   3.842   2.886   2.619 -0.0677 -0.0726 -0.1979
 7307TIP3    H121885   3.761   2.938   2.613 -0.8034 -1.3167 -2.4585
 7307TIP3    H221886   3.811   2.796   2.632  1.0198 -0.4312 -0.0006
 7308TIP3   OH221887   7.091   6.569   1.396  0.2294  0.3309  0.0115
 7308TIP3    H121888   7.150   6.519   1.339  1.0027 -0.0040  1.0602
 7308TIP3    H221889   7.119   6.660   1.385  1.6015  0.0897  1.1750
 7309TIP3   OH221890   3.362   3.824   3.699  0.6440  0.1127  0.1690
 7309TIP3    H121891   3.382   3.812   3.606  0.3150 -1.4578  0.2768
 7309TIP3    H221892   3.267   3.824   3.704  0.3682  4.9128 -0.0048
 7310TIP3   OH221893   2.671   3.738   3.886  0.1715 -0.2391  0.5521
 7310TIP3    H121894   2.578   3.741   3.905 -0.0434 -1.0925 -0.3166
 7310TIP3    H221895   2.713   3.773   3.965 -0.7817 -1.9436  1.8755
 7311TIP3   OH221896   0.993   6.676   0.370  0.5281 -0.1786  0.2910
 7311TIP3    H121897   0.946   6.603   0.329  1.6753 -0.4027 -0.6712
 7311TIP3    H221898   1.022   6.641   0.455 -1.5999  0.1932  1.2335
 7312TIP3   OH221899   5.869   2.831   5.333  0.0368  0.1927 -0.4792
 7312TIP3    H121900   5.938   2.765   5.333  0.0352  0.1840  0.1395
 7312TIP3    H221901   5.822   2.817   5.250 -0.7158 -1.3630  0.1707
 7313TIP3   OH221902   2.698   1.119   4.340  0.1663  0.2678 -0.2462
 7313TIP3    H121903   2.618   1.122   4.288  0.0287  1.7227 -0.0193
 7313TIP3    H221904   2.766   1.092   4.279 -0.4893 -0.9680 -0.4431
 7314TIP3   OH221905   1.920   6.707   3.138  0.1159 -0.2853  0.1155
 7314TIP3    H121906   1.971   6.771   3.089 -1.4930 -1.2253 -3.0123
 7314TIP3    H221907   1.940   6.623   3.097 -0.8938 -1.2354  1.4661
 7315TIP3   OH221908   0.142   3.597   5.143  0.0859 -0.5386 -0.2612
 7315TIP3    H121909   0.145   3.520   5.199  0.5269 -0.8805 -0.7449
 7315TIP3    H221910   0.085   3.658   5.189 -0.7707 -1.3922 -0.1570
 7316TIP3   OH221911   2.743   6.530   5.206  0.3728  0.3289  0.6483
 7316TIP3    H121912   2.662   6.570   5.237  0.5719  1.7001 -0.5022
 7316TIP3    H221913   2.720   6.438   5.190 -1.0855  0.7776 -0.0279
 7317TIP3   OH221914   1.410   1.617   0.650  0.0668  0.2073 -0.1817
 7317TIP3    H121915   1.361   1.693   0.618  0.2589  0.8340  0.9786
 7317TIP3    H221916   1.365   1.542   0.612 -1.5687  0.7825  0.5344
 7318TIP3   OH221917   6.284   0.495   1.253 -0.2030  0.1143 -0.1889
 7318TIP3    H121918   6.208   0.492   1.194  0.4984  0.6137 -1.1512
 7318TIP3    H221919   6.310   0.404   1.264 -0.3071  0.0218 -0.7017
 7319TIP3   OH221920   5.224   0.845   4.709  0.8586  0.4592  0.4777
 7319TIP3    H121921   5.153   0.783   4.724  1.2468  0.1637  1.1085
 7319TIP3    H221922   5.232   0.893   4.792 -0.8209  2.8237 -0.5864
 7320TIP3   OH221923   6.333   0.139   2.987 -0.1408 -0.1616  0.0303
 7320TIP3    H121924   6.403   0.094   3.034 -1.0460  0.0224  1.5992
 7320TIP3    H221925   6.296   0.200   3.050 -0.9325  0.6256 -1.1451
 7321TIP3   OH221926   2.365   6.484   2.772 -0.1034 -0.5035 -0.8089
 7321TIP3    H121927   2.293   6.518   2.719  0.6841  2.1458 -0.3413
 7321TIP3    H221928   2.344   6.513   2.861  1.5597  0.4391 -0.6939
 7322TIP3   OH221929   4.325   2.029   0.496  0.1299  0.2934 -0.5082
 7322TIP3    H121930   4.351   1.995   0.581  2.9082  2.7626 -0.2025
 7322TIP3    H221931   4.379   1.981   0.433  0.4420  0.6831 -0.5428
 7323TIP3   OH221932   6.118   1.033   3.936  0.0308 -0.4667 -0.0776
 7323TIP3    H121933   6.142   0.971   4.005  2.6525 -0.7244 -1.1123
 7323TIP3    H221934   6.117   1.118   3.980 -1.3482 -0.9136  0.8552
 7324TIP3   OH221935   4.457   6.728   0.855 -0.1380  0.7735 -0.1857
 7324TIP3    H121936   4.551   6.727   0.837 -0.0612  0.1944  0.2111
 7324TIP3    H221937   4.451   6.750   0.948 -0.3024 -0.8311  0.2162
 7325TIP3   OH221938   5.834   5.248   1.358 -0.0694 -0.3057  0.2648
 7325TIP3    H121939   5.894   5.175   1.341  0.1294 -0.1442  0.2642
 7325TIP3    H221940   5.876   5.323   1.316 -0.9284 -0.4512 -0.8970
 7326TIP3   OH221941   3.961   2.546   0.115 -0.6115 -0.0077  0.2035
 7326TIP3    H121942   4.056   2.550   0.125 -0.7114 -0.3584  1.5235
 7326TIP3    H221943   3.927   2.584   0.196 -1.5676 -1.6904  0.6349
 7327TIP3   OH221944   2.836   2.861   5.435  0.3217 -0.0946  0.5820
 7327TIP3    H121945   2.754   2.904   5.412  0.7478  0.5896  0.3294
 7327TIP3    H221946   2.822   2.768   5.414 -0.2426  0.0867  0.1560
 7328TIP3   OH221947   6.666   6.643   0.317  0.3872  0.3737 -0.0315
 7328TIP3    H121948   6.714   6.700   0.258  1.1562  0.1215  0.3384
 7328TIP3    H221949   6.626   6.702   0.381  2.4838  0.4297  1.3003
 7329TIP3   OH221950   4.981   5.796   2.245  0.0066  0.6032 -0.2644
 7329TIP3    H121951   4.899   5.800   2.293 -0.9612 -1.0885 -1.6669
 7329TIP3    H221952   4.997   5.703   2.232  1.0493  0.9539 -1.8209
 7330TIP3   OH221953   2.796   5.300   1.070  0.7816 -0.6724 -0.4481
 7330TIP3    H121954   2.813   5.326   1.160 -3.2245 -0.3908  0.4015
 7330TIP3    H221955   2.832   5.371   1.017 -1.0055  1.6907  1.2707
 7331TIP3   OH221956   0.185   4.330   1.935 -0.6437  0.3722  0.8655
 7331TIP3    H121957   0.170   4.387   2.010 -0.6212  0.2907  0.9322
 7331TIP3    H221958   0.148   4.246   1.961  1.9786 -0.5328  1.9891
 7332TIP3   OH221959   0.410   5.555   1.605  0.1508 -0.0946 -0.1143
 7332TIP3    H121960   0.470   5.568   1.532 -0.8705 -1.3433 -1.2173
 7332TIP3    H221961   0.379   5.465   1.595 -0.7708  0.0379  1.2939
 7333TIP3   OH221962   4.794   3.004   1.463 -0.5659  0.2964  0.1756
 7333TIP3    H121963   4.707   2.992   1.500 -1.6834  1.0079 -2.0220
 7333TIP3    H221964   4.792   2.956   1.381  0.8532  0.9431 -0.2771
 7334TIP3   OH221965   4.773   2.209   4.366 -0.2844  1.0087 -0.4797
 7334TIP3    H121966   4.727   2.240   4.288 -2.7837 -0.6955  0.1667
 7334TIP3    H221967   4.740   2.265   4.437 -2.6769 -1.1046  0.2270
 7335TIP3   OH221968   4.338   0.258   1.605 -0.0380 -0.5775  0.0573
 7335TIP3    H121969   4.318   0.315   1.680 -1.4924 -0.5346 -0.3213
 7335TIP3    H221970   4.373   0.317   1.539  0.6085 -0.5003  0.4664
 7336TIP3   OH221971   3.229   3.131   1.021 -0.6845 -0.4527  0.4789
 7336TIP3    H121972   3.193   3.205   1.070 -1.7431 -0.9311  0.4542
 7336TIP3    H221973   3.263   3.072   1.088 -0.0773 -0.0844  0.5099
 7337TIP3   OH221974   1.318   1.219   1.566 -0.3264  0.5274 -0.4641
 7337TIP3    H121975   1.300   1.248   1.476  2.7110  1.5700 -0.8323
 7337TIP3    H221976   1.339   1.299   1.613  2.1473 -0.3576  0.0830
 7338TIP3   OH221977   2.914   5.219   3.248  0.4970 -0.0222  0.4091
 7338TIP3    H121978   2.987   5.259   3.201  1.7606 -1.5231  1.0051
 7338TIP3    H221979   2.954   5.181   3.327 -0.3756 -3.2526 -0.5630
 7339TIP3   OH221980   1.033   6.221   5.076  0.3326 -0.0487 -0.5130
 7339TIP3    H121981   1.094   6.148   5.087  0.4990  0.1163 -0.3375
 7339TIP3    H221982   0.949   6.186   5.106  0.7880  0.4048  1.4191
 7340TIP3   OH221983   7.140   6.603   4.155 -0.0722 -0.1566  0.1684
 7340TIP3    H121984   7.138   6.672   4.089 -0.6391  0.4336  0.7729
 7340TIP3    H221985   7.232   6.582   4.166 -0.0135 -0.9391 -1.4692
 7341TIP3   OH221986   3.771   1.980   3.708 -0.2489 -0.5282  0.0103
 7341TIP3    H121987   3.776   2.065   3.752 -2.0631 -0.4382  0.1109
 7341TIP3    H221988   3.852   1.976   3.656  0.0286  1.1203  0.2428
 7342TIP3   OH221989   2.800   0.725   3.041 -0.2186 -0.7613 -0.1804
 7342TIP3    H121990   2.851   0.805   3.031  0.6109 -1.3930 -1.2473
 7342TIP3    H221991   2.759   0.711   2.956  0.3240 -1.8919 -0.2821
 7343TIP3   OH221992   2.275   4.975   4.483  0.1368 -0.5054 -0.3491
 7343TIP3    H121993   2.265   4.883   4.505  1.1028 -1.1389 -2.3002
 7343TIP3    H221994   2.222   4.987   4.405 -1.1864  1.0099  0.7233
 7344TIP3   OH221995   4.813   2.823   2.249  0.2766 -0.1711  0.3073
 7344TIP3    H121996   4.876   2.877   2.296  0.5432  0.8921 -1.1887
 7344TIP3    H221997   4.764   2.885   2.194  0.8696 -1.4607 -1.7792
 7345TIP3   OH221998   3.432   2.811   0.826 -0.0192 -0.2241 -0.2326
 7345TIP3    H121999   3.358   2.805   0.765  0.1350  0.5656 -0.5037
 7345TIP3    H222000   3.408   2.752   0.898 -2.4301  2.3338  1.2532
 7346TIP3   OH222001   1.388   3.787   2.919  0.4611 -0.3662 -0.0652
 7346TIP3    H122002   1.320   3.754   2.859  1.6956 -0.9793 -1.1640
 7346TIP3    H222003   1.468   3.787   2.867  1.3470  0.2240  1.2531
 7347TIP3   OH222004   6.858   1.729   5.649  0.3405  1.1615  0.4631
 7347TIP3    H122005   6.769   1.697   5.663  1.0967 -1.1289  0.3228
 7347TIP3    H222006   6.870   1.726   5.554  1.7641 -2.2738  0.6125
 7348TIP3   OH222007   2.708   4.094   1.107 -0.2105 -0.4433 -0.4144
 7348TIP3    H122008   2.656   4.150   1.164  0.6933  0.5358 -0.5341
 7348TIP3    H222009   2.754   4.154   1.049 -0.7701 -1.3887 -1.9162
 7349TIP3   OH222010   5.827   4.095   3.152  0.3109 -0.1289  0.8715
 7349TIP3    H122011   5.871   4.137   3.079  0.4779 -1.1006  0.3974
 7349TIP3    H222012   5.854   4.145   3.229 -1.2056  1.9801  0.1254
 7350TIP3   OH222013   5.729   0.073   4.526  0.2708  0.4351  0.6345
 7350TIP3    H122014   5.649   0.122   4.509  0.9918  1.2793 -0.4655
 7350TIP3    H222015   5.779   0.128   4.585  1.2477  1.2756 -0.8959
 7351TIP3   OH222016   7.089   1.298   0.196  0.0708  0.1799  0.1558
 7351TIP3    H122017   7.120   1.305   0.106  0.3786 -0.4646  0.2105
 7351TIP3    H222018   7.108   1.384   0.234 -1.2196  0.8906 -0.7458
 7352TIP3   OH222019   6.754   4.623   0.319  0.9451  0.1902  0.3845
 7352TIP3    H122020   6.781   4.574   0.241 -0.0454 -0.4782  0.4429
 7352TIP3    H222021   6.659   4.619   0.318  0.8821 -1.8802  2.8866
 7353TIP3   OH222022   0.336   6.167   5.249  0.2825 -0.0374  0.0373
 7353TIP3    H122023   0.384   6.140   5.171 -0.5034 -0.8309 -0.1898
 7353TIP3    H222024   0.386   6.132   5.323 -0.4123 -1.6568 -0.2328
 7354TIP3   OH222025   4.153   6.323   5.816  0.4108  0.3333 -0.1604
 7354TIP3    H122026   4.064   6.341   5.845  0.7516  0.8577  0.5883
 7354TIP3    H222027   4.202   6.403   5.836  0.5276  1.0684 -2.9133
 7355TIP3   OH222028   0.800   4.645   0.393 -0.3092 -0.5139  0.3195
 7355TIP3    H122029   0.750   4.643   0.474 -0.4720 -1.0384  0.2082
 7355TIP3    H222030   0.806   4.554   0.366  0.6901 -0.4627  0.3160
 7356TIP3   OH222031   1.719   0.616   0.936 -0.2422  0.1479  0.5613
 7356TIP3    H122032   1.656   0.647   0.871 -0.5986 -0.8862  0.3938
 7356TIP3    H222033   1.734   0.524   0.913  2.4691  0.6976 -0.3358
 7357TIP3   OH222034   5.147   0.477   4.046  0.5520 -0.1945  0.0351
 7357TIP3    H122035   5.233   0.509   4.020  1.3090 -1.8207  0.3815
 7357TIP3    H222036   5.128   0.407   3.983 -0.6740  0.3590 -0.2338
 7358TIP3   OH222037   4.414   5.660   0.124 -0.4899  0.0876 -0.1166
 7358TIP3    H122038   4.466   5.599   0.072  0.6071  1.1627 -0.3268
 7358TIP3    H222039   4.358   5.604   0.178  0.1578 -1.0883 -0.6312
 7359TIP3   OH222040   6.156   5.431   2.273  0.2357  0.1556 -0.2806
 7359TIP3    H122041   6.120   5.430   2.184 -0.6890  0.1288  0.0819
 7359TIP3    H222042   6.250   5.419   2.261  0.1089  0.0540 -1.2511
 7360TIP3   OH222043   6.493   5.229   2.607  0.0003  1.0126  0.0444
 7360TIP3    H122044   6.555   5.169   2.649  1.6270  1.4554 -1.5902
 7360TIP3    H222045   6.435   5.258   2.678  0.6823 -0.6159  1.3260
 7361TIP3   OH222046   3.324   2.541   2.232 -0.1476 -0.0304 -0.0948
 7361TIP3    H122047   3.404   2.588   2.208  0.7176 -0.1768  2.1979
 7361TIP3    H222048   3.283   2.519   2.148  1.2112  1.7188 -1.3045
 7362TIP3   OH222049   5.399   6.715   1.703  0.1093 -0.4528  0.0472
 7362TIP3    H122050   5.445   6.747   1.625 -1.4063 -0.7537 -1.0229
 7362TIP3    H222051   5.330   6.780   1.718 -1.1715 -1.6591 -0.3933
 7363TIP3   OH222052   1.380   5.229   0.870  0.5213 -1.0723 -0.0039
 7363TIP3    H122053   1.429   5.218   0.788  0.8155  1.0726 -0.1834
 7363TIP3    H222054   1.313   5.160   0.868  0.8815 -1.4115 -1.7884
 7364TIP3   OH222055   5.053   1.148   5.503  0.5909 -0.4325 -0.2074
 7364TIP3    H122056   5.087   1.098   5.428  1.4790  0.2387 -0.2680
 7364TIP3    H222057   5.038   1.082   5.571 -2.1889 -1.3770 -1.5754
 7365TIP3   OH222058   6.785   0.050   1.483 -0.0561  0.6177  0.1706
 7365TIP3    H122059   6.845   0.118   1.451  0.1633  0.5851  0.5109
 7365TIP3    H222060   6.766  -0.002   1.405  0.0412  0.8664 -0.0243
 7366TIP3   OH222061   6.151   0.856   4.726  0.9850 -0.1225  0.0176
 7366TIP3    H122062   6.067   0.899   4.707  1.1393 -0.2051 -0.8748
 7366TIP3    H222063   6.132   0.763   4.717  1.3130 -0.1189 -0.8107
 7367TIP3   OH222064   2.944   0.942   3.001  0.1690  0.0621 -0.1036
 7367TIP3    H122065   3.028   0.987   3.005  0.1428  0.0504  0.8813
 7367TIP3    H222066   2.917   0.950   2.910  0.4072  1.6218 -0.0734
 7368TIP3   OH222067   2.598   0.478   3.242 -0.1027 -0.2789  0.2726
 7368TIP3    H122068   2.591   0.432   3.326  0.8844  0.8898  1.0387
 7368TIP3    H222069   2.674   0.439   3.199 -0.3570 -0.5888  0.0961
 7369TIP3   OH222070   6.691   5.981   2.277  0.2635  0.2059  0.3541
 7369TIP3    H122071   6.608   5.945   2.310 -0.0654 -0.2077 -0.8667
 7369TIP3    H222072   6.675   6.075   2.272 -0.5094  0.0354 -0.8210
 7370TIP3   OH222073   5.449   5.612   1.680 -0.3094 -0.0105 -0.1190
 7370TIP3    H122074   5.407   5.528   1.662  0.1082 -0.3742  0.5854
 7370TIP3    H222075   5.403   5.645   1.758 -1.4084  1.0699 -1.1760
 7371TIP3   OH222076   7.042   2.090   3.924  0.1985 -0.2538 -0.0507
 7371TIP3    H122077   7.125   2.137   3.917 -1.1940  2.4268  0.1699
 7371TIP3    H222078   6.994   2.135   3.994 -0.8393 -2.7965  1.0218
 7372TIP3   OH222079   0.989   5.275   3.274  0.4033 -0.0994  0.3676
 7372TIP3    H122080   1.074   5.308   3.246  0.0042 -0.0032 -0.7679
 7372TIP3    H222081   0.971   5.320   3.356  1.2233  0.2420  0.3667
 7373TIP3   OH222082   5.860   3.132   0.481 -0.5801 -0.2286 -0.6761
 7373TIP3    H122083   5.880   3.068   0.413 -0.6107  0.6610 -1.5292
 7373TIP3    H222084   5.934   3.193   0.480 -0.6734 -0.0899 -0.0401
 7374TIP3   OH222085   4.312   4.196   3.568  0.7217  0.5124  0.6824
 7374TIP3    H122086   4.323   4.158   3.481 -0.9162 -2.6587  1.7016
 7374TIP3    H222087   4.401   4.215   3.597  1.3659  0.6356 -1.2162
 7375TIP3   OH222088   3.164   1.989   4.584 -0.2475 -0.1411  0.1928
 7375TIP3    H122089   3.144   2.058   4.520  0.4359  0.6546  0.8241
 7375TIP3    H222090   3.238   2.023   4.633 -0.5642 -0.8853  1.2105
 7376TIP3   OH222091   4.773   6.393   2.348  0.0795  0.0518  0.4704
 7376TIP3    H122092   4.787   6.486   2.328 -1.1965  0.1611 -0.0479
 7376TIP3    H222093   4.811   6.381   2.435 -0.2924  1.2180  0.8141
 7377TIP3   OH222094   4.006   1.702   0.278  0.5483  0.4462  0.3315
 7377TIP3    H122095   3.914   1.723   0.292  0.6391  0.8888  0.2773
 7377TIP3    H222096   4.046   1.785   0.253  0.6571 -0.0437 -1.2079
 7378TIP3   OH222097   5.704   2.439   5.599  0.0096 -0.3303 -0.0679
 7378TIP3    H122098   5.677   2.479   5.516  1.5137  0.8348 -0.0524
 7378TIP3    H222099   5.689   2.345   5.586  1.5280 -0.3579 -2.2429
 7379TIP3   OH222100   4.301   5.896   5.860  0.5168 -0.0334  0.2594
 7379TIP3    H122101   4.302   5.988   5.885  0.9147  0.1063 -0.2499
 7379TIP3    H222102   4.365   5.855   5.917  1.9918  0.4230 -0.9883
 7380TIP3   OH222103   5.625   3.565   5.175  0.0478  0.4752  0.6478
 7380TIP3    H122104   5.609   3.472   5.194 -2.1023  0.8432  0.9295
 7380TIP3    H222105   5.561   3.611   5.229  1.5293  2.1822  1.0153
 7381TIP3   OH222106   2.720   4.718   4.303 -0.5297  0.5496 -0.3291
 7381TIP3    H122107   2.686   4.795   4.258 -2.3132  0.2422  0.3779
 7381TIP3    H222108   2.685   4.725   4.392 -1.6869 -1.5909 -0.5351
 7382TIP3   OH222109   5.466   6.357   0.745  0.2650  0.1600  0.0815
 7382TIP3    H122110   5.464   6.368   0.840  2.5222  2.5703 -0.0378
 7382TIP3    H222111   5.540   6.299   0.729  0.9916  1.1325 -0.2214
 7383TIP3   OH222112   1.323   1.358   4.809 -0.4698  0.0684  0.0961
 7383TIP3    H122113   1.315   1.389   4.899 -0.1657 -2.3787  1.0605
 7383TIP3    H222114   1.242   1.310   4.792 -0.8326  1.0780 -1.2202
 7384TIP3   OH222115   5.958   4.240   1.299  0.5358 -0.3640 -0.0696
 7384TIP3    H122116   6.032   4.285   1.258 -0.2104  1.8839  0.8485
 7384TIP3    H222117   5.897   4.223   1.228  0.7783  0.2680 -0.4351
 7385TIP3   OH222118   6.455   0.617   2.022  0.8819  0.2165  0.3007
 7385TIP3    H122119   6.391   0.635   2.091  0.1432  0.0304 -0.3119
 7385TIP3    H222120   6.409   0.555   1.964  1.2028  0.9418 -0.7527
 7386TIP3   OH222121   2.105   4.357   3.547 -0.1604 -0.4637  0.4609
 7386TIP3    H122122   2.091   4.262   3.540  1.2387 -0.6061 -1.1548
 7386TIP3    H222123   2.020   4.395   3.525 -0.9064 -1.3343  1.7440
 7387TIP3   OH222124   2.568   4.995   2.534 -0.0661 -0.6013 -0.1839
 7387TIP3    H122125   2.518   5.029   2.609  1.8322 -1.8148  1.7412
 7387TIP3    H222126   2.539   4.904   2.525 -0.6880 -0.3151 -1.3647
 7388TIP3   OH222127   1.936   6.290   5.043  0.4143  0.2317  0.3716
 7388TIP3    H122128   2.030   6.297   5.028  0.2022 -0.2101 -1.3662
 7388TIP3    H222129   1.924   6.205   5.086  0.8044  0.3345  0.6884
 7389TIP3   OH222130   4.909   2.959   2.892  0.2319  0.4549 -0.1622
 7389TIP3    H122131   4.977   2.904   2.854  0.9243  0.9844  0.2856
 7389TIP3    H222132   4.839   2.960   2.826  0.3034 -0.7460 -0.2840
 7390TIP3   OH222133   6.779   2.878   3.121 -0.1722 -0.0809  0.2895
 7390TIP3    H122134   6.789   2.888   3.027 -0.4982 -1.8329  0.0424
 7390TIP3    H222135   6.726   2.953   3.148  0.9931  1.1376 -0.6922
 7391TIP3   OH222136   3.782   1.529   5.179 -0.0013  0.6714 -0.5406
 7391TIP3    H122137   3.852   1.576   5.135 -0.1505  1.4440  0.0333
 7391TIP3    H222138   3.702   1.571   5.147 -0.0959  1.4902  0.7422
 7392TIP3   OH222139   0.749   0.067   5.166 -0.3967 -0.0273 -0.1058
 7392TIP3    H122140   0.695   0.117   5.227 -0.1111 -0.3475  0.4257
 7392TIP3    H222141   0.832   0.115   5.163  0.7164 -1.5574  2.1367
 7393TIP3   OH222142   4.136   6.317   2.808 -0.2876 -0.3977  0.4448
 7393TIP3    H122143   4.053   6.346   2.844  0.3189  0.4910  1.1679
 7393TIP3    H222144   4.194   6.309   2.883  0.8669  1.0327 -0.2406
 7394TIP3   OH222145   6.451   2.781   0.444  0.8285 -0.0693 -0.3460
 7394TIP3    H122146   6.431   2.875   0.440  1.8281  0.2026  0.5457
 7394TIP3    H222147   6.369   2.740   0.469 -0.4818  0.1841 -3.6827
 7395TIP3   OH222148   6.471   6.253   0.100  0.1562  0.0239 -0.0978
 7395TIP3    H122149   6.457   6.347   0.105  1.1503  0.2092 -0.4768
 7395TIP3    H222150   6.391   6.214   0.135  0.6154  1.0409  2.3115
 7396TIP3   OH222151   5.851   1.707   0.454  0.4398  0.2575  0.3198
 7396TIP3    H122152   5.837   1.787   0.404  0.4867  1.9330  2.8001
 7396TIP3    H222153   5.767   1.691   0.497  1.0851  0.3487  1.6645
 7397TIP3   OH222154   6.737   3.353   1.832 -0.2428 -0.2270  0.1550
 7397TIP3    H122155   6.769   3.327   1.746  0.0654 -0.2875  0.2866
 7397TIP3    H222156   6.658   3.404   1.813  0.3392  0.5635 -0.2230
 7398TIP3   OH222157   1.248   3.364   2.642 -0.9795 -0.2655 -0.0622
 7398TIP3    H122158   1.238   3.271   2.660  0.1908 -0.0081  2.3152
 7398TIP3    H222159   1.243   3.406   2.728  0.0088  1.7032 -0.9017
 7399TIP3   OH222160   1.239   1.271   5.543  0.1971  0.5390  0.1243
 7399TIP3    H122161   1.265   1.362   5.527 -0.7697  0.7226 -0.4267
 7399TIP3    H222162   1.249   1.228   5.458  1.4369 -0.0852  0.5592
 7400TIP3   OH222163   0.551   5.383   1.878  0.2698  0.0025  0.3639
 7400TIP3    H122164   0.611   5.456   1.864  0.9579 -0.5635  0.2996
 7400TIP3    H222165   0.593   5.330   1.946  0.6333 -1.2394 -0.7879
 7401TIP3   OH222166   3.596   5.334   2.106 -0.1717  0.0587  0.1601
 7401TIP3    H122167   3.676   5.369   2.147 -0.1432  1.0899 -0.7515
 7401TIP3    H222168   3.583   5.388   2.029 -1.6460 -0.2439  0.1765
 7402TIP3   OH222169   4.585   4.833   2.442  0.3514 -0.4388  0.1301
 7402TIP3    H122170   4.518   4.870   2.500  0.3299 -0.0548 -0.1353
 7402TIP3    H222171   4.535   4.777   2.382  0.1287  0.6179 -0.6997
 7403TIP3   OH222172   4.877   5.386   4.647  0.1911  0.7982 -0.3335
 7403TIP3    H122173   4.914   5.349   4.568  1.3603  0.8039  0.1936
 7403TIP3    H222174   4.854   5.311   4.702  0.6775  0.8145 -0.1047
 7404TIP3   OH222175   4.132   4.733   2.120  0.3015 -0.8256 -0.1921
 7404TIP3    H122176   4.115   4.772   2.034  1.1669 -2.6606 -1.2388
 7404TIP3    H222177   4.137   4.808   2.179 -1.0763  0.4383 -1.5845
 7405TIP3   OH222178   3.249   5.050   3.998 -0.4082  0.6273 -0.0993
 7405TIP3    H122179   3.259   5.010   4.084 -0.3846  0.2919 -0.2578
 7405TIP3    H222180   3.209   4.982   3.943  1.9545 -0.0789 -1.0513
 7406TIP3   OH222181   4.448   0.720   0.991  0.4507 -0.1695 -0.1665
 7406TIP3    H122182   4.394   0.679   0.924  2.0504 -1.0718 -0.9667
 7406TIP3    H222183   4.412   0.690   1.074  1.7192 -3.5680 -0.6964
 7407TIP3   OH222184   5.871   3.074   4.105 -0.2847  0.2061 -0.0002
 7407TIP3    H122185   5.888   3.019   4.029 -0.1075  0.5694 -0.2293
 7407TIP3    H222186   5.940   3.141   4.101 -0.4020  0.3488  0.3604
 7408TIP3   OH222187   1.301   1.438   3.387  0.1101 -0.1908 -0.0192
 7408TIP3    H122188   1.352   1.498   3.334  0.0779 -1.1753 -1.2204
 7408TIP3    H222189   1.294   1.480   3.473 -0.1202  1.6040 -0.8904
 7409TIP3   OH222190   4.352   3.931   3.842  0.4336  0.3815  0.0134
 7409TIP3    H122191   4.280   3.990   3.865  0.2398 -0.6140  2.2544
 7409TIP3    H222192   4.412   3.938   3.916  0.6614 -1.8100  0.0958
 7410TIP3   OH222193   2.263   4.814   5.834 -0.6317 -0.7539 -0.3494
 7410TIP3    H122194   2.237   4.802   5.743  0.6330 -1.0841 -0.6991
 7410TIP3    H222195   2.189   4.782   5.886 -2.1374  1.1284 -1.2218
 7411TIP3   OH222196   2.292   2.231   2.507 -0.2244 -0.1268 -0.2942
 7411TIP3    H122197   2.382   2.255   2.532 -0.3558 -0.4095  0.4767
 7411TIP3    H222198   2.240   2.308   2.530 -0.1432  0.1701 -1.0557
 7412TIP3   OH222199   2.952   5.436   3.969  0.0593 -0.2869 -0.1420
 7412TIP3    H122200   2.917   5.351   3.943 -1.1962  0.5325 -1.2991
 7412TIP3    H222201   2.895   5.499   3.925  1.7114  1.1468 -0.3176
 7413TIP3   OH222202   1.012   6.699   5.595  0.2150  0.5245  0.0462
 7413TIP3    H122203   0.961   6.763   5.645 -0.7777 -0.8068  0.8053
 7413TIP3    H222204   1.100   6.737   5.589  0.0267  1.3017  1.7076
 7414TIP3   OH222205   2.511   3.307   3.786  0.5255 -0.2335 -0.4263
 7414TIP3    H122206   2.451   3.296   3.712 -0.0555  0.5814 -0.0866
 7414TIP3    H222207   2.463   3.360   3.849  1.2351 -0.4222  0.2924
 7415TIP3   OH222208   6.675   6.725   5.614  0.4153 -0.6273 -0.5887
 7415TIP3    H122209   6.662   6.664   5.541 -0.1865 -0.4205 -0.6577
 7415TIP3    H222210   6.589   6.764   5.629  1.0188  1.1062 -1.3305
 7416TIP3   OH222211   4.687   2.422   5.875  0.1546  0.1410  0.3148
 7416TIP3    H122212   4.689   2.508   5.834  1.3766  1.5706  3.0879
 7416TIP3    H222213   4.630   2.433   5.951  1.6895 -0.9587  1.7068
 7417TIP3   OH222214   4.285   2.061   0.951  0.0053  0.0503  0.6004
 7417TIP3    H122215   4.243   2.133   0.905 -0.5160 -0.4651  0.2585
 7417TIP3    H222216   4.337   2.016   0.884  1.9119  1.2503  1.2107
 7418TIP3   OH222217   0.753   1.685   3.657  0.8196  0.2800 -0.1363
 7418TIP3    H122218   0.664   1.670   3.686  0.7013 -0.7236 -0.9438
 7418TIP3    H222219   0.744   1.725   3.570  1.1453 -0.3167 -0.4492
 7419TIP3   OH222220   4.469   1.987   1.855 -0.1526 -0.4880 -0.8016
 7419TIP3    H122221   4.388   1.986   1.906  0.4099  1.1005  0.1807
 7419TIP3    H222222   4.479   1.897   1.824 -2.1620 -0.7653 -0.7525
 7420TIP3   OH222223   4.767   6.250   1.754 -0.1080  0.7238 -0.2858
 7420TIP3    H122224   4.849   6.299   1.766  0.5039 -0.5295  0.8444
 7420TIP3    H222225   4.698   6.313   1.775  0.6721  1.0160  1.6034
 7421TIP3   OH222226   5.771   4.259   0.674  0.2062 -0.3151  0.0624
 7421TIP3    H122227   5.799   4.176   0.636 -0.4571  0.4151 -2.1923
 7421TIP3    H222228   5.852   4.305   0.696  0.6510 -0.5619 -1.0023
 7422TIP3   OH222229   6.530   4.164   2.079  0.2409 -0.0671  0.0342
 7422TIP3    H122230   6.595   4.206   2.024  0.6139 -0.1841  0.3798
 7422TIP3    H222231   6.572   4.155   2.164 -1.0273  1.9847  0.9565
 7423TIP3   OH222232   6.089   0.287   5.237  0.3806 -0.0597  0.1720
 7423TIP3    H122233   6.146   0.220   5.199  0.5675  0.0543  0.2521
 7423TIP3    H222234   6.132   0.370   5.217 -0.9423  0.2242 -1.8828
 7424TIP3   OH222235   2.268   0.960   3.569 -0.2277 -0.3079  0.0931
 7424TIP3    H122236   2.316   0.877   3.569 -0.7918 -0.6401 -0.2947
 7424TIP3    H222237   2.240   0.972   3.659 -0.4142 -0.6998  0.0875
 7425TIP3   OH222238   6.076   4.602   5.742 -0.5284 -0.4160  0.8654
 7425TIP3    H122239   5.987   4.593   5.775  0.1170 -2.1557  2.2600
 7425TIP3    H222240   6.130   4.608   5.821  0.5823  1.2078  0.0454
 7426TIP3   OH222241   5.873   0.931   0.924  0.4425  0.2905 -0.3877
 7426TIP3    H122242   5.920   0.848   0.933  0.3177  0.1880 -0.6733
 7426TIP3    H222243   5.912   0.988   0.991  0.5328  0.0055 -0.1958
 7427TIP3   OH222244   3.417   4.397   5.726 -0.0974  0.1193 -0.0323
 7427TIP3    H122245   3.425   4.490   5.747 -0.8664 -0.1495  1.5528
 7427TIP3    H222246   3.341   4.392   5.667 -1.4393  0.2904  1.6061
 7428TIP3   OH222247   3.782   4.676   1.356 -0.2987 -0.0765 -0.4580
 7428TIP3    H122248   3.707   4.692   1.413  0.5310 -1.9578  1.2829
 7428TIP3    H222249   3.744   4.645   1.274 -1.4618  0.7428 -0.2466
 7429TIP3   OH222250   1.134   3.772   3.153 -0.1354  0.2588  0.2872
 7429TIP3    H122251   1.094   3.713   3.217  2.2491 -2.0553 -0.2166
 7429TIP3    H222252   1.185   3.833   3.206 -0.5496  0.2501  0.7053
 7430TIP3   OH222253   2.719   3.757   2.168 -0.3916 -0.7723  0.4229
 7430TIP3    H122254   2.679   3.715   2.091 -1.1799 -0.1074  0.4534
 7430TIP3    H222255   2.813   3.761   2.147 -0.6324 -0.3093 -0.6571
 7431TIP3   OH222256   5.729   0.377   5.420  0.0421 -0.8263  0.4012
 7431TIP3    H122257   5.734   0.340   5.332  0.4548  1.0318 -0.4098
 7431TIP3    H222258   5.811   0.353   5.461 -0.5344 -2.5075  0.6591
 7432TIP3   OH222259   5.703   4.957   1.222  0.0423 -0.1607  0.1166
 7432TIP3    H122260   5.791   4.985   1.246 -0.7117  4.3826 -1.4781
 7432TIP3    H222261   5.672   5.024   1.161 -5.9226  0.8315  3.4041
 7433TIP3   OH222262   5.372   4.548   3.202 -0.1523  0.1406 -0.1828
 7433TIP3    H122263   5.301   4.580   3.259 -0.9261 -1.4511 -0.1745
 7433TIP3    H222264   5.352   4.584   3.116 -0.2758  0.7095  0.0821
 7434TIP3   OH222265   5.066   1.049   0.863 -0.0771  0.0873  0.2459
 7434TIP3    H122266   5.086   1.108   0.791 -1.4414 -0.1812 -0.3841
 7434TIP3    H222267   5.119   1.081   0.936  1.4751  0.2446 -0.9109
 7435TIP3   OH222268   2.307   5.312   1.634 -1.1013 -0.2386 -0.7358
 7435TIP3    H122269   2.316   5.300   1.728 -0.8868  1.8919 -0.4407
 7435TIP3    H222270   2.253   5.238   1.605 -0.9592 -1.0678  0.9826
 7436TIP3   OH222271   6.232   5.975   4.024  0.2813  0.7403  0.1271
 7436TIP3    H122272   6.258   6.066   4.033  0.7146  0.6367 -0.0294
 7436TIP3    H222273   6.257   5.934   4.107  2.2867  0.2548 -0.6660
 7437TIP3   OH222274   0.248   6.013   0.518  0.5604 -0.1168  0.3778
 7437TIP3    H122275   0.174   6.066   0.488  0.9823 -0.0226 -0.5282
 7437TIP3    H222276   0.261   5.949   0.449 -0.5132 -2.0435  1.8438
 7438TIP3   OH222277   4.336   3.414   5.518 -0.1569  0.1217  0.1975
 7438TIP3    H122278   4.374   3.390   5.603  1.1077  1.2114 -0.0200
 7438TIP3    H222279   4.248   3.444   5.538  0.2030  0.5767  1.1738
 7439TIP3   OH222280   3.368   3.887   5.460  0.4148  0.3625  0.4049
 7439TIP3    H122281   3.367   3.919   5.370  0.6555  0.8208  0.5619
 7439TIP3    H222282   3.460   3.884   5.484  0.2990  1.2474  0.9823
 7440TIP3   OH222283   1.952   2.610   0.800 -0.3736  0.0738  0.3109
 7440TIP3    H122284   1.890   2.623   0.872  0.4696  2.0042  0.7615
 7440TIP3    H222285   1.987   2.698   0.783  0.9674 -0.6847 -1.0912
 7441TIP3   OH222286   5.888   2.551   2.323  0.1424  0.0572 -0.4939
 7441TIP3    H122287   5.844   2.466   2.332  2.7822 -1.2632  0.8690
 7441TIP3    H222288   5.888   2.567   2.228 -2.4737 -0.2062 -0.6286
 7442TIP3   OH222289   4.539   6.371   3.213  0.6020  0.3614 -0.0419
 7442TIP3    H122290   4.448   6.386   3.238  0.7664  0.4537  0.5144
 7442TIP3    H222291   4.538   6.375   3.118 -0.0817 -0.2502 -0.0712
 7443TIP3   OH222292   7.144   0.708   5.689  0.2885 -0.3871  0.4290
 7443TIP3    H122293   7.117   0.745   5.605  0.4727  0.9858  0.9441
 7443TIP3    H222294   7.080   0.639   5.707 -0.7085  0.3760 -0.0759
 7444TIP3   OH222295   4.806   1.234   0.873  0.6911 -0.3150 -0.0394
 7444TIP3    H122296   4.746   1.309   0.882 -0.5323 -1.4123  1.4455
 7444TIP3    H222297   4.752   1.166   0.833  1.6838 -0.5713 -0.9942
 7445TIP3   OH222298   3.914   5.916   2.315  0.3177  0.1578 -0.5925
 7445TIP3    H122299   3.869   5.838   2.281 -1.9937  1.4112 -0.6020
 7445TIP3    H222300   3.898   5.983   2.249 -0.7393  1.5381  0.9780
 7446TIP3   OH222301   5.509   1.026   4.076  0.4882 -0.1148 -0.0620
 7446TIP3    H122302   5.452   0.963   4.120 -0.4261 -0.7865 -2.1111
 7446TIP3    H222303   5.568   0.972   4.023  2.3875  0.6194  1.1697
 7447TIP3   OH222304   2.537   0.621   2.479 -0.1064 -0.1759 -0.0286
 7447TIP3    H122305   2.523   0.681   2.406 -3.8603  0.1520  0.7995
 7447TIP3    H222306   2.465   0.558   2.473  0.2569 -0.9596  2.6026
 7448TIP3   OH222307   2.094   4.538   4.096  0.6354 -0.1033  0.7873
 7448TIP3    H122308   2.063   4.484   4.024  1.0218 -0.6068  0.9888
 7448TIP3    H222309   2.016   4.556   4.149  0.2098  0.9142 -0.1621
 7449TIP3   OH222310   1.604   1.008   1.278 -0.5676  0.0412 -0.0676
 7449TIP3    H122311   1.611   1.073   1.348 -1.1159  1.1506 -1.0207
 7449TIP3    H222312   1.515   0.974   1.285 -0.0749 -1.1687  0.8680
 7450TIP3   OH222313   1.142   3.923   0.127  0.2609 -0.1710 -0.2053
 7450TIP3    H122314   1.210   3.868   0.164 -0.3237  0.0502  1.2876
 7450TIP3    H222315   1.060   3.879   0.151 -0.2380  1.5972  1.5303
 7451TIP3   OH222316   0.406   3.023   3.471 -0.9888 -0.1928  0.4618
 7451TIP3    H122317   0.425   3.041   3.564 -0.0454 -0.7971  0.4036
 7451TIP3    H222318   0.449   2.939   3.454 -0.2046  0.4442 -0.8029
 7452TIP3   OH222319   0.261   5.301   5.388 -0.6364  0.0886  0.3658
 7452TIP3    H122320   0.283   5.355   5.313  0.4250  0.0206  0.6015
 7452TIP3    H222321   0.167   5.313   5.401 -0.5676  1.2159 -0.0955
 7453TIP3   OH222322   0.539   4.876   0.235  0.3160  0.0075 -0.2190
 7453TIP3    H122323   0.463   4.829   0.270  1.9484 -2.4419  0.3643
 7453TIP3    H222324   0.537   4.859   0.141 -0.2358  0.5756 -0.3150
 7454TIP3   OH222325   2.190   5.492   4.352  0.0992  0.1722 -0.1513
 7454TIP3    H122326   2.235   5.409   4.368  1.4885  0.4178 -2.3268
 7454TIP3    H222327   2.220   5.549   4.422  0.4640 -0.6696  0.4043
 7455TIP3   OH222328   3.924   2.072   0.812  0.3600 -0.2404  0.6875
 7455TIP3    H122329   3.847   2.048   0.864  0.9499 -0.8538  1.2791
 7455TIP3    H222330   3.978   1.993   0.810  0.0020 -0.4778 -1.5034
 7456TIP3   OH222331   4.521   2.665   1.125  0.5469  0.4289  0.4427
 7456TIP3    H122332   4.498   2.596   1.062  0.0491  0.7579  0.2564
 7456TIP3    H222333   4.617   2.669   1.122  0.5208  0.5945 -0.4680
 7457TIP3   OH222334   6.528   4.619   5.199  0.1313 -0.7916  0.0312
 7457TIP3    H122335   6.470   4.567   5.255 -1.6782 -0.3289 -1.3257
 7457TIP3    H222336   6.469   4.664   5.139  1.8332  0.7636 -0.5659
 7458TIP3   OH222337   4.012   0.483   1.555  0.3621  0.0216 -0.3995
 7458TIP3    H122338   4.085   0.541   1.537  1.1945 -0.0439  2.3124
 7458TIP3    H222339   3.971   0.520   1.633 -1.9658 -0.4776 -1.2976
 7459TIP3   OH222340   5.185   3.298   0.481  0.1345  0.1378  0.0698
 7459TIP3    H122341   5.115   3.234   0.465  1.1081 -1.2454  1.0970
 7459TIP3    H222342   5.266   3.249   0.469  0.9323  1.4444 -0.0767
 7460TIP3   OH222343   4.278   2.471   1.087  0.0195  0.1136  0.2532
 7460TIP3    H122344   4.203   2.529   1.097  1.4640  2.3704 -1.0612
 7460TIP3    H222345   4.317   2.468   1.175 -1.7612 -1.4396  1.0525
 7461TIP3   OH222346   4.265   0.382   2.320  0.4982  0.4860  0.3200
 7461TIP3    H122347   4.255   0.292   2.290  2.7755  0.5156 -0.7074
 7461TIP3    H222348   4.249   0.435   2.242 -0.4269  0.9719  0.8237
 7462TIP3   OH222349   3.539   4.930   3.339  0.8465 -0.1968  0.5078
 7462TIP3    H122350   3.488   5.010   3.331  0.0166 -0.7773 -0.3190
 7462TIP3    H222351   3.551   4.917   3.433  1.3710  1.1165  0.6375
 7463TIP3   OH222352   1.928   6.147   3.109  0.4188  0.4502  0.2529
 7463TIP3    H122353   1.866   6.117   3.176  1.9219 -0.5310  1.2635
 7463TIP3    H222354   2.011   6.156   3.155  1.1540  1.2471 -1.1735
 7464TIP3   OH222355   5.650   2.049   0.458 -0.3246  0.0509  0.3839
 7464TIP3    H122356   5.629   2.141   0.443  2.1675  0.9750  1.8920
 7464TIP3    H222357   5.720   2.030   0.395  2.0561  0.5167  2.7349
 7465TIP3   OH222358   2.775   2.265   3.624 -0.4914 -0.4758 -0.4726
 7465TIP3    H122359   2.791   2.178   3.663 -0.0885 -0.6862 -1.1015
 7465TIP3    H222360   2.698   2.297   3.671 -1.2695 -1.6049 -0.9199
 7466TIP3   OH222361   5.319   3.097   0.876  0.4423 -0.2981  0.7762
 7466TIP3    H122362   5.254   3.111   0.946  1.2145 -0.5942  1.5631
 7466TIP3    H222363   5.375   3.175   0.881 -0.6783  0.6812 -0.8607
 7467TIP3   OH222364   6.861   1.784   4.590 -0.8796 -0.6390 -0.5204
 7467TIP3    H122365   6.933   1.809   4.649 -0.4919 -1.9393 -0.4063
 7467TIP3    H222366   6.852   1.859   4.531  1.7414 -1.0739 -1.6441
 7468TIP3   OH222367   4.813   0.558   4.589 -0.4067 -0.3120  0.2720
 7468TIP3    H122368   4.756   0.483   4.606 -0.6820 -0.3281 -0.6610
 7468TIP3    H222369   4.766   0.610   4.524 -0.8001  1.3592  1.8237
 7469TIP3   OH222370   1.045   5.636   3.580 -0.3014  0.1742  0.3452
 7469TIP3    H122371   1.112   5.649   3.513 -0.0752 -0.9678  0.3310
 7469TIP3    H222372   1.020   5.724   3.606  0.1091  0.6233 -0.7437
 7470TIP3   OH222373   6.177   4.140   5.487  0.4533 -0.3097  0.1327
 7470TIP3    H122374   6.165   4.133   5.392 -2.2165 -1.3874  0.4682
 7470TIP3    H222375   6.151   4.230   5.507  0.0167 -0.3829 -0.0731
 7471TIP3   OH222376   2.852   6.582   2.456 -0.1711 -0.2901  0.4711
 7471TIP3    H122377   2.804   6.587   2.373  2.2769  1.3543 -0.9765
 7471TIP3    H222378   2.943   6.598   2.432  0.5966  0.6137  3.5576
 7472TIP3   OH222379   1.784   1.932   2.411 -0.0131 -0.2743  0.1226
 7472TIP3    H122380   1.714   1.987   2.448  0.1537  0.2757 -0.3672
 7472TIP3    H222381   1.857   1.942   2.472 -0.0591 -0.1206  0.1546
 7473TIP3   OH222382   5.365   4.073   2.145  0.3377  0.0334  0.3216
 7473TIP3    H122383   5.304   4.001   2.128  0.7990  0.1069 -1.9674
 7473TIP3    H222384   5.314   4.136   2.197 -1.4274 -0.0861 -1.1757
 7474TIP3   OH222385   5.302   4.807   1.874 -0.1994 -0.2530  0.2696
 7474TIP3    H122386   5.366   4.864   1.917 -0.0574  0.0178 -0.2942
 7474TIP3    H222387   5.355   4.755   1.813 -0.6160  0.5632 -0.8192
 7475TIP3   OH222388   5.367   2.799   4.537  0.0022 -0.1368  0.0115
 7475TIP3    H122389   5.435   2.778   4.600  0.6589 -0.7812 -0.8925
 7475TIP3    H222390   5.334   2.885   4.565  0.1837 -0.4619  1.2863
 7476TIP3   OH222391   3.578   4.409   3.668 -0.6687  0.1190 -0.3635
 7476TIP3    H122392   3.637   4.337   3.650 -0.5891  0.5744 -2.1112
 7476TIP3    H222393   3.512   4.404   3.599 -0.2358  2.1454 -0.9924
 7477TIP3   OH222394   3.053   4.923   2.152  0.6000 -0.5272 -0.8102
 7477TIP3    H122395   3.068   4.933   2.246  1.9663 -0.7806 -0.9723
 7477TIP3    H222396   2.991   4.850   2.145  1.6241 -1.4935 -0.1440
 7478TIP3   OH222397   1.267   2.865   2.425  0.2543  0.1381 -0.4215
 7478TIP3    H122398   1.279   2.926   2.352 -0.3466 -1.3626 -1.8286
 7478TIP3    H222399   1.324   2.791   2.405  0.9960  0.1908  1.2706
 7479TIP3   OH222400   3.841   5.078   5.470 -0.2388 -0.5223 -0.3924
 7479TIP3    H122401   3.870   5.083   5.561 -2.0587  2.8171  0.1841
 7479TIP3    H222402   3.756   5.034   5.474 -0.5114 -0.0073 -0.3812
 7480TIP3   OH222403   0.052   5.789   3.010  0.3704  0.7102  0.1015
 7480TIP3    H122404   0.018   5.757   2.926  0.5320 -0.4460  0.4590
 7480TIP3    H222405  -0.011   5.856   3.037 -1.1798 -0.7537  0.3107
 7481TIP3   OH222406   1.888   1.939   3.125  0.1395  0.0734 -0.0132
 7481TIP3    H122407   1.920   1.862   3.079 -0.4175 -0.5075  0.5676
 7481TIP3    H222408   1.935   2.012   3.085  1.3448 -0.6522  0.0359
 7482TIP3   OH222409   3.436   4.017   5.758  0.1404  0.3465  0.0058
 7482TIP3    H122410   3.465   3.956   5.826  2.0195 -0.1310 -1.1387
 7482TIP3    H222411   3.495   4.000   5.685  0.1566  2.9753 -0.6676
 7483TIP3   OH222412   1.893   3.760   3.714 -0.3357 -1.1417  0.0920
 7483TIP3    H122413   1.909   3.670   3.684  0.9919 -0.5743 -1.0236
 7483TIP3    H222414   1.980   3.800   3.719 -0.7248 -0.4765  2.5300
 7484TIP3   OH222415   5.554   5.648   4.261 -0.1237 -0.5872  0.5806
 7484TIP3    H122416   5.632   5.704   4.263  0.3668 -1.2303 -0.2209
 7484TIP3    H222417   5.486   5.700   4.305  0.6926  0.0675  1.0929
 7485TIP3   OH222418   2.155   1.575   0.517 -0.3377  0.1652 -0.0629
 7485TIP3    H122419   2.184   1.491   0.479 -0.6282 -0.0888  0.2776
 7485TIP3    H222420   2.209   1.640   0.472  0.9232 -0.3130  0.7054
 7486TIP3   OH222421   0.371   2.152   4.982 -0.3298  1.4513 -0.2087
 7486TIP3    H122422   0.396   2.187   5.068 -0.9582  1.7951 -0.1614
 7486TIP3    H222423   0.382   2.058   4.991  0.2943  1.5404  0.0237
 7487TIP3   OH222424   2.112   1.242   5.328 -0.2550 -0.3370 -0.1172
 7487TIP3    H122425   2.127   1.150   5.351 -1.0068 -0.7481 -1.2404
 7487TIP3    H222426   2.111   1.288   5.413 -1.2518 -1.5618  0.5643
 7488TIP3   OH222427   1.355   2.396   1.893  0.0647 -0.4858  0.3346
 7488TIP3    H122428   1.421   2.420   1.958  1.5797 -1.8440 -0.6366
 7488TIP3    H222429   1.318   2.314   1.926  0.9319 -1.2525 -0.5207
 7489TIP3   OH222430   3.385   0.171   0.438 -0.0643  0.6907  0.3423
 7489TIP3    H122431   3.423   0.086   0.414 -0.2892  0.8904 -0.8091
 7489TIP3    H222432   3.322   0.151   0.507 -1.0870 -0.2912 -0.8261
 7490TIP3   OH222433   6.754   1.507   3.336 -0.1248 -0.0003  0.3197
 7490TIP3    H122434   6.726   1.422   3.371  0.2995 -0.2272  0.1186
 7490TIP3    H222435   6.819   1.485   3.270 -0.4748  0.4529 -0.1888
 7491TIP3   OH222436   0.149   0.584   3.182 -0.8809  0.0574  0.3767
 7491TIP3    H122437   0.133   0.620   3.095 -1.7861 -3.8738 -1.3283
 7491TIP3    H222438   0.207   0.510   3.166 -0.9989 -0.7278  3.1490
 7492TIP3   OH222439   1.011   0.382   1.160 -0.0740 -0.1956 -0.0182
 7492TIP3    H122440   1.013   0.298   1.113  1.0437 -0.9355  1.2943
 7492TIP3    H222441   1.000   0.358   1.252 -1.5508  1.1995  0.2223
 7493TIP3   OH222442   0.721   2.996   4.256  0.3433  0.0467 -0.4407
 7493TIP3    H122443   0.712   3.073   4.312  1.0900 -0.0471 -0.1761
 7493TIP3    H222444   0.646   2.941   4.277  0.8027 -0.1566  0.7548
 7494TIP3   OH222445   4.024   6.563   1.219  0.0141 -0.4939 -0.0194
 7494TIP3    H122446   3.941   6.610   1.226 -0.7271 -1.9093  1.4426
 7494TIP3    H222447   4.040   6.557   1.125 -1.1190  0.5080 -0.3064
 7495TIP3   OH222448   4.601   2.398   2.769  0.5900  0.6304 -0.1799
 7495TIP3    H122449   4.529   2.378   2.830  0.9397  0.7996  0.2974
 7495TIP3    H222450   4.640   2.478   2.804  1.3170  0.2704 -0.1490
 7496TIP3   OH222451   2.617   4.464   4.207  0.3799 -0.1838 -0.0250
 7496TIP3    H122452   2.541   4.422   4.246  1.1740 -0.9546  0.7480
 7496TIP3    H222453   2.645   4.529   4.271 -0.6407  1.3667 -1.0681
 7497TIP3   OH222454   6.400   3.737   1.946  0.3576 -0.1291  0.0848
 7497TIP3    H122455   6.315   3.697   1.925  0.3433  0.3426 -0.8046
 7497TIP3    H222456   6.394   3.825   1.910  0.8893  0.2221  0.8396
 7498TIP3   OH222457   6.657   4.379   1.004 -0.2548  0.5487 -0.4922
 7498TIP3    H122458   6.627   4.469   1.020  0.6949  0.7488  0.2090
 7498TIP3    H222459   6.622   4.358   0.917 -2.7328  0.6256  0.3910
 7499TIP3   OH222460   4.907   6.648   1.965 -0.3910 -0.1033 -0.0226
 7499TIP3    H122461   4.923   6.565   1.920 -0.2774 -0.9493  1.4854
 7499TIP3    H222462   4.841   6.692   1.913  0.2573 -0.6983 -1.3898
 7500TIP3   OH222463   5.314   4.165   1.884  0.1140 -0.6468 -0.2990
 7500TIP3    H122464   5.232   4.213   1.891  1.7867  2.5376 -0.2849
 7500TIP3    H222465   5.333   4.137   1.974  0.0157  0.4569  0.0776
 7501TIP3   OH222466   2.551   6.496   2.181 -0.0514  0.6741 -0.6964
 7501TIP3    H122467   2.576   6.422   2.236  0.4195  0.9021 -0.5922
 7501TIP3    H222468   2.635   6.528   2.146 -0.2782  0.9804 -0.9616
 7502TIP3   OH222469   4.630   2.105   1.032 -0.3086 -0.6124  0.3220
 7502TIP3    H122470   4.585   2.164   0.971 -1.3782 -0.9827  0.7313
 7502TIP3    H222471   4.720   2.103   1.000 -0.7566 -0.5052 -1.0284
 7503TIP3   OH222472   1.755   1.033   3.500  0.2798  0.8315 -0.4740
 7503TIP3    H122473   1.800   1.114   3.524  0.4894  0.2985  1.0629
 7503TIP3    H222474   1.823   0.965   3.506  0.0452  0.4935 -1.4719
 7504TIP3   OH222475   3.378   1.017   0.190  0.1244 -0.5594 -0.5886
 7504TIP3    H122476   3.449   0.995   0.251 -0.1759  0.5777  0.2050
 7504TIP3    H222477   3.366   0.938   0.137 -0.4650 -2.0516  1.6613
 7505TIP3   OH222478   7.036   6.106   2.790  0.3044 -0.3843 -0.0923
 7505TIP3    H122479   7.041   6.017   2.755 -0.9914 -0.1712 -0.9050
 7505TIP3    H222480   6.952   6.108   2.836 -1.2791  1.2628 -2.7460
 7506TIP3   OH222481   3.230   1.803   2.893  0.1641  0.1400 -0.8508
 7506TIP3    H122482   3.194   1.716   2.877 -0.9625  0.4014  0.0939
 7506TIP3    H222483   3.323   1.789   2.907 -0.2471 -1.1565  0.8943
 7507TIP3   OH222484   3.401   0.696   0.450 -0.4186  0.0708  0.0699
 7507TIP3    H122485   3.421   0.603   0.458 -1.2411 -0.0448  0.9770
 7507TIP3    H222486   3.306   0.700   0.444 -0.4208  0.8848  0.4857
 7508TIP3   OH222487   0.953   3.013   0.361 -0.8728  0.4542  0.3657
 7508TIP3    H122488   0.933   3.104   0.383 -0.4661  0.4068  0.9678
 7508TIP3    H222489   0.903   2.996   0.281 -1.1794  1.1162  0.4068
 7509TIP3   OH222490   5.228   5.024   3.378  0.2969 -0.6047  0.4780
 7509TIP3    H122491   5.264   5.083   3.312 -2.1059 -0.6773 -0.9962
 7509TIP3    H222492   5.241   4.937   3.342 -0.6463 -0.6703  0.2827
 7510TIP3   OH222493   1.526   4.817   3.076 -0.8139 -0.8065 -0.2717
 7510TIP3    H122494   1.479   4.802   3.158  0.1230  2.2242  0.9575
 7510TIP3    H222495   1.457   4.813   3.009 -2.1588 -0.4596  1.0188
 7511TIP3   OH222496   1.545   2.918   3.051 -0.4393 -0.2141  0.1411
 7511TIP3    H122497   1.573   3.009   3.037  1.2819 -0.9203 -1.5645
 7511TIP3    H222498   1.626   2.871   3.072 -0.9669 -1.6660 -0.8784
 7512TIP3   OH222499   2.494   4.443   2.806 -0.1742  0.0117 -0.1524
 7512TIP3    H122500   2.471   4.368   2.751 -0.8453  0.1667 -0.1015
 7512TIP3    H222501   2.409   4.481   2.830  0.0683 -0.5727  1.7144
 7513TIP3   OH222502   3.672   2.567   5.893  0.2550  0.5442 -0.2489
 7513TIP3    H122503   3.640   2.559   5.803 -1.4391  2.4204  0.1144
 7513TIP3    H222504   3.621   2.503   5.943 -1.5407  2.0165 -0.0608
 7514TIP3   OH222505   0.034   2.417   1.928 -0.0578 -0.1511  0.0387
 7514TIP3    H122506  -0.012   2.486   1.880 -1.1009 -0.0062  1.2142
 7514TIP3    H222507   0.040   2.449   2.017  0.0001 -1.3064  0.4651
 7515TIP3   OH222508   1.876   3.586   5.713 -0.3224  0.2546 -0.2825
 7515TIP3    H122509   1.797   3.615   5.759 -1.6470  2.9251 -3.7417
 7515TIP3    H222510   1.868   3.491   5.708 -2.0243  0.2317  1.5111
 7516TIP3   OH222511   4.916   4.414   1.468 -0.3577 -0.2503 -0.1767
 7516TIP3    H122512   4.847   4.348   1.467  0.3531 -1.1518  2.0963
 7516TIP3    H222513   4.996   4.365   1.449  0.1709 -0.1015  1.4779
 7517TIP3   OH222514   2.961   3.973   3.440 -0.0033  0.3340  0.2621
 7517TIP3    H122515   2.922   3.896   3.397  0.2677  0.3179  0.0474
 7517TIP3    H222516   2.952   4.043   3.376  1.6565 -0.0122 -0.3840
 7518TIP3   OH222517   4.019   2.145   5.600  0.7241  0.0668 -0.0667
 7518TIP3    H122518   4.063   2.144   5.685 -0.7839 -2.0375  0.7756
 7518TIP3    H222519   3.982   2.232   5.593  1.3654  0.4590  1.1705
 7519TIP3   OH222520   2.816   0.609   2.460 -0.5416 -0.2371 -0.0580
 7519TIP3    H122521   2.721   0.610   2.460 -0.5947 -0.3184  2.1766
 7519TIP3    H222522   2.840   0.596   2.368 -2.6331  1.5506 -0.9648
 7520TIP3   OH222523   2.993   0.860   2.498  0.3138  0.0927 -0.7032
 7520TIP3    H122524   3.070   0.834   2.447  0.6133 -0.1272 -0.1460
 7520TIP3    H222525   2.928   0.793   2.481  0.5701 -0.2248 -0.4460
 7521TIP3   OH222526   6.324   2.224   1.483 -0.3801  0.0918 -0.1146
 7521TIP3    H122527   6.387   2.175   1.432  1.9632  2.0734  0.6583
 7521TIP3    H222528   6.353   2.315   1.476 -2.0853  0.8686  1.7611
 7522TIP3   OH222529   1.062   5.738   2.333  0.0896 -0.8237 -0.4559
 7522TIP3    H122530   1.113   5.819   2.327 -0.2503 -0.5967 -0.2827
 7522TIP3    H222531   0.981   5.763   2.376  0.5882 -1.5450  0.9603
 7523TIP3   OH222532   3.491   4.670   5.756  0.5296 -0.4251 -0.2869
 7523TIP3    H122533   3.425   4.736   5.733  0.8999 -0.6718 -2.1848
 7523TIP3    H222534   3.572   4.721   5.769  0.5117 -0.3702 -0.3901
 7524TIP3   OH222535   4.178   6.612   2.305  0.3859 -0.1399  1.1209
 7524TIP3    H122536   4.242   6.551   2.343  0.9256 -0.2466  0.0525
 7524TIP3    H222537   4.171   6.586   2.214 -0.6455  0.3477  1.0475
 7525TIP3   OH222538   6.482   3.682   1.491 -0.1900 -0.2567 -0.0784
 7525TIP3    H122539   6.518   3.768   1.510 -3.4857  1.0507  0.9701
 7525TIP3    H222540   6.495   3.632   1.572  0.4994 -0.3057 -0.2133
 7526TIP3   OH222541   0.648   6.711   1.813  0.5415  0.3651 -0.1456
 7526TIP3    H122542   0.611   6.627   1.787  0.4952  0.8681 -1.8133
 7526TIP3    H222543   0.683   6.696   1.901  0.6626 -1.4284 -0.4727
 7527TIP3   OH222544   3.590   4.220   5.554 -0.1573 -0.2694  0.5062
 7527TIP3    H122545   3.553   4.283   5.616  0.6013  0.3537  0.3458
 7527TIP3    H222546   3.529   4.221   5.480 -1.2888 -1.3283  1.3888
 7528TIP3   OH222547   1.810   6.381   2.355 -0.7944  0.2873 -0.3295
 7528TIP3    H122548   1.793   6.339   2.439 -1.1988 -0.3455 -0.7215
 7528TIP3    H222549   1.773   6.469   2.364  0.8024  0.9029  0.7918
 7529TIP3   OH222550   1.545   6.622   3.285  0.1899 -0.0156  0.1673
 7529TIP3    H122551   1.504   6.631   3.371  1.5788 -0.5760  0.9263
 7529TIP3    H222552   1.632   6.661   3.296  0.4697 -0.2957 -0.9279
 7530TIP3   OH222553   2.830   5.857   2.782 -0.7869 -0.5162  0.2403
 7530TIP3    H122554   2.745   5.874   2.740 -0.5637  1.0922  0.4100
 7530TIP3    H222555   2.846   5.764   2.765 -2.1032 -0.6061 -0.6685
 7531TIP3   OH222556   4.881   2.298   1.166 -0.0133  0.1220  0.2360
 7531TIP3    H122557   4.828   2.336   1.096  0.4871  1.8031  0.7172
 7531TIP3    H222558   4.933   2.230   1.123 -2.1146 -1.2209 -0.3477
 7532TIP3   OH222559   4.673   1.429   1.013 -0.1622  0.4184 -0.4409
 7532TIP3    H122560   4.725   1.422   1.093  0.7407  2.2953 -0.8143
 7532TIP3    H222561   4.582   1.428   1.044  0.0713 -1.8223  0.3130
 7533TIP3   OH222562   0.062   1.536   3.674  0.2455  0.2673  0.5088
 7533TIP3    H122563  -0.012   1.511   3.730  1.1147 -0.6025  1.3031
 7533TIP3    H222564   0.137   1.492   3.713  1.2725  1.5306 -0.0103
 7534TIP3   OH222565   3.478   2.533   0.073 -0.3009 -0.0309 -0.7070
 7534TIP3    H122566   3.396   2.575   0.044 -0.6661 -0.3260 -0.1113
 7534TIP3    H222567   3.534   2.606   0.098 -0.2955  0.1859 -1.3164
 7535TIP3   OH222568   0.052   1.000   5.492  0.0220 -0.6585 -0.7085
 7535TIP3    H122569   0.040   1.007   5.397  5.0583  1.9545 -1.5173
 7535TIP3    H222570   0.118   0.932   5.503  0.8312  0.2956  0.6664
 7536TIP3   OH222571   1.865   6.009   2.390  0.1554 -0.0956  0.3049
 7536TIP3    H122572   1.852   6.080   2.328 -0.4022 -0.1185  0.3889
 7536TIP3    H222573   1.959   5.991   2.387  0.1729  0.0877 -0.3209
 7537TIP3   OH222574   3.648   0.309   3.764 -0.4665  0.0046  0.1502
 7537TIP3    H122575   3.669   0.231   3.816  4.0783 -0.2797 -1.6741
 7537TIP3    H222576   3.602   0.275   3.687  0.4038 -0.7862 -0.0437
 7538TIP3   OH222577   3.898   6.265   3.152 -0.3257  0.6607  0.6739
 7538TIP3    H122578   3.975   6.305   3.111  1.2661 -1.6861  1.1810
 7538TIP3    H222579   3.832   6.262   3.083  1.3319 -0.6471 -0.9201
 7539TIP3   OH222580   0.213   1.438   5.681  0.4355 -0.6221  0.3452
 7539TIP3    H122581   0.193   1.354   5.723  0.9619 -1.3670 -0.8395
 7539TIP3    H222582   0.139   1.453   5.622  1.1038 -1.0563 -0.6146
 7540TIP3   OH222583   6.222   0.168   2.218  1.0900  0.1889  0.9501
 7540TIP3    H122584   6.262   0.198   2.300 -0.7651 -0.7004  2.2593
 7540TIP3    H222585   6.141   0.219   2.211  1.0484 -0.0102 -0.1448
 7541TIP3   OH222586   4.097   2.578   4.103  0.3575 -0.3256  0.4770
 7541TIP3    H122587   4.155   2.503   4.112 -0.0839 -0.6674  0.5235
 7541TIP3    H222588   4.096   2.618   4.190  0.6287 -0.2373  0.4404
 7542TIP3   OH222589   4.371   2.290   0.457  0.1220 -0.1205  0.1284
 7542TIP3    H122590   4.404   2.283   0.368  2.6696  2.2907  0.7340
 7542TIP3    H222591   4.347   2.200   0.481 -0.5705 -0.8384 -2.8828
 7543TIP3   OH222592   5.677   2.446   1.983  0.0515 -0.0581  0.1919
 7543TIP3    H122593   5.735   2.374   2.009  2.0433  1.7718  1.1470
 7543TIP3    H222594   5.650   2.425   1.894 -1.3331 -3.0973  1.1958
 7544TIP3   OH222595   1.569   1.055   3.105 -0.0187  0.1019  0.3082
 7544TIP3    H122596   1.661   1.040   3.082  0.8722  1.2716  2.7752
 7544TIP3    H222597   1.568   1.144   3.140 -1.5195 -0.8697  2.9818
 7545TIP3   OH222598   1.394   3.192   3.720  0.0936  0.3091 -0.0019
 7545TIP3    H122599   1.317   3.136   3.731  0.4915 -0.0589  1.0512
 7545TIP3    H222600   1.433   3.195   3.807  1.8989 -0.4193 -0.7517
 7546TIP3   OH222601   6.552   1.146   0.771  0.4433  0.0372 -0.3366
 7546TIP3    H122602   6.592   1.146   0.858  0.7297  0.0673 -0.4683
 7546TIP3    H222603   6.461   1.121   0.787  0.1382  1.3997  0.1340
 7547TIP3   OH222604   2.860   5.199   4.921  0.0262  0.0526  0.4070
 7547TIP3    H122605   2.889   5.285   4.952 -1.8053  0.7051  0.4294
 7547TIP3    H222606   2.926   5.173   4.857  1.4306  0.7665  1.4981
 7548TIP3   OH222607   0.242   4.696   0.039 -0.0272  0.0140 -0.1960
 7548TIP3    H122608   0.328   4.714   0.002 -0.1544 -0.8212 -0.9175
 7548TIP3    H222609   0.211   4.782   0.070 -0.0820  0.8449 -2.3876
 7549TIP3   OH222610   3.486   3.650   3.897 -0.5265 -0.4423 -0.1611
 7549TIP3    H122611   3.560   3.616   3.848 -0.9515 -1.9850  0.2243
 7549TIP3    H222612   3.438   3.704   3.833 -0.1117 -0.9800 -0.9414
 7550TIP3   OH222613   0.317   2.225   4.694 -0.4592 -0.0844 -0.2780
 7550TIP3    H122614   0.381   2.279   4.741  0.7718 -0.3347 -1.5917
 7550TIP3    H222615   0.356   2.137   4.693 -0.9681 -0.3117 -0.8683
 7551TIP3   OH222616   2.558   2.621   0.269 -0.0717 -0.0568 -0.6025
 7551TIP3    H122617   2.550   2.603   0.175 -1.8704 -0.4975 -0.4021
 7551TIP3    H222618   2.642   2.582   0.293  0.1975 -0.3731 -1.9353
 7552TIP3   OH222619   1.326   5.381   0.218  0.0538  0.5403  0.0711
 7552TIP3    H122620   1.270   5.443   0.264 -0.0696  0.2275  0.3446
 7552TIP3    H222621   1.415   5.412   0.236 -0.0200  0.8428 -0.0862
 7553TIP3   OH222622   5.315   5.973   4.727  0.1884  0.4294  0.1096
 7553TIP3    H122623   5.322   5.883   4.758  1.8989  0.3669 -0.3722
 7553TIP3    H222624   5.356   5.973   4.641  1.0197  1.8269  0.4675
 7554TIP3   OH222625   5.572   0.696   4.237 -0.5760  0.0192  0.3974
 7554TIP3    H122626   5.600   0.776   4.281  1.4361 -0.0273 -0.6687
 7554TIP3    H222627   5.601   0.626   4.294  1.8600 -0.0346 -0.7816
 7555TIP3   OH222628   5.376   6.425   4.381  0.1164 -0.7243  0.4947
 7555TIP3    H122629   5.424   6.374   4.446 -0.2486  1.5385  2.6956
 7555TIP3    H222630   5.286   6.427   4.414 -1.0037 -2.5223 -2.0804
 7556TIP3   OH222631   4.696   3.800   3.115  0.4466 -1.0616 -0.0650
 7556TIP3    H122632   4.718   3.738   3.046 -2.4515 -0.3352 -1.7901
 7556TIP3    H222633   4.645   3.748   3.178 -0.7918 -0.7641 -0.8055
 7557TIP3   OH222634   3.044   4.714   5.223  0.5573 -0.0879 -0.4862
 7557TIP3    H122635   2.994   4.715   5.305 -0.6167 -0.1312 -1.1819
 7557TIP3    H222636   3.128   4.752   5.246  1.0122 -1.9636  1.2165
 7558TIP3   OH222637   0.379   1.522   5.466 -0.4703  0.5405 -0.2346
 7558TIP3    H122638   0.458   1.552   5.511 -0.3910 -0.8860  0.6392
 7558TIP3    H222639   0.327   1.479   5.534 -2.8978  2.9617 -0.3616
 7559TIP3   OH222640   2.946   0.974   5.693  0.5564  0.0084  0.3758
 7559TIP3    H122641   2.993   0.999   5.613  0.5047 -0.9849  0.0300
 7559TIP3    H222642   3.007   0.993   5.764  0.1779  2.0494  0.2446
 7560TIP3   OH222643   2.901   4.480   1.308  0.4892  0.3674  0.3851
 7560TIP3    H122644   2.961   4.553   1.326  1.2367 -0.3290  0.8052
 7560TIP3    H222645   2.955   4.402   1.321 -0.5388 -0.2824  0.8287
 7561TIP3   OH222646   1.158   1.055   1.094  0.2941 -0.0372  0.4948
 7561TIP3    H122647   1.094   1.041   1.025  2.2166 -0.6326 -1.2567
 7561TIP3    H222648   1.107   1.050   1.175 -2.5005  3.2738 -0.8465
 7562TIP3   OH222649   0.013   5.342   0.791 -0.3377  0.1546  0.1475
 7562TIP3    H122650   0.098   5.345   0.747 -0.0292 -4.0202  0.0211
 7562TIP3    H222651   0.034   5.333   0.884 -0.6124 -0.6215  0.1410
 7563TIP3   OH222652   0.915   4.106   5.659  0.1087  0.1077  0.0476
 7563TIP3    H122653   0.838   4.084   5.606  0.0537  0.3107  0.0438
 7563TIP3    H222654   0.887   4.178   5.714  0.4165  0.4490 -0.2378
 7564TIP3   OH222655   3.778   5.051   4.332 -0.3173  0.3221  0.5424
 7564TIP3    H122656   3.718   4.977   4.321 -0.4254  0.4563  0.1961
 7564TIP3    H222657   3.865   5.012   4.332 -0.3368  0.2630 -0.3843
 7565TIP3   OH222658   6.544   5.941   1.143 -0.0643  0.2000 -0.3028
 7565TIP3    H122659   6.636   5.915   1.149 -0.1735 -0.2726 -0.6547
 7565TIP3    H222660   6.540   5.999   1.067 -0.1579 -0.2156 -0.6143
 7566TIP3   OH222661   7.176   0.422   3.300  0.6921 -0.0844  0.0206
 7566TIP3    H122662   7.209   0.498   3.252  0.5079 -0.6197 -0.9692
 7566TIP3    H222663   7.239   0.352   3.282  0.2368 -0.4895 -0.0381
 7567TIP3   OH222664   0.220   6.113   2.053  0.3598  0.7359 -0.5796
 7567TIP3    H122665   0.210   6.022   2.025 -0.6938 -0.2708  2.5507
 7567TIP3    H222666   0.232   6.162   1.972  0.8199 -2.1405 -2.4148
 7568TIP3   OH222667   1.318   1.225   5.817  0.0853  0.0553  0.0181
 7568TIP3    H122668   1.253   1.240   5.748 -1.5526 -1.2858  1.1812
 7568TIP3    H222669   1.365   1.147   5.790 -0.0564 -0.0429  0.0524
 7569TIP3   OH222670   5.009   2.445   2.808 -0.7754 -0.2719 -0.5188
 7569TIP3    H122671   4.964   2.413   2.886  1.0826  1.6941  1.4736
 7569TIP3    H222672   4.960   2.523   2.782 -0.4480  0.0037 -0.3170
 7570TIP3   OH222673   3.740   1.822   1.089 -0.0292 -0.2913 -0.3166
 7570TIP3    H122674   3.675   1.878   1.046  0.2270  0.5625  0.3836
 7570TIP3    H222675   3.754   1.863   1.174 -0.6581 -2.0324  0.6809
 7571TIP3   OH222676   6.199   1.587   3.969  0.1527  0.1606  0.2945
 7571TIP3    H122677   6.237   1.585   4.057  0.0759 -0.8871  0.3224
 7571TIP3    H222678   6.124   1.646   3.976 -0.3434 -0.5423  1.1443
 7572TIP3   OH222679   3.668   3.447   1.380 -0.5057 -0.2639 -0.3549
 7572TIP3    H122680   3.678   3.484   1.468  0.9774 -0.1021 -0.5670
 7572TIP3    H222681   3.602   3.378   1.391  0.3347 -0.8961  1.1060
 7573TIP3   OH222682   1.986   5.890   5.466  0.8381  0.5463 -0.8030
 7573TIP3    H122683   1.914   5.834   5.437  0.0851  0.8332  0.4231
 7573TIP3    H222684   2.064   5.848   5.431  0.2929 -1.2799  0.0005
 7574TIP3   OH222685   5.100   3.462   2.833  0.3150 -0.2958  0.3032
 7574TIP3    H122686   5.195   3.458   2.819  0.1148  1.1856 -1.9495
 7574TIP3    H222687   5.067   3.379   2.798  0.6414 -0.1065 -0.4685
 7575TIP3   OH222688   4.388   5.070   2.045  0.5322  0.0293 -0.1250
 7575TIP3    H122689   4.386   5.150   1.992  0.2535  0.0935 -0.0163
 7575TIP3    H222690   4.426   5.097   2.129  1.6539 -0.2147 -0.5247
 7576TIP3   OH222691   2.914   1.863   5.364 -0.9796  0.3318  0.6251
 7576TIP3    H122692   2.885   1.953   5.354 -0.6692  0.3273 -0.3552
 7576TIP3    H222693   3.009   1.868   5.374 -0.6445 -0.0038 -1.7675
 7577TIP3   OH222694   0.203   0.715   2.947 -0.0879  0.3431  0.0736
 7577TIP3    H122695   0.119   0.706   2.902  0.4589 -1.1604 -0.7482
 7577TIP3    H222696   0.231   0.805   2.930 -2.5475  1.6581  2.2948
 7578TIP3   OH222697   4.884   4.328   4.705  0.2427  0.0274 -0.5425
 7578TIP3    H122698   4.978   4.316   4.716  0.1560 -0.7754 -0.6189
 7578TIP3    H222699   4.875   4.406   4.650  0.8243  0.9444  0.6244
 7579TIP3   OH222700   4.575   4.338   1.222  0.3617  0.1511  0.2317
 7579TIP3    H122701   4.546   4.247   1.229  0.5148 -0.0902 -1.7380
 7579TIP3    H222702   4.517   4.376   1.157 -0.3306  1.7820  1.7249
 7580TIP3   OH222703   0.597   0.274   0.119 -0.3669 -0.1136 -0.0968
 7580TIP3    H122704   0.617   0.324   0.040 -0.8429 -1.2021 -0.9372
 7580TIP3    H222705   0.513   0.307   0.149 -1.4321 -1.3954 -1.5253
 7581TIP3   OH222706   4.126   5.834   1.078 -0.4475 -0.1730  0.0266
 7581TIP3    H122707   4.151   5.926   1.068 -2.2586  0.6599  2.1735
 7581TIP3    H222708   4.150   5.813   1.168 -0.9940 -1.4674 -0.1087
 7582TIP3   OH222709   3.274   2.211   0.116 -0.2882  0.8539 -0.0992
 7582TIP3    H122710   3.218   2.285   0.140  0.4698  0.7639  2.2311
 7582TIP3    H222711   3.349   2.251   0.073 -0.8896  1.2218 -0.8252
 7583TIP3   OH222712   3.288   3.366   5.380  0.3148  0.2328 -0.2970
 7583TIP3    H122713   3.192   3.357   5.375  0.1997  1.5829 -1.1110
 7583TIP3    H222714   3.319   3.279   5.404 -1.1611 -0.0942  0.5449
 7584TIP3   OH222715   7.090   2.285   5.437  0.2571  0.4809 -0.0132
 7584TIP3    H122716   7.172   2.276   5.485  0.2869  0.3803 -0.0817
 7584TIP3    H222717   7.030   2.223   5.480  1.2154 -2.1110 -2.1133
 7585TIP3   OH222718   4.459   2.813   2.009 -0.1207  0.1398  0.2632
 7585TIP3    H122719   4.427   2.748   2.072 -1.3987 -0.9564 -1.3955
 7585TIP3    H222720   4.399   2.887   2.018  1.7670  1.5137  2.6644
 7586TIP3   OH222721   1.695   0.944   1.611 -0.4801  0.1896 -0.0143
 7586TIP3    H122722   1.654   1.018   1.567  1.5692  0.2414 -2.0127
 7586TIP3    H222723   1.660   0.867   1.567  0.2751  0.1625 -0.5793
 7587TIP3   OH222724   5.840   0.630   2.128 -0.3062  0.0078  0.0925
 7587TIP3    H122725   5.808   0.596   2.045  0.2042 -2.6591  0.8876
 7587TIP3    H222726   5.780   0.595   2.194 -1.4511  3.0949  0.8452
 7588TIP3   OH222727   1.068   2.319   3.785 -0.6846  0.1028  0.0660
 7588TIP3    H122728   1.083   2.288   3.874  1.1019 -1.6941 -0.7735
 7588TIP3    H222729   1.103   2.408   3.784 -0.0531 -0.1236  0.9691
 7589TIP3   OH222730   5.212   5.831   3.380  0.0508 -0.0316  0.3797
 7589TIP3    H122731   5.235   5.811   3.471  2.5467  0.4227 -0.0694
 7589TIP3    H222732   5.263   5.768   3.328 -0.7173  0.2355 -0.7316
 7590TIP3   OH222733   4.698   5.770   2.610 -0.3004 -0.1166 -0.2570
 7590TIP3    H122734   4.741   5.821   2.679  0.6471  0.1806 -1.0486
 7590TIP3    H222735   4.633   5.717   2.657  0.0302  0.3884  0.8091
 7591TIP3   OH222736   2.260   1.981   1.697  0.0577 -0.2583 -0.0321
 7591TIP3    H122737   2.327   1.920   1.725  0.2611  0.4781  1.1809
 7591TIP3    H222738   2.306   2.065   1.688  0.1647 -0.5215 -3.3371
 7592TIP3   OH222739   4.209   0.045   2.268 -0.3178 -0.0932  0.2048
 7592TIP3    H122740   4.122   0.073   2.241 -1.6184 -2.5075  1.5331
 7592TIP3    H222741   4.255   0.026   2.186  0.4055  4.5796 -0.7680
 7593TIP3   OH222742   5.535   1.126   3.464  0.2774  0.4682  0.1501
 7593TIP3    H122743   5.487   1.054   3.423  0.2450 -0.8525  2.3239
 7593TIP3    H222744   5.469   1.174   3.514  0.6754  0.6422  0.5147
 7594TIP3   OH222745   6.455   4.923   2.011 -0.0772  0.2584 -0.0402
 7594TIP3    H122746   6.521   4.863   1.975 -0.1447  0.4320 -0.4479
 7594TIP3    H222747   6.372   4.881   1.992 -0.0604 -0.9530  2.1858
 7595TIP3   OH222748   2.734   6.231   5.213 -0.2727  0.3355  0.0126
 7595TIP3    H122749   2.729   6.182   5.295 -0.5284 -1.6052 -1.0965
 7595TIP3    H222750   2.816   6.203   5.173 -1.1120 -0.3169 -1.3042
 7596TIP3   OH222751   5.870   1.065   4.410 -0.2572 -0.2019 -0.0603
 7596TIP3    H122752   5.814   1.101   4.341 -1.8522 -0.5689  1.0000
 7596TIP3    H222753   5.867   0.971   4.396  0.0240 -0.2297  0.0628
 7597TIP3   OH222754   2.560   6.512   3.284  0.4981  0.0741 -0.0527
 7597TIP3    H122755   2.598   6.430   3.251  0.5475  0.2509 -0.4424
 7597TIP3    H222756   2.526   6.555   3.205 -3.8069 -1.7313  0.5148
 7598TIP3   OH222757   2.408   1.896   5.882 -0.0634  0.4085 -0.1069
 7598TIP3    H122758   2.497   1.892   5.915 -0.7178 -0.9752  1.6283
 7598TIP3    H222759   2.410   1.843   5.802  0.5340 -0.1014  0.2412
 7599TIP3   OH222760   6.820   2.867   2.848 -0.0820 -0.8223  0.2785
 7599TIP3    H122761   6.901   2.895   2.805 -1.2410 -0.0074 -1.4846
 7599TIP3    H222762   6.811   2.775   2.822 -0.0797 -0.7182 -0.0962
 7600TIP3   OH222763   4.315   1.375   2.869 -0.0482 -0.1254  0.0448
 7600TIP3    H122764   4.366   1.341   2.795  0.5696  1.7638 -0.4298
 7600TIP3    H222765   4.232   1.327   2.864  0.1238 -0.3046 -1.6386
 7601TIP3   OH222766   3.580   6.161   0.924 -0.6087 -0.3282  0.2018
 7601TIP3    H122767   3.671   6.173   0.950 -0.6253  1.5236 -0.4214
 7601TIP3    H222768   3.533   6.148   1.007  0.0386  0.1924  0.6631
 7602TIP3   OH222769   3.031   3.287   5.397  0.1880  0.4723 -0.0919
 7602TIP3    H122770   2.996   3.291   5.308  0.8440  0.4363 -0.3580
 7602TIP3    H222771   3.007   3.200   5.428 -2.2968  1.3633  0.7366
 7603TIP3   OH222772   4.752   4.938   0.616  0.6618  0.1172 -0.2393
 7603TIP3    H122773   4.792   4.874   0.675  0.5487  2.1866  2.2614
 7603TIP3    H222774   4.826   4.988   0.582  0.5641  1.3222  1.1934
 7604TIP3   OH222775   3.502   2.046   3.770 -0.5948 -0.1644  0.5505
 7604TIP3    H122776   3.585   2.002   3.790 -0.5556  0.2312  1.2844
 7604TIP3    H222777   3.444   1.974   3.745  0.0284 -0.4211 -0.2076
 7605TIP3   OH222778   6.114   5.494   3.440  0.3737 -0.2646  0.3666
 7605TIP3    H122779   6.181   5.462   3.501  0.3364  0.2585  0.6888
 7605TIP3    H222780   6.068   5.562   3.489  0.9015  0.7706 -0.5398
 7606TIP3   OH222781   3.769   6.728   3.680 -0.0885  1.1559  0.6525
 7606TIP3    H122782   3.677   6.743   3.656  0.1333  0.6701 -0.5592
 7606TIP3    H222783   3.767   6.648   3.732 -0.1821  0.1124 -0.8769
 7607TIP3   OH222784   4.373   3.815   0.043  0.2628  0.7384 -0.3053
 7607TIP3    H122785   4.395   3.885   0.104  0.4591  0.1970  0.2565
 7607TIP3    H222786   4.441   3.819  -0.025 -0.4993  1.9645 -1.0438
 7608TIP3   OH222787   4.861   4.591   1.257  0.2845  0.5053  0.1701
 7608TIP3    H122788   4.888   4.545   1.337 -0.2968  1.2394  0.8001
 7608TIP3    H222789   4.782   4.639   1.282 -0.3968  0.0751 -1.0791
 7609TIP3   OH222790   4.993   2.757   3.796 -0.6292  0.1416  0.1467
 7609TIP3    H122791   4.960   2.743   3.707 -0.9658  1.3909  0.0558
 7609TIP3    H222792   4.953   2.687   3.848  1.2734 -1.9485 -1.0398
 7610TIP3   OH222793   5.447   4.750   0.387 -0.2151 -0.3265  0.4167
 7610TIP3    H122794   5.366   4.700   0.398 -0.7887  0.0515 -1.6412
 7610TIP3    H222795   5.513   4.685   0.362  0.2464 -0.6796  2.3919
 7611TIP3   OH222796   1.906   2.340   1.632 -0.6540  0.0060  0.2809
 7611TIP3    H122797   1.848   2.413   1.611  0.1139  0.4465 -0.3944
 7611TIP3    H222798   1.989   2.382   1.658  0.0511 -0.6050 -0.8876
 7612TIP3   OH222799   5.435   4.027   2.865  0.1446 -0.9375  0.2454
 7612TIP3    H122800   5.482   3.949   2.836  0.5832 -0.4200 -0.4635
 7612TIP3    H222801   5.503   4.085   2.900  0.0029 -0.3364 -0.4433
 7613TIP3   OH222802   1.460   4.442   3.090 -0.1369  1.2243 -0.4113
 7613TIP3    H122803   1.387   4.391   3.054 -0.1945  1.3380 -0.4566
 7613TIP3    H222804   1.533   4.426   3.029  0.5146 -0.5793  0.7664
 7614TIP3   OH222805   0.229   5.017   4.015  0.2926 -0.2796  0.0922
 7614TIP3    H122806   0.319   5.050   4.020 -0.6879  2.4456  1.6901
 7614TIP3    H222807   0.175   5.091   4.039 -2.4807 -1.6558 -1.4824
 7615TIP3   OH222808   4.135   6.170   2.594  0.4265  0.0547 -0.4015
 7615TIP3    H122809   4.047   6.155   2.560  0.7499  2.0464 -2.4050
 7615TIP3    H222810   4.123   6.221   2.673 -0.2718 -2.8805  1.5440
 7616TIP3   OH222811   4.696   5.752   4.352  0.6699  0.1229  0.2772
 7616TIP3    H122812   4.673   5.772   4.442  0.2952  2.4852 -0.2819
 7616TIP3    H222813   4.789   5.729   4.355  0.3915 -0.9761  1.3704
 7617TIP3   OH222814   0.932   3.494   1.256  0.6752  0.2508  0.0822
 7617TIP3    H122815   0.890   3.412   1.229  0.5553  0.1684  0.5076
 7617TIP3    H222816   1.015   3.468   1.294  1.2989  0.4447 -1.1039
 7618TIP3   OH222817   3.454   1.519   5.381 -0.5639  0.6682 -0.1680
 7618TIP3    H122818   3.398   1.465   5.437  1.4236 -2.1629 -0.6646
 7618TIP3    H222819   3.399   1.543   5.307 -1.9373  0.6296  0.7983
 7619TIP3   OH222820   3.253   5.098   5.558  0.3377 -0.1052 -0.1888
 7619TIP3    H122821   3.294   5.182   5.578 -1.5927  0.9900 -0.5703
 7619TIP3    H222822   3.167   5.121   5.522 -0.3641 -2.2511 -0.0427
 7620TIP3   OH222823   1.539   5.342   5.868  0.0336  0.1368  0.1792
 7620TIP3    H122824   1.563   5.434   5.862  3.9510 -0.6568  0.9158
 7620TIP3    H222825   1.519   5.317   5.778  1.0630  1.2498 -0.3910
 7621TIP3   OH222826   0.051   0.892   0.491 -0.6694 -0.6368  0.3487
 7621TIP3    H122827  -0.040   0.915   0.475 -0.9737 -1.0145  1.4413
 7621TIP3    H222828   0.048   0.805   0.530  0.1476 -0.5783  0.5725
 7622TIP3   OH222829   1.041   4.057   2.699  0.1604 -0.3454  0.2525
 7622TIP3    H122830   1.057   4.008   2.780  0.4169 -0.2090  0.2834
 7622TIP3    H222831   1.071   3.997   2.630 -1.8552 -1.2783  0.1158
 7623TIP3   OH222832   5.139   3.204   1.064 -0.3767  0.3688 -0.2273
 7623TIP3    H122833   5.123   3.294   1.037 -0.0418  1.0866  1.8228
 7623TIP3    H222834   5.167   3.210   1.155  0.7699 -1.7270 -0.3717
 7624TIP3   OH222835   5.913   3.413   0.814 -0.1340  0.0556 -0.6401
 7624TIP3    H122836   5.896   3.319   0.816 -2.8262  0.4266  2.0804
 7624TIP3    H222837   5.881   3.442   0.729 -3.4153 -1.0088  0.0855
 7625TIP3   OH222838   1.878   3.458   1.252  0.6048  0.3076 -0.1291
 7625TIP3    H122839   1.892   3.529   1.313  0.6084  0.8235 -0.7220
 7625TIP3    H222840   1.834   3.390   1.303 -0.5568  1.2338  0.1276
 7626TIP3   OH222841   4.379   6.290   1.295  0.2595  0.2575 -0.4694
 7626TIP3    H122842   4.314   6.335   1.349  0.4711  1.3693 -1.1051
 7626TIP3    H222843   4.419   6.360   1.242  0.8303 -0.6382 -1.2570
 7627TIP3   OH222844   5.121   2.642   5.230 -0.1491 -0.4132  0.3504
 7627TIP3    H122845   5.078   2.687   5.302 -0.1032 -2.6749  1.8660
 7627TIP3    H222846   5.055   2.638   5.161 -0.3734  1.2995  0.4355
 7628TIP3   OH222847   5.277   5.653   2.677 -0.2289 -0.1509 -0.3976
 7628TIP3    H122848   5.193   5.625   2.641 -1.5536  3.4179 -0.4648
 7628TIP3    H222849   5.274   5.627   2.769 -2.1419  1.2321 -0.0160
 7629TIP3   OH222850   3.355   3.104   5.495 -0.6088  0.5378  0.1449
 7629TIP3    H122851   3.354   3.073   5.404 -1.7910  0.8813  0.0229
 7629TIP3    H222852   3.413   3.043   5.540 -0.9036 -0.3273 -0.6071
 7630TIP3   OH222853   3.651   5.313   5.302  0.7694 -0.0247 -0.3992
 7630TIP3    H122854   3.693   5.336   5.385 -2.6412  1.1847  1.1705
 7630TIP3    H222855   3.629   5.397   5.262 -2.6629 -0.4178  0.3650
 7631TIP3   OH222856   3.983   3.630   3.043  0.1716  0.4965  0.0493
 7631TIP3    H122857   4.034   3.650   3.121  1.5184 -0.3877 -0.5585
 7631TIP3    H222858   3.987   3.535   3.035  0.7406  0.6207 -1.5057
 7632TIP3   OH222859   7.078   3.747   2.101 -0.0097 -0.7242 -0.3427
 7632TIP3    H122860   7.035   3.669   2.066 -0.3914 -0.2359 -1.0006
 7632TIP3    H222861   7.081   3.733   2.196 -0.4871 -1.3278 -0.4113
 7633TIP3   OH222862   5.028   0.630   4.236  0.1850  0.0872  0.0906
 7633TIP3    H122863   5.064   0.558   4.185  2.5410  1.7276 -0.7443
 7633TIP3    H222864   4.989   0.689   4.172 -2.3222 -0.6565  0.8192
 7634TIP3   OH222865   5.627   1.695   2.988  0.1967  0.6945 -0.0526
 7634TIP3    H122866   5.628   1.758   3.060  0.0597  0.5720  0.0579
 7634TIP3    H222867   5.613   1.610   3.031  1.6578  0.4172 -0.0822
 7635TIP3   OH222868   4.566   4.571   1.691 -0.7681  0.0396 -0.1815
 7635TIP3    H122869   4.557   4.520   1.610 -1.7132 -0.5415  0.2711
 7635TIP3    H222870   4.660   4.573   1.708 -0.6735 -1.0992 -0.4906
 7636TIP3   OH222871   5.408   4.763   4.448  0.1386 -0.0140 -0.0149
 7636TIP3    H122872   5.461   4.724   4.378  2.5536  0.6018  1.3492
 7636TIP3    H222873   5.390   4.691   4.508  0.3213 -0.0313  0.0204
 7637TIP3   OH222874   1.315   0.761   2.345  0.5924  0.4123 -0.0106
 7637TIP3    H122875   1.250   0.716   2.292  0.4568  1.2512 -0.5820
 7637TIP3    H222876   1.393   0.764   2.290  1.1262 -0.5683  0.6609
 7638TIP3   OH222877   2.671   6.000   0.720  0.3782  0.4649 -1.0938
 7638TIP3    H122878   2.607   5.929   0.711  1.0597 -0.1265 -1.3668
 7638TIP3    H222879   2.745   5.959   0.766  0.4064  1.2395 -0.4409
 7639TIP3   OH222880   4.800   5.633   1.473 -0.5023 -0.2803  0.5062
 7639TIP3    H122881   4.857   5.568   1.514 -1.6580 -0.5386  1.7455
 7639TIP3    H222882   4.732   5.582   1.429 -0.2660  0.0550 -0.2747
 7640TIP3   OH222883   3.110   2.960   3.313  0.2279  0.0795 -0.2732
 7640TIP3    H122884   3.199   2.974   3.282  0.4336 -0.3142  0.1374
 7640TIP3    H222885   3.100   2.865   3.317 -0.3301  0.1111 -0.6524
 7641TIP3   OH222886   1.344   4.087   0.420 -1.1274 -0.1928  0.3303
 7641TIP3    H122887   1.289   4.161   0.395  0.3674  0.8506 -0.0242
 7641TIP3    H222888   1.287   4.011   0.412 -2.1830  0.6968 -1.1917
 7642TIP3   OH222889   2.883   0.026   0.347  1.0193 -0.0280 -0.6643
 7642TIP3    H122890   2.895   0.120   0.362 -0.4778 -0.0575  0.9785
 7642TIP3    H222891   2.957  -0.015   0.394  0.5988  0.2617  0.2799
 7643TIP3   OH222892   5.126   1.638   1.783 -0.1342  0.0854  1.0503
 7643TIP3    H122893   5.039   1.601   1.772 -0.6971  1.5824  0.2315
 7643TIP3    H222894   5.155   1.605   1.868 -1.7703  0.0647  1.6447
 7644TIP3   OH222895   1.017   6.567   5.365 -0.1540  0.3208  0.3843
 7644TIP3    H122896   1.013   6.603   5.453 -1.2128 -1.5603  1.1577
 7644TIP3    H222897   0.929   6.581   5.329 -0.5144 -1.1474  0.6105
 7645TIP3   OH222898   4.097   1.019   5.784  0.1316  0.0967  0.2580
 7645TIP3    H122899   4.003   1.019   5.765 -0.1890 -0.3399  1.7092
 7645TIP3    H222900   4.122   0.926   5.781  0.3173  0.1286  0.7528
 7646TIP3   OH222901   5.607   4.412   2.978 -0.2848  0.0030 -0.1599
 7646TIP3    H122902   5.582   4.384   2.890 -0.2697  0.2564 -0.2470
 7646TIP3    H222903   5.536   4.381   3.035 -0.5712  0.3261 -0.3414
 7647TIP3   OH222904   3.208   5.185   3.715  0.0002  0.0810 -0.4129
 7647TIP3    H122905   3.193   5.126   3.788 -0.1908  3.0848  2.1728
 7647TIP3    H222906   3.302   5.205   3.718  0.1020 -0.1853 -1.3778
 7648TIP3   OH222907   0.499   2.000   4.621 -0.3659  0.1200  0.5141
 7648TIP3    H122908   0.575   1.944   4.608  1.2390  2.4871 -1.1557
 7648TIP3    H222909   0.431   1.962   4.566 -0.4122 -1.8947  1.8403
 7649TIP3   OH222910   3.883   6.075   5.317 -0.0320 -0.2466  0.2273
 7649TIP3    H122911   3.846   6.131   5.386 -0.3719  0.3633 -0.4352
 7649TIP3    H222912   3.873   5.986   5.351 -0.0992  0.0520  1.0113
 7650TIP3   OH222913   2.173   5.769   0.339 -0.0593 -0.3599 -0.2558
 7650TIP3    H122914   2.242   5.805   0.283 -0.1223 -1.3698 -1.0115
 7650TIP3    H222915   2.143   5.691   0.292  0.2323 -1.5353  1.4392
 7651TIP3   OH222916   0.961   6.208   2.040 -0.0594 -0.3054 -0.2219
 7651TIP3    H122917   0.952   6.117   2.012 -0.4905 -0.4723  0.4581
 7651TIP3    H222918   0.878   6.249   2.017  0.2062 -0.0211 -0.7129
 7652TIP3   OH222919   5.042   5.786   5.752 -0.1306 -0.6881  0.9571
 7652TIP3    H122920   4.971   5.757   5.695  1.4559 -0.7351 -1.0881
 7652TIP3    H222921   5.054   5.712   5.813  1.5294 -3.0314 -1.9585
 7653TIP3   OH222922   6.428   1.332   1.366 -0.5679  0.1816 -0.0304
 7653TIP3    H122923   6.342   1.345   1.327 -0.7772 -0.2659  0.2716
 7653TIP3    H222924   6.416   1.258   1.426 -0.3320  1.0681  1.1330
 7654TIP3   OH222925   1.007   6.092   0.837  0.4920 -0.0520 -0.2670
 7654TIP3    H122926   0.961   6.087   0.753 -0.3048  0.5254  0.1314
 7654TIP3    H222927   0.965   6.026   0.891  0.2529  0.3447  0.0362
 7655TIP3   OH222928   4.568   1.928   5.748  0.1649  0.4348 -0.5398
 7655TIP3    H122929   4.540   1.902   5.835 -0.4092  1.4460 -0.4084
 7655TIP3    H222930   4.519   1.872   5.688 -1.2859  1.3691 -0.2746
 7656TIP3   OH222931   1.549   5.962   0.437 -0.3849 -0.1441  0.5198
 7656TIP3    H122932   1.616   5.985   0.373 -1.2667  0.1424 -0.3249
 7656TIP3    H222933   1.586   5.988   0.521  1.1447 -1.2895  0.2501
 7657TIP3   OH222934   6.946   6.596   3.146 -0.3919 -0.1172  0.4440
 7657TIP3    H122935   6.977   6.669   3.092  0.9244 -0.6550  0.4271
 7657TIP3    H222936   6.991   6.519   3.110 -2.0224 -1.0206  0.2229
 7658TIP3   OH222937   4.848   5.121   5.630  0.2584 -0.4482 -0.2604
 7658TIP3    H122938   4.840   5.214   5.650 -1.4229 -0.7649  0.7579
 7658TIP3    H222939   4.758   5.089   5.629  0.8673 -2.3629  0.8445
 7659TIP3   OH222940   0.830   5.359   0.755  0.3132 -0.1580  0.0133
 7659TIP3    H122941   0.762   5.317   0.807 -0.2795  2.8689  1.9394
 7659TIP3    H222942   0.906   5.363   0.813  1.9066 -2.4793 -1.7252
 7660TIP3   OH222943   6.106   3.421   4.575 -0.0142  0.3421 -0.4283
 7660TIP3    H122944   6.152   3.383   4.500 -0.1453  0.0280 -0.3483
 7660TIP3    H222945   6.165   3.490   4.606  0.9677 -0.8342  0.3996
 7661TIP3   OH222946   0.126   0.125   3.125 -0.1398 -0.2342 -0.1525
 7661TIP3    H122947   0.057   0.126   3.059  0.5185 -3.0631 -1.0461
 7661TIP3    H222948   0.186   0.056   3.095  2.3924  1.1957  1.2655
 7662TIP3   OH222949   3.302   4.148   2.396 -0.3842  0.4905 -0.3595
 7662TIP3    H122950   3.313   4.115   2.485 -1.8032  0.0671 -0.3108
 7662TIP3    H222951   3.363   4.222   2.389 -0.5361  0.7694  1.0899
 7663TIP3   OH222952   7.059   3.912   3.107 -0.0608  0.1471 -0.0838
 7663TIP3    H122953   7.073   3.842   3.171 -0.5256 -1.0086 -1.1899
 7663TIP3    H222954   6.968   3.900   3.079 -0.7903  2.4333  1.0997
 7664TIP3   OH222955   1.417   6.426   5.455  0.0912 -0.1532 -0.0179
 7664TIP3    H122956   1.384   6.463   5.537  0.3288  3.4882 -1.3611
 7664TIP3    H222957   1.355   6.457   5.389  1.4376 -0.5940 -1.5321
 7665TIP3   OH222958   3.713   3.229   2.159 -0.2077  0.5398 -0.0215
 7665TIP3    H122959   3.682   3.271   2.239 -0.2173  0.6105 -0.0622
 7665TIP3    H222960   3.754   3.147   2.188 -1.7137 -0.2798 -0.0682
 7666TIP3   OH222961   7.076   4.723   2.661  0.3918  0.5561  0.2110
 7666TIP3    H122962   7.062   4.818   2.652  1.4011  0.5462 -2.2606
 7666TIP3    H222963   7.160   4.715   2.706 -0.6423  0.7372  2.3248
 7667TIP3   OH222964   1.465   4.769   1.526 -0.6253 -0.1257 -0.1252
 7667TIP3    H122965   1.448   4.770   1.432 -0.0994  0.4648 -0.2160
 7667TIP3    H222966   1.559   4.756   1.534 -0.4026  1.5092  0.2720
 7668TIP3   OH222967   2.768   4.852   0.625  0.2694 -0.1357  0.3316
 7668TIP3    H122968   2.673   4.863   0.615  0.1063  0.3697  2.1245
 7668TIP3    H222969   2.785   4.765   0.590 -0.7987 -0.1030 -0.3341
 7669TIP3   OH222970   3.367   5.439   4.343 -0.1182  0.0013  0.8794
 7669TIP3    H122971   3.349   5.345   4.342  2.6343 -0.5958  0.6783
 7669TIP3    H222972   3.422   5.452   4.421 -0.8233  1.5445  1.1571
 7670TIP3   OH222973   6.522   4.687   0.058 -0.1602 -0.7722  0.0621
 7670TIP3    H122974   6.598   4.745   0.050 -1.8582  2.0160  2.4499
 7670TIP3    H222975   6.510   4.651  -0.030 -0.4231  4.5033 -2.4352
 7671TIP3   OH222976   1.466   5.883   2.135 -1.0104 -0.0660 -0.2409
 7671TIP3    H122977   1.462   5.814   2.201  0.7522 -0.7821 -0.8256
 7671TIP3    H222978   1.553   5.874   2.096 -0.0525  3.4630  0.7040
 7672TIP3   OH222979   4.433   0.755   5.071  0.5884  0.2087 -0.6803
 7672TIP3    H122980   4.467   0.823   5.013  0.1872  2.7758  1.8176
 7672TIP3    H222981   4.353   0.725   5.029  0.0866  2.2549 -1.2976
 7673TIP3   OH222982   0.650   0.101   3.062  0.4600  0.1410 -0.4922
 7673TIP3    H122983   0.634   0.068   2.974  1.2036  1.3136 -1.0972
 7673TIP3    H222984   0.743   0.085   3.078  0.2658 -0.3628  0.2335
 7674TIP3   OH222985   1.792   0.039   0.499  0.3255 -0.6057 -0.4337
 7674TIP3    H122986   1.779  -0.004   0.583  0.3147  0.8034  0.3144
 7674TIP3    H222987   1.706   0.074   0.476  0.5866  0.0345 -0.4490
 7675TIP3   OH222988   1.555   2.930   2.163  0.3541  0.2049  0.4617
 7675TIP3    H122989   1.551   3.016   2.121  0.8965  0.9096  1.7845
 7675TIP3    H222990   1.644   2.926   2.199 -0.1623 -0.2516  1.7275
 7676TIP3   OH222991   6.748   2.873   0.532 -0.0753  0.3639  0.9272
 7676TIP3    H122992   6.663   2.835   0.511 -0.7091  1.3562  1.6172
 7676TIP3    H222993   6.768   2.930   0.458 -0.9402  1.6270  1.6483
 7677TIP3   OH222994   3.239   6.776   4.846  0.1759 -0.5985  0.2900
 7677TIP3    H122995   3.220   6.682   4.851  1.8498 -1.0842 -1.1353
 7677TIP3    H222996   3.164   6.813   4.800  1.0867 -1.9634 -2.6062
 7678TIP3   OH222997   1.331   5.190   3.843 -0.6051  0.2658  0.8811
 7678TIP3    H122998   1.308   5.177   3.751  2.2066  0.8333  0.0010
 7678TIP3    H222999   1.303   5.280   3.861  1.2005  1.1341 -0.3153
 7679TIP3   OH223000   4.496   1.107   1.862 -1.0845  0.1489 -0.3062
 7679TIP3    H123001   4.480   1.081   1.772 -0.6591 -0.7904 -0.1201
 7679TIP3    H223002   4.413   1.089   1.907 -1.1612  0.2149 -0.4219
 7680TIP3   OH223003   2.706   3.685   0.571  0.5613 -0.0240 -0.2471
 7680TIP3    H123004   2.732   3.690   0.662  2.1087  0.3472 -0.6799
 7680TIP3    H223005   2.623   3.733   0.567  0.5567  0.0912  0.9169
 7681TIP3   OH223006   4.710   1.370   2.831 -0.0451 -0.3167  0.1814
 7681TIP3    H123007   4.774   1.426   2.874  3.1472 -2.7097 -0.9978
 7681TIP3    H223008   4.672   1.317   2.902  3.0240 -2.2232  0.5926
 7682TIP3   OH223009   4.295   4.485   0.738  0.6154  0.0620  0.4500
 7682TIP3    H123010   4.290   4.404   0.689 -0.3023 -0.3184  1.1503
 7682TIP3    H223011   4.210   4.494   0.780  1.2935  0.4563  1.8191
 7683TIP3   OH223012   0.359   3.210   1.874  0.5998 -0.5410 -0.4651
 7683TIP3    H123013   0.395   3.286   1.921 -1.7056  0.9012 -0.8551
 7683TIP3    H223014   0.354   3.141   1.940 -1.6864  1.1463  1.2874
 7684TIP3   OH223015   4.275   5.606   0.984  0.0129  0.3299  0.0238
 7684TIP3    H123016   4.211   5.663   1.027  0.1426  0.7657 -0.3534
 7684TIP3    H223017   4.294   5.538   1.048  0.8714  1.4601  1.0084
 7685TIP3   OH223018   7.019   0.765   1.995 -0.5355  0.2393 -0.3057
 7685TIP3    H123019   6.955   0.723   2.052  1.3155 -1.1479  0.8530
 7685TIP3    H223020   7.102   0.754   2.040  0.8285  0.1890 -2.6780
 7686TIP3   OH223021   2.671   4.487   0.243 -0.0884  0.1617  0.3140
 7686TIP3    H123022   2.678   4.401   0.200  0.1469 -0.5074  1.6382
 7686TIP3    H223023   2.689   4.550   0.173 -3.2583 -0.6868 -1.4539
 7687TIP3   OH223024   2.872   4.337   5.321 -0.2947 -0.4707  0.6753
 7687TIP3    H123025   2.935   4.336   5.393 -0.0513 -1.8683  0.4818
 7687TIP3    H223026   2.922   4.368   5.245 -0.3478  0.2481  0.9284
 7688TIP3   OH223027   1.825   5.867   4.465  0.0620 -0.5326 -0.4473
 7688TIP3    H123028   1.813   5.865   4.370 -1.7710 -0.6368 -0.2422
 7688TIP3    H223029   1.857   5.955   4.484  1.1866 -0.7557 -1.2112
 7689TIP3   OH223030   2.969   4.914   4.075  0.6006 -0.0449 -0.5415
 7689TIP3    H123031   2.897   4.977   4.077 -0.7677 -1.5539  0.7936
 7689TIP3    H223032   2.990   4.904   3.982  0.5593  1.9895 -0.8145
 7690TIP3   OH223033   2.941   6.404   4.117  0.1753  0.2185 -0.2604
 7690TIP3    H123034   2.894   6.373   4.194 -0.2029 -1.2322 -1.0278
 7690TIP3    H223035   2.875   6.404   4.047  1.1406 -1.3990 -1.2502
 7691TIP3   OH223036   2.989   4.196   2.565 -0.0910 -0.1409  0.4664
 7691TIP3    H123037   2.953   4.206   2.477  0.7633 -0.5993  0.0477
 7691TIP3    H223038   2.983   4.102   2.583  0.4447 -0.1578  0.5778
 7692TIP3   OH223039   4.849   0.224   5.668  0.7024 -0.2480  0.5190
 7692TIP3    H123040   4.799   0.291   5.715 -0.1346  1.5007 -2.6331
 7692TIP3    H223041   4.796   0.144   5.679 -1.9562  1.1375 -1.1744
 7693TIP3   OH223042   4.028   0.096   3.502  0.2787  0.2781  0.7617
 7693TIP3    H123043   3.941   0.055   3.504 -0.7258  2.0828 -1.1817
 7693TIP3    H223044   4.087   0.025   3.478 -1.4674 -0.1317 -3.1528
 7694TIP3   OH223045   2.156   1.538   3.697 -0.3652  0.2467  0.1203
 7694TIP3    H123046   2.158   1.458   3.750 -3.5304 -1.0053 -1.4041
 7694TIP3    H223047   2.224   1.526   3.631 -2.2109 -2.3736 -1.4769
 7695TIP3   OH223048   4.180   1.477   1.105 -0.4425  0.0353 -0.1230
 7695TIP3    H123049   4.174   1.391   1.063  1.3046 -1.2250  1.9634
 7695TIP3    H223050   4.089   1.499   1.127 -1.0222 -0.8094 -1.5464
 7696TIP3   OH223051   3.797   1.980   5.887  0.0311 -0.0845 -0.4277
 7696TIP3    H123052   3.743   1.929   5.826  1.2184 -2.2844  0.2617
 7696TIP3    H223053   3.887   1.957   5.865  0.5108 -0.8469  2.0045
 7697TIP3   OH223054   4.040   0.681   0.841  0.1956  0.2454  0.0899
 7697TIP3    H123055   4.053   0.776   0.836  0.2305  0.1748 -2.3277
 7697TIP3    H223056   3.946   0.670   0.850  0.1696  0.5009  0.1467
 7698TIP3   OH223057   0.345   2.789   0.065  0.1224  0.1376  0.0851
 7698TIP3    H123058   0.413   2.826   0.121  1.7299 -0.5187 -1.3818
 7698TIP3    H223059   0.312   2.713   0.114 -0.9184  1.5054  1.6305
 7699TIP3   OH223060   3.827   2.071   2.483 -0.3010  0.1566  0.7085
 7699TIP3    H123061   3.844   1.982   2.515  1.4814  0.0588 -0.3824
 7699TIP3    H223062   3.893   2.125   2.527  0.5811  0.4148 -0.8698
 7700TIP3   OH223063   0.455   2.244   2.292 -0.2388 -0.5427 -0.4242
 7700TIP3    H123064   0.386   2.210   2.235 -0.6240 -1.4084  0.5071
 7700TIP3    H223065   0.528   2.265   2.233 -1.0392 -0.2859 -1.3413
 7701TIP3   OH223066   3.148   6.187   0.995 -0.2347  0.6274 -0.2299
 7701TIP3    H123067   3.242   6.178   1.012  0.0761  2.0439 -1.0537
 7701TIP3    H223068   3.142   6.259   0.933 -1.7486 -0.6370 -1.6266
 7702TIP3   OH223069   6.997   5.319   5.310 -0.5031  0.2782 -0.7977
 7702TIP3    H123070   6.937   5.392   5.293  0.4242  1.0404 -0.8998
 7702TIP3    H223071   7.042   5.306   5.227 -0.9309 -0.6795 -0.8876
 7703TIP3   OH223072   4.427   4.225   3.015  0.2131 -0.3294 -0.0033
 7703TIP3    H123073   4.506   4.226   2.961  0.4377  0.9129  0.3125
 7703TIP3    H223074   4.460   4.220   3.105 -0.1670 -3.0411  0.0579
 7704TIP3   OH223075   2.385   1.471   1.699  0.4274  0.8305  0.6517
 7704TIP3    H123076   2.431   1.396   1.660 -1.9769  0.0795 -0.9363
 7704TIP3    H223077   2.434   1.489   1.780  2.6876 -0.6987 -0.2588
 7705TIP3   OH223078   7.154   0.598   2.675 -0.3500  0.0365 -0.0810
 7705TIP3    H123079   7.188   0.550   2.751 -1.1665  1.1631  1.0591
 7705TIP3    H223080   7.200   0.682   2.679  0.3344 -0.2527 -1.4565
 7706TIP3   OH223081   4.359   1.156   4.695 -0.3483  0.4482 -0.2006
 7706TIP3    H123082   4.343   1.114   4.780  1.6008  0.5878  0.2841
 7706TIP3    H223083   4.321   1.095   4.631  0.1616 -0.7897  0.6361
 7707TIP3   OH223084   5.668   2.701   1.809 -0.2125 -0.8063 -0.0895
 7707TIP3    H123085   5.679   2.639   1.737  0.4006 -0.3729 -0.3746
 7707TIP3    H223086   5.703   2.655   1.885  4.1785  0.5567 -0.9608
 7708TIP3   OH223087   4.263   1.876   4.477  0.5103 -0.0724 -0.0945
 7708TIP3    H123088   4.314   1.957   4.486  3.0890 -1.5043 -0.8072
 7708TIP3    H223089   4.206   1.875   4.554  2.2997  1.1655  1.3338
 7709TIP3   OH223090   2.043   0.546   4.880 -0.1211 -0.2103  0.1965
 7709TIP3    H123091   2.095   0.468   4.864  2.2176  0.9815  1.3946
 7709TIP3    H223092   1.969   0.539   4.819 -0.8944 -4.0406  1.2895
 7710TIP3   OH223093   5.090   4.710   4.597 -0.0315 -0.0275 -0.4550
 7710TIP3    H123094   5.179   4.677   4.613  0.3131  0.3773 -1.4682
 7710TIP3    H223095   5.070   4.763   4.674 -0.0039 -1.3420  0.4924
 7711TIP3   OH223096   2.123   4.034   2.950 -0.5193  0.6047 -0.6165
 7711TIP3    H123097   2.189   3.972   2.921  0.2389  0.6671  0.8967
 7711TIP3    H223098   2.162   4.078   3.025 -2.3468  0.4781  0.4792
 7712TIP3   OH223099   0.944   3.335   3.378  0.3642  0.0177  0.1527
 7712TIP3    H123100   1.002   3.400   3.418  1.0584 -1.0651  0.9505
 7712TIP3    H223101   0.890   3.303   3.451  0.0490 -0.3228 -0.2273
 7713TIP3   OH223102   5.469   4.786   0.119  0.0808 -0.0222 -0.7257
 7713TIP3    H123103   5.439   4.695   0.119 -1.5960  0.4889 -1.2757
 7713TIP3    H223104   5.472   4.811   0.212  0.5265 -0.6244 -0.5759
 7714TIP3   OH223105   6.013   3.877   2.183  0.1670  0.1157 -0.1140
 7714TIP3    H123106   6.003   3.839   2.096  0.2548  0.6002 -0.3448
 7714TIP3    H223107   6.086   3.829   2.223 -0.0130 -0.2484 -0.2300
 7715TIP3   OH223108   0.380   1.356   4.350  0.1048 -0.1738 -0.5919
 7715TIP3    H123109   0.462   1.310   4.366 -0.1937 -1.1329 -1.7109
 7715TIP3    H223110   0.314   1.287   4.342 -0.6885  0.5440 -0.4691
 7716TIP3   OH223111   2.995   1.790   2.344 -0.2713 -0.3780  0.1090
 7716TIP3    H123112   3.077   1.777   2.392  0.6744 -1.2364 -1.6373
 7716TIP3    H223113   2.988   1.885   2.334  0.2790 -0.2752  0.6599
 7717TIP3   OH223114   3.590   2.897   3.093  0.4703 -0.4013 -0.0983
 7717TIP3    H123115   3.597   2.803   3.114 -0.5869 -0.6555 -0.8374
 7717TIP3    H223116   3.518   2.928   3.148  0.7675 -0.0295  0.0857
 7718TIP3   OH223117   6.505   5.353   0.045  0.0281 -0.2009  0.3309
 7718TIP3    H123118   6.535   5.268   0.013 -3.4667 -0.2700 -3.6989
 7718TIP3    H223119   6.566   5.416   0.006  0.3954 -0.6892  0.1032
 7719TIP3   OH223120   5.278   5.005   1.594 -0.6317 -0.3898  0.1801
 7719TIP3    H123121   5.277   4.982   1.501 -1.5595  0.4609 -0.0379
 7719TIP3    H223122   5.315   4.928   1.638  0.1342 -0.6661 -0.9183
 7720TIP3   OH223123   3.709   3.525   3.769 -0.1485  0.1886  0.8276
 7720TIP3    H123124   3.745   3.437   3.759 -1.2470 -0.2196  0.3485
 7720TIP3    H223125   3.785   3.580   3.785  0.5459 -0.8559  1.1829
 7721TIP3   OH223126   5.942   2.830   3.960 -0.0576 -0.0204  0.4584
 7721TIP3    H123127   5.908   2.741   3.956  0.6194 -0.2836  0.4249
 7721TIP3    H223128   6.032   2.820   3.991  0.5352  0.5259 -1.0127
 7722TIP3   OH223129   2.122   4.145   4.008  0.3161 -0.3210 -0.5194
 7722TIP3    H123130   2.043   4.183   3.971  0.3823 -0.0293 -0.3646
 7722TIP3    H223131   2.122   4.173   4.099  0.3888 -0.6561 -0.4157
 7723TIP3   OH223132   1.924   4.450   0.694  0.7126 -0.2604 -0.0953
 7723TIP3    H123133   1.934   4.521   0.758  1.2767  1.4551 -1.9623
 7723TIP3    H223134   1.833   4.423   0.703  0.5323  0.5513  0.8128
 7724TIP3   OH223135   4.523   4.004   3.618 -0.1936 -0.0843 -0.2228
 7724TIP3    H123136   4.612   3.973   3.632 -0.5551 -1.4002 -0.7537
 7724TIP3    H223137   4.481   3.997   3.704  0.2358  0.6291  0.0476
 7725TIP3   OH223138   0.626   5.202   0.896 -0.3438  0.0878  0.1671
 7725TIP3    H123139   0.656   5.215   0.986  0.8930 -0.8879 -0.0708
 7725TIP3    H223140   0.625   5.107   0.885 -0.1881  0.1980 -0.9302
 7726TIP3   OH223141   2.814   5.020   1.612 -0.6230  0.3704 -0.3766
 7726TIP3    H123142   2.800   4.936   1.569  0.5009  0.9237 -1.9207
 7726TIP3    H223143   2.752   5.079   1.570 -1.5644  0.3011  0.8574
 7727TIP3   OH223144   5.638   0.417   2.574  0.0813  0.5707  0.0888
 7727TIP3    H123145   5.728   0.437   2.548 -0.3573  1.0767 -1.1275
 7727TIP3    H223146   5.605   0.361   2.504 -1.0146  1.6153 -0.2703
 7728TIP3   OH223147   1.253   5.828   1.647 -0.4215 -0.2704 -0.0977
 7728TIP3    H123148   1.306   5.751   1.669 -1.2280 -1.1678 -1.1644
 7728TIP3    H223149   1.306   5.877   1.585  0.6193  0.7314  1.5019
 7729TIP3   OH223150   6.248   2.798   4.664  0.4557  0.5094  0.3274
 7729TIP3    H123151   6.171   2.750   4.694  0.9625 -0.4777  0.0742
 7729TIP3    H223152   6.214   2.885   4.640 -0.0613  1.2524  3.3085
 7730TIP3   OH223153   0.687   6.232   3.860 -0.5330 -0.3972 -0.3876
 7730TIP3    H123154   0.780   6.243   3.843 -0.4289 -1.4947 -0.5976
 7730TIP3    H223155   0.661   6.312   3.906 -0.1119  1.1820 -2.7760
 7731TIP3   OH223156   6.795   5.240   5.538  0.3947 -0.1461 -0.3181
 7731TIP3    H123157   6.833   5.246   5.626 -0.0214  3.4855 -0.2481
 7731TIP3    H223158   6.861   5.279   5.480 -0.2765 -0.4173 -1.2907
 7732TIP3   OH223159   1.056   4.742   5.305  0.0963  0.0223  0.6332
 7732TIP3    H123160   1.147   4.766   5.288  0.1772 -0.8885 -0.3609
 7732TIP3    H223161   1.015   4.823   5.335  0.3263  1.5364 -2.6703
 7733TIP3   OH223162   4.108   5.859   3.985 -0.0312  1.0318 -0.2325
 7733TIP3    H123163   4.102   5.847   3.890  2.0164 -0.0992 -0.2751
 7733TIP3    H223164   4.157   5.939   3.997 -1.5374  1.9754 -0.0629
 7734TIP3   OH223165   4.670   5.360   1.569 -0.0557 -0.5542  0.5316
 7734TIP3    H123166   4.755   5.343   1.610 -0.9491 -1.9034  1.9238
 7734TIP3    H223167   4.675   5.317   1.484  0.7354 -0.3813  0.4831
 7735TIP3   OH223168   2.511   1.973   5.568 -1.0801 -0.7390 -0.8046
 7735TIP3    H123169   2.437   2.032   5.554 -1.2070 -0.4714  0.8591
 7735TIP3    H223170   2.471   1.886   5.574 -1.4556 -0.4884  1.1838
 7736TIP3   OH223171   0.925   1.213   4.533  0.1823 -0.0188 -0.2697
 7736TIP3    H123172   0.896   1.201   4.623 -0.5891  2.0228 -0.1918
 7736TIP3    H223173   0.846   1.237   4.485  0.5760 -1.0663 -1.5103
 7737TIP3   OH223174   5.391   0.990   1.767  0.6657  0.2439 -0.0208
 7737TIP3    H123175   5.461   0.975   1.703  1.4221 -0.1115  0.8699
 7737TIP3    H223176   5.337   1.058   1.727  1.2895  0.2469 -0.9051
 7738TIP3   OH223177   1.418   4.548   5.230  0.1912 -0.1848  0.4728
 7738TIP3    H123178   1.325   4.528   5.236  0.4286 -1.7361 -0.4162
 7738TIP3    H223179   1.462   4.469   5.264  1.1793 -0.5058 -1.3920
 7739TIP3   OH223180   4.219   5.297   4.727  0.3456  0.1815 -0.0231
 7739TIP3    H123181   4.213   5.384   4.688  1.5372  1.6945  2.8565
 7739TIP3    H223182   4.160   5.301   4.803  0.5105 -1.4975  0.2291
 7740TIP3   OH223183   0.944   5.131   0.096  0.3124 -0.4777  0.2658
 7740TIP3    H123184   0.874   5.166   0.150  0.1873 -1.2021  0.5918
 7740TIP3    H223185   0.991   5.071   0.154  1.1385 -0.0831  0.0205
 7741TIP3   OH223186   4.737   6.293   3.819  0.6077  0.5865  0.2965
 7741TIP3    H123187   4.717   6.376   3.776 -0.8899  0.8035  1.3522
 7741TIP3    H223188   4.790   6.318   3.894  1.9735  0.3486 -0.5544
 7742TIP3   OH223189   7.140   6.477   2.714 -1.1299 -0.5739  0.6758
 7742TIP3    H123190   7.111   6.457   2.625 -1.0775 -0.3852  0.6159
 7742TIP3    H223191   7.236   6.471   2.710 -0.7273  3.3958 -0.3205
 7743TIP3   OH223192   3.199   1.375   1.774  0.0156  0.1703 -0.1973
 7743TIP3    H123193   3.171   1.465   1.792  0.5426  0.3242 -0.1166
 7743TIP3    H223194   3.125   1.335   1.729  0.0455  0.8619 -0.8740
 7744TIP3   OH223195   1.863   1.205   1.686  0.1629  0.3331 -0.5109
 7744TIP3    H123196   1.910   1.289   1.690  1.0423 -0.2050  1.5016
 7744TIP3    H223197   1.887   1.168   1.601  0.8518  1.4988 -0.8453
 7745TIP3   OH223198   5.390   0.964   1.051  0.4662  0.3194  0.1315
 7745TIP3    H123199   5.336   1.040   1.074 -0.1903 -0.1444  0.1211
 7745TIP3    H223200   5.475   1.002   1.027 -0.3062  1.1854 -1.3869
 7746TIP3   OH223201   5.352   4.192   4.522 -0.0990 -0.0593  0.2631
 7746TIP3    H123202   5.296   4.185   4.445 -0.7210 -0.9780  0.7893
 7746TIP3    H223203   5.361   4.102   4.554  1.4318  0.1029  0.3627
 7747TIP3   OH223204   7.014   3.303   0.789 -0.3985  0.2038  0.5980
 7747TIP3    H123205   7.097   3.307   0.742  0.3430  1.0795  1.9059
 7747TIP3    H223206   6.952   3.267   0.726  0.2066  2.6557 -1.5493
 7748TIP3   OH223207   2.559   4.894   1.017  0.3016  0.5223 -0.0970
 7748TIP3    H123208   2.649   4.886   0.988  0.2383  0.1971 -0.2128
 7748TIP3    H223209   2.511   4.830   0.964  0.1022  0.2797  0.3711
 7749TIP3   OH223210   5.779   3.827   0.759 -0.1858 -0.2295  0.1729
 7749TIP3    H123211   5.839   3.891   0.722  0.8632 -1.3390 -0.1434
 7749TIP3    H223212   5.692   3.863   0.745  0.3501  0.8100 -0.5595
 7750TIP3   OH223213   1.713   5.401   0.919 -0.0845  0.1224  0.5386
 7750TIP3    H123214   1.746   5.474   0.970  0.3557 -0.3588  0.9615
 7750TIP3    H223215   1.735   5.323   0.971 -2.5436 -0.1968  1.2255
 7751TIP3   OH223216   6.656   4.216   0.504 -0.5033 -0.1267 -0.3918
 7751TIP3    H123217   6.681   4.213   0.412 -1.3922  0.0775 -0.6535
 7751TIP3    H223218   6.596   4.142   0.515 -0.2237 -0.2875  0.0795
 7752TIP3   OH223219   4.303   4.552   1.263 -0.0256 -0.1753  0.0565
 7752TIP3    H123220   4.259   4.476   1.301 -0.9143  0.4230  0.2489
 7752TIP3    H223221   4.285   4.546   1.169  1.5809 -1.2696 -0.2158
 7753TIP3   OH223222   0.337   3.284   0.781 -0.1373  0.0901  0.5973
 7753TIP3    H123223   0.294   3.211   0.825  1.1045 -0.6952  0.5646
 7753TIP3    H223224   0.411   3.305   0.838  0.8047 -0.1562 -0.4983
 7754TIP3   OH223225   3.835   4.127   5.594 -0.3103 -0.2269 -0.2271
 7754TIP3    H123226   3.865   4.038   5.576 -0.3843  0.1545 -2.4439
 7754TIP3    H223227   3.740   4.122   5.589 -0.3161 -0.0318 -0.3262
 7755TIP3   OH223228   2.540   5.955   4.161 -0.3267 -0.4653 -0.0251
 7755TIP3    H123229   2.461   5.901   4.157 -1.1509  0.7329 -3.5045
 7755TIP3    H223230   2.608   5.901   4.120  0.2205 -0.7609  1.2225
 7756TIP3   OH223231   6.421   1.499   2.604  0.2951  0.4485  0.3599
 7756TIP3    H123232   6.477   1.473   2.677  0.8284  0.8761  0.1089
 7756TIP3    H223233   6.337   1.458   2.622  0.8574 -0.6997  0.4378
 7757TIP3   OH223234   1.787   1.731   5.743  0.4265  0.0377 -0.5135
 7757TIP3    H123235   1.809   1.726   5.650 -0.4785 -2.3838 -0.6857
 7757TIP3    H223236   1.825   1.650   5.780 -2.2301 -0.8487  0.4713
 7758TIP3   OH223237   7.079   6.720   3.917 -0.4477 -0.5550 -0.6355
 7758TIP3    H123238   7.018   6.760   3.856 -1.3975  1.5566  1.5061
 7758TIP3    H223239   7.150   6.784   3.924  1.3940 -2.3422 -2.0294
 7759TIP3   OH223240   0.700   3.194   5.305  0.2061 -0.1071 -0.1805
 7759TIP3    H123241   0.734   3.135   5.238 -1.9690 -0.3506 -1.1672
 7759TIP3    H223242   0.775   3.212   5.362  1.4720 -2.0343 -1.1290
 7760TIP3   OH223243   1.852   4.939   0.116  0.1953  0.5949  0.1307
 7760TIP3    H123244   1.790   4.919   0.186  0.8457  0.9368  0.8134
 7760TIP3    H223245   1.887   5.026   0.139  1.0197  0.3509 -0.1680
 7761TIP3   OH223246   5.088   3.541   1.098 -0.7277  0.2114  0.3858
 7761TIP3    H123247   5.020   3.477   1.121 -0.4055  0.2256  1.4523
 7761TIP3    H223248   5.135   3.556   1.180  0.1792  0.6652 -0.2023
 7762TIP3   OH223249   7.010   4.059   0.878  0.5210 -0.0109  0.2380
 7762TIP3    H123250   6.977   3.982   0.833  0.8428 -1.4935  2.4061
 7762TIP3    H223251   6.959   4.064   0.959  0.6378  1.9590  0.2411
 7763TIP3   OH223252   5.912   0.452   2.581 -0.1454  0.0267 -0.1998
 7763TIP3    H123253   5.915   0.360   2.609 -1.8815 -0.0809 -0.2075
 7763TIP3    H223254   6.001   0.483   2.591 -0.0449 -0.8764  2.5711
 7764TIP3   OH223255   2.897   3.243   1.849  0.9414 -0.1368 -0.1563
 7764TIP3    H123256   2.903   3.151   1.875  2.0901 -0.5233 -1.7018
 7764TIP3    H223257   2.987   3.269   1.829  0.5774  1.2095 -0.1728
 7765TIP3   OH223258   5.726   3.816   4.645  0.0485  0.5250 -0.0959
 7765TIP3    H123259   5.796   3.772   4.596 -0.9613  0.1633 -1.2395
 7765TIP3    H223260   5.695   3.884   4.587  0.3716  1.6151  0.9693
 7766TIP3   OH223261   4.960   0.799   1.821 -0.2376  0.1659 -0.6596
 7766TIP3    H123262   4.981   0.891   1.831  0.8162  0.0479 -1.5809
 7766TIP3    H223263   4.865   0.797   1.810 -0.2399  1.1656 -0.8818
 7767TIP3   OH223264   4.680   1.648   0.161 -0.4940  0.0045 -0.3840
 7767TIP3    H123265   4.697   1.639   0.255  3.7353 -0.0030 -0.9370
 7767TIP3    H223266   4.674   1.742   0.147 -0.8399  0.0169 -0.1784
 7768TIP3   OH223267   4.854   1.300   2.356 -0.3739 -0.0529 -0.1666
 7768TIP3    H123268   4.948   1.310   2.341 -0.0344  0.9251  2.1165
 7768TIP3    H223269   4.814   1.365   2.298  0.4787  0.5556 -0.0992
 7769TIP3   OH223270   4.799   4.745   2.135 -0.6202 -0.8566  0.3179
 7769TIP3    H123271   4.757   4.761   2.051  0.8775 -0.7841 -0.4621
 7769TIP3    H223272   4.893   4.743   2.114 -0.1431  0.1409  2.1326
 7770TIP3   OH223273   2.778   6.272   4.783 -0.1927  0.6307  0.2340
 7770TIP3    H123274   2.798   6.341   4.719 -0.8206  0.1780 -0.4643
 7770TIP3    H223275   2.862   6.255   4.826  0.7125 -0.3397 -1.7598
 7771TIP3   OH223276   4.944   3.047   0.951  0.0418  0.4402  0.1096
 7771TIP3    H123277   4.886   3.114   0.915  0.3248  1.1757  0.9699
 7771TIP3    H223278   5.006   3.096   1.005  0.7003 -0.4541  0.1860
 7772TIP3   OH223279   5.027   6.704   1.597 -0.1693 -0.5940  0.8049
 7772TIP3    H123280   5.018   6.785   1.547 -2.3333 -0.8818  0.6192
 7772TIP3    H223281   4.965   6.714   1.670  0.6954 -1.4459  1.6941
 7773TIP3   OH223282   4.642   3.510   4.768 -0.0628  0.0618 -0.5648
 7773TIP3    H123283   4.559   3.539   4.730  0.0539  0.7301 -0.3213
 7773TIP3    H223284   4.624   3.422   4.800 -0.5285 -0.0043 -0.9906
 7774TIP3   OH223285   0.243   6.749   3.494 -0.4404 -0.1015 -0.2766
 7774TIP3    H123286   0.249   6.656   3.515  0.5346 -0.2417 -1.0934
 7774TIP3    H223287   0.149   6.766   3.486 -0.6422 -0.9525  0.1229
 7775TIP3   OH223288   7.005   5.708   5.425 -0.1139 -0.1616  0.5378
 7775TIP3    H123289   7.068   5.691   5.495  1.2316 -0.6292 -0.7130
 7775TIP3    H223290   6.948   5.776   5.459 -0.3859 -1.3521  2.5826
 7776TIP3   OH223291   2.754   2.191   1.747 -0.1226  0.6905  0.4235
 7776TIP3    H123292   2.671   2.203   1.792  0.1806  1.7778  0.7357
 7776TIP3    H223293   2.734   2.134   1.673 -1.2305  1.2708  0.2626
 7777TIP3   OH223294   5.812   2.837   5.057  0.1508  0.5895  0.3525
 7777TIP3    H123295   5.804   2.804   4.968 -0.5401  1.8574 -0.0803
 7777TIP3    H223296   5.874   2.909   5.051  1.0122 -0.0624  1.1280
 7778TIP3   OH223297   4.590   1.631   5.716 -0.5966 -0.0336  0.0973
 7778TIP3    H123298   4.630   1.573   5.781  1.4643  0.2898 -0.7775
 7778TIP3    H223299   4.535   1.574   5.663 -0.3969 -0.7602  0.6568
 7779TIP3   OH223300   1.290   5.655   4.672  0.0744  0.4341  0.2902
 7779TIP3    H123301   1.251   5.575   4.708  2.0979 -0.6330  0.2717
 7779TIP3    H223302   1.317   5.706   4.748  1.1489 -0.1568  0.3195
 7780TIP3   OH223303   6.462   1.865   3.071 -0.0725 -0.3524  0.1706
 7780TIP3    H123304   6.533   1.815   3.110 -0.6144  0.0333  1.7318
 7780TIP3    H223305   6.505   1.943   3.035  0.2787  0.0538  1.4162
 7781TIP3   OH223306   2.900   2.357   5.174 -0.5303 -0.3387 -0.0523
 7781TIP3    H123307   2.972   2.394   5.226 -1.6229  0.5348  0.8937
 7781TIP3    H223308   2.896   2.412   5.096 -0.8350  0.2782  0.3894
 7782TIP3   OH223309   3.925   6.617   1.506  0.4618 -0.0032 -0.3482
 7782TIP3    H123310   3.987   6.600   1.576  0.5311 -0.0710 -0.4269
 7782TIP3    H223311   3.957   6.697   1.465 -0.8695  1.4104  1.1881
 7783TIP3   OH223312   7.164   6.188   1.389  0.3391 -0.3141  0.3788
 7783TIP3    H123313   7.220   6.116   1.359  2.2271  0.4599  1.8158
 7783TIP3    H223314   7.206   6.267   1.355  0.6069  0.3394  2.0952
 7784TIP3   OH223315   7.067   6.374   2.981 -0.1393  0.0380  1.0174
 7784TIP3    H123316   7.107   6.387   2.895  0.2942  2.8797  1.5402
 7784TIP3    H223317   7.133   6.329   3.033 -0.2006 -1.2136  0.0479
 7785TIP3   OH223318   2.844   5.345   4.488  0.0689  0.4358 -0.2636
 7785TIP3    H123319   2.771   5.284   4.498 -0.1552  0.5382 -1.2684
 7785TIP3    H223320   2.859   5.378   4.577 -1.6074  1.0084 -0.1629
 7786TIP3   OH223321   2.218   1.360   5.095 -0.1684 -0.1061 -0.5322
 7786TIP3    H123322   2.162   1.306   5.150  1.4952 -3.0119 -1.4951
 7786TIP3    H223323   2.252   1.300   5.028  1.9233  2.1000 -1.6175
 7787TIP3   OH223324   1.576   5.196   2.340 -0.4252 -0.1169  0.3294
 7787TIP3    H123325   1.507   5.252   2.375 -0.0600  0.8470 -0.4594
 7787TIP3    H223326   1.555   5.187   2.247  1.3949  1.6024 -0.3249
 7788TIP3   OH223327   1.070   3.431   4.105  0.1231 -0.0077 -0.0890
 7788TIP3    H123328   1.165   3.427   4.098  0.0143 -1.0745 -1.4563
 7788TIP3    H223329   1.042   3.339   4.101 -1.1163  0.3913 -3.3067
 7789TIP3   OH223330   1.903   6.037   5.708  0.2106 -0.2172  0.4715
 7789TIP3    H123331   1.972   6.002   5.764  0.7610  0.5454  0.2798
 7789TIP3    H223332   1.913   5.991   5.625  0.6037  0.0236  0.3861
 7790TIP3   OH223333   4.725   6.094   3.101  0.1194 -0.0850 -0.1617
 7790TIP3    H123334   4.693   6.081   3.190 -0.5705 -0.7475 -0.4950
 7790TIP3    H223335   4.796   6.158   3.110 -0.2813  0.2430  0.7907
 7791TIP3   OH223336   2.054   0.320   2.313  0.0570 -0.1568 -0.2371
 7791TIP3    H123337   2.014   0.399   2.277 -1.6371 -1.0052 -0.3093
 7791TIP3    H223338   2.134   0.309   2.262  0.7052  1.8689  0.2358
 7792TIP3   OH223339   2.444   6.737   4.521  0.2604  0.1009 -0.4178
 7792TIP3    H123340   2.357   6.765   4.550 -0.1964  0.0403 -1.6677
 7792TIP3    H223341   2.428   6.658   4.469  0.8577  0.9585 -1.9794
 7793TIP3   OH223342   3.489   5.657   4.892  0.7006 -0.2410  0.1391
 7793TIP3    H123343   3.416   5.712   4.922  0.9826 -0.5398  1.4585
 7793TIP3    H223344   3.451   5.569   4.888  0.4547 -0.0954 -1.2202
 7794TIP3   OH223345   2.585   2.549   5.140 -0.0546 -0.4091  0.5661
 7794TIP3    H123346   2.628   2.615   5.086 -0.7039 -0.7549 -0.3899
 7794TIP3    H223347   2.504   2.591   5.169 -0.6040 -0.8592 -0.2707
 7795TIP3   OH223348   4.189   5.487   2.756  0.5044 -0.1631 -0.0964
 7795TIP3    H123349   4.165   5.572   2.718 -1.1234 -0.1045  0.9558
 7795TIP3    H223350   4.208   5.507   2.848  0.9865 -0.8144 -0.0521
 7796TIP3   OH223351   6.052   3.747   2.623 -0.6527  0.4614 -0.4877
 7796TIP3    H123352   5.983   3.781   2.680 -0.3809  0.6894 -0.2929
 7796TIP3    H223353   6.109   3.822   2.606  1.1029 -0.2899  1.5769
 7797TIP3   OH223354   7.016   3.727   5.533 -0.1742  0.7107 -0.6453
 7797TIP3    H123355   7.033   3.649   5.480  1.6466 -1.0126  2.1492
 7797TIP3    H223356   7.100   3.745   5.576 -1.8734  0.5902  3.1747
 7798TIP3   OH223357   0.933   0.014   2.301 -0.0060 -0.1937 -0.0321
 7798TIP3    H123358   0.865   0.015   2.234 -0.6592 -3.2779  0.4422
 7798TIP3    H223359   0.890   0.050   2.379  0.3187  2.0262 -0.8179
 7799TIP3   OH223360   4.520   1.707   1.926  0.1420 -0.2065  0.1369
 7799TIP3    H123361   4.540   1.730   1.835  0.9488  0.2650  0.4180
 7799TIP3    H223362   4.544   1.615   1.934  0.5172 -0.1202 -0.0014
 7800TIP3   OH223363   0.270   6.560   2.231  0.6593 -0.2746  0.2351
 7800TIP3    H123364   0.189   6.600   2.200  1.0013 -0.7430 -1.3313
 7800TIP3    H223365   0.279   6.591   2.322  0.7374  2.9000 -0.7482
 7801TIP3   OH223366   0.474   3.354   2.335  0.4040  0.2739 -0.1355
 7801TIP3    H123367   0.458   3.448   2.335 -3.1791 -0.2085  1.1533
 7801TIP3    H223368   0.446   3.324   2.422  1.6960 -1.9920 -0.4079
 7802TIP3   OH223369   3.788   3.464   2.056 -0.0922  0.2733 -0.8396
 7802TIP3    H123370   3.864   3.408   2.047 -0.8795 -0.5955 -2.6617
 7802TIP3    H223371   3.732   3.419   2.120  0.9674  1.0414  0.6933
 7803TIP3   OH223372   5.501   4.487   1.462  0.2351  0.1280 -0.2200
 7803TIP3    H123373   5.474   4.428   1.392 -0.9393  1.3748 -0.8454
 7803TIP3    H223374   5.540   4.562   1.417  0.3659  0.4951  0.4937
 7804TIP3   OH223375   4.554   3.264   0.226  0.3877  0.1080 -0.7494
 7804TIP3    H123376   4.614   3.277   0.152  0.8412  0.2391 -0.3663
 7804TIP3    H223377   4.545   3.169   0.234 -0.4003  0.0938 -1.5466
 7805TIP3   OH223378   2.655   2.441   3.414 -0.0511 -0.6499  0.2004
 7805TIP3    H123379   2.702   2.395   3.485 -1.2219 -2.5150 -0.1687
 7805TIP3    H223380   2.595   2.499   3.460  1.8220  1.0412  0.6812
 7806TIP3   OH223381   0.472   4.984   3.034 -0.1016  0.4945  0.0945
 7806TIP3    H123382   0.380   4.963   3.047 -0.2019  1.4342  1.0082
 7806TIP3    H223383   0.519   4.906   3.063 -0.5423  0.7705  1.6315
 7807TIP3   OH223384   6.466   0.570   5.245 -0.1364  0.0519 -0.1676
 7807TIP3    H123385   6.545   0.541   5.290 -0.1160  0.3856  0.0145
 7807TIP3    H223386   6.489   0.655   5.207 -0.6735  0.5756  0.6397
 7808TIP3   OH223387   5.257   4.115   0.109 -0.0597 -0.1192 -0.0871
 7808TIP3    H123388   5.349   4.098   0.090 -0.1120 -0.5306 -0.0008
 7808TIP3    H223389   5.216   4.126   0.024 -0.1595 -1.2139 -0.1973
 7809TIP3   OH223390   1.913   4.396   4.542  0.1344 -0.4798 -0.1611
 7809TIP3    H123391   1.826   4.420   4.574  1.7611  2.2991  2.8106
 7809TIP3    H223392   1.962   4.375   4.621  2.2080 -2.0315 -1.7669
 7810TIP3   OH223393   7.188   4.834   4.318 -0.6798  0.2726 -0.2726
 7810TIP3    H123394   7.226   4.922   4.312 -1.2265  0.4324 -2.1701
 7810TIP3    H223395   7.211   4.792   4.235  0.0800 -1.6224  0.8450
 7811TIP3   OH223396   5.265   0.035   1.175 -0.4841  0.0291 -0.6580
 7811TIP3    H123397   5.212  -0.045   1.178  0.2038 -0.4055  0.6932
 7811TIP3    H223398   5.254   0.068   1.086  0.9897 -2.8109 -2.0485
 7812TIP3   OH223399   4.719   4.112   4.187 -0.3241  0.7585  0.1710
 7812TIP3    H123400   4.798   4.165   4.182  0.2028  0.0335  0.6504
 7812TIP3    H223401   4.746   4.032   4.233 -0.5518 -0.9643 -2.4607
 7813TIP3   OH223402   4.020   2.554   3.281  0.7101  0.1501 -0.6031
 7813TIP3    H123403   4.094   2.494   3.286  1.6210  0.8964 -3.3762
 7813TIP3    H223404   3.971   2.527   3.203 -0.8404  0.8930  0.0557
 7814TIP3   OH223405   1.089   5.813   2.714  0.0054  0.0011  0.3413
 7814TIP3    H123406   1.000   5.790   2.690  0.3288 -0.1924 -0.6941
 7814TIP3    H223407   1.128   5.731   2.744 -0.2370  0.1392  1.0564
 7815TIP3   OH223408   2.028   5.306   5.365  0.5446 -0.1270  0.3454
 7815TIP3    H123409   1.956   5.348   5.318  1.3419  1.1327  0.1707
 7815TIP3    H223410   2.105   5.359   5.341  1.6542 -1.8558 -0.0439
 7816TIP3   OH223411   0.769   4.711   5.841  0.1087 -0.6517 -0.0753
 7816TIP3    H123412   0.856   4.681   5.814 -0.2052 -0.8978 -0.8394
 7816TIP3    H223413   0.786   4.780   5.905  0.8637 -0.6482 -0.2740
 7817TIP3   OH223414   5.130   1.810   3.746  0.1339 -0.3987  0.0733
 7817TIP3    H123415   5.201   1.871   3.729 -1.3157  1.4650  0.3361
 7817TIP3    H223416   5.081   1.805   3.664 -0.2192 -0.5730  0.2898
 7818TIP3   OH223417   4.710   4.361   2.725  0.5292  0.1984 -0.1105
 7818TIP3    H123418   4.656   4.285   2.704  0.6414  0.3076 -0.8251
 7818TIP3    H223419   4.648   4.433   2.733  0.6202  0.4775 -1.6906
 7819TIP3   OH223420   3.627   4.821   3.114 -0.1290 -0.2161  0.3799
 7819TIP3    H123421   3.616   4.731   3.147  1.8493 -1.2060 -1.3732
 7819TIP3    H223422   3.601   4.877   3.187 -1.0874 -2.2174  1.6584
 7820TIP3   OH223423   3.359   6.194   4.165  0.2894  0.2182 -0.5399
 7820TIP3    H123424   3.417   6.145   4.224 -0.6384 -1.2264 -0.7879
 7820TIP3    H223425   3.416   6.219   4.092  0.8192 -0.3551 -0.3361
 7821TIP3   OH223426   4.124   3.475   1.504  0.0570  0.3027  0.1252
 7821TIP3    H123427   4.050   3.516   1.549 -0.0804  0.5396 -0.3091
 7821TIP3    H223428   4.127   3.386   1.539 -1.9382 -0.5254 -1.5372
 7822TIP3   OH223429   3.721   5.649   4.760  0.1114 -0.3486  0.6700
 7822TIP3    H123430   3.646   5.628   4.816 -0.7471  0.9721  0.0682
 7822TIP3    H223431   3.726   5.745   4.761  2.3541 -0.4032  1.3850
 7823TIP3   OH223432   1.284   6.019   2.624 -0.0612  0.0875  0.1722
 7823TIP3    H123433   1.233   5.938   2.633 -0.1498  0.2401  1.1792
 7823TIP3    H223434   1.218   6.087   2.614  0.0171  0.0339 -0.8266
 7824TIP3   OH223435   3.677   4.049   2.035  0.1781 -0.6889  0.3349
 7824TIP3    H123436   3.675   3.959   2.004  2.1168 -0.5886 -0.2303
 7824TIP3    H223437   3.726   4.045   2.117  1.7310  0.0163 -0.5114
 7825TIP3   OH223438   2.167   2.160   0.674 -0.2479  0.1781 -0.2817
 7825TIP3    H123439   2.234   2.138   0.610 -0.8280 -3.2711  0.0659
 7825TIP3    H223440   2.085   2.132   0.633 -0.9855  0.6599  0.8110
 7826TIP3   OH223441   4.838   3.183   5.339 -0.5745  0.1317 -0.4992
 7826TIP3    H123442   4.853   3.270   5.302 -0.8267 -0.0558 -1.0603
 7826TIP3    H223443   4.841   3.124   5.263  2.3260 -0.7219  0.1705
 7827TIP3   OH223444   0.298   4.647   5.599 -0.6559 -0.3154  0.1270
 7827TIP3    H123445   0.273   4.571   5.651  2.5178 -0.0794  2.2652
 7827TIP3    H223446   0.216   4.695   5.586 -2.0708 -1.8896  2.4802
 7828TIP3   OH223447   3.766   1.169   1.437 -0.1872 -0.4416 -0.0755
 7828TIP3    H123448   3.712   1.169   1.358  1.2623 -0.3090 -1.0945
 7828TIP3    H223449   3.708   1.134   1.505 -1.9021  0.6766 -0.8676
 7829TIP3   OH223450   3.973   6.001   3.161 -0.1659  0.1090 -0.3945
 7829TIP3    H123451   3.879   6.021   3.165 -0.1772  0.0853 -0.5237
 7829TIP3    H223452   4.017   6.082   3.184 -0.2346 -0.2697  1.1887
 7830TIP3   OH223453   3.006   4.083   4.708 -0.1400 -0.5178  0.1013
 7830TIP3    H123454   2.958   4.078   4.625 -0.4886  0.5201  0.2228
 7830TIP3    H223455   3.077   4.144   4.691 -0.0805 -0.4692  0.5092
 7831TIP3   OH223456   0.873   3.186   4.448  0.0786  0.2910 -0.1050
 7831TIP3    H123457   0.958   3.153   4.480 -0.3379  1.4052  2.3239
 7831TIP3    H223458   0.894   3.271   4.409  0.1594  0.2863 -0.0737
 7832TIP3   OH223459   5.251   0.134   0.922  0.4003  0.4403 -0.3123
 7832TIP3    H123460   5.181   0.198   0.929 -0.4193 -0.4601 -0.0840
 7832TIP3    H223461   5.246   0.102   0.832  2.1619  2.1648 -1.1030
 7833TIP3   OH223462   4.599   5.845   1.990  0.0291  0.1269 -0.0056
 7833TIP3    H123463   4.670   5.894   1.947 -0.1947  1.1770  0.7789
 7833TIP3    H223464   4.604   5.872   2.082 -0.8600 -0.4348  0.2169
 7834TIP3   OH223465   1.959   5.590   1.536 -0.3260  0.1628 -0.0530
 7834TIP3    H123466   1.948   5.520   1.602  1.7931 -0.8960 -0.7526
 7834TIP3    H223467   1.918   5.667   1.576 -1.2832 -1.0651  1.4413
 7835TIP3   OH223468   1.864   1.267   2.393  0.0257  0.1309  0.5710
 7835TIP3    H123469   1.876   1.360   2.371  1.8602  0.0200  0.9245
 7835TIP3    H223470   1.819   1.230   2.318  2.0573  0.6865 -1.0048
 7836TIP3   OH223471   4.773   0.029   5.027 -0.4258 -0.5308 -0.2046
 7836TIP3    H123472   4.860   0.068   5.030 -0.7768  0.2578  0.1394
 7836TIP3    H223473   4.788  -0.065   5.012  0.6345 -0.9806  3.0433
 7837TIP3   OH223474   5.288   4.064   0.730  0.2675 -0.2256  0.1911
 7837TIP3    H123475   5.340   4.137   0.765  0.3700  0.1539 -0.7242
 7837TIP3    H223476   5.199   4.098   0.726  0.5359  0.3625 -1.5449
 7838TIP3   OH223477   0.379   2.036   1.501 -0.3670  0.1872  0.0381
 7838TIP3    H123478   0.424   1.958   1.534 -1.0479  0.1576  0.9170
 7838TIP3    H223479   0.290   2.030   1.536 -0.0543  2.0627  1.3098
 7839TIP3   OH223480   3.210   1.187   5.182  0.4842  0.1444 -0.2982
 7839TIP3    H123481   3.145   1.253   5.156  0.3343  0.5923  1.1229
 7839TIP3    H223482   3.185   1.163   5.271  2.7043  0.9173  0.6055
 7840TIP3   OH223483   0.328   5.809   1.693  0.2445  0.1003 -0.3712
 7840TIP3    H123484   0.399   5.793   1.756 -1.1558 -2.4964  0.6652
 7840TIP3    H223485   0.325   5.730   1.640 -1.0175  0.7502 -1.3084
 7841TIP3   OH223486   5.190   6.719   2.009  0.2982 -0.1213  0.7305
 7841TIP3    H123487   5.102   6.683   2.003  0.2367  0.1908 -0.7540
 7841TIP3    H223488   5.230   6.674   2.083 -0.6767 -1.1982  0.6249
 7842TIP3   OH223489   0.248   1.059   2.028  0.0071 -0.2571  0.4330
 7842TIP3    H123490   0.186   1.062   1.955  0.4586  2.4830  0.0713
 7842TIP3    H223491   0.196   1.025   2.102 -1.7161  1.1791 -0.0510
 7843TIP3   OH223492   6.491   6.458   1.526 -0.3139 -0.2113 -0.4054
 7843TIP3    H123493   6.464   6.372   1.558  1.7748 -0.8468 -0.2078
 7843TIP3    H223494   6.586   6.460   1.537 -0.4354  2.8480  1.3567
 7844TIP3   OH223495   5.332   3.589   4.402  0.2287 -0.0205  0.3189
 7844TIP3    H123496   5.367   3.647   4.334  0.3201  1.3417  1.4946
 7844TIP3    H223497   5.376   3.616   4.482 -1.7078  0.1002  1.4015
 7845TIP3   OH223498   0.541   5.960   1.387 -0.1169  0.6193 -0.0791
 7845TIP3    H123499   0.612   6.024   1.396  1.4385 -0.7669 -1.8085
 7845TIP3    H223500   0.486   5.995   1.317 -1.1505  1.6160  1.1602
 7846TIP3   OH223501   5.624   5.404   2.717 -0.4538 -0.5922  0.0469
 7846TIP3    H123502   5.541   5.362   2.696 -0.6915 -0.1018 -0.0057
 7846TIP3    H223503   5.609   5.497   2.700  0.1699 -0.5244 -0.1646
 7847TIP3   OH223504   2.465   5.269   5.063  0.3624 -0.2835 -0.2396
 7847TIP3    H123505   2.434   5.178   5.063  0.4188 -0.3296 -1.5824
 7847TIP3    H223506   2.431   5.307   5.143  0.8749 -1.6743  0.6747
 7848TIP3   OH223507   1.269   2.320   0.557 -0.2862  0.0189 -0.0204
 7848TIP3    H123508   1.242   2.400   0.603  2.9116  1.7447 -0.7918
 7848TIP3    H223509   1.228   2.326   0.471  0.4534  1.2755 -0.3171
 7849TIP3   OH223510   6.350   6.633   1.746 -0.3051 -0.4719  0.1449
 7849TIP3    H123511   6.405   6.560   1.717 -0.6978 -0.2156 -1.2881
 7849TIP3    H223512   6.264   6.615   1.708 -0.9708 -0.3068  1.4888
 7850TIP3   OH223513   6.675   3.094   1.275 -0.0418 -0.0486  0.0314
 7850TIP3    H123514   6.753   3.085   1.329  0.2197 -1.5915 -0.5524
 7850TIP3    H223515   6.603   3.064   1.331 -0.2719  1.5729  0.6408
 7851TIP3   OH223516   4.504   1.853   5.111 -0.1241  0.0457 -0.7139
 7851TIP3    H123517   4.465   1.825   5.029 -2.9540 -1.6553  1.0332
 7851TIP3    H223518   4.556   1.777   5.139 -2.5767 -1.1666  0.9376
 7852TIP3   OH223519   5.218   0.559   3.300 -0.6658 -0.0089  0.2512
 7852TIP3    H123520   5.127   0.585   3.311 -0.1653  2.2020 -0.2634
 7852TIP3    H223521   5.234   0.569   3.206  0.0728 -0.5225  0.3152
 7853TIP3   OH223522   6.289   6.241   2.960 -0.1580 -0.1502 -0.5292
 7853TIP3    H123523   6.260   6.272   3.046 -0.8899  0.5241 -1.0020
 7853TIP3    H223524   6.378   6.210   2.974 -0.1141  0.3570  0.3858
 7854TIP3   OH223525   3.461   6.683   2.086 -0.1197  0.4316  0.1806
 7854TIP3    H123526   3.468   6.766   2.039  0.5042 -0.1072 -0.6939
 7854TIP3    H223527   3.372   6.653   2.067  0.5396 -0.4185 -1.7875
 7855TIP3   OH223528   5.392   3.201   3.617  0.1863  0.3071 -0.1831
 7855TIP3    H123529   5.403   3.281   3.669  1.4901 -1.3263  2.2336
 7855TIP3    H223530   5.476   3.190   3.572  0.3277 -0.1626  0.1925
 7856TIP3   OH223531   5.196   1.369   1.826  0.1099  0.0979 -0.2633
 7856TIP3    H123532   5.240   1.289   1.798 -0.0178  0.5737 -1.9343
 7856TIP3    H223533   5.247   1.399   1.902 -0.0904 -1.7537  0.6509
 7857TIP3   OH223534   7.209   6.654   3.339  0.2090  0.8028  0.0856
 7857TIP3    H123535   7.143   6.723   3.342  1.0177  1.5846  0.4421
 7857TIP3    H223536   7.230   6.637   3.431  1.6563  1.7181 -0.0474
 7858TIP3   OH223537   5.210   5.467   4.706 -0.3678 -0.5562  0.2240
 7858TIP3    H123538   5.233   5.556   4.677  0.5629 -0.4644  1.1808
 7858TIP3    H223539   5.125   5.450   4.665 -0.7937  0.9638  0.3965
 7859TIP3   OH223540   4.798   6.030   1.939 -0.7663 -0.0424 -0.2285
 7859TIP3    H123541   4.799   6.081   2.020 -2.1265 -0.9676  0.4089
 7859TIP3    H223542   4.792   6.096   1.869  1.2374  0.8008  0.3294
 7860TIP3   OH223543   6.068   0.085   3.294 -0.3149 -0.0832  0.4417
 7860TIP3    H123544   6.075   0.051   3.205 -0.4989  0.1005  0.3569
 7860TIP3    H223545   5.983   0.130   3.296 -1.1349 -1.5747  1.2072
 7861TIP3   OH223546   2.931   1.301   4.466 -0.0344 -0.4739  0.2624
 7861TIP3    H123547   2.844   1.263   4.452  0.0729 -0.0257 -1.9153
 7861TIP3    H223548   2.991   1.241   4.422  0.9548 -1.3268  2.5772
 7862TIP3   OH223549   4.597   0.247   2.889  0.0408 -0.2509 -0.0284
 7862TIP3    H123550   4.605   0.210   2.801  0.0205 -0.2495 -0.0306
 7862TIP3    H223551   4.652   0.325   2.886 -2.1322  1.3590 -0.9110
 7863TIP3   OH223552   0.012   2.997   2.474  0.3879  0.5134 -0.1283
 7863TIP3    H123553  -0.039   2.960   2.403  0.2127 -0.1358  0.3314
 7863TIP3    H223554   0.087   3.038   2.431  0.4547 -0.1576 -0.6657
 7864TIP3   OH223555   4.650   6.537   5.149  0.9757  0.0836 -0.4097
 7864TIP3    H123556   4.580   6.529   5.084 -0.5511  1.1666  1.0227
 7864TIP3    H223557   4.673   6.446   5.170 -1.0745 -0.3673  0.1481
 7865TIP3   OH223558   3.331   4.655   0.366  0.2555  0.0285 -0.0589
 7865TIP3    H123559   3.374   4.739   0.374 -1.5011  1.0163 -0.4809
 7865TIP3    H223560   3.306   4.649   0.274 -1.9107  0.2629  0.4583
 7866TIP3   OH223561   3.482   4.934   3.869 -0.1200 -0.0082  0.1477
 7866TIP3    H123562   3.400   4.893   3.896  0.4264 -2.1867 -1.2806
 7866TIP3    H223563   3.549   4.892   3.923  0.4234 -0.9579 -1.1992
 7867TIP3   OH223564   1.672   3.277   1.010 -0.6403  0.3857 -0.2420
 7867TIP3    H123565   1.597   3.236   0.968 -0.2072 -0.4902 -0.1959
 7867TIP3    H223566   1.651   3.370   1.014 -1.3495  0.2590 -0.9867
 7868TIP3   OH223567   0.755   6.503   5.117  0.2242  0.2345  0.3449
 7868TIP3    H123568   0.718   6.563   5.181 -1.7993 -1.1259  0.5408
 7868TIP3    H223569   0.720   6.417   5.141  0.4539 -0.5263 -1.7905
 7869TIP3   OH223570   0.969   2.670   0.396 -0.5652 -0.8950 -0.3115
 7869TIP3    H123571   0.975   2.696   0.304 -1.4916 -1.4417 -0.5373
 7869TIP3    H223572   0.938   2.579   0.393  1.4769 -1.6838  0.4800
 7870TIP3   OH223573   4.387   4.865   2.653  0.2204 -0.2252  0.1088
 7870TIP3    H123574   4.301   4.834   2.681  1.3485 -2.3818  1.4133
 7870TIP3    H223575   4.409   4.935   2.715 -0.3857  0.0384  0.0337
 7871TIP3   OH223576   4.006   4.874   3.137 -0.1484 -0.2492 -0.3553
 7871TIP3    H123577   3.913   4.850   3.146 -0.2443  0.2829  0.1163
 7871TIP3    H223578   4.050   4.791   3.117 -0.9019 -0.2961 -1.9615
 7872TIP3   OH223579   0.146   5.623   2.657  0.1333  0.3590 -0.0552
 7872TIP3    H123580   0.065   5.596   2.614 -0.5136 -0.1624  1.4227
 7872TIP3    H223581   0.168   5.707   2.617  0.0073 -0.4635 -1.9312
 7873TIP3   OH223582   5.894   4.874   2.945  0.1675 -0.6059  0.3290
 7873TIP3    H123583   5.814   4.828   2.919 -1.0115  1.8933 -0.8587
 7873TIP3    H223584   5.863   4.953   2.990  1.9771  0.2291  0.2084
 7874TIP3   OH223585   0.093   0.232   5.160 -0.4337  0.0588 -0.1397
 7874TIP3    H123586   0.093   0.161   5.225  1.0531 -0.7666 -0.9934
 7874TIP3    H223587   0.005   0.230   5.122 -1.2115  0.3049  1.5438
 7875TIP3   OH223588   5.961   5.661   2.277  1.0184  0.0716 -0.1855
 7875TIP3    H123589   5.981   5.568   2.277 -0.0817 -0.2097  1.3887
 7875TIP3    H223590   5.875   5.668   2.318  0.3912  1.6742 -1.6225
 7876TIP3   OH223591   2.429   3.690   5.779  0.2154  0.0753  0.3685
 7876TIP3    H123592   2.362   3.628   5.810 -0.3529 -0.5994 -1.9970
 7876TIP3    H223593   2.402   3.774   5.816 -0.4547 -0.6296  1.5642
 7877TIP3   OH223594   2.740   2.298   4.471  0.4474  0.2795 -0.1292
 7877TIP3    H123595   2.805   2.301   4.541  0.0696 -0.9978  0.3019
 7877TIP3    H223596   2.656   2.300   4.516  0.1719 -2.0189 -0.3774
 7878TIP3   OH223597   2.542   1.158   4.588 -0.2521 -0.5028  0.3641
 7878TIP3    H123598   2.615   1.139   4.647  0.1741  1.9840  0.7522
 7878TIP3    H223599   2.579   1.149   4.500  0.5526  0.6175  0.5566
 7879TIP3   OH223600   3.346   1.061   4.800  0.2265  0.3561 -0.0049
 7879TIP3    H123601   3.348   1.132   4.736  2.0819  0.1496 -0.2191
 7879TIP3    H223602   3.386   1.098   4.878 -2.0952  0.6349  1.1656
 7880TIP3   OH223603   2.149   0.177   4.621  0.1398 -0.3112  0.1902
 7880TIP3    H123604   2.078   0.216   4.671  0.1387 -0.6153  0.4333
 7880TIP3    H223605   2.191   0.117   4.683  1.5605  0.9646  0.5431
 7881TIP3   OH223606   3.868   2.903   3.102  0.1429  0.2643  0.1300
 7881TIP3    H123607   3.886   2.962   3.029  1.6523 -1.3227 -0.8606
 7881TIP3    H223608   3.774   2.909   3.115  0.2211  2.7781  0.0191
 7882TIP3   OH223609   1.693   0.155   5.530  0.1549 -0.0000  0.1610
 7882TIP3    H123610   1.639   0.232   5.511  0.8477  0.3007 -0.6473
 7882TIP3    H223611   1.632   0.091   5.565 -0.6839  0.4267 -0.4823
 7883TIP3   OH223612   0.582   2.266   2.863 -0.5414 -0.6700  0.2353
 7883TIP3    H123613   0.608   2.312   2.942 -0.5981 -1.3252  0.6434
 7883TIP3    H223614   0.664   2.256   2.813 -0.4769 -0.4119  0.2872
 7884TIP3   OH223615   5.259   2.335   0.897 -0.0638 -0.1835  0.6573
 7884TIP3    H123616   5.327   2.269   0.897 -0.2645 -0.5394 -2.4065
 7884TIP3    H223617   5.304   2.417   0.919  1.2252 -0.5406 -0.5397
 7885TIP3   OH223618   6.528   4.671   4.876 -0.2199  0.2888  1.2631
 7885TIP3    H123619   6.510   4.690   4.784  0.7754 -1.3629  0.6914
 7885TIP3    H223620   6.600   4.730   4.900  1.0972 -0.8420  0.2634
 7886TIP3   OH223621   1.377   6.245   5.889 -0.4392 -0.2748 -0.0550
 7886TIP3    H123622   1.370   6.304   5.815 -2.3364  1.1889  1.1808
 7886TIP3    H223623   1.442   6.285   5.946  0.6915 -1.1660 -0.6775
 7887TIP3   OH223624   2.301   2.856   2.407  0.3055 -0.4396 -0.1229
 7887TIP3    H123625   2.334   2.861   2.317 -0.4425  1.3330 -0.3362
 7887TIP3    H223626   2.319   2.766   2.434 -0.1114 -1.2379 -2.3076
 7888TIP3   OH223627   7.025   0.045   4.905 -0.7100  0.0948  0.4595
 7888TIP3    H123628   7.014  -0.016   4.833  1.8803 -1.9106  1.5659
 7888TIP3    H223629   7.096   0.103   4.877 -1.1892  0.7537  0.5684
 7889TIP3   OH223630   5.620   3.198   4.146  0.1676  0.0104  0.3244
 7889TIP3    H123631   5.701   3.147   4.145  0.4192  0.3991 -0.6648
 7889TIP3    H223632   5.629   3.257   4.221  1.4651  1.0480 -0.5949
 7890TIP3   OH223633   4.865   5.960   5.572 -0.1299 -0.3042  0.4245
 7890TIP3    H123634   4.801   5.901   5.533 -0.5554  0.9003 -0.7989
 7890TIP3    H223635   4.812   6.024   5.620  0.2297 -0.0328  0.4633
 7891TIP3   OH223636   6.618   3.034   0.100 -0.4543 -0.3839  0.7543
 7891TIP3    H123637   6.550   2.967   0.101 -0.4521 -0.4606 -0.8744
 7891TIP3    H223638   6.680   3.007   0.168 -1.5443 -0.8331  1.5997
 7892TIP3   OH223639   6.535   2.130   2.951 -0.2145  0.0812  0.0896
 7892TIP3    H123640   6.612   2.075   2.942  0.3004  0.8862 -0.6405
 7892TIP3    H223641   6.563   2.203   3.006 -0.7156 -0.0620  0.5489
 7893TIP3   OH223642   5.307   2.587   0.966  0.1887  0.1320 -0.2077
 7893TIP3    H123643   5.370   2.656   0.986  1.5922 -0.2671 -2.7830
 7893TIP3    H223644   5.230   2.634   0.934  1.1524  0.6074 -1.9901
 7894TIP3   OH223645   0.030   0.976   0.773 -0.0665 -0.0515 -0.0772
 7894TIP3    H123646   0.066   0.911   0.713  0.6764  0.1150  0.1646
 7894TIP3    H223647  -0.059   0.947   0.791  0.4011 -1.2594  0.3915
 7895TIP3   OH223648   3.056   2.055   3.355  0.1968 -0.4035  0.5586
 7895TIP3    H123649   2.972   2.034   3.315 -0.8740  0.2929  2.3436
 7895TIP3    H223650   3.111   2.083   3.281 -0.5463 -2.4537 -0.8782
 7896TIP3   OH223651   4.117   6.130   5.560  0.1520 -0.2318 -0.4551
 7896TIP3    H123652   4.154   6.142   5.473 -0.9250  2.2144 -0.6610
 7896TIP3    H223653   4.164   6.194   5.615  0.2206 -1.1360  0.5797
 7897TIP3   OH223654   4.979   0.698   4.752  0.3910 -0.0254  0.8120
 7897TIP3    H123655   4.928   0.639   4.698  0.5449 -0.5825  1.2601
 7897TIP3    H223656   4.927   0.710   4.831  0.4322  0.3157  0.7889
 7898TIP3   OH223657   1.524   4.247   1.677  0.2991 -0.7177 -0.7210
 7898TIP3    H123658   1.598   4.200   1.714  1.1450 -0.2349 -1.7448
 7898TIP3    H223659   1.563   4.325   1.635 -0.5082 -1.4431 -2.9850
 7899TIP3   OH223660   1.576   5.462   5.374  0.2579 -0.4467  0.4885
 7899TIP3    H123661   1.596   5.426   5.461  0.8782 -0.7670  0.2158
 7899TIP3    H223662   1.645   5.428   5.317  0.0479  0.0356 -0.0658
 7900TIP3   OH223663   6.991   6.061   1.559 -0.4778  0.0079  0.5802
 7900TIP3    H123664   6.924   6.115   1.601 -0.4888  0.1341  0.4007
 7900TIP3    H223665   7.045   6.123   1.511 -0.1621 -0.0788  0.8150
 7901TIP3   OH223666   3.529   1.166   5.523  0.3474 -0.6195 -0.1094
 7901TIP3    H123667   3.487   1.134   5.443 -0.7631 -0.3282  0.3392
 7901TIP3    H223668   3.496   1.108   5.591  0.7077 -0.3984  0.2526
 7902TIP3   OH223669   7.134   2.358   2.978  0.1947 -0.1755 -0.0492
 7902TIP3    H123670   7.041   2.344   2.960  0.5448 -1.2435 -1.2277
 7902TIP3    H223671   7.141   2.354   3.073 -0.9533 -0.1661  0.0513
 7903TIP3   OH223672   0.896   5.225   4.932 -0.3360 -0.2448  0.3663
 7903TIP3    H123673   0.947   5.150   4.962  1.4840 -0.0823 -2.0921
 7903TIP3    H223674   0.958   5.298   4.931 -0.3518 -0.1173 -3.0764
 7904TIP3   OH223675   3.062   1.128   4.302  0.0814  0.3556 -0.1915
 7904TIP3    H123676   2.994   1.142   4.236  0.2484 -1.1533 -0.7298
 7904TIP3    H223677   3.134   1.088   4.254  0.6495  0.2734  0.7042
 7905TIP3   OH223678   0.682   2.112   5.714 -0.0453 -0.0661  0.2419
 7905TIP3    H123679   0.697   2.141   5.804 -0.2924 -0.3865  0.3874
 7905TIP3    H223680   0.587   2.113   5.703 -0.0551 -0.8086  0.2467
 7906TIP3   OH223681   0.966   1.815   4.850  0.0804  0.0845 -0.1207
 7906TIP3    H123682   0.967   1.909   4.831 -0.0426 -0.1560 -1.4255
 7906TIP3    H223683   0.923   1.808   4.936 -1.5853  1.0997 -0.8117
 7907TIP3   OH223684   5.253   5.561   5.225  0.4546  0.3087  0.7891
 7907TIP3    H123685   5.228   5.604   5.143  1.5380  3.0540  1.7472
 7907TIP3    H223686   5.326   5.504   5.202 -0.5210 -0.4825 -0.4348
 7908TIP3   OH223687   4.976   2.084   4.938  0.5438 -0.5084 -0.0730
 7908TIP3    H123688   4.898   2.087   4.994  0.6006  0.4324 -0.0244
 7908TIP3    H223689   5.026   2.161   4.964  0.1737  0.4268 -1.9959
 7909TIP3   OH223690   5.022   1.215   2.017  0.2296 -0.1650  0.1769
 7909TIP3    H123691   5.048   1.263   1.938 -1.5468 -0.4503 -0.6382
 7909TIP3    H223692   5.021   1.123   1.989 -0.0306 -0.3023  0.6402
 7910TIP3   OH223693   0.418   2.127   5.678 -0.4066  0.5524 -0.1882
 7910TIP3    H123694   0.421   2.032   5.675  1.5293  0.5472  0.5710
 7910TIP3    H223695   0.344   2.147   5.735 -0.6327 -0.5031 -0.0957
 7911TIP3   OH223696  -0.032   4.456   1.427  0.1325  0.1400 -0.2334
 7911TIP3    H123697   0.033   4.446   1.357  0.7219  1.1265  0.1450
 7911TIP3    H223698   0.008   4.415   1.503 -0.5545 -1.0287 -0.4866
 7912TIP3   OH223699   0.315   5.350   3.339  0.5932  0.3885  0.0650
 7912TIP3    H123700   0.245   5.308   3.289 -0.1366  0.0907  1.2920
 7912TIP3    H223701   0.383   5.284   3.346 -1.7982 -2.0201  4.7004
 7913TIP3   OH223702   3.168   1.399   0.733  0.5400  0.0835  0.0697
 7913TIP3    H123703   3.227   1.420   0.806 -0.2198  3.3845 -0.1119
 7913TIP3    H223704   3.222   1.407   0.655  0.4274  0.5791  0.0432
 7914TIP3   OH223705   6.781   3.041   5.123  0.0755 -0.2326 -0.0585
 7914TIP3    H123706   6.809   3.091   5.046  0.6733  0.1468  0.3954
 7914TIP3    H223707   6.687   3.029   5.110  0.2990 -0.9063 -1.2528
 7915TIP3   OH223708   5.450   1.948   5.124 -0.3105  0.3331 -0.0831
 7915TIP3    H123709   5.545   1.958   5.129 -0.5495  3.1017  0.3778
 7915TIP3    H223710   5.423   1.935   5.215 -0.3191 -1.9478 -0.3506
 7916TIP3   OH223711   3.848   6.270   3.999  0.0475  0.8269 -0.2734
 7916TIP3    H123712   3.859   6.231   4.085 -4.0857 -1.1489 -0.4088
 7916TIP3    H223713   3.901   6.216   3.940 -0.9847 -1.0183  0.4085
 7917TIP3   OH223714   0.206   2.631   2.861  0.3317  0.3319 -0.3944
 7917TIP3    H123715   0.281   2.593   2.815 -0.1747  0.6117 -1.4844
 7917TIP3    H223716   0.133   2.573   2.840  0.0209  0.6557 -0.2228
 7918TIP3   OH223717   1.808   1.214   1.054  0.5004  0.0013  0.0418
 7918TIP3    H123718   1.734   1.245   1.107  0.9451 -0.3871  0.9115
 7918TIP3    H223719   1.777   1.132   1.016 -0.3337  0.9802 -1.4900
 7919TIP3   OH223720   3.930   6.387   1.990  0.1430 -0.9027 -0.1101
 7919TIP3    H123721   3.978   6.469   1.975 -0.1454 -1.1276 -2.7031
 7919TIP3    H223722   3.995   6.328   2.028  0.9825 -0.1568 -0.3579
 7920TIP3   OH223723   4.058   0.644   1.866  0.5220  0.5805 -0.3178
 7920TIP3    H123724   4.065   0.711   1.934  2.6648  1.3700 -1.2376
 7920TIP3    H223725   4.068   0.561   1.914 -1.1083  0.9148  0.6857
 7921TIP3   OH223726   1.792   5.980   4.211  0.0562 -0.1326  0.0641
 7921TIP3    H123727   1.778   5.956   4.120 -1.3283 -1.3034  0.5484
 7921TIP3    H223728   1.871   6.035   4.210  1.5317 -2.1080 -1.5241
 7922TIP3   OH223729   1.451   6.237   4.442  0.4221  0.0408 -0.5159
 7922TIP3    H123730   1.483   6.209   4.528 -0.0771 -1.3836 -0.7620
 7922TIP3    H223731   1.358   6.252   4.454  0.4699  0.4646 -0.6630
 7923TIP3   OH223732   0.920   4.272   2.169 -0.2512  0.0075  0.6454
 7923TIP3    H123733   0.912   4.255   2.263  2.1589  1.8888  1.2916
 7923TIP3    H223734   0.951   4.190   2.132 -0.1070 -0.4157  1.6839
 7924TIP3   OH223735   0.802   2.899   5.819  0.5114  0.2994  0.4206
 7924TIP3    H123736   0.729   2.945   5.777  1.2097 -0.0315 -1.2002
 7924TIP3    H223737   0.805   2.936   5.907 -1.0661  0.9348  0.2498
 7925TIP3   OH223738   0.308   2.930   3.043 -0.3143 -0.7128  0.0734
 7925TIP3    H123739   0.251   2.994   3.000 -0.2730 -1.3715 -1.0063
 7925TIP3    H223740   0.267   2.846   3.025 -0.8053 -0.9743  2.1590
 7926TIP3   OH223741   4.501   0.298   2.035 -0.5413 -0.6486 -0.7335
 7926TIP3    H123742   4.579   0.255   2.001  0.5626  0.2246  0.6259
 7926TIP3    H223743   4.530   0.384   2.063 -1.7680 -0.6486  0.6855
 7927TIP3   OH223744   6.219   6.169   0.555  0.4324 -0.6212  0.2481
 7927TIP3    H123745   6.175   6.097   0.511  0.6719 -0.1781 -0.7506
 7927TIP3    H223746   6.238   6.232   0.485 -0.4506  0.7641  1.1905
 7928TIP3   OH223747   5.105   3.927   4.410 -0.5610  0.2876 -0.3448
 7928TIP3    H123748   5.038   3.957   4.472 -0.3190 -0.7333  0.4421
 7928TIP3    H223749   5.158   4.004   4.392 -0.9704  0.7285  0.3087
 7929TIP3   OH223750   0.001   0.685   1.775  0.3809 -0.5424 -0.3701
 7929TIP3    H123751   0.009   0.772   1.735  0.4019 -1.2120 -1.8875
 7929TIP3    H223752   0.066   0.685   1.845 -0.0331  0.8713  0.0501
 7930TIP3   OH223753   0.288   2.253   3.024 -0.2012  0.1748 -0.2633
 7930TIP3    H123754   0.217   2.213   2.973  0.2170  1.7400 -2.1875
 7930TIP3    H223755   0.321   2.182   3.079 -1.2650 -1.3724 -1.5340
 7931TIP3   OH223756   5.597   3.356   4.977 -0.2914  0.7273  0.8138
 7931TIP3    H123757   5.601   3.395   4.890  3.9720  1.1141  0.9761
 7931TIP3    H223758   5.612   3.262   4.961 -2.7104  0.2255  1.0256
 7932TIP3   OH223759   6.980   5.007   5.496 -0.0883 -0.0617 -0.2263
 7932TIP3    H123760   6.974   5.065   5.571  0.1452 -0.5507  0.1731
 7932TIP3    H223761   6.897   4.959   5.496  0.0744 -0.3419 -0.0521
 7933TIP3   OH223762   2.858   1.590   3.998  0.4936 -0.3597  0.4433
 7933TIP3    H123763   2.878   1.538   4.076  0.4889  0.1852  0.8196
 7933TIP3    H223764   2.896   1.676   4.017  1.2985 -0.4821 -0.5480
 7934TIP3   OH223765   0.868   0.506   2.794  0.0768  0.4685  0.2837
 7934TIP3    H123766   0.895   0.466   2.877  1.5102 -0.5372 -0.6213
 7934TIP3    H223767   0.936   0.570   2.774 -0.4300  0.9369  0.0215
 7935TIP3   OH223768   4.145   6.167   0.828  0.0249  0.4718  0.1290
 7935TIP3    H123769   4.202   6.233   0.791 -0.1821  0.7024  0.2149
 7935TIP3    H223770   4.202   6.092   0.845  0.3080  0.7107  0.2468
 7936TIP3   OH223771   3.554   3.337   2.679  0.2226  0.9151  0.1344
 7936TIP3    H123772   3.495   3.411   2.665  0.0828  0.8311  0.2715
 7936TIP3    H223773   3.498   3.260   2.673  0.3874  0.8138 -0.1136
 7937TIP3   OH223774   5.237   4.098   1.346 -0.3393  0.3092  0.2040
 7937TIP3    H123775   5.196   4.125   1.264 -3.4665  0.6882  1.7628
 7937TIP3    H223776   5.197   4.154   1.413  0.6476 -1.2903  2.2471
 7938TIP3   OH223777   6.685   1.815   5.397  0.3460  0.0296 -0.3572
 7938TIP3    H123778   6.631   1.736   5.387  1.4130 -0.8749  0.6854
 7938TIP3    H223779   6.772   1.787   5.369  0.9378  0.5625  0.9011
 7939TIP3   OH223780   7.057   2.494   4.631 -0.4660  0.3274  0.3911
 7939TIP3    H123781   7.071   2.408   4.671 -1.1853 -1.0975 -2.2087
 7939TIP3    H223782   7.143   2.535   4.632  0.6767 -1.8354 -1.2750
 7940TIP3   OH223783   0.732   5.078   4.773  0.3478 -0.7278  0.1328
 7940TIP3    H123784   0.786   5.129   4.834 -1.1334  1.6460 -0.4112
 7940TIP3    H223785   0.656   5.051   4.825  0.6867 -1.6283  0.1734
 7941TIP3   OH223786   5.391   4.461   0.373 -0.1119 -0.3896  0.1160
 7941TIP3    H123787   5.341   4.457   0.455 -0.1968 -0.2303  0.0719
 7941TIP3    H223788   5.459   4.395   0.384 -0.8084 -1.1641 -0.1438
 7942TIP3   OH223789   2.082   4.151   5.767  0.6407  0.2689  0.0704
 7942TIP3    H123790   2.168   4.183   5.796 -0.7973  3.5582  1.1250
 7942TIP3    H223791   2.042   4.115   5.845  0.1549  0.9691  0.1504
 7943TIP3   OH223792   6.938   6.130   4.368  0.5684  0.1840 -0.3588
 7943TIP3    H123793   6.854   6.095   4.400  0.7473 -1.1786 -1.3046
 7943TIP3    H223794   6.994   6.053   4.359  1.7154  1.0070 -0.3708
 7944TIP3   OH223795   0.777   4.628   2.138  0.1631  0.2354  0.3781
 7944TIP3    H123796   0.803   4.680   2.214  0.0506  0.1506  0.4741
 7944TIP3    H223797   0.756   4.693   2.071  1.2000  0.3023  0.1041
 7945TIP3   OH223798   3.860   1.923   3.454 -0.2080 -0.1846 -0.0669
 7945TIP3    H123799   3.840   1.832   3.435 -0.6674 -0.3897  1.2626
 7945TIP3    H223800   3.952   1.923   3.482 -0.5494 -0.4663  1.1311
 7946TIP3   OH223801   5.513   5.232   5.700 -0.0317 -0.5822 -0.2634
 7946TIP3    H123802   5.584   5.167   5.708  0.9602  0.6825  2.4942
 7946TIP3    H223803   5.545   5.308   5.749 -1.9021  1.3662 -1.8949
 7947TIP3   OH223804   1.171   6.367   3.962  0.6355 -0.3154 -0.9363
 7947TIP3    H123805   1.137   6.454   3.983  1.2770 -0.0882 -0.8187
 7947TIP3    H223806   1.262   6.369   3.993  0.6353 -1.0457 -0.8809
 7948TIP3   OH223807   7.051   4.690   3.931  0.1979  0.1970  0.6074
 7948TIP3    H123808   6.970   4.640   3.940  0.7018 -1.4583 -2.5032
 7948TIP3    H223809   7.022   4.781   3.923 -1.7020 -0.5254 -2.5745
 7949TIP3   OH223810   3.269   6.076   2.925 -0.4578  0.2222  0.0422
 7949TIP3    H123811   3.202   6.032   2.872 -0.6428  0.8387 -0.2421
 7949TIP3    H223812   3.352   6.044   2.890 -0.4394  2.6755 -2.5728
 7950TIP3   OH223813   5.162   5.407   2.476 -0.2400  0.0303  0.4682
 7950TIP3    H123814   5.206   5.324   2.460  0.3028  0.1158  1.4162
 7950TIP3    H223815   5.189   5.464   2.404 -1.1026 -0.7831 -0.5173
 7951TIP3   OH223816   1.639   3.830   3.645 -0.3840  0.2359  0.1962
 7951TIP3    H123817   1.622   3.872   3.730 -0.0370  0.6989  0.0404
 7951TIP3    H223818   1.728   3.797   3.652 -0.5853 -0.3048  0.2445
 7952TIP3   OH223819   1.106   1.306   4.276  0.0866  0.2344 -0.2979
 7952TIP3    H123820   1.172   1.369   4.248 -0.2671  0.4828 -0.5789
 7952TIP3    H223821   1.063   1.279   4.195 -0.2140  0.1353 -0.1056
 7953TIP3   OH223822   3.847   2.330   4.732 -0.1974  0.8176 -0.1605
 7953TIP3    H123823   3.826   2.424   4.731  1.5508  1.2571 -1.5355
 7953TIP3    H223824   3.883   2.315   4.820 -2.2711  0.9514  0.7521
 7954TIP3   OH223825   4.260   1.545   0.291 -0.0405 -0.3180 -0.3167
 7954TIP3    H123826   4.229   1.513   0.375 -0.7221  0.6662 -0.1755
 7954TIP3    H223827   4.189   1.599   0.257  0.9225  0.7856 -0.6732
 7955TIP3   OH223828   1.765   3.874   2.248  0.0393  0.0649  0.3267
 7955TIP3    H123829   1.696   3.934   2.217 -0.2701  0.5470  1.8509
 7955TIP3    H223830   1.735   3.787   2.223 -1.4610  0.2100  1.4783
 7956TIP3   OH223831   5.841   1.895   3.569 -0.2910 -0.5840  0.2897
 7956TIP3    H123832   5.825   1.972   3.513  0.2483 -0.6213  0.0817
 7956TIP3    H223833   5.755   1.857   3.582 -1.1679  1.8979  3.1035
 7957TIP3   OH223834   5.007   1.374   0.982 -0.1898 -0.1156  0.1436
 7957TIP3    H123835   4.965   1.458   0.961 -1.7354 -0.5597  1.2618
 7957TIP3    H223836   4.952   1.308   0.939  0.1502 -0.6347  0.4975
 7958TIP3   OH223837   2.057   2.851   2.009  0.5476  0.0723 -0.3659
 7958TIP3    H123838   2.051   2.898   2.093  0.4558 -0.4285 -0.0858
 7958TIP3    H223839   1.987   2.786   2.013  1.5246 -0.9990 -0.1611
 7959TIP3   OH223840   5.581   4.495   5.571  0.2944  0.3421  0.4103
 7959TIP3    H123841   5.544   4.469   5.655 -1.3377  3.2779  0.7554
 7959TIP3    H223842   5.550   4.429   5.509  1.3640 -1.7680  1.9977
 7960TIP3   OH223843   6.143   4.187   1.909  0.4177  0.2161 -0.2173
 7960TIP3    H123844   6.048   4.196   1.917  0.1390 -0.4950 -2.2528
 7960TIP3    H223845   6.166   4.241   1.833  1.4441 -0.5950 -0.5123
 7961TIP3   OH223846   3.306   5.941   2.143  0.2188  0.1866  0.0581
 7961TIP3    H123847   3.385   5.954   2.090  0.6174  0.2624  0.6618
 7961TIP3    H223848   3.275   6.029   2.163 -0.3549  0.1571 -0.6571
 7962TIP3   OH223849   4.337   0.418   3.455  0.0234 -0.2405 -0.5856
 7962TIP3    H123850   4.279   0.380   3.522  1.3886 -1.2461  0.0620
 7962TIP3    H223851   4.315   0.511   3.456 -0.0806 -0.2422  1.1930
 7963TIP3   OH223852   6.581   5.613   5.660  0.2619  0.4111 -0.3500
 7963TIP3    H123853   6.589   5.709   5.660  2.3705  0.2717 -0.9239
 7963TIP3    H223854   6.573   5.590   5.568  0.3036 -0.0139 -0.2454
 7964TIP3   OH223855   2.167   0.994   0.500  0.6005  0.0746  0.0029
 7964TIP3    H123856   2.118   1.003   0.582 -0.7639 -0.0609 -0.7719
 7964TIP3    H223857   2.259   0.997   0.527  0.2523  2.8308  1.2577
 7965TIP3   OH223858   6.229   5.624   4.027 -0.2700  0.2650  0.2880
 7965TIP3    H123859   6.178   5.688   4.077 -0.3560 -0.0018  0.5396
 7965TIP3    H223860   6.319   5.637   4.058 -0.3615 -0.0807  0.7065
 7966TIP3   OH223861   5.415   3.588   1.787 -0.0700  0.2846  0.2347
 7966TIP3    H123862   5.354   3.530   1.832  0.7069 -0.6231  0.1435
 7966TIP3    H223863   5.479   3.529   1.746  1.0412  1.2131  0.5766
 7967TIP3   OH223864   4.895   4.789   3.549  0.6736  0.5907  0.3669
 7967TIP3    H123865   4.962   4.727   3.577  2.4601  1.2765 -2.0602
 7967TIP3    H223866   4.938   4.874   3.552 -0.7132  1.3230  0.5170
 7968TIP3   OH223867   2.342   0.380   0.706 -0.2979 -0.5033  0.0095
 7968TIP3    H123868   2.252   0.378   0.740  0.0847  0.1468  1.1138
 7968TIP3    H223869   2.397   0.386   0.785  0.6545  0.4941 -0.7057
 7969TIP3   OH223870   6.650   1.087   3.991  0.3278  0.2753  0.7036
 7969TIP3    H123871   6.595   1.106   4.068 -0.7682  1.4939 -0.3355
 7969TIP3    H223872   6.598   1.026   3.939 -0.8274  2.5581 -1.0115
 7970TIP3   OH223873   4.665   4.088   2.907 -0.6569  0.0038  0.2001
 7970TIP3    H123874   4.717   4.062   2.831 -1.5525 -0.1536 -0.3698
 7970TIP3    H223875   4.676   4.017   2.970  1.5906  0.9693  1.0068
 7971TIP3   OH223876   1.275   2.116   2.237  0.3963  0.2714  0.3104
 7971TIP3    H123877   1.238   2.037   2.276  1.7275 -1.5645 -1.8642
 7971TIP3    H223878   1.240   2.117   2.148  0.8341  1.8704  0.1155
 7972TIP3   OH223879   5.812   2.126   4.095 -0.0736 -0.1800 -0.3112
 7972TIP3    H123880   5.837   2.086   4.178  2.8809  1.2006 -0.3913
 7972TIP3    H223881   5.764   2.204   4.120 -0.2947 -0.4255  0.0483
 7973TIP3   OH223882   6.546   1.886   1.419 -0.6463  0.0864 -0.4081
 7973TIP3    H123883   6.480   1.835   1.372  1.1924 -2.3302 -0.5240
 7973TIP3    H223884   6.583   1.944   1.352 -1.3919  0.1807 -0.7515
 7974TIP3   OH223885   1.107   5.026   2.899  0.4224  0.2362 -0.5835
 7974TIP3    H123886   1.028   5.025   2.953  1.7497 -1.9431  1.5817
 7974TIP3    H223887   1.079   4.994   2.814 -1.4447  2.0425 -0.7198
 7975TIP3   OH223888   0.261   0.947   1.722 -0.2396 -0.4430  0.1287
 7975TIP3    H123889   0.249   1.041   1.713  1.0194 -0.2233  0.4905
 7975TIP3    H223890   0.197   0.908   1.662 -0.5166  0.6441 -0.2983
 7976TIP3   OH223891   4.041   2.512   0.832 -0.6008 -0.0588  0.5880
 7976TIP3    H123892   4.069   2.471   0.751  0.5409  0.0710  0.8881
 7976TIP3    H223893   3.985   2.447   0.875  1.3005 -1.4270  1.1386
 7977TIP3   OH223894   5.812   5.217   1.631  0.3327  0.4519 -0.3096
 7977TIP3    H123895   5.827   5.245   1.541  0.1892 -0.8951 -0.7621
 7977TIP3    H223896   5.733   5.265   1.658 -0.7100 -0.5106 -1.5379
 7978TIP3   OH223897   2.448   3.400   4.035  0.0069 -0.2437 -0.4350
 7978TIP3    H123898   2.353   3.391   4.028 -0.0923  0.8334 -0.7444
 7978TIP3    H223899   2.482   3.311   4.030 -1.0458 -0.7159  0.6234
 7979TIP3   OH223900   1.992   4.104   3.530  0.5944  0.0726  0.0414
 7979TIP3    H123901   2.018   4.022   3.570  0.9139 -0.1433 -0.5921
 7979TIP3    H223902   2.000   4.089   3.435 -0.7460  0.3651 -0.1402
 7980TIP3   OH223903   0.577   2.737   2.908  0.0556 -0.1096  0.2688
 7980TIP3    H123904   0.586   2.812   2.966  1.4070 -1.3708  1.8048
 7980TIP3    H223905   0.667   2.713   2.885 -0.3836 -0.7596 -0.8420
 7981TIP3   OH223906   6.364   1.809   4.505  0.1193  0.1773 -0.2861
 7981TIP3    H123907   6.281   1.771   4.532  0.2695  0.8576  1.2648
 7981TIP3    H223908   6.418   1.734   4.480 -1.4611 -0.1616 -2.9971
 7982TIP3   OH223909   5.156   1.027   3.830  0.1351 -0.2507 -0.2054
 7982TIP3    H123910   5.185   0.937   3.844  0.0971 -0.0381  1.4586
 7982TIP3    H223911   5.194   1.052   3.746  1.0759 -1.4471 -0.1641
 7983TIP3   OH223912   6.946   5.391   4.100 -0.3431 -0.2977  0.1039
 7983TIP3    H123913   6.856   5.412   4.125 -0.7103 -0.7230 -0.8271
 7983TIP3    H223914   6.981   5.474   4.069 -0.6184 -0.2623 -0.1201
 7984TIP3   OH223915   5.632   0.818   5.327  0.0618  0.8066  0.0016
 7984TIP3    H123916   5.726   0.830   5.320  0.0656  0.2390 -1.2576
 7984TIP3    H223917   5.621   0.758   5.401  0.4693  2.9881  1.9185
 7985TIP3   OH223918   4.290   2.617   4.791  0.3065 -0.0754 -0.6015
 7985TIP3    H123919   4.315   2.554   4.859  0.3453  0.9634  0.3789
 7985TIP3    H223920   4.233   2.567   4.732 -0.5106 -0.7634  0.7172
 7986TIP3   OH223921   1.596   1.576   4.397  0.0564 -0.1317 -0.2277
 7986TIP3    H123922   1.540   1.534   4.462 -1.3193  0.4762 -0.9838
 7986TIP3    H223923   1.588   1.521   4.319  0.3032  0.1062 -0.4243
 7987TIP3   OH223924   1.182   4.794   5.660 -0.1958 -0.0949 -0.1961
 7987TIP3    H123925   1.139   4.874   5.632  1.3197 -0.1449 -3.0508
 7987TIP3    H223926   1.260   4.823   5.708 -1.2486  0.0413  1.4881
 7988TIP3   OH223927   5.858   0.325   0.538 -0.3206  0.4139  0.0260
 7988TIP3    H123928   5.925   0.361   0.596  0.1053  1.7298 -1.2062
 7988TIP3    H223929   5.778   0.326   0.590  0.3591  0.0209  1.1133
 7989TIP3   OH223930   6.106   2.704   2.061  0.0568 -0.4483  0.0177
 7989TIP3    H123931   6.032   2.742   2.108 -0.3007  0.1267 -0.9867
 7989TIP3    H223932   6.071   2.624   2.021 -0.2754  0.2820 -1.1872
 7990TIP3   OH223933   1.799   2.949   1.299 -0.3913 -0.5595 -0.3802
 7990TIP3    H123934   1.839   2.961   1.213 -0.0347 -2.8136 -0.6111
 7990TIP3    H223935   1.802   3.035   1.340  1.8058  0.0436 -1.6270
 7991TIP3   OH223936   4.099   4.603   0.073 -0.6375  0.3234 -0.1145
 7991TIP3    H123937   4.051   4.523   0.095  0.4759 -0.6498 -1.0644
 7991TIP3    H223938   4.070   4.667   0.138 -2.0614 -0.6446  0.2626
 7992TIP3   OH223939   2.241   5.449   2.206  0.2234 -0.3174  0.3780
 7992TIP3    H123940   2.163   5.398   2.228 -0.4872  0.2081 -0.8231
 7992TIP3    H223941   2.232   5.530   2.257 -1.1774  0.6912 -1.3139
 7993TIP3   OH223942   3.303   2.974   1.221 -0.2895 -0.0427 -0.2027
 7993TIP3    H123943   3.322   2.987   1.314  1.3608 -0.4146 -0.4620
 7993TIP3    H223944   3.304   2.879   1.209 -0.4746  0.0028 -0.5994
 7994TIP3   OH223945   4.050   3.799   4.287 -0.0642  0.1836 -0.0575
 7994TIP3    H123946   4.090   3.884   4.270 -1.4243  0.6455 -1.2179
 7994TIP3    H223947   4.115   3.751   4.337  0.4664  2.1510  1.2673
 7995TIP3   OH223948   7.109   3.824   1.247  0.1131 -0.3231  0.3065
 7995TIP3    H123949   7.194   3.802   1.284 -0.5547 -1.1179  1.4359
 7995TIP3    H223950   7.118   3.808   1.154  1.8037  1.5891  0.0636
 7996TIP3   OH223951   2.025   0.923   3.446  0.2376  0.1994 -0.7949
 7996TIP3    H123952   2.066   0.942   3.361  0.1989  0.6834 -0.7090
 7996TIP3    H223953   2.096   0.932   3.509  0.0874  0.6664 -0.6874
 7997TIP3   OH223954   4.529   5.154   3.497  0.6283  0.0167 -0.1886
 7997TIP3    H123955   4.582   5.169   3.575 -0.9496 -0.7815  1.1088
 7997TIP3    H223956   4.592   5.139   3.427  2.1000 -0.2540  1.1550
 7998TIP3   OH223957   4.398   4.633   0.098  0.1045 -0.1950  0.1777
 7998TIP3    H123958   4.430   4.544   0.084 -0.2207 -0.6868  2.2418
 7998TIP3    H223959   4.306   4.629   0.071  0.4164 -0.1026 -0.9741
 7999TIP3   OH223960   6.738   3.603   2.509  0.0494  0.7123  0.5028
 7999TIP3    H123961   6.675   3.548   2.463  2.2220  0.0285 -1.8753
 7999TIP3    H223962   6.824   3.569   2.482  1.4649  2.8708  1.9702
 8000TIP3   OH223963   5.832   2.773   2.633 -0.3920 -0.1473 -0.2902
 8000TIP3    H123964   5.780   2.769   2.553 -1.5384  0.3030  0.4088
 8000TIP3    H223965   5.777   2.733   2.700  1.0230 -1.6073  0.0572
 8001TIP3   OH223966   6.002   6.001   5.642 -0.1681  0.2000 -0.0486
 8001TIP3    H123967   6.065   5.960   5.701 -0.4221  0.6553  0.5480
 8001TIP3    H223968   5.937   5.932   5.625 -1.2470  0.6481  1.9009
 8002TIP3   OH223969   5.814   0.655   4.570  0.8393  0.4616  0.1490
 8002TIP3    H123970   5.727   0.615   4.563  0.9219  0.3736 -0.4772
 8002TIP3    H223971   5.797   0.747   4.589  0.5842  0.5689 -0.5652
 8003TIP3   OH223972   2.927   3.026   2.034 -0.0831  0.1953  0.2585
 8003TIP3    H123973   2.958   3.092   2.097  1.7029 -0.1041 -0.2532
 8003TIP3    H223974   3.000   2.964   2.026 -0.2465  0.2133 -2.0911
 8004TIP3   OH223975   1.955   0.572   5.516 -0.2728  0.0351  0.8476
 8004TIP3    H123976   1.885   0.559   5.580 -0.5224 -0.9467  0.4049
 8004TIP3    H223977   2.035   0.576   5.568 -0.5290 -0.2061  1.2663
 8005TIP3   OH223978   4.144   6.391   4.112 -0.1898 -0.2584  0.1086
 8005TIP3    H123979   4.110   6.425   4.029 -1.2565  0.9871  1.0264
 8005TIP3    H223980   4.070   6.345   4.151  0.5329 -1.5309  0.0442
 8006TIP3   OH223981   2.266  -0.002   2.986  0.8338 -0.6443 -0.1901
 8006TIP3    H123982   2.261   0.093   2.998  0.9194 -0.9141  2.6776
 8006TIP3    H223983   2.213  -0.019   2.908 -1.5010  1.5354  0.7610
 8007TIP3   OH223984   4.770   5.669   3.976 -0.4407 -0.0760  0.0748
 8007TIP3    H123985   4.769   5.576   4.001 -3.0639 -0.0076  0.4930
 8007TIP3    H223986   4.687   5.703   4.009  0.7391  2.6144  0.4957
 8008TIP3   OH223987   4.071   2.818   2.734  0.1706 -0.0749 -0.2280
 8008TIP3    H123988   3.991   2.847   2.689  0.0193 -0.8610 -0.4733
 8008TIP3    H223989   4.142   2.846   2.676 -0.0213 -1.0980 -0.9823
 8009TIP3   OH223990   1.344   4.554   2.132 -0.4876  0.4597  0.1472
 8009TIP3    H123991   1.429   4.510   2.130 -0.1139  1.1594  0.1711
 8009TIP3    H223992   1.302   4.521   2.211 -0.1225  0.3061  0.2808
 8010TIP3   OH223993   3.883   6.081   1.740  0.1598  0.1958  0.1669
 8010TIP3    H123994   3.918   6.063   1.827 -0.3033 -3.7930 -0.3013
 8010TIP3    H223995   3.957   6.064   1.680 -0.7534 -1.9319 -0.4325
 8011TIP3   OH223996   0.807   2.171   2.107  0.2050  0.2099  0.5604
 8011TIP3    H123997   0.859   2.159   2.186  2.8861  0.3470 -1.0751
 8011TIP3    H223998   0.830   2.097   2.051  1.2134  1.9506 -1.4954
 8012TIP3   OH223999   2.457   3.144   1.379  0.8675  0.5634 -0.1622
 8012TIP3    H124000   2.545   3.174   1.400  0.6971  0.8503  0.1678
 8012TIP3    H224001   2.424   3.107   1.461  0.9169 -0.1383 -0.4557
 8013TIP3   OH224002   5.993   0.382   2.163  0.8667  0.3914  0.1497
 8013TIP3    H124003   5.986   0.352   2.072  1.9557 -1.2937  0.5666
 8013TIP3    H224004   5.982   0.477   2.159 -0.2791  0.2254 -1.5849
 8014TIP3   OH224005   0.050   0.362   5.678  0.2595  0.0702  0.6423
 8014TIP3    H124006   0.055   0.457   5.667  2.6076 -0.1483 -0.7407
 8014TIP3    H224007   0.059   0.348   5.772 -1.3999  1.2259  1.0229
 8015TIP3   OH224008   6.951   0.541   0.600  0.1473 -0.0747 -0.0902
 8015TIP3    H124009   7.004   0.481   0.653  0.0379 -0.0863  0.0043
 8015TIP3    H224010   6.894   0.586   0.663  1.1598  1.1158  0.0283
 8016TIP3   OH224011   0.533   5.579   0.331  0.3864  1.1507  0.3450
 8016TIP3    H124012   0.590   5.540   0.397  0.0688  1.3448  0.7386
 8016TIP3    H224013   0.455   5.606   0.379 -1.1249 -1.3034 -0.5591
 8017TIP3   OH224014   6.054   5.918   2.652  0.3225  0.4014  0.7486
 8017TIP3    H124015   5.978   5.918   2.594  1.4444  1.1434 -0.7890
 8017TIP3    H224016   6.054   6.004   2.693 -0.1903  0.0592  1.4684
 8018TIP3   OH224017   4.580   2.263   1.933  0.3327  0.6910 -0.7824
 8018TIP3    H124018   4.667   2.261   1.893  0.5473 -1.8161 -0.3453
 8018TIP3    H224019   4.527   2.208   1.875 -0.2729  0.0074  0.3999
 8019TIP3   OH224020   3.392   0.316   3.119  0.1276 -0.1279 -0.1213
 8019TIP3    H124021   3.375   0.266   3.039 -1.5414  1.8573 -1.0989
 8019TIP3    H224022   3.326   0.285   3.181  0.1797 -0.3087 -0.1551
 8020TIP3   OH224023   5.818   5.540   1.298 -0.5466 -0.4812  0.1634
 8020TIP3    H124024   5.901   5.577   1.329  0.1439 -2.8712  1.4419
 8020TIP3    H224025   5.833   5.522   1.205  0.3039 -0.7118  0.3398
 8021TIP3   OH224026   1.349   0.050   0.967 -0.1889  0.4010 -0.5736
 8021TIP3    H124027   1.440   0.020   0.973  0.0843  1.1118 -0.9911
 8021TIP3    H224028   1.298  -0.022   1.003  0.6634  0.7936  1.5649
 8022TIP3   OH224029   2.682   4.429   3.928 -0.0260  0.1817 -0.5627
 8022TIP3    H124030   2.653   4.347   3.888  1.2371 -0.5680  0.0328
 8022TIP3    H224031   2.648   4.426   4.017 -0.6812  0.7044 -0.7805
 8023TIP3   OH224032   5.029   2.669   0.552 -0.1333  0.7251 -0.3746
 8023TIP3    H124033   5.024   2.747   0.608  0.8514  1.2987 -1.0533
 8023TIP3    H224034   5.116   2.674   0.512  0.0658 -0.9115 -0.1897
 8024TIP3   OH224035   0.618   4.493   5.730 -0.3628 -0.2835 -0.4421
 8024TIP3    H124036   0.657   4.575   5.760  3.0286 -1.2949 -1.5917
 8024TIP3    H224037   0.597   4.508   5.638 -0.7474 -0.3871 -0.3734
 8025TIP3   OH224038   3.175   4.431   4.411 -0.3633 -0.2734  0.2041
 8025TIP3    H124039   3.114   4.406   4.481 -1.3181  1.3574  0.0005
 8025TIP3    H224040   3.237   4.490   4.453 -0.8859  0.6397 -0.2817
 8026TIP3   OH224041   2.328   0.921   4.557  0.4935  0.1438 -0.1422
 8026TIP3    H124042   2.295   0.888   4.641 -0.5680 -0.0032 -0.6136
 8026TIP3    H224043   2.312   1.016   4.561  1.5068  0.3178  0.2823
 8027TIP3   OH224044   6.922   3.549   1.973  0.2096  0.0449 -0.1309
 8027TIP3    H124045   6.954   3.513   1.890  1.0425 -1.1027  0.6593
 8027TIP3    H224046   6.827   3.546   1.965  0.0673 -4.3470  0.5923
 8028TIP3   OH224047   4.925   3.681   1.649 -0.1911  0.4596  0.2055
 8028TIP3    H124048   4.862   3.743   1.687 -2.8970 -2.5036  1.0257
 8028TIP3    H224049   4.871   3.606   1.624  2.7957 -1.3486 -1.3098
 8029TIP3   OH224050   2.342   5.920   3.789  0.5804 -0.3890  0.4567
 8029TIP3    H124051   2.286   5.874   3.851  1.2273 -1.2209  0.4442
 8029TIP3    H224052   2.370   5.999   3.835 -0.7590  0.1518  0.3795
 8030TIP3   OH224053   3.115   5.388   5.477  0.5306  0.0822  0.1278
 8030TIP3    H124054   3.133   5.456   5.412 -1.9425  0.7696  0.0602
 8030TIP3    H224055   3.156   5.419   5.557 -2.2773  2.9016  0.6940
 8031TIP3   OH224056   4.050   1.973   0.543 -0.0076  0.6909  0.2833
 8031TIP3    H124057   4.135   1.990   0.503  0.1314  1.7101  0.9676
 8031TIP3    H224058   4.070   1.939   0.631 -0.3133 -0.3379 -0.0283
 8032TIP3   OH224059   1.499   0.451   3.712 -0.1770 -0.2946  0.7126
 8032TIP3    H124060   1.473   0.359   3.723  1.9448 -1.2489 -1.3902
 8032TIP3    H224061   1.523   0.458   3.619  1.4109  1.9409  1.2195
 8033TIP3   OH224062   6.135   5.241   1.373 -0.1279  0.4270  0.3175
 8033TIP3    H124063   6.209   5.275   1.422 -0.6743  0.2162  1.3245
 8033TIP3    H224064   6.117   5.155   1.412 -0.6816  0.3229 -0.1421
 8034TIP3   OH224065   2.565   2.301   2.866 -0.1501 -0.0095 -0.4472
 8034TIP3    H124066   2.542   2.208   2.865 -1.6462  0.3373 -0.7737
 8034TIP3    H224067   2.562   2.324   2.959  0.8352 -0.4068 -0.3009
 8035TIP3   OH224068   1.654   2.467   1.971  0.3380  0.7414 -0.3937
 8035TIP3    H124069   1.630   2.532   1.904 -0.5781  0.1287 -0.6796
 8035TIP3    H224070   1.629   2.507   2.054  4.0454  2.7229 -0.0616
 8036TIP3   OH224071   1.163   4.384   5.762  0.1584  0.2148 -0.2416
 8036TIP3    H124072   1.142   4.291   5.767  0.5234  0.1534  0.2349
 8036TIP3    H224073   1.197   4.406   5.849  0.9545  0.5790 -0.6394
 8037TIP3   OH224074   4.836   4.515   0.547 -0.3191  0.0854 -0.0637
 8037TIP3    H124075   4.873   4.602   0.565  1.1791 -0.5738  0.2247
 8037TIP3    H224076   4.772   4.502   0.617 -0.2484  0.7869  0.1431
 8038TIP3   OH224077   5.447   2.503   0.668 -0.2726  0.2476  0.5062
 8038TIP3    H124078   5.503   2.530   0.740  1.0680 -1.9988  0.3843
 8038TIP3    H224079   5.384   2.443   0.708 -0.4328  0.1196  0.0659
 8039TIP3   OH224080   0.586   2.358   2.027 -0.0363 -0.0005 -0.5558
 8039TIP3    H124081   0.648   2.285   2.016 -0.4367 -0.2206 -1.4020
 8039TIP3    H224082   0.528   2.352   1.951 -1.8012 -0.4617  0.7726
 8040TIP3   OH224083   6.618   6.055   3.564  0.5855  0.2977 -0.0717
 8040TIP3    H124084   6.568   6.089   3.490  2.1271 -0.4972 -1.5492
 8040TIP3    H224085   6.681   6.124   3.585 -0.8790  1.2068  1.6455
 8041TIP3   OH224086   2.469   2.022   2.965  0.5623  0.0874  0.1636
 8041TIP3    H124087   2.491   1.930   2.953  0.0210  0.0516 -0.6494
 8041TIP3    H224088   2.495   2.042   3.055 -0.1061 -1.0887  0.6400
 8042TIP3   OH224089   1.964   4.018   1.258  0.5031 -0.1008 -0.0431
 8042TIP3    H124090   2.052   3.983   1.241  0.4185 -1.0666  1.2794
 8042TIP3    H224091   1.978   4.112   1.271  0.8412  0.3412 -3.0373
 8043TIP3   OH224092   3.855   5.515   4.063  0.4779 -0.5601 -0.5558
 8043TIP3    H124093   3.887   5.446   4.121 -1.1687 -0.9198 -0.0261
 8043TIP3    H224094   3.833   5.469   3.982  0.2489 -0.5190 -0.5191
 8044TIP3   OH224095   6.176   5.429   4.316 -0.0207  0.8165 -0.0018
 8044TIP3    H124096   6.162   5.515   4.355  1.1440  1.9200 -1.8750
 8044TIP3    H224097   6.153   5.440   4.224  1.4801 -0.4805 -0.5767
 8045TIP3   OH224098   0.217   5.167   4.571  0.0172 -0.0214 -0.3896
 8045TIP3    H124099   0.210   5.117   4.653  0.3137 -2.3967 -1.7410
 8045TIP3    H224100   0.136   5.149   4.524  0.7058 -0.3302 -1.4930
 8046TIP3   OH224101   1.905   1.567   2.339 -0.4746  0.5112 -0.0632
 8046TIP3    H124102   1.976   1.522   2.293 -1.2031 -1.3912  0.5738
 8046TIP3    H224103   1.883   1.641   2.283  1.2125  0.4732 -0.8392
 8047TIP3   OH224104   3.981   3.386   4.402 -0.2634  0.6432  0.2902
 8047TIP3    H124105   3.993   3.319   4.469  0.4746 -0.6147 -1.0429
 8047TIP3    H224106   4.057   3.443   4.412  0.4199 -0.1648 -0.1416
 8048TIP3   OH224107   1.005   2.345   4.835 -0.0759  0.1604 -0.0666
 8048TIP3    H124108   1.074   2.374   4.894  1.0767  1.3956 -1.9341
 8048TIP3    H224109   0.961   2.426   4.808 -0.2962 -0.3409 -1.2427
 8049TIP3   OH224110   5.736   1.708   1.182  0.0866  0.0578  0.3427
 8049TIP3    H124111   5.716   1.788   1.231  1.6917 -0.3358  1.7260
 8049TIP3    H224112   5.780   1.739   1.103 -1.3971  0.6307 -0.2998
 8050TIP3   OH224113   6.384   1.229   1.627  0.0335  0.5242  0.0733
 8050TIP3    H124114   6.399   1.180   1.708 -0.2864 -0.8264 -0.6537
 8050TIP3    H224115   6.305   1.280   1.644  1.5663  2.5780  1.6144
 8051TIP3   OH224116   3.236   2.432   3.432 -0.2095  0.6771 -0.4167
 8051TIP3    H124117   3.274   2.347   3.452  0.0872  0.5362 -1.5553
 8051TIP3    H224118   3.295   2.495   3.475 -1.0491  0.2915  1.3817
 8052TIP3   OH224119   2.308   6.706   3.551 -0.2813 -0.2002 -0.1737
 8052TIP3    H124120   2.280   6.781   3.603  0.6716 -0.3816  0.6168
 8052TIP3    H224121   2.380   6.739   3.498  0.0926 -0.5406  0.1231
 8053TIP3   OH224122   1.228   4.502   2.368 -0.0581 -0.0729  0.0495
 8053TIP3    H124123   1.133   4.500   2.360  0.0371  0.7070 -1.6384
 8053TIP3    H224124   1.248   4.594   2.389  0.4949  0.7393 -3.4124
 8054TIP3   OH224125   2.464   4.219   2.307 -0.4143  0.0787  0.4541
 8054TIP3    H124126   2.395   4.286   2.306 -0.5477  0.0033 -2.1362
 8054TIP3    H224127   2.423   4.144   2.350 -1.5450  0.4555  0.0861
 8055TIP3   OH224128   7.128   1.432   0.868  1.0157  0.1611  0.9127
 8055TIP3    H124129   7.185   1.425   0.791  0.5065  0.2672  0.5206
 8055TIP3    H224130   7.178   1.484   0.930  1.7363 -0.5485  0.9362
 8056TIP3   OH224131   2.850   4.715   2.224  0.0769  0.3849 -0.3767
 8056TIP3    H124132   2.829   4.622   2.231 -1.8015  0.6606 -1.6205
 8056TIP3    H224133   2.809   4.755   2.300 -0.0047  0.3211 -0.3869
 8057TIP3   OH224134   1.400   5.830   2.867  0.5314  0.2017 -0.1068
 8057TIP3    H124135   1.368   5.760   2.810 -0.5633  0.0690  0.6237
 8057TIP3    H224136   1.410   5.906   2.810 -1.8610  0.4557 -0.2917
 8058TIP3   OH224137   3.940   1.689   2.941 -0.3460  0.5512  0.2735
 8058TIP3    H124138   3.997   1.648   2.876  0.8033  2.3445  0.0811
 8058TIP3    H224139   3.961   1.644   3.023  1.6535  1.3889  0.2781
 8059TIP3   OH224140   5.787   3.296   0.091 -0.2915  0.6072  0.0416
 8059TIP3    H124141   5.697   3.311   0.062  0.0469  1.6226 -0.5045
 8059TIP3    H224142   5.780   3.288   0.186 -1.3162 -2.0453 -0.1617
 8060TIP3   OH224143   6.178   1.693   1.472 -0.1187  0.2209  0.1481
 8060TIP3    H124144   6.126   1.636   1.528 -0.7767  0.0303 -0.6376
 8060TIP3    H224145   6.149   1.782   1.494 -1.2602  0.0857 -0.7358
 8061TIP3   OH224146   6.309   5.935   5.148  0.4859  0.4106  0.7350
 8061TIP3    H124147   6.336   6.009   5.094 -1.3887  1.9167  1.7284
 8061TIP3    H224148   6.214   5.944   5.156  0.3457 -1.4325  1.8693
 8062TIP3   OH224149   5.293   2.230   1.268 -0.0981  0.0406  0.1282
 8062TIP3    H124150   5.244   2.210   1.348  0.5878  2.4687  1.2276
 8062TIP3    H224151   5.384   2.211   1.290  0.2228  1.6926  0.3114
 8063TIP3   OH224152   1.017   2.363   5.753  0.1823 -0.1079  0.3068
 8063TIP3    H124153   0.970   2.330   5.676  0.2287 -0.8930  0.6075
 8063TIP3    H224154   0.998   2.457   5.754  1.0143  0.1089 -1.2567
 8064TIP3   OH224155   4.967   6.254   4.939  0.2981  0.1465 -0.2958
 8064TIP3    H124156   4.879   6.218   4.953 -0.0280  1.1228  0.2864
 8064TIP3    H224157   4.952   6.335   4.891  0.7230  1.1053  1.1202
 8065TIP3   OH224158   3.148   6.465   3.185  0.1596 -0.3967  0.3939
 8065TIP3    H124159   3.206   6.512   3.245  0.9396  0.4257 -0.9647
 8065TIP3    H224160   3.206   6.403   3.140  0.2070  0.9422 -1.5119
 8066TIP3   OH224161   2.556   4.740   3.980  0.0019 -0.0385  0.0272
 8066TIP3    H124162   2.469   4.737   4.020  0.2989  0.0360  0.6961
 8066TIP3    H224163   2.583   4.648   3.974 -0.1538 -0.0651 -0.2457
 8067TIP3   OH224164   6.445   4.797   4.142  0.0573  0.3127  0.4104
 8067TIP3    H124165   6.406   4.880   4.116 -0.0145 -0.4438 -2.2545
 8067TIP3    H224166   6.388   4.764   4.212 -1.4957  1.2938 -0.3313
 8068TIP3   OH224167   2.543   6.752   3.398 -0.2552  0.3759  0.3666
 8068TIP3    H124168   2.602   6.751   3.473  0.2975  0.6989 -0.0563
 8068TIP3    H224169   2.548   6.663   3.362 -1.9349 -0.3560  1.7716
 8069TIP3   OH224170   4.715   5.694   0.287 -0.6160 -0.7787 -0.0007
 8069TIP3    H124171   4.718   5.605   0.252 -0.3694 -0.5853 -0.4772
 8069TIP3    H224172   4.801   5.707   0.328  0.6584  0.3514 -2.7393
 8070TIP3   OH224173   5.864   4.299   2.971  0.2180  0.9880 -0.0730
 8070TIP3    H124174   5.868   4.330   2.880 -1.8681 -1.0275 -0.9521
 8070TIP3    H224175   5.779   4.331   3.003 -0.4255 -0.8029  0.1093
 8071TIP3   OH224176   7.084   4.155   4.950  0.0737 -0.2151 -0.1447
 8071TIP3    H124177   7.173   4.144   4.915 -0.0075  1.7268 -1.0784
 8071TIP3    H224178   7.056   4.241   4.919 -1.4919 -0.0297  1.5915
 8072TIP3   OH224179   4.483   5.255   1.274  0.1090 -0.0255 -0.9951
 8072TIP3    H124180   4.489   5.283   1.183 -0.2877  1.6483 -0.5447
 8072TIP3    H224181   4.537   5.176   1.279  1.3596  0.6929 -2.3573
 8073TIP3   OH224182   6.970   4.769   2.346 -0.1033 -0.0206 -0.7224
 8073TIP3    H124183   6.877   4.784   2.366  0.1067  0.5702 -0.1315
 8073TIP3    H224184   7.016   4.830   2.403  0.6146  0.3301 -1.6505
 8074TIP3   OH224185   3.555   1.320   0.750 -0.0504  0.0822 -0.4854
 8074TIP3    H124186   3.575   1.392   0.810  0.0262  0.7193 -1.2452
 8074TIP3    H224187   3.476   1.348   0.704 -0.3261 -0.5645 -0.4127
 8075TIP3   OH224188   7.030   6.162   1.953 -0.1468 -0.5077  0.4892
 8075TIP3    H124189   7.033   6.071   1.979 -0.4216 -0.9867 -1.0282
 8075TIP3    H224190   6.951   6.169   1.900 -0.8182  0.9190  1.6062
 8076TIP3   OH224191   4.814   0.338   3.614  0.2292  0.3628 -0.3950
 8076TIP3    H124192   4.782   0.412   3.563  0.2274 -0.8783 -2.3117
 8076TIP3    H224193   4.909   0.349   3.615  0.2302  0.3947 -0.7017
 8077TIP3   OH224194   0.813   4.303   2.865 -0.1282  0.1755  0.2242
 8077TIP3    H124195   0.806   4.208   2.880  1.1083  0.1867  0.9738
 8077TIP3    H224196   0.799   4.313   2.771 -2.3657 -0.5045  0.4212
 8078TIP3   OH224197   0.555   6.748   2.087 -0.4782  0.4491 -0.1969
 8078TIP3    H124198   0.572   6.681   2.154 -0.8457 -1.5707 -2.0322
 8078TIP3    H224199   0.460   6.757   2.086 -0.5282 -0.0705 -0.9181
 8079TIP3   OH224200   5.801   3.898   5.278  0.4765 -0.1191  0.3607
 8079TIP3    H124201   5.778   3.976   5.228 -0.9022 -1.3051 -0.9804
 8079TIP3    H224202   5.853   3.930   5.351  0.2122  2.0017 -0.3194
 8080TIP3   OH224203   2.762   2.553   4.856  0.5788  0.2864 -0.3048
 8080TIP3    H124204   2.679   2.525   4.817 -1.0591  1.0486  2.3934
 8080TIP3    H224205   2.747   2.643   4.883  2.0577  0.2286  0.8564
 8081TIP3   OH224206   1.598   4.297   2.850 -0.1688 -0.2532  0.0435
 8081TIP3    H124207   1.648   4.237   2.905 -0.7532 -1.1107 -0.3415
 8081TIP3    H224208   1.536   4.241   2.803 -2.1847  0.8562  1.2246
 8082TIP3   OH224209   4.892   1.563   4.953  0.6058 -0.0933  0.0816
 8082TIP3    H124210   4.807   1.543   4.994  1.3155 -1.1981  1.0890
 8082TIP3    H224211   4.897   1.658   4.952 -1.0191  0.0214 -0.8036
 8083TIP3   OH224212   1.029   0.343   2.509 -0.8382 -0.6858 -0.0335
 8083TIP3    H124213   1.059   0.295   2.432  1.6706 -1.1956  1.1340
 8083TIP3    H224214   0.994   0.275   2.567 -0.6203 -0.6250  0.1715
 8084TIP3   OH224215   4.568   5.499   4.641 -0.5354 -0.3607 -0.3404
 8084TIP3    H124216   4.517   5.444   4.700  1.0488 -1.6911 -0.1328
 8084TIP3    H224217   4.649   5.451   4.627  1.3355  2.2770  0.5442
 8085TIP3   OH224218   3.940   2.201   3.297  0.1114 -0.2773  0.3606
 8085TIP3    H124219   3.943   2.110   3.270  0.3388  0.1002 -0.9922
 8085TIP3    H224220   3.953   2.250   3.216 -1.2912  0.9690  0.8370
 8086TIP3   OH224221   6.810   3.889   4.014 -0.2044  0.1325 -0.7227
 8086TIP3    H124222   6.821   3.794   4.008 -0.3344  0.1070 -0.5682
 8086TIP3    H224223   6.900   3.923   4.014 -0.1663  0.0506 -1.3660
 8087TIP3   OH224224   5.946   5.407   4.782 -0.2801 -0.1718  0.9613
 8087TIP3    H124225   6.032   5.436   4.814  0.5583 -1.0621 -0.4112
 8087TIP3    H224226   5.898   5.488   4.765  0.4011  0.3359  1.4258
 8088TIP3   OH224227   1.577   5.613   0.733 -0.0791 -0.0817  0.4471
 8088TIP3    H124228   1.645   5.623   0.667 -0.6264  0.1869 -0.0849
 8088TIP3    H224229   1.622   5.577   0.809  0.9871  1.6289  0.6691
 8089TIP3   OH224230   3.579   1.938   4.165  0.0339 -0.3289  0.4083
 8089TIP3    H124231   3.630   1.883   4.106  0.0041  0.6092 -0.5245
 8089TIP3    H224232   3.511   1.881   4.200 -1.1215 -0.4850 -1.9103
 8090TIP3   OH224233   3.201   5.715   1.524 -0.2635 -0.4820  0.4143
 8090TIP3    H124234   3.232   5.631   1.489 -1.4469 -1.1844  0.9905
 8090TIP3    H224235   3.115   5.695   1.559  0.2017  0.5566  2.2429
 8091TIP3   OH224236   3.770   4.390   2.397  0.1334 -0.0135 -0.3844
 8091TIP3    H124237   3.743   4.465   2.449 -0.6603 -0.7993  0.3473
 8091TIP3    H224238   3.819   4.428   2.324  0.1106  1.1800  0.2099
 8092TIP3   OH224239   0.408   0.868   3.270  0.2724 -0.0798 -0.0774
 8092TIP3    H124240   0.462   0.946   3.269 -1.5524  1.2604 -0.3169
 8092TIP3    H224241   0.406   0.841   3.362  1.9688 -0.6610 -0.1875
 8093TIP3   OH224242   2.796   4.625   0.461  0.0835 -0.3873 -0.1450
 8093TIP3    H124243   2.770   4.586   0.378  0.4884 -0.9079 -0.0320
 8093TIP3    H224244   2.879   4.583   0.482 -0.4611 -0.9345  0.9720
 8094TIP3   OH224245   0.066   1.375   4.558  0.5465 -0.6720 -0.5983
 8094TIP3    H124246   0.142   1.417   4.597  1.2336 -2.8616  0.5692
 8094TIP3    H224247   0.100   1.295   4.519 -0.9371 -0.9634 -1.3672
 8095TIP3   OH224248   6.253   0.466   5.712 -0.1552 -0.8138 -0.5135
 8095TIP3    H124249   6.279   0.554   5.740  0.9254 -1.6638  1.3251
 8095TIP3    H224250   6.157   0.468   5.711 -0.1426  0.4441 -0.7697
 8096TIP3   OH224251   3.298   6.796   2.640  0.5054 -0.2795 -0.4443
 8096TIP3    H124252   3.283   6.704   2.616 -0.2292 -0.1942 -0.3290
 8096TIP3    H224253   3.215   6.839   2.622 -0.6070 -0.4345  3.3622
 8097TIP3   OH224254   2.828   6.089   3.032 -1.1201  0.3131 -0.5715
 8097TIP3    H124255   2.895   6.021   3.040 -2.3032 -0.7939  0.4418
 8097TIP3    H224256   2.850   6.136   2.952  1.7217  0.9726  0.4597
 8098TIP3   OH224257   0.327   0.237   0.442  0.0281 -0.2296 -0.0577
 8098TIP3    H124258   0.400   0.178   0.458  1.4923  1.1555 -1.3667
 8098TIP3    H224259   0.327   0.251   0.347 -1.7161  0.1144 -0.0552
 8099TIP3   OH224260   2.633   4.402   2.429 -0.3231  0.1049 -0.1427
 8099TIP3    H124261   2.581   4.324   2.409 -0.9420  0.5581 -0.3258
 8099TIP3    H224262   2.653   4.441   2.344  0.3915 -0.1095 -0.0785
 8100TIP3   OH224263   5.944   2.170   4.962  0.0739  0.5592 -0.0394
 8100TIP3    H124264   5.885   2.196   5.033 -0.0757  0.3495 -0.0868
 8100TIP3    H224265   6.030   2.202   4.989 -0.0812  0.9739 -0.0250
 8101TIP3   OH224266   6.337   2.130   0.241  0.1624  0.2548  0.5528
 8101TIP3    H124267   6.361   2.054   0.295 -0.1167 -0.6498 -0.5503
 8101TIP3    H224268   6.421   2.162   0.206  0.1499 -0.6957 -0.4270
 8102TIP3   OH224269   2.232   6.312   2.386  0.2145  0.3894  0.3839
 8102TIP3    H124270   2.285   6.381   2.427 -2.2906  2.0470  1.0594
 8102TIP3    H224271   2.177   6.280   2.457  0.2232 -1.2185 -0.3079
 8103TIP3   OH224272   5.320   4.189   3.459 -0.2356  0.4253 -0.0823
 8103TIP3    H124273   5.384   4.198   3.388 -1.1001 -1.6486 -1.2242
 8103TIP3    H224274   5.236   4.212   3.419 -0.5954  0.3169  0.5888
 8104TIP3   OH224275   6.851   4.165   3.122 -0.2956 -0.1095 -0.4496
 8104TIP3    H124276   6.880   4.201   3.038  0.8626  0.7441  0.2847
 8104TIP3    H224277   6.759   4.144   3.108 -0.4150  1.0356 -1.6234
 8105TIP3   OH224278   0.418   4.799   1.156 -0.5208 -0.7667  0.1636
 8105TIP3    H124279   0.511   4.794   1.135 -0.6470 -1.5594 -0.2032
 8105TIP3    H224280   0.376   4.739   1.096 -1.3839  0.2572 -0.2793
 8106TIP3   OH224281   1.086   5.505   5.327  0.4105 -1.2958  0.0106
 8106TIP3    H124282   1.109   5.530   5.237  0.2977 -0.4195  0.2200
 8106TIP3    H224283   1.057   5.414   5.319  1.8345 -1.7337 -0.6068
 8107TIP3   OH224284   6.206   3.067   4.620  0.3202  0.0383  0.6011
 8107TIP3    H124285   6.173   3.055   4.531  0.8287 -1.5968  0.5854
 8107TIP3    H224286   6.262   3.144   4.615  2.4975 -1.5296 -1.1957
 8108TIP3   OH224287   2.287   6.355   1.599 -0.3216  0.5152 -0.1805
 8108TIP3    H124288   2.215   6.300   1.630  0.1203 -0.2615 -0.5116
 8108TIP3    H224289   2.280   6.435   1.651 -0.2054 -0.3579  1.2338
 8109TIP3   OH224290   4.752   3.614   0.783 -0.8025  0.1314 -0.2873
 8109TIP3    H124291   4.824   3.551   0.775 -0.5054  0.1566  1.6724
 8109TIP3    H224292   4.761   3.649   0.871 -2.7570  0.7355 -0.2840
 8110TIP3   OH224293   3.348   2.175   3.589  0.6247  0.1269  0.1322
 8110TIP3    H124294   3.370   2.268   3.594 -0.4108  0.4679 -1.0334
 8110TIP3    H224295   3.419   2.131   3.635 -0.3891  1.6510  3.4543
 8111TIP3   OH224296   0.978   0.858   3.979 -0.5248  0.2243 -0.1071
 8111TIP3    H124297   1.008   0.827   3.893 -0.0180 -0.9669  0.4848
 8111TIP3    H224298   1.028   0.939   3.993  1.1184 -0.7532  0.0395
 8112TIP3   OH224299   5.258   1.290   5.587 -0.4208 -0.5454 -0.3446
 8112TIP3    H124300   5.168   1.260   5.572  0.1423 -2.8445  0.3617
 8112TIP3    H224301   5.312   1.212   5.571  1.4892  0.8354 -0.9599
 8113TIP3   OH224302   2.068   0.031   1.467 -0.5308 -0.0110 -0.6100
 8113TIP3    H124303   2.061   0.082   1.386 -0.6412  2.7079  0.9903
 8113TIP3    H224304   2.094  -0.057   1.438  0.5289  1.1352 -3.4884
 8114TIP3   OH224305   1.989   4.814   4.585 -0.0627  0.3185 -0.5845
 8114TIP3    H124306   2.061   4.796   4.646 -0.3487  0.4581 -0.1978
 8114TIP3    H224307   1.912   4.818   4.641 -0.1485  1.7727 -0.7832
 8115TIP3   OH224308   2.235   0.392   2.776  0.0658  0.3693  0.1090
 8115TIP3    H124309   2.161   0.452   2.780 -0.2505  0.0970 -1.2754
 8115TIP3    H224310   2.226   0.337   2.854 -1.4585  0.0401 -0.2746
 8116TIP3   OH224311   2.776   1.226   0.852 -0.0741 -0.2355 -0.3765
 8116TIP3    H124312   2.823   1.179   0.921  0.1283  0.4795 -0.0172
 8116TIP3    H224313   2.844   1.255   0.792 -0.1355  0.1304 -0.2699
 8117TIP3   OH224314   2.496  -0.023   4.721  0.4514 -0.6759  0.0670
 8117TIP3    H124315   2.591  -0.009   4.727  0.1158  1.4096  1.7160
 8117TIP3    H224316   2.467   0.041   4.656 -0.0216 -0.1021  0.8374
 8118TIP3   OH224317   0.172   0.533   1.526  0.8847  0.0791  0.1612
 8118TIP3    H124318   0.090   0.577   1.503  2.8108  2.7458 -2.1754
 8118TIP3    H224319   0.183   0.550   1.620 -1.7743 -1.5084  0.8700
 8119TIP3   OH224320   1.192   5.341   4.179 -0.1631 -0.7977 -0.2229
 8119TIP3    H124321   1.223   5.360   4.267  1.5170 -0.7040 -0.7918
 8119TIP3    H224322   1.228   5.411   4.125 -0.4176 -1.3330 -1.1232
 8120TIP3   OH224323   6.698   0.312   4.342  0.5946 -0.0457 -0.1463
 8120TIP3    H124324   6.659   0.347   4.262  1.3752 -0.3280 -0.6634
 8120TIP3    H224325   6.788   0.290   4.317  0.0002 -3.0094 -0.0223
 8121TIP3   OH224326   0.122   5.094   2.839 -0.1586 -0.1998 -0.3225
 8121TIP3    H124327   0.129   5.174   2.891  0.2178  0.0645 -0.7764
 8121TIP3    H224328   0.209   5.081   2.804 -0.9270  0.9609 -2.8575
 8122TIP3   OH224329   2.145   2.718   4.098  0.3648  0.4272  0.3784
 8122TIP3    H124330   2.228   2.671   4.111 -0.2077 -0.4010  1.2002
 8122TIP3    H224331   2.123   2.702   4.007  1.0345  0.5223  0.1949
 8123TIP3   OH224332   5.966   3.675   5.807 -0.0865  0.1675 -0.7114
 8123TIP3    H124333   6.034   3.720   5.857 -1.6391  1.9129 -0.0498
 8123TIP3    H224334   5.987   3.694   5.715  0.7953 -0.1010 -0.5802
 8124TIP3   OH224335   0.515   5.716   0.760  0.0884  0.3807  0.2866
 8124TIP3    H124336   0.455   5.654   0.801 -0.2382  0.0507 -0.6467
 8124TIP3    H224337   0.474   5.802   0.772 -0.3328  0.2106  0.0665
 8125TIP3   OH224338   1.764   6.095   3.311 -0.3646  0.5038  0.6494
 8125TIP3    H124339   1.725   6.164   3.364  0.1169 -0.5494  2.4763
 8125TIP3    H224340   1.699   6.025   3.311 -0.5689  0.6802 -0.6156
 8126TIP3   OH224341   5.962   4.941   0.194  0.3405  0.2034 -0.1072
 8126TIP3    H124342   5.965   4.881   0.120  0.9543  0.1163 -0.0150
 8126TIP3    H224343   6.044   4.990   0.190  0.5535 -0.0662  0.7293
 8127TIP3   OH224344   4.865   4.974   3.114 -0.2204  0.5310  0.1938
 8127TIP3    H124345   4.817   4.994   3.034 -0.4157  0.6038  0.3294
 8127TIP3    H224346   4.826   4.892   3.145 -1.5089  1.5174  1.2837
 8128TIP3   OH224347   5.435   5.982   2.152 -0.1968 -0.3770 -0.0470
 8128TIP3    H124348   5.505   6.040   2.123  0.1176 -1.3919 -1.3985
 8128TIP3    H224349   5.357   6.038   2.154  0.2548  0.2913 -0.5091
 8129TIP3   OH224350   4.964   0.131   1.219 -0.0527  0.6343  0.0350
 8129TIP3    H124351   4.949   0.157   1.310 -0.9369  0.3517 -0.0282
 8129TIP3    H224352   4.909   0.054   1.206  0.7280  0.1472 -0.4875
 8130TIP3   OH224353   6.631   4.439   2.379  0.4133  0.5055  0.6446
 8130TIP3    H124354   6.654   4.354   2.343 -0.9408  0.9175 -1.3177
 8130TIP3    H224355   6.707   4.495   2.360  0.8189  0.0427  0.8880
 8131TIP3   OH224356   4.987   1.370   4.270  0.4870  0.4242  0.3735
 8131TIP3    H124357   4.990   1.276   4.254 -1.4225  0.2287  0.9431
 8131TIP3    H224358   5.039   1.408   4.198  0.5539 -0.9993 -0.3615
 8132TIP3   OH224359   1.836   0.659   5.042  0.4204 -0.3191 -0.4592
 8132TIP3    H124360   1.931   0.657   5.028  0.8571  1.4026  1.6155
 8132TIP3    H224361   1.809   0.568   5.037  2.5068 -1.0582  0.5523
 8133TIP3   OH224362   3.491   4.367   1.275  0.2144  0.3805 -0.0412
 8133TIP3    H124363   3.582   4.339   1.286 -0.5365 -2.1521  0.2514
 8133TIP3    H224364   3.468   4.339   1.187 -0.9396 -1.2201  0.7083
 8134TIP3   OH224365   1.513   0.351   4.103  0.2610  0.2577  0.0097
 8134TIP3    H124366   1.474   0.307   4.179  0.5631 -0.6287 -0.3440
 8134TIP3    H224367   1.512   0.285   4.034  3.5330 -0.2794  0.3134
 8135TIP3   OH224368   7.167   5.012   3.597 -0.4973 -0.1664 -0.5138
 8135TIP3    H124369   7.243   5.025   3.541  1.3435 -0.1106  1.8520
 8135TIP3    H224370   7.138   4.923   3.577  0.7812 -0.5386 -0.8225
 8136TIP3   OH224371   6.004   5.154   0.568 -0.5731 -0.5142  0.3061
 8136TIP3    H124372   6.000   5.143   0.663  0.3019 -1.6644  0.2403
 8136TIP3    H224373   6.094   5.129   0.545 -0.9844 -0.9694 -0.8995
 8137TIP3   OH224374   4.897   2.739   3.261 -0.5331 -0.0736 -0.3268
 8137TIP3    H124375   4.833   2.787   3.208  0.6663  0.9887 -0.8420
 8137TIP3    H224376   4.919   2.662   3.207  0.2008  0.6667 -1.1101
 8138TIP3   OH224377   1.735   2.018   5.479 -0.0959  0.0460 -0.1550
 8138TIP3    H124378   1.720   1.949   5.415 -0.3416 -1.3938  1.3967
 8138TIP3    H224379   1.828   2.038   5.473 -0.1157 -0.0597 -0.9322
 8139TIP3   OH224380   2.192   3.612   1.801 -0.4614  0.2627  0.5001
 8139TIP3    H124381   2.178   3.541   1.864  1.7331  0.1280  0.9439
 8139TIP3    H224382   2.190   3.569   1.715  0.4413 -0.3085  0.7456
 8140TIP3   OH224383   2.980   6.250   0.619  0.7824  0.0449  0.3433
 8140TIP3    H124384   3.018   6.246   0.707  0.8454 -0.4963  0.2926
 8140TIP3    H224385   2.888   6.272   0.634  0.8490  0.2030  0.5296
 8141TIP3   OH224386   0.740   6.061   0.189 -0.0473 -0.2784 -0.2739
 8141TIP3    H124387   0.743   6.025   0.100 -1.5146  0.8976 -0.8480
 8141TIP3    H224388   0.656   6.033   0.224  0.3006 -0.3071  0.5760
 8142TIP3   OH224389   6.600   6.695   0.751  0.4200 -0.1694 -0.1254
 8142TIP3    H124390   6.620   6.620   0.807 -0.8838  0.8325  1.7740
 8142TIP3    H224391   6.584   6.767   0.812 -0.7551  1.0585 -1.7933
 8143TIP3   OH224392   6.341   1.598   4.192  0.0517  0.1358  0.3562
 8143TIP3    H124393   6.403   1.530   4.166  0.1545  0.2549  0.2914
 8143TIP3    H224394   6.385   1.681   4.171 -0.2403  0.2160  0.0625
 8144TIP3   OH224395   5.465   3.120   1.259  0.4157  0.4723  0.4023
 8144TIP3    H124396   5.525   3.078   1.196  1.1495 -0.1705  1.4937
 8144TIP3    H224397   5.421   3.047   1.302  0.0830  0.9030  0.8019
 8145TIP3   OH224398   2.572   4.420   1.481 -0.1728 -0.1464  0.0435
 8145TIP3    H124399   2.609   4.508   1.489 -1.1715  0.2050  1.1486
 8145TIP3    H224400   2.504   4.416   1.548 -0.8548 -1.4128 -0.6736
 8146TIP3   OH224401   1.575   2.329   0.726  0.5488  0.0001  0.1113
 8146TIP3    H124402   1.530   2.356   0.806  1.7431  0.9439  0.4884
 8146TIP3    H224403   1.581   2.234   0.733  1.5826  0.1477  1.6690
 8147TIP3   OH224404   2.278   1.894   0.955 -0.0645 -0.1480  0.1604
 8147TIP3    H124405   2.234   1.810   0.971 -0.0095 -0.0885  0.6482
 8147TIP3    H224406   2.209   1.960   0.964  0.4840  0.1765  3.3761
 8148TIP3   OH224407   5.521   2.289   2.975 -0.1230  0.1604 -0.3450
 8148TIP3    H124408   5.440   2.311   2.929 -0.6754 -2.1978 -0.6186
 8148TIP3    H224409   5.570   2.236   2.913 -0.2716 -1.9427  1.2297
 8149TIP3   OH224410   2.639   4.709   3.207  0.0982 -0.2534  0.6106
 8149TIP3    H124411   2.559   4.667   3.237 -0.2509  0.7381  1.0928
 8149TIP3    H224412   2.669   4.654   3.134 -1.8587  0.2117 -0.6268
 8150TIP3   OH224413   2.996   0.554   1.931  0.1549 -0.1720  0.2646
 8150TIP3    H124414   3.058   0.582   1.998 -1.0577  1.0379  0.9410
 8150TIP3    H224415   2.917   0.529   1.979 -0.3637 -0.3473 -0.6365
 8151TIP3   OH224416   3.554   0.488   5.741  0.3098 -0.0951  0.2316
 8151TIP3    H124417   3.524   0.564   5.691  1.3385  2.3057  3.0578
 8151TIP3    H224418   3.639   0.466   5.703  0.4458  0.7814  0.0135
 8152TIP3   OH224419   2.478   0.480   0.951 -0.6762  0.0978  0.3177
 8152TIP3    H124420   2.536   0.550   0.981 -0.0288 -0.0574 -0.5353
 8152TIP3    H224421   2.505   0.404   1.002  0.1287 -0.0603 -0.3294
 8153TIP3   OH224422   1.544   4.522   2.700  0.0294  1.1296  0.2727
 8153TIP3    H124423   1.525   4.481   2.616 -0.6334 -0.5711  1.2072
 8153TIP3    H224424   1.559   4.449   2.760 -0.1595  2.2760  1.7860
 8154TIP3   OH224425   2.573   5.998   3.294 -0.1650 -0.2009  0.1197
 8154TIP3    H124426   2.542   5.998   3.384 -0.1572 -0.4873  0.1231
 8154TIP3    H224427   2.524   6.069   3.252 -0.3395 -0.2197  0.2895
 8155TIP3   OH224428   4.651   6.423   0.539  0.4041 -0.1377 -0.1312
 8155TIP3    H124429   4.701   6.373   0.604  0.7869 -0.0703 -0.3696
 8155TIP3    H224430   4.694   6.403   0.456 -0.2198 -0.3953 -0.3898
 8156TIP3   OH224431   4.844   2.270   3.777 -0.1790  0.0477 -0.0842
 8156TIP3    H124432   4.834   2.180   3.807 -1.9232  0.4557  0.7337
 8156TIP3    H224433   4.788   2.277   3.700  1.2366  0.0310 -1.1448
 8157TIP3   OH224434   0.169   0.957   0.110  0.0700 -0.2970 -0.6235
 8157TIP3    H124435   0.225   0.971   0.187 -0.7308 -0.8398  0.0739
 8157TIP3    H224436   0.200   0.875   0.072  0.3713 -0.1029 -0.8002
 8158TIP3   OH224437   3.349   3.232   2.237 -0.6923  0.8323 -0.0896
 8158TIP3    H124438   3.299   3.283   2.301  0.6453  0.3929  1.3790
 8158TIP3    H224439   3.391   3.297   2.182  0.5205  1.3578  1.3820
 8159TIP3   OH224440   6.996   3.650   3.736  0.1659 -0.1975 -0.3309
 8159TIP3    H124441   6.944   3.677   3.660  1.1648 -0.2119 -1.0376
 8159TIP3    H224442   6.943   3.581   3.777 -0.0309 -0.7599 -1.4726
 8160TIP3   OH224443   5.670   6.502   3.741  0.1260  0.7770 -0.4274
 8160TIP3    H124444   5.687   6.589   3.777  0.1146  0.7639 -0.3900
 8160TIP3    H224445   5.753   6.456   3.749 -0.1768  0.3877  0.6677
 8161TIP3   OH224446   2.264   1.188   4.865  0.3604  0.0937 -0.6966
 8161TIP3    H124447   2.340   1.130   4.875  1.5996  1.7164 -0.2717
 8161TIP3    H224448   2.267   1.214   4.773 -1.5024 -2.1538 -1.4873
 8162TIP3   OH224449   0.745   3.486   5.280  0.0733  0.2727  0.6324
 8162TIP3    H124450   0.713   3.403   5.315 -0.3488  0.3442  0.4248
 8162TIP3    H224451   0.684   3.508   5.209  0.2506  0.6956  0.6048
 8163TIP3   OH224452   0.498   2.997   4.835 -0.3647  0.2774  0.1446
 8163TIP3    H124453   0.533   2.937   4.769 -0.5788  0.9610 -0.6002
 8163TIP3    H224454   0.500   3.083   4.793  1.9288  1.1843  1.9310
 8164TIP3   OH224455   1.566   0.738   0.761  0.3557 -0.3490  0.5877
 8164TIP3    H124456   1.620   0.816   0.747 -2.0834  1.2343 -0.5828
 8164TIP3    H224457   1.526   0.721   0.676  0.3315 -2.5806  0.9677
 8165TIP3   OH224458   4.256   6.063   3.217 -0.5617 -0.0932  0.4913
 8165TIP3    H124459   4.316   6.007   3.166 -2.7149 -1.5028 -0.6433
 8165TIP3    H224460   4.264   6.031   3.307 -0.8166 -1.3871  0.0696
 8166TIP3   OH224461   1.791   4.867   1.288  0.8746 -0.2404  0.2572
 8166TIP3    H124462   1.768   4.807   1.359 -0.4062 -1.6169 -1.2696
 8166TIP3    H224463   1.712   4.919   1.274  0.8711 -0.4969 -0.6760
 8167TIP3   OH224464   1.240   4.549   0.360  0.0628 -0.3532  0.5041
 8167TIP3    H124465   1.249   4.624   0.419  1.9337 -1.1074  1.2623
 8167TIP3    H224466   1.190   4.583   0.286  0.9172  1.6716  0.7829
 8168TIP3   OH224467   5.084   6.650   2.907  0.1077 -0.2773 -0.0420
 8168TIP3    H124468   5.164   6.687   2.870  0.5296 -1.4138 -0.2991
 8168TIP3    H224469   5.014   6.705   2.873  0.7758  0.7702  0.2328
 8169TIP3   OH224470   0.697   2.186   0.826  0.5063 -0.4098  0.5724
 8169TIP3    H124471   0.646   2.254   0.783  0.3018 -0.9053  0.0105
 8169TIP3    H224472   0.639   2.111   0.830  1.2952 -1.1128 -0.4475
 8170TIP3   OH224473   5.421   2.776   1.876  0.1487 -0.1937  0.0652
 8170TIP3    H124474   5.505   2.755   1.836  0.3603  0.0290  0.3884
 8170TIP3    H224475   5.382   2.691   1.897 -0.2466 -0.3348 -1.1823
 8171TIP3   OH224476   0.831   4.732   2.387 -0.4835  0.0972  0.2640
 8171TIP3    H124477   0.742   4.709   2.414 -0.0537 -1.9643  0.0773
 8171TIP3    H224478   0.887   4.700   2.458  0.0562  3.2988  1.4519
 8172TIP3   OH224479   1.272   6.224   2.290 -0.0602 -0.1108 -0.4283
 8172TIP3    H124480   1.265   6.256   2.380 -0.4412  0.9527 -0.8097
 8172TIP3    H224481   1.354   6.261   2.258  0.8669 -1.7786 -0.0442
 8173TIP3   OH224482   2.521   5.801   1.125  0.2061  0.4188  0.3769
 8173TIP3    H124483   2.536   5.892   1.153 -0.2959  0.3520  0.8753
 8173TIP3    H224484   2.453   5.808   1.058 -0.1947  0.3643  0.7757
 8174TIP3   OH224485   3.529   3.830   2.476  0.3679  0.1427 -0.5302
 8174TIP3    H124486   3.613   3.821   2.521 -0.2074  1.3294  0.8620
 8174TIP3    H224487   3.550   3.822   2.383  1.7730 -1.2331 -0.1338
 8175TIP3   OH224488   3.988   5.822   0.831 -0.3180 -0.1757 -0.2154
 8175TIP3    H124489   4.015   5.794   0.919  1.1790  1.6795 -0.0110
 8175TIP3    H224490   3.954   5.743   0.790  0.6256 -1.4991  1.4144
 8176TIP3   OH224491   5.356   3.884   1.120 -0.1249  0.7182 -0.0954
 8176TIP3    H124492   5.428   3.941   1.147  0.7442 -0.2796 -0.2362
 8176TIP3    H224493   5.393   3.830   1.049 -0.4058 -1.1325  1.0890
 8177TIP3   OH224494   2.571   3.577   4.620  0.4419  0.0708 -0.6785
 8177TIP3    H124495   2.478   3.595   4.612  0.5001  0.9425  0.4820
 8177TIP3    H224496   2.613   3.637   4.559  0.3336  0.7520 -0.0934
 8178TIP3   OH224497   1.491   3.093   4.642  0.4056 -0.4850  0.1570
 8178TIP3    H124498   1.447   3.101   4.558  0.3508 -0.3707  0.1967
 8178TIP3    H224499   1.582   3.074   4.620  0.2765 -1.0332  0.0794
 8179TIP3   OH224500   6.655   1.228   1.013  1.0779 -0.0577 -0.6844
 8179TIP3    H124501   6.749   1.242   1.003  1.6342 -2.8938 -0.1345
 8179TIP3    H224502   6.643   1.203   1.105  0.0523 -1.3519 -1.1348
 8180TIP3   OH224503   2.463   3.705   1.376 -0.5582 -0.5818 -0.1691
 8180TIP3    H124504   2.488   3.787   1.332 -2.0506 -0.0848 -0.1374
 8180TIP3    H224505   2.486   3.637   1.313 -0.1514 -0.0735 -0.5858
 8181TIP3   OH224506   1.263   0.636   5.718 -0.5717 -0.3048 -0.3356
 8181TIP3    H124507   1.251   0.708   5.780  0.2809 -0.4734  0.0405
 8181TIP3    H224508   1.227   0.559   5.763 -1.5911 -0.1004 -0.7852
 8182TIP3   OH224509   6.435   2.808   4.933 -0.2793  0.4844  0.1379
 8182TIP3    H124510   6.513   2.814   4.876 -0.1541  0.0337  0.2598
 8182TIP3    H224511   6.391   2.892   4.921 -0.7835  0.0410 -1.3968
 8183TIP3   OH224512   2.166   5.732   5.033  0.1902  1.2456 -0.0091
 8183TIP3    H124513   2.229   5.732   5.105  0.5000  0.9948 -0.2791
 8183TIP3    H224514   2.217   5.706   4.956 -0.7420 -1.7208  0.2246
 8184TIP3   OH224515   6.377   1.716   1.289  0.0517 -0.5278 -0.0941
 8184TIP3    H124516   6.362   1.653   1.218 -0.5721  1.9844 -2.3600
 8184TIP3    H224517   6.292   1.724   1.333  0.0071 -0.9200 -0.1081
 8185TIP3   OH224518   4.203   2.147   1.205  0.0253  0.2157 -0.2254
 8185TIP3    H124519   4.233   2.109   1.123  0.7260  1.7427 -0.7065
 8185TIP3    H224520   4.271   2.124   1.268  0.4377  0.6284 -0.5111
 8186TIP3   OH224521   0.079   5.743   1.540 -0.3390  1.1615  0.3348
 8186TIP3    H124522   0.104   5.803   1.610 -2.2337  1.0691  1.1512
 8186TIP3    H224523   0.038   5.669   1.585 -1.1228  0.8534 -0.8445
 8187TIP3   OH224524   4.410   1.760   1.388  0.0095  0.3144 -0.2211
 8187TIP3    H124525   4.443   1.798   1.306  0.2515 -1.2712 -0.9004
 8187TIP3    H224526   4.390   1.669   1.366 -1.6017  0.3180  1.0615
 8188TIP3   OH224527   2.452   4.748   0.807  0.5644  0.4111 -0.1382
 8188TIP3    H124528   2.472   4.678   0.745  1.7121 -0.2975  0.9818
 8188TIP3    H224529   2.477   4.828   0.761 -1.6696  0.2448 -1.8091
 8189TIP3   OH224530   4.573   2.285   5.398 -0.2433 -0.3427 -0.1844
 8189TIP3    H124531   4.582   2.264   5.491 -1.5124 -0.3315 -0.0524
 8189TIP3    H224532   4.660   2.319   5.374 -0.1050  0.3587  1.1752
 8190TIP3   OH224533   4.150   3.209   0.411  0.2353  0.1139  0.0316
 8190TIP3    H124534   4.218   3.194   0.477  0.7300 -0.5390 -0.5961
 8190TIP3    H224535   4.069   3.219   0.460  0.8535  1.4376  0.8369
 8191TIP3   OH224536   5.033   6.499   1.269  0.3479  0.1458 -0.3300
 8191TIP3    H124537   5.036   6.593   1.252 -0.4695 -0.0875 -1.9034
 8191TIP3    H224538   5.081   6.459   1.197 -0.0987 -0.7013 -0.1774
 8192TIP3   OH224539   5.147   1.445   4.559  0.4155 -0.0159  0.1732
 8192TIP3    H124540   5.143   1.476   4.649 -0.0824  0.2385  0.0635
 8192TIP3    H224541   5.075   1.381   4.553  1.0672 -0.7687  0.2363
 8193TIP3   OH224542   0.449   0.713   3.043  0.0942 -0.2515 -0.1545
 8193TIP3    H124543   0.362   0.687   3.011  0.0792 -1.7891  1.0307
 8193TIP3    H224544   0.432   0.749   3.130  0.6554 -0.6232  0.1090
 8194TIP3   OH224545   5.687   0.659   3.979  0.0640 -0.7382  0.2661
 8194TIP3    H124546   5.655   0.664   4.070  0.1787 -1.0343  0.3256
 8194TIP3    H224547   5.726   0.572   3.973  0.7420 -0.4295  0.1525
 8195TIP3   OH224548   5.864   5.190   5.733  0.8850 -0.4144 -0.1348
 8195TIP3    H124549   5.930   5.178   5.665  0.5747  0.8921 -0.7053
 8195TIP3    H224550   5.906   5.249   5.797  0.3841  0.2108 -0.3683
 8196TIP3   OH224551   4.229   2.921   4.724 -0.2530  0.1393 -0.1549
 8196TIP3    H124552   4.174   2.900   4.648  0.6677 -2.0076 -0.2846
 8196TIP3    H224553   4.255   2.836   4.759 -1.6511  0.9754  3.3601
 8197TIP3   OH224554   4.486   4.341   3.276 -0.4820 -0.3087 -0.7381
 8197TIP3    H124555   4.413   4.343   3.338 -2.0284  0.9148 -2.4904
 8197TIP3    H224556   4.525   4.428   3.282  0.8072 -0.9066  0.0805
 8198TIP3   OH224557   1.652   0.139   3.937  0.2766  0.0355  0.6156
 8198TIP3    H124558   1.579   0.089   3.973  0.6393 -0.9785 -0.0093
 8198TIP3    H224559   1.644   0.127   3.842  1.5122 -0.5037  0.5547
 8199TIP3   OH224560   1.288   1.851   0.232  0.2931 -0.0234 -0.1091
 8199TIP3    H124561   1.381   1.836   0.250  0.1905  1.3629  1.8361
 8199TIP3    H224562   1.283   1.943   0.209 -0.5409 -0.2441 -0.8489
 8200TIP3   OH224563   6.058   3.749   0.306 -0.1130 -0.0362 -0.1980
 8200TIP3    H124564   6.039   3.834   0.346  0.6414 -0.8013  1.9006
 8200TIP3    H224565   6.139   3.764   0.257 -1.5945  1.1787 -2.4540
 8201TIP3   OH224566   1.656   0.399   0.007 -0.4658  0.5087  0.2515
 8201TIP3    H124567   1.691   0.487   0.021  0.3242  0.3698 -0.6716
 8201TIP3    H224568   1.681   0.350   0.085 -1.4439  1.2492  1.0483
 8202TIP3   OH224569   6.627   6.238   2.181 -0.3370 -0.1066 -0.1593
 8202TIP3    H124570   6.693   6.301   2.209 -0.3649  0.1306 -0.6149
 8202TIP3    H224571   6.545   6.270   2.218  0.1550 -1.9152  2.8459
 8203TIP3   OH224572   5.636   3.445   1.666 -0.2554 -0.9532  0.4033
 8203TIP3    H124573   5.729   3.428   1.675  0.3698  1.6990 -0.1901
 8203TIP3    H224574   5.612   3.406   1.582  0.4116 -1.3446  0.3928
 8204TIP3   OH224575   1.055   4.037   5.011 -0.1129 -0.4397  0.0261
 8204TIP3    H124576   1.023   3.951   4.985  0.2054 -0.5672  0.0456
 8204TIP3    H224577   1.077   4.080   4.928 -1.6620  0.1901 -0.0862
 8205TIP3   OH224578   3.075   1.033   0.229 -0.5619 -0.3094  0.0177
 8205TIP3    H124579   3.032   0.958   0.270  0.0892 -0.7739 -0.1250
 8205TIP3    H224580   3.159   0.999   0.200 -0.7843  0.1538 -1.2162
 8206TIP3   OH224581   0.400   2.305   0.327 -0.2790 -0.0955  0.2024
 8206TIP3    H124582   0.372   2.289   0.236  0.2298  2.1906 -0.4082
 8206TIP3    H224583   0.330   2.358   0.365  0.4398  0.6637  0.5014
 8207TIP3   OH224584   3.150   6.011   3.649  0.5501  0.6084  0.5927
 8207TIP3    H124585   3.063   6.052   3.655  0.1086  0.0150 -1.2838
 8207TIP3    H224586   3.207   6.081   3.617  0.2470  0.3618 -0.5110
 8208TIP3   OH224587   5.548   1.499   5.095  0.3490 -0.5126  0.4557
 8208TIP3    H124588   5.617   1.480   5.031  0.5984  0.2320  0.4981
 8208TIP3    H224589   5.514   1.413   5.120 -0.2876 -0.8045 -1.2662
 8209TIP3   OH224590   6.918   2.151   4.785 -0.2090 -0.2996  0.0944
 8209TIP3    H124591   6.955   2.093   4.852 -0.1417 -0.7056 -0.2891
 8209TIP3    H224592   6.831   2.175   4.818 -0.0420 -0.2190  0.4850
 8210TIP3   OH224593   4.145   4.346   5.556  0.2057  0.3050 -0.4808
 8210TIP3    H124594   4.058   4.323   5.524  1.2383 -1.3698 -2.3728
 8210TIP3    H224595   4.186   4.262   5.579  1.4342  1.0073  0.0195
 8211TIP3   OH224596   1.863   1.517   1.916 -0.2587 -0.5999 -0.0115
 8211TIP3    H124597   1.808   1.518   1.995 -0.3852 -1.1969 -0.0854
 8211TIP3    H224598   1.802   1.496   1.845 -0.0392 -0.6627 -0.1818
 8212TIP3   OH224599   4.773   4.642   5.643  0.0355 -0.2478  0.0622
 8212TIP3    H124600   4.820   4.723   5.662 -1.6882  0.5084  1.4996
 8212TIP3    H224601   4.682   4.671   5.629 -0.1262 -1.6610 -2.2005
 8213TIP3   OH224602   3.324   2.567   2.717 -0.6664  0.6101  0.4168
 8213TIP3    H124603   3.397   2.623   2.690  0.2690 -1.2164 -1.0971
 8213TIP3    H224604   3.247   2.606   2.676 -0.0693  0.9226 -0.4372
 8214TIP3   OH224605   0.315   4.277   3.910 -0.2687 -0.1796 -0.3544
 8214TIP3    H124606   0.262   4.340   3.861 -0.7721 -0.2838  0.0495
 8214TIP3    H224607   0.365   4.330   3.971 -1.1458 -0.2059  0.4110
 8215TIP3   OH224608   6.089   0.055   4.490 -0.0769  0.1079  0.0785
 8215TIP3    H124609   6.156   0.021   4.549 -0.0414 -0.0331 -0.0427
 8215TIP3    H224610   6.007   0.038   4.536 -0.0029  0.7592  0.4679
 8216TIP3   OH224611   5.261   2.313   2.830 -0.2029  0.0018 -0.5413
 8216TIP3    H124612   5.192   2.376   2.812 -1.4361 -1.5299 -1.3628
 8216TIP3    H224613   5.222   2.250   2.890  0.5521 -0.7514 -0.8079
 8217TIP3   OH224614   2.071   3.335   1.105  0.0644  0.2490  0.1558
 8217TIP3    H124615   2.155   3.360   1.144  0.4345 -0.8052  0.0561
 8217TIP3    H224616   2.006   3.371   1.165  0.5858  0.6916  0.4749
 8218TIP3   OH224617   6.038   4.425   0.700 -0.0466  0.2622  0.5849
 8218TIP3    H124618   6.033   4.449   0.792  0.3868  0.9133  0.4436
 8218TIP3    H224619   6.131   4.431   0.678 -0.4068  2.9663 -0.6012
 8219TIP3   OH224620   0.844   5.775   2.510 -0.0549 -0.0531 -0.0470
 8219TIP3    H124621   0.774   5.733   2.459  1.2589 -2.5903  0.0548
 8219TIP3    H224622   0.800   5.810   2.587 -1.4756  0.2019 -0.9330
 8220TIP3   OH224623   2.796   6.246   3.941  0.3593  0.1292 -0.1374
 8220TIP3    H124624   2.715   6.195   3.934  0.5222  0.0387 -1.5707
 8220TIP3    H224625   2.866   6.180   3.939  0.5317  0.3242 -0.9333
 8221TIP3   OH224626   2.604   4.163   4.664  0.2100  0.3405 -0.0165
 8221TIP3    H124627   2.642   4.240   4.620 -0.4277  0.9771  0.5154
 8221TIP3    H224628   2.608   4.094   4.597  0.8537  0.8098 -0.4855
 8222TIP3   OH224629   4.563   3.267   4.311 -0.0709  0.0115 -0.2243
 8222TIP3    H124630   4.633   3.205   4.331 -0.0305 -0.3118 -1.3090
 8222TIP3    H224631   4.555   3.264   4.215 -1.0092  0.6522 -0.1762
 8223TIP3   OH224632   2.008   5.227   4.306  0.2194 -0.1872 -0.0096
 8223TIP3    H124633   2.029   5.285   4.379 -1.9943 -0.1334  0.6399
 8223TIP3    H224634   1.916   5.204   4.319  0.2831 -1.6462 -1.7824
 8224TIP3   OH224635   1.562   1.692   1.119  0.0246  0.5864  0.2775
 8224TIP3    H124636   1.473   1.668   1.145 -0.0770 -0.8469 -1.2258
 8224TIP3    H224637   1.555   1.718   1.027  0.8416  2.6068  0.7168
 8225TIP3   OH224638   1.329   5.119   4.483  0.0410 -0.1133 -0.1478
 8225TIP3    H124639   1.286   5.204   4.494 -0.8585 -0.5944  0.1036
 8225TIP3    H224640   1.312   5.095   4.392 -0.5287 -0.4612  0.0459
 8226TIP3   OH224641   4.406   4.794   4.810  0.5719 -0.3495 -0.2639
 8226TIP3    H124642   4.488   4.796   4.859 -0.4545  1.1236  1.5533
 8226TIP3    H224643   4.398   4.882   4.774  0.4470 -0.9068 -1.6556
 8227TIP3   OH224644   3.168   0.168   2.322 -0.5434 -0.5245  0.7908
 8227TIP3    H124645   3.264   0.165   2.318 -0.5173  1.0668 -0.2301
 8227TIP3    H224646   3.143   0.237   2.262 -2.4179 -1.5604  0.3119
 8228TIP3   OH224647   7.169   0.026   4.504  0.1794 -0.2905 -0.3180
 8228TIP3    H124648   7.247   0.075   4.478 -0.1685  0.3279 -0.1947
 8228TIP3    H224649   7.197  -0.066   4.503  1.0699 -0.0322  0.2959
 8229TIP3   OH224650   2.353   5.225   1.891 -0.2229 -0.6754  0.1322
 8229TIP3    H124651   2.446   5.207   1.875  0.1498 -0.9719  2.3030
 8229TIP3    H224652   2.325   5.155   1.950 -2.0659 -1.0354 -1.0964
 8230TIP3   OH224653   3.868   1.948   4.430  0.4485 -0.6708  0.3313
 8230TIP3    H124654   3.898   1.968   4.342 -0.8961  1.0790  0.2029
 8230TIP3    H224655   3.826   1.862   4.423  0.3019 -0.5190 -0.7566
 8231TIP3   OH224656   0.021   2.993   1.645  0.1071 -0.2646 -0.4631
 8231TIP3    H124657   0.070   2.921   1.686  1.3494  0.5214 -0.4930
 8231TIP3    H224658   0.052   3.071   1.692  0.0480  0.4257 -1.5569
 8232TIP3   OH224659   6.970   0.720   4.656  0.2966 -0.2056  0.5397
 8232TIP3    H124660   6.882   0.688   4.637  0.4968  0.5080 -2.0148
 8232TIP3    H224661   6.956   0.798   4.709 -0.5041 -0.8986  1.3914
 8233TIP3   OH224662   3.245   0.405   1.846 -0.5226  0.1474 -0.2260
 8233TIP3    H124663   3.330   0.393   1.803  1.5685  2.1042  2.9080
 8233TIP3    H224664   3.206   0.481   1.803  0.5980  0.8794  0.0213
 8234TIP3   OH224665   3.614   3.561   3.123 -0.0742  0.5143  0.0892
 8234TIP3    H124666   3.561   3.587   3.048 -0.3910  0.4128  0.2743
 8234TIP3    H224667   3.566   3.594   3.199  0.9951  1.9271  0.1913
 8235TIP3   OH224668   1.085   5.897   5.164 -0.0389  0.0562  0.3542
 8235TIP3    H124669   1.155   5.832   5.156  1.1174  1.4860 -2.3336
 8235TIP3    H224670   1.100   5.937   5.250  0.6397 -1.6114  1.0496
 8236TIP3   OH224671   6.118   1.949   1.258 -0.0440  0.4242 -0.3217
 8236TIP3    H124672   6.184   2.000   1.210  0.8836  0.0521  0.5270
 8236TIP3    H224673   6.154   1.940   1.346 -0.4947 -1.1211 -0.2686
 8237TIP3   OH224674   4.700   1.991   2.072 -0.6116  0.2565  0.4332
 8237TIP3    H124675   4.620   2.008   2.021 -0.8151  0.9968  0.9799
 8237TIP3    H224676   4.681   1.910   2.120 -0.4484 -0.4084 -0.5755
 8238TIP3   OH224677   3.609   5.716   0.765  0.1759  0.1951 -0.0153
 8238TIP3    H124678   3.657   5.744   0.687 -0.8656  0.8860 -0.4333
 8238TIP3    H224679   3.655   5.638   0.794  1.8175  1.0625 -0.1318
 8239TIP3   OH224680   2.399   2.584   2.751 -0.7988  0.1915  0.0257
 8239TIP3    H124681   2.452   2.593   2.830 -0.5664  1.1005 -0.2233
 8239TIP3    H224682   2.324   2.642   2.766 -2.6633 -2.2975  1.0938
 8240TIP3   OH224683   1.333   4.077   2.406 -0.3211 -0.4710  0.3819
 8240TIP3    H124684   1.280   4.008   2.367  0.7838 -1.2039  0.1398
 8240TIP3    H224685   1.410   4.031   2.441 -0.2789  0.4412  1.5422
 8241TIP3   OH224686   0.660   2.656   5.794  0.2879 -0.1235 -0.3330
 8241TIP3    H124687   0.603   2.657   5.717 -1.0091 -1.1848  0.5545
 8241TIP3    H224688   0.703   2.741   5.793 -0.6718  0.3820 -1.5204
 8242TIP3   OH224689   7.145   2.908   4.006 -0.3272  0.0495 -0.2182
 8242TIP3    H124690   7.089   2.864   3.942  1.1529  0.3498 -1.7870
 8242TIP3    H224691   7.194   2.972   3.955  1.7264 -0.4525  1.0220
 8243TIP3   OH224692   5.898   2.144   1.537  0.3697  0.3033  0.5156
 8243TIP3    H124693   5.992   2.163   1.533  0.2319  0.8651 -0.4497
 8243TIP3    H224694   5.860   2.195   1.465 -0.2144 -2.6261 -1.4411
 8244TIP3   OH224695   6.599   3.557   3.808 -0.7498 -0.5128  0.3894
 8244TIP3    H124696   6.678   3.550   3.754 -0.2323 -1.1160  1.1855
 8244TIP3    H224697   6.575   3.649   3.803 -0.0508 -0.3378  0.0435
 8245TIP3   OH224698   2.869   0.006   2.835 -0.6189 -0.4506 -0.4936
 8245TIP3    H124699   2.916   0.087   2.813  0.6017 -1.1086 -0.4163
 8245TIP3    H224700   2.780   0.035   2.854 -0.0676  0.9553  0.1378
 8246TIP3   OH224701   3.131   1.714   2.589  0.0681 -0.0751  0.1834
 8246TIP3    H124702   3.177   1.681   2.666 -0.5440 -1.8386 -0.1511
 8246TIP3    H224703   3.053   1.757   2.624  0.5026  0.3776  0.6063
 8247TIP3   OH224704   0.952   0.244   3.610  0.0572 -0.2241  0.4125
 8247TIP3    H124705   0.947   0.283   3.523  1.9383 -1.8977 -0.5223
 8247TIP3    H224706   0.969   0.318   3.669 -0.0293  0.7829 -0.7880
 8248TIP3   OH224707   2.961   6.545   0.551 -0.0894  0.3958  0.0977
 8248TIP3    H124708   3.030   6.601   0.587  0.6432 -0.3363 -0.1569
 8248TIP3    H224709   2.984   6.457   0.578 -1.7287  0.2833  1.2670
 8249TIP3   OH224710   3.555   6.292   3.950  0.1997  0.3920 -0.3095
 8249TIP3    H124711   3.538   6.377   3.989  0.7699  0.1175  0.5804
 8249TIP3    H224712   3.644   6.270   3.977 -0.4170 -1.1031  0.6870
 8250TIP3   OH224713   1.605   0.792   4.836  0.2250  0.4332 -0.0454
 8250TIP3    H124714   1.629   0.756   4.922 -1.0066  0.9650  0.5479
 8250TIP3    H224715   1.510   0.787   4.834  0.2962 -1.3733 -2.2095
 8251TIP3   OH224716   0.731   1.476   1.734  0.3052 -0.4728 -0.0386
 8251TIP3    H124717   0.753   1.498   1.643  0.5633  0.0128  0.1364
 8251TIP3    H224718   0.763   1.386   1.745 -0.8076 -0.9845 -0.7803
 8252TIP3   OH224719   0.339   1.668   3.963  0.0142 -0.5720 -0.4868
 8252TIP3    H124720   0.251   1.706   3.963 -0.0125 -0.6299 -0.7751
 8252TIP3    H224721   0.331   1.590   4.017  0.3995  0.5582  1.3018
 8253TIP3   OH224722   6.994   4.242   4.527  0.2279 -0.1139  0.2098
 8253TIP3    H124723   6.926   4.246   4.460  0.1211  0.3460  0.3464
 8253TIP3    H224724   6.975   4.162   4.576 -0.4617  0.2371  0.5153
 8254TIP3   OH224725   3.419   6.216   2.190 -0.1719  0.2556 -0.0626
 8254TIP3    H124726   3.353   6.272   2.150  0.4711  1.3894  0.4050
 8254TIP3    H224727   3.455   6.165   2.117  1.1333  2.4281 -1.0433
 8255TIP3   OH224728   1.253   1.315   1.318  0.3838 -0.1505  0.1071
 8255TIP3    H124729   1.172   1.364   1.327  1.8652  2.4725  0.1547
 8255TIP3    H224730   1.250   1.280   1.229 -0.5330  0.4332 -0.1053
 8256TIP3   OH224731   4.679   6.187   4.985  0.5938 -0.1279 -0.4522
 8256TIP3    H124732   4.627   6.267   4.978  0.2176 -0.5068 -2.4243
 8256TIP3    H224733   4.618   6.116   4.965  1.3205 -0.7813 -0.4144
 8257TIP3   OH224734   6.076   0.038   3.046 -0.0894 -0.2673  0.0883
 8257TIP3    H124735   6.006   0.034   2.981  0.2268 -0.7131 -0.2278
 8257TIP3    H224736   6.154   0.059   2.995 -0.1149  1.0127  0.5339
 8258TIP3   OH224737   4.516   1.829   1.123 -0.5467 -0.6100 -0.2989
 8258TIP3    H124738   4.447   1.797   1.065 -0.9087  0.1700 -0.3128
 8258TIP3    H224739   4.539   1.915   1.087 -1.9497  0.6564  1.6506
 8259TIP3   OH224740   2.778   3.232   3.695  0.3019 -0.0431  0.0726
 8259TIP3    H124741   2.690   3.266   3.680 -0.0670 -1.6416 -1.7755
 8259TIP3    H224742   2.825   3.305   3.737 -1.7425  0.9850  0.7085
 8260TIP3   OH224743   4.557   3.463   3.753  0.5597  0.4327 -0.5294
 8260TIP3    H124744   4.491   3.532   3.749 -0.3031 -0.3238  0.2997
 8260TIP3    H224745   4.566   3.433   3.662  1.1586  1.8037 -0.9487
 8261TIP3   OH224746   2.195   5.189   4.982 -0.1652 -0.3666  0.0300
 8261TIP3    H124747   2.203   5.282   5.000 -1.8919 -0.2585  0.3842
 8261TIP3    H224748   2.150   5.184   4.898 -2.1693 -0.8374  1.0750
 8262TIP3   OH224749   5.427   1.375   3.597 -0.7247 -0.1604  0.4033
 8262TIP3    H124750   5.377   1.454   3.579 -1.9721 -1.2522 -1.2003
 8262TIP3    H224751   5.462   1.388   3.685 -1.2684  1.9544  0.3597
 8263TIP3   OH224752   1.716   3.794   5.130  0.5818 -0.0102 -0.0065
 8263TIP3    H124753   1.725   3.835   5.216 -0.6163 -0.5730  0.4021
 8263TIP3    H224754   1.793   3.737   5.123  1.5184  1.2095  0.0104
 8264TIP3   OH224755   4.700   4.661   1.031  0.3314 -0.1445 -0.1301
 8264TIP3    H124756   4.733   4.743   0.995 -1.1202  0.9997  1.0014
 8264TIP3    H224757   4.778   4.612   1.056  1.2165  1.1387 -0.3084
 8265TIP3   OH224758   2.864   3.607   0.963  0.2975  0.3250  0.1455
 8265TIP3    H124759   2.897   3.561   1.040  0.8888  0.5583  0.0315
 8265TIP3    H224760   2.853   3.697   0.992  1.1247  0.5485 -0.2168
 8266TIP3   OH224761   1.649   3.837   1.861  0.2327 -0.0613  0.3445
 8266TIP3    H124762   1.693   3.919   1.883  1.8905 -1.0237  0.8523
 8266TIP3    H224763   1.556   3.856   1.870  0.5882  1.6846  0.6976
 8267TIP3   OH224764   5.635   2.530   1.131  0.3573  0.0900 -0.5543
 8267TIP3    H124765   5.720   2.567   1.154  0.8903 -1.6541  0.5596
 8267TIP3    H224766   5.574   2.569   1.194  0.9835 -1.1643  0.8876
 8268TIP3   OH224767   1.046   0.780   5.317 -0.3938 -0.0155 -0.2266
 8268TIP3    H124768   0.989   0.721   5.366  1.6290 -1.3625  0.6405
 8268TIP3    H224769   1.037   0.752   5.226 -0.8647 -0.4079 -0.0680
 8269TIP3   OH224770   6.219   4.430   4.935  0.1049  0.4011 -0.1698
 8269TIP3    H124771   6.314   4.433   4.947  0.2200  0.1253 -0.9237
 8269TIP3    H224772   6.186   4.388   5.014  0.4530  1.9639  0.8496
 8270TIP3   OH224773   6.527   4.641   1.020 -0.4055 -0.5494 -0.0173
 8270TIP3    H124774   6.554   4.677   0.936  0.7778 -2.1236 -0.3569
 8270TIP3    H224775   6.516   4.718   1.076 -0.4198  0.4776 -1.3767
 8271TIP3   OH224776   0.187   4.842   1.599  0.1180  0.3851  0.1397
 8271TIP3    H124777   0.148   4.930   1.605 -2.1855 -0.4778 -0.8699
 8271TIP3    H224778   0.259   4.852   1.537  0.5069  1.7563  0.7884
 8272TIP3   OH224779   3.770   0.762   5.637 -0.2536 -0.3875  0.0986
 8272TIP3    H124780   3.757   0.769   5.543  0.7736  1.0316  0.0438
 8272TIP3    H224781   3.811   0.676   5.649 -1.2521 -0.9936 -0.6100
 8273TIP3   OH224782   5.780   1.256   5.634  0.5395 -0.3754  0.1215
 8273TIP3    H124783   5.833   1.259   5.555 -0.7352  0.8880 -0.7547
 8273TIP3    H224784   5.748   1.346   5.645 -1.6479 -1.1147  0.3932
 8274TIP3   OH224785   0.363   1.949   0.180  0.4115 -0.2892  0.6366
 8274TIP3    H124786   0.390   1.958   0.088  0.9012  1.1052  0.8969
 8274TIP3    H224787   0.443   1.961   0.230 -0.3471  2.7278  1.3668
 8275TIP3   OH224788   3.672   2.015   1.747  0.4056 -0.3915 -0.0025
 8275TIP3    H124789   3.578   2.015   1.728  0.0574  0.8527  1.4986
 8275TIP3    H224790   3.678   2.004   1.842  1.7806 -0.4294 -0.0692
 8276TIP3   OH224791   3.677   3.236   1.645 -0.0859 -0.0819 -0.1554
 8276TIP3    H124792   3.684   3.197   1.732  0.8313  0.6366  0.1006
 8276TIP3    H224793   3.653   3.162   1.588 -1.0583 -0.4921  0.7425
 8277TIP3   OH224794   1.078   4.071   2.053  0.4759  0.3370 -0.3912
 8277TIP3    H124795   1.132   4.022   2.115  0.3963  0.3026 -0.3490
 8277TIP3    H224796   1.034   4.004   2.001 -0.4680  0.3339  0.3772
 8278TIP3   OH224797   7.056   1.096   5.060 -0.1492 -0.3061  0.0300
 8278TIP3    H124798   6.992   1.114   4.991  1.6523 -1.1476 -1.9742
 8278TIP3    H224799   7.031   1.154   5.131 -1.8961  0.8839 -1.4547
 8279TIP3   OH224800   5.609   2.993   3.478  0.5154  0.4351  0.2020
 8279TIP3    H124801   5.677   3.060   3.481  1.6496 -0.6807  0.4585
 8279TIP3    H224802   5.630   2.934   3.550 -0.6732 -0.0007  0.2116
 8280TIP3   OH224803   2.065   4.269   1.296  0.2140  0.2729 -0.4863
 8280TIP3    H124804   2.065   4.339   1.230  1.3448 -1.4246 -2.4396
 8280TIP3    H224805   2.158   4.251   1.310 -0.0228  0.3440  1.3556
 8281TIP3   OH224806   1.456   2.150   1.662  0.3627  0.2406 -0.2177
 8281TIP3    H124807   1.363   2.130   1.652  0.5698 -0.9838  0.1011
 8281TIP3    H224808   1.500   2.067   1.642  1.3472  0.6442  0.2365
 8282TIP3   OH224809   2.559   5.008   2.261  0.5430 -0.1585  0.1473
 8282TIP3    H124810   2.512   5.091   2.270 -0.4711 -0.7702  0.7307
 8282TIP3    H224811   2.597   4.993   2.347  2.0077  0.4238 -0.3741
 8283TIP3   OH224812   3.839   6.582   4.144 -0.6135 -0.2338  0.5026
 8283TIP3    H124813   3.907   6.593   4.077 -1.8927  1.2069 -0.6593
 8283TIP3    H224814   3.887   6.564   4.225  1.4561  3.5981  0.3916
 8284TIP3   OH224815   0.508   2.871   4.321  0.4013 -0.4238  0.1314
 8284TIP3    H124816   0.437   2.843   4.264  0.3747 -0.1372  0.0244
 8284TIP3    H224817   0.464   2.898   4.402  0.4433 -0.8870  0.3153
 8285TIP3   OH224818   6.764   0.943   1.407 -0.2221 -0.2711  0.3307
 8285TIP3    H124819   6.687   0.901   1.444 -0.2523 -0.3010  0.2345
 8285TIP3    H224820   6.825   0.951   1.480  0.0118 -1.0024  0.2175
 8286TIP3   OH224821   4.807   5.439   3.531  0.2891  0.1308 -0.0828
 8286TIP3    H124822   4.797   5.467   3.440 -0.7929 -1.4507 -0.4734
 8286TIP3    H224823   4.797   5.520   3.582 -0.8604  0.7731 -1.2688
 8287TIP3   OH224824   0.241   1.082   5.235 -0.1437  0.2546  0.1669
 8287TIP3    H124825   0.302   1.101   5.163 -1.2939  1.6218 -0.4856
 8287TIP3    H224826   0.296   1.086   5.313  0.7727  0.6300 -0.4682
 8288TIP3   OH224827   0.934   2.511   1.576 -0.4176  0.1467 -0.2121
 8288TIP3    H124828   0.839   2.514   1.573 -0.4042  0.4565 -0.3088
 8288TIP3    H224829   0.963   2.567   1.504 -0.1649 -0.7530 -0.8254
 8289TIP3   OH224830   1.743   5.941   5.138 -0.0946 -0.0402 -0.4638
 8289TIP3    H124831   1.737   6.021   5.191  0.5054  1.3914 -2.4339
 8289TIP3    H224832   1.835   5.935   5.114 -0.3567 -0.6089 -1.3807
 8290TIP3   OH224833   6.725   4.678   4.128 -0.2106 -0.0296  0.1465
 8290TIP3    H124834   6.738   4.639   4.042  0.0822 -2.0173  1.0275
 8290TIP3    H224835   6.631   4.699   4.131 -0.4165 -0.8501 -0.3154
 8291TIP3   OH224836   4.164   4.045   1.557  0.2586  0.1769 -0.1804
 8291TIP3    H124837   4.161   4.017   1.648 -0.0530  0.7354 -0.0127
 8291TIP3    H224838   4.073   4.048   1.529  0.3339  0.2797 -0.4224
 8292TIP3   OH224839   2.853   5.898   3.314  0.3728  0.3849 -0.2130
 8292TIP3    H124840   2.794   5.973   3.311  1.3552  1.2201  0.4246
 8292TIP3    H224841   2.809   5.834   3.370  0.0157  0.9502  0.1620
 8293TIP3   OH224842   2.803   5.586   2.685  0.5505 -0.1095 -0.4783
 8293TIP3    H124843   2.886   5.553   2.649  1.1315  1.5123 -0.7189
 8293TIP3    H224844   2.768   5.513   2.735  2.4757 -0.6302  0.1913
 8294TIP3   OH224845   0.018   1.541   0.259  0.5430  0.3835 -0.0288
 8294TIP3    H124846  -0.026   1.543   0.344  2.0660 -0.3285  0.8255
 8294TIP3    H224847   0.110   1.525   0.281  0.8162 -0.7686 -1.8712
 8295TIP3   OH224848   1.018   4.319   3.384  0.1629 -0.2587  0.0953
 8295TIP3    H124849   1.058   4.393   3.339 -0.1963 -0.4823 -0.6134
 8295TIP3    H224850   0.946   4.357   3.434 -0.6719 -0.2377 -1.0791
 8296TIP3   OH224851   4.651   0.999   2.859 -0.8658  0.4835  0.3364
 8296TIP3    H124852   4.680   1.076   2.908  1.3856  0.0637 -0.2319
 8296TIP3    H224853   4.555   1.001   2.866 -0.7362  1.0462  3.7910
 8297TIP3   OH224854   3.032   3.872   5.801  0.2323  0.9116  0.1791
 8297TIP3    H124855   3.027   3.960   5.839 -0.2857  0.5339  0.9960
 8297TIP3    H224856   2.989   3.881   5.716  0.3419  1.4898  0.1817
 8298TIP3   OH224857   6.856   0.847   2.968  0.9308 -0.1277 -0.2825
 8298TIP3    H124858   6.788   0.903   2.933  0.8717 -0.1969 -0.2796
 8298TIP3    H224859   6.938   0.884   2.934  0.9541  0.4210  0.3538
 8299TIP3   OH224860   5.740   3.198   0.714 -0.1289  0.4495 -0.3011
 8299TIP3    H124861   5.652   3.219   0.682 -0.4552 -0.1687  0.1453
 8299TIP3    H224862   5.780   3.147   0.644 -1.4307 -2.3257  0.7785
 8300TIP3   OH224863   4.849   0.511   0.907 -0.0373 -0.4793  0.0991
 8300TIP3    H124864   4.876   0.601   0.888  1.0392 -0.6939  0.5469
 8300TIP3    H224865   4.760   0.519   0.943 -0.5232  0.2644 -1.2183
 8301TIP3   OH224866   3.707   3.859   0.115  0.0869 -0.2719  0.1387
 8301TIP3    H124867   3.641   3.885   0.180  1.3810 -0.2958  1.4994
 8301TIP3    H224868   3.681   3.770   0.090 -1.7067  0.5380 -1.0947
 8302TIP3   OH224869   0.557   2.742   5.544 -0.3748  0.0611 -0.2844
 8302TIP3    H124870   0.632   2.773   5.493 -0.3152  0.2093 -0.1064
 8302TIP3    H224871   0.503   2.694   5.480 -0.0900 -0.1154 -0.3950
 8303TIP3   OH224872   0.678   0.497   5.588 -0.4444  0.1608 -0.3575
 8303TIP3    H124873   0.600   0.497   5.533 -1.9272 -0.3386  1.6476
 8303TIP3    H224874   0.647   0.468   5.673  2.5078 -3.2294 -0.2232
 8304TIP3   OH224875   3.810   5.981   1.179 -0.1412 -0.7102  0.2577
 8304TIP3    H124876   3.799   6.074   1.159 -1.8542 -0.7608  0.7734
 8304TIP3    H224877   3.904   5.971   1.197 -0.0791  1.1304  1.2271
 8305TIP3   OH224878   0.673   3.364   4.134  0.8425  0.1939  0.0776
 8305TIP3    H124879   0.623   3.299   4.084 -0.4588  0.2950  1.2000
 8305TIP3    H224880   0.715   3.417   4.067 -0.0899 -0.2605 -0.9072
 8306TIP3   OH224881   1.454   0.923   0.438 -0.3345 -0.1842  0.3287
 8306TIP3    H124882   1.463   0.828   0.444 -0.8375 -0.1718  1.5971
 8306TIP3    H224883   1.454   0.953   0.529 -0.4848  1.0083 -0.0421
 8307TIP3   OH224884   4.670   4.546   5.087  0.7362  0.1405  0.4452
 8307TIP3    H124885   4.708   4.506   5.165  3.2590  0.9246 -0.2514
 8307TIP3    H224886   4.663   4.639   5.109  0.1920  0.1587  0.1973
 8308TIP3   OH224887   5.364   5.297   1.595  0.0758 -0.0794  0.6281
 8308TIP3    H124888   5.323   5.341   1.520  2.2020  1.8497  0.4842
 8308TIP3    H224889   5.347   5.204   1.581 -1.8312  0.4256 -0.8260
 8309TIP3   OH224890   4.465   6.756   3.104 -0.0083  0.0574  0.0446
 8309TIP3    H124891   4.458   6.771   3.198 -1.5260 -0.6033  0.0517
 8309TIP3    H224892   4.447   6.842   3.065  1.5444  0.5608  0.3419
 8310TIP3   OH224893   0.424   5.277   1.550 -0.0808  0.2889  0.0134
 8310TIP3    H124894   0.449   5.255   1.640  0.7904  0.9024 -0.0615
 8310TIP3    H224895   0.507   5.282   1.503 -0.4451  1.1138 -0.5595
 8311TIP3   OH224896   2.871   3.190   2.335  0.0072 -0.0906  0.4692
 8311TIP3    H124897   2.929   3.188   2.411 -0.2357 -1.0503  0.6486
 8311TIP3    H224898   2.926   3.224   2.264  0.3535  0.4208  0.9736
 8312TIP3   OH224899   4.763   2.880   4.054  0.1067 -0.5967  0.0012
 8312TIP3    H124900   4.740   2.850   3.966 -1.2766 -0.9743  0.4585
 8312TIP3    H224901   4.858   2.887   4.053  0.0615  0.3678 -1.8210
 8313TIP3   OH224902   6.056   3.377   0.467 -0.7330  0.1905 -0.3886
 8313TIP3    H124903   6.021   3.464   0.489 -0.2766  0.3525 -0.2946
 8313TIP3    H224904   6.151   3.390   0.460 -0.5015 -0.5693  0.9328
 8314TIP3   OH224905   1.246   4.493   3.627 -0.1932  0.2316  0.8229
 8314TIP3    H124906   1.209   4.557   3.568 -1.2676 -1.9223 -0.9908
 8314TIP3    H224907   1.329   4.532   3.657 -0.7752  2.3748 -0.2159
 8315TIP3   OH224908   5.120   4.082   3.940 -0.2906 -0.0808  0.0574
 8315TIP3    H124909   5.068   4.027   3.999 -1.2186  0.2592 -0.4249
 8315TIP3    H224910   5.061   4.100   3.866  0.2379  0.9708 -0.1232
 8316TIP3   OH224911   0.657   6.209   5.197  0.2203  0.7111 -0.0984
 8316TIP3    H124912   0.585   6.177   5.143 -0.8551  1.7837  0.6377
 8316TIP3    H224913   0.666   6.144   5.267 -1.5313  1.6023  1.0377
 8317TIP3   OH224914   1.282   2.463   5.445 -0.1147 -0.1739  0.5710
 8317TIP3    H124915   1.188   2.479   5.433 -0.1678  0.4918  1.7488
 8317TIP3    H224916   1.295   2.375   5.410 -0.8293  0.3756 -1.1934
 8318TIP3   OH224917   0.410   2.348   1.787 -0.4338 -0.0782 -0.2305
 8318TIP3    H124918   0.370   2.274   1.833 -0.2631  0.3277  0.5960
 8318TIP3    H224919   0.453   2.309   1.712 -2.0584 -0.5788 -0.9495
 8319TIP3   OH224920   5.651   2.669   2.404  0.0033  0.6459 -0.3330
 8319TIP3    H124921   5.597   2.644   2.329  0.6214 -0.9340 -0.2916
 8319TIP3    H224922   5.735   2.628   2.387  0.9154  2.2671  0.0812
 8320TIP3   OH224923   4.510   0.005   0.063 -0.5544  0.8335  0.4408
 8320TIP3    H124924   4.481   0.053  -0.014  0.6606 -1.2740 -1.4501
 8320TIP3    H224925   4.605   0.004   0.057 -0.5182 -1.6575  0.4017
 8321TIP3   OH224926   4.960   1.964   5.639 -0.0631  0.7235  0.2148
 8321TIP3    H124927   5.035   1.938   5.586  0.9124  0.3818  1.7034
 8321TIP3    H224928   4.884   1.937   5.588  0.8111  0.7868 -1.1827
 8322TIP3   OH224929   2.786   5.694   4.503 -0.2517  0.0414 -0.0226
 8322TIP3    H124930   2.874   5.700   4.540 -0.3421 -0.2642  0.2411
 8322TIP3    H224931   2.799   5.701   4.408  0.2250 -1.7622 -0.1110
 8323TIP3   OH224932   6.353   1.142   0.022 -0.3215 -0.4852  0.1080
 8323TIP3    H124933   6.311   1.139  -0.064  2.2419 -0.2667 -1.2170
 8323TIP3    H224934   6.326   1.060   0.064 -1.2179 -0.8250 -1.0632
 8324TIP3   OH224935   1.936   4.793   4.321 -0.2121 -0.2777  0.2100
 8324TIP3    H124936   2.009   4.847   4.288 -1.2187  0.6990 -0.4832
 8324TIP3    H224937   1.921   4.824   4.410 -2.2360  2.2334 -0.9068
 8325TIP3   OH224938   0.001   0.031   4.114 -0.0333 -0.0477  0.1946
 8325TIP3    H124939   0.051  -0.050   4.121  0.8270  0.5845  2.5814
 8325TIP3    H224940   0.048   0.092   4.170  0.1579  2.5828 -2.5671
 8326TIP3   OH224941   7.138   1.740   5.695  0.0983  0.1825  0.3277
 8326TIP3    H124942   7.125   1.646   5.708  1.1904 -0.2399 -1.3240
 8326TIP3    H224943   7.050   1.777   5.702 -0.4595 -1.0616  0.2077
 8327TIP3   OH224944   1.410   6.734   3.525  0.2984  0.1442  0.0234
 8327TIP3    H124945   1.421   6.735   3.620  0.2847 -1.7300  0.0816
 8327TIP3    H224946   1.321   6.702   3.511  1.0558 -1.8588 -0.5994
 8328TIP3   OH224947   3.746   3.325   0.182  0.5681 -0.6095  0.1129
 8328TIP3    H124948   3.658   3.309   0.215  0.3344  0.7087  0.1566
 8328TIP3    H224949   3.803   3.310   0.257  0.3931 -1.4888  0.0797
 8329TIP3   OH224950   6.794   3.816   5.244  0.1135 -0.1249  0.2590
 8329TIP3    H124951   6.846   3.891   5.217 -0.6215  0.6636  0.9918
 8329TIP3    H224952   6.815   3.748   5.179 -0.1621  1.0876 -1.1610
 8330TIP3   OH224953   6.340   0.932   0.567  0.0304 -0.4340  0.7866
 8330TIP3    H124954   6.409   0.877   0.605  0.0261 -0.2977  0.9934
 8330TIP3    H224955   6.283   0.870   0.521  0.9457 -0.4304 -0.4265
 8331TIP3   OH224956   4.401   5.646   0.648  0.2495 -0.5063 -0.4221
 8331TIP3    H124957   4.401   5.589   0.725  1.7352 -0.1668 -0.1332
 8331TIP3    H224958   4.346   5.720   0.673  0.3175 -0.6341  0.1270
 8332TIP3   OH224959   5.184   4.745   1.084  0.1096  0.7848 -0.1007
 8332TIP3    H124960   5.177   4.823   1.029  0.2944  2.3559  1.9751
 8332TIP3    H224961   5.103   4.697   1.066  0.1323  1.2502 -1.6656
 8333TIP3   OH224962   0.891   0.142   0.716  0.0964 -0.7110  0.5143
 8333TIP3    H124963   0.831   0.082   0.760 -1.2588  0.1379 -0.1093
 8333TIP3    H224964   0.943   0.086   0.658  1.7495 -1.8216  2.8948
 8334TIP3   OH224965   2.548   4.921   4.557  0.0723 -0.4714  0.0967
 8334TIP3    H124966   2.455   4.937   4.540  0.3306  0.7878 -0.1877
 8334TIP3    H224967   2.554   4.826   4.568 -0.8796 -0.9027 -2.3768
 8335TIP3   OH224968   1.353   4.260   4.201 -0.1623  0.2302 -0.0465
 8335TIP3    H124969   1.445   4.253   4.175 -0.7083 -0.2569 -1.9586
 8335TIP3    H224970   1.357   4.269   4.297  1.8490 -0.1137 -0.0406
 8336TIP3   OH224971   2.077   1.021   0.039  0.4121  0.4357  0.3360
 8336TIP3    H124972   2.043   1.066  -0.038 -0.7622 -0.5454  0.2645
 8336TIP3    H224973   2.077   0.929   0.015 -0.4873  0.0568  1.7012
 8337TIP3   OH224974   5.688   4.712   4.745 -0.2679  0.4443  0.2735
 8337TIP3    H124975   5.761   4.759   4.786  1.8918 -1.2934 -1.2496
 8337TIP3    H224976   5.620   4.708   4.812  1.2068  1.7995  1.9477
 8338TIP3   OH224977   6.092   1.144   3.506  0.1200  0.3398  0.7199
 8338TIP3    H124978   6.017   1.192   3.472 -0.6823 -1.1613  0.2740
 8338TIP3    H224979   6.054   1.063   3.541  1.6708 -1.1180 -0.8247
 8339TIP3   OH224980   6.486   3.978   4.708 -0.3176 -0.5271  0.0573
 8339TIP3    H124981   6.518   4.047   4.651  1.5218  0.8316  2.5302
 8339TIP3    H224982   6.550   3.908   4.700 -0.2742 -0.4984  0.1493
 8340TIP3   OH224983   2.765   6.743  -0.013 -0.4243 -0.1790  0.1173
 8340TIP3    H124984   2.692   6.704   0.035  0.2922 -2.1580 -0.2953
 8340TIP3    H224985   2.835   6.677  -0.009  1.1465  1.3902 -0.0139
 8341TIP3   OH224986   6.661   3.948   0.944 -0.1976  0.3771 -0.2185
 8341TIP3    H124987   6.684   3.978   0.856  0.7833  0.0364 -0.0867
 8341TIP3    H224988   6.649   3.854   0.935 -0.3104  0.3726 -0.0307
 8342TIP3   OH224989   6.021   6.755   2.440  0.5137 -0.2637 -0.5059
 8342TIP3    H124990   5.944   6.808   2.419 -0.9595 -1.0785  2.3398
 8342TIP3    H224991   6.022   6.688   2.372 -1.5971 -0.4941 -0.3833
 8343TIP3   OH224992   1.909   6.524   5.334 -0.3810  0.1863  0.3762
 8343TIP3    H124993   1.872   6.577   5.263 -1.8489 -1.0956  0.1478
 8343TIP3    H224994   1.839   6.465   5.360  0.1781  0.4239  2.7543
 8344TIP3   OH224995   1.238   1.015   3.562  0.2355 -0.2190 -0.2243
 8344TIP3    H124996   1.284   1.008   3.479  0.0258  1.7695 -0.5567
 8344TIP3    H224997   1.159   1.065   3.541 -0.1483 -0.2483  1.0658
 8345TIP3   OH224998   6.005   1.446   4.633  0.0798  0.0059 -0.7142
 8345TIP3    H124999   5.927   1.400   4.663 -0.7516  2.0493  0.4219
 8345TIP3    H225000   6.008   1.429   4.539 -1.7217 -0.1090 -0.7787
 8346TIP3   OH225001   3.765   6.516   5.164  0.3391 -0.2636 -0.4995
 8346TIP3    H125002   3.811   6.526   5.081 -1.2487  2.1396 -1.1993
 8346TIP3    H225003   3.673   6.529   5.142 -0.2513 -0.7028  1.4826
 8347TIP3   OH225004   6.576   1.290   4.843 -0.1717  0.0231 -0.3041
 8347TIP3    H125005   6.609   1.250   4.763 -2.4231 -0.5786 -1.0243
 8347TIP3    H225006   6.533   1.218   4.889  0.2377  0.5701  0.9777
 8348TIP3   OH225007   4.944   6.407   2.544 -0.2471  0.1140 -0.1866
 8348TIP3    H125008   4.939   6.362   2.628  0.3253  0.6150  0.1168
 8348TIP3    H225009   5.032   6.444   2.541  0.3161 -1.1888 -1.6786
 8349TIP3   OH225010   1.658   4.842   4.040  0.0595 -0.6382 -0.6081
 8349TIP3    H125011   1.753   4.837   4.043  0.2253  1.8275  1.4169
 8349TIP3    H225012   1.639   4.912   3.978 -0.3769 -0.4572 -0.2792
 8350TIP3   OH225013   4.393   5.914   4.174 -0.5815 -0.0471  0.6960
 8350TIP3    H125014   4.343   5.987   4.211  0.1978  2.1066 -2.1575
 8350TIP3    H225015   4.479   5.951   4.157  0.7080 -2.4603  1.5304
 8351TIP3   OH225016   2.576   1.321   1.570  0.1030 -0.1346  0.3300
 8351TIP3    H125017   2.615   1.236   1.591  0.2723  0.3756  2.3802
 8351TIP3    H225018   2.648   1.383   1.584  0.2331  0.3053 -2.0275
 8352TIP3   OH225019   0.817   3.787   2.093  0.5063  0.5466 -0.4259
 8352TIP3    H125020   0.758   3.739   2.034 -0.6182  0.3013  0.8413
 8352TIP3    H225021   0.833   3.870   2.049  0.6797 -0.0984 -1.6301
 8353TIP3   OH225022   0.707   0.830   3.993 -0.1175  0.4078  0.2271
 8353TIP3    H125023   0.778   0.893   3.984  0.0194  0.3388  0.7816
 8353TIP3    H225024   0.716   0.771   3.918  0.8702 -0.0645  0.7063
 8354TIP3   OH225025   2.415   4.227   2.626 -0.1824  0.1343 -0.3210
 8354TIP3    H125026   2.391   4.149   2.577 -1.7928 -1.0544  2.1540
 8354TIP3    H225027   2.510   4.219   2.641  0.1152 -0.0497 -2.0981
 8355TIP3   OH225028   5.367   2.848   2.981  0.3147  0.5265  0.1536
 8355TIP3    H125029   5.432   2.880   2.918  1.4330  1.2709  1.6248
 8355TIP3    H225030   5.361   2.917   3.047 -1.2537  0.0252  0.5743
 8356TIP3   OH225031   6.349   1.399   2.029 -0.0285  0.4168  0.0233
 8356TIP3    H125032   6.282   1.360   1.973  2.0998  1.0900 -3.2813
 8356TIP3    H225033   6.408   1.326   2.049 -0.1223  0.4373  0.3889
 8357TIP3   OH225034   4.709   3.373   5.858  0.3648  0.7296  0.6136
 8357TIP3    H125035   4.793   3.334   5.836  0.7364  1.3458  0.9071
 8357TIP3    H225036   4.700   3.446   5.797 -0.0362  0.5723  0.4767
 8358TIP3   OH225037   1.306   0.446   5.479  0.4073 -0.1715 -0.1325
 8358TIP3    H125038   1.237   0.475   5.539  0.6191 -0.9291  0.4999
 8358TIP3    H225039   1.366   0.396   5.535  2.3122  1.7572 -0.3297
 8359TIP3   OH225040   1.073   0.630   2.654  0.0900  0.3815 -0.3301
 8359TIP3    H125041   1.167   0.647   2.658  0.0550  0.8422 -1.2422
 8359TIP3    H225042   1.066   0.551   2.599 -0.1012  0.8624 -1.0063
 8360TIP3   OH225043   5.008   0.425   0.420  0.0261 -0.0744 -0.5127
 8360TIP3    H125044   5.059   0.435   0.500  0.7951  1.7372 -1.1876
 8360TIP3    H225045   5.066   0.378   0.360  1.4142  2.8129 -1.6091
 8361TIP3   OH225046   0.457   0.777   2.111 -0.0903  0.7710 -0.4882
 8361TIP3    H125047   0.507   0.855   2.087 -0.9245  0.9320 -1.8141
 8361TIP3    H225048   0.454   0.779   2.207  1.4972  1.3290 -0.4152
 8362TIP3   OH225049   0.190   2.854   1.844 -0.5494  0.3744 -0.0259
 8362TIP3    H125050   0.252   2.924   1.826  0.8568 -0.5750  0.8628
 8362TIP3    H225051   0.243   2.787   1.889 -2.0603 -0.7985  0.0715
 8363TIP3   OH225052   3.202   4.481   1.620 -0.2705 -0.0358  0.2480
 8363TIP3    H125053   3.130   4.539   1.644 -0.3616  0.1924 -0.5486
 8363TIP3    H225054   3.235   4.516   1.537  0.3928 -0.4726  0.3170
 8364TIP3   OH225055   2.800   4.905   5.025  0.2931 -0.1448  0.3545
 8364TIP3    H125056   2.753   4.895   5.107  0.4953 -1.4503  0.3364
 8364TIP3    H225057   2.839   4.992   5.029  0.2376 -0.1699  1.6092
 8365TIP3   OH225058   2.558   2.089   0.767  0.6239  0.4250 -0.5002
 8365TIP3    H125059   2.646   2.051   0.772  0.8411  0.8560 -0.9833
 8365TIP3    H225060   2.500   2.013   0.758  0.7995  0.0462  1.2486
 8366TIP3   OH225061   1.071   1.702   1.834 -0.3573 -0.7409  0.0327
 8366TIP3    H125062   1.092   1.763   1.905 -2.2134  1.3032 -1.0383
 8366TIP3    H225063   1.084   1.753   1.754  0.0574 -2.4495 -1.0374
 8367TIP3   OH225064   4.451   4.873   1.866  0.3122  0.0078  0.1069
 8367TIP3    H125065   4.451   4.944   1.929 -0.1655  0.4107 -0.3311
 8367TIP3    H225066   4.543   4.853   1.851  0.4211 -0.4051  1.2622
 8368TIP3   OH225067   5.879   1.259   3.783 -0.0631  0.0110  0.1859
 8368TIP3    H125068   5.970   1.233   3.769 -0.2235  0.1558 -1.2318
 8368TIP3    H225069   5.885   1.344   3.826  0.5016  0.7690 -1.3281
 8369TIP3   OH225070   7.117   2.455   0.298 -0.4501  0.4791  0.2469
 8369TIP3    H125071   7.150   2.505   0.223 -0.5592 -1.0002 -0.8410
 8369TIP3    H225072   7.195   2.430   0.347 -0.4638  2.6373  1.4630
 8370TIP3   OH225073   2.768   0.041   4.701  0.0954  0.3165 -0.3437
 8370TIP3    H125074   2.771   0.068   4.609  1.2929  1.2224 -0.0595
 8370TIP3    H225075   2.785   0.121   4.750 -0.4750 -0.1698  0.6841
 8371TIP3   OH225076   3.520   0.519   3.421  0.2317  0.1592  0.6238
 8371TIP3    H125077   3.486   0.560   3.341 -0.9482  2.0941  2.0321
 8371TIP3    H225078   3.447   0.468   3.455 -0.6758  2.4639  2.4324
 8372TIP3   OH225079   0.483   6.546   3.798 -0.6476  0.3506  0.5429
 8372TIP3    H125080   0.546   6.518   3.864  0.1653  1.4925  0.2846
 8372TIP3    H225081   0.399   6.550   3.844 -0.7147 -1.8508  0.7375
 8373TIP3   OH225082   4.099   3.369   5.905  0.0281 -0.4008 -0.2747
 8373TIP3    H125083   4.148   3.402   5.830  1.8347  0.8656  1.3244
 8373TIP3    H225084   4.014   3.412   5.900  0.5227  0.5353 -1.0362
 8374TIP3   OH225085   1.878   1.915   1.149 -0.8195 -0.0808  0.7814
 8374TIP3    H125086   1.844   1.838   1.195 -0.7007 -0.9762 -0.5927
 8374TIP3    H225087   1.972   1.900   1.143 -0.7819  0.2179  0.5920
 8375TIP3   OH225088   0.580   6.157   0.998  0.2848  0.1528 -0.0361
 8375TIP3    H125089   0.563   6.087   0.934 -0.8408 -1.6211  2.0392
 8375TIP3    H225090   0.665   6.193   0.972  1.2151 -2.3921 -0.9123
 8376TIP3   OH225091   3.259   4.461   5.493 -0.1221  0.0922  0.0758
 8376TIP3    H125092   3.313   4.432   5.418 -0.6023  0.7838 -0.5512
 8376TIP3    H225093   3.190   4.395   5.498 -0.3089  0.2504 -0.3422
 8377TIP3   OH225094   5.617   4.947   2.322 -0.3168  0.5247  0.1198
 8377TIP3    H125095   5.695   4.897   2.348 -0.8917 -1.0478 -1.0232
 8377TIP3    H225096   5.606   5.012   2.392  1.9917  0.7843  0.3174
 8378TIP3   OH225097   4.204   5.765   2.840 -0.3045 -0.1627 -0.1830
 8378TIP3    H125098   4.200   5.768   2.936 -0.9110  0.6811 -0.2186
 8378TIP3    H225099   4.118   5.797   2.812 -0.4184 -1.1506 -1.0061
 8379TIP3   OH225100   7.007   5.081   3.317 -0.7688  0.1160 -0.5407
 8379TIP3    H125101   7.005   5.106   3.224  0.7167 -1.3779 -1.0234
 8379TIP3    H225102   7.057   5.152   3.359  0.7468 -0.4025 -1.3560
 8380TIP3   OH225103   5.913   3.523   2.752  0.3698  0.3867 -0.7874
 8380TIP3    H125104   5.965   3.447   2.780 -0.6227 -0.2835 -0.7016
 8380TIP3    H225105   5.978   3.584   2.716  1.5607  0.7263  1.7125
 8381TIP3   OH225106   0.316   3.742   2.919  0.2745 -0.3190  0.1438
 8381TIP3    H125107   0.241   3.711   2.969 -0.9396 -1.0752 -1.9967
 8381TIP3    H225108   0.368   3.793   2.981 -1.5115 -0.5772  1.9278
 8382TIP3   OH225109   3.255   0.400   5.083 -0.0366 -0.0982 -0.0359
 8382TIP3    H125110   3.247   0.406   5.178  1.2003  1.6931 -0.0077
 8382TIP3    H225111   3.329   0.341   5.069 -0.3400 -0.5169  0.0810
 8383TIP3   OH225112   6.244   2.722   0.629 -0.0784  0.1422 -0.1038
 8383TIP3    H125113   6.320   2.774   0.655 -0.0129  0.5499 -1.0887
 8383TIP3    H225114   6.232   2.661   0.702  0.4837  0.8319  0.5869
 8384TIP3   OH225115   1.824   1.646   0.828  0.0048 -0.0504  0.1716
 8384TIP3    H125116   1.826   1.640   0.733 -1.3093  0.0823  0.1211
 8384TIP3    H225117   1.783   1.565   0.857  0.0031  0.1002  0.6013
 8385TIP3   OH225118   6.484   4.659   5.649 -0.4229  0.5809 -0.1470
 8385TIP3    H125119   6.515   4.574   5.680 -0.5930  0.2889 -0.7540
 8385TIP3    H225120   6.524   4.722   5.708 -0.4869  0.0664  0.4630
 8386TIP3   OH225121   3.582   4.815   1.030 -0.9607  0.6151  0.2279
 8386TIP3    H125122   3.639   4.864   0.972 -1.6004  1.4119  0.2510
 8386TIP3    H225123   3.627   4.814   1.115 -1.3002  1.8728  0.4430
 8387TIP3   OH225124   1.131   2.882   1.965 -0.4743 -0.2946  0.1626
 8387TIP3    H125125   1.194   2.934   2.015 -1.2182  1.0730 -0.2893
 8387TIP3    H225126   1.135   2.795   2.005  0.5545  0.1812  1.1454
 8388TIP3   OH225127   5.640   4.419   1.698 -0.1814  0.5422 -0.3864
 8388TIP3    H125128   5.599   4.425   1.611  0.6033 -0.8225 -0.8754
 8388TIP3    H225129   5.592   4.349   1.742  1.2598 -0.7359 -0.7878
 8389TIP3   OH225130   3.638   6.291   3.548  0.0027 -0.0647  0.1114
 8389TIP3    H125131   3.602   6.360   3.604  0.7994  1.1720 -0.8371
 8389TIP3    H225132   3.628   6.325   3.459 -1.6220 -2.1698 -0.5820
 8390TIP3   OH225133   6.404   6.408   5.602 -0.3236  0.3434  0.3319
 8390TIP3    H125134   6.438   6.409   5.691 -1.3524 -1.5550  0.8115
 8390TIP3    H225135   6.449   6.334   5.560 -1.4303 -0.1690 -0.0039
 8391TIP3   OH225136   2.610   5.727   3.648 -0.0664 -0.2077  0.1026
 8391TIP3    H125137   2.532   5.671   3.650  1.0632 -1.8339  0.2583
 8391TIP3    H225138   2.625   5.742   3.554  0.6349 -1.6882 -0.0541
 8392TIP3   OH225139   2.801   5.623   3.862 -0.7738  0.3457 -0.1749
 8392TIP3    H125140   2.766   5.703   3.901 -4.0718 -1.6831  1.4552
 8392TIP3    H225141   2.736   5.598   3.796 -0.3741 -1.4987  0.0700
 8393TIP3   OH225142   0.437   2.999   2.437  0.0935  0.5124 -0.4624
 8393TIP3    H125143   0.424   3.020   2.530 -0.2202 -0.7780 -0.1942
 8393TIP3    H225144   0.516   2.945   2.437 -0.5586 -0.4723 -0.7833
 8394TIP3   OH225145   2.306   5.812   4.136 -0.0310  0.3913  0.6519
 8394TIP3    H125146   2.254   5.893   4.130 -0.3478  0.0812 -2.0628
 8394TIP3    H225147   2.243   5.745   4.162 -0.7222  0.3010 -1.1369
 8395TIP3   OH225148   4.100   5.780   0.343 -0.3434  0.3944  0.5156
 8395TIP3    H125149   4.111   5.704   0.400 -2.8198 -0.8025 -0.4519
 8395TIP3    H225150   4.091   5.854   0.404 -0.4091 -0.4568  1.5731
 8396TIP3   OH225151   1.052   2.098   1.290 -0.1594 -0.0838  0.1795
 8396TIP3    H125152   1.133   2.046   1.298 -0.2042 -0.2026 -0.1013
 8396TIP3    H225153   1.038   2.135   1.377 -0.2580 -0.7431  0.4550
 8397TIP3   OH225154   3.584   0.352   2.634  0.0119 -0.4078  0.0252
 8397TIP3    H125155   3.602   0.420   2.698 -0.3536 -0.0871 -0.2079
 8397TIP3    H225156   3.663   0.347   2.581 -0.3933  0.6824 -0.7149
 8398TIP3   OH225157   6.976   0.740   3.683 -0.0246 -0.5022 -0.3463
 8398TIP3    H125158   6.951   0.703   3.767  0.0091 -1.4835 -0.7534
 8398TIP3    H225159   7.031   0.673   3.642  1.1371  0.5511 -0.5615
 8399TIP3   OH225160   6.749   0.924   0.257 -0.1497  0.4169 -0.2516
 8399TIP3    H125161   6.726   1.014   0.237  2.4950  1.1346 -0.5061
 8399TIP3    H225162   6.685   0.896   0.323 -0.5876  2.7267  0.3862
 8400TIP3   OH225163   3.814   3.797   4.700 -0.0228  0.2009 -0.0889
 8400TIP3    H125164   3.807   3.796   4.605 -0.4888 -1.2448 -0.0585
 8400TIP3    H225165   3.740   3.744   4.730  0.8409 -0.4053  1.0304
 8401TIP3   OH225166   5.410   5.749   2.296  0.7029 -0.0439 -0.5725
 8401TIP3    H125167   5.497   5.737   2.335 -0.3850 -0.0580  2.1034
 8401TIP3    H225168   5.413   5.836   2.255  0.8226  1.9752  3.2546
 8402TIP3   OH225169   6.540   4.930   1.677 -0.1554  0.6897  0.1491
 8402TIP3    H125170   6.634   4.918   1.689  0.0755  2.6495  0.7187
 8402TIP3    H225171   6.501   4.846   1.700  1.3360  0.4127  1.8289
 8403TIP3   OH225172   2.889   5.179   2.292 -0.0323  0.0603  0.6427
 8403TIP3    H125173   2.897   5.143   2.380  0.5511 -0.4804  0.3844
 8403TIP3    H225174   2.805   5.224   2.291 -0.5436 -0.8552  1.1496
 8404TIP3   OH225175   6.720   1.410   4.164 -0.5670 -0.1837 -0.1192
 8404TIP3    H125176   6.808   1.377   4.181 -0.5680 -0.4559 -0.6174
 8404TIP3    H225177   6.733   1.503   4.145 -0.0915 -0.6145 -2.2634
 8405TIP3   OH225178   3.893   6.552   0.423  0.3098  0.0044  0.6470
 8405TIP3    H125179   3.916   6.482   0.484  2.7331  0.4286  0.3453
 8405TIP3    H225180   3.978   6.590   0.397 -0.8271  2.0642 -0.3523
 8406TIP3   OH225181   6.684   2.185   0.340  0.0871 -0.0039 -0.1334
 8406TIP3    H125182   6.669   2.158   0.430 -3.3677  1.8930  0.0225
 8406TIP3    H225183   6.672   2.105   0.289  1.4593 -0.9693  0.9744
 8407TIP3   OH225184   3.943   3.712   1.390  0.2642  0.4520 -0.0391
 8407TIP3    H125185   4.020   3.656   1.383  0.9783  1.2346  1.1595
 8407TIP3    H225186   3.947   3.768   1.313 -0.0735 -0.6501 -0.8783
 8408TIP3   OH225187   5.045   3.647   4.408  0.1339 -0.3576 -0.2620
 8408TIP3    H125188   5.067   3.740   4.414 -0.6136 -0.2290  0.8629
 8408TIP3    H225189   5.129   3.602   4.408  0.4898  0.2488  0.9924
 8409TIP3   OH225190   3.633   2.001   2.058 -0.0868 -0.1441 -0.1393
 8409TIP3    H125191   3.612   2.093   2.076 -2.6819 -0.9072  1.3699
 8409TIP3    H225192   3.708   1.982   2.114 -1.2393  0.4198  1.7229
 8410TIP3   OH225193   5.021   2.141   4.324 -0.2480 -0.5736 -0.5576
 8410TIP3    H125194   5.019   2.046   4.328  0.6310 -0.7126 -2.4075
 8410TIP3    H225195   4.930   2.168   4.336 -1.2405 -1.9162 -3.9321
 8411TIP3   OH225196   1.035   6.825   2.111 -0.0178  0.1235 -0.4786
 8411TIP3    H125197   1.002   6.736   2.120  2.3901 -0.8081 -0.2836
 8411TIP3    H225198   1.073   6.828   2.023  1.2566  0.4410  0.0539
 8412TIP3   OH225199   6.116   5.463   3.174 -0.5104 -0.1335 -0.2086
 8412TIP3    H125200   6.183   5.400   3.147 -2.0344 -1.5187 -0.9383
 8412TIP3    H225201   6.133   5.478   3.267  0.0691 -1.4137 -0.0932
 8413TIP3   OH225202   3.213   5.833   5.350  0.3732  0.3838 -0.0533
 8413TIP3    H125203   3.125   5.803   5.373 -0.3687  0.7607 -2.1684
 8413TIP3    H225204   3.222   5.917   5.395 -0.1695  0.1283  0.5483
 8414TIP3   OH225205   4.841   3.309   0.895  0.0425 -0.1758 -0.3833
 8414TIP3    H125206   4.750   3.318   0.864  0.1715  0.7116 -0.5196
 8414TIP3    H225207   4.893   3.300   0.815  0.1933  0.4486 -0.3594
 8415TIP3   OH225208   2.415   0.435   4.569  0.3309 -0.9053 -0.1366
 8415TIP3    H125209   2.384   0.443   4.659 -3.3394 -2.5556 -1.0952
 8415TIP3    H225210   2.384   0.514   4.526  0.0698 -1.1819 -0.4592
 8416TIP3   OH225211   0.565   6.070   0.674  0.0753  0.2260  0.0120
 8416TIP3    H125212   0.485   6.018   0.684 -0.9902  1.6675 -0.5552
 8416TIP3    H225213   0.537   6.146   0.622  2.1122  0.1266 -1.3340
 8417TIP3   OH225214   0.696   5.845   2.765 -0.3779 -0.2494 -0.3574
 8417TIP3    H125215   0.750   5.899   2.822  1.3099 -1.3875 -0.8156
 8417TIP3    H225216   0.666   5.906   2.697  2.8557 -0.0791 -1.8201
 8418TIP3   OH225217   1.817   5.239   1.637 -0.0373 -0.5950 -0.4955
 8418TIP3    H125218   1.743   5.282   1.595 -0.2788 -1.0036 -0.4882
 8418TIP3    H225219   1.784   5.154   1.665  0.4267 -0.7754 -0.4769
 8419TIP3   OH225220   2.802   5.904   0.491 -0.4829  0.6740 -0.3559
 8419TIP3    H125221   2.851   5.982   0.464 -1.0126  0.6570 -1.4174
 8419TIP3    H225222   2.762   5.929   0.574 -0.2558  1.3725 -0.4454
 8420TIP3   OH225223   0.859   6.424   0.293 -0.5378  0.0886 -0.2655
 8420TIP3    H125224   0.899   6.340   0.313 -0.4842  0.5418  1.7226
 8420TIP3    H225225   0.885   6.443   0.203  0.9916 -1.1463 -0.1058
 8421TIP3   OH225226   0.552   2.605   4.628 -0.3469  0.3111  0.2295
 8421TIP3    H125227   0.602   2.681   4.656  0.5507 -0.2231  0.1206
 8421TIP3    H225228   0.578   2.592   4.536 -0.8921  0.1805  0.0879
 8422TIP3   OH225229   5.239   2.964   0.573  0.2185  0.1026  0.3826
 8422TIP3    H125230   5.270   3.002   0.656  0.4120 -3.0581  1.9391
 8422TIP3    H225231   5.151   2.933   0.593  0.3142 -0.7968 -0.5233
 8423TIP3   OH225232   5.556   4.977   5.448  0.2687 -0.0032  0.3777
 8423TIP3    H125233   5.524   4.959   5.536  0.6400 -0.1266  0.4888
 8423TIP3    H225234   5.485   4.949   5.390 -0.1468  0.4609  0.6497
 8424TIP3   OH225235   0.196   2.851   5.670  0.0439 -0.0802  0.1270
 8424TIP3    H125236   0.114   2.887   5.706 -0.5570 -0.3726 -0.8970
 8424TIP3    H225237   0.222   2.914   5.603  1.0648  0.3775  0.9209
 8425TIP3   OH225238   5.900   3.683   3.846 -0.5280 -0.8236 -0.0463
 8425TIP3    H125239   5.875   3.593   3.823  0.8589 -1.2403 -0.0216
 8425TIP3    H225240   5.817   3.730   3.851 -1.3813 -2.3295  0.9665
 8426TIP3   OH225241   4.627   2.569   4.049 -0.2653 -0.2245  0.0387
 8426TIP3    H125242   4.632   2.625   4.127 -2.0195  0.7166 -0.4687
 8426TIP3    H225243   4.633   2.480   4.082 -2.1883  0.1081  1.4106
 8427TIP3   OH225244   0.483   1.805   1.718 -0.3347 -0.1061  0.0963
 8427TIP3    H125245   0.442   1.849   1.792 -0.8593 -1.2580  0.5229
 8427TIP3    H225246   0.488   1.713   1.745 -0.9058 -0.6242 -1.4450
 8428TIP3   OH225247   0.066   5.763   3.344  0.2568  0.2581  0.8964
 8428TIP3    H125248   0.080   5.849   3.303  1.9887  0.7392  2.3460
 8428TIP3    H225249   0.118   5.703   3.291  0.2102  0.3568  0.7359
 8429TIP3   OH225250   2.257   5.977   3.521 -0.1477 -0.1412 -0.7771
 8429TIP3    H125251   2.300   5.971   3.606  0.7658  1.5775 -1.0727
 8429TIP3    H225252   2.208   5.896   3.513  3.7594 -2.7389 -0.8312
 8430TIP3   OH225253   3.730   4.318   4.682  0.2806 -0.0651  0.4802
 8430TIP3    H125254   3.758   4.319   4.590 -0.2906  0.0921  0.3048
 8430TIP3    H225255   3.780   4.247   4.721 -0.6373 -1.1882 -0.3303
 8431TIP3   OH225256   3.090   5.727   0.851  0.2448 -0.5642 -0.0553
 8431TIP3    H125257   3.177   5.720   0.812  0.2996  0.2809 -0.1137
 8431TIP3    H225258   3.042   5.653   0.816  1.3832 -1.9412  1.1720
 8432TIP3   OH225259   5.839   5.943   2.474 -0.1560  0.1160  0.5989
 8432TIP3    H125260   5.829   5.992   2.393  0.5142  1.0406  1.0602
 8432TIP3    H225261   5.766   5.971   2.528 -0.6468 -0.5579  0.3003
 8433TIP3   OH225262   0.346   0.936   1.084 -0.5067  0.1880 -0.1355
 8433TIP3    H125263   0.418   0.916   1.144 -1.5984 -0.1616  1.1050
 8433TIP3    H225264   0.317   1.024   1.110  0.2560  0.8716 -1.4681
 8434TIP3   OH225265   4.603   1.204   4.545 -0.0728  0.1883  0.3032
 8434TIP3    H125266   4.660   1.239   4.613  0.2357 -0.8246  0.5920
 8434TIP3    H225267   4.520   1.187   4.590 -0.3790  0.9679  0.0540
 8435TIP3   OH225268   0.600   2.066   3.654 -0.4006 -0.1965 -0.1213
 8435TIP3    H125269   0.568   2.120   3.582 -1.9928 -1.5276 -0.4658
 8435TIP3    H225270   0.522   2.048   3.706 -0.2011 -3.1502 -0.7154
 8436TIP3   OH225271   4.969   1.656   2.325  0.7765 -0.2605 -0.4896
 8436TIP3    H125272   4.956   1.668   2.419  0.5565 -1.3062 -0.3783
 8436TIP3    H225273   5.061   1.677   2.311  0.2796  2.1806 -0.4411
 8437TIP3   OH225274   3.826   4.944   0.869 -0.1463 -0.5189  0.7262
 8437TIP3    H125275   3.842   4.985   0.954  1.6392 -0.4781  0.4078
 8437TIP3    H225276   3.893   4.876   0.862  1.1853  0.8954 -1.5326
 8438TIP3   OH225277   5.935   5.884   1.253  0.0219  0.2491 -0.0260
 8438TIP3    H125278   5.878   5.904   1.327 -0.5915 -0.4053 -0.3039
 8438TIP3    H225279   5.992   5.814   1.284  0.6377  0.8572  0.2299
 8439TIP3   OH225280   3.318   2.648   5.579  0.1012 -0.2587 -0.1594
 8439TIP3    H125281   3.313   2.729   5.629 -0.4626 -1.6358  2.1712
 8439TIP3    H225282   3.231   2.636   5.543 -0.1775 -0.4373  0.5553
 8440TIP3   OH225283   3.874   4.942   3.406  0.2908  0.6398 -0.0124
 8440TIP3    H125284   3.815   5.008   3.370  0.5316  0.7972 -0.1243
 8440TIP3    H225285   3.937   4.993   3.459 -0.4301  0.3559  1.1492
 8441TIP3   OH225286   4.415   5.362   5.251  0.4774 -0.3893  0.9027
 8441TIP3    H125287   4.394   5.281   5.297  0.1216 -0.1380  1.1896
 8441TIP3    H225288   4.510   5.370   5.259  0.6730 -1.3658 -0.1197
 8442TIP3   OH225289   5.287   4.033   5.087  0.0710 -0.2242  0.0590
 8442TIP3    H125290   5.210   3.978   5.073  0.1827 -0.4883  0.4514
 8442TIP3    H225291   5.253   4.122   5.092 -0.1491 -0.2898 -0.2726
 8443TIP3   OH225292   5.693   0.110   2.074 -0.0627  0.0925  0.5789
 8443TIP3    H125293   5.737   0.130   1.992 -1.0513 -1.2828 -0.3385
 8443TIP3    H225294   5.631   0.182   2.087  1.9792  1.7488  1.5998
 8444TIP3   OH225295   6.078   4.413   5.556  0.1719 -0.2383  0.0772
 8444TIP3    H125296   6.085   4.490   5.612  0.3352 -0.4316  0.3248
 8444TIP3    H225297   5.987   4.412   5.528  0.4459  0.7309 -0.9175
 8445TIP3   OH225298   1.829   2.332   5.151  0.5045  0.5630  0.2435
 8445TIP3    H125299   1.797   2.422   5.145  1.6069  0.9363 -0.4823
 8445TIP3    H225300   1.923   2.339   5.134  0.7548 -0.6355  0.9967
 8446TIP3   OH225301   1.645   0.731   1.208  0.3512 -0.2506  0.2617
 8446TIP3    H125302   1.641   0.820   1.172  1.3722  0.3335  1.5223
 8446TIP3    H225303   1.642   0.674   1.131  1.6117  0.9369 -0.7076
 8447TIP3   OH225304   0.806   1.989   5.504  0.1774  0.4980 -0.7819
 8447TIP3    H125305   0.738   2.019   5.443  0.0591  0.9796 -0.4228
 8447TIP3    H225306   0.775   2.018   5.590  0.1887 -0.4486 -0.4470
 8448TIP3   OH225307   5.293   2.646   2.162 -0.2152  0.1944  0.0182
 8448TIP3    H125308   5.224   2.649   2.228 -0.3037  1.3618 -0.1221
 8448TIP3    H225309   5.266   2.575   2.103 -1.0906  0.3877  0.1740
 8449TIP3   OH225310   6.493   0.995   1.167  0.0258 -0.4680 -0.0187
 8449TIP3    H125311   6.539   0.986   1.083 -2.1542  2.6061 -1.7256
 8449TIP3    H225312   6.556   1.038   1.224  0.5191  0.3320 -1.1186
 8450TIP3   OH225313   3.225   5.273   2.301  0.2521  0.3294 -0.2981
 8450TIP3    H125314   3.243   5.367   2.307  2.4608 -0.0067 -0.5330
 8450TIP3    H225315   3.207   5.246   2.391  0.3490  0.8724 -0.1145
 8451TIP3   OH225316   3.251   6.532   2.576  0.2459  0.0534  0.3458
 8451TIP3    H125317   3.188   6.497   2.639 -0.3545  0.4706 -0.0141
 8451TIP3    H225318   3.319   6.465   2.571  1.0781  0.6734  2.5494
 8452TIP3   OH225319   2.360   0.822   5.569 -0.0487  0.5823  0.3594
 8452TIP3    H125320   2.314   0.861   5.644 -0.3830 -0.3662  0.6569
 8452TIP3    H225321   2.321   0.736   5.559  0.2597  0.5495 -0.6844
 8453TIP3   OH225322   0.336   6.704   1.093  0.2956 -0.0634 -0.2369
 8453TIP3    H125323   0.343   6.791   1.054  2.8415  0.0255  0.2462
 8453TIP3    H225324   0.305   6.719   1.182 -3.0790 -0.0619 -1.2815
 8454TIP3   OH225325   0.253   4.167   1.133 -0.1002 -0.0150  0.2358
 8454TIP3    H125326   0.272   4.233   1.067 -0.1801  0.5479  0.7670
 8454TIP3    H225327   0.182   4.115   1.094 -0.0103  0.1839 -0.2027
 8455TIP3   OH225328   1.638   4.604   2.114  0.2262  0.1063  0.5219
 8455TIP3    H125329   1.676   4.547   2.048 -1.7195  0.1599 -0.7144
 8455TIP3    H225330   1.672   4.691   2.093  0.9243 -0.1369  0.6321
 8456TIP3   OH225331   3.301   6.235   0.427  0.2176  0.8424  0.0720
 8456TIP3    H125332   3.364   6.228   0.498  0.3924  0.5232 -0.1166
 8456TIP3    H225333   3.260   6.149   0.422  1.2410  0.4002 -1.1781
 8457TIP3   OH225334   3.794   5.392   2.911 -0.0645  0.0157 -0.2282
 8457TIP3    H125335   3.737   5.467   2.896  1.4324  2.1026  3.1708
 8457TIP3    H225336   3.794   5.344   2.829 -3.2367  2.2404 -1.7112
 8458TIP3   OH225337   1.137   4.478   5.184  0.4777  0.2821  0.2397
 8458TIP3    H125338   1.072   4.426   5.137 -0.7140  1.3173  0.6898
 8458TIP3    H225339   1.088   4.519   5.256  1.7808  0.5212  1.0285
 8459TIP3   OH225340   0.092   1.875   1.822  0.4576  0.2975  0.9636
 8459TIP3    H125341   0.005   1.873   1.863 -0.4440 -0.8799 -0.8804
 8459TIP3    H225342   0.138   1.801   1.863 -0.5072 -1.0039 -0.2030
 8460TIP3   OH225343   6.195   2.755   0.993  0.4015  0.2633 -0.3217
 8460TIP3    H125344   6.236   2.818   0.934  2.7579  0.3177  1.2321
 8460TIP3    H225345   6.187   2.801   1.076  0.3065 -0.8469  0.3105
 8461TIP3   OH225346   5.221   2.796   0.062 -0.2059  0.0438 -0.2268
 8461TIP3    H125347   5.316   2.787   0.071 -0.2732 -0.0617  0.3729
 8461TIP3    H225348   5.197   2.867   0.122 -0.8611 -1.7099  1.6940
 8462TIP3   OH225349   4.572   6.596   2.107 -0.4586 -0.0499 -0.1752
 8462TIP3    H125350   4.486   6.619   2.142 -1.2457  1.0994 -2.6572
 8462TIP3    H225351   4.553   6.554   2.022  1.4376  1.2274 -1.3018
 8463TIP3   OH225352   1.782   2.078   4.450 -0.0067 -0.0627  0.0410
 8463TIP3    H125353   1.862   2.045   4.408  0.9927 -0.0000  1.7795
 8463TIP3    H225354   1.741   1.999   4.486 -0.2515  0.0147 -0.0705
 8464TIP3   OH225355   1.242   1.709   5.119  0.0796 -0.2774  0.3776
 8464TIP3    H125356   1.297   1.633   5.102 -0.7720 -1.1590  1.4863
 8464TIP3    H225357   1.154   1.683   5.093 -0.1425  0.5037  0.3058
 8465TIP3   OH225358   5.216   5.073   5.209 -0.2293  0.1324  0.2736
 8465TIP3    H125359   5.151   5.085   5.277 -0.8295  1.5019 -0.4972
 8465TIP3    H225360   5.274   5.004   5.242 -1.0830  0.0716  1.6989
 8466TIP3   OH225361   4.664   6.027   4.133 -0.2101  0.0509  0.0403
 8466TIP3    H125362   4.745   6.016   4.083  0.6886  0.1234  1.4361
 8466TIP3    H225363   4.645   6.121   4.128  0.4844  0.2386  0.7175
 8467TIP3   OH225364   5.321   2.769   3.590 -0.4981  0.0475 -0.4339
 8467TIP3    H125365   5.298   2.848   3.541 -5.2193 -0.7339  0.0162
 8467TIP3    H225366   5.327   2.799   3.681 -0.3542  0.1705 -0.4824
 8468TIP3   OH225367   4.335   6.622   5.562 -0.3826  0.0382  0.0432
 8468TIP3    H125368   4.392   6.564   5.612  1.4122  1.9433  0.3423
 8468TIP3    H225369   4.322   6.578   5.478  0.1848 -1.1912  0.5872
 8469TIP3   OH225370   2.030   0.707   3.634  0.2975 -0.2458 -0.0514
 8469TIP3    H125371   1.976   0.630   3.615  0.5916 -0.0504 -1.8444
 8469TIP3    H225372   2.007   0.769   3.564  0.8012  0.9133  0.7910
 8470TIP3   OH225373   2.413   1.649   2.374 -0.9216 -0.1630 -0.2572
 8470TIP3    H125374   2.481   1.587   2.348  1.3786  0.6078  3.1397
 8470TIP3    H225375   2.415   1.716   2.306 -0.2114 -1.4923 -1.6142
 8471TIP3   OH225376   4.549   1.473   1.776 -0.2880 -0.8329 -0.4525
 8471TIP3    H125377   4.625   1.423   1.804  1.0083  1.6580  0.7666
 8471TIP3    H225378   4.554   1.471   1.680  0.0781 -2.4304 -0.4297
 8472TIP3   OH225379   6.729   0.574   2.090  0.2551 -1.0671  0.1749
 8472TIP3    H125380   6.724   0.651   2.146 -0.3491 -1.9372  1.3602
 8472TIP3    H225381   6.661   0.588   2.024  0.5739 -0.3086  0.0017
 8473TIP3   OH225382   4.921   1.700   4.615 -0.2483  0.0684 -0.4004
 8473TIP3    H125383   4.985   1.768   4.595  1.5276 -0.7418  2.0630
 8473TIP3    H225384   4.931   1.636   4.545  0.6663  0.5965 -0.7726
 8474TIP3   OH225385   2.579   4.876   5.761 -0.3778  0.2044 -0.4887
 8474TIP3    H125386   2.542   4.963   5.775  0.1574  0.6386 -1.6337
 8474TIP3    H225387   2.524   4.818   5.814 -0.0878  1.3441  1.1349
 8475TIP3   OH225388   4.612   5.723   5.556  0.2766 -0.2299 -0.3360
 8475TIP3    H125389   4.548   5.655   5.537  0.2769  0.1379 -1.7920
 8475TIP3    H225390   4.648   5.700   5.642 -2.3864  0.0140  0.9496
 8476TIP3   OH225391   0.251   6.433   5.285 -0.1987  0.2568 -0.2485
 8476TIP3    H125392   0.289   6.348   5.263  0.8152  0.8278 -0.7466
 8476TIP3    H225393   0.230   6.472   5.200 -0.6246  0.5348 -0.0215
 8477TIP3   OH225394   4.236   1.352   4.531 -0.8782 -0.2160  0.4465
 8477TIP3    H125395   4.244   1.441   4.566 -2.3700  1.1626 -2.3585
 8477TIP3    H225396   4.251   1.295   4.607 -2.4161  2.4422  2.9669
 8478TIP3   OH225397   4.636   3.130   4.035 -0.2002  0.1041  0.1530
 8478TIP3    H125398   4.691   3.071   4.087 -0.3515  0.2409  0.4758
 8478TIP3    H225399   4.577   3.072   3.987  1.2456 -0.1311 -1.4117
 8479TIP3   OH225400   0.599   5.774   5.330  0.5864 -0.0281  0.1821
 8479TIP3    H125401   0.667   5.725   5.283 -0.6440 -2.2842  0.6253
 8479TIP3    H225402   0.587   5.725   5.412 -1.1262  0.7115  0.4031
 8480TIP3   OH225403   0.214   4.315   5.339 -0.0342 -0.5129  0.0147
 8480TIP3    H125404   0.168   4.254   5.281 -0.7514  1.7001 -1.8932
 8480TIP3    H225405   0.300   4.326   5.300 -0.3473  0.6127 -0.4021
 8481TIP3   OH225406   3.828   2.621   0.379 -0.3917 -0.0559 -0.2436
 8481TIP3    H125407   3.858   2.633   0.469 -1.4244 -0.5982  0.1998
 8481TIP3    H225408   3.742   2.580   0.388 -0.3689 -0.4301 -1.4912
 8482TIP3   OH225409   7.080   4.421   3.132  0.0158 -0.1118 -0.1619
 8482TIP3    H125410   7.035   4.406   3.215 -0.3513 -0.3968 -0.4028
 8482TIP3    H225411   7.112   4.334   3.106  1.5351  0.2332  0.4581
 8483TIP3   OH225412   5.006   3.863   2.937 -0.2948 -0.1341  0.5061
 8483TIP3    H125413   4.984   3.784   2.985 -1.2484 -0.7249 -0.8388
 8483TIP3    H225414   5.017   3.834   2.846  1.4469  0.9346  0.3202
 8484TIP3   OH225415   6.044   0.558   5.445 -0.3128  0.0389 -0.2818
 8484TIP3    H125416   5.995   0.632   5.481 -0.8432 -0.4257 -0.0327
 8484TIP3    H225417   6.135   0.582   5.457 -0.4801  0.6789 -0.2526
 8485TIP3   OH225418   2.718   5.181   5.192  0.1884  0.3726  0.1777
 8485TIP3    H125419   2.742   5.272   5.204  0.2917  0.5452 -1.1456
 8485TIP3    H225420   2.691   5.175   5.100  1.1719 -1.1250 -0.0562
 8486TIP3   OH225421   6.238   1.110   2.174 -0.3432  0.0041  0.7740
 8486TIP3    H125422   6.218   1.129   2.266 -0.0892  0.1115  0.8054
 8486TIP3    H225423   6.330   1.133   2.163  0.0809 -1.5325  0.9040
 8487TIP3   OH225424   1.591   2.382   3.514  0.1563  0.1718 -0.3077
 8487TIP3    H125425   1.515   2.415   3.562 -1.5353 -1.4594 -1.7146
 8487TIP3    H225426   1.598   2.290   3.541 -0.9745 -0.8565 -3.1874
 8488TIP3   OH225427   3.796   1.020   2.233  0.3809  0.1461 -0.3266
 8488TIP3    H125428   3.853   0.959   2.281 -1.0208  0.8496  2.4873
 8488TIP3    H225429   3.846   1.101   2.228  0.9135 -0.2150 -0.9326
 8489TIP3   OH225430   4.001   1.013   1.837 -0.0264 -0.4355 -0.5868
 8489TIP3    H125431   3.908   1.029   1.825 -0.0836 -1.1607 -1.1611
 8489TIP3    H225432   4.006   0.926   1.878  0.4415 -1.1087 -2.0142
 8490TIP3   OH225433   4.495   0.822   4.183  0.0742  0.2046  0.5000
 8490TIP3    H125434   4.561   0.892   4.180 -0.0122  0.3165  1.1228
 8490TIP3    H225435   4.504   0.785   4.270 -0.4012 -0.0662  0.4321
 8491TIP3   OH225436   2.007   0.513   2.591 -0.0882  0.0818 -0.0548
 8491TIP3    H125437   2.017   0.569   2.667  2.1826  0.9253 -0.9088
 8491TIP3    H225438   1.949   0.562   2.532 -0.3851  0.2365  0.3604
 8492TIP3   OH225439   6.305   2.795   1.898  0.3583  0.2949 -0.3075
 8492TIP3    H125440   6.220   2.767   1.933  0.9675  0.1054  1.0871
 8492TIP3    H225441   6.324   2.731   1.830 -0.3881  0.0345 -0.2843
 8493TIP3   OH225442   4.575   2.450   4.967  0.4354  0.5627  0.0508
 8493TIP3    H125443   4.562   2.524   5.026 -1.9070 -0.6275  1.2201
 8493TIP3    H225444   4.552   2.373   5.020 -0.6683 -0.6752 -2.0644
 8494TIP3   OH225445   5.014   2.601   2.284 -0.6914 -0.5520  0.0810
 8494TIP3    H125446   4.986   2.554   2.361 -1.3716 -0.2638  0.0161
 8494TIP3    H225447   4.970   2.686   2.290  0.1724 -0.0750 -0.0191
 8495TIP3   OH225448   3.830   2.618   0.662  0.4530  0.3341  0.1092
 8495TIP3    H125449   3.768   2.690   0.652  1.2310  1.1198  0.8854
 8495TIP3    H225450   3.844   2.611   0.756 -1.6866 -2.6432  0.3687
 8496TIP3   OH225451   6.040   4.800   1.228 -0.0492  0.4017  0.2336
 8496TIP3    H125452   5.993   4.867   1.180 -1.0541 -0.3527  0.1460
 8496TIP3    H225453   6.132   4.826   1.221 -0.2590  0.8312 -1.2557
 8497TIP3   OH225454   2.132   6.010   2.340  0.2381 -0.8796 -0.4902
 8497TIP3    H125455   2.096   6.055   2.264  1.5702  0.7638 -0.2250
 8497TIP3    H225456   2.221   6.044   2.348  0.0708 -0.8207  1.9281
 8498TIP3   OH225457   4.913   0.491   2.724  0.2692  0.3349 -0.1220
 8498TIP3    H125458   4.896   0.455   2.637  0.5160  0.5742 -0.2731
 8498TIP3    H225459   4.969   0.427   2.767 -0.6132 -0.2305  0.2051
 8499TIP3   OH225460   5.093   0.001   2.270 -0.0551 -0.1617  0.1994
 8499TIP3    H125461   5.102   0.061   2.344 -1.9781  1.7554 -0.9907
 8499TIP3    H225462   5.174   0.012   2.220  0.5182 -0.1770  1.0992
 8500TIP3   OH225463   6.552   3.369   1.357 -0.2432 -0.3213  0.1108
 8500TIP3    H125464   6.603   3.445   1.330  2.5592 -1.7452  0.9986
 8500TIP3    H225465   6.530   3.323   1.276 -0.8028  0.7049 -0.3284
 8501TIP3   OH225466   2.668   1.519   5.479  0.1549 -0.1700  0.1393
 8501TIP3    H125467   2.674   1.583   5.550 -0.2358 -0.2381  0.2346
 8501TIP3    H225468   2.634   1.568   5.404 -0.3477 -0.3121  0.2731
 8502TIP3   OH225469   1.735   1.304   0.277 -0.5689  0.0988  0.3474
 8502TIP3    H125470   1.745   1.392   0.241 -0.5760 -0.0417  0.0018
 8502TIP3    H225471   1.644   1.282   0.260 -0.3108 -0.3673 -0.4546
 8503TIP3   OH225472   4.035   4.164   1.153  0.2968  0.2238  0.1815
 8503TIP3    H125473   4.025   4.136   1.062  1.3991  1.7648 -0.4459
 8503TIP3    H225474   4.107   4.111   1.187 -1.0612 -1.4035  0.6497
 8504TIP3   OH225475   1.856   3.668   0.425  0.8511  0.6150 -0.1770
 8504TIP3    H125476   1.943   3.696   0.397 -0.0498  1.9536 -1.8293
 8504TIP3    H225477   1.810   3.749   0.445  0.2433 -0.1206  1.6630
 8505TIP3   OH225478   1.541   3.903   3.909 -0.3125 -0.0478 -0.2316
 8505TIP3    H125479   1.452   3.884   3.881 -0.5892  1.1034 -0.1711
 8505TIP3    H225480   1.532   3.937   3.998  0.2525 -0.4754  0.0040
 8506TIP3   OH225481   4.280   6.383   4.456  0.0884 -0.3193  0.2506
 8506TIP3    H125482   4.327   6.302   4.477 -1.1184 -1.1493 -0.1510
 8506TIP3    H225483   4.223   6.397   4.531  0.1940  0.0934  0.2547
 8507TIP3   OH225484   6.915   4.152   0.066  0.3055 -0.4610  0.6427
 8507TIP3    H125485   7.004   4.170   0.036  0.2776 -1.3516 -0.0181
 8507TIP3    H225486   6.924   4.145   0.162  0.5033  1.7624  0.8381
 8508TIP3   OH225487   2.272   2.093   4.686  0.0769  0.3130 -0.0087
 8508TIP3    H125488   2.266   2.032   4.760 -0.1516  0.2353 -0.0938
 8508TIP3    H225489   2.203   2.157   4.702 -0.3280 -0.0133 -0.4460
 8509TIP3   OH225490   3.575   1.201   2.266 -0.2899 -0.2414  0.6777
 8509TIP3    H125491   3.645   1.138   2.278  1.0566  1.4967  2.5369
 8509TIP3    H225492   3.613   1.286   2.290 -2.4674  1.0737 -0.1411
 8510TIP3   OH225493   5.772   1.284   0.371  0.0431 -0.4229 -0.3899
 8510TIP3    H125494   5.700   1.335   0.334 -0.4688 -1.1317 -0.3869
 8510TIP3    H225495   5.761   1.196   0.334  1.0225 -0.5001 -0.5510
 8511TIP3   OH225496   5.868   1.352   4.398 -0.3407  0.3207  0.0409
 8511TIP3    H125497   5.868   1.256   4.407  1.4651  0.1156 -1.4087
 8511TIP3    H225498   5.777   1.377   4.412 -1.2530 -1.8381 -1.3399
 8512TIP3   OH225499   2.709   4.608   5.037 -0.0383 -0.0692  1.0901
 8512TIP3    H125500   2.783   4.637   4.983 -0.0402  0.6579  1.4622
 8512TIP3    H225501   2.696   4.679   5.100 -1.2954 -0.0138  0.8003
 8513TIP3   OH225502   0.946   5.755   0.807  0.0692 -0.0054  0.2331
 8513TIP3    H125503   0.919   5.824   0.867 -0.2075 -0.3201  0.4740
 8513TIP3    H225504   0.891   5.766   0.730 -1.3231 -1.1236  1.0284
 8514TIP3   OH225505   6.387   3.770   0.913 -0.0721 -0.0440  0.2353
 8514TIP3    H125506   6.414   3.794   0.824 -0.7893 -2.6662 -0.7853
 8514TIP3    H225507   6.301   3.729   0.903 -0.2541 -0.2630  2.1762
 8515TIP3   OH225508   2.354   2.577   4.871 -0.4159  0.1040  0.2317
 8515TIP3    H125509   2.326   2.668   4.865 -3.6263 -0.7338  0.9177
 8515TIP3    H225510   2.281   2.531   4.912  0.4349 -3.0890 -1.4534
 8516TIP3   OH225511   6.640   4.995   4.248  0.4493 -0.1205 -0.6829
 8516TIP3    H125512   6.609   4.904   4.246 -1.6149  0.5215 -0.7428
 8516TIP3    H225513   6.622   5.028   4.160 -0.4163  0.7943 -0.1841
 8517TIP3   OH225514   3.361   5.426   0.551  0.4628 -0.2315 -0.3196
 8517TIP3    H125515   3.294   5.494   0.558 -0.8082 -1.4460 -0.3109
 8517TIP3    H225516   3.410   5.432   0.633 -1.0236 -0.7148  0.6417
 8518TIP3   OH225517   0.090   6.587   4.952 -0.0908 -1.0138 -0.1161
 8518TIP3    H125518   0.164   6.526   4.943  0.6956 -0.3430  1.4734
 8518TIP3    H225519   0.088   6.634   4.868  1.0184 -1.3264 -0.3370
 8519TIP3   OH225520   5.605   5.431   3.376 -0.2156  0.0673  0.0409
 8519TIP3    H125521   5.538   5.393   3.320 -0.5984 -0.7575  1.0251
 8519TIP3    H225522   5.557   5.478   3.444  0.2534  1.9271 -0.8557
 8520TIP3   OH225523   2.029   5.296   4.050 -0.0890 -0.3572  0.2621
 8520TIP3    H125524   2.057   5.283   4.140  0.7096 -3.0190 -0.2710
 8520TIP3    H225525   1.952   5.241   4.040  0.4377 -0.9262 -0.9257
 8521TIP3   OH225526   3.628   0.763   4.007 -0.0406 -0.1305 -0.0779
 8521TIP3    H125527   3.537   0.771   3.977  0.0554 -2.1901 -1.0409
 8521TIP3    H225528   3.644   0.669   4.013  1.8668  0.1868  0.6344
 8522TIP3   OH225529   0.215   5.006   1.133 -0.3152 -0.3094 -0.0712
 8522TIP3    H125530   0.196   5.030   1.042 -2.9268 -2.3308 -0.1693
 8522TIP3    H225531   0.183   4.916   1.141  0.3397 -0.3675  2.7364
 8523TIP3   OH225532   6.399   5.471   5.811 -0.8182 -0.3979  0.2471
 8523TIP3    H125533   6.345   5.543   5.842  1.0490 -0.0755  3.0654
 8523TIP3    H225534   6.461   5.512   5.750 -0.8031  0.0992  0.5896
 8524TIP3   OH225535   2.502   4.815   2.928  0.2363 -0.1172 -0.5152
 8524TIP3    H125536   2.418   4.818   2.883 -0.6804 -0.4439  1.1346
 8524TIP3    H225537   2.482   4.788   3.017  1.9575  0.9465  0.2531
 8525TIP3   OH225538   4.107   3.681   4.006 -0.1487  0.0648  0.4714
 8525TIP3    H125539   4.148   3.600   4.035  1.4704 -0.5499 -2.9984
 8525TIP3    H225540   4.167   3.750   4.036 -0.7338 -0.0694  2.0775
 8526TIP3   OH225541   0.961   2.779   3.308 -0.5846 -0.1030  0.3886
 8526TIP3    H125542   0.990   2.713   3.371  0.7142 -0.8507 -0.9197
 8526TIP3    H225543   0.921   2.847   3.362 -1.0348 -1.4622  1.8658
 8527TIP3   OH225544   4.969   0.930   5.654 -0.7269 -0.3769  0.4927
 8527TIP3    H125545   4.995   0.846   5.692  0.8334 -0.2498 -0.1894
 8527TIP3    H225546   4.924   0.906   5.573 -1.0026 -0.5706  0.7017
 8528TIP3   OH225547   4.392   6.256   5.098 -0.0194 -0.5541  0.0989
 8528TIP3    H125548   4.415   6.248   5.191  1.4708 -1.3567 -0.3002
 8528TIP3    H225549   4.339   6.336   5.093  0.1273 -0.3321  1.5928
 8529TIP3   OH225550   6.999   2.584   0.521  0.0381  0.1593 -0.0360
 8529TIP3    H125551   7.032   2.527   0.452 -1.6825  1.5619 -2.1610
 8529TIP3    H225552   6.913   2.548   0.543  0.3128  0.0868  0.9622
 8530TIP3   OH225553   5.333   1.296   4.432  0.5368  0.3842  0.4226
 8530TIP3    H125554   5.280   1.357   4.483 -0.1629 -0.0092  0.1872
 8530TIP3    H225555   5.269   1.238   4.390  1.1521 -0.0372  0.0444
 8531TIP3   OH225556   3.509   6.004   5.551  0.5284  0.4229  0.2347
 8531TIP3    H125557   3.597   6.042   5.552  0.9080 -0.4444  0.4855
 8531TIP3    H225558   3.511   5.940   5.480  0.2420  0.0575  0.5510
 8532TIP3   OH225559   1.703   5.676   1.038 -0.6255  0.1167 -0.3183
 8532TIP3    H125560   1.795   5.650   1.047 -0.9944 -1.5387 -1.0587
 8532TIP3    H225561   1.657   5.630   1.108 -0.8861  1.1667  0.2324
 8533TIP3   OH225562   5.945   2.094   2.544 -0.0017  0.4203 -0.4591
 8533TIP3    H125563   5.934   2.028   2.613 -0.2106 -0.7758 -1.5850
 8533TIP3    H225564   5.868   2.083   2.489  0.1516  1.3749 -0.8825
 8534TIP3   OH225565   0.136   0.249   4.284 -1.0528  0.2004 -0.6815
 8534TIP3    H125566   0.160   0.287   4.368  1.4733 -0.3211 -1.0836
 8534TIP3    H225567   0.132   0.323   4.223  1.2312  0.2130 -0.9080
 8535TIP3   OH225568   0.571   5.035   5.532  0.1994 -0.6858 -0.2970
 8535TIP3    H125569   0.523   4.995   5.460  0.3320 -1.8483  0.2242
 8535TIP3    H225570   0.568   5.129   5.515 -1.8242 -0.7481 -0.5538
 8536TIP3   OH225571   3.739   3.152   4.836 -0.3115 -0.1088  0.4536
 8536TIP3    H125572   3.766   3.238   4.805  1.0648 -0.2004  1.3198
 8536TIP3    H225573   3.661   3.131   4.785 -0.0236  1.1670 -0.5487
 8537TIP3   OH225574   6.085   3.170   0.256  0.3836  0.4143 -0.6707
 8537TIP3    H125575   6.122   3.246   0.303 -0.4214  0.9743 -0.9292
 8537TIP3    H225576   6.017   3.207   0.200 -0.9067 -0.6431  0.1330
 8538TIP3   OH225577   5.287   4.597   5.076  0.0824 -0.5045 -0.6697
 8538TIP3    H125578   5.261   4.506   5.084  0.7851 -0.6811 -0.2771
 8538TIP3    H225579   5.213   4.647   5.112 -0.4142 -0.9036 -1.1393
 8539TIP3   OH225580   4.243   5.103   5.718  0.2275  0.7403 -0.0532
 8539TIP3    H125581   4.191   5.052   5.781 -0.7188  0.3165 -1.1336
 8539TIP3    H225582   4.240   5.051   5.637  0.2012  1.9470 -0.8503
 8540TIP3   OH225583   2.610   5.998   3.711  0.0264  0.3821  0.3625
 8540TIP3    H125584   2.690   6.026   3.666  0.2536  0.2931  0.7054
 8540TIP3    H225585   2.611   5.902   3.704  0.2991  0.3373  0.9463
 8541TIP3   OH225586   6.158   0.649   3.194 -0.0812 -0.2041  0.6867
 8541TIP3    H125587   6.224   0.604   3.246 -0.5106  0.5366  1.8992
 8541TIP3    H225588   6.193   0.737   3.181 -0.3722 -0.1189  0.4627
 8542TIP3   OH225589   2.237   0.701   2.987 -0.3360  0.3530 -1.0091
 8542TIP3    H125590   2.232   0.716   3.081 -0.7595 -1.8935 -0.6065
 8542TIP3    H225591   2.324   0.665   2.973  0.2538  1.9850 -1.7327
 8543TIP3   OH225592   2.055   5.724   2.053  0.1558  0.3102  0.0111
 8543TIP3    H125593   1.986   5.721   2.120 -0.3395 -0.4331 -0.5078
 8543TIP3    H225594   2.135   5.743   2.101 -0.3389  0.7155  0.6898
 8544TIP3   OH225595   3.268   0.932   4.178 -0.4984 -0.6616 -0.3189
 8544TIP3    H125596   3.341   0.993   4.172  0.6823 -1.9083  0.5555
 8544TIP3    H225597   3.274   0.897   4.268 -3.1401  0.3431  0.3272
 8545TIP3   OH225598   1.311   5.263   2.765 -0.3777 -0.1901 -0.1545
 8545TIP3    H125599   1.252   5.188   2.756 -0.3175 -0.3580  0.7474
 8545TIP3    H225600   1.254   5.336   2.790 -0.3527 -0.0752 -0.4277
 8546TIP3   OH225601   2.151   0.572   5.694 -0.4336  0.2212  0.2522
 8546TIP3    H125602   2.114   0.643   5.746 -0.0831 -0.0186  0.8405
 8546TIP3    H225603   2.234   0.552   5.737 -0.2728 -0.1742 -0.2335
 8547TIP3   OH225604   4.315   4.628   4.145  0.0324 -0.2353  0.4149
 8547TIP3    H125605   4.381   4.630   4.076  1.3688 -0.1303  1.6376
 8547TIP3    H225606   4.348   4.563   4.207 -1.2467 -0.4870  0.8565
 8548TIP3   OH225607   6.897   0.175   4.096  0.5380 -0.5730 -0.9898
 8548TIP3    H125608   6.982   0.154   4.058  0.5422 -0.8690 -0.8243
 8548TIP3    H225609   6.913   0.181   4.190  0.5410  0.2190 -1.0376
 8549TIP3   OH225610   2.468  -0.022   5.396  0.2058  0.1044 -0.1391
 8549TIP3    H125611   2.437   0.035   5.467  1.1755  0.6595 -0.1375
 8549TIP3    H225612   2.408  -0.005   5.324 -0.3942  0.0306  0.3426
 8550TIP3   OH225613   0.742   5.337   2.260  0.2511  0.2933  0.1419
 8550TIP3    H125614   0.739   5.245   2.288 -1.2981  0.3080  0.0803
 8550TIP3    H225615   0.707   5.386   2.334 -0.3821  0.6816 -0.4046
 8551TIP3   OH225616   7.131   4.351   3.486 -0.0414 -0.1915  0.2240
 8551TIP3    H125617   7.188   4.274   3.492  0.5861  0.2770  0.4188
 8551TIP3    H225618   7.045   4.319   3.514  0.6834 -0.3421  2.4683
 8552TIP3   OH225619   2.658   5.677   5.913 -0.2080  0.1781  0.3298
 8552TIP3    H125620   2.670   5.715   5.826 -1.4497  0.5427  0.2971
 8552TIP3    H225621   2.634   5.586   5.897  0.3923  0.0212  0.3214
 8553TIP3   OH225622   1.009   2.891   1.377  0.1355 -0.3883  0.0730
 8553TIP3    H125623   1.055   2.852   1.451  1.6896 -0.1917 -0.7355
 8553TIP3    H225624   1.063   2.966   1.352 -0.6549 -0.1256 -0.9111
 8554TIP3   OH225625   0.199   1.733   5.695 -0.2517 -0.4855  0.1297
 8554TIP3    H125626   0.108   1.762   5.694 -0.0060  0.4765  1.9817
 8554TIP3    H225627   0.193   1.637   5.701 -1.1211 -0.4543 -0.0424
 8555TIP3   OH225628   3.134   6.354   3.483  0.0268  0.0920 -0.5983
 8555TIP3    H125629   3.092   6.280   3.439  2.9976 -1.0859 -1.6625
 8555TIP3    H225630   3.067   6.386   3.544 -1.7906 -2.6799 -0.9506
 8556TIP3   OH225631   6.589   5.182   5.157 -0.4978  0.1081 -0.2382
 8556TIP3    H125632   6.563   5.270   5.132  0.5412  0.6282  0.4348
 8556TIP3    H225633   6.560   5.172   5.248 -0.2307 -0.0866 -0.1720
 8557TIP3   OH225634   4.738   2.968   0.029 -0.1584  0.0923 -0.1252
 8557TIP3    H125635   4.698   2.964  -0.058 -1.3894  1.3386  0.3309
 8557TIP3    H225636   4.663   2.976   0.089  0.7110  0.3979  0.9504
 8558TIP3   OH225637   2.538   2.060   2.659 -0.4813 -0.1242  0.0856
 8558TIP3    H125638   2.447   2.032   2.661 -0.2439 -0.9144  1.9077
 8558TIP3    H225639   2.581   2.008   2.727  1.5657 -0.5103 -1.4149
 8559TIP3   OH225640   2.122   5.962   0.034 -0.5995 -0.3233  0.1006
 8559TIP3    H125641   2.208   5.925   0.054 -0.5809 -0.2614  0.1348
 8559TIP3    H225642   2.135   6.056   0.041 -0.4125 -0.2619 -0.8948
 8560TIP3   OH225643   2.775   1.366   4.990 -0.4228 -0.2557 -0.8211
 8560TIP3    H125644   2.757   1.277   5.018 -1.2913  0.0246 -0.4536
 8560TIP3    H225645   2.867   1.380   5.013 -1.1070  0.0041  2.0957
 8561TIP3   OH225646   5.190   6.429   0.810 -0.4157 -0.0303 -0.5390
 8561TIP3    H125647   5.277   6.394   0.792  0.3096 -0.6348  3.3840
 8561TIP3    H225648   5.206   6.513   0.851 -1.6491 -0.2361  0.4112
 8562TIP3   OH225649   3.206   5.483   5.717  0.1100 -0.1979  0.1023
 8562TIP3    H125650   3.280   5.467   5.776  1.2131  2.7637 -0.2879
 8562TIP3    H225651   3.160   5.558   5.756 -1.3524 -0.5682 -0.8498
 8563TIP3   OH225652   4.384   0.020   2.049 -0.1669 -0.0637 -0.4249
 8563TIP3    H125653   4.402  -0.036   1.974 -2.1694  0.2719 -1.2332
 8563TIP3    H225654   4.400   0.109   2.018 -2.2151  0.1862 -0.9485
 8564TIP3   OH225655   4.281   5.476   5.032  0.0791 -0.1911 -0.3270
 8564TIP3    H125656   4.297   5.439   5.119 -2.1742 -0.6053 -0.0371
 8564TIP3    H225657   4.205   5.428   4.999 -1.9513  2.9600 -0.6475
 8565TIP3   OH225658   2.233   1.835   1.345 -0.1628 -0.0159  0.5074
 8565TIP3    H125659   2.311   1.891   1.342  0.2269 -0.5827 -0.5799
 8565TIP3    H225660   2.257   1.758   1.293 -0.2547 -1.7637  2.8764
 8566TIP3   OH225661   4.116   5.016   2.058  0.7342 -0.6623 -0.4523
 8566TIP3    H125662   4.091   5.035   1.968  0.4973 -4.7308 -1.4288
 8566TIP3    H225663   4.211   5.029   2.060  0.4935  1.4536 -0.6197
 8567TIP3   OH225664   0.809   6.082   2.304  0.5398  0.3019  0.1246
 8567TIP3    H125665   0.741   6.054   2.242  1.0613  1.3790 -0.9745
 8567TIP3    H225666   0.801   6.021   2.377 -1.2821  0.1079 -0.1904
 8568TIP3   OH225667   2.213   0.856   1.562 -0.3173  0.6668 -0.0598
 8568TIP3    H125668   2.200   0.785   1.624 -0.6107  1.4294  0.7712
 8568TIP3    H225669   2.199   0.936   1.613 -0.3178  1.3179 -1.0465
 8569TIP3   OH225670   4.412   6.260   0.445  0.4796  0.8829 -0.2022
 8569TIP3    H125671   4.453   6.244   0.361 -1.4732 -1.3332 -0.8719
 8569TIP3    H225672   4.484   6.268   0.507  1.9669 -1.2287 -1.5372
 8570TIP3   OH225673   7.143   2.062   5.728  0.3379 -0.3163 -0.0953
 8570TIP3    H125674   7.178   1.996   5.667 -1.7153 -1.7467  0.1577
 8570TIP3    H225675   7.059   2.087   5.690 -0.5137 -0.4721  1.5997
 8571TIP3   OH225676   2.432   2.625   2.492  0.6521  0.0202  0.3697
 8571TIP3    H125677   2.405   2.632   2.583  0.9088  1.4395  0.3611
 8571TIP3    H225678   2.527   2.639   2.494  0.4538  1.6269 -0.2522
 8572TIP3   OH225679   2.983   0.603   5.064  0.1803 -0.0039  0.9611
 8572TIP3    H125680   3.069   0.593   5.104  0.0957  0.3022  1.2288
 8572TIP3    H225681   2.925   0.549   5.118  0.4085 -1.1334  0.0832
 8573TIP3   OH225682   2.302   5.324   3.368 -0.5326  0.3479  0.0503
 8573TIP3    H125683   2.281   5.286   3.453  0.2868  0.6813  0.4122
 8573TIP3    H225684   2.306   5.249   3.308  2.5016 -0.3948  1.0245
 8574TIP3   OH225685   0.014   1.174   1.950 -0.2362 -0.3076 -0.0226
 8574TIP3    H125686   0.055   1.226   1.881  0.8640 -0.1549  0.7161
 8574TIP3    H225687   0.047   1.212   2.032  0.3291 -1.9365  0.5399
 8575TIP3   OH225688   4.164   2.228   0.765 -0.1869 -0.6204 -0.1484
 8575TIP3    H125689   4.097   2.161   0.751 -0.1446 -0.6957  0.0100
 8575TIP3    H225690   4.149   2.292   0.695 -1.0741 -0.1099  0.4877
 8576TIP3   OH225691   6.485   3.019   2.977 -0.1361  1.1203 -0.6343
 8576TIP3    H125692   6.498   3.080   2.904  0.8949 -0.3745 -1.7500
 8576TIP3    H225693   6.422   2.955   2.944 -0.2756  0.8783  0.0855
 8577TIP3   OH225694   4.281   2.566   5.568  0.4347  0.2076 -0.0507
 8577TIP3    H125695   4.188   2.554   5.550  0.0934 -0.5827  1.9117
 8577TIP3    H225696   4.309   2.482   5.606  1.7823  0.6600  0.0034
 8578TIP3   OH225697   3.565   2.536   4.904 -0.0743 -0.0302  0.2526
 8578TIP3    H125698   3.539   2.573   4.988 -0.8236  0.8907 -0.3651
 8578TIP3    H225699   3.653   2.570   4.888 -0.2801  0.5075  0.2582
 8579TIP3   OH225700   5.528   4.993   0.459 -0.0735  0.1123 -0.6653
 8579TIP3    H125701   5.507   4.910   0.416 -2.2994  0.0969  0.3124
 8579TIP3    H225702   5.620   5.008   0.439  0.6508 -3.0089 -0.2049
 8580TIP3   OH225703   3.674   0.103   3.963  0.3340  0.1386  0.5138
 8580TIP3    H125704   3.647   0.121   4.053  0.8015 -1.3427  0.9711
 8580TIP3    H225705   3.593   0.078   3.919 -0.0200  1.5655  0.3168
 8581TIP3   OH225706   3.139   6.287   3.803 -0.7471 -0.5790  0.0049
 8581TIP3    H125707   3.096   6.369   3.828  1.0912 -0.0343  1.5919
 8581TIP3    H225708   3.195   6.311   3.729 -0.5449 -0.4920  0.1847
 8582TIP3   OH225709   4.225   1.957   1.503  0.4766 -0.4825  0.8498
 8582TIP3    H125710   4.198   1.874   1.463  0.8146  0.3902 -1.3555
 8582TIP3    H225711   4.304   1.982   1.455  0.0416  1.4172  1.0268
 8583TIP3   OH225712   1.586   5.523   4.398  0.7156  0.5366  0.0326
 8583TIP3    H125713   1.677   5.494   4.407  1.6338  3.1881  0.4710
 8583TIP3    H225714   1.572   5.526   4.303  1.5979  1.3887 -0.0935
 8584TIP3   OH225715   3.052   5.292   0.056  0.2230  0.3940 -0.4237
 8584TIP3    H125716   3.032   5.386   0.057  0.8323  0.5231 -0.1582
 8584TIP3    H225717   3.024   5.261   0.143  2.2530  0.8146  0.4213
 8585TIP3   OH225718   1.697   5.012   0.643 -0.5149  0.1382 -0.1346
 8585TIP3    H125719   1.768   5.072   0.665  0.1581 -0.6543 -0.0637
 8585TIP3    H225720   1.676   4.969   0.726 -0.1861 -0.5470 -0.3975
 8586TIP3   OH225721   6.980   2.253   2.027 -0.8093 -0.3854 -0.3085
 8586TIP3    H125722   6.885   2.251   2.038 -1.0542 -2.5478 -2.1242
 8586TIP3    H225723   6.997   2.332   1.976 -1.5785  0.1677  0.2797
 8587TIP3   OH225724   2.244   1.101   1.412 -0.2379 -0.4326 -0.0536
 8587TIP3    H125725   2.249   1.125   1.505  1.9600  1.1856 -0.5108
 8587TIP3    H225726   2.202   1.015   1.412  1.1641 -1.2576  2.6007
 8588TIP3   OH225727   7.061   5.249   4.949 -0.1374 -0.3952 -0.0280
 8588TIP3    H125728   6.971   5.219   4.943 -0.0407 -0.7165  0.1121
 8588TIP3    H225729   7.102   5.218   4.869  0.3437 -1.9422  0.7805
 8589TIP3   OH225730   3.507   0.907   5.686 -0.1217 -0.1348  0.7691
 8589TIP3    H125731   3.591   0.866   5.664 -1.0834 -1.2624 -1.1029
 8589TIP3    H225732   3.477   0.859   5.763  0.4549 -0.4816  0.7878
 8590TIP3   OH225733   6.574   5.062   0.640  0.5902 -0.6279 -0.4308
 8590TIP3    H125734   6.663   5.036   0.620  1.4909  1.6007  0.3391
 8590TIP3    H225735   6.561   5.143   0.590 -0.6764 -0.4635  0.1180
 8591TIP3   OH225736   1.028   4.613   5.763 -0.3288  0.3286  0.2008
 8591TIP3    H125737   1.095   4.664   5.718  0.6011 -0.1328  1.0421
 8591TIP3    H225738   1.061   4.523   5.762 -1.6257 -0.1715 -0.6542
 8592TIP3   OH225739   4.452   2.330   1.543 -0.4252 -0.5103  0.3594
 8592TIP3    H125740   4.511   2.270   1.588 -0.1681 -0.9613 -0.5731
 8592TIP3    H225741   4.386   2.352   1.609 -0.9711 -2.4097  0.4769
 8593TIP3   OH225742   6.953   6.143   0.324 -0.3996 -0.4807  0.2849
 8593TIP3    H125743   6.858   6.151   0.334 -0.1625  0.4626  2.3189
 8593TIP3    H225744   6.977   6.215   0.266 -0.9524 -1.0621 -0.7020
 8594TIP3   OH225745   3.544   0.079   2.598 -0.3338 -0.3556 -0.6518
 8594TIP3    H125746   3.548   0.158   2.652 -0.2377 -0.6016 -0.2950
 8594TIP3    H225747   3.611   0.021   2.635 -1.9395 -1.5262  0.5946
 8595TIP3   OH225748   2.790   6.366   1.551 -0.0744 -0.3166  0.1316
 8595TIP3    H125749   2.846   6.291   1.571 -0.7771 -0.4940  1.5294
 8595TIP3    H225750   2.701   6.333   1.560 -0.4324  0.1349 -1.4240
 8596TIP3   OH225751   6.181   0.444   2.353 -0.4024 -0.4607  0.1704
 8596TIP3    H125752   6.090   0.439   2.323 -0.9595  1.1421  1.4185
 8596TIP3    H225753   6.186   0.383   2.426 -0.4504 -0.5744  0.0798
 8597TIP3   OH225754   2.319   1.811   4.355  0.9428  0.1840 -0.0649
 8597TIP3    H125755   2.361   1.782   4.275 -0.1319 -1.0365 -0.2074
 8597TIP3    H225756   2.383   1.794   4.424  0.8289 -1.3591 -0.3177
 8598TIP3   OH225757   3.080   5.038   1.538 -0.3746 -0.6277  0.3868
 8598TIP3    H125758   2.990   5.037   1.570 -0.2590 -1.6962  0.6987
 8598TIP3    H225759   3.073   5.041   1.443 -0.7241  0.0956  0.4267
 8599TIP3   OH225760   3.191   3.522   1.011 -0.1660  0.0183  0.0509
 8599TIP3    H125761   3.164   3.464   0.940 -1.4016  0.0376  0.4860
 8599TIP3    H225762   3.115   3.526   1.069  0.5592  0.6039  0.9870
 8600TIP3   OH225763   6.871   1.923   2.160  0.3236  0.4287  0.3750
 8600TIP3    H125764   6.809   1.856   2.133  1.6449 -0.7199  0.0911
 8600TIP3    H225765   6.833   2.005   2.130  0.4029 -0.5235 -2.5876
 8601TIP3   OH225766   5.175   0.877   3.554 -0.5929  0.1604  0.4593
 8601TIP3    H125767   5.224   0.949   3.515 -1.7248 -0.2803 -1.9816
 8601TIP3    H225768   5.243   0.814   3.580  0.3381  1.5639  1.6000
 8602TIP3   OH225769   3.156   5.157   0.662  0.4988 -0.3932  0.6925
 8602TIP3    H125770   3.100   5.086   0.628 -0.7386  1.2151 -0.8352
 8602TIP3    H225771   3.223   5.168   0.595  0.0757  0.5348  0.4095
 8603TIP3   OH225772   3.504   5.743   2.254 -0.0166  0.0631  0.1170
 8603TIP3    H125773   3.591   5.757   2.216  0.0970  0.4848  0.5198
 8603TIP3    H225774   3.454   5.820   2.229  0.4232  0.9685  1.8133
 8604TIP3   OH225775   3.399   0.105   0.062 -0.2640  0.2028  1.0397
 8604TIP3    H125776   3.461   0.065   0.124  0.4099  2.1329  1.6722
 8604TIP3    H225777   3.455   0.150  -0.002 -0.9947 -0.0050  0.2417
 8605TIP3   OH225778   5.982   1.703   0.076 -0.0062 -0.1614 -0.4543
 8605TIP3    H125779   6.068   1.741   0.060  0.7035 -1.7664 -0.6146
 8605TIP3    H225780   5.995   1.609   0.071 -2.4216 -0.5217 -4.0829
 8606TIP3   OH225781   0.868   2.028   3.002 -0.0714  0.2677 -0.2840
 8606TIP3    H125782   0.784   1.995   2.973 -0.2433  0.9731 -0.6145
 8606TIP3    H225783   0.874   2.001   3.094 -0.0749 -0.8913 -0.6089
 8607TIP3   OH225784   3.199   2.734   4.910  0.4062  0.1565 -0.2280
 8607TIP3    H125785   3.252   2.790   4.967  0.4524  0.0594 -0.1743
 8607TIP3    H225786   3.121   2.785   4.892 -0.0848 -0.2177  0.7722
 8608TIP3   OH225787   7.089   6.745   0.234  0.0638  0.4715  0.1555
 8608TIP3    H125788   7.105   6.666   0.285 -1.2810  0.1160  0.0587
 8608TIP3    H225789   7.098   6.717   0.143 -0.3473  0.4339  0.1230
 8609TIP3   OH225790   0.437   4.371   2.439  0.1195  0.3374  0.1292
 8609TIP3    H125791   0.490   4.402   2.366 -0.6515 -0.2552 -0.7064
 8609TIP3    H225792   0.347   4.385   2.412 -0.3021 -2.5430 -0.3375
 8610TIP3   OH225793   0.093   1.139   5.713  0.0960 -0.6110 -0.4316
 8610TIP3    H125794   0.051   1.113   5.632  0.3406  0.3915 -0.8998
 8610TIP3    H225795   0.171   1.084   5.720 -0.6818 -1.6861 -0.1383
 8611TIP3   OH225796   1.091   4.702   1.595  0.1749  0.5056 -0.0080
 8611TIP3    H125797   1.042   4.641   1.540 -1.4654  1.5483  0.2137
 8611TIP3    H225798   1.158   4.649   1.637  0.6746 -0.5628 -2.0178
 8612TIP3   OH225799   3.493   5.956   2.795  0.0129 -0.4080  0.6504
 8612TIP3    H125800   3.544   6.028   2.757  0.3921  0.0045  1.8883
 8612TIP3    H225801   3.492   5.889   2.727  0.8915  0.1945  0.0149
 8613TIP3   OH225802   2.985   1.175   2.011  0.0929 -0.4883  0.6697
 8613TIP3    H125803   3.069   1.132   2.028  0.6995  0.3935  0.0105
 8613TIP3    H225804   3.002   1.268   2.029 -0.1791 -0.0112 -1.3119
 8614TIP3   OH225805   0.272   2.498   4.617  0.4458 -0.8473 -0.0818
 8614TIP3    H125806   0.272   2.406   4.642  1.5623 -0.5326  1.1863
 8614TIP3    H225807   0.360   2.529   4.638  0.3958  0.2917 -1.3641
 8615TIP3   OH225808   0.462   1.383   1.468  0.0971  0.2186 -0.9191
 8615TIP3    H125809   0.401   1.447   1.431 -0.5674 -0.8366 -1.7010
 8615TIP3    H225810   0.539   1.388   1.412  0.0482  0.3499 -0.9743
 8616TIP3   OH225811   5.880   5.880   3.328 -0.3431 -0.7483  0.4601
 8616TIP3    H125812   5.812   5.899   3.391 -0.3180 -2.3444  1.0083
 8616TIP3    H225813   5.889   5.784   3.329  0.1643 -0.7744 -1.4201
 8617TIP3   OH225814   6.758   5.585   1.507 -0.0235 -0.0519 -0.0831
 8617TIP3    H125815   6.781   5.492   1.505 -1.4765 -0.4956  1.4156
 8617TIP3    H225816   6.830   5.629   1.461  0.0609 -2.0217 -1.9864
 8618TIP3   OH225817   5.484   6.765   4.522  0.0149  0.2507 -0.2751
 8618TIP3    H125818   5.443   6.719   4.448 -1.4927  1.6791 -0.3746
 8618TIP3    H225819   5.546   6.825   4.481  1.9858 -1.5764 -0.1450
 8619TIP3   OH225820   7.042   0.887   0.314 -0.4759  0.2306  0.0489
 8619TIP3    H125821   7.067   0.795   0.327 -2.1508 -0.3519 -0.5753
 8619TIP3    H225822   6.950   0.883   0.288 -0.9731  2.1762  1.3199
 8620TIP3   OH225823   1.771   2.250   3.980 -0.3952  0.2687 -0.1177
 8620TIP3    H125824   1.716   2.313   4.026 -0.2559 -0.5243  1.1740
 8620TIP3    H225825   1.755   2.166   4.024  1.0635 -0.1816 -0.3653
 8621TIP3   OH225826   1.470   4.368   3.872 -0.6788 -0.2742 -0.0113
 8621TIP3    H125827   1.511   4.328   3.949 -2.2033 -0.9860  0.4770
 8621TIP3    H225828   1.533   4.433   3.842 -0.3295  0.5472  2.2830
 8622TIP3   OH225829   0.543   5.656   5.586 -0.1668  0.4748 -0.1564
 8622TIP3    H125830   0.519   5.565   5.599 -1.9412  0.7534 -1.0569
 8622TIP3    H225831   0.618   5.671   5.643 -2.3316 -0.4429  3.2106
 8623TIP3   OH225832   2.635   0.948   2.329 -0.2556  0.0127  0.1802
 8623TIP3    H125833   2.558   1.005   2.334  0.1208  0.4723  0.7993
 8623TIP3    H225834   2.701   1.001   2.286 -0.2853 -0.4016 -0.4002
 8624TIP3   OH225835   5.290   1.350   2.470  0.3914  0.0926 -0.3478
 8624TIP3    H125836   5.220   1.311   2.416  0.1234 -0.7974  0.6075
 8624TIP3    H225837   5.287   1.443   2.449  0.8663 -0.3057 -2.5118
 8625TIP3   OH225838   4.168   0.960   1.621  0.7782 -0.0063  0.2197
 8625TIP3    H125839   4.112   0.984   1.547  1.0129  0.6734  0.2549
 8625TIP3    H225840   4.147   1.025   1.688  2.6333  1.1805 -0.2684
 8626TIP3   OH225841   5.050   6.629   3.922 -0.3553  0.9502 -0.2283
 8626TIP3    H125842   5.053   6.659   3.831  1.2765  1.1286 -0.1623
 8626TIP3    H225843   5.048   6.709   3.973  0.3029  0.8898 -0.0988
 8627TIP3   OH225844   0.226   5.690   4.063  0.1575  0.4064  0.3913
 8627TIP3    H125845   0.316   5.660   4.075  0.3358  0.5142 -0.6115
 8627TIP3    H225846   0.229   5.743   3.983 -0.8576  0.1409  0.1670
 8628TIP3   OH225847   4.987   4.443   5.130 -0.2567  0.1275  0.1866
 8628TIP3    H125848   4.973   4.425   5.223 -1.4404 -0.6929 -0.1277
 8628TIP3    H225849   4.995   4.357   5.089  0.0884  0.4737 -0.5036
 8629TIP3   OH225850   5.848   5.508   1.031 -0.0654  0.0525  0.1615
 8629TIP3    H125851   5.784   5.562   0.983 -0.2529  0.8713  1.2883
 8629TIP3    H225852   5.918   5.493   0.968  0.8485  3.1352  0.2612
 8630TIP3   OH225853   5.434   5.897   2.587  0.8705 -0.1730  0.1995
 8630TIP3    H125854   5.389   5.858   2.661  1.3260  0.0507  0.6000
 8630TIP3    H225855   5.381   5.873   2.511  0.0654  0.1199  0.6610
 8631TIP3   OH225856   4.521   0.779   1.485 -0.0604  0.2285  0.1960
 8631TIP3    H125857   4.518   0.726   1.564  2.2828  0.4172  0.4657
 8631TIP3    H225858   4.512   0.869   1.516  2.0369  0.4037  0.4594
 8632TIP3   OH225859   1.086   1.836   4.123 -0.4856  0.1115 -0.9927
 8632TIP3    H125860   1.028   1.913   4.125  0.6510  0.9773 -0.7065
 8632TIP3    H225861   1.059   1.785   4.199  0.9903  1.9412  0.8559
 8633TIP3   OH225862   1.146   6.298   4.537  0.3388  0.4799  0.0498
 8633TIP3    H125863   1.130   6.313   4.630  1.8970  2.8103  0.0379
 8633TIP3    H225864   1.139   6.385   4.498  1.7892 -0.1151 -1.6578
 8634TIP3   OH225865   6.131   1.100   0.497 -0.0439 -0.0992  0.0622
 8634TIP3    H125866   6.120   1.195   0.502  3.4381  0.4587  0.0636
 8634TIP3    H225867   6.209   1.083   0.551 -0.5989 -2.9811  0.1057
 8635TIP3   OH225868   6.422   3.335   1.804  0.8349  0.1646 -0.5182
 8635TIP3    H125869   6.380   3.324   1.719 -0.0562  0.6020 -0.1518
 8635TIP3    H225870   6.416   3.249   1.845  0.9428  0.0416 -0.7614
 8636TIP3   OH225871   1.139   0.383   0.036 -0.8311  0.4903  0.0506
 8636TIP3    H125872   1.122   0.405   0.127 -0.1186 -2.7401  1.0969
 8636TIP3    H225873   1.232   0.362   0.033 -0.7855  0.7620 -1.5112
 8637TIP3   OH225874   2.359   5.565   0.199 -0.2785  0.6030 -0.5974
 8637TIP3    H125875   2.264   5.577   0.199 -0.2221  1.2287  0.7127
 8637TIP3    H225876   2.394   5.652   0.179  0.0287  0.7159  0.3801
 8638TIP3   OH225877   4.387   2.877   3.982 -0.7337  0.2239  0.8471
 8638TIP3    H125878   4.292   2.876   3.980 -0.8488 -3.4592  1.4235
 8638TIP3    H225879   4.409   2.853   4.072  0.7779  1.1832  0.7712
 8639TIP3   OH225880   5.094   0.804   0.611 -0.2075 -0.3671  0.1207
 8639TIP3    H125881   5.104   0.839   0.700 -1.6786  1.4379 -0.3584
 8639TIP3    H225882   5.005   0.769   0.609 -1.1432  1.8222 -1.2510
 8640TIP3   OH225883   1.081   2.657   3.530  0.0877  0.0638  0.0542
 8640TIP3    H125884   1.087   2.654   3.625 -0.5310  0.7215  0.1189
 8640TIP3    H225885   1.144   2.591   3.500 -0.4387 -0.8661  0.9376
 8641TIP3   OH225886   4.322   2.290   5.666  0.0711  0.4065  0.4045
 8641TIP3    H125887   4.412   2.297   5.698  0.9040  0.4191 -1.7264
 8641TIP3    H225888   4.293   2.204   5.696  2.9316 -2.2851 -3.4088
 8642TIP3   OH225889   2.165   5.089   1.578  0.3866  0.5709 -0.0663
 8642TIP3    H125890   2.105   5.052   1.513 -1.2138 -0.6781  2.0021
 8642TIP3    H225891   2.181   5.018   1.640  2.7738  1.3697  0.3680
 8643TIP3   OH225892   5.597   3.375   3.934 -0.0378  0.4800  0.1021
 8643TIP3    H125893   5.592   3.282   3.955  0.5186  0.3803 -0.1729
 8643TIP3    H225894   5.671   3.407   3.986  1.6642  0.1262 -1.9736
 8644TIP3   OH225895   4.612   5.352   3.198 -0.9191 -0.0807 -0.2939
 8644TIP3    H125896   4.678   5.360   3.128 -0.8131 -0.2613 -0.2147
 8644TIP3    H225897   4.654   5.298   3.264 -0.7853  0.6020  0.1944
 8645TIP3   OH225898   4.074   4.981   1.600  0.4827  0.5573  0.9458
 8645TIP3    H125899   4.109   4.934   1.524 -1.6873 -1.8356  1.2794
 8645TIP3    H225900   4.102   4.930   1.675 -1.3139  0.1352  1.3831
 8646TIP3   OH225901   5.055   4.902   2.537 -0.3458  0.3443 -0.4885
 8646TIP3    H125902   5.150   4.908   2.531 -0.1671  0.6091  1.8775
 8646TIP3    H225903   5.027   4.881   2.448  1.9325 -0.0123 -1.1808
 8647TIP3   OH225904   5.876   5.050   2.024 -0.1793 -0.3645 -0.2849
 8647TIP3    H125905   5.821   5.125   2.047 -0.9725 -0.2293 -2.3873
 8647TIP3    H225906   5.927   5.032   2.103 -0.1405  2.2307  0.3763
 8648TIP3   OH225907   2.466   3.657   3.345 -0.0195  0.2875 -0.0513
 8648TIP3    H125908   2.475   3.654   3.440 -0.9102  0.7890  0.0622
 8648TIP3    H225909   2.535   3.600   3.312 -0.5972 -1.0351  0.9421
 8649TIP3   OH225910   1.923   3.639   1.453 -0.0865 -0.6159 -0.2228
 8649TIP3    H125911   2.017   3.656   1.456  0.0215 -1.0894 -0.7408
 8649TIP3    H225912   1.910   3.570   1.519 -0.1642 -0.1401  0.2610
 8650TIP3   OH225913   3.624   3.730   0.459  0.5618  0.4044  0.5931
 8650TIP3    H125914   3.600   3.657   0.401  0.5180  0.3295  0.7042
 8650TIP3    H225915   3.574   3.714   0.539 -0.5574  1.3511  0.0933
 8651TIP3   OH225916   5.860   6.303   0.029 -0.1174  0.2470 -0.0796
 8651TIP3    H125917   5.845   6.382   0.080  0.4198 -0.9396  2.0094
 8651TIP3    H225918   5.923   6.253   0.080  2.6292  0.1765 -3.2409
 8652TIP3   OH225919   5.126   5.901   3.009  0.1358  0.7314 -0.3715
 8652TIP3    H125920   5.114   5.968   3.078 -0.7874 -0.0531  0.2610
 8652TIP3    H225921   5.061   5.834   3.031  0.9470 -0.2977 -1.0916
 8653TIP3   OH225922   3.738   1.009   1.819 -0.3196  0.4907 -0.4048
 8653TIP3    H125923   3.684   1.077   1.779 -2.2004 -0.3315  0.5965
 8653TIP3    H225924   3.701   0.997   1.907  2.5180  0.9759  0.9729
 8654TIP3   OH225925   5.638   5.341   5.448 -0.3054  0.0702 -0.2969
 8654TIP3    H125926   5.584   5.309   5.520  2.9803 -0.4451  2.1312
 8654TIP3    H225927   5.626   5.276   5.378 -1.6539 -0.7918  0.6960
 8655TIP3   OH225928   0.532   4.101   1.398 -0.0281 -0.4079 -0.4683
 8655TIP3    H125929   0.612   4.079   1.446  0.5036  1.2357 -0.5489
 8655TIP3    H225930   0.533   4.196   1.391 -2.8162 -0.1891  0.9229
 8656TIP3   OH225931   5.942   6.418   3.666 -0.4854 -0.2523  0.0103
 8656TIP3    H125932   5.990   6.371   3.734 -1.1321  0.2612  0.8425
 8656TIP3    H225933   5.998   6.412   3.589  1.9401  2.0286  1.4335
 8657TIP3   OH225934   7.036   3.478   4.563  0.3716  0.1803  0.1518
 8657TIP3    H125935   7.058   3.442   4.649 -0.0175  0.4206  0.3528
 8657TIP3    H225936   6.944   3.504   4.570  0.8055  1.8382  0.2518
 8658TIP3   OH225937   5.562   3.773   2.831  0.2433  0.3564 -0.1640
 8658TIP3    H125938   5.592   3.773   2.922 -1.8223 -1.4000  0.6126
 8658TIP3    H225939   5.590   3.687   2.797  1.7500  1.3219 -1.5271
 8659TIP3   OH225940   3.458   0.574   3.129 -0.7978  0.2490 -0.3362
 8659TIP3    H125941   3.553   0.569   3.121 -0.6583 -0.3758  1.2679
 8659TIP3    H225942   3.429   0.483   3.128 -1.1419  0.3103  1.2414
 8660TIP3   OH225943   5.301   3.339   4.621  0.0515  0.4172  0.7445
 8660TIP3    H125944   5.218   3.293   4.632 -0.3410  0.8212 -0.3692
 8660TIP3    H225945   5.293   3.417   4.676 -0.4145  0.5749  0.4621
 8661TIP3   OH225946   3.548   6.108   5.175 -0.2043  0.0181 -0.0660
 8661TIP3    H125947   3.541   6.177   5.241 -0.1311  0.9062 -0.9591
 8661TIP3    H225948   3.555   6.155   5.092  3.0033 -0.9287 -0.4814
 8662TIP3   OH225949   0.392   6.491   4.515 -0.2694 -0.1734  0.4909
 8662TIP3    H125950   0.364   6.404   4.487 -0.8011  0.5828 -1.5103
 8662TIP3    H225951   0.487   6.489   4.511 -0.2242 -0.9579  1.5126
 8663TIP3   OH225952   5.869   6.713   5.756  0.8472 -0.0552 -0.1358
 8663TIP3    H125953   5.870   6.700   5.662  1.8888 -0.5487 -0.0744
 8663TIP3    H225954   5.872   6.624   5.793 -1.7557  0.0004  0.4168
 8664TIP3   OH225955   3.671   4.404   1.653  0.2571 -0.1518  0.1836
 8664TIP3    H125956   3.603   4.465   1.682 -0.0172 -0.0262 -0.6721
 8664TIP3    H225957   3.658   4.326   1.706  0.0391  0.2115  0.6709
 8665TIP3   OH225958   7.196   0.711   4.271  0.4385 -0.3322 -0.0857
 8665TIP3    H125959   7.268   0.766   4.303  0.6206 -0.1027 -0.8656
 8665TIP3    H225960   7.117   0.754   4.305  0.6262 -0.0909  0.0508
 8666TIP3   OH225961   4.297   6.463   0.070  0.1499  0.4507 -0.2347
 8666TIP3    H125962   4.254   6.488  -0.012 -0.9379  0.1508  0.2334
 8666TIP3    H225963   4.303   6.368   0.066 -1.2281  0.2997  0.6536
 8667TIP3   OH225964   4.948   1.183   1.507  0.6029  0.0846  0.4309
 8667TIP3    H125965   4.987   1.187   1.420  0.6430  1.9358  0.4955
 8667TIP3    H225966   4.927   1.091   1.520  1.5045 -0.3706 -1.1290
 8668TIP3   OH225967   5.994   0.609   3.913  0.4175  0.2570  0.6025
 8668TIP3    H125968   5.933   0.566   3.973  0.6135  1.7854  1.9718
 8668TIP3    H225969   5.949   0.689   3.886  1.3692  0.8532  0.7446
 8669TIP3   OH225970   4.040   3.521   3.674  0.3523  0.3081 -0.3717
 8669TIP3    H125971   4.121   3.472   3.684  0.0669  0.1860  1.7433
 8669TIP3    H225972   3.973   3.454   3.659  0.1054  0.0393  1.6200
 8670TIP3   OH225973   6.520   3.124   4.434 -0.3102 -0.2017 -0.4810
 8670TIP3    H125974   6.518   3.039   4.477  1.0025 -1.2107 -2.2529
 8670TIP3    H225975   6.608   3.158   4.452 -0.7663  0.7204  0.0727
 8671TIP3   OH225976   1.585   6.611   3.949 -0.0276 -0.2142 -0.0235
 8671TIP3    H125977   1.676   6.586   3.962  0.1993  0.2359 -0.6683
 8671TIP3    H225978   1.544   6.534   3.910 -0.1134 -0.6797  0.9607
 8672TIP3   OH225979   3.068   6.670   0.156  0.5341  0.2588 -0.0280
 8672TIP3    H125980   3.101   6.658   0.245  1.2902  1.7238 -0.0751
 8672TIP3    H225981   2.973   6.665   0.165  0.6485 -0.8862  0.6412
 8673TIP3   OH225982   2.236   0.874   2.229 -0.2264 -0.3857  0.0172
 8673TIP3    H125983   2.185   0.901   2.153  0.2846  0.2807 -0.0998
 8673TIP3    H225984   2.170   0.849   2.294 -0.7343  0.9640  0.0547
 8674TIP3   OH225985   2.799   2.454   2.879 -0.1449 -0.1537  0.7697
 8674TIP3    H125986   2.853   2.417   2.948 -0.3291  0.0214  1.0092
 8674TIP3    H225987   2.747   2.380   2.846  0.6574 -0.4469  0.1371
 8675TIP3   OH225988   2.531   5.273   1.186 -1.1832 -0.5467 -0.6176
 8675TIP3    H125989   2.535   5.178   1.181  1.3190 -0.5603  0.2251
 8675TIP3    H225990   2.582   5.303   1.110 -0.0291  0.0361  0.3602
 8676TIP3   OH225991   6.401   4.098   3.748  0.8154  0.4432 -0.0971
 8676TIP3    H125992   6.320   4.149   3.752  0.3573 -0.3108  0.4425
 8676TIP3    H225993   6.464   4.150   3.799  0.3423  0.4533  0.4835
 8677TIP3   OH225994   4.237   6.079   2.365 -0.2483  0.3843 -0.2594
 8677TIP3    H125995   4.326   6.075   2.399  0.1838  0.8434 -1.3159
 8677TIP3    H225996   4.182   6.090   2.443  0.4371 -1.7699  0.5861
 8678TIP3   OH225997   0.185   1.289   0.525 -0.3493 -0.0589  0.1960
 8678TIP3    H125998   0.265   1.336   0.503 -1.3644  1.0408 -1.3785
 8678TIP3    H225999   0.156   1.329   0.607  1.5307 -1.6389  1.7288
 8679TIP3   OH226000   4.959   0.878   4.070  0.3921 -0.4211  0.0042
 8679TIP3    H126001   5.010   0.839   3.999  0.6904 -1.3709  0.7215
 8679TIP3    H226002   5.018   0.941   4.110  0.6870 -0.8412  0.2390
 8680TIP3   OH226003   1.850   3.397   4.624 -0.1070 -0.5890 -0.0094
 8680TIP3    H126004   1.858   3.392   4.528 -0.5788 -3.1920  0.0386
 8680TIP3    H226005   1.761   3.428   4.638  0.5185  1.5486 -0.3623
 8681TIP3   OH226006   3.474   1.471   1.137 -0.4170 -0.2067 -0.5123
 8681TIP3    H126007   3.453   1.565   1.135 -0.7396 -0.2724 -2.4824
 8681TIP3    H226008   3.456   1.444   1.227  3.3053  2.3626  1.2751
 8682TIP3   OH226009   5.196   6.669   0.955  0.1763 -0.5353  0.5196
 8682TIP3    H126010   5.245   6.744   0.921 -0.5205  0.1285  0.9524
 8682TIP3    H226011   5.199   6.680   1.050 -0.9294 -0.4063  0.5452
 8683TIP3   OH226012   6.046   4.162   0.393 -0.0751  0.2545 -0.1548
 8683TIP3    H126013   6.140   4.179   0.397 -0.6476  4.3401  3.7379
 8683TIP3    H226014   6.013   4.225   0.328 -0.3163  0.4364  0.1409
 8684TIP3   OH226015   4.675   0.709   2.234  0.0065 -0.6014 -0.1667
 8684TIP3    H126016   4.662   0.797   2.199  2.7901 -0.3711 -0.8603
 8684TIP3    H226017   4.646   0.651   2.163 -0.1664 -0.2061 -0.4222
 8685TIP3   OH226018   0.941   2.247   2.378 -0.4990  0.3946 -0.9000
 8685TIP3    H126019   1.026   2.291   2.382  0.2866 -1.1193  0.1779
 8685TIP3    H226020   0.932   2.204   2.463 -2.5923  0.8956 -0.8151
 8686TIP3   OH226021   4.119   1.943   0.171 -0.6134 -0.1255  0.3627
 8686TIP3    H126022   4.109   2.036   0.190 -0.5242 -0.3885  1.7871
 8686TIP3    H226023   4.123   1.938   0.075 -0.0454  1.3808  0.2924
 8687TIP3   OH226024   1.685   6.301   1.171  0.2811  0.1927 -0.1739
 8687TIP3    H126025   1.619   6.232   1.171  1.6540 -1.1882 -1.5727
 8687TIP3    H226026   1.672   6.347   1.088 -0.8586  1.9496  0.8946
 8688TIP3   OH226027   2.005   5.182   0.162  0.2082  0.3574 -0.2171
 8688TIP3    H126028   1.917   5.210   0.138  0.2043  0.9932  0.5070
 8688TIP3    H226029   2.063   5.236   0.108  0.1710  0.7209  0.1033
 8689TIP3   OH226030   4.125   5.134   1.813  0.2355 -0.4049 -0.1248
 8689TIP3    H126031   4.099   5.098   1.728 -0.1790 -1.1103  0.2873
 8689TIP3    H226032   4.220   5.145   1.807 -0.0274  1.6485 -1.4477
 8690TIP3   OH226033   7.152   0.441   1.303  0.3271 -0.5617  0.2071
 8690TIP3    H126034   7.248   0.432   1.304  0.4353  0.3063 -0.3373
 8690TIP3    H226035   7.131   0.477   1.389  0.4076 -1.3724  0.5760
 8691TIP3   OH226036   2.945   1.489   3.680  0.0215  0.3670  0.2777
 8691TIP3    H126037   2.971   1.579   3.663  0.6187  0.5189  1.8526
 8691TIP3    H226038   2.993   1.464   3.758 -1.8531 -0.5511  1.2134
 8692TIP3   OH226039   0.765   0.668   4.464  0.8165  0.3110  0.1882
 8692TIP3    H126040   0.746   0.685   4.557  0.6540  0.6362  0.0951
 8692TIP3    H226041   0.763   0.754   4.423  1.1565  0.1949 -0.0701
 8693TIP3   OH226042   3.073   4.739   2.689 -0.7821 -0.5678 -0.0333
 8693TIP3    H126043   3.068   4.646   2.665  1.1821 -0.5648 -0.5907
 8693TIP3    H226044   3.001   4.751   2.751 -0.9661 -2.5112  0.1951
 8694TIP3   OH226045   1.846   1.378   4.611 -0.7121  0.0020  0.3548
 8694TIP3    H126046   1.864   1.315   4.680 -0.5725 -1.1582 -0.6962
 8694TIP3    H226047   1.770   1.343   4.566  0.3524 -0.3425 -1.2773
 8695TIP3   OH226048   6.565   5.582   5.317  1.0140  0.2166  0.2328
 8695TIP3    H126049   6.656   5.565   5.293  0.3820 -1.5136 -1.1957
 8695TIP3    H226050   6.532   5.497   5.348 -0.1814  0.7485  0.4924
 8696TIP3   OH226051   1.342   1.483   1.645 -0.2458 -0.0437 -0.0210
 8696TIP3    H126052   1.358   1.536   1.568 -0.9696 -0.6459 -0.6047
 8696TIP3    H226053   1.329   1.546   1.716 -0.8160  0.5483 -0.6433
 8697TIP3   OH226054   5.620   5.463   2.025 -0.2326 -0.2190  0.2037
 8697TIP3    H126055   5.603   5.557   2.021 -1.5651 -0.4373  0.1375
 8697TIP3    H226056   5.533   5.423   2.017  0.4519 -1.4979 -1.2480
 8698TIP3   OH226057   2.975   5.933   4.738  0.1750 -0.0626 -0.1265
 8698TIP3    H126058   2.938   5.932   4.650  2.1947  0.9331 -1.0642
 8698TIP3    H226059   2.982   5.841   4.762 -1.7983 -0.3143 -0.3242
 8699TIP3   OH226060   6.296   2.518   2.847 -0.1613  0.0391 -0.3353
 8699TIP3    H126061   6.231   2.568   2.896  1.5054  2.1275 -0.1471
 8699TIP3    H226062   6.293   2.553   2.758  1.1269  0.6098 -0.1696
 8700TIP3   OH226063   0.123   6.762   1.736 -0.4092  0.2894 -0.6436
 8700TIP3    H126064   0.150   6.730   1.650  4.6972  0.6237  0.5310
 8700TIP3    H226065   0.120   6.683   1.790 -0.3344  0.4494 -0.4078
 8701TIP3   OH226066   7.041   3.496   1.732 -0.5424  0.1812 -0.2999
 8701TIP3    H126067   7.061   3.535   1.647 -1.0643  0.1097 -0.4568
 8701TIP3    H226068   7.025   3.404   1.714  0.4044 -0.0636  0.0344
 8702TIP3   OH226069   2.721   1.968   5.029 -0.0934 -0.4483 -0.5124
 8702TIP3    H126070   2.762   2.006   4.951  1.5492  1.5089  1.1964
 8702TIP3    H226071   2.788   1.909   5.064 -0.7404 -1.1526 -0.4264
 8703TIP3   OH226072   0.036   5.210   4.038 -0.1021  0.4384  0.2328
 8703TIP3    H126073   0.038   5.305   4.047  1.2664  0.4817 -0.2518
 8703TIP3    H226074  -0.025   5.194   3.966  0.1712  1.0108 -0.1375
 8704TIP3   OH226075   1.631   5.445   1.212  0.4230 -0.6716  0.6127
 8704TIP3    H126076   1.636   5.426   1.305 -0.2976  0.1033  0.8234
 8704TIP3    H226077   1.701   5.392   1.173  1.3104 -0.3526  1.6969
 8705TIP3   OH226078   6.509   6.423   1.213 -0.0790 -0.9451 -0.2978
 8705TIP3    H126079   6.584   6.436   1.156 -1.2226 -0.2546 -1.7185
 8705TIP3    H226080   6.546   6.413   1.300  1.5999  0.4015 -0.8043
 8706TIP3   OH226081   5.113   3.864   3.466  0.5538  0.0377 -0.0353
 8706TIP3    H126082   5.197   3.819   3.456  0.5838 -0.5462  2.2478
 8706TIP3    H226083   5.135   3.941   3.520 -0.6419 -1.2131  2.3559
 8707TIP3   OH226084   6.257   6.489   1.333  0.1839 -0.1985  0.5005
 8707TIP3    H126085   6.340   6.500   1.287 -1.1752 -0.2201 -2.1858
 8707TIP3    H226086   6.252   6.396   1.351  0.6393 -0.2356  0.4464
 8708TIP3   OH226087   1.066   2.488   1.835  0.0157 -0.2395  0.1385
 8708TIP3    H126088   1.156   2.507   1.806  0.1902  1.9149  1.8565
 8708TIP3    H226089   1.014   2.492   1.755  1.2686 -0.1506 -0.6991
 8709TIP3   OH226090   6.858   0.514   2.776  0.2655  0.3232  0.0510
 8709TIP3    H126091   6.802   0.577   2.731  1.2000  1.4092  0.3607
 8709TIP3    H226092   6.872   0.444   2.712 -1.7731 -0.2167  0.1109
 8710TIP3   OH226093   0.069   1.407   3.373 -0.2071 -0.2727  0.1986
 8710TIP3    H126094   0.099   1.469   3.439  0.1657 -0.8217  0.5521
 8710TIP3    H226095   0.118   1.327   3.391  0.6201 -0.1468 -1.3386
 8711TIP3   OH226096   6.282   5.151   1.113 -0.3648 -0.4433  0.2144
 8711TIP3    H126097   6.272   5.208   1.189  1.5231  0.3253 -0.0476
 8711TIP3    H226098   6.347   5.195   1.058 -0.0097 -2.0788 -0.7619
 8712TIP3   OH226099   5.586   0.245   3.066  0.4040  0.0988 -0.2305
 8712TIP3    H126100   5.643   0.204   3.131  1.1343 -0.8466 -1.4246
 8712TIP3    H226101   5.646   0.289   3.006 -0.2631  1.0311 -0.2205
 8713TIP3   OH226102   2.071   5.764   3.562 -0.3489 -0.2429 -0.6662
 8713TIP3    H126103   1.976   5.761   3.553 -0.4823 -0.2913  0.6218
 8713TIP3    H226104   2.094   5.682   3.605  0.5224 -1.1631 -2.7154
 8714TIP3   OH226105   0.217   0.750   5.725  0.6702  0.5339  0.3046
 8714TIP3    H126106   0.215   0.761   5.630  1.5269  1.4777  0.3784
 8714TIP3    H226107   0.143   0.692   5.744  1.9359 -1.7283 -1.1774
 8715TIP3   OH226108   1.682   2.498   1.627  0.0856  0.1250  0.0782
 8715TIP3    H126109   1.686   2.590   1.598  0.4961  0.3752  0.8905
 8715TIP3    H226110   1.650   2.450   1.551 -0.1838  0.9533 -0.3418
 8716TIP3   OH226111   1.872   6.437   2.671  0.5733 -0.4632 -0.7240
 8716TIP3    H126112   1.787   6.447   2.714  1.2299 -2.6330  1.2951
 8716TIP3    H226113   1.869   6.499   2.597 -1.5535  1.7127  1.0202
 8717TIP3   OH226114   6.555   0.424   5.682 -0.4645 -0.4545 -0.3788
 8717TIP3    H126115   6.465   0.445   5.656 -0.8635 -0.1789  1.1463
 8717TIP3    H226116   6.602   0.507   5.673 -0.4338 -0.5114 -0.8062
 8718TIP3   OH226117   1.567   0.046   2.435 -0.0888  0.4179  0.0902
 8718TIP3    H126118   1.503   0.097   2.385  0.3017  0.7771 -0.0509
 8718TIP3    H226119   1.652   0.076   2.402  0.1420 -0.7631 -0.4258
 8719TIP3   OH226120   5.895   3.062   3.788 -0.1295  0.2532 -0.2698
 8719TIP3    H126121   5.971   3.009   3.810 -0.1470 -0.2155 -1.2974
 8719TIP3    H226122   5.930   3.150   3.775  0.0202  0.3384  0.6215
 8720TIP3   OH226123   0.329   6.250   4.381 -0.1508  0.7091 -0.1671
 8720TIP3    H126124   0.351   6.157   4.382 -1.2669  0.3840  2.3680
 8720TIP3    H226125   0.234   6.252   4.392 -0.2079  2.1536 -0.7619
 8721TIP3   OH226126   2.414   6.622   0.407  0.5606 -0.2267 -0.7150
 8721TIP3    H126127   2.400   6.534   0.442  0.1922 -1.1659 -3.0803
 8721TIP3    H226128   2.328   6.652   0.380  0.5200  1.3000  0.8554
 8722TIP3   OH226129   3.938   0.260   3.836 -0.4093  0.0582 -0.4487
 8722TIP3    H126130   3.927   0.166   3.851  1.0730 -0.1487 -0.5270
 8722TIP3    H226131   3.876   0.280   3.766 -2.8349 -0.2492  1.4698
 8723TIP3   OH226132   3.510   5.242   5.649  0.7706 -0.1574  0.1966
 8723TIP3    H126133   3.498   5.304   5.720  2.0260 -0.1626  0.4390
 8723TIP3    H226134   3.575   5.284   5.592 -0.9587  0.3117 -1.5129
 8724TIP3   OH226135   3.067   0.715   2.149  0.0055  0.4568  0.6295
 8724TIP3    H126136   3.084   0.683   2.238 -2.7982  0.2615  1.1872
 8724TIP3    H226137   3.149   0.756   2.123  0.8981  0.6605  3.3642
 8725TIP3   OH226138   2.930   2.859   0.709  0.3211 -0.8538 -0.4607
 8725TIP3    H126139   2.896   2.945   0.685 -0.2194 -1.5123 -2.2267
 8725TIP3    H226140   2.915   2.852   0.803  0.9741  1.2153 -0.1538
 8726TIP3   OH226141   5.139   3.601   1.954  0.3355  0.1591  0.0342
 8726TIP3    H126142   5.094   3.608   1.870  0.0567 -1.5910 -0.0026
 8726TIP3    H226143   5.196   3.524   1.944  1.0583  0.5298  1.1049
 8727TIP3   OH226144   1.758   3.215   2.118 -0.2251 -0.1165 -0.4054
 8727TIP3    H126145   1.802   3.133   2.095 -0.5816 -0.2319 -0.6849
 8727TIP3    H226146   1.807   3.249   2.193 -1.2153 -1.5467  0.9481
 8728TIP3   OH226147   4.851   4.563   4.868  0.5730  0.0162  0.4998
 8728TIP3    H126148   4.915   4.492   4.858 -0.0364 -0.4007 -0.7577
 8728TIP3    H226149   4.800   4.539   4.945  1.0944 -0.3365  0.7359
 8729TIP3   OH226150   0.338   0.937   4.931  0.1901  0.1591  0.0117
 8729TIP3    H126151   0.249   0.902   4.926 -0.3629  1.2727  1.4462
 8729TIP3    H226152   0.392   0.870   4.889 -1.4288 -0.0445 -1.9406
 8730TIP3   OH226153   4.129   2.033   2.247  0.0063  0.1944 -0.4109
 8730TIP3    H126154   4.176   2.114   2.266 -0.1199  0.3680 -0.8209
 8730TIP3    H226155   4.170   2.000   2.166 -0.7912  0.5222 -0.9597
 8731TIP3   OH226156   4.366   2.123   4.105 -0.3500  0.2700 -0.2901
 8731TIP3    H126157   4.306   2.105   4.032 -0.2023 -0.5885 -0.2195
 8731TIP3    H226158   4.353   2.049   4.165 -0.8405  1.2318  0.8063
 8732TIP3   OH226159   2.167   6.214   0.091 -0.0184 -0.1939 -0.1015
 8732TIP3    H126160   2.255   6.203   0.126 -0.2836 -0.4410  0.5003
 8732TIP3    H226161   2.124   6.275   0.152 -0.3761 -0.3615 -0.1815
 8733TIP3   OH226162   5.644   0.420   0.381 -0.1586  0.4754 -0.5457
 8733TIP3    H126163   5.725   0.370   0.382 -0.2317  0.3612  0.4177
 8733TIP3    H226164   5.655   0.486   0.449 -0.7741  0.6250 -0.5806
 8734TIP3   OH226165   2.809   4.660   5.800 -0.2302  0.1109 -0.3563
 8734TIP3    H126166   2.785   4.665   5.708 -0.9482 -0.0168 -0.1826
 8734TIP3    H226167   2.727   4.672   5.847  0.1422  0.2573  0.2688
 8735TIP3   OH226168   4.875   1.830   4.896 -0.4928 -0.4635  0.1373
 8735TIP3    H126169   4.927   1.910   4.906 -1.0340 -0.0379 -0.3693
 8735TIP3    H226170   4.859   1.824   4.802 -0.8319 -0.9238  0.2236
 8736TIP3   OH226171   2.754   0.609   4.035 -0.6086 -0.3397  0.1349
 8736TIP3    H126172   2.764   0.599   4.130  2.2112  1.4299  0.1499
 8736TIP3    H226173   2.781   0.700   4.018 -0.3059 -0.8388 -2.4436
 8737TIP3   OH226174   3.591   6.769   5.226 -0.0566  0.5605 -1.0713
 8737TIP3    H126175   3.576   6.790   5.134  2.4411  0.2045 -1.6354
 8737TIP3    H226176   3.504   6.747   5.260 -0.9631  0.0959 -3.4770
 8738TIP3   OH226177   6.016   1.075   3.208  0.6819 -0.9801 -0.0164
 8738TIP3    H126178   6.052   1.153   3.251  2.0530 -1.5548 -0.0455
 8738TIP3    H226179   5.993   1.105   3.120  1.4035 -0.6412 -0.0968
 8739TIP3   OH226180   3.029   4.446   5.133 -0.9231 -0.1810  0.4173
 8739TIP3    H126181   3.023   4.468   5.040 -1.6432  1.2457  0.7705
 8739TIP3    H226182   3.032   4.531   5.177  0.3972 -0.8329  1.6536
 8740TIP3   OH226183   4.809   1.062   1.793  0.9092  0.3054 -0.3576
 8740TIP3    H126184   4.777   1.121   1.725  1.3291  0.4762 -0.4086
 8740TIP3    H226185   4.742   0.993   1.798 -0.2188  1.4153  0.5611
 8741TIP3   OH226186   0.381   0.282   1.698 -0.5968 -0.4589  0.3829
 8741TIP3    H126187   0.330   0.344   1.749 -0.7782 -1.1670  1.0814
 8741TIP3    H226188   0.425   0.227   1.763  0.0939 -0.6289 -0.2169
 8742TIP3   OH226189   2.175   4.304   2.695 -0.3843 -0.2848 -0.5540
 8742TIP3    H126190   2.210   4.342   2.775 -0.5822 -1.9773  0.3907
 8742TIP3    H226191   2.248   4.255   2.657 -0.0679  1.1321 -1.8626
 8743TIP3   OH226192   1.127   5.270   1.053 -0.0954  0.1239 -0.1077
 8743TIP3    H126193   1.106   5.227   1.136  0.9377  1.3404  0.8181
 8743TIP3    H226194   1.220   5.291   1.059 -0.0997  0.6045 -1.4118
 8744TIP3   OH226195   1.280   2.059   4.915  0.0796 -0.3136  0.3288
 8744TIP3    H126196   1.317   1.984   4.961 -0.8131 -0.6450  0.5313
 8744TIP3    H226197   1.284   2.131   4.979 -1.7223 -0.9234  1.1918
 8745TIP3   OH226198   3.933   5.797   0.122  0.1082 -0.1527 -0.6853
 8745TIP3    H126199   3.889   5.717   0.149  0.3212 -0.8177 -2.2452
 8745TIP3    H226200   4.010   5.802   0.180  0.1581 -1.1325 -0.6494
 8746TIP3   OH226201   5.551   2.623   3.547 -0.0892  0.6042  0.0342
 8746TIP3    H126202   5.587   2.675   3.618 -2.3648  1.1435  0.8884
 8746TIP3    H226203   5.465   2.661   3.530 -1.7055 -2.5244  0.3892
 8747TIP3   OH226204   4.401   0.586   2.709 -0.0356 -0.0771  0.1240
 8747TIP3    H126205   4.414   0.615   2.799  1.9101 -1.4587  0.3740
 8747TIP3    H226206   4.395   0.490   2.715  1.5328 -0.3191 -1.2965
 8748TIP3   OH226207   5.654   0.073   1.565  0.2707 -0.2543 -0.2927
 8748TIP3    H126208   5.705   0.004   1.523 -0.0800 -0.3617 -0.5471
 8748TIP3    H226209   5.624   0.128   1.492 -0.5076 -0.5552 -0.2139
 8749TIP3   OH226210   2.554   3.167   2.785  0.6455 -0.4639 -0.8375
 8749TIP3    H126211   2.551   3.191   2.693  2.1440  0.5655 -0.6489
 8749TIP3    H226212   2.600   3.082   2.786  1.9291  0.2060 -0.9543
 8750TIP3   OH226213   1.502   4.963   4.224  0.4191 -0.3847 -0.4604
 8750TIP3    H126214   1.571   4.928   4.169  0.4755 -1.0844  0.0446
 8750TIP3    H226215   1.433   4.896   4.222 -1.1023  1.1007 -2.4980
 8751TIP3   OH226216   5.024   1.698   1.491 -0.2443  0.1353 -0.8040
 8751TIP3    H126217   5.023   1.677   1.398  0.9685  1.2330 -1.0970
 8751TIP3    H226218   5.012   1.614   1.535  1.6023 -0.7808 -1.9315
 8752TIP3   OH226219   3.096   4.919   2.491 -0.1090  0.1997  0.1971
 8752TIP3    H126220   3.015   4.964   2.514  0.9787  1.8546  1.0685
 8752TIP3    H226221   3.094   4.837   2.540 -2.3638 -1.0683 -1.7871
 8753TIP3   OH226222   7.025   3.509   0.993  0.2547 -0.6884  0.6838
 8753TIP3    H126223   7.027   3.426   0.946  0.8103 -1.6327  2.3159
 8753TIP3    H226224   6.966   3.494   1.067 -0.8612  0.8642  0.1612
 8754TIP3   OH226225   6.453   6.192   3.389  0.3503 -0.0897  0.2124
 8754TIP3    H126226   6.479   6.128   3.323  2.1598  0.2994  0.4798
 8754TIP3    H226227   6.510   6.267   3.373 -1.9734  1.6701 -0.3317
 8755TIP3   OH226228   5.547   4.263   4.761 -0.2198 -0.0688 -0.1567
 8755TIP3    H126229   5.475   4.254   4.698 -1.5519  1.9885  0.9727
 8755TIP3    H226230   5.603   4.331   4.723  1.9011 -2.4284 -1.6006
 8756TIP3   OH226231   2.344   5.088   0.973 -0.7526 -1.0382 -0.2072
 8756TIP3    H126232   2.404   5.014   0.986 -0.7895 -1.0088  0.1524
 8756TIP3    H226233   2.281   5.080   1.045 -0.4473 -0.3558  0.1432
 8757TIP3   OH226234   6.382   3.676   2.645 -0.4233  0.2657 -0.0994
 8757TIP3    H126235   6.288   3.680   2.662 -0.6450 -1.8818 -0.4961
 8757TIP3    H226236   6.390   3.632   2.561  0.9450  0.4123 -0.0798
 8758TIP3   OH226237   3.878   1.286   5.077 -0.4044 -0.3348 -0.5210
 8758TIP3    H126238   3.963   1.328   5.059  0.2106 -1.7785 -1.1315
 8758TIP3    H226239   3.821   1.358   5.104  1.0817  0.6425  0.1583
 8759TIP3   OH226240   5.726   5.852   4.167 -0.1860  0.1626  0.1090
 8759TIP3    H126241   5.789   5.828   4.098 -0.3642 -0.1100  0.0388
 8759TIP3    H226242   5.780   5.893   4.234  0.0682 -0.0528  0.0400
 8760TIP3   OH226243   0.460   0.337   4.663  0.4180 -0.1645 -0.4130
 8760TIP3    H126244   0.513   0.378   4.594  0.5890 -1.0594 -0.8188
 8760TIP3    H226245   0.507   0.357   4.744  0.4605  0.5007 -0.5956
 8761TIP3   OH226246   3.461   1.095   4.095 -0.1182 -0.2687  0.5472
 8761TIP3    H126247   3.514   1.049   4.029 -1.0948 -0.8830  0.1621
 8761TIP3    H226248   3.525   1.141   4.149  0.6976  0.8979 -1.2877
 8762TIP3   OH226249   0.862   4.996   1.995 -0.4798 -0.0354 -0.4616
 8762TIP3    H126250   0.874   4.929   1.928  0.8902 -1.8372  1.4548
 8762TIP3    H226251   0.945   4.997   2.043 -1.0673  1.8599  0.6276
 8763TIP3   OH226252   5.585   1.897   5.473  0.9733  0.5284  0.0462
 8763TIP3    H126253   5.607   1.828   5.411 -1.0059 -0.0284 -0.0869
 8763TIP3    H226254   5.614   1.863   5.558 -0.1532 -0.5793  0.0127
 8764TIP3   OH226255   3.481   0.775   2.628 -0.4237  0.3839  0.0083
 8764TIP3    H126256   3.512   0.710   2.690  1.0957  0.3313 -0.7555
 8764TIP3    H226257   3.415   0.826   2.676  0.0238 -0.2572  1.3323
 8765TIP3   OH226258   3.115   5.219   0.325  0.0960  0.0939 -0.0007
 8765TIP3    H126259   3.144   5.305   0.355  0.8506 -0.6552  1.4840
 8765TIP3    H226260   3.177   5.158   0.364 -0.1162 -1.1019 -1.4636
 8766TIP3   OH226261   3.335   6.369   2.953  0.2912 -0.1672 -0.1530
 8766TIP3    H126262   3.412   6.390   2.899 -0.0950  0.1235 -0.5992
 8766TIP3    H226263   3.265   6.353   2.890 -0.5110  1.5064  0.2649
 8767TIP3   OH226264   2.066   5.587   3.010 -0.4465  0.0125  0.1172
 8767TIP3    H126265   2.158   5.612   3.004 -0.9923  1.9601 -0.8391
 8767TIP3    H226266   2.040   5.570   2.919 -1.3746  0.8344  0.2213
 8768TIP3   OH226267   5.577   4.367   5.820 -0.3919 -0.1745 -0.4444
 8768TIP3    H126268   5.497   4.334   5.860  0.4188 -1.8098 -0.0872
 8768TIP3    H226269   5.645   4.307   5.850  0.5799 -0.2869 -2.6781
 8769TIP3   OH226270   6.613   2.326   1.823  0.2875  0.4216 -0.5502
 8769TIP3    H126271   6.650   2.386   1.888 -0.3412 -0.4644  0.6632
 8769TIP3    H226272   6.584   2.250   1.873 -1.3433  0.2237 -1.6958
 8770TIP3   OH226273   2.493   5.533   3.175 -0.4460  0.1035 -0.1623
 8770TIP3    H126274   2.434   5.561   3.245 -1.0894  0.0428 -0.6687
 8770TIP3    H226275   2.563   5.485   3.220 -2.6858 -3.1404  0.2061
 8771TIP3   OH226276   5.839   5.501   2.859  0.3971  0.0648  0.1543
 8771TIP3    H126277   5.791   5.555   2.922 -0.5002 -2.1402  1.5072
 8771TIP3    H226278   5.772   5.442   2.824  1.2015  0.2309 -1.7554
 8772TIP3   OH226279   5.501   4.136   5.616  0.3566 -0.0802  0.1502
 8772TIP3    H126280   5.455   4.054   5.602  0.6882  0.1461 -2.7414
 8772TIP3    H226281   5.459   4.174   5.694 -1.6197 -1.6900 -0.0502
 8773TIP3   OH226282   2.505   1.653   3.653  1.2108  0.5153 -0.3571
 8773TIP3    H126283   2.428   1.598   3.641  0.5453  0.7533  2.2418
 8773TIP3    H226284   2.569   1.595   3.696  1.0797  1.2991  0.9335
 8774TIP3   OH226285   0.378   1.152   1.274  0.5316  0.2489  0.6246
 8774TIP3    H126286   0.468   1.158   1.309  1.2991 -1.9318 -0.7659
 8774TIP3    H226287   0.375   1.218   1.204  1.6623 -0.7950 -0.4539
 8775TIP3   OH226288   6.886   6.656   2.570 -0.6138  0.2228  0.8767
 8775TIP3    H126289   6.835   6.604   2.508 -1.4674  0.6019  1.2372
 8775TIP3    H226290   6.941   6.592   2.616  0.6802  0.0479 -0.8415
 8776TIP3   OH226291   6.326   0.482   0.867 -0.0696 -0.2400 -0.2991
 8776TIP3    H126292   6.414   0.482   0.905 -1.7613 -2.0009  4.3023
 8776TIP3    H226293   6.328   0.410   0.803  2.0687  0.5723 -1.2509
 8777TIP3   OH226294   1.113   4.579   3.318  0.7567  0.0459  0.4101
 8777TIP3    H126295   1.127   4.650   3.255 -1.2185  1.6450  1.6506
 8777TIP3    H226296   1.100   4.624   3.402 -0.5397 -1.7872  1.2506
 8778TIP3   OH226297   0.447   0.555   1.253 -0.4247  0.2410 -0.0111
 8778TIP3    H126298   0.538   0.575   1.233 -0.1591 -1.3138 -0.4740
 8778TIP3    H226299   0.409   0.527   1.170 -1.2002  0.4182  0.2719
 8779TIP3   OH226300   5.645   1.673   4.779 -0.6976  0.1763  0.5523
 8779TIP3    H126301   5.554   1.679   4.750 -0.5175 -2.7588 -0.9802
 8779TIP3    H226302   5.693   1.644   4.702  0.8974 -1.8406  2.1679
 8780TIP3   OH226303   1.839   6.813   0.577  0.7795 -0.0995 -0.8483
 8780TIP3    H126304   1.781   6.803   0.501 -2.0509  1.2125  0.9644
 8780TIP3    H226305   1.815   6.740   0.635  1.2017  0.2558 -0.2176
 8781TIP3   OH226306   2.845   0.866   0.811  0.4360  0.2357  0.1902
 8781TIP3    H126307   2.815   0.912   0.733 -1.6602 -0.1157  0.7155
 8781TIP3    H226308   2.883   0.933   0.867  1.9161  0.4953 -1.0814
 8782TIP3   OH226309   3.532   3.311   5.754  0.1795  0.1461  0.4012
 8782TIP3    H126310   3.564   3.269   5.674 -1.3514  0.4543 -0.4057
 8782TIP3    H226311   3.600   3.292   5.819  2.5094  1.6218 -1.4334
 8783TIP3   OH226312   0.984   2.243   1.901 -0.2905  0.0793 -0.0188
 8783TIP3    H126313   1.041   2.318   1.884 -1.2251  0.4029 -1.9333
 8783TIP3    H226314   0.904   2.281   1.936 -0.4654 -0.0950 -0.2270
 8784TIP3   OH226315   4.906   2.629   0.327  0.3702 -0.1209 -0.1391
 8784TIP3    H126316   4.960   2.583   0.263 -1.0623 -1.6769 -0.3157
 8784TIP3    H226317   4.957   2.628   0.408  1.3029 -0.0321 -0.7118
 8785TIP3   OH226318   0.392   2.670   1.578  0.9446  0.0314 -0.5958
 8785TIP3    H126319   0.445   2.747   1.562 -1.3736  1.8512 -0.1344
 8785TIP3    H226320   0.333   2.665   1.503 -0.5627  0.2334  0.5216
 8786TIP3   OH226321   1.752   0.548   4.240 -0.4193  0.5782 -0.1562
 8786TIP3    H126322   1.742   0.490   4.164 -0.4133 -0.2841  0.4829
 8786TIP3    H226323   1.702   0.505   4.309 -0.8828  1.6431  0.1848
 8787TIP3   OH226324   2.777   1.714   3.505  0.6530 -0.7290  0.4359
 8787TIP3    H126325   2.810   1.761   3.581  1.8566 -2.7769  1.2832
 8787TIP3    H226326   2.689   1.686   3.530  0.3219  0.1872  0.3141
 8788TIP3   OH226327   1.286   2.625   4.494  0.0371  0.0323 -0.1566
 8788TIP3    H126328   1.285   2.567   4.569 -0.1896 -0.7408 -0.7430
 8788TIP3    H226329   1.368   2.673   4.502  1.5465 -2.2257 -1.0381
 8789TIP3   OH226330   3.824   1.016   5.736  0.4577  0.0483  0.5552
 8789TIP3    H126331   3.805   0.929   5.699  2.7579 -0.1324 -0.3532
 8789TIP3    H226332   3.799   1.077   5.667 -0.3547  0.0803  0.8639
 8790TIP3   OH226333   6.094   6.401   4.806 -0.1695 -0.4463  0.3216
 8790TIP3    H126334   6.190   6.398   4.808 -0.1502 -1.7588 -0.8448
 8790TIP3    H226335   6.067   6.310   4.817 -1.3063 -0.0579  0.8619
 8791TIP3   OH226336   3.836   1.358   1.772 -0.1635 -0.1940 -0.2270
 8791TIP3    H126337   3.786   1.434   1.803  0.7525  0.5516 -0.5101
 8791TIP3    H226338   3.846   1.374   1.678 -1.1270 -1.3742 -0.5587
 8792TIP3   OH226339   6.183   3.172   0.643 -0.4060 -0.9612  0.0138
 8792TIP3    H126340   6.157   3.241   0.582 -1.8317 -1.1632  0.3338
 8792TIP3    H226341   6.115   3.174   0.711  0.1349 -1.9512  0.6140
 8793TIP3   OH226342   3.698   3.505   4.447 -0.4593  0.0551 -0.4245
 8793TIP3    H126343   3.775   3.452   4.427 -2.5079 -2.6403 -1.9655
 8793TIP3    H226344   3.725   3.595   4.430  2.6782 -0.6173  0.4418
 8794TIP3   OH226345   3.370   3.642   4.739 -0.1147 -0.1965  0.5429
 8794TIP3    H126346   3.366   3.608   4.829  0.7906  0.2364  0.7531
 8794TIP3    H226347   3.297   3.703   4.734 -1.5988 -1.9110  0.2525
 8795TIP3   OH226348   1.590   5.628   5.768 -0.1373 -0.0754  0.3195
 8795TIP3    H126349   1.516   5.677   5.731  0.2874  1.0097  0.8694
 8795TIP3    H226350   1.607   5.670   5.853 -0.4708 -1.9010  1.3384
 8796TIP3   OH226351   1.476   5.837   4.156  0.4786  0.0212  0.7194
 8796TIP3    H126352   1.505   5.928   4.158 -0.7434  0.4503  0.1525
 8796TIP3    H226353   1.506   5.805   4.071 -0.3091  0.3310  0.3191
 8797TIP3   OH226354   2.162   4.089   0.759 -0.1280 -0.3313  0.0536
 8797TIP3    H126355   2.111   4.162   0.723  0.6059  0.7082  1.0172
 8797TIP3    H226356   2.136   4.013   0.707 -0.6040  0.6937 -1.2804
 8798TIP3   OH226357   2.669   5.249   1.577  0.1752  0.1705 -0.1726
 8798TIP3    H126358   2.578   5.279   1.572  0.5376  1.1677 -0.8835
 8798TIP3    H226359   2.687   5.245   1.671 -0.7818 -0.6134 -0.0060
 8799TIP3   OH226360   6.362   4.212   0.107  0.0064  0.3402  0.2641
 8799TIP3    H126361   6.300   4.248   0.044 -1.0869 -1.7857  0.0381
 8799TIP3    H226362   6.435   4.180   0.054 -1.2483 -2.1238 -0.0869
 8800TIP3   OH226363   3.477   3.352   4.364 -0.0072 -0.4079 -0.3986
 8800TIP3    H126364   3.545   3.415   4.389 -1.5743  1.1009  0.1919
 8800TIP3    H226365   3.414   3.355   4.436 -0.5443 -2.0641 -0.7533
 8801TIP3   OH226366   4.839   1.003   0.484  0.2727 -0.4706  0.5265
 8801TIP3    H126367   4.905   1.067   0.510 -0.9648  1.7846 -1.4585
 8801TIP3    H226368   4.759   1.031   0.528 -0.5096 -0.0141 -1.1021
 8802TIP3   OH226369   1.978   2.364   4.152 -0.0521 -0.1871 -0.0055
 8802TIP3    H126370   1.975   2.450   4.195 -1.1211 -0.3770  0.3367
 8802TIP3    H226371   1.896   2.322   4.177  0.2435 -1.1288 -0.5616
 8803TIP3   OH226372   6.613   3.801   3.585 -0.2553  0.0685 -0.2693
 8803TIP3    H126373   6.520   3.783   3.574 -0.0209 -0.6035 -1.3722
 8803TIP3    H226374   6.629   3.793   3.679 -0.8616 -2.1484 -0.3033
 8804TIP3   OH226375   6.514   5.764   5.111 -0.1417  0.2407  0.6787
 8804TIP3    H126376   6.568   5.706   5.165 -0.1455 -0.8987 -0.4691
 8804TIP3    H226377   6.459   5.811   5.174  2.2199  1.5235  1.8876
 8805TIP3   OH226378   4.367   1.893   5.340 -0.4901  0.0848 -0.1213
 8805TIP3    H126379   4.342   1.985   5.355 -0.5791  0.2941 -1.4259
 8805TIP3    H226380   4.423   1.896   5.263 -0.5208 -0.9677 -0.1920
 8806TIP3   OH226381   0.102   3.138   1.341 -0.1373 -0.8566  0.3327
 8806TIP3    H126382   0.009   3.148   1.361  0.0287 -0.0416  0.7531
 8806TIP3    H226383   0.138   3.092   1.416 -0.1957 -1.1413  0.1860
 8807TIP3   OH226384   2.478   3.961   1.224  0.1990 -0.1985  0.3308
 8807TIP3    H126385   2.477   3.890   1.161 -1.6022 -0.0809  0.1853
 8807TIP3    H226386   2.542   4.024   1.188  0.9635 -1.2048 -0.1116
 8808TIP3   OH226387   4.720   5.509   2.414  0.0757 -0.5350  0.5186
 8808TIP3    H126388   4.724   5.582   2.353  2.6440 -0.1994  0.9678
 8808TIP3    H226389   4.672   5.543   2.490 -2.0390 -0.5708 -0.7210
 8809TIP3   OH226390   3.581   0.957   2.034 -0.5100 -0.1953  0.4843
 8809TIP3    H126391   3.512   0.893   2.048 -0.7966  0.1557  0.6874
 8809TIP3    H226392   3.641   0.946   2.108 -0.8055  0.0873  0.7680
 8810TIP3   OH226393   4.008   2.197   1.836 -0.1482  0.1011 -0.3102
 8810TIP3    H126394   3.918   2.212   1.868 -0.3581 -1.5092 -0.0949
 8810TIP3    H226395   4.046   2.285   1.831 -1.5797  0.7707  0.0628
 8811TIP3   OH226396   0.197   3.254   3.241  0.2633 -0.2292 -0.3980
 8811TIP3    H126397   0.116   3.293   3.276  0.3644 -0.3705 -0.0067
 8811TIP3    H226398   0.216   3.181   3.300  1.4502  0.6532  0.3649
 8812TIP3   OH226399   2.833   2.697   1.717 -0.0770 -0.0053  0.3963
 8812TIP3    H126400   2.917   2.652   1.715 -1.1972 -2.2358  0.0823
 8812TIP3    H226401   2.786   2.657   1.790 -0.9976  0.9621  0.3573
 8813TIP3   OH226402   5.256   5.115   2.192 -0.0079 -0.1287  0.1918
 8813TIP3    H126403   5.230   5.024   2.199 -1.4953  0.2166 -0.3879
 8813TIP3    H226404   5.182   5.165   2.227  0.3426  0.8804 -0.4319
 8814TIP3   OH226405   5.020   5.381   4.034 -0.1185 -0.5445 -0.5984
 8814TIP3    H126406   4.963   5.367   4.110  0.4807 -2.7992 -0.4971
 8814TIP3    H226407   4.992   5.315   3.971  0.6301  0.0771 -1.6108
 8815TIP3   OH226408   0.174   2.534   0.377 -0.4374  0.0156  0.3622
 8815TIP3    H126409   0.165   2.503   0.468 -0.0303 -0.1739  0.3411
 8815TIP3    H226410   0.124   2.615   0.375  0.5511  0.6686  1.0940
 8816TIP3   OH226411   5.198   4.499   1.757  0.4202 -0.5648 -0.3420
 8816TIP3    H126412   5.192   4.463   1.845  1.4077  2.1998  0.9887
 8816TIP3    H226413   5.292   4.505   1.740  0.2758  0.2999 -0.9164
 8817TIP3   OH226414   6.789   3.959   4.408 -0.3875 -0.2321 -0.2953
 8817TIP3    H126415   6.766   3.995   4.322 -0.4258  0.9147  0.1675
 8817TIP3    H226416   6.790   3.864   4.395 -0.2456 -0.0772 -1.5934
 8818TIP3   OH226417   2.574   4.870   0.255 -0.5326 -0.4388  0.2095
 8818TIP3    H126418   2.490   4.909   0.281 -0.4707  0.1487 -0.4248
 8818TIP3    H226419   2.550   4.791   0.206 -0.6707 -1.0330  1.2213
 8819TIP3   OH226420   1.520   6.005   0.035 -0.0608  0.6314  0.0480
 8819TIP3    H126421   1.580   5.969  -0.031  0.3973  2.0296 -0.3332
 8819TIP3    H226422   1.565   6.083   0.068 -1.4418  1.4304  0.1190
 8820TIP3   OH226423   4.380   3.844   4.860 -0.0710 -0.1729  0.1840
 8820TIP3    H126424   4.327   3.768   4.837 -0.2300 -0.4046  1.2750
 8820TIP3    H226425   4.340   3.878   4.940 -0.3755  1.4235 -0.5940
 8821TIP3   OH226426   6.311   0.618   4.862  0.3289  0.7771 -0.7531
 8821TIP3    H126427   6.289   0.553   4.795  3.1295 -0.7889 -0.2792
 8821TIP3    H226428   6.364   0.683   4.816 -0.4670  1.4763 -0.7071
 8822TIP3   OH226429   6.258   0.981   2.749 -0.3755 -0.0775  0.2455
 8822TIP3    H126430   6.334   0.992   2.806 -2.0257  2.0745  2.2302
 8822TIP3    H226431   6.226   1.070   2.735 -1.7325 -0.8095 -1.7024
 8823TIP3   OH226432   6.805   2.969   0.275  0.8646  0.2174 -0.0445
 8823TIP3    H126433   6.868   3.040   0.261  0.7297  0.0285 -1.7557
 8823TIP3    H226434   6.849   2.892   0.240 -0.2448  0.0571 -1.1198
 8824TIP3   OH226435   5.455   3.183   4.469 -0.2206  0.2191 -0.3074
 8824TIP3    H126436   5.411   3.232   4.400  0.0759  0.5929 -0.2307
 8824TIP3    H226437   5.416   3.214   4.550 -0.8543 -0.5083 -0.3233
 8825TIP3   OH226438   7.100   1.676   3.444  0.3012 -0.2210  0.7470
 8825TIP3    H126439   7.099   1.628   3.361 -0.8618 -0.0364  0.6288
 8825TIP3    H226440   7.095   1.609   3.512  2.1552 -0.4234  0.7257
 8826TIP3   OH226441   4.252   1.998   4.801  0.2709 -0.4501 -0.0634
 8826TIP3    H126442   4.230   2.035   4.715 -0.3191  0.1373  0.3299
 8826TIP3    H226443   4.347   2.013   4.809  0.1802  0.2715 -0.2495
 8827TIP3   OH226444   1.265   1.591   3.638 -0.4249 -0.3819  0.0593
 8827TIP3    H126445   1.257   1.509   3.687 -0.6280 -0.7843 -0.6290
 8827TIP3    H226446   1.181   1.636   3.653 -0.3655 -0.3606  0.3294
 8828TIP3   OH226447   2.667   0.955   5.770  0.3820  0.4082  0.2507
 8828TIP3    H126448   2.675   1.009   5.849  1.1784 -0.9874  1.1645
 8828TIP3    H226449   2.748   0.972   5.721  0.2676  0.6290  0.1334
 8829TIP3   OH226450   5.881   2.499   1.577 -0.3827 -0.0791  0.2755
 8829TIP3    H126451   5.863   2.530   1.488 -0.2287 -1.0878 -0.1269
 8829TIP3    H226452   5.974   2.477   1.577 -0.5892 -0.9969  0.3861
 8830TIP3   OH226453   3.641   2.623   1.553  0.8291  0.3193 -0.0206
 8830TIP3    H126454   3.589   2.576   1.487 -1.0646  1.8513  0.2618
 8830TIP3    H226455   3.612   2.587   1.636 -0.2065  1.4948  0.1657
 8831TIP3   OH226456   1.753   6.379   0.892  0.5422 -0.5275  0.4048
 8831TIP3    H126457   1.765   6.291   0.856  1.4376  0.2398 -1.3305
 8831TIP3    H226458   1.673   6.411   0.850  2.3746  0.9190 -2.2488
 8832TIP3   OH226459   5.565   2.639   2.160  0.2425 -0.3864 -0.5935
 8832TIP3    H126460   5.470   2.654   2.157  0.1867 -0.8422 -1.2094
 8832TIP3    H226461   5.581   2.573   2.093  1.3298  1.4173 -2.2081
 8833TIP3   OH226462   4.556   6.233   0.796  0.3833 -0.0593  0.4310
 8833TIP3    H126463   4.621   6.274   0.853  1.2720  1.0039 -1.2919
 8833TIP3    H226464   4.483   6.295   0.793  0.0744 -0.3911  0.8582
 8834TIP3   OH226465   2.611   3.886   5.449 -0.0175 -0.5835 -0.1902
 8834TIP3    H126466   2.522   3.914   5.429  0.0855 -0.3926 -0.3864
 8834TIP3    H226467   2.662   3.966   5.448  0.0891 -0.6445  0.3066
 8835TIP3   OH226468   5.238   3.875   1.753 -0.1583  0.3316  0.2674
 8835TIP3    H126469   5.296   3.922   1.813 -1.3521  1.4462  0.6120
 8835TIP3    H226470   5.163   3.933   1.743 -0.5244 -0.3760 -1.3870
 8836TIP3   OH226471   2.072   2.471   3.389  0.3741  0.4019  1.1387
 8836TIP3    H126472   2.012   2.423   3.446 -0.4015 -0.3057 -0.2074
 8836TIP3    H226473   2.158   2.431   3.405 -0.5652 -3.3681 -1.6585
 8837TIP3   OH226474   7.190   0.433   5.356 -0.2574  0.2251 -0.3101
 8837TIP3    H126475   7.124   0.364   5.356 -1.1214  1.0014 -1.6122
 8837TIP3    H226476   7.263   0.396   5.305 -0.3255 -0.0658 -0.1988
 8838TIP3   OH226477   2.586   2.637   3.612  0.3720  0.1034 -0.0909
 8838TIP3    H126478   2.678   2.650   3.635  0.3825 -0.1297  0.0053
 8838TIP3    H226479   2.537   2.684   3.680  0.3887 -1.1306  0.8128
 8839TIP3   OH226480   6.897   6.754   0.744  0.1481  0.4480 -0.3275
 8839TIP3    H126481   6.990   6.763   0.722 -0.1864  1.3328 -1.5024
 8839TIP3    H226482   6.864   6.688   0.683 -0.1758  0.7936 -0.5326
 8840TIP3   OH226483   6.549   6.396   0.763 -0.5203 -0.1012  0.4825
 8840TIP3    H126484   6.499   6.409   0.844 -0.8638 -1.6168  0.5368
 8840TIP3    H226485   6.484   6.404   0.693 -0.1747  1.4934  0.2994
 8841TIP3   OH226486   0.967   2.819   1.058  0.0932 -0.1735  0.5738
 8841TIP3    H126487   0.895   2.831   1.120  0.8119  3.2435  0.9757
 8841TIP3    H226488   0.935   2.860   0.977  0.9215 -0.2690  0.1880
 8842TIP3   OH226489   3.525   5.513   4.607 -0.2323  0.2623  0.3242
 8842TIP3    H126490   3.572   5.545   4.685  2.2680 -0.6916 -0.6872
 8842TIP3    H226491   3.570   5.555   4.533 -1.5536 -0.0499 -0.6846
 8843TIP3   OH226492   1.721   2.816   1.713 -0.4312 -0.6109 -0.4743
 8843TIP3    H126493   1.737   2.820   1.619  2.2468 -0.6348 -0.1063
 8843TIP3    H226494   1.626   2.816   1.721 -0.7776 -1.6823 -3.2210
 8844TIP3   OH226495   5.722   4.080   4.897 -0.3203  0.5799  0.8121
 8844TIP3    H126496   5.667   4.141   4.847 -1.7478 -0.9437  0.4324
 8844TIP3    H226497   5.661   4.036   4.956  0.7714 -0.0777  1.4767
 8845TIP3   OH226498   3.940   4.932   1.305  0.3235 -0.0325 -0.2143
 8845TIP3    H126499   4.017   4.899   1.351  0.3713  0.9831  0.4591
 8845TIP3    H226500   3.917   4.863   1.243 -0.3679 -1.9250  2.0321
 8846TIP3   OH226501   3.026   6.752   1.682  0.4089 -0.4848  0.2827
 8846TIP3    H126502   3.095   6.770   1.619 -0.8507 -0.1355 -1.0284
 8846TIP3    H226503   3.006   6.837   1.722  1.4601 -0.7650  1.4614
 8847TIP3   OH226504   5.930   2.348   1.248 -0.5988 -0.0389  0.5330
 8847TIP3    H126505   5.851   2.310   1.288 -2.6605  1.1794 -2.0510
 8847TIP3    H226506   5.918   2.443   1.258  1.2284  0.1625  1.1895
 8848TIP3   OH226507   1.427   1.107   2.345 -0.0811  0.8533  0.0049
 8848TIP3    H126508   1.393   1.018   2.346 -1.0823  1.2122 -0.1060
 8848TIP3    H226509   1.504   1.103   2.288 -0.0788  0.0493  0.0520
 8849TIP3   OH226510   1.482   1.627   1.920 -0.2015 -0.4372  0.3501
 8849TIP3    H126511   1.391   1.597   1.924 -0.2671 -0.1326  1.2044
 8849TIP3    H226512   1.533   1.551   1.950 -0.2430 -0.2821  0.8134
 8850TIP3   OH226513   3.755   5.216   3.365 -0.2312  0.2936 -0.4915
 8850TIP3    H126514   3.683   5.278   3.350 -0.5503 -0.1319 -0.7356
 8850TIP3    H226515   3.824   5.269   3.405 -1.1091  0.4688  0.8471
 8851TIP3   OH226516   4.492   1.676   4.907  0.7316 -0.7991 -0.3038
 8851TIP3    H126517   4.555   1.632   4.964 -0.7832 -1.4760  0.9185
 8851TIP3    H226518   4.514   1.645   4.819  2.6025 -0.3629 -0.0290
 8852TIP3   OH226519   6.881   0.804   5.301 -0.0235  0.0128 -0.2157
 8852TIP3    H126520   6.941   0.781   5.372  0.1995  3.1963  0.7734
 8852TIP3    H226521   6.796   0.816   5.343 -0.1816  0.6632 -0.6995
 8853TIP3   OH226522   2.990   0.349   5.856  0.0066  0.2120 -0.3876
 8853TIP3    H126523   2.962   0.283   5.792  0.5363 -0.2609 -0.1388
 8853TIP3    H226524   2.929   0.339   5.929  1.2293 -1.3041  0.4620
 8854TIP3   OH226525   2.429   6.047   2.289  0.0763  0.3400  0.4751
 8854TIP3    H126526   2.459   6.125   2.242 -0.1304  0.0368 -0.1641
 8854TIP3    H226527   2.379   5.997   2.225 -2.0833  0.9578  1.5592
 8855TIP3   OH226528   6.381   1.656   5.258 -0.1090 -0.1411  0.1642
 8855TIP3    H126529   6.318   1.639   5.188 -0.9075  3.5121 -0.2049
 8855TIP3    H226530   6.378   1.751   5.270  1.8044 -0.3575  3.5042
 8856TIP3   OH226531   4.245   0.819   2.652  0.0058  0.1546 -0.0239
 8856TIP3    H126532   4.278   0.761   2.721 -0.5802 -0.8678 -0.5938
 8856TIP3    H226533   4.176   0.870   2.695 -0.5125 -0.6348  0.0911
 8857TIP3   OH226534   1.927   2.658   4.253  0.6543 -0.0647 -0.4632
 8857TIP3    H126535   1.970   2.695   4.176  1.5186  3.0016  1.3221
 8857TIP3    H226536   1.983   2.685   4.326 -0.1547 -2.7950  1.3053
 8858TIP3   OH226537   3.948   2.834   3.393  0.0020 -0.0688  0.0517
 8858TIP3    H126538   3.966   2.776   3.319 -1.2975 -0.8025  0.2796
 8858TIP3    H226539   3.965   2.779   3.470 -0.5595  0.0731  0.2773
 8859TIP3   OH226540   3.452   6.810   2.867  0.0511  0.6411 -0.2202
 8859TIP3    H126541   3.376   6.792   2.811 -1.0300  0.5760  1.2205
 8859TIP3    H226542   3.527   6.780   2.815 -0.9991 -0.3985 -1.2064
 8860TIP3   OH226543   0.474   3.707   4.604  0.0356 -0.6308  0.0419
 8860TIP3    H126544   0.461   3.729   4.512  1.9339 -1.4755 -0.4598
 8860TIP3    H226545   0.475   3.792   4.648 -0.2662 -0.1855 -0.7820
 8861TIP3   OH226546   7.038   2.553   5.531 -0.2795  0.0676 -0.0085
 8861TIP3    H126547   7.083   2.593   5.606  0.6580  0.9347 -1.0134
 8861TIP3    H226548   7.082   2.469   5.519  0.8527  0.7324 -0.7272
 8862TIP3   OH226549   1.470   4.397   2.478 -0.0147 -0.2916  0.3337
 8862TIP3    H126550   1.483   4.305   2.458 -0.9517 -0.1781 -0.9692
 8862TIP3    H226551   1.386   4.418   2.437 -0.4617  0.8191  1.7324
 8863TIP3   OH226552   0.235   0.803   2.485  0.4852  0.2486  0.0529
 8863TIP3    H126553   0.203   0.724   2.530 -1.1083  0.4147 -0.7222
 8863TIP3    H226554   0.314   0.774   2.439  0.8092 -0.4920  1.0428
 8864TIP3   OH226555   6.646   1.282   3.509  0.1819 -0.0514  0.4004
 8864TIP3    H126556   6.557   1.315   3.514  0.3451  0.5772 -0.6460
 8864TIP3    H226557   6.692   1.323   3.583 -0.6850 -1.4023  1.7564
 8865TIP3   OH226558   6.196   1.299   4.310 -0.0154 -0.6460 -0.1911
 8865TIP3    H126559   6.162   1.279   4.223  1.3316  0.8245 -1.1060
 8865TIP3    H226560   6.215   1.213   4.349  1.7224 -1.3332 -2.3491
 8866TIP3   OH226561   1.189   6.818   0.245  0.1506 -0.5539 -0.6589
 8866TIP3    H126562   1.132   6.774   0.308  0.9562 -0.4862  0.1402
 8866TIP3    H226563   1.267   6.762   0.242  0.9810  0.5424 -0.0120
 8867TIP3   OH226564   7.083   2.573   5.247 -0.1341 -0.6909 -0.2317
 8867TIP3    H126565   7.140   2.650   5.237  0.4826 -1.1185 -0.0296
 8867TIP3    H226566   7.058   2.574   5.339 -0.0829 -0.7638 -0.2173
 8868TIP3   OH226567   3.333   6.779   5.281  0.0968 -0.3816 -0.0367
 8868TIP3    H126568   3.255   6.822   5.318 -1.4824 -1.5930 -1.7540
 8868TIP3    H226569   3.300   6.733   5.204  2.5682 -0.9107 -0.8630
 8869TIP3   OH226570   6.422   2.105   1.992  0.5618  0.3596 -0.0940
 8869TIP3    H126571   6.373   2.166   2.047  1.5831 -0.2036  1.5102
 8869TIP3    H226572   6.487   2.067   2.051  2.5769  0.6726 -2.0118
 8870TIP3   OH226573   2.776   2.638   2.458 -0.5198  0.0516 -0.0519
 8870TIP3    H126574   2.779   2.542   2.463  0.5182  0.0814  0.2793
 8870TIP3    H226575   2.822   2.659   2.377  0.1159  0.2970  0.3668
 8871TIP3   OH226576   2.790   3.134   2.956  0.0884 -0.3127  0.3110
 8871TIP3    H126577   2.713   3.078   2.948  0.9598 -1.4605 -0.3974
 8871TIP3    H226578   2.823   3.117   3.044 -0.7652  0.6147  0.8294
 8872TIP3   OH226579   1.785   1.787   0.134 -0.0288 -0.6743  0.0746
 8872TIP3    H126580   1.850   1.832   0.188  1.2642  0.2995 -2.1329
 8872TIP3    H226581   1.826   1.702   0.114 -0.2998 -0.8493  0.2670
 8873TIP3   OH226582   2.628   4.461   3.613 -0.0315  0.0553  0.2631
 8873TIP3    H126583   2.694   4.474   3.681  0.2589  0.7746 -0.1487
 8873TIP3    H226584   2.583   4.545   3.606 -1.1385 -0.4868  0.6759
 8874TIP3   OH226585   3.447   4.273   4.651  0.1079  0.1265  0.1515
 8874TIP3    H126586   3.541   4.287   4.657 -0.1362  1.1627  2.5350
 8874TIP3    H226587   3.432   4.194   4.703 -0.4348  0.5690  0.6804
 8875TIP3   OH226588   6.378   4.518   2.865 -0.3115 -0.0018  0.7351
 8875TIP3    H126589   6.382   4.518   2.769 -3.1433 -1.0771  0.5231
 8875TIP3    H226590   6.436   4.446   2.891  0.9864  0.7032 -0.0852
 8876TIP3   OH226591   6.972   1.126   0.665 -0.0933  0.2808 -0.1820
 8876TIP3    H126592   7.046   1.162   0.713 -1.0880 -0.0487  1.6748
 8876TIP3    H226593   6.989   1.150   0.573  2.2586  0.2194  0.1881
 8877TIP3   OH226594   6.831   5.641   5.034  0.2924  0.0114  0.3607
 8877TIP3    H126595   6.926   5.647   5.044  0.2123  0.7316  0.7113
 8877TIP3    H226596   6.804   5.728   5.005 -0.3298 -0.0195  0.8371
 8878TIP3   OH226597   2.049   6.300   0.715  0.1823  0.1609  0.4960
 8878TIP3    H126598   2.035   6.312   0.621 -1.0199 -2.1232  0.2965
 8878TIP3    H226599   2.125   6.354   0.736 -0.0187  1.3522 -1.6159
 8879TIP3   OH226600   3.740   6.608   0.659 -0.1587 -0.7536 -0.2326
 8879TIP3    H126601   3.752   6.582   0.568  1.6122  0.3465 -0.3679
 8879TIP3    H226602   3.804   6.678   0.672 -0.3678 -0.9020  1.8690
 8880TIP3   OH226603   1.889   6.117   5.339 -0.0000 -0.4999 -0.0565
 8880TIP3    H126604   1.947   6.182   5.378 -0.2747 -0.9000  1.0324
 8880TIP3    H226605   1.904   6.038   5.390  1.0104 -1.6038 -1.9276
 8881TIP3   OH226606   6.864   1.365   2.791  0.0280 -0.4062 -0.3187
 8881TIP3    H126607   6.873   1.308   2.715  0.7810 -0.3194 -0.3020
 8881TIP3    H226608   6.853   1.305   2.865  1.8024 -0.6092 -0.1607
 8882TIP3   OH226609   2.549   6.825   0.558  0.4698 -0.0711 -0.4864
 8882TIP3    H126610   2.514   6.767   0.491  1.5375 -1.2335 -0.0749
 8882TIP3    H226611   2.604   6.769   0.613  0.8191  1.1472  0.4710
 8883TIP3   OH226612   6.440   1.070   1.861 -0.4085 -0.0025  0.1910
 8883TIP3    H126613   6.446   1.064   1.956 -0.5365 -2.1461  0.1029
 8883TIP3    H226614   6.513   1.017   1.829 -2.4658 -2.4067 -0.8475
 8884TIP3   OH226615   4.557   5.525   2.643  0.4496 -0.3206 -0.4658
 8884TIP3    H126616   4.471   5.491   2.617  0.0389  0.8048 -0.6400
 8884TIP3    H226617   4.596   5.454   2.694  0.4601 -1.8291 -2.4681
 8885TIP3   OH226618   0.412   6.060   3.619 -0.0549  0.2492  0.0814
 8885TIP3    H126619   0.460   6.137   3.590  1.0555 -0.0275  1.0962
 8885TIP3    H226620   0.320   6.088   3.619 -0.0815  0.4325 -2.9934
 8886TIP3   OH226621   4.502   5.388   4.897  0.2029  0.0496  0.0294
 8886TIP3    H126622   4.527   5.304   4.935  1.3811  1.0475  1.6527
 8886TIP3    H226623   4.411   5.402   4.926  0.3870 -0.1643  0.7231
 8887TIP3   OH226624   5.759   3.383   3.088  0.1727  0.1481 -0.5052
 8887TIP3    H126625   5.752   3.441   3.164  1.8110  0.0656 -0.2581
 8887TIP3    H226626   5.843   3.406   3.047  0.1976 -1.0885 -1.2083
 8888TIP3   OH226627   3.670   1.638   5.424  0.1163 -0.0763 -0.0785
 8888TIP3    H126628   3.729   1.597   5.361 -0.5313 -0.5558 -0.3789
 8888TIP3    H226629   3.587   1.592   5.413 -0.4334  0.8583  0.0512
 8889TIP3   OH226630   2.596   1.028   1.316 -0.1718  0.0478 -0.2240
 8889TIP3    H126631   2.532   1.098   1.307 -1.5126 -1.1976 -0.9590
 8889TIP3    H226632   2.557   0.968   1.379  1.1675  0.1638  0.7526
 8890TIP3   OH226633   5.117   4.689   2.724 -0.8970 -0.2148  0.0380
 8890TIP3    H126634   5.066   4.654   2.797 -2.2776 -0.2603 -0.9170
 8890TIP3    H226635   5.053   4.735   2.670  0.1624  0.1233 -0.9610
 8891TIP3   OH226636   2.065   3.658   4.143  0.2034 -0.2044  0.2156
 8891TIP3    H126637   2.102   3.682   4.228  1.1228 -1.7093  0.2800
 8891TIP3    H226638   2.074   3.736   4.089  1.0066  0.2943  1.0501
 8892TIP3   OH226639   3.251   5.775   5.049 -0.2751 -0.0761 -0.4235
 8892TIP3    H126640   3.319   5.841   5.031  0.0544 -0.1498  0.4808
 8892TIP3    H226641   3.241   5.777   5.145 -0.7056 -0.9050 -0.4438
 8893TIP3   OH226642   1.293   5.168   4.772  0.1455 -0.2683 -0.1796
 8893TIP3    H126643   1.375   5.216   4.763 -0.6475  1.2423  0.2277
 8893TIP3    H226644   1.306   5.087   4.723  2.2309 -0.5656  0.7766
 8894TIP3   OH226645   6.277   0.753   5.727  0.0508 -0.1070 -0.6490
 8894TIP3    H126646   6.186   0.780   5.716 -0.4463 -1.7229 -0.7985
 8894TIP3    H226647   6.308   0.802   5.803 -1.5857 -0.9869  0.6559
 8895TIP3   OH226648   0.430   4.734   5.864  0.0144 -0.6363 -0.6995
 8895TIP3    H126649   0.513   4.780   5.853 -0.5534  0.8936  0.8776
 8895TIP3    H226650   0.387   4.741   5.779  0.2850  1.1595 -0.7312
 8896TIP3   OH226651   0.103   5.903   4.845 -0.5958 -0.2670 -0.1506
 8896TIP3    H126652   0.136   5.951   4.920 -0.8645 -0.8572  0.3502
 8896TIP3    H226653   0.150   5.819   4.846 -2.4009 -1.3296  0.8739
 8897TIP3   OH226654   4.787   5.438   2.944  0.0938  0.0134 -0.2932
 8897TIP3    H126655   4.846   5.508   2.970 -1.3413  0.7724  1.0121
 8897TIP3    H226656   4.846   5.366   2.918  1.6852 -0.1045  3.0761
 8898TIP3   OH226657   6.735   5.240   2.918 -0.7217 -0.0418 -0.0096
 8898TIP3    H126658   6.703   5.329   2.903  1.3185  0.5981 -0.8778
 8898TIP3    H226659   6.756   5.207   2.830 -1.4625 -1.4165  0.2988
 8899TIP3   OH226660   0.039   5.495   4.027 -0.1556 -0.3069 -0.3393
 8899TIP3    H126661  -0.050   5.530   4.013 -0.9037 -1.2836  1.5815
 8899TIP3    H226662   0.092   5.572   4.046 -0.9276  0.1601 -0.0068
 8900TIP3   OH226663   5.521   0.081   3.562 -0.4423  0.1311  0.0219
 8900TIP3    H126664   5.566   0.133   3.495 -0.0544  0.2523  0.3712
 8900TIP3    H226665   5.444   0.046   3.517  0.2921 -0.5452 -0.7466
 8901TIP3   OH226666   7.066   0.745   5.042  0.2860 -0.1871 -0.2366
 8901TIP3    H126667   7.057   0.805   5.115 -0.7247 -0.5116 -0.0759
 8901TIP3    H226668   7.025   0.790   4.968  0.7733 -0.1054 -0.4608
 8902TIP3   OH226669   5.498   2.902   2.479 -0.5316 -0.5620 -0.2258
 8902TIP3    H126670   5.553   2.980   2.474  0.4481 -1.1808  0.3491
 8902TIP3    H226671   5.553   2.832   2.444 -1.3390 -1.0235 -0.5993
 8903TIP3   OH226672   6.201   2.172   4.143 -0.2133 -0.2438  0.8283
 8903TIP3    H126673   6.150   2.250   4.164 -0.8403 -0.4206 -0.0007
 8903TIP3    H226674   6.286   2.188   4.184  0.3045  1.7286 -0.8278
 8904TIP3   OH226675   1.495   2.896   0.051  0.1840 -0.2345  0.0928
 8904TIP3    H126676   1.455   2.865   0.132 -1.2263  0.2734 -0.3762
 8904TIP3    H226677   1.490   2.821  -0.008 -2.2206  0.4606 -0.6878
 8905TIP3   OH226678   1.178   2.101   1.646  0.0621  0.6349  0.0567
 8905TIP3    H126679   1.106   2.159   1.620 -1.2847  0.1699  2.4728
 8905TIP3    H226680   1.142   2.013   1.636  0.6538  0.3533  0.3620
 8906TIP3   OH226681   4.274   4.663   5.289 -0.0773 -0.0612  0.5976
 8906TIP3    H126682   4.228   4.722   5.229 -1.2528 -1.4530  0.0638
 8906TIP3    H226683   4.215   4.653   5.363  0.8409  0.6940  1.4491
 8907TIP3   OH226684   1.893   4.422   5.862 -0.0268 -0.7758  0.1219
 8907TIP3    H126685   1.895   4.371   5.942  3.3434  0.7863  1.1817
 8907TIP3    H226686   1.968   4.391   5.811  1.8102  2.4877  0.5566
 8908TIP3   OH226687   4.415   6.449   0.731 -0.1187  0.3175  0.2888
 8908TIP3    H126688   4.474   6.462   0.657  1.1079 -0.7869  1.0302
 8908TIP3    H226689   4.426   6.528   0.784  1.2862 -0.1740  0.7840
 8909TIP3   OH226690   3.313   0.891   4.481 -0.1694 -0.0318  0.4037
 8909TIP3    H126691   3.381   0.841   4.525  0.0146 -0.2882 -0.1652
 8909TIP3    H226692   3.254   0.825   4.444  0.9465  0.0849 -1.7472
 8910TIP3   OH226693   0.074   0.333   3.575 -0.0009 -0.2700 -0.3233
 8910TIP3    H126694   0.043   0.266   3.514  0.8259  0.2029 -1.2953
 8910TIP3    H226695   0.120   0.396   3.519 -1.7013  1.7164  0.3848
 8911TIP3   OH226696   4.158   5.465   5.367  0.5426  0.2530  0.3479
 8911TIP3    H126697   4.221   5.408   5.323  3.4459  0.7085  3.4820
 8911TIP3    H226698   4.110   5.407   5.426  0.4929  0.4151  0.4678
 8912TIP3   OH226699   6.315   0.202   5.795  0.6351 -0.2177  0.3356
 8912TIP3    H126700   6.315   0.295   5.774  0.3397 -0.2394  0.2343
 8912TIP3    H226701   6.342   0.159   5.713  0.9996 -0.2077  0.4493
 8913TIP3   OH226702   1.558   1.789   2.243  1.0901  0.0036 -0.0258
 8913TIP3    H126703   1.570   1.877   2.279  0.9396 -0.0134  0.0654
 8913TIP3    H226704   1.465   1.770   2.256  1.2435 -0.4118  0.5237
 8914TIP3   OH226705   5.513   3.323   0.602  0.5361  0.5524 -0.0582
 8914TIP3    H126706   5.456   3.270   0.547 -0.5711 -0.5277  2.0146
 8914TIP3    H226707   5.555   3.384   0.541 -1.0080 -0.1951 -1.9885
 8915TIP3   OH226708   0.730   5.612   1.918 -0.2700 -0.5942  0.2153
 8915TIP3    H126709   0.806   5.613   1.860  0.1592  4.0292  0.4970
 8915TIP3    H226710   0.766   5.628   2.005 -1.4726  2.4717  0.2538
 8916TIP3   OH226711   1.466   2.546   2.672 -0.6278  0.4010  0.8068
 8916TIP3    H126712   1.428   2.588   2.595  1.3390  0.8184  0.0184
 8916TIP3    H226713   1.409   2.471   2.689 -0.2281 -0.6379 -2.0329
 8917TIP3   OH226714   6.919   6.166   2.334 -0.6087 -0.2072  0.0720
 8917TIP3    H126715   6.878   6.086   2.300 -0.6846 -0.8770  1.6669
 8917TIP3    H226716   6.880   6.178   2.420 -0.2498  1.3095  0.0484
 8918TIP3   OH226717   0.741   3.742   5.371  0.3528  0.4758  0.9329
 8918TIP3    H126718   0.818   3.742   5.428  1.8386  1.3175 -0.9864
 8918TIP3    H226719   0.733   3.652   5.341  0.6374  0.4061  1.0647
 8919TIP3   OH226720   5.038   3.002   4.284  0.7715  0.1730  0.4482
 8919TIP3    H126721   5.113   2.952   4.316  0.2953 -0.9358 -0.0862
 8919TIP3    H226722   5.017   2.961   4.200 -0.4099  0.4755  0.5759
 8920TIP3   OH226723   0.078   6.340   3.845 -0.2992  0.3544  0.0306
 8920TIP3    H126724  -0.005   6.385   3.858 -0.4055 -0.0525  0.7841
 8920TIP3    H226725   0.097   6.298   3.929 -0.0516 -0.7599 -0.5525
 8921TIP3   OH226726   7.133   2.245   1.743 -0.3922 -0.4557 -0.0370
 8921TIP3    H126727   7.052   2.294   1.756 -0.1403  0.6676 -2.3127
 8921TIP3    H226728   7.197   2.290   1.799 -1.2757 -1.3922  1.8249
 8922TIP3   OH226729   2.832   4.312   4.261  0.0719  0.1980 -0.0088
 8922TIP3    H126730   2.922   4.327   4.232  0.1346  1.7632  0.8458
 8922TIP3    H226731   2.779   4.369   4.204 -0.2021  0.4231  0.4660
 8923TIP3   OH226732   2.324   1.779   5.578  0.2253 -0.1505 -0.4003
 8923TIP3    H126733   2.334   1.736   5.493 -0.8470 -3.2994  0.9119
 8923TIP3    H226734   2.242   1.744   5.613  0.2836  1.5751  1.6819
 8924TIP3   OH226735   0.357   6.411   1.940  0.8190 -0.0873 -0.3928
 8924TIP3    H126736   0.423   6.411   2.009  1.2478 -0.2365 -0.7960
 8924TIP3    H226737   0.401   6.449   1.864  0.7489 -1.0599 -0.9411
 8925TIP3   OH226738   2.008   0.802   0.307  0.1452 -0.3998 -1.0212
 8925TIP3    H126739   1.955   0.865   0.259 -0.6804  0.2967  0.7071
 8925TIP3    H226740   2.062   0.854   0.366 -1.4961 -1.2070  1.3994
 8926TIP3   OH226741   1.284   1.029   2.687  0.0558 -0.6276 -0.0009
 8926TIP3    H126742   1.270   1.092   2.616 -1.2215 -0.6605  0.1927
 8926TIP3    H226743   1.203   0.977   2.689  0.2095 -0.8538  1.2485
 8927TIP3   OH226744   2.683   0.605   1.057  0.1841  0.2016 -0.4637
 8927TIP3    H126745   2.666   0.692   1.092  1.2962  0.5594 -0.7520
 8927TIP3    H226746   2.761   0.575   1.104  0.3386 -0.2567 -0.9975
 8928TIP3   OH226747   5.599   1.439   3.386  0.4318 -0.1309 -0.3034
 8928TIP3    H126748   5.541   1.435   3.463  1.3155  0.9247  0.4375
 8928TIP3    H226749   5.590   1.352   3.346 -0.5028 -0.5016  0.6487
 8929TIP3   OH226750   3.991   2.107   1.391 -0.4133 -0.3239 -0.1104
 8929TIP3    H126751   4.034   2.158   1.322 -1.5604  0.2233 -0.4472
 8929TIP3    H226752   4.063   2.065   1.438  0.4164 -0.4940 -1.4668
 8930TIP3   OH226753   5.035   3.939   4.982  0.1066  0.6593  0.5840
 8930TIP3    H126754   4.966   3.923   5.047 -0.4642 -0.8616 -0.3303
 8930TIP3    H226755   4.988   3.976   4.907  0.2254 -0.4457 -0.0680
 8931TIP3   OH226756   4.383   0.403   5.450  0.0466  0.6573 -0.6052
 8931TIP3    H126757   4.468   0.398   5.494  0.0229  1.7955 -0.3980
 8931TIP3    H226758   4.373   0.496   5.429 -0.8332  0.4224 -1.2629
 8932TIP3   OH226759   1.316   0.309   1.038 -0.2686 -0.3962 -0.0633
 8932TIP3    H126760   1.229   0.347   1.045 -0.6187 -1.2972  0.8424
 8932TIP3    H226761   1.299   0.217   1.016  0.2783 -1.2843  2.8250
 8933TIP3   OH226762   0.190   5.761   0.086 -0.0554 -0.2485 -0.0785
 8933TIP3    H126763   0.263   5.793   0.033 -0.9488  1.1024 -0.5381
 8933TIP3    H226764   0.112   5.798   0.044 -0.9756 -1.3093  0.6575
 8934TIP3   OH226765   6.532   0.031   5.872  0.1601 -0.5383 -0.1098
 8934TIP3    H126766   6.590   0.091   5.826  0.7485 -1.7195 -0.9732
 8934TIP3    H226767   6.448   0.076   5.877  0.6244  0.3914 -0.6169
 8935TIP3   OH226768   2.227   2.813   2.769  0.1422 -0.5685  0.4099
 8935TIP3    H126769   2.144   2.843   2.733 -0.5549 -2.4005  0.4223
 8935TIP3    H226770   2.278   2.894   2.781 -1.4847  0.5520  0.0909
 8936TIP3   OH226771   0.202   5.853   3.563  0.5915 -0.3508 -0.4791
 8936TIP3    H126772   0.251   5.923   3.521  0.8796 -0.1054  0.2518
 8936TIP3    H226773   0.143   5.820   3.495 -1.7334  2.6105 -0.1101
 8937TIP3   OH226774   6.351   0.438   0.554  0.0244 -0.2645  0.2018
 8937TIP3    H126775   6.425   0.482   0.513  0.3043 -1.8692 -1.1409
 8937TIP3    H226776   6.388   0.358   0.592 -0.6428  0.0558  1.5655
 8938TIP3   OH226777   7.155   4.712   4.997 -0.1337 -0.4138 -0.0419
 8938TIP3    H126778   7.150   4.738   5.089 -1.5354  0.1420 -0.2496
 8938TIP3    H226779   7.069   4.676   4.977  0.3669 -1.1371 -0.9762
 8939TIP3   OH226780   6.877   4.296   5.883 -0.9869  0.2492 -0.3989
 8939TIP3    H126781   6.945   4.327   5.943 -0.7920 -0.4758 -0.2329
 8939TIP3    H226782   6.920   4.297   5.797 -1.4232  1.7697 -0.6214
 8940TIP3   OH226783   3.401   1.415   1.389 -0.5648  0.4222  0.0360
 8940TIP3    H126784   3.395   1.320   1.399 -1.5514  0.4968  0.3499
 8940TIP3    H226785   3.447   1.445   1.468  0.0832  0.1782 -0.2461
 8941TIP3   OH226786   6.473   2.019   4.696 -0.0817 -0.2532 -0.1704
 8941TIP3    H126787   6.460   1.977   4.611  1.7825 -1.7793  0.2096
 8941TIP3    H226788   6.546   1.970   4.736 -0.1309  1.1559  1.8182
 8942TIP3   OH226789   2.944   6.148   0.368 -0.0661 -0.7943  0.3324
 8942TIP3    H126790   2.958   6.199   0.447 -0.4285  0.0296 -0.1294
 8942TIP3    H226791   2.939   6.213   0.298 -2.9712 -1.2378  0.0245
 8943TIP3   OH226792   1.719   5.714   3.227 -0.0926  0.3816  0.4535
 8943TIP3    H126793   1.648   5.768   3.263 -1.8420 -2.2226  1.1441
 8943TIP3    H226794   1.675   5.640   3.186  2.1988 -0.5390 -0.5239
 8944TIP3   OH226795   0.724   0.625   0.609 -0.0919 -0.1655  0.2148
 8944TIP3    H126796   0.796   0.577   0.650  1.0854  1.4559  0.1472
 8944TIP3    H226797   0.648   0.603   0.663  0.8217 -0.5032  1.4306
 8945TIP3   OH226798   1.779   0.486   1.511 -0.0133  0.4985  0.0310
 8945TIP3    H126799   1.739   0.425   1.449  2.0445  0.6422 -1.5673
 8945TIP3    H226800   1.714   0.555   1.524 -1.2510 -0.5621 -0.4078
 8946TIP3   OH226801   4.997   4.183   3.716  0.2503  0.2199  0.3572
 8946TIP3    H126802   5.026   4.182   3.625 -0.5308  1.1650  0.0783
 8946TIP3    H226803   4.927   4.118   3.720  0.7236 -0.2869  0.4411
 8947TIP3   OH226804   5.591   6.172   1.501 -0.6951  0.1228 -0.3083
 8947TIP3    H126805   5.606   6.096   1.446 -1.1059  0.5294 -0.9935
 8947TIP3    H226806   5.673   6.185   1.548 -0.3328 -0.2030 -0.8538
 8948TIP3   OH226807   1.145   1.949   2.393 -0.3417  0.1571  0.5630
 8948TIP3    H126808   1.077   1.881   2.388  0.4026 -0.6165  0.6055
 8948TIP3    H226809   1.196   1.926   2.470 -0.3583  1.0481  0.8443
 8949TIP3   OH226810   1.792   2.742   2.466 -0.5132  0.3883 -0.2466
 8949TIP3    H126811   1.728   2.674   2.486 -1.2368  0.7218 -1.2987
 8949TIP3    H226812   1.877   2.699   2.471 -0.9647 -0.6329 -0.9966
 8950TIP3   OH226813   2.283   2.339   0.274 -0.2868  0.5745 -0.9642
 8950TIP3    H126814   2.188   2.345   0.281 -0.3029 -0.7227  0.7196
 8950TIP3    H226815   2.315   2.400   0.340  0.0208  0.2215 -0.7847
 8951TIP3   OH226816   1.003   0.360   1.505  0.1284 -0.1564  0.1100
 8951TIP3    H126817   1.002   0.274   1.547  0.3817  1.0655  2.8244
 8951TIP3    H226818   1.093   0.391   1.514 -0.1615  0.7546  0.0017
 8952TIP3   OH226819   3.249   4.646   0.078  0.4300 -0.1653  0.0463
 8952TIP3    H126820   3.161   4.674   0.101 -0.4131 -2.7233  0.2293
 8952TIP3    H226821   3.247   4.637  -0.018 -0.0063 -1.6302  0.1720
 8953TIP3   OH226822   5.382   5.316   2.668  0.1338  0.1780 -1.3183
 8953TIP3    H126823   5.312   5.258   2.697  0.8036 -0.3438 -0.7188
 8953TIP3    H226824   5.338   5.380   2.612 -1.3343  1.6390  1.3366
 8954TIP3   OH226825   1.676   2.540   2.245  0.5277 -0.5629 -0.0708
 8954TIP3    H126826   1.771   2.542   2.253  0.6682 -0.5648 -1.6215
 8954TIP3    H226827   1.650   2.460   2.292  1.2336 -0.3275  0.7422
 8955TIP3   OH226828   5.247   5.033   0.432  0.6345 -0.1672 -0.1347
 8955TIP3    H126829   5.248   5.119   0.389 -1.0581 -0.4750 -0.8735
 8955TIP3    H226830   5.337   5.020   0.461  1.1416  1.4362 -0.8487
 8956TIP3   OH226831   4.644   4.811   5.201 -0.1883 -0.1324 -0.1519
 8956TIP3    H126832   4.717   4.822   5.262  1.1371  1.4329 -1.9034
 8956TIP3    H226833   4.586   4.885   5.219  0.0448  0.1536 -0.5660
 8957TIP3   OH226834   3.086   4.038   5.100 -0.0432 -0.1316  0.1406
 8957TIP3    H126835   2.992   4.024   5.099 -0.0740 -0.3008 -2.5540
 8957TIP3    H226836   3.097   4.128   5.070  0.6653 -0.4167 -0.4894
 8958TIP3   OH226837   4.641   0.687   2.512 -0.0469 -0.0305  0.0777
 8958TIP3    H126838   4.560   0.736   2.530 -0.5709 -1.2249  1.1657
 8958TIP3    H226839   4.661   0.707   2.421 -0.6112  1.6457  0.2879
 8959TIP3   OH226840   2.249   0.269   3.054  0.0720  0.1249  0.0206
 8959TIP3    H126841   2.183   0.330   3.088 -0.8504 -0.8926  0.1081
 8959TIP3    H226842   2.301   0.245   3.131  1.5870  2.1115 -0.3021
 8960TIP3   OH226843   4.914   5.866   1.441 -0.5716 -0.6493  0.0166
 8960TIP3    H126844   4.846   5.927   1.411 -0.7871 -1.0351 -0.2890
 8960TIP3    H226845   4.869   5.782   1.449 -0.5591 -0.5368  1.5741
 8961TIP3   OH226846   4.463   3.589   5.345  0.1465 -0.2341  0.6527
 8961TIP3    H126847   4.402   3.524   5.380 -1.8990  1.6187  0.7708
 8961TIP3    H226848   4.461   3.660   5.409  2.5112 -0.1124  0.6627
 8962TIP3   OH226849   4.747   3.424   3.052  0.3081  0.3619 -0.7196
 8962TIP3    H126850   4.678   3.477   3.013 -1.1705 -0.0614  1.1668
 8962TIP3    H226851   4.720   3.333   3.037 -0.8136  0.1695  1.9313
 8963TIP3   OH226852   0.314  -0.005   4.380 -0.2715 -0.5148 -0.3708
 8963TIP3    H126853   0.353   0.079   4.354 -2.5625  0.8986  0.4063
 8963TIP3    H226854   0.345  -0.018   4.470 -0.2932 -0.2191 -0.3169
 8964TIP3   OH226855   0.281   3.872   5.377  0.1403  0.1743  0.1667
 8964TIP3    H126856   0.323   3.787   5.369 -0.8077 -0.3032  0.2147
 8964TIP3    H226857   0.291   3.912   5.291  0.7014  0.0755  0.1827
 8965TIP3   OH226858   0.945   1.728   1.368 -0.1191 -0.5129  0.0252
 8965TIP3    H126859   1.032   1.744   1.332  0.0227  0.0659  0.6080
 8965TIP3    H226860   0.891   1.798   1.331 -0.4659 -1.1704 -0.7458
 8966TIP3   OH226861   6.037   3.824   1.895  0.1915 -0.0995  0.7081
 8966TIP3    H126862   6.102   3.760   1.864 -0.8299 -0.9916  0.3589
 8966TIP3    H226863   6.046   3.898   1.835  1.5903  0.2269  1.2895
 8967TIP3   OH226864   1.193   2.198   2.735 -0.3751  0.2465  0.3722
 8967TIP3    H126865   1.143   2.121   2.759 -2.4639  2.0913  2.3942
 8967TIP3    H226866   1.266   2.201   2.798  0.7072 -0.8903 -0.7655
 8968TIP3   OH226867   2.118   1.786   2.236 -0.0048  0.6827 -0.3821
 8968TIP3    H126868   2.128   1.693   2.219  0.6272  0.7138 -0.2063
 8968TIP3    H226869   2.024   1.799   2.242 -0.1156 -0.5222  2.5918
 8969TIP3   OH226870   0.143   4.704   2.295  0.2133 -0.0196 -0.2359
 8969TIP3    H126871   0.058   4.746   2.286  0.2699  0.4470  1.1804
 8969TIP3    H226872   0.175   4.731   2.381  1.9267  0.0563 -0.8424
 8970TIP3   OH226873   5.761   4.077   2.622  0.2081  0.1004 -0.1039
 8970TIP3    H126874   5.804   4.030   2.551 -2.7438 -0.4846 -1.6341
 8970TIP3    H226875   5.681   4.113   2.583 -0.4564  1.6198  2.4118
 8971TIP3   OH226876   6.281   1.546   1.113  0.5392  0.1309 -0.2115
 8971TIP3    H126877   6.264   1.464   1.067  1.6742 -1.4994  2.0815
 8971TIP3    H226878   6.200   1.596   1.104 -0.5491 -1.6603 -0.8570
 8972TIP3   OH226879   0.959   6.341   0.629 -0.2947 -0.4470  0.1267
 8972TIP3    H126880   1.000   6.307   0.549 -2.9201  0.4737 -1.7513
 8972TIP3    H226881   0.873   6.298   0.631  0.0461 -1.1986  3.0797
 8973TIP3   OH226882   6.507   2.106   3.609  0.1218  0.4028  0.3728
 8973TIP3    H126883   6.464   2.027   3.579 -0.3739  0.8776 -0.1991
 8973TIP3    H226884   6.595   2.078   3.633 -0.2869 -0.4605  0.9267
 8974TIP3   OH226885   4.079   6.068   1.225  0.2896  0.1802 -0.1634
 8974TIP3    H126886   4.006   6.104   1.275  0.0890 -1.6808  0.9865
 8974TIP3    H226887   4.139   6.034   1.291  1.1496 -0.2561 -1.1435
 8975TIP3   OH226888   2.667   3.187   5.504 -0.3690  0.3443  0.1816
 8975TIP3    H126889   2.578   3.218   5.517 -0.9570 -1.1047 -0.2074
 8975TIP3    H226890   2.708   3.254   5.450 -1.4595  0.6416 -0.2957
 8976TIP3   OH226891   5.925   0.583   1.778  0.1538 -0.0943  0.1807
 8976TIP3    H126892   5.957   0.573   1.688  0.9125  0.0657  0.4250
 8976TIP3    H226893   5.920   0.678   1.790  2.3769 -0.0345  1.0852
 8977TIP3   OH226894   1.167  -0.024   5.246 -0.7521  0.4778  0.0814
 8977TIP3    H126895   1.164   0.072   5.247  2.1704  0.6489 -0.3163
 8977TIP3    H226896   1.184  -0.046   5.154  4.1042 -0.0015  0.8659
 8978TIP3   OH226897   0.234   2.020   0.986 -0.5677 -0.6130 -0.0883
 8978TIP3    H126898   0.253   1.992   1.075 -1.1079 -2.2768 -0.4747
 8978TIP3    H226899   0.139   2.008   0.977 -1.0544  2.3455  0.0299
 8979TIP3   OH226900   5.229   6.483   4.144 -0.2671  0.0859  0.4079
 8979TIP3    H126901   5.265   6.563   4.107 -0.1524 -1.1857 -2.5477
 8979TIP3    H226902   5.295   6.452   4.205  0.0356  1.8120  0.9873
 8980TIP3   OH226903   5.495   3.010   0.175  0.1589 -0.4995  0.1148
 8980TIP3    H126904   5.560   3.079   0.167 -0.5409  0.1766  0.1410
 8980TIP3    H226905   5.543   2.929   0.156  1.2142 -0.1231  1.0983
 8981TIP3   OH226906   4.142   3.393   4.778 -0.1806  0.3822  0.0667
 8981TIP3    H126907   4.128   3.319   4.719  2.1253 -0.0766 -0.0032
 8981TIP3    H226908   4.095   3.368   4.858 -1.4168 -0.0374 -0.7544
 8982TIP3   OH226909   0.470   2.599   0.885  0.2888 -0.1068 -0.0770
 8982TIP3    H126910   0.416   2.610   0.963 -0.0184 -0.1796 -0.2775
 8982TIP3    H226911   0.560   2.598   0.918  0.1347 -0.8062  0.3479
 8983TIP3   OH226912   3.421   6.380   5.739  0.2976 -0.0221  0.2244
 8983TIP3    H126913   3.439   6.335   5.821  1.4535 -1.8451 -0.9493
 8983TIP3    H226914   3.466   6.464   5.747 -0.0459  0.0514  1.6306
 8984TIP3   OH226915   0.297   1.467   1.115  0.3870 -0.7390  0.2492
 8984TIP3    H126916   0.305   1.558   1.084  1.0839 -0.5149  1.0500
 8984TIP3    H226917   0.354   1.417   1.056 -0.1423 -0.6982 -0.3117
 8985TIP3   OH226918   5.099   2.274   3.953 -0.0908  0.2331  0.1710
 8985TIP3    H126919   5.027   2.309   3.902  0.9586  0.8276 -0.9655
 8985TIP3    H226920   5.091   2.179   3.944 -0.1371  0.3167 -0.8411
 8986TIP3   OH226921   0.171   0.578   5.020  0.6837  0.4076 -0.8931
 8986TIP3    H126922   0.227   0.508   4.987  0.8161  0.1214 -0.0770
 8986TIP3    H226923   0.093   0.532   5.052  0.1920  0.7576 -1.5691
 8987TIP3   OH226924   2.568   5.365   4.789 -0.2147 -0.1175 -0.4063
 8987TIP3    H126925   2.550   5.296   4.853  2.1020 -0.6933 -0.3135
 8987TIP3    H226926   2.623   5.427   4.836 -1.0014  1.0457 -0.9646
 8988TIP3   OH226927   4.007   4.507   0.796 -0.5127  0.4533  0.1597
 8988TIP3    H126928   3.975   4.529   0.883 -1.3541 -1.5824  0.4141
 8988TIP3    H226929   3.938   4.536   0.736 -0.3186  1.0579  0.2170
 8989TIP3   OH226930   5.835   5.498   1.800  0.0004 -0.0982  0.3488
 8989TIP3    H126931   5.806   5.569   1.743  0.4522 -1.4642 -1.7023
 8989TIP3    H226932   5.763   5.434   1.796 -0.8279  0.5460  2.9122
 8990TIP3   OH226933   0.028   4.054   5.686 -0.1310  0.4609  0.9489
 8990TIP3    H126934   0.090   4.101   5.629  1.0706  0.3580  2.1279
 8990TIP3    H226935   0.038   3.962   5.660 -0.6289  0.5539  0.3854
 8991TIP3   OH226936   1.918   0.400   1.951  0.1065  0.1210 -0.2406
 8991TIP3    H126937   1.849   0.382   1.886  0.1849 -1.3977  0.0686
 8991TIP3    H226938   1.874   0.449   2.020 -0.8158 -1.3082  0.2140
 8992TIP3   OH226939   5.373   1.916   3.687  0.5467 -0.2369  0.4367
 8992TIP3    H126940   5.416   1.874   3.612  0.4946  0.3853  0.0465
 8992TIP3    H226941   5.434   1.904   3.759  0.0593 -1.9088  0.6153
 8993TIP3   OH226942   1.017   1.222   3.595  0.5309  0.3338  0.5146
 8993TIP3    H126943   1.023   1.236   3.501  0.9256 -0.2571  0.4432
 8993TIP3    H226944   0.970   1.298   3.628  1.4415  1.1562 -0.0097
 8994TIP3   OH226945   1.633   1.213   4.493  0.5765  0.3700 -0.5633
 8994TIP3    H126946   1.567   1.243   4.431  2.2045  0.3105 -2.4361
 8994TIP3    H226947   1.583   1.176   4.565 -1.4215  1.8350 -1.1060
 8995TIP3   OH226948   4.866   2.535   0.004  0.2325  0.9063  0.2507
 8995TIP3    H126949   4.894   2.625  -0.009  2.3137  0.0382 -2.0798
 8995TIP3    H226950   4.925   2.501   0.071  1.2906  0.5602 -0.8303
 8996TIP3   OH226951   2.658   6.667   5.579  0.0092 -0.1072  0.1768
 8996TIP3    H126952   2.590   6.614   5.621  0.8182 -2.0009 -0.8054
 8996TIP3    H226953   2.631   6.672   5.487  0.6715  0.0091 -0.0121
 8997TIP3   OH226954   3.841   0.475   2.180 -0.3378 -0.5604 -0.8819
 8997TIP3    H126955   3.843   0.383   2.208 -3.7750 -1.6864 -3.5671
 8997TIP3    H226956   3.757   0.507   2.212  0.7156  1.6706 -0.1790
 8998TIP3   OH226957   4.879   1.810   5.872 -0.7258 -0.4548 -0.0829
 8998TIP3    H126958   4.911   1.886   5.823  1.1881 -0.4874  1.0387
 8998TIP3    H226959   4.797   1.787   5.827 -0.3546  1.0353 -1.6805
 8999TIP3   OH226960   5.642   0.607   4.891 -0.3693  0.9052 -0.0859
 8999TIP3    H126961   5.729   0.649   4.895 -0.1162  0.6288 -1.7525
 8999TIP3    H226962   5.657   0.518   4.921  0.3551  0.3010 -2.0983
 9000TIP3   OH226963   6.793   5.876   3.454  0.5845  0.2933  0.7409
 9000TIP3    H126964   6.753   5.952   3.497  1.6593  0.2207  1.9614
 9000TIP3    H226965   6.750   5.801   3.494  0.5244  0.2440  0.5822
 9001TIP3   OH226966   3.606   3.555   4.148  0.0199 -0.5116  0.1620
 9001TIP3    H126967   3.696   3.587   4.159 -0.1592  0.5215 -1.1122
 9001TIP3    H226968   3.615   3.479   4.090  0.0466 -0.1464 -0.3218
 9002TIP3   OH226969   6.331   4.478   0.417 -0.4600 -0.4413  0.3616
 9002TIP3    H126970   6.294   4.391   0.401 -2.1731 -0.3413  3.1439
 9002TIP3    H226971   6.337   4.484   0.512  0.6188  2.1254  0.2058
 9003TIP3   OH226972   6.240   3.857   1.168 -0.1755  0.0119 -0.2911
 9003TIP3    H126973   6.314   3.804   1.137 -0.6598 -1.7257  1.3552
 9003TIP3    H226974   6.194   3.800   1.229 -1.2822  2.0552  0.8703
 9004TIP3   OH226975   2.058   4.610   2.182 -0.5011  0.0977  0.1423
 9004TIP3    H126976   2.053   4.516   2.197 -0.6457 -0.1870 -1.5273
 9004TIP3    H226977   2.111   4.643   2.255 -0.2037 -1.3015  0.5909
 9005TIP3   OH226978   2.318   2.017   0.514 -0.0746 -0.0549 -0.1649
 9005TIP3    H126979   2.390   2.074   0.489 -1.0363  2.0398  1.5343
 9005TIP3    H226980   2.360   1.945   0.562  0.9147  1.2664  1.0161
 9006TIP3   OH226981   1.408   6.095   3.951 -0.3524  0.1541  0.5144
 9006TIP3    H126982   1.340   6.032   3.976  0.1933 -0.3305  0.8071
 9006TIP3    H226983   1.461   6.105   4.029  0.0358  0.3707  0.2248
 9007TIP3   OH226984   0.907   2.189   4.633  0.0411  0.0695  0.0263
 9007TIP3    H126985   0.941   2.220   4.717 -0.7699  1.4671 -0.1297
 9007TIP3    H226986   0.952   2.242   4.568  0.2207 -0.5922 -0.3976
 9008TIP3   OH226987   5.255   5.611   0.513 -0.3935 -0.3936  0.7298
 9008TIP3    H126988   5.288   5.692   0.474  0.6843  0.1260  2.5799
 9008TIP3    H226989   5.207   5.639   0.591 -1.7427 -1.4344  0.3103
 9009TIP3   OH226990   4.794   4.643   3.826 -0.3508  0.3446  0.2095
 9009TIP3    H126991   4.866   4.666   3.884  0.7251  0.3059 -1.0565
 9009TIP3    H226992   4.813   4.690   3.745 -0.8915 -0.9098 -0.6763
 9010TIP3   OH226993   4.920   0.615   2.308 -0.2563 -0.0898  0.3563
 9010TIP3    H126994   4.832   0.637   2.275  0.2987  0.5189 -0.7692
 9010TIP3    H226995   4.974   0.612   2.229  0.8544  0.0714  1.1011
 9011TIP3   OH226996   6.642   1.050   3.360  0.3722  0.5661 -0.0850
 9011TIP3    H126997   6.664   1.127   3.413 -1.1921  0.2934  1.0507
 9011TIP3    H226998   6.653   0.976   3.420  2.2702 -0.1862 -1.2792
 9012TIP3   OH226999   2.819   2.686   3.315 -0.2022 -0.4432 -0.2878
 9012TIP3    H127000   2.905   2.705   3.352 -0.2134 -2.3217  0.8479
 9012TIP3    H227001   2.827   2.595   3.283 -1.2672 -0.0745 -1.7263
 9013TIP3   OH227002   2.543   1.300   0.762 -0.3853  0.7042 -0.4950
 9013TIP3    H127003   2.630   1.282   0.797  0.1512 -0.8152 -2.3994
 9013TIP3    H227004   2.483   1.274   0.831  0.6113 -2.1646 -0.5777
 9014TIP3   OH227005   5.076   4.726   0.210 -0.3281 -0.6783 -0.0345
 9014TIP3    H127006   5.074   4.630   0.210  0.1618 -0.7176  1.4622
 9014TIP3    H227007   5.109   4.749   0.123  0.0234 -1.8898 -0.2515
 9015TIP3   OH227008   3.485   3.131   0.234  0.1686  0.3296  0.1073
 9015TIP3    H127009   3.428   3.060   0.262 -0.7156  0.4441 -1.3084
 9015TIP3    H227010   3.503   3.112   0.142  1.7670  0.7411  0.3059
 9016TIP3   OH227011   4.255   2.037   2.513  0.3642  0.3983  0.2516
 9016TIP3    H127012   4.219   2.122   2.489 -0.4297 -0.3196 -1.2770
 9016TIP3    H227013   4.309   2.011   2.438 -1.1079 -1.3424 -0.2956
 9017TIP3   OH227014   0.175   1.822   4.871 -0.0268  0.2570  0.2338
 9017TIP3    H127015   0.149   1.912   4.851 -1.6138  0.4873  2.8610
 9017TIP3    H227016   0.251   1.831   4.929  0.5093 -0.1596 -0.3885
 9018TIP3   OH227017   5.685   4.145   5.213  0.1807  0.1610 -0.0970
 9018TIP3    H127018   5.646   4.182   5.134 -0.3861 -0.6829 -0.2238
 9018TIP3    H227019   5.748   4.211   5.242 -0.3041  0.9088 -0.7057
 9019TIP3   OH227020   4.069   2.463   4.660 -0.5148  0.2988 -0.2996
 9019TIP3    H127021   4.056   2.429   4.748  0.6478  1.1235  0.2195
 9019TIP3    H227022   4.050   2.389   4.602 -0.0562 -0.6194  0.7027
 9020TIP3   OH227023   0.199  -0.027   4.907 -0.4098  0.1852 -0.7392
 9020TIP3    H127024   0.264   0.042   4.898  0.0225 -0.1998 -0.6308
 9020TIP3    H227025   0.154  -0.008   4.989 -1.0546  0.9655 -1.2671
 9021TIP3   OH227026   0.045   2.497   0.887 -0.0946  0.2073 -0.3491
 9021TIP3    H127027  -0.050   2.502   0.888 -0.1091 -0.0934  0.4397
 9021TIP3    H227028   0.069   2.461   0.973  0.6541 -1.1470 -1.0829
 9022TIP3   OH227029   2.099   4.614   5.163  0.2210 -0.4071  0.4678
 9022TIP3    H127030   2.057   4.641   5.244  1.3202  1.9650  0.3196
 9022TIP3    H227031   2.030   4.617   5.097 -0.0162  0.6236  0.7571
 9023TIP3   OH227032   2.962   0.223   5.413  0.0781  0.0988  0.5593
 9023TIP3    H127033   2.891   0.162   5.389  0.8251 -1.3629  1.8808
 9023TIP3    H227034   2.922   0.284   5.474 -0.4438  0.3460 -0.0170
 9024TIP3   OH227035   2.461   0.807   0.920  0.0351 -0.2034 -0.3783
 9024TIP3    H127036   2.403   0.850   0.983 -0.3807 -0.7655 -0.3621
 9024TIP3    H227037   2.548   0.810   0.961 -0.1663 -0.2413  0.0595
 9025TIP3   OH227038   6.445   0.915   2.077 -0.6351 -0.8348 -0.5837
 9025TIP3    H127039   6.472   0.824   2.075  1.5202 -0.3240  1.4487
 9025TIP3    H227040   6.370   0.917   2.137 -0.8802 -1.2761 -0.8708
 9026TIP3   OH227041   3.286   4.536   1.373  0.4040 -0.2639  0.2017
 9026TIP3    H127042   3.285   4.588   1.293  1.3384  0.4416  0.6210
 9026TIP3    H227043   3.373   4.495   1.374 -0.2178 -1.6322  0.0199
 9027TIP3   OH227044   5.032   2.801   2.721 -0.4916  0.0931 -0.2558
 9027TIP3    H127045   5.090   2.771   2.650 -1.0176 -0.1911 -0.5751
 9027TIP3    H227046   4.958   2.740   2.718  0.1256 -0.7845  1.4559
 9028TIP3   OH227047   1.877   1.650   3.698  0.0405 -0.4191  0.1457
 9028TIP3    H127048   1.958   1.673   3.744 -0.0547  0.5716 -0.1447
 9028TIP3    H227049   1.867   1.719   3.632  0.0395 -1.6680 -1.2027
 9029TIP3   OH227050   6.814   3.362   3.418  0.3712 -0.3983  0.0812
 9029TIP3    H127051   6.756   3.345   3.343  1.8398  1.8681 -1.7023
 9029TIP3    H227052   6.893   3.312   3.399 -0.1196 -1.7072  1.3734
 9030TIP3   OH227053   0.147   2.497   3.939  0.0819  0.0959 -0.2015
 9030TIP3    H127054   0.117   2.418   3.985 -0.4979 -0.2858 -1.2127
 9030TIP3    H227055   0.225   2.524   3.987 -0.1073 -0.6962  0.5773
 9031TIP3   OH227056   2.243   3.029   0.973 -0.4408  0.5117 -0.2601
 9031TIP3    H127057   2.254   3.100   0.909 -0.6714  0.3452 -0.4846
 9031TIP3    H227058   2.308   2.964   0.948  0.3991  1.0364  0.4973
 9032TIP3   OH227059   6.938   1.884   4.193  0.3220  0.1261  0.6231
 9032TIP3    H127060   7.021   1.836   4.192  0.8827  1.0497 -0.9947
 9032TIP3    H227061   6.874   1.823   4.156  0.8016  0.2070 -0.3849
 9033TIP3   OH227062   0.129   5.680   0.998 -0.7395 -0.5203 -0.7345
 9033TIP3    H127063   0.095   5.630   1.072  0.1350  0.8755  0.6674
 9033TIP3    H227064   0.060   5.745   0.979 -0.4571 -0.1067 -0.3531
 9034TIP3   OH227065   2.386   2.317   3.944  0.3998 -0.6517  0.3339
 9034TIP3    H127066   2.319   2.283   3.885 -0.5984  1.3460  0.2090
 9034TIP3    H227067   2.356   2.291   4.031 -1.2550  1.1646  0.3855
 9035TIP3   OH227068   5.059   3.892   1.347  0.1033 -0.4796 -0.4441
 9035TIP3    H127069   5.139   3.944   1.348 -0.3034  0.1483 -0.0775
 9035TIP3    H227070   5.075   3.823   1.411 -0.7690  1.3899  1.9327
 9036TIP3   OH227071   2.379   4.159   0.070 -0.4965  0.0019  0.2386
 9036TIP3    H127072   2.469   4.177   0.098 -0.2912  2.5534 -1.7237
 9036TIP3    H227073   2.386   4.143  -0.024 -2.1239  0.4486  0.0221
 9037TIP3   OH227074   6.374   2.961   4.267  0.5525  0.0563  0.2937
 9037TIP3    H127075   6.422   2.927   4.192 -1.5503  1.2775 -1.7183
 9037TIP3    H227076   6.433   3.024   4.307  2.1728 -1.4981  0.4505
 9038TIP3   OH227077   2.692   3.922   1.506 -0.3108  0.2400  0.4051
 9038TIP3    H127078   2.599   3.936   1.524 -0.4114  0.1259 -0.0134
 9038TIP3    H227079   2.723   4.007   1.475  0.4289  1.1612  3.3369
 9039TIP3   OH227080   1.859   2.211   0.858  0.2876  0.0014  0.5835
 9039TIP3    H127081   1.795   2.247   0.920 -0.9927 -0.6049 -0.3462
 9039TIP3    H227082   1.811   2.143   0.811  0.9131  1.0712 -1.7453
 9040TIP3   OH227083   5.836   2.739   2.136  0.5779 -0.4039 -0.3486
 9040TIP3    H127084   5.743   2.715   2.140  0.4692  0.1712  0.9857
 9040TIP3    H227085   5.838   2.832   2.157  1.5587 -0.6718  0.8236
 9041TIP3   OH227086   5.587   2.620   5.393  0.1605 -0.3649 -0.1598
 9041TIP3    H127087   5.557   2.706   5.422 -0.7240 -0.4315 -0.8596
 9041TIP3    H227088   5.578   2.621   5.298  1.6381 -0.6799 -0.3291
 9042TIP3   OH227089   4.126   3.722   3.512 -0.4794 -0.2755  0.1346
 9042TIP3    H127090   4.089   3.670   3.583  1.6482 -2.0078  0.0796
 9042TIP3    H227091   4.218   3.732   3.535  0.1291 -0.3271 -2.0400
 9043TIP3   OH227092   0.872   1.856   0.975 -0.0040  0.7548  0.6771
 9043TIP3    H127093   0.782   1.835   0.951  0.0015  1.6198 -0.1344
 9043TIP3    H227094   0.864   1.924   1.042  0.0438  1.0886  0.3484
 9044TIP3   OH227095   2.203   0.848   4.069  0.0613 -0.2194  0.3001
 9044TIP3    H127096   2.144   0.875   4.140  0.0819  0.3434  0.1040
 9044TIP3    H227097   2.287   0.834   4.113  0.8225  2.8081  0.0218
 9045TIP3   OH227098   0.539   4.468   3.842 -0.5676 -0.6072 -0.0755
 9045TIP3    H127099   0.504   4.379   3.844 -0.5636 -0.6986 -1.8184
 9045TIP3    H227100   0.474   4.521   3.889 -0.7552 -1.4672  0.6498
 9046TIP3   OH227101   5.086   2.417   1.642  0.1410  0.3067 -0.1730
 9046TIP3    H127102   5.058   2.428   1.551 -0.4998 -0.2359 -0.0438
 9046TIP3    H227103   5.007   2.431   1.694  0.0075 -1.5658  0.1811
 9047TIP3   OH227104   2.327   5.392   4.065  0.1791 -0.1338 -0.3167
 9047TIP3    H127105   2.289   5.432   4.143 -0.0260  0.4701 -0.7258
 9047TIP3    H227106   2.355   5.465   4.011  0.4126 -0.5500 -0.7688
 9048TIP3   OH227107   5.874   5.062   5.317 -0.2415 -0.1326 -0.2925
 9048TIP3    H127108   5.835   4.975   5.319  0.4671 -0.5700 -2.9517
 9048TIP3    H227109   5.803   5.119   5.287 -0.4260  0.0710  0.5026
 9049TIP3   OH227110   4.306   5.817   2.526 -0.3946  0.2247  0.1599
 9049TIP3    H127111   4.215   5.841   2.538 -1.0770 -1.7987 -0.5114
 9049TIP3    H227112   4.323   5.751   2.594  0.5337  0.4941  0.2054
 9050TIP3   OH227113   3.535   5.581   1.655 -0.2686  0.2729 -0.5238
 9050TIP3    H127114   3.481   5.654   1.684 -1.0930 -0.9707  1.2268
 9050TIP3    H227115   3.625   5.614   1.662 -0.6093  1.0405  0.5375
 9051TIP3   OH227116   4.372   0.677   5.445  0.3602  0.2550 -0.5479
 9051TIP3    H127117   4.294   0.724   5.415  0.9913  1.5806 -0.1489
 9051TIP3    H227118   4.374   0.692   5.540  0.0982 -1.3344 -0.2445
 9052TIP3   OH227119   7.165   1.883   0.405 -0.2353  0.1285  0.1538
 9052TIP3    H127120   7.196   1.827   0.476  1.4382 -0.3137 -0.8707
 9052TIP3    H227121   7.078   1.849   0.384 -0.8610  0.4028  2.0878
 9053TIP3   OH227122   0.582   5.870   5.024  0.7401 -0.2092 -0.1280
 9053TIP3    H127123   0.555   5.783   4.995  1.1589 -0.2526 -0.3966
 9053TIP3    H227124   0.673   5.878   4.995  0.8026  0.1948  0.1725
 9054TIP3   OH227125   1.909   5.172   0.745 -0.0823 -0.3685  0.1563
 9054TIP3    H127126   2.002   5.161   0.725 -0.1806  0.3805 -0.8283
 9054TIP3    H227127   1.906   5.185   0.839  0.7599 -0.8300  0.2629
 9055TIP3   OH227128   7.064   0.598   4.019 -0.0501 -0.1784 -0.0171
 9055TIP3    H127129   7.062   0.528   3.955 -1.2534  0.6732 -0.9738
 9055TIP3    H227130   7.147   0.643   4.003 -0.1709 -0.1979 -0.7418
 9056TIP3   OH227131   5.036   2.902   1.969 -0.2655 -0.0769  0.4301
 9056TIP3    H127132   5.031   2.839   1.897  0.2684  0.1679  0.1732
 9056TIP3    H227133   4.947   2.906   2.004  0.0939 -2.7184  1.9580
 9057TIP3   OH227134   2.847   5.199   3.847  0.9077 -0.7600  0.3666
 9057TIP3    H127135   2.849   5.136   3.920 -0.5391 -0.7645  0.4463
 9057TIP3    H227136   2.755   5.198   3.819  0.8667  1.2749  0.3273
 9058TIP3   OH227137   6.500   1.116   4.221  0.3729 -0.0315 -0.8850
 9058TIP3    H127138   6.535   1.064   4.294  1.8941 -0.1870 -1.6835
 9058TIP3    H227139   6.461   1.051   4.162 -0.7744  0.0851 -0.2665
 9059TIP3   OH227140   5.622   1.261   2.431 -0.1917  0.0677 -1.1977
 9059TIP3    H127141   5.656   1.211   2.505 -2.7346 -0.6989 -0.4724
 9059TIP3    H227142   5.612   1.350   2.465 -1.3356 -0.2787 -0.5917
 9060TIP3   OH227143   6.873   5.201   0.111  0.6114 -0.0211 -0.1590
 9060TIP3    H127144   6.956   5.237   0.141  0.4396 -0.0348  0.3545
 9060TIP3    H227145   6.847   5.141   0.181 -0.5502  1.0925  0.4115
 9061TIP3   OH227146   5.249   5.977   0.322  0.1113  0.0989  0.4563
 9061TIP3    H127147   5.219   6.008   0.407  0.1064 -1.5439  1.0989
 9061TIP3    H227148   5.315   5.911   0.343 -2.0456 -2.6017 -0.6383
 9062TIP3   OH227149   2.509   6.336   1.940  0.1013 -0.0905 -0.5842
 9062TIP3    H127150   2.431   6.307   1.987 -0.6711 -0.1340 -1.8503
 9062TIP3    H227151   2.548   6.403   1.997 -0.1594 -0.9276  0.6238
 9063TIP3   OH227152   6.111   5.781   5.389  0.4852 -0.3022 -0.4527
 9063TIP3    H127153   6.066   5.761   5.471 -0.7854  0.3114 -0.9667
 9063TIP3    H227154   6.051   5.840   5.343  1.4946 -0.0685 -1.5121
 9064TIP3   OH227155   3.426   5.478   2.272 -0.0208  0.2800 -0.1647
 9064TIP3    H127156   3.465   5.412   2.215 -0.7725 -1.8291  1.6485
 9064TIP3    H227157   3.484   5.554   2.262  2.8514 -1.6903  0.1443
 9065TIP3   OH227158   3.600   4.515   3.197 -0.1785 -0.0247 -0.1525
 9065TIP3    H127159   3.520   4.534   3.246 -0.3067  0.7331 -0.6520
 9065TIP3    H227160   3.669   4.515   3.263 -0.4338  0.3851  0.1154
 9066TIP3   OH227161   4.721   1.009   4.162  0.4154 -0.6996  0.0423
 9066TIP3    H127162   4.799   0.967   4.128  0.5049 -1.8537  1.5772
 9066TIP3    H227163   4.744   1.035   4.252  0.6367  3.3852 -0.9819
 9067TIP3   OH227164   1.508   1.771   4.216  0.4622 -0.0060  0.1790
 9067TIP3    H127165   1.439   1.829   4.249  0.0242 -0.1948 -0.3972
 9067TIP3    H227166   1.551   1.739   4.295 -0.3970 -0.2385  0.5723
 9068TIP3   OH227167   3.174   1.048   0.905 -0.0087 -0.1306 -0.0818
 9068TIP3    H127168   3.204   1.000   0.828 -1.7558 -0.6039 -0.5068
 9068TIP3    H227169   3.172   0.982   0.975 -0.4492 -0.1966 -0.1566
 9069TIP3   OH227170   5.903   1.190   1.670  0.1277 -0.0381 -0.2030
 9069TIP3    H127171   5.946   1.145   1.743 -0.3272  0.8067  0.5983
 9069TIP3    H227172   5.837   1.245   1.711  1.8659  2.8381 -0.9280
 9070TIP3   OH227173   5.267   5.139   3.618  0.2366 -0.6525  0.0507
 9070TIP3    H127174   5.248   5.232   3.610 -1.7158 -0.7952  2.1645
 9070TIP3    H227175   5.252   5.104   3.530 -1.7109  0.5936 -0.1668
 9071TIP3   OH227176   2.948   4.695   2.997  0.7180  0.4730 -0.0660
 9071TIP3    H127177   2.987   4.645   3.069  1.5712 -0.5008 -1.1417
 9071TIP3    H227178   3.003   4.773   2.990 -0.0316  1.1249  1.0058
 9072TIP3   OH227179   4.020   2.230   2.641 -0.1783  0.6544  0.1745
 9072TIP3    H127180   4.056   2.285   2.571 -0.1438  1.7371  1.0175
 9072TIP3    H227181   4.097   2.190   2.681 -0.2720 -0.9869 -1.1859
 9073TIP3   OH227182   4.446   6.314   3.522  0.4569  0.1009 -0.2707
 9073TIP3    H127183   4.464   6.406   3.502 -0.4711  0.2543 -0.4161
 9073TIP3    H227184   4.368   6.316   3.578 -1.8082 -0.7751 -3.1650
 9074TIP3   OH227185   2.425   0.562   1.421 -0.2507 -0.0330 -0.5113
 9074TIP3    H127186   2.352   0.588   1.364 -0.8769  2.4262  1.2466
 9074TIP3    H227187   2.390   0.572   1.510  1.8363  0.0069  0.3443
 9075TIP3   OH227188   2.257   3.584   4.693 -0.0985  0.3061 -0.1524
 9075TIP3    H127189   2.299   3.563   4.776 -0.1318 -0.1350 -0.2416
 9075TIP3    H227190   2.169   3.613   4.717 -0.6095 -1.1910 -0.1007
 9076TIP3   OH227191   5.820   0.857   1.726 -0.3206  0.0356  0.0336
 9076TIP3    H127192   5.772   0.824   1.802  0.0270 -1.8129 -0.4929
 9076TIP3    H227193   5.756   0.909   1.677 -1.2542 -0.8180  0.3243
 9077TIP3   OH227194   3.727   0.236   5.263  0.4558  0.1968  0.3056
 9077TIP3    H127195   3.751   0.152   5.303  2.2665  1.1198  1.3004
 9077TIP3    H227196   3.811   0.280   5.248 -0.4774  2.2403  0.7754
 9078TIP3   OH227197   7.189   0.635   2.257 -0.1979 -0.0890 -0.2535
 9078TIP3    H127198   7.106   0.610   2.297 -0.1432  0.0878 -0.0263
 9078TIP3    H227199   7.255   0.611   2.322 -0.0998  0.0934 -0.2844
 9079TIP3   OH227200   5.640   6.583   2.753 -0.3617 -0.0218 -0.3922
 9079TIP3    H127201   5.692   6.660   2.728 -0.4663 -0.5868 -2.5197
 9079TIP3    H227202   5.678   6.511   2.702 -1.2235 -1.0828  0.4286
 9080TIP3   OH227203   3.259   1.026   2.015  0.4776 -0.2882  0.2629
 9080TIP3    H127204   3.282   0.944   2.059  0.7417  0.4200  1.5050
 9080TIP3    H227205   3.322   1.089   2.049  0.7715  0.2768 -1.2634
 9081TIP3   OH227206   6.067   5.020   1.506  0.7717 -0.4860 -0.4309
 9081TIP3    H127207   6.133   4.950   1.509 -1.7827 -3.1345 -1.4594
 9081TIP3    H227208   6.035   5.026   1.596  0.1023 -1.6241 -0.5773
 9082TIP3   OH227209   5.919   2.578   5.167  0.3521 -0.0323  0.4987
 9082TIP3    H127210   5.879   2.651   5.119  1.1333  0.6667  0.8894
 9082TIP3    H227211   5.846   2.519   5.186 -0.2459  0.5155 -0.0538
 9083TIP3   OH227212   4.866   3.344   0.180  0.0116 -0.0279  0.1929
 9083TIP3    H127213   4.893   3.426   0.222 -0.4605 -0.0313  0.5092
 9083TIP3    H227214   4.826   3.372   0.098  1.7649 -0.0734 -0.7143
 9084TIP3   OH227215   2.856   2.184   4.246  0.3637 -0.5240 -0.0183
 9084TIP3    H127216   2.800   2.223   4.313 -0.8413 -0.1705 -1.1846
 9084TIP3    H227217   2.930   2.245   4.239  0.5756 -0.6292  1.0480
 9085TIP3   OH227218   5.474   5.439   3.071 -0.0682  0.1976  0.7963
 9085TIP3    H127219   5.465   5.352   3.112 -0.7464 -1.0287 -1.7639
 9085TIP3    H227220   5.500   5.420   2.981 -0.8181  2.6582  0.0049
 9086TIP3   OH227221   5.477   2.090   1.482  0.2010  0.1025 -0.3540
 9086TIP3    H127222   5.521   2.062   1.563 -1.5203 -1.1521  0.1965
 9086TIP3    H227223   5.388   2.111   1.510 -0.0873  0.8179 -1.7494
 9087TIP3   OH227224   4.507   2.359   2.524 -0.0627  0.0053 -0.1041
 9087TIP3    H127225   4.576   2.338   2.460 -0.8769 -2.1735 -0.3617
 9087TIP3    H227226   4.551   2.352   2.609 -0.0193 -1.8219 -0.2399
 9088TIP3   OH227227   5.678   5.969   0.204  0.7658 -0.0957  0.8126
 9088TIP3    H127228   5.601   5.957   0.150  1.1203 -0.8235  0.4528
 9088TIP3    H227229   5.749   5.926   0.156  1.5320  1.1060  0.8269
 9089TIP3   OH227230   7.128   5.979   5.088  0.1894  0.4555 -0.1359
 9089TIP3    H127231   7.182   6.053   5.116  2.2117  0.1600 -2.8771
 9089TIP3    H227232   7.057   6.019   5.037 -0.6388  0.6449  1.1065
 9090TIP3   OH227233   0.505   5.266   4.833 -0.2928  0.1283 -0.4248
 9090TIP3    H127234   0.563   5.280   4.758  0.4218 -0.4100  0.0154
 9090TIP3    H227235   0.550   5.309   4.906 -0.6254  0.0204 -0.1566
 9091TIP3   OH227236   6.087   1.444   0.195  0.1298 -0.2518  0.1481
 9091TIP3    H127237   6.039   1.361   0.191  0.1871 -0.2386 -1.1433
 9091TIP3    H227238   6.170   1.426   0.152 -0.4375  0.8275 -1.5134
 9092TIP3   OH227239   1.051   1.522   0.675 -0.0531 -0.0307 -0.3975
 9092TIP3    H127240   0.965   1.564   0.675  1.2813  3.0804  2.0050
 9092TIP3    H227241   1.110   1.589   0.640  1.5341 -1.8586 -1.3653
 9093TIP3   OH227242   3.136   2.080   1.517  0.0385  0.2706  0.4176
 9093TIP3    H127243   3.059   2.090   1.462  1.0072  0.9225 -0.8603
 9093TIP3    H227244   3.112   2.011   1.579  0.2815 -3.4655 -3.2919
 9094TIP3   OH227245   6.616   3.308   2.486  0.4050 -0.3078  0.0791
 9094TIP3    H127246   6.619   3.237   2.422  1.4599 -0.7784  0.6223
 9094TIP3    H227247   6.631   3.265   2.571 -1.4708  0.2262  0.7347
 9095TIP3   OH227248   5.098   5.516   3.243 -0.0499  0.0762  0.4698
 9095TIP3    H127249   5.177   5.545   3.198  0.7636  0.2274  1.9237
 9095TIP3    H227250   5.062   5.595   3.282 -0.4658 -0.1222  0.4951
 9096TIP3   OH227251   2.132   2.429   5.788 -0.2227  0.0003 -0.2341
 9096TIP3    H127252   2.177   2.346   5.799  1.7575  1.1450  0.9017
 9096TIP3    H227253   2.093   2.448   5.874 -0.2351  0.4853 -0.3410
 9097TIP3   OH227254   2.695   0.443   5.831 -0.8821 -0.1847 -0.4645
 9097TIP3    H127255   2.688   0.538   5.841  0.8658 -0.1169  0.4579
 9097TIP3    H227256   2.703   0.410   5.920 -2.3618 -1.3119 -0.7175
 9098TIP3   OH227257   2.212   4.784   2.334 -0.4949  0.0899 -0.0278
 9098TIP3    H127258   2.260   4.828   2.263 -0.5228 -0.2776 -0.2800
 9098TIP3    H227259   2.142   4.846   2.356  0.2358  0.7390  0.5175
 9099TIP3   OH227260   5.672   6.110   4.633  0.3827 -0.3237 -0.0508
 9099TIP3    H127261   5.658   6.101   4.727  1.9291  1.1741  0.3800
 9099TIP3    H227262   5.643   6.199   4.613 -0.4734 -0.8272 -1.1134
 9100TIP3   OH227263   0.463   0.520   3.716  0.7649 -0.8140  1.0070
 9100TIP3    H127264   0.490   0.577   3.644 -0.7741 -1.4961 -0.1645
 9100TIP3    H227265   0.522   0.445   3.710  0.9505 -0.6530  0.7818
 9101TIP3   OH227266   2.171   1.283   1.181 -0.6725  0.5491 -0.1105
 9101TIP3    H127267   2.158   1.211   1.243  1.6554  1.0413  1.0395
 9101TIP3    H227268   2.173   1.240   1.095 -2.3776 -0.3372  0.2623
 9102TIP3   OH227269   4.262   1.045   1.976 -0.1940  0.3589  0.2979
 9102TIP3    H127270   4.174   1.057   1.940 -0.5867 -1.1451  0.6941
 9102TIP3    H227271   4.249   0.996   2.057  1.1474 -2.7487 -1.1692
 9103TIP3   OH227272   4.975   3.112   0.019 -0.5478  0.2917  0.2719
 9103TIP3    H127273   4.901   3.055   0.038  1.1329 -1.8816  0.6719
 9103TIP3    H227274   4.955   3.193   0.066 -2.9270  0.0366 -0.1577
 9104TIP3   OH227275   4.320   2.159   3.354 -0.1623 -0.4994 -0.0757
 9104TIP3    H127276   4.349   2.090   3.414 -0.0306 -0.6770 -0.3379
 9104TIP3    H227277   4.336   2.123   3.267 -0.2340 -0.1957 -0.2174
 9105TIP3   OH227278   0.821   2.982   0.116  0.0960 -0.2933  0.0513
 9105TIP3    H127279   0.812   3.045   0.044  0.5012 -1.4602 -1.0474
 9105TIP3    H227280   0.732   2.960   0.140 -0.0541  0.8092  0.5552
 9106TIP3   OH227281   3.828   2.609   4.882 -0.0055  0.2428  0.3264
 9106TIP3    H127282   3.839   2.703   4.864 -0.5395 -0.1173 -2.3821
 9106TIP3    H227283   3.906   2.585   4.931  0.0293  2.1316  1.3001
 9107TIP3   OH227284   3.222   2.035   0.608  0.8744  0.2170 -0.3019
 9107TIP3    H127285   3.173   2.110   0.639 -0.8085 -0.3333 -1.4771
 9107TIP3    H227286   3.223   2.045   0.512 -0.0612 -1.6039 -0.5432
 9108TIP3   OH227287   2.501   6.759   2.561 -0.2129 -0.6160 -0.0718
 9108TIP3    H127288   2.550   6.694   2.613  2.1402  1.8045  0.9967
 9108TIP3    H227289   2.548   6.762   2.478  1.7098  1.7034  0.9508
 9109TIP3   OH227290   7.062   2.861   2.263 -0.5982 -0.3079 -0.1894
 9109TIP3    H127291   7.054   2.886   2.171  0.1125 -0.8585 -0.4140
 9109TIP3    H227292   6.989   2.801   2.278 -0.6629 -0.2922 -0.4330
 9110TIP3   OH227293   2.415   5.629   4.882 -0.4006 -0.2575  0.2776
 9110TIP3    H127294   2.450   5.685   4.813 -2.9709 -0.2645 -1.1552
 9110TIP3    H227295   2.425   5.540   4.848 -2.2667 -0.2241 -0.4431
 9111TIP3   OH227296   2.061   6.109   2.845  0.0392 -1.0832 -0.1203
 9111TIP3    H127297   2.013   6.121   2.927  1.9595  0.1498  0.9229
 9111TIP3    H227298   2.115   6.031   2.859  2.8168  0.8766  1.2291
 9112TIP3   OH227299   6.827   5.186   2.665  0.7441 -0.5321 -0.5174
 9112TIP3    H127300   6.765   5.113   2.669  0.5970 -0.3988 -0.3382
 9112TIP3    H227301   6.835   5.206   2.571  1.4909 -1.3716 -0.6397
 9113TIP3   OH227302   3.774   0.967   4.787 -0.1471 -0.0379  0.3805
 9113TIP3    H127303   3.702   0.937   4.732  0.6426  1.1895 -1.4172
 9113TIP3    H227304   3.732   1.014   4.858 -1.1756  1.8392 -1.3576
 9114TIP3   OH227305   3.524   2.788   3.996  0.6053 -0.4901  0.4506
 9114TIP3    H127306   3.548   2.864   4.049  1.6219 -0.9560  0.6625
 9114TIP3    H227307   3.565   2.804   3.911  0.3883 -0.5645  0.3291
 9115TIP3   OH227308   3.075   1.221   2.696 -0.1405  0.3853  0.3089
 9115TIP3    H127309   3.153   1.178   2.661 -0.9663 -0.4703 -0.5759
 9115TIP3    H227310   3.013   1.219   2.623 -1.0506  0.8581  1.0536
 9116TIP3   OH227311   0.488   1.143   4.849  0.7587  0.2355 -0.6897
 9116TIP3    H127312   0.436   1.071   4.884  1.4262 -0.0993 -0.3555
 9116TIP3    H227313   0.465   1.218   4.903  0.0129  0.3000 -1.0788
 9117TIP3   OH227314   3.429   0.021   3.785 -0.1293  0.1648  0.0164
 9117TIP3    H127315   3.364  -0.039   3.750 -1.2576  1.5877 -0.4679
 9117TIP3    H227316   3.377   0.095   3.818  1.2740  1.8059 -1.2752
 9118TIP3   OH227317   4.579   5.041   5.598 -0.2276  0.3720  0.4791
 9118TIP3    H127318   4.566   5.017   5.506 -2.4972  1.3323  0.4829
 9118TIP3    H227319   4.553   4.963   5.647 -1.0188  0.5360  0.3351
 9119TIP3   OH227320   3.712   2.692   1.003  0.5189 -0.4104 -0.3916
 9119TIP3    H127321   3.626   2.698   1.044  0.2783 -0.7117 -0.8385
 9119TIP3    H227322   3.762   2.634   1.060  0.5230 -0.0073  0.0226
 9120TIP3   OH227323   6.038   4.600   0.944 -0.3132  0.0716 -0.6208
 9120TIP3    H127324   6.064   4.692   0.942  2.2897 -0.3967  2.3509
 9120TIP3    H227325   5.965   4.597   1.007  0.4905  0.0037  0.3350
 9121TIP3   OH227326   3.910   1.605   0.571  0.2982  0.0747 -0.3984
 9121TIP3    H127327   3.900   1.579   0.663 -3.0393 -0.6262 -0.8450
 9121TIP3    H227328   3.902   1.701   0.573  0.3073  0.0700  0.0380
 9122TIP3   OH227329   2.032   5.580   2.711 -0.1197  0.0230 -0.2505
 9122TIP3    H127330   1.940   5.574   2.688  0.2498 -4.1646 -1.5525
 9122TIP3    H227331   2.073   5.623   2.636 -0.6052 -1.6000 -1.5000
 9123TIP3   OH227332   3.364   0.161   4.017 -0.0786 -0.3445 -0.2010
 9123TIP3    H127333   3.377   0.161   4.112  1.4278  1.3458 -0.3795
 9123TIP3    H227334   3.331   0.249   3.997 -0.6925 -0.7880 -1.2353
 9124TIP3   OH227335   3.673   4.007   1.542 -0.4516  0.6067 -0.0377
 9124TIP3    H127336   3.584   4.034   1.520 -0.2672  0.7178 -0.6531
 9124TIP3    H227337   3.727   4.042   1.472  0.2345  1.4907  0.8967
 9125TIP3   OH227338   1.752   2.279   4.264 -0.0823  0.3322 -0.2907
 9125TIP3    H127339   1.660   2.255   4.273 -0.3920  1.7580  0.8772
 9125TIP3    H227340   1.799   2.212   4.314 -0.6495  0.5145  0.5175
 9126TIP3   OH227341   2.141   5.009   4.255  0.5465 -0.0175  0.6021
 9126TIP3    H127342   2.138   5.012   4.159  1.5097 -0.0160  0.5633
 9126TIP3    H227343   2.080   5.077   4.283 -0.8841 -1.0011  0.0195
 9127TIP3   OH227344   4.492   2.581   5.188  0.1919 -0.2240 -0.2589
 9127TIP3    H127345   4.570   2.589   5.242  0.6496 -1.7517 -0.6501
 9127TIP3    H227346   4.435   2.521   5.236 -1.0137  1.3053  0.2958
 9128TIP3   OH227347   5.596   1.813   4.422 -0.1429 -0.1568 -0.1902
 9128TIP3    H127348   5.600   1.760   4.342 -0.6149  0.6400 -0.7518
 9128TIP3    H227349   5.554   1.755   4.486 -0.9862 -0.3530 -0.8966
 9129TIP3   OH227350   6.615   4.730   2.625  0.6311  0.0355  0.3461
 9129TIP3    H127351   6.553   4.657   2.616 -1.4268  1.8276 -1.0674
 9129TIP3    H227352   6.616   4.773   2.540  1.3787  1.9450  1.2369
 9130TIP3   OH227353   5.994   1.143   2.951 -0.3496 -0.5678 -0.1134
 9130TIP3    H127354   5.949   1.137   2.866 -2.2734  1.0938  0.6880
 9130TIP3    H227355   6.086   1.152   2.929 -0.8866  0.7479 -2.1076
 9131TIP3   OH227356   6.875   0.368   5.027 -0.3196 -0.3908 -0.2191
 9131TIP3    H127357   6.952   0.422   5.011 -1.2206  0.4481 -1.9982
 9131TIP3    H227358   6.908   0.279   5.031  0.4857 -0.4942 -4.5129
 9132TIP3   OH227359   0.172   3.400   2.539  0.0071  0.0376 -0.9409
 9132TIP3    H127360   0.135   3.416   2.452 -1.3621  0.8401 -0.2488
 9132TIP3    H227361   0.182   3.487   2.577 -1.2633 -0.3698  0.4215
 9133TIP3   OH227362   0.050   6.170   5.217 -0.3539  0.0560  0.0926
 9133TIP3    H127363   0.143   6.186   5.201  0.0396 -1.2150  0.9388
 9133TIP3    H227364   0.018   6.251   5.257  0.3912  0.5053 -0.2019
 9134TIP3   OH227365   1.370   4.346   4.455 -0.0271 -0.1227  0.1584
 9134TIP3    H127366   1.427   4.423   4.454 -2.0696  1.4849  0.3373
 9134TIP3    H227367   1.314   4.360   4.532 -1.4560 -0.9927 -0.6911
 9135TIP3   OH227368   3.252   0.951   5.588 -0.0822 -0.2401 -0.0094
 9135TIP3    H127369   3.231   0.966   5.680 -1.1393 -1.5926 -0.0002
 9135TIP3    H227370   3.344   0.926   5.588  0.0970  0.3813  0.5886
 9136TIP3   OH227371   3.776   0.624   0.899  0.0562 -0.1086  0.0632
 9136TIP3    H127372   3.696   0.623   0.847 -0.3809 -1.2217  0.7266
 9136TIP3    H227373   3.746   0.629   0.990  0.7314 -0.4378  0.3171
 9137TIP3   OH227374   6.510   1.542   4.563  0.1422  0.2564  0.3206
 9137TIP3    H127375   6.540   1.478   4.499  1.7462  2.1847 -0.9615
 9137TIP3    H227376   6.587   1.560   4.617 -0.2631  1.1665  0.6213
 9138TIP3   OH227377   3.513   5.124   0.752  0.2904  0.2707 -0.1052
 9138TIP3    H127378   3.440   5.182   0.775 -0.2541 -0.9328  1.3884
 9138TIP3    H227379   3.492   5.040   0.793  2.7618  0.0294  0.8919
 9139TIP3   OH227380   0.147   2.868   5.242 -0.2187  0.5668  0.9463
 9139TIP3    H127381   0.056   2.879   5.212 -0.4700  1.5516  2.0278
 9139TIP3    H227382   0.199   2.882   5.163 -1.0214 -0.8790  0.1128
 9140TIP3   OH227383   5.189   0.887   0.333  0.4094 -0.0782  0.0206
 9140TIP3    H127384   5.104   0.917   0.300  0.8513 -1.2010 -2.3429
 9140TIP3    H227385   5.253   0.922   0.272  1.5269 -0.4842  0.9084
 9141TIP3   OH227386   4.694   5.376   3.977  0.4040 -0.1989  0.1353
 9141TIP3    H127387   4.706   5.300   4.034  0.3968  0.7984  1.5075
 9141TIP3    H227388   4.600   5.382   3.964  0.4877 -1.2715 -1.2096
 9142TIP3   OH227389   6.125   4.651   1.714  0.3313 -0.8994  0.5979
 9142TIP3    H127390   6.118   4.560   1.687 -2.4645 -0.0236 -2.2732
 9142TIP3    H227391   6.128   4.700   1.632 -1.7192  1.7321  1.9412
 9143TIP3   OH227392   3.971   1.167   4.797  0.3536 -0.1348 -0.1991
 9143TIP3    H127393   3.891   1.118   4.778  1.8252 -1.4396 -3.7613
 9143TIP3    H227394   3.957   1.252   4.755  1.3136 -0.9019 -2.1898
 9144TIP3   OH227395   0.483   5.143   3.315  0.3899 -0.2859  0.6000
 9144TIP3    H127396   0.480   5.073   3.380  0.6315 -0.2469  0.6541
 9144TIP3    H227397   0.488   5.098   3.231  1.1642 -0.3354  0.6659
 9145TIP3   OH227398   2.835   0.199   4.476  0.3905  0.0101  0.4511
 9145TIP3    H127399   2.818   0.139   4.403 -0.7702  0.0248  0.6824
 9145TIP3    H227400   2.928   0.219   4.470 -0.0865  2.1270 -2.6931
 9146TIP3   OH227401   2.870   4.915   4.581  0.4528 -0.5099  0.2048
 9146TIP3    H127402   2.775   4.914   4.574  0.4945 -0.6645 -0.4589
 9146TIP3    H227403   2.897   4.829   4.550  0.8624 -0.1012 -0.6040
 9147TIP3   OH227404   1.443   0.735   2.076  0.0451 -0.1918  0.0032
 9147TIP3    H127405   1.401   0.820   2.078  2.3625  1.0588 -0.5693
 9147TIP3    H227406   1.378   0.677   2.036 -0.7436  1.8529 -1.9121
 9148TIP3   OH227407   0.289   2.048   5.436 -0.0707  0.5207 -0.4696
 9148TIP3    H127408   0.341   1.991   5.492  0.1132 -0.5504 -1.6907
 9148TIP3    H227409   0.198   2.028   5.459 -0.0156 -0.4638 -1.0352
 9149TIP3   OH227410   3.696   1.480   0.978 -0.2726  0.1292  0.1706
 9149TIP3    H127411   3.633   1.461   1.048  0.8128  0.3852  1.2536
 9149TIP3    H227412   3.717   1.573   0.988 -1.0704  0.5067 -1.3392
 9150TIP3   OH227413   1.303   3.073   0.587  0.4022 -0.4868 -0.0843
 9150TIP3    H127414   1.298   2.996   0.644  0.5848 -0.8781 -0.5979
 9150TIP3    H227415   1.241   3.135   0.627  0.7816 -0.6189  0.7386
 9151TIP3   OH227416   0.432   4.009   4.605  0.5257 -0.2124 -0.0882
 9151TIP3    H127417   0.354   4.064   4.612  1.5255  1.4011 -0.7634
 9151TIP3    H227418   0.490   4.041   4.674  1.8989  1.0160 -1.6939
 9152TIP3   OH227419   2.738   6.211   4.283  0.1706 -0.1394  0.1641
 9152TIP3    H127420   2.661   6.185   4.233 -0.3738 -1.7701  1.7584
 9152TIP3    H227421   2.722   6.303   4.306 -0.4886  0.0316 -0.9121
 9153TIP3   OH227422   1.660   2.982   0.373 -0.0845  0.2224 -0.0799
 9153TIP3    H127423   1.653   3.037   0.451 -0.1752 -0.6708  0.5565
 9153TIP3    H227424   1.599   2.909   0.388 -0.7233  0.4510 -1.3516
 9154TIP3   OH227425   1.532   3.091   1.738  0.0285 -0.9598  0.0179
 9154TIP3    H127426   1.591   3.147   1.789  0.1705 -0.7147 -0.4108
 9154TIP3    H227427   1.577   3.078   1.655 -1.1981  0.4955 -0.9176
 9155TIP3   OH227428   0.898   4.727   5.011  0.4575 -0.4583 -0.1963
 9155TIP3    H127429   0.882   4.650   5.066  2.5603 -0.5596  0.3523
 9155TIP3    H227430   0.823   4.784   5.028  0.0778 -1.3402  1.2794
 9156TIP3   OH227431   2.893   6.399   3.257 -0.0539  0.1634 -0.2428
 9156TIP3    H127432   2.982   6.393   3.221 -0.5107 -2.3319 -1.1990
 9156TIP3    H227433   2.837   6.398   3.179 -0.9538 -1.1767  0.3875
 9157TIP3   OH227434   2.725   6.671   0.690 -0.2593 -0.5902 -0.4831
 9157TIP3    H127435   2.730   6.610   0.765  1.6431 -0.4480 -0.4521
 9157TIP3    H227436   2.800   6.648   0.636 -1.3630 -0.3930 -2.1628
 9158TIP3   OH227437   4.276   6.667   4.389 -0.0697  0.6355  0.4345
 9158TIP3    H127438   4.267   6.691   4.481 -1.2185 -0.0550  0.5256
 9158TIP3    H227439   4.285   6.571   4.390  0.1519  0.6416 -0.1581
 9159TIP3   OH227440   5.747   1.008   3.259 -0.1178  0.0136  0.7010
 9159TIP3    H127441   5.768   1.028   3.350 -0.6105  1.5202  0.5141
 9159TIP3    H227442   5.832   1.001   3.215  0.2071 -2.4038  1.5412
 9160TIP3   OH227443   3.861   6.504   3.470 -0.4169  0.6375  0.3934
 9160TIP3    H127444   3.872   6.510   3.565 -0.1767  0.8310  0.3538
 9160TIP3    H227445   3.768   6.525   3.455 -0.3929  0.8601  0.5611
 9161TIP3   OH227446   5.438   6.374   3.847 -0.0915  0.4688  0.1597
 9161TIP3    H127447   5.415   6.449   3.901  0.2371  1.7853 -1.4566
 9161TIP3    H227448   5.528   6.392   3.817  0.7938 -1.5721  1.3630
 9162TIP3   OH227449   5.516   5.002   1.473  0.1500 -0.2564 -0.5426
 9162TIP3    H127450   5.558   5.070   1.419  0.1444 -0.1579 -0.4239
 9162TIP3    H227451   5.462   4.953   1.411  0.5488 -0.4725 -0.7227
 9163TIP3   OH227452   5.527   3.268   1.983  0.6830  0.1659 -0.0972
 9163TIP3    H127453   5.526   3.182   1.942 -0.5530  0.1784 -0.1163
 9163TIP3    H227454   5.615   3.302   1.964  0.7388 -0.5438 -1.2157
 9164TIP3   OH227455   0.728   3.745   2.738 -0.0634 -0.1104 -0.2634
 9164TIP3    H127456   0.651   3.701   2.702 -1.7072  2.2332  0.1600
 9164TIP3    H227457   0.801   3.712   2.686 -1.7756 -0.0199 -2.9132
 9165TIP3   OH227458   2.212   3.232   0.810 -0.5176 -0.1878 -0.5120
 9165TIP3    H127459   2.118   3.249   0.812 -0.2519  1.3972 -0.3417
 9165TIP3    H227460   2.230   3.204   0.720 -1.2709 -1.4350 -0.3059
 9166TIP3   OH227461   4.819   6.299   1.223 -0.1757  0.1591 -0.2663
 9166TIP3    H127462   4.859   6.377   1.260 -0.1901 -0.0434  0.1717
 9166TIP3    H227463   4.892   6.241   1.204 -0.0662  0.6580 -1.5195
 9167TIP3   OH227464   6.042   5.481   1.601 -0.0644 -0.1867  0.2551
 9167TIP3    H127465   6.134   5.454   1.603 -0.3239 -1.1404 -0.1293
 9167TIP3    H227466   5.998   5.416   1.656 -0.3173  1.0690  1.5847
 9168TIP3   OH227467   2.046   4.648   1.590  0.5870  0.1173  0.7234
 9168TIP3    H127468   1.969   4.596   1.613  0.4392 -0.3904 -0.8226
 9168TIP3    H227469   2.113   4.620   1.652  0.2549 -1.2735  0.4738
 9169TIP3   OH227470   2.491   2.823   5.596  0.0444  0.2305 -0.6422
 9169TIP3    H127471   2.508   2.896   5.536 -0.9015  1.5606  0.6188
 9169TIP3    H227472   2.448   2.757   5.541  0.5270  0.7972 -1.7348
 9170TIP3   OH227473   0.905   1.591   3.409  0.4224  0.0102 -0.8971
 9170TIP3    H127474   0.957   1.516   3.379  0.3578 -0.6408  0.5209
 9170TIP3    H227475   0.819   1.554   3.428  0.4263  0.4011 -0.0715
 9171TIP3   OH227476   0.731   2.204   0.111  0.5870 -0.0661 -0.0667
 9171TIP3    H127477   0.653   2.157   0.142  0.2831 -0.8003 -1.8355
 9171TIP3    H227478   0.698   2.290   0.086  0.6590  0.1853  0.6659
 9172TIP3   OH227479   6.736   6.361   1.459  0.0415  0.3143  0.2398
 9172TIP3    H127480   6.793   6.344   1.535  1.7624  1.4102 -0.7313
 9172TIP3    H227481   6.751   6.286   1.401  0.1782  0.3890  0.1769
 9173TIP3   OH227482   3.256   5.419   2.002  0.2870  0.6120 -0.6864
 9173TIP3    H127483   3.283   5.447   1.915  2.1583  0.6590 -0.1224
 9173TIP3    H227484   3.265   5.497   2.057  2.1073 -0.1511  0.1634
 9174TIP3   OH227485   1.343   3.247   5.533  0.0710 -0.1763  0.3202
 9174TIP3    H127486   1.347   3.223   5.626  2.2917 -0.6689  0.1384
 9174TIP3    H227487   1.290   3.178   5.493  0.1486 -0.6517  1.0137
 9175TIP3   OH227488   3.211   5.700   0.569 -0.0113 -0.5919  0.3918
 9175TIP3    H127489   3.178   5.769   0.626  0.5422  0.3607 -0.4089
 9175TIP3    H227490   3.133   5.665   0.525 -0.2009  0.1589  0.1214
 9176TIP3   OH227491   3.077   5.198   4.440  0.2296  0.4319  0.1465
 9176TIP3    H127492   3.118   5.215   4.524 -1.2076  1.5561  0.6551
 9176TIP3    H227493   2.991   5.239   4.446 -0.1129  0.0771 -1.6821
 9177TIP3   OH227494   0.088   4.800   2.833  0.6703  0.4928 -0.4594
 9177TIP3    H127495   0.065   4.885   2.869  1.3137  0.7611 -0.6676
 9177TIP3    H227496   0.101   4.744   2.910 -2.7657 -0.3107 -0.2835
 9178TIP3   OH227497   1.258   5.245   2.373 -0.2252 -0.0034 -0.1190
 9178TIP3    H127498   1.308   5.179   2.325  0.4659  0.1217  0.4256
 9178TIP3    H227499   1.225   5.199   2.450 -0.1435  0.1682  0.0184
 9179TIP3   OH227500   1.005   0.088   1.530  0.5364  0.5253 -0.4071
 9179TIP3    H127501   1.069   0.105   1.461 -1.2077 -0.6772 -2.4878
 9179TIP3    H227502   1.026  -0.000   1.561  1.9981  1.4774  1.4933
 9180TIP3   OH227503   4.680   0.381   1.224 -0.3099  0.4587 -0.0089
 9180TIP3    H127504   4.630   0.406   1.146 -1.9776 -0.6770  0.6250
 9180TIP3    H227505   4.710   0.292   1.206 -0.3007  0.3658  0.4352
 9181TIP3   OH227506   6.311   4.712   5.029  0.7904  0.2747 -0.2198
 9181TIP3    H127507   6.365   4.707   4.950 -1.7189 -1.1376 -1.9749
 9181TIP3    H227508   6.298   4.805   5.044 -2.9842  0.8562 -4.8234
 9182TIP3   OH227509   0.560   1.848   3.454  0.1536  0.4793 -0.4051
 9182TIP3    H127510   0.619   1.889   3.391 -0.3073  0.8126 -0.6239
 9182TIP3    H227511   0.551   1.913   3.524  3.3372 -1.1521  1.7456
 9183TIP3   OH227512   3.299   3.171   3.676 -0.4963  0.8063 -0.1530
 9183TIP3    H127513   3.225   3.116   3.650 -0.1558 -0.0868  0.7078
 9183TIP3    H227514   3.357   3.170   3.599 -0.6105  0.1504 -0.2357
 9184TIP3   OH227515   3.324   5.797   1.755 -0.1133  0.0817 -0.4708
 9184TIP3    H127516   3.274   5.792   1.836  0.4831  1.2027 -0.0228
 9184TIP3    H227517   3.259   5.783   1.686 -0.8115  0.2023  0.1518
 9185TIP3   OH227518   3.741   6.556   1.871 -0.0070 -0.0089  0.0160
 9185TIP3    H127519   3.676   6.486   1.874  0.6541 -0.6239  0.1126
 9185TIP3    H227520   3.815   6.522   1.921  0.0105  1.0801  0.7700
 9186TIP3   OH227521   3.649   0.551   1.907 -0.0268 -0.1942  0.0028
 9186TIP3    H127522   3.578   0.572   1.968  1.9870  1.7691  1.8876
 9186TIP3    H227523   3.661   0.457   1.916 -1.1797 -0.2652  1.0516
 9187TIP3   OH227524   3.735   3.561   5.273  0.1649 -0.4856 -0.0725
 9187TIP3    H127525   3.695   3.513   5.201 -0.7420  0.5374 -0.2678
 9187TIP3    H227526   3.671   3.556   5.345  0.1688  0.2008 -0.0121
 9188TIP3   OH227527   2.108   4.294   0.596  0.3413 -0.1443  0.5265
 9188TIP3    H127528   2.191   4.332   0.622  0.2024  1.0581 -0.6746
 9188TIP3    H227529   2.042   4.351   0.635  0.1322  0.5951 -0.8120
 9189TIP3   OH227530   4.373   5.076   4.735 -0.0446 -0.1679 -0.0661
 9189TIP3    H127531   4.321   5.155   4.724 -0.3667 -0.4813 -0.8993
 9189TIP3    H227532   4.450   5.090   4.680 -0.4399 -0.7085 -0.7808
 9190TIP3   OH227533   0.972   5.622   1.662  0.5430 -0.3008 -0.0530
 9190TIP3    H127534   0.904   5.568   1.624 -0.0357 -0.8690  1.6699
 9190TIP3    H227535   0.994   5.686   1.594 -1.6525 -0.1434 -0.6792
 9191TIP3   OH227536   7.080   4.748   1.681 -0.3605  0.0904  0.6663
 9191TIP3    H127537   7.015   4.681   1.701  0.1417 -0.5202  0.2879
 9191TIP3    H227538   7.165   4.704   1.692 -0.0128  0.8065  0.9154
 9192TIP3   OH227539   5.103   2.106   3.394 -0.3319  0.2833  0.2099
 9192TIP3    H127540   5.169   2.117   3.326  0.4985 -0.8463  0.7891
 9192TIP3    H227541   5.148   2.131   3.475  0.1379 -2.4709  0.9066
 9193TIP3   OH227542   6.547   0.811   5.472 -0.1284  0.4929 -0.0593
 9193TIP3    H127543   6.598   0.744   5.426  1.2892  1.6434 -0.2316
 9193TIP3    H227544   6.551   0.787   5.564 -0.5693 -0.2590 -0.2323
 9194TIP3   OH227545   3.810   4.617   4.107  0.3552  0.5518 -0.0913
 9194TIP3    H127546   3.897   4.621   4.066 -0.2040  2.8300 -1.2220
 9194TIP3    H227547   3.760   4.557   4.051  1.1716 -0.8313  0.6067
 9195TIP3   OH227548   6.677   1.662   0.223  0.2677  0.0824 -0.1817
 9195TIP3    H127549   6.626   1.583   0.242  1.0328 -0.6568 -1.0886
 9195TIP3    H227550   6.760   1.649   0.268 -0.0034  0.8895  0.5773
 9196TIP3   OH227551   4.549   1.264   5.055 -0.3001 -0.3485  0.6370
 9196TIP3    H127552   4.476   1.288   4.998  0.5603 -0.6577 -0.6423
 9196TIP3    H227553   4.570   1.174   5.030  0.7653 -0.1353  0.7225
 9197TIP3   OH227554   6.586   1.533   4.973 -0.1703 -0.1648  0.0541
 9197TIP3    H127555   6.590   1.469   4.902  0.4359  1.4843 -1.4727
 9197TIP3    H227556   6.503   1.578   4.961  0.0702  0.3278  0.1867
 9198TIP3   OH227557   3.268   4.823   3.011  0.3416  0.0843  0.2369
 9198TIP3    H127558   3.244   4.731   2.998  0.4609  0.0701  0.1240
 9198TIP3    H227559   3.350   4.819   3.060 -0.1956  0.1321  1.1871
 9199TIP3   OH227560   1.997   5.839   3.236  0.4385  0.4245  0.0436
 9199TIP3    H127561   1.989   5.815   3.329  0.0827 -2.8814 -0.7221
 9199TIP3    H227562   1.908   5.859   3.209  0.3548  0.1812  0.1358
 9200TIP3   OH227563   2.166   3.381   1.947 -0.1606  0.2171  0.4407
 9200TIP3    H127564   2.189   3.317   2.014  1.4806 -0.1205 -0.3791
 9200TIP3    H227565   2.098   3.337   1.895  0.0973 -0.3831  0.5960
 9201TIP3   OH227566   6.008   1.523   3.643  0.1691  0.8837 -0.2407
 9201TIP3    H127567   6.054   1.605   3.621 -0.7857  1.0734 -1.7154
 9201TIP3    H227568   6.078   1.460   3.660  0.9277  1.9761  0.8771
 9202TIP3   OH227569   4.472   6.158   4.434  0.1599 -0.4198  0.2855
 9202TIP3    H127570   4.436   6.076   4.468 -0.9735  0.1064  0.3835
 9202TIP3    H227571   4.422   6.175   4.354  2.4927 -1.4141 -1.5283
 9203TIP3   OH227572   2.230   1.198   3.439  0.3561 -0.4163 -0.4381
 9203TIP3    H127573   2.249   1.135   3.509 -2.0311 -0.3399  0.3484
 9203TIP3    H227574   2.210   1.143   3.363 -0.5414 -0.6019 -0.0768
 9204TIP3   OH227575   1.433   2.655   0.978 -0.1482 -0.7623 -0.0184
 9204TIP3    H127576   1.353   2.679   1.025  0.1835 -0.1235  0.2263
 9204TIP3    H227577   1.498   2.719   1.006  0.3423 -1.0250 -0.5327
 9205TIP3   OH227578   1.150   0.078   3.455 -0.1908  0.0994  0.1268
 9205TIP3    H127579   1.125   0.060   3.546 -0.2818 -0.6855 -0.0460
 9205TIP3    H227580   1.157   0.173   3.451  2.1089  0.0954  1.5758
 9206TIP3   OH227581   1.553   4.052   2.675  0.6040 -0.2341  0.1626
 9206TIP3    H127582   1.631   4.094   2.637  0.8352 -1.5457 -0.8882
 9206TIP3    H227583   1.583   3.964   2.697 -0.5929 -0.7567 -0.2689
 9207TIP3   OH227584   4.577   1.526   0.751 -0.1966 -0.6299 -0.2498
 9207TIP3    H127585   4.667   1.536   0.781 -0.5023  3.4962 -0.2093
 9207TIP3    H227586   4.523   1.536   0.830 -0.7412  0.1172 -0.6992
 9208TIP3   OH227587   2.228   1.465   4.401 -0.1657 -0.8688 -0.4732
 9208TIP3    H127588   2.188   1.549   4.379  1.1527 -0.4460 -1.3033
 9208TIP3    H227589   2.291   1.486   4.470  0.3133 -1.1414 -0.8271
 9209TIP3   OH227590   0.891   4.750   4.262 -0.9976  0.2718 -0.2251
 9209TIP3    H127591   0.901   4.792   4.177 -0.0304  2.7533  0.9840
 9209TIP3    H227592   0.812   4.698   4.255  0.4425 -1.7647 -3.3953
 9210TIP3   OH227593   0.275   5.338   1.821  0.3989  0.6723 -0.1759
 9210TIP3    H127594   0.246   5.250   1.843  0.6226 -0.1672 -2.9054
 9210TIP3    H227595   0.364   5.343   1.857 -0.0917  0.3008  1.1440
 9211TIP3   OH227596   0.111   4.097   2.049  0.9427 -0.2484  0.1558
 9211TIP3    H127597   0.086   4.034   1.981  0.8925 -0.2943  0.2165
 9211TIP3    H227598   0.045   4.084   2.118  0.4346  0.4565 -0.1921
 9212TIP3   OH227599   1.780   3.910   0.503 -0.6775  0.2280 -0.4364
 9212TIP3    H127600   1.825   3.994   0.507 -2.4457  1.2943 -1.5669
 9212TIP3    H227601   1.694   3.928   0.541 -0.9948 -1.1309 -0.4840
 9213TIP3   OH227602   6.270   3.268   3.555  0.3323  0.2209  0.1766
 9213TIP3    H127603   6.273   3.174   3.577  0.4530  0.0694 -0.4812
 9213TIP3    H227604   6.306   3.311   3.632  1.1329 -0.3349  0.1223
 9214TIP3   OH227605   3.432   3.607   2.277  0.5642 -0.4004  0.8711
 9214TIP3    H127606   3.386   3.551   2.339 -1.7927 -0.3123 -0.7003
 9214TIP3    H227607   3.525   3.584   2.289 -0.1258 -3.0431  1.8076
 9215TIP3   OH227608   4.577   3.074   5.811  0.2101 -0.5869 -0.0611
 9215TIP3    H127609   4.626   3.151   5.782 -0.3855  0.1315  0.7817
 9215TIP3    H227610   4.490   3.086   5.773  0.2806 -1.1636 -0.4202
 9216TIP3   OH227611   4.400   1.627   2.922 -0.0780 -0.4602  0.7397
 9216TIP3    H127612   4.491   1.603   2.942  0.2516 -0.0975 -0.2456
 9216TIP3    H227613   4.354   1.543   2.918  0.5147 -0.7579 -0.0913
 9217TIP3   OH227614   3.369   6.469   3.360  0.0895  0.0350 -0.2625
 9217TIP3    H127615   3.318   6.401   3.404  1.1073  0.7746  2.2248
 9217TIP3    H227616   3.449   6.424   3.333  0.6926  0.1577  1.2353
 9218TIP3   OH227617   2.456   1.052   3.010  0.5559 -0.1163 -0.7060
 9218TIP3    H127618   2.392   1.121   3.029 -0.2460 -0.8281 -0.7938
 9218TIP3    H227619   2.536   1.100   2.986  0.1066  0.7818 -0.4591
 9219TIP3   OH227620   0.854   6.651   2.960  0.0426  0.3354 -0.1689
 9219TIP3    H127621   0.786   6.694   3.011  1.7939  2.2922  0.7026
 9219TIP3    H227622   0.817   6.643   2.872 -1.1339  1.8007  0.1484
 9220TIP3   OH227623   1.475   0.649   0.447  0.2864  0.2521  0.6345
 9220TIP3    H127624   1.428   0.600   0.379 -0.1761  1.9024 -0.2930
 9220TIP3    H227625   1.565   0.654   0.414  0.0637  1.0468  0.1256
 9221TIP3   OH227626   0.702   6.597   4.820  0.8740 -0.3399  0.1515
 9221TIP3    H127627   0.635   6.653   4.858  1.6452  0.9807 -0.3711
 9221TIP3    H227628   0.733   6.543   4.894 -0.4628 -0.6988  0.4689
 9222TIP3   OH227629   6.696   1.095   0.534 -0.6193 -0.3298  0.4657
 9222TIP3    H127630   6.785   1.094   0.568 -0.7417 -1.0342  0.7973
 9222TIP3    H227631   6.645   1.140   0.601 -0.4811  0.2618  0.1781
 9223TIP3   OH227632   3.544   4.780   1.438 -0.1165 -0.0717 -0.1628
 9223TIP3    H127633   3.546   4.838   1.361  0.7968 -0.3542 -0.3614
 9223TIP3    H227634   3.507   4.834   1.507  2.4688  1.4388  0.1741
 9224TIP3   OH227635   5.532   6.552   1.000  0.2585 -0.0480  0.3909
 9224TIP3    H127636   5.478   6.606   1.057 -0.0669 -0.2439  0.2708
 9224TIP3    H227637   5.569   6.485   1.058  0.2129 -0.0317  0.4390
 9225TIP3   OH227638   1.338   4.819   2.231 -0.3480 -0.6834 -0.0962
 9225TIP3    H127639   1.401   4.849   2.165  0.4233  0.3791  1.0774
 9225TIP3    H227640   1.305   4.737   2.197  1.2312 -0.9697 -1.0434
 9226TIP3   OH227641   2.630   4.508   1.851 -0.0901  0.2542  0.6545
 9226TIP3    H127642   2.576   4.430   1.840  1.1770 -0.5046 -0.4960
 9226TIP3    H227643   2.650   4.537   1.762  2.8521 -0.5675  0.9419
 9227TIP3   OH227644   6.393   3.545   4.170 -0.3673  0.1081 -0.3287
 9227TIP3    H127645   6.301   3.553   4.145 -1.1145 -2.1148  1.3810
 9227TIP3    H227646   6.420   3.460   4.134  0.3881 -0.2046  0.9031
 9228TIP3   OH227647   2.493   2.133   1.851  0.3112 -0.9267  0.0483
 9228TIP3    H127648   2.490   2.228   1.861  0.3719 -0.8004 -1.0614
 9228TIP3    H227649   2.420   2.101   1.905 -0.9689 -0.0910 -1.1161
 9229TIP3   OH227650   0.799   2.911   3.501  0.5485  0.5773  0.2135
 9229TIP3    H127651   0.822   2.844   3.565  1.6756  0.7421  0.0036
 9229TIP3    H227652   0.831   2.993   3.539  1.5165  0.6361 -0.6792
 9230TIP3   OH227653   1.865   5.007   5.351  0.0713  0.6793  0.0734
 9230TIP3    H127654   1.778   4.971   5.336 -0.4313  1.4113  1.1544
 9230TIP3    H227655   1.888   5.051   5.269 -0.4363  0.2145 -0.3196
 9231TIP3   OH227656   2.211   4.257   1.859  0.1956 -0.2316 -0.1118
 9231TIP3    H127657   2.171   4.340   1.886  0.9340 -0.1916  0.9110
 9231TIP3    H227658   2.294   4.254   1.906  1.8465  0.0953 -2.7794
 9232TIP3   OH227659   0.676   1.494   4.237 -0.0710 -0.2716 -0.0321
 9232TIP3    H127660   0.696   1.569   4.294  1.2504 -0.5979 -0.0464
 9232TIP3    H227661   0.699   1.417   4.289  0.5071 -0.5930 -0.7414
 9233TIP3   OH227662   3.291   3.837   1.699 -0.0364  0.0243  0.5340
 9233TIP3    H127663   3.263   3.816   1.610  1.1770 -0.8071  0.3287
 9233TIP3    H227664   3.247   3.920   1.718 -1.8889 -0.7651 -0.0725
 9234TIP3   OH227665   1.431   4.132   3.711 -0.1444  0.3269  1.0093
 9234TIP3    H127666   1.383   4.079   3.775  0.6423 -1.2565  0.3661
 9234TIP3    H227667   1.475   4.199   3.763 -1.2300  0.4168  1.8523
 9235TIP3   OH227668   0.276   5.815   0.339  0.1142 -0.3450 -0.1233
 9235TIP3    H127669   0.236   5.761   0.271 -0.8303  0.2730 -0.0796
 9235TIP3    H227670   0.301   5.754   0.407 -0.7060 -0.7611 -0.1837
 9236TIP3   OH227671   5.902   2.885   0.925  0.3923 -0.5211 -0.3376
 9236TIP3    H127672   5.814   2.867   0.891 -0.7932  1.2484  1.5216
 9236TIP3    H227673   5.912   2.825   0.999  0.2018  0.0728  0.1895
 9237TIP3   OH227674   3.882   1.305   3.145 -0.5352 -0.0932  0.2156
 9237TIP3    H127675   3.868   1.216   3.112 -0.2585  1.0294 -3.4167
 9237TIP3    H227676   3.874   1.297   3.240 -0.7340 -3.9222  0.0450
 9238TIP3   OH227677   4.244   1.843   3.303 -0.3961 -0.2898  0.6128
 9238TIP3    H127678   4.296   1.764   3.319 -0.6404 -0.4964  0.3882
 9238TIP3    H227679   4.231   1.844   3.208 -0.0582  0.2317  0.5709
 9239TIP3   OH227680   4.610   0.058   2.201  0.5456  0.9598  0.0719
 9239TIP3    H127681   4.538   0.060   2.139  0.0909  1.3748  0.5988
 9239TIP3    H227682   4.686   0.032   2.149 -0.2593 -1.0059 -0.1920
 9240TIP3   OH227683   2.057   3.741   2.106  0.1604 -0.5032  0.6871
 9240TIP3    H127684   2.027   3.749   2.016 -0.1047  2.6668  0.9507
 9240TIP3    H227685   1.978   3.757   2.159  0.8371  0.5859  1.4164
 9241TIP3   OH227686   5.425   4.810   2.787 -0.0297  0.7206 -0.1628
 9241TIP3    H127687   5.371   4.757   2.846 -0.2061  0.3944 -0.6175
 9241TIP3    H227688   5.441   4.891   2.836 -1.7436  1.2390 -0.3928
 9242TIP3   OH227689   4.712   6.688   3.287 -0.4729  0.2321  0.5238
 9242TIP3    H127690   4.745   6.600   3.304  0.5303  0.4210 -0.3478
 9242TIP3    H227691   4.618   6.681   3.304 -0.2384 -0.7129  1.5559
 9243TIP3   OH227692   6.872   5.127   4.636  0.2100 -0.2615 -0.0655
 9243TIP3    H127693   6.822   5.187   4.580  0.5673 -0.5954 -0.7469
 9243TIP3    H227694   6.899   5.057   4.578  0.4263 -0.7142  0.5745
 9244TIP3   OH227695   2.155   3.022   3.251  0.7253  0.1989  0.4426
 9244TIP3    H127696   2.228   3.083   3.257  0.2349  1.0065 -1.1150
 9244TIP3    H227697   2.188   2.950   3.197  0.7107  0.0221  0.6684
 9245TIP3   OH227698   4.374   4.951   1.038 -0.1268 -0.5971 -0.3548
 9245TIP3    H127699   4.401   4.893   0.966 -0.0970  0.4279 -1.1872
 9245TIP3    H227700   4.319   5.017   0.996 -0.0057  0.0956  0.5526
 9246TIP3   OH227701   3.000   2.907   0.207 -0.1478  0.3145 -0.0266
 9246TIP3    H127702   3.021   2.814   0.206  1.1223  0.5834 -0.1297
 9246TIP3    H227703   2.989   2.930   0.115  0.2979  0.4259 -0.0525
 9247TIP3   OH227704   4.046   5.715   1.521  0.3943 -0.2873 -0.0994
 9247TIP3    H127705   4.103   5.661   1.575  0.1863 -0.6579 -0.2411
 9247TIP3    H227706   4.059   5.682   1.432 -1.6442 -1.9019  0.1008
 9248TIP3   OH227707   6.179   6.085   2.337 -0.2787  0.4689 -0.4821
 9248TIP3    H127708   6.117   6.013   2.328 -0.7304  0.6523  0.8787
 9248TIP3    H227709   6.233   6.062   2.412  1.8289 -0.0164 -2.0541
 9249TIP3   OH227710   3.686   1.911   5.365  0.4763  0.2576 -0.0329
 9249TIP3    H127711   3.776   1.924   5.335 -0.3255  1.4731 -2.1539
 9249TIP3    H227712   3.688   1.827   5.409  2.4049 -0.3554 -1.1333
 9250TIP3   OH227713   1.624   5.174   5.074  0.2152 -0.0071  0.4308
 9250TIP3    H127714   1.598   5.263   5.050  0.8071 -0.2869 -1.4650
 9250TIP3    H227715   1.703   5.157   5.022  0.5772 -1.3588  1.3604
 9251TIP3   OH227716   6.979   4.815   1.323  0.2290  0.1945  0.4066
 9251TIP3    H127717   7.072   4.802   1.343  0.0882  1.0365  1.7630
 9251TIP3    H227718   6.938   4.730   1.340  0.6642 -0.0481  0.2656
 9252TIP3   OH227719   1.380   6.677   2.406 -0.2809 -0.3258  0.4828
 9252TIP3    H127720   1.382   6.597   2.459 -0.5069  0.1143  1.1657
 9252TIP3    H227721   1.376   6.748   2.469  1.6314  0.3350 -0.0677
 9253TIP3   OH227722   4.668   2.124   0.363 -0.4644  0.2141 -0.3994
 9253TIP3    H127723   4.602   2.174   0.315  1.1701  0.3532 -2.6149
 9253TIP3    H227724   4.716   2.190   0.413  0.7900  0.7471 -2.2353
 9254TIP3   OH227725   1.585   2.096   3.528 -0.6727  0.3673  0.0823
 9254TIP3    H127726   1.573   2.058   3.441 -3.3302  0.6642  0.2353
 9254TIP3    H227727   1.675   2.072   3.552 -0.0002 -0.0720 -2.5326
 9255TIP3   OH227728   4.212   0.915   3.657  0.1789 -0.1525  0.4643
 9255TIP3    H127729   4.304   0.892   3.642 -0.2818 -0.9513 -1.4401
 9255TIP3    H227730   4.184   0.855   3.726  0.5278 -1.4954 -0.5149
 9256TIP3   OH227731   6.461   4.519   2.009 -0.1456 -0.2268 -0.2072
 9256TIP3    H127732   6.501   4.467   1.939 -0.3147  2.1792 -2.2412
 9256TIP3    H227733   6.531   4.528   2.074 -0.1680 -3.0123  0.3274
 9257TIP3   OH227734   0.418   6.016   4.065 -0.7928  0.3362  0.1919
 9257TIP3    H127735   0.437   6.008   4.159 -2.1358  1.1162  0.5592
 9257TIP3    H227736   0.503   6.005   4.023 -0.5244 -3.0217  1.2603
 9258TIP3   OH227737   4.848   2.310   1.902 -0.7065 -0.4050 -0.7405
 9258TIP3    H127738   4.896   2.256   1.839 -2.4130 -3.0882  0.0973
 9258TIP3    H227739   4.906   2.316   1.978 -0.4296 -0.9329 -0.9084
 9259TIP3   OH227740   6.735   5.373   0.740  0.1373  0.1543 -0.3605
 9259TIP3    H127741   6.662   5.358   0.680 -0.1043 -0.7250  0.1378
 9259TIP3    H227742   6.811   5.388   0.683 -0.4079  1.0225 -0.8812
 9260TIP3   OH227743   6.264   3.866   4.548  0.2571  0.1854  0.8407
 9260TIP3    H127744   6.249   3.792   4.607  0.0936  0.7976  1.5820
 9260TIP3    H227745   6.330   3.919   4.592 -0.1319  0.8423  0.6532
 9261TIP3   OH227746   2.640   1.609   0.464 -0.3578  0.1580 -0.2176
 9261TIP3    H127747   2.660   1.540   0.401  0.8922  0.3833 -0.1095
 9261TIP3    H227748   2.612   1.683   0.411  0.1727  0.1736 -0.4844
 9262TIP3   OH227749   6.114   5.682   5.125 -0.2330  0.2263  0.0582
 9262TIP3    H127750   6.025   5.716   5.128  0.0103  0.8283  0.5237
 9262TIP3    H227751   6.151   5.703   5.211  0.0298 -0.9228  0.2444
 9263TIP3   OH227752   0.392   6.318   2.222 -0.2631 -0.0180 -0.6436
 9263TIP3    H127753   0.357   6.405   2.242 -0.4646 -0.0030 -1.0559
 9263TIP3    H227754   0.349   6.293   2.141 -1.7633 -1.3650  0.5009
 9264TIP3   OH227755   0.340   6.587   4.789  0.2945  0.0890  0.1005
 9264TIP3    H127756   0.345   6.557   4.698  0.4069 -0.4129  0.2692
 9264TIP3    H227757   0.348   6.682   4.783 -0.3201  0.1104 -0.4614
 9265TIP3   OH227758   2.287   3.609   2.231 -0.8739 -0.2533  0.6554
 9265TIP3    H127759   2.235   3.600   2.311 -1.8670 -2.0368 -0.1427
 9265TIP3    H227760   2.232   3.660   2.171 -0.6362  0.0256  0.6685
 9266TIP3   OH227761   5.927   6.768   4.694 -0.3645  0.3012  0.0533
 9266TIP3    H127762   6.019   6.759   4.719 -0.1803 -0.0823 -0.7171
 9266TIP3    H227763   5.923   6.852   4.649 -0.0133 -0.4288 -1.4140
 9267TIP3   OH227764   5.129   6.452   1.538  0.1997 -0.2647 -0.3435
 9267TIP3    H127765   5.106   6.416   1.452  2.0030  2.0436 -1.9391
 9267TIP3    H227766   5.107   6.544   1.532  3.5905  0.7313  0.2652
 9268TIP3   OH227767   6.691   5.453   3.777 -0.7552  0.2698 -0.6925
 9268TIP3    H127768   6.666   5.361   3.784  2.2516 -0.5597  1.1640
 9268TIP3    H227769   6.644   5.496   3.848 -0.7696 -0.2352 -0.3917
 9269TIP3   OH227770   0.903   5.913   1.012  0.0748 -0.4785 -0.0361
 9269TIP3    H127771   0.869   5.835   1.055 -1.3362  0.6778  1.1037
 9269TIP3    H227772   0.901   5.980   1.080  0.7706  0.6770 -1.1031
 9270TIP3   OH227773   6.453   0.553   3.045 -0.4491  0.3311 -0.1855
 9270TIP3    H127774   6.431   0.625   2.985 -1.6380  1.0736  1.0904
 9270TIP3    H227775   6.487   0.597   3.123 -0.0487 -0.5615  0.1515
 9271TIP3   OH227776   3.718   1.851   0.561 -0.2126 -0.3393 -0.0728
 9271TIP3    H127777   3.673   1.842   0.477  2.2689 -2.5622 -1.3163
 9271TIP3    H227778   3.763   1.935   0.556 -1.4362  0.3331 -0.1988
 9272TIP3   OH227779   2.751   5.888   4.980  0.0384  0.1635  0.4606
 9272TIP3    H127780   2.706   5.940   5.047  1.0024 -0.4860  1.6545
 9272TIP3    H227781   2.715   5.919   4.897 -0.1233  2.0273  1.1929
 9273TIP3   OH227782   0.110   5.051   3.368 -0.2359  0.1912 -0.4902
 9273TIP3    H127783   0.072   4.965   3.351 -1.8724  0.7992 -0.1356
 9273TIP3    H227784   0.079   5.106   3.296 -0.6792  0.8792  0.2011
 9274TIP3   OH227785   4.640   3.673   1.377  0.3230 -0.0809 -0.1215
 9274TIP3    H127786   4.564   3.651   1.323  1.4240 -0.1489 -1.7044
 9274TIP3    H227787   4.647   3.600   1.439 -0.3114 -0.5835 -0.6261
 9275TIP3   OH227788   6.669   0.684   2.620 -0.2285 -0.1814 -0.4069
 9275TIP3    H127789   6.704   0.772   2.632  3.0128 -1.3475 -0.4011
 9275TIP3    H227790   6.628   0.686   2.533  0.3756  1.1739 -0.6735
 9276TIP3   OH227791   4.375   0.244   0.200 -0.2048  0.1538  0.3973
 9276TIP3    H127792   4.312   0.232   0.130  0.3018 -1.6949  0.2226
 9276TIP3    H227793   4.418   0.327   0.179  0.2352 -0.5491 -1.7462
 9277TIP3   OH227794   7.208   2.320   3.253 -0.1053 -0.4998  0.0281
 9277TIP3    H127795   7.273   2.351   3.315 -0.6818  1.7057 -0.3920
 9277TIP3    H227796   7.126   2.362   3.280 -0.4397  0.2477 -1.9667
 9278TIP3   OH227797   6.146   2.537   2.384  0.1672 -0.0033 -0.0316
 9278TIP3    H127798   6.080   2.527   2.316  0.5553 -0.2190 -0.3838
 9278TIP3    H227799   6.099   2.524   2.466 -0.1583 -0.4911 -0.2907
 9279TIP3   OH227800   2.060   1.716   5.853  0.0545  0.2969  0.2644
 9279TIP3    H127801   2.123   1.646   5.866  1.2548  1.4234  0.6146
 9279TIP3    H227802   2.029   1.703   5.763 -0.8017 -1.4914  0.7676
 9280TIP3   OH227803   0.805   2.536   1.277  0.0881  0.6208  0.1742
 9280TIP3    H127804   0.793   2.631   1.287  0.7787  0.6707  0.5310
 9280TIP3    H227805   0.716   2.501   1.281 -0.2545  1.3217 -0.7523
 9281TIP3   OH227806   2.627   3.488   3.215  0.2740  0.5793 -1.0289
 9281TIP3    H127807   2.717   3.501   3.185  1.2092 -0.2510  1.2093
 9281TIP3    H227808   2.584   3.444   3.142  2.4335 -1.4207 -1.1976
 9282TIP3   OH227809   1.167   6.817   1.845 -0.7483 -0.2167 -0.0931
 9282TIP3    H127810   1.173   6.838   1.752  0.7962 -0.9362 -0.1948
 9282TIP3    H227811   1.223   6.740   1.856 -0.0569  0.4613  1.5890
 9283TIP3   OH227812   7.133   4.878   5.766 -0.1517  0.1103 -0.1079
 9283TIP3    H127813   7.158   4.810   5.828 -0.8960  0.3184  0.4458
 9283TIP3    H227814   7.213   4.928   5.750  0.1930 -0.3481  0.1699
 9284TIP3   OH227815   1.935   2.165   1.223  0.3018  0.2592 -0.0011
 9284TIP3    H127816   1.913   2.085   1.176  2.4534 -0.5946  0.3370
 9284TIP3    H227817   1.895   2.153   1.310  1.5034 -0.9792  0.4146
 9285TIP3   OH227818   1.371   2.868   4.709  0.5119 -0.3340 -0.5011
 9285TIP3    H127819   1.384   2.962   4.719 -2.4710  0.1725 -0.6539
 9285TIP3    H227820   1.441   2.841   4.649 -0.3300  2.3706 -2.9043
 9286TIP3   OH227821   1.963   3.734   2.487  0.3703  0.4060  0.0770
 9286TIP3    H127822   1.941   3.825   2.465  0.3330  0.9112  2.0750
 9286TIP3    H227823   1.879   3.690   2.494  0.3297  0.5300  0.3703
 9287TIP3   OH227824   4.050   3.163   4.586  0.1267  0.1117 -0.1133
 9287TIP3    H127825   4.134   3.136   4.549 -0.5197  0.6221 -2.0730
 9287TIP3    H227826   3.986   3.103   4.547 -0.6692  1.0952 -0.3754
 9288TIP3   OH227827   0.394   2.542   4.032  0.0042 -0.3761 -0.2656
 9288TIP3    H127828   0.437   2.499   4.106  0.9015  1.5346  0.4152
 9288TIP3    H227829   0.389   2.475   3.964 -0.2472 -2.0031  1.2862
 9289TIP3   OH227830   7.076   4.257   5.413 -0.3019  0.3170  0.1682
 9289TIP3    H127831   7.114   4.316   5.478  0.0251  0.1313  0.1506
 9289TIP3    H227832   7.096   4.298   5.329 -0.2937  0.3110  0.1671
 9290TIP3   OH227833   4.797   4.338   1.052  0.1886 -0.1524  0.0357
 9290TIP3    H127834   4.729   4.327   1.118 -1.2828  0.6010 -1.2840
 9290TIP3    H227835   4.840   4.253   1.047 -0.8051 -0.7179  0.7389
 9291TIP3   OH227836   1.434   6.800   5.341 -0.0941 -0.1025 -0.0209
 9291TIP3    H127837   1.431   6.751   5.258 -3.0128 -0.6746  0.3105
 9291TIP3    H227838   1.506   6.760   5.389  0.9784 -0.4824 -1.8347
 9292TIP3   OH227839   0.675   3.601   1.935 -0.2237 -0.1490 -0.0629
 9292TIP3    H127840   0.652   3.633   1.847  1.7968  0.6729 -0.3413
 9292TIP3    H227841   0.688   3.507   1.923 -2.1557 -0.4503 -0.1224
 9293TIP3   OH227842   2.045   2.646   1.255 -0.3187 -0.3511 -0.7189
 9293TIP3    H127843   2.132   2.677   1.234 -0.1564 -0.0229  0.3799
 9293TIP3    H227844   2.058   2.556   1.284 -0.2126 -0.0264  0.2874
 9294TIP3   OH227845   6.236   0.956   1.530 -0.2577 -0.3891 -0.3288
 9294TIP3    H127846   6.259   0.932   1.620 -0.7487  1.3225  0.2992
 9294TIP3    H227847   6.219   0.873   1.486 -1.1296 -1.2065  1.4748
 9295TIP3   OH227848   4.687   5.248   3.712 -0.5192  0.3074  0.5112
 9295TIP3    H127849   4.684   5.299   3.792 -0.1808  1.3286 -0.1091
 9295TIP3    H227850   4.712   5.311   3.644 -2.0454 -0.2350 -0.6183
 9296TIP3   OH227851   3.293   5.428   3.936  0.2370 -0.7675 -0.1556
 9296TIP3    H127852   3.329   5.496   3.992  0.1209 -1.1601  0.3953
 9296TIP3    H227853   3.257   5.476   3.861  1.1142 -0.3068 -0.2918
 9297TIP3   OH227854   4.040   6.675   3.249 -0.1258 -0.6559 -0.0485
 9297TIP3    H127855   3.965   6.617   3.236  0.3082 -1.1492 -0.4793
 9297TIP3    H227856   4.092   6.663   3.169  0.2026 -0.0163  0.0676
 9298TIP3   OH227857   0.760   6.362   1.233  0.3143  0.4852  0.9159
 9298TIP3    H127858   0.707   6.369   1.154 -0.8228  2.0236  1.7884
 9298TIP3    H227859   0.849   6.381   1.203 -0.2299  1.9524  0.1347
 9299TIP3   OH227860   6.545   0.120   1.589  0.9679 -0.0002 -0.2973
 9299TIP3    H127861   6.623   0.067   1.573  0.9761 -0.2533  0.5442
 9299TIP3    H227862   6.577   0.211   1.584  1.1649 -0.0893 -0.6871
 9300TIP3   OH227863   5.124   1.817   2.787 -0.0030  0.0254  0.0617
 9300TIP3    H127864   5.073   1.861   2.856 -0.1929 -0.2060  0.0727
 9300TIP3    H227865   5.203   1.787   2.831  0.7886  1.5573 -0.2460
 9301TIP3   OH227866   3.536   6.193   4.406 -0.0193 -0.7531  0.0058
 9301TIP3    H127867   3.473   6.215   4.475 -0.7779  0.2469 -0.9783
 9301TIP3    H227868   3.566   6.277   4.373  0.9684 -1.2314 -0.3321
 9302TIP3   OH227869   2.418   1.528   5.813 -0.5190 -0.0168  0.3096
 9302TIP3    H127870   2.334   1.510   5.854 -0.1171  0.1554  1.2194
 9302TIP3    H227871   2.415   1.481   5.730 -2.0183  1.0261 -0.2640
 9303TIP3   OH227872   3.440   1.446   2.517  0.0383  0.1650  0.5289
 9303TIP3    H127873   3.465   1.454   2.609 -0.6342 -1.7724  0.9241
 9303TIP3    H227874   3.510   1.394   2.478  0.6280  1.4776 -0.2390
 9304TIP3   OH227875   2.847   3.868   1.717 -0.1960  0.2516 -0.6654
 9304TIP3    H127876   2.809   3.824   1.792  0.0446  1.0270 -0.0649
 9304TIP3    H227877   2.783   3.858   1.647 -0.9827  0.5636 -0.0008
 9305TIP3   OH227878   1.801   3.012   0.759  0.4466  0.2347  0.6199
 9305TIP3    H127879   1.775   3.065   0.683 -1.2844  0.9078  1.6367
 9305TIP3    H227880   1.871   2.956   0.725  1.7203  2.4758 -0.7569
 9306TIP3   OH227881   4.208   1.568   0.768 -0.1544 -0.4415  0.2345
 9306TIP3    H127882   4.113   1.580   0.772 -0.1884  0.1731 -1.5857
 9306TIP3    H227883   4.219   1.474   0.751 -0.3603 -0.7506  1.6746
 9307TIP3   OH227884   4.849   0.747   2.677  0.2137  0.0293 -0.2067
 9307TIP3    H127885   4.768   0.726   2.630 -1.0970  0.5257  1.7122
 9307TIP3    H227886   4.873   0.665   2.721 -0.2336  0.3450  0.6280
 9308TIP3   OH227887   1.285   5.067   5.483 -0.4220  0.0680 -0.0947
 9308TIP3    H127888   1.252   5.101   5.400 -0.6196  1.1358  0.4118
 9308TIP3    H227889   1.222   5.096   5.548 -0.5679 -1.2340  0.3813
 9309TIP3   OH227890   6.993   5.416   2.711  0.1113  0.0593  0.2400
 9309TIP3    H127891   6.931   5.344   2.699 -2.5703  2.3617 -0.5707
 9309TIP3    H227892   7.039   5.421   2.627 -0.6181  0.1088 -0.1615
 9310TIP3   OH227893   7.215   4.944   0.840 -0.5496  0.1387 -0.2013
 9310TIP3    H127894   7.214   4.900   0.925  0.7290  0.6689  0.1080
 9310TIP3    H227895   7.136   4.998   0.840  0.2071  1.3426  1.3275
 9311TIP3   OH227896   3.387   2.407   1.772 -0.3206 -0.7625  0.2790
 9311TIP3    H127897   3.479   2.421   1.750  0.4075 -1.7141  2.4819
 9311TIP3    H227898   3.350   2.363   1.696  0.8209  0.3653 -0.9699
 9312TIP3   OH227899   1.060   5.033   5.028 -0.5893 -0.1126  0.1714
 9312TIP3    H127900   1.135   5.049   4.971  0.7887 -1.5628  1.4951
 9312TIP3    H227901   1.061   4.939   5.044 -1.9562  0.0193  1.2273
 9313TIP3   OH227902   4.811   2.164   3.081 -0.2080  0.1484 -0.1457
 9313TIP3    H127903   4.870   2.211   3.022 -0.2386  0.5819  0.1667
 9313TIP3    H227904   4.742   2.130   3.024 -0.6144  1.1547 -0.2778
 9314TIP3   OH227905   3.516   4.764   4.109 -0.0060  0.1503 -0.2626
 9314TIP3    H127906   3.578   4.811   4.165  0.6370 -1.7920  0.7267
 9314TIP3    H227907   3.571   4.707   4.055 -0.9012 -1.5650  0.5837
 9315TIP3   OH227908   6.830   6.144   1.341 -0.0103  0.4556  0.3320
 9315TIP3    H127909   6.924   6.125   1.344 -0.1626 -0.3174  0.4496
 9315TIP3    H227910   6.811   6.150   1.247  0.3646  1.7542  0.3220
 9316TIP3   OH227911   2.545   2.947   3.720 -0.5425  0.8114 -0.0343
 9316TIP3    H127912   2.618   2.885   3.718 -0.7124  0.6254 -0.6919
 9316TIP3    H227913   2.493   2.921   3.795 -1.4540 -0.8300 -1.1870
 9317TIP3   OH227914   7.120   2.157   0.401 -0.9053  0.1159 -0.0835
 9317TIP3    H127915   7.046   2.164   0.461  0.3255  0.1623  1.4821
 9317TIP3    H227916   7.109   2.071   0.360 -1.9103  0.1955 -0.0129
 9318TIP3   OH227917   4.044   4.117   0.277  0.1555 -0.0884  0.3349
 9318TIP3    H127918   4.051   4.050   0.209  0.5530 -0.1535  0.4413
 9318TIP3    H227919   4.046   4.069   0.359 -0.6709 -0.0409  0.3982
 9319TIP3   OH227920   4.718   3.084   3.704  0.2332  0.1711 -0.0258
 9319TIP3    H127921   4.745   2.993   3.718  0.6032  0.4449  1.2092
 9319TIP3    H227922   4.633   3.091   3.747  0.1621  0.3904 -0.1978
 9320TIP3   OH227923   0.753   2.751   3.733 -0.4552 -0.0107 -0.0403
 9320TIP3    H127924   0.797   2.723   3.813  0.1666  0.6844 -0.1295
 9320TIP3    H227925   0.664   2.716   3.742 -0.2348 -0.4150  0.6933
 9321TIP3   OH227926   1.922   1.788   1.924 -0.0751 -0.3371  0.0013
 9321TIP3    H127927   1.923   1.694   1.904  2.1868 -0.1964 -0.8845
 9321TIP3    H227928   1.895   1.793   2.015  1.6194 -2.0645  0.6680
 9322TIP3   OH227929   5.479   4.186   0.925  0.2224 -0.5412  0.3035
 9322TIP3    H127930   5.491   4.280   0.935  0.2949 -0.4183 -0.7524
 9322TIP3    H227931   5.488   4.151   1.013  0.6436  0.3878  0.6470
 9323TIP3   OH227932   4.807   1.353   4.705 -0.5013 -0.2114 -0.4095
 9323TIP3    H127933   4.895   1.337   4.671 -0.7553  0.3665 -1.3701
 9323TIP3    H227934   4.812   1.326   4.796  0.4078 -1.1059 -0.6995
 9324TIP3   OH227935   3.024   1.737   1.000 -0.3669  0.0927  0.1470
 9324TIP3    H127936   3.087   1.723   0.930  0.4888  2.2569  0.3934
 9324TIP3    H227937   2.957   1.670   0.987  1.1863 -1.2894 -1.0501
 9325TIP3   OH227938   4.159   3.162   2.210  0.4689  0.0182  0.1106
 9325TIP3    H127939   4.159   3.258   2.215  1.4399 -0.0138  1.0378
 9325TIP3    H227940   4.228   3.135   2.271 -0.8337 -1.3224  1.0663
 9326TIP3   OH227941   3.756   2.387   2.053 -0.1119  0.2637 -0.0760
 9326TIP3    H127942   3.742   2.456   2.119  1.9414  0.2590  0.4235
 9326TIP3    H227943   3.782   2.311   2.104 -0.7720 -0.4291 -0.7568
 9327TIP3   OH227944   1.147   6.406   1.748 -0.6058  0.7396 -0.0224
 9327TIP3    H127945   1.190   6.461   1.683  0.8606 -3.5805 -3.1633
 9327TIP3    H227946   1.182   6.436   1.832  0.7899  3.8123 -1.5409
 9328TIP3   OH227947   1.628   1.445   5.696 -0.2968  0.1163 -0.2083
 9328TIP3    H127948   1.566   1.455   5.768 -0.3902  1.4235 -0.4354
 9328TIP3    H227949   1.713   1.460   5.736 -0.1029 -1.5279  0.0728
 9329TIP3   OH227950   5.981   4.804   3.527  0.5949 -0.0759  0.0850
 9329TIP3    H127951   6.023   4.780   3.444  1.2177  0.7766  0.1441
 9329TIP3    H227952   5.897   4.841   3.501  0.2439 -0.9573 -0.0855
 9330TIP3   OH227953   1.411   1.841   4.520  0.4275 -0.0335 -0.5417
 9330TIP3    H127954   1.427   1.774   4.586  3.2627  0.6648 -0.4108
 9330TIP3    H227955   1.370   1.913   4.568 -0.5829 -0.7697 -0.2549
 9331TIP3   OH227956   6.555   2.473   2.881 -0.7486 -0.4930 -0.5685
 9331TIP3    H127957   6.460   2.481   2.878 -0.5842  2.3482 -1.6373
 9331TIP3    H227958   6.574   2.435   2.967 -2.7949 -0.0590  0.1248
 9332TIP3   OH227959   2.133   3.157   5.530  0.2227  0.1788  0.2495
 9332TIP3    H127960   2.121   3.065   5.554  0.6207  0.4386  1.4897
 9332TIP3    H227961   2.226   3.163   5.508  0.4278  0.4975  1.1743
 9333TIP3   OH227962   6.832   1.392   1.243 -0.2924  0.2636  0.1788
 9333TIP3    H127963   6.808   1.426   1.330  0.8109  3.2200 -0.5483
 9333TIP3    H227964   6.765   1.428   1.184  1.0323  1.4410 -0.6658
 9334TIP3   OH227965   6.259   2.863   2.745 -0.2010 -0.0281  0.2871
 9334TIP3    H127966   6.227   2.785   2.791 -1.6971  0.7685  0.6418
 9334TIP3    H227967   6.352   2.844   2.728 -0.3775 -1.6157  0.9127
 9335TIP3   OH227968   3.080   4.636   3.250 -0.8431 -0.1055 -0.4717
 9335TIP3    H127969   3.040   4.580   3.316 -0.1344  0.8539  0.7976
 9335TIP3    H227970   3.080   4.723   3.288  2.8614 -0.0861 -0.1148
 9336TIP3   OH227971   2.346   1.925   4.949  0.2565 -0.3645  0.2474
 9336TIP3    H127972   2.397   1.864   5.002 -0.2499  0.5892  1.9037
 9336TIP3    H227973   2.372   2.012   4.981 -0.5863  0.2233 -0.6053
 9337TIP3   OH227974   3.877   4.303   3.367 -0.5581 -0.1757 -0.2533
 9337TIP3    H127975   3.892   4.396   3.382 -3.7028  0.0389  2.5760
 9337TIP3    H227976   3.948   4.260   3.415 -0.1849  0.7319  0.0406
 9338TIP3   OH227977   2.408   2.958   2.188  0.0847  0.1841  0.2440
 9338TIP3    H127978   2.476   2.896   2.163 -0.5839 -0.4990  0.1021
 9338TIP3    H227979   2.454   3.025   2.238  0.6923 -0.8227  1.0630
 9339TIP3   OH227980   1.442   2.488   4.001 -0.3050  0.2111 -0.5295
 9339TIP3    H127981   1.519   2.490   4.057 -1.4722 -1.2310  1.2414
 9339TIP3    H227982   1.416   2.395   4.000 -3.2727  0.9131  0.8019
 9340TIP3   OH227983   6.222   4.288   3.750 -0.0126 -0.4037 -0.2389
 9340TIP3    H127984   6.129   4.296   3.769  0.1587 -0.1156  0.5468
 9340TIP3    H227985   6.254   4.379   3.750  0.1553 -0.4532 -1.1468
 9341TIP3   OH227986   0.715   3.347   1.920  0.1084 -0.5668  0.0624
 9341TIP3    H127987   0.633   3.363   1.967 -1.2918 -1.6698 -1.8837
 9341TIP3    H227988   0.745   3.262   1.953 -1.0800 -1.5293 -1.2283
 9342TIP3   OH227989   3.054   4.501   4.868 -0.4380  0.1730  0.3913
 9342TIP3    H127990   3.000   4.580   4.871 -0.8245 -0.1218  2.1851
 9342TIP3    H227991   3.144   4.534   4.866 -0.5722  0.6968  1.7733
 9343TIP3   OH227992   1.486   3.164   0.846  1.0156  0.7018 -0.4666
 9343TIP3    H127993   1.567   3.123   0.814  0.7516  0.5599 -0.9733
 9343TIP3    H227994   1.450   3.208   0.769  0.8547  1.1693 -0.1265
 9344TIP3   OH227995   5.801   5.531   4.477 -0.2553  0.2558  0.1927
 9344TIP3    H127996   5.888   5.571   4.475 -0.0282 -0.2010  0.6569
 9344TIP3    H227997   5.798   5.475   4.400 -0.2352  0.4695  0.0360
 9345TIP3   OH227998   6.973   0.386   1.872 -0.1412 -0.4306  0.0096
 9345TIP3    H127999   7.006   0.438   1.945  1.3693 -0.8595 -0.3226
 9345TIP3    H228000   7.037   0.315   1.862  0.5901  0.4741 -2.6853
 9346TIP3   OH228001   2.326   4.282   3.292  0.4471 -0.1018  0.4584
 9346TIP3    H128002   2.410   4.293   3.247  1.2265 -0.0149  1.8578
 9346TIP3    H228003   2.348   4.291   3.385 -0.7672 -2.1353  1.0045
 9347TIP3   OH228004   3.469   0.203   5.069  0.0327 -0.3874 -0.1482
 9347TIP3    H128005   3.470   0.115   5.032  0.1802 -0.4153 -0.0763
 9347TIP3    H228006   3.540   0.204   5.133  0.9332  0.2113 -1.1161
 9348TIP3   OH228007   2.680   1.055   5.052  0.2371  0.2509  0.1677
 9348TIP3    H128008   2.654   0.964   5.070 -2.6674  1.2127  1.4943
 9348TIP3    H228009   2.665   1.066   4.958  1.7901 -0.9040 -0.2638
 9349TIP3   OH228010   2.404   6.019   4.690  0.4922 -0.2847 -0.3929
 9349TIP3    H128011   2.415   6.029   4.595 -0.7140  0.3728 -0.4874
 9349TIP3    H228012   2.491   5.996   4.722  0.6229 -1.9368 -1.8303
 9350TIP3   OH228013   4.407   5.157   1.746 -0.1565  0.0604  0.2725
 9350TIP3    H128014   4.477   5.111   1.701  0.0941  1.5137 -0.9057
 9350TIP3    H228015   4.448   5.237   1.780 -1.1534  0.8358 -0.2666
 9351TIP3   OH228016   6.860   1.515   0.524  0.4598  0.9904  0.5633
 9351TIP3    H128017   6.780   1.567   0.516  0.4858  1.1353  1.1586
 9351TIP3    H228018   6.833   1.437   0.572  0.6760  1.0490  0.7807
 9352TIP3   OH228019   6.502   4.666   2.262  1.2158  0.3401  0.2079
 9352TIP3    H128020   6.556   4.588   2.276  0.5356 -0.4970 -1.6133
 9352TIP3    H228021   6.413   4.633   2.253  0.4339  1.6347  2.3209
 9353TIP3   OH228022   1.708   5.089   1.838 -0.6517  0.0988  0.1500
 9353TIP3    H128023   1.628   5.055   1.796 -0.0844  1.4572 -2.2496
 9353TIP3    H228024   1.678   5.166   1.887 -0.7906  1.0491 -1.3460
 9354TIP3   OH228025   0.718   4.022   5.487 -0.0984  0.4660 -0.5264
 9354TIP3    H128026   0.738   3.953   5.424 -0.4279 -0.6523  0.5625
 9354TIP3    H228027   0.696   4.098   5.433 -2.1737 -0.9505 -1.8272
 9355TIP3   OH228028   3.646   6.758   0.995  0.3398  0.0993 -0.0562
 9355TIP3    H128029   3.570   6.702   1.012  1.7282 -1.3839  1.7149
 9355TIP3    H228030   3.672   6.736   0.905 -0.8093  0.0208 -0.3821
 9356TIP3   OH228031   2.622   6.170   5.709  0.3556  0.7429 -0.2076
 9356TIP3    H128032   2.664   6.123   5.782  0.3561 -0.7113 -1.0990
 9356TIP3    H228033   2.536   6.128   5.701  0.1018  1.3337 -0.6298
 9357TIP3   OH228034   4.001   1.717   5.704 -0.4672  0.2341  0.3244
 9357TIP3    H128035   4.031   1.657   5.635 -1.1416  0.9104 -0.5670
 9357TIP3    H228036   4.062   1.701   5.776  0.4719 -0.2436 -0.5404
 9358TIP3   OH228037   1.648   5.169   3.195 -0.0955  0.4767 -0.3827
 9358TIP3    H128038   1.577   5.163   3.131  0.7756  2.3059 -1.5967
 9358TIP3    H228039   1.701   5.092   3.179 -1.1576 -0.3122 -0.2421
 9359TIP3   OH228040   6.337   4.542   3.807 -0.4720  0.4608  0.0080
 9359TIP3    H128041   6.371   4.544   3.896  0.9804  2.5527 -0.5088
 9359TIP3    H228042   6.302   4.630   3.792 -1.6312 -0.1550 -1.1598
 9360TIP3   OH228043   0.139   6.351   2.448  0.2103  0.2832 -0.1562
 9360TIP3    H128044   0.229   6.330   2.423  0.3146  0.5218  0.0193
 9360TIP3    H228045   0.147   6.408   2.524 -0.0567  1.1791 -0.7775
 9361TIP3   OH228046   2.925   1.942   0.105  0.1253 -0.0466 -0.0552
 9361TIP3    H128047   2.904   1.937   0.199  0.4553  1.1572  0.1007
 9361TIP3    H228048   2.928   1.850   0.077  0.9069 -0.4821  1.3148
 9362TIP3   OH228049   6.061   1.632   2.776 -0.1384 -0.0193 -0.0251
 9362TIP3    H128050   6.090   1.698   2.839 -1.2713 -0.7243  1.2988
 9362TIP3    H228051   6.138   1.577   2.761  0.9103  1.7412 -1.3912
 9363TIP3   OH228052   3.821   1.208   5.529 -0.4500 -0.2797 -0.0146
 9363TIP3    H128053   3.735   1.190   5.492  0.0252  0.7158 -1.7114
 9363TIP3    H228054   3.852   1.284   5.480  1.5648 -0.8646  0.2828
 9364TIP3   OH228055   6.422   2.330   0.721 -0.4875  0.4854 -0.4076
 9364TIP3    H128056   6.336   2.313   0.761 -0.6635 -2.3879 -1.7428
 9364TIP3    H228057   6.482   2.334   0.795 -1.2245 -1.6879  0.3964
 9365TIP3   OH228058   4.253   0.259   1.154 -0.4749 -0.7695  0.5094
 9365TIP3    H128059   4.227   0.323   1.087 -1.7318 -0.0469  1.6248
 9365TIP3    H228060   4.286   0.184   1.104  0.0205  0.3101 -0.8668
 9366TIP3   OH228061   3.660   0.764   3.455 -0.2209 -0.1762 -0.0692
 9366TIP3    H128062   3.579   0.727   3.421  0.5344 -2.3745  0.3673
 9366TIP3    H228063   3.729   0.708   3.420  1.1759  1.8036 -0.6602
 9367TIP3   OH228064   4.313   4.232   1.434 -0.7055 -0.1045  0.2856
 9367TIP3    H128065   4.296   4.197   1.347 -0.2541 -0.8783  0.4974
 9367TIP3    H228066   4.261   4.177   1.492 -1.0076  0.4102  0.5101
 9368TIP3   OH228067   3.459   0.330   1.675 -0.0997 -0.1592 -0.2269
 9368TIP3    H128068   3.463   0.277   1.755 -0.5111  1.8011  1.1780
 9368TIP3    H228069   3.549   0.334   1.644  0.0001 -1.3006 -0.1244
 9369TIP3   OH228070   0.914   4.903   0.812  0.4197  0.1204  0.5293
 9369TIP3    H128071   0.845   4.904   0.746  0.8904  2.9342 -0.0266
 9369TIP3    H228072   0.881   4.959   0.882  1.0028 -0.7894  1.5800
 9370TIP3   OH228073   4.471   1.882   2.795 -0.1175  0.5470  0.2365
 9370TIP3    H128074   4.444   1.791   2.801  0.4926  0.2920 -0.7756
 9370TIP3    H228075   4.391   1.929   2.770 -0.1579  0.1150 -0.4736
 9371TIP3   OH228076   6.752   3.419   5.060  0.1451 -0.0514  1.1479
 9371TIP3    H128077   6.811   3.394   5.131  1.6532 -0.4588 -0.1879
 9371TIP3    H228078   6.763   3.350   4.995 -1.7201 -0.0521  0.7733
 9372TIP3   OH228079   4.251   2.946   0.352 -0.0484  0.2750  0.2329
 9372TIP3    H128080   4.174   2.919   0.302 -0.1665 -1.5311  1.3068
 9372TIP3    H228081   4.219   3.018   0.407 -0.6192  0.4289 -0.2922
 9373TIP3   OH228082   0.635   5.212   1.392 -0.1270  0.1259 -0.3936
 9373TIP3    H128083   0.586   5.158   1.329  1.9053 -0.2752 -1.7555
 9373TIP3    H228084   0.714   5.160   1.410 -0.1074  0.7793  1.6298
 9374TIP3   OH228085   0.809   4.212   0.928  0.7361  1.2732  0.1267
 9374TIP3    H128086   0.755   4.218   0.850 -1.7262 -1.4177  1.4692
 9374TIP3    H228087   0.875   4.146   0.906 -0.3073  0.0870  0.4299
 9375TIP3   OH228088   6.390   1.401   0.335 -0.2787  0.3096 -0.3983
 9375TIP3    H128089   6.369   1.430   0.423  0.8298  0.3602 -0.1314
 9375TIP3    H228090   6.433   1.316   0.346  0.4415  0.6044 -0.8203
 9376TIP3   OH228091   0.376   1.986   3.774 -0.4076 -0.3214 -0.1655
 9376TIP3    H128092   0.348   2.006   3.864 -0.2308  0.4747 -0.2845
 9376TIP3    H228093   0.294   1.964   3.729 -0.9322  2.1710 -0.5545
 9377TIP3   OH228094   2.833   6.531   2.121  0.1985 -0.1602  0.5208
 9377TIP3    H128095   2.848   6.617   2.160 -0.8771  0.4410 -0.3047
 9377TIP3    H228096   2.890   6.530   2.044 -0.8166  0.4255 -0.2715
 9378TIP3   OH228097   1.999   6.407   1.840 -0.2684 -0.3509 -0.0862
 9378TIP3    H128098   2.069   6.469   1.817 -1.6746  1.5638  0.5329
 9378TIP3    H228099   1.996   6.409   1.936 -0.1894 -1.5898 -0.0440
 9379TIP3   OH228100   2.653   5.662   5.099  0.0270 -0.0463 -0.1946
 9379TIP3    H128101   2.637   5.589   5.039 -0.8275  0.1467 -0.2198
 9379TIP3    H228102   2.693   5.730   5.044 -0.2061 -0.0875 -0.4160
 9380TIP3   OH228103   0.126   0.485   0.838  0.1205 -0.7579  0.3634
 9380TIP3    H128104   0.068   0.535   0.895  0.4553  1.2939 -0.9980
 9380TIP3    H228105   0.068   0.428   0.787 -0.4633 -0.4174  0.6456
 9381TIP3   OH228106   6.787   6.772   4.169 -0.9517 -0.0622 -0.0750
 9381TIP3    H128107   6.741   6.754   4.250  1.0351  0.4097  1.2381
 9381TIP3    H228108   6.865   6.822   4.196 -0.4367  0.4739 -2.3081
 9382TIP3   OH228109   1.486   2.847   3.386  0.1493 -0.5644 -0.0336
 9382TIP3    H128110   1.395   2.865   3.410 -0.0245  0.0107 -1.0936
 9382TIP3    H228111   1.481   2.769   3.331  0.1898 -0.0423 -0.7950
 9383TIP3   OH228112   5.465   0.017   0.705 -0.4024 -0.3457 -0.0704
 9383TIP3    H128113   5.405   0.086   0.676  0.8236  1.1078  0.6833
 9383TIP3    H228114   5.513  -0.008   0.626 -0.3301  0.2184 -0.2077
 9384TIP3   OH228115   4.520   1.877   0.082 -0.1832 -0.2915  0.4519
 9384TIP3    H128116   4.496   1.883   0.174 -0.2535  0.8047  0.3767
 9384TIP3    H228117   4.466   1.943   0.038 -1.1918 -1.7334 -0.6140
 9385TIP3   OH228118   0.240   0.305   5.462  0.4565  0.7826 -0.0862
 9385TIP3    H128119   0.290   0.241   5.514 -1.1942  0.5008  1.2361
 9385TIP3    H228120   0.149   0.280   5.474 -0.1284  2.3695 -0.9583
 9386TIP3   OH228121   4.409   0.328   3.798 -0.0832 -0.4205  0.0083
 9386TIP3    H128122   4.475   0.342   3.730 -0.9915  1.0505 -0.6205
 9386TIP3    H228123   4.328   0.311   3.750 -0.4198 -0.9968  0.7541
 9387TIP3   OH228124   0.294   4.578   0.663  0.3587  0.3841  0.1783
 9387TIP3    H128125   0.276   4.488   0.691 -1.6835  0.8134  0.4166
 9387TIP3    H228126   0.299   4.572   0.568  1.0827 -0.0926  0.2338
 9388TIP3   OH228127   6.770   4.928   1.206  0.2503 -0.0187 -0.0635
 9388TIP3    H128128   6.827   4.857   1.235 -2.0964 -1.9447  0.2094
 9388TIP3    H228129   6.766   4.919   1.111  3.2273  2.5242 -0.5795
 9389TIP3   OH228130   4.794   1.236   0.010  0.2060 -0.6522 -0.1523
 9389TIP3    H128131   4.864   1.172   0.026 -1.0973 -2.0555  0.1544
 9389TIP3    H228132   4.734   1.223   0.083  0.8454  2.3480  1.0451
 9390TIP3   OH228133   2.930   5.935   0.815  0.1552 -0.0995  0.5527
 9390TIP3    H128134   3.004   5.990   0.788 -0.8866  1.2474  0.2943
 9390TIP3    H228135   2.969   5.853   0.844  1.6170 -0.2724 -1.6446
 9391TIP3   OH228136   4.197   0.805   0.088 -0.3310 -0.1333  0.5564
 9391TIP3    H128137   4.218   0.796   0.181 -0.0898  1.4674  0.6715
 9391TIP3    H228138   4.281   0.793   0.043 -0.5489 -1.5594  0.4611
 9392TIP3   OH228139   2.314   1.625   5.106 -0.0309 -0.1772 -0.5538
 9392TIP3    H128140   2.394   1.604   5.059 -0.0532 -1.6222  0.0066
 9392TIP3    H228141   2.267   1.542   5.113 -0.4968  0.1828  1.1288
 9393TIP3   OH228142   3.644   0.581   4.394 -0.0148  0.3759 -0.0689
 9393TIP3    H128143   3.652   0.670   4.359 -0.7659  0.4680 -0.0131
 9393TIP3    H228144   3.659   0.591   4.488  2.6045  0.0453 -0.3727
 9394TIP3   OH228145   0.688   6.239   1.733 -0.2569  0.0145  0.3334
 9394TIP3    H128146   0.749   6.310   1.753 -1.1627  0.2442  2.4909
 9394TIP3    H228147   0.734   6.160   1.762 -0.7044  0.1240  1.3760
 9395TIP3   OH228148   1.199   5.783   0.299  1.0577 -0.2137 -0.5011
 9395TIP3    H128149   1.220   5.867   0.341  0.2677 -0.8395  1.2131
 9395TIP3    H228150   1.271   5.726   0.325  0.0454 -0.8923  0.9583
 9396TIP3   OH228151   0.841   5.205   0.516  0.2240  0.5724 -0.2037
 9396TIP3    H128152   0.885   5.232   0.596  2.5091  0.1868 -1.2573
 9396TIP3    H228153   0.859   5.275   0.453 -0.5094  0.2956 -0.7422
 9397TIP3   OH228154   0.330   2.212   2.720 -0.5154  0.0298  0.3433
 9397TIP3    H128155   0.271   2.168   2.781  1.9561 -2.7110  0.9966
 9397TIP3    H228156   0.406   2.237   2.772  0.9451 -0.8929 -1.2018
 9398TIP3   OH228157   2.369   3.271   5.884 -0.5030  0.5664  0.1100
 9398TIP3    H128158   2.462   3.273   5.865 -0.4942  2.2114  0.1906
 9398TIP3    H228159   2.334   3.201   5.828  0.6757  0.3374 -0.3561
 9399TIP3   OH228160   6.360   5.995   0.307 -0.4744  0.1379 -0.4167
 9399TIP3    H128161   6.270   5.975   0.333 -0.6650  0.1854 -1.0142
 9399TIP3    H228162   6.352   6.031   0.218  0.1365  0.1205 -0.4857
 9400TIP3   OH228163   2.451   6.154   0.312 -0.1596 -0.1154  0.5653
 9400TIP3    H128164   2.421   6.073   0.271 -0.0704  0.6395 -1.0639
 9400TIP3    H228165   2.498   6.201   0.243  0.6508  0.8965  1.7402
 9401TIP3   OH228166   6.848   0.267   0.097 -0.1621 -0.1213 -0.2122
 9401TIP3    H128167   6.846   0.321   0.018 -0.6632 -0.3609 -0.3670
 9401TIP3    H228168   6.936   0.227   0.097  0.0321  0.3008 -0.3537
 9402TIP3   OH228169   5.802   0.039   0.309  0.1316 -0.0003 -0.4553
 9402TIP3    H128170   5.829   0.107   0.248  0.5695 -1.4702 -2.0057
 9402TIP3    H228171   5.872  -0.027   0.303  0.4120 -0.0395  1.9825
 9403TIP3   OH228172   1.722   0.513   3.270 -0.0570 -0.4285 -0.4553
 9403TIP3    H128173   1.695   0.480   3.184 -1.1497 -1.9293  0.4092
 9403TIP3    H228174   1.766   0.596   3.251 -0.1798 -0.7641 -2.4613
 9404TIP3   OH228175   2.064   4.566   4.417  0.1829  0.0852 -0.1739
 9404TIP3    H128176   2.002   4.635   4.398  0.3193  0.5985  1.1466
 9404TIP3    H228177   2.011   4.495   4.454  0.4450  0.9543  2.0372
 9405TIP3   OH228178   1.266   1.576   2.876  0.3472 -0.6419 -0.2762
 9405TIP3    H128179   1.237   1.614   2.959  2.2766 -0.0227  0.1687
 9405TIP3    H228180   1.254   1.482   2.888 -3.0860 -0.4034 -0.8344
 9406TIP3   OH228181   1.259   0.036   0.584 -0.3400 -0.0324 -0.8280
 9406TIP3    H128182   1.168   0.007   0.570 -0.4847  0.3302 -0.6626
 9406TIP3    H228183   1.252   0.132   0.591 -0.0543 -0.0646 -0.0077
 9407TIP3   OH228184   7.026   6.826   4.816  0.0984  0.5913  0.1858
 9407TIP3    H128185   7.119   6.802   4.823  0.5409  1.4156 -2.2253
 9407TIP3    H228186   6.979   6.747   4.843  1.4266  0.4443  2.3727
 9408TIP3   OH228187   5.727   2.922   3.174 -0.0374  0.1989 -0.1224
 9408TIP3    H128188   5.761   2.973   3.247 -1.4030  1.3491 -0.2432
 9408TIP3    H228189   5.635   2.907   3.196 -0.2800 -0.0797 -1.2574
 9409TIP3   OH228190   4.039   2.244   4.351  0.1098  0.8011 -0.0373
 9409TIP3    H128191   4.124   2.284   4.371  0.3017  1.2628 -1.6208
 9409TIP3    H228192   3.997   2.305   4.291  0.6037 -1.5160 -2.9597
 9410TIP3   OH228193   3.736   4.746   1.824  0.0284  0.3298 -0.3817
 9410TIP3    H128194   3.658   4.760   1.878  0.4126  1.0192 -0.0022
 9410TIP3    H228195   3.763   4.657   1.843 -0.4422  0.2167 -0.2260
 9411TIP3   OH228196   3.478   5.189   5.159  0.2762  0.2876 -0.1814
 9411TIP3    H128197   3.545   5.221   5.220  0.0830 -3.0150  1.9720
 9411TIP3    H228198   3.401   5.241   5.178  1.2586  1.9194 -0.4132
 9412TIP3   OH228199   2.168   5.055   2.135  0.2778  0.0991 -0.0821
 9412TIP3    H128200   2.167   5.068   2.230  2.0978  0.7675 -0.1073
 9412TIP3    H228201   2.078   5.072   2.107 -0.0768  0.8168  1.4118
 9413TIP3   OH228202   1.777   4.823   4.775 -0.1760 -0.0210 -0.4200
 9413TIP3    H128203   1.798   4.775   4.855  0.2511 -0.9203 -1.0588
 9413TIP3    H228204   1.716   4.891   4.804 -0.6173 -0.7954  0.5547
 9414TIP3   OH228205   0.683   3.890   3.346 -0.4879  0.6130 -0.1441
 9414TIP3    H128206   0.695   3.904   3.439 -0.4041  2.7498 -0.4376
 9414TIP3    H228207   0.624   3.814   3.341 -2.5844  1.9740  1.7326
 9415TIP3   OH228208   1.266   5.152   0.389 -0.5227 -0.1003  0.5770
 9415TIP3    H128209   1.282   5.216   0.319  0.1063 -2.1628 -1.2790
 9415TIP3    H228210   1.204   5.090   0.351  0.1435 -1.5033  1.6832
 9416TIP3   OH228211   5.603   1.415   4.478  0.2940 -0.3913 -0.2798
 9416TIP3    H128212   5.551   1.380   4.406 -0.1798 -2.2659  0.9092
 9416TIP3    H228213   5.544   1.474   4.525  1.2748  2.7633 -2.6504
 9417TIP3   OH228214   3.318   2.662   4.148  0.5618  0.6253  0.7655
 9417TIP3    H128215   3.269   2.590   4.109 -0.0481  0.3368  2.0235
 9417TIP3    H228216   3.380   2.688   4.080  0.3065 -0.6073  0.0282
 9418TIP3   OH228217   5.502   0.318   2.060 -0.4527 -0.4207  0.4777
 9418TIP3    H128218   5.520   0.404   2.023 -0.6283  0.8425  3.0434
 9418TIP3    H228219   5.411   0.323   2.088  0.3448 -0.1798  3.4330
 9419TIP3   OH228220   0.025   5.020   5.410 -0.6433  0.0105 -0.2732
 9419TIP3    H128221  -0.069   5.028   5.424 -0.3883  0.9294  1.1884
 9419TIP3    H228222   0.059   4.989   5.494  0.4292  0.2938 -0.5865
 9420TIP3   OH228223   4.611   5.071   0.301 -0.0061  0.1408 -0.1339
 9420TIP3    H128224   4.650   5.132   0.363 -0.0615  1.0014 -0.9309
 9420TIP3    H228225   4.661   4.990   0.312 -0.4465  0.0594  1.4959
 9421TIP3   OH228226   1.055   5.792   1.462  0.4331 -0.2123 -0.2145
 9421TIP3    H128227   1.113   5.835   1.526  1.9810  0.7639 -2.1451
 9421TIP3    H228228   1.018   5.865   1.412  0.8985 -0.9925 -1.7467
 9422TIP3   OH228229   0.095   4.036   4.189  0.2892  0.4552  0.0295
 9422TIP3    H128230   0.146   4.003   4.263 -1.6113 -0.6154  0.9378
 9422TIP3    H228231   0.141   4.004   4.111  1.3501  0.1056  0.7808
 9423TIP3   OH228232   1.497   3.687   1.623 -0.3693 -0.4363 -0.3470
 9423TIP3    H128233   1.444   3.657   1.697  0.8683 -2.7598 -0.3242
 9423TIP3    H228234   1.504   3.782   1.636 -2.8014 -0.3157  0.7269
 9424TIP3   OH228235   6.270   2.226   3.871 -0.3964 -0.3515  0.2120
 9424TIP3    H128236   6.229   2.146   3.838  1.2240 -0.9406 -0.5126
 9424TIP3    H228237   6.283   2.210   3.965 -1.4251 -0.3163  0.3655
 9425TIP3   OH228238   0.329   1.313   2.127  0.5484 -0.6129 -0.5664
 9425TIP3    H128239   0.318   1.295   2.220 -1.0116 -0.8277 -0.7551
 9425TIP3    H228240   0.308   1.230   2.084  1.3952 -0.5540 -1.1089
 9426TIP3   OH228241   0.556   0.970   4.604  0.4319 -0.1571 -0.4366
 9426TIP3    H128242   0.592   1.024   4.534  1.3098  0.5258  0.5169
 9426TIP3    H228243   0.551   1.028   4.679 -0.1965 -0.9657  0.1618
 9427TIP3   OH228244   2.140   3.477   0.206  0.0650  0.3370  0.5271
 9427TIP3    H128245   2.050   3.510   0.209  0.1107  0.4616  0.5456
 9427TIP3    H228246   2.131   3.384   0.187 -0.0530  0.4274  0.1272
 9428TIP3   OH228247   5.964   3.890   1.026 -0.3349 -0.6816  0.0599
 9428TIP3    H128248   6.044   3.889   1.078 -0.5207  0.4094  0.3847
 9428TIP3    H228249   5.994   3.879   0.935  0.0053 -2.3453  0.3373
 9429TIP3   OH228250   6.957   6.525   4.356  0.2298 -0.5712 -0.1834
 9429TIP3    H128251   6.865   6.539   4.333  0.0947  0.2361  0.7606
 9429TIP3    H228252   7.005   6.542   4.275 -0.4257 -0.6938 -0.6065
 9430TIP3   OH228253   4.789   2.695   1.070  0.1810  0.3262  0.2098
 9430TIP3    H128254   4.856   2.630   1.050  0.4179  0.6876 -0.1947
 9430TIP3    H228255   4.835   2.763   1.120 -0.0150  0.2936  0.4375
 9431TIP3   OH228256   0.238   4.211   4.583 -0.3409  0.5527  0.0940
 9431TIP3    H128257   0.173   4.146   4.610  0.2612  0.2442  0.8498
 9431TIP3    H228258   0.190   4.272   4.527 -1.1783  0.0990  0.3062
 9432TIP3   OH228259   5.992   5.392   2.067  1.1084 -0.3982  0.0912
 9432TIP3    H128260   5.905   5.371   2.103  1.0238 -0.6848 -0.2778
 9432TIP3    H228261   5.974   5.428   1.981  1.4478 -2.6386 -0.9920
 9433TIP3   OH228262   2.288   4.856   3.209  0.2983 -0.0435 -0.0702
 9433TIP3    H128263   2.246   4.884   3.290 -0.3811 -0.9060 -0.1094
 9433TIP3    H228264   2.306   4.762   3.222 -0.3547 -0.3288 -1.1313
 9434TIP3   OH228265   0.462   0.687   0.040 -0.0050 -0.0113  0.3518
 9434TIP3    H128266   0.501   0.707   0.125  0.8152 -0.0609 -0.0039
 9434TIP3    H228267   0.417   0.604   0.053 -1.3023  0.7881  1.1708
 9435TIP3   OH228268   5.510   1.346   3.864 -0.6858  0.0573 -0.3060
 9435TIP3    H128269   5.490   1.438   3.878  0.4768  0.1294  1.2539
 9435TIP3    H228270   5.460   1.300   3.932 -0.2983 -0.3363 -0.2813
 9436TIP3   OH228271   6.307   3.048   4.877 -0.7396  0.1101  0.3819
 9436TIP3    H128272   6.302   3.020   4.786 -0.6668 -0.6865  0.6160
 9436TIP3    H228273   6.225   3.095   4.892 -0.7935  0.1689 -0.0668
 9437TIP3   OH228274   1.397  -0.013   3.507  0.2809 -0.0367  0.1279
 9437TIP3    H128275   1.461   0.029   3.450  0.0579 -1.8719 -1.5842
 9437TIP3    H228276   1.312   0.018   3.474  0.1791 -0.2585  0.1820
 9438TIP3   OH228277   0.769   2.746   0.828  0.6741  0.4630 -0.4904
 9438TIP3    H128278   0.792   2.657   0.851  0.6225  0.3725 -0.7817
 9438TIP3    H228279   0.729   2.782   0.907  1.8289  0.6373  0.0432
 9439TIP3   OH228280   3.728   5.408   5.551 -0.5809 -0.1955  0.4242
 9439TIP3    H128281   3.696   5.493   5.580  1.3686  0.4677  0.8033
 9439TIP3    H228282   3.823   5.413   5.563  0.0706 -1.0050 -3.1919
 9440TIP3   OH228283   2.471   4.304   4.832 -0.3445 -0.4815 -0.2640
 9440TIP3    H128284   2.522   4.327   4.909 -1.8500 -1.3654  1.0538
 9440TIP3    H228285   2.533   4.261   4.774  0.9068  0.5562  0.2544
 9441TIP3   OH228286   4.647   4.488   4.351  0.5503  0.2717  0.3079
 9441TIP3    H128287   4.657   4.582   4.342  0.9813  0.2356  0.4081
 9441TIP3    H228288   4.647   4.455   4.261 -1.4009  0.5398  0.1730
 9442TIP3   OH228289   3.841   6.118   0.567 -0.6126  0.4051  0.5634
 9442TIP3    H128290   3.836   6.066   0.647  0.0840  0.3327  0.5637
 9442TIP3    H228291   3.793   6.066   0.502  0.3074 -0.3778  0.4914
 9443TIP3   OH228292   5.639   2.989   4.507  0.3498  0.1714 -0.6046
 9443TIP3    H128293   5.574   3.059   4.496  0.2176 -0.0499 -1.3345
 9443TIP3    H228294   5.604   2.934   4.576  1.2886  1.7446  1.2471
 9444TIP3   OH228295   0.701   2.807   4.759 -0.9195  0.2681  0.0552
 9444TIP3    H128296   0.756   2.747   4.810 -0.7276  0.5780  0.2170
 9444TIP3    H228297   0.757   2.883   4.744 -1.2902  0.5677  0.1811
 9445TIP3   OH228298   6.821   4.432   0.650  0.5422 -0.0760  0.0266
 9445TIP3    H128299   6.908   4.458   0.620 -0.9088  2.6868 -2.2915
 9445TIP3    H228300   6.797   4.357   0.595  0.5276  0.7248 -1.0720
 9446TIP3   OH228301   6.251   0.912   3.233  0.0055 -0.5980 -0.0792
 9446TIP3    H128302   6.171   0.965   3.227  1.7884  2.6309  2.3547
 9446TIP3    H228303   6.256   0.886   3.325  2.9877  1.5376  0.4800
 9447TIP3   OH228304   0.243   0.195   4.681  0.2212  0.1622 -0.4141
 9447TIP3    H128305   0.263   0.103   4.697  0.0616  0.0510 -0.8510
 9447TIP3    H228306   0.323   0.241   4.707  0.3762 -0.1148 -0.3894
 9448TIP3   OH228307   4.986   5.845   4.966 -0.0442  0.2967  0.2652
 9448TIP3    H128308   4.926   5.839   4.892 -0.8745 -0.9628  1.0115
 9448TIP3    H228309   4.930   5.850   5.043  0.7951  2.1255  0.8321
 9449TIP3   OH228310   2.450   0.857   2.813  0.2188 -0.5265  0.5706
 9449TIP3    H128311   2.495   0.784   2.856  0.3281  0.2893  1.8855
 9449TIP3    H228312   2.442   0.923   2.881 -0.3995  0.4707 -0.4505
 9450TIP3   OH228313   2.108   0.924   2.904 -0.7245 -0.1323 -0.4847
 9450TIP3    H128314   2.129   0.836   2.935 -0.7345 -0.1788 -0.6063
 9450TIP3    H228315   2.120   0.919   2.809 -1.0524 -0.0951 -0.5318
 9451TIP3   OH228316   3.773   5.012   1.902  0.5820  0.3180 -0.2173
 9451TIP3    H128317   3.762   4.920   1.877 -1.1104 -0.2031  2.0521
 9451TIP3    H228318   3.859   5.016   1.943  0.0502 -0.6787  1.0686
 9452TIP3   OH228319   3.468   1.047   0.528 -0.3017  0.1408 -0.3732
 9452TIP3    H128320   3.537   1.111   0.510  1.5402 -1.6191  0.0799
 9452TIP3    H228321   3.469   0.989   0.451 -0.5270 -0.5170  0.1168
 9453TIP3   OH228322   0.253   6.226   1.384 -0.0309 -0.7929 -0.3702
 9453TIP3    H128323   0.318   6.180   1.332 -0.8373 -0.6580 -1.5309
 9453TIP3    H228324   0.253   6.181   1.468  3.4506  0.8230  0.6869
 9454TIP3   OH228325   7.110   6.198   3.548  0.1696 -0.3306  0.3341
 9454TIP3    H128326   7.118   6.264   3.479 -0.1162  0.3696  0.9616
 9454TIP3    H228327   7.131   6.115   3.504  0.4369  0.1589 -0.4835
 9455TIP3   OH228328   3.665   2.746   4.376  0.1797 -0.5736 -0.7625
 9455TIP3    H128329   3.580   2.704   4.391  0.1031 -0.4731 -0.9146
 9455TIP3    H228330   3.706   2.694   4.307 -0.7971  0.8254 -2.4948
 9456TIP3   OH228331   6.678   5.634   2.696 -0.0109 -0.0162 -0.0862
 9456TIP3    H128332   6.594   5.592   2.716  0.0457 -0.5027 -0.8338
 9456TIP3    H228333   6.674   5.718   2.741 -1.5725  0.6834 -1.4460
 9457TIP3   OH228334   4.714   4.971   2.869 -0.2639  0.3125  0.1715
 9457TIP3    H128335   4.743   4.978   2.778 -1.4056  0.2607 -0.2068
 9457TIP3    H228336   4.644   5.036   2.877  0.7343  1.2936  1.4058
 9458TIP3   OH228337   6.965   4.058   2.609 -0.1934 -0.6993 -0.3479
 9458TIP3    H128338   6.885   4.019   2.575 -1.0503 -1.2222  2.0665
 9458TIP3    H228339   7.009   3.987   2.656  0.8464 -0.0176 -0.2576
 9459TIP3   OH228340   2.583   5.930   2.692 -0.1884 -0.0629 -0.7852
 9459TIP3    H128341   2.521   5.859   2.683 -1.8966  1.3148 -0.4563
 9459TIP3    H228342   2.531   6.010   2.677  1.0670  1.2477  1.2453
 9460TIP3   OH228343   5.270   1.143   3.562  0.2236  0.0356 -0.0413
 9460TIP3    H128344   5.305   1.227   3.590 -0.9532 -0.0705  1.9795
 9460TIP3    H228345   5.186   1.164   3.520  0.6691 -0.0271 -0.9801
 9461TIP3   OH228346   5.404   0.058   2.973  0.1056 -0.5042 -0.8746
 9461TIP3    H128347   5.351   0.016   3.041 -1.1360 -0.3842 -1.7602
 9461TIP3    H228348   5.465   0.114   3.022  0.0394 -1.3349  0.1887
 9462TIP3   OH228349   2.312   3.143   4.018  0.2066  0.4483  0.4267
 9462TIP3    H128350   2.232   3.194   4.030  0.8304  1.4399  0.5350
 9462TIP3    H228351   2.314   3.084   4.094 -1.0390 -0.4898 -0.2300
 9463TIP3   OH228352   1.285   1.599   4.381 -0.2750 -0.3661  0.5293
 9463TIP3    H128353   1.308   1.603   4.288 -2.0559  0.2329  0.0817
 9463TIP3    H228354   1.327   1.676   4.419 -0.4844  0.0167 -0.0065
 9464TIP3   OH228355   6.186   0.235   1.399 -0.1981 -0.5228  0.2095
 9464TIP3    H128356   6.260   0.192   1.356 -0.1645 -0.1267 -0.1254
 9464TIP3    H228357   6.120   0.245   1.331 -0.0482  0.3336  0.1735
 9465TIP3   OH228358   1.494   5.758   3.576 -0.4480  0.2144 -0.3804
 9465TIP3    H128359   1.515   5.666   3.562  0.7550  0.1798  1.3091
 9465TIP3    H228360   1.417   5.757   3.633 -0.6509  0.2625 -0.6523
 9466TIP3   OH228361   3.253   5.439   4.953  0.4627  0.2855  0.3226
 9466TIP3    H128362   3.278   5.442   5.046  0.2648 -1.1694  0.4471
 9466TIP3    H228363   3.159   5.458   4.953 -0.5328 -3.6278  0.9561
 9467TIP3   OH228364   2.405   3.813   1.789  0.2935 -0.9606 -0.3669
 9467TIP3    H128365   2.476   3.752   1.774 -0.7536 -2.7072  1.2748
 9467TIP3    H228366   2.332   3.758   1.818 -1.1819  0.9276 -0.3087
 9468TIP3   OH228367   3.592   5.622   5.665  0.0951 -0.2176 -0.0195
 9468TIP3    H128368   3.524   5.662   5.611  0.0146  0.1536  0.3553
 9468TIP3    H228369   3.602   5.681   5.740  0.8304 -0.2667 -0.0713
 9469TIP3   OH228370   0.480   2.601   2.246 -0.9184 -0.4585  0.0665
 9469TIP3    H128371   0.532   2.617   2.324 -0.3968  0.8010 -0.5139
 9469TIP3    H228372   0.544   2.592   2.176 -1.4585  1.4769 -0.7275
 9470TIP3   OH228373   2.532   5.760   0.725 -0.0181 -0.1039 -0.0609
 9470TIP3    H128374   2.443   5.735   0.702 -0.4451  0.1433  1.2040
 9470TIP3    H228375   2.572   5.679   0.757  1.5225 -1.1626 -4.0998
 9471TIP3   OH228376   4.734   0.455   1.793 -0.2275  0.4978 -0.4580
 9471TIP3    H128377   4.797   0.519   1.760 -0.6307  0.7634 -0.7216
 9471TIP3    H228378   4.700   0.412   1.715  0.2310 -0.2264 -0.2662
 9472TIP3   OH228379   6.798   2.118   2.564  0.0005 -0.3321 -0.2415
 9472TIP3    H128380   6.871   2.181   2.568 -0.1762 -0.1921  1.8710
 9472TIP3    H228381   6.805   2.068   2.645 -0.8454 -1.9659 -1.1327
 9473TIP3   OH228382   6.778   2.635   3.291  0.2822 -0.3408  0.4301
 9473TIP3    H128383   6.698   2.658   3.340 -0.0211  0.7008 -0.5174
 9473TIP3    H228384   6.799   2.714   3.241  0.2656 -1.5223 -1.5420
 9474TIP3   OH228385   0.960   3.255   5.793  0.5843  0.0431  0.2021
 9474TIP3    H128386   0.902   3.330   5.810 -1.3743 -1.1677 -0.8804
 9474TIP3    H228387   1.038   3.274   5.846 -0.8163  1.6777  1.8525
 9475TIP3   OH228388   3.284   6.650   1.815 -0.4707  0.1473 -0.1855
 9475TIP3    H128389   3.358   6.711   1.822  0.0696 -0.3123 -1.4871
 9475TIP3    H228390   3.207   6.706   1.813 -0.1115  0.6801  0.4500
 9476TIP3   OH228391   2.381   0.424   0.289 -0.4086  0.1248 -0.1418
 9476TIP3    H128392   2.384   0.335   0.324  1.1168 -0.2809 -1.1998
 9476TIP3    H228393   2.290   0.451   0.300 -1.2543 -2.1069 -1.0882
 9477TIP3   OH228394   4.914   2.857   4.561 -0.0501  0.1233 -0.3808
 9477TIP3    H128395   4.941   2.787   4.501  0.8025  0.1128 -0.0083
 9477TIP3    H228396   4.821   2.869   4.544 -0.4709 -1.8338  0.2752
 9478TIP3   OH228397   3.078   4.039   0.596  0.9163 -0.2323 -0.0093
 9478TIP3    H128398   3.096   3.998   0.681  2.3113  0.7002  0.1801
 9478TIP3    H228399   3.130   3.987   0.534 -0.0609 -0.8806 -0.2959
 9479TIP3   OH228400   3.549   5.708   4.371  0.0001 -0.3126 -0.3463
 9479TIP3    H128401   3.605   5.785   4.380  0.8750 -1.0449  0.7180
 9479TIP3    H228402   3.579   5.666   4.291  0.6722 -0.4451 -0.0330
 9480TIP3   OH228403   2.957   5.014   0.480  0.6590 -1.0881 -0.2446
 9480TIP3    H128404   2.939   4.926   0.513  0.0468 -0.6640  0.5941
 9480TIP3    H228405   2.872   5.048   0.453  0.6750 -0.2932  0.6416
 9481TIP3   OH228406   3.756   2.173   1.547  0.4309  0.2332  0.4352
 9481TIP3    H128407   3.757   2.119   1.626 -1.5348 -2.3576 -1.1488
 9481TIP3    H228408   3.820   2.131   1.489 -1.2044 -0.5632 -0.8696
 9482TIP3   OH228409   2.009   3.573   0.787 -0.2056 -0.3866 -0.5371
 9482TIP3    H128410   1.985   3.493   0.832  3.4357 -1.1506  0.3766
 9482TIP3    H228411   2.052   3.544   0.706 -1.2820  0.7704 -1.5671
 9483TIP3   OH228412   6.548   6.215   5.185 -0.1396 -0.2604  0.1403
 9483TIP3    H128413   6.487   6.270   5.234 -1.1790 -0.6233 -0.7153
 9483TIP3    H228414   6.493   6.169   5.121  1.0986 -0.2615 -0.9505
 9484TIP3   OH228415   5.137   5.898   4.405 -0.4814 -0.1972 -0.5482
 9484TIP3    H128416   5.120   5.804   4.397 -2.5060  0.0774  0.1650
 9484TIP3    H228417   5.228   5.907   4.375 -0.1696 -2.3865 -0.4864
 9485TIP3   OH228418   3.763   6.576   3.150  0.1061 -0.2349  0.1002
 9485TIP3    H128419   3.719   6.540   3.227  1.0792  0.3779  0.9819
 9485TIP3    H228420   3.736   6.668   3.148 -0.6448 -0.4636 -0.8476
 9486TIP3   OH228421   1.618   3.187   0.576  0.2613  0.0526  0.5101
 9486TIP3    H128422   1.543   3.246   0.574 -1.3993 -1.9117 -1.9992
 9486TIP3    H228423   1.694   3.245   0.579 -1.2677  2.1389  2.0882
 9487TIP3   OH228424   5.262   5.213   4.160 -0.6219  0.0835  0.2076
 9487TIP3    H128425   5.197   5.277   4.129 -0.7912  1.1431  2.5052
 9487TIP3    H228426   5.340   5.266   4.178 -0.3521 -0.5531  0.9517
 9488TIP3   OH228427   2.926   6.043   5.689 -0.6058  0.1470  0.3712
 9488TIP3    H128428   2.991   6.067   5.755 -2.0993  0.4207  1.8059
 9488TIP3    H228429   2.898   6.126   5.652 -1.5086  0.2022  1.1392
 9489TIP3   OH228430   6.537   0.836   2.979 -0.0188  0.7615  0.1727
 9489TIP3    H128431   6.544   0.806   2.888 -0.7448 -0.5171  0.5248
 9489TIP3    H228432   6.458   0.891   2.979  1.1137  2.4970 -0.3884
 9490TIP3   OH228433   5.995   3.575   2.355  0.1465  0.7760  0.1177
 9490TIP3    H128434   5.963   3.632   2.425 -3.3961 -1.9647  1.0101
 9490TIP3    H228435   6.086   3.603   2.340 -0.1151  3.8614  3.2084
 9491TIP3   OH228436   1.198   0.769   0.663 -0.2403  0.7247 -0.0270
 9491TIP3    H128437   1.184   0.862   0.642  0.0006  0.7917  0.1116
 9491TIP3    H228438   1.131   0.723   0.612  0.2979  0.8902 -0.9031
 9492TIP3   OH228439   3.873   0.937   0.567 -0.0554 -0.5717 -0.5787
 9492TIP3    H128440   3.794   0.970   0.609 -0.2455  0.8429 -1.9712
 9492TIP3    H228441   3.868   0.969   0.477  2.3142 -0.0917 -0.5997
 9493TIP3   OH228442   2.578   3.485   1.263 -0.1005 -0.1542  0.1734
 9493TIP3    H128443   2.640   3.413   1.271  1.5175  0.9362 -1.6657
 9493TIP3    H228444   2.538   3.472   1.176 -2.3271 -0.6895  1.2108
 9494TIP3   OH228445   2.219   3.482   5.788 -0.5242 -0.7755 -0.3516
 9494TIP3    H128446   2.140   3.436   5.759 -0.4210 -0.5636 -0.9808
 9494TIP3    H228447   2.258   3.422   5.852 -1.0831 -0.9722 -0.1829
 9495TIP3   OH228448   3.471   2.101   0.506  0.2827 -0.6346  0.1667
 9495TIP3    H128449   3.429   2.038   0.449 -1.9447  1.5952 -0.8605
 9495TIP3    H228450   3.425   2.092   0.590  1.0005 -1.3425  0.5027
 9496TIP3   OH228451   3.464   6.630   4.554 -0.3867 -0.3683  0.4832
 9496TIP3    H128452   3.429   6.717   4.537  0.4287 -0.2266 -0.5914
 9496TIP3    H228453   3.399   6.588   4.611 -1.8272  0.1964 -0.6924
 9497TIP3   OH228454   2.673   3.482   0.036  0.1614 -0.3961 -0.3513
 9497TIP3    H128455   2.671   3.569   0.075 -1.3313 -0.3229 -0.5247
 9497TIP3    H228456   2.744   3.437   0.081  0.8702  0.8595 -0.1713
 9498TIP3   OH228457   1.475   2.255   4.244 -0.5907 -0.0800 -0.1150
 9498TIP3    H128458   1.420   2.190   4.201 -0.7684 -0.7879  1.1370
 9498TIP3    H228459   1.414   2.324   4.271 -0.5231  0.2148 -0.6948
 9499TIP3   OH228460   1.714   5.827   4.715  0.0053 -0.0991  0.4262
 9499TIP3    H128461   1.758   5.839   4.630  1.5780  0.3446  1.2667
 9499TIP3    H228462   1.659   5.749   4.702  0.4349 -0.2153 -0.9121
 9500TIP3   OH228463   3.053   3.393   3.735  0.4867  0.5230 -0.3667
 9500TIP3    H128464   3.103   3.462   3.690  1.1314  0.1930 -0.1760
 9500TIP3    H228465   3.110   3.316   3.732  0.3309  0.3534  0.5636
 9501TIP3   OH228466   1.970   3.985   0.159 -0.2516 -0.1315 -0.2811
 9501TIP3    H128467   1.985   4.069   0.201 -1.2783 -0.1396  0.1052
 9501TIP3    H228468   2.003   3.921   0.222 -0.1462 -0.0571 -0.2600
 9502TIP3   OH228469   7.120   1.436   5.749  0.3280 -0.4748 -0.1063
 9502TIP3    H128470   7.043   1.445   5.806 -0.2115 -1.1359 -0.7085
 9502TIP3    H228471   7.183   1.388   5.802  1.3025  2.1001  1.2798
 9503TIP3   OH228472   3.753   4.902   4.007  0.2221  0.1914  0.3701
 9503TIP3    H128473   3.753   4.998   3.998  0.7230  0.2904  1.2940
 9503TIP3    H228474   3.840   4.881   4.040  0.3140 -0.6555 -0.3702
 9504TIP3   OH228475   1.678   0.971   2.660  0.1359 -0.0411 -0.2255
 9504TIP3    H128476   1.677   1.016   2.744  2.4924 -0.4117  0.0776
 9504TIP3    H228477   1.606   1.010   2.611 -1.9321 -0.4665  2.2401
 9505TIP3   OH228478   0.958   6.285   3.295 -0.2732 -0.7042  0.3028
 9505TIP3    H128479   0.960   6.262   3.202 -2.5408 -0.6121  0.1871
 9505TIP3    H228480   1.046   6.264   3.326  0.9842  0.5265 -2.1267
 9506TIP3   OH228481   2.995   3.615   2.219  0.2981  0.0806 -0.1191
 9506TIP3    H128482   3.026   3.702   2.195 -0.2342  0.8315  1.7712
 9506TIP3    H228483   3.035   3.557   2.154  1.6984  1.5694 -0.6563
 9507TIP3   OH228484   0.559   0.087   4.136 -0.4025  0.2902  0.4326
 9507TIP3    H128485   0.538   0.119   4.223 -1.3260 -0.7663  0.6172
 9507TIP3    H228486   0.475   0.081   4.091 -0.3027 -1.8402  0.4200
 9508TIP3   OH228487   2.314   0.161   5.544  0.6018  0.0833 -0.0086
 9508TIP3    H128488   2.361   0.233   5.586  0.7024  0.0988 -0.1461
 9508TIP3    H228489   2.239   0.203   5.501  0.1650 -0.0062  0.6435
 9509TIP3   OH228490   6.940   5.162   4.274  0.3168 -0.2403  0.2742
 9509TIP3    H128491   6.865   5.205   4.315  0.0412 -0.6036  0.1535
 9509TIP3    H228492   6.940   5.195   4.184  1.2949  1.0472  0.7122
 9510TIP3   OH228493   6.307   0.029   0.697 -0.3638 -0.2031 -0.1296
 9510TIP3    H128494   6.393   0.053   0.732  0.1087 -2.5951  0.5782
 9510TIP3    H228495   6.244   0.070   0.756  0.4031 -1.9154  2.0308
 9511TIP3   OH228496   1.699   0.393   0.761  0.6135  0.4442  0.6369
 9511TIP3    H128497   1.674   0.382   0.669  1.1242 -0.3172  0.5791
 9511TIP3    H228498   1.794   0.390   0.761  0.6418  1.1021  1.1212
 9512TIP3   OH228499   4.587   6.576   4.123 -0.4826 -0.1143 -0.0951
 9512TIP3    H128500   4.653   6.639   4.095  0.0739 -0.1014  1.1498
 9512TIP3    H228501   4.503   6.620   4.111 -0.3391 -0.2977 -2.1355
 9513TIP3   OH228502   6.753   0.176   0.767  0.6188  0.0383  0.6166
 9513TIP3    H128503   6.833   0.226   0.784 -0.4278  1.8422  0.5028
 9513TIP3    H228504   6.783   0.085   0.757  2.3791  0.3072  2.7171
 9514TIP3   OH228505   6.799   0.456   3.711  0.2308  0.0287 -0.1303
 9514TIP3    H128506   6.734   0.395   3.676 -1.1720  0.3135  1.7820
 9514TIP3    H228507   6.812   0.520   3.641 -2.2732  0.4568 -0.3238
 9515TIP3   OH228508   1.396   6.505   2.129  0.0281  0.4809 -0.5016
 9515TIP3    H128509   1.327   6.450   2.090  0.7664 -0.4243 -0.5668
 9515TIP3    H228510   1.449   6.443   2.180 -0.4602  1.5023  1.3278
 9516TIP3   OH228511   6.488   4.447   1.397 -0.1826  0.7040 -0.3923
 9516TIP3    H128512   6.535   4.364   1.392  0.8230  1.3152 -2.3908
 9516TIP3    H228513   6.553   4.510   1.426 -0.9669  0.8221  1.2138
 9517TIP3   OH228514   4.269   1.860   3.025 -0.2617  0.4782  0.3586
 9517TIP3    H128515   4.332   1.903   3.082  0.7225 -1.2359  0.6290
 9517TIP3    H228516   4.304   1.772   3.012 -2.7913 -0.6876  0.8327
 9518TIP3   OH228517   6.641   0.997   2.784 -0.4524  0.1358 -0.2350
 9518TIP3    H128518   6.606   1.006   2.872 -1.9291 -0.9288 -0.6568
 9518TIP3    H228519   6.625   1.081   2.742 -2.3477 -0.2135 -0.3114
 9519TIP3   OH228520   6.176   2.380   5.771 -0.0681  0.2517 -0.1452
 9519TIP3    H128521   6.230   2.427   5.834  1.7900 -1.3753 -0.4330
 9519TIP3    H228522   6.173   2.436   5.694  1.9007  0.0472 -0.4081
 9520TIP3   OH228523   2.755   2.309   5.505  0.1186  0.1001 -0.5988
 9520TIP3    H128524   2.758   2.253   5.427 -0.9411  0.0244 -0.6019
 9520TIP3    H228525   2.771   2.249   5.578 -0.8923 -0.2124 -0.6113
 9521TIP3   OH228526   4.382   3.171   0.558  0.5285 -0.2331 -0.2294
 9521TIP3    H128527   4.414   3.092   0.603 -0.0137  0.7782  2.1273
 9521TIP3    H228528   4.458   3.227   0.550  0.3905  0.1139  0.7123
 9522TIP3   OH228529   6.003   1.280   5.491 -0.0487  0.3493  0.4963
 9522TIP3    H128530   6.023   1.220   5.419 -1.2809  0.6167 -0.0797
 9522TIP3    H228531   6.083   1.280   5.545  1.4355  1.1640 -1.5643
 9523TIP3   OH228532   2.721   4.544   3.009  0.2446 -0.2778  0.4570
 9523TIP3    H128533   2.804   4.592   3.003 -0.1805  0.7203  2.0409
 9523TIP3    H228534   2.683   4.554   2.921 -0.0937  2.8929  0.8177
 9524TIP3   OH228535   4.868   3.722   4.769  0.5607  0.6465  0.0112
 9524TIP3    H128536   4.819   3.803   4.757  0.0322  0.4009  0.4706
 9524TIP3    H228537   4.897   3.725   4.860  0.0465  0.0524  0.2003
 9525TIP3   OH228538   3.471   5.927   0.838  0.0566 -0.0604 -0.3294
 9525TIP3    H128539   3.525   6.004   0.819 -0.4055 -0.3142 -3.0462
 9525TIP3    H228540   3.522   5.854   0.805 -0.8788 -0.5630 -0.6854
 9526TIP3   OH228541   3.568   3.598   0.130  0.0050 -0.2900 -0.3746
 9526TIP3    H128542   3.559   3.518   0.182 -0.0631 -2.1851 -3.0978
 9526TIP3    H228543   3.478   3.619   0.105  0.0711  0.3859 -0.0507
 9527TIP3   OH228544   3.377   3.949   1.234  0.1590  0.1069 -0.1751
 9527TIP3    H128545   3.405   3.858   1.244 -2.3376 -0.9029 -1.4616
 9527TIP3    H228546   3.403   3.992   1.315 -0.1029 -2.1824  1.2016
 9528TIP3   OH228547   2.277   2.718   3.278  0.9398  0.1354  0.2291
 9528TIP3    H128548   2.254   2.688   3.190  0.1127 -0.6377  0.6883
 9528TIP3    H228549   2.372   2.714   3.281  0.9310 -3.9400  0.6781
 9529TIP3   OH228550   6.983   0.265   1.190 -0.6660 -0.1005 -0.1915
 9529TIP3    H128551   6.920   0.283   1.259 -1.7873 -0.3234 -1.1230
 9529TIP3    H228552   7.051   0.331   1.202 -1.4293  0.5950  0.4037
 9530TIP3   OH228553   2.660   3.055   5.077 -0.3649  0.6431 -0.6801
 9530TIP3    H128554   2.604   3.132   5.067  0.3593  1.2263 -0.3809
 9530TIP3    H228555   2.737   3.074   5.022  0.6046  0.9170  0.7302
 9531TIP3   OH228556   6.540   2.691   5.165 -0.1552  0.1884 -0.0488
 9531TIP3    H128557   6.495   2.741   5.098  0.1052  0.7252  0.1716
 9531TIP3    H228558   6.476   2.681   5.235 -0.8585 -1.4663 -0.8760
 9532TIP3   OH228559   2.051   4.879   1.425  0.2887 -0.1873  0.4008
 9532TIP3    H128560   2.030   4.793   1.461  2.5246 -0.3127  1.5753
 9532TIP3    H228561   1.985   4.893   1.357 -1.7874 -1.6204  1.9775
 9533TIP3   OH228562   2.638   1.250   3.100 -0.0014  0.0444 -1.0012
 9533TIP3    H128563   2.662   1.176   3.155 -1.0450 -0.7166 -1.5441
 9533TIP3    H228564   2.701   1.250   3.029  0.5102  0.1963 -0.5519
 9534TIP3   OH228565   2.656   3.954   3.586  0.2046 -0.3210 -0.0159
 9534TIP3    H128566   2.652   3.972   3.492  2.1028  2.2189  0.2799
 9534TIP3    H228567   2.608   3.872   3.597  0.6054 -1.1291 -3.2935
 9535TIP3   OH228568   1.126   2.727   1.558 -0.3789  0.2107 -0.3099
 9535TIP3    H128569   1.178   2.807   1.554  0.0848 -0.0979 -0.5479
 9535TIP3    H228570   1.189   2.659   1.582 -0.9348  0.0663  0.8291
 9536TIP3   OH228571   1.172   6.659   3.458  0.0103  0.1805 -0.0352
 9536TIP3    H128572   1.157   6.639   3.366  0.4977  0.7636 -0.2480
 9536TIP3    H228573   1.085   6.668   3.496 -0.1999 -0.7799 -0.2744
 9537TIP3   OH228574   2.700   5.398   0.159  0.3944  0.3977 -0.4680
 9537TIP3    H128575   2.690   5.406   0.254  2.2785 -1.6599 -0.0253
 9537TIP3    H228576   2.748   5.478   0.134 -2.0375  2.0757 -0.1298
 9538TIP3   OH228577   5.043   2.184   0.991 -0.1675  0.2755  0.3206
 9538TIP3    H128578   5.031   2.120   0.921 -1.5921  1.8183 -0.9307
 9538TIP3    H228579   5.119   2.236   0.964  0.1296 -0.0019  0.6214
 9539TIP3   OH228580   3.372   4.449   2.810 -0.1215 -0.8827  0.0542
 9539TIP3    H128581   3.300   4.433   2.749 -0.3255 -0.4692  0.1826
 9539TIP3    H228582   3.450   4.446   2.756 -0.3932  0.8616 -0.5063
 9540TIP3   OH228583   2.070   2.786   1.524 -0.3084  0.6130 -0.3080
 9540TIP3    H128584   2.013   2.752   1.455 -1.6406  1.5667  0.2775
 9540TIP3    H228585   2.156   2.750   1.504 -1.2637 -1.5398 -0.7678
 9541TIP3   OH228586   4.289   2.322   4.364 -0.6566 -0.5633  0.0301
 9541TIP3    H128587   4.330   2.287   4.285 -0.7950 -0.8369  0.0788
 9541TIP3    H228588   4.327   2.410   4.373  0.4440 -1.0644  0.4604
 9542TIP3   OH228589   5.094   1.063   1.736  0.0069  0.0965 -0.3792
 9542TIP3    H128590   5.012   1.091   1.776 -0.0890 -0.1935 -0.3723
 9542TIP3    H228591   5.074   1.057   1.642  0.2630  0.8930 -0.4945
 9543TIP3   OH228592   1.681   4.117   1.906  0.2418 -0.4668  0.0529
 9543TIP3    H128593   1.598   4.097   1.949 -0.1880 -0.2477 -0.6701
 9543TIP3    H228594   1.741   4.136   1.979 -0.3326 -0.6182  0.5773
 9544TIP3   OH228595   3.621   0.608   2.458 -0.8279  0.0870 -0.4078
 9544TIP3    H128596   3.713   0.606   2.485 -0.4926 -0.4209 -1.5257
 9544TIP3    H228597   3.579   0.666   2.520 -0.0521 -0.8598  1.0612
 9545TIP3   OH228598   4.271   4.904   0.340  0.2662  0.4000 -0.2021
 9545TIP3    H128599   4.281   4.812   0.366  0.6244  0.2792 -0.7353
 9545TIP3    H228600   4.361   4.932   0.319  0.3573  1.2703  1.2362
 9546TIP3   OH228601   3.818   1.665   3.393  0.1361  0.0017 -0.0909
 9546TIP3    H128602   3.883   1.650   3.324  1.2360 -0.3728  1.0064
 9546TIP3    H228603   3.755   1.593   3.383  0.4661 -0.2326 -0.4990
 9547TIP3   OH228604   4.958   5.522   5.579  0.1882  0.0421 -0.1120
 9547TIP3    H128605   5.046   5.488   5.564 -0.3068 -1.1094 -0.6043
 9547TIP3    H228606   4.915   5.515   5.494 -0.5135  0.1414  0.2267
 9548TIP3   OH228607   3.926   0.132   2.808  0.4274 -0.8332 -0.2899
 9548TIP3    H128608   3.927   0.228   2.805 -0.4156 -0.7972  0.2178
 9548TIP3    H228609   3.977   0.109   2.886 -0.6701 -0.7276  0.4778
 9549TIP3   OH228610   6.429   5.325   0.928 -0.5695 -0.0368  0.1796
 9549TIP3    H128611   6.510   5.357   0.967 -1.0885 -0.5951  1.7830
 9549TIP3    H228612   6.455   5.247   0.880  0.3614  1.5470 -2.1040
 9550TIP3   OH228613   5.420   5.834   4.952  0.4003 -0.4140  0.4547
 9550TIP3    H128614   5.380   5.748   4.962  0.8418 -0.6169  0.4672
 9550TIP3    H228615   5.479   5.843   5.026  1.3740 -0.6639 -0.2731
 9551TIP3   OH228616   5.587   5.353   1.741 -0.1262  0.9653  0.4121
 9551TIP3    H128617   5.556   5.346   1.831 -0.2768  0.4766  0.3267
 9551TIP3    H228618   5.515   5.316   1.688  0.3576  0.3498  0.1704
 9552TIP3   OH228619   2.289   0.566   5.450  0.5178  0.0518 -0.5630
 9552TIP3    H128620   2.344   0.535   5.378  0.7117 -0.1264 -0.3410
 9552TIP3    H228621   2.209   0.513   5.443  0.0652  0.8098 -1.3232
 9553TIP3   OH228622   5.704   0.654   1.031 -0.2767  0.0102  0.4153
 9553TIP3    H128623   5.686   0.649   0.937 -1.7367  0.2494  0.6580
 9553TIP3    H228624   5.799   0.654   1.037 -0.1608 -0.3774 -1.0435
 9554TIP3   OH228625   2.964   6.569   1.877  0.1248 -0.3122  0.2090
 9554TIP3    H128626   2.986   6.483   1.841  0.5818 -0.8061  1.6033
 9554TIP3    H228627   2.981   6.631   1.806  1.0761 -1.2313 -0.3792
 9555TIP3   OH228628   6.925   4.940   4.442  0.1252  0.1674 -0.1731
 9555TIP3    H128629   7.012   4.901   4.442 -0.0799 -0.3522  1.0441
 9555TIP3    H228630   6.931   5.014   4.382  1.1653 -0.3601 -0.7446
 9556TIP3   OH228631   2.805   1.171   2.245  0.5367 -0.2298 -0.5113
 9556TIP3    H128632   2.850   1.132   2.171  0.7173 -0.6690 -0.1733
 9556TIP3    H228633   2.873   1.220   2.292  0.2564  0.7453 -1.0894
 9557TIP3   OH228634   1.284   3.645   0.937  0.0981  0.6994 -0.2226
 9557TIP3    H128635   1.204   3.695   0.920 -0.3369  0.1495  0.1656
 9557TIP3    H228636   1.287   3.579   0.867  1.1005  1.7396 -1.2204
 9558TIP3   OH228637   3.848   5.922   4.173  0.3380 -0.1479  0.9499
 9558TIP3    H128638   3.846   5.916   4.078 -0.8824  0.2852  0.9295
 9558TIP3    H228639   3.900   5.846   4.201  0.5088 -0.4085 -0.0411
 9559TIP3   OH228640   3.549   1.332   3.099 -0.5265  0.1701 -0.8217
 9559TIP3    H128641   3.454   1.341   3.089 -0.6136  1.9975  1.0861
 9559TIP3    H228642   3.561   1.304   3.190  0.7968  0.3580 -0.9240
 9560TIP3   OH228643   2.828   1.945   0.377  0.0754  0.1121  0.0555
 9560TIP3    H128644   2.846   2.025   0.426 -1.9842 -0.6941  2.2883
 9560TIP3    H228645   2.816   1.877   0.443 -0.7771 -1.5118 -1.6450
 9561TIP3   OH228646   0.998   1.280   5.662  0.4297  0.0122 -0.0176
 9561TIP3    H128647   0.973   1.368   5.690  0.9649  0.1692 -0.0175
 9561TIP3    H228648   1.085   1.291   5.624 -0.2185 -0.2313 -1.6239
 9562TIP3   OH228649   5.770   3.510   4.076  0.0448 -0.2216  0.2847
 9562TIP3    H128650   5.799   3.480   4.162 -0.0688  0.9336  0.7401
 9562TIP3    H228651   5.823   3.588   4.058  1.0623 -1.2104 -1.3306
 9563TIP3   OH228652   3.902   5.642   1.059 -0.4764 -0.0080  0.0348
 9563TIP3    H128653   3.966   5.705   1.093  0.0768 -0.7889  0.4687
 9563TIP3    H228654   3.888   5.580   1.131 -0.4497 -0.7997 -0.6211
 9564TIP3   OH228655   5.434   5.952   0.047  0.1122  0.2210  0.2575
 9564TIP3    H128656   5.349   5.917   0.072  1.4800 -4.1319 -0.3841
 9564TIP3    H228657   5.449   5.919  -0.042  1.5352  2.9246 -0.6225
 9565TIP3   OH228658   2.778   5.576   5.514 -0.0373  0.3660  0.9393
 9565TIP3    H128659   2.685   5.584   5.534 -0.7357  0.5405 -1.9151
 9565TIP3    H228660   2.806   5.496   5.559 -2.1175 -0.8733  0.1770
 9566TIP3   OH228661   4.441   2.009   3.144 -0.7704 -0.5975 -0.4317
 9566TIP3    H128662   4.505   1.962   3.198 -0.3540  0.4261  0.0043
 9566TIP3    H228663   4.492   2.043   3.071 -0.7633  0.3449 -0.0081
 9567TIP3   OH228664   3.865   5.451   4.611  0.0047  0.1236 -0.1443
 9567TIP3    H128665   3.805   5.513   4.654 -0.8351  0.7141 -2.0421
 9567TIP3    H228666   3.945   5.501   4.598  0.0340  0.1481  0.1107
 9568TIP3   OH228667   5.851   5.866   3.687 -0.5649 -0.0608 -0.8099
 9568TIP3    H128668   5.796   5.938   3.718 -0.2187  0.1231 -0.6157
 9568TIP3    H228669   5.917   5.855   3.756 -0.6214 -0.5740 -0.8293
 9569TIP3   OH228670   1.532   3.155   2.614 -0.2154  0.2480 -0.2115
 9569TIP3    H128671   1.567   3.067   2.626  0.2645  0.3220 -0.9953
 9569TIP3    H228672   1.437   3.143   2.615 -0.2048  0.0328  1.8638
 9570TIP3   OH228673   0.215   0.176   1.514  0.7702 -0.4054  0.6205
 9570TIP3    H128674   0.258   0.226   1.583  1.8692 -1.3033  0.6323
 9570TIP3    H228675   0.229   0.227   1.434 -1.6989  1.3406  1.1885
 9571TIP3   OH228676   4.969   0.648   3.307 -0.2680 -0.3557 -0.7735
 9571TIP3    H128677   4.904   0.578   3.308 -2.4161  1.5254 -0.9892
 9571TIP3    H228678   4.972   0.678   3.398 -1.7999  1.3143 -1.2154
 9572TIP3   OH228679   3.463   0.661   1.478  0.3945 -0.6373 -0.4385
 9572TIP3    H128680   3.544   0.611   1.467  0.7845 -0.2830  0.6286
 9572TIP3    H228681   3.485   0.727   1.544 -0.1255  0.9016 -1.7497
 9573TIP3   OH228682   2.530   1.562   4.978  0.1586 -0.1224  0.4141
 9573TIP3    H128683   2.586   1.633   4.948 -0.1685  0.4738  1.1854
 9573TIP3    H228684   2.589   1.486   4.985  1.2781  0.8483  2.7206
 9574TIP3   OH228685   5.540   5.179   4.184 -0.0481  0.0445  0.8431
 9574TIP3    H128686   5.552   5.160   4.091 -0.0899  0.6494  0.7054
 9574TIP3    H228687   5.492   5.104   4.219  0.3615 -0.3979  0.4744
 9575TIP3   OH228688   4.863   1.570   1.849 -0.3755 -0.0012  1.3281
 9575TIP3    H128689   4.812   1.580   1.768  0.1927  0.1381  0.9787
 9575TIP3    H228690   4.833   1.487   1.886  0.6656 -1.0433 -0.0162
 9576TIP3   OH228691   4.755   6.688   1.736  0.0118 -0.6237 -0.1340
 9576TIP3    H128692   4.670   6.650   1.717 -0.7198  0.2831  1.1363
 9576TIP3    H228693   4.748   6.779   1.706 -0.1763  0.0018  1.6459
 9577TIP3   OH228694   5.591   1.229   1.383 -0.1793 -0.1466 -0.6393
 9577TIP3    H128695   5.670   1.178   1.362 -0.0493 -0.6434  0.9621
 9577TIP3    H228696   5.596   1.304   1.324  1.8479  0.1883 -0.1264
 9578TIP3   OH228697   1.425   4.915   1.976 -0.1006 -0.5339  0.2024
 9578TIP3    H128698   1.356   4.859   1.941  1.3069 -2.3028  0.1445
 9578TIP3    H228699   1.479   4.937   1.900 -0.1208  0.1930  0.3829
 9579TIP3   OH228700   6.616   4.649   0.567  0.5601 -0.2987 -0.2078
 9579TIP3    H128701   6.661   4.566   0.552  1.2700 -0.1581  0.9894
 9579TIP3    H228702   6.593   4.680   0.480  0.1549 -1.8098 -0.6784
 9580TIP3   OH228703   5.137   4.265   3.166 -0.2094  0.2647  0.4896
 9580TIP3    H128704   5.090   4.188   3.134 -0.7573 -0.0888  2.0878
 9580TIP3    H228705   5.081   4.339   3.142 -0.4937  0.0277  0.4197
 9581TIP3   OH228706   2.814   0.198   3.920 -0.2232  0.1314 -0.2670
 9581TIP3    H128707   2.748   0.213   3.988 -0.1015 -0.3988 -0.0248
 9581TIP3    H228708   2.777   0.129   3.865  1.7034 -3.0763  2.1293
 9582TIP3   OH228709   5.985   5.736   3.063  0.2341 -0.1783  0.0766
 9582TIP3    H128710   5.973   5.791   3.141  2.7976  2.4169 -1.1724
 9582TIP3    H228711   6.032   5.659   3.095 -0.4886 -0.1153  1.3741
 9583TIP3   OH228712   5.241   3.045   2.670 -0.6409  0.2248  0.1494
 9583TIP3    H128713   5.259   3.047   2.764  3.0622 -3.1227 -0.2249
 9583TIP3    H228714   5.205   2.958   2.654  1.3583 -0.3231 -1.7839
 9584TIP3   OH228715   2.113   1.593   1.705  0.5416  0.2784 -0.2900
 9584TIP3    H128716   2.175   1.520   1.698  0.6276  0.0649  2.0749
 9584TIP3    H228717   2.132   1.633   1.789 -2.3147  0.4247  0.3827
 9585TIP3   OH228718   4.533   4.021   0.690 -0.6294  0.5678 -0.3235
 9585TIP3    H128719   4.510   4.027   0.597  1.2425 -1.3850 -1.0231
 9585TIP3    H228720   4.629   4.024   0.691 -0.5212 -1.1726  1.3311
 9586TIP3   OH228721   2.850   1.455   1.842 -0.2647 -0.0426 -0.3984
 9586TIP3    H128722   2.831   1.375   1.792 -0.6374 -0.2832  0.1292
 9586TIP3    H228723   2.912   1.427   1.909  0.7766  0.4196 -1.1252
 9587TIP3   OH228724   4.621   1.209   3.041  0.4112  0.2838  0.5356
 9587TIP3    H128725   4.699   1.172   3.082 -0.8652 -2.2020  0.8556
 9587TIP3    H228726   4.561   1.226   3.114 -0.3857 -0.4554  0.0667
 9588TIP3   OH228727   3.238   1.604   5.227  0.2548 -0.5181  0.4403
 9588TIP3    H128728   3.217   1.695   5.204 -0.7491 -0.6359  0.8612
 9588TIP3    H228729   3.156   1.567   5.259  0.8334 -1.3525  1.0122
 9589TIP3   OH228730   3.049   2.469   2.494 -0.3615 -0.0637  0.0418
 9589TIP3    H128731   3.030   2.377   2.515  3.2176 -0.8024  0.8292
 9589TIP3    H228732   3.026   2.516   2.574 -0.7246 -0.5299  0.2209
 9590TIP3   OH228733   2.870   1.167   4.123  0.2610 -0.5501 -0.4268
 9590TIP3    H128734   2.792   1.218   4.101 -0.0083 -0.8282 -0.1331
 9590TIP3    H228735   2.904   1.138   4.038  1.1200  1.1013 -0.6980
 9591TIP3   OH228736   2.916   1.553   2.249 -0.2740  0.3837 -0.0586
 9591TIP3    H128737   2.912   1.645   2.275  0.8121  0.1903  0.8536
 9591TIP3    H228738   2.971   1.511   2.315  1.7943 -0.3293 -2.0895
 9592TIP3   OH228739   0.944   1.561   5.707  0.1778  0.2716  0.3581
 9592TIP3    H128740   0.877   1.630   5.708 -0.6132 -0.4554  2.8237
 9592TIP3    H228741   1.014   1.595   5.764  0.5907 -0.2166  0.1513
 9593TIP3   OH228742   4.851   3.026   3.150 -0.1733 -0.4012  0.6329
 9593TIP3    H128743   4.920   3.089   3.170 -0.2607 -0.1961  0.2879
 9593TIP3    H228744   4.886   2.973   3.078 -0.1267 -0.7085  0.8757
 9594TIP3   OH228745   0.264   1.304   2.415  0.3138  0.3853 -0.2515
 9594TIP3    H128746   0.256   1.213   2.444  0.0195 -0.0999 -1.7536
 9594TIP3    H228747   0.305   1.349   2.489 -1.3516 -0.5215  1.3252
 9595TIP3   OH228748   3.029   3.581   5.188 -0.0982  0.7617 -0.0943
 9595TIP3    H128749   2.988   3.514   5.133 -0.7493 -0.6319  1.9562
 9595TIP3    H228750   2.974   3.658   5.177 -0.7903  0.2053 -0.6313
 9596TIP3   OH228751   3.245   1.733   4.882 -0.3051  0.2671 -0.2175
 9596TIP3    H128752   3.316   1.771   4.829  0.3913 -0.5829  0.0771
 9596TIP3    H228753   3.235   1.793   4.956  0.0282  0.4535 -0.3208
 9597TIP3   OH228754   4.396   1.075   2.910 -0.1824 -0.3044  0.1079
 9597TIP3    H128755   4.392   1.153   2.855  3.1338  0.1092  0.2751
 9597TIP3    H228756   4.430   1.106   2.994 -1.3158 -1.5601  1.0743
 9598TIP3   OH228757   0.802   4.125   0.385  0.1507 -0.4614 -0.0196
 9598TIP3    H128758   0.800   4.030   0.399 -2.0198 -0.7221 -1.5795
 9598TIP3    H228759   0.854   4.136   0.305 -2.2028 -0.7577 -1.7274
 9599TIP3   OH228760   5.832   5.933   4.403 -0.4798 -0.1043  0.1608
 9599TIP3    H128761   5.865   5.849   4.437  1.6783 -0.0723 -1.6026
 9599TIP3    H228762   5.800   5.979   4.480  2.3475 -0.8040  1.9177
 9600TIP3   OH228763   1.547   1.326   1.132  0.1462 -0.5116  0.2481
 9600TIP3    H128764   1.517   1.414   1.107 -0.7107 -0.5806  0.9755
 9600TIP3    H228765   1.468   1.272   1.125  0.6440 -1.2010 -0.0689
 9601TIP3   OH228766   7.054   5.941   3.151 -0.0416  0.1255  0.2321
 9601TIP3    H128767   6.993   6.002   3.192  0.2800 -0.6052  1.9145
 9601TIP3    H228768   7.141   5.975   3.174  0.1782  0.4001 -0.9639
 9602TIP3   OH228769   0.862   6.486   1.795 -0.1195 -0.0979 -0.0504
 9602TIP3    H128770   0.954   6.461   1.794 -0.4819 -1.5504 -0.3995
 9602TIP3    H228771   0.846   6.524   1.708  0.4938  1.6529  0.5632
 9603TIP3   OH228772   1.671   3.552   1.081 -0.0037  0.3267  0.0699
 9603TIP3    H128773   1.741   3.547   1.145 -0.4341  1.9833  0.7393
 9603TIP3    H228774   1.658   3.646   1.067 -0.9964  0.0257 -1.2421
 9604TIP3   OH228775   4.919   5.218   5.030 -0.4297  0.0264 -0.3362
 9604TIP3    H128776   4.969   5.244   5.108  0.1144 -2.8550  0.3966
 9604TIP3    H228777   4.828   5.224   5.057 -0.2409 -1.1632  0.6608
 9605TIP3   OH228778   4.954   3.682   0.340  0.5074 -0.1643 -0.3769
 9605TIP3    H128779   4.996   3.746   0.397  2.2169 -0.1285 -1.5982
 9605TIP3    H228780   5.027   3.632   0.302 -0.7201 -2.1355 -0.2842
 9606TIP3   OH228781   3.439   2.288   2.653  0.8324  0.8566  0.6401
 9606TIP3    H128782   3.356   2.264   2.612  0.5760 -0.2978  1.7410
 9606TIP3    H228783   3.422   2.371   2.696  0.2739  0.6914  0.7469
 9607TIP3   OH228784   0.247   5.613   3.207  0.1633  0.5542 -0.3240
 9607TIP3    H128785   0.239   5.564   3.125 -1.1717  0.5162 -0.2024
 9607TIP3    H228786   0.260   5.546   3.274  1.3423  0.5907 -0.4963
 9608TIP3   OH228787   2.862   4.261   4.907  0.0942  0.3459  0.4414
 9608TIP3    H128788   2.932   4.321   4.933 -0.8712  1.4244  0.6794
 9608TIP3    H228789   2.904   4.198   4.850  1.3892  0.5575  1.1222
 9609TIP3   OH228790   2.823   0.180   0.981  0.0142  0.2785 -0.1669
 9609TIP3    H128791   2.753   0.198   0.918 -0.7292 -1.2255  0.1674
 9609TIP3    H228792   2.886   0.251   0.969 -2.1406  2.3979  0.3565
 9610TIP3   OH228793   3.995   1.365   5.706  0.0275 -0.0683 -0.1064
 9610TIP3    H128794   4.073   1.395   5.660 -0.9137  2.3089 -0.2848
 9610TIP3    H228795   3.950   1.309   5.643 -0.3169  1.6680 -1.4606
 9611TIP3   OH228796   6.688   4.222   3.520 -0.3433 -0.5296  0.0578
 9611TIP3    H128797   6.661   4.303   3.564  2.6290 -0.0734  1.3372
 9611TIP3    H228798   6.608   4.171   3.513 -1.7505  1.1476  2.2721
 9612TIP3   OH228799   4.434   1.261   2.657  0.2229 -0.1002 -0.1155
 9612TIP3    H128800   4.523   1.280   2.630 -0.2475  0.6677 -1.2139
 9612TIP3    H228801   4.384   1.261   2.575 -1.0933  1.3236  0.6313
 9613TIP3   OH228802   5.365   3.326   5.726 -0.0360  0.7164  0.5625
 9613TIP3    H128803   5.454   3.348   5.753  0.0233  1.5519 -0.2898
 9613TIP3    H228804   5.324   3.291   5.806  0.8425  0.9559  1.1269
 9614TIP3   OH228805   4.915   1.605   4.367  0.0673 -0.4682  0.0551
 9614TIP3    H128806   4.989   1.662   4.345 -0.4037 -0.8172 -2.8386
 9614TIP3    H228807   4.937   1.521   4.326 -0.7147 -1.4393  1.5308
 9615TIP3   OH228808   2.073   6.695   5.538 -0.8085 -0.0593  0.1392
 9615TIP3    H128809   1.990   6.737   5.515 -0.0165  0.8041 -1.2893
 9615TIP3    H228810   2.074   6.614   5.487  0.2720  1.1252 -1.8576
 9616TIP3   OH228811   6.455   4.513   2.583 -0.2092 -0.1766  0.0332
 9616TIP3    H128812   6.371   4.512   2.536 -0.0625  2.5339 -0.4480
 9616TIP3    H228813   6.516   4.469   2.524 -0.9145 -0.6401 -0.3690
 9617TIP3   OH228814   2.017   2.153   3.026 -0.0323  0.1034 -0.8130
 9617TIP3    H128815   1.935   2.147   2.979 -0.3169 -1.2994 -0.2064
 9617TIP3    H228816   2.011   2.234   3.077 -1.1600 -0.1404 -0.5494
 9618TIP3   OH228817   1.748   1.909   0.870 -0.0418 -0.0245 -0.1090
 9618TIP3    H128818   1.766   1.819   0.842  0.8674  0.5081 -1.2928
 9618TIP3    H228819   1.789   1.914   0.957 -0.5503 -0.8856  0.2044
 9619TIP3   OH228820   0.364   5.663   3.694  0.3666 -0.2322  0.0531
 9619TIP3    H128821   0.434   5.728   3.697 -0.8561  1.2262 -1.0366
 9619TIP3    H228822   0.286   5.714   3.671 -0.6738 -2.0967 -0.7262
 9620TIP3   OH228823   0.032   1.414   5.166  0.5868  0.1047 -0.1820
 9620TIP3    H128824   0.051   1.478   5.098  1.1983  0.5581  0.3929
 9620TIP3    H228825   0.080   1.335   5.140 -0.3845 -0.2240 -1.0311
 9621TIP3   OH228826   4.346   2.304   2.949 -0.3661  0.2730  0.2142
 9621TIP3    H128827   4.252   2.311   2.933  0.1778  3.3644 -2.7776
 9621TIP3    H228828   4.369   2.216   2.919 -1.9806  0.2496 -1.0555
 9622TIP3   OH228829   5.885   6.555   2.265  0.4480 -0.2966 -0.1137
 9622TIP3    H128830   5.800   6.598   2.276  0.7348  0.2226  0.0938
 9622TIP3    H228831   5.865   6.476   2.215  0.1563  0.9315 -2.0105
 9623TIP3   OH228832   2.624   6.275   2.335  0.6109  0.3426 -0.1356
 9623TIP3    H128833   2.719   6.267   2.336  0.7018  0.8774 -1.4932
 9623TIP3    H228834   2.592   6.194   2.376  1.6398  0.2034  0.4224
 9624TIP3   OH228835   1.486   0.228   0.266  0.0565 -0.4129  0.0865
 9624TIP3    H128836   1.557   0.197   0.210 -0.7468 -0.4153 -0.9647
 9624TIP3    H228837   1.408   0.186   0.230 -0.7965  1.3608 -0.2064
 9625TIP3   OH228838   2.511   1.285   3.790 -0.4274 -0.3095 -0.2932
 9625TIP3    H128839   2.438   1.297   3.729  0.6191 -0.9139 -1.6970
 9625TIP3    H228840   2.571   1.357   3.772  0.3107 -0.9918 -0.6102
 9626TIP3   OH228841   4.029   2.258   3.760 -0.3200  0.4064  0.0168
 9626TIP3    H128842   4.060   2.232   3.674  0.8389 -0.3291  0.6231
 9626TIP3    H228843   4.109   2.274   3.811 -0.9916  2.2393  0.5507
 9627TIP3   OH228844   0.652   6.788   2.532  0.4761 -0.6064  0.3028
 9627TIP3    H128845   0.576   6.750   2.487  0.8178 -0.9338  0.0049
 9627TIP3    H228846   0.706   6.824   2.462  1.0047 -1.1068  0.4490
 9628TIP3   OH228847   5.165   4.975   3.015 -0.2848 -0.0349  0.2376
 9628TIP3    H128848   5.223   5.015   3.080  1.7378 -2.5987  0.1678
 9628TIP3    H228849   5.078   4.979   3.056  0.3428  1.5244  1.5415
 9629TIP3   OH228850   0.882   1.245   0.565  0.3799 -0.7002  0.6192
 9629TIP3    H128851   0.789   1.222   0.557  0.3967 -0.5302 -0.1242
 9629TIP3    H228852   0.925   1.163   0.591 -0.0679 -0.6101  1.7191
 9630TIP3   OH228853   1.909   6.221   4.270 -0.3611  0.3583  0.1546
 9630TIP3    H128854   1.929   6.201   4.361 -0.8163  0.9050  0.3793
 9630TIP3    H228855   1.867   6.307   4.273 -1.3859 -0.1094 -0.4517
 9631TIP3   OH228856   1.369   2.741   0.266 -0.1389  0.1114  0.1213
 9631TIP3    H128857   1.397   2.750   0.357  1.4217  0.7249 -0.3801
 9631TIP3    H228858   1.299   2.804   0.255 -0.2407  0.1291  0.8681
 9632TIP3   OH228859   3.332   1.846   3.718 -0.6548  0.0497 -0.0788
 9632TIP3    H128860   3.297   1.853   3.807 -0.6572 -1.5398  0.0676
 9632TIP3    H228861   3.259   1.814   3.666 -0.4198  0.1887 -0.4983
 9633TIP3   OH228862   0.135   1.750   0.584  0.1903  0.7468  0.4547
 9633TIP3    H128863   0.141   1.675   0.525  1.8263  1.8491 -0.8685
 9633TIP3    H228864   0.118   1.712   0.670 -1.8059 -0.9339 -0.6022
 9634TIP3   OH228865   5.613   1.905   1.736 -0.0183 -0.1863 -0.7039
 9634TIP3    H128866   5.702   1.930   1.760 -0.2689  1.3912 -1.2920
 9634TIP3    H228867   5.570   1.886   1.819  0.4205  0.6356 -0.2776
 9635TIP3   OH228868   0.996   4.518   5.484  0.3435 -0.7382  0.1807
 9635TIP3    H128869   0.990   4.551   5.574  2.3263  0.9232 -0.2098
 9635TIP3    H228870   1.015   4.596   5.431 -2.3056 -1.4084 -1.9532
 9636TIP3   OH228871   2.105   0.148   1.233  0.5550  0.2758 -0.9314
 9636TIP3    H128872   2.065   0.228   1.199 -1.2117 -0.1533  0.0334
 9636TIP3    H228873   2.105   0.087   1.159 -0.3943  0.3636 -1.0119
 9637TIP3   OH228874   5.714   3.222   2.707  0.3125 -0.3053  0.3324
 9637TIP3    H128875   5.786   3.286   2.707 -1.0197  1.2564  0.0712
 9637TIP3    H228876   5.720   3.179   2.792  2.7112 -1.6203 -0.4146
 9638TIP3   OH228877   4.700   0.286   4.344 -0.0547  0.3872  0.2130
 9638TIP3    H128878   4.757   0.363   4.334  0.1041  0.0359 -2.1233
 9638TIP3    H228879   4.725   0.228   4.272 -1.1856 -1.2238  1.0491
 9639TIP3   OH228880   4.590   2.349   2.201  0.1706 -0.2764 -0.2050
 9639TIP3    H128881   4.578   2.315   2.113 -0.0608  1.5737 -0.9417
 9639TIP3    H228882   4.658   2.416   2.191  0.9220 -0.7821  1.2414
 9640TIP3   OH228883   5.199   4.480   4.007 -0.2496 -0.3926 -0.0683
 9640TIP3    H128884   5.171   4.551   4.064  0.0939 -0.1749 -0.1635
 9640TIP3    H228885   5.122   4.459   3.954 -0.0250  0.7432 -0.8916
 9641TIP3   OH228886   6.148   3.517   0.902 -0.1448 -0.6940 -0.0925
 9641TIP3    H128887   6.135   3.518   0.997  1.0902 -1.4581  0.1115
 9641TIP3    H228888   6.061   3.501   0.866 -0.7244  0.1404  0.8740
 9642TIP3   OH228889   4.792   4.187   1.446  0.1989 -0.4338 -0.6795
 9642TIP3    H128890   4.711   4.157   1.404  0.2251 -1.1540 -0.2321
 9642TIP3    H228891   4.847   4.109   1.449  0.8755  0.0312 -0.8869
 9643TIP3   OH228892   1.162   4.097   3.618  0.1986 -0.6879 -0.1688
 9643TIP3    H128893   1.240   4.145   3.646  0.6972 -1.6123  0.0593
 9643TIP3    H228894   1.089   4.144   3.659  0.7191 -0.4574  0.5159
 9644TIP3   OH228895   0.643   6.451   4.005  0.0136 -0.1759  0.0552
 9644TIP3    H128896   0.563   6.444   4.058  0.4231 -0.9747  0.5831
 9644TIP3    H228897   0.685   6.532   4.035 -0.8447  0.5333 -0.5923
 9645TIP3   OH228898   1.276   4.337   4.965  0.3207 -0.8012  0.3365
 9645TIP3    H128899   1.260   4.395   5.040 -1.5781 -0.9405  0.0679
 9645TIP3    H228900   1.244   4.252   4.993 -1.2787 -0.6549 -0.9372
 9646TIP3   OH228901   5.306   2.430   5.149 -0.0634 -0.4329 -0.2204
 9646TIP3    H128902   5.339   2.418   5.238  1.3258  1.3332 -0.4472
 9646TIP3    H228903   5.249   2.507   5.155  0.0692 -0.2811 -0.8607
 9647TIP3   OH228904   6.538   3.917   5.371 -0.5786  0.3871  0.1578
 9647TIP3    H128905   6.460   3.892   5.322 -0.2859 -0.9567  0.3306
 9647TIP3    H228906   6.505   3.964   5.447 -0.9960  3.9088 -1.9522
 9648TIP3   OH228907   4.833   1.537   3.927 -0.0422 -0.3658  0.2869
 9648TIP3    H128908   4.775   1.479   3.975 -0.1263 -0.3165  0.2454
 9648TIP3    H228909   4.897   1.567   3.992 -0.4605  0.1043  0.4880
 9649TIP3   OH228910   6.453   6.174   4.180  0.3886  0.2767 -0.6924
 9649TIP3    H128911   6.447   6.124   4.262  2.0026  2.7079  1.0258
 9649TIP3    H228912   6.477   6.108   4.114  1.6868 -1.3628  1.2823
 9650TIP3   OH228913   0.402   2.336   3.813 -0.0258 -0.5303  0.5871
 9650TIP3    H128914   0.490   2.346   3.775  0.2185 -0.6410  1.1108
 9650TIP3    H228915   0.345   2.385   3.755  0.5380  0.4048  0.8058
 9651TIP3   OH228916   3.122   6.171   1.772  0.3360 -0.3554  0.2326
 9651TIP3    H128917   3.212   6.139   1.780  0.6784  0.3692 -0.5862
 9651TIP3    H228918   3.131   6.258   1.735 -0.7893 -0.9369 -1.5077
 9652TIP3   OH228919   0.356   5.693   2.921 -0.2154 -0.8681  0.0966
 9652TIP3    H128920   0.374   5.764   2.983  0.4729 -0.4620 -0.5406
 9652TIP3    H228921   0.267   5.709   2.890 -0.1816 -0.4703  0.2074
 9653TIP3   OH228922   2.918   4.623   1.669 -1.0479 -0.2169  0.3424
 9653TIP3    H128923   2.910   4.652   1.760  0.1309 -0.3874  0.5120
 9653TIP3    H228924   2.885   4.533   1.670  0.1222 -0.6562  0.8698
 9654TIP3   OH228925   5.419   5.787   1.466  0.0918  0.1969 -0.3624
 9654TIP3    H128926   5.448   5.716   1.524  0.3713 -0.0708 -0.8303
 9654TIP3    H228927   5.350   5.831   1.516  0.1858 -0.1600  0.0927
 9655TIP3   OH228928   6.024   0.748   2.262  0.0611 -0.3740 -0.4027
 9655TIP3    H128929   6.007   0.842   2.251 -1.7227 -0.5636  0.3800
 9655TIP3    H228930   5.949   0.705   2.223  1.4021 -1.5683 -1.8070
 9656TIP3   OH228931   0.122   2.121   1.551 -0.4458 -0.2090  0.0549
 9656TIP3    H128932   0.079   2.189   1.602  0.2410 -1.0963  1.9113
 9656TIP3    H228933   0.050   2.063   1.523 -0.9395  0.8246 -0.9017
 9657TIP3   OH228934   6.817   5.201   3.929 -0.5439  0.2850 -0.6017
 9657TIP3    H128935   6.881   5.264   3.963 -1.2272  1.0102 -0.6271
 9657TIP3    H228936   6.867   5.146   3.870  0.1433  0.5935 -0.3195
 9658TIP3   OH228937   3.894   3.481   0.889  0.8930  0.7557  0.2128
 9658TIP3    H128938   3.876   3.462   0.797  0.5951 -0.9962  0.5868
 9658TIP3    H228939   3.969   3.540   0.887  0.0471  1.8309 -1.1775
 9659TIP3   OH228940   3.521   4.108   2.843  0.3659 -0.2792  0.3125
 9659TIP3    H128941   3.592   4.163   2.813 -0.4971  0.7508  0.0937
 9659TIP3    H228942   3.494   4.147   2.926 -0.8879  0.2561 -0.3114
 9660TIP3   OH228943   1.311   0.926   5.216 -0.0797  0.2842  0.2036
 9660TIP3    H128944   1.263   0.902   5.137  0.3620 -1.4868  0.4234
 9660TIP3    H228945   1.383   0.981   5.185  1.3554 -2.0967 -0.9751
 9661TIP3   OH228946   6.244   3.143   3.166  0.3138  0.1439  0.2092
 9661TIP3    H128947   6.278   3.220   3.121 -0.1066 -0.4763 -1.2601
 9661TIP3    H228948   6.151   3.141   3.143  0.0651 -0.1448  1.2105
 9662TIP3   OH228949   1.602   4.574   0.828  0.1183 -0.5181 -0.0510
 9662TIP3    H128950   1.511   4.592   0.804  1.5055  2.3902 -4.3300
 9662TIP3    H228951   1.632   4.510   0.763  1.4878 -0.2911  0.3258
 9663TIP3   OH228952   5.674   2.277   0.183 -0.0826 -0.4656 -0.4538
 9663TIP3    H128953   5.604   2.294   0.246 -0.1116  0.1753 -0.6461
 9663TIP3    H228954   5.739   2.345   0.200 -0.2949 -0.0040 -1.3931
 9664TIP3   OH228955   0.548   0.573   2.608 -0.0609 -0.0988  0.2443
 9664TIP3    H128956   0.469   0.520   2.618  1.3194 -2.1643  0.9387
 9664TIP3    H228957   0.606   0.543   2.677  0.7111  2.6592  0.9360
 9665TIP3   OH228958   2.553   0.766   0.645 -0.4230  0.1676  0.1209
 9665TIP3    H128959   2.530   0.686   0.598  1.2782 -0.2796 -0.0430
 9665TIP3    H228960   2.554   0.740   0.737 -1.6067  0.4788  0.2351
 9666TIP3   OH228961   2.871   0.505   1.501  0.0696 -0.3545  0.0848
 9666TIP3    H128962   2.787   0.541   1.531  0.0620  0.7597 -1.1950
 9666TIP3    H228963   2.906   0.459   1.578 -0.5206  1.3059  1.4023
 9667TIP3   OH228964   5.995   3.270   2.697  0.5410  0.4847 -0.4598
 9667TIP3    H128965   6.015   3.177   2.710  0.7649  0.6724  0.6074
 9667TIP3    H228966   6.065   3.301   2.639  1.4453  0.3543  0.5236
 9668TIP3   OH228967   0.492   0.219   2.844 -0.2052 -0.1532 -0.1983
 9668TIP3    H128968   0.490   0.124   2.849  2.0987 -0.2674 -0.3567
 9668TIP3    H228969   0.497   0.247   2.935  1.6681 -0.3646 -0.1835
 9669TIP3   OH228970   4.653   0.222   2.409 -0.1318 -0.1070 -0.5868
 9669TIP3    H128971   4.575   0.268   2.441 -1.1879 -2.1733  0.0218
 9669TIP3    H228972   4.619   0.158   2.347  0.9604 -1.5559  0.2345
 9670TIP3   OH228973   6.974   2.452   3.337 -0.4901 -0.0287  0.3887
 9670TIP3    H128974   6.902   2.514   3.328 -1.7220 -1.4590  0.0660
 9670TIP3    H228975   6.940   2.383   3.394  1.1040 -0.0839  1.3617
 9671TIP3   OH228976   5.941   0.787   4.360  0.5367 -0.0479 -0.5824
 9671TIP3    H128977   6.019   0.765   4.308 -0.8842 -1.5916 -2.1912
 9671TIP3    H228978   5.938   0.720   4.428 -1.3057 -2.3906 -2.7653
 9672TIP3   OH228979   3.994   1.701   5.101 -0.2038  0.2305 -0.0809
 9672TIP3    H128980   4.034   1.721   5.186  0.4270 -1.7193  0.1306
 9672TIP3    H228981   4.068   1.693   5.041 -0.5693  0.4486 -0.5690
 9673TIP3   OH228982   1.150   4.766   3.123  0.1236  0.5793  0.3398
 9673TIP3    H128983   1.109   4.807   3.047 -1.8117  1.9561  2.0292
 9673TIP3    H228984   1.199   4.837   3.165 -1.0410  0.5786  1.8025
 9674TIP3   OH228985   7.167   2.241   4.726 -0.0824 -0.1691 -0.0984
 9674TIP3    H128986   7.082   2.200   4.743 -0.7446  1.3777  0.5447
 9674TIP3    H228987   7.202   2.193   4.651 -0.9464 -1.6483  0.4032
 9675TIP3   OH228988   5.269   6.287   3.636  0.5201  0.5388 -0.5756
 9675TIP3    H128989   5.328   6.320   3.705  0.6871 -0.2506 -0.3315
 9675TIP3    H228990   5.230   6.209   3.673  0.6215  0.0908 -1.3799
 9676TIP3   OH228991   3.575   5.818   0.204  0.3668 -0.1550 -0.6691
 9676TIP3    H128992   3.602   5.797   0.115  1.0033 -1.2170 -0.2455
 9676TIP3    H228993   3.502   5.758   0.222  1.2747 -1.0657  0.0647
 9677TIP3   OH228994   3.008   3.581   5.508  0.3622  0.2031  0.3677
 9677TIP3    H128995   3.026   3.558   5.417  0.7382  1.2918  0.1450
 9677TIP3    H228996   3.019   3.499   5.557  3.1303  0.1722 -0.1593
 9678TIP3   OH228997   6.292   6.388   0.978 -0.1012 -0.0152 -0.4071
 9678TIP3    H128998   6.325   6.404   1.066 -1.0766 -0.0007 -0.0246
 9678TIP3    H228999   6.240   6.466   0.957  0.1405 -0.0089 -1.0040
 9679TIP3   OH229000   5.563   4.640   4.254  0.6166 -0.7356 -0.2928
 9679TIP3    H129001   5.613   4.720   4.270 -0.8834  0.1703  0.1033
 9679TIP3    H229002   5.584   4.616   4.164  0.4563  0.6026 -0.7095
 9680TIP3   OH229003   2.107   0.439   3.205  0.2712  0.6961  0.4344
 9680TIP3    H129004   2.090   0.366   3.265  0.0844 -0.6335 -1.1891
 9680TIP3    H229005   2.034   0.499   3.220 -0.4599 -0.2199  0.6446
 9681TIP3   OH229006   0.197   1.842   2.653  0.2994  0.0727 -0.2241
 9681TIP3    H129007   0.196   1.776   2.584  0.4950 -0.9444  0.7236
 9681TIP3    H229008   0.139   1.807   2.721  0.4645  0.8415  0.3241
 9682TIP3   OH229009   4.202   5.875   3.720 -0.5940  0.4842  0.5559
 9682TIP3    H129010   4.267   5.858   3.788 -0.0959 -0.0595 -0.0528
 9682TIP3    H229011   4.246   5.935   3.659  0.4881 -2.1783 -1.4765
 9683TIP3   OH229012   0.015   5.524   1.187 -0.4325 -0.6537  0.4252
 9683TIP3    H129013  -0.061   5.524   1.245 -0.8477  0.2543 -0.0952
 9683TIP3    H229014   0.090   5.533   1.245 -0.8936  1.3701  0.7810
 9684TIP3   OH229015   6.082   4.872   0.833  0.2388 -0.0390 -0.4127
 9684TIP3    H129016   6.058   4.808   0.766  0.3635  1.3250 -1.8367
 9684TIP3    H229017   6.017   4.942   0.824  0.3869  0.2703  0.7657
 9685TIP3   OH229018   0.731   3.999   4.227 -0.2548 -0.0693  0.5424
 9685TIP3    H129019   0.679   4.061   4.278  0.8520 -0.5388  2.3126
 9685TIP3    H229020   0.675   3.922   4.217 -1.5521  1.0457 -1.4765
 9686TIP3   OH229021   0.813   2.628   2.757 -0.6258 -0.3044 -0.1354
 9686TIP3    H129022   0.886   2.651   2.700 -0.9275  1.2840  0.0665
 9686TIP3    H229023   0.808   2.533   2.753  0.7364 -0.3616 -1.0316
 9687TIP3   OH229024   2.492   1.932   1.322 -0.1629 -0.8637 -0.2006
 9687TIP3    H129025   2.476   1.903   1.232  2.1706  1.1439 -1.3702
 9687TIP3    H229026   2.579   1.899   1.343  0.5544  1.1556  0.1880
 9688TIP3   OH229027   0.360   5.693   4.356  0.4176 -0.0011  0.0639
 9688TIP3    H129028   0.278   5.646   4.371  0.2705  0.7644  1.9736
 9688TIP3    H229029   0.336   5.786   4.364  0.9808  0.3870 -2.1225
 9689TIP3   OH229030   2.534   1.450   3.293 -0.3902  0.3311  0.5344
 9689TIP3    H129031   2.502   1.378   3.239 -0.3499  0.4649  0.3334
 9689TIP3    H229032   2.602   1.411   3.347  1.0941  0.6610 -1.0207
 9690TIP3   OH229033   7.033   1.031   2.879  0.3148  0.5462 -0.0171
 9690TIP3    H129034   7.108   1.081   2.912  0.2866 -1.1680  2.9956
 9690TIP3    H229035   6.957   1.078   2.913  0.2537 -0.5932  1.5413
 9691TIP3   OH229036   6.604   0.006   1.845 -0.1147  0.5107  0.2173
 9691TIP3    H129037   6.675   0.050   1.891 -0.4997  0.0056  1.3183
 9691TIP3    H229038   6.535   0.072   1.837 -1.2861 -0.2068  3.1892
 9692TIP3   OH229039   1.671   5.960   5.886 -0.2150  0.1386  0.0472
 9692TIP3    H129040   1.726   5.989   5.813  0.4102 -0.5938  0.2098
 9692TIP3    H229041   1.709   6.003   5.963  1.0811 -1.4650  0.3784
 9693TIP3   OH229042   6.444   6.184   1.657 -0.1165  0.7378  0.4878
 9693TIP3    H129043   6.534   6.170   1.626 -0.6242  1.3603 -1.4575
 9693TIP3    H229044   6.391   6.122   1.607 -1.2750  3.3632 -1.8234
 9694TIP3   OH229045   1.944   2.943   4.124 -0.1688  0.2651  0.2478
 9694TIP3    H129046   1.936   2.942   4.029  1.5139  1.9760  0.0342
 9694TIP3    H229047   2.031   2.909   4.142 -1.3403 -2.4427  1.4130
 9695TIP3   OH229048   2.538   3.699   3.637 -0.2328 -0.4712 -0.1626
 9695TIP3    H129049   2.568   3.674   3.724 -0.0698 -0.9404 -0.3514
 9695TIP3    H229050   2.443   3.709   3.647  0.0600  2.2023  0.7228
 9696TIP3   OH229051   6.739   0.045   0.172 -0.0053  0.2427  0.3843
 9696TIP3    H129052   6.792   0.040   0.251  1.3136  0.1666 -0.4848
 9696TIP3    H229053   6.757   0.132   0.136 -1.3661  0.6683  0.6710
 9697TIP3   OH229054   6.054   0.920   3.691 -0.0798 -0.3694 -0.3830
 9697TIP3    H129055   5.967   0.890   3.717  0.4845 -2.3120 -0.5858
 9697TIP3    H229056   6.088   0.968   3.767 -0.6535 -1.0862  0.3311
 9698TIP3   OH229057   4.953   5.339   5.293  0.2092 -0.1039  0.0747
 9698TIP3    H129058   4.984   5.427   5.311 -0.5576  0.5147 -1.4762
 9698TIP3    H229059   5.010   5.282   5.346  0.6324  1.3026  1.1763
 9699TIP3   OH229060   4.915   3.927   2.104  0.2759 -0.0111  0.4488
 9699TIP3    H129061   4.893   4.008   2.058  0.9064  0.1651  0.4484
 9699TIP3    H229062   4.832   3.898   2.142 -0.2226 -0.0755 -0.6509
 9700TIP3   OH229063   4.188   2.727   2.361 -0.0405  0.1156  0.3550
 9700TIP3    H129064   4.253   2.695   2.298  1.2158 -1.0837  2.1564
 9700TIP3    H229065   4.203   2.821   2.365 -0.5868  0.3251 -1.5706
 9701TIP3   OH229066   1.801   1.520   3.916  0.6400  0.3132  0.0397
 9701TIP3    H129067   1.817   1.564   3.832  2.1337  0.0351  0.1518
 9701TIP3    H229068   1.886   1.519   3.959 -0.2112  1.0263  1.8676
 9702TIP3   OH229069   2.564   0.575   5.541  0.1558 -0.2106  0.4343
 9702TIP3    H129070   2.561   0.562   5.446  0.5290  0.7536  0.2762
 9702TIP3    H229071   2.473   0.591   5.566  0.1678  0.3931  0.1025
 9703TIP3   OH229072   1.226   4.322   1.124 -0.3505 -0.1830  0.1977
 9703TIP3    H129073   1.312   4.308   1.165 -0.0959 -0.0482 -0.2828
 9703TIP3    H229074   1.175   4.367   1.190 -0.0607 -0.2933  0.5025
 9704TIP3   OH229075   3.094   0.914   4.660  0.5658 -0.2456 -0.6436
 9704TIP3    H129076   3.139   0.893   4.742  1.2229  1.5245 -0.5099
 9704TIP3    H229077   3.160   0.959   4.607 -0.5983  1.0648 -1.0460
 9705TIP3   OH229078   5.580   5.603   5.594 -0.3632 -0.0818  0.1114
 9705TIP3    H129079   5.507   5.646   5.639  0.5595 -0.7287  2.3755
 9705TIP3    H229080   5.615   5.541   5.659  1.3308 -0.7891 -1.3869
 9706TIP3   OH229081   7.086   6.382   2.438  0.5797  0.2282  0.4134
 9706TIP3    H129082   7.043   6.302   2.408  0.7924  0.6741 -1.1881
 9706TIP3    H229083   7.180   6.363   2.431  0.6439  0.3018  0.9810
 9707TIP3   OH229084   2.854   5.023   2.768 -0.1084 -0.3387  0.3645
 9707TIP3    H129085   2.825   4.932   2.759 -1.2673 -0.2068  2.1330
 9707TIP3    H229086   2.933   5.017   2.822 -0.4031 -0.2971  0.8115
 9708TIP3   OH229087   1.813   4.482   1.943 -0.3891 -0.2573 -0.4980
 9708TIP3    H129088   1.886   4.538   1.918 -0.8591 -1.0958 -4.4211
 9708TIP3    H229089   1.847   4.393   1.939 -1.1595 -0.5637 -0.5486
 9709TIP3   OH229090   4.990   0.271   0.954 -0.4757  0.6395 -0.0737
 9709TIP3    H129091   4.951   0.354   0.927  0.2250  1.3298  0.9910
 9709TIP3    H229092   4.983   0.270   1.049 -1.5845 -1.0922 -0.1173
 9710TIP3   OH229093   4.109   3.642   1.168 -0.3735  0.5267 -0.2263
 9710TIP3    H129094   4.196   3.670   1.197  0.9430 -3.0960 -0.1699
 9710TIP3    H229095   4.106   3.665   1.075  0.8140  0.4168 -0.3089
 9711TIP3   OH229096   5.733   2.591   4.185 -0.5346 -0.2522  0.0029
 9711TIP3    H129097   5.746   2.659   4.252  0.9058 -1.3876  0.9303
 9711TIP3    H229098   5.709   2.640   4.106 -0.7505  1.2424  0.9497
 9712TIP3   OH229099   0.050   4.026   0.991 -0.3173 -0.0963 -0.3603
 9712TIP3    H129100  -0.025   4.048   0.936 -0.1090 -0.0965 -0.6407
 9712TIP3    H229101   0.045   3.931   1.003 -1.3935  0.0912  1.0981
 9713TIP3   OH229102   5.707   3.837   3.556 -0.3675  0.5387  0.8292
 9713TIP3    H129103   5.709   3.855   3.462  0.3476 -2.1914  0.2351
 9713TIP3    H229104   5.770   3.899   3.593  2.1944 -0.7558 -1.0639
 9714TIP3   OH229105   4.121   5.618   1.273  0.3730  0.3816  0.4057
 9714TIP3    H129106   4.050   5.554   1.265  0.4932 -0.0920  2.4253
 9714TIP3    H229107   4.198   5.573   1.240  0.1335  0.1164  0.2021
 9715TIP3   OH229108   1.478   1.542   3.927  0.1369 -0.5559 -0.1508
 9715TIP3    H129109   1.569   1.573   3.923 -0.3431  1.0582  0.4761
 9715TIP3    H229110   1.469   1.484   3.851  1.4682 -0.1404 -0.6591
 9716TIP3   OH229111   4.411   4.837   1.570 -0.0813  0.2724 -0.3577
 9716TIP3    H129112   4.434   4.848   1.663  0.7540 -1.8666 -0.2560
 9716TIP3    H229113   4.490   4.864   1.523  0.5431 -1.3647 -0.2877
 9717TIP3   OH229114   4.814   4.089   0.697  0.1753 -0.4674  0.3732
 9717TIP3    H129115   4.849   4.079   0.786  0.4502 -0.7411  0.2348
 9717TIP3    H229116   4.892   4.086   0.641 -0.0030 -0.3324  0.1210
 9718TIP3   OH229117   0.800   3.468   2.375 -0.3721  0.6015  0.1834
 9718TIP3    H129118   0.865   3.428   2.433  0.4665  1.1944 -0.3182
 9718TIP3    H229119   0.717   3.429   2.401  0.2554 -0.5551  0.4985
 9719TIP3   OH229120   5.239   1.209   1.022  0.5461  0.3934  0.2343
 9719TIP3    H129121   5.163   1.261   0.994  0.1478 -0.6182 -0.6232
 9719TIP3    H229122   5.314   1.255   0.985  0.2788  0.8749  0.2721
 9720TIP3   OH229123  -0.011   1.447   4.316  0.4327 -0.2896 -0.3840
 9720TIP3    H129124   0.061   1.412   4.264  0.2864 -2.2267  0.6440
 9720TIP3    H229125   0.019   1.440   4.407 -0.6329 -0.1528 -0.0084
 9721TIP3   OH229126   3.704   2.431   2.990 -0.1969  0.5534 -0.0395
 9721TIP3    H129127   3.793   2.459   3.012  0.1125 -1.3984  1.5054
 9721TIP3    H229128   3.716   2.371   2.917 -0.2515  0.3806  0.0934
 9722TIP3   OH229129   5.400   2.177   2.641 -0.7936 -0.3025 -0.2252
 9722TIP3    H129130   5.343   2.228   2.698 -2.4527 -1.3081 -0.8811
 9722TIP3    H229131   5.468   2.238   2.612 -1.3144  0.8413  0.9098
 9723TIP3   OH229132   4.015   3.511   0.607  0.3862  0.7803  0.7044
 9723TIP3    H129133   4.077   3.474   0.670 -0.0557 -0.2548  0.5647
 9723TIP3    H229134   4.060   3.505   0.522 -1.0407 -3.1917  0.0090
 9724TIP3   OH229135   0.681   5.384   3.338 -0.5993 -0.1806  0.6010
 9724TIP3    H129136   0.772   5.413   3.333  0.1538 -2.5007 -0.8546
 9724TIP3    H229137   0.685   5.301   3.386 -1.4445 -1.7822 -1.8914
 9725TIP3   OH229138   3.546   2.765   4.724 -0.2969 -0.1671 -0.3636
 9725TIP3    H129139   3.463   2.735   4.759 -0.4614  0.3399 -0.3040
 9725TIP3    H229140   3.583   2.689   4.679 -0.4156 -0.6216  0.2960
 9726TIP3   OH229141   4.347   1.489   1.320 -0.1556  0.2605 -0.4905
 9726TIP3    H129142   4.280   1.455   1.380 -0.1307 -0.5514 -0.9103
 9726TIP3    H229143   4.310   1.475   1.233  1.3709 -2.0958 -0.8432
 9727TIP3   OH229144   1.774   6.015   2.892  0.1798 -0.0873  0.0685
 9727TIP3    H129145   1.816   6.013   2.806 -1.9526  2.9465 -1.2346
 9727TIP3    H229146   1.833   6.067   2.947  1.6240 -2.1622  0.6047
 9728TIP3   OH229147   5.085   4.189   1.145 -0.4150 -0.5584 -0.5042
 9728TIP3    H129148   5.007   4.133   1.137 -1.1273 -0.1633  2.4532
 9728TIP3    H229149   5.070   4.260   1.082 -1.5715 -1.4118 -1.2412
 9729TIP3   OH229150   4.697   4.344   0.785 -0.0247 -0.6237  0.1850
 9729TIP3    H129151   4.722   4.368   0.874  0.2783 -2.0464  0.5062
 9729TIP3    H229152   4.738   4.259   0.771 -0.6648 -0.7444 -1.0622
 9730TIP3   OH229153   2.845   5.946   1.788  0.8795  0.1190 -0.0943
 9730TIP3    H129154   2.771   6.007   1.790  0.0626 -0.8444  0.5894
 9730TIP3    H229155   2.894   5.968   1.709  1.9833  3.2104  1.3072
 9731TIP3   OH229156   7.089   6.783   2.095 -0.1128  0.1038  0.3049
 9731TIP3    H129157   7.083   6.697   2.137  1.1325 -0.6713 -1.0000
 9731TIP3    H229158   7.162   6.826   2.139 -0.6361  0.4523  0.8508
 9732TIP3   OH229159   4.938   5.351   1.645  0.2312 -0.2467 -0.0244
 9732TIP3    H129160   4.978   5.285   1.588  0.5140 -0.3288  0.2648
 9732TIP3    H229161   5.008   5.414   1.660  0.0176  0.0179 -0.1455
 9733TIP3   OH229162   4.799   1.451   1.303  0.5637 -0.4834 -0.3162
 9733TIP3    H129163   4.783   1.545   1.294  1.7051 -0.0788  1.3479
 9733TIP3    H229164   4.890   1.440   1.278  0.4507 -1.1469 -0.4374
 9734TIP3   OH229165   2.773   0.585   5.251  0.0973  0.0770  0.4289
 9734TIP3    H129166   2.733   0.508   5.291  2.8820 -0.7711  1.8252
 9734TIP3    H229167   2.808   0.634   5.326  0.9667  1.1411 -0.6539
 9735TIP3   OH229168   0.229   3.093   2.317 -0.0671 -0.0361  0.7080
 9735TIP3    H129169   0.257   3.129   2.232  0.1733 -0.8322  0.4485
 9735TIP3    H229170   0.310   3.064   2.359 -0.2895 -0.5537  0.7885
 9736TIP3   OH229171   5.989   2.901   3.535 -0.4605 -0.1415 -0.4623
 9736TIP3    H129172   5.940   2.824   3.505 -1.6460  0.6313 -0.6071
 9736TIP3    H229173   5.930   2.943   3.598  0.9773 -0.3907  1.1354
 9737TIP3   OH229174   1.422   1.793   5.776 -0.3784 -0.4143  0.0227
 9737TIP3    H129175   1.335   1.834   5.773 -0.4632 -0.4760  1.1693
 9737TIP3    H229176   1.440   1.768   5.685 -2.1169 -1.5474 -0.0623
 9738TIP3   OH229177   1.564   6.140   4.188  0.3468 -0.2055 -0.3154
 9738TIP3    H129178   1.628   6.070   4.199  1.4033  0.5541 -1.3917
 9738TIP3    H229179   1.558   6.181   4.274  2.6688  0.8096 -0.5510
 9739TIP3   OH229180   4.163   3.822   1.850 -0.4788 -0.1264  0.2374
 9739TIP3    H129181   4.072   3.850   1.836 -0.5597 -0.9249 -0.9873
 9739TIP3    H229182   4.159   3.766   1.927 -0.8073  0.7930  0.9125
 9740TIP3   OH229183   0.458   1.313   0.945  0.3310 -0.1873 -0.8450
 9740TIP3    H129184   0.421   1.230   0.916  1.7691 -0.7343 -1.1517
 9740TIP3    H229185   0.541   1.321   0.898  0.6447  0.9891 -0.1399
 9741TIP3   OH229186   5.317   4.225   2.360  0.1294 -0.7469  0.5547
 9741TIP3    H129187   5.225   4.218   2.384 -0.0996 -1.5658 -0.4611
 9741TIP3    H229188   5.363   4.165   2.419 -0.2345 -1.6802 -0.0935
 9742TIP3   OH229189   5.743   5.693   4.830 -0.3535  0.1319 -0.4906
 9742TIP3    H129190   5.768   5.709   4.921 -1.9105  1.2243 -0.2175
 9742TIP3    H229191   5.681   5.619   4.835 -0.9287  0.5989 -0.5685
 9743TIP3   OH229192   1.643   1.684   0.483 -0.3494  0.3792  0.4707
 9743TIP3    H129193   1.720   1.637   0.515  0.4543  0.6668 -0.9462
 9743TIP3    H229194   1.587   1.694   0.560 -0.0648 -1.9322  1.0486
 9744TIP3   OH229195   0.628   5.586   3.510  0.3746 -0.5358  0.0236
 9744TIP3    H129196   0.617   5.681   3.503  0.4989 -0.6031 -1.3382
 9744TIP3    H229197   0.641   5.556   3.420 -0.3098 -1.9317  0.3544
 9745TIP3   OH229198   1.122   0.232   0.379 -0.3546 -0.9623  0.3495
 9745TIP3    H129199   1.029   0.243   0.396 -0.3504 -1.4810  0.7427
 9745TIP3    H229200   1.162   0.234   0.466 -0.0573 -1.2416  0.2208
 9746TIP3   OH229201   1.825   5.213   3.405  0.1678  0.1795  0.1721
 9746TIP3    H129202   1.747   5.197   3.352 -0.3863 -0.8836  1.2610
 9746TIP3    H229203   1.885   5.257   3.346 -0.8618  0.0684 -1.0028
 9747TIP3   OH229204   0.432   0.170   5.634  0.0919 -0.1875  0.5782
 9747TIP3    H129205   0.482   0.244   5.665  0.6163 -0.2954  0.0002
 9747TIP3    H229206   0.469   0.094   5.680  1.3049 -0.4373 -0.7564
 9748TIP3   OH229207   4.357   5.107   5.009  0.3960  0.2163  0.1094
 9748TIP3    H129208   4.371   5.087   4.916  0.0834  0.2586  0.0502
 9748TIP3    H229209   4.262   5.107   5.019  0.4295  0.1981  0.4354
 9749TIP3   OH229210   1.155   3.308   0.230 -0.2672 -0.0459  0.6457
 9749TIP3    H129211   1.183   3.311   0.139 -1.8429 -2.4582 -0.0066
 9749TIP3    H229212   1.213   3.242   0.270 -1.1680 -0.7967  0.7400
   7.21173   6.79928   5.88834   0.00000   0.00000  -2.40392   0.00000  -2.40392  -3.39964
