Title
29212
    1ASP      N    1   2.400   2.881   1.514  0.1283  0.5783  0.5233
    1ASP    HT1    2   2.412   2.973   1.468 -3.2376  1.3556  0.9212
    1ASP    HT2    3   2.490   2.843   1.550  0.1075 -1.6064 -1.4580
    1ASP    HT3    4   2.336   2.906   1.592 -0.9703 -0.9025  0.1508
    1ASP     CA    5   2.341   2.787   1.417 -0.4198  0.1126  0.5752
    1ASP     HA    6   2.245   2.832   1.394 -0.4616 -0.9161 -1.4302
    1ASP     CB    7   2.421   2.784   1.282 -0.1359 -0.5211 -0.8008
    1ASP    HB1    8   2.519   2.739   1.306  0.9199  1.4641 -1.1925
    1ASP    HB2    9   2.436   2.887   1.243 -0.3795 -1.5322 -3.8009
    1ASP     CG   10   2.356   2.714   1.166  0.0909 -0.0637 -0.2613
    1ASP    OD1   11   2.238   2.678   1.165 -0.3080 -0.3725 -0.6314
    1ASP    OD2   12   2.425   2.708   1.061  0.4231  0.0039  0.0642
    1ASP      C   13   2.306   2.652   1.477  0.1429 -0.3985 -0.5601
    1ASP      O   14   2.311   2.645   1.602  0.0408  0.0111  0.5696
    2GLY      N   15   2.268   2.543   1.408 -0.1244  0.4387  0.2659
    2GLY     HN   16   2.254   2.552   1.310  1.5219 -0.3291 -0.0730
    2GLY     CA   17   2.233   2.415   1.471 -0.0962  0.4737  0.4175
    2GLY    HA1   18   2.321   2.379   1.523 -0.3149 -0.6079  0.0656
    2GLY    HA2   19   2.188   2.356   1.392 -0.3127  2.0900 -0.7037
    2GLY      C   20   2.129   2.412   1.580  0.3167  0.6364  0.5655
    2GLY      O   21   2.055   2.508   1.604  0.1147 -0.3612  0.0875
    3ASP      N   22   2.122   2.293   1.646 -0.1106 -0.7140  0.0448
    3ASP     HN   23   2.187   2.222   1.619 -0.2971 -1.4204  1.3952
    3ASP     CA   24   2.042   2.272   1.763 -0.0696 -0.0952 -0.0297
    3ASP     HA   25   1.937   2.288   1.743 -0.6295 -2.0151  1.0686
    3ASP     CB   26   2.069   2.125   1.809 -0.1107  0.2821  0.2010
    3ASP    HB1   27   1.995   2.105   1.889 -1.2072  2.2247 -0.2645
    3ASP    HB2   28   2.170   2.111   1.853  1.3163  3.7173 -1.5670
    3ASP     CG   29   2.051   2.017   1.704 -0.1529  0.1466 -0.1518
    3ASP    OD1   30   2.146   1.955   1.663 -0.3648 -0.2444  0.2334
    3ASP    OD2   31   1.935   1.996   1.653  0.0878  0.3439  0.3007
    3ASP      C   32   2.076   2.360   1.887 -0.5931 -0.2698  0.6805
    3ASP      O   33   2.198   2.380   1.915  0.5017 -0.0817  0.1115
    4GLY      N   34   1.979   2.411   1.962 -0.1848 -0.3818 -0.2027
    4GLY     HN   35   1.892   2.423   1.914 -0.0932 -0.5611 -0.4166
    4GLY     CA   36   2.007   2.468   2.096 -0.3260  0.5222 -0.2064
    4GLY    HA1   37   1.914   2.516   2.124  0.1074  2.1397 -1.3859
    4GLY    HA2   38   2.085   2.542   2.089  2.4924 -2.1257  0.9500
    4GLY      C   39   2.042   2.365   2.206  0.3565 -0.2190 -0.6114
    4GLY      O   40   2.037   2.242   2.183  0.6833  0.2204 -0.9765
    5PRO      N   41   2.076   2.401   2.330  0.1604  0.0811  0.2914
    5PRO     CD   42   2.120   2.540   2.374 -0.4351 -0.7386  0.5479
    5PRO    HD1   43   2.032   2.607   2.374  1.4685  1.9152 -0.2844
    5PRO    HD2   44   2.202   2.587   2.316 -2.2471  0.2024 -1.4255
    5PRO     CA   45   2.082   2.311   2.443  0.1486 -0.2039 -0.1265
    5PRO     HA   46   2.164   2.241   2.435 -2.0970 -2.8963 -1.3753
    5PRO     CB   47   2.096   2.406   2.564  0.4381 -0.2148  0.2076
    5PRO    HB1   48   2.145   2.356   2.650  1.3895  0.8441  0.3124
    5PRO    HB2   49   2.002   2.461   2.582  1.1479  0.7291  1.1656
    5PRO     CG   50   2.188   2.516   2.514 -0.0846  0.5318  0.9351
    5PRO    HG1   51   2.189   2.604   2.583 -1.8667  0.1806  1.4789
    5PRO    HG2   52   2.290   2.477   2.498 -0.6748  0.3296 -3.4702
    5PRO      C   53   1.962   2.223   2.464 -0.4504 -0.8227  0.2930
    5PRO      O   54   1.858   2.260   2.415  0.0904 -0.0795  0.2460
    6GLY      N   55   1.984   2.115   2.539 -0.3889  0.0500 -0.0179
    6GLY     HN   56   2.073   2.097   2.579  0.0691 -1.6346 -1.6566
    6GLY     CA   57   1.885   2.022   2.576 -0.0173 -0.2965  0.0529
    6GLY    HA1   58   1.935   1.958   2.648  2.3199  0.4216 -0.8380
    6GLY    HA2   59   1.848   1.974   2.487  0.8495  1.7669 -1.4899
    6GLY      C   60   1.758   2.084   2.634 -0.7253 -0.5847  0.1441
    6GLY      O   61   1.773   2.175   2.712  0.6947  0.1958  0.1983
    7ASP      N   62   1.637   2.040   2.591 -0.1109  0.1400  0.4999
    7ASP     HN   63   1.639   1.966   2.524  0.1228 -0.5162  1.2114
    7ASP     CA   64   1.505   2.083   2.642 -0.7814 -0.4968  0.4258
    7ASP     HA   65   1.493   2.187   2.615  0.0584 -0.4738  0.1337
    7ASP     CB   66   1.391   2.004   2.570 -0.5230  0.0145  0.1031
    7ASP    HB1   67   1.387   2.025   2.461  0.5324 -0.1678  0.0144
    7ASP    HB2   68   1.290   2.031   2.606 -1.7619 -2.5562 -1.1710
    7ASP     CG   69   1.395   1.857   2.574  0.7225  0.2677 -0.5610
    7ASP    OD1   70   1.283   1.803   2.568  1.2595 -0.3542 -0.2808
    7ASP    OD2   71   1.494   1.778   2.580 -0.1943 -0.1900 -0.3508
    7ASP      C   72   1.503   2.071   2.798  0.0960 -0.4270  0.4227
    7ASP      O   73   1.580   1.993   2.852 -0.4512 -0.1173  0.2278
    8PRO      N   74   1.419   2.156   2.871  0.2301 -0.1965  0.3886
    8PRO     CD   75   1.354   2.273   2.809 -0.4057 -0.9643  0.5084
    8PRO    HD1   76   1.261   2.253   2.752 -0.1581 -1.6827  0.3451
    8PRO    HD2   77   1.426   2.327   2.743  0.4282 -1.1033  1.2879
    8PRO     CA   78   1.389   2.147   3.014 -0.1260 -0.0909  0.1960
    8PRO     HA   79   1.483   2.170   3.063 -0.8916  0.7148  1.3347
    8PRO     CB   80   1.295   2.267   3.042  0.4046  0.2037  0.6587
    8PRO    HB1   81   1.316   2.313   3.141 -0.4830 -0.4440  1.1610
    8PRO    HB2   82   1.192   2.226   3.042 -0.5008  2.2196 -1.4562
    8PRO     CG   83   1.321   2.364   2.927 -0.6712 -0.3378  0.2704
    8PRO    HG1   84   1.238   2.437   2.913  1.0626  1.5583 -0.6144
    8PRO    HG2   85   1.406   2.432   2.943  0.1929 -0.9953 -1.2793
    8PRO      C   86   1.333   2.013   3.058  0.3168 -0.2428  0.5304
    8PRO      O   87   1.310   1.919   2.979 -0.2269 -0.1621 -0.5440
    9GLY      N   88   1.317   1.991   3.190 -0.8252  0.0297  0.1344
    9GLY     HN   89   1.354   2.066   3.244  0.1605  0.4252 -1.0476
    9GLY     CA   90   1.275   1.866   3.252  0.0659  0.0659 -0.1729
    9GLY    HA1   91   1.332   1.851   3.342 -0.4225  0.2040  0.1654
    9GLY    HA2   92   1.294   1.787   3.181  1.9330 -2.1790  2.6125
    9GLY      C   93   1.127   1.876   3.281 -0.2953  0.1373 -0.5370
    9GLY      O   94   1.055   1.946   3.218  0.0255  0.5359  0.2052
   10ASP      N   95   1.086   1.819   3.400  0.0828 -0.7231 -0.1822
   10ASP     HN   96   1.157   1.778   3.456  0.3696  0.4319  0.3292
   10ASP     CA   97   0.953   1.822   3.461  0.6078 -0.4265  0.1120
   10ASP     HA   98   0.878   1.816   3.384 -0.2532  0.0290  0.8957
   10ASP     CB   99   0.940   1.711   3.569 -0.6823 -0.0814 -1.0766
   10ASP    HB1  100   0.849   1.719   3.632  0.5914 -1.6817  1.1282
   10ASP    HB2  101   1.024   1.713   3.641 -1.7911  0.7306  0.2451
   10ASP     CG  102   0.948   1.571   3.512  0.2551 -0.1312 -0.1726
   10ASP    OD1  103   0.983   1.549   3.398  0.1203  0.2478  0.1924
   10ASP    OD2  104   0.923   1.475   3.594  0.1099 -0.4312 -0.4416
   10ASP      C  105   0.938   1.961   3.530  0.8864 -0.3734  0.0031
   10ASP      O  106   1.029   1.996   3.615  0.0432 -0.1061  0.5183
   11GLY      N  107   0.828   2.037   3.497 -0.8941 -1.0117 -0.3684
   11GLY     HN  108   0.766   2.009   3.424 -1.8374  0.1477 -0.0449
   11GLY     CA  109   0.805   2.167   3.569 -0.4246 -0.1092  0.1108
   11GLY    HA1  110   0.899   2.214   3.594  0.3068 -1.6689  0.4778
   11GLY    HA2  111   0.747   2.150   3.659  1.8762 -2.4220  1.3126
   11GLY      C  112   0.725   2.251   3.487 -0.0266 -0.0884 -0.1617
   11GLY    OT1  113   0.602   2.221   3.471  0.1117 -0.4199 -0.7993
   11GLY    OT2  114   0.777   2.351   3.426 -0.2214 -0.0700  0.3633
   12LIT    LIT  115   0.627   3.715   4.250 -0.2767  0.3747 -0.3084
   13LIT    LIT  116   6.255   3.220   0.349  0.3826  0.1250 -0.0102
   14LIT    LIT  117   0.184   5.119   1.765 -0.2015 -0.6497  0.4178
   15LIT    LIT  118   3.022   0.545   1.225 -0.1815 -0.4323 -0.6910
   16LIT    LIT  119   0.588   2.321   3.308 -0.2884  0.1904  0.2433
   17LIT    LIT  120   1.273   2.877   0.299 -0.2073 -0.3997  0.0721
   18LIT    LIT  121   1.404   5.763   1.390  0.7731 -0.6458  1.2246
   19LIT    LIT  122   2.005   0.525   4.427  0.5419 -1.2533  0.1930
   20LIT    LIT  123   5.586   3.167   1.518  0.0881  0.2774 -0.5565
   21LIT    LIT  124   5.757   0.244   3.957 -0.6250  0.2061 -0.7861
   22LIT    LIT  125   4.079   1.976   5.014  0.0845  0.4220  0.7997
   23LIT    LIT  126   0.443   5.613   1.358 -0.7402  0.0698  0.0544
   24LIT    LIT  127   0.586   0.997   0.918  0.1188 -0.3917  0.2244
   25LIT    LIT  128   1.378   1.640   2.595 -0.8057 -0.0224  1.0054
   26LIT    LIT  129   0.944   1.121   3.556  0.2978  0.1523 -0.0139
   27LIT    LIT  130   2.590   6.145   0.817 -0.2752  0.2638 -0.4929
   28LIT    LIT  131   2.926   0.233   3.720 -0.1502  0.1084 -0.1594
   29LIT    LIT  132   4.452   6.687   1.321 -0.1611  0.0997 -1.1790
   30LIT    LIT  133   1.778   0.962   3.041  0.0243 -0.1448  1.0701
   31LIT    LIT  134   3.814   2.578   3.397  0.6556  0.4160  0.7281
   32LIT    LIT  135   4.961   4.991   5.071 -0.9743  0.5255 -0.4645
   33LIT    LIT  136   1.035   4.889   0.331  0.3969 -0.4014  0.2425
   34LIT    LIT  137   2.301   1.581   5.684  0.5136  0.5923 -0.2681
   35LIT    LIT  138   1.341   2.324   1.700  0.0628  0.2259 -0.2995
   36LIT    LIT  139   1.769   5.458   1.185  1.1869  0.3281  0.0175
   37LIT    LIT  140   1.080   1.045   5.622 -0.3001 -0.8977  0.4616
   38LIT    LIT  141   1.734   3.813   1.407  1.2376  0.0440 -0.2249
   39LIT    LIT  142   6.723   3.865   4.694  0.5560  0.0128 -0.5209
   40LIT    LIT  143   3.598   0.061   3.674 -0.1315  0.3181  0.9432
   41LIT    LIT  144   5.394   4.677   4.631  0.2666 -1.0706 -1.1354
   42LIT    LIT  145   2.025   1.852   1.561 -0.4260 -0.0089 -0.5927
   43CLA    CLA  146   5.904   6.593   1.782 -0.1628 -0.1166 -0.0810
   44CLA    CLA  147   1.662   3.409   2.229  0.0012  0.4799 -0.2810
   45CLA    CLA  148   3.025   3.785   0.392 -0.5178  0.2968  0.0193
   46CLA    CLA  149   0.479   5.364   5.089 -0.2847  0.1306 -0.2345
   47CLA    CLA  150   2.763   0.954   4.241 -0.1993 -0.5281 -0.2642
   48CLA    CLA  151   5.978   4.154   1.384 -0.4213 -0.3689  0.3643
   49CLA    CLA  152   0.864   5.180   1.429 -0.4780 -0.2822 -0.0499
   50CLA    CLA  153   5.910   4.362   4.437  0.0221  0.4370 -0.3431
   51CLA    CLA  154   3.663   5.410   1.482 -0.0590  0.1484 -0.0612
   52CLA    CLA  155   3.094   0.469   2.143 -0.1264 -0.0468 -0.2191
   53CLA    CLA  156   6.124   2.650   5.274  0.3426  0.1234 -0.2402
   54CLA    CLA  157   7.168   4.258   2.668 -0.3264  0.1554  0.5287
   55CLA    CLA  158   3.502   5.252   2.238  0.0517 -0.2702  0.0285
   56CLA    CLA  159   1.462   2.178   5.549 -0.0141 -0.0254  0.2216
   57CLA    CLA  160   4.725   0.193   3.815 -0.1824  0.0713 -0.2653
   58CLA    CLA  161   5.352   4.703   2.971 -0.0049  0.1131  0.3107
   59CLA    CLA  162   3.192   4.409   4.503  0.2027  0.1599  0.0016
   60CLA    CLA  163   2.250   5.360   5.594  0.0096  0.1127 -0.0645
   61CLA    CLA  164   0.211   5.242   1.953  0.2343 -0.1277 -0.2613
   62CLA    CLA  165   1.499   3.167   0.027  0.0125 -0.0005 -0.1521
   63CLA    CLA  166   5.536   1.963   1.332 -0.1904 -0.0498  0.2356
   64CLA    CLA  167   1.052   6.792   4.129 -0.0730 -0.1900  0.0504
   65CLA    CLA  168   4.821   5.304   1.460 -0.4917  0.0656 -0.3238
   66CLA    CLA  169   1.316   2.016   1.361  0.0480  0.0247 -0.1955
   67CLA    CLA  170   3.747   3.935   1.471  0.4611  0.2492  0.0710
   68CLA    CLA  171   3.450   0.999   5.133 -0.1107  0.5419  0.1038
   69CLA    CLA  172   3.802   2.280   5.083  0.3237 -0.0426 -0.1488
   70TIP3   OH2  173   0.752   4.796   4.655  0.0127 -0.2524  0.3088
   70TIP3    H1  174   0.688   4.868   4.655 -0.4233 -0.6347  0.6780
   70TIP3    H2  175   0.767   4.778   4.563  0.3411  0.5018  0.2075
   71TIP3   OH2  176   1.189   4.311   2.321 -0.2879  0.6151  0.5911
   71TIP3    H1  177   1.093   4.311   2.319 -0.2930  0.7689  0.7260
   71TIP3    H2  178   1.212   4.233   2.371 -0.3864  1.2670  1.7105
   72TIP3   OH2  179   2.000   4.786   4.365  0.0547 -0.5461  0.3434
   72TIP3    H1  180   2.049   4.706   4.386 -2.3508 -2.1888  0.0452
   72TIP3    H2  181   2.063   4.841   4.319  1.2191 -3.2267 -1.4850
   73TIP3   OH2  182   5.078   0.545   0.335  0.4532 -0.6291  0.3480
   73TIP3    H1  183   5.111   0.628   0.368  1.5452 -0.9366  0.0558
   73TIP3    H2  184   5.086   0.552   0.240  1.2362 -1.3279  0.3498
   74TIP3   OH2  185   5.659   0.610   4.909 -0.3166  0.1864  0.1536
   74TIP3    H1  186   5.739   0.559   4.901 -0.1033  0.6444 -0.7686
   74TIP3    H2  187   5.626   0.617   4.819 -0.5766  1.2924  0.3164
   75TIP3   OH2  188   5.631   6.509   4.875  0.1924  0.5145  0.2668
   75TIP3    H1  189   5.580   6.434   4.904  0.5908 -0.0012 -0.3386
   75TIP3    H2  190   5.713   6.471   4.841  0.0214  1.1378 -0.8968
   76TIP3   OH2  191   1.965   1.677   1.659  0.1450 -0.1809 -0.5295
   76TIP3    H1  192   1.927   1.595   1.628 -0.6598  0.3919 -1.1041
   76TIP3    H2  193   1.961   1.671   1.754 -1.4903 -0.1045 -0.5738
   77TIP3   OH2  194   0.347   0.271   2.074  0.3644  0.1621  0.0688
   77TIP3    H1  195   0.402   0.196   2.096 -0.6716 -0.4557  0.6557
   77TIP3    H2  196   0.271   0.232   2.029  0.4513  1.0012 -0.8388
   78TIP3   OH2  197   2.457   0.683   3.184  0.1806 -0.0023 -0.1128
   78TIP3    H1  198   2.509   0.750   3.228  0.8116 -0.8526  0.4753
   78TIP3    H2  199   2.478   0.602   3.231 -0.0302 -0.7325 -1.2465
   79TIP3   OH2  200   4.594   0.815   3.351 -0.4904  0.4261 -0.1808
   79TIP3    H1  201   4.528   0.867   3.304 -0.8468 -0.1558 -0.3419
   79TIP3    H2  202   4.549   0.785   3.430  0.0975  1.3705  0.5240
   80TIP3   OH2  203   6.732   0.960   2.945  0.3039 -0.1310 -0.1215
   80TIP3    H1  204   6.796   0.996   3.007 -0.9056  0.9042  0.5842
   80TIP3    H2  205   6.648   0.991   2.977 -0.3995  0.2438 -2.1437
   81TIP3   OH2  206   6.715   3.084   1.053  0.0730  0.2006  0.2297
   81TIP3    H1  207   6.623   3.057   1.058  0.0217  0.2136 -0.5637
   81TIP3    H2  208   6.746   3.049   0.969  0.9941 -0.4166  0.8000
   82TIP3   OH2  209   4.815   0.506   3.615  0.3398 -0.1366  0.9541
   82TIP3    H1  210   4.775   0.435   3.664  0.1796 -0.7413 -0.0342
   82TIP3    H2  211   4.748   0.535   3.553  0.7260  0.2247  0.6887
   83TIP3   OH2  212   5.915   6.152   1.618 -0.4357  0.0680 -0.2462
   83TIP3    H1  213   5.939   6.072   1.665 -0.7230  0.3625  0.4243
   83TIP3    H2  214   5.911   6.127   1.526 -3.2528 -1.4147  0.1686
   84TIP3   OH2  215   0.871   6.567   3.641 -0.2546  1.1381 -0.2165
   84TIP3    H1  216   0.959   6.603   3.648 -0.4619  1.3245  2.1265
   84TIP3    H2  217   0.883   6.472   3.646 -0.1608  1.1395 -0.4059
   85TIP3   OH2  218   6.592   4.721   2.534  0.1001 -0.0050  0.0155
   85TIP3    H1  219   6.682   4.694   2.549  0.7252  1.6863 -0.4415
   85TIP3    H2  220   6.583   4.805   2.580 -0.7166  0.6692 -1.2885
   86TIP3   OH2  221   4.756   5.689   4.450  0.6642 -0.1062  0.1044
   86TIP3    H1  222   4.762   5.775   4.492  0.6677 -0.6484  1.2653
   86TIP3    H2  223   4.670   5.690   4.407 -0.2437 -0.2214  1.8019
   87TIP3   OH2  224   6.063   1.949   3.393 -0.5945 -0.3632  0.2096
   87TIP3    H1  225   6.004   1.978   3.322 -1.7309  0.3612  1.4050
   87TIP3    H2  226   6.144   1.925   3.348 -1.4423 -0.3771 -1.3884
   88TIP3   OH2  227   0.068   3.425   4.873 -0.2421 -0.0268 -0.0099
   88TIP3    H1  228   0.025   3.340   4.871 -0.5626  0.1423 -0.8788
   88TIP3    H2  229  -0.005   3.488   4.874 -0.1085  0.2945 -2.7098
   89TIP3   OH2  230   5.979   1.525   5.826  0.6024  0.3507  0.2283
   89TIP3    H1  231   5.970   1.619   5.840 -0.6065  0.2172  0.4155
   89TIP3    H2  232   6.052   1.517   5.764  1.2214  1.3545  0.7981
   90TIP3   OH2  233   5.032   3.526   4.183 -0.1614  0.2232  0.3039
   90TIP3    H1  234   5.024   3.553   4.091 -0.9443 -1.1201 -0.0400
   90TIP3    H2  235   5.020   3.431   4.182 -0.3111  0.2002  1.8115
   91TIP3   OH2  236   3.542   3.720   5.844  0.2592  0.3952 -0.5452
   91TIP3    H1  237   3.631   3.686   5.857 -0.5441 -1.2473  1.1327
   91TIP3    H2  238   3.486   3.662   5.896 -2.0068  0.4090 -2.7344
   92TIP3   OH2  239   5.820   6.175   4.251  0.3781 -0.7118  0.0762
   92TIP3    H1  240   5.843   6.095   4.204 -0.5579 -1.3469  0.6849
   92TIP3    H2  241   5.862   6.165   4.337  1.6985  0.2382 -0.4275
   93TIP3   OH2  242   4.665   1.199   4.884  0.1566 -0.1609  0.4224
   93TIP3    H1  243   4.649   1.109   4.857 -1.0981 -0.0135  0.5979
   93TIP3    H2  244   4.595   1.218   4.947 -0.2815  1.2665 -0.4430
   94TIP3   OH2  245   4.524   4.476   0.632 -0.2002 -0.0029 -0.1554
   94TIP3    H1  246   4.582   4.502   0.560  3.1466 -1.2855  1.8024
   94TIP3    H2  247   4.532   4.546   0.696 -0.2265 -0.5108  0.4193
   95TIP3   OH2  248   1.470   3.804   5.537 -0.0829 -0.6042  0.3199
   95TIP3    H1  249   1.411   3.822   5.610  0.7866  0.9713  0.6962
   95TIP3    H2  250   1.504   3.716   5.553 -1.3521 -1.0227  0.7653
   96TIP3   OH2  251   6.662   2.891   3.051 -0.9589  0.0412  0.1892
   96TIP3    H1  252   6.573   2.924   3.037 -1.2397 -1.9381 -4.1936
   96TIP3    H2  253   6.716   2.970   3.057 -2.6558  1.2843  0.0277
   97TIP3   OH2  254   4.214   5.739   2.271  0.0149 -0.1727  0.8461
   97TIP3    H1  255   4.248   5.649   2.271 -0.4065 -0.3579  2.1324
   97TIP3    H2  256   4.286   5.791   2.309 -1.2636 -0.6978  4.4432
   98TIP3   OH2  257   3.289   0.317   2.662 -0.3681  0.5710 -0.0883
   98TIP3    H1  258   3.306   0.400   2.707  0.1811  0.7167 -0.5625
   98TIP3    H2  259   3.318   0.331   2.572  0.9254 -0.5371  0.1263
   99TIP3   OH2  260   3.899   4.071   3.931 -0.4053 -0.8490  0.3150
   99TIP3    H1  261   3.842   4.140   3.965 -0.7179 -0.0935 -1.6148
   99TIP3    H2  262   3.942   4.036   4.009 -1.7591  0.1305  1.5771
  100TIP3   OH2  263   1.367   4.617   4.915 -0.0473 -0.2217 -0.4477
  100TIP3    H1  264   1.344   4.588   4.826  0.5538  0.6684 -0.9098
  100TIP3    H2  265   1.319   4.698   4.927  1.4018  0.7212 -0.7465
  101TIP3   OH2  266   0.866   5.394   3.757  0.3083 -0.0853  0.5220
  101TIP3    H1  267   0.959   5.407   3.774  0.2398 -0.4408  1.2137
  101TIP3    H2  268   0.860   5.383   3.662  1.0272 -0.4545  0.5134
  102TIP3   OH2  269   0.760   6.093   3.800 -0.1953  0.2191 -0.0036
  102TIP3    H1  270   0.797   6.153   3.735  1.0049  0.8295  1.2022
  102TIP3    H2  271   0.769   6.139   3.883 -0.4213 -1.1132  0.7880
  103TIP3   OH2  272   7.040   2.745   0.044  0.2369 -0.5003  0.1486
  103TIP3    H1  273   7.105   2.681   0.073 -0.6181 -1.6519 -0.4015
  103TIP3    H2  274   6.958   2.695   0.036 -0.8010  0.9636  1.0894
  104TIP3   OH2  275   5.669   4.922   1.656 -0.7356  0.7596 -0.0145
  104TIP3    H1  276   5.666   4.936   1.751  1.6804  0.2709  0.2198
  104TIP3    H2  277   5.751   4.875   1.642 -1.1555  0.5994 -2.3446
  105TIP3   OH2  278   1.987   0.499   0.898 -0.8515  0.2102 -0.7923
  105TIP3    H1  279   2.003   0.445   0.975 -2.2718  0.3276 -0.3829
  105TIP3    H2  280   2.073   0.509   0.857 -0.0327  0.3294  0.8814
  106TIP3   OH2  281   5.146   4.015   2.994 -0.1461  0.2285 -0.1397
  106TIP3    H1  282   5.210   4.085   3.010  0.7212 -0.5215 -0.2844
  106TIP3    H2  283   5.065   4.048   3.034  0.0804  1.5855 -0.7440
  107TIP3   OH2  284   6.588   4.360   1.494  0.2543 -0.6643  0.1768
  107TIP3    H1  285   6.525   4.290   1.504  1.3930 -1.5251  1.8238
  107TIP3    H2  286   6.652   4.327   1.431 -0.1989 -0.3306 -0.4694
  108TIP3   OH2  287   3.401   0.579   4.664  0.0640  0.1775 -0.3448
  108TIP3    H1  288   3.382   0.569   4.757  0.9933 -0.5800 -0.2221
  108TIP3    H2  289   3.345   0.516   4.620  0.7003 -0.5251 -0.1643
  109TIP3   OH2  290   2.302   3.741   5.311 -0.0075 -0.5295 -0.2730
  109TIP3    H1  291   2.325   3.824   5.352 -0.5480  0.3854 -1.7444
  109TIP3    H2  292   2.348   3.742   5.227  0.3114 -1.9205 -0.1474
  110TIP3   OH2  293   2.237   4.101   3.366 -0.5233  0.0436  0.3305
  110TIP3    H1  294   2.235   4.108   3.271  0.8513  0.5952  0.3290
  110TIP3    H2  295   2.183   4.174   3.396 -2.8312 -1.4142 -0.0144
  111TIP3   OH2  296   0.500   5.965   5.338 -0.8294 -0.1157  0.1185
  111TIP3    H1  297   0.410   5.952   5.309 -0.9374  1.2313 -0.2139
  111TIP3    H2  298   0.548   5.989   5.258 -0.8511  2.2841  0.7343
  112TIP3   OH2  299   3.182   1.461   2.452 -0.0536 -0.1023  0.3064
  112TIP3    H1  300   3.110   1.524   2.460 -2.0460 -2.4302  1.8963
  112TIP3    H2  301   3.199   1.432   2.542  1.8266 -0.7757 -0.2234
  113TIP3   OH2  302   4.355   5.418   0.267  0.7976  0.0428 -0.0159
  113TIP3    H1  303   4.262   5.434   0.249  0.4655  0.6098  1.9213
  113TIP3    H2  304   4.401   5.480   0.210 -0.0536  0.3101 -0.4370
  114TIP3   OH2  305   3.075   6.501   2.071  0.0331  0.0861 -0.5498
  114TIP3    H1  306   3.142   6.500   2.139 -0.0392 -0.1660 -0.4815
  114TIP3    H2  307   3.067   6.409   2.044  0.7459  0.2941 -1.5647
  115TIP3   OH2  308   2.557   2.805   2.505 -0.4160  0.5865  0.5116
  115TIP3    H1  309   2.558   2.710   2.493  0.2538  0.6547 -0.0242
  115TIP3    H2  310   2.473   2.833   2.470 -0.4565  0.2316  0.3215
  116TIP3   OH2  311   1.313   3.116   2.753  0.3357  0.3203  0.4769
  116TIP3    H1  312   1.360   3.169   2.818  0.2722  0.1078  0.6972
  116TIP3    H2  313   1.373   3.111   2.679  0.4526  0.4756  0.5595
  117TIP3   OH2  314   0.840   3.308   5.504 -0.5854 -0.2510  0.4714
  117TIP3    H1  315   0.768   3.263   5.547 -0.6689 -0.0091  0.5871
  117TIP3    H2  316   0.919   3.273   5.545 -0.5632 -1.5357 -0.6136
  118TIP3   OH2  317   6.905   0.117   2.129 -0.4996 -0.4016  0.0664
  118TIP3    H1  318   6.858   0.149   2.206 -2.0836 -0.2912 -0.9071
  118TIP3    H2  319   6.837   0.081   2.072  0.4486  0.6674 -1.8477
  119TIP3   OH2  320   6.712   2.071   0.257 -0.0655  0.5037  0.4712
  119TIP3    H1  321   6.700   2.034   0.170  2.0788 -0.2567  0.4224
  119TIP3    H2  322   6.624   2.074   0.295 -0.7090 -1.8909 -0.6438
  120TIP3   OH2  323   1.532   4.514   3.117 -0.1475 -0.2641  0.4183
  120TIP3    H1  324   1.476   4.510   3.195 -1.0889  2.7106  0.0027
  120TIP3    H2  325   1.490   4.455   3.054 -1.9658  0.7327  0.6460
  121TIP3   OH2  326   0.129   5.115   3.188  0.1452 -0.8652 -0.5526
  121TIP3    H1  327   0.080   5.115   3.270  0.4608 -3.1388 -0.3155
  121TIP3    H2  328   0.210   5.164   3.208 -0.4199 -0.1530  0.0444
  122TIP3   OH2  329   6.709   2.996   3.680 -0.1253  0.2095 -0.5245
  122TIP3    H1  330   6.788   3.012   3.731 -1.1492  1.7726  0.6745
  122TIP3    H2  331   6.734   3.012   3.589  1.0886 -0.0184 -0.2454
  123TIP3   OH2  332   1.582   5.072   0.248  0.5520 -0.3438  0.3111
  123TIP3    H1  333   1.500   5.120   0.245  0.5250 -0.0933  3.0610
  123TIP3    H2  334   1.650   5.139   0.240  0.5227 -0.4370 -0.8769
  124TIP3   OH2  335   6.358   1.238   0.103  0.2306 -0.3929  0.0462
  124TIP3    H1  336   6.436   1.288   0.126  0.2336 -0.7795  0.8943
  124TIP3    H2  337   6.366   1.224   0.008  1.1268 -0.3276  0.1036
  125TIP3   OH2  338   5.661   1.313   1.740 -0.0630  0.1775 -0.1384
  125TIP3    H1  339   5.677   1.234   1.689  1.1807  0.1361  0.2713
  125TIP3    H2  340   5.703   1.383   1.691  1.2563  0.1176  0.8423
  126TIP3   OH2  341   0.254   6.594   2.045 -0.5365 -0.0687  0.6375
  126TIP3    H1  342   0.176   6.633   2.006 -1.0716  0.0381  1.7734
  126TIP3    H2  343   0.262   6.636   2.130  0.6748 -0.2025  0.6176
  127TIP3   OH2  344   0.955   1.917   0.646 -0.2755  0.3169  0.0516
  127TIP3    H1  345   0.891   1.845   0.641  0.6005 -0.5905  1.1892
  127TIP3    H2  346   0.902   1.994   0.667 -1.1085 -0.2268  0.0119
  128TIP3   OH2  347   3.781   1.746   3.003  0.2650  0.4550  0.1398
  128TIP3    H1  348   3.817   1.830   3.032  0.7176  0.4690 -0.4655
  128TIP3    H2  349   3.700   1.737   3.054 -0.0427  1.4892 -0.1310
  129TIP3   OH2  350   4.722   1.270   2.671  0.0819 -0.0799 -0.1572
  129TIP3    H1  351   4.766   1.194   2.710 -0.9772 -0.5494  0.1824
  129TIP3    H2  352   4.706   1.328   2.745  1.5786  0.8465 -0.5389
  130TIP3   OH2  353   6.228   3.128   2.067  0.2611 -0.0500  0.3214
  130TIP3    H1  354   6.211   3.216   2.034 -0.7290 -0.6908 -0.9393
  130TIP3    H2  355   6.143   3.084   2.066  0.9420 -1.4138 -0.2571
  131TIP3   OH2  356   7.057   6.584   4.200  0.3616  0.0203  0.0070
  131TIP3    H1  357   6.963   6.579   4.184  0.3184  0.1717  0.2039
  131TIP3    H2  358   7.086   6.660   4.149  0.1979  0.5939  0.7590
  132TIP3   OH2  359   6.983   0.984   2.040 -0.2940 -0.1187 -0.4889
  132TIP3    H1  360   6.898   1.013   2.006 -0.3883 -0.6870 -0.7510
  132TIP3    H2  361   6.975   0.889   2.047 -0.1615 -0.0483  0.8401
  133TIP3   OH2  362   5.158   5.153   0.854 -0.6814 -0.4106 -0.0483
  133TIP3    H1  363   5.213   5.134   0.778 -0.6436 -1.7484  0.2784
  133TIP3    H2  364   5.072   5.117   0.831 -0.9450  0.1002  0.1298
  134TIP3   OH2  365   1.261   1.057   2.934 -0.1599 -0.2361 -0.2704
  134TIP3    H1  366   1.221   1.031   3.017  1.8217  0.6298  1.0314
  134TIP3    H2  367   1.193   1.040   2.869 -2.9719  1.9440  1.8472
  135TIP3   OH2  368   0.551   1.025   0.122  0.3262  0.6602 -0.6707
  135TIP3    H1  369   0.536   1.034   0.028  0.9094  0.7012 -0.7642
  135TIP3    H2  370   0.641   0.994   0.130  0.3536  0.8532 -0.1183
  136TIP3   OH2  371   3.344   4.019   3.505 -0.8807 -0.3849  0.0092
  136TIP3    H1  372   3.328   4.095   3.561 -0.4059 -0.0182 -0.3401
  136TIP3    H2  373   3.261   3.970   3.507 -0.8333 -0.4477  1.1115
  137TIP3   OH2  374   4.717   6.306   5.465 -0.1542 -0.0609 -1.2315
  137TIP3    H1  375   4.660   6.232   5.484 -0.4940  0.6227  0.6812
  137TIP3    H2  376   4.657   6.378   5.445  0.0944  0.1953 -1.0698
  138TIP3   OH2  377   0.168   4.256   2.459 -0.0657  0.4660  0.4978
  138TIP3    H1  378   0.226   4.316   2.505 -0.4408  1.4111 -0.2411
  138TIP3    H2  379   0.090   4.250   2.514 -0.2806  1.1490  0.2800
  139TIP3   OH2  380   5.655   1.056   0.276  0.3888  0.0874 -0.2966
  139TIP3    H1  381   5.614   1.098   0.352  2.4437 -2.8470  2.7372
  139TIP3    H2  382   5.692   1.128   0.226  1.8860  2.1991  3.3961
  140TIP3   OH2  383   2.199   3.098   4.340  0.4000 -0.0557  0.3502
  140TIP3    H1  384   2.154   3.122   4.259 -1.4996  0.6763  1.5480
  140TIP3    H2  385   2.155   3.017   4.368 -0.8753  1.1582  2.0077
  141TIP3   OH2  386   7.018   4.609   3.250 -0.4443 -0.1693 -0.6983
  141TIP3    H1  387   7.046   4.614   3.342  0.8105  1.4935 -1.1298
  141TIP3    H2  388   6.926   4.635   3.251 -0.3296  0.2289  0.0367
  142TIP3   OH2  389   5.666   4.426   0.529 -0.1391 -0.2381 -0.0493
  142TIP3    H1  390   5.609   4.421   0.452  0.7321 -1.2463 -0.6622
  142TIP3    H2  391   5.692   4.518   0.534 -0.5294 -0.0850 -0.7087
  143TIP3   OH2  392   6.625   5.707   4.038  0.1962  0.3103 -0.4851
  143TIP3    H1  393   6.628   5.616   4.010  1.2259  0.5623 -1.2811
  143TIP3    H2  394   6.672   5.709   4.121 -1.1611 -0.1208  0.3150
  144TIP3   OH2  395   6.006   2.936   0.290  0.2225  0.2851  0.4462
  144TIP3    H1  396   6.011   2.845   0.261  0.3161  0.5225 -0.3150
  144TIP3    H2  397   5.914   2.948   0.314  0.6757 -0.6930  2.9538
  145TIP3   OH2  398   0.651   6.593   0.515 -0.2418 -0.5419  0.3183
  145TIP3    H1  399   0.585   6.640   0.463  2.1267 -0.4767 -2.8861
  145TIP3    H2  400   0.623   6.501   0.512 -0.6297 -0.4063 -0.2754
  146TIP3   OH2  401   6.597  -0.016   2.347  0.3404 -0.1195  0.0815
  146TIP3    H1  402   6.565   0.045   2.414  0.6725  0.3352 -0.1662
  146TIP3    H2  403   6.628   0.040   2.277  3.1551 -0.4416  0.9493
  147TIP3   OH2  404   2.685   6.446   3.673  0.1815  0.8504  0.0671
  147TIP3    H1  405   2.755   6.481   3.618  0.6336 -0.7937 -0.4596
  147TIP3    H2  406   2.606   6.487   3.640  0.3512 -0.5245 -2.3140
  148TIP3   OH2  407   1.002   5.057   0.245  0.0167 -0.1030 -0.2377
  148TIP3    H1  408   0.999   5.127   0.309 -0.7519  0.1498 -0.5367
  148TIP3    H2  409   0.960   5.093   0.167  1.4520 -0.2005 -1.0952
  149TIP3   OH2  410   0.161   4.793   1.259  0.3499 -0.0514 -0.4851
  149TIP3    H1  411   0.173   4.724   1.193  1.8201  0.5984 -0.9486
  149TIP3    H2  412   0.069   4.787   1.284  0.1758 -1.4427 -1.3330
  150TIP3   OH2  413   0.429   1.712   2.401  0.2642 -0.0635 -0.2040
  150TIP3    H1  414   0.395   1.742   2.485 -0.2865 -0.5114 -0.2572
  150TIP3    H2  415   0.429   1.790   2.346 -2.2052 -0.3091 -0.6868
  151TIP3   OH2  416   0.430   5.775   0.109  0.2450 -0.3045  0.4455
  151TIP3    H1  417   0.498   5.803   0.048 -0.3532  1.6266  0.5987
  151TIP3    H2  418   0.408   5.686   0.081 -0.4177  0.6638 -2.5889
  152TIP3   OH2  419   6.473   2.832   2.151 -0.1016 -0.1919 -0.7484
  152TIP3    H1  420   6.521   2.906   2.187 -2.7808  1.9045 -1.1640
  152TIP3    H2  421   6.416   2.803   2.222  0.3427 -1.3550 -0.8446
  153TIP3   OH2  422   1.133   1.699   5.528 -0.2927 -0.8426  0.3136
  153TIP3    H1  423   1.067   1.709   5.460  0.6155 -0.8386 -0.5828
  153TIP3    H2  424   1.208   1.751   5.498 -0.9443  1.8072  2.8180
  154TIP3   OH2  425   3.530   1.478   4.586 -0.2926  0.4590  0.0805
  154TIP3    H1  426   3.501   1.558   4.543 -0.5256  0.6169  0.5161
  154TIP3    H2  427   3.544   1.504   4.677 -0.1836  0.0465  0.1837
  155TIP3   OH2  428   3.700   3.952   0.543 -0.0701  0.6907  0.0163
  155TIP3    H1  429   3.647   3.902   0.604 -0.8003  0.5019 -0.7542
  155TIP3    H2  430   3.782   3.967   0.589  0.6095 -2.1420 -0.0915
  156TIP3   OH2  431   6.141   4.200   5.287  0.2492  0.3845  0.6076
  156TIP3    H1  432   6.094   4.131   5.239  0.9604 -1.5880  2.6176
  156TIP3    H2  433   6.230   4.197   5.253  0.2128  0.5114  0.4998
  157TIP3   OH2  434   6.687   5.568   2.917 -0.3524  0.3233 -0.7972
  157TIP3    H1  435   6.633   5.604   2.847 -0.3130  0.7475 -0.6123
  157TIP3    H2  436   6.635   5.581   2.996 -0.0704  0.5506 -0.6466
  158TIP3   OH2  437   7.113   6.781   1.174  0.1487  0.1206 -0.7229
  158TIP3    H1  438   7.092   6.834   1.097 -0.8517  0.7945 -0.0114
  158TIP3    H2  439   7.033   6.732   1.192  0.9651 -1.4320 -1.1860
  159TIP3   OH2  440   6.038   3.603   5.808  0.2163 -0.5388  0.2348
  159TIP3    H1  441   6.036   3.655   5.888  1.2994 -0.4164  0.1934
  159TIP3    H2  442   6.122   3.557   5.810  0.8270  0.3932 -1.4010
  160TIP3   OH2  443   6.864   0.329   4.498 -0.4276  0.2584 -0.3904
  160TIP3    H1  444   6.803   0.273   4.547 -0.3256 -0.1562 -0.7355
  160TIP3    H2  445   6.927   0.358   4.564 -0.6111  0.1506 -0.1641
  161TIP3   OH2  446   1.287   5.302   5.828 -0.2050  0.6307  0.0475
  161TIP3    H1  447   1.330   5.219   5.806  0.9223  0.9734  0.8470
  161TIP3    H2  448   1.194   5.280   5.831  0.0755 -0.6322  0.2967
  162TIP3   OH2  449   6.756   4.849   1.708 -0.4370 -0.0760 -0.2205
  162TIP3    H1  450   6.698   4.925   1.713  0.2790  0.4677 -0.0538
  162TIP3    H2  451   6.701   4.779   1.671 -1.0812  0.5379 -0.4402
  163TIP3   OH2  452   5.286   5.344   1.741  0.3195  0.1141  0.0530
  163TIP3    H1  453   5.193   5.359   1.723  0.2314  1.6187  1.5970
  163TIP3    H2  454   5.299   5.251   1.720 -1.6808 -0.3053  0.4224
  164TIP3   OH2  455   1.894   3.946   3.816  0.1345  0.2816  0.5183
  164TIP3    H1  456   1.941   3.922   3.895  1.6200 -0.3079 -0.4951
  164TIP3    H2  457   1.963   3.967   3.753 -0.9377 -0.5747 -1.0081
  165TIP3   OH2  458   3.715   1.620   2.743 -0.1211 -0.0844  0.0092
  165TIP3    H1  459   3.729   1.632   2.836  0.2261 -0.4994  0.0155
  165TIP3    H2  460   3.748   1.532   2.725 -1.8123 -0.7147 -0.1675
  166TIP3   OH2  461   6.710   0.832   1.130  0.4351 -0.0975  0.0929
  166TIP3    H1  462   6.803   0.853   1.134  0.4401  0.0676 -0.6025
  166TIP3    H2  463   6.668   0.916   1.111  0.1375 -0.1595  0.4660
  167TIP3   OH2  464   2.227   6.807   2.839  0.3709  0.3247  0.5521
  167TIP3    H1  465   2.154   6.764   2.794  0.7475  0.7479 -0.4927
  167TIP3    H2  466   2.304   6.755   2.815  0.5072  0.2379  1.1603
  168TIP3   OH2  467   3.553   3.005   4.443 -0.0601  0.1531 -0.1180
  168TIP3    H1  468   3.609   3.034   4.371 -0.0400  0.5441  0.0498
  168TIP3    H2  469   3.470   2.983   4.401  0.0834 -0.0232 -0.3132
  169TIP3   OH2  470   2.601   1.428   3.525  0.7377 -0.1337  0.3151
  169TIP3    H1  471   2.687   1.463   3.548 -0.0039 -0.1912  3.6844
  169TIP3    H2  472   2.599   1.341   3.565 -0.3050 -0.8217 -1.1513
  170TIP3   OH2  473   2.221   2.895   5.040 -0.3334  0.6713 -0.3155
  170TIP3    H1  474   2.142   2.947   5.055  0.2198  1.2718  0.6037
  170TIP3    H2  475   2.268   2.898   5.123  0.7419  0.4488 -0.9005
  171TIP3   OH2  476   0.002   1.481   4.888 -0.2047 -0.7258 -0.1757
  171TIP3    H1  477   0.081   1.440   4.853  0.4783  0.3621  0.0479
  171TIP3    H2  478   0.010   1.471   4.983 -0.5945 -1.0824 -0.1819
  172TIP3   OH2  479   6.761   5.042   0.425 -0.4615 -0.1855  0.0698
  172TIP3    H1  480   6.793   4.964   0.470  0.3288 -0.6208 -1.1748
  172TIP3    H2  481   6.726   5.008   0.342  1.0558  0.8762 -1.0601
  173TIP3   OH2  482   0.856   2.220   5.480 -0.2811 -0.7754 -0.6975
  173TIP3    H1  483   0.819   2.202   5.567 -1.3850  0.5282 -0.8628
  173TIP3    H2  484   0.869   2.134   5.441 -0.6378 -1.3553  0.4054
  174TIP3   OH2  485   1.933   1.416   1.318  0.4649 -0.2811  1.2388
  174TIP3    H1  486   2.004   1.474   1.346 -1.1061  2.1796  0.4929
  174TIP3    H2  487   1.888   1.465   1.248 -2.0739 -1.6102  1.8058
  175TIP3   OH2  488   2.319   1.482   5.153  0.3301  0.2493  0.2681
  175TIP3    H1  489   2.407   1.473   5.190  0.3306  0.0893  0.2319
  175TIP3    H2  490   2.283   1.560   5.194  0.4254  0.2162  0.4146
  176TIP3   OH2  491   0.554   4.871   3.938 -0.6121  0.2678  0.6683
  176TIP3    H1  492   0.525   4.807   3.873  2.1053 -1.0900  0.6070
  176TIP3    H2  493   0.544   4.956   3.895 -2.9939 -0.1815  0.2153
  177TIP3   OH2  494   5.278   0.140   1.706  0.4156 -0.0838 -0.4707
  177TIP3    H1  495   5.216   0.209   1.682  0.2778 -0.0721 -0.0942
  177TIP3    H2  496   5.224   0.075   1.753  0.7236  0.0198  0.0270
  178TIP3   OH2  497   5.919   5.621   0.794 -0.1424 -0.0124 -0.0247
  178TIP3    H1  498   5.911   5.643   0.701  1.3979  1.0829  0.0580
  178TIP3    H2  499   5.931   5.705   0.838  0.5935 -0.6260  0.9895
  179TIP3   OH2  500   0.164   3.799   1.276  0.4100 -0.5434  0.1615
  179TIP3    H1  501   0.138   3.730   1.337 -0.0165  0.9906  1.7701
  179TIP3    H2  502   0.233   3.758   1.222  2.0240 -1.4895  2.7547
  180TIP3   OH2  503   2.158   2.018   2.240 -0.0327  0.3154 -0.7352
  180TIP3    H1  504   2.092   2.087   2.240  0.2169  0.6005 -2.4604
  180TIP3    H2  505   2.240   2.063   2.225  0.3283 -0.2277 -0.4419
  181TIP3   OH2  506   2.785   0.404   0.940 -0.0501 -0.0553 -0.6804
  181TIP3    H1  507   2.787   0.323   0.990  0.3356  0.9451  1.0080
  181TIP3    H2  508   2.855   0.395   0.875  0.0778 -0.9963 -0.4237
  182TIP3   OH2  509   3.144   4.350   2.626 -0.5293  0.0102 -0.4239
  182TIP3    H1  510   3.169   4.261   2.602 -1.0439 -0.6438  1.3028
  182TIP3    H2  511   3.048   4.347   2.630 -0.4785 -0.0387  1.9262
  183TIP3   OH2  512   2.277   4.818   4.328  0.3141 -0.5210  0.5837
  183TIP3    H1  513   2.268   4.788   4.238 -0.5689  0.7328  0.2367
  183TIP3    H2  514   2.342   4.888   4.324 -1.7634  1.5273  0.3755
  184TIP3   OH2  515   5.238   4.864   4.123  0.1487 -0.3331  0.1343
  184TIP3    H1  516   5.144   4.853   4.140  0.0765  1.5255  1.2250
  184TIP3    H2  517   5.243   4.908   4.039  0.1555 -1.8525 -0.7039
  185TIP3   OH2  518   1.391   3.924   1.965 -0.4399 -0.2330 -0.2736
  185TIP3    H1  519   1.457   3.882   1.910 -0.4428  0.6264 -0.9526
  185TIP3    H2  520   1.432   4.005   1.995 -0.9616  0.0003 -0.1815
  186TIP3   OH2  521   5.606   0.233   4.633 -0.1669  0.1505 -0.5682
  186TIP3    H1  522   5.519   0.226   4.673 -0.0598 -0.3712 -0.4295
  186TIP3    H2  523   5.664   0.255   4.705  0.4149 -3.0147  0.0356
  187TIP3   OH2  524   5.576   6.755   2.307 -0.0357  0.1265 -0.4556
  187TIP3    H1  525   5.666   6.730   2.328  0.2303  1.4606  0.0859
  187TIP3    H2  526   5.580   6.785   2.216  0.3774  1.4954 -0.0113
  188TIP3   OH2  527   4.559   5.176   4.338  0.5319  0.3524  0.0420
  188TIP3    H1  528   4.597   5.258   4.369 -2.4321  1.6525  0.6204
  188TIP3    H2  529   4.521   5.199   4.252  1.5609 -1.0384 -0.8233
  189TIP3   OH2  530   2.048   1.380   5.368  0.4051  0.0280  0.1955
  189TIP3    H1  531   1.977   1.390   5.305 -0.2813 -0.0640  0.9332
  189TIP3    H2  532   2.041   1.457   5.425 -0.1775 -0.8127  1.2993
  190TIP3   OH2  533   1.545   5.870   0.515  0.1021 -0.0541  0.1317
  190TIP3    H1  534   1.518   5.943   0.459 -0.2399  0.2309  0.6590
  190TIP3    H2  535   1.584   5.806   0.455  0.7679  0.7349 -0.2850
  191TIP3   OH2  536   5.288   4.362   5.365 -0.2488 -0.0881 -0.0818
  191TIP3    H1  537   5.314   4.332   5.452 -0.6872 -1.5488 -0.4186
  191TIP3    H2  538   5.275   4.281   5.315 -1.5983  0.6686 -1.0262
  192TIP3   OH2  539   4.204   6.270   5.695 -0.6692  0.2519 -0.2547
  192TIP3    H1  540   4.275   6.294   5.755  0.1004  0.6991 -1.3136
  192TIP3    H2  541   4.189   6.349   5.643 -0.7085 -0.3899 -1.2415
  193TIP3   OH2  542   0.783   2.328   4.452 -0.3717  0.2373 -0.0927
  193TIP3    H1  543   0.760   2.418   4.474  0.4028  0.9218 -1.8933
  193TIP3    H2  544   0.731   2.308   4.374 -0.9400 -1.0930  0.5912
  194TIP3   OH2  545   3.225   4.944   4.558  0.2082 -0.0600  0.2570
  194TIP3    H1  546   3.281   4.873   4.527 -0.0087  0.0317 -0.3796
  194TIP3    H2  547   3.136   4.910   4.546  0.0976 -0.9570  3.0459
  195TIP3   OH2  548   4.107   1.630   5.670 -0.0514  0.6610  0.0540
  195TIP3    H1  549   4.100   1.634   5.575  1.2197  0.6257 -0.0620
  195TIP3    H2  550   4.110   1.721   5.698 -2.8542  0.7491  0.3148
  196TIP3   OH2  551   7.157   6.500   5.500  0.4084 -0.2534 -0.7248
  196TIP3    H1  552   7.063   6.494   5.482 -0.5847 -0.4840  3.3562
  196TIP3    H2  553   7.194   6.421   5.460 -0.8257  0.4241 -3.4292
  197TIP3   OH2  554   6.722   4.196   5.510 -0.2126  0.3701 -0.3959
  197TIP3    H1  555   6.802   4.237   5.544  0.0271 -0.8251  0.5468
  197TIP3    H2  556   6.652   4.235   5.562 -0.3140  1.6342 -1.4173
  198TIP3   OH2  557   3.372   0.964   0.516  0.5211 -0.0068  0.8079
  198TIP3    H1  558   3.360   1.041   0.572 -1.7344  0.0355  0.3367
  198TIP3    H2  559   3.383   1.001   0.428  2.1859 -0.1541  0.9210
  199TIP3   OH2  560   2.931   0.435   5.780  0.0863 -0.1332  0.0341
  199TIP3    H1  561   2.878   0.360   5.807 -1.3547  0.5170 -0.8414
  199TIP3    H2  562   2.867   0.506   5.770  0.9774  0.4503 -1.9618
  200TIP3   OH2  563   4.607   2.986   0.814 -0.1536  0.4732  0.3752
  200TIP3    H1  564   4.634   3.064   0.863  0.5902  0.0317  0.6845
  200TIP3    H2  565   4.579   3.020   0.729  1.2036  0.9927  0.1046
  201TIP3   OH2  566   7.237   4.778   4.132 -0.4540  0.1936  0.5783
  201TIP3    H1  567   7.204   4.739   4.051  1.0192  0.4921 -0.2111
  201TIP3    H2  568   7.161   4.785   4.189 -1.0993 -2.1808  0.0988
  202TIP3   OH2  569   0.237   0.757   2.413 -0.0052 -0.0536 -0.5949
  202TIP3    H1  570   0.205   0.843   2.389  2.8306  1.4454  0.5365
  202TIP3    H2  571   0.291   0.729   2.339  0.3647 -0.1248 -0.3048
  203TIP3   OH2  572   4.947   6.461   5.918 -0.4817  0.5207 -0.7354
  203TIP3    H1  573   4.944   6.462   5.823 -1.3456 -0.0920 -0.7210
  203TIP3    H2  574   4.914   6.375   5.943  0.1715  0.4921  0.1101
  204TIP3   OH2  575   1.756   1.870   0.964  0.3153  0.4101 -0.0362
  204TIP3    H1  576   1.756   1.825   0.880 -0.2878  0.1280  0.1088
  204TIP3    H2  577   1.675   1.841   1.007  0.7127  0.3917  0.7241
  205TIP3   OH2  578   1.996   5.660   5.814 -0.3971  0.1114 -0.1260
  205TIP3    H1  579   1.991   5.672   5.909 -0.5179 -1.1478  0.0434
  205TIP3    H2  580   2.090   5.667   5.795 -0.4412  1.0838 -0.0285
  206TIP3   OH2  581   1.833   6.286   0.104  0.1006  0.6096  0.1228
  206TIP3    H1  582   1.910   6.267   0.050  0.8570  3.0054  0.2687
  206TIP3    H2  583   1.837   6.380   0.121 -3.3305  1.0082 -0.5528
  207TIP3   OH2  584   3.415   2.141   1.693  0.0898 -0.4248 -0.2231
  207TIP3    H1  585   3.419   2.173   1.603  1.1926  1.3927  0.4102
  207TIP3    H2  586   3.431   2.219   1.747 -1.5974 -1.2426  1.5950
  208TIP3   OH2  587   0.291   4.186   0.024 -0.2624 -0.4370  0.1434
  208TIP3    H1  588   0.207   4.232   0.027 -0.3207 -0.5679  0.6209
  208TIP3    H2  589   0.350   4.240   0.078  0.0481 -0.1783 -0.4425
  209TIP3   OH2  590   2.489   6.349   0.456 -0.1205 -0.1089  0.0533
  209TIP3    H1  591   2.530   6.434   0.441 -0.0312 -0.1606  0.0057
  209TIP3    H2  592   2.396   6.365   0.442 -0.0197 -0.2052 -0.7907
  210TIP3   OH2  593   3.063   1.929   0.851  0.0148 -0.4442 -0.1775
  210TIP3    H1  594   3.145   1.978   0.857  0.2329 -0.8150 -0.0714
  210TIP3    H2  595   3.018   1.946   0.934  0.5497 -1.2210  0.2886
  211TIP3   OH2  596   3.109   4.181   0.833 -0.4773 -0.0251  0.5166
  211TIP3    H1  597   3.107   4.274   0.810 -0.6010 -0.3110 -0.6579
  211TIP3    H2  598   3.121   4.135   0.750 -2.2508 -1.1585  0.8296
  212TIP3   OH2  599   6.345   0.053   3.427 -0.1210 -0.5096  0.0904
  212TIP3    H1  600   6.333  -0.007   3.353  2.8115 -1.4139  0.2264
  212TIP3    H2  601   6.372   0.135   3.386 -2.6378  0.3401 -0.0045
  213TIP3   OH2  602   1.019   1.805   3.936 -0.0346 -0.5249  0.2895
  213TIP3    H1  603   1.100   1.850   3.912 -0.1382 -0.8352 -0.7250
  213TIP3    H2  604   1.006   1.825   4.028  0.5952  0.4593  0.1782
  214TIP3   OH2  605   0.841   2.733   5.620 -0.2772 -0.0206  0.1378
  214TIP3    H1  606   0.917   2.699   5.666  0.0575  0.3913 -0.1079
  214TIP3    H2  607   0.864   2.727   5.527 -1.0358 -1.0578  0.0039
  215TIP3   OH2  608   5.193   1.171   4.582  0.0526 -0.0642 -0.0726
  215TIP3    H1  609   5.189   1.141   4.491 -1.8699  0.8224 -0.3256
  215TIP3    H2  610   5.232   1.258   4.577  0.2862 -0.1629  0.0049
  216TIP3   OH2  611   2.608   5.812   1.047  0.1023 -0.4841 -0.4946
  216TIP3    H1  612   2.679   5.874   1.062  0.3253 -0.4361 -1.6649
  216TIP3    H2  613   2.539   5.864   1.005  0.1396 -0.9325 -1.1219
  217TIP3   OH2  614   0.843   0.089   3.379  0.3121 -0.2126 -0.2521
  217TIP3    H1  615   0.757   0.050   3.394  1.2464 -2.3478 -0.0593
  217TIP3    H2  616   0.892   0.072   3.459  1.1652  0.2340 -0.6614
  218TIP3   OH2  617   0.581   4.564   0.218  0.1782  0.2122  0.1842
  218TIP3    H1  618   0.655   4.503   0.211  1.3793  1.5704  0.6463
  218TIP3    H2  619   0.558   4.564   0.311 -1.0215 -0.8642 -0.0808
  219TIP3   OH2  620   5.155   6.190   0.172 -0.1279 -0.0561  0.2678
  219TIP3    H1  621   5.100   6.135   0.227 -0.4736 -0.9601 -0.9604
  219TIP3    H2  622   5.117   6.278   0.180 -0.3063 -0.2153  1.2754
  220TIP3   OH2  623   3.224   2.321   2.585  0.2791  0.3089  0.5837
  220TIP3    H1  624   3.255   2.262   2.516 -0.8043  0.2253  0.1495
  220TIP3    H2  625   3.172   2.387   2.538 -0.3122  0.3565  1.2996
  221TIP3   OH2  626   7.251   2.939   4.540  0.2553 -0.5170 -0.0880
  221TIP3    H1  627   7.232   2.947   4.447  1.5609 -0.2156 -0.3535
  221TIP3    H2  628   7.171   2.902   4.578 -0.9440  1.0110 -1.0312
  222TIP3   OH2  629   2.594   4.463   3.691 -0.7528  0.2311  0.4521
  222TIP3    H1  630   2.604   4.451   3.785 -1.1505 -1.0767  0.3467
  222TIP3    H2  631   2.522   4.405   3.666  0.1125 -0.3477 -0.8416
  223TIP3   OH2  632   2.472   2.986   3.368 -0.4429  0.1167  0.1606
  223TIP3    H1  633   2.401   2.959   3.309 -0.5346  1.6757 -0.5124
  223TIP3    H2  634   2.543   2.925   3.350 -0.8925 -0.1700 -0.7017
  224TIP3   OH2  635   6.479   5.931   4.143  0.3730  0.3528 -0.3470
  224TIP3    H1  636   6.512   5.927   4.233 -0.6538  1.9756  0.1390
  224TIP3    H2  637   6.550   5.896   4.090 -0.1871 -3.9003  1.3014
  225TIP3   OH2  638   5.324   4.464   3.569 -0.1064  0.1601  0.1476
  225TIP3    H1  639   5.295   4.465   3.660 -1.3809 -3.0087 -0.0926
  225TIP3    H2  640   5.244   4.475   3.518 -0.2261 -2.7726 -0.5053
  226TIP3   OH2  641   2.314   4.771   4.891  0.0522  0.1178  0.2017
  226TIP3    H1  642   2.314   4.682   4.858 -0.3374  0.3947 -0.5831
  226TIP3    H2  643   2.229   4.807   4.863 -0.3365  0.3504  1.5847
  227TIP3   OH2  644   5.450   0.317   3.813 -0.4347  0.4278 -0.2200
  227TIP3    H1  645   5.361   0.318   3.778 -0.3691  0.6455 -0.3918
  227TIP3    H2  646   5.497   0.254   3.758 -1.0398 -1.4576  1.3446
  228TIP3   OH2  647   2.140   0.217   4.968  0.2611  0.1719  0.2109
  228TIP3    H1  648   2.145   0.127   4.935  0.7834  0.2216  0.1469
  228TIP3    H2  649   2.214   0.224   5.028 -0.4727  0.1958  1.1360
  229TIP3   OH2  650   1.004   0.242   0.439 -0.0972 -0.1937  0.0595
  229TIP3    H1  651   1.072   0.252   0.373 -0.6814 -0.5369 -0.6075
  229TIP3    H2  652   1.049   0.256   0.523  0.6195  0.3903 -0.4131
  230TIP3   OH2  653   1.889   1.489   1.048  0.0353  0.1500 -0.0484
  230TIP3    H1  654   1.914   1.537   0.969 -0.3758 -1.0976 -0.9752
  230TIP3    H2  655   1.952   1.416   1.052  0.1123  0.2616  0.8377
  231TIP3   OH2  656   6.968   6.214   2.898  0.1369 -0.2408 -0.3667
  231TIP3    H1  657   7.016   6.152   2.953  0.7656  1.0192  0.5596
  231TIP3    H2  658   6.878   6.211   2.931  0.5898  0.7985  1.0670
  232TIP3   OH2  659   1.421   4.380   5.416  0.0410  0.1204 -0.9915
  232TIP3    H1  660   1.345   4.409   5.366 -0.3245  0.6611 -0.1524
  232TIP3    H2  661   1.477   4.336   5.352 -0.6945  0.2490 -1.7391
  233TIP3   OH2  662   2.865   3.253   4.980 -0.1876 -0.0841 -0.1485
  233TIP3    H1  663   2.945   3.203   4.962  0.0769  0.3267 -0.1469
  233TIP3    H2  664   2.822   3.261   4.895  1.0214  1.7909 -0.6484
  234TIP3   OH2  665   0.256   5.476   2.390  0.0847 -0.6640 -0.1938
  234TIP3    H1  666   0.246   5.452   2.482  0.8063 -1.5930 -0.3456
  234TIP3    H2  667   0.196   5.418   2.343 -0.3482 -0.1315 -0.3078
  235TIP3   OH2  668   5.425   5.535   5.502 -0.3111  0.4118 -0.5059
  235TIP3    H1  669   5.472   5.472   5.558 -0.6845  0.8302  0.2983
  235TIP3    H2  670   5.348   5.559   5.553 -0.5491  0.9655 -1.1211
  236TIP3   OH2  671   4.960   1.528   4.984  0.1157  0.1209 -0.3948
  236TIP3    H1  672   4.941   1.486   5.068  1.2415 -0.0436 -0.2041
  236TIP3    H2  673   4.999   1.458   4.932  1.1889  0.7045 -0.3831
  237TIP3   OH2  674   5.570   2.009   0.707 -0.2741 -0.6733  0.0781
  237TIP3    H1  675   5.568   2.059   0.626 -0.7551 -0.6841  0.0826
  237TIP3    H2  676   5.509   2.055   0.765  0.1637 -0.5909  0.4743
  238TIP3   OH2  677   2.186   1.753   1.462 -0.2992  0.2159  0.5278
  238TIP3    H1  678   2.202   1.659   1.468 -1.0215  0.1770  2.7774
  238TIP3    H2  679   2.237   1.782   1.386  0.6373 -1.8227  0.3292
  239TIP3   OH2  680   0.581   6.514   5.094 -0.5504  0.4063 -0.0438
  239TIP3    H1  681   0.669   6.516   5.131 -0.8843  0.4662  0.7674
  239TIP3    H2  682   0.588   6.460   5.015  0.2988  0.7722 -0.2229
  240TIP3   OH2  683   5.931   5.055   0.743 -0.7033  0.4431  0.3592
  240TIP3    H1  684   5.964   5.074   0.831 -1.2326 -1.6184  1.0675
  240TIP3    H2  685   5.846   5.014   0.758 -1.3718  1.1649 -1.2037
  241TIP3   OH2  686   5.042   0.187   3.686 -0.0888  0.0324 -0.6708
  241TIP3    H1  687   4.972   0.149   3.739 -0.2464  0.8726 -0.2569
  241TIP3    H2  688   5.020   0.164   3.596  0.0018 -1.1289 -0.4133
  242TIP3   OH2  689   6.029   0.585   4.481 -0.4653  0.0250 -0.0725
  242TIP3    H1  690   5.981   0.607   4.562 -0.7400 -0.6328 -0.0497
  242TIP3    H2  691   6.119   0.609   4.500 -0.1990 -1.6411  1.0752
  243TIP3   OH2  692   2.603   1.825   0.354 -0.2154  0.1953  0.3045
  243TIP3    H1  693   2.509   1.839   0.345 -0.2922 -0.1411  0.6027
  243TIP3    H2  694   2.622   1.749   0.300  0.3859  2.0088 -2.2270
  244TIP3   OH2  695   2.606   3.979   3.157 -0.2582  0.9308 -0.2538
  244TIP3    H1  696   2.531   3.924   3.132 -1.0185  2.1703 -0.7601
  244TIP3    H2  697   2.633   3.944   3.242 -0.7358 -0.2079 -0.5478
  245TIP3   OH2  698   4.829   0.399   4.733  0.4174 -0.4820 -0.0843
  245TIP3    H1  699   4.869   0.312   4.736  3.0089  0.3018 -4.3110
  245TIP3    H2  700   4.879   0.451   4.796  1.3323 -1.2405 -0.1661
  246TIP3   OH2  701   6.564   0.426   5.797 -0.3651 -0.4523  0.0860
  246TIP3    H1  702   6.614   0.344   5.800  1.1353  0.4401  1.7676
  246TIP3    H2  703   6.611   0.480   5.734 -0.0959 -0.1470  0.5445
  247TIP3   OH2  704   1.832   3.323   4.757  0.1103 -0.3770 -0.1258
  247TIP3    H1  705   1.824   3.417   4.741  0.1719 -0.4652 -0.6966
  247TIP3    H2  706   1.920   3.302   4.728 -0.4787 -0.9152 -1.6105
  248TIP3   OH2  707   0.052   3.745   2.442 -0.2694  0.1122 -0.2069
  248TIP3    H1  708  -0.037   3.718   2.462 -0.2054 -0.5071 -0.7288
  248TIP3    H2  709   0.048   3.841   2.439 -0.6857  0.1403  0.8100
  249TIP3   OH2  710   2.067   4.758   5.239 -0.3204 -0.1019  0.0771
  249TIP3    H1  711   2.075   4.663   5.246 -0.3109 -0.2688 -1.7852
  249TIP3    H2  712   1.992   4.771   5.180  0.0949  1.0245 -0.2241
  250TIP3   OH2  713   1.380   2.795   5.614  0.3530 -0.3569  0.3918
  250TIP3    H1  714   1.377   2.835   5.701 -0.0643  1.5364 -0.4504
  250TIP3    H2  715   1.361   2.703   5.630 -0.1124  0.0152  2.2595
  251TIP3   OH2  716   5.461   4.900   4.332 -0.4376 -0.1447  0.4026
  251TIP3    H1  717   5.488   4.819   4.288 -1.1159 -1.0790  1.6081
  251TIP3    H2  718   5.384   4.929   4.283 -0.3156 -0.3580  0.0809
  252TIP3   OH2  719   2.412   1.605   0.263 -0.1599 -0.1755  0.0691
  252TIP3    H1  720   2.389   1.516   0.291  2.2384 -0.4452  1.5449
  252TIP3    H2  721   2.401   1.658   0.342 -0.9394  0.7426 -0.6321
  253TIP3   OH2  722   6.189   2.677   4.652  0.3271 -0.0440  0.7519
  253TIP3    H1  723   6.263   2.685   4.712  1.4104 -1.4287 -0.3203
  253TIP3    H2  724   6.220   2.718   4.571  0.0661 -0.9324  0.1867
  254TIP3   OH2  725   1.151   4.916   5.146 -0.0283  0.4525  0.3865
  254TIP3    H1  726   1.149   4.894   5.053 -1.7710 -0.6014  0.6332
  254TIP3    H2  727   1.115   5.005   5.150 -3.2186 -0.7241  0.2913
  255TIP3   OH2  728   0.836   4.626   0.666  0.6496  0.5698 -0.3479
  255TIP3    H1  729   0.771   4.557   0.659  1.3725 -0.1567 -0.0293
  255TIP3    H2  730   0.805   4.695   0.607  0.0531 -0.1271 -0.8625
  256TIP3   OH2  731   6.108   1.891   0.463 -0.0853  0.5695  0.0980
  256TIP3    H1  732   6.142   1.813   0.418 -1.0890  1.1515 -1.7820
  256TIP3    H2  733   6.129   1.877   0.555  2.0274 -0.7338 -0.5164
  257TIP3   OH2  734   4.790   6.013   3.303  0.4718  0.3591  0.1527
  257TIP3    H1  735   4.712   5.999   3.250  1.0403  2.1044 -1.2703
  257TIP3    H2  736   4.759   6.059   3.380  0.1010  1.5573 -0.6700
  258TIP3   OH2  737   3.958   6.515   1.814  0.5249  0.7457 -0.5741
  258TIP3    H1  738   3.890   6.448   1.802  0.7004  0.4883 -0.1319
  258TIP3    H2  739   4.000   6.493   1.897  2.8627 -0.6344 -2.0045
  259TIP3   OH2  740   4.086   4.821   4.223  0.5982 -0.3850  0.0672
  259TIP3    H1  741   4.002   4.775   4.228  1.1074 -1.5897 -1.4681
  259TIP3    H2  742   4.117   4.826   4.313 -0.9364 -0.2756  0.6088
  260TIP3   OH2  743   3.656   2.287   3.631 -0.1846 -0.2024  0.1659
  260TIP3    H1  744   3.604   2.242   3.698  1.8763 -3.3807 -0.2113
  260TIP3    H2  745   3.593   2.307   3.562 -1.8189  0.7356  1.8148
  261TIP3   OH2  746   7.146   2.475   2.145 -0.0580 -0.3902  0.1006
  261TIP3    H1  747   7.141   2.514   2.232  2.2077  0.8634 -0.2434
  261TIP3    H2  748   7.056   2.455   2.122 -1.1581  2.6445  1.2695
  262TIP3   OH2  749   3.353   2.853   3.124  0.5046  0.4963  0.3636
  262TIP3    H1  750   3.397   2.778   3.084  0.5289  1.7276 -2.1288
  262TIP3    H2  751   3.307   2.817   3.199 -1.7749 -2.6120 -2.2766
  263TIP3   OH2  752   6.175   6.845   1.460 -0.3884  0.1071  0.5379
  263TIP3    H1  753   6.131   6.777   1.410  0.6092  0.6258 -1.1316
  263TIP3    H2  754   6.251   6.802   1.498  1.1658  0.5372 -1.8563
  264TIP3   OH2  755   1.183   6.257   2.733  0.4266 -0.4908 -0.1985
  264TIP3    H1  756   1.271   6.242   2.699  1.3627 -1.1209  2.3006
  264TIP3    H2  757   1.186   6.345   2.770  0.0904 -0.6499  0.2081
  265TIP3   OH2  758   2.362   5.042   4.713  0.2654  0.2090  0.7048
  265TIP3    H1  759   2.385   4.965   4.765  0.5970  0.3283  0.7424
  265TIP3    H2  760   2.442   5.095   4.713 -0.1913  0.9097  1.3131
  266TIP3   OH2  761   2.296   2.843   3.189 -0.3502 -0.1150 -0.5858
  266TIP3    H1  762   2.338   2.757   3.184  1.1391  0.4466  1.2063
  266TIP3    H2  763   2.203   2.824   3.195  0.0584 -1.7277  1.5699
  267TIP3   OH2  764   6.895   4.846   3.852  0.4499 -0.3387 -0.2016
  267TIP3    H1  765   6.813   4.893   3.870  0.9548  0.8258 -0.8087
  267TIP3    H2  766   6.912   4.797   3.932 -0.8968 -0.6953 -0.1059
  268TIP3   OH2  767   4.412   2.471   3.932  0.0667  0.6080  0.0432
  268TIP3    H1  768   4.489   2.469   3.990  1.4169 -0.1905 -1.6996
  268TIP3    H2  769   4.381   2.381   3.930 -0.7537  0.8670  0.4697
  269TIP3   OH2  770   2.917   1.379   3.752 -0.2748 -0.3931  0.1058
  269TIP3    H1  771   2.917   1.301   3.697  0.5367  0.5466 -1.2972
  269TIP3    H2  772   3.009   1.392   3.776 -0.4018  0.1043  0.3439
  270TIP3   OH2  773   5.618   3.934   3.196 -0.2130  0.2900 -0.1773
  270TIP3    H1  774   5.591   3.969   3.111 -0.6300  2.0301  0.6259
  270TIP3    H2  775   5.535   3.916   3.241 -0.0414  1.1417  0.5173
  271TIP3   OH2  776   5.670   3.712   5.847  0.3025 -0.6142 -0.5190
  271TIP3    H1  777   5.631   3.677   5.767  0.5762 -0.5775 -0.6677
  271TIP3    H2  778   5.700   3.799   5.823 -1.4971  0.2519  0.1719
  272TIP3   OH2  779   3.719   0.566   3.486 -0.0612 -0.4982  0.1783
  272TIP3    H1  780   3.765   0.650   3.476  0.3559 -0.7764 -0.2995
  272TIP3    H2  781   3.789   0.501   3.488 -0.3552 -0.8116  0.9662
  273TIP3   OH2  782   5.216   1.133   5.783  0.0408 -0.2484  0.1372
  273TIP3    H1  783   5.243   1.223   5.797 -0.6288 -0.0102 -0.0626
  273TIP3    H2  784   5.281   1.080   5.829 -0.1999  0.3765  1.2077
  274TIP3   OH2  785   2.532   3.680   3.956  0.2421 -0.2881  0.1168
  274TIP3    H1  786   2.585   3.637   3.889 -0.0676  1.4266 -1.3383
  274TIP3    H2  787   2.572   3.655   4.039  1.8091 -0.9925 -0.8106
  275TIP3   OH2  788   5.369   3.090   5.179 -0.0783  0.3179  0.0977
  275TIP3    H1  789   5.394   3.008   5.135  0.2628  0.2278  0.4603
  275TIP3    H2  790   5.389   3.158   5.114  1.1101  0.2502  0.3551
  276TIP3   OH2  791   2.820   4.980   0.818  0.0823  0.3601  0.8267
  276TIP3    H1  792   2.893   5.035   0.791 -1.7009  1.7229 -1.6477
  276TIP3    H2  793   2.845   4.892   0.790  0.4441  0.9582 -0.8874
  277TIP3   OH2  794   4.752   6.206   0.642  0.4225  0.2169 -0.1168
  277TIP3    H1  795   4.761   6.235   0.733 -0.1062 -0.9991  0.3562
  277TIP3    H2  796   4.776   6.113   0.645  0.1992  0.1157 -1.1827
  278TIP3   OH2  797   1.261   3.356   3.028  0.7026  0.2022 -0.2678
  278TIP3    H1  798   1.231   3.443   3.001  1.1267 -0.1582 -2.0454
  278TIP3    H2  799   1.345   3.345   2.982 -0.3438 -1.9699 -1.8412
  279TIP3   OH2  800   0.035   1.500   0.322 -0.0101  0.1430 -0.4756
  279TIP3    H1  801   0.123   1.485   0.357 -0.0714  1.7828  0.4814
  279TIP3    H2  802   0.049   1.551   0.242 -0.1081  1.8270  0.5303
  280TIP3   OH2  803   1.488   1.955   4.640  0.8671  0.1286 -0.3092
  280TIP3    H1  804   1.545   1.997   4.705  2.0150 -0.2426 -1.0352
  280TIP3    H2  805   1.462   2.025   4.581 -0.4135  0.5233  0.6776
  281TIP3   OH2  806   2.439   6.674   2.690 -0.6581  0.5490  0.7477
  281TIP3    H1  807   2.523   6.689   2.734  0.1416 -0.3392 -0.4133
  281TIP3    H2  808   2.446   6.723   2.608  0.1233 -2.0781 -0.9063
  282TIP3   OH2  809   1.764   1.470   1.639  0.1519  0.4249  0.6888
  282TIP3    H1  810   1.783   1.456   1.547 -0.6345  1.1416  0.4112
  282TIP3    H2  811   1.716   1.553   1.642 -0.5701 -0.0006  1.6341
  283TIP3   OH2  812   1.838   2.366   4.234 -0.3506  0.1035 -0.2453
  283TIP3    H1  813   1.866   2.426   4.165  0.5140 -2.8067 -2.6702
  283TIP3    H2  814   1.916   2.355   4.289 -0.1216  0.2205 -0.5425
  284TIP3   OH2  815   1.616   6.453   3.901 -0.0049 -0.1878  0.4062
  284TIP3    H1  816   1.635   6.375   3.953  1.7492  0.7127  1.2145
  284TIP3    H2  817   1.646   6.526   3.956 -1.2076  1.0406 -0.5004
  285TIP3   OH2  818   5.155   2.670   1.289  0.2767  0.7942  0.0809
  285TIP3    H1  819   5.065   2.683   1.317 -0.2341 -2.1810  0.0464
  285TIP3    H2  820   5.148   2.633   1.201  1.6006  1.5493 -0.3744
  286TIP3   OH2  821   4.291   1.576   3.938  0.5492  0.8689  0.4875
  286TIP3    H1  822   4.306   1.611   3.850  0.1226  0.8909  0.4208
  286TIP3    H2  823   4.200   1.544   3.936  0.2916  1.5269  1.1442
  287TIP3   OH2  824   3.042   4.158   3.028  0.5035 -0.3732 -0.2269
  287TIP3    H1  825   2.948   4.164   3.016  0.6576 -1.2433 -2.1703
  287TIP3    H2  826   3.068   4.246   3.057 -1.1724 -0.8256  3.1041
  288TIP3   OH2  827   1.798   1.088   5.641  0.0343  0.2853 -0.2693
  288TIP3    H1  828   1.854   1.012   5.630  1.3895  1.2310 -0.0986
  288TIP3    H2  829   1.739   1.065   5.713  0.8250 -0.3774  0.1802
  289TIP3   OH2  830   1.908   4.992   5.758  0.3528 -0.1432  0.2478
  289TIP3    H1  831   1.918   5.059   5.690  1.0749  1.3867  1.8111
  289TIP3    H2  832   1.994   4.950   5.763  0.8280  0.9158  1.3676
  290TIP3   OH2  833   3.717   2.357   1.730  0.2102 -0.1192  0.0164
  290TIP3    H1  834   3.758   2.290   1.676  1.3684 -0.3301  1.1032
  290TIP3    H2  835   3.696   2.312   1.812  0.5412  0.7087  0.5726
  291TIP3   OH2  836   6.049   6.373   3.581  0.0134  0.0224 -0.1773
  291TIP3    H1  837   6.017   6.320   3.653 -1.4108  1.4662  0.3060
  291TIP3    H2  838   6.068   6.459   3.620 -0.5300  0.7583 -1.4422
  292TIP3   OH2  839   5.084   6.650   3.344  0.2077 -0.0323 -0.7879
  292TIP3    H1  840   5.082   6.682   3.435 -0.2373 -0.8749 -0.4892
  292TIP3    H2  841   5.169   6.606   3.337  1.4212  2.2833 -1.6056
  293TIP3   OH2  842   5.271   2.057   3.618 -0.1280 -0.1010 -0.6061
  293TIP3    H1  843   5.359   2.095   3.615 -0.2031  0.0204 -2.2933
  293TIP3    H2  844   5.241   2.074   3.707  0.4953  2.3770 -0.7882
  294TIP3   OH2  845   2.740   2.934   2.099 -0.5262 -0.4117 -0.2631
  294TIP3    H1  846   2.794   2.985   2.160  0.2157  1.2428 -2.2066
  294TIP3    H2  847   2.659   2.917   2.148  0.4182 -0.0420  1.5252
  295TIP3   OH2  848   1.385   2.816   0.443 -0.0724 -0.6492  0.0369
  295TIP3    H1  849   1.471   2.837   0.477 -0.3558 -1.4660  1.3162
  295TIP3    H2  850   1.387   2.722   0.428  0.0233 -0.3442 -2.2457
  296TIP3   OH2  851   3.179   4.045   2.506 -0.3604 -0.1705  0.1290
  296TIP3    H1  852   3.214   3.956   2.512 -0.5548 -0.2748 -0.2661
  296TIP3    H2  853   3.128   4.056   2.587 -0.5699 -0.5228  0.0494
  297TIP3   OH2  854   6.749   1.710   0.116 -0.0698  0.1923 -0.4318
  297TIP3    H1  855   6.700   1.793   0.119  0.7946  0.6987  0.5483
  297TIP3    H2  856   6.742   1.681   0.025  0.9436  2.1957 -1.2120
  298TIP3   OH2  857   1.012   1.157   1.464 -0.5674 -0.2110 -0.2594
  298TIP3    H1  858   0.969   1.098   1.402  0.8616  0.0955 -1.6063
  298TIP3    H2  859   1.070   1.100   1.515 -0.1077 -0.1665 -0.7213
  299TIP3   OH2  860   6.311   4.822   4.684 -0.2393  0.9222  0.1160
  299TIP3    H1  861   6.248   4.886   4.653 -0.3920  1.5492  1.6341
  299TIP3    H2  862   6.292   4.743   4.634 -2.4942  0.9800  0.7740
  300TIP3   OH2  863   3.074   6.659   1.199  0.1007 -0.7081  0.5953
  300TIP3    H1  864   3.146   6.687   1.143 -2.0012 -1.1923 -2.6045
  300TIP3    H2  865   3.081   6.563   1.201 -1.0297 -0.8410 -0.6753
  301TIP3   OH2  866   0.974   1.496   4.379 -0.5132  0.0879  0.2553
  301TIP3    H1  867   1.052   1.495   4.324  0.7320 -0.3467  1.9499
  301TIP3    H2  868   0.902   1.508   4.317  0.9600  2.1380 -1.2342
  302TIP3   OH2  869   0.692   2.372   2.759  0.4922 -0.4541  0.0797
  302TIP3    H1  870   0.597   2.384   2.753  0.2477 -2.5621 -1.4892
  302TIP3    H2  871   0.726   2.461   2.772 -1.7514  0.1508  2.8580
  303TIP3   OH2  872   2.998   5.360   3.529 -0.2601 -0.1847  0.1776
  303TIP3    H1  873   3.075   5.382   3.582 -0.0326  2.6710 -1.1619
  303TIP3    H2  874   2.938   5.319   3.591  0.3345  2.1772  2.5269
  304TIP3   OH2  875   1.196   6.088   5.370  0.1868 -0.5253 -0.1288
  304TIP3    H1  876   1.167   6.115   5.283  1.9441  2.3814  0.0491
  304TIP3    H2  877   1.285   6.054   5.356  1.6895  2.6370  0.6835
  305TIP3   OH2  878   5.511   2.830   1.710  0.4615  0.0578  0.7084
  305TIP3    H1  879   5.447   2.854   1.643  0.0794 -0.8353  0.7312
  305TIP3    H2  880   5.548   2.748   1.678  1.3192  0.3668  0.8926
  306TIP3   OH2  881   4.817   5.924   0.593  0.0950 -0.6054  0.8028
  306TIP3    H1  882   4.755   5.863   0.632 -0.5140 -0.6448 -0.1848
  306TIP3    H2  883   4.881   5.867   0.549 -0.1676 -0.5444  0.3376
  307TIP3   OH2  884   6.357   3.650   0.966 -0.0476  0.4645  0.1936
  307TIP3    H1  885   6.447   3.670   0.993 -0.4917  0.1605  2.0135
  307TIP3    H2  886   6.310   3.733   0.976 -0.3613  0.1918  0.9696
  308TIP3   OH2  887   6.574   3.762   2.640  0.1603  0.6276  0.4524
  308TIP3    H1  888   6.612   3.844   2.608  2.7605 -0.9091 -0.7126
  308TIP3    H2  889   6.629   3.737   2.714 -0.1803 -0.4066  0.3741
  309TIP3   OH2  890   5.746   2.724   0.182  0.2509 -0.0272  0.7901
  309TIP3    H1  891   5.717   2.733   0.091  1.3781  1.3571  0.5393
  309TIP3    H2  892   5.671   2.754   0.233 -0.4425 -0.9489  0.3503
  310TIP3   OH2  893   5.593   4.182   2.337 -0.4631 -0.5166 -0.4268
  310TIP3    H1  894   5.567   4.273   2.325  0.9871 -0.1409 -0.9653
  310TIP3    H2  895   5.646   4.182   2.417  0.3769 -0.6872 -0.9704
  311TIP3   OH2  896   3.376   3.472   3.242 -0.2815 -0.9774 -0.4310
  311TIP3    H1  897   3.339   3.406   3.302  0.0837 -0.1861  0.6952
  311TIP3    H2  898   3.467   3.479   3.268 -0.1110 -0.6250 -1.1041
  312TIP3   OH2  899   3.386   2.574   1.468 -0.2770  0.3166  0.1773
  312TIP3    H1  900   3.412   2.522   1.392  1.9771  1.6750 -0.1053
  312TIP3    H2  901   3.353   2.511   1.531  0.1513 -1.1438 -1.0021
  313TIP3   OH2  902   4.852   3.446   2.086  0.2748  0.2114  0.0503
  313TIP3    H1  903   4.820   3.356   2.095 -0.1011  0.5221  2.3889
  313TIP3    H2  904   4.921   3.440   2.020 -0.4046 -1.5958 -0.5682
  314TIP3   OH2  905   2.314   3.184   2.386 -0.2497  0.3887  0.5473
  314TIP3    H1  906   2.380   3.252   2.375  0.6832 -0.5802 -0.0630
  314TIP3    H2  907   2.271   3.180   2.300 -0.0676 -0.0132  0.4723
  315TIP3   OH2  908   6.593   3.461   5.166 -0.8789 -0.3090  0.0385
  315TIP3    H1  909   6.556   3.378   5.136 -1.7694 -0.2558  0.9388
  315TIP3    H2  910   6.517   3.516   5.185 -0.3087  0.9706 -1.1843
  316TIP3   OH2  911   0.616   2.061   1.964 -0.3811 -0.2928 -0.0335
  316TIP3    H1  912   0.550   2.061   1.895 -0.5441 -0.2138  0.1229
  316TIP3    H2  913   0.628   2.153   1.986 -0.4063 -0.3248  0.1180
  317TIP3   OH2  914   6.463   3.679   3.496 -0.4186  0.2462  0.2422
  317TIP3    H1  915   6.385   3.627   3.473  0.5690 -1.3078  0.2505
  317TIP3    H2  916   6.533   3.614   3.504  1.0769  1.6832 -0.5593
  318TIP3   OH2  917   4.444   3.759   2.087 -0.1475  0.1510 -0.5544
  318TIP3    H1  918   4.450   3.691   2.153  0.3210  0.3134 -0.4201
  318TIP3    H2  919   4.505   3.730   2.018  0.9834  1.0129  0.0486
  319TIP3   OH2  920   6.884   2.802   5.820  0.4586  0.1444  0.3797
  319TIP3    H1  921   6.904   2.875   5.879  2.0012 -0.9866  1.3297
  319TIP3    H2  922   6.967   2.756   5.809 -0.6078 -1.9314  0.4688
  320TIP3   OH2  923   2.035   2.915   2.887  0.3782 -0.5769 -0.4055
  320TIP3    H1  924   2.001   2.882   2.804 -1.0930 -1.5916  0.5485
  320TIP3    H2  925   1.982   2.993   2.905  1.7439  0.5641 -1.1368
  321TIP3   OH2  926   3.915   3.772   0.143  0.3023 -0.4322 -0.4093
  321TIP3    H1  927   3.862   3.778   0.063 -0.9459 -0.8857  0.3508
  321TIP3    H2  928   4.004   3.757   0.111 -0.3561 -1.9706 -1.7294
  322TIP3   OH2  929   3.462   5.953   2.142  0.1221 -0.3575 -0.0524
  322TIP3    H1  930   3.372   5.949   2.176 -0.7588 -2.4246 -2.3200
  322TIP3    H2  931   3.499   5.867   2.162  0.7491 -0.3656 -1.1765
  323TIP3   OH2  932   1.116   0.882   0.043 -0.6297  0.1891  0.3631
  323TIP3    H1  933   1.130   0.788   0.036 -0.4170  0.2137  0.4661
  323TIP3    H2  934   1.021   0.893   0.035 -0.5854  0.0382 -0.4470
  324TIP3   OH2  935   4.520   5.001   0.243 -0.4502 -0.8653  0.1368
  324TIP3    H1  936   4.462   4.978   0.171 -1.3039  1.1675  0.1016
  324TIP3    H2  937   4.465   4.999   0.321 -0.9936  2.1729 -0.0381
  325TIP3   OH2  938   4.881   4.616   3.252 -0.0522  0.7271 -0.8708
  325TIP3    H1  939   4.793   4.577   3.256  1.1794 -2.2471  2.8113
  325TIP3    H2  940   4.937   4.547   3.217  1.2892  1.4595 -0.2274
  326TIP3   OH2  941   3.678   4.992   2.958  0.5614 -0.0272  0.1777
  326TIP3    H1  942   3.631   4.932   3.015 -0.2402 -0.4086 -0.8494
  326TIP3    H2  943   3.644   5.078   2.981  1.0586 -0.0444  1.0321
  327TIP3   OH2  944   2.040   4.312   0.126  0.0956 -0.3587  0.4504
  327TIP3    H1  945   2.089   4.231   0.110  0.4937 -0.2757  1.2140
  327TIP3    H2  946   2.065   4.339   0.214 -0.9521 -0.0462  0.6757
  328TIP3   OH2  947   2.524   3.172   5.210  0.2897  0.1324 -0.0694
  328TIP3    H1  948   2.443   3.187   5.258  1.0269 -1.7195  1.9035
  328TIP3    H2  949   2.498   3.112   5.139  0.0886 -1.5358  1.3410
  329TIP3   OH2  950   4.072   2.196   3.718 -0.0901  0.3528  0.6542
  329TIP3    H1  951   4.009   2.125   3.731 -1.5593  1.2571 -1.1418
  329TIP3    H2  952   4.100   2.220   3.806 -1.1603 -1.0433  1.4113
  330TIP3   OH2  953   4.223   4.029   0.180 -0.1978 -0.0245  0.7970
  330TIP3    H1  954   4.301   4.014   0.233  0.2536  2.1643  0.8394
  330TIP3    H2  955   4.255   4.030   0.090 -0.4423 -0.6116  0.6982
  331TIP3   OH2  956   0.948   1.508   4.692  0.5538 -0.0613  0.7310
  331TIP3    H1  957   0.984   1.596   4.705  0.9961 -0.0057 -0.7293
  331TIP3    H2  958   1.016   1.462   4.643 -0.0594 -0.9477  0.7072
  332TIP3   OH2  959   4.690   0.903   4.771 -0.0566 -0.3240  0.2574
  332TIP3    H1  960   4.714   0.843   4.700  1.5553 -0.6271  1.0077
  332TIP3    H2  961   4.769   0.908   4.826 -0.9809  0.5584  1.5685
  333TIP3   OH2  962   6.722   2.512   5.902  0.1973 -0.0696 -0.2339
  333TIP3    H1  963   6.729   2.579   5.834  0.8105  0.0958 -0.0135
  333TIP3    H2  964   6.697   2.432   5.856 -2.7949  0.7626 -0.2653
  334TIP3   OH2  965   2.841   2.915   5.738  0.1974  0.4323  0.0094
  334TIP3    H1  966   2.926   2.957   5.724  0.4099  0.1467  0.4234
  334TIP3    H2  967   2.862   2.823   5.751 -0.0844  0.5142  1.1089
  335TIP3   OH2  968   3.893   5.997   4.267 -0.5147  0.0827  0.3103
  335TIP3    H1  969   3.827   5.972   4.331 -1.9910  1.6875 -0.4902
  335TIP3    H2  970   3.908   6.090   4.283 -0.2721  0.3068 -1.0659
  336TIP3   OH2  971   1.528   4.493   4.403 -0.2438 -0.0116  0.1945
  336TIP3    H1  972   1.603   4.540   4.366  1.5428 -2.5506  0.3958
  336TIP3    H2  973   1.505   4.543   4.481 -0.2853  2.0846 -1.0675
  337TIP3   OH2  974   0.086   0.886   3.104 -0.4299  0.5074 -0.1729
  337TIP3    H1  975   0.074   0.967   3.152  0.1286  0.4652  0.0509
  337TIP3    H2  976   0.061   0.907   3.014  0.2282  1.0790 -0.2315
  338TIP3   OH2  977   1.440   6.239   1.057 -0.0061 -0.2177 -0.0071
  338TIP3    H1  978   1.493   6.192   1.122  1.3299 -0.2320 -1.0461
  338TIP3    H2  979   1.351   6.238   1.092  0.1342 -2.7008  0.4964
  339TIP3   OH2  980   4.796   5.567   3.360 -0.4004  0.0339 -0.4721
  339TIP3    H1  981   4.714   5.613   3.378 -0.7922 -1.1946  1.1492
  339TIP3    H2  982   4.782   5.479   3.396  2.6334  0.6182  2.6155
  340TIP3   OH2  983   6.591   0.295   1.854 -0.8280  0.1233 -0.6219
  340TIP3    H1  984   6.646   0.369   1.829 -0.8652 -0.0295 -1.1793
  340TIP3    H2  985   6.633   0.219   1.815 -0.0255 -0.3663  1.0878
  341TIP3   OH2  986   2.626   0.854   4.498  0.4564  0.3401  0.0157
  341TIP3    H1  987   2.713   0.820   4.519  0.0318 -0.6995  0.1400
  341TIP3    H2  988   2.637   0.898   4.414  0.5090 -2.3630 -1.4917
  342TIP3   OH2  989   0.790   6.007   3.479 -0.6808  0.3965  0.3431
  342TIP3    H1  990   0.856   6.062   3.521  1.5342 -2.5272  1.0731
  342TIP3    H2  991   0.723   5.995   3.546 -0.3132  0.7929  0.7913
  343TIP3   OH2  992   2.997   2.933   0.467  0.1586 -0.1092  0.1764
  343TIP3    H1  993   2.961   2.921   0.555  0.1532 -0.0309  0.1854
  343TIP3    H2  994   3.066   2.999   0.478  0.4496 -0.4197  0.1944
  344TIP3   OH2  995   0.962   3.048   1.567 -0.2825 -0.6235  0.3355
  344TIP3    H1  996   0.900   2.976   1.576 -0.8242 -0.2558 -0.3796
  344TIP3    H2  997   0.945   3.084   1.480 -0.7441  1.0308  1.0782
  345TIP3   OH2  998   1.443   5.068   5.814 -0.3523 -0.5610  0.3105
  345TIP3    H1  999   1.486   5.147   5.847 -0.7818  1.4624 -3.3277
  345TIP3    H2 1000   1.507   4.998   5.826  1.9098  1.2852 -0.3158
  346TIP3   OH2 1001   5.238   5.291   2.669  0.3038 -0.0183 -0.2107
  346TIP3    H1 1002   5.246   5.386   2.680 -1.6179  0.1599 -0.0546
  346TIP3    H2 1003   5.325   5.263   2.639  0.8201  1.8204 -0.5548
  347TIP3   OH2 1004   3.618   5.150   1.630 -0.4064  0.6598  0.0040
  347TIP3    H1 1005   3.627   5.228   1.575 -0.7970 -0.6500 -2.0110
  347TIP3    H2 1006   3.706   5.133   1.663  0.0251  0.9515 -0.9810
  348TIP3   OH2 1007   6.976   1.849   2.532 -0.0602  0.2102  1.1374
  348TIP3    H1 1008   6.907   1.831   2.467  0.8006 -1.6413  0.6800
  348TIP3    H2 1009   6.929   1.851   2.616 -0.8930  0.6184  0.6816
  349TIP3   OH2 1010   7.120   3.159   1.478 -0.1156  0.1573  0.0003
  349TIP3    H1 1011   7.089   3.081   1.524  1.0082  1.1518  2.6294
  349TIP3    H2 1012   7.085   3.150   1.390 -2.0765 -2.0897  0.8978
  350TIP3   OH2 1013   2.497   1.139   5.642 -0.9634 -0.1255 -0.3837
  350TIP3    H1 1014   2.546   1.059   5.661 -1.8728 -0.7424 -0.5689
  350TIP3    H2 1015   2.558   1.210   5.663 -0.4093 -0.8482  0.5319
  351TIP3   OH2 1016   6.809   0.340   4.941 -0.6688 -0.1362  0.2425
  351TIP3    H1 1017   6.730   0.308   4.899  0.6232 -1.1920 -1.5104
  351TIP3    H2 1018   6.837   0.268   4.998 -0.8588  0.1736  0.7381
  352TIP3   OH2 1019   3.503   1.289   1.585  0.3216 -0.3933 -0.4737
  352TIP3    H1 1020   3.505   1.193   1.594  0.9555 -0.4045 -0.6473
  352TIP3    H2 1021   3.424   1.316   1.632  1.0401 -0.8524  1.0801
  353TIP3   OH2 1022   6.232   0.257   4.891  0.3225  0.3784  0.2254
  353TIP3    H1 1023   6.198   0.298   4.970  0.4297  0.0322  0.4509
  353TIP3    H2 1024   6.186   0.301   4.819 -0.7083 -0.1713  0.5214
  354TIP3   OH2 1025   4.764   3.948   4.516  0.1566 -0.4141  0.2002
  354TIP3    H1 1026   4.769   3.853   4.516  0.6331 -0.3975 -1.0767
  354TIP3    H2 1027   4.816   3.976   4.441 -1.1217  0.7923 -0.2925
  355TIP3   OH2 1028   0.952   2.212   1.501 -0.2867  0.1271  0.1464
  355TIP3    H1 1029   0.916   2.163   1.574 -0.5176 -2.6931 -1.7099
  355TIP3    H2 1030   0.896   2.289   1.493 -1.6464 -0.6811  1.5161
  356TIP3   OH2 1031   0.858   1.353   2.826  0.2818 -0.3493  0.0186
  356TIP3    H1 1032   0.816   1.425   2.874 -0.3568 -0.3574 -0.5002
  356TIP3    H2 1033   0.794   1.330   2.758  0.9648 -0.6436 -0.5395
  357TIP3   OH2 1034   1.311   2.067   2.156 -0.2089 -0.3062  0.6903
  357TIP3    H1 1035   1.336   2.159   2.152  1.7395 -0.8225 -0.3614
  357TIP3    H2 1036   1.237   2.060   2.096  0.7118  0.2822 -0.5571
  358TIP3   OH2 1037   2.304   0.928   0.514  0.6454  0.7300 -0.2738
  358TIP3    H1 1038   2.229   0.868   0.510 -1.4493  3.2123 -1.4172
  358TIP3    H2 1039   2.379   0.875   0.486 -0.9007 -1.5340 -0.3978
  359TIP3   OH2 1040   2.114   5.679   4.523 -0.4719 -0.0196 -0.1236
  359TIP3    H1 1041   2.112   5.737   4.600 -2.1162  1.2687 -1.0673
  359TIP3    H2 1042   2.040   5.620   4.535  0.0407 -0.6762 -0.1171
  360TIP3   OH2 1043   3.235   5.006   4.248 -0.6822  0.1238  0.2528
  360TIP3    H1 1044   3.204   4.957   4.172 -0.5224  2.4504 -1.4249
  360TIP3    H2 1045   3.171   5.076   4.260  0.7324  1.4554  0.4717
  361TIP3   OH2 1046   4.615   5.394   1.233  0.1538  0.1091 -0.0710
  361TIP3    H1 1047   4.574   5.309   1.248 -0.1921 -0.3548 -2.9576
  361TIP3    H2 1048   4.702   5.386   1.272 -0.2349 -1.1967  0.5729
  362TIP3   OH2 1049   5.264   0.768   1.828  0.0840  0.2083  0.0201
  362TIP3    H1 1050   5.233   0.680   1.847 -1.2861  0.7143  0.2598
  362TIP3    H2 1051   5.351   0.773   1.869  0.2170 -1.0381 -0.0803
  363TIP3   OH2 1052   2.783   5.990   3.660  0.0548  0.4249 -0.3227
  363TIP3    H1 1053   2.705   6.030   3.623 -1.1466 -2.9613 -1.8376
  363TIP3    H2 1054   2.854   6.014   3.600 -0.4209  1.0734 -0.6251
  364TIP3   OH2 1055   0.743   4.338   0.322  0.1109 -0.3094 -0.0334
  364TIP3    H1 1056   0.697   4.355   0.404  0.8129 -0.1755  0.3388
  364TIP3    H2 1057   0.752   4.243   0.319  0.3093 -0.2989  0.1746
  365TIP3   OH2 1058   2.184   6.671   5.777 -0.3679  0.2521  0.0855
  365TIP3    H1 1059   2.138   6.699   5.698 -1.8443  0.4798  0.9863
  365TIP3    H2 1060   2.267   6.718   5.775  0.7832 -1.6663 -2.5931
  366TIP3   OH2 1061   2.813   1.502   2.026 -0.4237  0.1742 -0.6518
  366TIP3    H1 1062   2.891   1.551   2.052  0.3893 -1.6513  0.6105
  366TIP3    H2 1063   2.779   1.548   1.949  0.8818  2.0257 -0.1709
  367TIP3   OH2 1064   3.256   1.187   2.559  0.0371 -0.5614  0.4041
  367TIP3    H1 1065   3.328   1.227   2.510 -1.7597  1.9613 -0.3660
  367TIP3    H2 1066   3.216   1.127   2.497 -0.2322  0.1660 -0.1361
  368TIP3   OH2 1067   2.791   3.166   0.759 -0.7233 -0.3197  0.3829
  368TIP3    H1 1068   2.709   3.135   0.796 -1.6522  1.0729 -0.4025
  368TIP3    H2 1069   2.829   3.223   0.826 -1.5113  0.7742 -0.0743
  369TIP3   OH2 1070   4.801   5.295   3.451  0.7591  0.0282  0.0500
  369TIP3    H1 1071   4.767   5.274   3.538  0.3419 -1.6320 -0.4761
  369TIP3    H2 1072   4.844   5.215   3.422  1.4644  0.7670 -1.0217
  370TIP3   OH2 1073   0.879   4.072   0.293 -0.0789  0.1717 -0.1648
  370TIP3    H1 1074   0.939   4.126   0.344  3.0889 -0.9245 -2.4103
  370TIP3    H2 1075   0.840   4.013   0.357 -0.6348  2.4587  1.7316
  371TIP3   OH2 1076   1.182   3.912   4.166 -0.1243 -0.0087  0.3639
  371TIP3    H1 1077   1.236   3.840   4.133 -0.1960  0.3379 -0.5449
  371TIP3    H2 1078   1.241   3.965   4.219 -0.1383 -0.8808  1.2718
  372TIP3   OH2 1079   1.699   4.921   2.304 -0.6695 -0.1028  0.5123
  372TIP3    H1 1080   1.735   4.999   2.345  0.2314 -0.3244  0.1885
  372TIP3    H2 1081   1.605   4.927   2.317 -0.6590  1.2625  0.1111
  373TIP3   OH2 1082   4.461   3.623   0.996  0.1940 -0.0470 -0.6011
  373TIP3    H1 1083   4.514   3.562   0.945  0.0054 -0.0316 -0.8172
  373TIP3    H2 1084   4.371   3.593   0.984  0.2256 -0.7896  0.7130
  374TIP3   OH2 1085   7.066   4.571   3.523 -0.2173 -0.6120  0.0371
  374TIP3    H1 1086   7.104   4.486   3.546  0.4311 -0.2137  0.4654
  374TIP3    H2 1087   7.116   4.634   3.573 -1.1894 -0.0262  0.2986
  375TIP3   OH2 1088   0.636   3.785   1.160  0.1860  0.0660 -0.5479
  375TIP3    H1 1089   0.731   3.794   1.151  0.3458 -1.4258 -0.5178
  375TIP3    H2 1090   0.622   3.765   1.252 -0.0118 -1.2220 -0.8403
  376TIP3   OH2 1091   0.823   0.430   2.810  0.1390 -0.8207 -0.6646
  376TIP3    H1 1092   0.733   0.461   2.815 -0.0384 -1.1389 -1.6436
  376TIP3    H2 1093   0.818   0.337   2.831  0.5288 -0.4461  1.2413
  377TIP3   OH2 1094   1.480   6.150   3.719  0.2049  0.4568  0.3518
  377TIP3    H1 1095   1.561   6.142   3.669  0.3763 -0.9861  0.8198
  377TIP3    H2 1096   1.413   6.113   3.661  0.4850 -1.7163  1.3059
  378TIP3   OH2 1097   0.434   2.357   4.590 -0.1248 -0.5995  0.6501
  378TIP3    H1 1098   0.452   2.292   4.522  2.2644 -0.2042  0.8181
  378TIP3    H2 1099   0.480   2.435   4.561 -2.6147  0.9672  0.6679
  379TIP3   OH2 1100   0.739   1.233   5.841 -0.6196  0.1746  0.1058
  379TIP3    H1 1101   0.789   1.247   5.922  1.4459 -0.8914 -0.9130
  379TIP3    H2 1102   0.703   1.319   5.820  0.4173  0.8937  1.1536
  380TIP3   OH2 1103   2.260   0.376   3.073  0.2608 -0.4472 -0.2039
  380TIP3    H1 1104   2.284   0.283   3.072 -0.5604 -0.6677  0.0790
  380TIP3    H2 1105   2.276   0.405   3.163 -1.0325 -0.7435  0.1439
  381TIP3   OH2 1106   1.805   0.441   4.410 -0.7825  0.2889  0.4583
  381TIP3    H1 1107   1.779   0.443   4.502 -0.2454 -0.3948  0.6269
  381TIP3    H2 1108   1.727   0.408   4.364 -0.3721 -1.3969  0.9195
  382TIP3   OH2 1109   2.502   6.601   1.822 -0.2122  0.2114 -0.3543
  382TIP3    H1 1110   2.455   6.522   1.849 -2.1344  0.8441 -1.5730
  382TIP3    H2 1111   2.506   6.595   1.726  1.8763  0.4230 -0.3306
  383TIP3   OH2 1112   5.571   1.043   1.230  0.3454  0.0961 -0.0019
  383TIP3    H1 1113   5.505   1.033   1.161  0.7161  0.2465 -0.3917
  383TIP3    H2 1114   5.650   1.004   1.192  1.2569  2.4717 -0.7247
  384TIP3   OH2 1115   1.823   5.654   2.572 -0.9298 -0.2552  0.0978
  384TIP3    H1 1116   1.902   5.660   2.625 -0.8043 -0.0215 -0.1135
  384TIP3    H2 1117   1.787   5.567   2.592 -1.2048  0.0650  1.0039
  385TIP3   OH2 1118   7.029   5.372   2.152  0.5898  0.1876  0.0934
  385TIP3    H1 1119   6.942   5.369   2.112  0.3560 -0.9161  0.6465
  385TIP3    H2 1120   7.051   5.465   2.154 -0.6116  0.4877  0.0270
  386TIP3   OH2 1121   3.190   1.527   3.533 -0.4717 -0.0207  0.0012
  386TIP3    H1 1122   3.126   1.598   3.535 -1.1852 -0.6254 -0.6099
  386TIP3    H2 1123   3.192   1.494   3.623 -0.2505  0.6612  0.2525
  387TIP3   OH2 1124   0.782   4.348   0.867  0.2910  0.0898 -0.1133
  387TIP3    H1 1125   0.797   4.443   0.873 -1.0215  0.2984  0.3066
  387TIP3    H2 1126   0.777   4.319   0.958  1.6293 -0.5650 -0.2363
  388TIP3   OH2 1127   5.695   2.925   2.663 -0.1594  0.1752  0.7486
  388TIP3    H1 1128   5.740   3.009   2.673  0.0735  0.2334 -0.5636
  388TIP3    H2 1129   5.747   2.878   2.599 -1.5262 -0.0552 -0.2371
  389TIP3   OH2 1130   5.030   0.261   0.226  0.7316 -0.0540  0.0595
  389TIP3    H1 1131   5.015   0.265   0.131 -1.0781 -0.3428  0.2906
  389TIP3    H2 1132   5.062   0.349   0.248 -0.4866  0.5874 -0.5985
  390TIP3   OH2 1133   1.468   1.668   5.662  0.8759 -0.2314 -0.1939
  390TIP3    H1 1134   1.445   1.600   5.599  2.7057  0.4187 -1.6908
  390TIP3    H2 1135   1.426   1.747   5.629  1.6838  0.0742 -0.5198
  391TIP3   OH2 1136   7.003   1.780   3.031 -0.4120 -0.2860  0.3308
  391TIP3    H1 1137   7.026   1.869   3.002  0.4006 -1.0873 -1.6781
  391TIP3    H2 1138   7.085   1.746   3.068 -0.2453 -0.7596 -0.4550
  392TIP3   OH2 1139   4.245   0.621   1.312  0.0161  0.2626 -0.4264
  392TIP3    H1 1140   4.186   0.696   1.318 -0.0619  0.1475  0.4178
  392TIP3    H2 1141   4.194   0.554   1.266 -1.2610 -0.5023  1.9618
  393TIP3   OH2 1142   4.568   6.585   0.586 -0.2055 -0.4938  0.1836
  393TIP3    H1 1143   4.625   6.525   0.538 -1.1708  0.0480 -1.7950
  393TIP3    H2 1144   4.613   6.670   0.581  0.0344 -0.5816  0.8789
  394TIP3   OH2 1145   3.918   5.145   2.022 -0.1174  0.6256 -0.3361
  394TIP3    H1 1146   3.849   5.101   1.972  0.1327  1.8196 -1.7926
  394TIP3    H2 1147   3.947   5.216   1.966  0.7482  1.5470  1.1994
  395TIP3   OH2 1148   1.557   4.329   2.575  0.0409 -0.0382 -0.1230
  395TIP3    H1 1149   1.483   4.385   2.553 -1.7756 -0.5588  3.8342
  395TIP3    H2 1150   1.629   4.390   2.592 -0.3314  0.6680 -0.9776
  396TIP3   OH2 1151   6.001   2.181   2.521  0.0800 -0.5084 -0.7388
  396TIP3    H1 1152   5.939   2.119   2.559 -0.1977 -0.1799 -0.6599
  396TIP3    H2 1153   6.078   2.127   2.500 -0.0202 -0.8131 -0.3348
  397TIP3   OH2 1154   6.510   5.781   4.647  0.1164 -0.4358 -0.2195
  397TIP3    H1 1155   6.447   5.847   4.619  1.1446  0.6591 -0.0020
  397TIP3    H2 1156   6.468   5.738   4.722 -0.4971  0.0582 -0.2735
  398TIP3   OH2 1157   0.565   4.658   1.459 -0.3520  0.1319  0.7544
  398TIP3    H1 1158   0.638   4.638   1.400 -1.6374  1.9784 -1.6602
  398TIP3    H2 1159   0.543   4.575   1.500  1.9447 -0.8202  0.2022
  399TIP3   OH2 1160   3.415   0.737   0.920  0.0500 -0.1441  0.5927
  399TIP3    H1 1161   3.433   0.643   0.908  1.2807  0.3209 -1.8934
  399TIP3    H2 1162   3.346   0.756   0.857 -0.3445  0.6043  1.2364
  400TIP3   OH2 1163   4.504   2.634   3.140  0.0911  0.7610 -0.1775
  400TIP3    H1 1164   4.469   2.723   3.145  0.6430  0.9409  0.6062
  400TIP3    H2 1165   4.538   2.627   3.051 -0.8664  0.9790 -0.5697
  401TIP3   OH2 1166   2.219   4.393   0.986 -0.1394  0.1653  0.0562
  401TIP3    H1 1167   2.254   4.445   1.059  2.7120 -0.4572 -0.7766
  401TIP3    H2 1168   2.279   4.320   0.977 -0.8930 -0.2255 -2.4130
  402TIP3   OH2 1169   1.206   4.370   1.790  0.2394  0.6633  0.0649
  402TIP3    H1 1170   1.208   4.294   1.847 -0.6252 -1.3428 -2.3842
  402TIP3    H2 1171   1.275   4.354   1.726 -0.4828  1.5171 -0.9739
  403TIP3   OH2 1172   1.350   4.836   5.688 -0.5723  0.0073 -0.3851
  403TIP3    H1 1173   1.388   4.909   5.737 -2.1727 -0.5318  1.8802
  403TIP3    H2 1174   1.319   4.875   5.606  0.2471  1.4748 -0.0274
  404TIP3   OH2 1175   4.303   2.964   5.540  0.2128  0.5218  0.4017
  404TIP3    H1 1176   4.387   2.938   5.578 -0.0030 -0.3627  0.3043
  404TIP3    H2 1177   4.238   2.928   5.600 -0.1237 -0.5061 -0.5323
  405TIP3   OH2 1178   5.401   1.095   1.784 -0.7952  0.4046 -0.4308
  405TIP3    H1 1179   5.372   1.072   1.872  0.4136 -0.3062 -0.2020
  405TIP3    H2 1180   5.349   1.038   1.727 -0.1953 -0.5680 -0.0453
  406TIP3   OH2 1181   1.433   4.379   5.682  0.2838 -0.6822 -0.0098
  406TIP3    H1 1182   1.434   4.338   5.596  0.5958 -1.9478  0.5652
  406TIP3    H2 1183   1.495   4.451   5.676  0.1759 -0.6595 -0.8856
  407TIP3   OH2 1184   5.391   0.810   4.971 -0.3679  0.2527  0.3790
  407TIP3    H1 1185   5.440   0.889   4.947  1.8290 -1.4615 -1.2945
  407TIP3    H2 1186   5.445   0.769   5.039  0.5555 -1.5975 -1.3843
  408TIP3   OH2 1187   2.405   1.402   2.291 -0.6570  0.6214  0.1109
  408TIP3    H1 1188   2.435   1.492   2.280 -0.3892  0.3786 -1.4265
  408TIP3    H2 1189   2.475   1.349   2.253 -1.7523 -0.0996 -1.0025
  409TIP3   OH2 1190   7.188   1.489   1.343 -0.1479 -0.4607 -0.1616
  409TIP3    H1 1191   7.161   1.454   1.428  0.0231  0.9163  0.4810
  409TIP3    H2 1192   7.273   1.447   1.326 -0.4864 -1.2362  0.0175
  410TIP3   OH2 1193   1.038   3.120   3.298 -0.1740  0.4363  0.3065
  410TIP3    H1 1194   1.102   3.068   3.249  1.1772  1.5448  0.8380
  410TIP3    H2 1195   1.069   3.211   3.288 -1.2616  0.9174  1.1863
  411TIP3   OH2 1196   2.899   1.838   0.162  0.2023  0.7420  0.2681
  411TIP3    H1 1197   2.849   1.757   0.168 -1.9333  1.6240 -2.8372
  411TIP3    H2 1198   2.935   1.852   0.249 -3.0708 -1.2380  2.1154
  412TIP3   OH2 1199   4.659   0.147   5.478  0.1413 -0.1350 -0.0339
  412TIP3    H1 1200   4.604   0.163   5.401 -0.8045  1.3354  0.8833
  412TIP3    H2 1201   4.669   0.052   5.482 -4.7579 -0.8617  1.2685
  413TIP3   OH2 1202   5.726   3.406   0.607 -0.1847 -0.0626  0.4332
  413TIP3    H1 1203   5.733   3.451   0.692 -0.6227 -1.5339  1.2915
  413TIP3    H2 1204   5.792   3.336   0.612 -1.6198 -1.4737  0.4550
  414TIP3   OH2 1205   2.133   5.665   3.581  0.1282  0.1052  0.3148
  414TIP3    H1 1206   2.117   5.710   3.664 -0.4100  0.6361 -0.0695
  414TIP3    H2 1207   2.088   5.581   3.590 -0.8321  0.5919  0.1672
  415TIP3   OH2 1208   5.946   0.541   0.018 -0.4344 -0.5178 -0.2683
  415TIP3    H1 1209   5.902   0.514   0.098 -1.2699 -0.4614 -0.7005
  415TIP3    H2 1210   5.903   0.623  -0.007 -0.6462 -0.8836 -1.1404
  416TIP3   OH2 1211   0.564   1.264   3.084  0.1151 -0.5977 -0.0236
  416TIP3    H1 1212   0.566   1.225   2.996 -0.9558 -0.1074 -0.2791
  416TIP3    H2 1213   0.497   1.332   3.079 -0.0311 -0.6251  1.2125
  417TIP3   OH2 1214   4.697   1.896   0.562  0.1270 -0.3427 -0.7168
  417TIP3    H1 1215   4.636   1.831   0.596 -0.7054  0.8615  0.2006
  417TIP3    H2 1216   4.778   1.882   0.611 -0.1774 -0.4358 -0.2353
  418TIP3   OH2 1217   6.855   0.343   3.228  0.0813 -0.2139 -0.6337
  418TIP3    H1 1218   6.840   0.302   3.143 -0.7523 -1.1754 -0.0344
  418TIP3    H2 1219   6.850   0.272   3.291 -0.9633  0.7171  0.3974
  419TIP3   OH2 1220   4.465   4.960   0.937 -0.1711 -0.3384  0.3939
  419TIP3    H1 1221   4.538   5.014   0.907 -0.0236 -0.8535 -0.1886
  419TIP3    H2 1222   4.394   5.023   0.953  0.2552  0.1138  0.5231
  420TIP3   OH2 1223   6.977   3.858   0.932  0.2005  0.3138  0.5139
  420TIP3    H1 1224   7.021   3.907   1.002 -2.3392  2.2906  0.8931
  420TIP3    H2 1225   6.996   3.766   0.952  1.0375  0.9019  2.7583
  421TIP3   OH2 1226   0.487   4.751   0.716 -0.0081  0.5909 -0.3178
  421TIP3    H1 1227   0.396   4.759   0.689 -0.3270 -0.2942  0.4333
  421TIP3    H2 1228   0.487   4.677   0.777  1.8432 -1.9610 -3.1468
  422TIP3   OH2 1229   3.787   3.767   4.197  0.2175  0.3808  0.5818
  422TIP3    H1 1230   3.786   3.762   4.293  1.9416 -1.0464  0.5756
  422TIP3    H2 1231   3.747   3.852   4.177 -0.1143  0.7373  2.5540
  423TIP3   OH2 1232   6.723   1.156   0.738  0.3363 -0.4741  0.0966
  423TIP3    H1 1233   6.663   1.116   0.801  0.1180 -0.9811 -0.4261
  423TIP3    H2 1234   6.810   1.147   0.779  0.1316 -0.3068  0.5677
  424TIP3   OH2 1235   4.452   3.415   5.044  0.5787  0.3817 -0.5406
  424TIP3    H1 1236   4.513   3.423   4.971  0.8055 -2.6984 -0.7947
  424TIP3    H2 1237   4.490   3.470   5.113  1.8390  1.1387 -1.7882
  425TIP3   OH2 1238   0.109   0.092   5.401  0.5284  0.6038 -0.3283
  425TIP3    H1 1239   0.119   0.185   5.382 -0.6397  0.5767 -1.1356
  425TIP3    H2 1240   0.188   0.052   5.365 -0.3599  0.9046 -2.7718
  426TIP3   OH2 1241   5.899   1.940   4.402 -0.2548  0.2603 -0.1218
  426TIP3    H1 1242   5.926   1.988   4.324 -0.2034 -1.0599 -0.9515
  426TIP3    H2 1243   5.938   1.988   4.475  2.4349 -0.2399 -1.1044
  427TIP3   OH2 1244   2.030   6.400   2.249 -0.5861  0.0080  0.3356
  427TIP3    H1 1245   1.974   6.449   2.189 -1.1615 -0.7081  0.2826
  427TIP3    H2 1246   1.990   6.314   2.255  1.5781 -1.1815 -1.2329
  428TIP3   OH2 1247   2.081   5.788   4.772  0.0951 -0.2912  0.2782
  428TIP3    H1 1248   2.106   5.880   4.769 -1.5447  0.1667 -2.5182
  428TIP3    H2 1249   1.986   5.790   4.784 -0.2430 -1.5119 -1.8421
  429TIP3   OH2 1250   0.263   5.705   4.324 -0.2298 -0.3436 -0.3814
  429TIP3    H1 1251   0.271   5.723   4.231  0.5080 -1.7487 -0.6110
  429TIP3    H2 1252   0.264   5.610   4.331  0.3088 -0.2603  1.1060
  430TIP3   OH2 1253   5.085   3.412   5.180  0.5821 -0.3549 -0.2492
  430TIP3    H1 1254   5.152   3.452   5.236  0.3746 -0.5132  0.1206
  430TIP3    H2 1255   5.018   3.382   5.242  0.0506  0.0267 -0.6315
  431TIP3   OH2 1256   6.919   5.824   5.582  0.7979  0.7045 -0.4137
  431TIP3    H1 1257   6.918   5.825   5.486 -0.4116  0.0897 -0.4220
  431TIP3    H2 1258   6.851   5.761   5.606  0.4951  1.4896  0.8627
  432TIP3   OH2 1259   3.536   5.481   5.409 -0.1140 -0.3140  0.0719
  432TIP3    H1 1260   3.515   5.474   5.502  0.2159  0.7258  0.2319
  432TIP3    H2 1261   3.623   5.440   5.401  0.4707  0.8002  0.4765
  433TIP3   OH2 1262   6.180   0.615   4.181 -0.0231  0.2809  0.1207
  433TIP3    H1 1263   6.102   0.668   4.195 -0.3752  0.1568 -1.2425
  433TIP3    H2 1264   6.212   0.642   4.095  1.5810  0.4868  0.7505
  434TIP3   OH2 1265   2.761   3.959   0.374  0.0762 -0.3525 -0.0316
  434TIP3    H1 1266   2.840   3.906   0.363 -0.4997 -1.0755 -0.8167
  434TIP3    H2 1267   2.691   3.895   0.382 -0.6174  0.2919 -0.8292
  435TIP3   OH2 1268   0.376   0.514   5.155 -0.0774 -0.6502  0.1356
  435TIP3    H1 1269   0.436   0.468   5.213 -0.8135 -0.4330  1.0840
  435TIP3    H2 1270   0.341   0.586   5.208  0.8257  0.8688 -1.2091
  436TIP3   OH2 1271   7.213   0.224   1.031 -0.0378  0.4148 -0.1314
  436TIP3    H1 1272   7.154   0.279   1.082  0.4842  0.3659  0.5396
  436TIP3    H2 1273   7.208   0.258   0.942  1.7848  2.8863  0.6052
  437TIP3   OH2 1274   2.680   2.710   1.016 -0.1747  0.4173 -0.3083
  437TIP3    H1 1275   2.585   2.708   1.029 -0.2990  0.5583 -1.1169
  437TIP3    H2 1276   2.711   2.772   1.081 -0.6721  0.5713 -0.2095
  438TIP3   OH2 1277   2.018   4.682   1.172 -0.1713  0.4143 -0.2909
  438TIP3    H1 1278   2.039   4.761   1.221  1.8046  0.5121 -1.1849
  438TIP3    H2 1279   1.999   4.617   1.238  2.3718  0.5533  0.7032
  439TIP3   OH2 1280   4.708   1.439   4.731 -0.0775 -0.2541  0.2022
  439TIP3    H1 1281   4.778   1.376   4.749  0.0251 -0.1525  0.1639
  439TIP3    H2 1282   4.667   1.454   4.816  0.9061  0.8186  0.5156
  440TIP3   OH2 1283   3.520   4.548   3.370  0.8768  0.1468 -0.3109
  440TIP3    H1 1284   3.575   4.477   3.337  0.9331  0.4412 -0.8587
  440TIP3    H2 1285   3.431   4.512   3.371  1.3031 -1.1131  2.7287
  441TIP3   OH2 1286   0.889   6.256   4.722 -0.2471 -0.5252 -0.1899
  441TIP3    H1 1287   0.882   6.346   4.754  1.2702 -0.0960 -0.9762
  441TIP3    H2 1288   0.841   6.256   4.639 -0.8994 -0.6561  0.1788
  442TIP3   OH2 1289   4.744   5.848   2.147 -0.6495  0.3883  0.7522
  442TIP3    H1 1290   4.706   5.781   2.089 -1.5771  1.3538  0.1944
  442TIP3    H2 1291   4.838   5.841   2.133 -0.7053 -0.9596  0.8983
  443TIP3   OH2 1292   2.068   1.172   2.541  0.1535 -0.1644 -0.0473
  443TIP3    H1 1293   1.993   1.137   2.589  0.6020 -0.2566  0.6170
  443TIP3    H2 1294   2.053   1.267   2.539 -1.7843 -0.4077 -3.0990
  444TIP3   OH2 1295   6.131   5.940   4.246  0.5347  0.0176 -0.5291
  444TIP3    H1 1296   6.080   5.995   4.305  1.0582  0.4215 -0.4430
  444TIP3    H2 1297   6.196   5.897   4.303 -1.6642 -2.9901 -0.0776
  445TIP3   OH2 1298   3.036   0.883   0.559  0.3394 -0.0837  0.4551
  445TIP3    H1 1299   2.980   0.896   0.482 -0.2986  0.5076  1.0045
  445TIP3    H2 1300   3.007   0.799   0.594 -0.3904  0.3246  0.8690
  446TIP3   OH2 1301   4.137   6.328   0.685  0.9239 -0.5018 -0.4735
  446TIP3    H1 1302   4.097   6.267   0.747 -1.0297  0.2831 -0.9116
  446TIP3    H2 1303   4.097   6.307   0.601  0.2126  1.3488 -0.6355
  447TIP3   OH2 1304   1.454   0.655   0.491  0.0055 -0.3334  0.4172
  447TIP3    H1 1305   1.440   0.709   0.569  3.8486  1.6132  0.0259
  447TIP3    H2 1306   1.492   0.574   0.525  1.1679  0.2943  0.6847
  448TIP3   OH2 1307   1.310   0.225   4.622 -0.5674  0.4470  0.5796
  448TIP3    H1 1308   1.334   0.155   4.683 -1.0412  1.2120  1.6635
  448TIP3    H2 1309   1.325   0.187   4.536  0.7091 -0.4447  1.1675
  449TIP3   OH2 1310   3.281   3.460   1.266 -0.2555  0.3116  0.6404
  449TIP3    H1 1311   3.299   3.438   1.358  1.1438  0.6111  0.4618
  449TIP3    H2 1312   3.231   3.542   1.271  0.0713  0.4910  1.1434
  450TIP3   OH2 1313   2.260   0.220   2.132 -0.5738 -0.0800 -0.3069
  450TIP3    H1 1314   2.167   0.216   2.156  0.0777 -1.2904  2.2651
  450TIP3    H2 1315   2.299   0.278   2.197  0.9562 -1.9199  0.4945
  451TIP3   OH2 1316   5.352   1.287   3.749 -0.3820 -0.1361  0.0547
  451TIP3    H1 1317   5.400   1.292   3.832 -1.9991 -3.2226  1.3676
  451TIP3    H2 1318   5.351   1.194   3.728 -1.1085  0.4295 -2.8235
  452TIP3   OH2 1319   3.194   2.348   4.076 -0.6277  0.1480  0.0035
  452TIP3    H1 1320   3.277   2.377   4.112 -0.3428 -0.3315 -0.2597
  452TIP3    H2 1321   3.179   2.262   4.117 -1.0929  0.3206  0.2072
  453TIP3   OH2 1322   1.025   1.003   2.454 -0.1211  0.0775 -0.0491
  453TIP3    H1 1323   0.962   1.073   2.442 -1.1831 -0.8890 -0.3193
  453TIP3    H2 1324   1.081   1.007   2.376 -0.5075  0.3032 -0.3161
  454TIP3   OH2 1325   6.682   6.167   4.243 -0.3172 -0.3989 -0.2956
  454TIP3    H1 1326   6.629   6.222   4.185 -0.0368  0.4636  0.2486
  454TIP3    H2 1327   6.767   6.161   4.199 -0.1648  0.0968 -0.0774
  455TIP3   OH2 1328   2.421   2.321   3.865 -0.3703 -0.2598  0.5582
  455TIP3    H1 1329   2.379   2.405   3.885 -0.4813 -0.0496 -0.4833
  455TIP3    H2 1330   2.396   2.264   3.937 -0.1179  0.6605  1.3882
  456TIP3   OH2 1331   1.796   2.508   4.627  0.1435 -0.3517  0.1477
  456TIP3    H1 1332   1.776   2.531   4.718 -0.0288  0.9856 -0.2017
  456TIP3    H2 1333   1.759   2.581   4.576  0.7737 -0.7838 -0.9420
  457TIP3   OH2 1334   5.336   6.707   5.108  0.2091 -0.1867  0.4772
  457TIP3    H1 1335   5.316   6.623   5.068  1.4763 -0.1145 -0.3680
  457TIP3    H2 1336   5.254   6.756   5.105  0.2715 -0.1165 -2.2287
  458TIP3   OH2 1337   6.937   1.714   4.164  0.4526 -0.5375 -0.2000
  458TIP3    H1 1338   6.918   1.621   4.163  1.1220 -0.6745 -0.2125
  458TIP3    H2 1339   6.878   1.752   4.099  2.0548 -1.3086 -2.1748
  459TIP3   OH2 1340   0.571   6.689   1.036  0.2804  0.1763 -0.2242
  459TIP3    H1 1341   0.649   6.638   1.014  0.7015 -0.4633  2.4214
  459TIP3    H2 1342   0.600   6.748   1.106 -1.9565 -1.3733  2.1649
  460TIP3   OH2 1343   4.555   2.268   2.713  0.4245  0.0413  0.2713
  460TIP3    H1 1344   4.555   2.328   2.639  0.3739 -1.8520 -1.3646
  460TIP3    H2 1345   4.536   2.182   2.674 -0.7700 -0.8630  2.6501
  461TIP3   OH2 1346   4.869   6.524   5.596 -0.5420  0.0319  0.1657
  461TIP3    H1 1347   4.815   6.583   5.543  0.5090  0.4730 -0.4441
  461TIP3    H2 1348   4.841   6.436   5.568 -1.4763  0.2345  0.4233
  462TIP3   OH2 1349   1.212   0.786   1.765  0.4689  0.0645 -0.2434
  462TIP3    H1 1350   1.119   0.766   1.757  0.5819 -0.6556  0.1987
  462TIP3    H2 1351   1.240   0.740   1.844  1.4292 -0.6113 -0.9596
  463TIP3   OH2 1352   2.353   5.230   3.374  0.4108  0.2337  0.0141
  463TIP3    H1 1353   2.338   5.140   3.403 -0.4967 -0.0581 -1.2550
  463TIP3    H2 1354   2.268   5.260   3.343  1.2341  0.5407 -2.1644
  464TIP3   OH2 1355   4.502   4.800   2.764  0.3560 -0.1236  0.4674
  464TIP3    H1 1356   4.479   4.861   2.695 -1.2052 -1.9098 -0.6897
  464TIP3    H2 1357   4.563   4.849   2.820 -0.1023  2.1317 -0.8754
  465TIP3   OH2 1358   2.986   6.347   0.207  0.2017  0.0846  0.5528
  465TIP3    H1 1359   3.058   6.284   0.214 -0.5448 -0.9983 -1.0428
  465TIP3    H2 1360   3.013   6.407   0.138 -1.3873 -1.8289 -1.9368
  466TIP3   OH2 1361   3.444   2.641   4.497 -0.0458 -0.2190  0.3427
  466TIP3    H1 1362   3.448   2.694   4.577 -0.1087  0.2571  0.0325
  466TIP3    H2 1363   3.535   2.614   4.482  0.1967  0.8424 -0.1865
  467TIP3   OH2 1364   5.048   1.410   3.395  0.6656  0.5220 -0.5532
  467TIP3    H1 1365   5.084   1.333   3.440  1.6106  0.7610 -0.8892
  467TIP3    H2 1366   4.982   1.374   3.336  0.8354  0.0068 -0.4366
  468TIP3   OH2 1367   6.088   3.971   4.117 -0.7765 -0.1236 -0.2718
  468TIP3    H1 1368   6.035   3.992   4.193 -0.4321 -1.1383  0.2637
  468TIP3    H2 1369   6.042   4.011   4.043 -0.6608  1.6426  0.5439
  469TIP3   OH2 1370   3.916   4.532   2.598  0.2063  0.2235 -0.0612
  469TIP3    H1 1371   3.979   4.604   2.603  0.9024 -0.2073 -1.9259
  469TIP3    H2 1372   3.909   4.501   2.688  1.0773  1.6089  0.5261
  470TIP3   OH2 1373   6.529   0.240   4.870 -1.0218 -0.1034  0.1955
  470TIP3    H1 1374   6.551   0.276   4.957 -0.0576 -0.0147 -0.0752
  470TIP3    H2 1375   6.433   0.246   4.866 -1.0178  0.7792  0.8763
  471TIP3   OH2 1376   1.371   1.753   4.785 -0.7390  0.0570  0.4758
  471TIP3    H1 1377   1.395   1.795   4.867  1.0750 -1.0384  0.5676
  471TIP3    H2 1378   1.411   1.808   4.718  0.0490 -0.4745  0.4955
  472TIP3   OH2 1379   4.111   1.903   1.951 -0.1628 -0.1329 -0.4810
  472TIP3    H1 1380   4.166   1.978   1.929  0.5961 -0.3983  0.4232
  472TIP3    H2 1381   4.168   1.827   1.935  0.7823 -0.3468  2.9643
  473TIP3   OH2 1382   1.625   2.184   2.331  0.6793 -0.1321  0.3388
  473TIP3    H1 1383   1.706   2.210   2.374  0.7899  0.1492 -0.0285
  473TIP3    H2 1384   1.637   2.092   2.308  0.8036 -0.1521  0.4875
  474TIP3   OH2 1385   4.085   3.778   4.912  0.2626  0.3765  0.3578
  474TIP3    H1 1386   4.110   3.694   4.874  0.8719 -0.1031  1.7565
  474TIP3    H2 1387   3.990   3.771   4.926 -0.1297  0.8544 -1.6817
  475TIP3   OH2 1388   5.122   2.034   2.980  0.4578  0.3126 -0.2334
  475TIP3    H1 1389   5.164   1.948   2.985  0.2930  0.3039  1.4642
  475TIP3    H2 1390   5.162   2.076   2.903  0.5049 -1.2754 -1.1304
  476TIP3   OH2 1391   1.253   0.685   2.025 -0.0885 -0.4231  0.0074
  476TIP3    H1 1392   1.285   0.642   2.104  0.4189 -0.9109 -0.4575
  476TIP3    H2 1393   1.188   0.624   1.990 -0.3646 -0.1746  0.0824
  477TIP3   OH2 1394   3.562   0.072   3.091 -1.2885  0.3299 -0.1395
  477TIP3    H1 1395   3.502   0.123   3.145 -0.9985 -0.2348  0.7308
  477TIP3    H2 1396   3.647   0.081   3.134 -0.9643  0.2120 -0.7400
  478TIP3   OH2 1397   5.620   1.072   2.104  0.1688  0.0827  0.3742
  478TIP3    H1 1398   5.642   1.164   2.087 -1.3996  0.2259 -1.0808
  478TIP3    H2 1399   5.526   1.066   2.087  0.5516 -2.1903 -1.4237
  479TIP3   OH2 1400   5.235   2.428   2.862 -0.1698 -0.5257  0.3875
  479TIP3    H1 1401   5.233   2.488   2.787 -1.8480 -1.5641 -0.4435
  479TIP3    H2 1402   5.151   2.441   2.906  0.1853 -1.0029  1.2307
  480TIP3   OH2 1403   3.463   6.773   4.975 -0.8801  0.0510  0.2511
  480TIP3    H1 1404   3.407   6.783   4.898 -1.2205 -0.8233  0.3684
  480TIP3    H2 1405   3.507   6.689   4.962  0.2044  0.5959  0.2963
  481TIP3   OH2 1406   2.623   5.482   4.902  0.1049  0.0971 -0.2633
  481TIP3    H1 1407   2.684   5.553   4.923  1.2918 -0.5219 -1.4384
  481TIP3    H2 1408   2.563   5.521   4.838 -0.7372  0.6916  0.8540
  482TIP3   OH2 1409   0.548   2.713   3.501  0.2084 -0.3000  0.4033
  482TIP3    H1 1410   0.602   2.701   3.579  1.1441  2.0248  0.1742
  482TIP3    H2 1411   0.462   2.741   3.534  0.2393 -0.4712  0.6293
  483TIP3   OH2 1412   2.866   3.796   1.476 -0.7321 -0.0839  0.0730
  483TIP3    H1 1413   2.925   3.871   1.484 -0.5055 -0.3636  1.1005
  483TIP3    H2 1414   2.902   3.744   1.405  1.5163 -1.3466  2.0027
  484TIP3   OH2 1415   1.484   1.459   0.312  0.1299 -0.5228  0.2478
  484TIP3    H1 1416   1.534   1.499   0.240  3.0561 -3.4130  0.4549
  484TIP3    H2 1417   1.471   1.368   0.285 -2.2521 -0.7215  1.7347
  485TIP3   OH2 1418   0.132   5.850   4.009  0.0767 -0.4035  0.4164
  485TIP3    H1 1419   0.100   5.761   3.996 -0.0944 -0.5571  1.7904
  485TIP3    H2 1420   0.212   5.840   4.060 -0.1011  0.2506  0.8355
  486TIP3   OH2 1421   6.189   3.525   5.195 -0.3335  0.0157 -0.4271
  486TIP3    H1 1422   6.131   3.493   5.126 -1.0027  0.8612 -0.2920
  486TIP3    H2 1423   6.219   3.611   5.163  0.7803 -0.3664 -0.4488
  487TIP3   OH2 1424   6.709   1.229   2.010  0.2681 -0.3366 -0.2324
  487TIP3    H1 1425   6.686   1.137   2.026  0.6798 -0.0958  2.0959
  487TIP3    H2 1426   6.647   1.258   1.943 -0.8849 -1.9028  0.1105
  488TIP3   OH2 1427   4.842   3.888   1.244  0.4137 -0.0096 -0.1815
  488TIP3    H1 1428   4.849   3.983   1.247  1.4983 -0.0308 -1.1454
  488TIP3    H2 1429   4.754   3.872   1.209  0.6243  0.6768 -1.0758
  489TIP3   OH2 1430   0.110   5.085   2.512  0.2012 -0.4844 -0.1095
  489TIP3    H1 1431   0.064   5.155   2.559  2.0574 -0.0283  1.1262
  489TIP3    H2 1432   0.148   5.129   2.436 -1.3320 -0.8682 -1.1496
  490TIP3   OH2 1433   0.125   6.732   4.288  0.3762  0.7845 -0.3335
  490TIP3    H1 1434   0.097   6.737   4.196 -1.5428  0.5754  0.1887
  490TIP3    H2 1435   0.137   6.638   4.303 -2.2641  0.4688  0.3650
  491TIP3   OH2 1436   1.233   6.356   1.445  0.0629  1.1297  0.5882
  491TIP3    H1 1437   1.166   6.329   1.506 -0.8841  1.8570 -0.1006
  491TIP3    H2 1438   1.211   6.447   1.424 -0.7832  0.3591 -2.2658
  492TIP3   OH2 1439   2.918   3.731   5.337  0.3481  0.2034  0.0361
  492TIP3    H1 1440   2.829   3.696   5.327  0.3800 -0.8956  2.7945
  492TIP3    H2 1441   2.946   3.748   5.247 -1.3679 -2.6810 -1.2303
  493TIP3   OH2 1442   2.591   3.257   5.894 -0.2599 -0.2243 -0.3570
  493TIP3    H1 1443   2.560   3.347   5.889  2.1278  0.6342 -1.2136
  493TIP3    H2 1444   2.526   3.206   5.845 -2.0486  0.8488  0.7755
  494TIP3   OH2 1445   3.951   1.955   2.577  0.9849 -0.2068  0.2323
  494TIP3    H1 1446   4.040   1.983   2.553  0.7946  0.1380 -0.0864
  494TIP3    H2 1447   3.936   1.877   2.524  1.0649 -0.2138  0.2187
  495TIP3   OH2 1448   5.679   3.814   5.441 -0.1299  0.3373 -0.0997
  495TIP3    H1 1449   5.707   3.726   5.467 -1.5717 -0.2731 -0.5058
  495TIP3    H2 1450   5.640   3.851   5.521  0.7338  0.7475  0.1510
  496TIP3   OH2 1451   3.820   6.769   0.797 -0.2922  0.7120  0.1705
  496TIP3    H1 1452   3.836   6.814   0.880 -0.8006  1.0421  0.0951
  496TIP3    H2 1453   3.892   6.707   0.789  0.8963  2.0599 -0.1065
  497TIP3   OH2 1454   1.677   1.571   2.496 -0.1973 -0.3762 -0.2675
  497TIP3    H1 1455   1.644   1.603   2.579 -0.9169 -0.6584 -0.4368
  497TIP3    H2 1456   1.670   1.646   2.437  1.1556  0.0891  0.1412
  498TIP3   OH2 1457   4.017   3.690   2.918  0.6283  0.4140 -0.3667
  498TIP3    H1 1458   4.075   3.700   2.842  1.0775  2.1727  0.1657
  498TIP3    H2 1459   4.074   3.655   2.986  0.3252 -0.7526 -0.6934
  499TIP3   OH2 1460   0.282   1.622   5.386  0.3419  0.0250 -0.1908
  499TIP3    H1 1461   0.208   1.632   5.326 -1.2559  0.5306  1.7546
  499TIP3    H2 1462   0.329   1.705   5.378 -0.5977  0.6125  0.1774
  500TIP3   OH2 1463   5.009   4.854   4.565  0.1404 -0.0393 -0.1011
  500TIP3    H1 1464   4.918   4.835   4.540  0.9962 -0.0569 -3.6530
  500TIP3    H2 1465   5.026   4.795   4.638 -1.7549 -2.3676 -1.3856
  501TIP3   OH2 1466   2.071   0.347   3.651 -1.0825 -0.9438 -0.1319
  501TIP3    H1 1467   1.996   0.290   3.668 -0.2144 -1.7217  1.2301
  501TIP3    H2 1468   2.032   0.429   3.620 -2.4633 -1.4632  0.1525
  502TIP3   OH2 1469   2.578   2.088   4.671  0.4580 -0.6916 -0.4017
  502TIP3    H1 1470   2.520   2.015   4.694  1.0335 -0.5557  1.7614
  502TIP3    H2 1471   2.666   2.053   4.681  0.7408  0.1886  0.4451
  503TIP3   OH2 1472   5.501   1.055   3.223 -0.3266 -0.4453  0.0066
  503TIP3    H1 1473   5.534   1.091   3.305 -0.0407  0.5834 -0.5395
  503TIP3    H2 1474   5.406   1.053   3.234 -0.2931 -0.2480  0.3444
  504TIP3   OH2 1475   0.320   0.564   0.355  0.2758  0.5020 -0.3622
  504TIP3    H1 1476   0.375   0.622   0.302  0.9491 -0.3263 -0.5966
  504TIP3    H2 1477   0.234   0.565   0.311  0.2725  1.3378 -0.3398
  505TIP3   OH2 1478   3.651   4.211   1.343 -0.5179  0.4557 -0.1222
  505TIP3    H1 1479   3.563   4.229   1.375  0.4004  1.5092  2.0816
  505TIP3    H2 1480   3.671   4.124   1.377 -0.8574  0.0344 -0.9937
  506TIP3   OH2 1481   0.529   1.159   0.996 -0.2371  0.4357  0.4011
  506TIP3    H1 1482   0.595   1.198   1.054 -1.1005 -0.2128  1.8773
  506TIP3    H2 1483   0.446   1.186   1.034 -0.8429 -1.4992  0.5097
  507TIP3   OH2 1484   1.852   6.409   4.992  0.1071 -0.1672 -0.2673
  507TIP3    H1 1485   1.785   6.454   4.941  0.1428 -0.7887 -0.8736
  507TIP3    H2 1486   1.867   6.466   5.067 -1.4429 -0.2426  0.1430
  508TIP3   OH2 1487   5.432   4.451   2.317  0.0397 -0.4003 -0.2574
  508TIP3    H1 1488   5.354   4.470   2.369  2.3847  1.2429  3.0540
  508TIP3    H2 1489   5.503   4.497   2.362  3.1749 -2.7088 -2.3378
  509TIP3   OH2 1490   3.074   4.546   5.526 -0.2723  0.5113  0.7873
  509TIP3    H1 1491   3.142   4.570   5.462 -0.3727 -0.3502  0.3363
  509TIP3    H2 1492   3.000   4.602   5.504 -0.2204  0.3966  0.3049
  510TIP3   OH2 1493   2.087   6.129   1.884 -0.1486  0.3218  0.2861
  510TIP3    H1 1494   2.122   6.040   1.875  0.2571  0.6077 -1.1781
  510TIP3    H2 1495   2.000   6.116   1.921 -0.2010 -0.7187 -0.1436
  511TIP3   OH2 1496   1.491   0.452   1.506 -0.2857  0.6362 -0.5153
  511TIP3    H1 1497   1.497   0.379   1.444 -0.3889  1.5617 -1.6369
  511TIP3    H2 1498   1.501   0.411   1.592 -1.4952 -0.8654 -1.0492
  512TIP3   OH2 1499   6.839   5.657   4.215  0.1052  0.5347  0.2034
  512TIP3    H1 1500   6.868   5.583   4.162 -1.6197  0.7272 -1.1018
  512TIP3    H2 1501   6.853   5.628   4.306 -0.5718 -1.4347 -0.2658
  513TIP3   OH2 1502   5.017   0.806   2.288  0.6997 -0.0624  0.3963
  513TIP3    H1 1503   5.096   0.755   2.270  0.8175  0.1749  0.2429
  513TIP3    H2 1504   5.044   0.870   2.354  0.6992  0.1841  0.1581
  514TIP3   OH2 1505   4.790   5.728   1.367  0.0551 -0.2109  0.1893
  514TIP3    H1 1506   4.861   5.664   1.374 -0.7988 -1.1950  0.0664
  514TIP3    H2 1507   4.727   5.702   1.434 -0.5525  0.1779 -0.2230
  515TIP3   OH2 1508   0.242   3.257   3.085  0.1221 -0.6546  0.3417
  515TIP3    H1 1509   0.215   3.215   3.167  1.7175 -1.0034  0.7362
  515TIP3    H2 1510   0.203   3.203   3.017 -2.6323  0.5814  0.7927
  516TIP3   OH2 1511   0.318   6.154   1.494  0.0394  0.3730  0.1369
  516TIP3    H1 1512   0.324   6.240   1.538 -2.2027  1.1087 -0.8406
  516TIP3    H2 1513   0.338   6.091   1.563 -1.1570  1.5772  1.6605
  517TIP3   OH2 1514   3.386   5.895   3.154  0.1008  0.0321 -0.1742
  517TIP3    H1 1515   3.312   5.908   3.095  0.2216 -0.4306 -0.4315
  517TIP3    H2 1516   3.357   5.828   3.215  0.2161  0.0369 -0.1142
  518TIP3   OH2 1517   1.061   5.652   5.697 -0.0890 -0.2405 -0.0687
  518TIP3    H1 1518   1.000   5.589   5.658  1.0242 -2.0322  0.9464
  518TIP3    H2 1519   1.034   5.658   5.789  1.0404 -0.8198  0.3163
  519TIP3   OH2 1520   3.776   0.513   4.276  0.0484 -0.2702 -0.5206
  519TIP3    H1 1521   3.741   0.539   4.190  1.1260 -0.5692 -1.0601
  519TIP3    H2 1522   3.704   0.530   4.337 -0.3859  0.9179 -1.3316
  520TIP3   OH2 1523   1.853   3.584   4.673 -0.2821  0.0015  0.1269
  520TIP3    H1 1524   1.933   3.634   4.690  1.2330 -2.0059 -0.7641
  520TIP3    H2 1525   1.847   3.579   4.578 -1.7808  0.5358  0.1616
  521TIP3   OH2 1526   6.927   3.737   2.162 -0.2866 -0.5314 -0.6267
  521TIP3    H1 1527   6.863   3.776   2.222  0.0940  0.6437 -0.9474
  521TIP3    H2 1528   6.968   3.812   2.119  1.9733 -1.1691  0.2479
  522TIP3   OH2 1529   2.721   5.725   3.610 -0.0694 -0.1233 -0.2435
  522TIP3    H1 1530   2.642   5.734   3.662 -0.5512  0.5326 -1.0695
  522TIP3    H2 1531   2.774   5.801   3.632 -0.1426 -0.0012 -0.4854
  523TIP3   OH2 1532   1.686   5.414   2.643 -0.3345  0.3499 -0.0591
  523TIP3    H1 1533   1.720   5.327   2.663  1.8023  1.1473 -0.0289
  523TIP3    H2 1534   1.604   5.420   2.693  0.4004 -0.9816  1.3777
  524TIP3   OH2 1535   2.079   6.583   2.732  0.2537  0.2733  0.2734
  524TIP3    H1 1536   2.043   6.496   2.752 -3.7575  1.8122  0.7424
  524TIP3    H2 1537   2.107   6.577   2.641  1.4647 -1.8178  0.6965
  525TIP3   OH2 1538   6.979   5.409   4.155  0.2777 -0.5301 -0.6627
  525TIP3    H1 1539   7.000   5.400   4.248 -0.3391 -1.3189 -0.5839
  525TIP3    H2 1540   7.048   5.361   4.110  2.5918  2.7125 -0.8840
  526TIP3   OH2 1541   2.212   3.956   5.774  0.2123  0.0918  0.1928
  526TIP3    H1 1542   2.259   4.031   5.738 -0.4577  0.0633 -0.7879
  526TIP3    H2 1543   2.128   3.992   5.803 -0.5204 -0.4326 -1.2143
  527TIP3   OH2 1544   3.754   1.416   0.351  0.3202  0.1534 -0.0505
  527TIP3    H1 1545   3.845   1.442   0.364  0.7398 -1.9300  1.8192
  527TIP3    H2 1546   3.734   1.362   0.427 -2.0457 -0.6150 -1.1333
  528TIP3   OH2 1547   7.148   0.742   3.676  0.2437  0.0820 -0.0774
  528TIP3    H1 1548   7.088   0.750   3.602 -0.5071  0.7866  0.6033
  528TIP3    H2 1549   7.170   0.648   3.679  1.0207  0.1779 -1.7508
  529TIP3   OH2 1550   5.191   3.977   4.833 -0.3480  0.0135 -0.1640
  529TIP3    H1 1551   5.264   4.021   4.789 -1.3181  1.6086 -0.2513
  529TIP3    H2 1552   5.149   3.927   4.763  1.1539 -1.6840  0.0684
  530TIP3   OH2 1553   0.363   4.211   3.293  0.0025 -0.0402  0.2826
  530TIP3    H1 1554   0.349   4.122   3.261 -0.3991 -0.0548  0.5002
  530TIP3    H2 1555   0.317   4.215   3.377  0.6841  0.1292  0.6612
  531TIP3   OH2 1556   1.187   5.056   4.269 -0.6950 -0.2689 -0.4760
  531TIP3    H1 1557   1.265   5.017   4.307 -1.5350 -1.4471  0.0751
  531TIP3    H2 1558   1.201   5.151   4.277  0.3131 -0.4747  0.3296
  532TIP3   OH2 1559   3.025   5.118   5.110 -0.3994 -0.2843 -0.0280
  532TIP3    H1 1560   3.077   5.136   5.188 -0.3579  0.5984 -0.2528
  532TIP3    H2 1561   2.935   5.132   5.138 -0.4016 -0.2190 -0.0669
  533TIP3   OH2 1562   2.930   5.669   2.490  0.1941  0.3749  0.0331
  533TIP3    H1 1563   2.955   5.675   2.398  1.4667  1.4565  0.4190
  533TIP3    H2 1564   3.002   5.621   2.531  0.6633  1.6868  0.8049
  534TIP3   OH2 1565   4.842   3.283   2.469  0.4943  0.2033 -0.0560
  534TIP3    H1 1566   4.778   3.347   2.437  0.3504 -0.5997 -1.4686
  534TIP3    H2 1567   4.926   3.316   2.436  0.4686 -0.1251 -0.4522
  535TIP3   OH2 1568   7.140   2.383   2.514 -0.7166 -0.4060 -0.0450
  535TIP3    H1 1569   7.128   2.473   2.485 -0.4946  0.0708  1.2601
  535TIP3    H2 1570   7.111   2.330   2.440 -1.7800  0.7257 -0.4804
  536TIP3   OH2 1571   2.307   2.960   4.588 -0.0620 -0.2274  0.0372
  536TIP3    H1 1572   2.379   2.903   4.614  0.1694 -0.4942 -1.1296
  536TIP3    H2 1573   2.348   3.045   4.574 -0.1140 -0.1866  0.1303
  537TIP3   OH2 1574   4.129   0.828   2.483 -0.2281 -0.4887 -0.3294
  537TIP3    H1 1575   4.191   0.901   2.477  0.4071 -1.0257 -0.3912
  537TIP3    H2 1576   4.138   0.782   2.399  0.5479 -1.5479  0.3025
  538TIP3   OH2 1577   2.502   5.801   4.250  0.0717 -0.5569 -0.1254
  538TIP3    H1 1578   2.422   5.809   4.199  0.2542  0.6249 -0.2548
  538TIP3    H2 1579   2.487   5.727   4.308 -1.5629  0.3277  0.6437
  539TIP3   OH2 1580   5.089   1.896   0.120  0.4557  0.1779  0.3197
  539TIP3    H1 1581   5.068   1.956   0.192  1.9576  0.5710  0.4582
  539TIP3    H2 1582   5.141   1.827   0.161  0.8021  0.0754 -0.2901
  540TIP3   OH2 1583   1.098   5.825   3.423 -0.6812  0.9461  0.0728
  540TIP3    H1 1584   1.142   5.772   3.490 -1.6799  0.8550  0.6707
  540TIP3    H2 1585   1.133   5.791   3.340 -2.3822 -1.7815  0.3347
  541TIP3   OH2 1586   4.007   5.134   5.257 -0.0251  0.1335  0.6155
  541TIP3    H1 1587   4.028   5.057   5.205  0.6629  0.4015  0.4793
  541TIP3    H2 1588   3.992   5.100   5.345 -1.2752 -0.3312  0.2388
  542TIP3   OH2 1589   5.664   5.424   4.621 -0.7104  0.4172 -0.5020
  542TIP3    H1 1590   5.606   5.497   4.643 -2.1648 -1.2026  1.4846
  542TIP3    H2 1591   5.650   5.410   4.527  0.9677  3.7228 -1.3908
  543TIP3   OH2 1592   0.731   0.588   2.342 -0.3450  0.2651  0.5881
  543TIP3    H1 1593   0.823   0.573   2.319  0.4474  1.8689  2.4387
  543TIP3    H2 1594   0.689   0.504   2.327  1.0878 -0.1452 -1.6751
  544TIP3   OH2 1595   6.931   1.730   0.877 -0.3204  0.4866  0.7059
  544TIP3    H1 1596   6.907   1.643   0.909  2.3821  0.3302  2.5778
  544TIP3    H2 1597   6.971   1.713   0.791 -0.1319 -0.0778  0.8983
  545TIP3   OH2 1598   6.564   4.309   3.978 -0.8160  0.1932  0.3984
  545TIP3    H1 1599   6.592   4.218   3.983 -2.8720 -0.5369 -0.3707
  545TIP3    H2 1600   6.473   4.305   3.949 -1.1304  2.4830  0.8637
  546TIP3   OH2 1601   1.092   4.091   5.168  0.0301 -0.2307 -0.1557
  546TIP3    H1 1602   1.031   4.085   5.095 -0.4998 -2.0892  0.3822
  546TIP3    H2 1603   1.046   4.144   5.233 -0.0691  0.2574 -0.6152
  547TIP3   OH2 1604   2.066   2.888   5.449 -0.0727  0.0217  0.0129
  547TIP3    H1 1605   1.998   2.854   5.390 -0.4802 -0.0717  0.5291
  547TIP3    H2 1606   2.040   2.856   5.536  0.4950  0.1995  0.2508
  548TIP3   OH2 1607   6.554   6.390   0.187 -0.3093 -0.2413 -0.7044
  548TIP3    H1 1608   6.471   6.354   0.154  0.1541 -1.6545 -0.4090
  548TIP3    H2 1609   6.537   6.405   0.281  0.7203 -3.8307  0.2061
  549TIP3   OH2 1610   4.600   0.269   5.027 -0.1618 -0.1488  0.1896
  549TIP3    H1 1611   4.572   0.250   4.938 -0.0912 -0.0998  0.1566
  549TIP3    H2 1612   4.637   0.358   5.023  0.9424 -0.5916  0.0082
  550TIP3   OH2 1613   3.465   1.381   4.318 -1.3307 -0.4349 -0.2227
  550TIP3    H1 1614   3.380   1.424   4.327 -1.5863 -0.9066 -0.3362
  550TIP3    H2 1615   3.503   1.385   4.406  0.3061  3.3110 -0.8841
  551TIP3   OH2 1616   0.605   0.442   5.330 -0.0398 -0.6955  0.4031
  551TIP3    H1 1617   0.628   0.492   5.409 -0.8056 -0.9170  0.7776
  551TIP3    H2 1618   0.681   0.387   5.313  0.4646 -0.0381  0.4993
  552TIP3   OH2 1619   6.422   5.435   1.884  0.2826 -0.1499  0.7561
  552TIP3    H1 1620   6.418   5.503   1.952 -0.9436  1.1022 -0.5017
  552TIP3    H2 1621   6.365   5.365   1.917 -0.4141  0.5047  0.9653
  553TIP3   OH2 1622   5.557   1.282   5.160 -0.7919 -0.8592  0.2080
  553TIP3    H1 1623   5.637   1.332   5.172 -0.2076 -1.9768  1.1289
  553TIP3    H2 1624   5.542   1.240   5.244 -1.3775 -2.0534 -0.4710
  554TIP3   OH2 1625   5.507   1.433   1.450  0.2532  0.1884  0.0038
  554TIP3    H1 1626   5.566   1.400   1.382  0.3264 -1.7745  0.9618
  554TIP3    H2 1627   5.425   1.385   1.437 -1.1519  2.6765 -1.1273
  555TIP3   OH2 1628   1.323   1.955   0.125  0.0744  0.0943 -0.1170
  555TIP3    H1 1629   1.244   2.010   0.125 -0.1632 -0.1580  1.9188
  555TIP3    H2 1630   1.386   2.003   0.179  0.7684 -0.4415 -0.4397
  556TIP3   OH2 1631   3.570   6.264   4.676 -0.3938  0.3736 -0.2368
  556TIP3    H1 1632   3.505   6.209   4.719 -0.2257 -1.1090 -1.7460
  556TIP3    H2 1633   3.629   6.202   4.634  1.5064  1.6990  0.3508
  557TIP3   OH2 1634   2.942   5.391   2.766 -0.0956 -0.7111 -0.7168
  557TIP3    H1 1635   2.910   5.444   2.693  1.0572  0.1656 -0.5999
  557TIP3    H2 1636   3.003   5.329   2.726  2.0435  1.0122 -0.3360
  558TIP3   OH2 1637   6.938   3.989   5.241 -0.0479 -0.6035  0.3600
  558TIP3    H1 1638   6.866   3.956   5.296  0.5251  0.4765  1.8186
  558TIP3    H2 1639   7.013   3.935   5.265 -0.1490 -1.1782 -0.5576
  559TIP3   OH2 1640   6.669   4.555   1.148 -0.3162 -0.6066  0.5443
  559TIP3    H1 1641   6.699   4.590   1.231  2.6945  0.5444 -0.8818
  559TIP3    H2 1642   6.607   4.620   1.115  2.0173  1.4246 -0.1279
  560TIP3   OH2 1643   6.391   0.585   3.601  0.4448 -0.0851  0.1999
  560TIP3    H1 1644   6.431   0.667   3.573 -1.9493  1.5058  1.1073
  560TIP3    H2 1645   6.391   0.589   3.697 -0.1840 -0.8799  0.2498
  561TIP3   OH2 1646   2.396   6.294   0.157  0.7084 -0.1260  0.1643
  561TIP3    H1 1647   2.420   6.273   0.067  0.0544  2.4190 -0.6977
  561TIP3    H2 1648   2.477   6.286   0.207  1.0406 -1.7242 -0.5889
  562TIP3   OH2 1649   5.647   5.857   3.526 -0.2720  0.1574 -0.2681
  562TIP3    H1 1650   5.605   5.794   3.468  0.5173 -0.2057 -0.4506
  562TIP3    H2 1651   5.719   5.893   3.474 -0.6106  1.0919 -0.1076
  563TIP3   OH2 1652   0.449   3.177   3.427 -0.3943 -0.2936  0.3110
  563TIP3    H1 1653   0.521   3.118   3.404  0.7291  0.3016  2.0811
  563TIP3    H2 1654   0.492   3.260   3.450 -1.8853  1.1023 -1.5398
  564TIP3   OH2 1655   7.146   5.794   4.222  0.1911 -0.1420 -0.0570
  564TIP3    H1 1656   7.089   5.736   4.274  0.8916  0.1804  1.1014
  564TIP3    H2 1657   7.189   5.735   4.160  0.7734 -0.8673  1.0006
  565TIP3   OH2 1658   4.785   2.352   5.766 -0.0248 -0.1484 -0.0526
  565TIP3    H1 1659   4.704   2.397   5.739  0.3559  0.4183 -0.2734
  565TIP3    H2 1660   4.776   2.264   5.731 -1.3837 -0.6923  1.4936
  566TIP3   OH2 1661   5.668   1.579   2.167 -0.2603 -0.7327 -0.0788
  566TIP3    H1 1662   5.628   1.502   2.126 -3.5493  0.6179  0.2380
  566TIP3    H2 1663   5.696   1.549   2.253  0.8821 -2.1334 -0.9137
  567TIP3   OH2 1664   2.688   3.384   0.627 -0.2402 -0.6035  0.2330
  567TIP3    H1 1665   2.739   3.308   0.656  1.0402 -1.0284 -2.8106
  567TIP3    H2 1666   2.648   3.356   0.545 -2.3818  1.0145  0.6425
  568TIP3   OH2 1667   0.322   5.167   2.704 -0.2194  0.2157 -0.7777
  568TIP3    H1 1668   0.338   5.121   2.786 -0.5673  1.0026 -0.2570
  568TIP3    H2 1669   0.267   5.107   2.653 -2.0771  0.7011  0.5479
  569TIP3   OH2 1670   2.523   5.232   4.853  0.1732 -1.2189  0.4326
  569TIP3    H1 1671   2.570   5.172   4.910 -0.2937 -0.6177  1.4791
  569TIP3    H2 1672   2.561   5.318   4.872 -1.4476 -0.6881  1.4528
  570TIP3   OH2 1673   6.537   3.957   1.343 -0.6723 -0.1861 -0.2728
  570TIP3    H1 1674   6.525   3.892   1.412 -1.7170  1.2587  0.9990
  570TIP3    H2 1675   6.630   3.953   1.321 -0.3941 -0.9532  0.9608
  571TIP3   OH2 1676   5.148   4.827   5.395  0.7315 -0.0111 -0.6543
  571TIP3    H1 1677   5.213   4.770   5.437 -0.8170 -0.4579  1.2847
  571TIP3    H2 1678   5.099   4.865   5.468 -1.6418 -0.2278 -2.0527
  572TIP3   OH2 1679   6.770   3.046   1.769  0.2157  0.0697  0.2853
  572TIP3    H1 1680   6.795   3.137   1.757  1.6387  0.0695  2.6814
  572TIP3    H2 1681   6.741   3.041   1.860 -2.2534 -1.3951 -0.4844
  573TIP3   OH2 1682   5.912   1.046   5.104  0.5841 -0.6840  0.2345
  573TIP3    H1 1683   5.889   1.115   5.042 -0.3773  0.5469  1.8757
  573TIP3    H2 1684   5.972   0.989   5.056  0.7650  0.8353 -1.4375
  574TIP3   OH2 1685   4.687   5.048   4.814 -0.1587 -0.1019 -0.6699
  574TIP3    H1 1686   4.683   4.956   4.788  0.0062  0.1977 -1.7778
  574TIP3    H2 1687   4.722   5.093   4.738 -0.3630  0.9061 -0.1798
  575TIP3   OH2 1688   1.456   0.930   3.538 -0.2779 -0.0427  0.3633
  575TIP3    H1 1689   1.514   0.938   3.614  1.0239 -1.0168 -0.4643
  575TIP3    H2 1690   1.421   0.841   3.544  0.4446 -0.4124 -0.5444
  576TIP3   OH2 1691   3.436   6.127   0.257  0.4054  0.4661 -0.0781
  576TIP3    H1 1692   3.409   6.120   0.348  1.1003 -3.2883 -0.0364
  576TIP3    H2 1693   3.357   6.105   0.207  0.5918  0.3505 -0.3234
  577TIP3   OH2 1694   5.199   5.567   2.739  0.1881 -0.9551 -0.6380
  577TIP3    H1 1695   5.117   5.573   2.691  0.1126 -0.6848 -0.4756
  577TIP3    H2 1696   5.216   5.656   2.770  0.0619 -1.1815  0.1173
  578TIP3   OH2 1697   5.911   4.882   5.217  0.2057 -0.1588 -0.8646
  578TIP3    H1 1698   5.958   4.938   5.155 -0.2609 -0.3348 -1.3793
  578TIP3    H2 1699   5.857   4.826   5.162  1.1751 -1.6051 -0.3990
  579TIP3   OH2 1700   4.766   3.569   3.233  0.1736 -0.1691 -0.0176
  579TIP3    H1 1701   4.806   3.494   3.277  0.5979  0.3354  0.4754
  579TIP3    H2 1702   4.792   3.644   3.286  1.1231  0.5203 -1.4206
  580TIP3   OH2 1703   0.407   2.423   1.599 -0.2230 -0.1776  0.0464
  580TIP3    H1 1704   0.335   2.425   1.662  0.6470 -0.3072  1.0624
  580TIP3    H2 1705   0.480   2.466   1.644  0.4252 -0.2856 -0.8710
  581TIP3   OH2 1706   3.175   6.097   0.893  0.4191  0.4188 -0.0939
  581TIP3    H1 1707   3.175   6.007   0.928  0.8703  0.6408  0.5030
  581TIP3    H2 1708   3.251   6.100   0.835  0.2055  0.3137 -0.3767
  582TIP3   OH2 1709   2.234   0.111   5.771  0.0129  0.0940  0.6720
  582TIP3    H1 1710   2.268   0.118   5.681 -0.9594 -1.8143  0.0965
  582TIP3    H2 1711   2.139   0.104   5.760 -0.1120 -0.1796  1.8547
  583TIP3   OH2 1712   1.245   5.557   4.787 -0.3206 -0.4245  0.1089
  583TIP3    H1 1713   1.338   5.551   4.811  0.0707  2.3839 -0.4337
  583TIP3    H2 1714   1.242   5.621   4.717 -2.7910  0.3321  0.8111
  584TIP3   OH2 1715   5.003   3.049   2.744 -0.3133  0.1775  0.6859
  584TIP3    H1 1716   5.045   3.095   2.817  0.8877  0.1627  0.0324
  584TIP3    H2 1717   5.019   3.106   2.668  1.2557 -1.3037 -0.1549
  585TIP3   OH2 1718   4.908   3.126   5.781  0.3464  0.4987 -0.4737
  585TIP3    H1 1719   4.979   3.102   5.722  1.0696  1.3563  0.0143
  585TIP3    H2 1720   4.837   3.154   5.724 -0.1361 -1.6904 -1.0148
  586TIP3   OH2 1721   5.220   3.376   5.825  0.1266  0.0495 -0.4139
  586TIP3    H1 1722   5.221   3.321   5.903 -0.4442  0.0670 -0.3850
  586TIP3    H2 1723   5.310   3.407   5.815  0.3356 -0.4618 -0.1284
  587TIP3   OH2 1724   3.955   6.072   3.588 -0.6095 -0.0536 -0.0528
  587TIP3    H1 1725   3.991   6.156   3.616  0.2112 -0.0390 -1.0864
  587TIP3    H2 1726   3.990   6.059   3.499 -2.8794 -0.2054 -0.9984
  588TIP3   OH2 1727   2.064   2.233   4.078  0.2243  0.4133  0.8123
  588TIP3    H1 1728   1.990   2.192   4.035  0.0996 -0.0348  1.4496
  588TIP3    H2 1729   2.128   2.247   4.008 -0.1638  0.1206  0.4001
  589TIP3   OH2 1730   0.786   2.136   0.696  0.1373  0.0769 -0.4501
  589TIP3    H1 1731   0.769   2.149   0.789  0.9986  1.0571 -0.4188
  589TIP3    H2 1732   0.706   2.096   0.663 -1.5861  2.8386  0.0362
  590TIP3   OH2 1733   1.644   0.219   1.621 -0.3911 -0.0106  0.2292
  590TIP3    H1 1734   1.737   0.235   1.607 -0.6420  0.4881 -1.0346
  590TIP3    H2 1735   1.634   0.124   1.610  0.0724 -0.1726  1.1272
  591TIP3   OH2 1736   1.548   0.783   3.067  0.1685 -0.7453 -0.2289
  591TIP3    H1 1737   1.580   0.763   3.154 -1.1903 -1.5195  0.1208
  591TIP3    H2 1738   1.475   0.844   3.081  0.2676 -0.4639 -0.8608
  592TIP3   OH2 1739   5.567   6.066   4.360 -0.0295 -0.1365  0.2682
  592TIP3    H1 1740   5.649   6.087   4.314  0.6187 -2.1615  0.3964
  592TIP3    H2 1741   5.589   6.078   4.453 -0.3861  0.8856  0.2302
  593TIP3   OH2 1742   2.277   2.961   5.288 -0.1955  0.1722  0.5943
  593TIP3    H1 1743   2.291   3.053   5.307 -3.7327  0.9980  0.0383
  593TIP3    H2 1744   2.213   2.932   5.353  0.0640 -1.6113  0.1299
  594TIP3   OH2 1745   5.557   2.223   1.138  0.1194  0.6891  0.3571
  594TIP3    H1 1746   5.536   2.154   1.201 -4.1930 -0.0364 -1.5701
  594TIP3    H2 1747   5.515   2.301   1.172 -1.8288  0.4064 -1.2311
  595TIP3   OH2 1748   2.107   5.432   2.521  0.2076 -0.0156 -0.0161
  595TIP3    H1 1749   2.193   5.458   2.553  0.1587 -0.1152  0.2007
  595TIP3    H2 1750   2.104   5.462   2.431  1.1089 -1.4412 -0.5582
  596TIP3   OH2 1751   6.792   0.450   5.632  0.3762  0.3650  0.3506
  596TIP3    H1 1752   6.765   0.359   5.644  1.3075 -0.3649 -2.4300
  596TIP3    H2 1753   6.863   0.463   5.695 -0.4830 -0.4426  1.5362
  597TIP3   OH2 1754   2.294   1.732   5.568 -0.1318  0.0250  0.2100
  597TIP3    H1 1755   2.266   1.740   5.477  0.9899  0.6069 -0.1038
  597TIP3    H2 1756   2.331   1.818   5.589 -0.5344 -0.0468  1.2736
  598TIP3   OH2 1757   1.140   5.887   1.860  0.2422 -0.2281  0.0781
  598TIP3    H1 1758   1.170   5.817   1.918 -0.0369 -1.8248 -1.5842
  598TIP3    H2 1759   1.044   5.886   1.868  0.1504 -0.9517 -0.8836
  599TIP3   OH2 1760   3.971   6.395   3.599 -0.8576 -0.0901  0.3645
  599TIP3    H1 1761   3.976   6.480   3.556 -1.3034 -0.1237  0.2384
  599TIP3    H2 1762   3.879   6.368   3.589 -0.3860 -1.3444 -1.1096
  600TIP3   OH2 1763   5.055   4.016   2.110 -0.3085 -0.1019  0.1588
  600TIP3    H1 1764   4.976   4.066   2.090  0.3382  0.2417 -1.7378
  600TIP3    H2 1765   5.125   4.081   2.107  0.4753 -0.9629 -1.7611
  601TIP3   OH2 1766   6.180   2.366   1.309 -0.0172 -0.7057  0.7002
  601TIP3    H1 1767   6.230   2.402   1.382  1.4017 -1.8366  0.3392
  601TIP3    H2 1768   6.102   2.328   1.349  0.1971 -0.3299  1.4779
  602TIP3   OH2 1769   1.668   3.994   2.828  0.0517 -0.0827  0.0127
  602TIP3    H1 1770   1.658   3.901   2.849  0.7756 -0.3146 -0.6249
  602TIP3    H2 1771   1.763   4.007   2.818 -0.0069  0.8231  0.5286
  603TIP3   OH2 1772   4.261   2.423   5.881 -0.0632 -0.0238  0.2365
  603TIP3    H1 1773   4.338   2.373   5.855 -0.0071 -0.5263  1.2853
  603TIP3    H2 1774   4.288   2.514   5.877  0.9753 -0.2334  1.6968
  604TIP3   OH2 1775   2.961   2.538   5.022 -0.8502 -0.2938 -0.4176
  604TIP3    H1 1776   2.901   2.608   4.996 -0.2266 -0.9002 -3.9581
  604TIP3    H2 1777   2.915   2.457   5.000 -0.1384 -0.8767  0.1820
  605TIP3   OH2 1778   4.991   5.584   5.380  0.3784 -0.6039  0.4592
  605TIP3    H1 1779   4.993   5.546   5.292  1.4696 -0.6347  0.4884
  605TIP3    H2 1780   5.035   5.669   5.371  0.8425 -0.7729  1.0417
  606TIP3   OH2 1781   3.114   1.631   5.125  0.6462 -0.4533  0.5290
  606TIP3    H1 1782   3.053   1.705   5.125  0.7768 -0.3413  0.0083
  606TIP3    H2 1783   3.059   1.554   5.139  0.5057 -0.2622  1.0479
  607TIP3   OH2 1784   6.522   3.554   2.180  0.4667  0.0329  0.2561
  607TIP3    H1 1785   6.502   3.648   2.188  1.5305  0.2266  0.9087
  607TIP3    H2 1786   6.573   3.535   2.259 -2.3905 -1.8357  1.7906
  608TIP3   OH2 1787   6.401   3.363   0.844  0.4793  0.3258  0.4962
  608TIP3    H1 1788   6.483   3.405   0.817  0.1167 -0.1074 -1.4145
  608TIP3    H2 1789   6.357   3.429   0.898  0.5986  1.8703 -1.2048
  609TIP3   OH2 1790   2.700   3.635   4.150  0.1280  0.1571 -0.2836
  609TIP3    H1 1791   2.727   3.637   4.242  1.2701 -0.5689 -0.5788
  609TIP3    H2 1792   2.782   3.627   4.101 -0.5562 -1.7290 -1.2451
  610TIP3   OH2 1793   1.948   3.713   0.756 -0.5333 -0.1919  0.2832
  610TIP3    H1 1794   1.953   3.619   0.743 -2.3285 -0.1488 -0.9958
  610TIP3    H2 1795   1.859   3.729   0.787 -0.9711  1.2615 -1.5670
  611TIP3   OH2 1796   5.593   2.544   1.086  0.0971 -0.0916  0.0446
  611TIP3    H1 1797   5.610   2.498   1.005  0.9848  0.4033 -0.0650
  611TIP3    H2 1798   5.647   2.624   1.080 -1.2939  0.8972  0.2737
  612TIP3   OH2 1799   6.988   0.210   1.878 -0.4368  0.3199  0.4889
  612TIP3    H1 1800   7.079   0.222   1.905  0.1917 -3.3675  0.6032
  612TIP3    H2 1801   6.943   0.183   1.958 -1.8032  2.5141  0.5224
  613TIP3   OH2 1802   0.180   5.472   0.274 -0.2327 -0.1120  0.3390
  613TIP3    H1 1803   0.223   5.511   0.199  0.1924  1.6337  1.4387
  613TIP3    H2 1804   0.251   5.450   0.335 -0.6192 -0.8918  0.5312
  614TIP3   OH2 1805   3.762   6.621   2.669  0.3856 -0.1030 -0.6286
  614TIP3    H1 1806   3.671   6.592   2.661  0.5840 -0.4953 -1.6814
  614TIP3    H2 1807   3.812   6.558   2.617  1.3321 -0.2039  0.3708
  615TIP3   OH2 1808   0.244   4.914   4.380 -0.2379 -0.1762  0.7726
  615TIP3    H1 1809   0.296   4.886   4.455 -2.3050 -0.5442  2.1690
  615TIP3    H2 1810   0.182   4.842   4.366 -2.7196  1.6366  1.5598
  616TIP3   OH2 1811   2.140   1.447   2.202 -0.3787  0.1612 -0.0470
  616TIP3    H1 1812   2.125   1.516   2.137 -1.4988  1.1696  1.2095
  616TIP3    H2 1813   2.233   1.453   2.222  0.2063 -0.8013 -2.1952
  617TIP3   OH2 1814   1.452   6.347   0.418 -0.9994 -0.0011  0.1909
  617TIP3    H1 1815   1.420   6.434   0.393 -1.4157 -0.6562 -1.7314
  617TIP3    H2 1816   1.546   6.359   0.432 -0.5767  0.3652 -2.4141
  618TIP3   OH2 1817   5.340   1.091   2.077  0.5704 -0.1827 -0.0208
  618TIP3    H1 1818   5.372   1.181   2.077 -0.8045  0.3369 -0.1595
  618TIP3    H2 1819   5.245   1.100   2.088  0.5304 -1.6616  1.1458
  619TIP3   OH2 1820   1.893   4.004   4.145 -0.2861  0.0507 -0.3364
  619TIP3    H1 1821   1.866   3.914   4.162  0.0128 -0.4197 -2.1270
  619TIP3    H2 1822   1.989   4.000   4.144 -0.2168  0.7188  1.0571
  620TIP3   OH2 1823   3.283   1.740   4.298  0.2270  0.6271 -0.9507
  620TIP3    H1 1824   3.310   1.688   4.223 -1.4132 -0.8304 -0.5971
  620TIP3    H2 1825   3.201   1.781   4.270  0.4805  1.4434 -0.5284
  621TIP3   OH2 1826   3.694   4.019   4.246 -0.4194  0.3717  0.1118
  621TIP3    H1 1827   3.638   4.006   4.323 -0.1212  1.4029  0.5220
  621TIP3    H2 1828   3.712   4.113   4.245  0.5607  0.1923 -0.5466
  622TIP3   OH2 1829   4.000   4.219   5.291 -0.1164  0.1842 -0.4580
  622TIP3    H1 1830   4.008   4.312   5.268  1.3118 -0.1443 -1.4116
  622TIP3    H2 1831   4.055   4.173   5.227 -1.6343 -1.4409 -0.6706
  623TIP3   OH2 1832   1.441   1.260   1.464  0.6471  0.3460  0.2747
  623TIP3    H1 1833   1.439   1.310   1.382 -0.1781 -0.3507 -0.1424
  623TIP3    H2 1834   1.525   1.213   1.461 -0.1118 -1.0237 -1.0256
  624TIP3   OH2 1835   5.908   0.197   3.208 -0.1966  0.0244  0.2942
  624TIP3    H1 1836   5.963   0.214   3.285 -0.1115  0.6458  0.1045
  624TIP3    H2 1837   5.839   0.263   3.213  0.3760  0.7402 -0.6891
  625TIP3   OH2 1838   1.336   6.622   0.076 -0.8630  0.3378  0.4239
  625TIP3    H1 1839   1.334   6.611   0.171 -0.5741 -0.8202  0.3095
  625TIP3    H2 1840   1.370   6.710   0.063 -0.9436  0.5242  1.3916
  626TIP3   OH2 1841   3.366   1.486   5.114 -0.5950  0.2654 -0.2764
  626TIP3    H1 1842   3.290   1.543   5.124 -0.6456  0.7117 -2.5927
  626TIP3    H2 1843   3.417   1.499   5.194 -2.9862 -0.1654  1.3930
  627TIP3   OH2 1844   5.935   4.540   5.846  0.2606  0.3281 -0.2648
  627TIP3    H1 1845   5.963   4.449   5.844 -0.8389 -0.0415  0.1396
  627TIP3    H2 1846   5.907   4.558   5.756 -0.4825 -0.0638 -0.1203
  628TIP3   OH2 1847   5.188   4.013   0.779 -0.2618  0.0304  1.0118
  628TIP3    H1 1848   5.127   4.018   0.705 -0.1174  2.9309  0.9870
  628TIP3    H2 1849   5.162   4.084   0.837  1.1102 -0.7004  2.6046
  629TIP3   OH2 1850   2.946   6.233   0.813  0.0284  0.3003 -0.0516
  629TIP3    H1 1851   2.933   6.325   0.790  0.0026  0.4311  0.4725
  629TIP3    H2 1852   3.041   6.224   0.823 -0.0655  0.6989  1.5713
  630TIP3   OH2 1853   0.802   4.489   5.833 -0.0483  0.3982  0.4778
  630TIP3    H1 1854   0.814   4.396   5.853 -2.3127  0.3154  1.8426
  630TIP3    H2 1855   0.792   4.492   5.738  2.1306 -0.4232  0.1671
  631TIP3   OH2 1856   6.755   1.539   4.946  0.0435  0.0296  0.1524
  631TIP3    H1 1857   6.725   1.551   5.036  0.7127  1.3317  0.2273
  631TIP3    H2 1858   6.775   1.445   4.939 -1.8410 -0.4612  0.7505
  632TIP3   OH2 1859   4.217   0.765   0.903 -0.2157 -0.0573  0.5146
  632TIP3    H1 1860   4.214   0.795   0.993  1.0878  0.4167  0.4342
  632TIP3    H2 1861   4.233   0.844   0.852  0.4670 -0.4928  0.0212
  633TIP3   OH2 1862   2.372   4.487   3.427 -0.4529 -0.1375  0.3055
  633TIP3    H1 1863   2.468   4.482   3.421 -0.4233 -1.2279  1.4115
  633TIP3    H2 1864   2.345   4.401   3.460 -2.0206 -0.6667 -2.0710
  634TIP3   OH2 1865   1.166   4.495   0.418  0.2119  0.3051  0.5630
  634TIP3    H1 1866   1.107   4.521   0.348  1.1455  0.4440 -0.1825
  634TIP3    H2 1867   1.162   4.567   0.481 -1.4938 -0.3227  1.2466
  635TIP3   OH2 1868   0.996   3.971   2.034 -0.9736 -0.1781  0.7617
  635TIP3    H1 1869   0.924   3.998   2.090 -0.0965  0.4133  1.6508
  635TIP3    H2 1870   1.045   4.052   2.017 -0.2313 -0.6402  0.6162
  636TIP3   OH2 1871   0.965   3.063   4.590 -0.1211 -0.2220 -0.3419
  636TIP3    H1 1872   1.054   3.079   4.623  0.0788  2.0245 -1.7640
  636TIP3    H2 1873   0.914   3.138   4.621 -0.6655  0.2851 -2.3514
  637TIP3   OH2 1874   1.362   3.664   1.031  0.1565 -0.7946  0.0615
  637TIP3    H1 1875   1.424   3.600   0.996  0.6154 -0.0987 -0.4221
  637TIP3    H2 1876   1.292   3.611   1.070  1.3790 -1.6166  1.2261
  638TIP3   OH2 1877   2.983   3.720   3.228 -0.3635  0.4170  0.0503
  638TIP3    H1 1878   2.958   3.797   3.280  1.2591  1.5572 -0.7364
  638TIP3    H2 1879   3.073   3.701   3.256 -1.0128 -1.7805  0.8478
  639TIP3   OH2 1880   1.931   3.068   0.534 -0.0171 -0.0708  0.0541
  639TIP3    H1 1881   1.986   3.145   0.517  2.8024 -2.0674 -0.6764
  639TIP3    H2 1882   1.933   3.020   0.451 -3.5714  0.0372 -0.2210
  640TIP3   OH2 1883   4.864   5.179   5.521  0.1834  0.3370  0.0180
  640TIP3    H1 1884   4.916   5.256   5.498 -0.7185  0.9843  0.0678
  640TIP3    H2 1885   4.786   5.186   5.466 -0.0905 -0.3267  0.3149
  641TIP3   OH2 1886   2.532   1.700   4.157 -0.2118  0.7190 -0.1711
  641TIP3    H1 1887   2.571   1.661   4.078 -1.2422  1.2691 -0.9853
  641TIP3    H2 1888   2.527   1.628   4.219  1.0196  0.3705 -0.4381
  642TIP3   OH2 1889   0.827   5.899   1.665 -0.2695  0.3507  0.2272
  642TIP3    H1 1890   0.850   5.814   1.627 -1.5837 -0.0357  0.2561
  642TIP3    H2 1891   0.846   5.889   1.758  1.4364  0.7668 -0.0406
  643TIP3   OH2 1892   5.244   0.178   2.236 -0.1864  0.1028 -0.0334
  643TIP3    H1 1893   5.261   0.086   2.254 -0.8015  0.1336  0.7406
  643TIP3    H2 1894   5.330   0.220   2.243 -0.3186  0.0900  2.7574
  644TIP3   OH2 1895   0.660   3.890   1.866  0.4030  0.0468 -0.4541
  644TIP3    H1 1896   0.569   3.861   1.872 -0.1283  0.7856 -3.2109
  644TIP3    H2 1897   0.712   3.813   1.889 -0.9567 -1.7378 -2.8615
  645TIP3   OH2 1898   0.399   3.232   1.746  0.1515 -0.0386 -0.0140
  645TIP3    H1 1899   0.460   3.280   1.690  0.5428  0.5858  0.9227
  645TIP3    H2 1900   0.312   3.256   1.714  0.1606  3.5811  2.0631
  646TIP3   OH2 1901   5.931   0.207  -0.002  0.1883  0.0320 -0.7851
  646TIP3    H1 1902   5.876   0.284   0.008 -0.8953 -0.6122 -1.5716
  646TIP3    H2 1903   5.873   0.133   0.015  0.5693 -0.6991 -2.3923
  647TIP3   OH2 1904   2.720   4.108   2.717 -0.3261  0.0663 -0.4768
  647TIP3    H1 1905   2.688   4.135   2.631 -1.4295 -1.0772 -0.4559
  647TIP3    H2 1906   2.771   4.029   2.701  0.4147  0.4763 -0.2012
  648TIP3   OH2 1907   4.359   3.657   0.289 -0.1376 -0.2872  0.4251
  648TIP3    H1 1908   4.356   3.586   0.226 -1.8629  0.7172 -0.7191
  648TIP3    H2 1909   4.436   3.708   0.264  0.5862 -1.2393  0.6902
  649TIP3   OH2 1910   5.485   3.798   3.576 -0.4039 -0.2269  0.2719
  649TIP3    H1 1911   5.433   3.871   3.542 -0.1521  0.0762  0.5257
  649TIP3    H2 1912   5.480   3.731   3.508 -0.1013  0.2796 -0.2602
  650TIP3   OH2 1913   2.838   1.204   4.055  0.1651  0.3428  0.8831
  650TIP3    H1 1914   2.913   1.186   3.998  0.7550  0.0408  1.7395
  650TIP3    H2 1915   2.819   1.120   4.096 -0.3044  0.5416  1.0719
  651TIP3   OH2 1916   0.014   2.001   5.701 -0.6263  0.5042 -0.1250
  651TIP3    H1 1917  -0.044   2.072   5.730 -0.3220  1.0089 -0.7352
  651TIP3    H2 1918   0.096   2.017   5.747 -0.2958  1.0287 -0.8831
  652TIP3   OH2 1919   5.882   5.018   2.443  0.0646  0.0753 -0.3418
  652TIP3    H1 1920   5.850   4.972   2.521 -1.1466  1.2020 -0.1300
  652TIP3    H2 1921   5.865   4.957   2.371 -2.5411  0.5314 -0.2098
  653TIP3   OH2 1922   2.012   0.400   3.219  0.4269 -0.2993 -0.1483
  653TIP3    H1 1923   2.044   0.363   3.137  0.7952 -0.1895 -0.0557
  653TIP3    H2 1924   2.091   0.430   3.264  0.1038  0.9824 -0.4118
  654TIP3   OH2 1925   4.383   1.626   5.696  0.0198  0.0135 -0.4946
  654TIP3    H1 1926   4.293   1.648   5.673 -0.1573 -0.7196 -0.5431
  654TIP3    H2 1927   4.400   1.544   5.649 -0.0025 -0.9832  1.1495
  655TIP3   OH2 1928   5.682   2.368   3.462 -0.0605  0.0320 -0.2373
  655TIP3    H1 1929   5.743   2.299   3.436  0.0271 -0.0996  0.3126
  655TIP3    H2 1930   5.632   2.387   3.382 -0.2451 -0.8234 -0.3328
  656TIP3   OH2 1931   0.473   5.341   2.973  0.2878  0.3869  0.2457
  656TIP3    H1 1932   0.538   5.395   3.018  1.1724 -0.7623  0.3930
  656TIP3    H2 1933   0.525   5.283   2.918 -0.6135 -0.6268  0.4392
  657TIP3   OH2 1934   1.472   5.975   2.017 -0.3759  0.4622  0.6778
  657TIP3    H1 1935   1.394   5.999   2.067  0.2875 -1.3223  2.7089
  657TIP3    H2 1936   1.489   5.884   2.041  0.8081 -0.0558 -1.8080
  658TIP3   OH2 1937   1.696   2.718   5.646  0.0566  0.3926 -0.0303
  658TIP3    H1 1938   1.791   2.708   5.654 -0.1268 -0.1678  1.8366
  658TIP3    H2 1939   1.684   2.802   5.601  1.4235  1.2168  1.0824
  659TIP3   OH2 1940   1.034   2.030   4.136 -0.0295  0.3708 -0.2802
  659TIP3    H1 1941   1.053   2.058   4.046  0.1007  0.7623 -0.1336
  659TIP3    H2 1942   1.027   2.112   4.185  0.6775  0.1404  0.2201
  660TIP3   OH2 1943   7.084   5.339   4.416 -0.2748 -0.1745  0.1167
  660TIP3    H1 1944   7.001   5.295   4.438  1.0841 -2.8200  0.3926
  660TIP3    H2 1945   7.137   5.270   4.376  1.8538  1.4032  0.0866
  661TIP3   OH2 1946   6.050   3.572   2.119 -0.2228  0.0628 -0.5939
  661TIP3    H1 1947   6.107   3.646   2.098 -0.7914  1.7876  3.1862
  661TIP3    H2 1948   5.967   3.594   2.075  0.5169 -0.0575 -2.1429
  662TIP3   OH2 1949   2.403   1.450   5.580 -0.1850  0.1410 -0.0365
  662TIP3    H1 1950   2.382   1.418   5.492  0.7258 -1.8767  0.4132
  662TIP3    H2 1951   2.479   1.398   5.606  1.5145  2.8546  0.7807
  663TIP3   OH2 1952   0.363   2.178   4.395 -0.5976  0.2103 -0.3303
  663TIP3    H1 1953   0.281   2.134   4.371  0.1818 -1.8079  0.5331
  663TIP3    H2 1954   0.426   2.107   4.406  0.6079  1.5033  1.6074
  664TIP3   OH2 1955   5.887   2.020   0.308 -0.9108  0.0176 -1.0410
  664TIP3    H1 1956   5.928   1.947   0.354 -3.8561 -2.8976 -2.5443
  664TIP3    H2 1957   5.947   2.041   0.237  1.7436  1.8086  1.4970
  665TIP3   OH2 1958   0.020   5.576   2.194 -0.1167 -1.0276  0.5100
  665TIP3    H1 1959   0.107   5.544   2.171  0.5489  1.0990 -0.1937
  665TIP3    H2 1960  -0.018   5.603   2.111 -0.4896  0.2323  1.0622
  666TIP3   OH2 1961   5.022   0.833   3.138  0.2306  0.1240 -0.6106
  666TIP3    H1 1962   4.932   0.806   3.155  0.1066  0.8465 -0.0892
  666TIP3    H2 1963   5.014   0.898   3.068  0.2657  0.7575 -0.0328
  667TIP3   OH2 1964   3.598   5.265   0.764 -0.0747 -0.2570  0.0069
  667TIP3    H1 1965   3.679   5.286   0.811 -0.2034 -0.1871  0.1983
  667TIP3    H2 1966   3.536   5.332   0.793 -0.8876 -1.6371  1.6399
  668TIP3   OH2 1967   6.360   4.855   1.670 -0.1573 -0.1316 -0.1879
  668TIP3    H1 1968   6.325   4.943   1.684  0.6721  0.3089 -0.8637
  668TIP3    H2 1969   6.385   4.825   1.758  0.4283  0.6751 -0.0694
  669TIP3   OH2 1970   2.733   3.876   2.381  0.0859 -0.5349 -0.4203
  669TIP3    H1 1971   2.807   3.893   2.322  0.5695  0.9789  0.5752
  669TIP3    H2 1972   2.773   3.867   2.467 -0.8634 -0.1191  0.0708
  670TIP3   OH2 1973   6.689   6.699   0.831  0.1679  0.6413 -0.7986
  670TIP3    H1 1974   6.689   6.787   0.869 -2.9296  0.7001 -0.6654
  670TIP3    H2 1975   6.688   6.715   0.736 -0.7703  0.8070 -0.7744
  671TIP3   OH2 1976   1.234   0.204   5.217  0.2591  0.5134  0.0589
  671TIP3    H1 1977   1.321   0.245   5.220  0.7861 -0.4207 -1.5524
  671TIP3    H2 1978   1.247   0.124   5.167 -1.1390 -0.7151  1.5599
  672TIP3   OH2 1979   3.661   3.941   2.813 -0.0657 -0.1240  0.1604
  672TIP3    H1 1980   3.595   3.998   2.852  0.3186 -0.1038  0.7781
  672TIP3    H2 1981   3.657   3.961   2.719 -0.5229  0.3017  0.2668
  673TIP3   OH2 1982   2.345   4.472   1.255  0.0540  0.1701  0.2634
  673TIP3    H1 1983   2.298   4.399   1.296 -0.2736 -0.0830 -0.5459
  673TIP3    H2 1984   2.332   4.546   1.315 -1.2150  0.0561  0.1562
  674TIP3   OH2 1985   3.541   1.730   4.402 -0.1009 -0.0731 -0.6896
  674TIP3    H1 1986   3.565   1.709   4.312 -0.3788 -0.7419 -0.6175
  674TIP3    H2 1987   3.445   1.727   4.403 -0.1021  0.0245 -0.3983
  675TIP3   OH2 1988   0.135   0.652   0.133  0.1185 -0.1887 -0.5431
  675TIP3    H1 1989   0.193   0.577   0.128 -0.7029 -0.9070  0.3140
  675TIP3    H2 1990   0.049   0.615   0.153 -0.2754  0.9902  0.0368
  676TIP3   OH2 1991   3.953   0.856   0.829  0.9603  1.0124  0.4268
  676TIP3    H1 1992   4.043   0.887   0.825  1.4486 -0.2314  1.0024
  676TIP3    H2 1993   3.950   0.803   0.909 -0.5073  1.7095  0.8643
  677TIP3   OH2 1994   5.429   0.171   0.066  0.2325  0.0153  0.7349
  677TIP3    H1 1995   5.372   0.094   0.058  1.5325 -0.8858 -0.1490
  677TIP3    H2 1996   5.434   0.187   0.160 -1.8467  0.4246  0.8333
  678TIP3   OH2 1997   1.468   3.957   4.299  0.6440  0.1992  0.5894
  678TIP3    H1 1998   1.498   3.884   4.245 -0.0107 -0.3633  0.9710
  678TIP3    H2 1999   1.481   4.034   4.244  2.5033 -0.0364  0.6316
  679TIP3   OH2 2000   5.259   6.370   5.295 -0.7737  0.0509  0.1230
  679TIP3    H1 2001   5.223   6.358   5.207  1.0313 -1.6249 -0.4696
  679TIP3    H2 2002   5.208   6.441   5.333 -1.8255  0.5982 -2.1590
  680TIP3   OH2 2003   5.938  -0.027   3.831 -0.0577 -0.6810 -0.1741
  680TIP3    H1 2004   5.956   0.059   3.791 -2.0303 -0.0532  0.1929
  680TIP3    H2 2005   5.999  -0.031   3.905  0.4762  0.1394 -0.5451
  681TIP3   OH2 2006   6.529   2.319   3.624  0.2050  0.0627  0.1916
  681TIP3    H1 2007   6.534   2.225   3.640 -0.6832 -0.0354 -0.0364
  681TIP3    H2 2008   6.456   2.329   3.563 -0.7900  1.0445  1.4854
  682TIP3   OH2 2009   5.677   0.343   1.661  0.0886  0.1846 -0.4188
  682TIP3    H1 2010   5.707   0.408   1.725 -0.3585 -0.2669  0.2544
  682TIP3    H2 2011   5.758   0.302   1.629  0.3115  0.3798 -0.1137
  683TIP3   OH2 2012   5.941   1.615   4.645  0.0362 -0.2030 -0.0364
  683TIP3    H1 2013   6.025   1.657   4.626 -1.3408  3.1001  0.4264
  683TIP3    H2 2014   5.898   1.610   4.560  0.6091 -1.7907 -0.2563
  684TIP3   OH2 2015   4.857   6.358   4.698  0.3304 -0.0289 -0.0594
  684TIP3    H1 2016   4.836   6.440   4.743 -0.4474  0.1421 -0.7234
  684TIP3    H2 2017   4.781   6.303   4.711 -0.3934  0.4126 -2.0514
  685TIP3   OH2 2018   3.864   2.848   1.034 -0.1030 -0.1808  0.0287
  685TIP3    H1 2019   3.863   2.940   1.057 -1.0721  0.3690 -2.0034
  685TIP3    H2 2020   3.792   2.809   1.083 -0.5092  0.4233 -0.0864
  686TIP3   OH2 2021   6.117   6.721   0.369  0.4788  0.5755  0.2960
  686TIP3    H1 2022   6.111   6.626   0.376  2.6832  0.5277  3.4149
  686TIP3    H2 2023   6.031   6.753   0.396  0.3370 -0.5225  1.2110
  687TIP3   OH2 2024   2.857   3.969   5.792  0.0993  0.0546 -0.1038
  687TIP3    H1 2025   2.800   3.903   5.831 -0.0361 -0.2687 -0.8354
  687TIP3    H2 2026   2.944   3.930   5.794  0.0468 -0.0770 -0.3807
  688TIP3   OH2 2027   4.673   0.911   1.137 -0.7136 -0.2202 -0.2655
  688TIP3    H1 2028   4.667   0.973   1.209 -0.1321 -1.4188  0.8680
  688TIP3    H2 2029   4.590   0.863   1.139 -0.1874 -1.1398  0.4861
  689TIP3   OH2 2030   1.141   4.479   5.115 -0.5857  0.0224 -0.4575
  689TIP3    H1 2031   1.072   4.482   5.181 -0.3775  0.0154 -0.2356
  689TIP3    H2 2032   1.198   4.553   5.137  0.0751 -0.6150  0.0306
  690TIP3   OH2 2033   1.814   4.145   0.499  0.7586 -0.4615 -0.2360
  690TIP3    H1 2034   1.811   4.197   0.418  0.6258  0.1429  0.1502
  690TIP3    H2 2035   1.814   4.054   0.469 -0.4115 -0.2645 -0.8998
  691TIP3   OH2 2036   1.039   4.244   1.418  0.2848 -0.1742 -0.4550
  691TIP3    H1 2037   0.970   4.207   1.473  1.2505  1.5527  2.1289
  691TIP3    H2 2038   0.994   4.308   1.363 -0.4654 -0.6600 -0.4179
  692TIP3   OH2 2039   2.713   0.731   0.538  0.7990 -0.4146 -0.0001
  692TIP3    H1 2040   2.726   0.755   0.446  0.2647 -3.1964 -0.8948
  692TIP3    H2 2041   2.792   0.681   0.561  0.2023 -1.1272  0.5301
  693TIP3   OH2 2042   1.551   3.204   0.333 -0.4239  0.0834 -0.1557
  693TIP3    H1 2043   1.569   3.121   0.378  0.1799 -0.0043 -0.5620
  693TIP3    H2 2044   1.533   3.179   0.243 -1.7770  0.2493  0.0475
  694TIP3   OH2 2045   4.785   2.988   5.378 -1.0154 -0.0125 -0.0988
  694TIP3    H1 2046   4.800   3.065   5.434 -0.4727  0.6528 -1.1191
  694TIP3    H2 2047   4.690   2.985   5.367 -1.0289  0.6379 -0.2074
  695TIP3   OH2 2048   1.636   0.739   1.703 -0.2187  0.1730 -0.1526
  695TIP3    H1 2049   1.687   0.788   1.767 -0.9043 -0.0005  0.5480
  695TIP3    H2 2050   1.678   0.654   1.698  0.3633  0.4822 -0.5988
  696TIP3   OH2 2051   2.327   3.155   0.290 -0.2509  0.0538 -0.0606
  696TIP3    H1 2052   2.355   3.243   0.267 -0.4134 -0.2332 -1.4724
  696TIP3    H2 2053   2.319   3.110   0.206 -2.3889 -0.6286  0.4494
  697TIP3   OH2 2054   2.188   4.601   3.267 -0.0312 -0.1652 -0.5715
  697TIP3    H1 2055   2.260   4.558   3.313 -0.9074 -0.3489  0.7023
  697TIP3    H2 2056   2.110   4.572   3.315 -0.6338  3.5517  1.0287
  698TIP3   OH2 2057   2.294   0.456   4.149 -0.1036 -0.5431 -0.4976
  698TIP3    H1 2058   2.243   0.443   4.068 -1.0965 -0.1285  0.0426
  698TIP3    H2 2059   2.332   0.543   4.139 -1.6027  0.2303  0.1790
  699TIP3   OH2 2060   3.617   0.357   3.930 -0.0774 -0.3338 -0.0422
  699TIP3    H1 2061   3.579   0.330   3.847  0.5389  0.2614 -0.5245
  699TIP3    H2 2062   3.696   0.303   3.939  0.1534 -0.0074 -0.1091
  700TIP3   OH2 2063   5.752   6.736   5.789  0.0209  0.3513 -0.0984
  700TIP3    H1 2064   5.672   6.685   5.780 -1.2179  1.5005  3.0858
  700TIP3    H2 2065   5.756   6.788   5.708 -1.5080 -0.9240 -1.0567
  701TIP3   OH2 2066   0.968   5.783   0.990  0.4968 -0.5311  0.1075
  701TIP3    H1 2067   0.899   5.783   0.925 -0.1772  2.0994  0.7227
  701TIP3    H2 2068   0.929   5.741   1.067  0.5143 -1.4448 -0.3590
  702TIP3   OH2 2069   5.046   1.472   0.767  0.1197  0.1690  0.1200
  702TIP3    H1 2070   5.078   1.518   0.844  1.6985 -0.4087 -0.1643
  702TIP3    H2 2071   5.050   1.379   0.791 -1.7233  0.0743  0.1999
  703TIP3   OH2 2072   2.512   1.736   0.042  0.3023 -0.2242 -0.9441
  703TIP3    H1 2073   2.490   1.694   0.125 -0.6918  1.0278 -0.5467
  703TIP3    H2 2074   2.435   1.720  -0.013  0.5532 -0.2093 -1.3057
  704TIP3   OH2 2075   2.964   2.496   0.253 -0.3432  0.0636  0.2742
  704TIP3    H1 2076   2.894   2.438   0.224  1.2478 -2.0933  0.4929
  704TIP3    H2 2077   3.020   2.506   0.176  0.5496 -0.5351  0.8259
  705TIP3   OH2 2078   0.606   2.895   5.117 -0.1258 -0.1938 -0.1946
  705TIP3    H1 2079   0.560   2.922   5.038 -2.2215 -0.2788  0.9378
  705TIP3    H2 2080   0.646   2.811   5.093 -1.2270 -0.5107 -0.9807
  706TIP3   OH2 2081   6.305   3.820   2.951 -0.3294  0.7149  0.0127
  706TIP3    H1 2082   6.291   3.885   2.883 -0.0924 -1.6165 -2.4330
  706TIP3    H2 2083   6.218   3.784   2.969 -0.0086 -1.3058 -1.9961
  707TIP3   OH2 2084   1.830   6.345   1.809  0.2430  0.4150 -0.5504
  707TIP3    H1 2085   1.771   6.274   1.836 -0.4789  1.2791  0.1846
  707TIP3    H2 2086   1.815   6.355   1.716 -1.1973  0.9878 -0.2758
  708TIP3   OH2 2087   2.462   1.227   0.149 -0.1373 -0.2605  0.5809
  708TIP3    H1 2088   2.537   1.237   0.091 -0.3529 -1.0977  0.1489
  708TIP3    H2 2089   2.488   1.159   0.211 -0.8029 -1.1037 -0.0321
  709TIP3   OH2 2090   3.293   0.381   4.500 -0.4431  0.3242 -0.1982
  709TIP3    H1 2091   3.201   0.381   4.525 -0.3898  2.5419  0.1154
  709TIP3    H2 2092   3.292   0.369   4.405 -1.1940  2.3718 -0.4855
  710TIP3   OH2 2093   4.631   1.039   4.190  0.1026 -0.0148 -0.2848
  710TIP3    H1 2094   4.545   1.058   4.154  0.7002  0.6374 -1.4328
  710TIP3    H2 2095   4.613   0.991   4.272 -1.4109  2.4498  0.9503
  711TIP3   OH2 2096   0.279   6.254   0.620 -0.1692 -0.1264  0.3993
  711TIP3    H1 2097   0.196   6.294   0.594 -0.4986 -1.3786 -0.6187
  711TIP3    H2 2098   0.263   6.220   0.708 -0.5155  0.2431  0.4807
  712TIP3   OH2 2099   3.036   0.834   3.677 -0.5236  0.0272 -0.3295
  712TIP3    H1 2100   3.098   0.809   3.609  0.5252  1.2310  0.1355
  712TIP3    H2 2101   2.959   0.780   3.661 -0.8215  1.2032 -3.2786
  713TIP3   OH2 2102   5.019   2.263   1.213 -0.3881 -0.3155 -0.7463
  713TIP3    H1 2103   5.040   2.245   1.304 -1.6960 -1.8104 -0.6850
  713TIP3    H2 2104   5.104   2.265   1.169  0.3560  1.6745  0.6510
  714TIP3   OH2 2105   0.622   1.037   0.500 -0.0390 -0.0156  0.2631
  714TIP3    H1 2106   0.537   1.011   0.463  0.2247  0.5754 -0.7857
  714TIP3    H2 2107   0.630   1.130   0.479  1.4756 -0.3646 -0.8534
  715TIP3   OH2 2108   0.271   1.627   4.967  0.1112  0.1438 -0.1538
  715TIP3    H1 2109   0.360   1.653   4.943 -0.1496  0.4465 -0.8115
  715TIP3    H2 2110   0.239   1.580   4.891 -0.7706  1.1994 -0.4556
  716TIP3   OH2 2111   3.336   5.886   1.587 -0.3949  0.0208  0.1094
  716TIP3    H1 2112   3.424   5.849   1.580 -0.1906  0.5496 -0.1834
  716TIP3    H2 2113   3.320   5.894   1.681 -0.3204 -0.5259  0.1700
  717TIP3   OH2 2114   0.043   3.630   0.612 -0.5653 -0.0316  0.3635
  717TIP3    H1 2115  -0.021   3.689   0.572 -2.0523 -2.0627 -0.4531
  717TIP3    H2 2116   0.011   3.618   0.702 -1.1333 -0.7055  0.0852
  718TIP3   OH2 2117   6.710   2.340   2.694 -0.3256 -0.1639 -0.3736
  718TIP3    H1 2118   6.677   2.429   2.706  0.4435  0.2746 -1.3923
  718TIP3    H2 2119   6.633   2.284   2.707 -0.5147  0.5056  1.8281
  719TIP3   OH2 2120   6.515   5.452   4.750  0.3179  0.3514 -0.2086
  719TIP3    H1 2121   6.489   5.367   4.785  0.9589 -0.0584 -0.7090
  719TIP3    H2 2122   6.503   5.513   4.823 -3.2587  0.4539 -0.7168
  720TIP3   OH2 2123   7.106   1.924   2.790  0.0474  0.1930 -0.0203
  720TIP3    H1 2124   7.019   1.889   2.771  0.7622 -1.2328 -0.9004
  720TIP3    H2 2125   7.131   1.972   2.712  0.5274 -0.4463 -0.2703
  721TIP3   OH2 2126   6.149   6.310   5.425 -0.1211 -0.0329  0.1133
  721TIP3    H1 2127   6.169   6.403   5.438  1.5058 -0.3811  0.2520
  721TIP3    H2 2128   6.071   6.310   5.369 -0.5185  1.4045  0.6221
  722TIP3   OH2 2129   6.230   2.999   2.683 -0.3757 -0.1671 -0.0466
  722TIP3    H1 2130   6.195   2.934   2.623 -0.3725  0.6677 -0.9755
  722TIP3    H2 2131   6.234   3.080   2.632 -1.9698  1.0002  1.5417
  723TIP3   OH2 2132   4.268   3.499   0.058 -0.8157 -0.6728 -0.5220
  723TIP3    H1 2133   4.297   3.487  -0.032  0.2209 -0.2980 -0.2497
  723TIP3    H2 2134   4.239   3.412   0.086  2.3952 -1.6975 -0.0198
  724TIP3   OH2 2135   2.122   2.358   4.315 -0.0152  0.1409 -0.2362
  724TIP3    H1 2136   2.103   2.444   4.277  1.9296  0.2701 -1.0372
  724TIP3    H2 2137   2.107   2.296   4.244  1.9620  0.2089 -0.7620
  725TIP3   OH2 2138   4.863   0.062   0.752  0.5216 -1.0878  0.5529
  725TIP3    H1 2139   4.838  -0.003   0.819  0.2721  1.1119  2.7373
  725TIP3    H2 2140   4.780   0.082   0.708  0.4478 -1.6104  0.4382
  726TIP3   OH2 2141   5.941   4.426   1.832 -0.0245  0.0594 -0.5863
  726TIP3    H1 2142   5.969   4.424   1.923 -2.1501  1.4606  0.1802
  726TIP3    H2 2143   5.942   4.520   1.809  0.0310 -0.2295 -1.8659
  727TIP3   OH2 2144   5.392   1.369   2.049  0.7004 -0.2450  0.1448
  727TIP3    H1 2145   5.487   1.363   2.035  0.6247 -1.2282 -0.0080
  727TIP3    H2 2146   5.382   1.442   2.109  1.7482 -1.3726  1.7932
  728TIP3   OH2 2147   0.437   6.269   2.825  0.3259 -0.4481  0.1559
  728TIP3    H1 2148   0.409   6.289   2.736 -1.1728  1.4331  0.9714
  728TIP3    H2 2149   0.529   6.242   2.816 -0.1738 -1.6821 -2.0607
  729TIP3   OH2 2150   4.249   6.648   3.816 -0.0734  0.0310  0.2273
  729TIP3    H1 2151   4.281   6.662   3.905  1.0926  2.4507 -0.4912
  729TIP3    H2 2152   4.310   6.695   3.761 -0.6285 -1.6105 -1.9231
  730TIP3   OH2 2153   1.878   6.717   2.544  0.2442 -0.8035 -0.7187
  730TIP3    H1 2154   1.942   6.647   2.541  0.8107 -0.4061  1.0871
  730TIP3    H2 2155   1.860   6.737   2.452  0.9401 -2.4958 -1.2518
  731TIP3   OH2 2156   5.649   2.493   0.808 -0.0066 -0.0485  0.0066
  731TIP3    H1 2157   5.735   2.515   0.774 -0.9087  0.3404 -2.1641
  731TIP3    H2 2158   5.598   2.573   0.799 -0.4958 -0.1249  1.7360
  732TIP3   OH2 2159   2.407   3.953   5.475 -0.1908 -0.7836 -0.0284
  732TIP3    H1 2160   2.486   3.900   5.482 -2.0449 -3.5788  2.6740
  732TIP3    H2 2161   2.390   3.982   5.565  0.2224  3.9959 -1.2126
  733TIP3   OH2 2162   1.622   0.611   2.868 -0.2924  0.5408  0.1232
  733TIP3    H1 2163   1.594   0.673   2.936 -0.9407  2.4068 -1.7337
  733TIP3    H2 2164   1.701   0.570   2.904 -0.0091  2.2362  1.5691
  734TIP3   OH2 2165   0.614   1.076   4.252 -0.4182  0.4936  0.2024
  734TIP3    H1 2166   0.706   1.095   4.274 -0.5643  1.5537 -0.0387
  734TIP3    H2 2167   0.606   0.981   4.262  0.1491  0.6242  2.3168
  735TIP3   OH2 2168   3.590   0.353   3.262  0.1608 -0.0447 -0.0307
  735TIP3    H1 2169   3.614   0.439   3.227  0.3050  1.1388  2.7560
  735TIP3    H2 2170   3.666   0.298   3.245  1.4476  1.3193  1.0600
  736TIP3   OH2 2171   3.364   0.534   3.106 -0.0419  0.3463 -0.1053
  736TIP3    H1 2172   3.459   0.520   3.106  0.1019  1.2321  0.4281
  736TIP3    H2 2173   3.352   0.612   3.051 -0.2437  1.4369  1.4232
  737TIP3   OH2 2174   1.054   2.909   4.006 -0.1971 -0.2918  0.3375
  737TIP3    H1 2175   1.122   2.966   4.042 -0.5224  0.8389 -0.7519
  737TIP3    H2 2176   1.100   2.854   3.943  0.2797 -1.9168  2.0235
  738TIP3   OH2 2177   0.293   2.242   4.794  0.0304 -0.1470 -0.1009
  738TIP3    H1 2178   0.313   2.150   4.811  0.8209  0.4523  2.8671
  738TIP3    H2 2179   0.340   2.263   4.714  1.6555 -1.7932  0.3544
  739TIP3   OH2 2180   0.564   1.944   0.247 -0.2276 -0.1820  0.0124
  739TIP3    H1 2181   0.568   2.038   0.260  0.5901 -0.1479 -0.4858
  739TIP3    H2 2182   0.654   1.917   0.229  0.2895 -1.5984  3.7205
  740TIP3   OH2 2183   0.040   2.026   3.189 -0.1406  0.7793 -0.0395
  740TIP3    H1 2184   0.128   2.015   3.224 -0.2706  0.7808  0.2991
  740TIP3    H2 2185   0.043   1.988   3.102  0.3195  1.2094 -0.2149
  741TIP3   OH2 2186   3.233   1.298   3.167 -0.1032  0.2234 -0.0257
  741TIP3    H1 2187   3.187   1.359   3.108 -1.2438 -1.5541 -1.0591
  741TIP3    H2 2188   3.163   1.256   3.217  0.5800 -0.8639  0.0471
  742TIP3   OH2 2189   1.382   0.603   2.510 -0.3050 -0.6913 -0.2996
  742TIP3    H1 2190   1.437   0.648   2.446 -1.1855 -0.8195 -1.1769
  742TIP3    H2 2191   1.348   0.673   2.566 -2.3275 -0.0734 -2.1621
  743TIP3   OH2 2192   6.613   2.691   5.331 -0.2151  0.3018 -0.1829
  743TIP3    H1 2193   6.593   2.657   5.419  0.7687 -2.6206 -0.9720
  743TIP3    H2 2194   6.531   2.729   5.301 -0.9311  0.1871  1.5184
  744TIP3   OH2 2195   6.337   4.131   5.514  0.1231 -0.1004 -0.4318
  744TIP3    H1 2196   6.268   4.164   5.457 -2.4682 -0.4329  2.2427
  744TIP3    H2 2197   6.380   4.209   5.548 -0.7205  0.2354 -0.1188
  745TIP3   OH2 2198   6.989   6.123   4.421  0.4219 -0.3572 -0.2865
  745TIP3    H1 2199   7.024   6.212   4.423  0.5168 -0.3606 -1.2177
  745TIP3    H2 2200   6.894   6.135   4.430  0.5796 -0.3062  1.5637
  746TIP3   OH2 2201   3.189   0.464   1.583  0.0068 -0.0788  0.1882
  746TIP3    H1 2202   3.281   0.443   1.568 -0.1085 -1.0425  0.7738
  746TIP3    H2 2203   3.188   0.509   1.667  0.0723  1.0196 -0.3770
  747TIP3   OH2 2204   6.720   4.461   0.627  0.2445  0.0006 -0.3964
  747TIP3    H1 2205   6.643   4.494   0.582  0.2013 -0.1700 -0.4477
  747TIP3    H2 2206   6.794   4.491   0.574  0.2671  0.9777  0.1629
  748TIP3   OH2 2207   5.748   5.632   1.213 -0.3228 -0.0183 -0.6186
  748TIP3    H1 2208   5.766   5.545   1.178 -0.2112  0.2478 -1.2325
  748TIP3    H2 2209   5.693   5.673   1.146 -1.1562  0.0577  0.0890
  749TIP3   OH2 2210   5.210   3.179   2.588  0.0244  0.0402 -0.4619
  749TIP3    H1 2211   5.186   3.262   2.548  2.5691 -0.2116 -2.7669
  749TIP3    H2 2212   5.270   3.202   2.659 -1.6839  0.2473  1.0161
  750TIP3   OH2 2213   1.134   4.857   5.885 -0.2847 -0.1274 -0.3796
  750TIP3    H1 2214   1.133   4.762   5.897  1.5282  0.0739  2.0910
  750TIP3    H2 2215   1.176   4.871   5.800  0.9062 -1.5331 -0.0544
  751TIP3   OH2 2216   5.045   3.982   0.316  0.2100  0.2501  0.2170
  751TIP3    H1 2217   5.105   4.031   0.259 -1.0669  0.5074 -0.9814
  751TIP3    H2 2218   5.062   3.890   0.296 -0.7338  0.3488 -1.1962
  752TIP3   OH2 2219   2.594   3.064   1.381 -0.4537 -0.1299  0.0308
  752TIP3    H1 2220   2.587   3.094   1.472  2.7101 -0.4925  0.4945
  752TIP3    H2 2221   2.637   3.136   1.336  1.4358 -1.4043 -0.2816
  753TIP3   OH2 2222   4.471   6.805   4.814  0.1705 -0.5460 -0.4592
  753TIP3    H1 2223   4.458   6.860   4.737  0.4013  0.3213  0.1024
  753TIP3    H2 2224   4.416   6.728   4.798 -0.7825  0.2032 -0.9184
  754TIP3   OH2 2225   6.059   0.295   2.533  0.1512  0.8083  0.0548
  754TIP3    H1 2226   6.044   0.331   2.446  1.2303  1.7429  0.2293
  754TIP3    H2 2227   6.047   0.200   2.523  0.4997  0.8762 -1.1652
  755TIP3   OH2 2228   6.402   1.890   3.860 -0.2026 -0.1055 -0.3402
  755TIP3    H1 2229   6.465   1.959   3.843  0.4943  0.3152  3.1346
  755TIP3    H2 2230   6.447   1.809   3.839  0.9760  0.2849  0.5713
  756TIP3   OH2 2231   3.194   0.232   1.880 -0.4640 -0.1365 -0.0950
  756TIP3    H1 2232   3.164   0.322   1.886 -0.1658 -0.1046  1.1560
  756TIP3    H2 2233   3.118   0.183   1.850 -0.8230  0.4318 -0.1208
  757TIP3   OH2 2234   6.612   4.317   0.100 -0.2114 -0.1532 -0.1833
  757TIP3    H1 2235   6.555   4.300   0.175 -0.5893 -1.0799 -0.6663
  757TIP3    H2 2236   6.571   4.271   0.027  0.3996  0.3460 -0.8671
  758TIP3   OH2 2237   1.308   1.384   1.843  0.4010 -0.1511  0.1239
  758TIP3    H1 2238   1.287   1.393   1.750 -1.3213 -1.9378  0.2580
  758TIP3    H2 2239   1.390   1.335   1.845  0.5064 -0.0046 -0.4452
  759TIP3   OH2 2240   3.313   1.659   4.668  0.3395 -0.2316 -0.8211
  759TIP3    H1 2241   3.308   1.743   4.714  1.6944 -0.3304 -0.4497
  759TIP3    H2 2242   3.376   1.608   4.719  4.0704  0.5876 -4.0802
  760TIP3   OH2 2243   1.328   5.939   1.349 -0.0393 -0.2369  0.2874
  760TIP3    H1 2244   1.254   5.984   1.310 -0.2983 -1.0381 -0.1705
  760TIP3    H2 2245   1.389   6.009   1.374 -0.9802  0.4325  0.7530
  761TIP3   OH2 2246   7.139   1.159   1.759  0.1748  0.2103  0.3005
  761TIP3    H1 2247   7.225   1.189   1.786  1.2791 -1.5426 -1.0467
  761TIP3    H2 2248   7.148   1.064   1.748 -1.7315  0.0673 -0.5322
  762TIP3   OH2 2249   2.159   1.020   4.404 -0.3003 -0.1025  0.0245
  762TIP3    H1 2250   2.183   0.972   4.483  0.0631 -1.2284 -0.7489
  762TIP3    H2 2251   2.241   1.062   4.376  0.6370 -2.8974 -1.8918
  763TIP3   OH2 2252   6.486   6.663   2.567  0.1882 -0.3919 -0.0881
  763TIP3    H1 2253   6.414   6.619   2.522 -0.6287 -0.0010  0.8315
  763TIP3    H2 2254   6.471   6.756   2.551  0.9478 -0.3314 -0.5543
  764TIP3   OH2 2255   4.556   4.707   0.780  0.3683 -0.0674 -0.4112
  764TIP3    H1 2256   4.602   4.759   0.845 -0.4911 -0.4552  0.5392
  764TIP3    H2 2257   4.463   4.726   0.796  0.1528  0.0038 -1.6696
  765TIP3   OH2 2258   0.321   1.387   4.460  0.1435  0.3049 -0.1695
  765TIP3    H1 2259   0.274   1.434   4.391 -1.8014 -1.5513 -0.2129
  765TIP3    H2 2260   0.412   1.386   4.430 -0.4943  0.2839 -2.3092
  766TIP3   OH2 2261   6.858   2.524   5.549  0.0649 -0.2603  0.0108
  766TIP3    H1 2262   6.898   2.445   5.512 -0.7065 -0.2769 -0.8202
  766TIP3    H2 2263   6.765   2.502   5.557 -0.2173  0.6874 -0.5742
  767TIP3   OH2 2264   1.140   2.856   2.092 -0.3816  0.7693  0.3888
  767TIP3    H1 2265   1.230   2.866   2.062 -1.1131  1.3696 -1.7994
  767TIP3    H2 2266   1.105   2.945   2.092 -0.9725  0.5560  1.3093
  768TIP3   OH2 2267   2.077   3.321   3.216  0.2839  0.5529 -0.3701
  768TIP3    H1 2268   2.042   3.386   3.153  1.1370  0.1993 -1.2324
  768TIP3    H2 2269   2.171   3.337   3.217  0.2080  1.1597  1.5601
  769TIP3   OH2 2270   4.958   3.570   5.426 -0.4965  0.2767 -0.4280
  769TIP3    H1 2271   4.925   3.632   5.361 -0.9425  0.6639  0.1633
  769TIP3    H2 2272   4.889   3.504   5.433 -0.9573  0.8446  0.4796
  770TIP3   OH2 2273   4.497   2.547   4.901 -0.1775 -0.2260 -0.3809
  770TIP3    H1 2274   4.591   2.528   4.901  0.0346  0.6637  0.8288
  770TIP3    H2 2275   4.457   2.475   4.949  0.2486  0.7080  1.4826
  771TIP3   OH2 2276   5.635   0.111   3.921 -0.1388 -0.2104  0.0440
  771TIP3    H1 2277   5.601   0.097   3.832  0.0751  1.0284 -0.2524
  771TIP3    H2 2278   5.558   0.106   3.977 -0.4873  0.3960 -0.3738
  772TIP3   OH2 2279   2.229   6.471   0.512 -0.1021  0.1740  0.1121
  772TIP3    H1 2280   2.194   6.476   0.601 -1.9687 -0.5561 -0.5276
  772TIP3    H2 2281   2.271   6.556   0.497 -2.2021  1.3786  0.7335
  773TIP3   OH2 2282   5.141   5.076   5.775 -0.1739 -0.0382  0.0894
  773TIP3    H1 2283   5.221   5.066   5.826  0.2224 -1.6637 -0.7882
  773TIP3    H2 2284   5.072   5.084   5.841  0.5023 -0.4751  0.8766
  774TIP3   OH2 2285   0.688   4.853   0.564 -0.2065  0.3407  0.1878
  774TIP3    H1 2286   0.642   4.833   0.646  0.9718 -2.3730  0.2947
  774TIP3    H2 2287   0.622   4.892   0.508 -1.2701  1.4316  2.0988
  775TIP3   OH2 2288   2.154   0.256   5.400 -0.1057 -0.8606  0.1508
  775TIP3    H1 2289   2.122   0.165   5.403  0.8827 -1.2057  1.3636
  775TIP3    H2 2290   2.242   0.249   5.363 -1.4310  0.1280 -3.5245
  776TIP3   OH2 2291   3.202   0.260   5.800 -0.0720  0.2240  0.0774
  776TIP3    H1 2292   3.124   0.316   5.799  1.2598  2.1704 -0.0003
  776TIP3    H2 2293   3.252   0.291   5.876  0.9478 -0.5403 -0.2690
  777TIP3   OH2 2294   6.189   2.671   0.999 -0.4593  0.5784 -0.2936
  777TIP3    H1 2295   6.212   2.747   0.945  0.7290 -1.3383 -2.6868
  777TIP3    H2 2296   6.259   2.666   1.063  0.3035  0.6405 -1.1012
  778TIP3   OH2 2297   4.942   0.161   4.750  0.0784  0.3440  0.1532
  778TIP3    H1 2298   4.914   0.105   4.678 -1.4604  0.2925  0.7394
  778TIP3    H2 2299   5.027   0.126   4.777 -0.1690 -0.7637 -0.4719
  779TIP3   OH2 2300   0.459   2.731   4.073  0.3090  0.0485  0.1101
  779TIP3    H1 2301   0.434   2.665   4.138 -0.0573  0.8382  0.7920
  779TIP3    H2 2302   0.378   2.782   4.059  0.2147 -0.4624 -1.4051
  780TIP3   OH2 2303   0.918   0.692   1.650  0.3390  0.1073  0.0484
  780TIP3    H1 2304   0.889   0.646   1.729  0.6859  2.2545  1.5018
  780TIP3    H2 2305   0.839   0.698   1.596 -0.1837 -0.3763  0.7313
  781TIP3   OH2 2306   0.970   3.560   1.792  0.4185  0.2471  0.0563
  781TIP3    H1 2307   0.952   3.477   1.750  0.4760 -0.0439  0.5971
  781TIP3    H2 2308   1.050   3.592   1.751 -0.8874  1.2496 -1.9362
  782TIP3   OH2 2309   4.551   2.101   0.712  0.2073  0.2036 -0.0460
  782TIP3    H1 2310   4.580   2.055   0.633  0.0800 -2.4158  1.3093
  782TIP3    H2 2311   4.461   2.072   0.725  0.4455 -0.0006  1.3997
  783TIP3   OH2 2312   2.949   0.700   3.355 -0.4474  0.2451  0.3712
  783TIP3    H1 2313   2.900   0.778   3.382 -0.1965 -0.1604  2.1399
  783TIP3    H2 2314   2.945   0.701   3.260 -2.2796  1.2554  0.4096
  784TIP3   OH2 2315   0.431   0.704   2.232 -0.3784 -0.3667 -0.2204
  784TIP3    H1 2316   0.459   0.635   2.172  0.3096 -1.1099  0.9132
  784TIP3    H2 2317   0.503   0.768   2.230 -1.7570  1.2671 -2.5803
  785TIP3   OH2 2318   3.759   2.544   3.604  0.0379  0.0388  0.4316
  785TIP3    H1 2319   3.723   2.456   3.608 -2.2966  0.8332 -0.8266
  785TIP3    H2 2320   3.692   2.600   3.644  0.6412  1.4205 -0.3859
  786TIP3   OH2 2321   3.465   6.699   1.283  0.2670  0.1033  0.2970
  786TIP3    H1 2322   3.379   6.739   1.292  0.2148  0.6060 -1.9233
  786TIP3    H2 2323   3.497   6.727   1.197  1.6266 -1.9686  0.0233
  787TIP3   OH2 2324   2.987   2.401   1.499 -0.2681 -0.1037  0.0541
  787TIP3    H1 2325   2.934   2.466   1.454  0.7481  0.9442  0.3253
  787TIP3    H2 2326   3.047   2.452   1.553  2.2993 -1.1414 -1.6218
  788TIP3   OH2 2327   2.170   0.686   3.168 -0.0873 -0.6167 -0.4377
  788TIP3    H1 2328   2.259   0.707   3.140  0.3095 -2.6246 -0.8357
  788TIP3    H2 2329   2.118   0.687   3.088 -0.2342 -0.4192 -0.3436
  789TIP3   OH2 2330   6.011   1.955   1.107  0.9013 -0.0722  0.1964
  789TIP3    H1 2331   5.961   1.995   1.036 -0.9577  0.9387  1.9475
  789TIP3    H2 2332   6.079   2.020   1.128 -1.6627  2.1259  2.5487
  790TIP3   OH2 2333   6.423   6.397   5.178  0.5179  0.5118 -0.2509
  790TIP3    H1 2334   6.352   6.336   5.198 -0.2373  1.7268  0.9457
  790TIP3    H2 2335   6.402   6.429   5.090 -0.5512  1.0197  0.1774
  791TIP3   OH2 2336   6.191   5.016   4.472 -0.6749 -0.3415 -0.4886
  791TIP3    H1 2337   6.250   5.085   4.502  1.3556 -1.9199 -0.6323
  791TIP3    H2 2338   6.179   5.034   4.379 -0.4516  0.0167 -0.4520
  792TIP3   OH2 2339   6.863   1.726   3.783  0.0149 -0.5219  0.3302
  792TIP3    H1 2340   6.922   1.782   3.833 -0.2048  0.2131 -0.2057
  792TIP3    H2 2341   6.890   1.739   3.692 -1.8131  0.8666 -0.0582
  793TIP3   OH2 2342   4.864   6.184   4.296 -0.3953  0.7183  0.4626
  793TIP3    H1 2343   4.885   6.195   4.389 -2.3097 -0.2449  1.0625
  793TIP3    H2 2344   4.852   6.090   4.284 -1.8085  0.9679 -0.3443
  794TIP3   OH2 2345   4.889   1.677   0.458 -1.2269 -0.2252  0.3247
  794TIP3    H1 2346   4.902   1.742   0.526  0.8223  1.9898 -1.9320
  794TIP3    H2 2347   4.808   1.702   0.415 -0.6507  0.6667 -0.2810
  795TIP3   OH2 2348   4.589   0.585   0.687  0.1478  0.3546 -0.0446
  795TIP3    H1 2349   4.646   0.639   0.633 -0.2915  0.6651 -0.2061
  795TIP3    H2 2350   4.640   0.505   0.704  0.6346  0.6368 -0.1596
  796TIP3   OH2 2351   3.641   2.115   0.382 -0.7769  0.1942 -0.2082
  796TIP3    H1 2352   3.629   2.087   0.473  1.2499  0.9359  0.3492
  796TIP3    H2 2353   3.590   2.196   0.375  0.2620  0.9680  0.7706
  797TIP3   OH2 2354   5.883   3.271   4.060 -0.8146  0.0843  0.2290
  797TIP3    H1 2355   5.915   3.356   4.091  0.1949  0.0880 -0.7784
  797TIP3    H2 2356   5.962   3.221   4.039 -1.3327 -1.5625  1.8676
  798TIP3   OH2 2357   6.389   0.388   4.294  0.2526  0.2271 -0.1125
  798TIP3    H1 2358   6.390   0.382   4.389  2.0101 -0.0127 -0.1000
  798TIP3    H2 2359   6.328   0.320   4.266  1.3063 -1.1672  0.8055
  799TIP3   OH2 2360   2.957   6.317   3.380  0.2442  0.0959 -0.1207
  799TIP3    H1 2361   2.945   6.262   3.457  0.0909 -0.8021 -0.7664
  799TIP3    H2 2362   2.992   6.258   3.313 -0.3923  0.6562 -0.9784
  800TIP3   OH2 2363   3.517   6.256   0.947 -0.8302 -0.2295 -0.0918
  800TIP3    H1 2364   3.452   6.324   0.965 -0.1095  0.6245 -0.6350
  800TIP3    H2 2365   3.592   6.303   0.910 -0.1807 -1.2804 -0.1656
  801TIP3   OH2 2366   5.650   5.595   0.465 -0.0054 -0.2972  0.9867
  801TIP3    H1 2367   5.657   5.499   0.466  0.5093 -0.2821 -0.1344
  801TIP3    H2 2368   5.564   5.612   0.503 -0.7535 -1.2845 -0.1824
  802TIP3   OH2 2369   5.536   4.402   0.997  0.1683  0.1487  0.3557
  802TIP3    H1 2370   5.619   4.438   1.027 -0.4549  1.1268  0.9596
  802TIP3    H2 2371   5.483   4.393   1.077 -0.8886  1.1355 -0.1900
  803TIP3   OH2 2372   1.746   4.642   1.076  0.2974 -0.5886 -0.2395
  803TIP3    H1 2373   1.833   4.669   1.106  0.1379 -1.2190  0.8358
  803TIP3    H2 2374   1.686   4.701   1.121  0.0599 -1.4763  0.6384
  804TIP3   OH2 2375   3.277   6.505   0.135 -0.4191 -0.1797 -0.2937
  804TIP3    H1 2376   3.357   6.517   0.186  0.2926  0.4450 -1.5101
  804TIP3    H2 2377   3.288   6.420   0.092 -0.7678 -0.4496  0.1403
  805TIP3   OH2 2378   3.066   0.983   5.208  0.3534 -0.1811 -0.7655
  805TIP3    H1 2379   3.141   0.941   5.166  0.1653 -0.4425 -0.8431
  805TIP3    H2 2380   3.023   1.032   5.138  0.2808 -0.2735 -0.7853
  806TIP3   OH2 2381   3.429   4.211   2.419 -0.7628 -0.3554  0.5234
  806TIP3    H1 2382   3.367   4.154   2.466 -0.3103 -1.9554 -0.7354
  806TIP3    H2 2383   3.469   4.154   2.354  0.0909  1.3179 -0.4748
  807TIP3   OH2 2384   5.150   1.486   0.528  0.1177  0.5791 -0.5548
  807TIP3    H1 2385   5.100   1.500   0.608 -2.3952  1.2643 -2.1541
  807TIP3    H2 2386   5.174   1.574   0.499 -0.3130  0.4370 -1.3535
  808TIP3   OH2 2387   0.283   1.079   3.293 -0.1082  0.8955  0.7363
  808TIP3    H1 2388   0.222   1.089   3.366 -0.1119  0.6329  0.7682
  808TIP3    H2 2389   0.235   1.113   3.217 -0.9072 -0.8003  0.4511
  809TIP3   OH2 2390   4.750   4.736   5.368 -0.3925 -0.1451  0.5117
  809TIP3    H1 2391   4.830   4.713   5.322 -0.2763 -0.0018  0.6404
  809TIP3    H2 2392   4.680   4.717   5.306 -0.1731  1.1859 -0.1798
  810TIP3   OH2 2393   5.538   4.557   5.617 -0.2056  0.2934 -0.1708
  810TIP3    H1 2394   5.531   4.648   5.646  2.5569  0.2819  0.8111
  810TIP3    H2 2395   5.613   4.556   5.559 -0.5539 -1.2830 -0.6571
  811TIP3   OH2 2396   0.987   0.051   5.461 -0.4455  0.0931 -0.0967
  811TIP3    H1 2397   1.075   0.030   5.430  0.0071 -1.3106  1.9454
  811TIP3    H2 2398   0.987   0.146   5.471  1.0620  0.0720  0.3957
  812TIP3   OH2 2399   1.327   3.814   4.940  0.2349  0.1295  0.0100
  812TIP3    H1 2400   1.353   3.899   4.976  2.5266 -0.6769  0.4924
  812TIP3    H2 2401   1.367   3.750   4.999 -1.0138 -1.3005 -0.6155
  813TIP3   OH2 2402   1.413   0.706   0.005  0.2464 -0.0720  0.5568
  813TIP3    H1 2403   1.435   0.784   0.055 -0.2250  0.6196 -0.2878
  813TIP3    H2 2404   1.329   0.678   0.040  0.3188 -0.0872  0.7205
  814TIP3   OH2 2405   2.804   4.168   1.436  0.4376  0.3341  0.2052
  814TIP3    H1 2406   2.740   4.233   1.465  2.0103  1.8050  0.5395
  814TIP3    H2 2407   2.883   4.188   1.486  1.3240 -1.1120 -0.5463
  815TIP3   OH2 2408   3.511   5.691   1.469 -0.6502 -0.3295 -0.1039
  815TIP3    H1 2409   3.494   5.713   1.378 -0.8579 -1.0460 -0.2433
  815TIP3    H2 2410   3.556   5.607   1.465  1.0500  0.5109  0.3624
  816TIP3   OH2 2411   4.243   0.643   1.771 -0.1922 -0.1638  0.0067
  816TIP3    H1 2412   4.240   0.549   1.783 -1.0126 -0.1342  0.0629
  816TIP3    H2 2413   4.172   0.677   1.825 -0.7945  0.3682 -1.0886
  817TIP3   OH2 2414   0.747   1.298   0.182  0.1794  0.0756 -0.8173
  817TIP3    H1 2415   0.814   1.258   0.127  0.1435 -2.2612  0.6915
  817TIP3    H2 2416   0.669   1.300   0.127  0.4930 -0.9044 -1.3179
  818TIP3   OH2 2417   3.246   6.531   2.296 -0.3187 -0.1352  0.4513
  818TIP3    H1 2418   3.293   6.448   2.287  1.6050  0.8855  0.6864
  818TIP3    H2 2419   3.227   6.536   2.390 -3.6640 -1.9209  0.0243
  819TIP3   OH2 2420   5.871   6.496   1.480 -0.0916 -0.3461  0.0322
  819TIP3    H1 2421   5.897   6.559   1.547 -1.8203 -0.3070  0.7170
  819TIP3    H2 2422   5.836   6.421   1.528  0.3010 -1.0964 -0.8067
  820TIP3   OH2 2423   2.865   5.170   1.859  0.0306 -0.3272 -0.2822
  820TIP3    H1 2424   2.955   5.202   1.857  0.0712 -0.4431 -2.5711
  820TIP3    H2 2425   2.873   5.075   1.868  0.1309 -0.3463 -0.5825
  821TIP3   OH2 2426   5.882   2.683   2.516  0.0204 -0.0976 -0.0569
  821TIP3    H1 2427   5.902   2.589   2.525  1.0561  0.2801  2.4809
  821TIP3    H2 2428   5.832   2.689   2.435 -3.3059 -3.3800  1.4677
  822TIP3   OH2 2429   2.153   3.242   0.520 -0.1323 -0.4688  0.6848
  822TIP3    H1 2430   2.166   3.171   0.583  0.4867 -1.7401 -0.8265
  822TIP3    H2 2431   2.200   3.214   0.442 -2.7364 -0.0015 -1.1684
  823TIP3   OH2 2432   4.125   3.020   5.344 -0.7394 -0.0207  0.1317
  823TIP3    H1 2433   4.189   3.015   5.415 -1.2993 -0.5991  0.6112
  823TIP3    H2 2434   4.106   2.929   5.322  1.9058  0.0202 -3.0956
  824TIP3   OH2 2435   6.857   1.482   2.127  0.2532 -0.1946  0.2206
  824TIP3    H1 2436   6.820   1.555   2.176 -1.1543 -0.1229 -0.8900
  824TIP3    H2 2437   6.826   1.404   2.174 -0.7822 -0.1154 -0.2822
  825TIP3   OH2 2438   3.068   3.335   1.156 -0.8289 -0.1581  0.4660
  825TIP3    H1 2439   3.160   3.361   1.159 -0.9312  0.4344 -0.6466
  825TIP3    H2 2440   3.029   3.375   1.234  0.0599 -1.3516  1.5516
  826TIP3   OH2 2441   1.666   3.790   0.836 -0.9005 -0.0588  0.0043
  826TIP3    H1 2442   1.682   3.881   0.812 -0.8360 -0.3242 -1.0010
  826TIP3    H2 2443   1.577   3.773   0.806 -0.4814 -0.6766 -0.9122
  827TIP3   OH2 2444   7.005   6.260   0.496 -0.5734 -0.0844 -0.0295
  827TIP3    H1 2445   7.065   6.188   0.513 -0.9868 -0.5476 -0.5376
  827TIP3    H2 2446   6.932   6.221   0.448 -1.2662  0.4808  0.5359
  828TIP3   OH2 2447   3.709   2.608   1.616 -0.3631 -0.2219  0.2467
  828TIP3    H1 2448   3.702   2.525   1.662  0.0066  0.3922  1.4661
  828TIP3    H2 2449   3.647   2.666   1.660  1.3534  0.9260  1.2739
  829TIP3   OH2 2450   1.520   6.175   1.630  0.7921  0.1967  0.4460
  829TIP3    H1 2451   1.578   6.115   1.677 -1.0604 -2.8183 -0.8230
  829TIP3    H2 2452   1.436   6.168   1.675 -0.3365 -0.7630 -1.6578
  830TIP3   OH2 2453   1.657   4.883   0.832  0.4393  0.1201  0.2291
  830TIP3    H1 2454   1.622   4.826   0.764  0.2333  2.1593 -1.4872
  830TIP3    H2 2455   1.752   4.878   0.821  0.4546 -0.4110  0.5619
  831TIP3   OH2 2456   3.908   5.475   2.611  0.4684  0.0602  0.4579
  831TIP3    H1 2457   3.837   5.473   2.547  1.1955  0.9737 -0.4044
  831TIP3    H2 2458   3.986   5.450   2.562  0.3995 -3.9581  2.0143
  832TIP3   OH2 2459   4.525   0.542   1.968 -0.0223 -0.1587  0.4481
  832TIP3    H1 2460   4.431   0.529   1.984 -0.5440  1.9300 -0.6284
  832TIP3    H2 2461   4.541   0.633   1.993  1.6652 -0.3968  0.3164
  833TIP3   OH2 2462   2.911   0.330   2.360  0.5288  0.0903  0.4553
  833TIP3    H1 2463   2.957   0.389   2.300  0.4100  0.7090  0.9570
  833TIP3    H2 2464   2.980   0.292   2.415  0.5938 -0.1615  0.2029
  834TIP3   OH2 2465   5.461   0.879   0.238  0.4210 -0.3526 -0.0558
  834TIP3    H1 2466   5.375   0.886   0.280  0.5669 -2.8964  0.8370
  834TIP3    H2 2467   5.509   0.956   0.269 -1.7710  1.6483 -1.3169
  835TIP3   OH2 2468   1.279   3.919   5.703  0.2982 -0.3750  0.3095
  835TIP3    H1 2469   1.220   3.912   5.779  1.7105  0.1096  1.5037
  835TIP3    H2 2470   1.240   3.988   5.649 -0.1533  0.0606  1.1622
  836TIP3   OH2 2471   0.682   5.348   2.686 -0.5544  0.0123  0.9099
  836TIP3    H1 2472   0.634   5.297   2.620 -0.4710  0.6512  0.3469
  836TIP3    H2 2473   0.670   5.299   2.767  0.8379 -1.7795  0.1064
  837TIP3   OH2 2474   0.342   4.320   5.345  0.2365  0.0078 -0.3524
  837TIP3    H1 2475   0.397   4.383   5.297  0.0459 -1.3669 -2.5349
  837TIP3    H2 2476   0.386   4.308   5.428  2.4266  0.1130 -1.4241
  838TIP3   OH2 2477   3.986   6.519   5.189  0.3300 -0.1172 -0.2678
  838TIP3    H1 2478   3.946   6.592   5.142 -1.3538 -0.0325  1.2140
  838TIP3    H2 2479   3.954   6.526   5.278 -0.7600 -3.2472 -0.2676
  839TIP3   OH2 2480   6.807   3.354   3.238  0.0675  0.0906  0.5172
  839TIP3    H1 2481   6.889   3.329   3.280  0.9216  0.9584 -0.5690
  839TIP3    H2 2482   6.740   3.307   3.287  1.3064 -1.6865  0.5973
  840TIP3   OH2 2483   0.413   0.172   1.163  0.2293  0.7150  0.2971
  840TIP3    H1 2484   0.482   0.135   1.107  0.6262  0.8903  0.6715
  840TIP3    H2 2485   0.373   0.095   1.204  0.4333  0.6376  0.3529
  841TIP3   OH2 2486   3.583   4.742   3.723 -0.3075  0.1325  0.3443
  841TIP3    H1 2487   3.532   4.772   3.797 -0.9099  0.1931 -0.0891
  841TIP3    H2 2488   3.628   4.820   3.691  0.4591 -0.0168  1.0291
  842TIP3   OH2 2489   1.944   6.613   5.198  0.3382  0.6052 -0.2644
  842TIP3    H1 2490   2.003   6.543   5.226 -0.4102 -0.5863 -1.5363
  842TIP3    H2 2491   1.996   6.665   5.136  0.7749  0.9711  0.3953
  843TIP3   OH2 2492   4.478   5.731   1.413 -0.1561 -0.1397 -0.2841
  843TIP3    H1 2493   4.459   5.809   1.362 -2.3407 -0.5931 -0.2532
  843TIP3    H2 2494   4.445   5.658   1.360  1.0776 -0.9902  0.0625
  844TIP3   OH2 2495   5.042   6.004   0.339  0.2733  0.4478 -0.3501
  844TIP3    H1 2496   4.956   6.046   0.347  0.7229  1.2646  0.3300
  844TIP3    H2 2497   5.097   6.047   0.405  1.2578  0.0638 -0.8907
  845TIP3   OH2 2498   0.013   0.283   4.429  0.5306 -0.3599 -0.2280
  845TIP3    H1 2499   0.088   0.248   4.477 -0.4282 -1.9487  0.1875
  845TIP3    H2 2500  -0.049   0.210   4.425 -0.6694  0.6701 -1.2510
  846TIP3   OH2 2501   4.806   5.582   2.320 -0.0801  0.2357 -0.2064
  846TIP3    H1 2502   4.775   5.508   2.372 -2.0550  1.3526  0.2838
  846TIP3    H2 2503   4.727   5.619   2.280  0.8966  1.8434 -0.7559
  847TIP3   OH2 2504   0.203   5.196   5.612 -0.1174  0.4245  0.0612
  847TIP3    H1 2505   0.125   5.210   5.559 -1.9254 -1.4792  2.0433
  847TIP3    H2 2506   0.200   5.264   5.679 -0.1243  0.2987  0.1895
  848TIP3   OH2 2507   4.836   5.740   3.115 -0.0793 -0.2369  0.1610
  848TIP3    H1 2508   4.746   5.769   3.128  0.5041  1.3552  0.9886
  848TIP3    H2 2509   4.871   5.731   3.203  0.4856 -1.1695 -0.1484
  849TIP3   OH2 2510   4.243   5.016   3.596  0.6723 -0.2584 -0.1316
  849TIP3    H1 2511   4.232   4.991   3.688  0.2996 -0.4394 -0.2243
  849TIP3    H2 2512   4.188   5.094   3.586  2.7638  1.3946  0.4678
  850TIP3   OH2 2513   6.205   5.451   1.310 -0.3004 -0.1796 -0.3190
  850TIP3    H1 2514   6.237   5.383   1.250 -0.7553  1.2369 -2.2632
  850TIP3    H2 2515   6.267   5.523   1.300 -1.0839  0.5480 -0.0215
  851TIP3   OH2 2516   1.688   3.700   0.502 -0.0907 -0.5672  0.4047
  851TIP3    H1 2517   1.615   3.639   0.517 -1.6309  0.5436 -1.9515
  851TIP3    H2 2518   1.647   3.786   0.501  1.4558  0.1840  0.0896
  852TIP3   OH2 2519   6.289   3.365   0.215 -0.6247  0.1904  0.3163
  852TIP3    H1 2520   6.269   3.367   0.122  1.1658  1.9204 -0.0937
  852TIP3    H2 2521   6.296   3.457   0.240  4.6042 -0.0284  0.7417
  853TIP3   OH2 2522   0.283   3.361   5.760 -0.4354  0.1402  0.1777
  853TIP3    H1 2523   0.317   3.275   5.737  0.4784  0.4856  0.1999
  853TIP3    H2 2524   0.277   3.361   5.855 -1.5986 -0.3121  0.1291
  854TIP3   OH2 2525   1.862   5.361   5.467  0.0091  0.3837 -0.0717
  854TIP3    H1 2526   1.932   5.426   5.457 -0.6936  1.3168  0.8712
  854TIP3    H2 2527   1.783   5.413   5.481 -0.5814 -0.6798  0.6252
  855TIP3   OH2 2528   4.245   3.602   4.098 -0.1232  0.2404  0.0414
  855TIP3    H1 2529   4.162   3.650   4.104 -0.6611 -0.8083  2.2295
  855TIP3    H2 2530   4.312   3.667   4.115 -0.7248  0.6163  1.1265
  856TIP3   OH2 2531   5.166   3.591   1.219  0.0033  0.0658  0.3003
  856TIP3    H1 2532   5.087   3.601   1.272 -0.2002  0.3482 -0.0434
  856TIP3    H2 2533   5.177   3.677   1.177 -0.1071 -0.2857 -0.4640
  857TIP3   OH2 2534   5.048   0.379   4.228  0.3548  0.1332  0.2659
  857TIP3    H1 2535   5.057   0.369   4.133  3.7654 -0.8656  0.5601
  857TIP3    H2 2536   4.982   0.314   4.252 -0.9606  0.7518 -1.4259
  858TIP3   OH2 2537   2.005   5.705   3.031  0.0914  0.0900  0.2707
  858TIP3    H1 2538   1.927   5.651   3.017 -0.7938  1.5012 -0.5013
  858TIP3    H2 2539   2.043   5.672   3.112 -0.2572 -1.8495 -0.3229
  859TIP3   OH2 2540   0.149   2.351   5.488 -0.3816  0.0955 -0.0238
  859TIP3    H1 2541   0.164   2.308   5.403 -2.7050 -0.0178 -0.4560
  859TIP3    H2 2542   0.147   2.445   5.467 -0.6844  0.0834 -0.0517
  860TIP3   OH2 2543   1.554   4.116   3.527  0.0982  0.3058  0.1941
  860TIP3    H1 2544   1.484   4.062   3.490  0.9088  0.1574 -1.1994
  860TIP3    H2 2545   1.519   4.205   3.527 -0.0092  0.2772 -0.7728
  861TIP3   OH2 2546   5.636   2.305   2.609 -0.0157 -0.2844 -0.2265
  861TIP3    H1 2547   5.579   2.249   2.556  0.4832 -1.2914  0.2782
  861TIP3    H2 2548   5.576   2.367   2.651 -0.7102 -1.1251  0.0497
  862TIP3   OH2 2549   1.486   5.994   0.758  0.1243 -0.0417 -0.0856
  862TIP3    H1 2550   1.490   5.948   0.674  0.2396  0.6722 -0.4819
  862TIP3    H2 2551   1.449   5.930   0.819  1.1130 -0.9598 -0.4085
  863TIP3   OH2 2552   0.323   5.640   3.277  0.0499 -0.7677  0.0872
  863TIP3    H1 2553   0.327   5.606   3.188  0.5064 -1.4672  0.3676
  863TIP3    H2 2554   0.237   5.682   3.284  0.1183 -0.4757 -0.7597
  864TIP3   OH2 2555   2.316   5.852   3.498  0.0192 -0.1012  0.2870
  864TIP3    H1 2556   2.247   5.787   3.506 -0.5585  0.5499  0.7776
  864TIP3    H2 2557   2.270   5.936   3.499  0.6452  0.3100 -1.4793
  865TIP3   OH2 2558   6.268   6.048   3.163  0.1421 -0.3124 -0.4799
  865TIP3    H1 2559   6.347   5.992   3.164  0.4943  0.0587 -2.7516
  865TIP3    H2 2560   6.206   6.002   3.219  1.8897 -0.6933  1.2807
  866TIP3   OH2 2561   5.761   0.891   4.500  0.3624 -0.0804 -0.4228
  866TIP3    H1 2562   5.717   0.922   4.579 -1.7667  0.1653 -1.6249
  866TIP3    H2 2563   5.798   0.970   4.460  1.6999 -0.2454  0.4356
  867TIP3   OH2 2564   1.139   3.138   0.506 -0.0512  0.3882 -0.1800
  867TIP3    H1 2565   1.175   3.079   0.572 -1.5134  0.5962  0.8471
  867TIP3    H2 2566   1.061   3.094   0.473 -0.8056  1.4265  0.1433
  868TIP3   OH2 2567   2.106   5.293   3.239 -0.0250  0.5800  0.3781
  868TIP3    H1 2568   2.014   5.288   3.213  0.6193  0.8124 -2.2029
  868TIP3    H2 2569   2.123   5.386   3.250  0.7490  0.9018 -2.8236
  869TIP3   OH2 2570   3.983   1.604   4.035 -0.2294  0.2617  0.2851
  869TIP3    H1 2571   3.956   1.518   4.064 -0.9183  0.2895 -0.2399
  869TIP3    H2 2572   4.014   1.590   3.945  2.3876  0.0724  1.1391
  870TIP3   OH2 2573   6.538  -0.008   5.192 -0.0059  0.0327 -0.6882
  870TIP3    H1 2574   6.448  -0.031   5.216 -0.3712 -0.2942 -2.2986
  870TIP3    H2 2575   6.530   0.070   5.138  0.8728  1.1845  0.7490
  871TIP3   OH2 2576   4.396   0.428   4.582 -0.0218 -0.5232 -0.0043
  871TIP3    H1 2577   4.450   0.463   4.511  1.2976 -1.7431  0.3577
  871TIP3    H2 2578   4.346   0.357   4.541  1.2502 -1.6878  0.3885
  872TIP3   OH2 2579   3.519   3.043   0.750 -0.0993 -0.4259 -0.2861
  872TIP3    H1 2580   3.561   3.020   0.833  0.5328  1.1579 -0.1350
  872TIP3    H2 2581   3.428   3.062   0.773  0.0759  0.0106  0.0496
  873TIP3   OH2 2582   4.557   6.527   4.446  0.3052 -0.1477  0.0211
  873TIP3    H1 2583   4.503   6.580   4.388  0.3429  0.0712  0.1852
  873TIP3    H2 2584   4.620   6.484   4.389  0.7193  0.5154 -0.0331
  874TIP3   OH2 2585   4.076   4.307   1.175  1.1898 -0.3920  0.4684
  874TIP3    H1 2586   4.102   4.392   1.210 -2.4680  2.3404 -2.6285
  874TIP3    H2 2587   4.118   4.303   1.089  0.1364 -0.9785 -0.0385
  875TIP3   OH2 2588   5.175   2.982   5.340  0.4052 -0.0168  0.5126
  875TIP3    H1 2589   5.246   2.939   5.388  0.9256  0.5378  0.2591
  875TIP3    H2 2590   5.219   3.030   5.270 -0.1346  1.0463  0.8766
  876TIP3   OH2 2591   5.114   6.018   1.282 -0.3442 -0.4257 -0.1936
  876TIP3    H1 2592   5.101   6.001   1.375  0.6639 -0.6586 -0.0831
  876TIP3    H2 2593   5.105   5.933   1.240 -1.2293 -0.2567 -0.3794
  877TIP3   OH2 2594   6.089   5.133   0.516  0.1846  0.0224  0.0564
  877TIP3    H1 2595   6.170   5.101   0.556  0.3696  0.2608 -0.1132
  877TIP3    H2 2596   6.019   5.091   0.564  0.3970  0.5070  0.8105
  878TIP3   OH2 2597   4.742   2.027   4.131 -0.1889  0.3151 -0.0495
  878TIP3    H1 2598   4.759   2.032   4.037  0.0688 -0.1013 -0.0303
  878TIP3    H2 2599   4.737   2.118   4.160  0.8586  0.4591 -0.2733
  879TIP3   OH2 2600   2.989   0.748   2.832  0.2649  0.1395 -0.2101
  879TIP3    H1 2601   2.940   0.815   2.785  0.4749 -0.1335 -0.8231
  879TIP3    H2 2602   2.931   0.672   2.832 -0.6543  0.7630  1.8729
  880TIP3   OH2 2603   7.239   4.024   2.244 -0.4115  0.9446  0.0765
  880TIP3    H1 2604   7.220   3.941   2.200  0.5702  0.7184  0.0456
  880TIP3    H2 2605   7.177   4.028   2.317 -0.4124  0.1520  0.1210
  881TIP3   OH2 2606   6.060   5.098   4.178  0.4931  0.4555 -0.1747
  881TIP3    H1 2607   6.043   5.085   4.085 -1.2481 -2.2988  0.4109
  881TIP3    H2 2608   6.090   5.189   4.185 -2.4906  1.8451 -3.0257
  882TIP3   OH2 2609   6.502   0.310   4.568 -0.1060 -0.2718 -0.1823
  882TIP3    H1 2610   6.444   0.376   4.605 -0.4013  0.4389 -1.8001
  882TIP3    H2 2611   6.523   0.252   4.641 -0.0922  1.4261  1.2256
  883TIP3   OH2 2612   6.380   2.959   1.929 -0.4867 -0.3197  0.5192
  883TIP3    H1 2613   6.316   3.006   1.983 -0.8202 -1.0050  0.7298
  883TIP3    H2 2614   6.412   2.889   1.985  0.9828  0.4212  0.6549
  884TIP3   OH2 2615   4.703   5.401   4.486 -0.0963  0.2824 -0.0823
  884TIP3    H1 2616   4.736   5.436   4.403  1.7416  0.8037  0.8174
  884TIP3    H2 2617   4.699   5.477   4.544 -1.9195  0.0333  0.1802
  885TIP3   OH2 2618   0.059   1.676   2.106  0.1333 -0.4720 -0.1681
  885TIP3    H1 2619  -0.008   1.624   2.062  0.9781 -1.5819 -0.1932
  885TIP3    H2 2620   0.039   1.766   2.083 -0.8617 -0.8542 -0.8462
  886TIP3   OH2 2621   4.461   3.415   0.700 -0.3158  0.8382  0.2764
  886TIP3    H1 2622   4.430   3.345   0.758  0.7512 -1.2679 -1.5083
  886TIP3    H2 2623   4.397   3.485   0.709 -2.5312 -1.1356  0.7386
  887TIP3   OH2 2624   1.702   6.819   2.762 -0.1365  0.1502 -0.2043
  887TIP3    H1 2625   1.744   6.754   2.705 -1.7349  0.2129 -1.5326
  887TIP3    H2 2626   1.618   6.779   2.785 -0.9636  1.5436 -0.7114
  888TIP3   OH2 2627   2.377   0.123   0.234  0.2346 -0.5473 -0.1433
  888TIP3    H1 2628   2.364   0.151   0.143 -1.1837 -0.0166  0.1984
  888TIP3    H2 2629   2.464   0.085   0.235  2.2976  3.6176 -0.7078
  889TIP3   OH2 2630   2.483   6.356   2.230  0.2104 -0.1591  0.5331
  889TIP3    H1 2631   2.443   6.398   2.306 -0.9622  1.3088 -0.8300
  889TIP3    H2 2632   2.418   6.292   2.200  0.4272 -0.3296  0.4183
  890TIP3   OH2 2633   3.752   0.139   4.206 -0.4897  0.3006  0.2298
  890TIP3    H1 2634   3.683   0.078   4.181  0.1649 -0.4433  0.2015
  890TIP3    H2 2635   3.707   0.205   4.259 -1.5036  0.7177 -1.1095
  891TIP3   OH2 2636   2.147   6.382   4.791  0.1644 -0.7052 -0.2204
  891TIP3    H1 2637   2.145   6.288   4.810 -1.5791 -0.4336  1.1919
  891TIP3    H2 2638   2.060   6.402   4.757  0.4856  0.4244 -0.4299
  892TIP3   OH2 2639   2.625   4.950   5.553  0.2614  0.2659  0.0781
  892TIP3    H1 2640   2.566   4.875   5.563  0.2212  0.4377  1.2919
  892TIP3    H2 2641   2.567   5.024   5.537  0.2231  0.2516  0.1509
  893TIP3   OH2 2642   5.927   2.275   4.269  0.2704 -0.5121 -0.0935
  893TIP3    H1 2643   5.871   2.259   4.193  1.3246 -0.2076 -0.9512
  893TIP3    H2 2644   5.940   2.370   4.270  2.6601 -0.7525 -1.3271
  894TIP3   OH2 2645   4.693   0.712   3.949  0.0779  0.1925  0.0637
  894TIP3    H1 2646   4.749   0.731   4.025  0.1951 -1.1520  0.3296
  894TIP3    H2 2647   4.687   0.617   3.947 -0.1882  0.2236 -1.4426
  895TIP3   OH2 2648   6.589   1.759   0.442  0.1130 -0.3862  0.2287
  895TIP3    H1 2649   6.564   1.747   0.351  0.3725 -0.5853  0.1836
  895TIP3    H2 2650   6.650   1.687   0.461  0.2603 -0.1985  0.4829
  896TIP3   OH2 2651   7.180   6.334   3.640 -0.4274  0.4653  0.0179
  896TIP3    H1 2652   7.125   6.322   3.717 -0.9815 -0.3806 -0.5003
  896TIP3    H2 2653   7.129   6.298   3.568 -0.2316  1.9040 -0.8837
  897TIP3   OH2 2654   6.697   1.109   2.400  0.4575 -0.5406 -0.6534
  897TIP3    H1 2655   6.673   1.132   2.490 -2.1935 -0.0595 -1.4041
  897TIP3    H2 2656   6.710   1.193   2.356 -1.6856 -0.6137 -1.5203
  898TIP3   OH2 2657   1.246   6.673   1.368  0.4364  0.2665  0.0720
  898TIP3    H1 2658   1.163   6.700   1.327 -0.0047 -0.5326  0.4077
  898TIP3    H2 2659   1.302   6.647   1.295  0.2067  0.3184 -0.1253
  899TIP3   OH2 2660   1.630   2.969   1.052 -0.0209 -0.1543  0.4265
  899TIP3    H1 2661   1.699   2.935   0.995 -0.7188 -2.1365  0.6691
  899TIP3    H2 2662   1.672   2.979   1.137  0.0973 -0.8991  0.4624
  900TIP3   OH2 2663   7.186   6.476   0.584  0.1916 -0.1685 -0.1464
  900TIP3    H1 2664   7.118   6.419   0.548 -2.5313  2.1635  0.9089
  900TIP3    H2 2665   7.171   6.475   0.678  0.2228  1.9875 -0.0712
  901TIP3   OH2 2666   4.735   3.531   2.435 -0.3177  0.0990  0.3768
  901TIP3    H1 2667   4.755   3.513   2.527  0.1586 -1.7088 -0.0470
  901TIP3    H2 2668   4.802   3.594   2.408 -0.2015  0.3159  1.1461
  902TIP3   OH2 2669   0.116   5.040   2.919  0.0545 -0.2431 -0.1999
  902TIP3    H1 2670   0.113   5.115   2.978  0.1851  0.6401 -1.2754
  902TIP3    H2 2671   0.087   4.966   2.972 -0.3666  0.6224  0.8065
  903TIP3   OH2 2672   4.979   5.895   4.213 -0.0845  0.2412 -0.5225
  903TIP3    H1 2673   4.957   5.891   4.120  2.1139 -0.5639 -1.0742
  903TIP3    H2 2674   5.062   5.943   4.217  0.3876 -0.6103  0.9084
  904TIP3   OH2 2675   0.879   1.230   2.413 -0.1900  0.3526 -0.3178
  904TIP3    H1 2676   0.961   1.267   2.380 -0.5749 -0.8007 -2.7740
  904TIP3    H2 2677   0.816   1.241   2.341 -1.1963 -2.0086  0.0993
  905TIP3   OH2 2678   0.630   2.022   1.305  0.0702  0.5943  0.2990
  905TIP3    H1 2679   0.569   1.977   1.245  0.8465  0.3050 -0.2933
  905TIP3    H2 2680   0.590   2.107   1.320 -0.2978  0.5575 -0.3978
  906TIP3   OH2 2681   6.818   5.457   5.520 -0.4025 -0.0289  0.0817
  906TIP3    H1 2682   6.832   5.363   5.531  1.5356  0.1838 -0.1930
  906TIP3    H2 2683   6.800   5.468   5.426  0.6378 -0.0351 -0.1396
  907TIP3   OH2 2684   5.134   0.327   3.402 -0.1526 -0.3407  0.4458
  907TIP3    H1 2685   5.135   0.422   3.406  0.2185 -0.3392  0.2927
  907TIP3    H2 2686   5.092   0.307   3.318  1.9447 -0.2844 -0.6727
  908TIP3   OH2 2687   5.177   2.785   3.653 -0.6416  0.7229 -0.5875
  908TIP3    H1 2688   5.158   2.789   3.559 -0.3719 -2.7527 -0.8971
  908TIP3    H2 2689   5.273   2.786   3.658 -0.6584  1.1744 -0.3207
  909TIP3   OH2 2690   5.681   4.729   0.512  0.4575  0.0425  0.1060
  909TIP3    H1 2691   5.609   4.680   0.475  1.0222 -0.4912 -0.2967
  909TIP3    H2 2692   5.702   4.795   0.446  0.8806 -0.3382 -0.1437
  910TIP3   OH2 2693   6.067   4.002   4.891  0.2929 -0.3644 -0.0508
  910TIP3    H1 2694   6.065   4.017   4.797  1.9052  0.8479  0.0562
  910TIP3    H2 2695   6.153   4.035   4.919 -0.1688 -0.6247  1.8515
  911TIP3   OH2 2696   5.920   6.526   2.107  0.4169 -0.2613  0.0699
  911TIP3    H1 2697   5.892   6.587   2.038 -1.3102 -0.6323  0.4065
  911TIP3    H2 2698   5.986   6.575   2.156 -0.5171  1.1551 -0.0241
  912TIP3   OH2 2699   7.149   3.965   4.345 -0.1660 -0.2466 -0.1214
  912TIP3    H1 2700   7.175   4.056   4.330  0.2361 -0.1932  0.8244
  912TIP3    H2 2701   7.122   3.933   4.259 -0.5166  0.8316 -0.4253
  913TIP3   OH2 2702   1.951   4.017   2.785  0.3586 -0.1370  0.0212
  913TIP3    H1 2703   1.944   4.062   2.701  2.8849 -0.7720 -0.5944
  913TIP3    H2 2704   1.970   4.087   2.848  2.4361 -0.0223 -0.6440
  914TIP3   OH2 2705   5.447   2.058   5.417 -0.6909  0.3986  0.4534
  914TIP3    H1 2706   5.506   1.994   5.456 -1.3447  0.0546  0.9052
  914TIP3    H2 2707   5.500   2.104   5.352 -0.1205 -0.3662  0.3669
  915TIP3   OH2 2708   0.507   6.305   3.837  0.0092 -0.2054  0.2094
  915TIP3    H1 2709   0.498   6.351   3.754 -0.5993 -1.5374 -0.5039
  915TIP3    H2 2710   0.511   6.213   3.813  2.9919 -0.4983  1.4559
  916TIP3   OH2 2711   6.628   0.958   5.014  0.3054  0.1236  0.3741
  916TIP3    H1 2712   6.623   0.959   5.110  0.1810  0.8908  0.3632
  916TIP3    H2 2713   6.567   1.026   4.986 -0.4038 -0.7610 -0.2920
  917TIP3   OH2 2714   1.559   1.842   3.637  0.2922 -0.1429 -0.3382
  917TIP3    H1 2715   1.631   1.883   3.591  1.6342 -0.4815  1.3510
  917TIP3    H2 2716   1.490   1.909   3.638 -0.5274 -0.7274 -4.2552
  918TIP3   OH2 2717   2.876   1.475   5.176  0.2570 -0.6875 -0.1282
  918TIP3    H1 2718   2.857   1.419   5.251 -0.1226  1.5999  1.6017
  918TIP3    H2 2719   2.801   1.463   5.117 -0.0424 -1.6137  0.4343
  919TIP3   OH2 2720   6.780   3.550   1.641 -0.0103 -0.2205  0.0219
  919TIP3    H1 2721   6.854   3.611   1.650  0.1104 -0.6326  2.4642
  919TIP3    H2 2722   6.704   3.607   1.626  0.4307  0.3738 -0.0080
  920TIP3   OH2 2723   5.058   2.280   1.506  0.1341  0.1787 -0.3598
  920TIP3    H1 2724   5.140   2.232   1.500  0.5628  0.8860 -0.2285
  920TIP3    H2 2725   5.039   2.284   1.600 -1.7641 -2.8060 -0.4753
  921TIP3   OH2 2726   0.734   0.017   3.861  0.0103 -0.0665  0.5209
  921TIP3    H1 2727   0.686   0.100   3.867 -2.1367 -1.0549 -1.4452
  921TIP3    H2 2728   0.689  -0.042   3.920 -0.4142 -0.6412 -0.3517
  922TIP3   OH2 2729   2.261   1.484   4.093 -0.6151 -0.2543 -0.3855
  922TIP3    H1 2730   2.218   1.420   4.149 -0.2118  0.4603  0.7648
  922TIP3    H2 2731   2.292   1.552   4.153 -1.5511  1.3209 -1.6130
  923TIP3   OH2 2732   1.529   6.340   0.823 -0.2991 -0.7185 -0.3191
  923TIP3    H1 2733   1.463   6.323   0.891  0.4866  0.8112  0.8796
  923TIP3    H2 2734   1.610   6.305   0.860 -0.3255 -2.3978 -1.7006
  924TIP3   OH2 2735   5.756   5.167   2.704  0.0935  0.3699 -0.1906
  924TIP3    H1 2736   5.789   5.118   2.629 -1.3389 -0.9570 -0.0158
  924TIP3    H2 2737   5.795   5.125   2.780  0.9194  1.2055 -0.1390
  925TIP3   OH2 2738   3.311   1.179   0.668 -0.6988 -0.1043  0.8953
  925TIP3    H1 2739   3.310   1.272   0.649 -0.8575  0.0175  1.4718
  925TIP3    H2 2740   3.221   1.160   0.696 -0.1297  0.0549  2.9978
  926TIP3   OH2 2741   0.427   1.997   3.520 -0.3801 -0.1408 -0.0508
  926TIP3    H1 2742   0.469   2.081   3.498 -0.7230  0.7577  2.4711
  926TIP3    H2 2743   0.482   1.931   3.478 -0.5674  1.3175 -2.8477
  927TIP3   OH2 2744   1.242   2.688   2.784  0.0765 -0.3370  0.5782
  927TIP3    H1 2745   1.247   2.605   2.738 -1.2378 -1.2365  1.9607
  927TIP3    H2 2746   1.153   2.719   2.769  0.6002  0.9322 -0.0666
  928TIP3   OH2 2747   0.020   6.775   4.580  0.2493 -0.4517  0.2819
  928TIP3    H1 2748  -0.010   6.701   4.632  0.4169  0.1253  1.2129
  928TIP3    H2 2749   0.037   6.737   4.493  0.4277 -1.5179  0.7608
  929TIP3   OH2 2750   6.233   5.991   3.982 -0.0197  0.1204  0.3988
  929TIP3    H1 2751   6.155   6.044   3.967 -0.1472 -0.1783 -0.0056
  929TIP3    H2 2752   6.245   5.993   4.077  0.5418  1.6832  0.3307
  930TIP3   OH2 2753   5.804   3.199   2.515  0.7916  0.6099 -0.0203
  930TIP3    H1 2754   5.856   3.169   2.440 -0.1067  1.9878 -1.2416
  930TIP3    H2 2755   5.714   3.197   2.483  0.3927  1.2527  1.0292
  931TIP3   OH2 2756   4.944   1.014   0.370 -0.2289 -0.4189 -0.4164
  931TIP3    H1 2757   4.881   1.020   0.298  0.8801  0.3615 -1.3448
  931TIP3    H2 2758   5.025   0.985   0.329  0.2993 -0.4356  0.6011
  932TIP3   OH2 2759   2.417   5.960   5.675 -0.4566  0.1243 -0.6323
  932TIP3    H1 2760   2.408   6.007   5.592 -2.4716  1.3087  0.1718
  932TIP3    H2 2761   2.348   5.893   5.673  1.0210 -1.4645 -0.8642
  933TIP3   OH2 2762   4.387   0.435   0.573 -0.4781 -0.5170 -0.2753
  933TIP3    H1 2763   4.448   0.498   0.611  0.7818 -1.1825 -1.1322
  933TIP3    H2 2764   4.306   0.485   0.560  0.7134  1.1830 -1.6667
  934TIP3   OH2 2765   2.242   5.154   2.344  0.1490  0.0709 -0.0882
  934TIP3    H1 2766   2.269   5.063   2.360  3.3086  1.2511  2.4186
  934TIP3    H2 2767   2.263   5.170   2.252  0.1841 -1.5350 -0.3879
  935TIP3   OH2 2768   6.584   1.667   3.866  0.4212  0.5834  0.8678
  935TIP3    H1 2769   6.567   1.574   3.851  0.0352  0.5808  1.3293
  935TIP3    H2 2770   6.673   1.680   3.833  0.0434  0.3140 -0.3040
  936TIP3   OH2 2771   1.960   6.540   0.830 -0.2709  0.8834  0.0288
  936TIP3    H1 2772   1.971   6.601   0.904 -0.0483  0.9939 -0.0949
  936TIP3    H2 2773   1.922   6.594   0.760 -1.2952  0.5900  0.3333
  937TIP3   OH2 2774   4.961   4.171   3.133  0.2382  0.3249 -0.6147
  937TIP3    H1 2775   4.922   4.259   3.126 -0.1976  0.1793 -0.1332
  937TIP3    H2 2776   5.041   4.184   3.183  0.3659  0.5024 -0.8648
  938TIP3   OH2 2777   4.371   0.079   4.062  0.3575 -0.4430 -0.2447
  938TIP3    H1 2778   4.431   0.015   4.099 -0.3640 -0.0465  1.6865
  938TIP3    H2 2779   4.363   0.054   3.970 -0.4503 -3.5596  0.5739
  939TIP3   OH2 2780   0.768   4.498   2.897 -0.4458  0.0745  0.4047
  939TIP3    H1 2781   0.857   4.523   2.874  0.0109  1.8775  3.5534
  939TIP3    H2 2782   0.714   4.533   2.826  1.3019 -1.3468 -1.7310
  940TIP3   OH2 2783   6.502   5.458   1.021 -0.3227  0.2574 -0.4042
  940TIP3    H1 2784   6.488   5.425   0.932 -1.1804  1.7906 -0.8746
  940TIP3    H2 2785   6.597   5.454   1.034 -0.3912 -3.3510  0.0116
  941TIP3   OH2 2786   1.962   3.477   2.307 -0.4901  0.4526  0.0548
  941TIP3    H1 2787   1.995   3.405   2.361 -0.6475 -0.2905 -0.8197
  941TIP3    H2 2788   1.870   3.456   2.291 -0.2506  0.2459 -1.1424
  942TIP3   OH2 2789   4.529   5.718   1.091 -0.8580 -0.1248 -0.1076
  942TIP3    H1 2790   4.547   5.640   1.040  0.6177 -0.6222  1.0925
  942TIP3    H2 2791   4.615   5.747   1.122 -1.1634  2.7512 -1.5697
  943TIP3   OH2 2792   2.891   5.043   1.446 -0.1330 -0.1742 -0.3449
  943TIP3    H1 2793   2.876   5.082   1.360 -0.0849 -1.1154 -0.7923
  943TIP3    H2 2794   2.805   5.014   1.475 -0.5660  2.1888  0.9859
  944TIP3   OH2 2795   3.822   5.069   2.544 -0.5474 -0.7981  0.4414
  944TIP3    H1 2796   3.829   4.979   2.513 -0.9683 -1.4755  2.1638
  944TIP3    H2 2797   3.818   5.122   2.465  0.5892 -2.2070 -0.6124
  945TIP3   OH2 2798   0.076   0.059   1.762 -0.1262  0.2277 -0.1086
  945TIP3    H1 2799   0.139   0.032   1.695 -0.1724  2.0968 -0.9653
  945TIP3    H2 2800   0.130   0.078   1.839  0.3235  1.2581 -0.6582
  946TIP3   OH2 2801   5.260   2.980   1.346  0.2172 -0.3158  0.0731
  946TIP3    H1 2802   5.271   2.896   1.390 -1.3768 -1.0712 -0.8697
  946TIP3    H2 2803   5.272   2.961   1.253 -0.8189  0.3350 -0.2188
  947TIP3   OH2 2804   0.986   0.598   2.229 -0.6963 -0.1604  0.1049
  947TIP3    H1 2805   0.977   0.672   2.169  1.1032 -0.2825 -0.3662
  947TIP3    H2 2806   0.969   0.521   2.175 -2.3988 -0.1526  0.5572
  948TIP3   OH2 2807   4.502   4.040   0.607 -0.2048  0.3784 -0.6859
  948TIP3    H1 2808   4.582   4.025   0.556  1.3216 -0.5558  1.8322
  948TIP3    H2 2809   4.445   3.965   0.585  0.6655 -0.3227 -0.5901
  949TIP3   OH2 2810   2.359   5.537   2.606  0.5180 -0.4891  0.2777
  949TIP3    H1 2811   2.346   5.475   2.678  0.4731  1.7183  2.3217
  949TIP3    H2 2812   2.397   5.614   2.648 -1.4206  1.7057 -1.6707
  950TIP3   OH2 2813   3.774   5.917   5.137  0.0179  0.5877 -0.2590
  950TIP3    H1 2814   3.686   5.889   5.164  0.3337  0.5837  0.8094
  950TIP3    H2 2815   3.827   5.837   5.143  0.4590  0.9325  0.7722
  951TIP3   OH2 2816   1.910   5.543   0.673 -0.0052  0.4418  0.0271
  951TIP3    H1 2817   1.876   5.632   0.672 -0.4429  0.3661 -3.3410
  951TIP3    H2 2818   1.997   5.550   0.632 -0.7179 -0.8040 -1.8489
  952TIP3   OH2 2819   0.651   3.580   2.790  0.5288 -0.4286  0.4474
  952TIP3    H1 2820   0.686   3.662   2.757 -1.4379  0.1712 -0.2367
  952TIP3    H2 2821   0.698   3.512   2.740  0.9909  0.3149 -0.1456
  953TIP3   OH2 2822   1.049   4.329   5.556 -0.4489  0.0296 -0.1054
  953TIP3    H1 2823   0.979   4.384   5.520 -0.0530  1.2126  0.8979
  953TIP3    H2 2824   1.103   4.388   5.607  0.4738 -1.1459  0.3269
  954TIP3   OH2 2825   6.315   4.553   4.254 -0.1723  0.0131 -0.1141
  954TIP3    H1 2826   6.341   4.472   4.296  0.3173  1.2633  2.1284
  954TIP3    H2 2827   6.293   4.527   4.164  1.3808 -2.3222  0.0991
  955TIP3   OH2 2828   6.862   4.566   2.650  0.5786  0.5400 -0.4894
  955TIP3    H1 2829   6.889   4.586   2.561  0.2471  2.4036 -0.2244
  955TIP3    H2 2830   6.929   4.606   2.705  0.4510 -0.0501  0.1106
  956TIP3   OH2 2831   2.603   6.631   4.769  0.0301  0.1092 -0.3958
  956TIP3    H1 2832   2.576   6.539   4.762  1.7078 -0.6169  1.5546
  956TIP3    H2 2833   2.552   6.664   4.843  0.6705  0.2336 -0.0063
  957TIP3   OH2 2834   4.993   4.087   5.294  0.2199 -0.0408  0.0650
  957TIP3    H1 2835   4.951   4.004   5.271  0.7012 -0.1159 -0.5742
  957TIP3    H2 2836   4.927   4.135   5.344 -0.1430 -0.7109  0.2408
  958TIP3   OH2 2837   3.538   3.129   4.864  0.1077  0.0929  0.1754
  958TIP3    H1 2838   3.499   3.155   4.947  0.9299  0.4286  0.4747
  958TIP3    H2 2839   3.584   3.047   4.884  0.0635  0.0206 -0.0195
  959TIP3   OH2 2840   6.951   6.143   4.133  0.2039  0.4261 -0.2993
  959TIP3    H1 2841   6.957   6.051   4.110  0.0106  0.2364  0.3795
  959TIP3    H2 2842   6.983   6.147   4.223 -0.3480  0.9269 -0.1196
  960TIP3   OH2 2843   2.432   2.197   0.881 -0.0023  0.0973 -0.4781
  960TIP3    H1 2844   2.422   2.283   0.923 -0.4996 -0.2354  0.0972
  960TIP3    H2 2845   2.346   2.155   0.891  0.2712 -0.5121 -0.6510
  961TIP3   OH2 2846   0.546   5.590   2.256 -0.2502  0.3468 -0.1701
  961TIP3    H1 2847   0.555   5.594   2.351  1.0028 -2.3971 -0.0677
  961TIP3    H2 2848   0.451   5.590   2.241 -0.5040 -0.7725  1.2336
  962TIP3   OH2 2849   5.109   6.153   5.378 -0.2576 -0.0083 -0.2249
  962TIP3    H1 2850   5.080   6.178   5.466 -3.5151 -1.7738 -0.6737
  962TIP3    H2 2851   5.181   6.213   5.360  0.2157  0.7940  3.4006
  963TIP3   OH2 2852   6.202   5.478   4.751  0.3072  0.3763  0.1763
  963TIP3    H1 2853   6.178   5.480   4.659  0.3835 -2.5147  0.0098
  963TIP3    H2 2854   6.297   5.469   4.751  0.1960 -0.9766  0.4669
  964TIP3   OH2 2855   4.426   4.231   4.375 -0.1015 -0.0735 -0.3100
  964TIP3    H1 2856   4.347   4.217   4.428 -0.2650 -0.9271 -0.7609
  964TIP3    H2 2857   4.430   4.326   4.364 -1.6206 -0.0574 -1.0875
  965TIP3   OH2 2858   4.395   1.594   0.206 -0.1361  0.4023 -0.3783
  965TIP3    H1 2859   4.308   1.619   0.235 -0.8667 -2.0295 -0.3307
  965TIP3    H2 2860   4.381   1.549   0.123  1.0923  0.1456 -0.4704
  966TIP3   OH2 2861   5.581   2.453   3.202 -0.2436  0.6333 -0.3353
  966TIP3    H1 2862   5.535   2.509   3.139 -1.0144  2.2467  1.5609
  966TIP3    H2 2863   5.512   2.396   3.237  0.0015  0.3674 -0.2878
  967TIP3   OH2 2864   6.418   2.786   4.809  1.1067 -0.3280 -0.4738
  967TIP3    H1 2865   6.497   2.837   4.827  1.8883 -1.5445 -0.3127
  967TIP3    H2 2866   6.406   2.733   4.888 -1.2970  1.5420  0.5512
  968TIP3   OH2 2867   3.780   5.584   3.200 -0.9703 -0.6251  0.4902
  968TIP3    H1 2868   3.813   5.521   3.135 -2.6816 -1.6522  0.5494
  968TIP3    H2 2869   3.727   5.645   3.148 -1.1788 -0.6078  0.7242
  969TIP3   OH2 2870   4.786   0.530   1.038 -0.4330 -0.1348  0.6475
  969TIP3    H1 2871   4.718   0.463   1.040  1.7296 -2.5366 -0.5756
  969TIP3    H2 2872   4.802   0.546   0.945  1.7087 -0.8531  0.8284
  970TIP3   OH2 2873   4.837   1.415   1.043 -0.3281  0.6133  0.2477
  970TIP3    H1 2874   4.916   1.363   1.031 -0.3125  0.4007  1.1695
  970TIP3    H2 2875   4.822   1.456   0.958  0.0690 -0.3218 -0.2865
  971TIP3   OH2 2876   6.482   5.039   1.055 -0.4119  0.2059  0.3995
  971TIP3    H1 2877   6.564   5.070   1.015 -0.0816 -1.1396 -0.0073
  971TIP3    H2 2878   6.417   5.046   0.986 -0.1759 -0.6531  0.0722
  972TIP3   OH2 2879   4.084   4.547   1.769  0.0796 -0.3136  0.2535
  972TIP3    H1 2880   4.104   4.468   1.719 -1.0210 -1.0932  1.0137
  972TIP3    H2 2881   4.156   4.555   1.831  0.1418 -0.7765  0.2444
  973TIP3   OH2 2882   5.812   0.461   0.242 -0.1424  0.0194 -0.1863
  973TIP3    H1 2883   5.729   0.484   0.283  0.1674 -0.1920  0.5771
  973TIP3    H2 2884   5.861   0.416   0.310 -0.0628 -1.3800 -1.1293
  974TIP3   OH2 2885   2.145   3.650   3.457  0.0836 -0.4025  0.2628
  974TIP3    H1 2886   2.149   3.602   3.375 -1.7721 -0.3163  0.0791
  974TIP3    H2 2887   2.093   3.728   3.437 -1.7113 -1.1028  1.8018
  975TIP3   OH2 2888   5.932   1.188   1.811 -0.2734  0.3196 -0.3057
  975TIP3    H1 2889   5.913   1.182   1.717  0.4064  1.1858 -0.5161
  975TIP3    H2 2890   5.895   1.271   1.838 -0.3543  0.1328  0.1739
  976TIP3   OH2 2891   3.332   2.433   2.288 -0.5306 -0.0120 -0.5725
  976TIP3    H1 2892   3.246   2.469   2.267 -0.5832 -0.2583 -0.7822
  976TIP3    H2 2893   3.318   2.339   2.296 -0.2276 -0.0877 -0.8852
  977TIP3   OH2 2894   0.196   2.658   5.847  0.2887 -0.1619 -0.4961
  977TIP3    H1 2895   0.284   2.684   5.817  0.8678 -1.7553 -0.2451
  977TIP3    H2 2896   0.199   2.667   5.942  0.4108 -0.8783 -0.4291
  978TIP3   OH2 2897   4.168   5.514   1.732  0.3631  0.5387 -0.0428
  978TIP3    H1 2898   4.233   5.479   1.671  0.2387 -0.1119  0.1874
  978TIP3    H2 2899   4.149   5.602   1.699  0.4270  0.2660 -0.8327
  979TIP3   OH2 2900   4.900   5.479   3.006 -0.7052  0.3976 -0.3977
  979TIP3    H1 2901   4.805   5.469   2.997 -0.8360 -0.5649  1.5416
  979TIP3    H2 2902   4.912   5.571   3.029 -1.1561  0.5404 -0.7074
  980TIP3   OH2 2903   3.830   3.483   4.493  0.0937 -0.2307 -0.4411
  980TIP3    H1 2904   3.757   3.423   4.506 -0.0547  0.3916  2.2190
  980TIP3    H2 2905   3.793   3.569   4.514  1.4569  0.1309  0.6471
  981TIP3   OH2 2906   4.066   5.832   5.571 -0.0828  0.4730  0.0218
  981TIP3    H1 2907   4.117   5.881   5.635  0.4232  1.0865 -0.8295
  981TIP3    H2 2908   4.115   5.839   5.490  0.3915 -2.0541 -0.0081
  982TIP3   OH2 2909   1.584   2.331   1.015 -0.2498  0.2131  0.2417
  982TIP3    H1 2910   1.607   2.273   0.942  0.0865  0.5721  0.0573
  982TIP3    H2 2911   1.591   2.276   1.093 -0.1790 -0.0602  0.0435
  983TIP3   OH2 2912   3.371   0.949   2.728 -0.3604 -0.0968 -0.2839
  983TIP3    H1 2913   3.359   0.854   2.736  1.6947 -0.5297 -1.5216
  983TIP3    H2 2914   3.464   0.963   2.743 -0.3898  1.5591 -1.3593
  984TIP3   OH2 2915   1.895   3.324   5.087  0.2701 -1.2511 -0.0168
  984TIP3    H1 2916   1.963   3.390   5.080 -1.7327  1.2408  1.9295
  984TIP3    H2 2917   1.829   3.350   5.023 -0.2735 -1.7013  0.3452
  985TIP3   OH2 2918   2.353   3.555   1.043  0.2860  0.8626  0.1944
  985TIP3    H1 2919   2.353   3.479   1.101 -0.2551  0.0032 -0.8964
  985TIP3    H2 2920   2.261   3.578   1.033  0.0069 -0.8707 -2.6013
  986TIP3   OH2 2921   1.863   2.768   5.005 -1.0437  0.2246 -0.3796
  986TIP3    H1 2922   1.877   2.843   5.062 -0.8714 -0.1467  0.0795
  986TIP3    H2 2923   1.821   2.804   4.927  0.8748  1.1095 -1.0646
  987TIP3   OH2 2924   4.194   0.713   2.248 -0.1904  0.1703  0.4507
  987TIP3    H1 2925   4.284   0.745   2.255 -0.4595  1.0602  0.0163
  987TIP3    H2 2926   4.183   0.694   2.155  0.1492 -1.8115  0.7808
  988TIP3   OH2 2927   0.518   0.385   3.159  0.1218 -0.1454 -0.3164
  988TIP3    H1 2928   0.503   0.468   3.113 -1.6316 -0.2765 -0.0699
  988TIP3    H2 2929   0.466   0.321   3.110 -0.7486 -0.5335  1.0771
  989TIP3   OH2 2930   6.461   5.463   3.790 -0.0222  0.6015 -0.0820
  989TIP3    H1 2931   6.538   5.521   3.791  1.9153 -1.7342 -2.1384
  989TIP3    H2 2932   6.498   5.375   3.790 -2.7683 -0.6306 -0.3947
  990TIP3   OH2 2933   1.296   0.470   3.252 -1.1008  0.1137 -0.1489
  990TIP3    H1 2934   1.249   0.553   3.245 -3.6192 -1.2692 -1.0550
  990TIP3    H2 2935   1.352   0.467   3.175 -1.7844  0.5585 -0.6775
  991TIP3   OH2 2936   4.688   0.183   3.489  0.9695  0.1560 -0.5574
  991TIP3    H1 2937   4.660   0.144   3.572 -0.1531 -1.3225 -1.5592
  991TIP3    H2 2938   4.651   0.271   3.490  0.0290 -0.2309  0.0614
  992TIP3   OH2 2939   6.968   0.444   2.276 -0.2116 -0.1559 -0.4995
  992TIP3    H1 2940   6.903   0.398   2.327 -0.2582 -0.9026 -1.2133
  992TIP3    H2 2941   6.940   0.536   2.278 -0.7977 -0.3409 -0.0992
  993TIP3   OH2 2942   6.572   5.683   3.620 -0.0285  0.0494  0.1625
  993TIP3    H1 2943   6.526   5.741   3.682 -0.0979 -0.3502  0.4858
  993TIP3    H2 2944   6.641   5.738   3.584 -0.0346  0.3120  0.5361
  994TIP3   OH2 2945   0.469   6.394   3.577 -0.5016  0.6765 -0.5150
  994TIP3    H1 2946   0.496   6.381   3.486 -1.2195  0.7306 -0.7428
  994TIP3    H2 2947   0.374   6.378   3.576 -0.2193 -1.4464  0.6224
  995TIP3   OH2 2948   5.432   3.928   4.326  0.6556 -0.4023  0.2054
  995TIP3    H1 2949   5.438   3.839   4.363 -0.6767 -0.7535 -0.3762
  995TIP3    H2 2950   5.385   3.916   4.243  1.6206  0.6824 -0.5349
  996TIP3   OH2 2951   1.721   3.377   0.634  0.9124  0.2171  0.4260
  996TIP3    H1 2952   1.748   3.329   0.712 -1.5498  0.4435  1.5142
  996TIP3    H2 2953   1.646   3.429   0.662 -1.5220 -1.3336 -2.5175
  997TIP3   OH2 2954   2.306   5.866   2.731 -0.2312 -0.2105 -0.5114
  997TIP3    H1 2955   2.376   5.835   2.788  0.6052  0.6914 -1.0089
  997TIP3    H2 2956   2.296   5.959   2.755 -0.6052 -0.0978 -1.0956
  998TIP3   OH2 2957   3.680   0.637   1.277  0.6443  0.7782 -0.2659
  998TIP3    H1 2958   3.719   0.572   1.220 -0.0957 -0.5178  0.6601
  998TIP3    H2 2959   3.586   0.630   1.261  0.2157 -0.9304  2.3454
  999TIP3   OH2 2960   3.640   3.284   4.499  0.3563 -0.5181  0.0999
  999TIP3    H1 2961   3.719   3.234   4.476 -0.1895 -0.7483 -1.3507
  999TIP3    H2 2962   3.584   3.220   4.544  0.4909 -0.6765  0.0451
 1000TIP3   OH2 2963   6.437   0.470   1.301 -0.0081  0.1274  0.1925
 1000TIP3    H1 2964   6.431   0.561   1.272 -0.1681 -0.6202 -2.3672
 1000TIP3    H2 2965   6.501   0.431   1.241  0.0599 -1.4572  1.2588
 1001TIP3   OH2 2966   4.493   5.078   5.576 -0.2893 -0.4816 -0.5592
 1001TIP3    H1 2967   4.519   4.986   5.581 -0.0315 -0.3692  0.3508
 1001TIP3    H2 2968   4.517   5.105   5.487  3.0782 -0.2771  0.2926
 1002TIP3   OH2 2969   5.208   0.579   2.443 -0.3523  0.1717  0.0829
 1002TIP3    H1 2970   5.277   0.523   2.408 -0.0937  1.4751 -1.6215
 1002TIP3    H2 2971   5.134   0.565   2.384 -0.6077  0.8683  0.2371
 1003TIP3   OH2 2972   5.185   0.961   2.452 -0.4884  0.3439 -0.4577
 1003TIP3    H1 2973   5.254   0.991   2.511 -0.9194  0.0994  0.1857
 1003TIP3    H2 2974   5.181   1.027   2.383 -0.9709  1.4163  0.5719
 1004TIP3   OH2 2975   2.655   5.006   4.941  0.0399 -0.1998 -0.2162
 1004TIP3    H1 2976   2.700   4.953   4.875  0.2750 -0.2164 -0.0462
 1004TIP3    H2 2977   2.629   4.943   5.008 -2.0091 -0.4997 -1.2426
 1005TIP3   OH2 2978   4.722   6.599   2.851 -0.4088 -0.5979  0.2529
 1005TIP3    H1 2979   4.775   6.643   2.784  1.5334 -0.2576  1.9202
 1005TIP3    H2 2980   4.671   6.669   2.892 -2.1860 -0.9080 -1.2637
 1006TIP3   OH2 2981   3.028   1.442   2.764 -0.6026  0.3436 -0.2442
 1006TIP3    H1 2982   2.933   1.449   2.770 -0.5176  0.5004  1.1226
 1006TIP3    H2 2983   3.045   1.350   2.746 -0.9242 -0.3606  2.6297
 1007TIP3   OH2 2984   6.738   0.201   5.727  0.2617  0.4024  0.4517
 1007TIP3    H1 2985   6.784   0.135   5.778  1.6810  1.5201  0.6892
 1007TIP3    H2 2986   6.701   0.153   5.653  0.6072 -0.7665  1.0167
 1008TIP3   OH2 2987   2.782   0.666   5.855 -0.2219  0.2254  0.4949
 1008TIP3    H1 2988   2.703   0.702   5.896  0.2308  2.0123 -0.1105
 1008TIP3    H2 2989   2.854   0.701   5.906  0.2246 -0.4398  0.3328
 1009TIP3   OH2 2990   2.178   4.971   5.888  0.3060 -0.3686 -0.3445
 1009TIP3    H1 2991   2.177   5.061   5.919  0.7860 -0.1940 -0.8172
 1009TIP3    H2 2992   2.268   4.957   5.858 -0.2789 -0.3132 -2.2564
 1010TIP3   OH2 2993   6.143   2.981   4.493 -0.1438  0.2457  0.4144
 1010TIP3    H1 2994   6.186   3.034   4.426 -0.4260  1.2777  1.0307
 1010TIP3    H2 2995   6.173   2.891   4.476 -0.4547  0.4284 -1.2796
 1011TIP3   OH2 2996   7.088   5.544   2.418  0.2187 -0.0250  0.7847
 1011TIP3    H1 2997   7.016   5.582   2.367 -0.1298 -0.8592  0.6500
 1011TIP3    H2 2998   7.165   5.557   2.362  0.0141 -0.0034  0.5063
 1012TIP3   OH2 2999   3.112   4.523   1.125  0.9401  0.4748  0.0940
 1012TIP3    H1 3000   3.055   4.525   1.048  1.6900 -0.9542 -0.5338
 1012TIP3    H2 3001   3.177   4.592   1.108  0.5177  0.8399 -0.0697
 1013TIP3   OH2 3002   3.686   2.653   2.886 -0.0054 -0.4157  0.2286
 1013TIP3    H1 3003   3.623   2.724   2.903 -0.2107 -0.4684 -0.2965
 1013TIP3    H2 3004   3.718   2.671   2.797  0.0340 -0.9140  0.1429
 1014TIP3   OH2 3005   2.147   3.265   3.661 -0.1078 -0.1473 -0.4350
 1014TIP3    H1 3006   2.178   3.223   3.581  3.0721 -1.3772  1.2846
 1014TIP3    H2 3007   2.123   3.192   3.718 -0.7121  0.6621  0.3708
 1015TIP3   OH2 3008   5.025   1.412   2.140 -0.4066  0.6241 -0.0940
 1015TIP3    H1 3009   4.991   1.323   2.129  0.5324  0.3880 -1.3517
 1015TIP3    H2 3010   5.087   1.406   2.212 -1.1767  0.5153  0.5705
 1016TIP3   OH2 3011   4.270   2.486   4.251 -0.4200  0.0780  0.0691
 1016TIP3    H1 3012   4.346   2.465   4.198  0.0143  0.2241  0.6206
 1016TIP3    H2 3013   4.198   2.438   4.211 -0.0422 -0.0474 -0.4659
 1017TIP3   OH2 3014   6.864   4.001   4.301  0.0602 -0.5284  0.2384
 1017TIP3    H1 3015   6.938   4.010   4.241 -0.3365 -3.1978 -0.8249
 1017TIP3    H2 3016   6.826   3.915   4.279 -3.0367  0.4896  1.0763
 1018TIP3   OH2 3017   3.695   5.708   4.470  0.3789  0.2432  0.3468
 1018TIP3    H1 3018   3.720   5.657   4.547  1.0927  1.3749  0.8952
 1018TIP3    H2 3019   3.666   5.643   4.406  1.7985 -0.9085  0.8131
 1019TIP3   OH2 3020   6.480   4.078   2.226  0.2408 -0.5123 -0.1164
 1019TIP3    H1 3021   6.407   4.135   2.252  0.3276 -0.3196 -0.2983
 1019TIP3    H2 3022   6.509   4.113   2.142  0.7187 -0.4301  0.0835
 1020TIP3   OH2 3023   2.803   6.097   3.192  0.3506 -0.4464  0.3861
 1020TIP3    H1 3024   2.897   6.088   3.175 -0.0270 -2.4055 -0.9139
 1020TIP3    H2 3025   2.773   6.160   3.126  0.6900 -0.0507  0.6065
 1021TIP3   OH2 3026   1.517   6.747   5.017 -0.0260 -0.0942  0.1065
 1021TIP3    H1 3027   1.531   6.654   4.998  1.1259  0.1643 -0.4198
 1021TIP3    H2 3028   1.507   6.751   5.112  1.2086 -0.6258  0.2800
 1022TIP3   OH2 3029   6.774   3.777   3.162  0.2240 -0.4475  0.3790
 1022TIP3    H1 3030   6.724   3.764   3.081  1.7016 -2.0702 -0.3257
 1022TIP3    H2 3031   6.707   3.797   3.228 -1.0340  0.6866 -1.1598
 1023TIP3   OH2 3032   3.858   6.513   5.434  0.1110 -0.0170 -0.3526
 1023TIP3    H1 3033   3.785   6.561   5.473 -0.7737 -1.1649 -0.5655
 1023TIP3    H2 3034   3.833   6.421   5.441  0.7792 -0.3497 -1.9333
 1024TIP3   OH2 3035   4.642   5.860   3.622  0.4863  0.0468  0.5204
 1024TIP3    H1 3036   4.601   5.946   3.615  1.6273  0.5025 -1.2020
 1024TIP3    H2 3037   4.581   5.800   3.579  0.3752  0.2540  0.3886
 1025TIP3   OH2 3038   5.227   5.444   4.073  0.1843 -0.1104  0.2988
 1025TIP3    H1 3039   5.173   5.369   4.050  0.6329 -0.6801  1.0698
 1025TIP3    H2 3040   5.197   5.514   4.014  0.4444 -1.1525 -1.1048
 1026TIP3   OH2 3041   4.959   0.618   5.053  0.0675 -0.0742  0.0504
 1026TIP3    H1 3042   5.010   0.596   4.975  0.1333 -0.1677  0.1201
 1026TIP3    H2 3043   5.024   0.631   5.122  0.0792  1.0172 -0.1435
 1027TIP3   OH2 3044   1.730   5.508   2.308 -0.0376  0.0804 -0.0913
 1027TIP3    H1 3045   1.713   5.579   2.246 -1.4735 -1.3832 -1.4551
 1027TIP3    H2 3046   1.823   5.489   2.297 -0.2010  0.0369 -1.6185
 1028TIP3   OH2 3047   3.076   6.146   3.151  0.7645 -0.2600 -0.0894
 1028TIP3    H1 3048   3.141   6.094   3.197  0.3129 -0.6543  0.1155
 1028TIP3    H2 3049   3.123   6.183   3.076  1.1968 -0.6092  0.0067
 1029TIP3   OH2 3050   6.634   2.220   4.579  0.5505 -0.0854 -0.1318
 1029TIP3    H1 3051   6.582   2.225   4.499 -0.4444  1.8737  0.5549
 1029TIP3    H2 3052   6.582   2.167   4.639 -0.9864  2.2008  0.6901
 1030TIP3   OH2 3053   0.406   4.166   4.170 -0.2001 -0.0245  0.1700
 1030TIP3    H1 3054   0.466   4.125   4.108 -1.0247  0.1321 -0.7472
 1030TIP3    H2 3055   0.344   4.214   4.116 -0.2704  1.0567  1.1558
 1031TIP3   OH2 3056   2.394   6.600   0.818  0.1713 -0.0307  0.0323
 1031TIP3    H1 3057   2.433   6.614   0.905 -1.9453  0.9319  0.9070
 1031TIP3    H2 3058   2.360   6.511   0.821  3.0790 -1.3306 -1.1561
 1032TIP3   OH2 3059   7.194   3.772   3.838  0.0011 -0.1057 -0.3112
 1032TIP3    H1 3060   7.274   3.798   3.793 -0.0692 -1.3428 -1.1933
 1032TIP3    H2 3061   7.125   3.823   3.796  0.2424  0.5677  0.0894
 1033TIP3   OH2 3062   5.102   6.256   5.078 -0.4342 -0.6848 -0.2890
 1033TIP3    H1 3063   5.133   6.167   5.092  0.1666 -0.5372 -0.6504
 1033TIP3    H2 3064   5.017   6.259   5.121 -0.3163 -1.3405 -0.0033
 1034TIP3   OH2 3065   0.582   6.319   2.007  0.1135 -0.1085  0.1779
 1034TIP3    H1 3066   0.600   6.241   1.955 -2.5530 -0.5215 -0.2686
 1034TIP3    H2 3067   0.528   6.287   2.079 -1.0169  1.3089 -0.0140
 1035TIP3   OH2 3068   3.785   3.275   2.885  0.1066 -0.1161  0.2227
 1035TIP3    H1 3069   3.809   3.364   2.909  0.6795 -0.5097  1.1986
 1035TIP3    H2 3070   3.766   3.279   2.792 -3.4199  1.7804  0.8533
 1036TIP3   OH2 3071   4.198   4.479   3.330  0.9969  0.0203  0.6451
 1036TIP3    H1 3072   4.118   4.476   3.382  1.3294  0.5017  1.1949
 1036TIP3    H2 3073   4.257   4.416   3.371  1.2527  0.3860  0.8444
 1037TIP3   OH2 3074   4.012   4.937   5.039  0.2792 -0.1210  0.2010
 1037TIP3    H1 3075   3.922   4.905   5.040 -0.3402  1.5389  0.4404
 1037TIP3    H2 3076   4.065   4.859   5.058 -1.1323 -1.0160  0.6327
 1038TIP3   OH2 3077   3.702   2.819   4.557  0.2716  0.3705 -0.0450
 1038TIP3    H1 3078   3.703   2.756   4.486  1.1516  2.4225 -1.9668
 1038TIP3    H2 3079   3.629   2.878   4.537  0.2244  0.7089  1.0208
 1039TIP3   OH2 3080   2.840   0.408   1.576  1.0051  0.0002 -0.4753
 1039TIP3    H1 3081   2.748   0.434   1.567  0.9276  0.0452  0.4047
 1039TIP3    H2 3082   2.844   0.361   1.659  1.9405  0.7132 -0.0996
 1040TIP3   OH2 3083   0.167   2.779   4.079 -0.1630 -0.5673  0.3467
 1040TIP3    H1 3084   0.150   2.837   4.004 -0.0515 -0.0335  0.7240
 1040TIP3    H2 3085   0.098   2.713   4.074  0.9525 -1.6864 -1.3275
 1041TIP3   OH2 3086   5.429   1.585   4.956  0.7076 -0.5743 -0.4403
 1041TIP3    H1 3087   5.490   1.564   4.885  0.4424 -2.2722 -0.2064
 1041TIP3    H2 3088   5.369   1.649   4.918  1.1780 -0.7057 -1.4323
 1042TIP3   OH2 3089   2.993   5.934   0.621 -0.2310  0.2814  0.2936
 1042TIP3    H1 3090   3.081   5.899   0.628 -0.0453  0.6689 -0.0711
 1042TIP3    H2 3091   3.004   6.020   0.579 -0.9628 -0.5490 -1.7277
 1043TIP3   OH2 3092   7.056   3.263   1.862 -0.4798 -0.3989  0.4416
 1043TIP3    H1 3093   7.087   3.339   1.910 -1.4175  1.2908 -1.4860
 1043TIP3    H2 3094   6.967   3.287   1.834  0.1208 -1.1223 -2.3676
 1044TIP3   OH2 3095   3.991   0.936   3.659  0.1472  0.4366 -0.3080
 1044TIP3    H1 3096   4.044   0.899   3.729 -1.5961 -1.4281  0.1052
 1044TIP3    H2 3097   4.039   1.014   3.631  1.5677  0.4763  2.0169
 1045TIP3   OH2 3098   1.317   2.552   0.734 -1.0373 -0.4350 -0.1218
 1045TIP3    H1 3099   1.241   2.577   0.681 -0.0803 -0.5529 -1.6310
 1045TIP3    H2 3100   1.345   2.468   0.697  0.2836 -0.0099 -0.1530
 1046TIP3   OH2 3101   3.232   2.282   5.192 -0.4876  0.2571  0.2344
 1046TIP3    H1 3102   3.236   2.365   5.144 -1.7811 -0.3618 -1.0031
 1046TIP3    H2 3103   3.324   2.260   5.209 -0.0382  0.9787 -1.1066
 1047TIP3   OH2 3104   4.866   2.675   3.478  0.2244  0.3707  0.6717
 1047TIP3    H1 3105   4.819   2.731   3.540 -0.7505  1.1052 -0.6804
 1047TIP3    H2 3106   4.802   2.612   3.447  0.5452  0.3409  0.0312
 1048TIP3   OH2 3107   2.904   2.627   1.345 -0.2652 -0.1662  0.2887
 1048TIP3    H1 3108   2.870   2.698   1.400  1.3620  1.2681 -0.4706
 1048TIP3    H2 3109   2.912   2.665   1.258  0.5568 -1.3166 -0.1666
 1049TIP3   OH2 3110   6.105   6.017   2.918  0.0687 -0.1858  0.3363
 1049TIP3    H1 3111   6.154   6.028   2.999  0.4923  1.0358 -0.0644
 1049TIP3    H2 3112   6.052   6.096   2.911  0.8049  0.2294 -1.0714
 1050TIP3   OH2 3113   2.833   1.332   1.633 -0.2435  0.1446  0.1843
 1050TIP3    H1 3114   2.797   1.281   1.706 -0.5421  0.6180  0.3694
 1050TIP3    H2 3115   2.921   1.297   1.621  0.1526  0.6992  1.3894
 1051TIP3   OH2 3116   2.580   6.696   2.268 -0.3791 -0.8075 -0.3246
 1051TIP3    H1 3117   2.539   6.745   2.197  1.3212  0.9496 -0.1463
 1051TIP3    H2 3118   2.661   6.662   2.230  0.0081 -0.7883  0.4796
 1052TIP3   OH2 3119   2.740   4.746   2.075  0.2037 -0.2178 -0.2601
 1052TIP3    H1 3120   2.833   4.728   2.091  0.5225  0.2471 -1.4983
 1052TIP3    H2 3121   2.695   4.702   2.147  1.3365 -0.9173  0.0523
 1053TIP3   OH2 3122   3.790   5.129   1.386 -0.0241  0.1573  0.2709
 1053TIP3    H1 3123   3.762   5.218   1.408  1.6440  0.5427  0.9688
 1053TIP3    H2 3124   3.709   5.078   1.388 -1.2888  1.9081 -1.6357
 1054TIP3   OH2 3125   6.591   0.049   0.554  0.2227 -0.4614 -0.0398
 1054TIP3    H1 3126   6.654   0.088   0.615 -1.4297  0.1138  1.3820
 1054TIP3    H2 3127   6.642  -0.016   0.506  1.5550 -1.2325  2.2323
 1055TIP3   OH2 3128   4.840   2.947   3.072  0.0938 -0.7549 -0.3541
 1055TIP3    H1 3129   4.762   2.893   3.056  0.8730 -2.4889  1.2598
 1055TIP3    H2 3130   4.817   3.033   3.038 -2.2429 -1.4106 -0.6179
 1056TIP3   OH2 3131   5.116   6.812   2.029 -0.1998  0.3422 -0.0404
 1056TIP3    H1 3132   5.155   6.730   2.000 -0.2756  0.4655 -0.5008
 1056TIP3    H2 3133   5.124   6.810   2.125 -1.7941 -0.9877  0.1077
 1057TIP3   OH2 3134   6.417   0.195   2.601 -0.0814  0.5178 -0.5123
 1057TIP3    H1 3135   6.338   0.224   2.648  0.3231 -1.5079  1.6137
 1057TIP3    H2 3136   6.395   0.107   2.571  0.5173  0.9111 -2.1620
 1058TIP3   OH2 3137   5.947   0.887   3.950 -0.1715 -0.1326  0.0571
 1058TIP3    H1 3138   5.945   0.982   3.958  1.0794  0.2749 -3.0555
 1058TIP3    H2 3139   6.015   0.859   4.011 -0.6216  0.9353  1.0841
 1059TIP3   OH2 3140   3.233   1.981   2.047  0.6982 -0.2905 -0.1445
 1059TIP3    H1 3141   3.241   1.886   2.052 -0.4120 -0.3526  1.4637
 1059TIP3    H2 3142   3.317   2.013   2.081  0.4980 -0.7344  0.8206
 1060TIP3   OH2 3143   0.557   4.938   5.003 -0.1385 -0.4080 -0.4984
 1060TIP3    H1 3144   0.530   4.996   4.932 -0.8547  1.6015  1.3011
 1060TIP3    H2 3145   0.610   4.993   5.060  2.0388 -2.4638 -0.3833
 1061TIP3   OH2 3146   6.842   3.750   5.403  0.2821 -0.1955 -0.6458
 1061TIP3    H1 3147   6.869   3.665   5.437 -0.9365 -0.2982  0.1432
 1061TIP3    H2 3148   6.793   3.790   5.475  1.1791  1.3614 -0.8426
 1062TIP3   OH2 3149   2.220   2.000   4.291 -0.4683 -0.0517 -0.2170
 1062TIP3    H1 3150   2.276   2.060   4.341  0.1866 -0.4388 -0.4781
 1062TIP3    H2 3151   2.131   2.018   4.323 -0.1303  0.1327  0.6589
 1063TIP3   OH2 3152   2.260   0.727   5.679 -0.1477 -0.2264 -0.0292
 1063TIP3    H1 3153   2.290   0.759   5.764  1.0597  0.2349 -0.6090
 1063TIP3    H2 3154   2.281   0.798   5.618 -1.4435 -0.3497 -0.6531
 1064TIP3   OH2 3155   6.249   1.883   5.444  0.4731  0.0836  0.1682
 1064TIP3    H1 3156   6.276   1.805   5.492  0.8375  0.0582 -0.0722
 1064TIP3    H2 3157   6.231   1.948   5.512  1.4819  0.2106  0.3348
 1065TIP3   OH2 3158   1.708   3.327   3.743 -0.1646  0.1492 -0.3264
 1065TIP3    H1 3159   1.650   3.403   3.738  0.4411  0.6040 -0.6214
 1065TIP3    H2 3160   1.776   3.345   3.678  0.1476 -0.5089 -0.1889
 1066TIP3   OH2 3161   2.407   6.426   5.332  0.1473 -0.7490 -0.0559
 1066TIP3    H1 3162   2.452   6.424   5.416 -0.4359 -2.3851  0.2655
 1066TIP3    H2 3163   2.475   6.406   5.268  0.1684 -1.8658  0.2900
 1067TIP3   OH2 3164   0.582   1.526   0.567  0.8523 -0.1419 -0.3267
 1067TIP3    H1 3165   0.635   1.450   0.544 -0.5687 -1.0118 -0.9348
 1067TIP3    H2 3166   0.517   1.531   0.497  0.3181  1.0577  0.2216
 1068TIP3   OH2 3167   4.337   1.139   1.161  0.2070  0.9173 -0.2591
 1068TIP3    H1 3168   4.260   1.142   1.218  0.5237  1.9319  0.1307
 1068TIP3    H2 3169   4.406   1.181   1.212  1.2770 -0.7758 -0.2477
 1069TIP3   OH2 3170   4.435   0.686   0.205  0.3010  0.1712 -0.0291
 1069TIP3    H1 3171   4.433   0.782   0.207 -2.1109  0.1779  1.6570
 1069TIP3    H2 3172   4.367   0.662   0.141  0.9542 -0.4555 -0.5120
 1070TIP3   OH2 3173   5.084   5.430   3.426  0.9601  0.1885 -0.6788
 1070TIP3    H1 3174   5.009   5.489   3.422  0.9667  0.2573  0.0655
 1070TIP3    H2 3175   5.069   5.367   3.355 -0.6403 -0.7742  0.4542
 1071TIP3   OH2 3176   6.537   4.395   2.257  0.4477  0.7674 -0.2588
 1071TIP3    H1 3177   6.491   4.343   2.323  2.1630  0.8100  1.0447
 1071TIP3    H2 3178   6.618   4.347   2.241  0.0178  0.6782 -2.5025
 1072TIP3   OH2 3179   3.163   6.195   3.849 -0.3129 -0.2741 -0.0825
 1072TIP3    H1 3180   3.199   6.158   3.929  2.7175  1.9643 -0.2466
 1072TIP3    H2 3181   3.173   6.126   3.783  3.1288 -0.0756  0.0999
 1073TIP3   OH2 3182   2.324   1.852   0.393 -0.3330 -0.3612 -0.1034
 1073TIP3    H1 3183   2.249   1.870   0.336  0.2481  2.3302 -0.1802
 1073TIP3    H2 3184   2.305   1.899   0.474  1.4865  0.9341 -0.3635
 1074TIP3   OH2 3185  -0.000   3.208   3.897  0.0507 -0.1120 -0.4522
 1074TIP3    H1 3186  -0.029   3.236   3.810  0.2339  1.6827  0.0304
 1074TIP3    H2 3187   0.070   3.269   3.920 -0.2286 -0.3496  1.1020
 1075TIP3   OH2 3188   5.144   5.083   0.164 -0.2754  0.1763  0.1727
 1075TIP3    H1 3189   5.138   5.014   0.097  1.5424 -0.2334  0.3874
 1075TIP3    H2 3190   5.070   5.140   0.145 -1.5987 -1.5977 -0.2711
 1076TIP3   OH2 3191   3.683   2.786   0.322  0.2847 -0.7109  0.0695
 1076TIP3    H1 3192   3.749   2.834   0.272 -0.6219 -0.8843 -1.3621
 1076TIP3    H2 3193   3.654   2.848   0.389  0.9541 -0.1688 -0.1277
 1077TIP3   OH2 3194   2.258   4.753   2.187 -0.3847  0.0636 -0.3455
 1077TIP3    H1 3195   2.270   4.744   2.092  0.7092 -2.5057 -0.0391
 1077TIP3    H2 3196   2.237   4.665   2.217  2.4199  0.1273  2.2082
 1078TIP3   OH2 3197   3.333   0.235   2.159 -0.2900 -0.1053  0.5693
 1078TIP3    H1 3198   3.268   0.298   2.128  1.6947  0.4911 -2.8382
 1078TIP3    H2 3199   3.285   0.153   2.166 -1.2832 -0.0900 -3.4737
 1079TIP3   OH2 3200   2.236   0.420   4.782 -0.1204  0.5757  0.4689
 1079TIP3    H1 3201   2.321   0.385   4.810 -1.1835 -1.2353  1.6277
 1079TIP3    H2 3202   2.193   0.347   4.738 -1.0686  1.4814 -0.1451
 1080TIP3   OH2 3203   6.685   3.683   4.634 -0.0657  0.1991 -0.5134
 1080TIP3    H1 3204   6.741   3.609   4.656 -0.6282  0.3245  1.5242
 1080TIP3    H2 3205   6.597   3.647   4.634 -0.3108  0.7701  0.1396
 1081TIP3   OH2 3206   0.710   2.950   4.815 -0.4346 -0.0781  0.0114
 1081TIP3    H1 3207   0.625   2.909   4.835  0.0634 -0.7903  0.7303
 1081TIP3    H2 3208   0.771   2.876   4.810  0.3833  0.5286  0.7847
 1082TIP3   OH2 3209   2.933   3.405   3.975  0.1974 -0.1873 -0.0785
 1082TIP3    H1 3210   2.950   3.424   4.068 -0.8114 -0.0764  0.0922
 1082TIP3    H2 3211   2.992   3.332   3.955  0.8105  0.1361  0.5016
 1083TIP3   OH2 3212   5.896   4.677   2.459 -0.0591  0.0923 -0.0766
 1083TIP3    H1 3213   5.937   4.692   2.374  0.5124  3.4363  0.6350
 1083TIP3    H2 3214   5.967   4.649   2.516  0.6508  2.4520  0.3154
 1084TIP3   OH2 3215   2.973   0.804   3.089 -0.2809  0.9250 -0.4103
 1084TIP3    H1 3216   3.000   0.783   3.000  0.9362  1.9761 -0.3283
 1084TIP3    H2 3217   2.930   0.889   3.081  1.3557  1.8732  0.1788
 1085TIP3   OH2 3218   6.965   4.078   1.803  0.0646  0.2320 -0.1288
 1085TIP3    H1 3219   7.019   4.021   1.856 -1.4530 -1.0703  0.0816
 1085TIP3    H2 3220   6.954   4.031   1.720 -1.8997 -0.2416  0.3544
 1086TIP3   OH2 3221   3.872   6.187   4.507 -0.6896 -0.2607 -0.1138
 1086TIP3    H1 3222   3.932   6.130   4.556 -0.5215  0.6507  0.7705
 1086TIP3    H2 3223   3.807   6.127   4.469 -0.8245 -1.0002  1.2319
 1087TIP3   OH2 3224   0.082   3.278   0.472 -0.0997  0.1398 -0.8996
 1087TIP3    H1 3225   0.007   3.269   0.413  0.7565 -1.6921 -1.7934
 1087TIP3    H2 3226   0.143   3.334   0.425 -1.3435  2.7486  0.3817
 1088TIP3   OH2 3227   6.511   4.641   1.860 -0.2429  0.4782  0.1426
 1088TIP3    H1 3228   6.416   4.641   1.877 -0.4063 -0.5831 -0.6655
 1088TIP3    H2 3229   6.545   4.710   1.916 -1.1648 -0.7220  2.3355
 1089TIP3   OH2 3230   3.378   1.239   4.086  0.7488 -0.6041 -0.1192
 1089TIP3    H1 3231   3.450   1.282   4.132  0.7678  0.2942 -0.9708
 1089TIP3    H2 3232   3.302   1.256   4.141  0.9677 -0.5141  0.1623
 1090TIP3   OH2 3233   5.606   5.866   1.696  0.1617 -0.1503  0.2682
 1090TIP3    H1 3234   5.552   5.791   1.720  1.3123 -0.9548  0.4410
 1090TIP3    H2 3235   5.544   5.936   1.677 -0.9053 -0.8027  1.2605
 1091TIP3   OH2 3236   4.787   1.208   5.516  0.2336 -0.1601 -0.0839
 1091TIP3    H1 3237   4.816   1.116   5.514  1.1900  0.1350 -0.4338
 1091TIP3    H2 3238   4.826   1.243   5.596 -2.6013 -0.7974  1.7030
 1092TIP3   OH2 3239   0.438   1.118   2.036 -0.1628 -0.0153 -0.4281
 1092TIP3    H1 3240   0.465   1.119   2.128 -2.2232  0.2021  0.2350
 1092TIP3    H2 3241   0.395   1.203   2.023  0.0484 -0.0744 -1.5789
 1093TIP3   OH2 3242   1.252   5.282   1.990  0.7698  0.3255  0.2844
 1093TIP3    H1 3243   1.324   5.305   2.050 -0.5165  2.1136  1.2262
 1093TIP3    H2 3244   1.195   5.358   1.990  0.4076  0.2063 -2.8665
 1094TIP3   OH2 3245   5.813   2.518   1.486  0.2277 -0.1709  0.8248
 1094TIP3    H1 3246   5.797   2.436   1.439 -2.1960  0.7562 -0.1363
 1094TIP3    H2 3247   5.896   2.504   1.531 -0.6973 -3.6319  1.7576
 1095TIP3   OH2 3248   2.784   2.185   5.282  0.1064 -0.4269 -0.3060
 1095TIP3    H1 3249   2.790   2.185   5.186  1.2633  3.9162 -0.4803
 1095TIP3    H2 3250   2.874   2.172   5.311  0.2657  1.0782 -0.0253
 1096TIP3   OH2 3251   2.576   0.916   3.305  0.1093  0.4335  0.4675
 1096TIP3    H1 3252   2.571   0.936   3.212 -1.5066  1.8690  0.8042
 1096TIP3    H2 3253   2.661   0.950   3.333  0.9921 -0.8136 -0.6294
 1097TIP3   OH2 3254   5.483   1.756   4.703 -0.1532 -0.0337  0.7571
 1097TIP3    H1 3255   5.435   1.836   4.724  1.1697  0.8667  0.4526
 1097TIP3    H2 3256   5.472   1.745   4.609  0.1070  0.0755  0.7152
 1098TIP3   OH2 3257   0.473   3.399   5.542 -0.2506  0.1929  0.2221
 1098TIP3    H1 3258   0.417   3.394   5.619  1.0798  0.5574  1.2356
 1098TIP3    H2 3259   0.546   3.340   5.560  1.0781  1.7354  0.1144
 1099TIP3   OH2 3260   0.621   6.337   1.125 -0.4227 -0.0857 -0.0220
 1099TIP3    H1 3261   0.647   6.383   1.205 -1.4902  1.3901 -0.5019
 1099TIP3    H2 3262   0.543   6.288   1.150 -0.2062 -0.3809  0.0791
 1100TIP3   OH2 3263   6.770   6.789   3.883 -0.0646 -0.1170 -0.0732
 1100TIP3    H1 3264   6.848   6.752   3.924  1.2081  1.6629 -0.7569
 1100TIP3    H2 3265   6.773   6.882   3.906 -1.2465  0.2361 -1.2390
 1101TIP3   OH2 3266   1.631   3.534   2.980 -0.2249  0.3011  0.2963
 1101TIP3    H1 3267   1.725   3.542   2.999  0.0155 -1.9200  0.3287
 1101TIP3    H2 3268   1.615   3.599   2.912  1.4989  0.2696 -0.2006
 1102TIP3   OH2 3269   3.272   1.388   0.489  0.4597  0.0268  0.6370
 1102TIP3    H1 3270   3.291   1.388   0.395 -1.8822  0.8686  0.1202
 1102TIP3    H2 3271   3.191   1.338   0.497  0.3159  0.4616  2.1564
 1103TIP3   OH2 3272   5.310   0.347   0.775 -0.0207  0.4297 -0.5139
 1103TIP3    H1 3273   5.243   0.328   0.841  0.4932 -1.9209 -0.5852
 1103TIP3    H2 3274   5.360   0.420   0.812  1.0490 -1.5989  2.3563
 1104TIP3   OH2 3275   2.017   2.208   5.639  0.3320 -0.3782  0.6857
 1104TIP3    H1 3276   2.097   2.197   5.692 -0.8928  0.2444  2.7998
 1104TIP3    H2 3277   1.953   2.151   5.682 -0.7656  0.2880 -0.0367
 1105TIP3   OH2 3278   0.077   0.384   2.645 -0.4045 -0.1921 -0.3046
 1105TIP3    H1 3279  -0.015   0.405   2.628 -0.8229  1.3847  3.1042
 1105TIP3    H2 3280   0.124   0.465   2.625 -0.1391 -0.1848  0.3234
 1106TIP3   OH2 3281   1.590   3.569   1.244 -0.1841 -0.1790  0.1395
 1106TIP3    H1 3282   1.596   3.534   1.155  1.7249 -1.0899  0.5717
 1106TIP3    H2 3283   1.504   3.610   1.248 -0.8158 -1.1985 -1.7417
 1107TIP3   OH2 3284   1.608   3.567   5.563  0.7158  0.3426 -0.0971
 1107TIP3    H1 3285   1.703   3.580   5.567  0.7525 -0.0768  2.2288
 1107TIP3    H2 3286   1.593   3.485   5.610 -0.8555  0.8338  0.3458
 1108TIP3   OH2 3287   1.476   5.724   2.187  0.0455 -0.4868  0.0355
 1108TIP3    H1 3288   1.564   5.705   2.155  0.2169 -0.6009  0.5622
 1108TIP3    H2 3289   1.461   5.659   2.256 -1.2547 -1.8480 -1.4361
 1109TIP3   OH2 3290   2.252   0.793   1.123 -0.3659 -0.2292 -0.1008
 1109TIP3    H1 3291   2.255   0.705   1.160 -1.1811 -0.1773  0.1154
 1109TIP3    H2 3292   2.343   0.822   1.122 -0.1593 -0.8394  0.3947
 1110TIP3   OH2 3293   7.092   1.972   4.199  0.1139 -0.1738  0.1582
 1110TIP3    H1 3294   7.033   1.902   4.228 -1.3748  0.7030 -0.5982
 1110TIP3    H2 3295   7.177   1.929   4.187 -0.7684 -1.8674 -0.3432
 1111TIP3   OH2 3296   4.045   1.220   4.152  0.2514  0.0694  0.7875
 1111TIP3    H1 3297   4.069   1.133   4.120 -0.9891 -1.2114  3.1391
 1111TIP3    H2 3298   4.127   1.258   4.183  0.6916 -0.5113  0.3533
 1112TIP3   OH2 3299   5.753   0.537   2.255  0.4227  0.3441 -0.0596
 1112TIP3    H1 3300   5.700   0.545   2.175 -0.0183 -0.7794  0.1022
 1112TIP3    H2 3301   5.789   0.448   2.251 -0.4952 -0.1411  1.5176
 1113TIP3   OH2 3302   2.973   3.333   0.487  0.2288 -0.0839  0.3467
 1113TIP3    H1 3303   2.907   3.393   0.453 -0.4771 -0.6953  0.6139
 1113TIP3    H2 3304   2.925   3.251   0.502  1.5320 -1.3640 -1.8706
 1114TIP3   OH2 3305   2.082   3.738   4.723 -0.1479  0.5733 -0.1036
 1114TIP3    H1 3306   2.175   3.743   4.700  0.3397 -0.4405  1.4768
 1114TIP3    H2 3307   2.075   3.788   4.805 -0.6322 -0.7772  0.7081
 1115TIP3   OH2 3308   1.557   3.067   0.731  0.1700  0.3005 -0.0700
 1115TIP3    H1 3309   1.469   3.036   0.710 -0.1903  1.3194 -0.0963
 1115TIP3    H2 3310   1.573   3.037   0.820 -0.3095  0.3559  0.0345
 1116TIP3   OH2 3311   1.997   0.601   3.599 -0.2525  0.4883 -0.4352
 1116TIP3    H1 3312   2.072   0.605   3.539  0.1619 -1.5929 -0.1524
 1116TIP3    H2 3313   2.015   0.668   3.665  0.6532  0.9619 -1.1338
 1117TIP3   OH2 3314   5.393   0.665   2.047  0.8973  0.2339  0.1538
 1117TIP3    H1 3315   5.412   0.719   2.124  1.7318 -1.8954  1.5442
 1117TIP3    H2 3316   5.479   0.651   2.006  1.2464 -2.3359  1.5217
 1118TIP3   OH2 3317   1.983   2.720   5.692 -0.6860  0.4517  0.0984
 1118TIP3    H1 3318   2.041   2.720   5.768 -0.2974  1.7775 -0.1800
 1118TIP3    H2 3319   1.977   2.628   5.667 -0.1119  0.0984  1.1934
 1119TIP3   OH2 3320   3.484   1.162   3.825 -0.3841  0.6476 -0.0101
 1119TIP3    H1 3321   3.541   1.239   3.827 -2.1500  2.0183 -0.5592
 1119TIP3    H2 3322   3.442   1.161   3.911 -2.2940  1.8704 -0.8656
 1120TIP3   OH2 3323   2.999   1.890   5.120  0.2730 -0.4433  0.0916
 1120TIP3    H1 3324   2.987   1.904   5.213 -1.6976 -0.3199 -0.1526
 1120TIP3    H2 3325   3.045   1.969   5.090  3.9712 -1.8937  1.4250
 1121TIP3   OH2 3326   3.039   0.486   3.991  0.9318  0.2927  0.3918
 1121TIP3    H1 3327   3.095   0.410   4.004  1.8787  1.0893  1.1118
 1121TIP3    H2 3328   2.951   0.455   4.013  0.6283 -1.5969 -2.9273
 1122TIP3   OH2 3329   1.542   1.668   4.482  0.1384  0.0293  0.5947
 1122TIP3    H1 3330   1.478   1.597   4.492  0.2035 -0.2927 -1.0111
 1122TIP3    H2 3331   1.624   1.632   4.516 -0.3506  0.1760  1.9624
 1123TIP3   OH2 3332   5.974   1.756   5.360 -0.9926 -0.3495 -0.3898
 1123TIP3    H1 3333   6.049   1.725   5.411 -0.1477  0.2265 -1.2317
 1123TIP3    H2 3334   5.922   1.807   5.422 -1.5472 -2.0330  0.6015
 1124TIP3   OH2 3335   0.388   3.181   1.372 -0.0165  0.3475  0.5662
 1124TIP3    H1 3336   0.429   3.120   1.434 -0.2994  0.7706  1.1871
 1124TIP3    H2 3337   0.333   3.237   1.427 -0.9101  0.2097 -0.1694
 1125TIP3   OH2 3338   1.940   2.773   2.632  0.2367 -0.6732 -0.3011
 1125TIP3    H1 3339   1.926   2.739   2.721 -1.3812  0.9672  0.1334
 1125TIP3    H2 3340   1.892   2.712   2.576 -0.9929 -0.2504  0.2542
 1126TIP3   OH2 3341   6.617   5.292   2.868  0.0018  0.1605 -0.6355
 1126TIP3    H1 3342   6.651   5.378   2.894  0.0656 -0.2597  0.7230
 1126TIP3    H2 3343   6.649   5.232   2.935 -1.1247 -0.7115 -0.8543
 1127TIP3   OH2 3344   4.286   5.808   1.219 -0.0160  0.0987  0.1071
 1127TIP3    H1 3345   4.211   5.756   1.189 -0.2738  1.1344 -1.1125
 1127TIP3    H2 3346   4.362   5.763   1.181 -0.1921  0.2513 -0.4376
 1128TIP3   OH2 3347   2.159   1.131   0.372 -0.2078 -0.2270  0.5138
 1128TIP3    H1 3348   2.232   1.093   0.422  0.0794 -1.4046 -0.7486
 1128TIP3    H2 3349   2.084   1.125   0.431 -0.0208 -2.1965  0.6279
 1129TIP3   OH2 3350   3.199   0.578   1.832  0.3294  0.3292 -0.2789
 1129TIP3    H1 3351   3.168   0.543   1.916 -0.3172 -0.0888 -0.6755
 1129TIP3    H2 3352   3.240   0.661   1.854 -3.0652  2.0799  0.0718
 1130TIP3   OH2 3353   6.165   1.752   0.699  0.3809  0.5548 -0.8042
 1130TIP3    H1 3354   6.077   1.731   0.730  0.4829  0.6032 -0.4807
 1130TIP3    H2 3355   6.189   1.676   0.646  0.0882  0.6059 -1.0132
 1131TIP3   OH2 3356   0.716   3.049   2.489  0.0577  0.2707  0.1422
 1131TIP3    H1 3357   0.803   3.032   2.453 -0.2912 -0.4648 -0.3895
 1131TIP3    H2 3358   0.685   2.963   2.518 -0.4336  0.5496  0.4435
 1132TIP3   OH2 3359   5.081   6.488   0.189 -0.0326  0.2721  0.0948
 1132TIP3    H1 3360   5.039   6.534   0.116 -0.4028  0.4408  0.4141
 1132TIP3    H2 3361   5.168   6.527   0.195  0.8587 -1.2462 -1.6838
 1133TIP3   OH2 3362   4.849   5.676   3.657 -0.3649  0.7884  0.8504
 1133TIP3    H1 3363   4.840   5.646   3.567  0.0009  0.6071  0.8708
 1133TIP3    H2 3364   4.784   5.746   3.666  1.6283  2.9946 -0.4880
 1134TIP3   OH2 3365   2.888   2.177   0.382  0.2148  0.0753 -0.3268
 1134TIP3    H1 3366   2.857   2.087   0.399  2.1893 -0.9770 -1.8332
 1134TIP3    H2 3367   2.827   2.233   0.430 -1.2631 -2.0547  0.4352
 1135TIP3   OH2 3368   5.932   2.468   4.908  0.2224 -0.0363  0.1799
 1135TIP3    H1 3369   5.859   2.499   4.962  0.8752  1.8964  0.0332
 1135TIP3    H2 3370   5.993   2.429   4.970  0.3659  0.9691  0.6885
 1136TIP3   OH2 3371   0.141   3.910   0.549  0.0731  0.3501 -0.4457
 1136TIP3    H1 3372   0.184   3.834   0.509 -1.4240 -1.1271  0.5966
 1136TIP3    H2 3373   0.047   3.891   0.542 -0.3114  0.5572  2.5490
 1137TIP3   OH2 3374   4.280   6.129   1.293 -0.1827  0.0645  0.7240
 1137TIP3    H1 3375   4.246   6.040   1.301 -2.4264  0.8150  0.2176
 1137TIP3    H2 3376   4.368   6.117   1.257 -0.8146 -1.9181 -0.3592
 1138TIP3   OH2 3377   2.507   3.404   2.377  0.3013  0.3615  0.0150
 1138TIP3    H1 3378   2.525   3.495   2.353 -0.7322  0.5251 -0.1654
 1138TIP3    H2 3379   2.561   3.352   2.317 -0.2902  0.8243 -0.9272
 1139TIP3   OH2 3380   6.425   6.746   5.724 -0.3840  0.4654  0.6409
 1139TIP3    H1 3381   6.396   6.821   5.776  0.6102  0.4041  1.3223
 1139TIP3    H2 3382   6.496   6.781   5.670 -1.0633  0.4062 -0.3099
 1140TIP3   OH2 3383   7.173   5.804   5.158 -0.1503  0.5398 -0.9397
 1140TIP3    H1 3384   7.217   5.730   5.199 -0.7133  0.7540  0.1000
 1140TIP3    H2 3385   7.196   5.798   5.065  0.0404 -0.7540 -0.8218
 1141TIP3   OH2 3386   2.629   4.199   0.385  0.4599 -0.0508  0.2741
 1141TIP3    H1 3387   2.680   4.121   0.363  0.9772  0.4237 -0.2301
 1141TIP3    H2 3388   2.575   4.172   0.459  0.4838 -0.9495 -0.0247
 1142TIP3   OH2 3389   6.067   3.606   5.437 -0.2562 -0.1189 -0.0384
 1142TIP3    H1 3390   6.093   3.556   5.359  0.3776  0.9801 -0.5596
 1142TIP3    H2 3391   6.145   3.609   5.491  0.2705  1.7557 -0.8254
 1143TIP3   OH2 3392   1.928   0.756   1.985  0.1668 -0.3266  0.7593
 1143TIP3    H1 3393   1.980   0.827   1.948 -0.1460  0.4519  1.7483
 1143TIP3    H2 3394   1.916   0.780   2.077 -0.3002 -1.4581  1.0176
 1144TIP3   OH2 3395   1.278   3.776   0.472 -0.2802  0.0524  0.1710
 1144TIP3    H1 3396   1.246   3.813   0.390  0.1963  2.6036  1.0521
 1144TIP3    H2 3397   1.204   3.782   0.532 -0.2196 -0.5321  0.3118
 1145TIP3   OH2 3398   6.510   1.972   4.740 -0.1977 -0.1394  0.1448
 1145TIP3    H1 3399   6.426   1.993   4.780 -0.5183 -1.1594  0.0341
 1145TIP3    H2 3400   6.575   1.998   4.805 -0.5571  1.1171  0.0310
 1146TIP3   OH2 3401   6.879   0.570   4.137 -0.1981 -0.0330  0.3310
 1146TIP3    H1 3402   6.926   0.572   4.054 -1.0787 -2.1344 -0.2865
 1146TIP3    H2 3403   6.849   0.479   4.146 -0.1699  0.1179  2.9374
 1147TIP3   OH2 3404   2.036   6.213   1.595  0.3145 -0.5752 -0.0798
 1147TIP3    H1 3405   1.970   6.165   1.645  0.3353 -1.0180 -0.4749
 1147TIP3    H2 3406   2.051   6.293   1.646 -1.4985  0.1797 -0.6593
 1148TIP3   OH2 3407   5.662   3.821   2.881  0.2618 -0.2007 -0.2857
 1148TIP3    H1 3408   5.655   3.725   2.878  0.7078 -0.2658  0.5014
 1148TIP3    H2 3409   5.574   3.851   2.902  0.4849 -0.5542  1.3166
 1149TIP3   OH2 3410   7.013   0.028   0.886 -0.0886  0.3100  0.0551
 1149TIP3    H1 3411   7.106   0.048   0.878 -0.2592  0.9625 -0.4113
 1149TIP3    H2 3412   7.006  -0.064   0.863  0.4306  0.2813 -0.0002
 1150TIP3   OH2 3413   3.241   5.165   0.179 -0.0569  0.0533  0.0045
 1150TIP3    H1 3414   3.322   5.173   0.128  0.2895 -0.6981  0.4200
 1150TIP3    H2 3415   3.176   5.212   0.127  0.6052  0.5191 -0.4226
 1151TIP3   OH2 3416   2.532   4.493   1.064 -0.3282 -0.0701  0.7853
 1151TIP3    H1 3417   2.478   4.490   1.143 -0.6217 -0.6891  0.5704
 1151TIP3    H2 3418   2.509   4.413   1.016  0.8758 -0.4222  0.7567
 1152TIP3   OH2 3419   5.963   1.197   0.087  0.2232 -0.2591 -0.1171
 1152TIP3    H1 3420   5.909   1.202   0.166 -0.1007  0.9805 -0.3916
 1152TIP3    H2 3421   6.016   1.118   0.099 -1.5130 -1.4351  0.2448
 1153TIP3   OH2 3422   1.194   3.926   0.208 -0.4940  0.2552 -0.7809
 1153TIP3    H1 3423   1.179   3.969   0.124 -0.2776  0.8090 -0.5467
 1153TIP3    H2 3424   1.244   3.990   0.258 -1.0950  0.1503 -0.0310
 1154TIP3   OH2 3425   1.504   2.025   5.273 -0.2355  0.4113  0.1075
 1154TIP3    H1 3426   1.492   2.080   5.350 -2.1778 -0.6665  0.6567
 1154TIP3    H2 3427   1.543   1.944   5.306 -0.5981  0.1464 -0.0897
 1155TIP3   OH2 3428   5.111   0.303   1.532 -0.1804 -0.5571 -0.3292
 1155TIP3    H1 3429   5.036   0.358   1.553 -0.8067 -1.2324 -0.7524
 1155TIP3    H2 3430   5.088   0.263   1.448  0.7739 -0.5633 -0.6007
 1156TIP3   OH2 3431   5.129   4.746   3.686  0.3838  0.4381 -0.1642
 1156TIP3    H1 3432   5.054   4.690   3.703 -0.2746  1.2982 -0.1831
 1156TIP3    H2 3433   5.151   4.730   3.594  2.8372 -2.8831  0.8128
 1157TIP3   OH2 3434   3.704   1.687   1.628 -0.3488  0.9240 -0.2307
 1157TIP3    H1 3435   3.669   1.769   1.662 -0.2018  0.5088  0.9967
 1157TIP3    H2 3436   3.642   1.661   1.560 -1.5805  0.9958  0.8179
 1158TIP3   OH2 3437   0.414   4.794   0.182  0.0432 -0.1637 -0.7553
 1158TIP3    H1 3438   0.430   4.700   0.179 -3.1518 -0.8250 -0.5957
 1158TIP3    H2 3439   0.423   4.824   0.091  0.8057 -0.6634 -0.8448
 1159TIP3   OH2 3440   0.073   3.456   1.127 -0.2010  0.3599 -0.1153
 1159TIP3    H1 3441   0.116   3.432   1.210 -0.6671 -0.6557 -0.1546
 1159TIP3    H2 3442   0.141   3.442   1.061  0.2833  1.5085  0.1140
 1160TIP3   OH2 3443   0.436   3.304   2.458 -0.1948  0.5496  0.2122
 1160TIP3    H1 3444   0.427   3.260   2.542  0.7363 -0.5644 -0.2331
 1160TIP3    H2 3445   0.364   3.269   2.405  0.5272 -0.4782 -0.1317
 1161TIP3   OH2 3446   6.993   1.022   4.199 -0.0278 -0.0188  0.0242
 1161TIP3    H1 3447   6.941   1.024   4.279  0.9658  1.0723  0.6828
 1161TIP3    H2 3448   7.051   0.947   4.210 -0.2479 -0.1772  0.1044
 1162TIP3   OH2 3449   7.176   3.669   2.981  0.0083  0.3915 -0.2903
 1162TIP3    H1 3450   7.232   3.593   2.966 -1.1359 -0.4243 -0.5663
 1162TIP3    H2 3451   7.100   3.635   3.029 -1.0847  1.0956 -1.4324
 1163TIP3   OH2 3452   6.208   0.993   3.828  0.0320 -0.5192  0.0540
 1163TIP3    H1 3453   6.258   1.027   3.754 -1.4306 -1.9816 -1.6886
 1163TIP3    H2 3454   6.175   1.071   3.872 -0.7183  0.4079 -2.0213
 1164TIP3   OH2 3455   3.006   5.092   2.363 -0.4134 -1.0116 -0.1454
 1164TIP3    H1 3456   3.070   5.106   2.293  0.9762 -0.8010  1.0986
 1164TIP3    H2 3457   3.026   5.005   2.397  0.0472 -0.4738  1.0333
 1165TIP3   OH2 3458   0.357   0.839   3.114 -0.0908 -0.0158 -0.0660
 1165TIP3    H1 3459   0.329   0.910   3.172 -0.4243 -0.0045 -0.2363
 1165TIP3    H2 3460   0.275   0.806   3.077  0.0241 -0.7752  0.3394
 1166TIP3   OH2 3461   0.579   5.153   3.785 -0.3357  0.1456  0.0681
 1166TIP3    H1 3462   0.500   5.190   3.746  0.7157  2.7799  0.1822
 1166TIP3    H2 3463   0.622   5.107   3.713 -1.2091  0.0578 -0.4019
 1167TIP3   OH2 3464   3.529   5.391   2.864 -0.0956  0.3200  0.3944
 1167TIP3    H1 3465   3.523   5.346   2.948 -1.9946 -1.5836 -0.6513
 1167TIP3    H2 3466   3.593   5.340   2.814  0.4070  0.9529  0.3708
 1168TIP3   OH2 3467   5.586   2.945   0.971  0.2036 -0.1630  0.2438
 1168TIP3    H1 3468   5.496   2.927   0.943  0.6925 -0.0848 -1.5181
 1168TIP3    H2 3469   5.607   3.029   0.931 -0.0434  1.5781  3.4685
 1169TIP3   OH2 3470   5.990   6.123   1.371 -0.2246  0.4745  0.3276
 1169TIP3    H1 3471   6.046   6.064   1.322 -2.2121  0.5591 -2.3139
 1169TIP3    H2 3472   5.996   6.206   1.324 -1.1035  1.0067  1.1146
 1170TIP3   OH2 3473   0.782   3.433   1.467  0.1385  0.5501  0.0908
 1170TIP3    H1 3474   0.825   3.379   1.534  2.1402 -0.2124 -1.6635
 1170TIP3    H2 3475   0.763   3.515   1.511 -0.4945 -0.6087  2.1220
 1171TIP3   OH2 3476   1.867   3.611   5.534 -0.2689  0.6890 -0.7548
 1171TIP3    H1 3477   1.933   3.615   5.465 -1.2378 -2.6638 -2.0885
 1171TIP3    H2 3478   1.917   3.602   5.615  0.9131  0.3997 -1.4948
 1172TIP3   OH2 3479   3.950   3.530   5.643  0.1065  0.0150  0.4502
 1172TIP3    H1 3480   3.992   3.616   5.635  1.3381 -0.5225  0.9700
 1172TIP3    H2 3481   3.871   3.547   5.693 -0.9255  1.2286 -1.4521
 1173TIP3   OH2 3482   4.706   3.220   2.136  0.4878 -0.6232  0.0910
 1173TIP3    H1 3483   4.614   3.245   2.139  1.2209  2.5717 -0.8918
 1173TIP3    H2 3484   4.713   3.163   2.059 -0.2638  1.2139 -1.4051
 1174TIP3   OH2 3485   6.910   5.766   5.277  0.2991  0.1085  0.0699
 1174TIP3    H1 3486   6.873   5.679   5.266 -0.7527  0.4898  0.5143
 1174TIP3    H2 3487   6.996   5.761   5.234 -1.1185 -0.1704 -2.9841
 1175TIP3   OH2 3488   2.987   5.601   0.586 -0.3640  0.0856 -0.1398
 1175TIP3    H1 3489   2.949   5.549   0.656 -0.8202 -0.7471 -0.9882
 1175TIP3    H2 3490   3.063   5.644   0.626 -0.4488 -0.6054  0.7762
 1176TIP3   OH2 3491   1.538   4.219   4.354  0.1947  0.6631  0.0135
 1176TIP3    H1 3492   1.530   4.304   4.399  2.6058  1.6521 -1.1988
 1176TIP3    H2 3493   1.540   4.155   4.425  0.5694  1.8629  1.1445
 1177TIP3   OH2 3494   1.636   1.641   1.937  0.4566  0.2452  0.3775
 1177TIP3    H1 3495   1.689   1.709   1.895 -0.1486  0.5258  0.0523
 1177TIP3    H2 3496   1.561   1.630   1.878 -0.0002  0.0719  0.9869
 1178TIP3   OH2 3497   6.007   6.297   4.671  0.6534 -0.4650  0.7011
 1178TIP3    H1 3498   6.011   6.315   4.765  0.7103  0.4381  0.5328
 1178TIP3    H2 3499   6.097   6.280   4.645  0.6652 -0.5121  0.7733
 1179TIP3   OH2 3500   0.461   0.914   1.387  1.0369  0.0591  0.1076
 1179TIP3    H1 3501   0.465   0.887   1.478 -0.7085  0.3488  0.3160
 1179TIP3    H2 3502   0.417   0.842   1.342  1.2344  0.2326 -0.3736
 1180TIP3   OH2 3503   4.648   4.443   0.955 -0.1811  0.0120  1.3844
 1180TIP3    H1 3504   4.681   4.530   0.935  1.2641 -0.6604  0.6815
 1180TIP3    H2 3505   4.561   4.441   0.916  0.1027  0.8668  0.6595
 1181TIP3   OH2 3506   5.891   1.198   3.384 -0.8689 -0.1636 -0.1939
 1181TIP3    H1 3507   5.959   1.132   3.372 -1.4846 -0.8786  0.1141
 1181TIP3    H2 3508   5.929   1.262   3.444 -0.5772 -0.7128  0.2158
 1182TIP3   OH2 3509   2.817   0.241   3.870  0.8439 -0.0098  0.0442
 1182TIP3    H1 3510   2.747   0.176   3.861 -0.6306  1.7550 -2.8498
 1182TIP3    H2 3511   2.815   0.267   3.962 -3.2854  0.8591 -0.1116
 1183TIP3   OH2 3512   1.597   1.757   5.010 -0.1441 -0.5586  0.4077
 1183TIP3    H1 3513   1.643   1.828   5.056 -0.2899  0.6686 -1.2217
 1183TIP3    H2 3514   1.635   1.757   4.922 -1.5008 -1.2007 -0.2147
 1184TIP3   OH2 3515   3.489   5.956   4.991 -0.0486 -0.1369 -0.0325
 1184TIP3    H1 3516   3.438   5.884   5.028 -1.0124  0.9352  0.7975
 1184TIP3    H2 3517   3.549   5.914   4.930 -0.7731 -1.6142  0.2304
 1185TIP3   OH2 3518   4.019   1.677   2.759  0.1894  0.0260  0.1155
 1185TIP3    H1 3519   4.070   1.727   2.823 -0.0111 -1.3779  1.4328
 1185TIP3    H2 3520   3.931   1.712   2.766 -0.0060 -0.6308  1.2144
 1186TIP3   OH2 3521   5.409   5.534   1.918  0.0305  0.7576 -0.7675
 1186TIP3    H1 3522   5.377   5.507   2.004  1.3920 -1.2632 -0.8128
 1186TIP3    H2 3523   5.358   5.481   1.856  1.1506 -0.0906 -0.9974
 1187TIP3   OH2 3524   6.575   5.836   0.347  0.3274 -0.5238  0.5608
 1187TIP3    H1 3525   6.609   5.915   0.389 -3.1007  1.9013 -0.8548
 1187TIP3    H2 3526   6.499   5.811   0.399  0.8450 -2.4490  0.4745
 1188TIP3   OH2 3527   3.926   5.194   4.348  0.6216  0.1551  0.9936
 1188TIP3    H1 3528   3.952   5.145   4.269  1.0288  0.0884  1.1701
 1188TIP3    H2 3529   3.867   5.134   4.394 -0.6911  0.6890  0.0880
 1189TIP3   OH2 3530   6.366   2.845   3.443 -0.2055  0.5159  0.4292
 1189TIP3    H1 3531   6.459   2.855   3.423 -0.4751  1.8409 -0.2803
 1189TIP3    H2 3532   6.363   2.827   3.537  0.8050 -0.4953  0.2856
 1190TIP3   OH2 3533   7.077   6.012   3.047  0.1437 -0.8168  0.0986
 1190TIP3    H1 3534   7.155   6.018   3.102  1.6064 -0.1437 -1.9260
 1190TIP3    H2 3535   7.044   5.923   3.062  1.0000 -0.9533  1.3441
 1191TIP3   OH2 3536   0.182   4.662   5.187  0.0145  0.5059  0.4198
 1191TIP3    H1 3537   0.229   4.595   5.136 -1.2844 -0.4291  0.3914
 1191TIP3    H2 3538   0.144   4.720   5.121  1.1142  1.2856  0.4437
 1192TIP3   OH2 3539   3.553   6.466   4.072  0.3547 -0.0430 -0.9927
 1192TIP3    H1 3540   3.496   6.542   4.069 -0.4731 -0.5703  0.5819
 1192TIP3    H2 3541   3.619   6.483   4.004  1.2421  2.8753  0.4251
 1193TIP3   OH2 3542   6.919   1.477   3.251  0.7679  0.3275 -0.0955
 1193TIP3    H1 3543   6.879   1.429   3.178 -0.0714  1.5526 -0.4569
 1193TIP3    H2 3544   7.013   1.466   3.237  0.6044 -0.2568 -0.8210
 1194TIP3   OH2 3545   6.664   4.416   1.886 -0.4412 -0.1102 -0.3478
 1194TIP3    H1 3546   6.610   4.490   1.857 -0.5673 -0.0609  0.0026
 1194TIP3    H2 3547   6.706   4.385   1.806  0.0003  0.6502 -0.4248
 1195TIP3   OH2 3548   4.110   4.688   1.539  0.0632 -0.4421  0.5638
 1195TIP3    H1 3549   4.078   4.655   1.624 -0.9549  1.3624  0.9351
 1195TIP3    H2 3550   4.046   4.755   1.514  2.0484  1.2988 -0.0926
 1196TIP3   OH2 3551   1.481   0.833   5.620 -0.1643  0.0034 -0.1676
 1196TIP3    H1 3552   1.562   0.849   5.668 -0.3380 -0.7875  0.4226
 1196TIP3    H2 3553   1.484   0.739   5.599 -1.8619 -0.5595  1.7308
 1197TIP3   OH2 3554   2.980   3.552   4.227 -0.0351 -0.3906  0.1145
 1197TIP3    H1 3555   2.937   3.599   4.297  0.9201 -0.2786  0.6381
 1197TIP3    H2 3556   3.072   3.548   4.253  0.3624 -0.2299 -1.1898
 1198TIP3   OH2 3557   2.052   2.536   3.151 -0.5305 -0.1994  0.0922
 1198TIP3    H1 3558   2.051   2.461   3.209  2.2239 -0.5325 -0.1629
 1198TIP3    H2 3559   2.143   2.566   3.151 -1.5701  3.4739  0.5834
 1199TIP3   OH2 3560   6.061   6.267   2.105  0.1575  0.2215 -0.3250
 1199TIP3    H1 3561   5.996   6.303   2.165  0.6707  1.6992 -0.5921
 1199TIP3    H2 3562   6.057   6.326   2.029  0.8547 -0.4796 -0.9168
 1200TIP3   OH2 3563   1.035   6.589   3.130  0.1343  0.2714 -0.6212
 1200TIP3    H1 3564   1.054   6.588   3.224 -0.3184 -1.1357 -0.5225
 1200TIP3    H2 3565   1.038   6.682   3.106 -0.5824  0.7404  0.9590
 1201TIP3   OH2 3566   5.190   3.108   4.316 -0.1354 -0.1723  0.4808
 1201TIP3    H1 3567   5.192   3.204   4.318  0.6128 -0.1456 -0.9114
 1201TIP3    H2 3568   5.105   3.086   4.277 -0.3302 -0.1014  0.8501
 1202TIP3   OH2 3569   5.480   5.390   1.371  0.1852 -0.0675  0.0435
 1202TIP3    H1 3570   5.564   5.389   1.416  1.0160 -0.6734 -1.4330
 1202TIP3    H2 3571   5.431   5.318   1.409  0.5533 -0.0733  0.5127
 1203TIP3   OH2 3572   0.221   3.102   2.071  0.2675 -0.3948 -0.1420
 1203TIP3    H1 3573   0.298   3.148   2.039 -0.5186  1.0646  0.0066
 1203TIP3    H2 3574   0.188   3.054   1.995  0.8485 -0.3700 -0.4118
 1204TIP3   OH2 3575   1.920   3.011   2.519  0.5559  0.1252 -0.4987
 1204TIP3    H1 3576   1.933   2.920   2.547  1.9212  0.4244 -0.0665
 1204TIP3    H2 3577   1.882   3.055   2.594  3.0235  0.6357  0.5466
 1205TIP3   OH2 3578   5.987   0.298   4.691  0.1355  0.1005  0.1935
 1205TIP3    H1 3579   6.073   0.288   4.649  0.4473  1.8173  0.3438
 1205TIP3    H2 3580   5.935   0.226   4.656  0.6713  0.8851 -2.4624
 1206TIP3   OH2 3581   2.113   3.672   2.415  0.2047  0.1882  0.1922
 1206TIP3    H1 3582   2.084   3.595   2.367  0.9803  0.1541 -0.2389
 1206TIP3    H2 3583   2.112   3.743   2.350  1.4314  0.1038  0.0687
 1207TIP3   OH2 3584   6.581   5.624   0.145  0.0788  0.3987 -0.1733
 1207TIP3    H1 3585   6.553   5.667   0.225  1.4451  0.2250  0.4185
 1207TIP3    H2 3586   6.612   5.695   0.088  0.1968  0.4119 -0.0921
 1208TIP3   OH2 3587   1.366   4.525   2.715 -0.4570  0.0225  0.4633
 1208TIP3    H1 3588   1.376   4.515   2.620  2.4236 -1.5153  0.8156
 1208TIP3    H2 3589   1.403   4.611   2.734 -1.3374  0.4752  0.2081
 1209TIP3   OH2 3590   0.275   0.636   5.409 -0.5795 -0.2153  0.3154
 1209TIP3    H1 3591   0.206   0.702   5.421 -0.4836  0.0524 -0.5096
 1209TIP3    H2 3592   0.356   0.687   5.407 -0.6427 -0.0151 -2.5516
 1210TIP3   OH2 3593   0.302   3.495   2.136 -0.0991 -0.3852  0.0067
 1210TIP3    H1 3594   0.317   3.400   2.133 -1.6728 -0.7816  2.2263
 1210TIP3    H2 3595   0.311   3.517   2.228 -0.0985  1.6039 -0.4334
 1211TIP3   OH2 3596   0.748   5.494   0.842 -0.2278 -0.4073  0.5406
 1211TIP3    H1 3597   0.753   5.416   0.786 -1.3410  0.3498 -0.6822
 1211TIP3    H2 3598   0.823   5.486   0.900  0.8016 -1.4260 -0.8412
 1212TIP3   OH2 3599   3.717   1.006   4.974  0.0927  0.1617 -0.1074
 1212TIP3    H1 3600   3.640   0.969   5.016  0.2103 -1.3277 -1.1467
 1212TIP3    H2 3601   3.682   1.073   4.915 -0.2883  0.3954  0.3788
 1213TIP3   OH2 3602   3.805   3.910   3.079 -0.1543  0.5022 -0.1944
 1213TIP3    H1 3603   3.733   3.953   3.033  0.0987  0.6330 -0.4708
 1213TIP3    H2 3604   3.776   3.819   3.089  1.1024 -0.4246 -3.5258
 1214TIP3   OH2 3605   3.871   0.522   4.607 -0.0046  0.4773  0.5087
 1214TIP3    H1 3606   3.955   0.511   4.651  1.3822  1.1056 -1.8000
 1214TIP3    H2 3607   3.874   0.461   4.533 -1.2484  1.0623 -0.0574
 1215TIP3   OH2 3608   4.876   2.222   2.197 -0.2408  0.0597  0.1795
 1215TIP3    H1 3609   4.838   2.274   2.127  0.6768  0.9485  0.3203
 1215TIP3    H2 3610   4.802   2.195   2.251 -0.6779  1.7831  0.4805
 1216TIP3   OH2 3611   2.333   5.217   2.078  0.5600  0.6243  0.4071
 1216TIP3    H1 3612   2.428   5.203   2.082  0.2782 -1.4811  1.3771
 1216TIP3    H2 3613   2.305   5.170   2.000  0.2116  0.2887  0.7250
 1217TIP3   OH2 3614   3.395   2.389   4.284 -0.4852  0.1196  0.0705
 1217TIP3    H1 3615   3.477   2.341   4.279 -0.1329  0.7311 -0.0514
 1217TIP3    H2 3616   3.372   2.388   4.376 -1.1540 -1.3906 -0.0754
 1218TIP3   OH2 3617   4.705   0.331   0.276  0.1914 -0.0729  0.1535
 1218TIP3    H1 3618   4.678   0.407   0.224 -0.6401  0.3482  1.1558
 1218TIP3    H2 3619   4.770   0.286   0.222  1.3247  1.8047 -0.1328
 1219TIP3   OH2 3620   2.180   5.876   1.732 -0.4267 -0.8180 -0.1233
 1219TIP3    H1 3621   2.210   5.959   1.696 -2.5478 -0.4983 -1.3553
 1219TIP3    H2 3622   2.219   5.809   1.676 -1.7158 -0.4290 -1.5544
 1220TIP3   OH2 3623   1.005   0.923   1.236  0.6980 -0.0300  0.2092
 1220TIP3    H1 3624   0.921   0.963   1.257 -0.3497 -1.3165 -1.3311
 1220TIP3    H2 3625   1.052   0.990   1.186 -0.6110 -0.2821 -1.4347
 1221TIP3   OH2 3626   4.057   2.555   4.662  0.0453 -0.2915  0.8696
 1221TIP3    H1 3627   4.081   2.589   4.575  1.1101 -2.4052  0.2610
 1221TIP3    H2 3628   3.991   2.616   4.694 -1.3579 -0.1336 -1.9963
 1222TIP3   OH2 3629   5.493   4.864   5.707  0.4446 -0.1403 -0.1678
 1222TIP3    H1 3630   5.549   4.929   5.748 -1.0053  0.3673  1.1306
 1222TIP3    H2 3631   5.480   4.896   5.618 -0.7725  1.7763  0.6236
 1223TIP3   OH2 3632   3.639   5.437   1.183  0.3829  0.4675  0.3179
 1223TIP3    H1 3633   3.644   5.417   1.277 -0.0397 -0.9068  0.0738
 1223TIP3    H2 3634   3.567   5.500   1.176 -0.1188 -0.0276  0.8408
 1224TIP3   OH2 3635   6.375   5.046   3.310 -0.0840 -0.8055  0.3652
 1224TIP3    H1 3636   6.304   5.096   3.270  1.3922 -0.1193 -1.4961
 1224TIP3    H2 3637   6.370   5.068   3.403 -0.9768  0.9068 -0.0557
 1225TIP3   OH2 3638   1.235   4.675   5.285  0.1156 -0.0178  0.0760
 1225TIP3    H1 3639   1.279   4.715   5.360 -1.0237 -1.0448  1.3295
 1225TIP3    H2 3640   1.192   4.748   5.241  1.0960  0.6489  0.1769
 1226TIP3   OH2 3641   5.680   1.106   0.828  0.6161 -0.8692 -0.1098
 1226TIP3    H1 3642   5.670   1.026   0.880 -0.0732 -1.5848 -1.3018
 1226TIP3    H2 3643   5.599   1.112   0.777  1.1849 -0.0915 -0.9525
 1227TIP3   OH2 3644   4.698   5.414   5.061 -0.1740 -0.5604  0.0401
 1227TIP3    H1 3645   4.664   5.324   5.064  0.1908 -0.8432 -2.3569
 1227TIP3    H2 3646   4.626   5.465   5.023  0.5546 -0.3829 -1.1521
 1228TIP3   OH2 3647   5.450   0.017   1.909 -0.6955  0.1435 -0.4226
 1228TIP3    H1 3648   5.510   0.086   1.939 -1.8972  0.6283  0.9607
 1228TIP3    H2 3649   5.417   0.050   1.825 -2.0018  1.7613  0.6773
 1229TIP3   OH2 3650   5.031   4.207   2.601  0.1123 -0.1866  0.1447
 1229TIP3    H1 3651   5.038   4.113   2.615  0.0317 -0.5270 -1.8093
 1229TIP3    H2 3652   4.941   4.229   2.628  0.1902 -0.6107  0.7800
 1230TIP3   OH2 3653   1.577   3.753   1.770  0.1289 -0.0095 -0.1067
 1230TIP3    H1 3654   1.645   3.787   1.828  0.2386 -1.3766  0.6029
 1230TIP3    H2 3655   1.572   3.660   1.791 -0.9138 -0.2257 -1.2200
 1231TIP3   OH2 3656   5.578   5.184   1.584  0.1339 -0.3564 -0.3632
 1231TIP3    H1 3657   5.606   5.094   1.602 -0.6964 -0.3177  1.2925
 1231TIP3    H2 3658   5.484   5.179   1.572  0.2739  0.0930 -1.8598
 1232TIP3   OH2 3659   3.034   6.585   0.041  0.6430  0.1851  0.0635
 1232TIP3    H1 3660   3.121   6.566   0.077  0.4905  0.1369  0.4134
 1232TIP3    H2 3661   3.001   6.657   0.096  0.3760  0.0578  0.0699
 1233TIP3   OH2 3662   5.864   3.395   5.865 -0.4018  0.1014  0.0019
 1233TIP3    H1 3663   5.842   3.427   5.952  0.0426 -0.1066  0.1944
 1233TIP3    H2 3664   5.928   3.457   5.831  1.2374 -1.0825  0.7795
 1234TIP3   OH2 3665   2.835   0.305   0.480 -0.0688 -0.6193  0.8895
 1234TIP3    H1 3666   2.833   0.248   0.404  0.4496  0.9782 -0.3750
 1234TIP3    H2 3667   2.890   0.259   0.544  1.6599 -0.8590 -0.6949
 1235TIP3   OH2 3668   2.592   4.172   1.715 -0.5866 -0.3879 -0.4885
 1235TIP3    H1 3669   2.593   4.236   1.786 -0.9751 -0.2337 -0.6209
 1235TIP3    H2 3670   2.569   4.223   1.637 -1.5794 -0.8017 -0.4797
 1236TIP3   OH2 3671   4.946   3.071   2.240 -0.1997 -0.3776 -0.8351
 1236TIP3    H1 3672   4.865   3.122   2.238 -0.4586 -0.6764  0.5642
 1236TIP3    H2 3673   4.990   3.092   2.158 -0.8648  1.1420 -0.8354
 1237TIP3   OH2 3674   2.695   4.427   1.827 -0.3704 -0.0131 -0.9272
 1237TIP3    H1 3675   2.789   4.411   1.825 -0.4503 -0.9510  0.7774
 1237TIP3    H2 3676   2.667   4.395   1.913 -2.2845  0.0445 -1.4804
 1238TIP3   OH2 3677   1.534   2.670   5.375 -0.5025 -0.0007  0.0636
 1238TIP3    H1 3678   1.486   2.706   5.450 -0.6894  0.3397 -0.2169
 1238TIP3    H2 3679   1.515   2.730   5.303  1.0414  0.6633  0.1542
 1239TIP3   OH2 3680   2.245   0.395   0.747 -0.3766  0.0286  0.3557
 1239TIP3    H1 3681   2.330   0.358   0.771 -0.0538  1.0378  0.7965
 1239TIP3    H2 3682   2.183   0.323   0.759  0.6301 -1.2466 -1.6116
 1240TIP3   OH2 3683   4.896   2.703   0.463  0.7912 -0.2563  0.6364
 1240TIP3    H1 3684   4.805   2.724   0.483  0.7799 -0.6751  1.0211
 1240TIP3    H2 3685   4.902   2.714   0.368  0.1991 -0.7612  0.5313
 1241TIP3   OH2 3686   3.173   0.846   2.576  0.2724  0.6545  0.0448
 1241TIP3    H1 3687   3.097   0.834   2.633  1.9183 -0.9101  2.0342
 1241TIP3    H2 3688   3.223   0.916   2.618  1.3933 -0.3632  0.4489
 1242TIP3   OH2 3689   1.097   0.466   1.194  0.0875 -0.4835 -0.3329
 1242TIP3    H1 3690   1.190   0.472   1.171  0.3237  0.2631  0.7486
 1242TIP3    H2 3691   1.076   0.551   1.231 -0.8034 -0.9437  0.2456
 1243TIP3   OH2 3692   6.800   0.530   3.416 -0.4259  0.1363 -0.1266
 1243TIP3    H1 3693   6.821   0.498   3.329 -1.3889  0.4195 -0.4747
 1243TIP3    H2 3694   6.853   0.609   3.427 -0.0266 -0.1050 -0.3011
 1244TIP3   OH2 3695   3.712   6.456   4.553  0.0778 -0.2128  0.1683
 1244TIP3    H1 3696   3.783   6.397   4.527  0.0096  0.1911 -0.9885
 1244TIP3    H2 3697   3.642   6.397   4.583 -0.6657 -0.8761 -2.6298
 1245TIP3   OH2 3698   0.815   0.092   4.174 -0.2724  0.0825 -0.2465
 1245TIP3    H1 3699   0.899   0.075   4.217 -0.4131 -1.4143 -0.5205
 1245TIP3    H2 3700   0.779   0.005   4.155 -1.7200  0.7016 -0.4712
 1246TIP3   OH2 3701   0.396   4.430   1.248 -0.6287 -0.2995 -0.3263
 1246TIP3    H1 3702   0.474   4.485   1.248  1.4809 -3.0504 -0.8905
 1246TIP3    H2 3703   0.352   4.448   1.331  0.6005  1.3265 -0.0035
 1247TIP3   OH2 3704   3.211   5.339   1.857 -0.6122 -0.2525  0.5136
 1247TIP3    H1 3705   3.186   5.250   1.881 -2.0437  0.0124  0.1419
 1247TIP3    H2 3706   3.198   5.343   1.762 -0.2013  0.2486  0.4716
 1248TIP3   OH2 3707   3.180   6.518   4.508  0.1901 -0.0942 -0.4497
 1248TIP3    H1 3708   3.101   6.564   4.534  3.0650  3.9183  2.6191
 1248TIP3    H2 3709   3.198   6.457   4.580  0.9073  0.5762 -0.0421
 1249TIP3   OH2 3710   1.116   1.549   4.137 -0.1895  0.0503  0.4150
 1249TIP3    H1 3711   1.054   1.621   4.138 -0.9190 -0.3680 -2.7922
 1249TIP3    H2 3712   1.194   1.585   4.095 -0.3848 -0.8584 -0.7748
 1250TIP3   OH2 3713   3.649   0.287   4.948  0.2273 -0.5411  0.0850
 1250TIP3    H1 3714   3.722   0.242   4.905  0.5229 -0.3778  0.4152
 1250TIP3    H2 3715   3.682   0.376   4.965 -0.1401 -0.3862 -0.0082
 1251TIP3   OH2 3716   4.534   6.083   3.492 -0.0551  0.2336  0.0934
 1251TIP3    H1 3717   4.450   6.105   3.453  0.2405 -0.4343 -0.9659
 1251TIP3    H2 3718   4.595   6.146   3.454  0.2403 -0.4387 -0.5773
 1252TIP3   OH2 3719   2.649   0.471   5.063  0.3703 -0.2175  0.6434
 1252TIP3    H1 3720   2.633   0.493   5.154  0.9623 -1.4547  1.0668
 1252TIP3    H2 3721   2.743   0.451   5.059  0.5146  0.5565 -0.4072
 1253TIP3   OH2 3722   0.289   0.098   0.739  0.4980  0.0293  0.0845
 1253TIP3    H1 3723   0.365   0.125   0.688  1.9414 -2.5568  0.6555
 1253TIP3    H2 3724   0.321   0.093   0.829 -0.9320  0.7724  0.6670
 1254TIP3   OH2 3725   3.270   0.694   2.895  0.7674 -0.3543 -0.1155
 1254TIP3    H1 3726   3.323   0.641   2.836 -0.1066  0.1079 -1.3559
 1254TIP3    H2 3727   3.180   0.682   2.864  0.4874  1.3826 -0.1001
 1255TIP3   OH2 3728   3.855   0.805   3.463  0.2462  0.1195  0.2394
 1255TIP3    H1 3729   3.926   0.834   3.520  0.0374  0.7295  0.2056
 1255TIP3    H2 3730   3.828   0.885   3.417 -1.0450  0.0906  0.8989
 1256TIP3   OH2 3731   0.818   0.852   4.035  0.3422 -0.2278  0.1396
 1256TIP3    H1 3732   0.778   0.767   4.012  0.4843 -0.1374 -0.4666
 1256TIP3    H2 3733   0.794   0.909   3.962  2.2351 -0.3767 -0.6735
 1257TIP3   OH2 3734   6.043   1.092   4.549 -0.4330  0.5651 -0.2469
 1257TIP3    H1 3735   6.029   1.125   4.460 -0.8530  0.0305 -0.3877
 1257TIP3    H2 3736   6.087   1.163   4.594  1.1199  0.3019 -1.2850
 1258TIP3   OH2 3737   4.114   1.881   1.368 -0.2695 -0.1520  0.1140
 1258TIP3    H1 3738   4.182   1.867   1.434  0.1639 -1.9184 -0.6344
 1258TIP3    H2 3739   4.049   1.813   1.385 -1.4111  0.9276  0.2323
 1259TIP3   OH2 3740   6.757   3.786   2.853 -0.6095  0.6042 -0.3917
 1259TIP3    H1 3741   6.684   3.847   2.862 -0.0491  1.1964  0.2026
 1259TIP3    H2 3742   6.835   3.841   2.859 -0.0833 -0.2543  0.8030
 1260TIP3   OH2 3743   1.671   1.155   5.287  0.2380  0.3238  0.0904
 1260TIP3    H1 3744   1.674   1.234   5.340  2.3247  0.8912 -0.7820
 1260TIP3    H2 3745   1.655   1.084   5.349 -2.9383  1.4632  0.7593
 1261TIP3   OH2 3746   4.524   6.183   1.103 -0.6276  0.1126  0.5356
 1261TIP3    H1 3747   4.577   6.185   1.183  0.1117 -1.6000  0.1472
 1261TIP3    H2 3748   4.529   6.272   1.068  0.8568  0.3353  1.2477
 1262TIP3   OH2 3749   4.552   5.266   0.160  0.1172  0.8515 -0.4165
 1262TIP3    H1 3750   4.547   5.171   0.173  1.5755  0.7850 -0.1433
 1262TIP3    H2 3751   4.480   5.301   0.212 -0.0864 -0.0668 -0.0530
 1263TIP3   OH2 3752   2.075   0.970   3.509  0.1768  0.2787 -0.4440
 1263TIP3    H1 3753   2.078   1.047   3.566  0.3053 -1.5370  2.2270
 1263TIP3    H2 3754   2.156   0.973   3.459  0.2297  1.7888 -0.3067
 1264TIP3   OH2 3755   6.502   5.037   4.357  0.1336  0.5645  0.3506
 1264TIP3    H1 3756   6.562   4.999   4.422 -1.5825 -0.4585  1.4174
 1264TIP3    H2 3757   6.463   4.961   4.314 -2.6744  0.9984  1.8670
 1265TIP3   OH2 3758   2.001   0.320   2.121 -0.5822  0.0592  0.0858
 1265TIP3    H1 3759   2.006   0.356   2.033 -1.4461 -0.7311 -0.3015
 1265TIP3    H2 3760   1.908   0.302   2.135 -0.4138 -0.1652  1.0239
 1266TIP3   OH2 3761   6.297   2.166   3.160 -0.0310 -0.1797  0.2323
 1266TIP3    H1 3762   6.239   2.238   3.136  1.5249  1.0289 -0.0977
 1266TIP3    H2 3763   6.381   2.188   3.119  0.8900 -1.4316  1.3462
 1267TIP3   OH2 3764   6.459   1.455   5.557 -0.5723  0.0414  0.1570
 1267TIP3    H1 3765   6.419   1.426   5.639 -2.0393  0.6922 -0.3106
 1267TIP3    H2 3766   6.514   1.381   5.530 -0.5619 -0.4277  1.3814
 1268TIP3   OH2 3767   1.643   2.699   0.320  0.1518  0.0630 -0.3427
 1268TIP3    H1 3768   1.664   2.639   0.248  2.2158  0.1885  0.0722
 1268TIP3    H2 3769   1.582   2.762   0.282  1.4477  0.3320 -2.1329
 1269TIP3   OH2 3770   3.755   0.886   5.907  0.2092  0.8227 -0.1279
 1269TIP3    H1 3771   3.808   0.806   5.902 -1.0641 -0.1589  1.3876
 1269TIP3    H2 3772   3.676   0.865   5.858 -0.3566  0.9582  0.7179
 1270TIP3   OH2 3773   7.050   3.974   4.053  0.7021 -0.2131  0.2002
 1270TIP3    H1 3774   7.072   3.905   3.991  1.4499 -0.1308  0.3716
 1270TIP3    H2 3775   7.032   4.051   3.999 -2.4510 -1.0654 -0.1807
 1271TIP3   OH2 3776   5.202   3.765   2.054 -0.2346  0.7805  0.5941
 1271TIP3    H1 3777   5.109   3.787   2.061 -0.0296  2.4300 -1.1171
 1271TIP3    H2 3778   5.202   3.678   2.014 -1.0767  1.3041 -0.6187
 1272TIP3   OH2 3779   0.883   2.210   0.449 -0.9431  0.1587  0.4294
 1272TIP3    H1 3780   0.863   2.169   0.533  0.6180  1.8134  1.6851
 1272TIP3    H2 3781   0.978   2.212   0.445 -0.9566  2.2213 -0.2488
 1273TIP3   OH2 3782   0.746   0.771   5.447 -0.0888 -0.0573  0.1341
 1273TIP3    H1 3783   0.652   0.759   5.463  0.1069 -0.7816  0.8062
 1273TIP3    H2 3784   0.784   0.685   5.464  0.5807 -0.0237 -1.0848
 1274TIP3   OH2 3785   1.632   1.435   3.706  0.0142  0.1469 -0.0508
 1274TIP3    H1 3786   1.555   1.459   3.757 -0.0351 -0.0767 -0.0176
 1274TIP3    H2 3787   1.597   1.381   3.635  0.2985 -1.1950  0.7949
 1275TIP3   OH2 3788   2.785   5.721   4.845 -0.0609  0.2688  0.4810
 1275TIP3    H1 3789   2.785   5.736   4.750 -0.6418  2.6248  0.8089
 1275TIP3    H2 3790   2.877   5.724   4.870  0.0509  0.1876  0.0931
 1276TIP3   OH2 3791   1.082   2.392   5.523  0.3045 -0.1644 -0.0781
 1276TIP3    H1 3792   0.999   2.349   5.507  0.4897 -0.5831  0.0781
 1276TIP3    H2 3793   1.097   2.445   5.445  0.5084 -1.0770 -0.6739
 1277TIP3   OH2 3794   6.448   3.756   5.278 -0.4668  0.1287  0.0489
 1277TIP3    H1 3795   6.364   3.796   5.302 -0.0761  1.4043 -0.5943
 1277TIP3    H2 3796   6.512   3.827   5.290  0.5009 -0.7549  0.3194
 1278TIP3   OH2 3797   3.837   0.419   2.365 -0.0163 -0.0297 -0.2493
 1278TIP3    H1 3798   3.787   0.354   2.316 -1.2924  0.1539  0.7767
 1278TIP3    H2 3799   3.818   0.502   2.321 -0.9596  0.0981  0.3713
 1279TIP3   OH2 3800   0.895   1.965   5.369 -0.1967  0.1937  0.1896
 1279TIP3    H1 3801   0.969   1.979   5.310 -0.6680  0.3181 -0.3785
 1279TIP3    H2 3802   0.907   1.875   5.401 -0.1416 -0.0103 -0.3871
 1280TIP3   OH2 3803   6.057   3.109   5.742 -0.6004 -0.2768  0.0416
 1280TIP3    H1 3804   6.095   3.178   5.689 -3.7575  1.2990 -0.4345
 1280TIP3    H2 3805   6.077   3.133   5.832  0.9845 -0.5150 -0.2238
 1281TIP3   OH2 3806   5.425   3.472   2.982 -0.5878  0.0715  0.3340
 1281TIP3    H1 3807   5.377   3.411   3.038 -0.1543  0.6769  1.4128
 1281TIP3    H2 3808   5.389   3.558   3.003 -1.5076  0.1723 -1.5061
 1282TIP3   OH2 3809   1.514   4.663   2.123 -0.1288  0.3611 -0.4773
 1282TIP3    H1 3810   1.431   4.617   2.110  0.0732  0.2661 -1.5213
 1282TIP3    H2 3811   1.488   4.755   2.137 -0.3922  0.4585 -1.4960
 1283TIP3   OH2 3812   2.374   0.745   4.235 -0.1373 -0.3445  0.7402
 1283TIP3    H1 3813   2.288   0.770   4.200 -0.6613 -1.6148  1.0525
 1283TIP3    H2 3814   2.434   0.760   4.163  0.7016  6.8203  2.2352
 1284TIP3   OH2 3815   6.618   2.906   3.382  0.5090 -0.0166 -0.2293
 1284TIP3    H1 3816   6.643   2.989   3.423  3.2654 -0.6327 -0.4809
 1284TIP3    H2 3817   6.668   2.904   3.301 -0.9091 -1.1425 -1.1089
 1285TIP3   OH2 3818   2.402   2.798   5.497 -0.0162 -0.0859 -0.1735
 1285TIP3    H1 3819   2.495   2.818   5.493 -0.6486  3.2424 -1.9521
 1285TIP3    H2 3820   2.376   2.785   5.406 -1.3239 -0.9706  0.2843
 1286TIP3   OH2 3821   5.547   4.137   5.748 -0.6762  0.0282 -0.6988
 1286TIP3    H1 3822   5.589   4.220   5.771 -2.8499  1.3517 -1.2164
 1286TIP3    H2 3823   5.549   4.135   5.652 -1.1573 -0.2202 -0.7093
 1287TIP3   OH2 3824   4.606   1.814   1.008 -0.5522  0.0206  0.5162
 1287TIP3    H1 3825   4.692   1.772   1.001 -0.2136  0.8300 -0.6634
 1287TIP3    H2 3826   4.570   1.809   0.920 -1.8603 -0.5709  1.0693
 1288TIP3   OH2 3827   5.700   2.766   5.904 -0.6082  0.2250 -0.1446
 1288TIP3    H1 3828   5.615   2.737   5.936 -1.0022 -1.1439 -2.2603
 1288TIP3    H2 3829   5.684   2.797   5.815  0.9061  1.0955 -0.1538
 1289TIP3   OH2 3830   3.966   2.029   2.837  0.0978  0.0025 -0.0591
 1289TIP3    H1 3831   4.026   1.985   2.898  1.1006  0.7214 -0.5007
 1289TIP3    H2 3832   3.967   1.974   2.759 -1.5251 -1.1583  0.6720
 1290TIP3   OH2 3833   4.178   5.883   3.472 -0.4331 -0.1652  0.1912
 1290TIP3    H1 3834   4.167   5.855   3.563 -0.6106 -2.2152 -0.3951
 1290TIP3    H2 3835   4.116   5.828   3.423 -1.1140  1.6355 -1.0737
 1291TIP3   OH2 3836   3.867   4.850   0.814  0.0570  0.1293  0.1440
 1291TIP3    H1 3837   3.832   4.828   0.900 -0.5163 -1.3654 -0.4395
 1291TIP3    H2 3838   3.946   4.901   0.832 -0.3014  0.2178  1.5349
 1292TIP3   OH2 3839   4.390   4.616   2.580 -0.3444  0.4268 -0.1582
 1292TIP3    H1 3840   4.446   4.540   2.565 -0.3611  0.4605 -0.3948
 1292TIP3    H2 3841   4.438   4.668   2.646 -0.3877  0.1591  0.0875
 1293TIP3   OH2 3842   5.344   2.349   1.265  0.4641  0.1467  0.2778
 1293TIP3    H1 3843   5.338   2.303   1.349  0.3687  1.3647  0.9655
 1293TIP3    H2 3844   5.292   2.428   1.277 -0.2953 -0.0885 -1.2512
 1294TIP3   OH2 3845   0.625   3.224   2.676  0.0713 -0.0706 -0.3292
 1294TIP3    H1 3846   0.694   3.290   2.672 -1.4565  1.6695  0.4248
 1294TIP3    H2 3847   0.647   3.162   2.607  2.3002  0.4819 -0.1811
 1295TIP3   OH2 3848   4.890   6.774   3.650  0.2471 -0.4494  0.6140
 1295TIP3    H1 3849   4.901   6.836   3.578 -1.7849  0.2217  0.8337
 1295TIP3    H2 3850   4.885   6.689   3.608 -0.8289 -0.0725 -0.0425
 1296TIP3   OH2 3851   0.046   0.530   1.333 -0.3623 -0.2035  0.3044
 1296TIP3    H1 3852  -0.009   0.507   1.258  1.1420 -1.1933 -0.5621
 1296TIP3    H2 3853   0.096   0.450   1.350  1.3549  0.8834  0.5375
 1297TIP3   OH2 3854   0.235   5.971   0.789  0.2196 -0.0879 -0.1554
 1297TIP3    H1 3855   0.320   5.974   0.746 -0.9391  0.4048 -2.6344
 1297TIP3    H2 3856   0.199   5.885   0.766  0.2647 -0.5289  1.3592
 1298TIP3   OH2 3857   0.220   0.151   2.536 -0.5080  0.1239  0.0292
 1298TIP3    H1 3858   0.298   0.178   2.585 -0.5099 -1.2554  0.8181
 1298TIP3    H2 3859   0.152   0.214   2.562 -0.0319  0.4926  0.3932
 1299TIP3   OH2 3860   6.919   2.816   1.371 -0.3949 -0.5013  0.2378
 1299TIP3    H1 3861   6.827   2.809   1.345 -0.2541 -0.0486 -0.4139
 1299TIP3    H2 3862   6.916   2.852   1.460 -0.8441  0.0501  0.0121
 1300TIP3   OH2 3863   2.570   6.379   5.118 -0.5437  0.5031  0.3943
 1300TIP3    H1 3864   2.538   6.290   5.109 -1.1676  0.8591 -1.3737
 1300TIP3    H2 3865   2.658   6.370   5.155 -1.8191 -0.6039  3.4352
 1301TIP3   OH2 3866   1.076   0.697   1.372  0.2303  0.0653 -0.0671
 1301TIP3    H1 3867   1.034   0.772   1.330 -0.2242 -1.3390 -2.3636
 1301TIP3    H2 3868   1.157   0.731   1.409 -1.5147  2.2983  2.0119
 1302TIP3   OH2 3869   4.554   5.837   1.783 -0.1691 -0.1930  0.5990
 1302TIP3    H1 3870   4.594   5.753   1.805 -0.0179 -0.0756  0.7832
 1302TIP3    H2 3871   4.628   5.895   1.765 -0.2843 -0.1785  0.1800
 1303TIP3   OH2 3872   3.583   2.988   1.378 -0.1215 -0.2604 -0.4030
 1303TIP3    H1 3873   3.585   3.084   1.379  0.9781 -0.2726 -0.7534
 1303TIP3    H2 3874   3.671   2.961   1.406 -1.0178 -1.2096  1.8096
 1304TIP3   OH2 3875   6.935   5.741   2.330  0.2493 -0.0574  0.0060
 1304TIP3    H1 3876   6.964   5.765   2.242  0.3859  0.7303  0.2625
 1304TIP3    H2 3877   6.923   5.824   2.376 -1.9923 -0.3398  0.0527
 1305TIP3   OH2 3878   1.601   6.187   0.024 -0.8035  0.2083  0.6225
 1305TIP3    H1 3879   1.670   6.227   0.077 -0.9422  0.7604  0.3855
 1305TIP3    H2 3880   1.526   6.244   0.034 -0.6857  0.6041 -0.5610
 1306TIP3   OH2 3881   3.620   4.370   2.269  0.2216  0.4459  0.3178
 1306TIP3    H1 3882   3.594   4.442   2.211 -1.2225  1.6026  2.2628
 1306TIP3    H2 3883   3.542   4.351   2.320  1.2544 -0.9220  1.4753
 1307TIP3   OH2 3884   6.936   5.957   4.798  0.1075 -0.3363 -0.2605
 1307TIP3    H1 3885   7.023   5.917   4.789  0.8191  0.8650  0.8455
 1307TIP3    H2 3886   6.942   6.038   4.748  0.1465  0.4850  1.0231
 1308TIP3   OH2 3887   2.960   1.392   4.396  0.0211  0.4660 -0.2023
 1308TIP3    H1 3888   3.033   1.430   4.444  0.9513 -0.3150 -0.9454
 1308TIP3    H2 3889   2.909   1.344   4.461  0.3170  0.7933  0.2706
 1309TIP3   OH2 3890   1.147   1.579   2.235  0.2970 -0.1379  0.1085
 1309TIP3    H1 3891   1.148   1.629   2.153 -0.5712  1.4677  1.0232
 1309TIP3    H2 3892   1.216   1.620   2.288 -0.0088 -0.3115  0.6460
 1310TIP3   OH2 3893   5.385   3.294   2.754 -0.3872  0.0853  0.9507
 1310TIP3    H1 3894   5.414   3.337   2.835 -1.1696  1.1200  0.7030
 1310TIP3    H2 3895   5.391   3.200   2.774 -0.7332  0.3183  2.2789
 1311TIP3   OH2 3896   4.743   3.223   0.849  0.1550 -0.4484  0.2224
 1311TIP3    H1 3897   4.780   3.247   0.934  0.0459 -1.5322  0.5814
 1311TIP3    H2 3898   4.785   3.283   0.787  0.1459  0.4381  1.0432
 1312TIP3   OH2 3899   5.361   2.908   0.693  0.0202 -0.0284  0.4059
 1312TIP3    H1 3900   5.403   2.822   0.702 -0.8401 -0.3977  0.9768
 1312TIP3    H2 3901   5.427   2.962   0.650  0.3796 -1.1191 -0.4641
 1313TIP3   OH2 3902   1.345   3.819   4.540 -0.0236  0.5523 -0.0180
 1313TIP3    H1 3903   1.341   3.867   4.457 -0.1557  0.5094 -0.0358
 1313TIP3    H2 3904   1.289   3.869   4.599 -1.8184 -0.6959 -0.5916
 1314TIP3   OH2 3905   6.862   3.336   2.171  0.4280 -0.2563  0.1505
 1314TIP3    H1 3906   6.928   3.376   2.115  0.5401  0.3796  0.7211
 1314TIP3    H2 3907   6.870   3.383   2.254 -1.6489  0.7942 -0.1668
 1315TIP3   OH2 3908   0.586   4.879   2.592  0.3605  0.5006  0.4280
 1315TIP3    H1 3909   0.499   4.888   2.631 -0.3313 -1.0860 -0.6156
 1315TIP3    H2 3910   0.569   4.859   2.500  1.6687 -2.5879  0.7329
 1316TIP3   OH2 3911   5.329   0.286   4.336 -0.0744  0.3220 -0.3033
 1316TIP3    H1 3912   5.254   0.332   4.298  0.5578  0.9794 -0.7794
 1316TIP3    H2 3913   5.381   0.355   4.378  0.8849  0.0593 -1.0285
 1317TIP3   OH2 3914   2.583   0.660   2.944 -0.3251  0.3619  0.6977
 1317TIP3    H1 3915   2.529   0.648   3.021  1.0243  0.8692  1.7595
 1317TIP3    H2 3916   2.615   0.572   2.923 -2.1536 -0.0865 -0.4470
 1318TIP3   OH2 3917   6.001   1.834   2.442  0.3443 -0.1208  0.5180
 1318TIP3    H1 3918   6.055   1.874   2.509 -1.3946  1.2138  1.1881
 1318TIP3    H2 3919   5.985   1.904   2.379 -0.9947 -0.3351  0.5971
 1319TIP3   OH2 3920   6.129   1.213   3.082  0.0085  0.3122  0.2363
 1319TIP3    H1 3921   6.035   1.232   3.077 -0.5617 -1.9012  1.0363
 1319TIP3    H2 3922   6.134   1.117   3.072  2.1779  0.3647  0.3567
 1320TIP3   OH2 3923   1.109   1.749   4.767 -0.2980  0.1636 -0.2506
 1320TIP3    H1 3924   1.074   1.829   4.807  0.4113  1.0360 -1.3202
 1320TIP3    H2 3925   1.204   1.758   4.775 -0.2248 -0.7654 -0.0354
 1321TIP3   OH2 3926   5.097   5.061   2.520 -0.4778 -0.0092 -0.5496
 1321TIP3    H1 3927   5.121   5.131   2.582 -0.9659  1.6130 -2.1184
 1321TIP3    H2 3928   5.058   4.993   2.575  0.2069  0.8503  1.0643
 1322TIP3   OH2 3929   3.347   0.296   4.244 -0.2593 -0.7933 -0.1385
 1322TIP3    H1 3930   3.384   0.214   4.210 -3.2796 -2.4515  0.2597
 1322TIP3    H2 3931   3.325   0.346   4.165  0.3112 -0.9847 -0.4245
 1323TIP3   OH2 3932   0.839   1.896   1.992  0.3242  0.2183 -0.5114
 1323TIP3    H1 3933   0.756   1.921   1.952  0.4746 -0.3322 -1.1915
 1323TIP3    H2 3934   0.863   1.814   1.948 -0.2087 -1.2098  1.7027
 1324TIP3   OH2 3935   4.793   4.264   2.397  0.2198  0.0837  0.2539
 1324TIP3    H1 3936   4.830   4.338   2.348  1.1177 -0.6002 -0.1357
 1324TIP3    H2 3937   4.723   4.230   2.341  0.4503  0.0429 -0.0114
 1325TIP3   OH2 3938   0.042   4.818   0.952  0.5084  0.2669  0.7255
 1325TIP3    H1 3939   0.001   4.833   0.867  1.8602  0.7955  0.1332
 1325TIP3    H2 3940  -0.001   4.740   0.986 -0.7102  0.5860 -0.0105
 1326TIP3   OH2 3941   2.101   3.632   1.065 -0.1776  0.3016 -0.0821
 1326TIP3    H1 3942   2.062   3.591   1.142  1.6898 -0.6754  0.4103
 1326TIP3    H2 3943   2.027   3.648   1.006 -1.5436  0.4066  1.6014
 1327TIP3   OH2 3944   5.648   3.659   3.182 -0.0796  0.1481  0.2587
 1327TIP3    H1 3945   5.555   3.645   3.202 -0.0147 -0.3108  0.2469
 1327TIP3    H2 3946   5.658   3.754   3.180 -0.0361  0.2528  2.6600
 1328TIP3   OH2 3947   6.520   0.973   5.731  0.7286  0.2359  0.5799
 1328TIP3    H1 3948   6.499   0.974   5.637  2.4647 -0.2692  0.1568
 1328TIP3    H2 3949   6.454   0.914   5.769  1.1643 -1.0967 -0.6500
 1329TIP3   OH2 3950   1.338   4.329   0.587  0.3640 -0.2236 -0.2106
 1329TIP3    H1 3951   1.268   4.364   0.532 -0.5563  0.7042  1.4677
 1329TIP3    H2 3952   1.415   4.381   0.562  0.1438 -0.2930 -1.0907
 1330TIP3   OH2 3953   4.247   1.882   4.981 -0.8336 -0.1156  0.2230
 1330TIP3    H1 3954   4.272   1.891   4.889 -2.2110  0.8923 -0.0781
 1330TIP3    H2 3955   4.312   1.822   5.017  0.2970  0.1960 -1.1788
 1331TIP3   OH2 3956   3.083   6.569   4.239 -0.1017  0.3243 -0.2960
 1331TIP3    H1 3957   3.143   6.526   4.300  0.9177 -0.6320 -1.8620
 1331TIP3    H2 3958   3.004   6.515   4.240 -1.0262  1.5861  1.7745
 1332TIP3   OH2 3959   4.706   6.252   2.225  0.0277  0.5452 -0.6334
 1332TIP3    H1 3960   4.699   6.348   2.234 -0.6616  0.4110  0.4203
 1332TIP3    H2 3961   4.710   6.220   2.315 -2.3191 -0.5833 -0.8705
 1333TIP3   OH2 3962   3.474   5.880   2.843  0.4009  0.0197  0.3171
 1333TIP3    H1 3963   3.387   5.904   2.812  0.3184 -2.1405 -1.3824
 1333TIP3    H2 3964   3.533   5.946   2.806 -0.3580  0.6912  0.2941
 1334TIP3   OH2 3965   1.301   2.281   4.201  1.2957  0.1685  0.0603
 1334TIP3    H1 3966   1.207   2.270   4.210  1.4384 -1.1788  0.1056
 1334TIP3    H2 3967   1.319   2.367   4.240  0.2581 -0.1189  1.2450
 1335TIP3   OH2 3968   5.619   5.366   4.354  0.6581  0.1217  0.6145
 1335TIP3    H1 3969   5.698   5.347   4.304 -0.0204 -0.1369 -0.3760
 1335TIP3    H2 3970   5.559   5.295   4.332 -0.4692  1.2348  0.0042
 1336TIP3   OH2 3971   4.673   5.060   1.825  0.1780  0.2233 -0.3430
 1336TIP3    H1 3972   4.719   5.052   1.909 -0.7586 -2.1007  0.0275
 1336TIP3    H2 3973   4.598   5.116   1.845  0.3557  0.2832  0.1841
 1337TIP3   OH2 3974   5.028   5.400   1.683  0.0676  0.5260  0.0951
 1337TIP3    H1 3975   4.966   5.432   1.748 -0.8523  1.0887 -1.0260
 1337TIP3    H2 3976   4.974   5.351   1.621  1.1211 -1.2557  0.5039
 1338TIP3   OH2 3977   2.448   0.632   4.514 -0.4501  0.4367 -0.4466
 1338TIP3    H1 3978   2.518   0.694   4.534 -0.6790  1.0161 -1.3760
 1338TIP3    H2 3979   2.431   0.645   4.420  0.3222 -1.8876 -0.9594
 1339TIP3   OH2 3980   5.693   5.540   1.518  0.9391 -0.2082 -0.5249
 1339TIP3    H1 3981   5.770   5.483   1.524  0.7455 -0.4605 -0.4385
 1339TIP3    H2 3982   5.687   5.561   1.425  1.6913  0.6145 -0.3956
 1340TIP3   OH2 3983   7.110   5.054   4.844 -0.1855  0.3814  0.8330
 1340TIP3    H1 3984   7.029   5.098   4.818 -0.4112  0.2860  1.3556
 1340TIP3    H2 3985   7.142   5.106   4.918 -0.5526 -0.4202  1.5766
 1341TIP3   OH2 3986   2.623   3.307   2.159  0.0709  0.1425  0.3322
 1341TIP3    H1 3987   2.584   3.375   2.103 -2.4936 -1.0706  0.4820
 1341TIP3    H2 3988   2.714   3.301   2.130 -1.0530 -0.3220 -3.6650
 1342TIP3   OH2 3989   6.582   0.135   4.308  0.2548 -0.0215 -0.0379
 1342TIP3    H1 3990   6.508   0.076   4.319  0.9811 -0.8562  0.4909
 1342TIP3    H2 3991   6.568   0.205   4.372  0.3611 -0.6318  0.6573
 1343TIP3   OH2 3992   4.970   0.649   1.730 -0.0450  0.0726  0.5656
 1343TIP3    H1 3993   4.947   0.572   1.677 -0.4153 -0.0962  0.9676
 1343TIP3    H2 3994   5.041   0.618   1.786 -0.0698  0.0757  0.5985
 1344TIP3   OH2 3995   6.054   4.333   5.492  0.5755 -0.1138  0.4510
 1344TIP3    H1 3996   6.007   4.264   5.538  0.9467 -1.5174 -1.2024
 1344TIP3    H2 3997   6.079   4.294   5.408 -1.6823  2.8665 -1.8322
 1345TIP3   OH2 3998   1.607   3.151   1.494 -0.2935 -0.7840  0.2827
 1345TIP3    H1 3999   1.528   3.192   1.528 -0.1723 -0.9889  0.8377
 1345TIP3    H2 4000   1.581   3.061   1.474 -0.5574 -0.4521 -0.9261
 1346TIP3   OH2 4001   2.519   3.465   0.050 -0.5936  0.1877  0.2656
 1346TIP3    H1 4002   2.509   3.396  -0.016  1.5262  1.5655 -1.6552
 1346TIP3    H2 4003   2.594   3.437   0.102 -0.4075  0.5223  0.1768
 1347TIP3   OH2 4004   4.058   4.306   1.565  0.0648  0.5520  0.1648
 1347TIP3    H1 4005   3.986   4.365   1.543  0.7060  1.3163  0.0897
 1347TIP3    H2 4006   4.026   4.219   1.540 -0.9961  0.8210  0.5289
 1348TIP3   OH2 4007   6.708   2.219   5.790 -0.1042 -0.0246 -0.6635
 1348TIP3    H1 4008   6.763   2.144   5.767 -0.8347 -0.3982 -1.2130
 1348TIP3    H2 4009   6.634   2.215   5.730  0.0098  1.3405 -0.9480
 1349TIP3   OH2 4010   6.989   0.379   4.729 -0.1657  0.0049 -0.5438
 1349TIP3    H1 4011   7.077   0.340   4.736  0.0833  0.7507  0.7370
 1349TIP3    H2 4012   6.956   0.380   4.819 -0.4374  2.1030 -0.6315
 1350TIP3   OH2 4013   4.395   6.514   1.957 -0.1220  0.6606  0.0535
 1350TIP3    H1 4014   4.470   6.564   1.988 -0.2280  1.3331 -0.7027
 1350TIP3    H2 4015   4.371   6.557   1.874 -1.0048  0.1302  0.0190
 1351TIP3   OH2 4016   2.268   2.044   3.527 -0.5200 -0.2838  0.2553
 1351TIP3    H1 4017   2.318   1.964   3.544  1.8217  1.3177  1.3288
 1351TIP3    H2 4018   2.264   2.049   3.431  0.9742 -0.7365  0.1390
 1352TIP3   OH2 4019   4.642   3.294   1.457 -0.6800 -0.1306 -0.2497
 1352TIP3    H1 4020   4.577   3.303   1.388 -1.8307  2.3926  1.0254
 1352TIP3    H2 4021   4.726   3.310   1.413 -1.0723 -1.3838 -1.5293
 1353TIP3   OH2 4022   2.817   1.202   0.298  0.1243 -0.0121 -0.0249
 1353TIP3    H1 4023   2.846   1.232   0.212 -0.3395 -1.1008 -0.5853
 1353TIP3    H2 4024   2.749   1.264   0.324  1.0913  1.0040  0.1006
 1354TIP3   OH2 4025   2.358   2.143   5.013  0.2584 -0.8129  0.3273
 1354TIP3    H1 4026   2.404   2.083   5.070 -0.9213 -1.1253  0.9801
 1354TIP3    H2 4027   2.417   2.218   5.003  1.6140 -1.9197 -0.2553
 1355TIP3   OH2 4028   3.522   5.904   0.526  0.5011 -0.6837 -0.1539
 1355TIP3    H1 4029   3.537   5.849   0.449 -1.2474 -1.0075 -0.3079
 1355TIP3    H2 4030   3.610   5.921   0.561  1.1447 -2.9661 -0.5204
 1356TIP3   OH2 4031   4.536   4.457   2.066  0.4383  0.1652  0.2309
 1356TIP3    H1 4032   4.535   4.393   2.137 -0.1377 -0.6197 -0.4628
 1356TIP3    H2 4033   4.540   4.542   2.109 -2.8643 -0.1056  1.3614
 1357TIP3   OH2 4034   6.056   5.688   5.490  0.0608  0.1986  0.7477
 1357TIP3    H1 4035   6.018   5.600   5.483  0.2466  0.1227  0.6770
 1357TIP3    H2 4036   6.040   5.714   5.581  0.8028 -0.2829  1.0296
 1358TIP3   OH2 4037   2.375   6.747   1.345 -0.0886 -0.4204 -0.1530
 1358TIP3    H1 4038   2.282   6.743   1.366 -0.2696 -0.0089 -0.8586
 1358TIP3    H2 4039   2.394   6.840   1.334  0.0703 -0.5774 -1.4060
 1359TIP3   OH2 4040   7.001   5.543   3.379 -0.4425 -0.0470 -0.2827
 1359TIP3    H1 4041   6.963   5.566   3.464 -1.2449  2.2131 -1.2060
 1359TIP3    H2 4042   7.010   5.626   3.332  0.2714 -1.1970 -2.3179
 1360TIP3   OH2 4043   7.197   6.042   3.838 -0.2088  0.4410 -0.5805
 1360TIP3    H1 4044   7.291   6.041   3.854 -0.4726 -1.1871  1.4155
 1360TIP3    H2 4045   7.168   6.128   3.870  0.1061 -0.6595  3.1619
 1361TIP3   OH2 4046   6.995   3.659   4.020 -0.9956 -0.2102  0.3310
 1361TIP3    H1 4047   7.072   3.676   4.075 -0.7707 -2.3575  0.7413
 1361TIP3    H2 4048   7.014   3.705   3.938 -0.0322  0.6489  0.9997
 1362TIP3   OH2 4049   0.970   2.614   1.611 -0.1655  0.6410  0.1992
 1362TIP3    H1 4050   1.044   2.655   1.565 -0.2073  1.2654  0.6678
 1362TIP3    H2 4051   0.979   2.645   1.702 -1.3329  1.2028  0.1459
 1363TIP3   OH2 4052   1.942   2.207   0.786 -0.2214  0.1693 -0.0025
 1363TIP3    H1 4053   2.010   2.139   0.790 -0.5589 -0.2280 -0.7652
 1363TIP3    H2 4054   1.860   2.158   0.789 -0.4748  0.4605 -1.3604
 1364TIP3   OH2 4055   0.036   5.168   5.045  0.4288  0.0955 -0.1185
 1364TIP3    H1 4056   0.078   5.250   5.020 -0.3708  0.3180 -0.7587
 1364TIP3    H2 4057   0.100   5.125   5.102  1.3307  0.6319 -0.7061
 1365TIP3   OH2 4058   4.842   0.491   4.420 -0.0090 -0.5903 -0.5951
 1365TIP3    H1 4059   4.863   0.452   4.335  0.1689  0.8774 -1.2711
 1365TIP3    H2 4060   4.922   0.480   4.472  2.0327  3.1657 -2.4749
 1366TIP3   OH2 4061   0.909   5.263   3.514  0.1218 -0.2126 -0.1207
 1366TIP3    H1 4062   0.924   5.213   3.594 -0.1954  1.0657  0.7736
 1366TIP3    H2 4063   0.866   5.201   3.455 -0.1453 -1.0290  0.8909
 1367TIP3   OH2 4064   4.552   0.822   2.861  0.0620 -0.7605 -0.6255
 1367TIP3    H1 4065   4.646   0.817   2.842  0.8716  1.1360  2.2867
 1367TIP3    H2 4066   4.513   0.856   2.781  1.5842 -2.7690 -2.3544
 1368TIP3   OH2 4067   3.687   6.308   2.339  0.0773 -0.1241  0.5345
 1368TIP3    H1 4068   3.702   6.214   2.337  2.1198  0.1314  1.2054
 1368TIP3    H2 4069   3.769   6.346   2.307 -1.0761  1.4244 -0.7318
 1369TIP3   OH2 4070   1.451   2.802   1.158 -0.8650  0.3288 -0.2925
 1369TIP3    H1 4071   1.481   2.872   1.100 -1.6437  0.0221 -1.0776
 1369TIP3    H2 4072   1.485   2.722   1.119  0.2010  0.2491  0.7167
 1370TIP3   OH2 4073   4.119   2.199   0.795 -0.5910 -0.3819  0.1597
 1370TIP3    H1 4074   4.077   2.285   0.799  1.4041  0.6620 -0.2922
 1370TIP3    H2 4075   4.163   2.189   0.880 -1.5729 -1.4066  0.5816
 1371TIP3   OH2 4076   4.513   5.009   3.145 -0.1859 -0.1180 -0.2113
 1371TIP3    H1 4077   4.484   4.921   3.122  1.3004 -0.9443  0.9052
 1371TIP3    H2 4078   4.452   5.038   3.213 -0.0828 -0.7034  0.1362
 1372TIP3   OH2 4079   4.528   5.646   3.432 -0.6210 -0.1642  0.1537
 1372TIP3    H1 4080   4.461   5.584   3.460 -1.1612  0.2968 -0.1069
 1372TIP3    H2 4081   4.487   5.695   3.360  0.2907 -0.4753 -0.6036
 1373TIP3   OH2 4082   4.527   5.528   1.744  0.5328  0.1360 -0.2755
 1373TIP3    H1 4083   4.462   5.539   1.675 -1.6368  2.0119  1.8944
 1373TIP3    H2 4084   4.480   5.483   1.814  2.4479 -1.0622  0.3055
 1374TIP3   OH2 4085   4.906   2.211   2.540 -0.4234 -0.0422  0.2732
 1374TIP3    H1 4086   4.819   2.204   2.501 -0.1750 -0.5301 -0.2050
 1374TIP3    H2 4087   4.890   2.222   2.634 -1.0165  0.6707  0.0922
 1375TIP3   OH2 4088   1.749   1.013   1.008  0.3786  0.0336  0.1906
 1375TIP3    H1 4089   1.731   0.920   1.001 -1.4072  0.2358  1.4928
 1375TIP3    H2 4090   1.784   1.024   1.097 -0.2722  0.7052  0.3780
 1376TIP3   OH2 4091   2.899   1.185   1.346  0.4220 -0.2621 -0.1185
 1376TIP3    H1 4092   2.908   1.255   1.410 -1.0645  1.6154 -1.8316
 1376TIP3    H2 4093   2.933   1.107   1.390  0.0319  1.0489  2.6883
 1377TIP3   OH2 4094   4.202   4.685   0.205  0.5730  0.5587 -0.0703
 1377TIP3    H1 4095   4.242   4.617   0.151  3.3050  2.6834 -0.9308
 1377TIP3    H2 4096   4.245   4.766   0.179 -1.7537  2.5246  1.6599
 1378TIP3   OH2 4097   6.123   0.523   5.045  0.1177 -0.4573  0.1736
 1378TIP3    H1 4098   6.075   0.482   5.117  1.2694 -1.6575  0.3057
 1378TIP3    H2 4099   6.212   0.534   5.078  0.8978 -1.8154 -1.3075
 1379TIP3   OH2 4100   0.454   1.262   4.146 -0.1446 -0.3279 -0.1328
 1379TIP3    H1 4101   0.506   1.182   4.157 -2.0966 -1.6295  0.1866
 1379TIP3    H2 4102   0.466   1.310   4.228  1.7480  0.2030 -0.6653
 1380TIP3   OH2 4103   5.902   0.966   3.193  0.1161 -0.3187 -0.4691
 1380TIP3    H1 4104   5.874   0.882   3.156 -0.6013 -0.5612  0.5898
 1380TIP3    H2 4105   5.877   1.030   3.126 -1.4297 -0.7168 -0.3253
 1381TIP3   OH2 4106   7.189   5.264   0.258 -0.7816 -0.1801 -0.0551
 1381TIP3    H1 4107   7.098   5.290   0.270 -0.8773 -0.1168 -0.8168
 1381TIP3    H2 4108   7.227   5.334   0.206 -0.3902 -0.3740 -0.0331
 1382TIP3   OH2 4109   2.071   1.843   2.018 -0.4203  0.1707 -0.0958
 1382TIP3    H1 4110   2.047   1.868   2.107 -0.2495  0.8297 -0.2275
 1382TIP3    H2 4111   2.146   1.785   2.029  1.7419  2.7777  0.1171
 1383TIP3   OH2 4112   2.142   0.787   2.622  0.3933 -0.3109  0.2883
 1383TIP3    H1 4113   2.062   0.836   2.601 -0.4920 -2.8341 -3.4283
 1383TIP3    H2 4114   2.200   0.851   2.662 -1.7526  2.9408 -1.3171
 1384TIP3   OH2 4115   0.383   6.746   1.670  0.3216  0.0016 -0.1385
 1384TIP3    H1 4116   0.296   6.775   1.696  0.3817  1.0380 -1.0022
 1384TIP3    H2 4117   0.442   6.784   1.736  0.3612  1.6221 -1.0511
 1385TIP3   OH2 4118   4.111   1.776   4.376 -0.4007 -0.3099  0.6995
 1385TIP3    H1 4119   4.157   1.760   4.293 -0.0653 -1.5154  1.1009
 1385TIP3    H2 4120   4.084   1.689   4.405 -1.1947  0.1844  1.4792
 1386TIP3   OH2 4121   2.725   3.499   4.520 -0.1946  0.1859  0.2609
 1386TIP3    H1 4122   2.691   3.452   4.596  1.4190 -0.5276  0.5897
 1386TIP3    H2 4123   2.813   3.464   4.508 -0.0337  1.0385 -1.3122
 1387TIP3   OH2 4124   2.542   6.765   4.176 -0.0597  0.6790 -0.2462
 1387TIP3    H1 4125   2.636   6.779   4.163 -0.2665  0.1227 -2.9946
 1387TIP3    H2 4126   2.535   6.673   4.202  0.1219  0.4485 -0.9862
 1388TIP3   OH2 4127   3.235   5.002   3.640 -0.6743 -0.3608  0.0236
 1388TIP3    H1 4128   3.180   5.040   3.572 -3.4489 -1.5072  1.4643
 1388TIP3    H2 4129   3.286   5.076   3.674  0.6814  0.2724 -3.0352
 1389TIP3   OH2 4130   6.327   4.294   3.101  0.4237  0.0120  0.4105
 1389TIP3    H1 4131   6.379   4.366   3.137  0.9625 -0.0302 -0.2733
 1389TIP3    H2 4132   6.377   4.264   3.025 -1.0167  0.5777 -0.8213
 1390TIP3   OH2 4133   0.314   5.013   1.233  0.3826 -0.7676  0.6077
 1390TIP3    H1 4134   0.262   4.939   1.265  0.0146 -0.0475  1.7411
 1390TIP3    H2 4135   0.316   5.001   1.138 -2.8816 -0.2180  0.3528
 1391TIP3   OH2 4136   6.036   6.486   3.031  0.1656  0.1949 -0.4343
 1391TIP3    H1 4137   6.028   6.579   3.050 -1.3279  0.0505 -0.2632
 1391TIP3    H2 4138   6.117   6.460   3.076  0.6783  1.4183 -0.6031
 1392TIP3   OH2 4139   6.731   2.877   2.539 -0.5599 -0.0533 -0.5839
 1392TIP3    H1 4140   6.816   2.920   2.533 -0.4794 -0.2614 -0.9255
 1392TIP3    H2 4141   6.682   2.930   2.602 -0.4630  0.5340 -0.9947
 1393TIP3   OH2 4142   3.089   0.116   2.830 -0.1419 -0.2121  0.1217
 1393TIP3    H1 4143   3.048   0.057   2.893  0.0894 -0.6173 -0.1080
 1393TIP3    H2 4144   3.024   0.126   2.760  0.8558 -2.3852 -1.2032
 1394TIP3   OH2 4145   1.161   4.666   2.397  0.0772 -0.1938  0.3541
 1394TIP3    H1 4146   1.106   4.591   2.373  0.1548 -0.4357  0.9190
 1394TIP3    H2 4147   1.152   4.726   2.323  0.4807 -1.0078 -0.3712
 1395TIP3   OH2 4148   6.840   5.149   4.403 -0.5776 -0.2831 -0.0307
 1395TIP3    H1 4149   6.772   5.173   4.467 -1.4961  0.2960 -1.1885
 1395TIP3    H2 4150   6.791   5.121   4.326  0.5189 -0.4305 -0.6944
 1396TIP3   OH2 4151   4.140   0.580   3.540 -0.0433  0.5951 -0.2033
 1396TIP3    H1 4152   4.230   0.591   3.573  0.0161  2.2762 -0.8225
 1396TIP3    H2 4153   4.104   0.510   3.594  0.8002  1.6549  1.8722
 1397TIP3   OH2 4154   2.589   6.482   4.248  0.0259 -0.1393 -0.0596
 1397TIP3    H1 4155   2.685   6.479   4.242  0.0177  0.7235 -1.0174
 1397TIP3    H2 4156   2.559   6.414   4.187  0.0061 -2.1402  2.0609
 1398TIP3   OH2 4157   1.497   1.823  -0.029  0.5124 -0.4481  0.2855
 1398TIP3    H1 4158   1.533   1.757   0.030  2.2062  1.4895  1.5509
 1398TIP3    H2 4159   1.417   1.854   0.015 -0.1210 -1.4049 -0.1666
 1399TIP3   OH2 4160   3.137   5.569   0.911  0.0560 -0.0146  0.5863
 1399TIP3    H1 4161   3.084   5.490   0.917  1.0067 -0.8002 -0.7081
 1399TIP3    H2 4162   3.225   5.538   0.891  0.0221  1.3881 -2.3141
 1400TIP3   OH2 4163   2.523   1.855   0.640 -0.5041  0.0247 -0.5871
 1400TIP3    H1 4164   2.544   1.948   0.637  0.5764 -0.2272 -1.4399
 1400TIP3    H2 4165   2.570   1.817   0.566 -0.5889 -1.2645 -0.0071
 1401TIP3   OH2 4166   0.424   3.494   3.421 -0.2936 -0.4904  0.1735
 1401TIP3    H1 4167   0.497   3.470   3.364 -0.3794 -1.0368  0.2876
 1401TIP3    H2 4168   0.347   3.495   3.364 -0.5834 -2.2033  0.4798
 1402TIP3   OH2 4169   3.594   1.563   3.305 -0.6774  0.4581  0.3377
 1402TIP3    H1 4170   3.543   1.496   3.351 -1.8291  2.0784  1.5376
 1402TIP3    H2 4171   3.540   1.586   3.229  0.1616 -0.6055 -0.6072
 1403TIP3   OH2 4172   6.341   5.787   2.202 -0.0535  0.0085 -0.4375
 1403TIP3    H1 4173   6.323   5.816   2.292  0.3726  3.6571 -1.3583
 1403TIP3    H2 4174   6.298   5.853   2.147  0.1375 -1.8217 -2.9484
 1404TIP3   OH2 4175   2.334   1.708   3.129  0.1036 -0.2867 -0.1447
 1404TIP3    H1 4176   2.397   1.637   3.116  0.9332  0.1218  1.4065
 1404TIP3    H2 4177   2.388   1.784   3.152 -0.9359  0.1242  1.0361
 1405TIP3   OH2 4178   0.745   1.328   0.461 -0.5379  0.0892 -0.3761
 1405TIP3    H1 4179   0.834   1.360   0.473  0.0117 -0.6071 -2.3072
 1405TIP3    H2 4180   0.743   1.295   0.371 -2.1135 -1.9429  0.3295
 1406TIP3   OH2 4181   5.617   3.783   5.059 -0.1243  0.4869  0.4472
 1406TIP3    H1 4182   5.644   3.698   5.094 -0.3257 -0.0125 -0.5815
 1406TIP3    H2 4183   5.533   3.767   5.017  0.1357  1.0394 -0.3207
 1407TIP3   OH2 4184   5.958   2.498   0.999  0.3053  0.3196  0.4290
 1407TIP3    H1 4185   6.018   2.570   1.016  5.2203 -2.4591 -2.7227
 1407TIP3    H2 4186   5.939   2.505   0.905 -2.6855 -0.2636  0.8801
 1408TIP3   OH2 4187   4.313   4.859   2.339  0.4624  0.0268  0.7007
 1408TIP3    H1 4188   4.360   4.941   2.354 -0.0428  0.2755  0.9711
 1408TIP3    H2 4189   4.237   4.884   2.286 -0.1790 -0.1066  1.5305
 1409TIP3   OH2 4190   4.677   3.638   3.516  0.8732 -0.3874  0.6562
 1409TIP3    H1 4191   4.650   3.683   3.436  2.7289  0.4103  0.4225
 1409TIP3    H2 4192   4.609   3.660   3.580 -0.4437 -0.7418 -0.5716
 1410TIP3   OH2 4193   3.191   1.102   0.315  0.5055 -0.4727  0.3034
 1410TIP3    H1 4194   3.280   1.132   0.296 -0.1197  2.0427  0.9564
 1410TIP3    H2 4195   3.141   1.125   0.237  0.0346  0.0755  0.7579
 1411TIP3   OH2 4196   3.335   4.760   2.831 -0.4876  0.0269  0.0096
 1411TIP3    H1 4197   3.396   4.703   2.785  0.3470  0.1449  0.9240
 1411TIP3    H2 4198   3.312   4.828   2.767 -1.1493 -1.0619 -0.9365
 1412TIP3   OH2 4199   5.750   5.914   0.029  0.3106  0.1145 -0.0418
 1412TIP3    H1 4200   5.801   5.854   0.084 -0.2036  0.4477  0.8310
 1412TIP3    H2 4201   5.726   5.986   0.088 -1.1020 -0.0033 -0.4275
 1413TIP3   OH2 4202   6.384   4.328   0.402  0.0339  0.1626  0.1387
 1413TIP3    H1 4203   6.356   4.237   0.401 -0.7343  0.2977 -3.4938
 1413TIP3    H2 4204   6.480   4.324   0.404  0.0128 -0.7417 -0.1650
 1414TIP3   OH2 4205   1.069   2.334   1.278  0.2859 -0.0862  0.9155
 1414TIP3    H1 4206   1.028   2.278   1.343 -0.7814  0.6237  0.8871
 1414TIP3    H2 4207   1.118   2.274   1.222 -1.6880 -1.1436  0.2295
 1415TIP3   OH2 4208   1.518   0.361   3.112  0.1180 -0.1395 -0.1987
 1415TIP3    H1 4209   1.453   0.292   3.101 -1.0215  0.8837 -0.0136
 1415TIP3    H2 4210   1.596   0.327   3.067 -0.5834 -1.3082 -0.5799
 1416TIP3   OH2 4211   1.377   4.654   1.420  0.0605 -0.1852 -0.4917
 1416TIP3    H1 4212   1.398   4.567   1.387 -0.5344 -0.3006 -0.5842
 1416TIP3    H2 4213   1.406   4.714   1.351 -0.6756 -0.3926 -0.9926
 1417TIP3   OH2 4214   5.814   2.777   1.814  0.0854  0.1886 -0.2857
 1417TIP3    H1 4215   5.875   2.767   1.740 -1.6463 -1.9801 -1.5405
 1417TIP3    H2 4216   5.736   2.817   1.776 -0.2303  0.5665  0.7292
 1418TIP3   OH2 4217   2.200   2.443   1.073  0.0878  0.1707 -0.0938
 1418TIP3    H1 4218   2.185   2.447   0.978 -0.9923  1.0306  0.0843
 1418TIP3    H2 4219   2.211   2.535   1.099  2.3949 -0.1833  0.3468
 1419TIP3   OH2 4220   2.449   4.235   4.057 -0.3787 -0.2184 -0.1335
 1419TIP3    H1 4221   2.542   4.247   4.041 -0.4466  1.1715  0.4042
 1419TIP3    H2 4222   2.441   4.145   4.086  0.5222 -0.9885 -2.0881
 1420TIP3   OH2 4223   0.193   3.449   2.660  0.7396 -0.0894 -0.2274
 1420TIP3    H1 4224   0.203   3.366   2.613 -0.6310 -1.3926  1.6231
 1420TIP3    H2 4225   0.280   3.468   2.694  1.0693 -0.7680 -0.6623
 1421TIP3   OH2 4226   6.311   0.806   5.784 -0.1481  0.4725  0.0282
 1421TIP3    H1 4227   6.217   0.813   5.769 -0.1487 -0.2816 -0.4102
 1421TIP3    H2 4228   6.328   0.711   5.783  0.7155  0.6208 -0.6243
 1422TIP3   OH2 4229   1.026   5.507   0.022  0.1568 -0.0678 -0.2838
 1422TIP3    H1 4230   1.092   5.438   0.026 -0.4128 -0.7298 -1.5511
 1422TIP3    H2 4231   1.072   5.583  -0.013  0.2936 -0.4696 -0.9834
 1423TIP3   OH2 4232   3.281   5.808   3.978 -0.3645  0.2033  0.2481
 1423TIP3    H1 4233   3.258   5.859   3.901  0.4034  0.1900  0.0029
 1423TIP3    H2 4234   3.268   5.868   4.052 -1.1567  0.1948  0.1159
 1424TIP3   OH2 4235   6.852   1.275   4.938 -0.2692  0.6676  0.1118
 1424TIP3    H1 4236   6.938   1.313   4.917 -0.7341 -0.1477 -4.2251
 1424TIP3    H2 4237   6.872   1.184   4.961  0.0556  0.2552 -1.6656
 1425TIP3   OH2 4238   5.800   6.561   4.271  0.2734 -0.2114 -0.5005
 1425TIP3    H1 4239   5.812   6.502   4.345  0.8568  1.3176  0.6786
 1425TIP3    H2 4240   5.759   6.507   4.203  1.7465 -2.2302  0.1232
 1426TIP3   OH2 4241   4.647   3.967   3.502 -0.6122 -0.5649  0.2166
 1426TIP3    H1 4242   4.681   4.022   3.431  0.0047 -2.2849 -0.8850
 1426TIP3    H2 4243   4.593   3.902   3.458  0.4969 -2.2181  1.1798
 1427TIP3   OH2 4244   6.877   3.622   3.623 -0.2419  0.0270  0.2437
 1427TIP3    H1 4245   6.971   3.627   3.608  0.1566 -2.0039  1.5700
 1427TIP3    H2 4246   6.839   3.684   3.561  1.8673 -0.0965 -1.2817
 1428TIP3   OH2 4247   2.480   4.684   2.761  0.6423 -0.3350  0.4738
 1428TIP3    H1 4248   2.513   4.701   2.849 -0.7477 -0.6449  1.0701
 1428TIP3    H2 4249   2.487   4.768   2.716  1.4526 -0.2007  0.8253
 1429TIP3   OH2 4250   1.370   1.507   1.277 -0.8693  0.3240 -1.2165
 1429TIP3    H1 4251   1.280   1.477   1.278 -0.5241 -0.9934  1.5787
 1429TIP3    H2 4252   1.396   1.504   1.185 -3.6998  0.9918 -2.1229
 1430TIP3   OH2 4253   1.039   3.659   4.332 -0.2477 -0.2109  0.1011
 1430TIP3    H1 4254   1.016   3.745   4.366 -0.3984  0.0371 -0.6214
 1430TIP3    H2 4255   0.981   3.645   4.258 -0.1256 -0.8738  0.1222
 1431TIP3   OH2 4256   0.680   6.214   2.511 -0.2529  0.2221  0.5931
 1431TIP3    H1 4257   0.627   6.134   2.517  0.2057 -0.0609  1.0784
 1431TIP3    H2 4258   0.635   6.277   2.567  0.0671 -0.1073  1.2353
 1432TIP3   OH2 4259   0.298   5.078   5.141  0.2014  0.5078 -0.0807
 1432TIP3    H1 4260   0.302   5.028   5.223 -0.3642 -1.0986 -0.9736
 1432TIP3    H2 4261   0.338   5.162   5.161 -0.4028  0.3474  1.9822
 1433TIP3   OH2 4262   2.354   0.271   5.179 -0.1561 -0.4421  0.0230
 1433TIP3    H1 4263   2.318   0.357   5.203 -1.5355 -0.6171 -1.2454
 1433TIP3    H2 4264   2.393   0.285   5.093  0.4526 -0.8832  0.2236
 1434TIP3   OH2 4265   4.908   5.477   0.326  0.0531  0.2917 -0.5101
 1434TIP3    H1 4266   4.884   5.558   0.371  2.4016  0.3360  0.8099
 1434TIP3    H2 4267   4.958   5.505   0.250 -0.0588  0.1068 -0.6539
 1435TIP3   OH2 4268   1.619   3.465   5.269  0.3224 -0.2400  0.3594
 1435TIP3    H1 4269   1.592   3.440   5.357 -0.7012  0.4971  0.2704
 1435TIP3    H2 4270   1.646   3.557   5.276 -2.9464  0.9256 -0.6647
 1436TIP3   OH2 4271   4.895   3.387   0.700 -0.1945 -0.0948 -0.2377
 1436TIP3    H1 4272   4.884   3.400   0.606  1.1925 -0.5227 -0.4717
 1436TIP3    H2 4273   4.984   3.416   0.719 -1.2987  2.6149  1.4570
 1437TIP3   OH2 4274   1.052   0.051   2.137 -0.3201 -0.1887  0.5637
 1437TIP3    H1 4275   1.101   0.125   2.175  0.4096 -0.6158  0.4626
 1437TIP3    H2 4276   1.052  -0.015   2.206  0.5332 -0.7588  0.0193
 1438TIP3   OH2 4277   7.107   6.738   5.253  0.6917 -0.0397 -0.1027
 1438TIP3    H1 4278   7.020   6.769   5.279  0.1804 -2.1474  0.9246
 1438TIP3    H2 4279   7.152   6.721   5.335  2.1678  1.1548 -0.6227
 1439TIP3   OH2 4280   2.289   4.156   3.855  0.0410  0.2219  0.1197
 1439TIP3    H1 4281   2.344   4.195   3.923 -1.4677  0.7323  1.0989
 1439TIP3    H2 4282   2.324   4.068   3.845  0.6592  0.3223  1.1419
 1440TIP3   OH2 4283   0.482   6.018   3.911 -0.3289 -0.0695 -0.3584
 1440TIP3    H1 4284   0.514   5.951   3.970 -1.2919  0.5967  0.9644
 1440TIP3    H2 4285   0.389   6.026   3.931 -0.4572  0.9047 -1.2437
 1441TIP3   OH2 4286   3.940   3.131   3.841  0.1117 -0.3912  0.4467
 1441TIP3    H1 4287   3.920   3.069   3.771  0.8125  0.3528 -0.4282
 1441TIP3    H2 4288   3.969   3.076   3.914  0.4982 -1.1108 -0.2398
 1442TIP3   OH2 4289   5.533   1.065   4.985  0.0621 -0.0281 -0.4819
 1442TIP3    H1 4290   5.485   1.112   4.916 -1.6197 -1.2590 -0.2059
 1442TIP3    H2 4291   5.563   1.134   5.044 -1.2602  0.8106 -0.7394
 1443TIP3   OH2 4292   2.442   1.978   3.026 -0.6574 -0.3565  0.0994
 1443TIP3    H1 4293   2.358   2.022   3.039 -0.2350  0.8615 -1.0808
 1443TIP3    H2 4294   2.486   1.983   3.111 -1.1693  0.3287  0.3240
 1444TIP3   OH2 4295   2.257   5.699   5.716  0.2852  0.4135  0.0237
 1444TIP3    H1 4296   2.282   5.681   5.807 -1.0986 -0.8184  0.2085
 1444TIP3    H2 4297   2.258   5.613   5.673  1.9073  1.1135 -1.4250
 1445TIP3   OH2 4298   1.743   6.086   5.671  0.4591  0.3002  0.5504
 1445TIP3    H1 4299   1.825   6.134   5.684  0.1586  1.3675 -1.1254
 1445TIP3    H2 4300   1.763   6.021   5.604 -0.2777  1.3166 -0.7187
 1446TIP3   OH2 4301   6.562   4.714   4.741 -0.3131  0.0337  0.6896
 1446TIP3    H1 4302   6.565   4.623   4.712 -1.3076  1.0274 -3.0665
 1446TIP3    H2 4303   6.469   4.736   4.744 -0.0758  1.3533 -0.2624
 1447TIP3   OH2 4304   0.654   3.182   3.792  0.3999  0.0532  0.3323
 1447TIP3    H1 4305   0.734   3.184   3.845  0.5939  1.0038  0.0332
 1447TIP3    H2 4306   0.677   3.229   3.712 -0.5195  0.5771  0.3508
 1448TIP3   OH2 4307   6.460   2.639   1.551 -0.2536 -0.7007 -0.0738
 1448TIP3    H1 4308   6.386   2.671   1.500 -0.4495  0.0252  0.6347
 1448TIP3    H2 4309   6.478   2.710   1.613  1.3118 -0.6904 -0.5166
 1449TIP3   OH2 4310   1.849   1.222   0.875 -0.1968 -0.0547  0.2982
 1449TIP3    H1 4311   1.807   1.139   0.894 -0.3444 -0.5490 -1.8733
 1449TIP3    H2 4312   1.925   1.225   0.933 -1.4513 -0.5875  2.0527
 1450TIP3   OH2 4313   3.583   0.819   5.381  0.0303  0.0861  0.1038
 1450TIP3    H1 4314   3.582   0.893   5.320  0.7413 -0.6117 -0.7763
 1450TIP3    H2 4315   3.491   0.796   5.393 -0.1127 -1.9456 -3.4621
 1451TIP3   OH2 4316   4.459   6.609   4.018  0.1539  0.5959  0.2594
 1451TIP3    H1 4317   4.505   6.655   3.949 -0.7657  1.0294 -0.0872
 1451TIP3    H2 4318   4.448   6.674   4.088  0.5622  0.3328  0.5715
 1452TIP3   OH2 4319   4.641   6.753   1.770  0.6879  0.1102  0.4226
 1452TIP3    H1 4320   4.728   6.784   1.745  0.5598 -0.3570 -0.6339
 1452TIP3    H2 4321   4.601   6.829   1.812  1.2007  0.6874 -0.0952
 1453TIP3   OH2 4322   5.899   5.757   5.034  0.4584 -0.8887 -0.0112
 1453TIP3    H1 4323   5.966   5.708   4.986  0.7161 -1.6627  1.1013
 1453TIP3    H2 4324   5.940   5.775   5.119 -0.3876 -0.5061  0.3164
 1454TIP3   OH2 4325   0.421   1.674   1.060  0.1639  0.0689 -0.4435
 1454TIP3    H1 4326   0.424   1.604   1.125  1.1735 -0.1974 -0.7489
 1454TIP3    H2 4327   0.494   1.732   1.085  0.0481  0.3990 -0.8631
 1455TIP3   OH2 4328   0.120   1.663   0.108 -0.3520 -0.2973 -0.0898
 1455TIP3    H1 4329   0.056   1.715   0.058 -1.6190 -1.7437 -0.0153
 1455TIP3    H2 4330   0.179   1.729   0.145 -1.5026  1.0533 -0.5478
 1456TIP3   OH2 4331   2.874   4.362   0.410  0.1813 -0.2835 -0.0257
 1456TIP3    H1 4332   2.784   4.355   0.379  0.5115 -0.9156 -0.8897
 1456TIP3    H2 4333   2.880   4.301   0.483  0.5245 -2.1120 -1.5056
 1457TIP3   OH2 4334   4.131   1.245   5.834 -0.3321  0.6429  0.5308
 1457TIP3    H1 4335   4.117   1.339   5.845  0.8484  0.7866  0.9277
 1457TIP3    H2 4336   4.050   1.204   5.866 -1.5568  1.5671 -1.2168
 1458TIP3   OH2 4337   6.723   1.014   5.295 -0.0172  0.4701 -0.7198
 1458TIP3    H1 4338   6.765   1.099   5.282 -2.3015  1.6804 -0.5588
 1458TIP3    H2 4339   6.796   0.952   5.299  1.7250  2.4253 -0.6257
 1459TIP3   OH2 4340   3.920   0.033   5.594 -0.7495 -0.2663 -0.3303
 1459TIP3    H1 4341   4.013   0.047   5.610 -0.6889 -1.2837  0.2994
 1459TIP3    H2 4342   3.912   0.034   5.498 -0.0914 -0.2237 -0.3911
 1460TIP3   OH2 4343   6.300   6.255   2.228 -0.1335 -0.3016 -0.0574
 1460TIP3    H1 4344   6.294   6.281   2.320 -0.9812  0.6540 -0.3635
 1460TIP3    H2 4345   6.211   6.265   2.195  0.3718  0.4217 -1.2566
 1461TIP3   OH2 4346   0.730   0.167   0.366 -0.1095  0.8833 -0.3280
 1461TIP3    H1 4347   0.815   0.210   0.378  0.7597 -1.0171  0.7890
 1461TIP3    H2 4348   0.725   0.151   0.272  2.2904 -1.7712 -0.1341
 1462TIP3   OH2 4349   6.660   1.400   3.756 -0.3721  0.1280  0.4240
 1462TIP3    H1 4350   6.681   1.328   3.696  0.3844  0.2239  0.5625
 1462TIP3    H2 4351   6.716   1.385   3.832 -1.5293 -0.1582  1.2505
 1463TIP3   OH2 4352   6.221   6.494   4.975 -0.4154  0.4000  0.0684
 1463TIP3    H1 4353   6.262   6.418   4.933  1.4692  1.3149  0.1766
 1463TIP3    H2 4354   6.165   6.532   4.907 -2.8185 -2.0125  0.5037
 1464TIP3   OH2 4355   0.529   3.458   3.962 -0.5621  0.1485 -0.2218
 1464TIP3    H1 4356   0.546   3.494   4.049 -1.6500  0.7066 -0.2148
 1464TIP3    H2 4357   0.588   3.384   3.954 -0.5710 -0.0170  1.0596
 1465TIP3   OH2 4358   5.376   5.790   0.698 -0.3502  0.3724  0.3430
 1465TIP3    H1 4359   5.406   5.766   0.786  0.1247 -2.5427 -0.5224
 1465TIP3    H2 4360   5.283   5.810   0.710 -0.1276  0.7859  1.6090
 1466TIP3   OH2 4361   0.036   3.562   1.823 -0.1644  0.0580 -0.4562
 1466TIP3    H1 4362   0.131   3.567   1.811  0.1016  0.5909  1.5854
 1466TIP3    H2 4363   0.008   3.495   1.760  1.5267 -0.0271 -1.1822
 1467TIP3   OH2 4364   3.186   1.041   5.476  0.1014 -0.0708 -0.5167
 1467TIP3    H1 4365   3.261   1.094   5.448  0.2028 -0.4769 -1.0338
 1467TIP3    H2 4366   3.133   1.031   5.397 -1.6697  2.0614  0.3141
 1468TIP3   OH2 4367   5.872   2.000   2.674  0.1174  0.0646  0.1958
 1468TIP3    H1 4368   5.803   1.984   2.610 -0.6681 -0.5486  1.1462
 1468TIP3    H2 4369   5.831   1.978   2.758  2.2675 -3.1712  0.5794
 1469TIP3   OH2 4370   2.677   2.299   3.721 -0.3125 -0.0941 -0.0018
 1469TIP3    H1 4371   2.589   2.320   3.752 -0.1842 -0.2413  0.4683
 1469TIP3    H2 4372   2.697   2.215   3.762  0.8857  0.9330  1.6514
 1470TIP3   OH2 4373   5.004   2.211   4.367 -0.0386  1.0132  0.0256
 1470TIP3    H1 4374   5.062   2.268   4.418  0.1486  1.1487 -0.3346
 1470TIP3    H2 4375   4.916   2.240   4.390  0.0548  1.3913 -0.0955
 1471TIP3   OH2 4376   5.938   0.746   4.283 -0.8099  0.5128  0.1674
 1471TIP3    H1 4377   5.866   0.766   4.343 -1.7079  0.2723 -0.7931
 1471TIP3    H2 4378   5.997   0.689   4.333 -1.7359 -0.0010  0.6950
 1472TIP3   OH2 4379   2.656   1.855   1.261 -0.3429  0.4100  0.4126
 1472TIP3    H1 4380   2.666   1.905   1.181  0.5531  0.2571  0.4214
 1472TIP3    H2 4381   2.689   1.912   1.330  2.9551 -0.9876  0.1547
 1473TIP3   OH2 4382   0.046   4.121   0.363  0.1405 -0.3768 -0.1890
 1473TIP3    H1 4383   0.080   4.196   0.411  0.3188  0.6876 -1.8835
 1473TIP3    H2 4384   0.118   4.058   0.361 -0.3327 -1.0872  2.0990
 1474TIP3   OH2 4385   0.752   5.483   4.796  0.4602 -0.3588  0.4597
 1474TIP3    H1 4386   0.769   5.442   4.881 -1.8598  2.1605  2.3328
 1474TIP3    H2 4387   0.796   5.568   4.800  0.1181 -0.0987 -0.7674
 1475TIP3   OH2 4388   0.616   2.664   3.051  0.0205 -0.1183  0.1661
 1475TIP3    H1 4389   0.649   2.745   3.090  1.8366 -1.2460  1.0745
 1475TIP3    H2 4390   0.521   2.671   3.057  0.1954  0.8774  2.4505
 1476TIP3   OH2 4391   3.842   2.106   4.583 -0.3477  1.0202 -0.0510
 1476TIP3    H1 4392   3.758   2.152   4.589 -1.0314 -0.1649 -0.2249
 1476TIP3    H2 4393   3.872   2.099   4.673 -1.2740 -0.0017  0.2079
 1477TIP3   OH2 4394   4.617   1.936   4.947 -0.1611 -0.0947 -0.4133
 1477TIP3    H1 4395   4.652   1.860   4.995 -0.9819  0.0570  0.4476
 1477TIP3    H2 4396   4.560   1.898   4.880  0.6050 -0.2862 -0.9773
 1478TIP3   OH2 4397   3.470   0.384   1.537  0.1148 -0.0645  0.1144
 1478TIP3    H1 4398   3.466   0.291   1.512  1.6726 -0.5487  1.5089
 1478TIP3    H2 4399   3.560   0.411   1.516  0.0825  0.7540  0.9580
 1479TIP3   OH2 4400   5.325   4.128   3.830 -0.2867 -0.1723  0.0840
 1479TIP3    H1 4401   5.255   4.082   3.784 -0.5086  0.2476 -0.0035
 1479TIP3    H2 4402   5.315   4.219   3.804  0.7031 -0.1997 -0.4477
 1480TIP3   OH2 4403   1.685   3.499   1.928  0.2924  0.4551 -0.3171
 1480TIP3    H1 4404   1.657   3.428   1.871  0.1268  0.2402  0.0312
 1480TIP3    H2 4405   1.668   3.467   2.017  0.3066  0.8893 -0.1556
 1481TIP3   OH2 4406   3.759   3.813   1.915 -0.0164 -0.2791  0.5812
 1481TIP3    H1 4407   3.798   3.874   1.978 -0.8069  0.1330  0.6885
 1481TIP3    H2 4408   3.672   3.850   1.896 -0.5462 -1.4038  0.7089
 1482TIP3   OH2 4409   3.438   3.083   4.191 -0.2532  0.1892  0.3794
 1482TIP3    H1 4410   3.427   3.174   4.163 -0.6249  0.0402  0.0247
 1482TIP3    H2 4411   3.351   3.055   4.219 -0.2652 -0.2301 -0.0567
 1483TIP3   OH2 4412   6.994   0.142   5.530  0.3030 -0.5735 -0.5611
 1483TIP3    H1 4413   7.000   0.221   5.583  0.2814 -0.5110 -0.6508
 1483TIP3    H2 4414   6.943   0.169   5.453  1.1699 -0.3986 -1.0911
 1484TIP3   OH2 4415   2.081   4.173   1.647  0.4680  0.7991  0.3985
 1484TIP3    H1 4416   2.090   4.196   1.555 -1.3456 -0.1547 -0.0534
 1484TIP3    H2 4417   2.048   4.253   1.689 -2.1860  0.2511 -0.4810
 1485TIP3   OH2 4418   6.758   1.559   0.504  0.3368 -0.5305 -0.0327
 1485TIP3    H1 4419   6.833   1.578   0.561 -0.9088  0.9120  1.1962
 1485TIP3    H2 4420   6.745   1.465   0.513  0.0045 -0.3233  2.3597
 1486TIP3   OH2 4421   2.961   2.798   3.012  0.3793 -0.5283  0.4917
 1486TIP3    H1 4422   3.002   2.882   2.993 -0.9392 -0.2600 -1.5991
 1486TIP3    H2 4423   2.979   2.744   2.935 -3.6115 -0.1238 -1.0002
 1487TIP3   OH2 4424   5.764   5.513   5.799 -0.1310 -0.0731 -0.0018
 1487TIP3    H1 4425   5.786   5.495   5.708  0.6760 -0.2939  0.2256
 1487TIP3    H2 4426   5.840   5.560   5.833 -1.0311  1.3240  0.1682
 1488TIP3   OH2 4427   3.526   2.582   0.394 -0.3758  0.5740  0.3734
 1488TIP3    H1 4428   3.531   2.604   0.487 -0.2114  1.8372  0.0861
 1488TIP3    H2 4429   3.609   2.614   0.357  0.3979 -1.6002  0.1021
 1489TIP3   OH2 4430   5.188   3.805   3.793  0.0903  0.4609  0.4859
 1489TIP3    H1 4431   5.198   3.888   3.745  1.7680 -0.1544 -0.2661
 1489TIP3    H2 4432   5.276   3.781   3.819 -0.4711 -0.7145  1.3928
 1490TIP3   OH2 4433   6.229   5.269   3.733 -0.0071 -0.8882  0.8436
 1490TIP3    H1 4434   6.260   5.360   3.735  0.9566 -1.1868  0.0911
 1490TIP3    H2 4435   6.239   5.238   3.823  2.5512 -1.1682  0.5404
 1491TIP3   OH2 4436   2.760   3.102   2.747 -0.3901 -0.3267  0.0345
 1491TIP3    H1 4437   2.712   3.036   2.796  1.2905 -1.5514  0.1223
 1491TIP3    H2 4438   2.693   3.150   2.698 -1.7808 -1.1791  1.0417
 1492TIP3   OH2 4439   5.961   1.007   3.653 -0.4281 -0.1389  0.5027
 1492TIP3    H1 4440   6.014   0.942   3.700 -0.3209  0.7355  1.6146
 1492TIP3    H2 4441   5.884   0.958   3.625 -0.0385 -0.9121  0.7502
 1493TIP3   OH2 4442   3.920   6.429   2.254 -0.1914 -0.0239 -0.4679
 1493TIP3    H1 4443   3.962   6.396   2.175  0.0606  1.8290 -1.1491
 1493TIP3    H2 4444   3.987   6.482   2.297 -0.6511 -0.1651  0.4540
 1494TIP3   OH2 4445   5.656   3.821   1.587  0.1086  1.0703 -0.1416
 1494TIP3    H1 4446   5.609   3.745   1.552  0.9106  0.5717 -0.1519
 1494TIP3    H2 4447   5.729   3.834   1.526 -1.1803  3.1612 -1.3762
 1495TIP3   OH2 4448   4.513   3.765   0.681  0.2218 -0.1015  0.5020
 1495TIP3    H1 4449   4.548   3.682   0.714 -1.2186 -0.8022  0.3327
 1495TIP3    H2 4450   4.578   3.794   0.618  1.6059 -0.2001  1.8235
 1496TIP3   OH2 4451   4.771   3.318   3.917  0.6023  0.6509  0.5739
 1496TIP3    H1 4452   4.834   3.319   3.845 -0.0245  1.2010  0.0129
 1496TIP3    H2 4453   4.792   3.238   3.967  0.8758  0.1157 -0.3723
 1497TIP3   OH2 4454   2.724   2.865   3.180  0.3023 -0.1283  0.3265
 1497TIP3    H1 4455   2.725   2.960   3.175  0.5528  0.0361  2.4743
 1497TIP3    H2 4456   2.815   2.839   3.164  0.2909  0.0170  0.0264
 1498TIP3   OH2 4457   1.630   2.333   1.924  0.6846  0.1304  0.4094
 1498TIP3    H1 4458   1.581   2.294   1.851  0.2871 -0.4946  1.0052
 1498TIP3    H2 4459   1.674   2.409   1.885  0.1901  0.0117 -0.4018
 1499TIP3   OH2 4460   3.648   2.940   0.545  0.3737  0.0690  0.2110
 1499TIP3    H1 4461   3.712   3.010   0.535  0.3542  0.0430 -0.1312
 1499TIP3    H2 4462   3.588   2.972   0.612  0.4569  0.3138  0.1708
 1500TIP3   OH2 4463   1.057   5.917   0.004  0.2251  0.1608  0.0048
 1500TIP3    H1 4464   1.005   5.996   0.017 -0.7864 -0.6654  1.2301
 1500TIP3    H2 4465   1.091   5.896   0.091  0.1840 -0.9386 -0.2290
 1501TIP3   OH2 4466   1.618   1.836   4.261 -0.6000 -0.0847  1.0330
 1501TIP3    H1 4467   1.596   1.781   4.336 -0.8210  1.3510  2.0473
 1501TIP3    H2 4468   1.627   1.924   4.297  2.4190  0.1787 -0.0710
 1502TIP3   OH2 4469   0.264   6.267   4.035 -0.6674  0.1884 -0.3269
 1502TIP3    H1 4470   0.310   6.299   4.113 -1.7456  0.4664  0.2234
 1502TIP3    H2 4471   0.333   6.236   3.977  0.2945  1.6880 -0.0331
 1503TIP3   OH2 4472   2.628   0.121   3.405 -0.6366 -0.1945 -0.4767
 1503TIP3    H1 4473   2.688   0.091   3.474 -0.1648  0.1883 -0.7152
 1503TIP3    H2 4474   2.544   0.082   3.428  0.2066 -2.8456 -1.5087
 1504TIP3   OH2 4475   3.114   5.084   5.825 -0.6857  0.2452 -0.0863
 1504TIP3    H1 4476   3.154   5.130   5.899  0.1856 -0.3511 -0.1754
 1504TIP3    H2 4477   3.059   5.150   5.783 -1.8818  0.3855  1.5687
 1505TIP3   OH2 4478   2.635   0.727   4.934  0.2211  0.2030  0.0135
 1505TIP3    H1 4479   2.724   0.740   4.967  0.2749 -0.7346  0.2697
 1505TIP3    H2 4480   2.602   0.652   4.983 -0.8949  0.8232  0.2671
 1506TIP3   OH2 4481   6.869   3.503   4.749  0.0936 -0.1044  0.2243
 1506TIP3    H1 4482   6.855   3.416   4.786 -2.0824 -0.3481 -0.9944
 1506TIP3    H2 4483   6.949   3.494   4.697  0.2643 -1.1941  0.6469
 1507TIP3   OH2 4484   2.199   4.488   4.297 -0.4582 -0.2589  0.0646
 1507TIP3    H1 4485   2.181   4.520   4.209  0.2059 -0.6429 -0.2173
 1507TIP3    H2 4486   2.119   4.441   4.322 -0.6734 -0.0942 -0.3034
 1508TIP3   OH2 4487   6.757   1.166   4.451 -0.3260 -0.0118  0.2410
 1508TIP3    H1 4488   6.836   1.118   4.476 -1.2034 -1.2691  0.6820
 1508TIP3    H2 4489   6.710   1.179   4.533  0.2829  2.4314  0.2895
 1509TIP3   OH2 4490   0.647   0.564   3.443 -0.5551  0.2485  0.3361
 1509TIP3    H1 4491   0.703   0.530   3.372  0.0496  1.0196  0.4316
 1509TIP3    H2 4492   0.588   0.624   3.399 -2.0339 -1.3150  0.0702
 1510TIP3   OH2 4493   0.662   2.100   2.748  0.4417  0.2996 -0.1526
 1510TIP3    H1 4494   0.653   2.196   2.751 -2.0325  0.1416  0.7981
 1510TIP3    H2 4495   0.650   2.078   2.656  2.0636  0.9404 -0.5448
 1511TIP3   OH2 4496   3.790   4.067   5.354 -0.1382 -0.0837  0.6058
 1511TIP3    H1 4497   3.844   4.138   5.319  0.6224  0.0864  2.0198
 1511TIP3    H2 4498   3.854   4.001   5.382 -0.7667 -0.6628  0.6813
 1512TIP3   OH2 4499   3.763   5.866   1.530 -0.0850  0.4181 -0.7163
 1512TIP3    H1 4500   3.824   5.799   1.498  0.3472  0.8543 -0.8364
 1512TIP3    H2 4501   3.677   5.827   1.520  0.2358 -0.7541  0.7468
 1513TIP3   OH2 4502   4.398   3.217   5.561  0.2001  0.1367  0.0927
 1513TIP3    H1 4503   4.379   3.128   5.530 -1.2817  0.9254 -1.4091
 1513TIP3    H2 4504   4.333   3.233   5.629  0.2810  0.1839  0.1596
 1514TIP3   OH2 4505   5.720   6.235   5.634 -0.4414  0.3079 -0.4849
 1514TIP3    H1 4506   5.672   6.309   5.596 -1.1224  0.4916  0.6843
 1514TIP3    H2 4507   5.745   6.266   5.721  0.1372 -0.4930 -0.3596
 1515TIP3   OH2 4508   3.123   4.514   0.511  0.8486 -0.4890 -0.4223
 1515TIP3    H1 4509   3.046   4.459   0.494  0.0837 -0.1507  1.6917
 1515TIP3    H2 4510   3.101   4.599   0.473  0.1807 -0.4097  0.1231
 1516TIP3   OH2 4511   0.609   5.230   0.867 -0.3918 -0.4731 -0.0645
 1516TIP3    H1 4512   0.673   5.220   0.937  0.2445 -1.9856 -0.8182
 1516TIP3    H2 4513   0.637   5.168   0.800 -0.9159  0.9900 -1.7305
 1517TIP3   OH2 4514   2.632   4.962   3.713 -0.1097 -0.5419 -0.4407
 1517TIP3    H1 4515   2.677   4.900   3.655  2.6071 -0.1289  1.0482
 1517TIP3    H2 4516   2.584   4.906   3.775 -0.7435 -1.0276 -1.3400
 1518TIP3   OH2 4517   2.287   5.642   4.308  0.1386 -0.4001 -0.6338
 1518TIP3    H1 4518   2.235   5.672   4.382  0.7410  0.5845 -0.5918
 1518TIP3    H2 4519   2.288   5.547   4.316 -0.2151 -0.3283  0.3442
 1519TIP3   OH2 4520   3.839   4.815   2.434 -0.0360 -0.1516 -0.2453
 1519TIP3    H1 4521   3.907   4.770   2.485  0.1238 -1.0282 -1.1896
 1519TIP3    H2 4522   3.841   4.771   2.349 -0.5374  1.0473 -0.8901
 1520TIP3   OH2 4523   6.776   6.640   1.476  0.2223  0.4776  0.2792
 1520TIP3    H1 4524   6.685   6.631   1.449  0.6265 -0.0357 -0.9946
 1520TIP3    H2 4525   6.776   6.621   1.569 -0.6990 -1.4776 -0.0765
 1521TIP3   OH2 4526   1.089   4.831   3.966 -0.0580  0.0111 -0.5997
 1521TIP3    H1 4527   0.997   4.858   3.958 -0.1055 -0.4966 -2.4116
 1521TIP3    H2 4528   1.100   4.768   3.895  1.0233 -1.9189  1.1860
 1522TIP3   OH2 4529   0.838   5.444   1.293 -0.2952  0.1492  0.3391
 1522TIP3    H1 4530   0.859   5.357   1.328  0.8863  0.7575  1.2350
 1522TIP3    H2 4531   0.749   5.461   1.323 -0.8159 -1.0445 -0.4671
 1523TIP3   OH2 4532   2.197   0.999   0.957 -0.3737 -0.0448  0.0154
 1523TIP3    H1 4533   2.247   1.063   1.007 -0.0947 -1.0330  1.0349
 1523TIP3    H2 4534   2.198   0.920   1.011 -2.0159 -0.4517 -0.4991
 1524TIP3   OH2 4535   1.902   0.056   0.293 -0.4966  0.0783  0.3411
 1524TIP3    H1 4536   1.928  -0.021   0.243 -1.7033  0.7327 -1.3640
 1524TIP3    H2 4537   1.949   0.129   0.252  1.9084  0.1562  2.9315
 1525TIP3   OH2 4538   0.279   3.598   4.927 -0.4413  0.1572  0.2152
 1525TIP3    H1 4539   0.239   3.642   5.002 -0.9510  0.2206 -0.0856
 1525TIP3    H2 4540   0.211   3.540   4.894 -0.1518 -0.0227 -0.0745
 1526TIP3   OH2 4541   6.422   0.892   4.330 -0.0519 -0.1521  0.1125
 1526TIP3    H1 4542   6.399   0.955   4.262  0.2943 -0.5765 -0.4061
 1526TIP3    H2 4543   6.513   0.869   4.311 -0.1055 -0.6325  0.4315
 1527TIP3   OH2 4544   2.893   5.489   5.739  0.0429  0.0367  0.4633
 1527TIP3    H1 4545   2.873   5.404   5.778 -1.6887  0.4629  0.5481
 1527TIP3    H2 4546   2.859   5.553   5.801  0.2140  0.7745 -0.1871
 1528TIP3   OH2 4547   4.732   2.569   0.671 -0.1038  0.1330  0.0959
 1528TIP3    H1 4548   4.723   2.638   0.736 -1.6196  0.2871 -0.2394
 1528TIP3    H2 4549   4.783   2.608   0.600 -1.5336  1.1784 -0.4013
 1529TIP3   OH2 4550   4.649   0.757   1.722  0.2527 -0.4334 -0.6164
 1529TIP3    H1 4551   4.726   0.728   1.771  0.3257 -0.0418 -0.5012
 1529TIP3    H2 4552   4.627   0.842   1.759  0.7372  0.1958 -1.7234
 1530TIP3   OH2 4553   2.084   2.852   2.271 -0.1681 -0.1431  0.1849
 1530TIP3    H1 4554   2.017   2.785   2.262  0.2935 -0.6726  0.6635
 1530TIP3    H2 4555   2.035   2.933   2.283 -0.7946 -0.8790  3.3561
 1531TIP3   OH2 4556   4.697   2.907   1.317  0.0462  0.2549 -0.6241
 1531TIP3    H1 4557   4.692   3.002   1.329  0.0566 -0.0383  2.9120
 1531TIP3    H2 4558   4.607   2.877   1.327  0.4389 -0.2949  2.7193
 1532TIP3   OH2 4559   5.020   0.497   2.227 -0.2813  0.3536  0.0677
 1532TIP3    H1 4560   5.017   0.438   2.151  2.9509  2.1011 -1.6064
 1532TIP3    H2 4561   4.930   0.529   2.235 -1.6584 -3.0149 -0.3017
 1533TIP3   OH2 4562   2.431   2.072   1.584  0.4093 -0.3729 -0.2353
 1533TIP3    H1 4563   2.365   2.022   1.631 -0.3196  1.7195  1.0874
 1533TIP3    H2 4564   2.416   2.052   1.492 -0.3468 -1.9339  0.2046
 1534TIP3   OH2 4565   1.880   0.143   3.332  0.0138  0.2398 -0.3401
 1534TIP3    H1 4566   1.856   0.129   3.241 -0.3998  0.7787 -0.3210
 1534TIP3    H2 4567   1.900   0.236   3.338 -1.3659  0.5134  0.4214
 1535TIP3   OH2 4568   2.194   3.813   0.700 -0.0359  0.0723  0.2065
 1535TIP3    H1 4569   2.108   3.771   0.708 -0.7191  1.4701  0.3930
 1535TIP3    H2 4570   2.218   3.800   0.608 -0.3050 -0.5890  0.2257
 1536TIP3   OH2 4571   4.104   3.536   3.623  0.4191 -0.0907  0.0162
 1536TIP3    H1 4572   4.088   3.469   3.556  0.3928 -1.3531  1.2394
 1536TIP3    H2 4573   4.198   3.551   3.621  0.5595 -0.8973  0.3991
 1537TIP3   OH2 4574   4.557   1.783   4.160  0.3916  0.4922 -0.2099
 1537TIP3    H1 4575   4.604   1.866   4.158  0.0991  0.6519 -1.3636
 1537TIP3    H2 4576   4.625   1.716   4.152  0.8237  0.4863  2.6275
 1538TIP3   OH2 4577   2.258   4.045   1.829 -0.5216 -0.1644 -0.0439
 1538TIP3    H1 4578   2.212   4.048   1.745  1.4189  0.9212 -1.1342
 1538TIP3    H2 4579   2.256   4.136   1.859  0.2452 -0.2494  0.2619
 1539TIP3   OH2 4580   5.053   2.894   4.188 -0.3329 -0.1981  0.0292
 1539TIP3    H1 4581   5.001   2.815   4.204 -1.6719  0.2873 -1.6116
 1539TIP3    H2 4582   5.143   2.863   4.184 -0.9070 -1.8759 -1.6429
 1540TIP3   OH2 4583   6.711   3.874   2.313  0.1844  0.1846  0.0290
 1540TIP3    H1 4584   6.735   3.893   2.403 -1.7492 -0.7634  0.7994
 1540TIP3    H2 4585   6.654   3.946   2.287  0.8810  0.5487 -0.5086
 1541TIP3   OH2 4586   4.477   2.656   4.625  0.0978 -0.2243 -0.4608
 1541TIP3    H1 4587   4.432   2.730   4.667  0.6485 -0.4858  0.6216
 1541TIP3    H2 4588   4.480   2.589   4.693  0.4428 -0.9009 -1.1403
 1542TIP3   OH2 4589   3.858   4.607   0.069 -0.1347  0.3975 -0.0838
 1542TIP3    H1 4590   3.914   4.624   0.145 -1.1775 -0.1261  0.8439
 1542TIP3    H2 4591   3.834   4.515   0.076 -2.5785  0.9921  0.6540
 1543TIP3   OH2 4592   3.325   4.292   2.831 -0.8451  0.8138  0.5713
 1543TIP3    H1 4593   3.398   4.342   2.795 -0.9466 -0.4467 -1.5837
 1543TIP3    H2 4594   3.248   4.326   2.784 -1.0512 -0.5432 -0.1193
 1544TIP3   OH2 4595   0.109   1.909   2.950  0.4590 -0.3949 -0.3502
 1544TIP3    H1 4596   0.187   1.958   2.924  0.6507 -1.8777 -2.9257
 1544TIP3    H2 4597   0.040   1.938   2.890 -0.6639 -0.0599  1.0387
 1545TIP3   OH2 4598   4.867   4.447   2.211  0.3841 -0.3233  0.1993
 1545TIP3    H1 4599   4.861   4.526   2.264  0.1580 -1.1556  1.4815
 1545TIP3    H2 4600   4.953   4.452   2.170  1.2852 -0.4176  1.9869
 1546TIP3   OH2 4601   5.571   0.243   1.935  0.3221 -0.5916  0.3337
 1546TIP3    H1 4602   5.567   0.293   1.853  0.4570  0.2432  0.8240
 1546TIP3    H2 4603   5.646   0.281   1.981 -0.3413 -0.3982  1.2619
 1547TIP3   OH2 4604   1.810   4.823   3.443 -0.9448  0.6135 -0.2779
 1547TIP3    H1 4605   1.733   4.772   3.468  0.1413 -1.2230 -0.4447
 1547TIP3    H2 4606   1.854   4.768   3.378  1.0925  1.0480  0.6496
 1548TIP3   OH2 4607   0.337   5.307   0.813 -0.4600 -0.3748 -0.5353
 1548TIP3    H1 4608   0.411   5.293   0.872 -1.0119 -1.4596 -0.0806
 1548TIP3    H2 4609   0.324   5.223   0.770 -0.6672  0.1410 -1.5221
 1549TIP3   OH2 4610   5.415   6.485   0.949  0.2306 -0.3350  0.3573
 1549TIP3    H1 4611   5.355   6.526   0.886  1.2875 -0.9165 -1.0664
 1549TIP3    H2 4612   5.395   6.529   1.032 -0.3639  1.3173 -0.6115
 1550TIP3   OH2 4613   3.746   1.142   2.388 -0.5193 -0.0411 -0.4777
 1550TIP3    H1 4614   3.789   1.056   2.387  1.3707  0.8080  0.7419
 1550TIP3    H2 4615   3.693   1.142   2.467  2.2086  1.0227  1.5306
 1551TIP3   OH2 4616   6.439   3.805   2.169  0.0392 -0.6155  0.4129
 1551TIP3    H1 4617   6.346   3.829   2.177 -0.3281 -2.5527  4.5510
 1551TIP3    H2 4618   6.486   3.882   2.201 -0.3074 -0.5649  0.8121
 1552TIP3   OH2 4619   6.547   3.434   4.519  0.2763 -0.4871 -0.1977
 1552TIP3    H1 4620   6.543   3.439   4.424  2.5383 -0.2768 -0.3450
 1552TIP3    H2 4621   6.599   3.356   4.537  1.9855  0.7928  0.7370
 1553TIP3   OH2 4622   0.372   6.740   3.557 -0.1173  0.1329 -0.6117
 1553TIP3    H1 4623   0.328   6.699   3.483 -1.3235  0.0491  0.1296
 1553TIP3    H2 4624   0.351   6.684   3.632  1.3992  0.0008 -0.2519
 1554TIP3   OH2 4625   6.802   1.105   1.444 -0.4845 -0.8580 -0.3265
 1554TIP3    H1 4626   6.714   1.104   1.406 -1.1856  1.3740  1.0537
 1554TIP3    H2 4627   6.822   1.198   1.454  1.1656 -1.3460  1.3272
 1555TIP3   OH2 4628   3.893   0.639   1.661 -0.0028 -0.2971  0.2369
 1555TIP3    H1 4629   3.934   0.592   1.733  0.7075 -1.7473 -1.0472
 1555TIP3    H2 4630   3.949   0.715   1.646 -0.2480  0.1003  1.2894
 1556TIP3   OH2 4631   1.916   0.014   4.541 -0.2063 -0.5034 -0.3289
 1556TIP3    H1 4632   1.936   0.093   4.591 -0.3332 -0.5991 -0.1242
 1556TIP3    H2 4633   1.958   0.028   4.457 -1.1307  0.2590 -0.6878
 1557TIP3   OH2 4634   5.329   4.623   5.447  0.5523  0.1180 -0.5539
 1557TIP3    H1 4635   5.411   4.600   5.489  1.2530 -0.7699 -2.2909
 1557TIP3    H2 4636   5.291   4.539   5.421 -0.1337  0.5965 -1.1491
 1558TIP3   OH2 4637   6.783   6.607   4.258  0.3798 -0.8999 -0.1450
 1558TIP3    H1 4638   6.775   6.542   4.328  3.2962 -2.0087 -0.7040
 1558TIP3    H2 4639   6.693   6.635   4.241 -0.5059 -1.1027  3.4796
 1559TIP3   OH2 4640   0.546   6.296   0.445 -0.5824 -0.0076 -0.5364
 1559TIP3    H1 4641   0.539   6.297   0.540  1.1334 -1.4635 -0.3258
 1559TIP3    H2 4642   0.459   6.269   0.415 -1.1460  0.4638  0.6031
 1560TIP3   OH2 4643   1.930   1.181   3.896  0.2886  0.2115 -0.2935
 1560TIP3    H1 4644   1.961   1.095   3.925 -0.4487 -0.6046 -1.7918
 1560TIP3    H2 4645   1.992   1.243   3.934  0.6640 -0.9440  1.0745
 1561TIP3   OH2 4646   4.531   2.370   0.638  0.2209  0.3035 -0.8106
 1561TIP3    H1 4647   4.558   2.289   0.682  2.0368  0.7202 -1.0842
 1561TIP3    H2 4648   4.591   2.437   0.671 -1.5447  1.6803 -0.2348
 1562TIP3   OH2 4649   3.391   4.131   5.010  0.1581  0.2118 -0.3333
 1562TIP3    H1 4650   3.436   4.064   5.062 -1.4662 -1.1093 -0.5130
 1562TIP3    H2 4651   3.316   4.156   5.065 -0.2127  0.5994 -1.0027
 1563TIP3   OH2 4652   6.377   3.146   3.367 -0.7480  0.9017  0.4399
 1563TIP3    H1 4653   6.385   3.051   3.356  0.4263  0.8933  1.1595
 1563TIP3    H2 4654   6.303   3.156   3.428  0.1416  0.3306  1.6734
 1564TIP3   OH2 4655   1.875   0.283   5.432  0.7250 -0.4896  0.3660
 1564TIP3    H1 4656   1.841   0.352   5.375 -1.4318 -1.5410  0.2690
 1564TIP3    H2 4657   1.969   0.301   5.438  0.3259  2.1625 -0.0028
 1565TIP3   OH2 4658   4.767   0.306   2.701  0.0972  0.2217 -0.2698
 1565TIP3    H1 4659   4.804   0.372   2.642  1.8490 -0.1936  0.3162
 1565TIP3    H2 4660   4.830   0.235   2.701 -0.8018 -0.6069  0.6483
 1566TIP3   OH2 4661   4.773   2.302   5.467 -0.3584 -0.1246 -0.2317
 1566TIP3    H1 4662   4.843   2.355   5.505  1.3535 -4.4621  3.5903
 1566TIP3    H2 4663   4.692   2.348   5.491  0.9803  1.0202  2.4887
 1567TIP3   OH2 4664   0.521   1.413   4.822 -0.3307  0.1366  0.6606
 1567TIP3    H1 4665   0.543   1.320   4.835 -0.2934  0.2127  1.1398
 1567TIP3    H2 4666   0.589   1.461   4.869 -2.0722  0.3668  3.1826
 1568TIP3   OH2 4667   3.607   1.522   0.139  0.2345  0.3853 -0.2551
 1568TIP3    H1 4668   3.602   1.615   0.162  0.6819  0.0832  1.1565
 1568TIP3    H2 4669   3.687   1.491   0.183  0.4589 -0.5276 -1.2555
 1569TIP3   OH2 4670   2.805   0.127   0.258 -0.0750  0.0041  0.2662
 1569TIP3    H1 4671   2.742   0.055   0.251  0.4036 -0.4038  0.0243
 1569TIP3    H2 4672   2.791   0.179   0.180  1.7147 -1.6155 -1.2202
 1570TIP3   OH2 4673   5.551   2.133   3.664  0.2197 -0.1564 -0.7052
 1570TIP3    H1 4674   5.570   2.195   3.734  2.0529 -0.5871 -0.7683
 1570TIP3    H2 4675   5.633   2.127   3.615 -0.4189 -1.4049 -1.6680
 1571TIP3   OH2 4676   4.234   6.765   0.946  0.1237  0.9039  0.2851
 1571TIP3    H1 4677   4.296   6.714   0.896  0.4090 -0.0883  1.5844
 1571TIP3    H2 4678   4.235   6.852   0.906  0.5888  0.2492 -1.1606
 1572TIP3   OH2 4679   2.731   4.315   5.615  0.1286  0.3361 -0.0763
 1572TIP3    H1 4680   2.808   4.355   5.655  0.4530 -0.1802 -0.1832
 1572TIP3    H2 4681   2.692   4.262   5.685 -0.0607  0.4939 -0.0597
 1573TIP3   OH2 4682   5.805   4.014   2.584  0.8306  0.3921 -0.1571
 1573TIP3    H1 4683   5.771   3.926   2.571  0.4769  0.0918  2.2847
 1573TIP3    H2 4684   5.858   4.031   2.506  0.5265 -1.7753 -0.9068
 1574TIP3   OH2 4685   2.973   5.666   4.539 -0.1870  0.0023 -0.5556
 1574TIP3    H1 4686   3.023   5.712   4.472  1.1854  0.7734  0.9210
 1574TIP3    H2 4687   3.036   5.607   4.580 -0.7537  0.1834  0.6173
 1575TIP3   OH2 4688   0.734   3.660   3.045 -0.5746  0.6316  0.0080
 1575TIP3    H1 4689   0.710   3.638   2.955 -2.1912  0.0950  0.5290
 1575TIP3    H2 4690   0.771   3.748   3.039 -0.6874  0.6186 -1.1700
 1576TIP3   OH2 4691   0.934   0.469   4.705 -0.0115 -0.2050  0.4088
 1576TIP3    H1 4692   1.018   0.436   4.737  0.8506  1.5845  0.1618
 1576TIP3    H2 4693   0.875   0.463   4.780  0.1760 -1.9359  0.4499
 1577TIP3   OH2 4694   1.919   4.911   2.834 -0.2702  0.0861  0.0797
 1577TIP3    H1 4695   1.861   4.837   2.853  0.4164 -0.5049 -0.0615
 1577TIP3    H2 4696   1.973   4.880   2.761  0.9605  0.1920  0.9139
 1578TIP3   OH2 4697   2.074   3.263   2.458 -0.4243 -0.2346  0.2449
 1578TIP3    H1 4698   2.025   3.182   2.444 -0.4762 -0.3118  0.8571
 1578TIP3    H2 4699   2.163   3.242   2.432 -0.9241  0.2455 -2.0283
 1579TIP3   OH2 4700   5.406   2.885   5.426 -0.3170 -0.2021 -0.5934
 1579TIP3    H1 4701   5.395   2.792   5.448  0.6337  0.0845  1.2643
 1579TIP3    H2 4702   5.456   2.884   5.344  0.9260 -1.3502  0.1372
 1580TIP3   OH2 4703   0.834   0.500   5.535  0.2713  0.3020 -0.1262
 1580TIP3    H1 4704   0.766   0.529   5.596  1.5129  1.6882  0.6620
 1580TIP3    H2 4705   0.894   0.450   5.589  1.6297  1.9317 -0.0655
 1581TIP3   OH2 4706   7.003   1.638   0.631  0.4321  0.1635 -0.4520
 1581TIP3    H1 4707   7.056   1.580   0.685  1.2125  1.7371  0.5275
 1581TIP3    H2 4708   7.062   1.670   0.563  0.5312  1.2023  0.0954
 1582TIP3   OH2 4709   3.361   2.834   2.428  0.7839 -0.3049 -0.5645
 1582TIP3    H1 4710   3.436   2.827   2.487 -0.2214  1.0798  0.9691
 1582TIP3    H2 4711   3.307   2.904   2.466 -1.4335 -1.4400 -1.4366
 1583TIP3   OH2 4712   3.720   0.306   5.798 -0.6891 -0.0005 -0.2320
 1583TIP3    H1 4713   3.691   0.393   5.825 -0.7015 -0.0349 -0.1342
 1583TIP3    H2 4714   3.672   0.289   5.717 -2.6672 -0.9616  1.0455
 1584TIP3   OH2 4715   5.434   3.181   0.385 -0.1824  0.3681  0.0033
 1584TIP3    H1 4716   5.516   3.152   0.426 -0.4185 -0.2429  0.0590
 1584TIP3    H2 4717   5.372   3.188   0.458 -0.9401 -1.8784 -0.3181
 1585TIP3   OH2 4718   5.915   5.204   4.465  0.3186  0.1172 -0.2391
 1585TIP3    H1 4719   5.949   5.214   4.376  0.1569  0.9064 -0.2132
 1585TIP3    H2 4720   5.851   5.133   4.457 -1.5410  1.7959 -1.3006
 1586TIP3   OH2 4721   0.720   1.928   2.967 -0.1794 -0.5406  0.0222
 1586TIP3    H1 4722   0.715   1.968   2.880 -2.1664 -2.3685 -0.7801
 1586TIP3    H2 4723   0.796   1.869   2.962  0.3693  0.1603 -0.0839
 1587TIP3   OH2 4724   1.403   5.689   1.562 -0.3440 -0.2354 -0.6725
 1587TIP3    H1 4725   1.387   5.605   1.605 -1.8982 -0.6794 -2.0260
 1587TIP3    H2 4726   1.416   5.751   1.634 -0.9791 -1.2891  0.3852
 1588TIP3   OH2 4727   3.825   4.507   0.714 -0.2186  0.1449 -0.0598
 1588TIP3    H1 4728   3.783   4.455   0.782  0.2282 -0.2151 -0.0489
 1588TIP3    H2 4729   3.911   4.466   0.703 -0.5537 -0.2710 -1.3562
 1589TIP3   OH2 4730   2.149   4.066   0.072 -0.5207 -0.4718 -0.1841
 1589TIP3    H1 4731   2.183   4.019  -0.004  0.7845 -0.3431  0.3000
 1589TIP3    H2 4732   2.099   4.000   0.120  0.8658 -1.2857  0.2227
 1590TIP3   OH2 4733   1.704   6.385   5.635 -0.3166  0.7367  0.0212
 1590TIP3    H1 4734   1.757   6.374   5.556 -0.5174  1.2413 -0.1857
 1590TIP3    H2 4735   1.726   6.473   5.667  1.4494 -0.2537  1.7803
 1591TIP3   OH2 4736   4.852   5.183   2.613  0.1955  0.3118  0.6289
 1591TIP3    H1 4737   4.839   5.161   2.706 -1.3201  0.7042  0.5243
 1591TIP3    H2 4738   4.832   5.102   2.567  0.6423  0.2068  0.6119
 1592TIP3   OH2 4739   1.834   2.817   0.968  0.1496 -0.0166  0.4719
 1592TIP3    H1 4740   1.881   2.801   1.050 -0.5965  0.0931  0.9300
 1592TIP3    H2 4741   1.903   2.831   0.903  0.7538 -0.4366  1.0113
 1593TIP3   OH2 4742   2.559   2.715   3.500 -0.4317 -0.1521  0.4999
 1593TIP3    H1 4743   2.620   2.648   3.468 -1.0637  0.0147 -1.1920
 1593TIP3    H2 4744   2.612   2.771   3.556  0.3793 -1.3917  1.0292
 1594TIP3   OH2 4745   6.958   3.069   0.236 -0.2476 -0.4561 -0.3567
 1594TIP3    H1 4746   6.950   2.975   0.251  0.2738 -0.2198  1.6053
 1594TIP3    H2 4747   7.015   3.076   0.160  0.3093 -1.7099 -0.0763
 1595TIP3   OH2 4748   1.900   1.313   4.717  0.7463 -0.1694 -0.3594
 1595TIP3    H1 4749   1.914   1.226   4.755  1.8444  0.1263 -0.0409
 1595TIP3    H2 4750   1.968   1.320   4.650 -0.8124 -0.4665 -2.0499
 1596TIP3   OH2 4751   4.983   2.507   5.578  0.8305  0.9141 -0.7927
 1596TIP3    H1 4752   4.966   2.510   5.672  0.9739 -0.3230 -0.7170
 1596TIP3    H2 4753   4.910   2.557   5.539 -0.6709 -0.7131 -0.1936
 1597TIP3   OH2 4754   4.623   3.149   4.539 -0.6984  0.2051 -0.2043
 1597TIP3    H1 4755   4.687   3.210   4.577 -1.3217 -0.1361  1.4975
 1597TIP3    H2 4756   4.578   3.200   4.472  0.3868  0.8838 -0.4365
 1598TIP3   OH2 4757   5.239   5.550   3.034  0.0838  0.0922 -0.0003
 1598TIP3    H1 4758   5.255   5.484   3.101 -0.5501 -0.0842 -0.0145
 1598TIP3    H2 4759   5.225   5.500   2.954  1.2634  0.3170 -0.3679
 1599TIP3   OH2 4760   2.018   5.053   2.041  0.4095  0.1111  0.2932
 1599TIP3    H1 4761   2.109   5.066   2.015  0.3445 -0.5478 -0.3051
 1599TIP3    H2 4762   2.008   5.103   2.122  1.0046  1.0905 -0.2172
 1600TIP3   OH2 4763   1.763   1.105   0.308  0.1426 -0.2303 -0.0951
 1600TIP3    H1 4764   1.845   1.055   0.299  0.7465  0.7371 -0.0890
 1600TIP3    H2 4765   1.717   1.090   0.225  0.2484 -0.8926 -0.0430
 1601TIP3   OH2 4766   6.458   3.083   1.404  0.2336 -0.1961 -0.2829
 1601TIP3    H1 4767   6.460   3.134   1.485  2.7843 -1.0129  0.2664
 1601TIP3    H2 4768   6.393   3.127   1.350  0.6367  2.2268  1.0471
 1602TIP3   OH2 4769   6.836   0.676   4.952  0.4271 -0.0338 -0.0947
 1602TIP3    H1 4770   6.927   0.691   4.925  0.1019  0.7556 -0.8244
 1602TIP3    H2 4771   6.831   0.582   4.968  1.2509 -0.1693 -0.5426
 1603TIP3   OH2 4772   5.273   5.788   5.790 -0.0077 -0.0915  0.2378
 1603TIP3    H1 4773   5.329   5.710   5.789  0.1209 -0.0021  0.6682
 1603TIP3    H2 4774   5.214   5.774   5.864 -0.3801 -0.0564 -0.0457
 1604TIP3   OH2 4775   1.211   5.232   2.703  0.2668  0.2762 -0.3961
 1604TIP3    H1 4776   1.171   5.181   2.773 -3.0099  2.5555 -0.3539
 1604TIP3    H2 4777   1.179   5.192   2.623  1.5984 -0.5334 -0.5516
 1605TIP3   OH2 4778   2.170   3.912   1.081  0.1433 -0.1460  0.3333
 1605TIP3    H1 4779   2.168   3.818   1.063  0.2314 -0.4349  1.7172
 1605TIP3    H2 4780   2.263   3.935   1.085  0.1306  0.2654 -1.1821
 1606TIP3   OH2 4781   1.320   1.922   5.059  0.0436 -0.1893 -0.7801
 1606TIP3    H1 4782   1.387   1.984   5.032  0.3688  0.0323  0.4855
 1606TIP3    H2 4783   1.364   1.862   5.118 -1.1999  1.0133  1.5128
 1607TIP3   OH2 4784   5.734   3.534   1.125 -0.3613 -0.2024 -0.3944
 1607TIP3    H1 4785   5.737   3.630   1.128  1.5732 -0.2649  1.5883
 1607TIP3    H2 4786   5.822   3.506   1.148 -1.1455 -2.4807  0.0762
 1608TIP3   OH2 4787   4.979   4.898   5.587  0.1799 -0.4105 -0.4026
 1608TIP3    H1 4788   5.021   4.936   5.665  1.2208 -2.5374  0.1469
 1608TIP3    H2 4789   4.923   4.968   5.554 -0.2312  0.6028  2.1929
 1609TIP3   OH2 4790   0.122   1.503   5.599  0.1304  0.0734 -0.1423
 1609TIP3    H1 4791   0.078   1.447   5.535 -0.2216  1.2761 -0.9921
 1609TIP3    H2 4792   0.185   1.554   5.547  0.7802  0.1243  0.6783
 1610TIP3   OH2 4793   2.072   4.679   3.026 -0.1406 -0.0550 -0.1855
 1610TIP3    H1 4794   2.123   4.615   3.076 -0.8449  0.8151  1.7880
 1610TIP3    H2 4795   2.107   4.675   2.937  1.1338 -1.7688  0.3508
 1611TIP3   OH2 4796   2.029   5.987   4.261  0.5240  0.0796  0.2969
 1611TIP3    H1 4797   2.076   6.061   4.222  1.1034 -0.4073  0.0480
 1611TIP3    H2 4798   2.052   5.990   4.354  0.9615 -0.0891  0.1949
 1612TIP3   OH2 4799   1.248   3.063   0.244  0.1579 -0.3142 -0.1152
 1612TIP3    H1 4800   1.158   3.096   0.251  0.5465  0.6648  0.5198
 1612TIP3    H2 4801   1.288   3.116   0.175  0.5179 -0.0916  0.2583
 1613TIP3   OH2 4802   0.323   1.601   1.392 -0.5856  0.2058 -0.3140
 1613TIP3    H1 4803   0.263   1.556   1.450 -0.2202  0.6059  0.3913
 1613TIP3    H2 4804   0.329   1.690   1.427  1.8596 -0.3169  0.8121
 1614TIP3   OH2 4805   3.127   3.514   2.315 -0.0898  0.4033 -0.5019
 1614TIP3    H1 4806   3.142   3.424   2.346  0.2330  0.2565 -1.0645
 1614TIP3    H2 4807   3.054   3.545   2.368  1.5741  0.8161  1.7359
 1615TIP3   OH2 4808   6.317   2.331   4.585 -0.3759 -0.4350 -0.0046
 1615TIP3    H1 4809   6.346   2.343   4.675 -1.6432 -0.4234  0.4164
 1615TIP3    H2 4810   6.239   2.386   4.577  0.1612  0.2066 -1.3576
 1616TIP3   OH2 4811   1.156   4.694   4.498  0.1452 -0.0429 -0.3472
 1616TIP3    H1 4812   1.150   4.712   4.404  1.3286 -1.1479 -0.6621
 1616TIP3    H2 4813   1.115   4.769   4.539 -0.1727  0.5831 -1.7484
 1617TIP3   OH2 4814   1.029   6.793   5.726  0.2762  0.2761 -0.1842
 1617TIP3    H1 4815   1.073   6.808   5.810 -0.8185 -1.9794  0.8886
 1617TIP3    H2 4816   1.090   6.739   5.676 -0.2509 -0.9162  0.4037
 1618TIP3   OH2 4817   3.272   3.911   1.303 -0.0583  0.0604 -0.4810
 1618TIP3    H1 4818   3.280   3.959   1.220  0.1942 -2.6561 -2.1680
 1618TIP3    H2 4819   3.350   3.856   1.305 -0.4494 -0.4692  1.2053
 1619TIP3   OH2 4820   5.598   2.597   5.308 -0.5214 -0.1818  0.5304
 1619TIP3    H1 4821   5.612   2.548   5.389 -0.4013 -1.7638 -0.3923
 1619TIP3    H2 4822   5.677   2.580   5.256 -1.3965 -0.7595 -0.6539
 1620TIP3   OH2 4823   6.267   1.812   1.215  0.0987 -0.0219  0.3002
 1620TIP3    H1 4824   6.248   1.852   1.130  1.1174  0.2898  0.2051
 1620TIP3    H2 4825   6.188   1.761   1.236 -0.2117  0.0018 -0.7662
 1621TIP3   OH2 4826   4.289   1.249   3.940 -0.1887 -0.3168  0.1866
 1621TIP3    H1 4827   4.271   1.300   4.019 -1.6281  0.0690 -0.3612
 1621TIP3    H2 4828   4.385   1.252   3.930 -0.1006  0.6819  1.2124
 1622TIP3   OH2 4829   5.637   2.207   4.987  0.3749  0.2885  0.0881
 1622TIP3    H1 4830   5.675   2.185   4.902  1.4148 -0.0142  0.6125
 1622TIP3    H2 4831   5.548   2.236   4.967 -0.5939 -2.8967 -0.8552
 1623TIP3   OH2 4832   2.855   3.378   3.036 -0.1628 -0.2321 -0.1203
 1623TIP3    H1 4833   2.821   3.461   3.003  0.3531 -0.9912 -2.7716
 1623TIP3    H2 4834   2.948   3.395   3.052 -0.3185  0.0074  0.5997
 1624TIP3   OH2 4835   5.142   1.686   0.285  0.4834 -0.2782  0.2239
 1624TIP3    H1 4836   5.063   1.676   0.336  0.0962  2.4955  0.3302
 1624TIP3    H2 4837   5.212   1.692   0.350  0.3638  0.4052  0.2919
 1625TIP3   OH2 4838   4.618   6.692   5.438  0.5557 -0.4946  0.3615
 1625TIP3    H1 4839   4.604   6.783   5.464  0.3392 -0.0273 -1.2688
 1625TIP3    H2 4840   4.661   6.698   5.353  1.1264 -1.9346  0.5265
 1626TIP3   OH2 4841   6.320   5.461   4.449 -0.6734 -0.2135 -0.4934
 1626TIP3    H1 4842   6.347   5.372   4.471 -0.7703  0.1023  1.0224
 1626TIP3    H2 4843   6.401   5.512   4.453 -1.0575  0.3206  1.8336
 1627TIP3   OH2 4844   6.941   6.296   3.794 -0.1235 -0.0187 -0.7058
 1627TIP3    H1 4845   6.903   6.213   3.766  0.8159 -0.9269  0.5881
 1627TIP3    H2 4846   6.950   6.289   3.889  1.9000  0.6832 -0.7746
 1628TIP3   OH2 4847   1.107   0.592   5.480 -0.0025 -0.1125 -0.0026
 1628TIP3    H1 4848   1.106   0.624   5.570  1.1884 -2.1002  0.7681
 1628TIP3    H2 4849   1.015   0.572   5.461 -0.2780  0.4125  0.7121
 1629TIP3   OH2 4850   3.562   1.911   1.722  0.3166  0.7154  0.0948
 1629TIP3    H1 4851   3.490   1.974   1.715  0.1802  0.6212  0.6202
 1629TIP3    H2 4852   3.551   1.871   1.808 -0.1505 -0.6922 -0.5840
 1630TIP3   OH2 4853   1.027   2.026   2.907 -1.0169  0.0909  0.1142
 1630TIP3    H1 4854   1.059   2.030   2.998 -0.1243  1.7139 -0.2396
 1630TIP3    H2 4855   1.047   1.936   2.880 -0.9659 -0.3173  1.4022
 1631TIP3   OH2 4856   2.637   5.296   1.556  0.2301  0.5914  0.1453
 1631TIP3    H1 4857   2.677   5.335   1.633  0.3453 -0.6872  0.7529
 1631TIP3    H2 4858   2.632   5.203   1.575 -0.0815  0.2923 -1.2450
 1632TIP3   OH2 4859   1.655   3.988   5.099 -0.3522  0.0367  0.1735
 1632TIP3    H1 4860   1.567   3.962   5.126  0.0340 -0.1180  1.3518
 1632TIP3    H2 4861   1.693   4.027   5.178 -0.0938  2.0749 -0.8746
 1633TIP3   OH2 4862   5.798   3.539   5.373 -0.3110 -0.2579 -0.2501
 1633TIP3    H1 4863   5.812   3.560   5.280 -0.7859  2.4079  0.2070
 1633TIP3    H2 4864   5.876   3.574   5.417 -1.2307  0.7977  0.5944
 1634TIP3   OH2 4865   1.286   2.403   3.901 -0.0500  0.7535 -0.4916
 1634TIP3    H1 4866   1.283   2.362   3.988 -2.9377 -2.3930 -1.8562
 1634TIP3    H2 4867   1.372   2.377   3.866  1.0211  1.7986  1.1990
 1635TIP3   OH2 4868   7.011   1.904   3.903  0.2133  0.0230 -0.6723
 1635TIP3    H1 4869   6.983   1.995   3.900 -2.6085 -0.6839  0.8739
 1635TIP3    H2 4870   7.037   1.889   3.994 -1.7632 -1.2724 -0.2601
 1636TIP3   OH2 4871   1.567   0.947   3.805  0.2133 -0.3880 -0.1032
 1636TIP3    H1 4872   1.637   1.011   3.819  0.6563 -1.0321  0.6717
 1636TIP3    H2 4873   1.499   0.972   3.869  0.6568 -1.0736  0.6402
 1637TIP3   OH2 4874   5.234   0.272   2.532  0.1260  0.1647  0.0957
 1637TIP3    H1 4875   5.251   0.255   2.439 -1.9255 -0.7946 -0.1502
 1637TIP3    H2 4876   5.272   0.359   2.548  0.3200  0.4391 -1.6769
 1638TIP3   OH2 4877   2.148   0.403   4.376 -0.1714  0.1392  0.2500
 1638TIP3    H1 4878   2.204   0.464   4.327 -0.9018 -0.2108 -1.0706
 1638TIP3    H2 4879   2.197   0.321   4.376 -0.5291 -0.0885 -0.6563
 1639TIP3   OH2 4880   7.186   2.166   1.519 -0.0039  0.1145 -0.0089
 1639TIP3    H1 4881   7.116   2.177   1.454  0.4093  0.9931 -0.3225
 1639TIP3    H2 4882   7.211   2.256   1.542  1.4231 -0.1777 -0.3409
 1640TIP3   OH2 4883   5.504   0.185   2.403 -0.0025 -0.2657 -0.0794
 1640TIP3    H1 4884   5.515   0.279   2.419  0.9162 -0.4773  0.6759
 1640TIP3    H2 4885   5.508   0.176   2.308  1.9680  0.2415 -0.0778
 1641TIP3   OH2 4886   3.254   1.364   3.813 -0.1214  0.0215  0.2392
 1641TIP3    H1 4887   3.205   1.375   3.894 -1.2419  2.8990 -0.7037
 1641TIP3    H2 4888   3.332   1.419   3.825 -0.1154  0.1772 -0.4891
 1642TIP3   OH2 4889   2.841   6.697   5.820  0.1549  0.3183  0.4873
 1642TIP3    H1 4890   2.824   6.791   5.812 -0.1628  0.1962 -0.3594
 1642TIP3    H2 4891   2.815   6.676   5.910  0.4641  1.0804  0.7671
 1643TIP3   OH2 4892   2.157   5.478   0.591  0.8170 -0.1046  0.0532
 1643TIP3    H1 4893   2.180   5.406   0.650  1.0016  0.1296  0.2676
 1643TIP3    H2 4894   2.240   5.522   0.574  1.5857 -2.4631 -3.5059
 1644TIP3   OH2 4895   3.812   0.701   2.880  0.1638  0.1577 -0.6303
 1644TIP3    H1 4896   3.907   0.710   2.874  0.0157  1.4712 -1.6107
 1644TIP3    H2 4897   3.788   0.650   2.803 -0.0435  1.0825 -1.1922
 1645TIP3   OH2 4898   0.376   3.387   5.094  0.1311 -0.0134  0.1473
 1645TIP3    H1 4899   0.364   3.473   5.052  1.9007  0.5255  0.6580
 1645TIP3    H2 4900   0.361   3.324   5.023 -0.1077  0.7591 -0.5113
 1646TIP3   OH2 4901   5.643   0.863   1.433  0.5341 -0.1120 -0.3506
 1646TIP3    H1 4902   5.603   0.916   1.364 -0.3352  0.7171  0.7451
 1646TIP3    H2 4903   5.570   0.817   1.474  0.6961  1.0770  1.3906
 1647TIP3   OH2 4904   1.751   1.913   3.454 -0.7877 -0.0168  0.9680
 1647TIP3    H1 4905   1.825   1.953   3.499 -0.9827 -1.1125  2.3078
 1647TIP3    H2 4906   1.779   1.823   3.438 -1.6167 -0.2759  0.9633
 1648TIP3   OH2 4907   6.619   4.441   5.432  0.0177 -0.2465  0.0106
 1648TIP3    H1 4908   6.657   4.418   5.517  0.0033  0.5549  0.2382
 1648TIP3    H2 4909   6.675   4.510   5.398 -0.7886  0.4250  0.0088
 1649TIP3   OH2 4910   5.907   3.653   0.602 -0.3537 -0.1669 -0.3630
 1649TIP3    H1 4911   5.846   3.727   0.594 -0.4896 -0.0937  1.1062
 1649TIP3    H2 4912   5.928   3.650   0.695  1.7827 -0.3051 -0.8206
 1650TIP3   OH2 4913   6.794   3.334   1.797  0.1633 -0.1230 -0.6985
 1650TIP3    H1 4914   6.755   3.375   1.720  2.9072  1.6705 -1.2888
 1650TIP3    H2 4915   6.754   3.380   1.871 -0.7620 -0.1988 -1.1386
 1651TIP3   OH2 4916   3.329   2.562   3.773 -0.2053  0.2074  0.0372
 1651TIP3    H1 4917   3.334   2.652   3.807 -2.4136 -0.7615  3.4705
 1651TIP3    H2 4918   3.385   2.511   3.831  0.0923 -0.8421 -1.1282
 1652TIP3   OH2 4919   7.149   1.482   2.279 -0.6275  0.1800  0.0731
 1652TIP3    H1 4920   7.190   1.567   2.259 -2.7270  1.2336 -0.0650
 1652TIP3    H2 4921   7.168   1.428   2.203  0.4221  0.6491 -0.0182
 1653TIP3   OH2 4922   1.515   2.880   1.441  0.1699 -0.4529  0.0714
 1653TIP3    H1 4923   1.421   2.889   1.431  0.1850  1.1199  0.8819
 1653TIP3    H2 4924   1.544   2.830   1.365 -1.1733  0.0533 -0.7943
 1654TIP3   OH2 4925   6.025   5.834   2.553  0.6514 -0.5582  0.0850
 1654TIP3    H1 4926   6.073   5.753   2.565  1.9742  0.3099  0.9185
 1654TIP3    H2 4927   5.972   5.819   2.475  0.8816 -2.1987  0.2091
 1655TIP3   OH2 4928   5.500   2.735   2.814 -0.7484 -0.0776  0.1449
 1655TIP3    H1 4929   5.580   2.787   2.807 -0.5479 -0.0426  2.1019
 1655TIP3    H2 4930   5.431   2.794   2.784 -0.2787  0.5868  0.3450
 1656TIP3   OH2 4931   3.730   3.444   5.498  0.1395 -0.5105  0.1000
 1656TIP3    H1 4932   3.697   3.354   5.494 -0.1185 -0.4502  0.7574
 1656TIP3    H2 4933   3.825   3.435   5.489 -0.0604 -0.6396 -2.5198
 1657TIP3   OH2 4934   4.583   5.131   1.268  0.5236  0.0237  0.1056
 1657TIP3    H1 4935   4.576   5.038   1.246 -1.4496 -0.5985  2.8654
 1657TIP3    H2 4936   4.672   5.141   1.301  1.5624 -0.2666 -2.3998
 1658TIP3   OH2 4937   4.880   3.899   3.623  0.0678  0.2463  0.3538
 1658TIP3    H1 4938   4.921   3.983   3.603  0.6573  0.7913  3.3537
 1658TIP3    H2 4939   4.787   3.914   3.612  0.2473  0.9590 -0.2462
 1659TIP3   OH2 4940   1.503   4.977   2.921 -0.1531 -0.3678 -0.0984
 1659TIP3    H1 4941   1.564   5.050   2.930 -1.9638  1.3918 -1.2250
 1659TIP3    H2 4942   1.535   4.912   2.983  1.9130  1.0971  0.5068
 1660TIP3   OH2 4943   5.661   3.817   0.431 -0.0746 -0.4738  0.0023
 1660TIP3    H1 4944   5.725   3.877   0.470 -0.5832  1.1984 -1.5907
 1660TIP3    H2 4945   5.608   3.788   0.504  0.0931  1.1785  0.8391
 1661TIP3   OH2 4946   3.065   6.680   3.333  0.1185  0.3629  0.2183
 1661TIP3    H1 4947   3.141   6.708   3.384 -0.5333  1.7940  0.4483
 1661TIP3    H2 4948   3.101   6.616   3.271  1.6180  1.4105 -0.0530
 1662TIP3   OH2 4949   4.539   1.880   3.428  0.1626 -0.1389  0.1453
 1662TIP3    H1 4950   4.474   1.810   3.427  0.8511 -0.7852 -0.0554
 1662TIP3    H2 4951   4.526   1.923   3.512 -0.4048 -0.3748  0.1824
 1663TIP3   OH2 4952   1.174   0.419   2.855  0.2595 -0.3066 -0.1848
 1663TIP3    H1 4953   1.132   0.431   2.940  0.0898 -0.1615 -0.2894
 1663TIP3    H2 4954   1.237   0.490   2.848  1.4882 -1.2701  0.5494
 1664TIP3   OH2 4955   6.145   1.406   0.188  0.7669  0.5081 -0.3777
 1664TIP3    H1 4956   6.191   1.324   0.167  1.2278  0.8791 -0.8555
 1664TIP3    H2 4957   6.080   1.415   0.118  0.8952  0.6809 -0.4766
 1665TIP3   OH2 4958   1.603   1.362   5.786  0.6605 -0.0447  0.0191
 1665TIP3    H1 4959   1.549   1.412   5.724 -1.2204  0.5356  2.0161
 1665TIP3    H2 4960   1.541   1.308   5.835  2.1716 -1.0766  0.8751
 1666TIP3   OH2 4961   3.084   4.348   4.806 -0.2444  0.8517  0.1122
 1666TIP3    H1 4962   3.160   4.398   4.836 -0.3137  0.4459  0.9937
 1666TIP3    H2 4963   3.089   4.353   4.711  0.7950  0.9668  0.1556
 1667TIP3   OH2 4964   3.944   2.300   5.660 -0.4112  0.0780 -0.4299
 1667TIP3    H1 4965   3.856   2.263   5.659  0.3070 -1.7040 -1.0481
 1667TIP3    H2 4966   3.985   2.268   5.580  1.2491 -0.3044  0.5170
 1668TIP3   OH2 4967   5.867   2.833   4.428 -0.4357  0.1972 -0.0272
 1668TIP3    H1 4968   5.877   2.828   4.523  0.6570  0.8234 -0.0893
 1668TIP3    H2 4969   5.918   2.910   4.403  1.3156 -1.3426 -1.3949
 1669TIP3   OH2 4970   5.701   2.230   3.104 -0.1115 -0.0620  0.2747
 1669TIP3    H1 4971   5.666   2.316   3.127  0.1482  0.0294  0.3322
 1669TIP3    H2 4972   5.748   2.244   3.023  0.9793  0.1173  0.9184
 1670TIP3   OH2 4973   5.838   4.882   2.199  0.3453  0.3806  0.2376
 1670TIP3    H1 4974   5.876   4.925   2.123  0.8873 -2.6537 -1.3521
 1670TIP3    H2 4975   5.760   4.838   2.166 -0.6672  0.7968  1.9557
 1671TIP3   OH2 4976   1.743   6.236   2.987  0.4024  0.0802  0.7133
 1671TIP3    H1 4977   1.740   6.140   2.995 -0.0764 -0.1625 -1.6751
 1671TIP3    H2 4978   1.821   6.261   3.036  1.0862 -1.6266  0.5914
 1672TIP3   OH2 4979   0.970   5.293   2.235  0.0812  0.9139 -0.2542
 1672TIP3    H1 4980   0.961   5.373   2.286 -3.0135  0.8078 -0.4699
 1672TIP3    H2 4981   0.880   5.263   2.220  1.0759 -1.9481 -1.2330
 1673TIP3   OH2 4982   1.990   2.756   1.181 -0.3256 -0.3026 -0.0698
 1673TIP3    H1 4983   2.084   2.736   1.176  0.1081  1.6892 -0.8428
 1673TIP3    H2 4984   1.959   2.708   1.257  1.1034 -1.7801 -0.3568
 1674TIP3   OH2 4985   3.984   0.655   5.462  0.4033  0.3876 -0.3097
 1674TIP3    H1 4986   4.000   0.566   5.495  0.5044  0.1489 -0.9930
 1674TIP3    H2 4987   4.070   0.686   5.435  0.3498  0.6579 -0.1750
 1675TIP3   OH2 4988   2.773   2.456   3.436  0.5727  0.1978 -0.1019
 1675TIP3    H1 4989   2.730   2.380   3.474  1.9369 -0.6786 -0.2390
 1675TIP3    H2 4990   2.859   2.457   3.477  1.9448 -0.5258 -2.7696
 1676TIP3   OH2 4991   5.833   0.721   0.665  0.3206  0.0040 -0.9360
 1676TIP3    H1 4992   5.924   0.696   0.673 -0.4297 -2.6902  0.2943
 1676TIP3    H2 4993   5.812   0.764   0.748  0.6609  1.5616 -1.6119
 1677TIP3   OH2 4994   6.902   1.226   1.052  0.3297 -0.1077  0.1251
 1677TIP3    H1 4995   6.899   1.148   1.107 -0.1399 -0.1551  0.0382
 1677TIP3    H2 4996   6.930   1.296   1.112  0.0527 -0.2033  0.3680
 1678TIP3   OH2 4997   7.138   2.628   2.383 -0.1314 -0.0340 -0.3875
 1678TIP3    H1 4998   7.056   2.636   2.431 -0.9900 -0.9955 -1.6171
 1678TIP3    H2 4999   7.138   2.702   2.322  0.6579  0.8319  0.6447
 1679TIP3   OH2 5000   1.927   0.898   0.278  0.3578 -0.0180  0.0444
 1679TIP3    H1 5001   1.841   0.856   0.280  0.7267 -0.7966 -0.2580
 1679TIP3    H2 5002   1.973   0.862   0.354  1.3403 -1.6224 -1.2526
 1680TIP3   OH2 5003   4.463   1.759   2.521  0.5336  0.2221 -0.1909
 1680TIP3    H1 5004   4.513   1.682   2.546  0.6972 -0.1745 -1.6231
 1680TIP3    H2 5005   4.390   1.725   2.470  1.3406  1.0499 -2.0041
 1681TIP3   OH2 5006   0.783   2.630   2.835  0.0110  0.6108  0.0462
 1681TIP3    H1 5007   0.875   2.627   2.862  0.9638  0.6821 -2.9162
 1681TIP3    H2 5008   0.734   2.635   2.918  2.6202  0.2324  1.7151
 1682TIP3   OH2 5009   0.924   6.505   2.590 -0.1951  0.4506  0.6636
 1682TIP3    H1 5010   0.942   6.505   2.496 -3.6005  0.7897 -0.1110
 1682TIP3    H2 5011   1.003   6.542   2.629  0.6716  1.9678 -2.1985
 1683TIP3   OH2 5012   6.003   1.949   4.056  0.4009  0.0330 -0.6058
 1683TIP3    H1 5013   6.090   1.942   4.095  0.7810 -0.8903 -1.5765
 1683TIP3    H2 5014   6.017   1.998   3.975 -0.0855  0.3725 -0.4895
 1684TIP3   OH2 5015   5.026   6.472   4.508 -0.4528  0.8454 -0.7742
 1684TIP3    H1 5016   4.949   6.431   4.547 -1.3732  3.0827 -0.0631
 1684TIP3    H2 5017   4.996   6.503   4.422  0.0254  0.6525 -1.0177
 1685TIP3   OH2 5018   5.965   0.382   4.297 -0.1201 -0.2980 -0.5528
 1685TIP3    H1 5019   5.989   0.470   4.327 -0.6426 -0.5916  0.7982
 1685TIP3    H2 5020   6.049   0.338   4.283  0.1441  0.3923 -1.1983
 1686TIP3   OH2 5021   1.240   0.090   5.812  0.2434 -0.5193 -0.1940
 1686TIP3    H1 5022   1.180   0.097   5.886 -0.1728 -0.2700 -0.5566
 1686TIP3    H2 5023   1.256  -0.004   5.803  1.9891 -0.4494  1.5670
 1687TIP3   OH2 5024   4.756   0.726   3.177 -0.2837 -0.1841  0.1913
 1687TIP3    H1 5025   4.687   0.755   3.237 -1.1479 -2.7646  0.6041
 1687TIP3    H2 5026   4.720   0.647   3.137  1.8369 -0.7309 -0.7693
 1688TIP3   OH2 5027   4.978   3.303   3.331  0.2927  0.0300  0.1545
 1688TIP3    H1 5028   5.028   3.289   3.411  1.0811 -3.1445 -0.7701
 1688TIP3    H2 5029   4.960   3.215   3.298 -2.6262  1.1470 -1.6008
 1689TIP3   OH2 5030   2.376   1.991   5.618 -0.0715  0.0820 -0.3568
 1689TIP3    H1 5031   2.331   2.036   5.690  0.9153 -1.0510  1.0288
 1689TIP3    H2 5032   2.467   2.022   5.624  0.4961 -1.6143  0.2703
 1690TIP3   OH2 5033   0.364   2.751   1.610  0.8539  0.1233 -0.2953
 1690TIP3    H1 5034   0.366   2.705   1.694 -0.6478  1.8822  0.7655
 1690TIP3    H2 5035   0.281   2.725   1.570  0.5751  0.9490 -0.2530
 1691TIP3   OH2 5036   3.888   6.742   3.201  0.1837  0.0960  0.2219
 1691TIP3    H1 5037   3.943   6.781   3.132  0.8579 -0.4042  0.4650
 1691TIP3    H2 5038   3.800   6.743   3.164  0.6725 -1.0080 -1.0378
 1692TIP3   OH2 5039   4.103   1.168   1.303  0.4652 -0.1535  0.2677
 1692TIP3    H1 5040   4.069   1.126   1.382  0.9305 -2.0792 -0.5027
 1692TIP3    H2 5041   4.027   1.172   1.245 -0.0268  1.8063  0.9596
 1693TIP3   OH2 5042   5.011   4.199   0.107 -0.1145 -0.7328 -0.3293
 1693TIP3    H1 5043   4.947   4.173   0.173 -0.5180  0.5290 -0.2051
 1693TIP3    H2 5044   4.986   4.288   0.082  2.3439  0.3543  0.6845
 1694TIP3   OH2 5045   4.045   6.716   1.666  0.4263 -0.1641 -0.3235
 1694TIP3    H1 5046   4.022   6.787   1.725  1.9491 -0.8221  1.1546
 1694TIP3    H2 5047   4.020   6.636   1.713  0.0824 -0.6702 -1.3202
 1695TIP3   OH2 5048   6.760   4.234   4.894  0.2225  0.5797  0.4663
 1695TIP3    H1 5049   6.695   4.219   4.962 -1.6386  2.8933 -0.6548
 1695TIP3    H2 5050   6.830   4.282   4.938 -0.6496  1.4639  0.9452
 1696TIP3   OH2 5051   6.386   5.625   5.605 -0.6623 -0.0713 -0.3080
 1696TIP3    H1 5052   6.409   5.694   5.543 -1.4970 -0.0683 -0.6253
 1696TIP3    H2 5053   6.363   5.671   5.686 -0.3775 -0.0328 -0.2460
 1697TIP3   OH2 5054   3.911   3.886   4.730  0.0616 -0.4656  0.0251
 1697TIP3    H1 5055   3.855   3.816   4.696 -0.6911  0.3758 -0.5019
 1697TIP3    H2 5056   3.995   3.843   4.748  0.0659 -1.2468 -1.6355
 1698TIP3   OH2 5057   1.065   2.281   0.886  0.2684 -0.1628  0.4121
 1698TIP3    H1 5058   1.096   2.249   0.970  0.1931  2.3428  1.4832
 1698TIP3    H2 5059   1.142   2.280   0.829  0.3411 -1.7786  0.5116
 1699TIP3   OH2 5060   3.492   1.524   3.868  0.5340  0.2728  0.7520
 1699TIP3    H1 5061   3.568   1.474   3.837  0.2630 -0.3150  1.0269
 1699TIP3    H2 5062   3.471   1.583   3.795 -0.0294 -1.0120 -0.1593
 1700TIP3   OH2 5063   0.089   2.721   1.427  0.0120  0.5807  0.4933
 1700TIP3    H1 5064   0.066   2.785   1.359  0.4614  0.8786  0.6186
 1700TIP3    H2 5065   0.041   2.751   1.504 -1.2215 -0.2692  0.0888
 1701TIP3   OH2 5066   5.486   1.585   2.891  0.6762  0.4968  0.1294
 1701TIP3    H1 5067   5.573   1.623   2.882  0.7610  0.1450 -0.6374
 1701TIP3    H2 5068   5.487   1.542   2.976  1.1581  0.7263  0.2440
 1702TIP3   OH2 5069   6.729   4.474   3.130 -0.0631  0.5502  0.1009
 1702TIP3    H1 5070   6.815   4.479   3.088 -0.0594  2.9900  0.2801
 1702TIP3    H2 5071   6.738   4.525   3.210 -0.7105 -2.1941  2.0563
 1703TIP3   OH2 5072   5.265   5.501   5.092  0.3778 -0.3122 -0.0262
 1703TIP3    H1 5073   5.263   5.413   5.053  0.8182 -0.0363 -0.7021
 1703TIP3    H2 5074   5.176   5.515   5.124 -0.3266 -0.1678 -1.8749
 1704TIP3   OH2 5075   5.687   0.402   0.485  0.1054 -0.4109 -0.1342
 1704TIP3    H1 5076   5.750   0.388   0.555 -0.7805  1.6846  1.1875
 1704TIP3    H2 5077   5.649   0.489   0.504 -0.6724 -0.0814 -2.8149
 1705TIP3   OH2 5078   4.332   6.539   1.265  0.1714  0.2093 -0.8500
 1705TIP3    H1 5079   4.245   6.501   1.278  0.7809 -1.7755 -2.1559
 1705TIP3    H2 5080   4.365   6.496   1.187  2.4736  0.7069 -0.2085
 1706TIP3   OH2 5081   0.024   4.680   0.103 -0.1475  0.1787 -0.1421
 1706TIP3    H1 5082   0.021   4.773   0.125 -1.3642 -0.0689  0.8920
 1706TIP3    H2 5083   0.040   4.678   0.009 -0.0670  1.4231 -0.1757
 1707TIP3   OH2 5084   0.263   3.723   0.868 -0.3668 -0.0477  0.4423
 1707TIP3    H1 5085   0.263   3.701   0.961 -1.0741  0.1394  0.4952
 1707TIP3    H2 5086   0.172   3.712   0.841 -0.0021 -0.9903 -0.4516
 1708TIP3   OH2 5087   5.903   4.706   0.670 -0.1527  0.2896 -0.6198
 1708TIP3    H1 5088   5.854   4.699   0.751 -0.5290 -2.4539 -0.9849
 1708TIP3    H2 5089   5.840   4.740   0.606 -0.6918 -0.3037 -0.4054
 1709TIP3   OH2 5090   1.038   3.037   5.128  0.4198  0.5848 -0.6101
 1709TIP3    H1 5091   1.012   3.113   5.180 -0.7942 -1.0333  1.2777
 1709TIP3    H2 5092   1.001   3.055   5.041 -2.3728  0.9421  0.5269
 1710TIP3   OH2 5093   1.942   2.258   0.335  0.4419 -0.4325  0.3963
 1710TIP3    H1 5094   1.957   2.292   0.247  0.2563 -0.8883  0.1852
 1710TIP3    H2 5095   2.017   2.203   0.353  1.2582  0.8676  1.1449
 1711TIP3   OH2 5096   4.723   4.035   3.248 -0.1359  0.3670  0.0625
 1711TIP3    H1 5097   4.667   4.106   3.216 -0.6667  0.9127  2.0217
 1711TIP3    H2 5098   4.811   4.060   3.220 -0.5840  0.6247 -1.1919
 1712TIP3   OH2 5099   3.146   6.474   2.866 -0.2284  0.0818 -0.4175
 1712TIP3    H1 5100   3.113   6.529   2.795 -0.5431  1.2080  0.5593
 1712TIP3    H2 5101   3.163   6.536   2.937 -1.2734 -1.1501  0.9705
 1713TIP3   OH2 5102   5.882   4.251   2.034 -0.1492  0.1663  0.0646
 1713TIP3    H1 5103   5.823   4.178   2.017 -0.5561  1.0887 -3.2523
 1713TIP3    H2 5104   5.833   4.329   2.007  0.7105  1.6110  2.3503
 1714TIP3   OH2 5105   0.648   0.950   5.767  0.3159  0.0951 -0.5217
 1714TIP3    H1 5106   0.679   0.944   5.857 -0.6860 -0.4513 -0.1959
 1714TIP3    H2 5107   0.646   1.044   5.748  0.6959  0.2020 -0.0372
 1715TIP3   OH2 5108   2.275   6.138   2.778 -0.0097  0.2929  0.2732
 1715TIP3    H1 5109   2.234   6.154   2.693 -1.1937  1.0575  0.9780
 1715TIP3    H2 5110   2.321   6.219   2.798  0.1246  0.1733  0.4569
 1716TIP3   OH2 5111   6.883   2.352   0.174  0.2691 -0.1162 -1.3291
 1716TIP3    H1 5112   6.811   2.364   0.235  0.3240  1.8359 -1.5812
 1716TIP3    H2 5113   6.939   2.286   0.215  0.5678  1.4680  1.0070
 1717TIP3   OH2 5114   1.696   5.761   0.848  0.1458 -0.2235 -0.2118
 1717TIP3    H1 5115   1.738   5.806   0.775  1.4335 -1.4697 -0.2855
 1717TIP3    H2 5116   1.628   5.707   0.808  0.0804 -0.0377 -0.3532
 1718TIP3   OH2 5117   3.259   2.824   3.400  0.0100  0.0808 -0.1151
 1718TIP3    H1 5118   3.168   2.855   3.398  0.1767  0.5689 -1.9288
 1718TIP3    H2 5119   3.297   2.866   3.478 -0.4612  2.5413 -1.1223
 1719TIP3   OH2 5120   1.908   3.497   3.029  0.4099 -0.3334  0.0426
 1719TIP3    H1 5121   1.978   3.550   3.067  1.8218 -1.8869 -0.2667
 1719TIP3    H2 5122   1.953   3.427   2.982 -1.2909 -2.7103  1.6473
 1720TIP3   OH2 5123   0.303   0.434   0.105 -0.2109  0.0879 -0.2537
 1720TIP3    H1 5124   0.383   0.418   0.155  0.9809 -0.4627 -2.2111
 1720TIP3    H2 5125   0.262   0.348   0.096 -1.5556  0.4886  1.4823
 1721TIP3   OH2 5126   5.697   4.482   3.958 -0.8219 -0.6581 -0.3812
 1721TIP3    H1 5127   5.644   4.451   4.031 -1.1533 -1.1660 -0.8360
 1721TIP3    H2 5128   5.634   4.497   3.887 -0.3050 -1.7662 -1.0917
 1722TIP3   OH2 5129   2.407   6.477   1.100  0.0886 -0.0664  0.7518
 1722TIP3    H1 5130   2.325   6.430   1.115  0.8847 -1.6675  0.2724
 1722TIP3    H2 5131   2.476   6.415   1.124  1.2173  0.1922 -1.5548
 1723TIP3   OH2 5132   3.501   2.184   4.092  0.1469 -0.0327 -0.2342
 1723TIP3    H1 5133   3.579   2.200   4.145 -0.4397 -0.5885  0.8172
 1723TIP3    H2 5134   3.442   2.136   4.150  0.0168 -1.8546 -1.7890
 1724TIP3   OH2 5135   6.480   5.188   4.804 -0.2238  0.6922  0.1656
 1724TIP3    H1 5136   6.547   5.129   4.771  1.0545  0.5654  2.7536
 1724TIP3    H2 5137   6.467   5.161   4.895 -4.0337  0.5315 -0.2731
 1725TIP3   OH2 5138   4.321   2.677   5.829  0.3559  0.8947 -0.2099
 1725TIP3    H1 5139   4.353   2.747   5.886  0.3175  1.1001 -0.4329
 1725TIP3    H2 5140   4.311   2.720   5.743 -0.0594  0.7184 -0.2541
 1726TIP3   OH2 5141   4.178   1.761   3.622  0.3845  0.1470  0.4126
 1726TIP3    H1 5142   4.127   1.749   3.703 -0.1986 -0.7749 -0.0775
 1726TIP3    H2 5143   4.129   1.827   3.573  0.0857 -0.1524  0.3002
 1727TIP3   OH2 5144   2.873   0.848   1.906 -0.2325  0.1949  0.4654
 1727TIP3    H1 5145   2.888   0.810   1.819 -2.4694 -1.7225  0.8328
 1727TIP3    H2 5146   2.859   0.773   1.963 -2.6708  1.4864  1.6935
 1728TIP3   OH2 5147   5.169   3.752   4.244  0.1807 -0.5384 -0.1381
 1728TIP3    H1 5148   5.121   3.670   4.232 -0.7363  0.1144 -1.0664
 1728TIP3    H2 5149   5.106   3.821   4.221  1.1617  0.4028 -0.0968
 1729TIP3   OH2 5150   5.389   3.915   0.285  0.2154 -0.2994  0.2184
 1729TIP3    H1 5151   5.471   3.885   0.246  0.9412  0.6860  0.9354
 1729TIP3    H2 5152   5.330   3.841   0.275  0.9242 -0.7160 -1.0912
 1730TIP3   OH2 5153   3.995   0.028   0.695 -0.2577  0.3920 -0.5256
 1730TIP3    H1 5154   3.925   0.052   0.635 -0.3327  1.1894 -0.1382
 1730TIP3    H2 5155   4.066   0.090   0.676 -0.3642  0.8012  0.3406
 1731TIP3   OH2 5156   0.793   2.111   1.710  0.2758 -0.4375  0.1187
 1731TIP3    H1 5157   0.703   2.128   1.682  0.5610 -2.1415 -2.2044
 1731TIP3    H2 5158   0.785   2.039   1.772  0.0299 -0.9624 -0.5028
 1732TIP3   OH2 5159   6.971   0.258   1.620 -0.2234 -0.3010  0.0264
 1732TIP3    H1 5160   7.066   0.269   1.632 -0.4350  0.3772  1.2795
 1732TIP3    H2 5161   6.939   0.229   1.706 -1.2237 -0.0033 -0.2322
 1733TIP3   OH2 5162   4.804   4.790   3.479  0.1784 -0.0045  0.3430
 1733TIP3    H1 5163   4.717   4.765   3.508  0.5451  0.1816  1.6817
 1733TIP3    H2 5164   4.821   4.735   3.402 -2.8467  3.0535 -2.8788
 1734TIP3   OH2 5165   1.305   1.518   4.498 -0.3266  0.2271 -0.3647
 1734TIP3    H1 5166   1.235   1.582   4.483 -2.4845 -2.2246 -1.5792
 1734TIP3    H2 5167   1.262   1.433   4.489  2.1322 -1.4819  2.3373
 1735TIP3   OH2 5168   1.097   1.443   3.099 -0.3268  0.0164  0.0260
 1735TIP3    H1 5169   1.012   1.435   3.143 -0.3886 -0.6751 -0.2123
 1735TIP3    H2 5170   1.159   1.459   3.170 -0.4464 -0.9685  0.3712
 1736TIP3   OH2 5171   1.992   2.676   3.600  0.0973 -0.1019  0.2135
 1736TIP3    H1 5172   1.958   2.618   3.531  1.5715 -0.2844 -0.3871
 1736TIP3    H2 5173   2.028   2.751   3.554 -0.3325  0.5566  0.9061
 1737TIP3   OH2 5174   5.600   0.019   5.802  0.4488 -0.1393 -0.6280
 1737TIP3    H1 5175   5.677  -0.010   5.851  0.9637  0.4764 -1.0557
 1737TIP3    H2 5176   5.541   0.054   5.869  1.5218  1.5333 -0.4719
 1738TIP3   OH2 5177   1.309   1.745   3.584  0.0013  0.1375  0.4311
 1738TIP3    H1 5178   1.367   1.696   3.642 -0.2036 -0.2369  0.3220
 1738TIP3    H2 5179   1.297   1.829   3.628  0.7391  0.2734  0.3837
 1739TIP3   OH2 5180   3.468   2.322   0.409  0.4306 -0.3178  0.2992
 1739TIP3    H1 5181   3.378   2.291   0.406  0.8288 -1.4167 -1.5251
 1739TIP3    H2 5182   3.461   2.416   0.395 -0.4002 -0.4729 -0.3980
 1740TIP3   OH2 5183   7.175   0.265   0.753  0.3071 -0.6128  0.0980
 1740TIP3    H1 5184   7.144   0.244   0.665 -0.6630  0.0515  0.2736
 1740TIP3    H2 5185   7.244   0.331   0.739 -0.2471 -0.0733 -0.1402
 1741TIP3   OH2 5186   1.683   3.182   4.061 -0.6229  0.3887  0.1560
 1741TIP3    H1 5187   1.620   3.216   3.997  1.4579 -1.2726 -3.0536
 1741TIP3    H2 5188   1.742   3.255   4.078 -0.5421  0.5550 -0.7803
 1742TIP3   OH2 5189   1.529   1.002   2.625 -0.0197  0.2713 -0.5929
 1742TIP3    H1 5190   1.511   1.093   2.649 -0.3445  0.8186 -2.6937
 1742TIP3    H2 5191   1.595   1.008   2.556 -0.4263 -1.0508 -1.1385
 1743TIP3   OH2 5192   3.032   3.594   1.565 -0.0207 -0.1882 -0.0499
 1743TIP3    H1 5193   2.968   3.663   1.581 -0.7323 -0.3697 -1.8636
 1743TIP3    H2 5194   3.116   3.632   1.592 -0.6364  0.7016  0.6704
 1744TIP3   OH2 5195   2.047   2.674   1.800 -0.0001 -0.3757  0.5337
 1744TIP3    H1 5196   2.040   2.605   1.733 -2.5306  1.2467 -1.0695
 1744TIP3    H2 5197   2.112   2.735   1.765 -0.9662  0.2191 -0.3147
 1745TIP3   OH2 5198   6.246   2.114   3.982  0.0990  0.3691 -0.2547
 1745TIP3    H1 5199   6.298   2.037   3.962  2.5554  1.7110  0.4783
 1745TIP3    H2 5200   6.300   2.188   3.952 -1.5227  1.8426  0.2888
 1746TIP3   OH2 5201   3.997   6.618   0.439  0.2547 -0.3621 -0.2676
 1746TIP3    H1 5202   4.052   6.604   0.362  0.8867  2.1123 -0.3779
 1746TIP3    H2 5203   4.031   6.699   0.478 -1.3771 -0.4147  1.4141
 1747TIP3   OH2 5204   6.100   0.255   3.774 -0.4103 -0.2157  0.0440
 1747TIP3    H1 5205   6.139   0.175   3.737 -0.1970  0.9530 -2.4441
 1747TIP3    H2 5206   6.171   0.297   3.821 -0.3031 -1.0636  0.6622
 1748TIP3   OH2 5207   4.367   3.583   3.607  0.5567  0.4666 -0.4812
 1748TIP3    H1 5208   4.363   3.637   3.528 -1.6941  1.2584  0.0898
 1748TIP3    H2 5209   4.417   3.635   3.669 -2.3035  2.4846  0.3586
 1749TIP3   OH2 5210   3.133   4.863   5.079  0.5748  0.0333 -0.5172
 1749TIP3    H1 5211   3.107   4.955   5.076  0.0189 -0.1518 -2.0933
 1749TIP3    H2 5212   3.050   4.815   5.088  0.6036 -0.4066 -2.2795
 1750TIP3   OH2 5213   2.846   0.649   5.590  0.2010  0.5730 -0.3771
 1750TIP3    H1 5214   2.937   0.642   5.619  0.3554  1.7566 -0.5308
 1750TIP3    H2 5215   2.796   0.666   5.670  0.4778  2.6530 -0.6097
 1751TIP3   OH2 5216   4.455   6.038   0.079  0.2082  0.5019 -0.5586
 1751TIP3    H1 5217   4.512   6.085   0.140 -0.0953 -0.5023  0.5365
 1751TIP3    H2 5218   4.504   5.957   0.059 -1.2411 -0.9185  1.2859
 1752TIP3   OH2 5219   3.927   6.054   5.332 -0.1822  0.1220 -0.2309
 1752TIP3    H1 5220   4.001   6.084   5.279 -1.0741  3.7246  0.2796
 1752TIP3    H2 5221   3.865   6.018   5.269 -0.2768  2.2559 -1.4432
 1753TIP3   OH2 5222   2.666   0.043   0.771  0.0702 -0.2816  0.0207
 1753TIP3    H1 5223   2.760   0.046   0.752  0.1921 -0.9818  0.4694
 1753TIP3    H2 5224   2.654  -0.040   0.817 -0.9678 -0.7787 -1.0963
 1754TIP3   OH2 5225   5.455   2.985   4.497  0.7200 -0.3944  0.1652
 1754TIP3    H1 5226   5.406   2.995   4.579  0.7707  0.9093  0.0535
 1754TIP3    H2 5227   5.419   3.052   4.439  1.3202 -0.6920 -0.5622
 1755TIP3   OH2 5228   2.398   1.223   5.009 -0.1149  0.2909 -0.1549
 1755TIP3    H1 5229   2.392   1.248   4.917  0.5543 -1.7360 -0.7960
 1755TIP3    H2 5230   2.354   1.294   5.056  1.4009  2.4317 -1.8223
 1756TIP3   OH2 5231   6.549   2.996   2.705  0.1612 -0.2242  0.5377
 1756TIP3    H1 5232   6.458   2.966   2.707  0.5578 -1.7040 -1.2543
 1756TIP3    H2 5233   6.548   3.076   2.757 -2.2486  0.0297  0.2405
 1757TIP3   OH2 5234   2.604   4.577   5.203 -0.0246  0.1708  0.0710
 1757TIP3    H1 5235   2.606   4.553   5.110  0.5321 -0.6352  0.2791
 1757TIP3    H2 5236   2.557   4.660   5.205 -1.2857 -0.4845 -0.7911
 1758TIP3   OH2 5237   4.870   5.086   2.068  0.1901 -0.2828 -0.0026
 1758TIP3    H1 5238   4.876   5.161   2.127 -2.9294  1.2788 -1.4207
 1758TIP3    H2 5239   4.859   5.011   2.126  2.0517  0.4527  1.4228
 1759TIP3   OH2 5240   6.499   2.237   3.962  0.1417  0.0073 -0.6127
 1759TIP3    H1 5241   6.560   2.280   3.902  0.9100  1.2238  0.9806
 1759TIP3    H2 5242   6.553   2.177   4.013  0.3761  2.1358  1.8069
 1760TIP3   OH2 5243   1.743   2.062   5.458  0.0292  0.0813  0.3982
 1760TIP3    H1 5244   1.671   2.106   5.502  0.4763  0.8551  0.3874
 1760TIP3    H2 5245   1.798   2.133   5.425  0.2363 -0.4846 -0.5271
 1761TIP3   OH2 5246   6.119   3.786   0.457 -0.1345 -0.0746  0.6688
 1761TIP3    H1 5247   6.052   3.754   0.518 -2.2556 -0.3562 -1.6354
 1761TIP3    H2 5248   6.146   3.871   0.491 -4.2171  1.7021  0.0548
 1762TIP3   OH2 5249   3.324   1.876   1.062  0.6123 -0.3779  0.0156
 1762TIP3    H1 5250   3.295   1.964   1.085  0.4774 -0.6651  1.0165
 1762TIP3    H2 5251   3.387   1.889   0.991  0.4608  0.5053  0.0280
 1763TIP3   OH2 5252   6.329   5.727   0.478  0.1265 -0.1111 -0.1010
 1763TIP3    H1 5253   6.366   5.788   0.541  0.4825  0.8873 -1.2246
 1763TIP3    H2 5254   6.239   5.712   0.508 -0.0774  1.2446  0.0259
 1764TIP3   OH2 5255   2.139   3.905   4.011 -0.6711 -0.0499 -0.1928
 1764TIP3    H1 5256   2.137   3.813   4.036 -0.3031 -0.6122 -2.0476
 1764TIP3    H2 5257   2.215   3.912   3.952 -0.3944  1.5524  0.3088
 1765TIP3   OH2 5258   3.217   1.957   3.234 -0.2831 -0.0221  0.4106
 1765TIP3    H1 5259   3.176   2.036   3.199 -0.4692 -0.4135 -0.2558
 1765TIP3    H2 5260   3.217   1.895   3.162  1.2456 -0.1329  0.4661
 1766TIP3   OH2 5261   5.282   5.969   5.079  0.3601  0.0660 -0.0496
 1766TIP3    H1 5262   5.221   5.914   5.030 -0.7001  0.1834  1.0949
 1766TIP3    H2 5263   5.308   5.916   5.154  0.9171  0.3765 -0.0170
 1767TIP3   OH2 5264   6.797   1.874   1.283 -0.0441 -0.0341 -0.4425
 1767TIP3    H1 5265   6.738   1.944   1.312  0.5260  1.2391 -2.1906
 1767TIP3    H2 5266   6.840   1.845   1.363  0.1329  2.0432  0.2891
 1768TIP3   OH2 5267   0.029   1.023   3.942 -0.2508  0.0311  0.0352
 1768TIP3    H1 5268   0.063   1.031   4.031 -0.5201 -2.2917  0.4022
 1768TIP3    H2 5269   0.097   1.063   3.887  0.3774  0.5937  1.1950
 1769TIP3   OH2 5270   1.664   0.054   3.780  0.5620  0.5058  0.5134
 1769TIP3    H1 5271   1.744   0.104   3.764 -0.2597  1.6198 -0.1913
 1769TIP3    H2 5272   1.691  -0.014   3.843  1.8638  1.3808  0.9426
 1770TIP3   OH2 5273   4.895   5.395   1.913  0.2527  0.2191 -0.5815
 1770TIP3    H1 5274   4.809   5.353   1.921  0.1551  0.1966 -1.5574
 1770TIP3    H2 5275   4.926   5.404   2.003 -1.3436  1.4289 -0.1070
 1771TIP3   OH2 5276   3.443   6.226   3.045  0.1517  0.0089 -0.5407
 1771TIP3    H1 5277   3.450   6.136   3.078 -1.3593  0.2439  0.5389
 1771TIP3    H2 5278   3.359   6.228   2.999 -0.0724  0.9822 -0.1094
 1772TIP3   OH2 5279   4.953   2.677   5.264  0.2460 -0.7289 -0.3742
 1772TIP3    H1 5280   4.894   2.709   5.197  0.4863 -0.9639 -0.7027
 1772TIP3    H2 5281   4.907   2.693   5.347  0.1556 -0.0039 -0.5601
 1773TIP3   OH2 5282   5.876   5.832   4.351  0.0315  0.3373  0.2815
 1773TIP3    H1 5283   5.818   5.777   4.298 -0.4222  1.8700 -0.8791
 1773TIP3    H2 5284   5.946   5.773   4.379  0.3256 -0.5623 -2.0775
 1774TIP3   OH2 5285   2.171   0.443   3.902 -0.1041 -0.4552  0.3627
 1774TIP3    H1 5286   2.123   0.521   3.930  0.3378  0.5716 -1.5769
 1774TIP3    H2 5287   2.142   0.427   3.812  1.0520 -1.5391  0.1493
 1775TIP3   OH2 5288   2.656   2.427   5.331 -0.1757 -0.5088  0.5409
 1775TIP3    H1 5289   2.682   2.335   5.326  2.1559  0.1671 -1.4827
 1775TIP3    H2 5290   2.736   2.476   5.315 -1.8004  1.8440 -1.0763
 1776TIP3   OH2 5291   6.230   2.649   4.989 -0.3280 -0.3280  0.2714
 1776TIP3    H1 5292   6.203   2.734   4.952 -1.1883 -0.6425  0.1622
 1776TIP3    H2 5293   6.185   2.644   5.073  2.9350  1.1609  2.3436
 1777TIP3   OH2 5294   6.377   6.380   1.356  0.7324  0.0647  0.3316
 1777TIP3    H1 5295   6.444   6.313   1.340  1.0681  0.0517  1.6739
 1777TIP3    H2 5296   6.324   6.344   1.428 -0.4114  0.2983 -0.3746
 1778TIP3   OH2 5297   2.925   1.495   3.254  0.0707 -0.7867  0.0564
 1778TIP3    H1 5298   2.972   1.419   3.288 -1.6996 -2.2905 -0.6965
 1778TIP3    H2 5299   2.984   1.568   3.270  1.4670 -2.1644  1.6276
 1779TIP3   OH2 5300   3.697   0.640   0.940  1.0861 -0.0478 -0.1574
 1779TIP3    H1 5301   3.645   0.707   0.985  1.2094 -0.7295  1.0547
 1779TIP3    H2 5302   3.738   0.590   1.011  0.2045 -2.0384 -0.9685
 1780TIP3   OH2 5303   3.563   6.188   1.971  0.4390  0.5112 -0.1699
 1780TIP3    H1 5304   3.658   6.183   1.965  0.4847 -0.1931  0.9620
 1780TIP3    H2 5305   3.539   6.126   2.039 -0.9416 -0.2427 -1.2714
 1781TIP3   OH2 5306   2.284   1.025   3.330  0.1962  0.4002  0.7486
 1781TIP3    H1 5307   2.241   1.100   3.287 -1.3565 -0.6617  0.3757
 1781TIP3    H2 5308   2.352   0.998   3.268 -0.8232  0.0269 -0.2555
 1782TIP3   OH2 5309   2.763   1.474   0.783  0.1794  0.5685  0.2817
 1782TIP3    H1 5310   2.811   1.404   0.827 -0.8056 -0.4626 -0.2329
 1782TIP3    H2 5311   2.764   1.546   0.845 -1.7426 -1.0499  2.3763
 1783TIP3   OH2 5312   0.598   6.254   3.382 -0.2680  0.2023  0.1399
 1783TIP3    H1 5313   0.611   6.205   3.301 -1.6985 -0.1620  0.0861
 1783TIP3    H2 5314   0.582   6.187   3.448 -1.7929  0.5313  0.1578
 1784TIP3   OH2 5315   2.505   5.822   0.674 -0.3778  0.2436 -0.1928
 1784TIP3    H1 5316   2.591   5.814   0.716  0.3917  0.6144 -1.6399
 1784TIP3    H2 5317   2.497   5.915   0.654 -1.4730  0.3411  0.6107
 1785TIP3   OH2 5318   0.814   3.994   5.741  0.0574  0.5315  0.3352
 1785TIP3    H1 5319   0.833   3.991   5.647  0.8792 -1.9191  0.4994
 1785TIP3    H2 5320   0.807   3.902   5.767 -1.1235  1.1636  2.5124
 1786TIP3   OH2 5321   2.547   1.474   5.280 -0.2714 -0.1988  0.2853
 1786TIP3    H1 5322   2.591   1.400   5.238 -2.2918 -2.8816  2.4571
 1786TIP3    H2 5323   2.610   1.505   5.345 -0.1508 -1.5286  0.8420
 1787TIP3   OH2 5324   6.086   0.489   2.051  0.0683  0.0256  0.0475
 1787TIP3    H1 5325   6.106   0.573   2.010  1.0764  0.1664  0.7981
 1787TIP3    H2 5326   6.171   0.455   2.079 -0.6219  0.4983  3.1045
 1788TIP3   OH2 5327   0.535   0.550   5.619 -0.0203 -0.0672 -0.2113
 1788TIP3    H1 5328   0.585   0.593   5.688 -1.6891  1.6974 -0.0079
 1788TIP3    H2 5329   0.443   0.567   5.642 -0.7037 -1.8122 -1.4007
 1789TIP3   OH2 5330   4.418   4.455   5.029  0.5318  0.0635 -0.3758
 1789TIP3    H1 5331   4.511   4.436   5.015  0.8193 -0.2253  1.6859
 1789TIP3    H2 5332   4.413   4.551   5.029  1.2868  0.1653  1.7582
 1790TIP3   OH2 5333   1.258   1.007   5.612 -0.1190  0.4823  0.2975
 1790TIP3    H1 5334   1.311   1.020   5.533 -1.2537  1.7071 -0.3020
 1790TIP3    H2 5335   1.314   0.955   5.670  1.5943  1.4253 -0.4362
 1791TIP3   OH2 5336  -0.002   4.505   2.869  0.1823 -0.1450  0.8828
 1791TIP3    H1 5337   0.091   4.527   2.871  0.3644 -0.1173 -2.2530
 1791TIP3    H2 5338  -0.007   4.429   2.811 -1.7872  0.0431  0.7360
 1792TIP3   OH2 5339   3.903   3.377   1.021  0.0227  0.1744  0.1237
 1792TIP3    H1 5340   3.988   3.371   1.064 -0.7154  1.2088  1.8252
 1792TIP3    H2 5341   3.879   3.286   1.003  0.8629 -0.2251  0.9248
 1793TIP3   OH2 5342   0.139   6.057   1.042  0.1641  0.3214 -0.3084
 1793TIP3    H1 5343   0.060   6.041   1.093  0.7962 -1.1551  0.2541
 1793TIP3    H2 5344   0.112   6.045   0.951  0.0316 -1.6349 -0.0440
 1794TIP3   OH2 5345   0.085   0.931   0.167  1.1854 -0.0751  0.1372
 1794TIP3    H1 5346   0.160   0.989   0.182  0.7627  0.7507 -0.8177
 1794TIP3    H2 5347   0.123   0.843   0.164  1.9779  0.2455  0.6412
 1795TIP3   OH2 5348   3.225   5.460   5.025  0.3409 -0.2927 -0.0358
 1795TIP3    H1 5349   3.149   5.471   5.081  0.6894 -0.7746  0.5575
 1795TIP3    H2 5350   3.282   5.400   5.074  3.1939  3.4240  1.7312
 1796TIP3   OH2 5351   1.639   2.970   4.825  0.4514 -0.1011  0.8935
 1796TIP3    H1 5352   1.715   3.020   4.797 -0.1789  0.4464  0.1073
 1796TIP3    H2 5353   1.618   3.004   4.912 -0.6717  1.8935 -0.0860
 1797TIP3   OH2 5354   4.452   0.483   2.559 -0.2117  0.4290  0.5115
 1797TIP3    H1 5355   4.478   0.453   2.647  0.3942  0.3567  0.3082
 1797TIP3    H2 5356   4.356   0.478   2.561 -0.1639 -1.2911  0.5823
 1798TIP3   OH2 5357   1.918   6.717   1.078  0.0521  0.0891 -0.0759
 1798TIP3    H1 5358   1.893   6.748   1.165 -1.7677  2.0287 -1.1951
 1798TIP3    H2 5359   1.964   6.790   1.038  1.3575 -0.9777 -0.5891
 1799TIP3   OH2 5360   6.800   5.808   3.843  0.2325 -0.3588  0.8180
 1799TIP3    H1 5361   6.867   5.845   3.901  0.5879 -0.5059  0.5060
 1799TIP3    H2 5362   6.754   5.744   3.897 -0.6067  0.7486  1.4669
 1800TIP3   OH2 5363   0.183   6.520   5.221  0.4206  0.1295  0.4250
 1800TIP3    H1 5364   0.090   6.522   5.198  0.1445 -1.0933  1.3152
 1800TIP3    H2 5365   0.204   6.426   5.226  1.8007  0.3916 -0.1393
 1801TIP3   OH2 5366   2.828   5.489   0.356  0.0767 -0.3340 -0.2232
 1801TIP3    H1 5367   2.891   5.513   0.425  0.6488  0.6908 -1.0628
 1801TIP3    H2 5368   2.883   5.461   0.283 -0.4841 -0.3129 -0.6564
 1802TIP3   OH2 5369   5.090   6.717   4.655 -0.0485  0.6866  0.6075
 1802TIP3    H1 5370   5.090   6.649   4.588  0.2094  0.2777  1.0190
 1802TIP3    H2 5371   5.116   6.672   4.735  1.7902  1.5745  0.5639
 1803TIP3   OH2 5372   4.433   6.209   1.560  0.1064 -0.2155  0.2123
 1803TIP3    H1 5373   4.355   6.255   1.531 -0.0493 -0.8106 -0.3538
 1803TIP3    H2 5374   4.410   6.116   1.550  0.7080 -0.3992  0.5159
 1804TIP3   OH2 5375   5.812   5.835   2.745  0.2651  0.3134 -0.2633
 1804TIP3    H1 5376   5.902   5.840   2.712  0.1431 -1.5300 -0.9754
 1804TIP3    H2 5377   5.795   5.922   2.781  2.4763  0.5770  0.2753
 1805TIP3   OH2 5378   6.816   5.286   2.331  0.2076 -0.6751  0.0581
 1805TIP3    H1 5379   6.902   5.327   2.326  0.5207 -1.2304  0.7437
 1805TIP3    H2 5380   6.783   5.309   2.417 -0.9254  0.6612 -0.6918
 1806TIP3   OH2 5381   2.413   1.886   3.959  0.4143  0.6171  0.3699
 1806TIP3    H1 5382   2.389   1.810   3.906  1.2667  1.4879 -1.3355
 1806TIP3    H2 5383   2.434   1.850   4.045 -0.7853 -0.8692  0.0784
 1807TIP3   OH2 5384   2.572   2.013   3.288  0.9130 -0.3806  0.5531
 1807TIP3    H1 5385   2.666   2.018   3.271  0.8256  0.4629  0.2098
 1807TIP3    H2 5386   2.549   2.102   3.317  0.4753 -0.9649  2.0523
 1808TIP3   OH2 5387   0.559   1.732   5.485  0.3129 -0.2830  0.0939
 1808TIP3    H1 5388   0.573   1.719   5.391 -0.2061 -1.4679  0.1631
 1808TIP3    H2 5389   0.627   1.794   5.511  0.0471  0.5870 -1.1905
 1809TIP3   OH2 5390   0.538   6.736   2.982  0.1075  0.3203 -0.2689
 1809TIP3    H1 5391   0.509   6.780   3.062 -0.4034  0.1928 -0.3824
 1809TIP3    H2 5392   0.579   6.655   3.013 -0.3670  0.1214 -0.1493
 1810TIP3   OH2 5393   1.044   6.112   4.002 -0.2842 -0.0264  0.0323
 1810TIP3    H1 5394   0.959   6.143   4.031 -0.2741  0.4323 -0.4155
 1810TIP3    H2 5395   1.041   6.017   4.014 -1.3417 -0.1793 -1.1901
 1811TIP3   OH2 5396   5.012   6.607   1.100 -0.1888  0.7643 -0.0776
 1811TIP3    H1 5397   4.970   6.580   1.018 -0.7095 -1.1542  0.7575
 1811TIP3    H2 5398   4.947   6.665   1.142 -1.1420 -0.4590  0.2101
 1812TIP3   OH2 5399   2.392   2.394   4.360 -0.2126  0.1096  0.1345
 1812TIP3    H1 5400   2.425   2.305   4.370 -1.5689 -0.7905 -2.5605
 1812TIP3    H2 5401   2.301   2.384   4.332 -0.0995  2.2963 -1.2821
 1813TIP3   OH2 5402   0.496   5.510   0.986 -0.2171  0.0594 -0.5452
 1813TIP3    H1 5403   0.489   5.606   0.984 -0.6126  0.0943  1.0484
 1813TIP3    H2 5404   0.584   5.492   0.953  0.5012  1.0971  0.7179
 1814TIP3   OH2 5405   4.216   3.567   3.076  0.1751  0.1629  0.3683
 1814TIP3    H1 5406   4.299   3.558   3.028  0.8518  1.3799  1.2544
 1814TIP3    H2 5407   4.202   3.481   3.115  1.9965  0.4144  1.6988
 1815TIP3   OH2 5408   2.276   5.373   4.349  0.1151  0.1021  0.2798
 1815TIP3    H1 5409   2.326   5.292   4.337 -0.7092 -0.7359  2.1114
 1815TIP3    H2 5410   2.191   5.356   4.307  0.6293  0.8071 -1.1161
 1816TIP3   OH2 5411   1.581   0.355   0.932  0.4465  0.3753 -0.3013
 1816TIP3    H1 5412   1.651   0.360   0.996  0.2689  0.7027 -0.1326
 1816TIP3    H2 5413   1.560   0.446   0.911  2.9260  0.3797 -3.5013
 1817TIP3   OH2 5414   3.018   1.162   0.093  0.0359  0.9214  0.3092
 1817TIP3    H1 5415   2.970   1.142   0.013  0.6026 -0.1047  0.2001
 1817TIP3    H2 5416   3.098   1.205   0.063  0.9312 -0.7398  0.1679
 1818TIP3   OH2 5417   1.287   3.011   2.374  0.1880 -0.0068 -0.1477
 1818TIP3    H1 5418   1.237   2.931   2.391 -1.1841  0.5288 -1.4980
 1818TIP3    H2 5419   1.363   3.004   2.432 -0.2065 -2.0005  0.1983
 1819TIP3   OH2 5420   4.573   3.203   1.856 -0.0714 -0.2868  0.5777
 1819TIP3    H1 5421   4.626   3.219   1.778  1.4003  1.1749  1.8148
 1819TIP3    H2 5422   4.627   3.147   1.911 -0.2378  0.3738  1.4299
 1820TIP3   OH2 5423   6.500   2.557   2.125 -0.4704 -0.1791  0.7557
 1820TIP3    H1 5424   6.495   2.555   2.030 -1.1482 -0.1269  0.7835
 1820TIP3    H2 5425   6.497   2.651   2.147 -2.6318 -0.2385  0.9153
 1821TIP3   OH2 5426   5.828   1.084   5.362 -0.3167  0.2543  0.0337
 1821TIP3    H1 5427   5.754   1.144   5.370 -0.2835  0.3550 -0.4030
 1821TIP3    H2 5428   5.858   1.094   5.272 -0.1158 -0.1934  0.0478
 1822TIP3   OH2 5429   6.793   1.389   1.461  0.0304  0.0440 -0.6682
 1822TIP3    H1 5430   6.699   1.378   1.475 -0.0925  0.9462 -0.7650
 1822TIP3    H2 5431   6.821   1.444   1.534  1.3083 -3.6393  1.9315
 1823TIP3   OH2 5432   3.728   3.432   5.091 -0.2625  0.3712  0.3792
 1823TIP3    H1 5433   3.684   3.369   5.034  1.2794  1.5822 -2.3532
 1823TIP3    H2 5434   3.666   3.448   5.162 -1.4831 -2.7397  0.1817
 1824TIP3   OH2 5435   2.582   6.377   1.458 -0.1571 -0.5954  0.0888
 1824TIP3    H1 5436   2.615   6.287   1.447 -0.8711 -0.9084  0.4659
 1824TIP3    H2 5437   2.487   6.367   1.464 -0.4420  0.3819 -1.9367
 1825TIP3   OH2 5438   3.227   2.321   4.520 -0.2315  0.3150 -0.3467
 1825TIP3    H1 5439   3.165   2.354   4.455  1.1841  1.0413 -1.3732
 1825TIP3    H2 5440   3.253   2.235   4.486  0.7635  0.8379 -0.9531
 1826TIP3   OH2 5441   1.423   2.220   3.488  0.1980  0.8341 -0.1162
 1826TIP3    H1 5442   1.477   2.187   3.417  0.2881  0.4932  0.1086
 1826TIP3    H2 5443   1.456   2.308   3.505 -1.1827  1.7450 -1.9026
 1827TIP3   OH2 5444   5.357   0.280   4.753  0.0733 -0.4738  0.1374
 1827TIP3    H1 5445   5.291   0.215   4.780 -0.7022 -0.0224 -0.6305
 1827TIP3    H2 5446   5.381   0.324   4.834  0.4469 -1.5557  0.6445
 1828TIP3   OH2 5447   1.329   0.122   1.965 -0.0247  0.2122 -0.3207
 1828TIP3    H1 5448   1.311   0.029   1.962 -2.4476  0.5612  0.7542
 1828TIP3    H2 5449   1.281   0.159   1.891 -2.0251  0.9016  1.1979
 1829TIP3   OH2 5450   0.078   1.679   5.163  0.1529 -0.5690  0.5259
 1829TIP3    H1 5451   0.018   1.731   5.109  0.8939  0.3384  0.5552
 1829TIP3    H2 5452   0.148   1.654   5.103  0.9637  0.4196  1.0295
 1830TIP3   OH2 5453   0.783   2.648   5.369  0.6137  0.3381 -0.1138
 1830TIP3    H1 5454   0.819   2.710   5.306  2.0505  0.0989  0.4212
 1830TIP3    H2 5455   0.821   2.564   5.344  1.8693  0.3735  1.5146
 1831TIP3   OH2 5456   1.274   1.275   4.220  0.1214  0.0939  0.0350
 1831TIP3    H1 5457   1.365   1.249   4.206  0.2156  0.4417  0.0006
 1831TIP3    H2 5458   1.279   1.366   4.249 -0.1713 -0.0828  0.6698
 1832TIP3   OH2 5459   6.207   2.067   4.511  0.4901 -0.6614  0.2559
 1832TIP3    H1 5460   6.126   2.116   4.501  1.1013  0.4597  0.5538
 1832TIP3    H2 5461   6.273   2.134   4.531  1.6603 -1.4340 -0.8361
 1833TIP3   OH2 5462   3.484   3.372   1.076  1.0228  0.5838  0.0951
 1833TIP3    H1 5463   3.531   3.398   1.155 -0.8358 -0.7948  1.7644
 1833TIP3    H2 5464   3.395   3.406   1.088  0.1238 -1.4054 -0.3554
 1834TIP3   OH2 5465   3.621   3.622   3.572  0.1735 -0.0461  0.0790
 1834TIP3    H1 5466   3.654   3.665   3.651  1.6065  0.3234 -0.6749
 1834TIP3    H2 5467   3.700   3.604   3.520 -0.6011 -1.6189 -0.6139
 1835TIP3   OH2 5468   3.402   0.377   3.480 -0.7622  0.2530 -0.2863
 1835TIP3    H1 5469   3.453   0.343   3.406  1.0447  0.3359  0.8586
 1835TIP3    H2 5470   3.389   0.470   3.460  1.1932  0.6848  0.2294
 1836TIP3   OH2 5471   3.267   2.799   3.874 -0.1828  0.0919  0.0967
 1836TIP3    H1 5472   3.288   2.828   3.963  0.1352  1.5023 -0.4141
 1836TIP3    H2 5473   3.188   2.746   3.884  0.0795 -0.1149  1.2655
 1837TIP3   OH2 5474   0.565   0.911   2.953  0.1829  0.6166  0.3521
 1837TIP3    H1 5475   0.540   0.994   2.911 -0.5282  0.6372  0.8006
 1837TIP3    H2 5476   0.486   0.882   2.997  0.3749 -0.4137  0.0344
 1838TIP3   OH2 5477   1.348   5.101   3.645 -0.1320  0.0603 -0.2137
 1838TIP3    H1 5478   1.441   5.082   3.659  0.0199 -0.0278 -1.2506
 1838TIP3    H2 5479   1.305   5.071   3.725  0.6984 -0.1423  0.1696
 1839TIP3   OH2 5480   0.769   2.773   4.565 -0.6184 -0.4662  0.4008
 1839TIP3    H1 5481   0.743   2.841   4.504 -0.6643 -0.3032  0.5983
 1839TIP3    H2 5482   0.827   2.817   4.627  0.6503 -0.9769 -0.4055
 1840TIP3   OH2 5483   0.249   6.479   4.318  0.3350  0.0670 -0.6959
 1840TIP3    H1 5484   0.285   6.462   4.405  0.9212  0.3748 -0.8752
 1840TIP3    H2 5485   0.193   6.403   4.300  0.2223 -0.0071 -0.0618
 1841TIP3   OH2 5486   4.369   0.036   3.778 -0.1964 -0.4704 -0.2869
 1841TIP3    H1 5487   4.364   0.091   3.699 -1.2492 -1.4990 -0.9742
 1841TIP3    H2 5488   4.427  -0.036   3.753 -0.6792 -0.8954 -0.1877
 1842TIP3   OH2 5489   5.575   0.737   1.141  0.2390 -0.2871  0.5666
 1842TIP3    H1 5490   5.647   0.729   1.203  0.6985 -1.3543 -0.0764
 1842TIP3    H2 5491   5.498   0.712   1.191  0.8515 -3.0651  0.2658
 1843TIP3   OH2 5492   0.647   0.651   5.113 -0.2049 -0.6805  0.2992
 1843TIP3    H1 5493   0.656   0.592   5.188 -0.7429 -1.6531 -0.3886
 1843TIP3    H2 5494   0.595   0.724   5.147  0.1801 -0.7494  1.0651
 1844TIP3   OH2 5495   6.713   5.039   3.950  0.3812 -0.1907  0.3665
 1844TIP3    H1 5496   6.794   5.072   3.988  1.1453 -0.8962 -0.6277
 1844TIP3    H2 5497   6.681   4.975   4.015  0.8942 -0.3006  0.5155
 1845TIP3   OH2 5498   4.007   5.583   2.879  0.1757  0.0137 -0.3806
 1845TIP3    H1 5499   4.068   5.655   2.861 -2.1769  2.1058 -0.6149
 1845TIP3    H2 5500   3.992   5.543   2.793 -0.4206  0.9410 -0.7302
 1846TIP3   OH2 5501   3.459   2.672   0.996  0.1700 -0.0585 -0.0155
 1846TIP3    H1 5502   3.462   2.639   1.086 -0.6593 -1.4692 -0.4759
 1846TIP3    H2 5503   3.514   2.612   0.946 -0.2988  0.0227 -0.6429
 1847TIP3   OH2 5504   6.328   1.101   3.295 -0.0677  0.6030 -0.0659
 1847TIP3    H1 5505   6.338   1.193   3.270 -0.4255  0.1155 -2.1828
 1847TIP3    H2 5506   6.239   1.095   3.328  0.2468  1.1740  0.9215
 1848TIP3   OH2 5507   3.449   1.156   0.225 -0.3710 -0.0885  0.2088
 1848TIP3    H1 5508   3.491   1.139   0.140 -1.7629 -0.7017 -0.3870
 1848TIP3    H2 5509   3.428   1.250   0.222  0.6463  0.1628  0.3959
 1849TIP3   OH2 5510   4.305   4.651   2.875  0.4166 -0.0481  0.0869
 1849TIP3    H1 5511   4.335   4.662   2.965  0.5020 -2.6386  0.4252
 1849TIP3    H2 5512   4.371   4.696   2.823  0.0680  1.9940  1.2783
 1850TIP3   OH2 5513   1.024   1.853   1.348 -0.2489 -0.2246  0.1375
 1850TIP3    H1 5514   1.051   1.786   1.286 -0.8091 -1.6412  1.3484
 1850TIP3    H2 5515   1.105   1.899   1.372  0.3934 -1.4384  0.3672
 1851TIP3   OH2 5516   3.053   1.751   2.728 -0.4485 -0.1002  0.4893
 1851TIP3    H1 5517   3.031   1.666   2.690 -1.9464  0.8617 -0.9850
 1851TIP3    H2 5518   3.075   1.805   2.652 -1.3275  1.2910  1.1844
 1852TIP3   OH2 5519   4.344   4.748   1.050  0.5706 -0.0682  0.6280
 1852TIP3    H1 5520   4.405   4.807   1.006  1.3790 -0.6943  0.8798
 1852TIP3    H2 5521   4.268   4.803   1.070  1.3352  0.9082  0.9329
 1853TIP3   OH2 5522   6.283   1.905   2.186 -0.0044  0.2530  0.3125
 1853TIP3    H1 5523   6.295   1.814   2.212  0.7523  0.3139  0.1874
 1853TIP3    H2 5524   6.189   1.912   2.167  0.3878 -1.3847 -2.9565
 1854TIP3   OH2 5525   1.601   0.659   4.297  0.3833 -0.1468 -0.7333
 1854TIP3    H1 5526   1.599   0.609   4.379 -1.0621 -0.5780 -0.9848
 1854TIP3    H2 5527   1.626   0.747   4.323  0.4686 -0.4077  0.1060
 1855TIP3   OH2 5528   0.629   0.234   2.164 -0.7597 -0.2184 -0.1824
 1855TIP3    H1 5529   0.677   0.159   2.128 -0.1099 -0.3492  0.9153
 1855TIP3    H2 5530   0.676   0.311   2.132  0.3896 -0.3513  1.1232
 1856TIP3   OH2 5531   1.132   6.757   0.694 -0.3134  0.2053 -0.2669
 1856TIP3    H1 5532   1.066   6.712   0.640 -2.5326 -0.5582  2.7598
 1856TIP3    H2 5533   1.119   6.849   0.675 -1.7056  0.0091 -0.4276
 1857TIP3   OH2 5534   3.097   2.788   2.109  0.6812  0.1118 -0.4878
 1857TIP3    H1 5535   3.065   2.700   2.092 -1.7306  1.1807 -2.0017
 1857TIP3    H2 5536   3.024   2.831   2.155  1.9613  1.2169  0.5907
 1858TIP3   OH2 5537   5.928   4.094   5.660 -0.0143  0.5522  0.1578
 1858TIP3    H1 5538   5.857   4.054   5.710  1.2436 -0.7945  0.9317
 1858TIP3    H2 5539   5.951   4.028   5.595  0.2214  1.1761 -0.4000
 1859TIP3   OH2 5540   4.970   4.944   0.560 -0.4888 -0.2441  0.5462
 1859TIP3    H1 5541   5.004   5.029   0.534  1.0948 -0.8940  0.3779
 1859TIP3    H2 5542   4.875   4.957   0.567 -0.3657  1.3106 -0.2498
 1860TIP3   OH2 5543   2.639   3.334   4.027 -0.2158  0.2515 -0.0398
 1860TIP3    H1 5544   2.718   3.364   3.983 -0.8079  0.7751 -0.7638
 1860TIP3    H2 5545   2.614   3.255   3.979 -0.4713  0.4270 -0.1941
 1861TIP3   OH2 5546   4.006   1.939   5.472  0.0320  0.2947  0.5501
 1861TIP3    H1 5547   3.915   1.937   5.441 -0.4796  0.6324  1.9827
 1861TIP3    H2 5548   4.039   1.852   5.453 -0.9334 -0.1821  1.0068
 1862TIP3   OH2 5549   5.385   5.643   2.538 -0.1054 -1.0391  0.0373
 1862TIP3    H1 5550   5.306   5.638   2.591  0.0354 -1.1591  0.2385
 1862TIP3    H2 5551   5.382   5.730   2.498  0.0123 -0.7653  0.6059
 1863TIP3   OH2 5552   7.225   2.790   1.671 -0.0656  0.1951 -0.2854
 1863TIP3    H1 5553   7.182   2.876   1.680 -1.0480 -0.0542 -2.0785
 1863TIP3    H2 5554   7.189   2.738   1.742 -0.1432  1.0084  0.2885
 1864TIP3   OH2 5555   0.162   1.557   1.616 -0.4554  0.3612  0.3648
 1864TIP3    H1 5556   0.211   1.538   1.696 -0.2071 -0.6660 -0.0084
 1864TIP3    H2 5557   0.086   1.499   1.621 -0.5394  0.4344 -0.0421
 1865TIP3   OH2 5558   2.810   5.257   5.208  0.1779  0.9462  0.1833
 1865TIP3    H1 5559   2.824   5.276   5.301  0.6463  0.8175  0.1407
 1865TIP3    H2 5560   2.721   5.222   5.204  0.0268  1.2821  0.5339
 1866TIP3   OH2 5561   6.910   0.449   3.856  0.5180  0.4239  0.3092
 1866TIP3    H1 5562   6.933   0.402   3.936  1.9657  0.9554  0.2273
 1866TIP3    H2 5563   6.979   0.426   3.793 -0.7490 -0.2294 -0.9096
 1867TIP3   OH2 5564   1.388   1.410   3.821 -0.0780  0.6548 -0.3178
 1867TIP3    H1 5565   1.377   1.323   3.858 -0.7962  0.7759 -0.2271
 1867TIP3    H2 5566   1.314   1.460   3.855  0.9925  1.6524  0.6358
 1868TIP3   OH2 5567   5.355   0.967   1.508 -0.3452 -0.1607 -0.1229
 1868TIP3    H1 5568   5.388   0.888   1.550 -2.7893  0.2977  2.9789
 1868TIP3    H2 5569   5.306   0.935   1.432  1.7929 -1.2274 -1.1523
 1869TIP3   OH2 5570   2.423   6.170   1.226 -0.0431  0.0773  0.2402
 1869TIP3    H1 5571   2.344   6.222   1.216 -1.3827 -2.0199 -0.9697
 1869TIP3    H2 5572   2.402   6.108   1.296  1.1236  0.4703  0.9682
 1870TIP3   OH2 5573   6.544   4.301   3.663  0.0228  0.6282  0.5027
 1870TIP3    H1 5574   6.507   4.215   3.646  0.3649  0.6246 -0.2556
 1870TIP3    H2 5575   6.498   4.331   3.742 -0.8747  0.2056  0.1632
 1871TIP3   OH2 5576   4.289   5.907   5.382  0.6260 -0.2248 -0.5054
 1871TIP3    H1 5577   4.319   5.995   5.407 -2.3556  0.7441  0.0565
 1871TIP3    H2 5578   4.228   5.922   5.310 -1.0160 -1.6332  0.5116
 1872TIP3   OH2 5579   0.882   2.374   1.804 -0.1098  0.3078  0.2500
 1872TIP3    H1 5580   0.900   2.414   1.718 -0.0684  0.9771  0.5620
 1872TIP3    H2 5581   0.841   2.291   1.783 -0.1431  0.4852 -0.4272
 1873TIP3   OH2 5582   3.796   0.242   2.127 -0.0483  0.2144 -0.0879
 1873TIP3    H1 5583   3.852   0.210   2.056  2.0136  1.0169  1.1067
 1873TIP3    H2 5584   3.783   0.165   2.183 -0.1556  0.0236 -0.3711
 1874TIP3   OH2 5585   6.004   4.083   2.406 -0.1131  0.1132  0.9875
 1874TIP3    H1 5586   6.098   4.078   2.423  0.6662  0.1809 -2.4630
 1874TIP3    H2 5587   5.982   4.175   2.421  1.1970  0.8682 -1.2504
 1875TIP3   OH2 5588   0.101   5.928   5.453 -0.0587  0.1265 -0.0522
 1875TIP3    H1 5589   0.153   5.999   5.416 -0.2976  0.8998  1.0365
 1875TIP3    H2 5590   0.101   5.861   5.385  1.1553  0.6810 -0.6428
 1876TIP3   OH2 5591   4.174   4.220   4.492  0.2612  0.6329  0.6238
 1876TIP3    H1 5592   4.124   4.168   4.555 -0.7026  1.3927  0.5175
 1876TIP3    H2 5593   4.113   4.290   4.465  1.0537  1.0093 -0.2557
 1877TIP3   OH2 5594   6.898   4.143   2.728  0.5159 -0.1728  0.2287
 1877TIP3    H1 5595   6.989   4.169   2.715  0.1756  0.6728 -0.5495
 1877TIP3    H2 5596   6.847   4.223   2.716 -0.3427 -0.6526  0.5479
 1878TIP3   OH2 5597   3.129   2.298   1.830  1.0738 -0.0999  0.2338
 1878TIP3    H1 5598   3.168   2.363   1.772  1.6126 -0.7671 -0.1720
 1878TIP3    H2 5599   3.157   2.214   1.794 -2.1136 -0.7315 -1.1022
 1879TIP3   OH2 5600   2.932   0.867   5.444  0.0361  0.5803 -0.9211
 1879TIP3    H1 5601   2.886   0.791   5.479  0.2036  0.8561 -0.0753
 1879TIP3    H2 5602   2.975   0.836   5.364  0.7355 -0.4180 -0.1776
 1880TIP3   OH2 5603   5.913   2.011   0.861  0.1854  0.3541  0.4591
 1880TIP3    H1 5604   5.824   2.037   0.840  0.5395  0.0160 -1.6603
 1880TIP3    H2 5605   5.963   2.027   0.781  1.9039 -0.0985  1.3754
 1881TIP3   OH2 5606   3.915   5.842   2.365  0.4947 -0.7600  0.3245
 1881TIP3    H1 5607   3.985   5.798   2.317  0.9942 -0.2197  0.5359
 1881TIP3    H2 5608   3.961   5.897   2.429  0.0635  1.9861 -1.5337
 1882TIP3   OH2 5609   3.408   4.514   2.138 -0.4741  0.1027  0.0603
 1882TIP3    H1 5610   3.429   4.564   2.217  0.1752  2.1379 -1.3435
 1882TIP3    H2 5611   3.460   4.554   2.069  0.0614 -2.5234 -1.1840
 1883TIP3   OH2 5612   0.515   2.439   0.989  1.0384  0.2330  0.2584
 1883TIP3    H1 5613   0.470   2.398   0.916  1.4044 -0.4338  0.3985
 1883TIP3    H2 5614   0.529   2.529   0.962 -1.7837  0.9485  0.8131
 1884TIP3   OH2 5615   3.607   3.298   1.424 -0.7756 -0.5070 -0.3126
 1884TIP3    H1 5616   3.623   3.345   1.342 -1.0132 -0.3573 -0.2726
 1884TIP3    H2 5617   3.669   3.336   1.486 -1.0695 -0.1424 -0.2401
 1885TIP3   OH2 5618   0.767   5.206   4.427 -0.2089  0.0676 -0.1884
 1885TIP3    H1 5619   0.721   5.274   4.476  0.3220  0.6493 -0.4911
 1885TIP3    H2 5620   0.699   5.141   4.407 -0.4970 -0.0377  1.0365
 1886TIP3   OH2 5621   1.325   3.066   4.067 -0.8999 -0.0891  0.3197
 1886TIP3    H1 5622   1.299   3.028   4.151 -0.3513 -0.2103  0.4332
 1886TIP3    H2 5623   1.355   3.154   4.088 -0.1136 -0.3580  0.3458
 1887TIP3   OH2 5624   6.256   3.024   0.345 -0.3920  0.3647 -0.1935
 1887TIP3    H1 5625   6.316   2.963   0.301 -0.5596 -0.3619  0.5507
 1887TIP3    H2 5626   6.172   2.978   0.346 -0.4309  0.4350  0.7221
 1888TIP3   OH2 5627   5.075   6.185   5.646 -0.3000  0.3862 -0.0482
 1888TIP3    H1 5628   5.033   6.177   5.732 -1.6491 -0.6483 -0.7830
 1888TIP3    H2 5629   5.160   6.142   5.658 -0.6711 -0.1885  0.6443
 1889TIP3   OH2 5630   3.849   2.767   5.403  0.0991 -0.6227 -0.1107
 1889TIP3    H1 5631   3.817   2.828   5.336  0.3294  0.9421  1.1275
 1889TIP3    H2 5632   3.781   2.766   5.469  0.4572 -1.1011  0.2562
 1890TIP3   OH2 5633   6.478   0.103   5.906 -0.4028 -0.0266 -0.3700
 1890TIP3    H1 5634   6.427   0.023   5.919 -0.0403 -0.0227  1.2511
 1890TIP3    H2 5635   6.540   0.081   5.837  0.6721 -1.6787  1.0344
 1891TIP3   OH2 5636   0.466   5.556   3.944  0.4020 -0.0435  0.2193
 1891TIP3    H1 5637   0.459   5.485   4.008 -0.1669 -0.1563  0.0327
 1891TIP3    H2 5638   0.432   5.519   3.863 -0.2286  0.5499  0.2072
 1892TIP3   OH2 5639   4.863   1.777   1.333  0.0512  0.3929 -0.0369
 1892TIP3    H1 5640   4.852   1.862   1.291  2.5614  0.1318 -1.4406
 1892TIP3    H2 5641   4.957   1.758   1.324 -0.4344 -2.5563  0.1393
 1893TIP3   OH2 5642   0.825   3.977   5.021  0.0333  0.0037 -0.3028
 1893TIP3    H1 5643   0.798   3.948   4.934  0.6772  0.9861 -0.8391
 1893TIP3    H2 5644   0.849   4.069   5.010  1.3566 -0.1927  0.6228
 1894TIP3   OH2 5645   6.485   2.969   1.111  0.2264  0.3090  0.7049
 1894TIP3    H1 5646   6.506   2.876   1.105 -3.0277 -0.5408  0.2483
 1894TIP3    H2 5647   6.453   2.981   1.200 -3.7463 -0.2935 -0.4154
 1895TIP3   OH2 5648   2.359   0.768   3.652 -0.6634  0.1314  0.1770
 1895TIP3    H1 5649   2.272   0.807   3.642  0.5693  2.4067 -3.6288
 1895TIP3    H2 5650   2.363   0.700   3.585  0.8533  0.9634 -0.6392
 1896TIP3   OH2 5651   2.124   3.548   1.379  0.1298  0.0919  0.0483
 1896TIP3    H1 5652   2.205   3.595   1.359 -0.4394  0.1320 -2.4886
 1896TIP3    H2 5653   2.151   3.476   1.436  1.6879  1.0017  0.4983
 1897TIP3   OH2 5654   1.160   4.774   0.226  0.1460 -0.4552  0.1961
 1897TIP3    H1 5655   1.248   4.738   0.221 -0.5214 -2.0945 -0.3584
 1897TIP3    H2 5656   1.128   4.774   0.136 -0.6746 -0.5314  0.4765
 1898TIP3   OH2 5657   6.469   5.197   4.108 -0.1794  0.2755  0.0405
 1898TIP3    H1 5658   6.465   5.120   4.051 -0.1689 -1.2567  1.9866
 1898TIP3    H2 5659   6.475   5.161   4.196 -0.5795  2.5397  1.0660
 1899TIP3   OH2 5660   6.656   3.472   1.391 -0.4418  0.6157 -0.0540
 1899TIP3    H1 5661   6.702   3.399   1.351 -0.9354 -0.5381  1.3861
 1899TIP3    H2 5662   6.707   3.493   1.469 -0.8247  1.1719  0.0541
 1900TIP3   OH2 5663   7.171   4.322   2.276 -0.5143  0.0678 -0.6171
 1900TIP3    H1 5664   7.206   4.338   2.188  0.1439  0.8800 -0.2250
 1900TIP3    H2 5665   7.191   4.230   2.294 -1.0267 -0.2201 -1.4693
 1901TIP3   OH2 5666   4.486   6.612   5.653  0.3531  0.1655 -0.2907
 1901TIP3    H1 5667   4.573   6.636   5.621  0.3099 -0.5500 -0.9609
 1901TIP3    H2 5668   4.445   6.567   5.580 -1.4784  2.4819 -0.8126
 1902TIP3   OH2 5669   0.312   0.676   2.802 -0.3911  0.0169 -0.6695
 1902TIP3    H1 5670   0.333   0.769   2.807 -2.7587  0.5438  1.5762
 1902TIP3    H2 5671   0.238   0.671   2.741 -1.1286 -0.1840  0.2241
 1903TIP3   OH2 5672   2.337   1.356   0.340  0.0905  0.0890  0.6847
 1903TIP3    H1 5673   2.378   1.294   0.279 -0.2771 -0.4261  0.9501
 1903TIP3    H2 5674   2.245   1.330   0.342 -0.1370  0.8583  0.5515
 1904TIP3   OH2 5675   5.559   2.421   0.190  0.3271 -0.0664  0.1944
 1904TIP3    H1 5676   5.548   2.515   0.206  0.8780 -0.0464  0.4760
 1904TIP3    H2 5677   5.651   2.412   0.164 -0.2261 -0.2527 -1.8921
 1905TIP3   OH2 5678   5.972   2.520   2.943 -0.6841  0.2429 -0.1373
 1905TIP3    H1 5679   5.882   2.531   2.913 -1.1498  0.1625  1.1816
 1905TIP3    H2 5680   6.006   2.447   2.890 -1.4205  0.1951 -0.5637
 1906TIP3   OH2 5681   3.544   1.469   2.202 -0.4295  0.1364 -0.2016
 1906TIP3    H1 5682   3.631   1.499   2.228 -0.6563  0.7371 -0.1237
 1906TIP3    H2 5683   3.552   1.449   2.109  0.2800 -1.6225  0.1916
 1907TIP3   OH2 5684   2.666   3.653   5.253 -0.0754 -0.1082 -0.1309
 1907TIP3    H1 5685   2.637   3.689   5.169 -1.5818 -1.7157 -0.3635
 1907TIP3    H2 5686   2.684   3.560   5.234  2.4638  0.1241  0.7059
 1908TIP3   OH2 5687   5.390   2.559   3.041 -0.6636 -0.2579 -0.8090
 1908TIP3    H1 5688   5.414   2.618   2.969 -0.9890  0.7782 -0.0787
 1908TIP3    H2 5689   5.329   2.497   3.001 -1.3846  0.7299 -1.2747
 1909TIP3   OH2 5690   2.069   3.197   4.088 -0.4823 -0.3114  0.6939
 1909TIP3    H1 5691   2.023   3.128   4.040 -0.4449 -0.5912  1.0563
 1909TIP3    H2 5692   2.141   3.222   4.031 -0.5428 -0.5206  0.5259
 1910TIP3   OH2 5693   5.605   5.318   2.937  0.2367  0.1375  0.0872
 1910TIP3    H1 5694   5.616   5.399   2.886 -0.9435 -0.2579 -0.8524
 1910TIP3    H2 5695   5.619   5.248   2.874 -0.3420 -0.3699  0.5067
 1911TIP3   OH2 5696   3.651   5.761   0.057  0.1265 -0.6479 -0.9112
 1911TIP3    H1 5697   3.629   5.698  -0.011  0.5925  0.7726 -2.4595
 1911TIP3    H2 5698   3.743   5.744   0.078  0.7047  0.3847 -2.3998
 1912TIP3   OH2 5699   4.339   5.211   1.371  0.0149  0.3713 -0.0743
 1912TIP3    H1 5700   4.288   5.138   1.408  0.4441 -1.0333 -2.0916
 1912TIP3    H2 5701   4.423   5.172   1.348 -0.2013  1.1131 -2.4065
 1913TIP3   OH2 5702   4.361   3.520   2.823  0.3444 -0.1422 -0.4251
 1913TIP3    H1 5703   4.396   3.603   2.792  0.4901 -0.7376 -1.9167
 1913TIP3    H2 5704   4.431   3.457   2.809  0.1183 -0.5943  0.3920
 1914TIP3   OH2 5705   2.228   0.651   4.941  0.0687  0.3422  0.4784
 1914TIP3    H1 5706   2.291   0.717   4.912 -2.1607  1.9826 -0.9760
 1914TIP3    H2 5707   2.238   0.580   4.878  1.9641 -0.4465  1.6022
 1915TIP3   OH2 5708   5.614   4.580   3.072 -0.4721  0.0506  0.5234
 1915TIP3    H1 5709   5.525   4.613   3.060 -0.9352 -1.5754 -0.6942
 1915TIP3    H2 5710   5.603   4.489   3.098  0.8543 -0.2376  0.1352
 1916TIP3   OH2 5711   6.133   4.604   2.573  0.2609  0.3156  0.2849
 1916TIP3    H1 5712   6.105   4.514   2.591  0.3302  0.0892 -0.6814
 1916TIP3    H2 5713   6.227   4.598   2.558  0.2091  0.4842 -0.1411
 1917TIP3   OH2 5714   2.614   4.858   2.553 -0.3029 -0.4749 -0.3190
 1917TIP3    H1 5715   2.564   4.854   2.471  0.0014  1.3985 -0.6458
 1917TIP3    H2 5716   2.664   4.939   2.547  2.0158 -1.7434  0.4657
 1918TIP3   OH2 5717   1.396   3.196   4.407  0.1823  0.0290 -0.0268
 1918TIP3    H1 5718   1.478   3.157   4.379  0.7048  1.4216 -0.5338
 1918TIP3    H2 5719   1.405   3.289   4.387 -0.7611  0.5438  1.6652
 1919TIP3   OH2 5720   3.035   3.764   5.080 -0.0521 -0.7616  0.4350
 1919TIP3    H1 5721   3.130   3.764   5.081 -0.0458 -0.6233  1.7522
 1919TIP3    H2 5722   3.011   3.674   5.056  0.3953 -0.8273  0.2201
 1920TIP3   OH2 5723   0.843   6.603   1.009  0.2008  0.2501 -0.0476
 1920TIP3    H1 5724   0.862   6.639   1.096  0.3818 -0.2018  0.1036
 1920TIP3    H2 5725   0.907   6.645   0.952 -0.9830  1.8181 -0.2783
 1921TIP3   OH2 5726   4.721   0.786   5.737 -0.4345  0.1291 -0.2305
 1921TIP3    H1 5727   4.767   0.786   5.653 -1.6161  0.7214 -0.9005
 1921TIP3    H2 5728   4.759   0.859   5.785 -0.3543  0.3208 -0.5846
 1922TIP3   OH2 5729   2.732   2.316   2.136  0.1015  0.0330 -0.0825
 1922TIP3    H1 5730   2.670   2.355   2.075 -0.8278 -1.4081 -0.1150
 1922TIP3    H2 5731   2.815   2.357   2.115 -0.7247  1.6513 -0.3823
 1923TIP3   OH2 5732   4.259   0.110   2.988  0.4586  0.3317 -0.2659
 1923TIP3    H1 5733   4.185   0.166   2.963 -1.3991 -1.3811  1.1040
 1923TIP3    H2 5734   4.251   0.033   2.931 -0.3083 -0.9512  1.5109
 1924TIP3   OH2 5735  -0.004   3.492   3.843  0.4445 -0.7221  0.2467
 1924TIP3    H1 5736   0.027   3.494   3.752 -1.3399  1.2208 -0.3929
 1924TIP3    H2 5737   0.004   3.582   3.873  3.0186 -1.6692  2.8424
 1925TIP3   OH2 5738   6.485   1.966   2.563  0.1785  0.0909  0.3440
 1925TIP3    H1 5739   6.509   1.875   2.547 -0.7232  0.0813 -1.1376
 1925TIP3    H2 5740   6.529   1.988   2.645  1.4904 -1.2638  0.0503
 1926TIP3   OH2 5741   4.036   4.317   3.003 -0.1272 -0.5594 -0.3694
 1926TIP3    H1 5742   3.981   4.288   2.930  1.2079  0.7575 -1.9992
 1926TIP3    H2 5743   4.012   4.409   3.015  0.0314 -0.6319  0.5159
 1927TIP3   OH2 5744   3.680   4.939   4.074 -0.1502 -0.1484 -0.5512
 1927TIP3    H1 5745   3.698   5.026   4.108  0.5847 -1.0315  1.4810
 1927TIP3    H2 5746   3.613   4.952   4.006 -0.5145  1.8916  0.1475
 1928TIP3   OH2 5747   4.541   3.981   1.749 -0.1204 -0.3568  0.3184
 1928TIP3    H1 5748   4.609   4.048   1.756 -1.7185  1.3658  0.2202
 1928TIP3    H2 5749   4.479   4.016   1.685  0.1728 -3.0910 -1.6761
 1929TIP3   OH2 5750   4.690   4.774   1.793 -0.4148  0.7096  0.5216
 1929TIP3    H1 5751   4.680   4.869   1.790 -0.2776  0.7663  1.5189
 1929TIP3    H2 5752   4.697   4.754   1.886 -1.0818 -0.3488  0.3513
 1930TIP3   OH2 5753   2.541   0.810   0.892  0.0077 -0.2449  0.1857
 1930TIP3    H1 5754   2.561   0.871   0.821 -2.3674  2.2603  1.4619
 1930TIP3    H2 5755   2.474   0.751   0.855  0.6111 -0.5969 -0.3675
 1931TIP3   OH2 5756   3.815   0.748   4.892 -0.3220  0.2401  0.5477
 1931TIP3    H1 5757   3.822   0.755   4.797 -0.0390 -1.3607  0.4143
 1931TIP3    H2 5758   3.772   0.829   4.919 -1.3296  0.2820 -1.0452
 1932TIP3   OH2 5759   6.360   2.206   5.024  0.6326 -0.0108  0.0613
 1932TIP3    H1 5760   6.435   2.156   5.054  0.7321  0.5540  0.7781
 1932TIP3    H2 5761   6.327   2.157   4.948  0.7574 -1.1198  0.7028
 1933TIP3   OH2 5762   6.024   6.516   4.047  0.2853 -0.0524 -0.1849
 1933TIP3    H1 5763   5.965   6.537   4.119  0.3032 -0.1920 -0.1276
 1933TIP3    H2 5764   5.975   6.537   3.968  0.3015  0.1933 -0.1297
 1934TIP3   OH2 5765   6.183   5.144   3.505 -0.3107  0.6489  0.4494
 1934TIP3    H1 5766   6.146   5.061   3.532  2.0050 -0.3587  0.7262
 1934TIP3    H2 5767   6.171   5.202   3.580 -0.4426  0.0755  0.8709
 1935TIP3   OH2 5768   1.846   3.178   2.202 -0.1673  0.1883  0.0569
 1935TIP3    H1 5769   1.853   3.180   2.297 -1.3511  0.8339  0.1531
 1935TIP3    H2 5770   1.799   3.258   2.180 -0.0899 -0.0568 -1.0578
 1936TIP3   OH2 5771   4.888   1.989   5.924  0.1173  0.0263  0.2832
 1936TIP3    H1 5772   4.849   1.995   5.837  0.6269 -2.6670 -0.2085
 1936TIP3    H2 5773   4.962   2.050   5.921  0.1754 -0.0849 -1.2146
 1937TIP3   OH2 5774   5.160   1.767   5.041 -0.0556 -0.0374  0.0238
 1937TIP3    H1 5775   5.099   1.708   4.996 -0.0473 -0.2356  0.2676
 1937TIP3    H2 5776   5.210   1.808   4.971  0.5031 -0.9436 -0.1224
 1938TIP3   OH2 5777   6.420   6.776   1.562  0.5439 -0.2274  0.0887
 1938TIP3    H1 5778   6.457   6.736   1.483  1.4765 -0.2228  0.5150
 1938TIP3    H2 5779   6.423   6.708   1.628  0.7976  0.1091  0.4252
 1939TIP3   OH2 5780   1.281   2.986   0.715 -0.1386  0.0844 -0.2352
 1939TIP3    H1 5781   1.229   2.957   0.790  0.3894  0.0108  0.1079
 1939TIP3    H2 5782   1.331   2.909   0.690  0.0677  0.2528 -0.3430
 1940TIP3   OH2 5783   5.505   4.006   1.674  0.5456 -0.3706 -0.0123
 1940TIP3    H1 5784   5.468   4.015   1.586  0.5980  0.3984  0.0385
 1940TIP3    H2 5785   5.568   3.934   1.667  1.1694  0.2348 -0.8194
 1941TIP3   OH2 5786   0.017   3.015   3.471 -0.2148 -0.3520 -0.0758
 1941TIP3    H1 5787   0.063   3.067   3.538  0.0754  0.3687 -0.8101
 1941TIP3    H2 5788  -0.031   2.949   3.520  0.9622 -0.6113  0.7733
 1942TIP3   OH2 5789   4.114   3.654   2.136  0.0036  0.1905 -0.1471
 1942TIP3    H1 5790   4.189   3.650   2.194 -0.7368 -1.7957  0.7359
 1942TIP3    H2 5791   4.066   3.732   2.164  0.5052  0.1616  0.8145
 1943TIP3   OH2 5792   3.483   6.453   4.391 -0.2011 -0.0801  0.6570
 1943TIP3    H1 5793   3.434   6.535   4.381  0.0226  0.0354  0.4955
 1943TIP3    H2 5794   3.533   6.466   4.472  3.1885  1.7325 -1.4673
 1944TIP3   OH2 5795   1.941   4.913   3.676  0.2032 -0.1376 -0.8258
 1944TIP3    H1 5796   1.888   4.861   3.737 -2.7991  1.8395 -1.5201
 1944TIP3    H2 5797   1.926   4.872   3.591 -1.3721  1.1664 -1.2208
 1945TIP3   OH2 5798   2.871   3.621   5.865  0.2532 -0.1656 -0.3610
 1945TIP3    H1 5799   2.878   3.549   5.928  0.9418  0.1992 -0.0161
 1945TIP3    H2 5800   2.948   3.675   5.882 -0.0043  0.3889 -0.9514
 1946TIP3   OH2 5801   6.062   1.633   1.597  0.5581  0.5911 -0.3678
 1946TIP3    H1 5802   6.031   1.550   1.560 -1.4138  1.2466 -0.3113
 1946TIP3    H2 5803   6.070   1.692   1.522 -0.2663  0.9755 -0.1737
 1947TIP3   OH2 5804   0.945   4.166   2.452 -0.3033  0.4545  0.5306
 1947TIP3    H1 5805   0.968   4.087   2.404  1.7610  0.9580  0.5950
 1947TIP3    H2 5806   0.907   4.225   2.386 -0.7203 -0.1181  0.2508
 1948TIP3   OH2 5807   6.918   5.578   5.019 -0.3888  0.3995 -0.2296
 1948TIP3    H1 5808   6.954   5.568   4.931  1.7619  0.7443  0.5597
 1948TIP3    H2 5809   6.993   5.573   5.077 -1.7707 -0.0260  1.6427
 1949TIP3   OH2 5810   6.024   5.848   5.272 -0.6765  0.6705  0.4659
 1949TIP3    H1 5811   6.041   5.777   5.334  1.2103 -0.0830 -0.8138
 1949TIP3    H2 5812   6.037   5.928   5.323 -3.7433  0.2249  2.1657
 1950TIP3   OH2 5813   4.751   1.237   1.589  0.2956  0.0959 -0.2276
 1950TIP3    H1 5814   4.685   1.261   1.654  0.0100  1.4124 -0.9579
 1950TIP3    H2 5815   4.831   1.280   1.620  1.4741 -3.1495  1.7810
 1951TIP3   OH2 5816   4.045   6.568   0.743 -0.0919 -0.2328  0.6114
 1951TIP3    H1 5817   4.070   6.643   0.688  1.7846  0.7068  2.6316
 1951TIP3    H2 5818   4.093   6.494   0.705  0.6493  0.2661  0.5488
 1952TIP3   OH2 5819   0.673   1.943   4.436 -0.1756  0.3557  0.3266
 1952TIP3    H1 5820   0.741   1.998   4.475  0.7361  0.8020 -1.7459
 1952TIP3    H2 5821   0.651   1.880   4.504  0.3959  1.8522  1.9798
 1953TIP3   OH2 5822   4.374   6.780   5.866  0.2650  0.4536 -0.0556
 1953TIP3    H1 5823   4.386   6.736   5.950  0.2847  2.2252  0.9317
 1953TIP3    H2 5824   4.428   6.731   5.805  2.2115  0.5336  1.5026
 1954TIP3   OH2 5825   5.025   5.593   1.442  0.2498 -0.2228 -0.4129
 1954TIP3    H1 5826   5.119   5.584   1.427  0.9482  1.4168  2.2959
 1954TIP3    H2 5827   5.004   5.525   1.506 -0.7012 -1.3074 -1.8255
 1955TIP3   OH2 5828   5.286   3.256   4.804 -0.7167 -0.2772  0.3243
 1955TIP3    H1 5829   5.315   3.165   4.807 -0.3625 -0.1469  1.1034
 1955TIP3    H2 5830   5.367   3.306   4.797 -0.9708 -0.0807 -3.1295
 1956TIP3   OH2 5831   3.327   5.745   5.468  0.4876  0.6135  0.0279
 1956TIP3    H1 5832   3.410   5.721   5.509  0.5388  1.1279  0.2325
 1956TIP3    H2 5833   3.288   5.809   5.527  1.6178  3.1250 -1.7725
 1957TIP3   OH2 5834   0.760   2.669   3.753 -0.0769  0.5390 -0.1537
 1957TIP3    H1 5835   0.677   2.623   3.768  0.7492 -1.0461 -0.2486
 1957TIP3    H2 5836   0.806   2.662   3.837 -0.4006  2.2853  0.2210
 1958TIP3   OH2 5837   0.779   3.855   0.413 -0.8678 -0.2908 -0.0903
 1958TIP3    H1 5838   0.786   3.816   0.500  0.3338 -1.1733 -0.5592
 1958TIP3    H2 5839   0.686   3.873   0.402 -1.1532 -1.0212  1.0031
 1959TIP3   OH2 5840   1.672   0.750   4.029  0.2534 -0.3327 -0.3143
 1959TIP3    H1 5841   1.594   0.782   3.983  1.5635  0.3578 -2.1618
 1959TIP3    H2 5842   1.637   0.706   4.107 -1.8751  1.5373 -0.0980
 1960TIP3   OH2 5843   2.757   4.969   2.288 -0.6392 -0.2037  0.4342
 1960TIP3    H1 5844   2.831   5.017   2.326 -0.6570 -1.9954  3.0666
 1960TIP3    H2 5845   2.797   4.912   2.222  0.2000 -0.4042  1.0986
 1961TIP3   OH2 5846   3.963   6.439   3.988  0.4568  0.2033 -0.2888
 1961TIP3    H1 5847   4.027   6.408   3.924 -0.1665  0.0051 -0.8274
 1961TIP3    H2 5848   3.879   6.432   3.943  0.1364  1.1982  0.1309
 1962TIP3   OH2 5849   2.513   0.701   5.322 -0.0967 -0.0261 -0.4553
 1962TIP3    H1 5850   2.579   0.759   5.285 -1.3824  1.4243 -0.5862
 1962TIP3    H2 5851   2.560   0.620   5.342  2.2287  1.6940  1.6219
 1963TIP3   OH2 5852   0.715   0.116   1.363  0.3483 -0.6674  0.1088
 1963TIP3    H1 5853   0.767   0.183   1.317 -0.5464 -0.8230 -1.1744
 1963TIP3    H2 5854   0.779   0.065   1.411  1.2887 -0.2853 -0.7097
 1964TIP3   OH2 5855   3.068   3.042   2.945  0.1683  0.3848  0.8425
 1964TIP3    H1 5856   3.114   3.049   3.029  0.4423  1.7038  0.6154
 1964TIP3    H2 5857   3.105   3.113   2.892 -2.7841  2.2218  0.9863
 1965TIP3   OH2 5858   6.646   4.294   4.651 -0.4686 -0.1536 -0.3228
 1965TIP3    H1 5859   6.559   4.333   4.657 -0.7218 -0.6697 -0.5673
 1965TIP3    H2 5860   6.664   4.261   4.739 -0.1046  0.8111 -0.0236
 1966TIP3   OH2 5861   3.783   6.557   4.231 -0.1723  0.1599  0.4386
 1966TIP3    H1 5862   3.700   6.524   4.197 -0.3519 -1.0837  1.9830
 1966TIP3    H2 5863   3.833   6.479   4.253  1.2309  0.9028  0.0189
 1967TIP3   OH2 5864   0.722   3.597   0.900  0.4042 -0.2935  0.4293
 1967TIP3    H1 5865   0.648   3.613   0.842  1.7747  0.7315 -1.1373
 1967TIP3    H2 5866   0.702   3.512   0.941 -0.3542 -1.4058 -2.0324
 1968TIP3   OH2 5867   4.850   2.379   1.032 -0.1998 -0.0478  0.2935
 1968TIP3    H1 5868   4.802   2.304   0.998  0.7808 -0.6956  0.3097
 1968TIP3    H2 5869   4.889   2.348   1.114 -0.7942  0.8584  0.9409
 1969TIP3   OH2 5870   2.988   4.845   2.659 -0.2307 -0.1224  0.2193
 1969TIP3    H1 5871   2.984   4.901   2.737 -0.6441  0.9282 -0.5306
 1969TIP3    H2 5872   2.936   4.768   2.681  0.2934 -0.1899  1.2524
 1970TIP3   OH2 5873   4.744   2.366   2.002  0.1722  0.0896 -0.4477
 1970TIP3    H1 5874   4.704   2.281   1.979 -0.7200  0.8969 -2.1001
 1970TIP3    H2 5875   4.719   2.424   1.930  0.9643  1.7131  0.5287
 1971TIP3   OH2 5876   0.147   2.010   4.436 -0.0730  0.2208  0.1440
 1971TIP3    H1 5877   0.154   1.917   4.414  0.1616  0.2680  0.0209
 1971TIP3    H2 5878   0.112   2.011   4.525  0.0176  0.0127  0.1818
 1972TIP3   OH2 5879   5.900   5.387   0.937  0.0293  0.5429  0.5005
 1972TIP3    H1 5880   5.907   5.464   0.881 -0.0188  0.8120  0.8589
 1972TIP3    H2 5881   5.990   5.354   0.946 -0.0183  0.2498 -0.0753
 1973TIP3   OH2 5882   4.372   2.171   4.367 -0.5938 -0.4046 -0.4131
 1973TIP3    H1 5883   4.379   2.248   4.425  2.5626 -0.0475 -1.1059
 1973TIP3    H2 5884   4.439   2.110   4.400 -0.9119 -1.5282 -1.7796
 1974TIP3   OH2 5885   5.912   5.417   2.206 -0.7122 -0.0781 -0.6813
 1974TIP3    H1 5886   5.848   5.348   2.224  1.7272 -1.9932  1.6137
 1974TIP3    H2 5887   5.982   5.372   2.159  0.0343  1.3406 -0.9752
 1975TIP3   OH2 5888   4.933   2.528   2.463 -0.1361 -0.2316  0.6959
 1975TIP3    H1 5889   4.922   2.436   2.438  2.3554 -0.6778  0.9849
 1975TIP3    H2 5890   4.943   2.574   2.380 -0.2303 -0.3977  0.5917
 1976TIP3   OH2 5891   3.928   2.975   2.449 -0.0725  0.1833  0.0403
 1976TIP3    H1 5892   3.959   3.060   2.477  0.7912  0.0896 -0.5998
 1976TIP3    H2 5893   3.837   2.990   2.423  0.2932  1.0797 -0.7839
 1977TIP3   OH2 5894   6.985   6.771   4.985 -0.0627 -0.3852  0.3141
 1977TIP3    H1 5895   6.956   6.681   4.974  0.4073 -0.5862  0.6720
 1977TIP3    H2 5896   7.010   6.777   5.077  0.7173 -0.1354  0.0964
 1978TIP3   OH2 5897   2.211   1.481   0.642  0.2322 -0.0656  0.1635
 1978TIP3    H1 5898   2.271   1.406   0.642 -0.1160 -0.3760 -1.3238
 1978TIP3    H2 5899   2.269   1.557   0.650  0.5692 -0.4719  1.9752
 1979TIP3   OH2 5900   5.793   6.368   3.232  0.4835 -0.0472 -0.0020
 1979TIP3    H1 5901   5.743   6.428   3.177 -0.0808  1.3687  1.9340
 1979TIP3    H2 5902   5.879   6.409   3.241  0.2001  0.3263  1.0764
 1980TIP3   OH2 5903   5.631   6.697   0.671  0.4892 -0.2242  0.4023
 1980TIP3    H1 5904   5.687   6.689   0.748 -0.6133  0.4377  1.3159
 1980TIP3    H2 5905   5.691   6.700   0.597  1.6374  0.1291  1.3261
 1981TIP3   OH2 5906   5.718   0.888   4.863  0.1129  0.4598  0.4496
 1981TIP3    H1 5907   5.686   0.798   4.870  1.1347  0.1702  1.7974
 1981TIP3    H2 5908   5.674   0.935   4.933  1.5944  0.3517  1.4970
 1982TIP3   OH2 5909   4.373   5.304   4.547  0.0358 -0.1203  0.6116
 1982TIP3    H1 5910   4.444   5.249   4.516 -0.4627 -0.9988  0.9996
 1982TIP3    H2 5911   4.316   5.315   4.470  0.0127 -0.3558  0.5930
 1983TIP3   OH2 5912   2.760   6.311   0.555  0.0265 -0.1406 -0.1239
 1983TIP3    H1 5913   2.763   6.381   0.621 -1.5872 -0.5192  0.3872
 1983TIP3    H2 5914   2.683   6.331   0.502 -0.9902 -1.9616  0.5686
 1984TIP3   OH2 5915   0.054   5.729   4.497 -0.4027  0.0783 -0.0119
 1984TIP3    H1 5916   0.100   5.696   4.574 -2.0418 -2.1318  0.1295
 1984TIP3    H2 5917   0.121   5.736   4.430  0.5710 -0.6389  0.8542
 1985TIP3   OH2 5918   2.396   0.787   1.984  0.6777  0.3699  0.0920
 1985TIP3    H1 5919   2.361   0.702   1.956 -1.2094  1.1825 -0.1714
 1985TIP3    H2 5920   2.427   0.772   2.073  0.4544 -0.6134  0.0175
 1986TIP3   OH2 5921   6.857   2.373   2.162  0.6583  0.1984 -0.5224
 1986TIP3    H1 5922   6.880   2.281   2.151  2.1691  0.3914  0.7492
 1986TIP3    H2 5923   6.805   2.375   2.243  0.9245  0.5032 -0.3569
 1987TIP3   OH2 5924   1.146   0.302   0.686 -0.3168 -0.0863  0.1534
 1987TIP3    H1 5925   1.140   0.272   0.777  0.2213  1.9983  0.9410
 1987TIP3    H2 5926   1.215   0.248   0.647 -0.6035 -1.0565  0.9473
 1988TIP3   OH2 5927   7.183   1.749   4.807  0.0360  0.5137 -0.0177
 1988TIP3    H1 5928   7.096   1.769   4.843  0.3825  0.9205  0.6300
 1988TIP3    H2 5929   7.203   1.661   4.838 -0.4203  0.1573 -0.7236
 1989TIP3   OH2 5930   0.308   0.916   2.655  0.1486  0.3499 -0.5692
 1989TIP3    H1 5931   0.261   0.845   2.611  4.1937 -3.0053 -0.1297
 1989TIP3    H2 5932   0.376   0.941   2.593  1.3820  0.7980  0.9156
 1990TIP3   OH2 5933   4.491   1.990   2.636 -0.0691 -0.2014 -0.0758
 1990TIP3    H1 5934   4.508   1.959   2.725  0.8890  0.7259  0.0770
 1990TIP3    H2 5935   4.492   1.911   2.583 -0.3262 -0.7283  0.6840
 1991TIP3   OH2 5936   6.402   5.072   5.871 -0.9214 -0.2294 -0.6681
 1991TIP3    H1 5937   6.411   5.122   5.790 -1.6103 -1.0842 -1.2964
 1991TIP3    H2 5938   6.358   4.991   5.844  0.0980 -1.1507  0.3313
 1992TIP3   OH2 5939   3.957   5.084   1.037  0.0324  0.1019  0.5216
 1992TIP3    H1 5940   3.907   5.163   1.019 -0.6744 -0.6637 -1.0659
 1992TIP3    H2 5941   3.893   5.021   1.071  0.3060 -0.2260  0.4436
 1993TIP3   OH2 5942   6.071   3.443   3.250  0.3946 -0.1342  0.2846
 1993TIP3    H1 5943   6.132   3.494   3.197  0.9245  0.5191  1.4893
 1993TIP3    H2 5944   5.989   3.445   3.200  0.8450  0.5456 -0.4556
 1994TIP3   OH2 5945   1.888   0.862   4.720 -0.2634  0.2823  0.4931
 1994TIP3    H1 5946   1.889   0.883   4.627  0.5668 -1.9922 -0.0609
 1994TIP3    H2 5947   1.936   0.934   4.761  1.2244  0.2637 -1.1083
 1995TIP3   OH2 5948   5.619   1.908   1.046 -0.2897 -0.0604  0.3774
 1995TIP3    H1 5949   5.600   1.901   1.140 -2.5104  0.3405  0.0189
 1995TIP3    H2 5950   5.602   2.000   1.025  0.7171 -0.0274 -0.3295
 1996TIP3   OH2 5951   2.641   0.165   4.327  0.5959  0.2663 -0.3539
 1996TIP3    H1 5952   2.714   0.150   4.387  0.1781  0.5665  0.2389
 1996TIP3    H2 5953   2.610   0.077   4.305  3.3973 -0.1127 -3.5187
 1997TIP3   OH2 5954   3.568   6.725   0.685  0.0507 -0.5656 -0.4901
 1997TIP3    H1 5955   3.655   6.733   0.725 -0.3869  0.1912  0.3496
 1997TIP3    H2 5956   3.566   6.793   0.617  0.0450 -0.4279 -0.3545
 1998TIP3   OH2 5957   6.811   4.014   0.261 -0.2292 -0.5515  0.3829
 1998TIP3    H1 5958   6.815   4.101   0.221  0.0666 -1.3159 -1.3261
 1998TIP3    H2 5959   6.901   3.983   0.260 -0.1419 -0.4325  2.0894
 1999TIP3   OH2 5960   0.045   4.846   4.756  0.3070  0.1635  0.3106
 1999TIP3    H1 5961  -0.011   4.922   4.771 -1.6921 -1.4925  1.9313
 1999TIP3    H2 5962   0.045   4.834   4.661  0.0163  1.6749  0.0940
 2000TIP3   OH2 5963   6.919   1.728   3.482  0.3235 -0.1706  0.5847
 2000TIP3    H1 5964   6.882   1.706   3.397  0.0796  0.2166  0.5869
 2000TIP3    H2 5965   6.898   1.821   3.494  1.2652  0.0541  0.6020
 2001TIP3   OH2 5966   4.182   4.943   3.856 -0.6044 -0.3977  1.2647
 2001TIP3    H1 5967   4.219   5.018   3.902 -1.1298  0.3859  0.4396
 2001TIP3    H2 5968   4.093   4.936   3.889 -1.6030  1.2788 -0.8259
 2002TIP3   OH2 5969   2.603   0.069   2.515 -0.4900  0.3288  0.5446
 2002TIP3    H1 5970   2.620  -0.023   2.534  0.8620 -0.0725 -2.0485
 2002TIP3    H2 5971   2.534   0.067   2.449  1.0936  0.9282 -1.2502
 2003TIP3   OH2 5972   5.917   4.518   2.963 -0.0494  0.2003 -0.0689
 2003TIP3    H1 5973   5.839   4.549   2.919  0.9494  0.8719 -1.4187
 2003TIP3    H2 5974   5.982   4.506   2.894  0.4781 -2.2727  0.7323
 2004TIP3   OH2 5975   6.318   0.913   2.283  0.1681  0.0383 -0.1071
 2004TIP3    H1 5976   6.367   0.894   2.363 -1.2455 -1.5275  0.4488
 2004TIP3    H2 5977   6.227   0.918   2.313 -0.2397  0.9025 -1.4171
 2005TIP3   OH2 5978   2.529   4.500   2.538 -0.0716  0.0028  0.7303
 2005TIP3    H1 5979   2.568   4.550   2.466 -0.8954 -0.5020 -0.0885
 2005TIP3    H2 5980   2.513   4.564   2.607  0.7079  0.4996  0.4599
 2006TIP3   OH2 5981   5.474   0.591   0.262  0.3556 -0.2681  0.3234
 2006TIP3    H1 5982   5.419   0.609   0.185  0.9968  0.8079  0.0882
 2006TIP3    H2 5983   5.529   0.669   0.270  0.0446 -0.1902  2.1078
 2007TIP3   OH2 5984   6.457   1.571   1.081 -0.4936 -0.6090  0.3455
 2007TIP3    H1 5985   6.546   1.595   1.105  0.3685 -1.3212 -1.9361
 2007TIP3    H2 5986   6.404   1.646   1.110  0.7467 -0.2972  1.9902
 2008TIP3   OH2 5987   1.353   1.800   1.731  0.2480 -0.1717 -0.3615
 2008TIP3    H1 5988   1.418   1.730   1.740  0.9039  0.5171  0.4194
 2008TIP3    H2 5989   1.331   1.801   1.638  1.0358 -0.7027 -0.5618
 2009TIP3   OH2 5990   0.256   6.199   3.242  0.1059 -0.5625 -0.2681
 2009TIP3    H1 5991   0.319   6.136   3.207 -0.4714 -1.8664  0.9385
 2009TIP3    H2 5992   0.268   6.278   3.189  0.3149 -1.9417 -2.3612
 2010TIP3   OH2 5993   5.023   5.584   2.494 -0.0089 -0.1566 -0.3165
 2010TIP3    H1 5994   4.956   5.609   2.430  0.0844 -0.6753 -0.6238
 2010TIP3    H2 5995   5.072   5.514   2.451  1.1833  0.6853 -0.3714
 2011TIP3   OH2 5996   4.873   1.037   4.042 -0.1454  0.2983  0.2792
 2011TIP3    H1 5997   4.847   1.073   3.957 -1.4437 -2.9381 -0.8381
 2011TIP3    H2 5998   4.799   1.056   4.100 -0.5685 -0.0788 -0.1341
 2012TIP3   OH2 5999   2.624   2.100   5.733  0.9773  0.9639 -0.5142
 2012TIP3    H1 6000   2.631   2.196   5.730 -0.9606  1.1303 -1.2824
 2012TIP3    H2 6001   2.644   2.078   5.824 -1.5790  2.4693  0.5414
 2013TIP3   OH2 6002   1.864   4.779   5.065  0.8805  0.2356 -0.1253
 2013TIP3    H1 6003   1.848   4.873   5.062 -0.9720 -0.0853 -2.3563
 2013TIP3    H2 6004   1.779   4.739   5.048  1.4982 -1.9013  1.3357
 2014TIP3   OH2 6005   1.627   4.182   5.302  0.4556 -0.1674 -0.2765
 2014TIP3    H1 6006   1.690   4.186   5.374  1.4279  0.4461 -1.1423
 2014TIP3    H2 6007   1.555   4.130   5.337 -0.5296  2.6012  2.2667
 2015TIP3   OH2 6008   4.911   1.940   5.107  0.0336 -0.9037  0.1289
 2015TIP3    H1 6009   4.931   1.849   5.129  0.7288 -0.5742  0.9177
 2015TIP3    H2 6010   4.911   1.942   5.011 -0.6508 -1.8664  0.0910
 2016TIP3   OH2 6011   7.105   0.105   2.798 -0.3128 -0.5718 -0.5792
 2016TIP3    H1 6012   7.120   0.186   2.749 -2.2486  0.4122  0.3190
 2016TIP3    H2 6013   7.073   0.043   2.733  1.1635 -0.6615 -1.2722
 2017TIP3   OH2 6014   0.920   2.500   0.714  0.5970  0.5229 -0.2072
 2017TIP3    H1 6015   0.838   2.452   0.704 -0.5158  2.3343 -0.3737
 2017TIP3    H2 6016   0.963   2.460   0.790 -0.1995 -0.7570 -0.4017
 2018TIP3   OH2 6017   7.046   1.062   2.310 -0.3217  0.3395  0.5370
 2018TIP3    H1 6018   7.004   1.051   2.224 -0.5840 -0.1562  0.7211
 2018TIP3    H2 6019   7.035   1.155   2.331 -1.9027  0.1072  0.8562
 2019TIP3   OH2 6020   3.799   1.453   2.977 -0.0690 -0.5646 -0.0686
 2019TIP3    H1 6021   3.746   1.514   3.028 -0.1972 -1.0013  0.3322
 2019TIP3    H2 6022   3.746   1.373   2.973  1.1855 -1.5554  1.6880
 2020TIP3   OH2 6023   3.400   4.430   3.086  0.2845  0.0006 -1.0914
 2020TIP3    H1 6024   3.440   4.409   3.002  0.3706  0.5263 -1.1807
 2020TIP3    H2 6025   3.471   4.463   3.140  0.9830 -3.3523  0.3261
 2021TIP3   OH2 6026   7.140   1.582   4.301  0.6745  1.0313 -0.3508
 2021TIP3    H1 6027   7.072   1.641   4.271  3.0342  4.1081 -0.1253
 2021TIP3    H2 6028   7.137   1.589   4.397 -0.6223 -1.3219 -0.1282
 2022TIP3   OH2 6029   6.797   6.392   2.355 -0.5289 -0.7049 -0.1597
 2022TIP3    H1 6030   6.817   6.476   2.397 -0.8091  0.0156 -1.4298
 2022TIP3    H2 6031   6.707   6.373   2.381 -0.3919 -0.7407  0.3107
 2023TIP3   OH2 6032   0.037   1.200   5.568  0.4661 -0.7800  0.1376
 2023TIP3    H1 6033   0.115   1.176   5.617  2.0576 -1.0806 -2.3722
 2023TIP3    H2 6034   0.046   1.155   5.484 -2.2099 -0.4626 -0.4164
 2024TIP3   OH2 6035   6.724   5.654   5.682  0.1656  0.8016  0.4345
 2024TIP3    H1 6036   6.794   5.624   5.741  0.8447  2.0762  0.3103
 2024TIP3    H2 6037   6.712   5.582   5.621 -0.2935 -0.4080  1.8837
 2025TIP3   OH2 6038   3.609   1.983   5.605  0.2369  0.7513 -0.2658
 2025TIP3    H1 6039   3.674   1.929   5.649 -0.3860  0.5355  0.4038
 2025TIP3    H2 6040   3.605   1.949   5.516 -0.6079 -0.7545  0.3085
 2026TIP3   OH2 6041   1.870   5.516   3.271 -0.1708 -0.2800 -0.3116
 2026TIP3    H1 6042   1.893   5.608   3.279  2.0446 -0.8133  0.2165
 2026TIP3    H2 6043   1.857   5.502   3.178  0.2805  0.3960 -0.4839
 2027TIP3   OH2 6044   5.334   0.886   2.869  0.2147  0.3511 -0.2109
 2027TIP3    H1 6045   5.354   0.841   2.787 -2.0212 -0.6498 -0.2705
 2027TIP3    H2 6046   5.331   0.816   2.934 -0.7312  0.7557  0.1914
 2028TIP3   OH2 6047   0.966   0.138   5.093  0.1477 -0.1057  0.0421
 2028TIP3    H1 6048   1.059   0.150   5.070  0.1565 -1.3308 -0.6554
 2028TIP3    H2 6049   0.950   0.045   5.079 -0.9291 -0.1257  1.1888
 2029TIP3   OH2 6050   6.949   5.267   3.669 -0.2389  0.3820 -0.1082
 2029TIP3    H1 6051   6.912   5.353   3.648  0.9649  0.6411 -1.2502
 2029TIP3    H2 6052   6.900   5.206   3.614 -0.8507  0.3708  0.4402
 2030TIP3   OH2 6053   3.378   5.562   1.932  0.8100  0.3262  0.0904
 2030TIP3    H1 6054   3.361   5.618   2.007 -0.2307  1.8766 -1.2254
 2030TIP3    H2 6055   3.311   5.494   1.937  0.3873  0.7463  0.2700
 2031TIP3   OH2 6056   2.026   4.168   0.739  0.0206 -0.2590 -0.0043
 2031TIP3    H1 6057   1.970   4.160   0.661  0.6042 -1.3888 -0.3328
 2031TIP3    H2 6058   2.057   4.259   0.736 -0.8965  0.0598 -0.4294
 2032TIP3   OH2 6059   1.431   3.888   3.127 -0.1107 -0.0339 -0.2852
 2032TIP3    H1 6060   1.363   3.826   3.100  0.4958 -0.0334 -1.9675
 2032TIP3    H2 6061   1.486   3.838   3.188 -0.3728 -0.7558 -0.6256
 2033TIP3   OH2 6062   2.485   5.844   2.459  0.0145  0.5900 -0.1513
 2033TIP3    H1 6063   2.526   5.844   2.546  1.3846  1.6577 -0.7533
 2033TIP3    H2 6064   2.551   5.807   2.401 -0.7310  0.2752 -0.8181
 2034TIP3   OH2 6065   6.656   3.531   0.150  0.6055  0.2322  0.0648
 2034TIP3    H1 6066   6.683   3.488   0.069 -2.7069 -1.3795 -0.3236
 2034TIP3    H2 6067   6.632   3.459   0.208 -1.2714  1.4233  0.8554
 2035TIP3   OH2 6068   1.917   5.788   2.347  0.4645 -0.9769 -0.1198
 2035TIP3    H1 6069   1.875   5.723   2.403 -1.1701  0.6807  0.6644
 2035TIP3    H2 6070   1.979   5.833   2.404 -1.6578  1.1488  0.6693
 2036TIP3   OH2 6071   3.681   3.034   2.369  0.2833 -0.1935 -0.1013
 2036TIP3    H1 6072   3.594   3.024   2.406 -0.4310 -0.9230 -1.8529
 2036TIP3    H2 6073   3.694   2.955   2.316  0.6940  1.2830 -2.3588
 2037TIP3   OH2 6074   3.359   2.797   0.563  0.3848  0.6943  0.1569
 2037TIP3    H1 6075   3.347   2.811   0.469 -0.3634 -0.3832  0.0680
 2037TIP3    H2 6076   3.414   2.718   0.568 -0.4454  0.1279  0.6087
 2038TIP3   OH2 6077   4.784   4.659   4.008  0.2700  0.0507  0.2421
 2038TIP3    H1 6078   4.743   4.574   4.026  0.1713  0.4508  2.1112
 2038TIP3    H2 6079   4.740   4.720   4.067  0.7859  1.3017 -0.6100
 2039TIP3   OH2 6080   0.497   2.684   2.669 -0.2713  0.0877 -0.1599
 2039TIP3    H1 6081   0.484   2.748   2.599 -1.6851  0.5139  0.4481
 2039TIP3    H2 6082   0.409   2.651   2.687 -0.0566  0.5472  1.9287
 2040TIP3   OH2 6083   5.455   5.184   4.769  0.9618 -0.0415 -0.0166
 2040TIP3    H1 6084   5.439   5.119   4.700 -1.4840  2.0494 -1.6098
 2040TIP3    H2 6085   5.516   5.246   4.730  0.4991  0.5167  0.1345
 2041TIP3   OH2 6086   0.414   0.858   4.172 -0.2315 -0.1486  0.3353
 2041TIP3    H1 6087   0.356   0.817   4.108 -0.7755 -0.7641  1.1942
 2041TIP3    H2 6088   0.388   0.821   4.256  1.6717 -0.7456  0.7208
 2042TIP3   OH2 6089   6.659   5.391   0.310 -0.6243 -0.1748 -0.0564
 2042TIP3    H1 6090   6.666   5.474   0.262 -3.3210 -0.0729 -0.4658
 2042TIP3    H2 6091   6.603   5.336   0.254 -0.7766 -1.4283  1.2730
 2043TIP3   OH2 6092   2.351   2.158   4.485 -0.2425 -0.4006 -0.2104
 2043TIP3    H1 6093   2.424   2.116   4.531  0.1451 -0.6987 -1.0810
 2043TIP3    H2 6094   2.291   2.185   4.555  0.0770 -1.3227  0.4301
 2044TIP3   OH2 6095   4.117   6.115   3.025  0.7795  0.2369 -0.6307
 2044TIP3    H1 6096   4.122   6.204   2.988  3.1084  0.5362  0.2493
 2044TIP3    H2 6097   4.024   6.095   3.025  0.1547  2.7634 -0.6885
 2045TIP3   OH2 6098   1.314   4.134   2.587  0.2956 -0.0889 -0.0688
 2045TIP3    H1 6099   1.390   4.172   2.543  0.8484 -1.6594 -0.5038
 2045TIP3    H2 6100   1.336   4.137   2.680  0.8801 -0.5238 -0.1942
 2046TIP3   OH2 6101   5.051   3.594   3.921 -0.1409 -0.4925 -0.2770
 2046TIP3    H1 6102   4.990   3.593   3.847  0.0932  1.5215 -0.5272
 2046TIP3    H2 6103   5.116   3.660   3.899  1.4882 -1.7299  0.5465
 2047TIP3   OH2 6104   0.743   0.808   4.900 -0.1384  0.2114 -0.2972
 2047TIP3    H1 6105   0.694   0.786   4.821  0.8714 -1.9231 -0.3980
 2047TIP3    H2 6106   0.702   0.756   4.969 -0.0306  0.8729  0.2743
 2048TIP3   OH2 6107   2.606   3.090   2.471 -0.2997  0.1316 -0.8546
 2048TIP3    H1 6108   2.602   3.013   2.527  0.0341  0.0500 -0.9370
 2048TIP3    H2 6109   2.547   3.153   2.512 -0.9225 -0.3229 -1.0329
 2049TIP3   OH2 6110   5.176   0.708   5.231 -0.4501  0.1523  0.1259
 2049TIP3    H1 6111   5.272   0.711   5.222 -0.3778  0.4709  0.9201
 2049TIP3    H2 6112   5.153   0.794   5.268 -1.0996  0.2766 -0.5412
 2050TIP3   OH2 6113   1.301   6.134   4.427 -0.1604  0.2201 -0.0900
 2050TIP3    H1 6114   1.237   6.073   4.464  0.8684 -0.8493 -0.0220
 2050TIP3    H2 6115   1.267   6.154   4.340 -0.6427 -0.2453 -0.0164
 2051TIP3   OH2 6116   4.202   1.011   0.775  0.0038  0.2799 -0.1089
 2051TIP3    H1 6117   4.284   1.050   0.806 -0.5254 -0.0646  1.8224
 2051TIP3    H2 6118   4.158   1.083   0.730  0.9789  0.6902 -0.4551
 2052TIP3   OH2 6119   6.730   3.218   0.086  0.6341  0.7045  0.2462
 2052TIP3    H1 6120   6.806   3.160   0.096 -0.5334 -0.6662  1.7194
 2052TIP3    H2 6121   6.706   3.211  -0.006  2.8309  1.9377 -0.5066
 2053TIP3   OH2 6122   1.645   0.914   4.818  0.0703  0.2669  0.5605
 2053TIP3    H1 6123   1.728   0.896   4.774 -0.1827  0.2966  0.0687
 2053TIP3    H2 6124   1.662   0.992   4.871 -0.0981  1.2730 -0.8228
 2054TIP3   OH2 6125   3.436   4.496   1.166 -0.4859 -0.3174  0.1880
 2054TIP3    H1 6126   3.412   4.412   1.127 -0.4753  0.1629 -0.8817
 2054TIP3    H2 6127   3.456   4.553   1.091  3.1009 -0.3841  0.8792
 2055TIP3   OH2 6128   3.173   2.711   4.385  0.4162 -0.2432  0.1435
 2055TIP3    H1 6129   3.207   2.677   4.302  1.9092  1.4701 -0.0284
 2055TIP3    H2 6130   3.199   2.646   4.450  1.5448 -0.3832 -0.4132
 2056TIP3   OH2 6131   2.792   4.897   1.866 -0.1745 -0.0104  0.2972
 2056TIP3    H1 6132   2.785   4.808   1.830  1.2441  0.6235 -1.7230
 2056TIP3    H2 6133   2.818   4.883   1.958 -1.0796 -1.6720  0.3489
 2057TIP3   OH2 6134   2.421   5.463   3.635 -0.4698 -0.2562  0.0494
 2057TIP3    H1 6135   2.512   5.435   3.640 -0.7154 -1.2256 -0.6544
 2057TIP3    H2 6136   2.385   5.416   3.560 -1.2758  0.9302 -0.3437
 2058TIP3   OH2 6137   6.168   2.111   1.760  0.7420  0.5968 -0.1798
 2058TIP3    H1 6138   6.140   2.087   1.672  1.5298 -0.5617 -0.1393
 2058TIP3    H2 6139   6.244   2.169   1.746  2.3649 -1.4421 -0.3198
 2059TIP3   OH2 6140   0.571   1.861   1.643  0.3709  0.1632  0.8706
 2059TIP3    H1 6141   0.618   1.793   1.594  0.3051  0.4183  0.4508
 2059TIP3    H2 6142   0.619   1.942   1.624  0.2442  0.2918  1.0946
 2060TIP3   OH2 6143   6.494   6.307   4.016 -0.2716 -0.1831 -0.2026
 2060TIP3    H1 6144   6.418   6.342   3.970 -0.7773  0.9716  1.4109
 2060TIP3    H2 6145   6.555   6.381   4.022  1.4780 -1.3197 -2.2895
 2061TIP3   OH2 6146   5.163   4.616   2.750  0.5838  0.2923  0.5184
 2061TIP3    H1 6147   5.217   4.647   2.823  0.6743  0.6584  0.2989
 2061TIP3    H2 6148   5.073   4.630   2.779  0.5940 -0.4469  0.9414
 2062TIP3   OH2 6149   6.892   5.406   1.727 -0.7063 -0.1670 -0.1285
 2062TIP3    H1 6150   6.975   5.370   1.698 -0.1536  2.0057 -1.4311
 2062TIP3    H2 6151   6.841   5.329   1.755  1.5009 -1.5884  0.2264
 2063TIP3   OH2 6152   1.453   5.682   2.714  0.0444  0.0327  0.2572
 2063TIP3    H1 6153   1.458   5.588   2.732  0.7297  0.0490  0.1916
 2063TIP3    H2 6154   1.383   5.714   2.770 -1.4344 -0.8269 -1.0227
 2064TIP3   OH2 6155   6.532   1.064   0.941  0.3467 -0.2834 -0.2570
 2064TIP3    H1 6156   6.438   1.065   0.925  0.3472 -0.0049 -0.2516
 2064TIP3    H2 6157   6.548   1.141   0.996  0.6462 -0.0443 -0.6691
 2065TIP3   OH2 6158   3.088   1.621   2.127 -0.3814  0.1718  0.5046
 2065TIP3    H1 6159   3.173   1.622   2.172 -0.5076  0.8192  0.7360
 2065TIP3    H2 6160   3.110   1.616   2.034 -0.0958  0.2409  0.5674
 2066TIP3   OH2 6161   6.757   3.293   5.730  0.3113 -0.2696 -0.0962
 2066TIP3    H1 6162   6.849   3.278   5.709  0.7162  1.0747  0.5917
 2066TIP3    H2 6163   6.711   3.221   5.688  1.6462 -0.8178 -0.6869
 2067TIP3   OH2 6164   0.648   3.307   5.143  0.4823  0.3412 -0.8211
 2067TIP3    H1 6165   0.678   3.387   5.100 -1.6010  1.4641 -0.3176
 2067TIP3    H2 6166   0.555   3.322   5.161  1.1694  0.3433  4.6450
 2068TIP3   OH2 6167   6.267   2.003   0.201  0.8277 -0.2385  0.4808
 2068TIP3    H1 6168   6.290   1.979   0.111 -1.8751  2.1705 -1.0287
 2068TIP3    H2 6169   6.190   1.950   0.221  1.0430 -0.3035  1.1865
 2069TIP3   OH2 6170   5.550   0.411   2.972 -0.3863  0.4737 -0.4374
 2069TIP3    H1 6171   5.601   0.335   2.946  0.1552  1.2047 -1.5831
 2069TIP3    H2 6172   5.460   0.380   2.976 -0.2087 -0.1507 -1.2003
 2070TIP3   OH2 6173   5.416   1.989   5.769  0.2184  0.0063  0.0359
 2070TIP3    H1 6174   5.373   1.968   5.686 -0.9782  1.3754  0.2689
 2070TIP3    H2 6175   5.503   2.020   5.743 -0.4921  1.4046 -0.8321
 2071TIP3   OH2 6176   0.452   2.648   5.295 -0.2591 -0.0361  0.8100
 2071TIP3    H1 6177   0.513   2.574   5.299  0.8553  0.4695 -2.6890
 2071TIP3    H2 6178   0.499   2.720   5.339  2.8327  0.8496 -3.2905
 2072TIP3   OH2 6179   4.083   1.305   4.807 -0.4313 -1.1626 -0.1747
 2072TIP3    H1 6180   4.140   1.248   4.859 -0.7353 -0.5680  0.8533
 2072TIP3    H2 6181   4.017   1.247   4.770 -1.4531 -1.3842  1.8235
 2073TIP3   OH2 6182   6.427   0.552   2.639  0.1143  0.5617 -1.0136
 2073TIP3    H1 6183   6.397   0.479   2.694 -0.5425  1.5185 -0.0702
 2073TIP3    H2 6184   6.357   0.616   2.643  0.5424  1.1280 -2.1044
 2074TIP3   OH2 6185   4.854   3.722   0.385  0.5025  0.5701 -0.2152
 2074TIP3    H1 6186   4.902   3.646   0.418  1.0085  1.6780  1.7165
 2074TIP3    H2 6187   4.922   3.782   0.354  0.1557  0.7014 -0.7523
 2075TIP3   OH2 6188   6.305   1.698   5.206 -0.4162  0.2444  0.2182
 2075TIP3    H1 6189   6.295   1.748   5.288 -1.0079  1.5682 -0.6199
 2075TIP3    H2 6190   6.223   1.651   5.196 -0.2732 -0.0625  0.4698
 2076TIP3   OH2 6191   6.089   5.884   4.642 -0.4561 -0.2046 -0.3243
 2076TIP3    H1 6192   6.152   5.886   4.570  0.3552  0.6485  0.3848
 2076TIP3    H2 6193   6.030   5.957   4.624  1.3983  1.8035  1.2690
 2077TIP3   OH2 6194   6.005   3.564   1.651  0.6503 -0.2781 -0.4968
 2077TIP3    H1 6195   5.963   3.545   1.735  1.1178 -0.4670 -0.3054
 2077TIP3    H2 6196   5.939   3.539   1.585 -0.3085  1.2690 -0.1801
 2078TIP3   OH2 6197   5.798   2.521   3.874  0.4482 -0.5823  0.1469
 2078TIP3    H1 6198   5.752   2.438   3.880  0.4620 -0.5783  0.3127
 2078TIP3    H2 6199   5.870   2.514   3.937  0.5969 -0.5392 -0.0153
 2079TIP3   OH2 6200   5.136   3.079   0.996  0.2933 -0.0434  0.5507
 2079TIP3    H1 6201   5.061   3.064   0.938  1.9901  1.4952 -2.2619
 2079TIP3    H2 6202   5.196   3.007   0.976  1.2061  0.9064 -0.2498
 2080TIP3   OH2 6203   3.880   0.768   4.049  0.4580  0.5934  0.2008
 2080TIP3    H1 6204   3.837   0.847   4.083 -1.0094 -0.6149  1.2706
 2080TIP3    H2 6205   3.808   0.709   4.027  1.5343 -0.9550  0.6573
 2081TIP3   OH2 6206   2.016   2.842   3.167 -0.0746  0.1260  0.6759
 2081TIP3    H1 6207   1.985   2.853   3.077  0.8686 -0.0027  0.3183
 2081TIP3    H2 6208   1.948   2.791   3.210 -0.2129 -0.4262 -0.1687
 2082TIP3   OH2 6209   4.800   6.108   1.967 -0.1946  0.1865  0.6237
 2082TIP3    H1 6210   4.750   6.188   1.980 -0.4122  0.3616 -1.0949
 2082TIP3    H2 6211   4.757   6.044   2.024 -1.8431  0.5634 -0.1350
 2083TIP3   OH2 6212   0.293   6.749   2.269 -0.1011  0.1829  0.3069
 2083TIP3    H1 6213   0.245   6.715   2.345  1.1601 -0.2511  0.9463
 2083TIP3    H2 6214   0.384   6.725   2.286  0.1819 -0.1289 -1.4811
 2084TIP3   OH2 6215   0.425   4.161   4.993  0.5716 -0.2595 -0.1777
 2084TIP3    H1 6216   0.403   4.073   5.023  2.9773 -0.5823  0.8708
 2084TIP3    H2 6217   0.411   4.159   4.899 -0.5603 -1.3730 -0.0046
 2085TIP3   OH2 6218   3.604   4.201   2.033  0.0653 -0.3493 -0.3573
 2085TIP3    H1 6219   3.679   4.238   1.986  0.1306  0.1866  0.1572
 2085TIP3    H2 6220   3.603   4.247   2.117 -1.2644  0.1562 -0.6366
 2086TIP3   OH2 6221   3.211   6.254   0.494 -0.1949  0.3650  0.2612
 2086TIP3    H1 6222   3.288   6.311   0.497 -0.0793  0.8685 -4.3925
 2086TIP3    H2 6223   3.246   6.167   0.478 -0.4271  0.6797 -2.4328
 2087TIP3   OH2 6224   2.299   5.157   1.296  0.2538  0.2301 -0.2489
 2087TIP3    H1 6225   2.369   5.107   1.254  1.0808  0.2549  1.0631
 2087TIP3    H2 6226   2.336   5.243   1.312  0.0785  0.1171  0.8406
 2088TIP3   OH2 6227   2.402   3.451   4.109 -0.5176  0.5923 -0.1955
 2088TIP3    H1 6228   2.489   3.419   4.083 -0.0292  1.8148 -0.1094
 2088TIP3    H2 6229   2.344   3.417   4.041  0.0729  0.0472 -0.4497
 2089TIP3   OH2 6230   0.843   5.916   5.735 -0.3040  0.0001  0.1883
 2089TIP3    H1 6231   0.793   5.888   5.658  0.9627 -0.3446 -0.5283
 2089TIP3    H2 6232   0.789   5.984   5.775 -1.9540 -1.2436  0.1740
 2090TIP3   OH2 6233   6.236   4.157   3.386  0.6513  0.3769  0.3757
 2090TIP3    H1 6234   6.309   4.149   3.324  1.7677  3.4615  1.0864
 2090TIP3    H2 6235   6.169   4.207   3.339 -0.0741 -0.5009  0.4620
 2091TIP3   OH2 6236   0.381   6.742   1.401 -0.4609 -0.5676  0.2814
 2091TIP3    H1 6237   0.468   6.767   1.371 -1.5353  0.9651 -1.8876
 2091TIP3    H2 6238   0.386   6.745   1.496  2.3026 -2.3660  0.2795
 2092TIP3   OH2 6239   1.026   2.537   5.866 -0.3620 -0.0952  0.0117
 2092TIP3    H1 6240   1.119   2.520   5.874 -0.7521 -1.5113  2.8205
 2092TIP3    H2 6241   1.018   2.632   5.864  1.1330  0.0306 -0.4872
 2093TIP3   OH2 6242   1.014   5.857   4.062 -0.3522  0.1335 -0.1390
 2093TIP3    H1 6243   0.924   5.824   4.060 -0.2947 -0.0085 -0.4103
 2093TIP3    H2 6244   1.053   5.825   3.981 -0.6307  1.8157 -0.9897
 2094TIP3   OH2 6245   6.060   5.607   4.318  0.3970  0.1725  0.2310
 2094TIP3    H1 6246   6.067   5.549   4.394 -1.9268 -1.9031 -1.0048
 2094TIP3    H2 6247   6.148   5.607   4.280  1.3006  0.3122  2.2148
 2095TIP3   OH2 6248   2.977   5.826   1.464 -0.2231 -0.2386 -0.4164
 2095TIP3    H1 6249   3.016   5.781   1.539  0.8369  0.4132 -0.5533
 2095TIP3    H2 6250   3.040   5.895   1.442 -0.9668  0.1752 -1.3200
 2096TIP3   OH2 6251   4.319   2.599   3.517 -0.2548 -0.1691 -0.1080
 2096TIP3    H1 6252   4.251   2.532   3.506 -0.9569  0.4805  0.1238
 2096TIP3    H2 6253   4.284   2.676   3.472  0.2476  0.2330  0.1753
 2097TIP3   OH2 6254   1.006   3.233   3.582  0.2218 -0.5716  0.0877
 2097TIP3    H1 6255   1.003   3.172   3.656  2.6120  0.5414  1.2312
 2097TIP3    H2 6256   1.016   3.177   3.505  0.5766 -1.7009  0.9210
 2098TIP3   OH2 6257   1.839   2.765   1.934  0.3633 -0.0401 -0.8381
 2098TIP3    H1 6258   1.842   2.860   1.944  0.7673 -0.2047  0.9369
 2098TIP3    H2 6259   1.911   2.744   1.875 -0.5988  0.8488 -2.3890
 2099TIP3   OH2 6260   3.729   4.569   3.580  0.4907  0.3420  0.5750
 2099TIP3    H1 6261   3.682   4.565   3.497 -0.3712  0.0883  1.0617
 2099TIP3    H2 6262   3.674   4.625   3.635  0.1124 -0.9154  1.5370
 2100TIP3   OH2 6263   3.408   3.158   2.460  0.5857 -0.7014 -0.0346
 2100TIP3    H1 6264   3.375   3.097   2.526  0.7688 -0.0892  0.6278
 2100TIP3    H2 6265   3.329   3.201   2.425  0.6480  1.0554  1.8323
 2101TIP3   OH2 6266   4.013   3.338   4.310  0.0591 -0.4220 -0.0453
 2101TIP3    H1 6267   3.956   3.336   4.233  0.7021  2.6026 -0.7259
 2101TIP3    H2 6268   3.985   3.416   4.358  1.5764 -0.6341  1.2651
 2102TIP3   OH2 6269   2.750   3.350   5.215  0.0725  0.6705  0.5221
 2102TIP3    H1 6270   2.814   3.312   5.155  0.0906  0.8888  0.4035
 2102TIP3    H2 6271   2.676   3.290   5.211  0.2986  0.3765  0.7180
 2103TIP3   OH2 6272   6.172   1.107   5.249 -0.2050 -0.0146 -0.6166
 2103TIP3    H1 6273   6.230   1.120   5.174 -0.6384 -0.4737 -1.0436
 2103TIP3    H2 6274   6.088   1.084   5.210 -1.0720  1.9626 -0.0674
 2104TIP3   OH2 6275   1.618  -0.005   0.556  0.0693  0.4039  0.2367
 2104TIP3    H1 6276   1.696  -0.060   0.572 -0.4334 -0.4900 -0.3077
 2104TIP3    H2 6277   1.652   0.074   0.514  0.5811 -0.4379 -0.9779
 2105TIP3   OH2 6278   0.433   2.865   2.472  0.2830 -0.1425  0.0193
 2105TIP3    H1 6279   0.484   2.899   2.399  0.4798 -0.3360  0.0636
 2105TIP3    H2 6280   0.359   2.819   2.431  0.3711 -0.2167 -0.0576
 2106TIP3   OH2 6281   7.076   3.753   5.076 -0.1221  0.2419 -0.4263
 2106TIP3    H1 6282   7.005   3.694   5.103  0.7857 -0.8211 -0.2760
 2106TIP3    H2 6283   7.091   3.732   4.984 -0.3288  0.8109 -0.5910
 2107TIP3   OH2 6284   1.261   5.714   4.570 -0.5263 -0.1461  0.2248
 2107TIP3    H1 6285   1.281   5.622   4.553  2.0608  0.4675 -0.4507
 2107TIP3    H2 6286   1.204   5.739   4.497  0.2841 -0.7522 -0.6446
 2108TIP3   OH2 6287   1.147   2.205   0.127  0.1170 -0.1807 -0.6826
 2108TIP3    H1 6288   1.075   2.254   0.168  0.2172 -0.3583 -0.2870
 2108TIP3    H2 6289   1.158   2.246   0.041  1.3973  1.7315  0.3050
 2109TIP3   OH2 6290   4.217   1.159   4.529 -0.8473 -0.3619 -0.6473
 2109TIP3    H1 6291   4.130   1.179   4.563 -0.5302  2.2576 -1.2076
 2109TIP3    H2 6292   4.277   1.194   4.595 -0.2548  1.6249 -2.1471
 2110TIP3   OH2 6293   6.674   4.299   5.891  0.2100 -0.1030  0.3018
 2110TIP3    H1 6294   6.700   4.207   5.880 -0.7660 -0.4572  0.8101
 2110TIP3    H2 6295   6.610   4.314   5.821  2.7188  1.2098 -1.9227
 2111TIP3   OH2 6296   3.828   0.191   1.477 -0.1564 -0.2760 -0.2608
 2111TIP3    H1 6297   3.750   0.146   1.447  0.6731 -2.0670  0.1793
 2111TIP3    H2 6298   3.796   0.278   1.505 -2.0856 -1.1784  0.5289
 2112TIP3   OH2 6299   1.410   5.333   0.555 -0.4628  0.4270  0.2617
 2112TIP3    H1 6300   1.489   5.295   0.516 -1.2461  0.1504 -1.1677
 2112TIP3    H2 6301   1.391   5.277   0.630  0.0842 -0.1722 -0.0332
 2113TIP3   OH2 6302   5.264   1.923   0.770  0.0233 -0.1213 -0.0518
 2113TIP3    H1 6303   5.324   1.849   0.780  0.0389 -0.2047 -0.7116
 2113TIP3    H2 6304   5.255   1.934   0.675 -0.4461  0.3456  0.0412
 2114TIP3   OH2 6305   6.034   3.917   0.106 -0.2391  0.4294  0.0523
 2114TIP3    H1 6306   6.092   3.863   0.160 -0.3805 -0.2069 -0.4232
 2114TIP3    H2 6307   5.990   3.975   0.168 -0.2877 -0.1901  0.5980
 2115TIP3   OH2 6308   3.853   6.228   0.183 -0.0178 -0.4687  0.2616
 2115TIP3    H1 6309   3.925   6.179   0.144 -0.3475 -1.3932  0.7916
 2115TIP3    H2 6310   3.793   6.161   0.217 -0.1479  0.2957  1.6116
 2116TIP3   OH2 6311   3.877   4.377   2.074 -0.1214 -0.0689  0.2955
 2116TIP3    H1 6312   3.936   4.452   2.086  0.7380 -0.6622 -0.1556
 2116TIP3    H2 6313   3.845   4.386   1.985 -0.9169  0.3874  0.6213
 2117TIP3   OH2 6314   5.292   4.224   3.107 -0.5709 -0.1447  0.3921
 2117TIP3    H1 6315   5.257   4.300   3.060  1.4507  0.1587 -0.7094
 2117TIP3    H2 6316   5.312   4.258   3.195  0.4248  0.6485 -0.1255
 2118TIP3   OH2 6317   4.368   4.492   0.937 -0.2010  0.3302  0.1333
 2118TIP3    H1 6318   4.284   4.447   0.924 -0.4988  1.3945 -2.1337
 2118TIP3    H2 6319   4.344   4.574   0.980 -0.3672  0.7004 -0.6483
 2119TIP3   OH2 6320   3.333   3.652   4.192 -0.9005 -0.0216 -0.0545
 2119TIP3    H1 6321   3.310   3.629   4.101 -1.2714  2.4714 -0.6595
 2119TIP3    H2 6322   3.340   3.748   4.191  1.1589 -0.0753  2.0920
 2120TIP3   OH2 6323   5.819   0.990   1.107  0.1623 -0.2292  0.5262
 2120TIP3    H1 6324   5.871   1.057   1.064  0.7047  0.2236  1.8368
 2120TIP3    H2 6325   5.883   0.926   1.138 -0.3218 -1.1961 -0.4188
 2121TIP3   OH2 6326   3.192   4.469   1.705 -0.0426 -0.2775 -0.2848
 2121TIP3    H1 6327   3.248   4.435   1.776 -0.4554  2.4064  1.4831
 2121TIP3    H2 6328   3.254   4.507   1.643  0.2376 -0.7453 -0.2990
 2122TIP3   OH2 6329   2.825   2.217   1.616  0.1079  0.0836  0.2474
 2122TIP3    H1 6330   2.814   2.210   1.711 -2.0131  2.3048  0.2585
 2122TIP3    H2 6331   2.908   2.262   1.604  0.6780 -0.7351  0.9895
 2123TIP3   OH2 6332   6.173   6.745   4.183 -0.0103  0.2456  0.2241
 2123TIP3    H1 6333   6.268   6.736   4.191 -0.0567  0.7762  1.7264
 2123TIP3    H2 6334   6.146   6.669   4.131  0.9992 -1.1761  1.6608
 2124TIP3   OH2 6335   2.825   6.581   2.096  0.3410 -0.1302  0.4619
 2124TIP3    H1 6336   2.919   6.564   2.087  0.5020  1.3387 -1.0167
 2124TIP3    H2 6337   2.783   6.500   2.066  1.1232 -0.1490 -0.6160
 2125TIP3   OH2 6338   2.460   6.019   5.420  1.2511  0.4890 -0.3151
 2125TIP3    H1 6339   2.455   6.074   5.342 -0.3662  1.5626  0.4704
 2125TIP3    H2 6340   2.518   5.947   5.396  2.8821  2.1340 -1.6409
 2126TIP3   OH2 6341   6.800   5.845   1.042 -0.2346 -0.2413 -0.1895
 2126TIP3    H1 6342   6.738   5.838   0.970 -0.9211 -0.5154  0.4102
 2126TIP3    H2 6343   6.828   5.936   1.041  0.3207 -0.4177 -1.2488
 2127TIP3   OH2 6344   3.187   1.524   2.977 -0.0349  0.0287 -0.2883
 2127TIP3    H1 6345   3.276   1.515   2.943  0.0530 -0.2770  0.0181
 2127TIP3    H2 6346   3.132   1.530   2.899  0.2066 -0.2577 -0.4828
 2128TIP3   OH2 6347   4.251   0.900   4.451 -0.7352  0.0562 -0.3919
 2128TIP3    H1 6348   4.326   0.863   4.497  0.3065  1.3698 -0.9659
 2128TIP3    H2 6349   4.239   0.987   4.490 -1.8224 -0.0560 -0.4543
 2129TIP3   OH2 6350   2.924   0.518   2.687 -0.3062 -0.1053 -1.0919
 2129TIP3    H1 6351   3.001   0.525   2.631 -0.8540 -0.2282 -1.8779
 2129TIP3    H2 6352   2.850   0.529   2.628 -0.8914  0.9923 -0.1986
 2130TIP3   OH2 6353   6.596   3.407   4.232 -0.1181  0.6052 -0.3987
 2130TIP3    H1 6354   6.613   3.318   4.201 -2.7494  0.1589 -0.8684
 2130TIP3    H2 6355   6.641   3.463   4.169  0.2761 -0.3817 -1.0363
 2131TIP3   OH2 6356   3.536   0.321   1.999 -0.0485 -0.0687  0.7934
 2131TIP3    H1 6357   3.467   0.300   2.061  0.6187 -0.5047  1.4096
 2131TIP3    H2 6358   3.617   0.318   2.051  0.2044  3.4264  0.8125
 2132TIP3   OH2 6359   3.169   3.547   0.519 -0.4571  0.3664  0.2169
 2132TIP3    H1 6360   3.124   3.616   0.471 -0.8292  0.1091  0.1891
 2132TIP3    H2 6361   3.110   3.525   0.591 -1.0354 -0.9289 -0.6148
 2133TIP3   OH2 6362   4.902   2.660   4.044  0.2875 -0.0931 -0.3664
 2133TIP3    H1 6363   4.938   2.705   3.968  1.2154 -1.1565 -0.5899
 2133TIP3    H2 6364   4.861   2.581   4.009 -1.4257  0.5880  0.0070
 2134TIP3   OH2 6365   6.539   0.622   4.864 -0.3203  0.3162  0.1643
 2134TIP3    H1 6366   6.489   0.613   4.783 -2.3372  2.7937  1.0108
 2134TIP3    H2 6367   6.631   0.618   4.837 -0.8137 -3.1717 -1.6227
 2135TIP3   OH2 6368   2.731   3.238   4.326  0.0123 -1.1461 -0.3790
 2135TIP3    H1 6369   2.650   3.220   4.373 -0.5228  1.0507 -0.3458
 2135TIP3    H2 6370   2.702   3.264   4.238  0.3858  2.1011  0.3303
 2136TIP3   OH2 6371   6.738   1.507   5.231  0.3034 -0.5497 -0.9016
 2136TIP3    H1 6372   6.693   1.535   5.311  2.0892  1.0959 -0.3926
 2136TIP3    H2 6373   6.748   1.413   5.240 -1.1456 -0.6401 -0.0662
 2137TIP3   OH2 6374   1.623   0.112   1.963  0.3277 -0.3582 -0.0330
 2137TIP3    H1 6375   1.611   0.057   2.040 -0.1611 -1.3011 -0.7529
 2137TIP3    H2 6376   1.535   0.141   1.940  0.2100 -1.6096 -1.2963
 2138TIP3   OH2 6377   0.814   1.804   5.625  0.2089 -0.3387 -0.5361
 2138TIP3    H1 6378   0.838   1.724   5.673 -0.8767 -0.8081 -0.7575
 2138TIP3    H2 6379   0.878   1.869   5.654  0.9304 -1.2080 -0.1309
 2139TIP3   OH2 6380   1.427   5.969   5.266 -0.0323 -0.0261  0.1817
 2139TIP3    H1 6381   1.506   5.916   5.266  1.3102  1.8630 -0.8347
 2139TIP3    H2 6382   1.385   5.950   5.182  1.0448  1.2554 -0.6994
 2140TIP3   OH2 6383   6.382   6.511   4.380  0.7106  0.2629  0.4458
 2140TIP3    H1 6384   6.408   6.568   4.308  1.7607  0.3702  0.8823
 2140TIP3    H2 6385   6.422   6.550   4.457  0.4825 -0.4309  0.9289
 2141TIP3   OH2 6386   2.983   3.513   0.742 -0.1127  0.3073  0.0315
 2141TIP3    H1 6387   2.915   3.508   0.676  0.3775 -0.6076 -0.4192
 2141TIP3    H2 6388   2.953   3.457   0.813  0.7179 -1.1224 -0.7014
 2142TIP3   OH2 6389   6.326   6.232   0.104 -0.6148  0.4348 -0.6707
 2142TIP3    H1 6390   6.236   6.206   0.083 -1.0849  0.3542  1.2139
 2142TIP3    H2 6391   6.373   6.150   0.114 -0.6437  0.4383 -0.4900
 2143TIP3   OH2 6392   3.209   5.790   4.389  0.3215  0.2260 -0.1003
 2143TIP3    H1 6393   3.167   5.775   4.304  0.7861  1.4707 -0.5693
 2143TIP3    H2 6394   3.165   5.868   4.424  1.5233  0.9403 -0.1351
 2144TIP3   OH2 6395   1.055   3.195   2.971  0.2005  0.0710  0.4006
 2144TIP3    H1 6396   1.026   3.269   2.918 -0.3505 -0.8175 -0.5672
 2144TIP3    H2 6397   1.140   3.222   3.006 -0.5448  1.6327  1.0576
 2145TIP3   OH2 6398   5.634   6.186   3.718 -0.3320  0.0848  0.4096
 2145TIP3    H1 6399   5.562   6.234   3.678  0.9491  0.0749 -2.0882
 2145TIP3    H2 6400   5.597   6.101   3.740 -0.8697 -0.3790 -1.9741
 2146TIP3   OH2 6401   5.383   1.090   2.639 -0.2849 -0.2459  0.2899
 2146TIP3    H1 6402   5.463   1.041   2.624  0.4470  1.3319 -1.3491
 2146TIP3    H2 6403   5.412   1.181   2.649 -1.8599  0.4494 -0.9236
 2147TIP3   OH2 6404   5.652   5.794   2.171  0.3970  0.0409  0.0205
 2147TIP3    H1 6405   5.641   5.887   2.149  0.7621  0.4721  1.4809
 2147TIP3    H2 6406   5.741   5.774   2.145 -0.3865 -0.5891 -2.4228
 2148TIP3   OH2 6407   3.036   1.206   0.503  0.3035 -0.8945 -0.7493
 2148TIP3    H1 6408   3.075   1.131   0.459  0.9692 -0.4470 -0.9268
 2148TIP3    H2 6409   2.973   1.241   0.439  1.3474 -0.1776 -1.4030
 2149TIP3   OH2 6410   2.259   6.243   2.144 -0.1752 -0.7219  0.2252
 2149TIP3    H1 6411   2.205   6.165   2.130 -0.4580 -0.1787 -2.1107
 2149TIP3    H2 6412   2.197   6.310   2.174  0.0605 -1.3363  2.1847
 2150TIP3   OH2 6413   4.462   0.839   4.609  0.3338 -0.0295  0.8125
 2150TIP3    H1 6414   4.490   0.922   4.648  0.7191  0.1230  0.2207
 2150TIP3    H2 6415   4.519   0.773   4.650  0.6345  0.1094  0.6221
 2151TIP3   OH2 6416   7.138   3.944   4.620  0.3967 -0.1639 -0.7045
 2151TIP3    H1 6417   7.147   3.939   4.525  0.0579 -0.9802 -0.6953
 2151TIP3    H2 6418   7.206   3.886   4.655 -1.8500 -2.9298 -0.5576
 2152TIP3   OH2 6419   6.575   0.072   5.533  0.1585  0.2037  0.3370
 2152TIP3    H1 6420   6.641   0.019   5.489  0.2845  0.7256 -0.1032
 2152TIP3    H2 6421   6.528   0.010   5.589  1.3606 -0.0800  1.0658
 2153TIP3   OH2 6422   3.353   3.693   3.023  0.0689  0.1967 -0.1623
 2153TIP3    H1 6423   3.301   3.772   3.039  1.4121  0.7124  1.9246
 2153TIP3    H2 6424   3.300   3.622   3.060 -1.7138 -0.1858 -3.1040
 2154TIP3   OH2 6425   3.539   2.219   3.145 -0.1350  0.0731 -0.0938
 2154TIP3    H1 6426   3.604   2.278   3.107  0.6818 -0.1828  0.8646
 2154TIP3    H2 6427   3.530   2.148   3.081 -1.8940  1.6861 -1.7593
 2155TIP3   OH2 6428   0.947   4.017   0.037  0.4211  0.5105 -0.3384
 2155TIP3    H1 6429   0.915   3.947  -0.020  0.0095  1.2210 -1.0039
 2155TIP3    H2 6430   0.917   3.991   0.125  0.9528 -0.5301 -0.4485
 2156TIP3   OH2 6431   0.940   5.483   5.471 -0.4299  0.1571  0.5898
 2156TIP3    H1 6432   0.893   5.466   5.389  0.0870  0.5954  0.1954
 2156TIP3    H2 6433   0.908   5.416   5.531  2.1114 -2.8216 -1.1071
 2157TIP3   OH2 6434   3.623   2.834   5.191  0.2896  0.1246  0.3300
 2157TIP3    H1 6435   3.673   2.916   5.190  2.6126 -1.1802  0.3252
 2157TIP3    H2 6436   3.599   2.819   5.100  1.1760  0.0827  0.0932
 2158TIP3   OH2 6437   3.381   6.104   4.773  0.3616  0.1386 -0.2209
 2158TIP3    H1 6438   3.384   6.034   4.708  2.6761 -0.1149  0.0811
 2158TIP3    H2 6439   3.396   6.061   4.857  0.3060  0.8172  0.1502
 2159TIP3   OH2 6440   7.216  -0.025   1.157  0.1843 -0.0808 -0.4325
 2159TIP3    H1 6441   7.221   0.050   1.098  1.2499 -0.1151 -0.3933
 2159TIP3    H2 6442   7.129  -0.019   1.196  0.5784  1.6615  0.2596
 2160TIP3   OH2 6443   0.520   1.746   4.835  0.4616 -0.1210  0.0239
 2160TIP3    H1 6444   0.609   1.779   4.842  1.4526 -2.8019  1.4565
 2160TIP3    H2 6445   0.509   1.728   4.742  1.5019  0.0158 -0.1388
 2161TIP3   OH2 6446   4.739   0.191   1.008  0.3694  0.0258 -0.0135
 2161TIP3    H1 6447   4.682   0.123   1.043  0.6383  0.8515  2.1475
 2161TIP3    H2 6448   4.700   0.273   1.038  2.0594  0.6557  0.5721
 2162TIP3   OH2 6449   5.867   1.131   4.037 -0.4267  0.3440  0.0406
 2162TIP3    H1 6450   5.883   1.225   4.036 -2.7930  0.8131 -0.2039
 2162TIP3    H2 6451   5.828   1.113   3.952 -0.7804 -0.7052  0.4172
 2163TIP3   OH2 6452   2.930   4.892   4.215 -0.7070 -0.3935  0.6366
 2163TIP3    H1 6453   2.910   4.823   4.278  1.3000 -0.1657  1.6261
 2163TIP3    H2 6454   2.945   4.970   4.269  1.3416 -0.2506 -0.0458
 2164TIP3   OH2 6455   0.162   4.688   2.410 -0.5478 -0.3829  0.2856
 2164TIP3    H1 6456   0.142   4.681   2.316 -2.6091  0.3736  0.6026
 2164TIP3    H2 6457   0.099   4.628   2.451  0.3308 -0.6918  1.2021
 2165TIP3   OH2 6458   1.190   2.950   1.181  0.0115  0.5977  0.7163
 2165TIP3    H1 6459   1.217   3.042   1.186 -0.2490  0.6272  2.0687
 2165TIP3    H2 6460   1.271   2.901   1.174  0.1559  0.9216  0.0675
 2166TIP3   OH2 6461   0.045   3.861   3.221  0.1147 -0.6212  0.1038
 2166TIP3    H1 6462  -0.050   3.864   3.233  0.0705 -1.7553  0.1405
 2166TIP3    H2 6463   0.057   3.819   3.135  0.5847 -0.0822 -0.1052
 2167TIP3   OH2 6464   7.154   5.234   0.909  0.3651 -0.4946  0.1400
 2167TIP3    H1 6465   7.206   5.300   0.954 -0.5816 -1.2957  2.5521
 2167TIP3    H2 6466   7.155   5.158   0.967 -1.9457 -1.1788 -0.5784
 2168TIP3   OH2 6467   4.692   0.165   1.616  0.2348  0.0936 -0.0914
 2168TIP3    H1 6468   4.754   0.201   1.552 -0.1621  1.2387  0.1374
 2168TIP3    H2 6469   4.648   0.242   1.652 -2.0258 -0.7124 -0.9653
 2169TIP3   OH2 6470   3.081   4.125   1.073 -0.3587  0.0886 -0.5189
 2169TIP3    H1 6471   3.114   4.036   1.069 -0.1894  0.1632 -0.9092
 2169TIP3    H2 6472   3.084   4.155   0.982  0.5536  0.8391 -0.2579
 2170TIP3   OH2 6473   3.213   4.730   0.985  0.1278  0.3814 -0.1088
 2170TIP3    H1 6474   3.260   4.713   0.904 -0.1373  1.1434 -0.4267
 2170TIP3    H2 6475   3.267   4.794   1.031  0.7858 -0.7737  0.7799
 2171TIP3   OH2 6476   2.965   5.808   3.714  0.4027  1.0910  0.3784
 2171TIP3    H1 6477   2.901   5.877   3.729 -1.2638 -0.3103  0.0237
 2171TIP3    H2 6478   2.952   5.747   3.787  0.2527  0.0312 -0.5060
 2172TIP3   OH2 6479   0.966   0.413   4.054  0.3252  0.1173 -0.4042
 2172TIP3    H1 6480   0.975   0.477   4.125 -0.8157  2.9295 -2.5812
 2172TIP3    H2 6481   0.878   0.377   4.066  0.8302 -0.8523  0.6140
 2173TIP3   OH2 6482   6.758   0.675   2.729 -0.6942  0.0431 -0.3515
 2173TIP3    H1 6483   6.829   0.731   2.761 -0.4582  0.6376 -1.8322
 2173TIP3    H2 6484   6.750   0.606   2.795  1.0191  0.1721  0.0486
 2174TIP3   OH2 6485   5.698   1.557   5.553 -0.1263 -0.3373  0.1359
 2174TIP3    H1 6486   5.695   1.547   5.649 -0.3925  0.5250  0.2298
 2174TIP3    H2 6487   5.771   1.502   5.525  0.4664  0.0234  0.9253
 2175TIP3   OH2 6488   0.612   6.560   1.639  0.0036  0.1304  0.4474
 2175TIP3    H1 6489   0.523   6.582   1.665 -0.5471 -1.1976 -0.2396
 2175TIP3    H2 6490   0.605   6.475   1.596  1.5921  0.0338  0.3007
 2176TIP3   OH2 6491   5.876   2.985   3.815  0.4841 -0.7173 -0.4575
 2176TIP3    H1 6492   5.960   3.031   3.814  0.5476 -0.7895  0.5517
 2176TIP3    H2 6493   5.892   2.904   3.767  0.7036 -0.2592 -1.1731
 2177TIP3   OH2 6494   3.644   6.500   1.821  0.1887 -0.0046 -0.4102
 2177TIP3    H1 6495   3.672   6.410   1.803  1.5906  0.0440  1.2539
 2177TIP3    H2 6496   3.710   6.555   1.777 -0.8851  0.2768 -1.7679
 2178TIP3   OH2 6497   1.189   3.243   2.263 -0.7359 -0.0871  0.4515
 2178TIP3    H1 6498   1.215   3.178   2.328 -0.5812 -1.0214 -0.5296
 2178TIP3    H2 6499   1.128   3.197   2.206 -0.5555  0.6015 -0.3099
 2179TIP3   OH2 6500   2.792   1.743   4.928 -0.3807 -0.1819  0.7301
 2179TIP3    H1 6501   2.697   1.751   4.931 -0.5136 -1.5602  1.4365
 2179TIP3    H2 6502   2.819   1.744   5.020  0.1992 -0.4926  0.5715
 2180TIP3   OH2 6503   5.145   1.181   3.487 -0.0737  0.1542  0.0097
 2180TIP3    H1 6504   5.203   1.166   3.562 -0.5536  1.6721  0.7268
 2180TIP3    H2 6505   5.161   1.107   3.429  2.7775  0.6161  0.0633
 2181TIP3   OH2 6506   2.376   1.312   2.813 -0.2040  0.3559  0.1881
 2181TIP3    H1 6507   2.349   1.333   2.724  0.7507  3.4861  0.5243
 2181TIP3    H2 6508   2.294   1.293   2.859 -0.7722 -0.4310 -1.0916
 2182TIP3   OH2 6509   6.878   0.904   4.500 -0.3509  0.6678  0.0795
 2182TIP3    H1 6510   6.921   0.818   4.506 -0.0011  0.8398  0.0745
 2182TIP3    H2 6511   6.818   0.905   4.574  0.3835  0.8179  0.6887
 2183TIP3   OH2 6512   5.094   2.965   5.603  0.8551 -0.2115 -0.5409
 2183TIP3    H1 6513   5.109   3.003   5.516  0.9927  0.1479 -0.3626
 2183TIP3    H2 6514   5.182   2.960   5.642  0.7195  0.2531 -0.1673
 2184TIP3   OH2 6515   2.427   1.593   2.557  0.1844 -0.1796 -0.4343
 2184TIP3    H1 6516   2.344   1.549   2.575  1.0479 -0.8639  2.4064
 2184TIP3    H2 6517   2.450   1.636   2.640  2.1369  0.9353 -1.4727
 2185TIP3   OH2 6518   0.023   0.610   2.921 -0.8040 -0.7380  0.0437
 2185TIP3    H1 6519   0.108   0.653   2.928 -0.2884 -1.5291 -1.1346
 2185TIP3    H2 6520  -0.035   0.678   2.888 -0.6192 -0.2293  0.7335
 2186TIP3   OH2 6521   2.496   6.621   5.018 -0.0263 -0.6326 -0.1510
 2186TIP3    H1 6522   2.404   6.620   5.045  0.3462  0.5735  1.2906
 2186TIP3    H2 6523   2.537   6.555   5.074  0.8198  2.1315  2.8170
 2187TIP3   OH2 6524   1.493   0.924   5.176  0.0794  0.0192 -0.0708
 2187TIP3    H1 6525   1.573   0.972   5.159 -0.9225  2.1045  0.8008
 2187TIP3    H2 6526   1.461   0.899   5.089  1.7873 -1.1607 -0.4125
 2188TIP3   OH2 6527   6.083   0.553   3.794 -0.2345 -0.6308  0.0297
 2188TIP3    H1 6528   6.110   0.641   3.819  1.2197 -0.6350 -1.3019
 2188TIP3    H2 6529   6.130   0.495   3.853  0.4390 -0.5477 -0.4116
 2189TIP3   OH2 6530   5.918   2.901   5.446 -0.3313 -0.0656  0.3135
 2189TIP3    H1 6531   5.950   2.841   5.378  0.7490  0.2375  0.5474
 2189TIP3    H2 6532   5.952   2.865   5.528 -0.7154  0.1829  0.5843
 2190TIP3   OH2 6533   3.622   5.227   0.493  0.1255  0.0460  0.0115
 2190TIP3    H1 6534   3.711   5.194   0.478  0.7728  1.6213  0.1653
 2190TIP3    H2 6535   3.618   5.242   0.588 -0.3408 -0.1089  0.0194
 2191TIP3   OH2 6536   5.295   5.491   4.348 -0.1740  0.2781  0.4968
 2191TIP3    H1 6537   5.284   5.478   4.254 -0.1995  1.4032  0.3314
 2191TIP3    H2 6538   5.219   5.542   4.375 -1.4453 -2.0206  1.6162
 2192TIP3   OH2 6539   5.232   0.585   3.929  0.3375  0.4042  0.2590
 2192TIP3    H1 6540   5.145   0.577   3.969  0.4502 -0.1792  0.3927
 2192TIP3    H2 6541   5.238   0.509   3.871  0.1953  1.2021 -0.8344
 2193TIP3   OH2 6542   3.299   3.752   5.002 -0.0686 -0.2547  0.0116
 2193TIP3    H1 6543   3.292   3.657   4.991 -0.9901 -0.0038 -2.0670
 2193TIP3    H2 6544   3.332   3.783   4.918  0.9827  1.2194  0.9356
 2194TIP3   OH2 6545   0.180   5.629   4.714  0.3391 -0.3716 -0.1854
 2194TIP3    H1 6546   0.272   5.633   4.740  0.3968 -2.3773  0.0646
 2194TIP3    H2 6547   0.173   5.547   4.665 -1.1315  0.2081 -0.9879
 2195TIP3   OH2 6548   3.303   1.223   5.703  0.2384  0.2060 -0.1169
 2195TIP3    H1 6549   3.235   1.161   5.678 -0.1550  0.6516 -0.1694
 2195TIP3    H2 6550   3.384   1.173   5.697 -0.1110 -0.4318  0.2823
 2196TIP3   OH2 6551   5.760   5.792   0.596 -0.6305 -0.4626 -0.2251
 2196TIP3    H1 6552   5.771   5.857   0.528  0.4616  0.8516  1.1391
 2196TIP3    H2 6553   5.728   5.714   0.550 -1.3948  0.8229 -1.9784
 2197TIP3   OH2 6554   4.095   1.838   3.900 -0.0324  0.2206 -0.0913
 2197TIP3    H1 6555   4.085   1.790   3.982  0.0146 -0.1750 -0.3199
 2197TIP3    H2 6556   4.184   1.871   3.902  0.2254 -0.4521 -0.3426
 2198TIP3   OH2 6557   4.164   0.384   0.094  0.2990  0.0979  0.9877
 2198TIP3    H1 6558   4.222   0.436   0.039 -0.8909  2.0877  1.5240
 2198TIP3    H2 6559   4.079   0.386   0.049 -0.1986  0.1170  1.9005
 2199TIP3   OH2 6560   4.074   3.254   1.784  0.0944 -0.7153 -0.3220
 2199TIP3    H1 6561   4.147   3.217   1.833  0.2833  1.2124  0.9426
 2199TIP3    H2 6562   3.997   3.205   1.814  0.1633  0.5821  2.1537
 2200TIP3   OH2 6563   7.058   4.692   2.780  0.3651 -0.2930  0.2266
 2200TIP3    H1 6564   7.102   4.772   2.751  0.2926 -0.5674 -0.6874
 2200TIP3    H2 6565   7.127   4.638   2.818  0.4335  0.1583  0.7463
 2201TIP3   OH2 6566   5.991   1.032   4.277 -0.0013 -0.4713 -0.0377
 2201TIP3    H1 6567   5.939   1.068   4.206 -0.6173 -0.8575  0.2008
 2201TIP3    H2 6568   5.954   0.945   4.292  0.9156 -0.8774 -0.0594
 2202TIP3   OH2 6569   3.022   1.083   1.895 -0.1114 -0.5278  0.1121
 2202TIP3    H1 6570   3.111   1.062   1.867 -0.1850 -1.1932  0.3731
 2202TIP3    H2 6571   2.974   1.001   1.889 -0.4854 -0.3722  0.8332
 2203TIP3   OH2 6572   3.851   4.521   5.056 -0.9532  0.3137 -0.1039
 2203TIP3    H1 6573   3.809   4.438   5.032  0.3367 -0.6006  0.6683
 2203TIP3    H2 6574   3.868   4.513   5.150 -1.2311  1.6648  0.0812
 2204TIP3   OH2 6575   4.948   0.090   3.461  0.0338  0.0232  0.1419
 2204TIP3    H1 6576   4.925   0.016   3.517 -0.2313 -1.3852 -1.7058
 2204TIP3    H2 6577   4.865   0.119   3.423  0.3117  0.3332 -0.2399
 2205TIP3   OH2 6578   0.113   3.452   0.139 -0.3648  0.8738  0.4638
 2205TIP3    H1 6579   0.060   3.500   0.203 -2.2600 -0.4788 -0.0220
 2205TIP3    H2 6580   0.062   3.453   0.059 -1.0871 -2.8440  0.7075
 2206TIP3   OH2 6581   1.473   2.503   3.540  0.0037  0.1626  0.4256
 2206TIP3    H1 6582   1.380   2.523   3.552 -0.2946 -1.3769  0.9314
 2206TIP3    H2 6583   1.518   2.558   3.604 -0.6510  0.1972  0.8667
 2207TIP3   OH2 6584   0.590   3.319   3.085 -0.4535 -0.0143 -0.4626
 2207TIP3    H1 6585   0.514   3.332   3.029  0.6494 -0.4489 -2.1417
 2207TIP3    H2 6586   0.608   3.225   3.080 -0.3690 -0.0743  0.6889
 2208TIP3   OH2 6587   3.910   5.897   1.776 -0.4907  0.7374  0.1254
 2208TIP3    H1 6588   3.917   5.808   1.811 -0.2945  0.2497 -1.0947
 2208TIP3    H2 6589   3.847   5.889   1.704  0.8227  1.1917 -1.1197
 2209TIP3   OH2 6590   3.342   0.066   2.741  0.3090 -0.3148  0.0806
 2209TIP3    H1 6591   3.266   0.081   2.798 -0.6777 -0.5042 -1.1384
 2209TIP3    H2 6592   3.349   0.146   2.689  0.5737 -0.5425 -0.2351
 2210TIP3   OH2 6593   6.003   5.730   0.240  0.1777  0.0778 -0.3120
 2210TIP3    H1 6594   6.034   5.653   0.191 -2.8687 -1.4057 -0.1486
 2210TIP3    H2 6595   5.908   5.719   0.245 -0.2099  3.0102  1.2577
 2211TIP3   OH2 6596   0.384   3.732   5.674  0.0070 -0.0894  0.4036
 2211TIP3    H1 6597   0.478   3.720   5.655  0.2811  0.6931  1.1912
 2211TIP3    H2 6598   0.368   3.677   5.751 -0.5609 -1.4258 -0.6250
 2212TIP3   OH2 6599   2.670   3.842   3.415  0.5934  0.3951 -0.5901
 2212TIP3    H1 6600   2.719   3.798   3.484  0.6225 -0.5223 -1.1785
 2212TIP3    H2 6601   2.618   3.908   3.461  0.6810 -0.1381  0.2991
 2213TIP3   OH2 6602   0.285   0.715   1.322 -0.2818  0.4059  0.2171
 2213TIP3    H1 6603   0.297   0.675   1.235 -0.1231  0.7447  0.0832
 2213TIP3    H2 6604   0.204   0.676   1.355  0.7437 -1.3289  0.8036
 2214TIP3   OH2 6605   6.636   4.989   3.319  0.2293  0.3158  0.1483
 2214TIP3    H1 6606   6.652   5.068   3.266 -1.0634 -1.2543 -2.8368
 2214TIP3    H2 6607   6.542   4.975   3.312  0.6681 -2.6460 -1.3490
 2215TIP3   OH2 6608   4.401   5.446   5.089 -0.2320 -0.0469 -0.1280
 2215TIP3    H1 6609   4.313   5.434   5.125 -0.3743  0.0570 -0.4350
 2215TIP3    H2 6610   4.423   5.361   5.051 -0.3455  0.0242 -0.3591
 2216TIP3   OH2 6611   1.086   0.158   3.254  0.0038 -0.0952  0.3322
 2216TIP3    H1 6612   1.144   0.132   3.326 -2.1631  0.6531  2.4880
 2216TIP3    H2 6613   0.998   0.149   3.289 -1.2080 -0.2288 -2.4781
 2217TIP3   OH2 6614   3.418   2.316   3.518 -0.0027 -0.1694 -0.5374
 2217TIP3    H1 6615   3.365   2.297   3.595  0.8831  1.2366  0.4727
 2217TIP3    H2 6616   3.399   2.407   3.498  0.5702 -0.2162 -1.3400
 2218TIP3   OH2 6617   3.517   1.544   4.879 -0.4911 -0.5853 -0.2774
 2218TIP3    H1 6618   3.460   1.492   4.936 -0.8343 -0.7070 -0.7217
 2218TIP3    H2 6619   3.574   1.592   4.939 -2.0634  0.7099  0.2601
 2219TIP3   OH2 6620   4.059   2.366   0.147  0.1387 -0.1442 -0.0319
 2219TIP3    H1 6621   3.986   2.350   0.088  0.0556 -0.7663  0.2326
 2219TIP3    H2 6622   4.136   2.368   0.091  0.0711 -0.8158 -0.1547
 2220TIP3   OH2 6623   0.239   1.447   4.796  0.3318  0.0745 -0.3130
 2220TIP3    H1 6624   0.334   1.461   4.786  0.6093 -0.4997  1.2703
 2220TIP3    H2 6625   0.216   1.387   4.725  1.7220 -1.9854  0.8720
 2221TIP3   OH2 6626   0.060   3.817   0.059 -0.1727  0.5741 -0.1571
 2221TIP3    H1 6627   0.140   3.869   0.066  0.1346  0.0250  0.5720
 2221TIP3    H2 6628   0.070   3.769  -0.024 -0.8958  2.3446 -1.3240
 2222TIP3   OH2 6629   6.415   3.599   1.412  0.3016  0.7204 -0.4012
 2222TIP3    H1 6630   6.498   3.551   1.412  0.5971  1.2191 -0.8978
 2222TIP3    H2 6631   6.363   3.556   1.480  0.6884 -0.0712 -0.5916
 2223TIP3   OH2 6632   2.998   2.152   3.824 -0.2959  0.0800  0.3675
 2223TIP3    H1 6633   3.052   2.075   3.839  2.3608  1.4979 -1.1832
 2223TIP3    H2 6634   2.926   2.143   3.886 -0.6514 -4.0643 -0.3813
 2224TIP3   OH2 6635   2.641   2.907   5.492 -0.0785 -0.2432 -0.3635
 2224TIP3    H1 6636   2.733   2.892   5.511 -0.5132 -2.0901  0.5130
 2224TIP3    H2 6637   2.626   2.998   5.520  1.6170  0.3503 -1.2619
 2225TIP3   OH2 6638   3.564   1.231   0.855  0.6885 -0.2461  0.1046
 2225TIP3    H1 6639   3.518   1.247   0.772  2.2223  0.7216 -0.6143
 2225TIP3    H2 6640   3.521   1.155   0.893 -1.3420  0.4831 -0.6203
 2226TIP3   OH2 6641   5.179   6.639   2.921 -0.3844 -0.4218 -0.0358
 2226TIP3    H1 6642   5.101   6.693   2.913 -0.0094  0.0075 -0.8763
 2226TIP3    H2 6643   5.239   6.672   2.854 -0.1692 -1.9114 -0.6114
 2227TIP3   OH2 6644  -0.035   3.101   5.105  0.6468  0.0225  0.8159
 2227TIP3    H1 6645   0.016   3.021   5.104  0.6273  0.0093  0.8694
 2227TIP3    H2 6646   0.021   3.165   5.149  2.0838  0.9973 -2.1956
 2228TIP3   OH2 6647   4.188   1.030   0.405  0.0629  0.5200  0.1959
 2228TIP3    H1 6648   4.277   1.028   0.438  0.2662 -0.4681 -0.3744
 2228TIP3    H2 6649   4.138   1.076   0.473  0.6020 -0.8105  1.5470
 2229TIP3   OH2 6650   2.451   4.176   0.623 -0.3123 -0.0013  0.5675
 2229TIP3    H1 6651   2.391   4.110   0.658 -1.4887  0.7334 -0.0110
 2229TIP3    H2 6652   2.412   4.260   0.648  0.4671  0.4948  0.1560
 2230TIP3   OH2 6653   2.188   2.075   0.941 -0.2709  0.1267 -0.3788
 2230TIP3    H1 6654   2.130   2.096   1.014 -1.1751 -0.0700 -1.0202
 2230TIP3    H2 6655   2.162   1.986   0.915  0.4111 -0.0152 -0.5951
 2231TIP3   OH2 6656   1.948   6.042   5.400 -0.4363 -0.2438  0.6668
 2231TIP3    H1 6657   1.906   5.961   5.369 -0.5320  0.5030 -1.2874
 2231TIP3    H2 6658   2.041   6.021   5.401 -0.2257  0.2407 -2.0764
 2232TIP3   OH2 6659   4.379   1.271   4.724 -0.1743  0.2436  0.3373
 2232TIP3    H1 6660   4.384   1.365   4.740 -1.6191  0.4413 -0.2234
 2232TIP3    H2 6661   4.349   1.234   4.807 -0.2580  0.3525  0.3552
 2233TIP3   OH2 6662   4.828   5.613   0.888  0.3519 -0.0110 -0.0425
 2233TIP3    H1 6663   4.917   5.642   0.867 -0.4473  2.9193  0.0866
 2233TIP3    H2 6664   4.773   5.684   0.855 -1.6946 -0.1281  2.8300
 2234TIP3   OH2 6665   2.909   4.501   4.259 -0.3128 -0.1353  0.3303
 2234TIP3    H1 6666   2.891   4.586   4.298  0.6374  1.3483 -2.2386
 2234TIP3    H2 6667   3.000   4.507   4.228 -0.9283 -1.1552 -1.9389
 2235TIP3   OH2 6668   2.983   3.723   1.231 -0.1767  0.2929 -0.1573
 2235TIP3    H1 6669   2.955   3.813   1.211 -0.4716  0.3020  0.2812
 2235TIP3    H2 6670   3.072   3.718   1.196 -1.8060 -0.8528 -4.8298
 2236TIP3   OH2 6671   5.935   4.846   1.563  0.0637 -0.4850  0.3188
 2236TIP3    H1 6672   5.936   4.807   1.476  0.8452  0.0498  0.0797
 2236TIP3    H2 6673   5.987   4.926   1.554  0.0233 -0.3466  1.2400
 2237TIP3   OH2 6674   3.704   2.540   1.352  0.1220  0.7605 -0.7052
 2237TIP3    H1 6675   3.790   2.503   1.335  0.6162  1.7265 -0.3699
 2237TIP3    H2 6676   3.705   2.562   1.445 -1.2952 -1.2535 -0.1489
 2238TIP3   OH2 6677   4.881   1.482   1.894  0.1595  0.1427  0.7215
 2238TIP3    H1 6678   4.940   1.439   1.957  1.5665  1.0052  0.0362
 2238TIP3    H2 6679   4.927   1.476   1.810 -0.8472  0.6308  0.1203
 2239TIP3   OH2 6680   5.301   3.973   4.065  0.4370  0.5429  0.4076
 2239TIP3    H1 6681   5.301   4.023   3.982  4.0480  0.8338  0.4409
 2239TIP3    H2 6682   5.302   3.882   4.038  0.6519  0.6199  0.1506
 2240TIP3   OH2 6683   4.416   2.161   0.174 -0.5297 -0.6992 -0.4734
 2240TIP3    H1 6684   4.362   2.179   0.251  0.1229 -0.8471  0.0152
 2240TIP3    H2 6685   4.419   2.066   0.168  2.1967 -0.8391  1.3244
 2241TIP3   OH2 6686   1.163   5.597   3.558  0.3765  0.2252 -0.4296
 2241TIP3    H1 6687   1.148   5.546   3.637 -1.3376  0.4503 -0.5754
 2241TIP3    H2 6688   1.220   5.542   3.505 -0.1333 -0.8452  0.0948
 2242TIP3   OH2 6689   0.742   0.475   0.361  0.2087 -0.1501 -0.4223
 2242TIP3    H1 6690   0.809   0.502   0.424 -0.7664  2.6690 -0.4468
 2242TIP3    H2 6691   0.664   0.463   0.414 -0.2836  0.9092 -0.8752
 2243TIP3   OH2 6692   3.302   2.708   1.870 -0.1323 -0.1237  0.3255
 2243TIP3    H1 6693   3.208   2.706   1.890  0.1006 -1.8390  1.4137
 2243TIP3    H2 6694   3.344   2.725   1.954  0.5774 -0.4604  0.0425
 2244TIP3   OH2 6695   2.100   4.803   2.411 -0.2265 -0.1946 -0.3009
 2244TIP3    H1 6696   2.141   4.779   2.327  1.7381  0.7231  0.3327
 2244TIP3    H2 6697   2.023   4.854   2.385 -1.6808 -2.7823 -1.5525
 2245TIP3   OH2 6698   3.031   0.647   0.102 -0.1590  0.2805  0.1540
 2245TIP3    H1 6699   2.979   0.570   0.078  0.7944 -0.4590  0.3763
 2245TIP3    H2 6700   3.072   0.674   0.020 -0.2554  0.3560  0.1317
 2246TIP3   OH2 6701   0.502   3.867   4.233  0.0861 -0.2711  0.3339
 2246TIP3    H1 6702   0.412   3.888   4.255 -0.3672 -1.6260 -0.1160
 2246TIP3    H2 6703   0.526   3.929   4.164 -0.0963  0.8509  1.2650
 2247TIP3   OH2 6704   2.548   5.004   4.098  0.0660  0.4262  0.3013
 2247TIP3    H1 6705   2.609   5.061   4.051  0.6948  0.1631  0.7779
 2247TIP3    H2 6706   2.530   4.932   4.038  0.2925  0.4652  0.1846
 2248TIP3   OH2 6707   6.350   0.306   3.217 -0.2276 -0.4294 -0.0239
 2248TIP3    H1 6708   6.275   0.282   3.163 -1.7312  1.2800  1.1978
 2248TIP3    H2 6709   6.314   0.316   3.305  1.4782  0.2464  0.6437
 2249TIP3   OH2 6710   2.211   2.477   2.867  0.4102 -0.4191 -0.0726
 2249TIP3    H1 6711   2.121   2.508   2.861  0.0843 -1.3207  0.0631
 2249TIP3    H2 6712   2.244   2.515   2.948  0.4859  0.7225 -0.6066
 2250TIP3   OH2 6713   2.668   4.907   4.641  0.2402  0.2036 -0.5326
 2250TIP3    H1 6714   2.694   4.816   4.627  1.1352  0.6814 -2.2101
 2250TIP3    H2 6715   2.608   4.926   4.569 -1.6843  0.3424  1.0119
 2251TIP3   OH2 6716   2.172   6.245   4.252  0.3967  0.3313 -0.1996
 2251TIP3    H1 6717   2.229   6.208   4.319  1.0321  1.5112 -0.0729
 2251TIP3    H2 6718   2.102   6.287   4.301  1.1147  1.6091 -0.2315
 2252TIP3   OH2 6719   5.245   2.422   2.087  0.1388  0.1521  0.3481
 2252TIP3    H1 6720   5.319   2.434   2.146 -0.0875  0.1524  0.6325
 2252TIP3    H2 6721   5.209   2.336   2.109  2.1593 -1.4798 -2.1469
 2253TIP3   OH2 6722   6.393   3.149   5.917 -0.2001 -0.1407  0.7142
 2253TIP3    H1 6723   6.409   3.069   5.866  0.2886 -0.2804  1.0803
 2253TIP3    H2 6724   6.300   3.166   5.905 -0.1170 -0.2333 -0.1362
 2254TIP3   OH2 6725   1.543   0.178   4.035  0.4066  0.0602 -0.5135
 2254TIP3    H1 6726   1.452   0.190   4.064  0.4030 -1.3127  0.1107
 2254TIP3    H2 6727   1.536   0.159   3.942  0.1697  1.2783 -0.7623
 2255TIP3   OH2 6728   4.533   3.318   4.334  0.0193  0.1956  0.1903
 2255TIP3    H1 6729   4.556   3.300   4.243  0.3767 -1.3047  0.5392
 2255TIP3    H2 6730   4.450   3.365   4.329 -0.3076 -0.4604 -0.9083
 2256TIP3   OH2 6731   3.573   2.557   2.591 -0.5385  0.1565  0.1761
 2256TIP3    H1 6732   3.531   2.482   2.632 -1.1875 -0.1985 -1.0733
 2256TIP3    H2 6733   3.660   2.525   2.565 -0.7365 -0.1162 -0.1675
 2257TIP3   OH2 6734   3.627   5.681   1.853 -0.0698  0.3966  0.1561
 2257TIP3    H1 6735   3.692   5.637   1.798 -1.0281  0.5669 -1.1655
 2257TIP3    H2 6736   3.561   5.614   1.871 -1.0112  0.9544 -1.0132
 2258TIP3   OH2 6737   1.890   2.281   5.337 -0.6850  0.2456  0.0228
 2258TIP3    H1 6738   1.981   2.305   5.355 -0.3817  0.9194 -2.0878
 2258TIP3    H2 6739   1.838   2.354   5.371 -0.3357  0.4156  0.1935
 2259TIP3   OH2 6740   4.943   5.733   0.407 -0.0629  0.2841  0.1805
 2259TIP3    H1 6741   4.921   5.815   0.361  0.4728 -0.2310 -1.0302
 2259TIP3    H2 6742   5.037   5.722   0.393  0.4412  0.8189  2.6128
 2260TIP3   OH2 6743   0.955   5.490   1.032 -0.0624  0.7929 -0.6321
 2260TIP3    H1 6744   1.013   5.538   1.091 -0.1646  1.0028 -0.7030
 2260TIP3    H2 6745   0.891   5.449   1.089 -0.0960  0.9069 -0.5871
 2261TIP3   OH2 6746   0.531   6.731   5.443 -0.1085 -0.0874 -0.3823
 2261TIP3    H1 6747   0.616   6.742   5.400  0.2911  0.4767  0.5150
 2261TIP3    H2 6748   0.467   6.756   5.377  0.3749 -1.1499 -1.2905
 2262TIP3   OH2 6749   6.945   1.751   1.479  0.4101  0.2612  0.1372
 2262TIP3    H1 6750   6.929   1.682   1.544  1.2621 -1.3623 -1.2609
 2262TIP3    H2 6751   7.000   1.815   1.524  0.4895 -0.5214  1.1847
 2263TIP3   OH2 6752   5.118   6.297   3.725 -0.1398 -0.4011 -0.4912
 2263TIP3    H1 6753   5.089   6.222   3.674  0.8622 -0.2841 -1.2672
 2263TIP3    H2 6754   5.208   6.314   3.695 -0.0131  0.5223  0.3350
 2264TIP3   OH2 6755   1.108   1.296   3.959  0.5251  0.1962  0.1958
 2264TIP3    H1 6756   1.053   1.365   3.922 -0.0362 -0.2716  0.1495
 2264TIP3    H2 6757   1.108   1.313   4.053  0.0290 -0.0057  0.2299
 2265TIP3   OH2 6758   7.038   4.239   1.501  0.2341  0.3328  0.1231
 2265TIP3    H1 6759   7.084   4.192   1.432  0.6164  0.3765  0.3459
 2265TIP3    H2 6760   7.050   4.332   1.480 -1.8665  0.3672 -1.2146
 2266TIP3   OH2 6761   2.754   1.052   5.336  0.0751 -0.6398 -0.2977
 2266TIP3    H1 6762   2.814   1.003   5.280 -0.9772 -1.7791 -0.4554
 2266TIP3    H2 6763   2.754   1.004   5.419 -0.0959 -0.2417 -0.0650
 2267TIP3   OH2 6764   4.685   4.383   0.358 -0.2815 -0.7486 -0.0396
 2267TIP3    H1 6765   4.775   4.361   0.382 -0.0944 -1.2796 -1.1506
 2267TIP3    H2 6766   4.641   4.299   0.349 -1.6883 -0.4911  3.1413
 2268TIP3   OH2 6767   3.812   1.850   5.765  0.2467  0.2735  0.0716
 2268TIP3    H1 6768   3.899   1.881   5.790  0.3308 -0.2791  0.4729
 2268TIP3    H2 6769   3.775   1.814   5.845  0.0824 -0.5079 -0.3519
 2269TIP3   OH2 6770   6.507   1.932   4.465  0.2666 -0.0663 -0.1261
 2269TIP3    H1 6771   6.531   1.926   4.558  0.8229 -0.6924 -0.3018
 2269TIP3    H2 6772   6.432   1.872   4.457 -0.7247  1.0849  0.2023
 2270TIP3   OH2 6773   5.708   3.557   4.049  0.0371  0.2057  0.2043
 2270TIP3    H1 6774   5.660   3.477   4.072 -0.7631  0.6073 -0.0555
 2270TIP3    H2 6775   5.752   3.582   4.130 -0.5366  0.0702  0.5658
 2271TIP3   OH2 6776   1.502   2.818   4.426  0.4057  0.2597  0.3304
 2271TIP3    H1 6777   1.533   2.730   4.406  0.5828  0.0398  1.4976
 2271TIP3    H2 6778   1.552   2.875   4.368 -0.3752 -0.4677 -1.0936
 2272TIP3   OH2 6779   2.014   3.080   4.991 -0.1133 -0.0579 -0.9789
 2272TIP3    H1 6780   1.935   3.118   5.029  0.2572  0.8955 -1.1362
 2272TIP3    H2 6781   2.055   3.152   4.943  0.0257 -0.9391 -2.2456
 2273TIP3   OH2 6782   5.433   6.183   0.394  0.6799 -0.3130 -0.1792
 2273TIP3    H1 6783   5.372   6.211   0.326  1.5024  0.0969 -0.7659
 2273TIP3    H2 6784   5.438   6.258   0.454  0.3214 -0.4916  0.0770
 2274TIP3   OH2 6785   5.433   6.315   3.978  0.2691  0.0330  0.6722
 2274TIP3    H1 6786   5.342   6.343   3.972  0.4430  0.4696  0.0645
 2274TIP3    H2 6787   5.429   6.219   3.969 -0.1524  0.0237  0.9446
 2275TIP3   OH2 6788   3.208   5.197   1.576 -0.5580 -0.5720 -0.3484
 2275TIP3    H1 6789   3.161   5.133   1.523 -0.4101  1.6801 -3.4961
 2275TIP3    H2 6790   3.276   5.231   1.518  0.5819  1.0887  1.8033
 2276TIP3   OH2 6791   2.982   5.299   0.892 -0.0741  0.4692 -0.0611
 2276TIP3    H1 6792   3.010   5.262   0.975 -1.9352  1.3073  0.9991
 2276TIP3    H2 6793   2.893   5.267   0.880 -0.8347  2.5211 -0.3393
 2277TIP3   OH2 6794   4.305   4.430   3.671 -0.4155  0.5139  0.1432
 2277TIP3    H1 6795   4.375   4.421   3.605 -0.1375 -0.9135  0.6028
 2277TIP3    H2 6796   4.328   4.510   3.719  0.7907  0.1892  0.1409
 2278TIP3   OH2 6797   2.883   0.942   0.336 -0.2581  0.0279 -0.0693
 2278TIP3    H1 6798   2.873   0.915   0.245  0.1008  1.0413 -0.4232
 2278TIP3    H2 6799   2.868   1.037   0.335 -2.4585 -0.2485  1.2964
 2279TIP3   OH2 6800   4.717   4.130   5.408  0.5904 -0.2627 -0.2027
 2279TIP3    H1 6801   4.636   4.113   5.360  0.6476  0.8239 -0.7165
 2279TIP3    H2 6802   4.717   4.066   5.479 -1.1912  0.3275  0.3658
 2280TIP3   OH2 6803   1.695   4.951   0.474  0.2904 -0.0785  0.2090
 2280TIP3    H1 6804   1.650   4.972   0.393 -0.7412 -0.0286  0.7849
 2280TIP3    H2 6805   1.698   4.856   0.477  0.4821 -0.0802  0.0446
 2281TIP3   OH2 6806   2.861   4.429   4.571  0.3857 -0.1131  0.0846
 2281TIP3    H1 6807   2.956   4.428   4.562  0.3346 -0.8236 -0.5212
 2281TIP3    H2 6808   2.830   4.371   4.501 -0.4670 -0.2288  0.5433
 2282TIP3   OH2 6809   5.928   5.003   3.349  0.6159  0.3148  1.1377
 2282TIP3    H1 6810   5.870   4.935   3.316  0.0190  1.2087  0.2969
 2282TIP3    H2 6811   5.999   4.954   3.392  1.2411 -0.9419 -1.1071
 2283TIP3   OH2 6812   5.336   0.686   3.054 -0.1546 -0.3647  0.1771
 2283TIP3    H1 6813   5.261   0.626   3.051  1.6918 -2.8633  0.9813
 2283TIP3    H2 6814   5.387   0.658   3.130  2.7549 -0.2851 -1.5835
 2284TIP3   OH2 6815   0.003   0.322   1.697  0.3551 -0.6991 -0.0581
 2284TIP3    H1 6816   0.023   0.229   1.710  1.9842 -0.4493 -0.6895
 2284TIP3    H2 6817   0.074   0.368   1.741 -0.6291  0.2746  0.5545
 2285TIP3   OH2 6818   5.874   6.311   3.789  0.1827  0.2591  0.2753
 2285TIP3    H1 6819   5.830   6.396   3.800 -0.4849  0.4309 -2.6452
 2285TIP3    H2 6820   5.804   6.252   3.763  1.0613 -0.4878 -0.4469
 2286TIP3   OH2 6821   6.340   4.288   2.418 -0.2947  0.1409 -0.4338
 2286TIP3    H1 6822   6.355   4.374   2.457 -0.5222 -0.2454  0.5212
 2286TIP3    H2 6823   6.269   4.249   2.470 -0.1273 -0.6693 -0.7862
 2287TIP3   OH2 6824   5.410   6.632   4.737  0.3377  0.6457 -0.1112
 2287TIP3    H1 6825   5.447   6.567   4.797  2.2021  0.2882 -1.5674
 2287TIP3    H2 6826   5.360   6.580   4.674 -0.3010  0.8841  0.1878
 2288TIP3   OH2 6827   1.209   6.520   2.619  0.1179 -0.2909 -0.0052
 2288TIP3    H1 6828   1.301   6.546   2.620  0.3580 -1.0982 -0.6523
 2288TIP3    H2 6829   1.200   6.463   2.543 -0.6070 -1.3397  0.8288
 2289TIP3   OH2 6830   5.104   4.748   0.725 -0.4798  0.3657  0.2411
 2289TIP3    H1 6831   5.068   4.820   0.672  0.4185  1.2468  0.7802
 2289TIP3    H2 6832   5.199   4.752   0.710 -0.4158 -0.7087  0.2991
 2290TIP3   OH2 6833   6.247   4.489   5.603 -0.5606 -0.0171  0.3613
 2290TIP3    H1 6834   6.179   4.435   5.562 -1.3912  0.7759  0.6618
 2290TIP3    H2 6835   6.237   4.575   5.562 -0.8906  0.5763  1.6522
 2291TIP3   OH2 6836   5.238   3.551   5.387 -0.2260  0.2552  0.3031
 2291TIP3    H1 6837   5.259   3.482   5.450  0.2445 -0.5085 -0.6639
 2291TIP3    H2 6838   5.151   3.582   5.414 -1.0875 -1.6869 -0.0365
 2292TIP3   OH2 6839   3.494   5.647   1.187 -0.3125  0.2230  0.2819
 2292TIP3    H1 6840   3.544   5.686   1.115 -0.2729  0.7439  0.5808
 2292TIP3    H2 6841   3.405   5.680   1.175 -0.2777  0.4122  0.5405
 2293TIP3   OH2 6842   1.493   0.552   5.544 -0.4781  0.2657 -0.1958
 2293TIP3    H1 6843   1.458   0.534   5.457  0.7176 -2.2803 -0.2545
 2293TIP3    H2 6844   1.438   0.500   5.603 -0.0338  0.3540  0.3047
 2294TIP3   OH2 6845   3.748   0.088   1.793  0.3190  0.2075  0.0740
 2294TIP3    H1 6846   3.779   0.034   1.719  0.9100 -0.3702  0.7271
 2294TIP3    H2 6847   3.653   0.090   1.783  0.4201  0.6129 -1.0233
 2295TIP3   OH2 6848   7.018   4.797   2.440  0.3733 -0.2998  1.1130
 2295TIP3    H1 6849   6.983   4.726   2.386 -0.1823  0.6170  0.2372
 2295TIP3    H2 6850   7.072   4.753   2.505 -0.8682 -1.6234  1.3073
 2296TIP3   OH2 6851   5.166   4.010   3.641 -0.2716  0.1178  0.2623
 2296TIP3    H1 6852   5.150   3.939   3.579  2.0991 -2.5380  2.3938
 2296TIP3    H2 6853   5.235   4.062   3.600  0.3841 -0.8570  0.1024
 2297TIP3   OH2 6854   0.277   2.258   5.735  0.4417  0.0008  0.2697
 2297TIP3    H1 6855   0.353   2.204   5.711  2.2513  1.4601  2.3210
 2297TIP3    H2 6856   0.240   2.285   5.651  0.8637 -2.4676 -0.8120
 2298TIP3   OH2 6857   0.237   3.754   3.352 -0.5554  0.3611 -0.4621
 2298TIP3    H1 6858   0.172   3.809   3.309  0.9091  1.7526 -0.9546
 2298TIP3    H2 6859   0.228   3.668   3.309 -0.8728  1.0121 -1.7390
 2299TIP3   OH2 6860   2.175   4.572   1.550 -0.5296  0.2699  0.0828
 2299TIP3    H1 6861   2.248   4.511   1.565  0.6807  1.4071 -0.9057
 2299TIP3    H2 6862   2.213   4.642   1.497 -2.6440  0.3230 -1.4928
 2300TIP3   OH2 6863   2.467   2.625   5.266  0.0870 -0.4881  0.2042
 2300TIP3    H1 6864   2.524   2.685   5.217  0.1195 -0.6876 -0.0061
 2300TIP3    H2 6865   2.525   2.556   5.296  0.3567  0.3780  1.8113
 2301TIP3   OH2 6866   0.458   4.693   4.877  0.6440  0.4310 -0.2519
 2301TIP3    H1 6867   0.373   4.653   4.897  0.7269 -0.2549 -1.1946
 2301TIP3    H2 6868   0.457   4.776   4.925 -1.8498  1.9303 -2.5720
 2302TIP3   OH2 6869   4.449   4.524   1.255  0.1266  0.1835 -0.3248
 2302TIP3    H1 6870   4.436   4.550   1.163 -0.9599 -0.2135 -0.2960
 2302TIP3    H2 6871   4.361   4.526   1.293  0.1880 -2.1489  0.0358
 2303TIP3   OH2 6872   3.122   0.560   2.490  0.0053  0.0775 -0.5575
 2303TIP3    H1 6873   3.158   0.648   2.506 -0.6851  0.3380 -0.4147
 2303TIP3    H2 6874   3.133   0.547   2.396 -1.8967  1.2415 -0.9959
 2304TIP3   OH2 6875   6.534   2.010   4.124 -0.2848  0.2397 -0.0677
 2304TIP3    H1 6876   6.450   2.000   4.167 -1.8577 -2.7408 -3.3523
 2304TIP3    H2 6877   6.572   1.922   4.123  1.1542  0.8128 -1.8111
 2305TIP3   OH2 6878   6.778   4.682   1.391  0.0863 -0.0777 -0.2082
 2305TIP3    H1 6879   6.763   4.776   1.380  0.0086 -0.2459 -1.7386
 2305TIP3    H2 6880   6.706   4.652   1.446 -0.5669  0.5615 -0.6989
 2306TIP3   OH2 6881   6.464   0.747   1.246  0.0112 -0.1607  0.1910
 2306TIP3    H1 6882   6.477   0.800   1.324 -0.2457  0.6222 -0.2829
 2306TIP3    H2 6883   6.552   0.730   1.213  0.0729  0.5509 -0.0241
 2307TIP3   OH2 6884   4.740   0.822   0.451 -0.4019  0.2882 -0.2327
 2307TIP3    H1 6885   4.783   0.753   0.502 -1.1692  0.3138  0.4764
 2307TIP3    H2 6886   4.807   0.889   0.440  0.4590 -0.6875 -1.2157
 2308TIP3   OH2 6887   1.434   5.390   2.756 -0.1265  0.0224 -0.4356
 2308TIP3    H1 6888   1.436   5.373   2.850  1.3000 -0.4067 -0.5251
 2308TIP3    H2 6889   1.366   5.332   2.722  0.8841 -1.5075  0.0399
 2309TIP3   OH2 6890   7.132   1.073   3.506  0.0651 -0.6651 -0.5846
 2309TIP3    H1 6891   7.097   1.023   3.580 -0.8143  0.2059 -0.3872
 2309TIP3    H2 6892   7.080   1.154   3.505  0.5609 -0.3392 -1.7019
 2310TIP3   OH2 6893   0.020   2.866   5.768  0.9839  0.2295  0.2333
 2310TIP3    H1 6894  -0.029   2.827   5.696  0.2963 -1.0117  1.3444
 2310TIP3    H2 6895   0.082   2.798   5.794  1.3619  0.7424  0.6958
 2311TIP3   OH2 6896   0.122   3.204   4.454  0.0833 -0.4857 -0.1859
 2311TIP3    H1 6897   0.123   3.136   4.522 -0.7111 -1.4121 -1.0686
 2311TIP3    H2 6898   0.031   3.203   4.422  0.3053  0.3421 -0.8601
 2312TIP3   OH2 6899   3.848   3.605   3.445  0.1247 -0.3888 -0.1625
 2312TIP3    H1 6900   3.933   3.565   3.463 -0.3112 -0.5629  1.6504
 2312TIP3    H2 6901   3.866   3.666   3.373  1.2632 -2.1378 -1.4463
 2313TIP3   OH2 6902   3.846   0.518   0.556  0.6207  0.2783  0.4144
 2313TIP3    H1 6903   3.860   0.445   0.616  0.1399 -0.3442 -0.2089
 2313TIP3    H2 6904   3.931   0.532   0.516  0.5935 -0.3308  0.1211
 2314TIP3   OH2 6905   6.457   4.731   5.250  0.8225 -0.1904  0.4330
 2314TIP3    H1 6906   6.474   4.703   5.160  1.6514 -0.1650  0.5761
 2314TIP3    H2 6907   6.394   4.667   5.284  1.4092 -0.8859  0.2156
 2315TIP3   OH2 6908   3.495   5.681   2.640  0.0269 -0.5151  0.1963
 2315TIP3    H1 6909   3.480   5.595   2.681 -0.1023 -0.1985  0.8222
 2315TIP3    H2 6910   3.517   5.739   2.713 -1.5607  0.3788  0.0027
 2316TIP3   OH2 6911   6.640   0.971   1.962  0.0789  0.2526 -0.5409
 2316TIP3    H1 6912   6.707   0.961   1.894 -0.6620  1.6332 -1.5433
 2316TIP3    H2 6913   6.607   0.883   1.977 -0.1618 -0.0336 -2.4577
 2317TIP3   OH2 6914   1.085   6.427   0.895  0.1998 -0.0277  0.0872
 2317TIP3    H1 6915   1.123   6.503   0.940 -0.7991  1.6394 -1.7273
 2317TIP3    H2 6916   1.160   6.376   0.865  0.8868 -0.2857  2.0917
 2318TIP3   OH2 6917   3.021   6.050   3.493 -0.6293 -0.0401  0.8706
 2318TIP3    H1 6918   3.029   5.957   3.511 -1.1501 -0.1403  0.6067
 2318TIP3    H2 6919   3.083   6.067   3.423 -1.1003 -0.3527  0.3722
 2319TIP3   OH2 6920   0.549   3.988   5.909  0.3311  0.2062 -0.3011
 2319TIP3    H1 6921   0.592   3.906   5.884 -1.3272 -0.4419 -1.1574
 2319TIP3    H2 6922   0.571   4.049   5.838  1.7940  0.6299  0.4726
 2320TIP3   OH2 6923   5.949   0.701   3.005 -0.2425  0.8506 -0.3264
 2320TIP3    H1 6924   5.998   0.625   2.975 -0.5613  0.0114  1.1567
 2320TIP3    H2 6925   5.863   0.693   2.965  0.1353  1.1651 -1.2220
 2321TIP3   OH2 6926   2.261   1.158   2.199 -0.6963 -0.1089  0.0304
 2321TIP3    H1 6927   2.263   1.143   2.105  1.1455  0.0515  0.0033
 2321TIP3    H2 6928   2.237   1.250   2.209  0.0875  0.1444 -0.3441
 2322TIP3   OH2 6929   1.082   2.732   1.020 -0.5657 -0.0330 -0.4732
 2322TIP3    H1 6930   1.113   2.817   1.053  1.3301 -0.1171 -1.8598
 2322TIP3    H2 6931   1.042   2.690   1.096  1.9025  0.5494  1.2877
 2323TIP3   OH2 6932   0.247   2.298   2.452 -0.8546 -0.0159  0.0286
 2323TIP3    H1 6933   0.168   2.351   2.445 -1.7830 -0.9557  2.3644
 2323TIP3    H2 6934   0.307   2.352   2.504 -0.2524  0.3236 -0.9785
 2324TIP3   OH2 6935   1.048   0.120   3.978 -0.5145 -0.7559 -0.3633
 2324TIP3    H1 6936   0.964   0.128   4.023 -0.7415  0.5507 -0.9843
 2324TIP3    H2 6937   1.103   0.188   4.018  0.7300 -2.4828  1.0099
 2325TIP3   OH2 6938   2.410   2.436   2.106  0.4753 -0.4114 -0.5129
 2325TIP3    H1 6939   2.407   2.531   2.121  0.7465 -0.3871 -0.6012
 2325TIP3    H2 6940   2.334   2.418   2.050 -0.2473 -0.4281  0.4557
 2326TIP3   OH2 6941   1.799   3.806   2.300  0.1430  0.0143 -0.2704
 2326TIP3    H1 6942   1.851   3.751   2.241  0.3739  0.3061 -0.3427
 2326TIP3    H2 6943   1.811   3.894   2.266  2.0057  0.4963  1.4310
 2327TIP3   OH2 6944   3.529   3.469   5.259 -0.0458 -0.1402  0.0614
 2327TIP3    H1 6945   3.484   3.553   5.255  0.2224 -0.0406 -1.0090
 2327TIP3    H2 6946   3.587   3.477   5.335 -0.3002  0.5003  0.1956
 2328TIP3   OH2 6947   3.170   0.031   2.261  0.1487 -0.1208 -0.6265
 2328TIP3    H1 6948   3.116   0.100   2.299 -0.6167 -0.8286 -0.3775
 2328TIP3    H2 6949   3.107  -0.026   2.215  0.4727 -1.7002  0.7788
 2329TIP3   OH2 6950   2.815   0.319   4.649 -0.1086  0.2103 -0.6914
 2329TIP3    H1 6951   2.789   0.375   4.576 -0.2035 -1.1902 -1.7879
 2329TIP3    H2 6952   2.759   0.241   4.640  1.0222 -0.6952 -0.1225
 2330TIP3   OH2 6953   4.829   2.840   2.699  0.2249  0.2837 -0.0851
 2330TIP3    H1 6954   4.771   2.848   2.775 -0.1206 -1.8275 -0.0570
 2330TIP3    H2 6955   4.908   2.887   2.725  0.3660 -0.8918  1.8730
 2331TIP3   OH2 6956   3.638   4.737   5.323  0.3924  0.5525 -0.1306
 2331TIP3    H1 6957   3.575   4.808   5.334 -0.6008  0.0232 -1.9935
 2331TIP3    H2 6958   3.597   4.662   5.367 -1.7508 -0.5370 -3.5531
 2332TIP3   OH2 6959   4.531   1.516   1.028 -0.4419  0.5738 -0.6193
 2332TIP3    H1 6960   4.447   1.503   0.985 -1.6638  0.5818  1.6358
 2332TIP3    H2 6961   4.573   1.429   1.025 -2.2295 -0.4526  1.5481
 2333TIP3   OH2 6962   4.425   6.097   4.170 -0.3526 -0.3196 -0.1365
 2333TIP3    H1 6963   4.339   6.054   4.163 -0.0626 -0.6924 -1.9692
 2333TIP3    H2 6964   4.471   6.046   4.236 -0.6886 -1.6923 -0.9217
 2334TIP3   OH2 6965   5.880   1.621   4.381  0.0329  0.1416 -0.3846
 2334TIP3    H1 6966   5.975   1.625   4.367  0.3120  0.1943  1.2549
 2334TIP3    H2 6967   5.849   1.708   4.357  0.6746  0.6786  0.6505
 2335TIP3   OH2 6968   0.920   4.410   2.300  0.0991  0.1399  0.3014
 2335TIP3    H1 6969   0.920   4.449   2.213 -0.4779  1.6137  0.9279
 2335TIP3    H2 6970   0.834   4.432   2.336 -0.2435 -1.7219  0.7126
 2336TIP3   OH2 6971   0.334   6.402   0.094  0.2952 -0.2563 -0.4170
 2336TIP3    H1 6972   0.391   6.477   0.114  1.5554 -1.0046 -1.0224
 2336TIP3    H2 6973   0.352   6.339   0.163 -1.8646  0.5253  0.9325
 2337TIP3   OH2 6974   4.977   2.486   2.963 -0.2374  0.2084  0.4415
 2337TIP3    H1 6975   4.930   2.421   3.016  1.2740 -0.7661  0.6813
 2337TIP3    H2 6976   4.916   2.511   2.895 -1.5717  0.0484  1.5313
 2338TIP3   OH2 6977   4.955   4.325   1.595 -0.4077  0.3517  0.4151
 2338TIP3    H1 6978   4.872   4.350   1.554  0.4742  2.2555 -0.3161
 2338TIP3    H2 6979   4.993   4.408   1.624  0.6848 -0.6046  1.8620
 2339TIP3   OH2 6980   5.626   2.043   0.158  0.8054 -0.7111  0.0033
 2339TIP3    H1 6981   5.643   1.950   0.177  3.0616  0.1810  3.1156
 2339TIP3    H2 6982   5.695   2.090   0.204 -0.5425  2.5954 -1.0718
 2340TIP3   OH2 6983   5.309   1.355   1.696  0.5665 -0.4673  0.0664
 2340TIP3    H1 6984   5.331   1.340   1.604 -0.2518  0.2259 -0.2548
 2340TIP3    H2 6985   5.392   1.342   1.742  1.0283 -0.6613 -0.7769
 2341TIP3   OH2 6986   0.719   0.427   4.901  0.6456 -0.0784  0.0174
 2341TIP3    H1 6987   0.670   0.345   4.907 -0.4489  0.5854  0.5535
 2341TIP3    H2 6988   0.710   0.466   4.988  0.5283  0.9400 -0.4401
 2342TIP3   OH2 6989   1.382   3.494   3.440 -0.2486 -0.3723 -0.5427
 2342TIP3    H1 6990   1.318   3.440   3.485 -0.0784  0.9300  1.4295
 2342TIP3    H2 6991   1.364   3.583   3.471 -1.0403  0.9186 -4.2464
 2343TIP3   OH2 6992   7.075   3.901   0.218  0.4359  0.0146 -0.1908
 2343TIP3    H1 6993   7.156   3.880   0.172  0.3446 -1.7038  0.3646
 2343TIP3    H2 6994   7.011   3.838   0.185 -0.1716  0.1218  0.7314
 2344TIP3   OH2 6995   6.257   1.230   4.872  0.3854 -0.1318 -0.8167
 2344TIP3    H1 6996   6.167   1.258   4.853  0.1181  0.5499  1.2412
 2344TIP3    H2 6997   6.246   1.148   4.920  0.9372 -0.6492 -1.5515
 2345TIP3   OH2 6998   3.521   5.136   4.381 -0.5473 -0.3593  0.4535
 2345TIP3    H1 6999   3.530   5.124   4.287 -2.2550  5.1647 -0.7855
 2345TIP3    H2 7000   3.429   5.115   4.399 -1.1648  1.8290  0.0656
 2346TIP3   OH2 7001   3.463   2.571   5.694 -0.1186  0.1657  0.1291
 2346TIP3    H1 7002   3.444   2.549   5.785  0.5343 -1.8179 -0.1777
 2346TIP3    H2 7003   3.377   2.591   5.656 -0.6015 -0.6088  0.7821
 2347TIP3   OH2 7004   0.455   3.227   2.016 -0.0065 -0.0249 -0.0971
 2347TIP3    H1 7005   0.448   3.222   1.921 -2.2187 -0.0825  0.0214
 2347TIP3    H2 7006   0.525   3.290   2.031  2.1061 -1.8288 -1.7009
 2348TIP3   OH2 7007   0.272   6.061   4.960  0.9835  0.3516 -0.0089
 2348TIP3    H1 7008   0.249   5.989   5.019  1.3293  0.5383  0.3594
 2348TIP3    H2 7009   0.310   6.018   4.883  1.1653  0.1377  0.1972
 2349TIP3   OH2 7010   2.127   5.981   2.190 -0.2013  0.2568  0.4706
 2349TIP3    H1 7011   2.145   5.949   2.278 -0.1002 -1.3785 -0.1039
 2349TIP3    H2 7012   2.184   5.928   2.134 -0.8942  0.6655 -0.6513
 2350TIP3   OH2 7013   4.933   3.464   4.948  0.2385 -0.0968  0.4151
 2350TIP3    H1 7014   4.973   3.436   5.030  1.0411 -0.4311 -0.0900
 2350TIP3    H2 7015   4.861   3.522   4.976 -0.1557 -1.0142  1.3833
 2351TIP3   OH2 7016   4.147   1.490   4.383 -0.0233  0.2874 -0.2171
 2351TIP3    H1 7017   4.056   1.491   4.352 -0.4043 -1.8803  0.6083
 2351TIP3    H2 7018   4.140   1.495   4.479  0.5310 -1.9912  0.0020
 2352TIP3   OH2 7019   5.135   5.797   3.119  0.0887  0.2265  0.8100
 2352TIP3    H1 7020   5.132   5.800   3.215 -0.8605  0.0468  0.8019
 2352TIP3    H2 7021   5.178   5.714   3.098  0.6051  0.4237  1.0733
 2353TIP3   OH2 7022   7.144   3.652   4.835  0.0528 -0.0973  0.2586
 2353TIP3    H1 7023   7.089   3.610   4.769 -3.0843  2.3208  1.0569
 2353TIP3    H2 7024   7.212   3.696   4.785 -0.0274 -1.3193 -1.0028
 2354TIP3   OH2 7025   5.149   5.260   3.638 -0.5995  0.3172 -0.2723
 2354TIP3    H1 7026   5.098   5.180   3.625 -1.5174  0.9590 -0.7172
 2354TIP3    H2 7027   5.131   5.313   3.561 -1.6445  1.8225  0.9373
 2355TIP3   OH2 7028   3.283   6.165   1.828  0.2995  0.1185 -0.1331
 2355TIP3    H1 7029   3.366   6.123   1.809  0.1227  0.0315 -0.7440
 2355TIP3    H2 7030   3.223   6.093   1.848  1.1303  0.2877  3.6708
 2356TIP3   OH2 7031   0.224   1.409   3.336  0.3053 -0.1789  0.4379
 2356TIP3    H1 7032   0.243   1.388   3.245 -1.0319 -0.1915  0.1320
 2356TIP3    H2 7033   0.135   1.377   3.350 -0.2485  1.5144  1.1746
 2357TIP3   OH2 7034   2.321   5.801   0.319  0.4902  0.0981 -0.5108
 2357TIP3    H1 7035   2.306   5.816   0.225 -1.3703  0.5761 -0.1847
 2357TIP3    H2 7036   2.383   5.729   0.322  0.6005  0.0904 -2.1202
 2358TIP3   OH2 7037   6.092   2.000   1.485 -0.4247 -0.6609  0.1713
 2358TIP3    H1 7038   6.045   2.081   1.465  1.4995  0.3338 -0.5734
 2358TIP3    H2 7039   6.078   1.944   1.408 -0.1548 -0.2468 -0.1850
 2359TIP3   OH2 7040   4.189   4.242   3.848 -0.0646 -0.0930  0.2541
 2359TIP3    H1 7041   4.260   4.178   3.856  0.5809  0.7330  1.3764
 2359TIP3    H2 7042   4.203   4.282   3.762  1.2423  0.4991  0.7023
 2360TIP3   OH2 7043   0.768   5.656   2.079  0.4073 -0.3557 -0.3937
 2360TIP3    H1 7044   0.754   5.583   2.019  1.0218 -1.6401  0.9581
 2360TIP3    H2 7045   0.692   5.654   2.137 -0.3488  1.0806 -1.2732
 2361TIP3   OH2 7046   5.286   5.266   0.282  0.0898 -0.3972 -0.0331
 2361TIP3    H1 7047   5.301   5.274   0.376 -1.7036  0.2474  0.2390
 2361TIP3    H2 7048   5.227   5.191   0.274 -0.2114 -0.1052 -0.5886
 2362TIP3   OH2 7049   1.095   6.318   0.149  0.3835  0.5401 -0.2056
 2362TIP3    H1 7050   1.032   6.274   0.092  0.8535 -2.2101  1.1904
 2362TIP3    H2 7051   1.047   6.335   0.230  0.9364 -0.0186  0.2557
 2363TIP3   OH2 7052   5.410   5.570   3.679  0.4800 -0.3432 -0.0039
 2363TIP3    H1 7053   5.486   5.610   3.723  0.8965 -1.1887  0.0560
 2363TIP3    H2 7054   5.437   5.480   3.663  0.7270  0.1630 -2.8693
 2364TIP3   OH2 7055   0.158   5.614   5.225 -0.2989  0.4220 -0.2217
 2364TIP3    H1 7056   0.110   5.561   5.162 -1.3716  0.5408  0.4571
 2364TIP3    H2 7057   0.194   5.551   5.288 -1.9029  0.4750  0.8067
 2365TIP3   OH2 7058   3.501   5.035   5.186 -0.2803 -0.0908  0.8201
 2365TIP3    H1 7059   3.457   5.119   5.198 -0.7503  0.0547 -1.3776
 2365TIP3    H2 7060   3.566   5.032   5.255 -0.4012  1.9945  1.1027
 2366TIP3   OH2 7061   0.783   1.468   4.917 -0.3259 -0.1510 -0.1390
 2366TIP3    H1 7062   0.857   1.463   4.977 -0.7108  3.4252  0.8784
 2366TIP3    H2 7063   0.821   1.455   4.831  1.1045 -0.5553  0.5191
 2367TIP3   OH2 7064   5.736   2.727   2.287 -0.4098 -0.0032 -0.0678
 2367TIP3    H1 7065   5.644   2.748   2.272 -0.3421  0.2854 -0.0984
 2367TIP3    H2 7066   5.743   2.634   2.268 -0.6981 -0.0285 -0.0528
 2368TIP3   OH2 7067   7.079   5.255   5.242  0.4024 -0.1534 -0.2398
 2368TIP3    H1 7068   7.145   5.213   5.187 -0.1557  0.4080 -1.3548
 2368TIP3    H2 7069   6.997   5.209   5.221  0.3409 -0.5657  0.8278
 2369TIP3   OH2 7070   2.885   1.923   1.696 -0.2572 -0.0444 -0.2876
 2369TIP3    H1 7071   2.840   2.007   1.700  0.6165  0.4743 -0.9937
 2369TIP3    H2 7072   2.973   1.941   1.730  0.7811 -0.0459 -2.7804
 2370TIP3   OH2 7073   1.577   2.599   1.348  0.3881  0.0004  0.2431
 2370TIP3    H1 7074   1.622   2.548   1.280  0.0001  2.7508 -2.2463
 2370TIP3    H2 7075   1.492   2.557   1.357  1.1570 -1.5803  0.5554
 2371TIP3   OH2 7076   1.692   5.216   0.543  0.5180 -0.4088  0.0531
 2371TIP3    H1 7077   1.674   5.123   0.530  0.1996 -0.7666  2.5925
 2371TIP3    H2 7078   1.784   5.226   0.517  1.1824 -1.9100  1.6051
 2372TIP3   OH2 7079   6.838   2.407   3.469  0.4237 -0.1415 -0.1464
 2372TIP3    H1 7080   6.863   2.492   3.505 -0.7350  0.0874  0.1544
 2372TIP3    H2 7081   6.746   2.418   3.443 -0.2048 -1.7184  1.2638
 2373TIP3   OH2 7082   1.177   3.901   4.737 -0.3509  0.1169  0.5413
 2373TIP3    H1 7083   1.219   3.944   4.811  1.0960 -1.1932  0.5170
 2373TIP3    H2 7084   1.162   3.811   4.766  0.3666 -0.4546 -0.7705
 2374TIP3   OH2 7085   6.741   0.880   2.282 -0.4052 -0.2297  0.3803
 2374TIP3    H1 7086   6.819   0.902   2.232 -0.8186  1.0061  0.2460
 2374TIP3    H2 7087   6.718   0.962   2.326 -1.8058 -0.4996  0.1672
 2375TIP3   OH2 7088   3.495   6.560   2.918 -0.4804 -0.1524 -0.5061
 2375TIP3    H1 7089   3.440   6.602   2.852 -0.9668 -1.5559 -1.0176
 2375TIP3    H2 7090   3.527   6.480   2.876  1.6895  0.4303 -0.0953
 2376TIP3   OH2 7091   4.852   0.018   2.466  0.3494 -0.3618  0.2651
 2376TIP3    H1 7092   4.915  -0.020   2.404  1.5538  0.2984  1.0323
 2376TIP3    H2 7093   4.834   0.105   2.430  0.3161 -0.3396  0.3354
 2377TIP3   OH2 7094   1.030   1.236   3.696  0.2911  0.1652 -0.3029
 2377TIP3    H1 7095   0.997   1.321   3.665 -2.2654  0.3196  2.3529
 2377TIP3    H2 7096   1.058   1.254   3.786 -0.5802 -1.8092  0.4114
 2378TIP3   OH2 7097   2.330   2.449   5.523  0.1992 -0.3845 -0.2240
 2378TIP3    H1 7098   2.421   2.436   5.551 -0.1841  0.1633  1.3996
 2378TIP3    H2 7099   2.334   2.525   5.464  0.7613 -0.1570  0.0931
 2379TIP3   OH2 7100   3.534   1.047   5.682 -0.0579 -0.0153  0.4849
 2379TIP3    H1 7101   3.562   1.018   5.595  0.4579  0.2187  0.5673
 2379TIP3    H2 7102   3.517   0.965   5.729 -0.0243 -0.1528  0.2610
 2380TIP3   OH2 7103   0.459   4.010   1.647 -0.0139  0.0375 -0.5980
 2380TIP3    H1 7104   0.421   3.935   1.602  0.9807  0.9449 -3.0995
 2380TIP3    H2 7105   0.492   3.974   1.730  1.2580 -2.4999 -2.1040
 2381TIP3   OH2 7106   0.736   1.229   1.177  0.4250  0.1667  0.0225
 2381TIP3    H1 7107   0.720   1.317   1.209 -0.0761 -0.0669  0.4245
 2381TIP3    H2 7108   0.810   1.238   1.117 -0.7013  1.1416 -1.2767
 2382TIP3   OH2 7109   1.051   2.102   2.001 -0.3110 -0.5136  0.1542
 2382TIP3    H1 7110   1.073   2.131   1.913  0.8298  0.1381  0.6303
 2382TIP3    H2 7111   1.016   2.014   1.989 -0.3989 -0.3400 -0.9701
 2383TIP3   OH2 7112   3.722   5.357   3.648 -0.1942 -0.0291 -0.4446
 2383TIP3    H1 7113   3.796   5.407   3.683 -0.0767 -1.2473  1.1896
 2383TIP3    H2 7114   3.681   5.416   3.584  0.7349  1.6065  0.3908
 2384TIP3   OH2 7115   0.650   5.938   0.461 -0.1570  0.2815  0.6109
 2384TIP3    H1 7116   0.695   5.857   0.439 -0.7847  0.7726 -3.1624
 2384TIP3    H2 7117   0.720   6.003   0.467  0.0337  0.3222 -1.4008
 2385TIP3   OH2 7118   1.375   6.648   2.190 -0.0609  0.3556 -0.6777
 2385TIP3    H1 7119   1.437   6.715   2.160 -0.0418  0.0424 -1.3568
 2385TIP3    H2 7120   1.373   6.657   2.285 -0.5334  1.7454 -0.8001
 2386TIP3   OH2 7121   6.886   2.748   4.446  0.1934 -0.4070 -0.7434
 2386TIP3    H1 7122   6.950   2.763   4.515  0.2176 -1.2720 -0.5623
 2386TIP3    H2 7123   6.822   2.687   4.484 -2.1493  2.2768 -0.0811
 2387TIP3   OH2 7124   6.436   3.802   4.477 -0.1074  0.0588  0.1522
 2387TIP3    H1 7125   6.376   3.749   4.530  1.0931 -0.3094  1.1879
 2387TIP3    H2 7126   6.452   3.748   4.399  1.1085 -1.1932  1.1961
 2388TIP3   OH2 7127   4.344   0.307   5.535 -0.3592 -0.0699  0.2386
 2388TIP3    H1 7128   4.317   0.221   5.503 -2.7348  0.9300 -0.6498
 2388TIP3    H2 7129   4.356   0.360   5.456 -0.8605  0.9352  0.8163
 2389TIP3   OH2 7130   2.370   4.347   2.142 -0.0081 -0.4371  0.0968
 2389TIP3    H1 7131   2.326   4.354   2.057  2.9743  1.7399 -1.4442
 2389TIP3    H2 7132   2.343   4.426   2.189  0.5392 -0.2029  0.0214
 2390TIP3   OH2 7133   4.005   2.710   2.933 -0.4053  0.2817 -0.4375
 2390TIP3    H1 7134   4.035   2.766   3.004 -0.7665  1.4345 -1.1579
 2390TIP3    H2 7135   3.912   2.694   2.954 -0.8179  1.5471 -1.1927
 2391TIP3   OH2 7136   2.269   6.328   3.089  0.3012 -0.1896  0.2992
 2391TIP3    H1 7137   2.297   6.353   3.001 -0.8090  0.2415  0.0544
 2391TIP3    H2 7138   2.345   6.344   3.144  1.6131 -2.1107 -0.8284
 2392TIP3   OH2 7139   1.840   0.782   3.044 -0.1466  0.4737  0.7301
 2392TIP3    H1 7140   1.895   0.746   2.974  2.4371  0.0018  2.8163
 2392TIP3    H2 7141   1.796   0.707   3.082  0.4054  0.3499  1.1462
 2393TIP3   OH2 7142   6.537   1.574   1.985  0.4912  0.3201 -0.0106
 2393TIP3    H1 7143   6.494   1.498   2.023 -1.5722  1.1397 -0.6097
 2393TIP3    H2 7144   6.546   1.552   1.892  2.0670 -0.1064  0.1977
 2394TIP3   OH2 7145   0.295   1.097   5.714 -0.2242  0.2712  0.1427
 2394TIP3    H1 7146   0.325   1.117   5.802  0.4070 -0.3727  0.0822
 2394TIP3    H2 7147   0.288   1.001   5.712  1.4791  0.1315 -1.0324
 2395TIP3   OH2 7148   0.182   3.239   5.271  0.1604  0.4927 -0.1790
 2395TIP3    H1 7149   0.233   3.159   5.260  0.4286  0.5646  0.4828
 2395TIP3    H2 7150   0.220   3.302   5.209  0.2757  0.2648 -0.3379
 2396TIP3   OH2 7151   2.538   0.466   3.321 -0.3773  0.2616  0.1761
 2396TIP3    H1 7152   2.566   0.490   3.410 -0.0049  1.1982 -0.1824
 2396TIP3    H2 7153   2.607   0.408   3.290 -0.6698 -0.3299  0.6102
 2397TIP3   OH2 7154   2.659   1.476   4.728 -0.1075  0.2072  0.5663
 2397TIP3    H1 7155   2.654   1.430   4.812  1.0041  3.9433  2.9404
 2397TIP3    H2 7156   2.580   1.530   4.726  0.0764  0.4526 -0.6565
 2398TIP3   OH2 7157   4.516   6.272   1.835 -0.2867 -0.1885  0.4210
 2398TIP3    H1 7158   4.463   6.256   1.756 -0.0040 -1.6358  0.4939
 2398TIP3    H2 7159   4.470   6.342   1.881  0.8930  2.4985 -2.2299
 2399TIP3   OH2 7160   2.620   0.494   3.566 -0.1344 -0.0357  0.1531
 2399TIP3    H1 7161   2.666   0.576   3.585  0.7669 -0.2730 -0.9032
 2399TIP3    H2 7162   2.599   0.458   3.652  0.7501  0.5900  0.6526
 2400TIP3   OH2 7163   0.797   4.135   3.816  0.1930  0.1875 -0.1693
 2400TIP3    H1 7164   0.834   4.104   3.733 -3.6616  0.0663 -2.0427
 2400TIP3    H2 7165   0.801   4.231   3.808  0.5899  0.1796 -0.0972
 2401TIP3   OH2 7166   2.848   3.340   2.019 -0.5791  0.4088 -0.0210
 2401TIP3    H1 7167   2.886   3.252   2.025  0.3208  0.8542  1.7738
 2401TIP3    H2 7168   2.889   3.379   1.942 -1.5546 -0.9677 -1.2849
 2402TIP3   OH2 7169   2.624   4.837   3.366 -0.3406 -0.1658  0.0482
 2402TIP3    H1 7170   2.567   4.865   3.295  0.7738  1.0585 -0.4171
 2402TIP3    H2 7171   2.676   4.915   3.387  2.8434 -1.7616 -1.2110
 2403TIP3   OH2 7172   3.703   3.488   1.205 -0.2077  0.1683  0.5389
 2403TIP3    H1 7173   3.772   3.445   1.153 -1.3913 -1.2622  0.0880
 2403TIP3    H2 7174   3.741   3.573   1.229  1.8154 -0.6809  0.5530
 2404TIP3   OH2 7175   1.845   0.345   4.987 -0.1700  0.7015  0.2262
 2404TIP3    H1 7176   1.862   0.439   4.985  2.4900  0.3238  1.2862
 2404TIP3    H2 7177   1.931   0.305   4.999 -1.2312 -1.8878 -0.1328
 2405TIP3   OH2 7178   4.484   1.894   5.884 -0.0600  0.3356 -0.2097
 2405TIP3    H1 7179   4.516   1.922   5.798 -0.3588  0.9325 -0.1335
 2405TIP3    H2 7180   4.521   1.957   5.946  2.0369 -1.3952  0.4281
 2406TIP3   OH2 7181   4.153   0.800   3.377  0.0007 -0.3137 -0.6417
 2406TIP3    H1 7182   4.146   0.706   3.397 -0.3694 -0.1712 -0.0427
 2406TIP3    H2 7183   4.174   0.840   3.462 -1.5222  0.3142 -0.5227
 2407TIP3   OH2 7184   4.343   4.138   1.650  0.0508  0.7663  0.4019
 2407TIP3    H1 7185   4.319   4.192   1.575  1.3774  1.1693  0.2523
 2407TIP3    H2 7186   4.269   4.148   1.710 -0.5450  1.2874 -0.3961
 2408TIP3   OH2 7187   2.722   6.758   1.819 -0.4076 -0.0550  0.2752
 2408TIP3    H1 7188   2.748   6.730   1.906 -2.8005  1.4880  1.5711
 2408TIP3    H2 7189   2.633   6.725   1.807 -1.0295  1.7767 -0.5714
 2409TIP3   OH2 7190   0.579   4.585   0.478 -0.0385  0.1934  0.1117
 2409TIP3    H1 7191   0.571   4.673   0.515 -1.9228 -0.5937  1.7600
 2409TIP3    H2 7192   0.529   4.529   0.538 -0.7482 -1.6586 -2.0696
 2410TIP3   OH2 7193   2.941   0.643   0.673 -0.5304  0.4879 -0.1792
 2410TIP3    H1 7194   2.967   0.552   0.683  1.1682  0.8666 -0.7587
 2410TIP3    H2 7195   2.893   0.664   0.754 -0.3099 -0.7013  0.2732
 2411TIP3   OH2 7196   0.932   1.798   4.497 -0.1674  0.1708  0.1848
 2411TIP3    H1 7197   0.987   1.869   4.529  2.4421 -1.7271  0.1453
 2411TIP3    H2 7198   0.926   1.737   4.570 -1.9398  0.1051  0.0433
 2412TIP3   OH2 7199   1.673   4.837   1.409  0.2300  0.3969 -0.1473
 2412TIP3    H1 7200   1.608   4.840   1.338  0.1965 -2.9212 -0.4093
 2412TIP3    H2 7201   1.745   4.893   1.378 -0.9186  1.1534 -1.5519
 2413TIP3   OH2 7202   0.231   5.100   0.440  0.1105 -0.2273  0.0110
 2413TIP3    H1 7203   0.231   5.113   0.345  1.6271  0.3227  0.0591
 2413TIP3    H2 7204   0.142   5.072   0.460 -0.2347 -0.3813 -1.5755
 2414TIP3   OH2 7205   1.222   6.155   1.711  0.3136  0.2529  0.2349
 2414TIP3    H1 7206   1.140   6.154   1.662 -0.0092  0.4205  0.7725
 2414TIP3    H2 7207   1.207   6.098   1.786  0.7930  0.0397  0.1739
 2415TIP3   OH2 7208   2.318   5.657   1.612 -0.1960 -0.7596 -0.2961
 2415TIP3    H1 7209   2.374   5.622   1.681  0.7091  1.0081 -0.0774
 2415TIP3    H2 7210   2.379   5.680   1.542 -1.0811 -2.3977 -1.6971
 2416TIP3   OH2 7211   0.675   4.627   2.673 -0.5592  0.2366 -0.7293
 2416TIP3    H1 7212   0.710   4.708   2.635  0.3673  0.2631  0.1611
 2416TIP3    H2 7213   0.678   4.564   2.601 -0.0543  0.6420 -1.0736
 2417TIP3   OH2 7214   1.351   0.629   2.839 -0.5281 -0.4098  0.8777
 2417TIP3    H1 7215   1.444   0.633   2.861  0.1268 -2.1792 -1.2205
 2417TIP3    H2 7216   1.334   0.710   2.791  0.1758 -0.5020  0.4647
 2418TIP3   OH2 7217   5.948   4.284   4.778  0.0151  0.3964  0.8882
 2418TIP3    H1 7218   6.023   4.232   4.750 -0.8386 -1.0141  1.1462
 2418TIP3    H2 7219   5.931   4.343   4.704  0.8657  0.1864  0.5115
 2419TIP3   OH2 7220   6.345   1.076   0.643 -0.2907 -0.3689  0.0678
 2419TIP3    H1 7221   6.330   1.096   0.735  1.3946 -1.2004  0.5699
 2419TIP3    H2 7222   6.358   1.162   0.602 -0.8921 -0.0005  0.6247
 2420TIP3   OH2 7223   4.502   2.365   1.610 -0.0746  0.0594 -0.4312
 2420TIP3    H1 7224   4.492   2.452   1.647  0.6875  0.0165 -0.1024
 2420TIP3    H2 7225   4.587   2.335   1.642 -0.0243 -0.5337 -1.0888
 2421TIP3   OH2 7226   4.227   2.020   4.136  0.7636 -0.1827  0.2447
 2421TIP3    H1 7227   4.254   1.929   4.132 -0.1368 -0.4689  0.4758
 2421TIP3    H2 7228   4.261   2.051   4.220 -1.7280 -1.2604  1.7326
 2422TIP3   OH2 7229   6.742   4.848   5.086 -0.6174 -0.6634  0.2849
 2422TIP3    H1 7230   6.814   4.876   5.143  1.1485  0.8867 -2.4973
 2422TIP3    H2 7231   6.776   4.773   5.038 -1.2248 -0.5165 -0.3913
 2423TIP3   OH2 7232   5.367   2.997   4.791 -0.0824  0.2208 -0.2717
 2423TIP3    H1 7233   5.308   2.944   4.738  0.2965 -0.3229 -0.1563
 2423TIP3    H2 7234   5.454   2.961   4.774  0.1119  0.4144  0.2737
 2424TIP3   OH2 7235   0.747   3.707   1.499  0.2647  0.6849 -0.0560
 2424TIP3    H1 7236   0.676   3.771   1.505 -0.1762  0.2704 -0.8288
 2424TIP3    H2 7237   0.816   3.753   1.451  0.0454  0.6717 -0.3889
 2425TIP3   OH2 7238   2.395   0.938   1.740 -0.0918 -0.5598 -0.1758
 2425TIP3    H1 7239   2.401   0.877   1.815  0.9286 -1.5116 -0.9917
 2425TIP3    H2 7240   2.429   1.020   1.774 -0.0175 -0.8655  0.5212
 2426TIP3   OH2 7241   3.641   3.435   3.270 -0.2185  0.6271 -0.2699
 2426TIP3    H1 7242   3.680   3.432   3.358  0.5568  0.1092 -0.6121
 2426TIP3    H2 7243   3.639   3.344   3.242  0.4393  0.8693 -1.1603
 2427TIP3   OH2 7244   0.388   2.821   0.622  0.0721  0.0712 -0.2158
 2427TIP3    H1 7245   0.450   2.802   0.552 -1.3686 -2.8764 -0.8364
 2427TIP3    H2 7246   0.356   2.909   0.602  1.3390  0.1897 -1.9388
 2428TIP3   OH2 7247   4.405   4.179   5.396  0.2395 -1.0386  0.8857
 2428TIP3    H1 7248   4.320   4.178   5.441  0.0604 -0.6072  0.5542
 2428TIP3    H2 7249   4.396   4.115   5.326 -1.0238  1.3849 -1.3548
 2429TIP3   OH2 7250   6.127   1.258   3.909 -0.2544  0.3653 -0.3591
 2429TIP3    H1 7251   6.052   1.318   3.905 -1.1715 -0.7504 -0.5045
 2429TIP3    H2 7252   6.198   1.306   3.867 -1.3912  0.7791 -1.9348
 2430TIP3   OH2 7253   4.657   5.824   2.627 -0.4034  0.4378  0.0936
 2430TIP3    H1 7254   4.749   5.848   2.617 -0.3211  0.1827  0.2353
 2430TIP3    H2 7255   4.612   5.873   2.558 -0.2051  0.8071  0.2195
 2431TIP3   OH2 7256   2.945   2.349   2.493  0.0475 -0.5288 -0.1111
 2431TIP3    H1 7257   2.937   2.358   2.588  0.0820  0.5664 -0.2079
 2431TIP3    H2 7258   2.950   2.254   2.478  1.1877 -0.6798  1.0657
 2432TIP3   OH2 7259   5.690   5.586   5.210 -0.0883  0.1913  0.4049
 2432TIP3    H1 7260   5.772   5.538   5.193 -1.2247 -1.6418 -0.2590
 2432TIP3    H2 7261   5.649   5.593   5.123 -0.3050  1.7981  0.6042
 2433TIP3   OH2 7262   5.790   4.746   0.935  0.0874 -0.3282 -0.4005
 2433TIP3    H1 7263   5.852   4.678   0.962  1.0911  0.3395 -0.9642
 2433TIP3    H2 7264   5.704   4.709   0.954  0.5988 -1.8743 -0.9506
 2434TIP3   OH2 7265   4.043   2.620   0.997 -0.1937  0.5100 -0.4267
 2434TIP3    H1 7266   4.124   2.607   1.046  1.3086 -0.3767 -2.9411
 2434TIP3    H2 7267   4.022   2.712   1.009  0.0102  0.2912  1.9294
 2435TIP3   OH2 7268   2.665   4.600   0.061 -0.0305  0.4740  0.4995
 2435TIP3    H1 7269   2.724   4.645   0.122  1.0600  0.1107 -0.2569
 2435TIP3    H2 7270   2.636   4.522   0.108 -0.8689  1.2423  1.3123
 2436TIP3   OH2 7271   5.011   6.057   3.035  0.1765  0.5743 -0.0973
 2436TIP3    H1 7272   5.048   6.019   3.114 -1.7462 -0.0300  0.5635
 2436TIP3    H2 7273   4.960   5.986   2.996 -0.9406  1.5697 -0.5116
 2437TIP3   OH2 7274   3.072   2.478   3.840  0.3057  0.9507 -0.2935
 2437TIP3    H1 7275   3.160   2.502   3.810  0.2583  0.0855 -1.1712
 2437TIP3    H2 7276   3.087   2.410   3.906  0.2736 -0.5759 -1.7813
 2438TIP3   OH2 7277   3.632   6.185   3.687 -0.5646 -0.7131 -0.7493
 2438TIP3    H1 7278   3.677   6.205   3.605 -0.6890  0.1247 -0.6201
 2438TIP3    H2 7279   3.565   6.252   3.695 -0.8764 -1.0814 -0.2007
 2439TIP3   OH2 7280   4.635   5.212   5.363 -0.3039  0.1194 -0.7007
 2439TIP3    H1 7281   4.643   5.206   5.268  0.9441  1.7480 -0.7359
 2439TIP3    H2 7282   4.644   5.305   5.382  1.3482 -0.3482  1.1508
 2440TIP3   OH2 7283   0.693   0.584   4.278 -0.4664 -0.2902 -0.2146
 2440TIP3    H1 7284   0.704   0.567   4.184 -0.1277  0.9097 -0.4025
 2440TIP3    H2 7285   0.718   0.501   4.319  1.2592 -0.2731 -1.0930
 2441TIP3   OH2 7286   6.995   4.680   5.715  0.0436  0.1283 -0.5786
 2441TIP3    H1 7287   6.964   4.599   5.756 -2.0625  1.0262 -0.2145
 2441TIP3    H2 7288   6.918   4.712   5.666  0.3719  2.5718  0.3907
 2442TIP3   OH2 7289   3.120   6.815   2.180  0.0634 -0.2944 -0.0087
 2442TIP3    H1 7290   3.154   6.734   2.220 -1.2670 -0.8933 -0.0573
 2442TIP3    H2 7291   3.089   6.788   2.093  0.7462  0.5323 -0.5298
 2443TIP3   OH2 7292   5.672   1.289   1.248 -0.7453  0.1353 -0.4046
 2443TIP3    H1 7293   5.642   1.199   1.266  0.7132 -0.4147 -0.5772
 2443TIP3    H2 7294   5.692   1.289   1.155  0.0935  0.3837 -0.2286
 2444TIP3   OH2 7295   3.687   3.734   5.487 -0.0617  0.1097 -0.1347
 2444TIP3    H1 7296   3.721   3.740   5.398  1.7283 -0.2664  0.5004
 2444TIP3    H2 7297   3.693   3.641   5.509  0.2634  0.3168  0.6630
 2445TIP3   OH2 7298   6.626   0.092   2.072 -0.4084  0.0844  0.6082
 2445TIP3    H1 7299   6.606   0.175   2.028  1.5088  0.5698  0.5332
 2445TIP3    H2 7300   6.544   0.044   2.072 -1.2262  1.3952 -0.6560
 2446TIP3   OH2 7301   6.878   2.554   5.241  0.1788 -0.4447 -0.2752
 2446TIP3    H1 7302   6.797   2.579   5.286  0.4787 -1.6325  1.0031
 2446TIP3    H2 7303   6.855   2.475   5.192  0.3414 -0.2608 -0.6507
 2447TIP3   OH2 7304   0.100   3.532   4.441  0.2415  0.1973  0.0908
 2447TIP3    H1 7305   0.168   3.484   4.394 -0.6740  0.3670 -1.4620
 2447TIP3    H2 7306   0.089   3.613   4.392 -0.6950  0.4302  0.6430
 2448TIP3   OH2 7307   3.078   1.309   3.398 -0.4889 -0.3872  0.3016
 2448TIP3    H1 7308   3.123   1.371   3.455 -0.4127 -0.0252 -0.1499
 2448TIP3    H2 7309   3.052   1.238   3.456 -0.8753  0.2229  0.8837
 2449TIP3   OH2 7310   3.654   5.402   4.819  0.1240 -0.0708  0.2818
 2449TIP3    H1 7311   3.566   5.391   4.783  0.7183  1.6669 -1.9834
 2449TIP3    H2 7312   3.642   5.405   4.913 -1.9432 -1.9932  0.1687
 2450TIP3   OH2 7313   0.894   3.742   1.038 -0.2744  0.1381  0.7656
 2450TIP3    H1 7314   0.916   3.681   1.109 -1.3638  1.2475  2.1200
 2450TIP3    H2 7315   0.843   3.690   0.976 -1.3852 -0.3122  2.0110
 2451TIP3   OH2 7316   3.088   0.392   2.871 -0.3379  0.2524 -0.4000
 2451TIP3    H1 7317   3.080   0.301   2.841  2.0448  0.7291 -2.7861
 2451TIP3    H2 7318   3.020   0.439   2.823 -0.4410  0.0435 -0.4640
 2452TIP3   OH2 7319   6.265   2.489   0.795  0.1732  0.1193 -0.2139
 2452TIP3    H1 7320   6.206   2.425   0.834  0.2688 -0.1357 -0.4849
 2452TIP3    H2 7321   6.234   2.573   0.828  0.3670 -0.1028  0.5617
 2453TIP3   OH2 7322   6.253   2.047   2.452  0.2999 -0.0974  0.0197
 2453TIP3    H1 7323   6.269   2.005   2.367  0.9603  1.9071 -0.9181
 2453TIP3    H2 7324   6.318   2.009   2.510  1.8896  0.6388 -1.1845
 2454TIP3   OH2 7325   4.164   5.760   2.602 -0.0180  0.3992 -0.6732
 2454TIP3    H1 7326   4.082   5.799   2.572 -2.1255 -1.1590  2.5024
 2454TIP3    H2 7327   4.159   5.762   2.697  2.8517 -1.3499 -0.3506
 2455TIP3   OH2 7328   5.552   4.205   3.329 -0.4245  0.3365  0.5127
 2455TIP3    H1 7329   5.594   4.202   3.243 -1.5722 -1.2405 -0.0439
 2455TIP3    H2 7330   5.517   4.294   3.336  0.7672  0.8652 -0.1014
 2456TIP3   OH2 7331   4.228   5.255   5.541 -0.0232 -0.5885 -0.4539
 2456TIP3    H1 7332   4.272   5.321   5.487 -1.1235  1.2549  0.7823
 2456TIP3    H2 7333   4.293   5.185   5.551  1.5314  0.6981 -1.1195
 2457TIP3   OH2 7334   6.712   6.459   1.060 -0.2437  0.0188 -0.3604
 2457TIP3    H1 7335   6.669   6.401   1.124 -0.3230 -0.3613 -0.7551
 2457TIP3    H2 7336   6.783   6.406   1.024 -0.2529  0.2068 -0.6513
 2458TIP3   OH2 7337   3.090   2.800   0.993  0.2628 -0.4910 -0.0182
 2458TIP3    H1 7338   3.121   2.760   0.911 -0.8058  0.4107 -0.8885
 2458TIP3    H2 7339   3.103   2.732   1.059  2.2191 -0.8413 -0.6958
 2459TIP3   OH2 7340   3.249   1.692   0.282  0.3006  0.2459  0.3676
 2459TIP3    H1 7341   3.251   1.734   0.195 -0.9800 -0.6002 -0.0947
 2459TIP3    H2 7342   3.256   1.765   0.343  2.2091  0.7853 -0.4263
 2460TIP3   OH2 7343   4.325   3.726   5.067  0.1645  0.1410  0.0503
 2460TIP3    H1 7344   4.328   3.633   5.043  3.1400  0.2332 -0.2860
 2460TIP3    H2 7345   4.251   3.761   5.017 -0.7279 -1.9394 -0.1856
 2461TIP3   OH2 7346   0.174   4.195   3.468  0.1514  0.1688  0.9223
 2461TIP3    H1 7347   0.124   4.259   3.520  0.9756  1.1641  0.5306
 2461TIP3    H2 7348   0.107   4.146   3.421 -0.4884  1.4898  0.3958
 2462TIP3   OH2 7349   5.151   6.603   5.388 -0.2380  0.6914 -0.1265
 2462TIP3    H1 7350   5.160   6.698   5.390 -1.4918  0.8209  1.6584
 2462TIP3    H2 7351   5.088   6.583   5.457  1.3438 -1.5816  0.7803
 2463TIP3   OH2 7352   6.380   4.339   5.307  0.0415  0.1712 -0.2258
 2463TIP3    H1 7353   6.304   4.396   5.297  0.7054  1.1237 -0.0807
 2463TIP3    H2 7354   6.446   4.395   5.348  0.6435 -0.7886  0.1522
 2464TIP3   OH2 7355   0.078   0.298   3.801  0.6822 -0.7153  0.3412
 2464TIP3    H1 7356   0.050   0.261   3.718  0.8741 -3.5457  1.4458
 2464TIP3    H2 7357   0.061   0.392   3.792 -2.2043 -1.3016 -1.7233
 2465TIP3   OH2 7358   1.960   4.634   1.957  0.5099 -0.1529 -0.4530
 2465TIP3    H1 7359   1.994   4.582   2.030  2.1524  1.5347  0.0863
 2465TIP3    H2 7360   1.938   4.719   1.997 -1.8898 -0.2965 -1.3256
 2466TIP3   OH2 7361   1.160   5.491   5.046  0.2178 -0.0619  0.2092
 2466TIP3    H1 7362   1.164   5.568   5.104 -2.8252  1.0799 -0.9220
 2466TIP3    H2 7363   1.166   5.527   4.958  1.9279 -1.5149 -0.3293
 2467TIP3   OH2 7364   2.984   0.720   1.692 -0.3388 -0.3850 -0.1887
 2467TIP3    H1 7365   2.972   0.628   1.717  0.0974 -0.1101  1.0744
 2467TIP3    H2 7366   3.078   0.729   1.678 -0.2566  0.1002  0.6432
 2468TIP3   OH2 7367   2.014   2.560   5.208 -0.3211 -0.3094  0.1506
 2468TIP3    H1 7368   2.023   2.608   5.125 -3.6781 -0.1850 -0.3021
 2468TIP3    H2 7369   2.099   2.518   5.221  1.0065  1.3909 -2.2380
 2469TIP3   OH2 7370   5.394   6.802   0.984  0.4158  0.4807  0.2698
 2469TIP3    H1 7371   5.365   6.743   1.053 -0.0034 -0.7998 -0.9306
 2469TIP3    H2 7372   5.370   6.756   0.903  0.6309  2.0423 -0.7162
 2470TIP3   OH2 7373   3.754   5.237   2.728  0.1219 -0.1867 -0.2680
 2470TIP3    H1 7374   3.757   5.324   2.688 -0.4229 -0.1274 -0.1957
 2470TIP3    H2 7375   3.785   5.178   2.660 -0.4744 -0.0468 -0.6643
 2471TIP3   OH2 7376   4.108   4.606   2.131 -0.5127  0.0894 -0.0409
 2471TIP3    H1 7377   4.059   4.683   2.161 -0.6836 -0.2142  0.4874
 2471TIP3    H2 7378   4.190   4.609   2.179 -0.2137  0.3296 -0.5595
 2472TIP3   OH2 7379   4.952   1.888   0.666  0.0731  0.2377  0.2559
 2472TIP3    H1 7380   4.937   1.871   0.759 -0.6589 -2.0011 -0.2051
 2472TIP3    H2 7381   5.024   1.951   0.665 -0.7626  1.3287  2.3402
 2473TIP3   OH2 7382   1.087   2.196   2.357 -0.0437  0.2856  0.3413
 2473TIP3    H1 7383   1.174   2.185   2.319  0.8949  1.7325  1.9432
 2473TIP3    H2 7384   1.069   2.111   2.399  0.7346  0.0816  0.2843
 2474TIP3   OH2 7385   6.052   2.267   3.423 -0.2885 -0.7405 -0.0828
 2474TIP3    H1 7386   6.015   2.256   3.336 -0.8516  1.8091 -0.2571
 2474TIP3    H2 7387   5.990   2.224   3.482 -0.1868 -1.9964 -0.8515
 2475TIP3   OH2 7388   4.668   5.372   5.891  0.3511  0.1412 -0.1063
 2475TIP3    H1 7389   4.624   5.403   5.812  1.1374 -0.2075 -0.6986
 2475TIP3    H2 7390   4.685   5.279   5.874 -0.8898 -0.3670  1.1386
 2476TIP3   OH2 7391   2.348   3.623   2.538 -0.6334  0.3333  0.5037
 2476TIP3    H1 7392   2.262   3.645   2.503 -1.0512 -0.6032  0.9019
 2476TIP3    H2 7393   2.403   3.608   2.461 -1.2574 -0.6146  0.2231
 2477TIP3   OH2 7394   1.797   1.599   3.537  0.2649  0.0585  0.1979
 2477TIP3    H1 7395   1.710   1.606   3.498  0.2463  0.1019  0.2462
 2477TIP3    H2 7396   1.791   1.525   3.597  0.0607  0.4832  0.7157
 2478TIP3   OH2 7397   5.668   5.664   4.249 -0.6028  0.0519  0.4091
 2478TIP3    H1 7398   5.668   5.600   4.320  1.0574 -1.0201 -0.4850
 2478TIP3    H2 7399   5.601   5.632   4.188  0.2193 -0.8961 -0.0366
 2479TIP3   OH2 7400   1.585   4.326   3.945  0.3325 -0.0719 -0.2797
 2479TIP3    H1 7401   1.624   4.402   3.989 -0.9365 -0.4284  1.6216
 2479TIP3    H2 7402   1.653   4.260   3.946  0.5471  0.1411  0.6603
 2480TIP3   OH2 7403   2.883   4.685   1.473  0.4714  0.1748  0.3394
 2480TIP3    H1 7404   2.908   4.732   1.393 -2.7031  0.2588 -0.7397
 2480TIP3    H2 7405   2.915   4.595   1.458 -0.6866 -0.0020 -1.4387
 2481TIP3   OH2 7406   3.727   0.474   1.511  0.4120  0.0344 -0.1143
 2481TIP3    H1 7407   3.774   0.521   1.580  0.9674 -0.9830  0.2246
 2481TIP3    H2 7408   3.729   0.533   1.436  1.4001  0.4071  0.1889
 2482TIP3   OH2 7409   7.055   0.078   4.443  0.0842 -0.2159 -0.2825
 2482TIP3    H1 7410   7.081  -0.003   4.487 -0.3289 -0.2568 -0.1013
 2482TIP3    H2 7411   6.959   0.079   4.451  0.1309  0.5863  0.2368
 2483TIP3   OH2 7412   6.107   2.070   3.662  0.0559  0.0580 -0.2876
 2483TIP3    H1 7413   6.185   2.023   3.692 -0.0130  0.1823  0.0878
 2483TIP3    H2 7414   6.091   2.035   3.574  0.3798 -0.1586 -0.2631
 2484TIP3   OH2 7415   1.522   1.765   1.089 -0.1815  0.1779  0.6079
 2484TIP3    H1 7416   1.438   1.754   1.133  0.8122 -2.3542  2.0943
 2484TIP3    H2 7417   1.551   1.676   1.069  0.6427  1.0875 -3.0170
 2485TIP3   OH2 7418   1.427   1.988   0.891  0.0463  0.1738 -0.0846
 2485TIP3    H1 7419   1.427   1.922   0.961 -1.9374  1.4117  1.1661
 2485TIP3    H2 7420   1.370   2.058   0.924  0.6063  1.6818 -2.1529
 2486TIP3   OH2 7421   5.678   4.788   5.402 -0.2372 -0.1811  0.1397
 2486TIP3    H1 7422   5.755   4.832   5.366  0.0458 -0.1366  0.7762
 2486TIP3    H2 7423   5.612   4.856   5.409  0.0840  0.0800  0.7839
 2487TIP3   OH2 7424   0.428   3.867   5.006  0.0554 -0.1539 -0.0484
 2487TIP3    H1 7425   0.399   3.778   4.988  1.4680 -1.0392  1.7193
 2487TIP3    H2 7426   0.490   3.887   4.936  0.5473 -1.0063  0.1267
 2488TIP3   OH2 7427   6.119   5.570   5.230 -0.4275 -0.0185  0.3919
 2488TIP3    H1 7428   6.067   5.490   5.229  2.4907 -2.0504 -0.0684
 2488TIP3    H2 7429   6.149   5.579   5.320  0.3533 -0.2826  0.1743
 2489TIP3   OH2 7430   0.788   2.020   3.223 -0.0957  0.0364 -0.1858
 2489TIP3    H1 7431   0.766   2.034   3.131  0.7758  2.2302 -0.1350
 2489TIP3    H2 7432   0.873   1.978   3.221  0.2442  0.7107 -0.4184
 2490TIP3   OH2 7433   4.515   2.995   3.084  0.0116 -0.0772 -0.0887
 2490TIP3    H1 7434   4.545   2.966   3.170 -0.8798 -0.0167  0.2563
 2490TIP3    H2 7435   4.530   3.089   3.083  3.0036 -0.4660 -1.2469
 2491TIP3   OH2 7436   1.816   3.820   2.573  0.2143 -0.9394 -0.2268
 2491TIP3    H1 7437   1.832   3.801   2.480 -0.2687 -2.7095  0.0138
 2491TIP3    H2 7438   1.902   3.839   2.609  0.3663  0.0928 -1.0897
 2492TIP3   OH2 7439   4.303   0.970   3.589 -0.2180 -0.0851 -0.0041
 2492TIP3    H1 7440   4.345   0.928   3.664  0.8336 -1.2152 -1.1928
 2492TIP3    H2 7441   4.281   1.058   3.620 -1.1003 -0.9900  2.0654
 2493TIP3   OH2 7442   2.762   1.611   0.228  0.5391  0.0774 -0.0555
 2493TIP3    H1 7443   2.777   1.614   0.322  1.6111 -0.2731 -0.2028
 2493TIP3    H2 7444   2.808   1.533   0.198 -1.9072 -1.2795 -0.5263
 2494TIP3   OH2 7445   3.850   3.631   4.921  0.2637 -0.3087  0.4388
 2494TIP3    H1 7446   3.851   3.536   4.926  0.3911 -0.3054  0.4705
 2494TIP3    H2 7447   3.764   3.656   4.954 -0.8005 -0.5648 -1.9521
 2495TIP3   OH2 7448   6.429   5.801   3.838 -0.2472 -0.1583  0.7876
 2495TIP3    H1 7449   6.368   5.853   3.892  0.3180  1.0704  0.2807
 2495TIP3    H2 7450   6.482   5.754   3.902 -0.7427 -0.0871  1.2669
 2496TIP3   OH2 7451   6.254   3.918   0.945 -0.1974 -0.0162 -0.1407
 2496TIP3    H1 7452   6.313   3.977   0.991 -0.1363 -0.9422  0.9930
 2496TIP3    H2 7453   6.167   3.942   0.976 -0.1152 -1.0045  0.9304
 2497TIP3   OH2 7454   0.466   6.687   4.766 -0.0802 -0.4382  0.1469
 2497TIP3    H1 7455   0.441   6.710   4.677  1.0685  1.2642  0.2094
 2497TIP3    H2 7456   0.417   6.607   4.786 -2.8132  0.8657 -0.8782
 2498TIP3   OH2 7457   5.583   4.108   4.205  0.3155 -0.1851  0.3485
 2498TIP3    H1 7458   5.586   4.079   4.113  1.2738 -2.0689  0.9139
 2498TIP3    H2 7459   5.510   4.059   4.243 -0.0422  0.5461  0.6008
 2499TIP3   OH2 7460   0.819   3.405   2.653 -0.2324 -0.5859 -0.6005
 2499TIP3    H1 7461   0.821   3.489   2.606  0.4570  0.6399  1.4864
 2499TIP3    H2 7462   0.911   3.387   2.673 -0.2444 -2.4545 -1.9206
 2500TIP3   OH2 7463   6.922   0.125   5.060  0.1433  0.4187  0.2893
 2500TIP3    H1 7464   6.885   0.056   5.114 -0.9147  0.3806 -0.4521
 2500TIP3    H2 7465   6.927   0.087   4.972 -0.2823  1.2193 -0.0920
 2501TIP3   OH2 7466   4.176   2.869   3.786 -0.0386  0.3523 -0.1745
 2501TIP3    H1 7467   4.138   2.861   3.699  0.2252  1.3405 -0.3860
 2501TIP3    H2 7468   4.266   2.897   3.771  0.6131 -1.2848  0.3480
 2502TIP3   OH2 7469   2.391   3.484   4.760 -0.0179 -0.1560  0.0013
 2502TIP3    H1 7470   2.332   3.496   4.685 -0.4925  2.5839  0.6848
 2502TIP3    H2 7471   2.452   3.558   4.754  2.2879 -1.9137  0.3355
 2503TIP3   OH2 7472   4.086   4.750   5.287  0.4777 -0.4055  0.1932
 2503TIP3    H1 7473   4.164   4.748   5.343  0.1468  0.6077  0.7082
 2503TIP3    H2 7474   4.021   4.799   5.337 -0.2519 -0.5834 -0.5518
 2504TIP3   OH2 7475   3.784   1.324   4.471  0.0257  0.4183 -0.5408
 2504TIP3    H1 7476   3.714   1.320   4.537 -0.4271  0.3411 -1.0223
 2504TIP3    H2 7477   3.847   1.258   4.499 -0.0247  0.5781 -0.0287
 2505TIP3   OH2 7478   7.038   3.191   3.379 -0.4071 -0.5031 -0.1729
 2505TIP3    H1 7479   7.097   3.248   3.330 -1.0881  0.0096 -0.4085
 2505TIP3    H2 7480   7.096   3.133   3.428  0.3151  0.6750  0.4111
 2506TIP3   OH2 7481   1.413   0.056   3.671  0.0406  0.1847 -0.2911
 2506TIP3    H1 7482   1.430   0.091   3.584 -0.0640 -0.6422 -0.6493
 2506TIP3    H2 7483   1.499   0.050   3.712 -0.0304  1.8420  0.1725
 2507TIP3   OH2 7484   5.174   3.467   2.751  0.5953 -0.2212  0.5132
 2507TIP3    H1 7485   5.238   3.396   2.744  0.1036 -0.6278  0.0140
 2507TIP3    H2 7486   5.134   3.454   2.838  1.2460  0.0895  0.8634
 2508TIP3   OH2 7487   0.962   0.445   2.582 -0.4038 -0.3057  0.0212
 2508TIP3    H1 7488   0.925   0.430   2.669  0.6842 -0.4075  0.4792
 2508TIP3    H2 7489   0.974   0.540   2.578  0.4397 -0.3877  0.3718
 2509TIP3   OH2 7490   0.977   0.881   5.614 -0.5738 -0.3481 -0.0906
 2509TIP3    H1 7491   1.011   0.806   5.663  0.2959 -0.9043 -1.5038
 2509TIP3    H2 7492   0.897   0.848   5.572  0.5068 -0.9416 -1.7893
 2510TIP3   OH2 7493   0.869   5.113   4.902  0.3485  0.0361 -0.5425
 2510TIP3    H1 7494   0.863   5.142   4.993 -0.7333  0.9410 -0.8926
 2510TIP3    H2 7495   0.961   5.125   4.879  0.9928 -1.6512  0.8765
 2511TIP3   OH2 7496   4.627   4.094   4.241 -0.5132 -0.5702 -0.8702
 2511TIP3    H1 7497   4.580   4.012   4.227 -0.2234 -0.7714 -0.6757
 2511TIP3    H2 7498   4.560   4.155   4.272 -1.0197 -0.3187 -2.4095
 2512TIP3   OH2 7499   6.107   3.744   3.713 -0.5343 -0.0679 -0.6741
 2512TIP3    H1 7500   6.045   3.817   3.719 -0.2197  0.2051 -0.7469
 2512TIP3    H2 7501   6.054   3.667   3.734 -0.5571  0.3128  0.7545
 2513TIP3   OH2 7502   3.048   4.942   1.643  0.7571 -0.2026 -0.1506
 2513TIP3    H1 7503   2.993   4.964   1.568  1.6067 -0.8161 -0.9742
 2513TIP3    H2 7504   2.988   4.901   1.705 -0.0348  0.6712 -0.3197
 2514TIP3   OH2 7505   3.737   1.246   1.749 -0.2761 -0.7745 -0.0213
 2514TIP3    H1 7506   3.664   1.251   1.688  0.9493 -0.6898 -1.5616
 2514TIP3    H2 7507   3.752   1.337   1.776  0.3670 -0.5412 -1.1113
 2515TIP3   OH2 7508   0.791   2.914   0.738  0.3362  0.3037 -0.0326
 2515TIP3    H1 7509   0.883   2.893   0.755  0.2725  0.4337  0.4902
 2515TIP3    H2 7510   0.772   2.871   0.654  1.1574  1.1341 -0.6601
 2516TIP3   OH2 7511   5.276   0.179   3.584  0.1769 -0.1077 -0.1472
 2516TIP3    H1 7512   5.215   0.143   3.649  0.5662  2.0307  1.4944
 2516TIP3    H2 7513   5.222   0.238   3.532  0.3830  0.0964 -0.1294
 2517TIP3   OH2 7514   4.941   1.064   1.852  0.4840  0.0903 -0.6280
 2517TIP3    H1 7515   4.951   1.007   1.928 -0.4364  0.1573 -0.4347
 2517TIP3    H2 7516   5.015   1.125   1.857  0.3319  0.2175  0.3324
 2518TIP3   OH2 7517   0.971   5.774   3.711  0.0898 -0.4274 -0.3429
 2518TIP3    H1 7518   0.990   5.862   3.676 -1.1496  0.0239  0.0526
 2518TIP3    H2 7519   1.028   5.716   3.661  1.4842  0.6718 -0.1159
 2519TIP3   OH2 7520   5.751   1.634   2.839  0.2584 -0.4278 -0.6711
 2519TIP3    H1 7521   5.793   1.646   2.754  0.5582  1.0717 -0.3430
 2519TIP3    H2 7522   5.768   1.716   2.886 -1.9496 -0.2860 -0.0333
 2520TIP3   OH2 7523   3.704   2.740   3.860  0.1515  0.7253 -0.0601
 2520TIP3    H1 7524   3.635   2.792   3.819  0.0942  2.0961  1.6400
 2520TIP3    H2 7525   3.786   2.780   3.830  0.1298  1.0430  0.2940
 2521TIP3   OH2 7526   4.145   5.189   2.190 -0.6083  0.2793 -0.0662
 2521TIP3    H1 7527   4.064   5.197   2.139 -0.5252 -0.5316 -0.3282
 2521TIP3    H2 7528   4.143   5.100   2.225  0.4306  0.0612 -0.5275
 2522TIP3   OH2 7529   2.254   0.839   4.602 -0.4114 -0.3488 -0.2712
 2522TIP3    H1 7530   2.294   0.878   4.679  0.1891  1.7933 -1.5681
 2522TIP3    H2 7531   2.324   0.786   4.563 -0.0991  0.1466 -0.3875
 2523TIP3   OH2 7532   2.300   3.117   1.411 -0.2045 -0.3321  0.1445
 2523TIP3    H1 7533   2.301   3.128   1.316 -0.4223  1.2241  0.2882
 2523TIP3    H2 7534   2.277   3.204   1.444  1.1843 -0.5191  1.6763
 2524TIP3   OH2 7535   6.966   4.574   2.259  0.3837 -0.3496 -0.1206
 2524TIP3    H1 7536   7.018   4.496   2.276  0.4207 -0.3370 -0.1767
 2524TIP3    H2 7537   6.888   4.541   2.214  0.0018 -0.4559  0.6085
 2525TIP3   OH2 7538   5.496   6.169   1.467 -0.2825 -0.4299 -0.4112
 2525TIP3    H1 7539   5.569   6.114   1.438 -0.3991 -1.2125  0.6885
 2525TIP3    H2 7540   5.537   6.238   1.519 -0.3499 -1.3983  0.9931
 2526TIP3   OH2 7541   2.487   6.120   2.551  0.3743 -0.1684 -0.2915
 2526TIP3    H1 7542   2.470   6.035   2.512 -0.6033 -0.0717 -0.1019
 2526TIP3    H2 7543   2.415   6.175   2.521  1.1979  0.7092 -0.7336
 2527TIP3   OH2 7544   2.308   4.777   4.077  0.0829 -0.0531  0.0374
 2527TIP3    H1 7545   2.377   4.742   4.020  1.2835  0.9728  0.8026
 2527TIP3    H2 7546   2.261   4.839   4.021 -0.1926 -0.7151 -0.4738
 2528TIP3   OH2 7547   6.575   4.883   0.650  0.2677 -0.6685 -0.2850
 2528TIP3    H1 7548   6.545   4.794   0.669 -1.0763 -0.4580 -1.2605
 2528TIP3    H2 7549   6.664   4.871   0.615  0.6754 -1.4732  0.9438
 2529TIP3   OH2 7550   0.811   2.925   3.681  0.5935  0.1181  0.1755
 2529TIP3    H1 7551   0.793   2.999   3.739 -1.4658 -0.7368  0.6811
 2529TIP3    H2 7552   0.778   2.848   3.727  0.5190 -0.8160 -1.3542
 2530TIP3   OH2 7553   1.195   1.047   4.604  0.5330  0.2761 -0.6511
 2530TIP3    H1 7554   1.230   0.976   4.552  0.0133  0.7158 -1.6259
 2530TIP3    H2 7555   1.267   1.073   4.662  1.4124  0.3456 -1.7422
 2531TIP3   OH2 7556   6.036   4.587   4.749  0.6470  0.3009 -0.1950
 2531TIP3    H1 7557   6.012   4.675   4.778 -0.1685 -0.3826  1.3130
 2531TIP3    H2 7558   6.118   4.599   4.701 -0.0151  2.0163 -0.9916
 2532TIP3   OH2 7559   5.504   0.184   5.609  0.0624  0.2195 -0.4055
 2532TIP3    H1 7560   5.540   0.154   5.525  0.1728 -0.1579 -0.2242
 2532TIP3    H2 7561   5.567   0.153   5.674 -0.3921 -0.0978 -0.1188
 2533TIP3   OH2 7562   5.994   6.713   4.494  0.0314  0.3279 -0.1291
 2533TIP3    H1 7563   5.930   6.739   4.560  1.0473 -0.6039  1.2928
 2533TIP3    H2 7564   5.943   6.667   4.427 -0.7500 -0.8532  1.2221
 2534TIP3   OH2 7565   1.824   1.272   2.809  0.2500  0.4186 -0.0492
 2534TIP3    H1 7566   1.786   1.341   2.863  1.7234  1.2145  0.0160
 2534TIP3    H2 7567   1.822   1.307   2.720  0.2562  0.2072 -0.1336
 2535TIP3   OH2 7568   2.707   1.917   5.474 -0.1159 -0.4569  0.5568
 2535TIP3    H1 7569   2.802   1.923   5.470 -0.2160  1.0532  0.0434
 2535TIP3    H2 7570   2.678   2.000   5.510 -1.3519  0.1131 -1.5505
 2536TIP3   OH2 7571   5.497   5.625   5.824  0.1663  0.2363  0.3060
 2536TIP3    H1 7572   5.498   5.592   5.914  0.7576 -2.3464 -0.5489
 2536TIP3    H2 7573   5.575   5.586   5.784 -0.9269  0.0064 -1.7287
 2537TIP3   OH2 7574   6.569   6.197   1.099 -0.2743  0.3519 -0.5151
 2537TIP3    H1 7575   6.484   6.157   1.121 -0.3663  1.6045  1.6652
 2537TIP3    H2 7576   6.610   6.213   1.183  2.0923 -0.0205 -1.5204
 2538TIP3   OH2 7577   1.023   5.154   4.000  0.8390 -0.3005 -0.4839
 2538TIP3    H1 7578   0.946   5.194   4.040  0.7395 -0.0133 -0.9584
 2538TIP3    H2 7579   1.032   5.070   4.046  1.1334  0.3089  0.6071
 2539TIP3   OH2 7580   6.084   0.705   0.884  0.3255  0.1754  0.4479
 2539TIP3    H1 7581   6.143   0.751   0.824  0.0919  0.7779  0.6695
 2539TIP3    H2 7582   6.135   0.695   0.965  0.0995  0.7790  0.6704
 2540TIP3   OH2 7583   5.123   0.095   0.649 -0.3336  0.6497 -0.0319
 2540TIP3    H1 7584   5.042   0.104   0.699 -0.6990  0.5087 -0.5943
 2540TIP3    H2 7585   5.154   0.184   0.636 -1.1412  0.8058 -1.0187
 2541TIP3   OH2 7586   3.829   4.049   4.971  0.1754 -0.4629  0.0001
 2541TIP3    H1 7587   3.762   4.115   4.956 -0.3297 -0.9940 -0.1358
 2541TIP3    H2 7588   3.852   4.017   4.884 -1.3192 -2.1344  0.1527
 2542TIP3   OH2 7589   0.855   4.939   0.976  0.3492  0.2722  0.0115
 2542TIP3    H1 7590   0.845   4.958   0.883 -0.7669  0.8833  0.2364
 2542TIP3    H2 7591   0.780   4.883   0.997 -0.0323  1.0399  0.7606
 2543TIP3   OH2 7592   4.486   5.980   4.410 -0.2437 -0.7033  0.4737
 2543TIP3    H1 7593   4.440   6.009   4.489  0.5489  1.6777  0.1332
 2543TIP3    H2 7594   4.570   5.948   4.442 -0.5189 -1.2001  0.7162
 2544TIP3   OH2 7595   2.995   2.768   5.426 -0.4497 -0.0103  0.0691
 2544TIP3    H1 7596   3.006   2.760   5.521  1.4332 -1.1325 -0.2122
 2544TIP3    H2 7597   2.954   2.686   5.399  1.0520 -0.6568 -0.3404
 2545TIP3   OH2 7598   3.245   4.657   5.705  0.2831  0.0802  0.4199
 2545TIP3    H1 7599   3.216   4.740   5.667 -1.2897  0.1846  1.7163
 2545TIP3    H2 7600   3.205   4.589   5.650  1.3925  0.1718 -0.5126
 2546TIP3   OH2 7601   1.606   2.555   3.972 -0.0351 -0.1032  0.6473
 2546TIP3    H1 7602   1.566   2.627   3.923  2.4710  1.7146  1.0932
 2546TIP3    H2 7603   1.588   2.477   3.920 -0.9286  1.1547 -1.0210
 2547TIP3   OH2 7604   4.749   1.551   4.072  0.4752 -0.0432 -0.3015
 2547TIP3    H1 7605   4.805   1.493   4.020  1.7143  1.1827 -0.3865
 2547TIP3    H2 7606   4.736   1.505   4.154  3.4327  0.5255  0.5904
 2548TIP3   OH2 7607   5.223   3.109   2.916  0.1562  0.0046  0.1213
 2548TIP3    H1 7608   5.222   3.027   2.966 -1.5037 -0.3282 -0.4047
 2548TIP3    H2 7609   5.220   3.178   2.982  0.0756 -0.3870  0.5297
 2549TIP3   OH2 7610   5.664   0.343   0.897 -0.1676  0.5988 -0.1616
 2549TIP3    H1 7611   5.694   0.402   0.828  1.7600  0.1595  0.2494
 2549TIP3    H2 7612   5.744   0.316   0.943 -0.9942 -1.9305 -0.0255
 2550TIP3   OH2 7613   6.927   2.682   2.558 -0.0484  0.0851 -0.2415
 2550TIP3    H1 7614   6.877   2.687   2.639 -0.9990  1.2182 -0.8780
 2550TIP3    H2 7615   6.866   2.706   2.489  1.5166  2.2652 -0.9746
 2551TIP3   OH2 7616   2.796   5.980   1.175 -0.0298 -0.3822 -0.0107
 2551TIP3    H1 7617   2.825   6.071   1.182 -0.3270 -0.2596 -0.3666
 2551TIP3    H2 7618   2.855   5.941   1.109 -0.6201 -0.1486 -0.6902
 2552TIP3   OH2 7619   1.920   2.594   2.918  0.1071 -0.6108  0.0151
 2552TIP3    H1 7620   1.826   2.580   2.923  0.0748 -0.2291  0.6029
 2552TIP3    H2 7621   1.954   2.560   3.001  0.4589 -0.5464 -0.0996
 2553TIP3   OH2 7622   0.578   5.182   4.832 -0.2964  0.2356  0.0805
 2553TIP3    H1 7623   0.671   5.179   4.808 -0.2979  0.9612 -0.0526
 2553TIP3    H2 7624   0.572   5.252   4.897 -0.7970  0.4434 -0.1757
 2554TIP3   OH2 7625   5.498   0.920   0.702  0.2953  0.6494  0.1035
 2554TIP3    H1 7626   5.424   0.959   0.748 -0.4339  0.3513 -0.7767
 2554TIP3    H2 7627   5.502   0.830   0.737  0.8708  0.9617  0.8608
 2555TIP3   OH2 7628   1.899   3.663   5.053  0.2080  0.2409 -0.2337
 2555TIP3    H1 7629   1.972   3.707   5.009  0.1883 -1.2430 -1.8337
 2555TIP3    H2 7630   1.822   3.687   5.002  0.0154 -0.5828 -0.3455
 2556TIP3   OH2 7631   5.235   2.382   4.673 -0.1354  0.1566  0.2159
 2556TIP3    H1 7632   5.224   2.415   4.584  1.4309 -0.1936 -0.1491
 2556TIP3    H2 7633   5.147   2.363   4.704 -0.6901  0.1277 -1.3184
 2557TIP3   OH2 7634   3.972   2.464   5.415 -0.2054 -0.4434 -0.1823
 2557TIP3    H1 7635   3.910   2.501   5.353  0.9016  0.5730 -0.7160
 2557TIP3    H2 7636   3.921   2.398   5.463 -1.7392  0.4973 -0.4489
 2558TIP3   OH2 7637   4.238   4.827   0.655 -0.3946  0.5420 -0.5403
 2558TIP3    H1 7638   4.158   4.775   0.644 -0.3653  0.6534 -1.3459
 2558TIP3    H2 7639   4.213   4.897   0.716 -0.5430 -0.1743  0.2495
 2559TIP3   OH2 7640   3.147   3.501   2.735 -0.4557  0.1154  0.0222
 2559TIP3    H1 7641   3.220   3.487   2.675  0.3063  0.2705  0.8997
 2559TIP3    H2 7642   3.091   3.424   2.723 -1.5449  1.1605 -2.5466
 2560TIP3   OH2 7643   6.623   6.387   4.917  0.6785  0.5587  0.8030
 2560TIP3    H1 7644   6.643   6.331   4.992  0.0759 -0.5166  0.2011
 2560TIP3    H2 7645   6.546   6.346   4.877  0.9028  1.1824 -0.3134
 2561TIP3   OH2 7646   1.576   3.493   0.978  0.0706  0.1677  0.4664
 2561TIP3    H1 7647   1.607   3.403   0.976 -0.5736 -0.1154  1.9216
 2561TIP3    H2 7648   1.536   3.507   0.892  1.4663 -0.4346 -0.3220
 2562TIP3   OH2 7649   5.996   0.022   3.508  0.2271 -0.3797  0.3782
 2562TIP3    H1 7650   6.076  -0.023   3.535  0.3196 -0.4878 -0.0588
 2562TIP3    H2 7651   6.026   0.108   3.476 -0.0085  0.2276  1.7403
 2563TIP3   OH2 7652   5.431   0.392   1.071  0.1257  0.4551 -0.3651
 2563TIP3    H1 7653   5.389   0.308   1.087 -0.6674  0.6805 -1.1896
 2563TIP3    H2 7654   5.515   0.371   1.030  0.1871  0.0574 -0.0390
 2564TIP3   OH2 7655   0.068   1.912   5.435 -0.2005  0.0540 -0.5189
 2564TIP3    H1 7656   0.162   1.895   5.424 -0.6949 -2.2019 -1.9744
 2564TIP3    H2 7657   0.058   1.927   5.529  1.4530 -1.0454 -0.1026
 2565TIP3   OH2 7658   1.004   3.636   4.733 -0.8659  0.5701 -0.4086
 2565TIP3    H1 7659   0.910   3.624   4.719 -0.4042 -2.8691 -1.3832
 2565TIP3    H2 7660   1.046   3.572   4.676  2.0852  1.3573  0.6673
 2566TIP3   OH2 7661   5.733   6.322   5.180  0.6789  0.3299 -0.5435
 2566TIP3    H1 7662   5.651   6.280   5.205  1.3823 -0.5079  0.4658
 2566TIP3    H2 7663   5.720   6.415   5.201 -0.6399  0.5364 -2.1366
 2567TIP3   OH2 7664   3.635   0.911   1.357 -0.2530  0.0622  0.5078
 2567TIP3    H1 7665   3.659   0.819   1.367  0.2492  0.3170  1.7619
 2567TIP3    H2 7666   3.643   0.927   1.263  2.7739 -0.3732  0.5861
 2568TIP3   OH2 7667   3.219   6.814   1.383  0.3147  0.0496  0.1061
 2568TIP3    H1 7668   3.164   6.879   1.427 -1.6899  0.2090 -2.3868
 2568TIP3    H2 7669   3.187   6.730   1.416  0.0161  0.2010  0.2069
 2569TIP3   OH2 7670   5.538   0.310   0.297 -0.4809  0.0863  0.1073
 2569TIP3    H1 7671   5.575   0.324   0.385 -0.3213 -1.0576  0.2345
 2569TIP3    H2 7672   5.522   0.399   0.264  0.4706  0.5676  0.8618
 2570TIP3   OH2 7673   4.774   4.606   1.367 -0.3780  0.6348 -0.5336
 2570TIP3    H1 7674   4.817   4.552   1.434  0.8376  1.0144 -0.9689
 2570TIP3    H2 7675   4.724   4.544   1.315 -1.3722  0.3364  0.7344
 2571TIP3   OH2 7676   4.695   4.781   4.699  0.1498 -0.2847 -0.0507
 2571TIP3    H1 7677   4.753   4.731   4.757  0.8378 -2.4872 -2.4667
 2571TIP3    H2 7678   4.609   4.740   4.710  0.2008 -0.4584 -0.2874
 2572TIP3   OH2 7679   5.719   5.256   1.817  0.4874  0.4907  0.2290
 2572TIP3    H1 7680   5.657   5.253   1.743  1.1669  2.1500 -0.4466
 2572TIP3    H2 7681   5.704   5.341   1.858  1.2489  0.2542  1.0185
 2573TIP3   OH2 7682   3.147   4.891   5.568 -0.5362 -0.4042 -0.2343
 2573TIP3    H1 7683   3.083   4.953   5.531 -1.6024 -0.6332  1.1365
 2573TIP3    H2 7684   3.168   4.927   5.654 -0.6943 -1.6142  0.3213
 2574TIP3   OH2 7685   2.771   0.865   1.272 -0.0962  0.0835  0.7357
 2574TIP3    H1 7686   2.766   0.865   1.367 -2.0918  1.1980  0.6689
 2574TIP3    H2 7687   2.720   0.941   1.244  0.7393  0.0006 -1.2271
 2575TIP3   OH2 7688   1.442   6.300   5.237 -0.1605  0.4724 -0.1402
 2575TIP3    H1 7689   1.515   6.358   5.258  1.3099 -1.3106  0.0045
 2575TIP3    H2 7690   1.394   6.291   5.320 -0.2723  1.2815 -0.1101
 2576TIP3   OH2 7691   2.123   4.424   5.237  0.0023 -0.5835  0.2763
 2576TIP3    H1 7692   2.206   4.393   5.271 -0.2473 -1.7201 -0.0988
 2576TIP3    H2 7693   2.123   4.397   5.145 -0.2512  0.5222 -0.0630
 2577TIP3   OH2 7694   2.405   1.248   4.037 -0.0739  0.6134  0.2865
 2577TIP3    H1 7695   2.361   1.332   4.052 -0.3022  0.4575  0.5037
 2577TIP3    H2 7696   2.469   1.266   3.968  1.2367  1.4359  1.6535
 2578TIP3   OH2 7697   5.569   2.180   1.920 -0.4948 -0.2658  0.1409
 2578TIP3    H1 7698   5.646   2.148   1.874 -0.6924 -0.4433 -0.0682
 2578TIP3    H2 7699   5.571   2.275   1.907 -0.8123 -0.3603 -0.6481
 2579TIP3   OH2 7700   0.364   1.865   1.840  0.2194  0.3440 -0.2388
 2579TIP3    H1 7701   0.362   1.958   1.860  0.0932  0.3557 -0.3027
 2579TIP3    H2 7702   0.436   1.855   1.777  1.3168  0.1422  1.0132
 2580TIP3   OH2 7703   5.387   2.300   3.297 -0.3782 -0.0327 -0.1581
 2580TIP3    H1 7704   5.412   2.208   3.287  0.0919 -0.1506  1.7792
 2580TIP3    H2 7705   5.296   2.298   3.326 -0.2304  0.1009  0.3166
 2581TIP3   OH2 7706   5.716   1.533   1.578  0.1097 -0.2323 -0.4174
 2581TIP3    H1 7707   5.697   1.627   1.584 -1.0093 -0.4437 -0.3123
 2581TIP3    H2 7708   5.646   1.499   1.522 -1.8190 -1.6079  2.5729
 2582TIP3   OH2 7709   0.082   4.454   0.629 -0.0722 -0.4921  0.3261
 2582TIP3    H1 7710   0.056   4.491   0.545  1.0889  0.8788  0.5238
 2582TIP3    H2 7711   0.007   4.470   0.687 -0.0610  0.4796  0.0849
 2583TIP3   OH2 7712   5.039   1.075   5.581  0.5503  0.3334  0.1151
 2583TIP3    H1 7713   5.123   1.084   5.626  0.0500  0.1148  1.1101
 2583TIP3    H2 7714   5.049   1.128   5.502  1.1227  1.5338  0.9529
 2584TIP3   OH2 7715   6.717   1.645   1.132 -0.1494 -0.1317 -0.3757
 2584TIP3    H1 7716   6.731   1.677   1.043 -0.2717  0.9925 -0.0009
 2584TIP3    H2 7717   6.764   1.706   1.188 -1.7421  0.3879  0.4688
 2585TIP3   OH2 7718   1.407   3.772   0.720  0.1958 -0.2286 -0.0155
 2585TIP3    H1 7719   1.330   3.798   0.771  0.3132  0.5388 -0.2209
 2585TIP3    H2 7720   1.392   3.809   0.633  2.2061  2.7057  0.7338
 2586TIP3   OH2 7721   4.063   0.686   3.025  0.3667  0.0230  0.4822
 2586TIP3    H1 7722   4.091   0.743   2.952  0.1647 -1.0291 -0.4432
 2586TIP3    H2 7723   4.008   0.742   3.079 -0.6158  0.4705 -0.9175
 2587TIP3   OH2 7724   6.296   5.837   4.444 -0.0302  0.3633  0.2461
 2587TIP3    H1 7725   6.375   5.887   4.424 -0.3863  0.6305 -0.5272
 2587TIP3    H2 7726   6.296   5.766   4.380 -1.1204  1.1575 -0.6919
 2588TIP3   OH2 7727   3.009   3.742   0.043 -0.0559 -0.5546  0.2126
 2588TIP3    H1 7728   3.024   3.755   0.136  0.6355 -1.1061  0.1875
 2588TIP3    H2 7729   2.942   3.806   0.020  2.4132  2.3062  0.3069
 2589TIP3   OH2 7730   4.263   1.097   4.928  0.0240 -0.2311  0.9784
 2589TIP3    H1 7731   4.339   1.041   4.947  0.8221  1.0198  1.6144
 2589TIP3    H2 7732   4.220   1.107   5.013  0.0652  0.3485  0.9339
 2590TIP3   OH2 7733   3.353   0.750   2.383  0.4287 -0.5542 -0.2111
 2590TIP3    H1 7734   3.287   0.772   2.448 -1.2337 -0.8706 -1.7079
 2590TIP3    H2 7735   3.399   0.832   2.367  1.1628 -0.5631  1.6159
 2591TIP3   OH2 7736   5.695   4.990   1.360  0.5191  0.0414  0.0540
 2591TIP3    H1 7737   5.681   4.954   1.448  0.8755 -0.1761  0.0206
 2591TIP3    H2 7738   5.614   4.968   1.313  0.4514 -0.1100  0.2367
 2592TIP3   OH2 7739   5.411   3.528   3.372 -0.5690  0.7825  0.0817
 2592TIP3    H1 7740   5.357   3.517   3.450  0.0903  1.3878  0.6418
 2592TIP3    H2 7741   5.463   3.448   3.367  0.6234  1.4241  1.2787
 2593TIP3   OH2 7742   2.901   3.304   2.471  0.2481 -0.0135  0.0579
 2593TIP3    H1 7743   2.889   3.377   2.531  1.9049  0.6025 -0.3178
 2593TIP3    H2 7744   2.812   3.274   2.452 -0.4435  1.6180  0.5668
 2594TIP3   OH2 7745   1.474   5.844   5.659 -0.6945  0.5944 -0.0616
 2594TIP3    H1 7746   1.554   5.814   5.701 -0.5627 -0.2016 -0.8475
 2594TIP3    H2 7747   1.493   5.934   5.632 -0.2053  0.5465  0.1158
 2595TIP3   OH2 7748   0.631   3.784   2.438  0.2928 -0.2912 -0.1836
 2595TIP3    H1 7749   0.619   3.847   2.367 -0.5434 -1.1884 -0.8578
 2595TIP3    H2 7750   0.573   3.815   2.508 -0.9986 -0.9351 -0.9455
 2596TIP3   OH2 7751   2.980   0.367   5.533 -0.0972 -0.5639  0.0123
 2596TIP3    H1 7752   3.067   0.407   5.532  1.5722 -3.7889 -0.1703
 2596TIP3    H2 7753   2.945   0.387   5.619  0.0182  2.2267 -0.5089
 2597TIP3   OH2 7754   2.236   6.728   0.093  0.6725 -0.0283  0.3230
 2597TIP3    H1 7755   2.257   6.800   0.033  0.8801 -0.0877  0.3211
 2597TIP3    H2 7756   2.267   6.650   0.047 -1.9855 -0.4720 -0.9114
 2598TIP3   OH2 7757   3.945   2.456   3.836  0.2741 -0.2774 -0.6369
 2598TIP3    H1 7758   4.031   2.498   3.844  1.4897 -2.5481 -0.8906
 2598TIP3    H2 7759   3.914   2.481   3.749  1.3696 -0.5869 -1.1401
 2599TIP3   OH2 7760   4.063   1.561   5.018  0.1063  0.0846 -0.4658
 2599TIP3    H1 7761   4.091   1.648   4.992 -1.3609  0.9909  0.7882
 2599TIP3    H2 7762   4.004   1.533   4.948  0.3823  0.2005 -0.7479
 2600TIP3   OH2 7763   1.110   5.969   5.816  0.7150 -0.1911 -0.3203
 2600TIP3    H1 7764   1.114   6.064   5.819  0.0527 -0.1841  1.6681
 2600TIP3    H2 7765   1.025   5.949   5.777  0.2339  0.0687  0.5664
 2601TIP3   OH2 7766   4.703   2.728   2.470 -0.1432 -0.0020  0.0421
 2601TIP3    H1 7767   4.672   2.795   2.409 -0.6463 -0.1316  0.1501
 2601TIP3    H2 7768   4.766   2.774   2.526 -0.4160  0.3569  0.0553
 2602TIP3   OH2 7769   3.776   0.070   0.547  0.5193  0.0437  0.2662
 2602TIP3    H1 7770   3.709   0.051   0.613 -0.4649 -1.0492 -0.9896
 2602TIP3    H2 7771   3.742   0.146   0.500  1.5424  1.2478  1.3919
 2603TIP3   OH2 7772   1.668   3.883   4.467  0.1005  0.0733  0.3653
 2603TIP3    H1 7773   1.740   3.933   4.430  0.4254  0.5065  1.5335
 2603TIP3    H2 7774   1.596   3.892   4.404  0.7384  0.4629 -0.3194
 2604TIP3   OH2 7775   6.257   3.127   0.803  0.3808 -0.6361  0.1329
 2604TIP3    H1 7776   6.186   3.177   0.764  1.3490  0.5538 -0.1676
 2604TIP3    H2 7777   6.321   3.193   0.829  0.7295 -1.5589  1.7674
 2605TIP3   OH2 7778   7.073   0.782   2.622  0.2740  0.0564 -0.1606
 2605TIP3    H1 7779   7.058   0.875   2.606  0.4200 -0.0201 -0.8049
 2605TIP3    H2 7780   7.055   0.769   2.715  0.7565  0.8244  0.0427
 2606TIP3   OH2 7781   0.667   2.326   1.984 -0.0974  0.0276 -0.9962
 2606TIP3    H1 7782   0.583   2.371   1.980 -1.1529 -1.8397 -1.6341
 2606TIP3    H2 7783   0.723   2.374   1.924 -1.4508  0.0044 -2.3440
 2607TIP3   OH2 7784   1.627   6.518   3.245  0.1181 -0.3456  0.0838
 2607TIP3    H1 7785   1.564   6.452   3.216  1.2422 -1.1063 -0.7412
 2607TIP3    H2 7786   1.661   6.485   3.328 -1.9632  1.0608  1.5997
 2608TIP3   OH2 7787   0.445   2.276   3.681 -0.2047 -0.0150  0.2131
 2608TIP3    H1 7788   0.500   2.279   3.603 -1.9553  0.7701 -1.0577
 2608TIP3    H2 7789   0.461   2.189   3.718 -1.8379 -1.8855 -2.9757
 2609TIP3   OH2 7790   3.732   4.431   0.291  0.3136 -0.5056 -0.9064
 2609TIP3    H1 7791   3.810   4.486   0.304  0.7964 -1.2504 -0.5926
 2609TIP3    H2 7792   3.666   4.491   0.258  0.5962  0.4469  0.1719
 2610TIP3   OH2 7793   5.959   1.591   4.927  0.1617  0.0456 -0.1443
 2610TIP3    H1 7794   5.921   1.583   4.840 -1.5211 -1.6666  0.6566
 2610TIP3    H2 7795   5.929   1.677   4.958  0.5244  0.5342 -1.1081
 2611TIP3   OH2 7796   1.502   0.940   0.151  0.4148  0.2897 -0.0574
 2611TIP3    H1 7797   1.498   1.030   0.184  0.1191  0.1890  0.1909
 2611TIP3    H2 7798   1.587   0.933   0.108  0.9256  0.3576  0.9145
 2612TIP3   OH2 7799   3.706   1.966   1.469  0.2257 -0.0442  0.6054
 2612TIP3    H1 7800   3.681   1.929   1.554 -1.8544  0.9885  0.5072
 2612TIP3    H2 7801   3.626   1.960   1.417  1.9772 -2.6156 -2.0795
 2613TIP3   OH2 7802   2.143   6.454   5.279 -0.4642  0.0494  0.4314
 2613TIP3    H1 7803   2.131   6.413   5.194 -0.7306 -0.7615  0.8510
 2613TIP3    H2 7804   2.238   6.449   5.294 -0.6409 -1.8567  1.1604
 2614TIP3   OH2 7805   1.096   5.468   0.780 -0.7869  0.1888 -0.5106
 2614TIP3    H1 7806   1.064   5.451   0.869 -3.4540  0.1320 -1.3908
 2614TIP3    H2 7807   1.150   5.546   0.789  0.5156 -0.8547  1.4171
 2615TIP3   OH2 7808   4.680   4.899   1.132  0.4380 -0.4033  0.8793
 2615TIP3    H1 7809   4.613   4.912   1.065  0.9515  1.2420  0.6231
 2615TIP3    H2 7810   4.751   4.855   1.086  1.2089  1.6253 -0.0090
 2616TIP3   OH2 7811   0.735   5.011   2.128 -0.2587 -0.0276  0.4780
 2616TIP3    H1 7812   0.773   5.097   2.142  1.2116 -0.7183  0.9780
 2616TIP3    H2 7813   0.809   4.957   2.100 -1.0085 -1.2841  0.8473
 2617TIP3   OH2 7814   3.971   2.543   4.145  0.0524  0.1431  0.2558
 2617TIP3    H1 7815   4.020   2.555   4.064 -1.3028 -0.2751 -0.6567
 2617TIP3    H2 7816   3.984   2.450   4.168 -0.0845  0.1027  0.1694
 2618TIP3   OH2 7817   7.209   1.147   0.609  0.2759  0.0144 -0.2055
 2618TIP3    H1 7818   7.179   1.235   0.585 -0.0501  0.3105  1.1448
 2618TIP3    H2 7819   7.216   1.100   0.527 -1.7202  0.6362 -0.7990
 2619TIP3   OH2 7820   3.317   2.885   0.005 -0.3595  0.3906  0.3996
 2619TIP3    H1 7821   3.323   2.972   0.045 -0.7638  0.2834  0.7058
 2619TIP3    H2 7822   3.407   2.853   0.004 -0.2929  0.5437  0.8988
 2620TIP3   OH2 7823   3.101   5.413   0.265 -0.7041  0.3536  0.2763
 2620TIP3    H1 7824   3.120   5.411   0.172 -1.0613  1.5139  0.1632
 2620TIP3    H2 7825   3.178   5.376   0.307 -0.1085  0.7794 -0.4283
 2621TIP3   OH2 7826   5.210   3.531   3.590 -0.3159  0.1438 -0.1239
 2621TIP3    H1 7827   5.128   3.537   3.639 -0.5043  0.0511 -0.4202
 2621TIP3    H2 7828   5.216   3.438   3.566 -0.8757  0.4055 -1.3566
 2622TIP3   OH2 7829   2.075   4.697   5.710 -0.2915  0.0717  0.3015
 2622TIP3    H1 7830   2.059   4.764   5.644 -0.8078 -1.4570 -1.2114
 2622TIP3    H2 7831   2.147   4.645   5.674 -3.1419 -3.2589 -1.2445
 2623TIP3   OH2 7832   6.580   3.242   2.988  0.0069  0.2414  0.1338
 2623TIP3    H1 7833   6.538   3.278   2.910  0.0430 -0.2463 -0.1159
 2623TIP3    H2 7834   6.530   3.277   3.061  0.5471  1.4762 -0.0532
 2624TIP3   OH2 7835   6.291   4.572   4.876  0.1363 -0.0336 -0.2249
 2624TIP3    H1 7836   6.350   4.579   4.951  0.8021  0.2943 -0.7801
 2624TIP3    H2 7837   6.206   4.601   4.910  0.5600  0.6619  0.2523
 2625TIP3   OH2 7838   5.576   5.134   0.347  0.3393  0.1247  0.5541
 2625TIP3    H1 7839   5.506   5.081   0.309  1.4839 -0.4312 -0.9067
 2625TIP3    H2 7840   5.583   5.209   0.288  2.8654 -1.2866 -1.1602
 2626TIP3   OH2 7841   1.722   0.945   2.434 -0.0828 -0.6060 -0.4146
 2626TIP3    H1 7842   1.706   1.001   2.358 -2.2554 -0.6268 -0.0495
 2626TIP3    H2 7843   1.682   0.861   2.410 -0.4260 -0.7349  0.5808
 2627TIP3   OH2 7844   2.455   5.630   2.870  0.1825  0.0545  0.2267
 2627TIP3    H1 7845   2.545   5.599   2.861  0.5602  1.0206  0.5690
 2627TIP3    H2 7846   2.452   5.673   2.956 -0.7574 -0.4507  0.4668
 2628TIP3   OH2 7847   5.325   4.689   0.124 -0.6689  0.6548 -0.1063
 2628TIP3    H1 7848   5.248   4.712   0.177  0.9197 -0.0333  2.7378
 2628TIP3    H2 7849   5.301   4.606   0.083 -1.8290  0.9950 -0.1527
 2629TIP3   OH2 7850   4.904   3.787   0.860  0.2869 -0.2181 -0.0450
 2629TIP3    H1 7851   4.835   3.846   0.890  0.0844  0.0808 -1.0658
 2629TIP3    H2 7852   4.934   3.826   0.777  2.2227  0.1118  0.7469
 2630TIP3   OH2 7853   6.955   5.618   3.627  0.3323  0.1042 -0.2004
 2630TIP3    H1 7854   6.895   5.690   3.646 -1.5963 -0.6701 -2.8111
 2630TIP3    H2 7855   6.976   5.582   3.713 -2.1553  1.0591  0.9263
 2631TIP3   OH2 7856   6.501   2.146   2.812  0.0816  0.4861 -0.3750
 2631TIP3    H1 7857   6.423   2.092   2.819 -1.4960  2.3451 -2.0482
 2631TIP3    H2 7858   6.505   2.194   2.894 -1.0949  1.0159 -0.6100
 2632TIP3   OH2 7859   0.500   3.025   2.247  0.3380  0.1049  0.3455
 2632TIP3    H1 7860   0.472   3.073   2.169 -2.1639  0.1986  1.2013
 2632TIP3    H2 7861   0.503   3.091   2.316  0.9832 -0.2456  0.6540
 2633TIP3   OH2 7862   2.648   1.992   3.874  0.4708 -0.0775  0.0481
 2633TIP3    H1 7863   2.691   2.029   3.952 -1.0267 -1.4373  1.6179
 2633TIP3    H2 7864   2.561   1.966   3.905 -1.2945  1.8846 -2.7931
 2634TIP3   OH2 7865   6.060   6.286   0.832  0.0398 -0.2170  0.7267
 2634TIP3    H1 7866   6.048   6.291   0.927 -2.1156  0.6210  0.4711
 2634TIP3    H2 7867   5.973   6.261   0.799  0.0802  1.9382 -1.1953
 2635TIP3   OH2 7868   5.870   2.624   0.717 -0.1671 -1.0558  0.2705
 2635TIP3    H1 7869   5.934   2.652   0.652  0.7368 -0.3420  1.4126
 2635TIP3    H2 7870   5.868   2.696   0.781 -2.7794 -0.6450 -0.1743
 2636TIP3   OH2 7871   5.354   2.954   5.675  0.1140 -0.2144  0.8264
 2636TIP3    H1 7872   5.396   3.023   5.726  1.7302 -1.7804  1.7171
 2636TIP3    H2 7873   5.401   2.954   5.591 -0.0768 -0.0642  0.7176
 2637TIP3   OH2 7874   3.025   2.330   4.353 -0.4603  0.3778  0.0126
 2637TIP3    H1 7875   2.943   2.283   4.337 -0.6048  0.5928  0.1304
 2637TIP3    H2 7876   3.043   2.374   4.270 -0.1174 -0.2005 -0.2285
 2638TIP3   OH2 7877   6.015   6.586   5.732  0.6523  0.2193 -0.1227
 2638TIP3    H1 7878   5.929   6.614   5.699 -0.4470 -0.2387  2.1748
 2638TIP3    H2 7879   6.038   6.511   5.677 -0.6991 -0.0213 -0.3899
 2639TIP3   OH2 7880   5.804   4.492   1.523 -0.1694  0.0362  0.1243
 2639TIP3    H1 7881   5.880   4.513   1.468 -0.1424  0.8384  0.4506
 2639TIP3    H2 7882   5.831   4.515   1.612 -0.9592  0.8208  0.1814
 2640TIP3   OH2 7883   1.044   5.633   1.267 -0.5671 -0.2285 -0.0031
 2640TIP3    H1 7884   0.968   5.575   1.278 -0.5248  0.0937  2.4273
 2640TIP3    H2 7885   1.011   5.720   1.288  0.4991 -0.1135  1.3205
 2641TIP3   OH2 7886   3.818   6.505   1.062 -0.5049  0.8342 -0.5046
 2641TIP3    H1 7887   3.785   6.465   0.982 -0.3726 -0.6224  0.1298
 2641TIP3    H2 7888   3.913   6.503   1.052 -0.5028  1.1769 -0.5536
 2642TIP3   OH2 7889   3.936   3.264   0.137 -0.0102 -0.7293 -0.2018
 2642TIP3    H1 7890   3.907   3.194   0.078 -1.1377  0.3029 -0.9087
 2642TIP3    H2 7891   3.938   3.342   0.082  0.3189 -0.0197  0.7990
 2643TIP3   OH2 7892   6.760   6.757   0.550 -0.0868 -0.1309  0.0620
 2643TIP3    H1 7893   6.754   6.770   0.456 -0.5495 -0.5857  0.0220
 2643TIP3    H2 7894   6.837   6.807   0.577  0.2239 -0.2499 -0.6004
 2644TIP3   OH2 7895   2.614   3.173   5.489 -0.1415 -0.1227 -0.4168
 2644TIP3    H1 7896   2.648   3.190   5.401 -0.9641 -1.0066 -0.9297
 2644TIP3    H2 7897   2.651   3.243   5.543  0.6549  0.2359 -1.3915
 2645TIP3   OH2 7898   1.677   5.820   3.180  0.0976  0.0994  0.6365
 2645TIP3    H1 7899   1.690   5.805   3.086  0.5316 -0.7647  0.8276
 2645TIP3    H2 7900   1.763   5.843   3.213  0.2223 -0.8736  1.0394
 2646TIP3   OH2 7901   2.701   1.201   3.638  0.1023  0.3395 -0.5225
 2646TIP3    H1 7902   2.792   1.194   3.610 -0.5254 -0.5664 -2.5764
 2646TIP3    H2 7903   2.670   1.110   3.643 -0.3290  0.5540  1.5908
 2647TIP3   OH2 7904   3.995   3.362   2.119  0.0858 -0.1000 -0.4935
 2647TIP3    H1 7905   4.012   3.454   2.142 -0.8420 -0.4147  1.6988
 2647TIP3    H2 7906   3.913   3.365   2.069  0.8436  0.3632 -1.7773
 2648TIP3   OH2 7907   6.445   4.963   1.326 -0.3255  0.5448 -0.0737
 2648TIP3    H1 7908   6.528   4.945   1.370 -0.2761  0.1751 -0.3090
 2648TIP3    H2 7909   6.469   4.999   1.241 -0.4152  0.8923  0.0454
 2649TIP3   OH2 7910   6.684   4.642   2.928  0.1831  0.0183  0.0137
 2649TIP3    H1 7911   6.693   4.566   2.986  1.5634  0.1813  0.0527
 2649TIP3    H2 7912   6.766   4.691   2.940 -0.1933  0.9006 -0.8721
 2650TIP3   OH2 7913   3.293   4.193   3.694  0.6594  0.3928 -0.2776
 2650TIP3    H1 7914   3.259   4.282   3.687  0.3465  0.1691 -2.0921
 2650TIP3    H2 7915   3.358   4.197   3.763  0.9371  2.1238 -0.5997
 2651TIP3   OH2 7916   5.244   3.536   2.248  0.2896 -0.3107 -0.2901
 2651TIP3    H1 7917   5.297   3.613   2.268 -0.4506  0.0027  0.5442
 2651TIP3    H2 7918   5.232   3.539   2.153  1.8297 -0.4539 -0.5137
 2652TIP3   OH2 7919   3.096   1.617   1.528 -0.1162 -0.0311  0.2499
 2652TIP3    H1 7920   3.155   1.687   1.499  0.5051 -0.6428  0.0271
 2652TIP3    H2 7921   3.120   1.541   1.475 -1.0012 -0.3354  0.2620
 2653TIP3   OH2 7922   4.132   6.423   2.026 -0.3204  0.8982  0.3302
 2653TIP3    H1 7923   4.157   6.331   2.024 -1.3476  0.6206 -1.2677
 2653TIP3    H2 7924   4.214   6.471   2.012  0.4039  0.3166  2.2409
 2654TIP3   OH2 7925   0.765   0.405   3.628 -0.1282 -0.6136 -0.0145
 2654TIP3    H1 7926   0.739   0.470   3.563 -0.2729 -0.0229  0.6203
 2654TIP3    H2 7927   0.841   0.444   3.672 -0.0900 -0.9606  0.2304
 2655TIP3   OH2 7928   3.521   2.583   0.666 -0.1101 -0.2042  0.1452
 2655TIP3    H1 7929   3.571   2.629   0.734 -0.6716 -0.0355  0.4546
 2655TIP3    H2 7930   3.550   2.492   0.673  0.4369 -0.0392  0.0574
 2656TIP3   OH2 7931   3.561   2.120   3.823 -0.0501 -0.2320 -0.3407
 2656TIP3    H1 7932   3.557   2.026   3.806  0.1422 -0.4768  0.8855
 2656TIP3    H2 7933   3.547   2.128   3.917  1.1581  0.8734 -0.2236
 2657TIP3   OH2 7934   0.946   6.810   2.476  0.1328 -0.7025 -0.3024
 2657TIP3    H1 7935   0.872   6.830   2.419 -0.8423 -0.0149  1.1268
 2657TIP3    H2 7936   0.906   6.783   2.558  1.3690  1.7396  1.2324
 2658TIP3   OH2 7937   2.274   4.595   1.931 -0.5878  0.3096  0.4540
 2658TIP3    H1 7938   2.362   4.632   1.930 -0.7365  0.6741  0.5664
 2658TIP3    H2 7939   2.232   4.630   1.853  0.0612 -1.6182 -0.8330
 2659TIP3   OH2 7940   6.875   4.726   1.930  0.1972  0.8346  0.3174
 2659TIP3    H1 7941   6.836   4.762   1.850  0.9024  0.2026 -0.3266
 2659TIP3    H2 7942   6.807   4.736   1.996  0.1803  2.8944  0.0625
 2660TIP3   OH2 7943   3.764   5.729   3.823  0.4082  0.8813  0.7540
 2660TIP3    H1 7944   3.768   5.815   3.779  0.3503  0.3605 -0.2924
 2660TIP3    H2 7945   3.679   5.728   3.866 -1.1652  0.0040 -2.1409
 2661TIP3   OH2 7946   6.747   6.111   2.082 -0.2485  0.0441  0.4641
 2661TIP3    H1 7947   6.826   6.129   2.133  1.0533 -2.9689 -0.2926
 2661TIP3    H2 7948   6.726   6.020   2.101 -1.7395 -0.1331 -1.7216
 2662TIP3   OH2 7949   0.713   0.344   4.138 -0.2696 -0.3207  0.6363
 2662TIP3    H1 7950   0.733   0.252   4.156 -2.6234 -0.6214  2.0121
 2662TIP3    H2 7951   0.623   0.344   4.108 -0.0771  1.4932 -0.0739
 2663TIP3   OH2 7952   3.556   2.092   2.518  0.4980  0.1513  0.6050
 2663TIP3    H1 7953   3.518   2.147   2.587  1.4449  1.5583  0.0415
 2663TIP3    H2 7954   3.580   2.011   2.563 -1.0239  0.1183  1.4368
 2664TIP3   OH2 7955   0.834   5.582   2.805 -0.6794 -0.3193 -0.8883
 2664TIP3    H1 7956   0.900   5.587   2.735 -0.6125 -2.0716 -1.0015
 2664TIP3    H2 7957   0.771   5.517   2.773 -1.0495 -0.5948  0.3671
 2665TIP3   OH2 7958   5.178   0.251   1.957 -0.4634  0.3481 -0.5557
 2665TIP3    H1 7959   5.272   0.248   1.936 -0.5492 -1.4657 -0.8697
 2665TIP3    H2 7960   5.170   0.199   2.037 -1.0239  1.8375  0.3955
 2666TIP3   OH2 7961   3.946   2.631   5.716 -0.1712 -0.3178  0.3520
 2666TIP3    H1 7962   3.962   2.544   5.680 -0.6842 -0.6786  0.9673
 2666TIP3    H2 7963   3.981   2.627   5.805 -1.7892 -0.4842  1.0200
 2667TIP3   OH2 7964   6.684   6.393   4.439  0.1579 -0.2461 -0.0152
 2667TIP3    H1 7965   6.704   6.339   4.515 -0.0436  0.2672  0.4102
 2667TIP3    H2 7966   6.633   6.336   4.382  1.2658 -0.9892 -0.2897
 2668TIP3   OH2 7967   3.449   0.817   5.813  0.2253 -0.0014 -0.3041
 2668TIP3    H1 7968   3.434   0.735   5.859 -0.5004  1.2840  1.8822
 2668TIP3    H2 7969   3.366   0.864   5.820  1.0367  1.4867 -0.2651
 2669TIP3   OH2 7970   4.048   3.788   5.610 -0.1164 -0.0485 -0.3308
 2669TIP3    H1 7971   3.995   3.865   5.631 -1.1821 -0.4720 -1.3288
 2669TIP3    H2 7972   4.056   3.789   5.514 -0.6253 -1.4555 -0.4162
 2670TIP3   OH2 7973   7.178   6.165   1.623  0.1240 -0.1773  0.2606
 2670TIP3    H1 7974   7.089   6.182   1.653 -0.0034 -0.1566 -0.1263
 2670TIP3    H2 7975   7.198   6.077   1.656 -0.3835 -0.5613 -0.4411
 2671TIP3   OH2 7976   1.963   0.715   5.832  0.0269  0.6464  0.0753
 2671TIP3    H1 7977   2.050   0.737   5.865 -0.4512  0.7474  1.2903
 2671TIP3    H2 7978   1.956   0.765   5.750  1.6518 -0.4924 -0.8174
 2672TIP3   OH2 7979   1.920   6.623   2.946  0.0709 -0.2421  0.3013
 2672TIP3    H1 7980   1.836   6.601   2.905 -0.0312 -0.6501  0.7226
 2672TIP3    H2 7981   1.980   6.638   2.873 -0.8415  2.0170 -0.0827
 2673TIP3   OH2 7982   3.529   3.353   0.805 -0.2537 -0.1835 -0.6408
 2673TIP3    H1 7983   3.445   3.308   0.801 -0.9243  1.0775 -2.3107
 2673TIP3    H2 7984   3.545   3.368   0.898 -1.3950 -1.3069 -0.2454
 2674TIP3   OH2 7985   6.899   6.514   5.198  0.1060  0.6879  0.3926
 2674TIP3    H1 7986   6.952   6.564   5.260  0.2254 -0.5048  1.3017
 2674TIP3    H2 7987   6.845   6.457   5.254 -1.6811  1.3879 -0.5283
 2675TIP3   OH2 7988   3.983   6.656   3.809  1.0517 -0.2520  1.0189
 2675TIP3    H1 7989   3.971   6.603   3.888  0.5585 -1.0730  0.4181
 2675TIP3    H2 7990   4.076   6.647   3.788  0.8334 -1.5680  0.4865
 2676TIP3   OH2 7991   1.457   6.093   3.981  0.4589  0.4639 -0.1460
 2676TIP3    H1 7992   1.500   6.176   4.001 -0.3391  1.1355 -1.1811
 2676TIP3    H2 7993   1.462   6.085   3.886  0.5286 -0.6867 -0.0615
 2677TIP3   OH2 7994   0.958   6.153   1.603 -0.4760  0.4853 -0.3290
 2677TIP3    H1 7995   0.904   6.074   1.612 -1.6449  1.0977 -1.6827
 2677TIP3    H2 7996   0.929   6.210   1.674  0.5699 -0.3554  0.8376
 2678TIP3   OH2 7997   6.517   4.606   0.487 -0.3726  0.1508  0.2285
 2678TIP3    H1 7998   6.433   4.623   0.444  0.0152 -2.0502 -1.5481
 2678TIP3    H2 7999   6.582   4.648   0.430 -0.1587  1.3715  1.3073
 2679TIP3   OH2 8000   5.692   0.917   5.582 -0.2175  0.3869 -0.6513
 2679TIP3    H1 8001   5.765   0.880   5.532 -0.7565 -2.0110  0.1830
 2679TIP3    H2 8002   5.626   0.848   5.583 -1.4931  1.5498  0.6890
 2680TIP3   OH2 8003   2.997   3.077   3.724 -0.3497  0.1481 -0.2407
 2680TIP3    H1 8004   2.911   3.088   3.683  0.9390  0.3486 -3.0887
 2680TIP3    H2 8005   3.028   2.993   3.692  0.0716 -0.4979  1.7397
 2681TIP3   OH2 8006   3.320   2.600   0.188  0.0051 -0.1130 -0.1904
 2681TIP3    H1 8007   3.247   2.627   0.244  0.5198  1.0204 -0.0463
 2681TIP3    H2 8008   3.394   2.590   0.248  0.0156 -1.1705 -0.3502
 2682TIP3   OH2 8009   5.968   1.340   4.367 -0.2511 -0.8004  0.9148
 2682TIP3    H1 8010   6.061   1.361   4.368 -0.2666  0.1169 -3.0998
 2682TIP3    H2 8011   5.924   1.424   4.379 -0.5832 -1.0281  1.3579
 2683TIP3   OH2 8012   3.175   3.023   4.997  0.5505  0.2689 -0.0758
 2683TIP3    H1 8013   3.248   2.978   5.039 -2.0788 -3.6977  0.8174
 2683TIP3    H2 8014   3.181   2.998   4.905  0.8454  0.7708 -0.1956
 2684TIP3   OH2 8015   4.019   1.992   4.820  0.2249  0.5895  0.0239
 2684TIP3    H1 8016   4.011   1.920   4.757 -0.5129  1.1923 -0.5944
 2684TIP3    H2 8017   4.087   2.049   4.784  1.2242 -0.0737  0.8107
 2685TIP3   OH2 8018   1.494   6.040   2.937 -0.2350  0.1076 -0.1505
 2685TIP3    H1 8019   1.522   6.075   2.853  0.2162 -0.8300 -0.4054
 2685TIP3    H2 8020   1.421   6.096   2.963 -0.2920  0.4928 -1.0917
 2686TIP3   OH2 8021   2.671   3.903   1.677 -0.5015  0.1212  0.0146
 2686TIP3    H1 8022   2.665   3.994   1.703 -0.1268  0.5441 -1.3004
 2686TIP3    H2 8023   2.762   3.878   1.696 -0.3656  0.2798 -0.4284
 2687TIP3   OH2 8024   5.395   6.621   1.198 -0.2364 -0.4699  0.2178
 2687TIP3    H1 8025   5.466   6.605   1.261 -1.8010 -0.5207  2.0489
 2687TIP3    H2 8026   5.322   6.568   1.230 -0.8718 -1.1868 -2.1573
 2688TIP3   OH2 8027   7.108   1.526   2.735 -0.2396 -0.5318 -0.2329
 2688TIP3    H1 8028   7.098   1.619   2.716  0.1883 -0.3499  0.3881
 2688TIP3    H2 8029   7.166   1.493   2.665 -1.3827 -0.6127 -1.1675
 2689TIP3   OH2 8030   6.666   6.297   5.642  0.3075  0.4467 -0.2824
 2689TIP3    H1 8031   6.571   6.289   5.635  0.2725 -0.6823  0.9864
 2689TIP3    H2 8032   6.697   6.207   5.643  1.4261  0.8095 -0.9392
 2690TIP3   OH2 8033   1.081   6.772   3.537  0.2918 -0.4476 -0.0341
 2690TIP3    H1 8034   1.009   6.809   3.487 -2.0107 -1.6124  2.1706
 2690TIP3    H2 8035   1.094   6.685   3.501 -1.0276 -1.0969  0.9598
 2691TIP3   OH2 8036   0.547   0.949   2.514 -0.6985 -0.0894  0.8862
 2691TIP3    H1 8037   0.583   0.873   2.470 -1.1861  1.2819 -2.1129
 2691TIP3    H2 8038   0.623   0.996   2.548 -0.1911 -0.5600  0.4124
 2692TIP3   OH2 8039   2.410   5.579   0.591  0.2094 -0.6917 -0.5196
 2692TIP3    H1 8040   2.482   5.519   0.575  1.0282  0.2016 -0.2783
 2692TIP3    H2 8041   2.450   5.654   0.634 -0.6437  0.3968 -1.5497
 2693TIP3   OH2 8042   2.864   2.447   2.761  0.2564  0.1648 -0.0375
 2693TIP3    H1 8043   2.869   2.458   2.856 -1.3844 -0.1916  0.1313
 2693TIP3    H2 8044   2.803   2.515   2.732 -0.9380 -1.0448 -0.5109
 2694TIP3   OH2 8045   5.292   4.350   4.425 -0.0324  0.0592  0.3894
 2694TIP3    H1 8046   5.244   4.427   4.392  0.6095  0.4881  0.4474
 2694TIP3    H2 8047   5.337   4.316   4.348  1.2574  0.9051  0.7491
 2695TIP3   OH2 8048   3.441   1.225   1.904  0.3481 -0.2015  0.3132
 2695TIP3    H1 8049   3.424   1.219   1.998 -1.0946  1.5061  0.2112
 2695TIP3    H2 8050   3.404   1.144   1.867 -1.5381  0.3370  0.9271
 2696TIP3   OH2 8051   6.937   6.691   5.519  0.0478 -0.1692 -0.0916
 2696TIP3    H1 8052   6.895   6.613   5.555  0.1922  0.5804  1.7885
 2696TIP3    H2 8053   6.939   6.753   5.592  1.8502  0.8440 -0.9536
 2697TIP3   OH2 8054   1.997   3.362   5.589  0.4279  0.1763 -0.4182
 2697TIP3    H1 8055   1.916   3.342   5.635  0.8966  1.0752  0.8377
 2697TIP3    H2 8056   1.981   3.333   5.499 -0.7381 -1.0163  0.1409
 2698TIP3   OH2 8057   5.928   5.060   0.301  0.5445 -0.0835 -0.1138
 2698TIP3    H1 8058   5.955   5.099   0.384  0.4893  0.1622 -0.2108
 2698TIP3    H2 8059   5.993   4.992   0.284  0.3462 -0.3840  0.3161
 2699TIP3   OH2 8060   4.519   0.403   3.421  0.3101  0.2823 -0.1828
 2699TIP3    H1 8061   4.490   0.478   3.474  1.3815  0.5424  0.0591
 2699TIP3    H2 8062   4.503   0.431   3.330  1.8835  1.3578 -0.1669
 2700TIP3   OH2 8063   6.023   3.627   2.902 -0.4691 -0.7705 -0.4326
 2700TIP3    H1 8064   6.035   3.687   2.975 -2.6470  0.2398 -0.8307
 2700TIP3    H2 8065   5.986   3.681   2.832 -2.0430 -2.4218 -0.9692
 2701TIP3   OH2 8066   6.647   4.616   1.626  0.4936  0.2474 -0.3674
 2701TIP3    H1 8067   6.591   4.633   1.702 -1.0716 -0.5037 -1.3045
 2701TIP3    H2 8068   6.636   4.523   1.608  0.8777  0.4004 -1.4672
 2702TIP3   OH2 8069   3.476   2.237   1.417 -0.4984  0.1552 -0.2201
 2702TIP3    H1 8070   3.517   2.295   1.353 -0.1040  1.2262  0.9888
 2702TIP3    H2 8071   3.382   2.241   1.396 -0.1388 -2.3271 -3.0181
 2703TIP3   OH2 8072   0.141   4.962   3.791  0.4940 -0.2430 -0.3563
 2703TIP3    H1 8073   0.183   4.939   3.873 -1.0896 -3.4645 -0.2488
 2703TIP3    H2 8074   0.081   5.033   3.813  1.2215  0.0045  0.9094
 2704TIP3   OH2 8075   5.629   5.290   3.912 -1.0075 -0.0473 -0.0428
 2704TIP3    H1 8076   5.546   5.298   3.865 -1.1468  1.4089  0.3908
 2704TIP3    H2 8077   5.667   5.378   3.907  0.5204 -0.7047 -0.2399
 2705TIP3   OH2 8078   2.297   3.761   4.581 -0.0169 -0.2235 -0.0933
 2705TIP3    H1 8079   2.294   3.844   4.533  0.1066  0.1945  0.6117
 2705TIP3    H2 8080   2.390   3.741   4.589 -0.0608 -0.6549 -0.6386
 2706TIP3   OH2 8081   6.200   0.200   0.641 -0.6740  0.0836 -0.2193
 2706TIP3    H1 8082   6.215   0.124   0.698 -1.1039 -0.4600 -0.8078
 2706TIP3    H2 8083   6.152   0.262   0.696  0.1221  0.1466  0.4254
 2707TIP3   OH2 8084   1.658   1.609   0.165 -0.1730 -0.3462  0.4652
 2707TIP3    H1 8085   1.729   1.668   0.191  0.0194 -0.6480  0.6281
 2707TIP3    H2 8086   1.663   1.606   0.070 -3.7529  4.4673 -0.2705
 2708TIP3   OH2 8087   4.713   3.581   0.796  0.1601  0.3233  0.1378
 2708TIP3    H1 8088   4.753   3.538   0.721 -0.4109 -1.4891  0.8088
 2708TIP3    H2 8089   4.786   3.620   0.844  0.7149  0.0522 -0.4854
 2709TIP3   OH2 8090   4.083   5.220   2.879  0.4498 -0.4643  0.0877
 2709TIP3    H1 8091   4.074   5.201   2.785 -3.2895 -0.9420  0.3879
 2709TIP3    H2 8092   4.057   5.138   2.922 -2.5943  1.0306  1.4248
 2710TIP3   OH2 8093   1.163   5.911   2.612  0.7095 -1.0276  0.4938
 2710TIP3    H1 8094   1.096   5.965   2.570  0.9351 -1.2116 -0.1116
 2710TIP3    H2 8095   1.142   5.916   2.705  0.2504 -0.5464  0.3727
 2711TIP3   OH2 8096   6.975   3.719   1.608  0.1317 -0.2868  0.0274
 2711TIP3    H1 8097   7.065   3.753   1.612 -0.5990  1.6277  3.3590
 2711TIP3    H2 8098   6.923   3.793   1.575 -0.5361 -0.5626  0.4457
 2712TIP3   OH2 8099   7.010   4.542   4.905 -0.3966 -0.2268  0.3659
 2712TIP3    H1 8100   7.068   4.481   4.951 -0.5401 -0.1686  0.6210
 2712TIP3    H2 8101   7.042   4.629   4.929 -0.9347 -0.1883  0.9496
 2713TIP3   OH2 8102   1.203   1.535   2.603  0.2146 -0.5080 -0.5301
 2713TIP3    H1 8103   1.158   1.557   2.522  1.1204 -0.5922 -1.0636
 2713TIP3    H2 8104   1.178   1.444   2.620 -2.7093  0.4572  1.1352
 2714TIP3   OH2 8105   2.623   3.737   2.037  0.6738 -0.7212  0.3783
 2714TIP3    H1 8106   2.544   3.759   1.988  0.3467 -2.0436  0.2637
 2714TIP3    H2 8107   2.692   3.731   1.971  0.6548 -0.5344  0.3436
 2715TIP3   OH2 8108   0.042   1.343   5.864  0.3350 -0.5518  0.5705
 2715TIP3    H1 8109   0.121   1.300   5.897  0.4648  0.3634  1.5239
 2715TIP3    H2 8110   0.051   1.342   5.769  1.6474 -0.1886  0.6785
 2716TIP3   OH2 8111   0.701   6.158   3.139 -0.0529 -0.5391 -0.1877
 2716TIP3    H1 8112   0.755   6.224   3.096  1.0123 -1.0048  0.3962
 2716TIP3    H2 8113   0.753   6.077   3.133  0.7862 -0.3770  3.0603
 2717TIP3   OH2 8114   4.090   0.974   4.045  0.0389 -0.1521 -0.5979
 2717TIP3    H1 8115   4.036   0.896   4.035 -0.4839  0.2873 -1.3005
 2717TIP3    H2 8116   4.174   0.950   4.004  1.3695 -1.7263  2.7221
 2718TIP3   OH2 8117   6.186   1.786   4.702 -0.5246  0.8918 -0.5011
 2718TIP3    H1 8118   6.237   1.805   4.781 -0.6828  1.6950 -0.5772
 2718TIP3    H2 8119   6.109   1.843   4.710 -1.4620 -0.3413 -0.3467
 2719TIP3   OH2 8120   3.095   2.095   0.186  0.0767 -0.6931  0.2665
 2719TIP3    H1 8121   3.013   2.084   0.234 -1.0846  1.4651 -1.0388
 2719TIP3    H2 8122   3.144   2.159   0.237 -0.5419  0.5261 -0.6174
 2720TIP3   OH2 8123   3.648   5.459   3.400 -0.6111  0.4666  0.1117
 2720TIP3    H1 8124   3.559   5.453   3.364  0.1197  1.3142 -2.0155
 2720TIP3    H2 8125   3.701   5.489   3.326  1.5302 -0.4177  1.2257
 2721TIP3   OH2 8126   6.556   4.836   3.702 -0.2074 -0.1015  0.4218
 2721TIP3    H1 8127   6.635   4.821   3.649 -0.8911  0.2613 -0.7547
 2721TIP3    H2 8128   6.555   4.765   3.765  2.0235  0.8837  1.6731
 2722TIP3   OH2 8129   5.986   3.496   4.198  0.2274  0.2999 -0.5898
 2722TIP3    H1 8130   6.037   3.550   4.137 -0.2707 -0.1688 -1.4394
 2722TIP3    H2 8131   5.913   3.553   4.224 -0.0408  0.2124 -1.1240
 2723TIP3   OH2 8132   3.809   4.397   1.260 -1.0795 -0.7156 -0.2713
 2723TIP3    H1 8133   3.746   4.330   1.287 -0.8495 -1.1398 -0.7563
 2723TIP3    H2 8134   3.889   4.347   1.241 -1.0040 -0.3447 -0.9556
 2724TIP3   OH2 8135   6.962   1.496   5.705 -0.5870 -0.6740  0.6180
 2724TIP3    H1 8136   6.973   1.449   5.622  0.5230 -0.8652  0.8538
 2724TIP3    H2 8137   6.927   1.431   5.765 -0.8063 -0.7012  0.4617
 2725TIP3   OH2 8138   1.822   1.844   1.890 -0.1252 -0.4740 -0.0503
 2725TIP3    H1 8139   1.901   1.844   1.944  0.3115  0.6698 -0.6502
 2725TIP3    H2 8140   1.849   1.885   1.808 -1.7668  1.5734  0.3644
 2726TIP3   OH2 8141   4.517   3.073   3.613 -0.1587 -0.3843 -0.5509
 2726TIP3    H1 8142   4.534   3.141   3.678  0.7343 -0.5519 -0.6015
 2726TIP3    H2 8143   4.422   3.078   3.597  0.1976  2.5376 -2.4440
 2727TIP3   OH2 8144   0.863   3.925   4.715  0.2391 -0.1900  0.2057
 2727TIP3    H1 8145   0.846   4.016   4.694  0.4683 -0.7664 -3.0007
 2727TIP3    H2 8146   0.953   3.924   4.750  0.0548  0.8214  0.7387
 2728TIP3   OH2 8147   5.708   6.115   1.941 -0.1424 -0.2527 -0.0615
 2728TIP3    H1 8148   5.658   6.192   1.914 -1.0582 -0.1637  1.7211
 2728TIP3    H2 8149   5.644   6.060   1.986  1.3300 -0.0857  2.4105
 2729TIP3   OH2 8150   2.187   5.864   5.471  0.4895 -0.1232 -0.4952
 2729TIP3    H1 8151   2.255   5.822   5.420  1.4250 -1.3751  1.6341
 2729TIP3    H2 8152   2.146   5.792   5.520 -2.1311  0.6460 -1.3843
 2730TIP3   OH2 8153   5.005   5.607   5.908 -0.3518  0.1094  0.0112
 2730TIP3    H1 8154   5.013   5.632   5.816  0.5113 -1.7789 -0.4755
 2730TIP3    H2 8155   5.033   5.516   5.911 -0.4838  0.0791  2.1435
 2731TIP3   OH2 8156   1.769   3.243   5.671 -0.0906 -0.2234 -0.3594
 2731TIP3    H1 8157   1.776   3.151   5.645  1.5029  0.1027 -1.1534
 2731TIP3    H2 8158   1.678   3.252   5.700 -0.3429 -1.9842 -0.4900
 2732TIP3   OH2 8159   4.377   5.583   3.988 -0.3647  0.4107  0.3843
 2732TIP3    H1 8160   4.286   5.606   4.001 -0.5546  0.0474 -0.2646
 2732TIP3    H2 8161   4.414   5.655   3.938 -0.1379  0.8471  1.1656
 2733TIP3   OH2 8162   5.318   6.203   4.328 -0.0284 -0.4261 -0.1049
 2733TIP3    H1 8163   5.292   6.197   4.420 -0.1478 -0.2303 -0.1254
 2733TIP3    H2 8164   5.400   6.154   4.323 -0.1948 -0.7245  0.0363
 2734TIP3   OH2 8165   1.040   2.847   4.478  0.1090 -0.3949 -0.0775
 2734TIP3    H1 8166   0.995   2.917   4.525  0.5511  0.0970 -0.3794
 2734TIP3    H2 8167   1.019   2.862   4.386  0.2030 -0.6635 -0.1443
 2735TIP3   OH2 8168   2.871   3.231   5.787 -0.1826 -0.8294  0.2656
 2735TIP3    H1 8169   2.793   3.175   5.784 -0.7997 -0.0962  1.7723
 2735TIP3    H2 8170   2.856   3.297   5.720  0.0694 -1.8290 -0.8062
 2736TIP3   OH2 8171   4.955   6.200   1.111 -0.0054 -0.2037 -0.4522
 2736TIP3    H1 8172   4.996   6.195   1.025  1.6323  0.6547  0.2332
 2736TIP3    H2 8173   5.012   6.147   1.167 -1.4276 -1.3236 -0.0025
 2737TIP3   OH2 8174   6.054   4.399   0.876  0.3960  0.1375  0.2049
 2737TIP3    H1 8175   6.143   4.363   0.882  0.2480 -0.2506  0.0747
 2737TIP3    H2 8176   6.001   4.343   0.933 -0.0725 -0.6388 -0.9506
 2738TIP3   OH2 8177   2.683   1.077   4.807 -0.1747 -0.2925 -0.0103
 2738TIP3    H1 8178   2.661   1.003   4.750  1.0196  1.0717 -2.3740
 2738TIP3    H2 8179   2.610   1.138   4.796  0.9822  0.8590 -1.7892
 2739TIP3   OH2 8180   7.178   1.423   3.195 -0.7863 -0.2739  0.0504
 2739TIP3    H1 8181   7.196   1.405   3.102 -0.7629  0.2149 -0.0402
 2739TIP3    H2 8182   7.205   1.514   3.207 -1.8246  0.0069  0.2733
 2740TIP3   OH2 8183   2.121   1.354   4.516  0.2789 -0.2245 -0.0610
 2740TIP3    H1 8184   2.153   1.388   4.600 -0.1877  1.8956 -0.6948
 2740TIP3    H2 8185   2.189   1.378   4.453 -0.7923  0.9933 -0.7890
 2741TIP3   OH2 8186   5.414   3.635   4.244 -0.2538 -0.6526 -0.3544
 2741TIP3    H1 8187   5.436   3.542   4.241 -1.4225 -0.9531 -0.2851
 2741TIP3    H2 8188   5.334   3.639   4.297 -1.3165  0.1451 -1.9259
 2742TIP3   OH2 8189   3.404   3.710   5.254  0.7964 -0.1550 -0.4262
 2742TIP3    H1 8190   3.356   3.786   5.289 -4.2749 -3.1009  0.0383
 2742TIP3    H2 8191   3.384   3.712   5.160  2.5604  0.1774 -0.8269
 2743TIP3   OH2 8192   1.424   1.698   4.071  0.0929 -0.5352 -0.2996
 2743TIP3    H1 8193   1.484   1.771   4.088 -2.3958  1.0241  3.2620
 2743TIP3    H2 8194   1.347   1.740   4.032 -0.3554 -1.7208 -0.7206
 2744TIP3   OH2 8195   5.428   1.796   3.609  0.1213  0.1722 -0.1536
 2744TIP3    H1 8196   5.361   1.864   3.598  0.1565  0.2539  0.1239
 2744TIP3    H2 8197   5.508   1.835   3.573  0.6612  1.1210  1.8905
 2745TIP3   OH2 8198   3.726   6.042   2.281 -0.4884  0.4342 -0.8147
 2745TIP3    H1 8199   3.813   6.002   2.293 -0.0401  1.0990 -1.6935
 2745TIP3    H2 8200   3.667   5.967   2.273 -0.2474 -0.0425  1.2711
 2746TIP3   OH2 8201   0.095   3.021   0.204  0.3240  0.3772 -0.9079
 2746TIP3    H1 8202   0.064   3.006   0.293  2.8738  1.4606  0.2920
 2746TIP3    H2 8203   0.017   3.017   0.150 -1.1596 -1.5723  1.1858
 2747TIP3   OH2 8204   0.211   3.177   2.581 -0.1390  0.0938 -0.1611
 2747TIP3    H1 8205   0.141   3.127   2.623  0.3905 -1.1176 -0.6442
 2747TIP3    H2 8206   0.196   3.164   2.487 -0.5609  1.6910 -0.3364
 2748TIP3   OH2 8207   3.627   0.028   2.572  0.3297  0.0327  0.6183
 2748TIP3    H1 8208   3.537   0.018   2.542  0.2673  1.3823  0.3035
 2748TIP3    H2 8209   3.627  -0.014   2.658 -0.4502 -0.4964  0.3761
 2749TIP3   OH2 8210   1.735   4.636   2.314  0.5130  0.6959 -0.4730
 2749TIP3    H1 8211   1.668   4.633   2.246 -0.8439  0.9519  0.7845
 2749TIP3    H2 8212   1.754   4.729   2.324  1.0036  0.6280 -0.7772
 2750TIP3   OH2 8213   1.921   0.075   5.644  0.2036 -1.1000 -0.2131
 2750TIP3    H1 8214   1.905   0.163   5.608  0.3108 -0.1122  1.9828
 2750TIP3    H2 8215   1.906   0.016   5.570 -0.1600  0.7300 -1.6935
 2751TIP3   OH2 8216   0.480   2.588   1.829 -0.1343 -0.2137  0.2998
 2751TIP3    H1 8217   0.413   2.638   1.877  0.1396 -0.4676  0.9678
 2751TIP3    H2 8218   0.557   2.591   1.886  0.1152 -0.7574 -0.0058
 2752TIP3   OH2 8219   3.805   6.007   0.535  0.2691  0.8002 -0.1119
 2752TIP3    H1 8220   3.862   5.935   0.506 -0.0341  0.2852  0.5507
 2752TIP3    H2 8221   3.761   6.036   0.456  1.1097  0.9010 -0.5574
 2753TIP3   OH2 8222   4.546   2.455   5.621  0.4649 -0.0404  0.6000
 2753TIP3    H1 8223   4.567   2.547   5.601  1.0223 -0.5308 -1.3541
 2753TIP3    H2 8224   4.451   2.453   5.626  0.3632  0.4477 -0.6642
 2754TIP3   OH2 8225   5.879   3.965   3.344  0.0334 -0.6383  0.3288
 2754TIP3    H1 8226   5.802   3.947   3.290  0.3487  0.6950 -0.6147
 2754TIP3    H2 8227   5.899   3.881   3.385 -2.7626 -0.7137  1.7778
 2755TIP3   OH2 8228   0.339   1.858   1.491 -0.2938 -0.4143  0.5490
 2755TIP3    H1 8229   0.423   1.858   1.536 -0.2811  2.2996  0.6724
 2755TIP3    H2 8230   0.356   1.899   1.406 -1.3131 -0.6613  0.2058
 2756TIP3   OH2 8231   0.142   3.695   5.154  0.6246  0.5151  0.4217
 2756TIP3    H1 8232   0.177   3.672   5.240  0.7757 -1.6571 -0.1678
 2756TIP3    H2 8233   0.047   3.693   5.165  0.5855 -1.8694  0.1006
 2757TIP3   OH2 8234   6.506   0.486   0.819  0.4493  0.4384 -0.3424
 2757TIP3    H1 8235   6.458   0.449   0.745  2.4273 -0.0370 -1.4765
 2757TIP3    H2 8236   6.545   0.566   0.784  0.7169  0.6516  0.4278
 2758TIP3   OH2 8237   6.041   2.462   2.153  0.4457 -0.6106  0.1595
 2758TIP3    H1 8238   6.087   2.525   2.098 -0.6161 -0.4171 -0.5352
 2758TIP3    H2 8239   6.110   2.407   2.191  1.2215 -0.4785 -1.0341
 2759TIP3   OH2 8240   3.144   1.700   5.545 -0.3518  0.0393  0.0232
 2759TIP3    H1 8241   3.181   1.612   5.554  2.7484  1.3063  0.7711
 2759TIP3    H2 8242   3.126   1.728   5.635 -1.8171  0.0455 -0.2368
 2760TIP3   OH2 8243   3.688   2.028   0.636 -0.0927  0.1381  0.4200
 2760TIP3    H1 8244   3.684   1.942   0.593 -0.4988 -1.0070  2.6392
 2760TIP3    H2 8245   3.778   2.056   0.624 -0.0961 -0.3060 -0.8311
 2761TIP3   OH2 8246   7.182   5.314   2.588 -0.0432 -0.4905  0.3173
 2761TIP3    H1 8247   7.126   5.377   2.543 -0.1643 -2.0421 -1.8580
 2761TIP3    H2 8248   7.251   5.366   2.627 -0.9009  1.1034 -0.2026
 2762TIP3   OH2 8249   4.448   0.261   1.406 -0.4506 -0.1290 -0.1175
 2762TIP3    H1 8250   4.471   0.169   1.419 -0.8540 -0.1188  0.7574
 2762TIP3    H2 8251   4.360   0.269   1.443 -0.9648  0.3215 -1.4045
 2763TIP3   OH2 8252   0.565   1.957   0.872 -0.5053  0.0770 -0.5418
 2763TIP3    H1 8253   0.491   2.004   0.911  0.0559  0.0060  0.6432
 2763TIP3    H2 8254   0.584   1.887   0.934 -0.1505 -0.6016 -1.3944
 2764TIP3   OH2 8255   4.366   1.570   2.793  0.2733  0.3328 -0.2687
 2764TIP3    H1 8256   4.362   1.659   2.757 -1.1119  0.3511 -0.1060
 2764TIP3    H2 8257   4.301   1.521   2.742  0.6413 -0.4548  0.0086
 2765TIP3   OH2 8258   0.052   4.926   3.500  0.0168  0.6731 -0.1720
 2765TIP3    H1 8259   0.052   4.849   3.442  0.3815  0.2541  0.3713
 2765TIP3    H2 8260   0.131   4.915   3.554  0.3140  1.6617 -0.3831
 2766TIP3   OH2 8261   3.833   5.971   5.599 -0.1884 -0.5377  0.0890
 2766TIP3    H1 8262   3.905   5.910   5.614 -0.2680 -0.6937 -0.1604
 2766TIP3    H2 8263   3.847   6.004   5.510 -0.2451 -0.3239  0.1573
 2767TIP3   OH2 8264   6.242   2.463   4.285 -0.4556 -0.3250 -0.1106
 2767TIP3    H1 8265   6.288   2.505   4.358 -1.8701  0.0057  0.6247
 2767TIP3    H2 8266   6.150   2.488   4.297 -0.7959 -0.6895 -1.7200
 2768TIP3   OH2 8267   1.180   4.026   2.339  0.1660  0.4814  0.2893
 2768TIP3    H1 8268   1.139   3.940   2.328 -1.9599  1.4539  0.1418
 2768TIP3    H2 8269   1.265   4.018   2.297 -0.0928 -1.4748  0.0670
 2769TIP3   OH2 8270   6.733   4.205   0.721  0.5217  0.2224 -0.2082
 2769TIP3    H1 8271   6.759   4.285   0.675  2.2549  0.0975  0.4890
 2769TIP3    H2 8272   6.643   4.223   0.750 -0.3922  0.5719 -2.9321
 2770TIP3   OH2 8273   0.736   3.858   2.713 -0.0260  0.1308 -0.3944
 2770TIP3    H1 8274   0.650   3.832   2.681  0.3569 -0.7330 -0.7783
 2770TIP3    H2 8275   0.720   3.937   2.765 -1.9083 -2.7043  3.9651
 2771TIP3   OH2 8276   0.683   3.342   0.995 -0.1391  0.3430  0.2303
 2771TIP3    H1 8277   0.715   3.253   0.977  0.2140  0.2396  1.2812
 2771TIP3    H2 8278   0.643   3.335   1.082 -0.3959  1.1479  0.1792
 2772TIP3   OH2 8279   4.912   4.855   1.413 -0.4205  0.1689 -1.0573
 2772TIP3    H1 8280   4.849   4.902   1.467 -0.8702 -0.7359 -0.7744
 2772TIP3    H2 8281   4.863   4.781   1.378  0.2595 -0.0712 -1.5331
 2773TIP3   OH2 8282   3.994   0.671   5.112 -0.2239 -0.0549 -0.0882
 2773TIP3    H1 8283   3.917   0.660   5.168 -1.0750  2.2811 -0.7022
 2773TIP3    H2 8284   3.958   0.678   5.023  0.9829 -2.1031 -0.8083
 2774TIP3   OH2 8285   4.516   0.665   1.507 -1.0319  0.1971  0.5876
 2774TIP3    H1 8286   4.448   0.731   1.494 -1.0255  0.4315  1.6089
 2774TIP3    H2 8287   4.571   0.702   1.577 -1.5074 -1.2451  1.7695
 2775TIP3   OH2 8288   3.531   5.146   1.165 -0.1606  0.3091  0.1021
 2775TIP3    H1 8289   3.493   5.168   1.080 -0.2197  1.5785  0.4460
 2775TIP3    H2 8290   3.555   5.230   1.204 -1.2451 -0.1288  1.8548
 2776TIP3   OH2 8291   5.191   4.375   2.925  0.3233  0.3474  0.0191
 2776TIP3    H1 8292   5.179   4.453   2.871  2.5816  1.0441  0.4459
 2776TIP3    H2 8293   5.223   4.309   2.864 -2.6292 -0.6834 -0.5722
 2777TIP3   OH2 8294   4.258   0.035   1.340 -0.1978 -0.1233  0.1875
 2777TIP3    H1 8295   4.201   0.019   1.415 -1.4538 -1.0641 -0.9281
 2777TIP3    H2 8296   4.346   0.037   1.377 -0.7619 -0.8234  1.6512
 2778TIP3   OH2 8297   5.333   1.239   1.393 -0.5319 -0.1334 -0.4721
 2778TIP3    H1 8298   5.365   1.151   1.408  0.7417  0.2685 -0.7341
 2778TIP3    H2 8299   5.324   1.245   1.297  0.1435  0.2689 -0.5145
 2779TIP3   OH2 8300   7.164   0.844   0.961 -0.3381 -0.4482 -0.2928
 2779TIP3    H1 8301   7.114   0.906   0.908 -0.2577 -0.1906 -0.0747
 2779TIP3    H2 8302   7.110   0.831   1.039  0.6682  1.1457  0.7399
 2780TIP3   OH2 8303   6.108   3.123   1.578 -0.0422  0.1544 -0.2922
 2780TIP3    H1 8304   6.058   3.157   1.653  0.7877  0.8623 -0.0401
 2780TIP3    H2 8305   6.169   3.061   1.616 -0.3886 -0.3519 -0.5431
 2781TIP3   OH2 8306   3.657   4.341   5.699 -0.9863  0.5615  0.7881
 2781TIP3    H1 8307   3.626   4.324   5.788 -0.4707 -0.5600  0.7710
 2781TIP3    H2 8308   3.607   4.281   5.644  0.4694 -0.6101  0.6525
 2782TIP3   OH2 8309   0.588   0.338   1.485  0.2773  0.5607 -0.3685
 2782TIP3    H1 8310   0.612   0.384   1.566 -0.2021  0.3396 -0.1019
 2782TIP3    H2 8311   0.672   0.306   1.451  0.1749 -2.7489  2.0679
 2783TIP3   OH2 8312   2.223   1.712   3.547  0.0431  0.0416  0.1313
 2783TIP3    H1 8313   2.166   1.750   3.480  0.5763  1.0513  0.2288
 2783TIP3    H2 8314   2.311   1.721   3.512  0.4694  1.8259  1.4947
 2784TIP3   OH2 8315   6.516   1.579   0.649 -0.3521 -0.5671  0.3091
 2784TIP3    H1 8316   6.478   1.667   0.643  0.5479 -0.2332 -0.7037
 2784TIP3    H2 8317   6.607   1.590   0.623 -0.2386 -1.8123  0.1202
 2785TIP3   OH2 8318   5.549   1.473   4.721 -0.1396  0.0136  0.4161
 2785TIP3    H1 8319   5.562   1.521   4.640  0.8908 -0.9805 -0.0452
 2785TIP3    H2 8320   5.595   1.389   4.707  0.5959  0.0545  2.2236
 2786TIP3   OH2 8321   7.149   3.877   1.140  0.0602  0.2614 -0.2639
 2786TIP3    H1 8322   7.222   3.832   1.184  0.2234  1.1992  0.4587
 2786TIP3    H2 8323   7.185   3.962   1.115 -1.5220  1.9684  2.7008
 2787TIP3   OH2 8324   5.243   4.720   4.512  0.3849 -0.3363  0.1905
 2787TIP3    H1 8325   5.214   4.665   4.439 -1.3196 -3.5257  3.0066
 2787TIP3    H2 8326   5.167   4.775   4.532 -0.0527 -1.2163  1.0221
 2788TIP3   OH2 8327   4.323   4.334   3.103  0.4439 -0.0810  0.1947
 2788TIP3    H1 8328   4.290   4.275   3.170 -0.3548  0.3280  0.1724
 2788TIP3    H2 8329   4.249   4.349   3.044  1.2862 -0.8993 -1.1302
 2789TIP3   OH2 8330   3.230   3.635   0.219  0.1494 -0.1765 -0.2408
 2789TIP3    H1 8331   3.187   3.617   0.135  0.5457 -0.1608 -0.4503
 2789TIP3    H2 8332   3.162   3.674   0.273 -0.3203 -0.8914 -0.2954
 2790TIP3   OH2 8333   2.739   0.280   0.040 -0.0279 -0.1209  0.1442
 2790TIP3    H1 8334   2.784   0.349  -0.008 -1.3072  0.4472 -0.2819
 2790TIP3    H2 8335   2.697   0.227  -0.028 -0.9542  0.0514  0.5631
 2791TIP3   OH2 8336   0.635   0.904   3.815  0.5628 -0.7143  0.1407
 2791TIP3    H1 8337   0.588   0.880   3.736 -0.0934  1.8046 -0.3346
 2791TIP3    H2 8338   0.569   0.945   3.871  1.3072 -1.1853  1.4035
 2792TIP3   OH2 8339   4.170   0.342   1.456  0.1444  0.3527  0.2431
 2792TIP3    H1 8340   4.150   0.303   1.371 -0.0588 -1.7567  1.1900
 2792TIP3    H2 8341   4.115   0.421   1.459 -0.4229  0.0596 -1.2546
 2793TIP3   OH2 8342   3.165   5.572   5.647  0.1757  0.1850  0.2309
 2793TIP3    H1 8343   3.174   5.582   5.552  0.0356  2.4431  0.4084
 2793TIP3    H2 8344   3.072   5.552   5.659 -0.0594  1.0550 -0.0546
 2794TIP3   OH2 8345   0.529   2.139   1.605  0.0680  0.4104 -0.7573
 2794TIP3    H1 8346   0.463   2.164   1.669  0.9564  2.0245 -0.4072
 2794TIP3    H2 8347   0.506   2.187   1.526  0.1634  0.0733 -0.9901
 2795TIP3   OH2 8348   6.416   1.375   0.485 -0.0759 -0.9401 -0.2107
 2795TIP3    H1 8349   6.445   1.449   0.540 -0.1619  0.0183 -1.4052
 2795TIP3    H2 8350   6.327   1.399   0.459  0.0462 -1.2605 -0.9449
 2796TIP3   OH2 8351   3.514   6.352   2.695 -0.0218  0.3314 -0.0290
 2796TIP3    H1 8352   3.426   6.345   2.733  0.4912  0.3253  1.2130
 2796TIP3    H2 8353   3.499   6.377   2.604 -1.3859 -1.9869 -0.5108
 2797TIP3   OH2 8354   4.069   1.534   0.689 -0.6457  0.4435  0.4168
 2797TIP3    H1 8355   3.981   1.558   0.718 -0.3439  1.1859  0.7666
 2797TIP3    H2 8356   4.127   1.585   0.746 -0.0081  0.5178 -0.2820
 2798TIP3   OH2 8357   4.360   3.245   2.988  0.1516  0.1969  0.1751
 2798TIP3    H1 8358   4.366   3.327   2.938 -0.9491 -0.3251 -0.8421
 2798TIP3    H2 8359   4.337   3.273   3.077 -0.0406  0.9986 -0.1193
 2799TIP3   OH2 8360   0.528   4.670   2.081 -0.1641 -0.0053  0.4049
 2799TIP3    H1 8361   0.548   4.577   2.096 -1.8532  0.0362  4.3091
 2799TIP3    H2 8362   0.436   4.670   2.054  0.5891  0.5062 -2.4266
 2800TIP3   OH2 8363   5.108   1.957   4.383  0.0222  0.1149 -0.2278
 2800TIP3    H1 8364   5.045   1.896   4.344 -1.2762  1.4098 -0.2327
 2800TIP3    H2 8365   5.056   2.034   4.405  1.0064  0.1068  2.5453
 2801TIP3   OH2 8366   0.091   2.297   3.381  0.4201  0.4026 -0.5828
 2801TIP3    H1 8367   0.130   2.258   3.459 -0.6697 -0.7849 -0.5924
 2801TIP3    H2 8368   0.078   2.223   3.322 -0.0722  1.0687 -1.3252
 2802TIP3   OH2 8369   2.067   4.261   2.885 -0.4703 -0.1513 -0.7350
 2802TIP3    H1 8370   2.125   4.300   2.820 -0.5738  2.2922  0.5396
 2802TIP3    H2 8371   1.988   4.316   2.884 -0.8132 -0.5494  0.8460
 2803TIP3   OH2 8372   5.710   1.949   3.897 -0.2736  0.2791 -0.0914
 2803TIP3    H1 8373   5.777   1.918   3.835  0.9054  1.0239  0.7834
 2803TIP3    H2 8374   5.631   1.958   3.843 -0.1214 -2.0915 -0.8442
 2804TIP3   OH2 8375   1.733   5.138   2.760  0.6415 -0.7419 -0.8668
 2804TIP3    H1 8376   1.675   5.171   2.829 -0.6173 -1.5689 -1.4969
 2804TIP3    H2 8377   1.795   5.081   2.806  0.1151 -0.8986 -0.3420
 2805TIP3   OH2 8378   4.040   2.886   3.231  0.2522  0.0257 -0.4855
 2805TIP3    H1 8379   3.981   2.948   3.189  1.4970  2.5340  1.2540
 2805TIP3    H2 8380   4.123   2.897   3.185  0.9323  0.9481  0.8977
 2806TIP3   OH2 8381   6.726   0.546   2.972 -0.2133 -0.1285 -0.1216
 2806TIP3    H1 8382   6.640   0.543   3.015 -0.9215  1.0306 -1.3937
 2806TIP3    H2 8383   6.785   0.581   3.038 -1.2194  1.3512  0.0330
 2807TIP3   OH2 8384   0.686   3.848   5.201 -0.1647  0.0324 -0.0123
 2807TIP3    H1 8385   0.707   3.757   5.181 -2.9234 -0.2671 -2.1760
 2807TIP3    H2 8386   0.737   3.899   5.138  1.9969  0.1360  1.7170
 2808TIP3   OH2 8387   4.949   1.131   1.410  0.1096 -0.4593 -1.0442
 2808TIP3    H1 8388   4.978   1.045   1.438 -0.1567 -0.1683  0.1980
 2808TIP3    H2 8389   4.874   1.151   1.466  0.1849  0.5932 -1.2847
 2809TIP3   OH2 8390   3.796   4.567   3.898 -0.3255 -0.5196 -0.2762
 2809TIP3    H1 8391   3.831   4.630   3.835 -0.9500  0.6784  0.5314
 2809TIP3    H2 8392   3.866   4.503   3.909 -0.4713 -1.1817 -2.7107
 2810TIP3   OH2 8393   2.038   4.951   0.960  0.2584 -0.3562 -0.2253
 2810TIP3    H1 8394   2.016   4.872   0.912 -1.0018  0.0766 -0.4112
 2810TIP3    H2 8395   2.068   5.013   0.893  5.3625 -1.8418  0.2640
 2811TIP3   OH2 8396   6.720   4.239   5.199 -0.0302 -0.0738  0.7063
 2811TIP3    H1 8397   6.803   4.285   5.190 -0.5158  0.8411  0.7736
 2811TIP3    H2 8398   6.715   4.217   5.292 -0.0880  0.3293  0.8024
 2812TIP3   OH2 8399   6.162   0.950   3.000  0.6827  0.3807  0.2180
 2812TIP3    H1 8400   6.108   0.899   3.061  0.0237  2.7356  1.7383
 2812TIP3    H2 8401   6.152   0.905   2.916 -0.5780 -1.4301  1.2627
 2813TIP3   OH2 8402   1.710   1.873   2.295 -0.0782  0.2161 -0.3560
 2813TIP3    H1 8403   1.788   1.821   2.314 -0.4649 -0.8921 -1.6476
 2813TIP3    H2 8404   1.741   1.942   2.237  0.0267  0.0838 -0.4564
 2814TIP3   OH2 8405   3.894   4.151   3.665 -0.4010 -0.0915  0.2617
 2814TIP3    H1 8406   3.819   4.211   3.668  2.1338  3.4804 -1.1125
 2814TIP3    H2 8407   3.925   4.147   3.756  0.2688  2.0918  0.1990
 2815TIP3   OH2 8408   3.348   2.742   2.143  0.1742  0.3518  0.6293
 2815TIP3    H1 8409   3.259   2.775   2.138  0.1805  0.4643  1.1629
 2815TIP3    H2 8410   3.366   2.736   2.237  0.3624 -0.6599  0.5427
 2816TIP3   OH2 8411   3.555   1.468   5.619 -0.1964 -0.0201  0.1804
 2816TIP3    H1 8412   3.462   1.451   5.606 -0.4325  1.8533 -0.9402
 2816TIP3    H2 8413   3.583   1.400   5.680 -1.5266 -2.7308 -1.9970
 2817TIP3   OH2 8414   0.267   3.630   3.919 -0.3790  0.0345  0.2361
 2817TIP3    H1 8415   0.336   3.563   3.916  0.1531  0.2646  3.4721
 2817TIP3    H2 8416   0.189   3.582   3.946 -0.9961  0.1299 -1.3190
 2818TIP3   OH2 8417   6.263   2.069   4.808  0.0971  0.0342 -0.3441
 2818TIP3    H1 8418   6.240   1.982   4.838  2.8606 -0.4953  0.5406
 2818TIP3    H2 8419   6.200   2.088   4.738 -0.1712 -2.9255 -1.0360
 2819TIP3   OH2 8420   1.516   6.383   1.422  0.4711  0.0958 -0.2562
 2819TIP3    H1 8421   1.425   6.409   1.436  1.0538  1.8932  0.5844
 2819TIP3    H2 8422   1.541   6.338   1.502  0.2906 -0.5214 -0.5434
 2820TIP3   OH2 8423   4.680   1.270   3.047 -0.2308 -0.7486  0.3200
 2820TIP3    H1 8424   4.606   1.326   3.022  0.7662 -0.2032 -1.6803
 2820TIP3    H2 8425   4.641   1.184   3.062 -1.3036 -0.4525 -0.6132
 2821TIP3   OH2 8426   1.358   2.435   2.470 -0.3455  0.1614 -0.3333
 2821TIP3    H1 8427   1.344   2.409   2.379 -0.6041 -0.8965  0.0010
 2821TIP3    H2 8428   1.442   2.482   2.469  0.5037 -1.3110 -0.8464
 2822TIP3   OH2 8429   5.497   3.446   5.782  0.5718 -0.3760 -0.0142
 2822TIP3    H1 8430   5.542   3.383   5.726  1.5961  1.4201 -1.3077
 2822TIP3    H2 8431   5.472   3.518   5.724 -2.3033 -0.3952  1.0426
 2823TIP3   OH2 8432   1.551   1.139   2.267 -0.2156  0.8635 -0.1728
 2823TIP3    H1 8433   1.615   1.142   2.196 -0.0670  2.8256 -0.0213
 2823TIP3    H2 8434   1.467   1.148   2.222 -0.3187 -0.3408 -0.2598
 2824TIP3   OH2 8435   0.220   6.310   3.519 -0.4339 -0.0584 -0.6055
 2824TIP3    H1 8436   0.127   6.302   3.537 -0.0283 -2.9334  0.8590
 2824TIP3    H2 8437   0.229   6.282   3.428 -1.1575  2.2467 -1.4398
 2825TIP3   OH2 8438   5.022   1.397   1.667 -0.0978  0.1817  0.6506
 2825TIP3    H1 8439   5.058   1.485   1.678 -0.6131  0.4066  0.5360
 2825TIP3    H2 8440   5.097   1.339   1.683  0.4024  0.6533  0.0723
 2826TIP3   OH2 8441   0.068   3.635   1.489 -0.1754 -0.4446 -0.6154
 2826TIP3    H1 8442   0.029   3.700   1.547 -2.4627 -0.8564 -1.5889
 2826TIP3    H2 8443  -0.002   3.570   1.475  1.1385 -1.6747 -1.8062
 2827TIP3   OH2 8444   3.777   0.772   4.604  0.0953 -0.4347 -0.5330
 2827TIP3    H1 8445   3.779   0.678   4.586 -1.2808  0.1070 -4.8984
 2827TIP3    H2 8446   3.851   0.807   4.553 -0.8592  0.9903 -0.9998
 2828TIP3   OH2 8447   2.318   4.483   4.781 -0.2358 -0.2400  0.3272
 2828TIP3    H1 8448   2.224   4.464   4.783 -0.2600 -0.1408  0.1677
 2828TIP3    H2 8449   2.335   4.509   4.691  0.0211 -0.6300  0.2645
 2829TIP3   OH2 8450   4.015   4.330   4.741 -0.2374  0.5161 -0.4920
 2829TIP3    H1 8451   4.110   4.338   4.733 -0.2004 -0.3511 -1.1427
 2829TIP3    H2 8452   3.995   4.244   4.704 -1.1812  0.2862  0.4977
 2830TIP3   OH2 8453   1.324   0.879   1.310 -0.2811  0.0279  0.4119
 2830TIP3    H1 8454   1.411   0.918   1.324 -0.0053  0.0512 -1.1231
 2830TIP3    H2 8455   1.314   0.816   1.381 -0.0410  1.7119  1.9999
 2831TIP3   OH2 8456   6.779   5.849   1.349  0.0542  0.1605  0.4937
 2831TIP3    H1 8457   6.685   5.860   1.333 -0.0079 -0.6526  0.2484
 2831TIP3    H2 8458   6.818   5.837   1.263  0.5007  1.2191  0.5314
 2832TIP3   OH2 8459   5.801   3.281   1.250 -0.3366 -0.1308 -0.6052
 2832TIP3    H1 8460   5.870   3.272   1.183  0.6315 -1.2663  0.5001
 2832TIP3    H2 8461   5.740   3.345   1.212  0.3508 -0.4752 -2.4227
 2833TIP3   OH2 8462   6.439   5.461   2.528 -0.1181 -0.6094 -0.5079
 2833TIP3    H1 8463   6.444   5.466   2.433  0.0231  0.7629 -0.4548
 2833TIP3    H2 8464   6.357   5.416   2.546  0.2206 -1.5752 -1.2674
 2834TIP3   OH2 8465   3.808   5.497   1.727 -0.1250 -0.2335 -0.7701
 2834TIP3    H1 8466   3.773   5.455   1.649  1.4315  0.6212 -1.9784
 2834TIP3    H2 8467   3.860   5.570   1.694 -0.9017  1.2717  1.1605
 2835TIP3   OH2 8468   5.279   5.426   2.406  0.6760  0.6184  0.3246
 2835TIP3    H1 8469   5.338   5.366   2.360  1.3504  0.4758  1.3618
 2835TIP3    H2 8470   5.332   5.503   2.426 -0.0265  1.3437 -0.4714
 2836TIP3   OH2 8471   6.306   3.647   3.242  0.0830  0.0262 -0.0411
 2836TIP3    H1 8472   6.387   3.681   3.203  0.0075  0.3202  0.0597
 2836TIP3    H2 8473   6.268   3.721   3.288  1.8834 -1.0628  3.5002
 2837TIP3   OH2 8474   5.055   6.702   5.744 -0.0231 -0.3771  0.3312
 2837TIP3    H1 8475   5.121   6.633   5.735  1.6941  1.2623 -0.4210
 2837TIP3    H2 8476   4.982   6.673   5.689  1.2993 -0.9141 -1.2269
 2838TIP3   OH2 8477   5.547   2.831   5.183  0.2271 -0.6904 -0.2192
 2838TIP3    H1 8478   5.563   2.741   5.211  0.8028 -0.3426  0.6084
 2838TIP3    H2 8479   5.626   2.855   5.135  0.6312 -0.2096  0.6642
 2839TIP3   OH2 8480   1.602   4.234   1.892 -0.3616 -0.3027 -0.0554
 2839TIP3    H1 8481   1.582   4.181   1.969 -2.8100 -0.3279 -0.6273
 2839TIP3    H2 8482   1.624   4.320   1.926 -1.7470 -0.2258  0.6864
 2840TIP3   OH2 8483   3.178   3.017   4.398 -0.2734  0.3231  0.5818
 2840TIP3    H1 8484   3.147   3.094   4.351  0.5107  0.8503  0.9091
 2840TIP3    H2 8485   3.120   3.009   4.473 -0.7936  0.1759  0.1688
 2841TIP3   OH2 8486   3.126   0.648   5.686 -0.4355 -0.2161 -0.4064
 2841TIP3    H1 8487   3.156   0.645   5.776  0.7302 -0.7120 -0.7858
 2841TIP3    H2 8488   3.177   0.580   5.641  0.4355  1.2912 -1.8315
 2842TIP3   OH2 8489   0.513   5.887   1.983 -0.1669 -0.2143  0.0531
 2842TIP3    H1 8490   0.459   5.964   1.999  0.6199  0.1776  0.9146
 2842TIP3    H2 8491   0.471   5.843   1.909 -0.3778  1.2643 -0.7267
 2843TIP3   OH2 8492   7.137   6.583   4.744  0.2200  0.2579  0.6035
 2843TIP3    H1 8493   7.112   6.565   4.834 -0.1186  1.0797  0.6831
 2843TIP3    H2 8494   7.056   6.575   4.694  0.3887 -0.0983  0.3775
 2844TIP3   OH2 8495   0.216   2.548   2.726  0.2238 -0.1393  0.1490
 2844TIP3    H1 8496   0.185   2.636   2.706  0.7458  0.5378  2.0471
 2844TIP3    H2 8497   0.137   2.497   2.744  0.0027  0.9796  2.7468
 2845TIP3   OH2 8498   6.100   5.151   4.692 -0.0290  0.0313  0.3237
 2845TIP3    H1 8499   6.193   5.147   4.672 -0.0363  0.1388  0.2682
 2845TIP3    H2 8500   6.056   5.140   4.608 -0.0730 -0.3734  0.3966
 2846TIP3   OH2 8501   6.680   6.101   3.175 -0.0851 -0.5088  0.8590
 2846TIP3    H1 8502   6.649   6.013   3.153  1.1018 -1.0976  1.4018
 2846TIP3    H2 8503   6.713   6.136   3.092 -0.9273 -0.4062  0.5586
 2847TIP3   OH2 8504   2.000   1.025   0.035 -0.2466 -0.2369  0.1351
 2847TIP3    H1 8505   1.976   0.952   0.093 -0.9025 -0.1972 -0.0738
 2847TIP3    H2 8506   2.059   0.986  -0.029  3.8928  0.4966  3.0879
 2848TIP3   OH2 8507   6.348   5.596   0.018 -0.0559 -0.0270 -0.1864
 2848TIP3    H1 8508   6.430   5.590   0.068 -0.4452  1.3822  0.6825
 2848TIP3    H2 8509   6.361   5.671  -0.039 -0.1370 -0.8077 -1.2651
 2849TIP3   OH2 8510   5.209   2.663   5.487  0.4768 -0.4403 -0.7631
 2849TIP3    H1 8511   5.196   2.662   5.392  1.5792 -0.7332 -0.9226
 2849TIP3    H2 8512   5.145   2.601   5.521  0.9903 -1.3568 -1.4416
 2850TIP3   OH2 8513   3.615   2.154   0.919 -0.4069  0.0552  0.1305
 2850TIP3    H1 8514   3.687   2.174   0.860 -0.0507 -1.9194 -0.1653
 2850TIP3    H2 8515   3.651   2.166   1.006 -0.0134  0.0052 -0.0242
 2851TIP3   OH2 8516   5.564   0.586   0.758  0.2385 -0.2956 -0.5177
 2851TIP3    H1 8517   5.494   0.573   0.694  1.7740 -0.3798 -2.2661
 2851TIP3    H2 8518   5.620   0.653   0.718 -0.1388  1.6626  1.9882
 2852TIP3   OH2 8519   5.518   4.715   5.175 -0.0395 -0.2967  0.0915
 2852TIP3    H1 8520   5.574   4.721   5.252 -0.4155  0.9467  0.2844
 2852TIP3    H2 8521   5.580   4.711   5.101  0.3429  1.2447  0.2846
 2853TIP3   OH2 8522   3.709   3.334   3.508  0.3958 -0.2445 -0.6633
 2853TIP3    H1 8523   3.768   3.264   3.480 -0.1473 -1.0848  0.2509
 2853TIP3    H2 8524   3.706   3.327   3.603  0.6049  1.2618 -0.5096
 2854TIP3   OH2 8525   6.578   1.125   1.301 -0.2537  0.1830  0.7155
 2854TIP3    H1 8526   6.508   1.082   1.252  0.8476 -0.4519 -0.3390
 2854TIP3    H2 8527   6.532   1.178   1.367 -1.6818 -1.5295  1.1623
 2855TIP3   OH2 8528   3.044   6.671   2.663 -0.8173 -0.2211 -0.0669
 2855TIP3    H1 8529   3.042   6.744   2.725 -0.1486 -0.2133 -0.0383
 2855TIP3    H2 8530   2.953   6.655   2.641 -0.8934  1.6649 -1.3013
 2856TIP3   OH2 8531   3.337   3.342   1.524  0.1208 -0.8978  0.1832
 2856TIP3    H1 8532   3.427   3.310   1.519  0.7446  0.9534 -2.2821
 2856TIP3    H2 8533   3.342   3.417   1.582  0.0100 -1.2184  0.6110
 2857TIP3   OH2 8534   3.953   5.693   5.184  0.1248 -0.5063  0.0417
 2857TIP3    H1 8535   3.923   5.685   5.274 -0.2833 -0.5442 -0.0978
 2857TIP3    H2 8536   3.937   5.607   5.145 -0.9908 -0.0942 -0.4565
 2858TIP3   OH2 8537   0.101   1.137   2.650  0.0418  0.3031 -0.2393
 2858TIP3    H1 8538   0.094   1.232   2.663  1.4348  0.3505  0.3497
 2858TIP3    H2 8539   0.194   1.118   2.663  0.6392 -0.5724 -4.3046
 2859TIP3   OH2 8540   5.252   2.899   2.138 -0.1662 -0.1005 -0.0868
 2859TIP3    H1 8541   5.254   2.995   2.128 -0.2525 -0.2171 -1.4670
 2859TIP3    H2 8542   5.180   2.882   2.197 -2.4576  0.5309 -2.5119
 2860TIP3   OH2 8543   5.800   6.438   4.538  0.3064 -0.2269  0.1872
 2860TIP3    H1 8544   5.763   6.509   4.589  2.4535  1.2112 -0.1117
 2860TIP3    H2 8545   5.879   6.412   4.587  0.7385 -0.8926 -0.8237
 2861TIP3   OH2 8546   0.214   1.272   4.054  0.4581  0.0147  0.5038
 2861TIP3    H1 8547   0.192   1.209   4.122  0.7636 -0.1286  0.4722
 2861TIP3    H2 8548   0.308   1.288   4.066  0.6183 -0.3619 -0.1738
 2862TIP3   OH2 8549   6.634   0.143   1.180 -0.1420  0.3013  0.7441
 2862TIP3    H1 8550   6.632   0.068   1.119  1.7310 -0.9532  2.0965
 2862TIP3    H2 8551   6.575   0.118   1.250  0.0846  0.3266  0.9440
 2863TIP3   OH2 8552   3.209   0.165   0.899  0.1238  0.3161  0.3616
 2863TIP3    H1 8553   3.302   0.159   0.877  0.1833  0.0071  0.6886
 2863TIP3    H2 8554   3.171   0.085   0.863 -0.0341  0.4868  0.1465
 2864TIP3   OH2 8555   3.328   5.647   0.245 -0.0962  0.1299  0.4040
 2864TIP3    H1 8556   3.338   5.554   0.268 -0.9235  0.0091  0.3215
 2864TIP3    H2 8557   3.244   5.672   0.285  0.1655  0.8686  0.4988
 2865TIP3   OH2 8558   4.801   4.013   2.525  0.3139  0.5669 -0.1236
 2865TIP3    H1 8559   4.797   4.103   2.494 -0.4126 -0.0393 -1.9000
 2865TIP3    H2 8560   4.852   3.966   2.459 -1.8619 -0.9072 -0.8679
 2866TIP3   OH2 8561   0.931   1.810   1.743  0.4859  0.0631  0.3973
 2866TIP3    H1 8562   1.015   1.847   1.770  0.9071 -0.2567 -0.4322
 2866TIP3    H2 8563   0.900   1.870   1.674  1.6418 -1.5657 -1.6709
 2867TIP3   OH2 8564   3.823   3.186   1.868  0.1465  0.2501  0.3877
 2867TIP3    H1 8565   3.816   3.240   1.947 -0.9260  0.4350  0.1806
 2867TIP3    H2 8566   3.766   3.111   1.886  1.9725 -1.1019  0.8660
 2868TIP3   OH2 8567   4.043   3.303   3.126 -0.0449 -0.4709 -0.1395
 2868TIP3    H1 8568   4.058   3.262   3.040 -0.0969  0.1558 -0.4539
 2868TIP3    H2 8569   3.961   3.351   3.116  0.4474  0.4172 -0.0513
 2869TIP3   OH2 8570   2.278   5.659   4.934 -0.3006 -0.4332  0.6450
 2869TIP3    H1 8571   2.197   5.664   4.882 -0.7860 -0.0524  1.4163
 2869TIP3    H2 8572   2.348   5.673   4.871 -0.9417  1.4466  0.2816
 2870TIP3   OH2 8573   3.413   4.543   0.839  0.0511  0.2649  0.6527
 2870TIP3    H1 8574   3.456   4.526   0.755 -2.8823  0.3046 -1.0067
 2870TIP3    H2 8575   3.427   4.464   0.890  0.7461 -0.3292 -0.4285
 2871TIP3   OH2 8576   3.472   5.258   0.021  0.3368  0.5082 -0.5313
 2871TIP3    H1 8577   3.560   5.278   0.053  0.4459 -0.2381 -0.3397
 2871TIP3    H2 8578   3.465   5.305  -0.062  0.8167  0.7901 -0.4155
 2872TIP3   OH2 8579   5.444   3.706   4.712 -0.0887 -0.4132  0.4088
 2872TIP3    H1 8580   5.493   3.788   4.708 -0.9021  0.1880  2.0119
 2872TIP3    H2 8581   5.399   3.701   4.628  0.7995  0.2401 -0.1189
 2873TIP3   OH2 8582   0.565   1.440   4.336 -0.3371  0.0050 -0.4502
 2873TIP3    H1 8583   0.626   1.392   4.392  0.0256  0.3670 -0.5360
 2873TIP3    H2 8584   0.609   1.522   4.316 -0.5648 -0.0165 -1.0726
 2874TIP3   OH2 8585   3.976   4.837   5.699 -0.1062  0.1332  0.3173
 2874TIP3    H1 8586   3.888   4.842   5.737 -0.6740  1.0370 -1.0225
 2874TIP3    H2 8587   4.018   4.919   5.725 -0.4684  0.7170 -0.8940
 2875TIP3   OH2 8588   3.631   5.070   5.435 -0.3770  0.1787  0.1765
 2875TIP3    H1 8589   3.696   5.017   5.480 -1.5864 -1.5573 -0.0198
 2875TIP3    H2 8590   3.553   5.064   5.490 -0.7889  1.0905 -0.2838
 2876TIP3   OH2 8591   4.669   3.094   0.253 -0.0502  0.0119 -0.5954
 2876TIP3    H1 8592   4.752   3.135   0.275  0.4652 -0.3018 -1.8451
 2876TIP3    H2 8593   4.603   3.149   0.294  0.7395  0.6347 -0.1265
 2877TIP3   OH2 8594   1.065   2.803   5.797 -0.1396 -0.3028 -0.3617
 2877TIP3    H1 8595   1.142   2.838   5.841 -0.5694  0.7231 -0.3964
 2877TIP3    H2 8596   1.037   2.873   5.738 -1.9529 -0.0194  0.7378
 2878TIP3   OH2 8597   6.174   5.184   1.888  0.0071 -0.0599 -0.1498
 2878TIP3    H1 8598   6.253   5.146   1.850  0.1835  1.4139 -1.3379
 2878TIP3    H2 8599   6.106   5.173   1.822  0.4219  2.9211 -1.2492
 2879TIP3   OH2 8600   3.811   6.391   1.303 -0.1596 -0.4326  0.0897
 2879TIP3    H1 8601   3.736   6.441   1.335 -0.6821  0.2963 -2.0555
 2879TIP3    H2 8602   3.821   6.419   1.212  1.9205 -1.4865 -0.0748
 2880TIP3   OH2 8603   5.995   3.872   1.819  0.1881 -0.3090 -0.4050
 2880TIP3    H1 8604   6.035   3.935   1.879 -0.5376 -0.4509  0.2419
 2880TIP3    H2 8605   6.007   3.911   1.733  0.3400  0.3983 -0.0754
 2881TIP3   OH2 8606   2.734   6.400   1.686 -0.6802 -0.4806  0.4284
 2881TIP3    H1 8607   2.705   6.404   1.595  0.6365 -0.6901 -0.0299
 2881TIP3    H2 8608   2.787   6.479   1.699  0.1319 -1.0309  0.6225
 2882TIP3   OH2 8609   0.401   0.676   1.808  0.1724 -0.2075 -0.6893
 2882TIP3    H1 8610   0.387   0.661   1.715  1.3861  0.8085 -1.0679
 2882TIP3    H2 8611   0.413   0.771   1.816  1.1276 -0.3854  0.3258
 2883TIP3   OH2 8612   6.337   0.470   5.215  0.4978  0.0366  0.0892
 2883TIP3    H1 8613   6.296   0.402   5.269  1.9265  0.7674  2.2183
 2883TIP3    H2 8614   6.398   0.422   5.160  0.0819 -0.5999  0.1654
 2884TIP3   OH2 8615   2.922   0.687   1.129 -0.5811 -0.0130  0.1274
 2884TIP3    H1 8616   2.875   0.757   1.175 -1.7718 -0.7428  0.0716
 2884TIP3    H2 8617   2.876   0.680   1.045 -1.5216 -1.9099  0.7548
 2885TIP3   OH2 8618   5.483   0.745   5.546 -0.1518 -0.0123 -0.3869
 2885TIP3    H1 8619   5.400   0.734   5.592 -0.8272 -0.7003 -1.7003
 2885TIP3    H2 8620   5.525   0.659   5.551  1.2737  0.7155  1.6271
 2886TIP3   OH2 8621   0.054   3.374   2.900 -0.2682  0.1438  0.2377
 2886TIP3    H1 8622   0.115   3.370   2.975  0.2810 -0.8440 -0.2398
 2886TIP3    H2 8623   0.111   3.387   2.824 -0.9043  2.1985  0.0723
 2887TIP3   OH2 8624   0.415   3.757   0.269  0.0131  0.1598  0.2240
 2887TIP3    H1 8625   0.322   3.738   0.275 -0.1840  1.3897  1.4017
 2887TIP3    H2 8626   0.453   3.715   0.346  0.3764  0.0198 -0.0269
 2888TIP3   OH2 8627   3.510   6.569   0.267 -0.1077 -0.6017 -0.1424
 2888TIP3    H1 8628   3.588   6.517   0.284  0.9969  0.2129 -2.3144
 2888TIP3    H2 8629   3.522   6.649   0.317 -0.8815 -1.5583  1.6514
 2889TIP3   OH2 8630   1.559   4.860   1.642 -0.0822 -0.6670  0.1544
 2889TIP3    H1 8631   1.592   4.876   1.553  0.6083 -0.4308  0.4521
 2889TIP3    H2 8632   1.551   4.764   1.647 -1.7754 -0.6333 -0.7400
 2890TIP3   OH2 8633   6.093   0.236   0.227  0.1540 -0.2449  0.3907
 2890TIP3    H1 8634   6.173   0.269   0.186 -1.3002  2.9267 -0.2249
 2890TIP3    H2 8635   6.033   0.223   0.153 -0.4946 -0.7849  1.0033
 2891TIP3   OH2 8636   3.212   2.495   2.956 -0.8304 -0.2826 -0.2919
 2891TIP3    H1 8637   3.178   2.555   2.889 -0.7080 -0.8740 -0.8971
 2891TIP3    H2 8638   3.289   2.456   2.916 -0.0693  0.2229  0.6484
 2892TIP3   OH2 8639   6.499   1.635   4.828 -0.5812 -0.5190  0.2655
 2892TIP3    H1 8640   6.443   1.575   4.878 -2.0816  0.0645 -0.6462
 2892TIP3    H2 8641   6.565   1.579   4.789 -0.2622 -1.1805  1.6886
 2893TIP3   OH2 8642   0.233   0.933   1.824 -0.1405 -0.2043  0.3599
 2893TIP3    H1 8643   0.173   0.890   1.763 -0.7425 -0.4387  1.1002
 2893TIP3    H2 8644   0.208   0.899   1.910  2.0584 -1.4840  0.5582
 2894TIP3   OH2 8645   2.392   2.172   2.187  0.3929 -0.0009  0.1261
 2894TIP3    H1 8646   2.361   2.134   2.105 -1.2800  1.8572 -0.1618
 2894TIP3    H2 8647   2.410   2.264   2.166  0.1632  0.4578  1.7831
 2895TIP3   OH2 8648   5.886   6.368   4.924 -0.5822 -0.0448  0.3609
 2895TIP3    H1 8649   5.899   6.379   5.018  0.3424 -0.5499  0.3053
 2895TIP3    H2 8650   5.838   6.286   4.915 -0.9925  0.1897  0.4098
 2896TIP3   OH2 8651   2.770   3.642   4.829  0.0029 -0.1985  0.4408
 2896TIP3    H1 8652   2.794   3.552   4.852 -0.7085 -0.1418  1.4398
 2896TIP3    H2 8653   2.854   3.686   4.816  0.3736 -0.7743  0.8362
 2897TIP3   OH2 8654   5.322   3.993   1.458 -0.5667  0.6648  0.0867
 2897TIP3    H1 8655   5.258   3.923   1.472  1.2374 -1.0249  0.4666
 2897TIP3    H2 8656   5.307   4.053   1.531 -2.4253  0.9362 -0.4641
 2898TIP3   OH2 8657   3.861   4.754   2.145  0.0607 -0.3773 -0.0127
 2898TIP3    H1 8658   3.775   4.796   2.145  0.5135  0.5645 -0.1614
 2898TIP3    H2 8659   3.870   4.717   2.057  0.3992  0.7594 -0.4606
 2899TIP3   OH2 8660   2.244   3.635   2.060  0.1241  0.2113  0.6220
 2899TIP3    H1 8661   2.151   3.658   2.065  0.2148  0.9099 -0.4542
 2899TIP3    H2 8662   2.287   3.715   2.028  1.0841 -0.1221  1.0282
 2900TIP3   OH2 8663   5.622   2.245   5.275  0.0317  0.2545  0.1481
 2900TIP3    H1 8664   5.570   2.321   5.300 -1.9787 -0.0936 -2.5916
 2900TIP3    H2 8665   5.660   2.268   5.191  2.1022 -0.6032  0.7868
 2901TIP3   OH2 8666   3.677   5.950   2.606  0.4696 -0.2549  0.3876
 2901TIP3    H1 8667   3.688   6.042   2.631 -2.0322 -0.2670  1.8226
 2901TIP3    H2 8668   3.590   5.946   2.567  0.4796 -2.0311  0.4993
 2902TIP3   OH2 8669   1.478   6.575   1.230  0.1603  0.3166 -0.1012
 2902TIP3    H1 8670   1.522   6.538   1.154 -0.4628 -1.3247  0.3058
 2902TIP3    H2 8671   1.488   6.509   1.298 -1.4869  0.6290  0.4797
 2903TIP3   OH2 8672   2.524   2.127   0.644  0.0641  0.4398 -0.1095
 2903TIP3    H1 8673   2.536   2.150   0.736 -0.3882 -2.9858  0.9689
 2903TIP3    H2 8674   2.431   2.107   0.636 -0.1875  2.0099 -1.7326
 2904TIP3   OH2 8675   2.487   1.732   5.183  0.1932 -0.2735 -0.5804
 2904TIP3    H1 8676   2.534   1.656   5.217  1.5611  0.5364 -0.5739
 2904TIP3    H2 8677   2.424   1.754   5.251  2.1866  0.7036  1.0485
 2905TIP3   OH2 8678   2.277   5.231   0.807 -0.0433 -0.0766 -0.1257
 2905TIP3    H1 8679   2.342   5.239   0.737  0.0756 -0.6747 -0.0899
 2905TIP3    H2 8680   2.240   5.143   0.795 -1.9760  0.8072 -1.1241
 2906TIP3   OH2 8681   1.241   5.706   2.027  0.0740  0.1323 -0.3635
 2906TIP3    H1 8682   1.308   5.700   2.096  0.5546  0.2888 -0.8104
 2906TIP3    H2 8683   1.187   5.628   2.040 -0.4703  0.6990  0.8350
 2907TIP3   OH2 8684   3.964   4.914   2.937 -0.0996 -0.5542  0.0261
 2907TIP3    H1 8685   3.882   4.958   2.914  0.7775  0.4433 -1.3822
 2907TIP3    H2 8686   3.959   4.830   2.891  0.0516 -0.0989 -0.8512
 2908TIP3   OH2 8687   4.089   6.423   1.336  0.0555  0.3988 -0.3679
 2908TIP3    H1 8688   4.089   6.435   1.431 -1.6962  0.4517 -0.3353
 2908TIP3    H2 8689   4.010   6.373   1.319  1.4484 -1.4829 -1.6206
 2909TIP3   OH2 8690   1.659   2.473   2.284  0.0133  0.7211 -0.1011
 2909TIP3    H1 8691   1.659   2.507   2.194 -0.8983 -1.0581 -0.8298
 2909TIP3    H2 8692   1.668   2.379   2.273 -0.2462  0.4680  1.6941
 2910TIP3   OH2 8693   6.585   2.485   5.545 -0.4581  0.3435 -0.2263
 2910TIP3    H1 8694   6.511   2.530   5.586 -0.7686  0.1910 -0.6170
 2910TIP3    H2 8695   6.560   2.392   5.548 -0.9436  0.4104 -1.6774
 2911TIP3   OH2 8696   0.618   5.414   0.135 -0.1070 -0.1193  0.1109
 2911TIP3    H1 8697   0.543   5.457   0.176  1.1171  2.3057 -0.0014
 2911TIP3    H2 8698   0.608   5.434   0.041  0.9392  0.7468  0.1630
 2912TIP3   OH2 8699   6.693   6.182   4.659 -0.1967 -0.6847 -0.0305
 2912TIP3    H1 8700   6.660   6.125   4.728  0.4679 -0.8011  0.2049
 2912TIP3    H2 8701   6.766   6.229   4.700  0.1896 -0.7412 -0.6422
 2913TIP3   OH2 8702   0.692   3.707   3.835  0.1443 -0.1268  0.3329
 2913TIP3    H1 8703   0.614   3.762   3.846  1.4568  1.4983  2.1944
 2913TIP3    H2 8704   0.685   3.672   3.746 -2.1225  0.8667  0.0663
 2914TIP3   OH2 8705   4.566   1.014   1.371  0.5491  0.5245  0.1610
 2914TIP3    H1 8706   4.506   1.082   1.401  0.8145  1.1289 -0.6717
 2914TIP3    H2 8707   4.593   0.970   1.452  1.2557  2.1343  0.8363
 2915TIP3   OH2 8708   0.613   2.548   4.519 -0.1064 -0.3069 -0.3466
 2915TIP3    H1 8709   0.681   2.610   4.491  0.8854 -1.4812 -0.6412
 2915TIP3    H2 8710   0.580   2.584   4.602 -0.6580  1.4108 -1.2665
 2916TIP3   OH2 8711   5.651   1.330   2.020 -0.4417  0.2444 -0.2377
 2916TIP3    H1 8712   5.737   1.371   2.033 -0.8234  0.9645  0.0758
 2916TIP3    H2 8713   5.655   1.294   1.931  1.3162 -2.5489  0.8149
 2917TIP3   OH2 8714   2.933   0.100   5.643  0.7588 -0.3991  0.1764
 2917TIP3    H1 8715   2.960   0.042   5.572  0.9113  0.3842 -0.4315
 2917TIP3    H2 8716   2.917   0.184   5.599 -0.9504 -0.3753  0.7766
 2918TIP3   OH2 8717   0.851   1.426   4.129 -0.0651 -0.3351 -0.1065
 2918TIP3    H1 8718   0.781   1.431   4.063 -0.2363  1.1855  0.1507
 2918TIP3    H2 8719   0.927   1.465   4.086  0.0106  0.0412  0.3679
 2919TIP3   OH2 8720   0.742   2.689   4.228  0.3536  0.5236 -0.2883
 2919TIP3    H1 8721   0.677   2.625   4.200 -0.0575  1.1303 -0.7292
 2919TIP3    H2 8722   0.692   2.753   4.279  0.8382  0.2589  0.5549
 2920TIP3   OH2 8723   5.925   5.661   3.336  0.1343  0.0327 -0.1007
 2920TIP3    H1 8724   5.845   5.632   3.291  0.0789 -2.4737  1.4309
 2920TIP3    H2 8725   5.981   5.583   3.338  2.4913  1.5928 -0.7014
 2921TIP3   OH2 8726   5.376   3.834   3.305  0.6172  0.2649  0.0690
 2921TIP3    H1 8727   5.355   3.744   3.280 -2.7866  1.4360 -1.8839
 2921TIP3    H2 8728   5.294   3.869   3.339  2.0069  2.5139  1.3645
 2922TIP3   OH2 8729   6.092   5.026   5.486 -0.0255  0.0289  0.2738
 2922TIP3    H1 8730   6.019   5.031   5.424  1.2012 -0.7444 -1.3165
 2922TIP3    H2 8731   6.153   5.094   5.456  0.2978  0.0864  1.0452
 2923TIP3   OH2 8732   2.595   4.217   4.346 -0.0720  0.3378 -0.1933
 2923TIP3    H1 8733   2.562   4.167   4.272  0.7426  0.2186 -0.4894
 2923TIP3    H2 8734   2.581   4.308   4.322 -0.0420  0.2929 -0.3795
 2924TIP3   OH2 8735   3.813   4.923   0.192  0.2445  0.3926 -0.3134
 2924TIP3    H1 8736   3.820   4.828   0.187  0.1660  0.3661  0.0617
 2924TIP3    H2 8737   3.720   4.940   0.206  0.2680  0.5205 -0.3130
 2925TIP3   OH2 8738   1.424   6.666   2.462 -0.2153  0.3913 -0.0346
 2925TIP3    H1 8739   1.484   6.720   2.515  1.8580 -0.3571 -1.4756
 2925TIP3    H2 8740   1.337   6.690   2.493  0.8129  0.5884  3.1296
 2926TIP3   OH2 8741   1.624   0.476   4.627  0.1862  0.3321 -0.4353
 2926TIP3    H1 8742   1.530   0.470   4.611  0.2161 -0.6190 -0.2862
 2926TIP3    H2 8743   1.638   0.567   4.653 -0.8356  0.2407  0.4871
 2927TIP3   OH2 8744   0.956   2.529   2.282  0.2423 -0.2970 -0.2560
 2927TIP3    H1 8745   0.956   2.461   2.349  1.2084  1.0103  1.1233
 2927TIP3    H2 8746   0.967   2.481   2.200 -2.4767 -2.0828  0.2684
 2928TIP3   OH2 8747   3.100   4.758   2.968  0.6053  0.3932  0.3934
 2928TIP3    H1 8748   3.183   4.765   2.921  0.8212  1.7794  0.9343
 2928TIP3    H2 8749   3.124   4.765   3.061  0.0217 -0.6958  0.6565
 2929TIP3   OH2 8750   1.898   0.940   2.632 -0.0138  0.1175  0.7411
 2929TIP3    H1 8751   1.833   0.953   2.701 -0.8493 -1.1261  0.2529
 2929TIP3    H2 8752   1.847   0.946   2.551  0.1491 -2.1644  0.3811
 2930TIP3   OH2 8753   6.823   1.333   5.883 -0.4108  0.5332 -0.2462
 2930TIP3    H1 8754   6.777   1.401   5.933 -1.2404  0.6503 -1.1344
 2930TIP3    H2 8755   6.756   1.266   5.868  0.3320 -0.3713  0.4027
 2931TIP3   OH2 8756   6.339   6.321   1.835  0.0673 -0.0864 -0.3335
 2931TIP3    H1 8757   6.245   6.318   1.852 -0.3450  1.2047 -2.0530
 2931TIP3    H2 8758   6.358   6.413   1.818  1.4689 -0.4419 -0.8935
 2932TIP3   OH2 8759   3.174   0.713   4.963 -0.0703  0.7878  0.2302
 2932TIP3    H1 8760   3.241   0.756   4.910 -1.0976  3.4560  0.9232
 2932TIP3    H2 8761   3.213   0.709   5.051  0.6397 -1.2903 -0.1295
 2933TIP3   OH2 8762   6.934   4.363   5.553  0.1805  0.0855  0.2089
 2933TIP3    H1 8763   6.995   4.314   5.498  0.3682 -0.2042  0.6696
 2933TIP3    H2 8764   6.989   4.402   5.621  0.0838  1.2218 -0.3357
 2934TIP3   OH2 8765   0.248   0.484   5.736  0.0472 -0.1511 -0.0756
 2934TIP3    H1 8766   0.187   0.417   5.704  1.0266 -0.9256 -0.3756
 2934TIP3    H2 8767   0.200   0.567   5.727 -1.7146 -0.8980  1.5502
 2935TIP3   OH2 8768   7.073   4.479   0.001 -0.1496 -0.2892 -0.2414
 2935TIP3    H1 8769   7.142   4.537   0.031 -1.8525  1.7067 -0.0033
 2935TIP3    H2 8770   7.063   4.414   0.071  0.4486  0.3059  0.3986
 2936TIP3   OH2 8771   4.824   5.221   2.871 -0.4705  0.1699  0.1020
 2936TIP3    H1 8772   4.763   5.237   2.944 -0.7255  1.4729 -0.3692
 2936TIP3    H2 8773   4.892   5.287   2.883  1.4169 -1.8337  1.1525
 2937TIP3   OH2 8774   0.325   2.890   2.810 -0.0092 -0.2041 -0.3137
 2937TIP3    H1 8775   0.256   2.847   2.759 -0.0312  0.6161 -0.9983
 2937TIP3    H2 8776   0.404   2.878   2.758  0.1136 -0.0253 -0.1668
 2938TIP3   OH2 8777   4.279   4.006   2.721  0.4257 -0.0779 -0.7139
 2938TIP3    H1 8778   4.223   3.942   2.677  1.5886 -0.5169 -1.6363
 2938TIP3    H2 8779   4.238   4.090   2.703 -0.2326 -0.4344 -0.9071
 2939TIP3   OH2 8780   3.844   1.368   4.015  0.0081  0.0569  0.3169
 2939TIP3    H1 8781   3.914   1.322   4.062  0.1770 -0.0879 -0.0685
 2939TIP3    H2 8782   3.783   1.299   3.991 -2.3132  0.5511  3.9539
 2940TIP3   OH2 8783   6.857   3.404   0.564  0.5326 -0.6505 -0.0912
 2940TIP3    H1 8784   6.889   3.488   0.596 -2.6309  0.5590  0.1620
 2940TIP3    H2 8785   6.859   3.346   0.640  1.7556 -0.5599 -0.0304
 2941TIP3   OH2 8786   5.914   5.295   3.424  0.2471  0.1569 -0.0487
 2941TIP3    H1 8787   5.911   5.214   3.372 -2.6175 -0.3503  0.7551
 2941TIP3    H2 8788   5.909   5.265   3.514 -0.8376  1.2142  0.2651
 2942TIP3   OH2 8789   4.752   6.461   2.413  0.0155 -0.1596 -0.1280
 2942TIP3    H1 8790   4.775   6.399   2.482  0.0729 -0.0538 -0.0528
 2942TIP3    H2 8791   4.686   6.518   2.453 -1.7125 -1.5450 -0.8546
 2943TIP3   OH2 8792   5.085   1.237   5.376 -0.6123 -0.6613 -0.0456
 2943TIP3    H1 8793   5.072   1.316   5.325  0.6641  0.5638  1.4114
 2943TIP3    H2 8794   5.120   1.173   5.314  1.5217  0.9638 -0.6468
 2944TIP3   OH2 8795   1.206   0.066   1.708  0.9753 -0.3464 -0.2657
 2944TIP3    H1 8796   1.248   0.054   1.623  0.4228 -0.3054 -0.5476
 2944TIP3    H2 8797   1.182  -0.023   1.736 -0.5447 -0.2098 -1.0363
 2945TIP3   OH2 8798   5.149   2.971   0.310  0.4681 -0.1489  0.0150
 2945TIP3    H1 8799   5.173   3.058   0.276 -2.3799  0.4286 -0.7724
 2945TIP3    H2 8800   5.191   2.910   0.250 -0.5974  0.8035 -1.7926
 2946TIP3   OH2 8801   0.956   0.663   2.826  0.3796 -0.0910  0.3454
 2946TIP3    H1 8802   1.041   0.645   2.785  1.4069  1.0701  1.8394
 2946TIP3    H2 8803   0.899   0.593   2.795  1.1239  0.5135 -2.8015
 2947TIP3   OH2 8804   5.855   0.545   2.706 -0.4342 -0.3442  0.3452
 2947TIP3    H1 8805   5.875   0.457   2.738  0.7111  0.1132  0.9073
 2947TIP3    H2 8806   5.802   0.584   2.775 -0.6850 -0.4731  0.2299
 2948TIP3   OH2 8807   7.035   0.512   5.726  0.9335 -0.0787  0.5532
 2948TIP3    H1 8808   7.109   0.467   5.685 -0.4897 -1.4623 -0.5864
 2948TIP3    H2 8809   7.008   0.578   5.662  0.7217 -0.0764  0.6442
 2949TIP3   OH2 8810   1.673   3.678   4.845 -0.5685 -0.7366  0.1039
 2949TIP3    H1 8811   1.728   3.668   4.767  1.3827 -1.4863  1.5086
 2949TIP3    H2 8812   1.661   3.772   4.854  0.5829 -0.5469 -0.1838
 2950TIP3   OH2 8813   1.745   2.258   0.551 -0.2864  0.1285 -0.2569
 2950TIP3    H1 8814   1.762   2.165   0.567 -1.0860 -0.0659 -0.5286
 2950TIP3    H2 8815   1.821   2.287   0.501  0.9428  0.1087  1.5006
 2951TIP3   OH2 8816   4.878   1.051   2.732  0.0363 -0.1254 -0.4277
 2951TIP3    H1 8817   4.968   1.082   2.718  0.2436  0.1364  1.2292
 2951TIP3    H2 8818   4.889   0.970   2.782 -0.6332 -0.4944 -0.8751
 2952TIP3   OH2 8819   6.908   6.444   3.552  0.5547 -0.4644 -0.0951
 2952TIP3    H1 8820   6.933   6.530   3.587 -1.9507  0.0671  0.6153
 2952TIP3    H2 8821   6.889   6.391   3.629  0.2638 -1.0450 -0.5539
 2953TIP3   OH2 8822   4.051   0.406   4.968 -0.0506 -0.3116 -0.2971
 2953TIP3    H1 8823   4.069   0.319   4.934 -0.8524 -0.1162 -1.2856
 2953TIP3    H2 8824   4.030   0.458   4.890 -1.6858  0.2280  0.4591
 2954TIP3   OH2 8825   6.232   6.420   0.663 -0.3622 -0.3295  0.1248
 2954TIP3    H1 8826   6.183   6.365   0.724 -0.1558  0.9742  1.5265
 2954TIP3    H2 8827   6.250   6.500   0.712  0.8863  0.2815 -1.2552
 2955TIP3   OH2 8828   1.151   3.449   2.464  0.6286 -0.5322 -0.4615
 2955TIP3    H1 8829   1.135   3.426   2.373  0.0207 -0.0630 -0.4781
 2955TIP3    H2 8830   1.166   3.544   2.463  2.1067 -0.7382 -0.2644
 2956TIP3   OH2 8831   4.308   0.984   2.788 -0.3094 -0.5419  0.3979
 2956TIP3    H1 8832   4.351   1.068   2.774 -0.5025 -0.7026 -1.2877
 2956TIP3    H2 8833   4.241   1.002   2.854  0.6361  0.2762  1.1645
 2957TIP3   OH2 8834   1.723   2.556   0.559  0.4803 -0.3233 -0.1111
 2957TIP3    H1 8835   1.707   2.624   0.494 -0.5918  0.0645  0.5382
 2957TIP3    H2 8836   1.798   2.508   0.525  1.6525  1.5404 -0.2980
 2958TIP3   OH2 8837   0.205   3.218   2.317 -0.6377 -0.6064  0.5906
 2958TIP3    H1 8838   0.145   3.292   2.312  1.2543  1.0215  0.5588
 2958TIP3    H2 8839   0.197   3.175   2.232 -2.1397 -0.7772  0.7922
 2959TIP3   OH2 8840   3.028   1.505   0.296 -0.1297  0.5868 -0.4569
 2959TIP3    H1 8841   3.081   1.582   0.280  2.0039 -0.7055  0.0632
 2959TIP3    H2 8842   2.979   1.525   0.376  0.0454  1.5360 -0.5794
 2960TIP3   OH2 8843   3.218   0.105   0.429 -0.1549  0.0216  0.8111
 2960TIP3    H1 8844   3.236   0.011   0.439  3.2609  0.5777  1.0337
 2960TIP3    H2 8845   3.205   0.117   0.335  1.5011 -0.4418  0.4910
 2961TIP3   OH2 8846   1.613   6.792   3.230 -0.3489  0.0174 -0.3377
 2961TIP3    H1 8847   1.616   6.696   3.229 -3.1284 -0.1665 -2.4820
 2961TIP3    H2 8848   1.695   6.819   3.188 -0.5943 -1.5556 -1.9581
 2962TIP3   OH2 8849   6.333   6.027   1.109 -0.9876 -0.1526 -0.3962
 2962TIP3    H1 8850   6.293   6.038   1.195 -0.7528 -0.6305 -0.2250
 2962TIP3    H2 8851   6.285   5.955   1.069 -2.2695  1.1771 -1.3725
 2963TIP3   OH2 8852   3.255   0.899   3.072  0.4113  0.3173  0.3909
 2963TIP3    H1 8853   3.273   0.821   3.020  1.2698 -0.8542  2.3324
 2963TIP3    H2 8854   3.166   0.887   3.105  1.0097 -0.5632  1.7838
 2964TIP3   OH2 8855   1.833   2.759   2.234  0.2584  0.4467  0.0485
 2964TIP3    H1 8856   1.816   2.734   2.143  1.2340 -0.0423 -0.0123
 2964TIP3    H2 8857   1.774   2.703   2.286  0.5890 -0.1556 -0.2209
 2965TIP3   OH2 8858   3.039   6.415   5.409  0.3330  0.7875 -0.1371
 2965TIP3    H1 8859   3.046   6.487   5.471  2.5781  1.0347 -0.6050
 2965TIP3    H2 8860   3.114   6.426   5.351  0.5794 -1.7697 -0.3954
 2966TIP3   OH2 8861   5.531   5.498   0.747 -0.0213  1.1815 -0.0242
 2966TIP3    H1 8862   5.535   5.564   0.817  1.5415 -0.4030  1.4841
 2966TIP3    H2 8863   5.587   5.427   0.778 -0.4982 -0.2578 -2.2408
 2967TIP3   OH2 8864   0.778   0.846   3.133  0.4072 -0.2956  0.2142
 2967TIP3    H1 8865   0.773   0.764   3.182 -1.6438  0.2836  1.0752
 2967TIP3    H2 8866   0.689   0.860   3.100  1.0530  0.8753 -1.1533
 2968TIP3   OH2 8867   0.340   6.151   0.373  0.1240  0.3626 -0.4305
 2968TIP3    H1 8868   0.365   6.059   0.375  1.1792  0.6309 -0.6777
 2968TIP3    H2 8869   0.300   6.168   0.458 -0.5306 -0.4366 -0.5652
 2969TIP3   OH2 8870   2.039   6.640   2.038  0.4773 -0.5274  0.1464
 2969TIP3    H1 8871   2.082   6.568   1.991  1.0958 -0.1975  0.1961
 2969TIP3    H2 8872   1.955   6.604   2.065  0.8709 -1.3098  0.3633
 2970TIP3   OH2 8873   6.251   4.656   1.914  0.0128  0.0093  0.6685
 2970TIP3    H1 8874   6.182   4.615   1.966 -0.2280 -0.4833 -0.0338
 2970TIP3    H2 8875   6.232   4.630   1.824  2.7656 -2.5861  0.7116
 2971TIP3   OH2 8876   3.352   4.257   0.655  1.0650 -0.3563  0.1357
 2971TIP3    H1 8877   3.336   4.229   0.565  1.0378  0.2026 -0.0364
 2971TIP3    H2 8878   3.295   4.333   0.668  2.1302  0.4858  0.1344
 2972TIP3   OH2 8879   0.705   1.940   5.899 -0.1069 -0.1202  0.1939
 2972TIP3    H1 8880   0.762   1.997   5.847 -1.1044 -0.8584 -1.8088
 2972TIP3    H2 8881   0.627   1.929   5.846 -1.1617 -1.0145  1.8444
 2973TIP3   OH2 8882   1.760   3.918   1.924  0.2604  0.2919 -0.1540
 2973TIP3    H1 8883   1.752   3.959   1.837 -0.4734 -1.0113 -0.7259
 2973TIP3    H2 8884   1.854   3.925   1.944  0.5547  0.0969 -1.3323
 2974TIP3   OH2 8885   4.522   6.003   0.667 -0.1658 -0.0347  0.4862
 2974TIP3    H1 8886   4.480   5.966   0.589  0.6621 -1.2603  0.5839
 2974TIP3    H2 8887   4.554   6.088   0.639 -1.1763  0.1758 -0.0818
 2975TIP3   OH2 8888   2.135   3.599   4.399 -0.3955  0.0784 -0.2561
 2975TIP3    H1 8889   2.140   3.510   4.433 -3.0046  0.6862  2.1665
 2975TIP3    H2 8890   2.189   3.650   4.460 -1.1167  0.5007  0.0391
 2976TIP3   OH2 8891   1.120   5.087   2.160 -0.4427 -0.0066 -0.2035
 2976TIP3    H1 8892   1.175   5.122   2.091 -0.0901  0.3683  0.2598
 2976TIP3    H2 8893   1.072   5.163   2.194  1.1151  0.2687  1.5298
 2977TIP3   OH2 8894   5.728   6.510   5.521  0.0657  0.4059  0.5838
 2977TIP3    H1 8895   5.772   6.545   5.444  0.1028  1.5276  1.0976
 2977TIP3    H2 8896   5.648   6.561   5.528 -1.4143 -1.6095 -0.3480
 2978TIP3   OH2 8897   0.302   0.205   3.083  0.3671  0.5257 -0.4884
 2978TIP3    H1 8898   0.225   0.262   3.089  1.1423  1.4820  0.8765
 2978TIP3    H2 8899   0.296   0.166   2.996 -1.4040  0.9441 -0.5915
 2979TIP3   OH2 8900   0.604   3.887   0.908  0.3226 -0.1829 -0.1479
 2979TIP3    H1 8901   0.642   3.853   0.989 -0.2615  0.0172  0.2170
 2979TIP3    H2 8902   0.543   3.955   0.936  0.4116  0.1695 -0.7854
 2980TIP3   OH2 8903   1.508   1.491   2.154 -0.3981 -0.7176  0.4368
 2980TIP3    H1 8904   1.557   1.567   2.121 -1.8859  1.0976  2.1951
 2980TIP3    H2 8905   1.548   1.416   2.109 -0.0223  1.2109 -2.7837
 2981TIP3   OH2 8906   3.183   3.034   5.811  0.7174  0.1337  0.7954
 2981TIP3    H1 8907   3.254   3.094   5.834  0.6457  0.8480 -0.7762
 2981TIP3    H2 8908   3.227   2.958   5.775  0.6989  1.2548 -1.7583
 2982TIP3   OH2 8909   3.057   5.728   4.171 -0.3891  0.1529 -0.1529
 2982TIP3    H1 8910   2.966   5.718   4.142 -0.9396 -0.6366  1.7075
 2982TIP3    H2 8911   3.108   5.685   4.103 -1.5073 -0.4540 -0.6407
 2983TIP3   OH2 8912   4.435   5.460   0.706 -0.2205 -0.0756 -0.3197
 2983TIP3    H1 8913   4.481   5.398   0.650  1.7132 -0.2072  1.2701
 2983TIP3    H2 8914   4.487   5.462   0.787 -2.3254  0.7901  1.1171
 2984TIP3   OH2 8915   2.339   1.061   3.070  0.8397  0.2834  0.1857
 2984TIP3    H1 8916   2.428   1.048   3.040  0.9424 -1.8351  1.2147
 2984TIP3    H2 8917   2.294   0.978   3.052 -0.5034  0.7784  1.0262
 2985TIP3   OH2 8918   2.880   2.975   4.300  0.7799  0.0450 -0.0272
 2985TIP3    H1 8919   2.785   2.991   4.301  0.8021  0.1686  0.1055
 2985TIP3    H2 8920   2.894   2.912   4.370  0.4976 -1.6851 -1.4670
 2986TIP3   OH2 8921   2.619   4.569   4.410 -0.4873  0.2372  0.4108
 2986TIP3    H1 8922   2.564   4.538   4.338 -2.3882 -0.6158  2.1200
 2986TIP3    H2 8923   2.567   4.552   4.489  1.3293  1.4958  1.9757
 2987TIP3   OH2 8924   6.484   2.559   5.091  0.4089 -0.2981  0.0979
 2987TIP3    H1 8925   6.468   2.511   5.173  1.5910 -1.6854 -0.4454
 2987TIP3    H2 8926   6.398   2.567   5.051  0.0398 -0.9813  0.7374
 2988TIP3   OH2 8927   5.661   2.972   4.007  0.4297  0.2718  0.1263
 2988TIP3    H1 8928   5.601   2.906   3.973  0.6238  0.4567 -0.5820
 2988TIP3    H2 8929   5.728   2.982   3.939  1.5814 -0.3172  1.1180
 2989TIP3   OH2 8930   5.639   1.991   4.417  0.1031 -0.1888 -0.1791
 2989TIP3    H1 8931   5.732   1.971   4.411  0.4696  1.7428 -1.7979
 2989TIP3    H2 8932   5.599   1.947   4.342  0.1585  1.0809 -0.9814
 2990TIP3   OH2 8933   3.075   3.179   4.216 -0.0491  0.6033 -0.5528
 2990TIP3    H1 8934   3.073   3.202   4.123  0.4657 -0.4091 -0.8323
 2990TIP3    H2 8935   3.007   3.112   4.225  0.7064 -0.1795 -0.4723
 2991TIP3   OH2 8936   2.903   2.702   3.336 -0.1451 -0.2507  0.0320
 2991TIP3    H1 8937   2.968   2.638   3.306  1.1077  0.7804  0.4165
 2991TIP3    H2 8938   2.832   2.650   3.373  0.4517 -1.4210 -0.4189
 2992TIP3   OH2 8939   3.814   5.819   1.192 -0.1831 -1.1177 -0.0143
 2992TIP3    H1 8940   3.723   5.846   1.206  0.0896  0.0849 -0.4273
 2992TIP3    H2 8941   3.865   5.873   1.252  0.3620 -0.9522 -0.6177
 2993TIP3   OH2 8942   0.404   0.022   3.618  0.1699  0.0671  0.4163
 2993TIP3    H1 8943   0.419   0.021   3.712 -1.8995 -0.1572  0.7831
 2993TIP3    H2 8944   0.335   0.087   3.605  0.5623  0.2359 -0.9669
 2994TIP3   OH2 8945   2.821   5.467   1.079 -0.3624  0.0912  0.2762
 2994TIP3    H1 8946   2.741   5.492   1.031 -0.4616 -0.9982 -0.1472
 2994TIP3    H2 8947   2.816   5.372   1.085  0.4042  0.0996  1.1582
 2995TIP3   OH2 8948   4.451   5.335   3.881 -0.6474  0.0462  0.0292
 2995TIP3    H1 8949   4.383   5.402   3.876  0.8495  1.6661  0.7126
 2995TIP3    H2 8950   4.480   5.324   3.791 -0.5130  0.7315 -0.0139
 2996TIP3   OH2 8951   5.631   3.182   0.857  0.0082  0.3464 -0.0946
 2996TIP3    H1 8952   5.700   3.233   0.899  0.0367  0.6558 -0.5095
 2996TIP3    H2 8953   5.554   3.239   0.858 -0.6878 -0.5368  1.7018
 2997TIP3   OH2 8954   5.429   3.748   1.136  0.2380 -0.5533  0.5741
 2997TIP3    H1 8955   5.359   3.739   1.071 -1.0236 -0.7878  1.9282
 2997TIP3    H2 8956   5.479   3.824   1.107 -2.2565  1.3939  1.0704
 2998TIP3   OH2 8957   6.235   5.746   5.844  0.1705 -0.4369  0.4730
 2998TIP3    H1 8958   6.156   5.714   5.887 -0.0098  1.8683  2.0377
 2998TIP3    H2 8959   6.209   5.828   5.803  1.5919  0.0518  0.4752
 2999TIP3   OH2 8960   4.197   5.334   0.667 -0.3205  0.1922 -0.5168
 2999TIP3    H1 8961   4.253   5.408   0.687  0.8711 -1.1482  1.5837
 2999TIP3    H2 8962   4.247   5.281   0.604 -0.1540  0.0622 -0.2782
 3000TIP3   OH2 8963   5.865   1.957   5.570 -0.6431 -0.1375 -0.0987
 3000TIP3    H1 8964   5.808   2.024   5.607 -0.4416  0.2036 -0.4020
 3000TIP3    H2 8965   5.952   1.979   5.603 -0.4284  0.2859 -0.9260
 3001TIP3   OH2 8966   1.992   6.606   1.577  0.7439  0.0086 -0.2156
 3001TIP3    H1 8967   1.953   6.522   1.554  0.7456 -0.0433 -0.0296
 3001TIP3    H2 8968   1.921   6.654   1.619  0.3702  0.5861 -1.4524
 3002TIP3   OH2 8969   4.858   4.166   4.678 -0.1077  0.0294  0.5797
 3002TIP3    H1 8970   4.952   4.151   4.681  0.1966  1.0710 -1.5950
 3002TIP3    H2 8971   4.823   4.094   4.626 -0.1892  0.6579 -0.2802
 3003TIP3   OH2 8972   0.401   3.087   0.906 -0.0444 -0.8569  0.5368
 3003TIP3    H1 8973   0.416   2.995   0.927 -2.2057 -0.9392  2.0343
 3003TIP3    H2 8974   0.329   3.085   0.843 -0.0170 -0.1906  0.4835
 3004TIP3   OH2 8975   3.803   3.668   5.861  0.1319  0.0902  0.0090
 3004TIP3    H1 8976   3.867   3.738   5.852  1.2349 -0.9257 -0.3851
 3004TIP3    H2 8977   3.842   3.608   5.925 -1.5786  0.6428  1.6757
 3005TIP3   OH2 8978   0.635   4.040   3.274 -0.1904 -0.1758 -0.1417
 3005TIP3    H1 8979   0.672   3.982   3.208 -1.7047 -0.1053 -1.1117
 3005TIP3    H2 8980   0.553   4.071   3.235 -0.5524  0.7890  1.3045
 3006TIP3   OH2 8981   2.364   1.837   1.218 -0.3150 -0.1662  0.2530
 3006TIP3    H1 8982   2.458   1.819   1.220  0.4110  2.9376 -0.2385
 3006TIP3    H2 8983   2.330   1.785   1.145  1.4880  0.3437 -1.0080
 3007TIP3   OH2 8984   2.092   1.329   2.851 -0.2882 -0.3894 -0.2276
 3007TIP3    H1 8985   2.094   1.333   2.947 -0.2068  0.4657 -0.2565
 3007TIP3    H2 8986   1.999   1.319   2.829 -0.4681  0.8212 -0.0909
 3008TIP3   OH2 8987   6.792   2.790   0.898  0.1197  0.3779 -0.1066
 3008TIP3    H1 8988   6.832   2.707   0.875 -0.6673 -0.5570  1.6756
 3008TIP3    H2 8989   6.853   2.830   0.959  0.1649  0.7885 -0.4165
 3009TIP3   OH2 8990   5.154   0.438   3.703 -0.2337  1.1274  0.3873
 3009TIP3    H1 8991   5.068   0.477   3.712 -0.2999  0.5476  2.9309
 3009TIP3    H2 8992   5.139   0.344   3.710  0.5870  1.0028  0.5997
 3010TIP3   OH2 8993   4.591   6.212   3.981  0.2620 -0.5773 -0.3075
 3010TIP3    H1 8994   4.680   6.180   3.992  0.7725  1.1897  1.3382
 3010TIP3    H2 8995   4.539   6.161   4.044  0.4164 -0.5067 -0.1236
 3011TIP3   OH2 8996   2.067   4.039   2.419  0.4384  0.0887 -0.3826
 3011TIP3    H1 8997   1.985   4.067   2.379  0.6140  0.6092 -0.3815
 3011TIP3    H2 8998   2.120   4.118   2.424  0.5220 -0.0229  0.6416
 3012TIP3   OH2 8999   1.878   0.402   1.351  0.1837 -0.0664  0.5886
 3012TIP3    H1 9000   1.836   0.424   1.434  0.8434  1.8844  0.4496
 3012TIP3    H2 9001   1.971   0.415   1.367  0.4595 -1.1396 -0.0500
 3013TIP3   OH2 9002   0.265   0.471   3.375  0.1277  0.1279 -0.4217
 3013TIP3    H1 9003   0.300   0.435   3.294  0.9988  0.3013 -0.1331
 3013TIP3    H2 9004   0.333   0.453   3.441 -0.3660  0.3946  0.1676
 3014TIP3   OH2 9005   3.416   3.272   3.916  0.3815  0.1933  0.5051
 3014TIP3    H1 9006   3.475   3.207   3.878 -0.3099 -0.6339  0.8124
 3014TIP3    H2 9007   3.459   3.300   3.997  0.3056 -0.5004  0.7945
 3015TIP3   OH2 9008   3.717   5.950   3.606 -0.2035 -0.6088  0.4320
 3015TIP3    H1 9009   3.812   5.957   3.598 -0.3490  0.7038 -0.4666
 3015TIP3    H2 9010   3.689   6.034   3.642 -0.9344 -1.4082  1.8084
 3016TIP3   OH2 9011   0.005   4.818   5.584  0.2966  0.1499  0.1019
 3016TIP3    H1 9012  -0.035   4.904   5.580  0.2330  0.1650  0.8619
 3016TIP3    H2 9013   0.056   4.819   5.665  0.6927 -0.3555 -0.1325
 3017TIP3   OH2 9014   0.882   0.636   3.262 -1.0026 -0.3355 -0.0897
 3017TIP3    H1 9015   0.932   0.570   3.214  0.9935  3.6291 -4.2930
 3017TIP3    H2 9016   0.948   0.694   3.300 -2.3634  2.1546 -1.2627
 3018TIP3   OH2 9017   2.317   0.973   2.731 -0.1731 -0.4723  0.6967
 3018TIP3    H1 9018   2.259   0.966   2.807  1.2485 -1.3492  1.7275
 3018TIP3    H2 9019   2.345   1.064   2.731  1.6063 -0.9599  2.6237
 3019TIP3   OH2 9020   0.976   3.091   5.692  0.5792  0.7131 -0.1867
 3019TIP3    H1 9021   1.059   3.138   5.705 -0.0591  1.6397  0.6143
 3019TIP3    H2 9022   0.977   3.066   5.599  2.1366 -0.0387 -0.0002
 3020TIP3   OH2 9023   4.783   0.729   4.542  0.2918  0.1167 -0.0263
 3020TIP3    H1 9024   4.777   0.814   4.499  2.4882  1.4186  2.0141
 3020TIP3    H2 9025   4.846   0.679   4.490  0.0309  0.2376 -0.4588
 3021TIP3   OH2 9026   6.060   5.674   0.528  0.7182  0.4584 -1.0467
 3021TIP3    H1 9027   6.029   5.693   0.440 -2.4975 -0.1917 -0.2116
 3021TIP3    H2 9028   6.044   5.580   0.538 -0.7656  0.8358  0.7519
 3022TIP3   OH2 9029   0.301   5.072   3.427 -0.5285  0.1297  0.1931
 3022TIP3    H1 9030   0.340   5.062   3.340 -0.8197  0.1067  0.0640
 3022TIP3    H2 9031   0.294   4.983   3.461  1.7290  0.2836  1.2011
 3023TIP3   OH2 9032   1.758   0.604   0.797 -0.3064 -0.5873 -0.3127
 3023TIP3    H1 9033   1.827   0.547   0.832  0.1801 -1.6470 -2.7909
 3023TIP3    H2 9034   1.779   0.612   0.704 -0.5975  3.3406 -0.2171
 3024TIP3   OH2 9035   6.973   6.161   2.619 -0.1713 -0.1148 -0.0600
 3024TIP3    H1 9036   6.978   6.251   2.587  1.3907 -0.5670 -1.1656
 3024TIP3    H2 9037   6.990   6.169   2.713  0.1462  0.7277 -0.1735
 3025TIP3   OH2 9038   3.170   5.912   1.921 -0.1718  0.1139  0.0351
 3025TIP3    H1 9039   3.136   5.864   1.996 -1.7960  1.5914  0.3132
 3025TIP3    H2 9040   3.215   5.846   1.869 -1.4186 -1.4989  0.9024
 3026TIP3   OH2 9041   4.981   0.271   3.175 -0.0333  0.4087  0.1641
 3026TIP3    H1 9042   5.010   0.202   3.116  2.1341  0.6097  0.9196
 3026TIP3    H2 9043   4.899   0.238   3.211  0.0364 -0.9498 -0.8320
 3027TIP3   OH2 9044   1.737   3.732   5.262 -0.0855  0.5429 -0.0997
 3027TIP3    H1 9045   1.795   3.746   5.337 -0.9582 -1.0771  0.9384
 3027TIP3    H2 9046   1.791   3.685   5.199 -0.0420 -0.3006  0.5520
 3028TIP3   OH2 9047   3.976   3.487   5.188  0.3332 -0.5203  0.4725
 3028TIP3    H1 9048   4.046   3.475   5.123 -1.2154  1.1010 -1.6527
 3028TIP3    H2 9049   3.903   3.436   5.154 -0.7275  0.8924  0.5680
 3029TIP3   OH2 9050   7.025   2.128   5.195 -0.0939  0.1258 -0.4059
 3029TIP3    H1 9051   6.999   2.047   5.238  0.5251  1.2990  2.3671
 3029TIP3    H2 9052   6.953   2.148   5.134 -1.8263 -0.8159  1.2449
 3030TIP3   OH2 9053   0.782   5.272   1.921 -0.1591  0.3945  0.3508
 3030TIP3    H1 9054   0.727   5.199   1.894  0.7273 -0.4297  0.7222
 3030TIP3    H2 9055   0.756   5.289   2.011 -0.1001  0.2880  0.3878
 3031TIP3   OH2 9056   1.216   6.047   0.862 -0.2473 -0.2740  0.2939
 3031TIP3    H1 9057   1.298   6.066   0.816 -0.4716 -1.8368 -0.8068
 3031TIP3    H2 9058   1.243   6.034   0.953  0.6536 -0.3027  0.0384
 3032TIP3   OH2 9059   3.313   4.458   2.434  0.8119 -0.7437 -0.2731
 3032TIP3    H1 9060   3.223   4.447   2.464  0.7116 -1.1589 -0.7146
 3032TIP3    H2 9061   3.358   4.378   2.463  0.9241 -0.7469 -0.4545
 3033TIP3   OH2 9062   2.562   3.120   1.655 -0.5407 -0.1107 -0.2157
 3033TIP3    H1 9063   2.502   3.157   1.720 -0.3227  1.3590 -0.8007
 3033TIP3    H2 9064   2.620   3.193   1.633  0.3497 -1.0207 -0.9443
 3034TIP3   OH2 9065   3.713   4.098   2.581 -0.1232 -0.2975  0.0684
 3034TIP3    H1 9066   3.726   4.193   2.581 -1.3797 -0.0370  2.3831
 3034TIP3    H2 9067   3.720   4.072   2.489  1.3137  1.8581 -0.4876
 3035TIP3   OH2 9068   4.573   6.017   3.160 -0.1122 -0.0812  0.2521
 3035TIP3    H1 9069   4.547   6.028   3.068  0.6120 -1.6476 -0.1836
 3035TIP3    H2 9070   4.520   5.943   3.191  1.7833 -1.5787  0.1415
 3036TIP3   OH2 9071   0.566   2.625   2.342  0.0076 -0.6458  0.2558
 3036TIP3    H1 9072   0.616   2.641   2.422  1.0926 -1.4856 -0.2287
 3036TIP3    H2 9073   0.556   2.530   2.338 -0.1686 -0.6026 -0.5257
 3037TIP3   OH2 9074   2.126   0.503   5.552 -0.0211  0.2542  0.0957
 3037TIP3    H1 9075   2.065   0.520   5.480 -0.4795 -0.8501  0.1991
 3037TIP3    H2 9076   2.162   0.589   5.574 -3.0452  1.3532  1.3733
 3038TIP3   OH2 9077   6.743   3.812   3.494 -0.4602 -0.4219 -0.4243
 3038TIP3    H1 9078   6.768   3.903   3.480 -1.3925 -0.0800  0.0153
 3038TIP3    H2 9079   6.649   3.811   3.475 -0.2039 -1.5839 -1.7581
 3039TIP3   OH2 9080   4.263   0.668   5.143 -0.0999 -0.1798  0.7969
 3039TIP3    H1 9081   4.168   0.665   5.137 -0.1297  2.0501 -1.4864
 3039TIP3    H2 9082   4.293   0.628   5.061  1.0750 -2.2897  2.1426
 3040TIP3   OH2 9083   5.565   6.275   4.622 -0.0800  0.4618  0.5321
 3040TIP3    H1 9084   5.470   6.282   4.619 -0.0743  0.1541 -1.0572
 3040TIP3    H2 9085   5.596   6.341   4.560  0.6874 -0.1095  0.2916
 3041TIP3   OH2 9086   0.970   2.605   1.225  0.4803  0.0007  0.5125
 3041TIP3    H1 9087   0.875   2.607   1.239  0.2913  1.0939 -0.7456
 3041TIP3    H2 9088   0.996   2.516   1.251 -1.1497 -0.8650 -0.6308
 3042TIP3   OH2 9089   2.501   2.526   4.837 -0.4898 -1.0656  0.5591
 3042TIP3    H1 9090   2.445   2.554   4.765 -0.1538  3.2378  1.7214
 3042TIP3    H2 9091   2.447   2.534   4.915  0.3891 -1.4891  1.2376
 3043TIP3   OH2 9092   2.810   0.163   1.124  0.0042  0.1553 -0.9970
 3043TIP3    H1 9093   2.733   0.108   1.116 -0.3287  0.0502  1.9780
 3043TIP3    H2 9094   2.877   0.107   1.163  0.3401  1.2207  0.0477
 3044TIP3   OH2 9095   2.057   2.734   0.797 -0.2478  0.6229 -0.1551
 3044TIP3    H1 9096   2.112   2.757   0.722  0.6906  0.9581  0.6171
 3044TIP3    H2 9097   2.062   2.639   0.802 -0.9008  0.5373 -0.9427
 3045TIP3   OH2 9098   5.865   4.788   3.977  0.2872 -0.0547  0.0700
 3045TIP3    H1 9099   5.937   4.752   4.029  0.4332  1.2733  0.8396
 3045TIP3    H2 9100   5.787   4.775   4.032 -0.0232 -1.1732 -0.6106
 3046TIP3   OH2 9101   2.740   2.041   1.423  0.4197 -0.0281 -0.6480
 3046TIP3    H1 9102   2.782   2.086   1.496  1.9973 -0.4834 -1.2443
 3046TIP3    H2 9103   2.678   2.105   1.387  1.0368  0.8721 -0.1315
 3047TIP3   OH2 9104   3.414   5.572   0.563  0.1033 -0.1319  0.2783
 3047TIP3    H1 9105   3.367   5.502   0.517  0.6076 -0.7736  0.7138
 3047TIP3    H2 9106   3.469   5.612   0.495  1.4860 -1.6314  0.4322
 3048TIP3   OH2 9107   2.623   0.471   0.586 -0.4737  0.1713 -0.6112
 3048TIP3    H1 9108   2.707   0.441   0.551 -0.7650 -1.0855 -0.2632
 3048TIP3    H2 9109   2.616   0.562   0.556  1.4961  0.6532  0.2033
 3049TIP3   OH2 9110   5.858   3.275   5.309  0.1197  0.0771 -0.3691
 3049TIP3    H1 9111   5.791   3.260   5.242  0.0833  0.0794 -0.3328
 3049TIP3    H2 9112   5.822   3.343   5.365 -0.1217 -0.3580  0.0181
 3050TIP3   OH2 9113   6.508   3.439   5.770 -0.5625  0.3106  0.0828
 3050TIP3    H1 9114   6.604   3.433   5.770 -0.5968 -0.6691 -1.3182
 3050TIP3    H2 9115   6.481   3.388   5.694 -2.3882 -2.1167  2.1881
 3051TIP3   OH2 9116   0.461   4.290   0.215 -0.0839 -0.0502 -0.0936
 3051TIP3    H1 9117   0.512   4.363   0.248 -0.8144  0.1632  0.5770
 3051TIP3    H2 9118   0.524   4.218   0.207  0.7184  0.7416 -1.1227
 3052TIP3   OH2 9119   2.633   5.361   5.783 -0.5232 -0.0657  0.2721
 3052TIP3    H1 9120   2.616   5.415   5.706  0.6881 -0.6060 -0.4143
 3052TIP3    H2 9121   2.554   5.309   5.795 -1.8577  2.0168  1.1363
 3053TIP3   OH2 9122   6.647   3.646   3.823 -0.2539 -0.3079 -0.8361
 3053TIP3    H1 9123   6.575   3.590   3.791 -0.5307 -0.1753 -0.4562
 3053TIP3    H2 9124   6.623   3.734   3.794 -0.2483 -0.2647 -0.7120
 3054TIP3   OH2 9125   6.533   0.104   1.436  0.2624  0.6203 -0.2950
 3054TIP3    H1 9126   6.507   0.168   1.502 -0.1690  1.7976 -1.5647
 3054TIP3    H2 9127   6.476   0.029   1.452 -0.0632  1.0155  0.4527
 3055TIP3   OH2 9128   5.488   6.435   0.539  0.2127 -0.8715 -0.1881
 3055TIP3    H1 9129   5.518   6.471   0.455  0.7297  1.0657  0.7646
 3055TIP3    H2 9130   5.543   6.478   0.604 -1.8061 -0.4372  1.3220
 3056TIP3   OH2 9131   1.339   3.699   1.326  0.7184 -0.2916  0.0684
 3056TIP3    H1 9132   1.268   3.637   1.342  2.1188 -1.7874  0.7223
 3056TIP3    H2 9133   1.294   3.778   1.295 -1.1070 -1.6679 -1.0532
 3057TIP3   OH2 9134   5.401   6.288   5.854 -0.2104  0.4260  0.2764
 3057TIP3    H1 9135   5.367   6.200   5.838  1.8302 -0.2850 -0.5446
 3057TIP3    H2 9136   5.403   6.296   5.950  2.2398 -1.6315  0.5087
 3058TIP3   OH2 9137   4.854   5.838   1.683 -0.1008 -0.2776  0.0006
 3058TIP3    H1 9138   4.930   5.803   1.729  0.5830 -0.1088 -0.9803
 3058TIP3    H2 9139   4.827   5.767   1.624  0.6534  0.4371 -1.2390
 3059TIP3   OH2 9140   6.068   6.799   0.100  0.2605 -0.4574 -0.2276
 3059TIP3    H1 9141   6.124   6.752   0.162  1.2759  0.5110 -0.3766
 3059TIP3    H2 9142   6.069   6.746   0.021  1.5136 -0.1375 -0.4453
 3060TIP3   OH2 9143   7.120   0.481   0.266  0.2316 -0.5209 -0.7372
 3060TIP3    H1 9144   7.027   0.482   0.244 -0.1282  1.5813  0.6330
 3060TIP3    H2 9145   7.132   0.555   0.325  2.5561 -1.4638  0.1028
 3061TIP3   OH2 9146   0.180   6.357   1.926 -0.3106 -0.2907  0.7121
 3061TIP3    H1 9147   0.102   6.380   1.876  0.2828 -1.1578 -0.6436
 3061TIP3    H2 9148   0.188   6.428   1.991 -2.5526 -0.4961  1.3015
 3062TIP3   OH2 9149   1.667   6.276   4.099  0.3741  0.6277 -0.5719
 3062TIP3    H1 9150   1.701   6.195   4.139  0.0164  0.7632  0.0275
 3062TIP3    H2 9151   1.666   6.339   4.171 -0.2793  0.8833 -0.8039
 3063TIP3   OH2 9152   4.484   4.120   3.664 -0.2816 -0.5864  0.0946
 3063TIP3    H1 9153   4.406   4.067   3.682 -0.8198  0.2149  0.1292
 3063TIP3    H2 9154   4.539   4.062   3.610 -1.6825 -0.5455 -1.4719
 3064TIP3   OH2 9155   3.075   2.479   0.504  0.3232  0.1355  0.0678
 3064TIP3    H1 9156   3.058   2.507   0.414  2.1508  0.2364 -0.2672
 3064TIP3    H2 9157   3.036   2.549   0.557  0.3301  0.7124 -0.6613
 3065TIP3   OH2 9158   6.940   3.536   5.522  0.0144 -0.3077 -0.0348
 3065TIP3    H1 9159   7.032   3.511   5.519  0.0194 -0.7970  2.6305
 3065TIP3    H2 9160   6.892   3.455   5.504  0.0966 -0.4106  0.2099
 3066TIP3   OH2 9161   1.384   4.463   3.808  0.4222 -0.4006 -0.4314
 3066TIP3    H1 9162   1.369   4.503   3.894 -0.8796  0.0082 -0.8281
 3066TIP3    H2 9163   1.455   4.401   3.823  1.0298  0.5267  0.6766
 3067TIP3   OH2 9164   4.782   4.449   5.389  0.2425 -0.4427  0.5058
 3067TIP3    H1 9165   4.781   4.525   5.447 -0.5780  0.7853 -1.0425
 3067TIP3    H2 9166   4.854   4.466   5.328 -0.7963 -0.1983 -0.6934
 3068TIP3   OH2 9167   5.353   5.801   3.499 -0.0516 -0.0960 -0.0393
 3068TIP3    H1 9168   5.395   5.764   3.422 -0.8467 -0.2306 -0.4255
 3068TIP3    H2 9169   5.371   5.738   3.569 -1.3449 -1.2314 -0.6819
 3069TIP3   OH2 9170   4.984   3.013   1.444 -0.5061 -0.1461  0.2845
 3069TIP3    H1 9171   5.059   2.969   1.405 -0.9786  0.4343 -1.3692
 3069TIP3    H2 9172   4.953   3.072   1.375 -1.9595  0.2334  1.2321
 3070TIP3   OH2 9173   5.026   2.932   0.550 -0.4032  0.2418 -0.3945
 3070TIP3    H1 9174   5.079   2.967   0.478  1.8865 -0.8497  0.6759
 3070TIP3    H2 9175   4.993   2.848   0.516  1.2335 -0.5992 -0.0027
 3071TIP3   OH2 9176   5.331   5.138   1.417 -0.5560 -0.3207  0.2304
 3071TIP3    H1 9177   5.251   5.150   1.366 -0.3338  0.9984  0.1541
 3071TIP3    H2 9178   5.307   5.074   1.484 -1.8622  0.4472  0.5496
 3072TIP3   OH2 9179   4.859   6.015   5.597 -0.2099  0.0174 -0.0151
 3072TIP3    H1 9180   4.903   6.100   5.600  0.8227 -0.5207  1.4066
 3072TIP3    H2 9181   4.912   5.961   5.539  0.6413 -0.4129  1.1295
 3073TIP3   OH2 9182   5.321   5.069   1.692 -0.1298  0.2231  0.4979
 3073TIP3    H1 9183   5.341   4.985   1.733 -0.9466 -0.6958 -0.9188
 3073TIP3    H2 9184   5.228   5.063   1.668  0.5375  0.2729 -2.4003
 3074TIP3   OH2 9185   4.306   0.978   3.875  0.6473  0.4117  0.3971
 3074TIP3    H1 9186   4.366   0.925   3.928 -0.0438 -0.8484 -0.0435
 3074TIP3    H2 9187   4.318   1.068   3.908  0.8072 -0.2085  2.1611
 3075TIP3   OH2 9188   2.798   3.967   4.733  0.0293  0.3311 -0.2924
 3075TIP3    H1 9189   2.812   4.021   4.655  0.8359 -0.0819 -0.4457
 3075TIP3    H2 9190   2.853   3.890   4.719 -2.0426 -1.1696 -0.6805
 3076TIP3   OH2 9191   4.942   0.019   5.288 -0.0276  0.2297  0.6495
 3076TIP3    H1 9192   5.033   0.034   5.313 -0.0828 -1.5046  2.1034
 3076TIP3    H2 9193   4.948  -0.038   5.211  0.1044  0.6486  0.3441
 3077TIP3   OH2 9194   6.399   4.064   4.447 -0.4097  1.0573  0.6783
 3077TIP3    H1 9195   6.402   3.969   4.449  0.8788  1.0868  0.6578
 3077TIP3    H2 9196   6.485   4.092   4.478 -0.4223  2.2026 -0.2397
 3078TIP3   OH2 9197   0.201   2.981   1.819 -0.2144  0.3509  0.0935
 3078TIP3    H1 9198   0.157   2.924   1.756  1.1568  2.1544 -2.7089
 3078TIP3    H2 9199   0.281   2.934   1.842 -0.2559  0.0775 -0.3051
 3079TIP3   OH2 9200   2.315   3.515   2.932  0.9825 -0.0936  0.3871
 3079TIP3    H1 9201   2.397   3.557   2.908  0.4926  0.5317 -0.2408
 3079TIP3    H2 9202   2.293   3.459   2.857  0.1608  0.7845 -0.0514
 3080TIP3   OH2 9203   5.017   0.738   2.592  0.2030  0.6161 -0.1644
 3080TIP3    H1 9204   5.097   0.686   2.600 -0.4699 -0.2851  0.8747
 3080TIP3    H2 9205   5.048   0.825   2.568  1.4138 -0.0161 -1.0030
 3081TIP3   OH2 9206   1.267   0.243   2.221 -0.1146 -0.3451 -0.4962
 3081TIP3    H1 9207   1.298   0.224   2.133  0.9239 -0.0630 -0.1999
 3081TIP3    H2 9208   1.287   0.336   2.234  0.9208 -0.6909  0.5014
 3082TIP3   OH2 9209   2.257   0.177   4.619  0.2456  0.3626  0.0742
 3082TIP3    H1 9210   2.295   0.182   4.532 -0.0843 -2.1025 -0.2823
 3082TIP3    H2 9211   2.285   0.092   4.653  0.3738  1.2562  2.3937
 3083TIP3   OH2 9212   3.234   0.154   5.132  0.2994 -0.2907  0.1055
 3083TIP3    H1 9213   3.217   0.060   5.125 -0.4761 -0.1468 -0.0094
 3083TIP3    H2 9214   3.216   0.189   5.045  0.9680 -0.0917  0.0454
 3084TIP3   OH2 9215   0.302   0.005   2.294  0.7459  0.1264  0.4239
 3084TIP3    H1 9216   0.265  -0.068   2.344  2.3443 -0.2458  1.1343
 3084TIP3    H2 9217   0.280   0.082   2.346 -0.9134  0.1921 -0.3059
 3085TIP3   OH2 9218   2.092   6.196   0.678 -0.2652 -0.3377 -0.1184
 3085TIP3    H1 9219   2.116   6.198   0.585  0.7992  0.9760  0.1421
 3085TIP3    H2 9220   2.004   6.159   0.680  0.2227 -1.6815 -1.5124
 3086TIP3   OH2 9221   7.180   1.725   1.214  0.3179  0.4743  0.0599
 3086TIP3    H1 9222   7.188   1.632   1.231  0.9246  0.5219  0.0432
 3086TIP3    H2 9223   7.088   1.745   1.232 -0.5173 -0.6405 -2.5338
 3087TIP3   OH2 9224   2.898   5.951   0.309 -0.1501 -0.1256  0.0518
 3087TIP3    H1 9225   2.816   5.948   0.359  0.1469 -1.1199  0.4908
 3087TIP3    H2 9226   2.945   6.026   0.346 -0.6202  0.1203  0.1681
 3088TIP3   OH2 9227   2.905   3.589   2.464 -0.2405  0.0458  0.3711
 3088TIP3    H1 9228   2.838   3.575   2.532 -0.1640  0.9706  0.6494
 3088TIP3    H2 9229   2.855   3.610   2.385 -0.2832  1.2839  0.7096
 3089TIP3   OH2 9230   6.524   2.526   2.731  0.2082  0.3468 -0.1272
 3089TIP3    H1 9231   6.463   2.460   2.699  0.1181  0.7428 -0.7909
 3089TIP3    H2 9232   6.532   2.588   2.659  2.0382 -0.1304 -0.3906
 3090TIP3   OH2 9233   7.199   2.561   0.180 -0.6158  0.2403 -0.0627
 3090TIP3    H1 9234   7.200   2.468   0.159 -2.2201 -0.1712  1.4671
 3090TIP3    H2 9235   7.170   2.565   0.271 -0.2750  2.2276  0.0020
 3091TIP3   OH2 9236   1.595   0.332   4.268  0.2191 -0.0208 -0.0825
 3091TIP3    H1 9237   1.555   0.260   4.318  0.7174  1.1206  2.1086
 3091TIP3    H2 9238   1.521   0.377   4.229 -0.1565 -1.2584 -0.8622
 3092TIP3   OH2 9239   5.088   1.495   5.233 -0.1317 -0.2717  0.2198
 3092TIP3    H1 9240   5.165   1.450   5.198 -0.4581  0.7664 -1.9951
 3092TIP3    H2 9241   5.099   1.586   5.205 -0.6910  0.5602  2.5175
 3093TIP3   OH2 9242   6.921   1.357   1.787  0.1560 -0.1616  0.3316
 3093TIP3    H1 9243   6.929   1.263   1.771  1.6584 -0.2048  1.1743
 3093TIP3    H2 9244   6.934   1.366   1.882 -0.5310  0.8581  0.3512
 3094TIP3   OH2 9245   6.804   5.153   5.151 -0.3417  0.6843  0.5583
 3094TIP3    H1 9246   6.742   5.082   5.135  1.0395 -0.5372  0.3545
 3094TIP3    H2 9247   6.773   5.226   5.098 -0.3655 -0.6371 -1.3314
 3095TIP3   OH2 9248   0.323   5.006   0.701  0.2583 -0.3964 -0.0140
 3095TIP3    H1 9249   0.284   5.015   0.614  0.2234  0.0567  0.0451
 3095TIP3    H2 9250   0.393   4.943   0.690 -0.1557 -0.8261 -0.2373
 3096TIP3   OH2 9251   0.201   5.541   3.769  0.6237 -0.6797  0.3090
 3096TIP3    H1 9252   0.267   5.526   3.701  0.5243  0.7644 -0.1354
 3096TIP3    H2 9253   0.123   5.569   3.721  0.7893  1.1424  1.0223
 3097TIP3   OH2 9254   2.971   6.463   5.105 -0.2609 -0.2670  0.0893
 3097TIP3    H1 9255   2.916   6.537   5.131  0.1792  0.4269 -0.8753
 3097TIP3    H2 9256   3.042   6.463   5.169 -0.5020 -0.1370  0.3613
 3098TIP3   OH2 9257   2.799   4.101   5.467  0.6707 -0.0127 -0.2527
 3098TIP3    H1 9258   2.755   4.091   5.383 -0.4770 -1.6657  0.4840
 3098TIP3    H2 9259   2.767   4.184   5.502  0.9299  0.5377 -1.2872
 3099TIP3   OH2 9260   5.079   5.801   3.744 -0.5159  0.2530 -0.4441
 3099TIP3    H1 9261   5.140   5.728   3.746  1.0567  1.4715 -1.3228
 3099TIP3    H2 9262   5.002   5.767   3.698 -0.4472 -1.2388  0.4733
 3100TIP3   OH2 9263   2.922   2.512   5.294  0.0957  0.4611  0.0401
 3100TIP3    H1 9264   2.955   2.548   5.211 -0.2818 -0.0853 -0.3535
 3100TIP3    H2 9265   3.001   2.483   5.340  0.1840 -1.0903 -1.0074
 3101TIP3   OH2 9266   0.134   0.376   5.103  0.4846  0.0944 -0.0717
 3101TIP3    H1 9267   0.109   0.366   5.195 -0.2439 -1.1538 -0.3831
 3101TIP3    H2 9268   0.179   0.461   5.100  1.5647 -0.3573  1.6520
 3102TIP3   OH2 9269   1.958   2.920   0.300 -0.8023 -0.0176  0.1739
 3102TIP3    H1 9270   1.972   2.827   0.282  2.0897  0.6232 -1.3765
 3102TIP3    H2 9271   1.894   2.948   0.234 -2.4931 -1.0256  1.2896
 3103TIP3   OH2 9272   1.639   1.937   1.365 -0.0972  0.3616 -0.5784
 3103TIP3    H1 9273   1.662   1.983   1.284 -0.4509  0.1035 -0.8259
 3103TIP3    H2 9274   1.543   1.932   1.363 -0.0340 -1.5775 -1.2219
 3104TIP3   OH2 9275   1.520   0.409   1.808  0.0922 -0.1203  0.3141
 3104TIP3    H1 9276   1.438   0.359   1.807  0.7359 -1.3543  2.3718
 3104TIP3    H2 9277   1.587   0.345   1.784  0.6294  0.4868  0.1850
 3105TIP3   OH2 9278   2.712   5.238   0.842 -0.5351 -0.3323 -0.2012
 3105TIP3    H1 9279   2.640   5.244   0.904 -0.6459 -2.8544  0.0096
 3105TIP3    H2 9280   2.724   5.144   0.827  1.9028  0.0477 -1.1794
 3106TIP3   OH2 9281   5.563   4.097   2.715 -0.2945 -0.0777 -0.1032
 3106TIP3    H1 9282   5.658   4.089   2.704 -0.1276  1.8572 -0.3429
 3106TIP3    H2 9283   5.527   4.067   2.632  0.3261  2.4163 -1.3520
 3107TIP3   OH2 9284   0.745   3.348   4.108  0.1611  0.3057 -0.3284
 3107TIP3    H1 9285   0.708   3.321   4.192  0.0882 -0.9432 -0.7429
 3107TIP3    H2 9286   0.793   3.271   4.078 -0.9797  0.2262 -2.0831
 3108TIP3   OH2 9287   6.102   0.464   2.322 -0.0343  0.1488 -0.1786
 3108TIP3    H1 9288   6.070   0.553   2.336 -0.5873  0.0690 -0.8919
 3108TIP3    H2 9289   6.060   0.435   2.241  2.4580  0.3524 -1.6551
 3109TIP3   OH2 9290   2.419   6.326   1.906  0.5153 -0.7178  0.5384
 3109TIP3    H1 9291   2.362   6.298   1.978  0.2590 -2.9476 -0.4307
 3109TIP3    H2 9292   2.363   6.320   1.829  0.8756  1.3323  0.0734
 3110TIP3   OH2 9293   5.557   2.765   4.365 -0.1364  0.0674  0.0948
 3110TIP3    H1 9294   5.642   2.800   4.341 -0.2627  0.1699 -0.2123
 3110TIP3    H2 9295   5.506   2.841   4.394  0.1537 -0.1202  1.1065
 3111TIP3   OH2 9296   7.009   2.841   3.528 -0.3567  0.3329 -0.1064
 3111TIP3    H1 9297   6.978   2.811   3.613 -1.7949 -0.0329 -0.7383
 3111TIP3    H2 9298   6.930   2.853   3.475  0.4932  0.5569 -1.3945
 3112TIP3   OH2 9299   5.095   5.366   5.520 -0.0174 -0.2002  0.5743
 3112TIP3    H1 9300   5.089   5.449   5.473 -1.4552 -0.5422  0.1140
 3112TIP3    H2 9301   5.116   5.390   5.610 -2.1764  0.8052  0.8515
 3113TIP3   OH2 9302   1.496   5.589   0.069  0.1860  0.1637 -0.3430
 3113TIP3    H1 9303   1.553   5.539   0.010  0.0266  2.0524 -2.2222
 3113TIP3    H2 9304   1.530   5.679   0.064 -0.6010  0.6154  1.5471
 3114TIP3   OH2 9305   1.883   1.068   2.202 -0.3188 -0.1246  0.3898
 3114TIP3    H1 9306   1.927   0.989   2.232  0.1835  0.0295  0.0594
 3114TIP3    H2 9307   1.933   1.140   2.241  0.4801  0.0913 -0.9780
 3115TIP3   OH2 9308   1.217   1.443   4.849 -0.2444  0.7467 -0.0389
 3115TIP3    H1 9309   1.209   1.527   4.803  2.2504  0.5721 -0.9486
 3115TIP3    H2 9310   1.182   1.379   4.788 -3.5315  1.1264  1.2151
 3116TIP3   OH2 9311   0.613   4.385   2.399 -0.1964 -0.1954 -0.1697
 3116TIP3    H1 9312   0.556   4.461   2.403 -1.0433 -0.8466  2.0503
 3116TIP3    H2 9313   0.634   4.375   2.306  1.4100  3.7226 -0.4247
 3117TIP3   OH2 9314   2.141   4.872   3.256 -0.3077 -0.2138 -0.0683
 3117TIP3    H1 9315   2.096   4.897   3.175 -0.6229 -2.7639 -0.7743
 3117TIP3    H2 9316   2.132   4.777   3.260  2.4422 -0.5077  1.3626
 3118TIP3   OH2 9317   1.385   5.500   3.908  0.0194 -0.2965 -0.4234
 3118TIP3    H1 9318   1.364   5.426   3.965  0.1362 -1.2808 -1.6245
 3118TIP3    H2 9319   1.454   5.547   3.954  0.3736 -1.2820  0.0822
 3119TIP3   OH2 9320   2.403   3.263   3.232 -0.4207 -0.1304  0.0744
 3119TIP3    H1 9321   2.474   3.199   3.227  1.2499  1.6074  0.4311
 3119TIP3    H2 9322   2.443   3.340   3.271 -2.2662  1.2990 -0.7041
 3120TIP3   OH2 9323   2.173   1.710   4.263  0.0969  0.3791  0.5063
 3120TIP3    H1 9324   2.151   1.720   4.170  0.0330  1.7308  0.6444
 3120TIP3    H2 9325   2.234   1.781   4.281  1.0412 -0.5865  1.2402
 3121TIP3   OH2 9326   1.738   0.733   1.053  0.4933 -0.1819  0.3129
 3121TIP3    H1 9327   1.681   0.680   1.109  0.7940 -0.5564  0.2712
 3121TIP3    H2 9328   1.740   0.687   0.970 -0.9659  1.0449 -0.4471
 3122TIP3   OH2 9329   5.979   6.352   1.122 -0.2060 -0.9347  0.4948
 3122TIP3    H1 9330   5.913   6.421   1.109 -1.0025 -1.8086 -0.2074
 3122TIP3    H2 9331   6.062   6.393   1.097 -0.9305 -0.8063 -1.8859
 3123TIP3   OH2 9332   1.529   0.036   5.107  0.1623 -0.5085  0.5340
 3123TIP3    H1 9333   1.471   0.017   5.033  0.7698 -2.1217  0.4274
 3123TIP3    H2 9334   1.568   0.120   5.085 -0.0275 -0.7294 -0.7591
 3124TIP3   OH2 9335   6.270   2.763   4.409 -0.2987 -0.1469 -0.1493
 3124TIP3    H1 9336   6.215   2.764   4.331  0.4945  0.8642 -0.7173
 3124TIP3    H2 9337   6.359   2.759   4.375  0.0630  0.4951  0.7081
 3125TIP3   OH2 9338   2.048   4.580   4.552  0.3272  0.3728 -0.4543
 3125TIP3    H1 9339   2.036   4.501   4.500 -1.1585  0.1747  0.1450
 3125TIP3    H2 9340   2.042   4.551   4.643  3.1017  0.6841 -0.0846
 3126TIP3   OH2 9341   6.411   0.263   1.637 -0.4245  0.1508  0.0554
 3126TIP3    H1 9342   6.317   0.250   1.648 -1.0235  1.9316 -2.1217
 3126TIP3    H2 9343   6.443   0.285   1.724 -1.2896 -3.7880  1.5776
 3127TIP3   OH2 9344   3.889   2.997   5.005  0.1938  0.1790  0.1396
 3127TIP3    H1 9345   3.891   3.063   4.936  1.9793  0.1707  0.1367
 3127TIP3    H2 9346   3.960   2.938   4.984 -0.4849 -0.9611  0.9211
 3128TIP3   OH2 9347   1.141   4.727   4.235  0.1053 -0.3598 -0.0776
 3128TIP3    H1 9348   1.172   4.818   4.235  2.3268 -1.0197 -1.6061
 3128TIP3    H2 9349   1.075   4.724   4.166  0.4451 -0.0282 -0.4231
 3129TIP3   OH2 9350   3.754   5.102   5.004 -0.1345 -0.3568  0.6218
 3129TIP3    H1 9351   3.717   5.054   4.930  1.2211 -0.6024  0.0851
 3129TIP3    H2 9352   3.725   5.053   5.081  1.3213 -2.1654  0.0893
 3130TIP3   OH2 9353   3.563   2.417   0.982  0.0119  0.6321 -0.6821
 3130TIP3    H1 9354   3.571   2.348   0.916 -0.4670 -1.1112  0.9971
 3130TIP3    H2 9355   3.650   2.458   0.983  0.6867 -0.7101 -0.9194
 3131TIP3   OH2 9356   4.165   4.419   5.636 -0.0364 -0.5565 -0.0901
 3131TIP3    H1 9357   4.174   4.514   5.641  0.8327 -0.4436 -2.5280
 3131TIP3    H2 9358   4.079   4.405   5.597  0.0155 -0.7612 -0.1297
 3132TIP3   OH2 9359   2.874   2.239   0.979 -0.3975  0.9121  0.3160
 3132TIP3    H1 9360   2.863   2.330   1.006 -2.0036  1.3588 -1.6012
 3132TIP3    H2 9361   2.893   2.244   0.885 -3.8630 -0.7666 -0.6290
 3133TIP3   OH2 9362   5.615   6.681   1.853 -0.0449 -0.1514  0.2735
 3133TIP3    H1 9363   5.555   6.634   1.796 -0.0717  0.9028 -0.5859
 3133TIP3    H2 9364   5.702   6.652   1.825  0.0241  1.4688 -1.3738
 3134TIP3   OH2 9365   2.998   6.188   1.468  0.0724  0.1725 -0.1758
 3134TIP3    H1 9366   3.071   6.231   1.513 -0.8561  0.5060  1.0568
 3134TIP3    H2 9367   3.038   6.146   1.391  1.5223  0.4850  0.3884
 3135TIP3   OH2 9368   1.458   3.288   1.825  0.1698 -0.1117 -0.5038
 3135TIP3    H1 9369   1.371   3.322   1.844  0.4417 -0.0133  0.6740
 3135TIP3    H2 9370   1.484   3.244   1.906  0.8961 -0.8230 -1.1115
 3136TIP3   OH2 9371   3.051   5.689   4.869 -0.3739 -0.6639 -0.1242
 3136TIP3    H1 9372   3.044   5.604   4.825  1.0930 -1.3280  0.8575
 3136TIP3    H2 9373   3.143   5.713   4.860 -0.6435  0.5226  0.1641
 3137TIP3   OH2 9374   4.539   5.564   4.878 -0.7198  0.2438 -0.3539
 3137TIP3    H1 9375   4.472   5.563   4.946  0.4821  1.9232  0.9693
 3137TIP3    H2 9376   4.566   5.656   4.873  1.6182 -0.3989 -0.6476
 3138TIP3   OH2 9377   5.625   0.816  -0.009 -0.5853  0.3945  0.0116
 3138TIP3    H1 9378   5.600   0.729  -0.041  2.3651 -0.4788 -0.2292
 3138TIP3    H2 9379   5.569   0.831   0.066 -0.4746 -2.2391  0.7289
 3139TIP3   OH2 9380   1.281   0.878   4.408 -0.0226  0.0055 -0.3642
 3139TIP3    H1 9381   1.362   0.866   4.359 -0.1975  0.4197 -0.7629
 3139TIP3    H2 9382   1.228   0.935   4.353 -1.3572 -1.7687 -1.0371
 3140TIP3   OH2 9383   6.204   3.186   3.593  0.0115 -0.0829 -0.0627
 3140TIP3    H1 9384   6.134   3.251   3.600 -0.2714 -0.1590 -1.6771
 3140TIP3    H2 9385   6.188   3.124   3.664 -1.2284  0.2084 -0.0728
 3141TIP3   OH2 9386   5.358   5.611   0.491 -0.3397 -0.1122 -0.0283
 3141TIP3    H1 9387   5.356   5.666   0.569 -1.0300  0.1740 -0.2352
 3141TIP3    H2 9388   5.360   5.522   0.525 -0.0467  0.0245  0.3149
 3142TIP3   OH2 9389   3.394   3.986   1.056 -0.0331  0.0708 -0.0317
 3142TIP3    H1 9390   3.484   3.994   1.088 -0.2897 -0.9741  0.9861
 3142TIP3    H2 9391   3.403   3.960   0.964  0.6960  0.1447  0.0154
 3143TIP3   OH2 9392   5.289   0.318   5.733  0.4049 -0.4516  0.3943
 3143TIP3    H1 9393   5.210   0.270   5.705  0.1969  1.2057 -2.1927
 3143TIP3    H2 9394   5.361   0.274   5.688  0.3922  0.6152 -0.7305
 3144TIP3   OH2 9395   7.075   0.487   5.125  0.0361 -0.2890  0.3862
 3144TIP3    H1 9396   7.112   0.475   5.037 -0.0386 -0.3968  0.3690
 3144TIP3    H2 9397   7.065   0.581   5.134 -0.6363 -0.3171 -0.0014
 3145TIP3   OH2 9398   0.678   4.859   1.628 -0.3645  0.3539 -0.1062
 3145TIP3    H1 9399   0.660   4.772   1.593 -1.5092  0.2720  0.6249
 3145TIP3    H2 9400   0.627   4.863   1.710 -0.1609  1.6241 -0.0195
 3146TIP3   OH2 9401   3.705   6.392   0.326  0.0391 -0.3917  0.1511
 3146TIP3    H1 9402   3.631   6.335   0.307  0.7033 -0.7907 -1.4096
 3146TIP3    H2 9403   3.776   6.357   0.272  1.0603  0.6205  0.8093
 3147TIP3   OH2 9404   2.542   5.462   5.543 -0.1612 -0.0460 -0.4014
 3147TIP3    H1 9405   2.544   5.548   5.502  0.8988 -0.3994 -1.1393
 3147TIP3    H2 9406   2.449   5.446   5.562 -0.3201  1.4677  0.2553
 3148TIP3   OH2 9407   4.626   5.774   0.754  0.4293  0.1813 -0.1909
 3148TIP3    H1 9408   4.613   5.869   0.758 -1.0331  0.1329 -2.1165
 3148TIP3    H2 9409   4.539   5.738   0.772  1.0067 -0.8222  0.6855
 3149TIP3   OH2 9410   4.378   6.727   4.322 -0.3669 -0.3071 -0.1515
 3149TIP3    H1 9411   4.304   6.678   4.287 -1.3248  1.3502 -0.5737
 3149TIP3    H2 9412   4.382   6.807   4.268  2.4199 -0.7896 -0.8656
 3150TIP3   OH2 9413   5.995   0.287   5.487  0.4826  0.1756 -0.2295
 3150TIP3    H1 9414   5.987   0.374   5.525  1.1297  1.2553 -2.3703
 3150TIP3    H2 9415   6.089   0.275   5.473  0.3257 -0.4545 -0.8434
 3151TIP3   OH2 9416   3.752   0.864   3.750  0.4584  0.0868 -0.1192
 3151TIP3    H1 9417   3.793   0.795   3.802  1.6844  0.8989  0.0221
 3151TIP3    H2 9418   3.799   0.864   3.667 -0.5959 -0.2932 -0.7336
 3152TIP3   OH2 9419   6.060   6.309   1.827  0.3162  0.2991 -0.5616
 3152TIP3    H1 9420   6.006   6.235   1.800  1.4213  0.5628 -3.8690
 3152TIP3    H2 9421   6.023   6.385   1.781 -0.0551  1.6824  1.8130
 3153TIP3   OH2 9422   3.500   3.853   1.827 -0.0335 -0.3823 -0.5173
 3153TIP3    H1 9423   3.434   3.788   1.850  0.4602 -0.4012  0.9109
 3153TIP3    H2 9424   3.479   3.877   1.736  0.4392 -3.3593 -1.5271
 3154TIP3   OH2 9425   6.700   1.211   4.717  0.1240 -0.0368 -0.0437
 3154TIP3    H1 9426   6.614   1.193   4.753  0.5160 -1.2345  0.3617
 3154TIP3    H2 9427   6.750   1.247   4.791  0.1009  0.2394 -0.1613
 3155TIP3   OH2 9428   6.031   5.992   3.618  0.0426 -0.1710  0.0671
 3155TIP3    H1 9429   5.980   6.070   3.595  0.4642 -0.0760 -0.5643
 3155TIP3    H2 9430   5.981   5.951   3.689 -0.4275  0.4175  0.0861
 3156TIP3   OH2 9431   5.851   6.581   2.838 -0.1017 -0.0829  0.7453
 3156TIP3    H1 9432   5.824   6.526   2.912  1.0255  0.0132  1.2567
 3156TIP3    H2 9433   5.870   6.666   2.877  3.1921 -0.7547  0.8910
 3157TIP3   OH2 9434   5.197   3.255   0.271 -0.0795 -0.1980 -0.0288
 3157TIP3    H1 9435   5.220   3.295   0.187 -1.1736  0.8238  0.1163
 3157TIP3    H2 9436   5.276   3.211   0.300  0.4755 -0.1043 -1.3370
 3158TIP3   OH2 9437   2.442   1.136   0.614 -0.2381  0.9376 -0.3254
 3158TIP3    H1 9438   2.396   1.058   0.584 -1.2030  0.8516  1.3044
 3158TIP3    H2 9439   2.504   1.104   0.679 -0.8685  1.5413  0.5934
 3159TIP3   OH2 9440   6.525   2.538   1.830 -0.7634 -0.2798  1.0832
 3159TIP3    H1 9441   6.600   2.481   1.845 -0.1633  0.3075  0.4122
 3159TIP3    H2 9442   6.534   2.565   1.738 -0.5379  1.5893  1.6208
 3160TIP3   OH2 9443   6.301   3.831   4.768 -0.1240 -0.1433 -0.0818
 3160TIP3    H1 9444   6.229   3.769   4.755 -0.0745 -0.2347  0.0772
 3160TIP3    H2 9445   6.327   3.818   4.859  0.8118 -0.8790 -0.4489
 3161TIP3   OH2 9446   5.992   5.387   0.465  0.3329 -0.2151 -0.0222
 3161TIP3    H1 9447   5.908   5.368   0.508  0.5186  1.4148  1.1905
 3161TIP3    H2 9448   6.048   5.313   0.487 -0.7873 -1.3661 -0.9087
 3162TIP3   OH2 9449   0.179   0.713   4.976  0.5473 -0.1743 -0.1840
 3162TIP3    H1 9450   0.155   0.750   4.891  0.0637  1.3790  0.5929
 3162TIP3    H2 9451   0.257   0.660   4.958  1.3649  1.3419 -1.3484
 3163TIP3   OH2 9452   4.413   0.509   5.690  0.0982  0.0558 -0.4634
 3163TIP3    H1 9453   4.366   0.452   5.629  0.5133 -2.6390  1.5305
 3163TIP3    H2 9454   4.350   0.527   5.760  0.6338  0.1908  0.0010
 3164TIP3   OH2 9455   4.094   2.640   2.219 -0.0213 -0.0396  0.1041
 3164TIP3    H1 9456   4.186   2.665   2.212 -0.6624  2.0222 -2.3787
 3164TIP3    H2 9457   4.075   2.590   2.140 -1.3643  0.9364 -0.2436
 3165TIP3   OH2 9458   6.701   2.222   4.207  0.4071 -0.2024 -0.5738
 3165TIP3    H1 9459   6.665   2.280   4.274  1.0022  0.5635 -0.9117
 3165TIP3    H2 9460   6.639   2.149   4.203 -1.4465  1.3402 -1.5283
 3166TIP3   OH2 9461   6.398   6.421   2.894  0.2962  0.5579 -0.3996
 3166TIP3    H1 9462   6.397   6.339   2.844 -2.7221  0.9095 -1.0592
 3166TIP3    H2 9463   6.353   6.400   2.975  2.6920  0.7322  1.0581
 3167TIP3   OH2 9464   7.129   5.063   5.597  0.6948  0.0362 -0.1517
 3167TIP3    H1 9465   7.145   5.113   5.516 -0.1153 -1.3945 -1.2545
 3167TIP3    H2 9466   7.117   5.130   5.664 -1.0319  1.4052 -1.6910
 3168TIP3   OH2 9467   4.109   5.200   4.650 -0.0363 -0.0737 -0.1164
 3168TIP3    H1 9468   4.015   5.215   4.639  0.1139 -0.1090 -1.7078
 3168TIP3    H2 9469   4.140   5.278   4.696 -0.6867  0.4586 -0.5379
 3169TIP3   OH2 9470   1.128   4.364   4.882 -0.5741  0.5768  0.3820
 3169TIP3    H1 9471   1.147   4.408   4.964 -0.0228  0.6143  0.2391
 3169TIP3    H2 9472   1.061   4.299   4.904 -0.2098  0.3783  0.9257
 3170TIP3   OH2 9473   7.072   3.171   4.420 -0.1091 -0.3044 -0.3328
 3170TIP3    H1 9474   7.059   3.122   4.339  0.3142  1.8123 -1.7468
 3170TIP3    H2 9475   7.006   3.240   4.417  1.0598  0.8880  0.2237
 3171TIP3   OH2 9476   0.631   2.216   0.329  0.4951  0.2499 -0.0537
 3171TIP3    H1 9477   0.705   2.184   0.381 -0.3036 -1.6508 -0.0024
 3171TIP3    H2 9478   0.557   2.215   0.390 -0.5707 -2.4917 -1.2205
 3172TIP3   OH2 9479   4.893   0.002   2.038  0.2095 -0.5421  0.5711
 3172TIP3    H1 9480   4.863  -0.073   1.987  0.6796  0.2351 -0.8811
 3172TIP3    H2 9481   4.889   0.076   1.978  1.0819  0.3512  1.5629
 3173TIP3   OH2 9482   5.886   3.848   1.438  0.3280  0.0011  0.1052
 3173TIP3    H1 9483   5.906   3.941   1.436 -0.2420  0.2187  2.1392
 3173TIP3    H2 9484   5.949   3.811   1.499 -0.3057 -0.6987  0.3532
 3174TIP3   OH2 9485   5.076   4.064   1.194  0.4453  0.1107 -0.1222
 3174TIP3    H1 9486   5.032   4.130   1.249  0.8097 -1.3833  2.1092
 3174TIP3    H2 9487   5.068   3.983   1.244 -0.4758 -1.7155 -3.0234
 3175TIP3   OH2 9488   2.298   0.127   0.953 -0.3162  0.3061 -0.1670
 3175TIP3    H1 9489   2.218   0.128   0.902  0.1481  0.4015 -0.9120
 3175TIP3    H2 9490   2.368   0.132   0.888  0.3089 -0.3816  0.4358
 3176TIP3   OH2 9491   4.779   1.033   0.151 -0.1024 -0.3934 -0.4096
 3176TIP3    H1 9492   4.705   1.005   0.205 -0.0332 -2.6262 -1.3832
 3176TIP3    H2 9493   4.741   1.046   0.064  0.7128 -2.1586 -1.0605
 3177TIP3   OH2 9494   5.034   3.690   2.509  0.1121  0.2861  0.4490
 3177TIP3    H1 9495   5.127   3.714   2.504  0.1322  0.3561  1.0955
 3177TIP3    H2 9496   4.998   3.720   2.426  0.9188 -0.8836 -0.3576
 3178TIP3   OH2 9497   2.745   5.849   4.147  0.6355 -0.6580  0.2160
 3178TIP3    H1 9498   2.654   5.831   4.170  0.6476  0.1053  0.9495
 3178TIP3    H2 9499   2.753   5.823   4.056 -0.7933  0.8455 -0.3916
 3179TIP3   OH2 9500   1.099   3.474   4.525  0.0912  0.4017  0.0631
 3179TIP3    H1 9501   1.187   3.458   4.558 -0.4944  0.8918  2.0093
 3179TIP3    H2 9502   1.106   3.554   4.473  0.5504  1.2491  1.3955
 3180TIP3   OH2 9503   2.138   4.024   0.412 -0.0286  0.0982 -0.0920
 3180TIP3    H1 9504   2.216   3.975   0.386  0.2585  0.9500 -0.8619
 3180TIP3    H2 9505   2.074   3.956   0.435  0.4137 -0.6424 -0.9872
 3181TIP3   OH2 9506   6.608   0.345   3.489 -0.3275  0.5801 -0.4640
 3181TIP3    H1 9507   6.522   0.381   3.467 -0.5022  0.8899  0.6488
 3181TIP3    H2 9508   6.667   0.420   3.485 -0.3427  0.6171  0.0072
 3182TIP3   OH2 9509   1.369   4.986   1.507  0.2995 -0.6513 -0.0087
 3182TIP3    H1 9510   1.338   5.069   1.545 -0.8653 -1.1288  0.1474
 3182TIP3    H2 9511   1.392   4.933   1.583 -0.7656 -1.1337 -0.0070
 3183TIP3   OH2 9512   3.062   6.750   4.788 -0.2245  0.7750 -0.1918
 3183TIP3    H1 9513   3.074   6.827   4.845  0.8527 -1.2223  2.5176
 3183TIP3    H2 9514   2.968   6.745   4.773 -0.3809  2.2058  0.1365
 3184TIP3   OH2 9515   3.391   0.411   1.191 -0.1504  0.5792 -0.9286
 3184TIP3    H1 9516   3.396   0.502   1.219 -1.5901  1.2802 -2.7063
 3184TIP3    H2 9517   3.471   0.370   1.225 -0.3971  1.9787  1.5677
 3185TIP3   OH2 9518   6.977   1.304   2.393  0.0183 -0.6535  0.1861
 3185TIP3    H1 9519   7.026   1.376   2.354  1.5235 -2.1469 -0.7993
 3185TIP3    H2 9520   6.916   1.346   2.454  0.5760  1.4502 -0.6429
 3186TIP3   OH2 9521   2.821   0.292   3.565 -0.0677  0.2729 -0.2720
 3186TIP3    H1 9522   2.748   0.354   3.558 -0.7469 -0.4259  0.4699
 3186TIP3    H2 9523   2.890   0.330   3.510  0.6061  3.1892  2.3351
 3187TIP3   OH2 9524   4.918   6.723   2.648  0.0570  0.0097  0.6641
 3187TIP3    H1 9525   4.937   6.768   2.566 -1.3547 -0.3550  0.1110
 3187TIP3    H2 9526   4.902   6.632   2.622  1.3367 -0.5026  1.5785
 3188TIP3   OH2 9527   7.176   0.845   1.698  0.3070  0.1840  0.1159
 3188TIP3    H1 9528   7.194   0.805   1.782  1.1814 -1.4729 -0.8099
 3188TIP3    H2 9529   7.084   0.825   1.681  0.3337 -0.1214  0.3372
 3189TIP3   OH2 9530   4.381   6.334   0.822  0.1498  0.4233  0.0450
 3189TIP3    H1 9531   4.353   6.278   0.894  0.4058  1.3927  0.9173
 3189TIP3    H2 9532   4.304   6.341   0.766 -0.5768  0.9752  1.0841
 3190TIP3   OH2 9533   2.312   4.731   1.372  0.4890 -0.3137  0.0538
 3190TIP3    H1 9534   2.391   4.736   1.317 -1.8725 -0.9013 -3.7505
 3190TIP3    H2 9535   2.267   4.814   1.356 -1.0622 -1.1862 -0.2444
 3191TIP3   OH2 9536   1.259   5.691   5.510  0.7952  0.3580 -0.2780
 3191TIP3    H1 9537   1.337   5.740   5.534 -0.0933  0.9368  1.5881
 3191TIP3    H2 9538   1.197   5.707   5.581 -0.9633 -0.2495 -1.5943
 3192TIP3   OH2 9539   3.479   4.667   2.370 -0.0308  0.2058  0.1244
 3192TIP3    H1 9540   3.413   4.603   2.394  0.3383 -0.4779 -0.6273
 3192TIP3    H2 9541   3.549   4.656   2.434  0.8725 -1.4867 -1.0614
 3193TIP3   OH2 9542   0.678   2.050   2.482 -0.3598  0.1422  0.0846
 3193TIP3    H1 9543   0.646   2.122   2.429 -1.6306  0.2777  0.9945
 3193TIP3    H2 9544   0.701   1.981   2.419  1.1038  1.3837 -0.8059
 3194TIP3   OH2 9545   1.289   3.740   3.589 -0.0158 -0.0539  0.0062
 3194TIP3    H1 9546   1.208   3.704   3.624  0.0283 -0.0850  0.0764
 3194TIP3    H2 9547   1.321   3.797   3.659 -0.4494  0.6717 -0.3720
 3195TIP3   OH2 9548   2.527   5.452   4.169 -0.1716 -0.1808  0.4691
 3195TIP3    H1 9549   2.508   5.410   4.084 -0.7384 -0.0782  0.5365
 3195TIP3    H2 9550   2.449   5.505   4.187 -0.3922 -0.8169  1.4320
 3196TIP3   OH2 9551   0.514   0.001   0.458 -0.1621  0.2771 -0.4295
 3196TIP3    H1 9552   0.605   0.030   0.451 -0.3433  1.2623  0.9039
 3196TIP3    H2 9553   0.466   0.061   0.402 -0.2971  1.4264  0.8776
 3197TIP3   OH2 9554   4.825   0.012   5.770 -0.2331 -0.2829  0.3706
 3197TIP3    H1 9555   4.853   0.102   5.750  1.3231 -0.8754 -0.2749
 3197TIP3    H2 9556   4.876  -0.042   5.710 -1.4966 -1.5833  0.4266
 3198TIP3   OH2 9557   4.711   0.599   0.181  0.0137 -0.0083 -0.2522
 3198TIP3    H1 9558   4.632   0.649   0.202 -0.8125 -1.6684  0.7340
 3198TIP3    H2 9559   4.762   0.599   0.262 -0.1301 -0.9620 -0.1485
 3199TIP3   OH2 9560   5.205   2.490   2.572 -0.3145  0.3223  0.0981
 3199TIP3    H1 9561   5.170   2.456   2.490  3.3102  1.7659 -2.2422
 3199TIP3    H2 9562   5.160   2.573   2.585 -1.0807 -0.0271 -0.2474
 3200TIP3   OH2 9563   1.396   3.139   1.106  0.3703  0.0192  0.1116
 3200TIP3    H1 9564   1.401   3.167   1.014 -0.0703  1.0900  0.3980
 3200TIP3    H2 9565   1.485   3.112   1.127  0.4877 -0.2023 -0.6119
 3201TIP3   OH2 9566   6.254   4.234   0.905  0.5308  0.0258  0.1611
 3201TIP3    H1 9567   6.296   4.216   0.989  1.4082 -1.0867 -0.4821
 3201TIP3    H2 9568   6.290   4.168   0.846  0.5193  1.2657 -1.2832
 3202TIP3   OH2 9569   4.148   1.272   1.854  0.2979  0.3586  0.3432
 3202TIP3    H1 9570   4.191   1.320   1.783  0.2008  1.4805  1.0174
 3202TIP3    H2 9571   4.208   1.200   1.874  1.4221  1.3445  0.6295
 3203TIP3   OH2 9572   2.692   0.802   3.975  0.3729 -0.6224  0.1783
 3203TIP3    H1 9573   2.629   0.873   3.970 -0.4098 -1.2575  0.7412
 3203TIP3    H2 9574   2.752   0.827   4.045  0.7615 -0.0179 -0.3571
 3204TIP3   OH2 9575   6.936   4.740   1.086  0.2484 -0.2399 -0.4079
 3204TIP3    H1 9576   6.882   4.794   1.029 -1.6712 -1.3774  0.2398
 3204TIP3    H2 9577   6.930   4.652   1.050 -1.5737 -1.1303  1.7915
 3205TIP3   OH2 9578   1.471   0.340   3.662 -0.4466 -0.6337  0.0122
 3205TIP3    H1 9579   1.390   0.365   3.708 -1.1537 -0.9116 -1.0422
 3205TIP3    H2 9580   1.441   0.313   3.575  0.7475 -1.1452 -0.2518
 3206TIP3   OH2 9581   5.059   0.336   0.885  0.3776 -0.4670  0.0760
 3206TIP3    H1 9582   5.061   0.256   0.937  1.0577 -0.8469 -0.5243
 3206TIP3    H2 9583   5.005   0.313   0.809 -0.0407 -0.1251  0.2655
 3207TIP3   OH2 9584   1.114   6.444   5.673  0.0100 -0.0917  0.1808
 3207TIP3    H1 9585   1.172   6.521   5.679  2.0293 -1.5751  1.0940
 3207TIP3    H2 9586   1.148   6.384   5.740 -2.0753 -1.4304  0.1096
 3208TIP3   OH2 9587   3.697   3.001   4.197 -0.4642  0.1991 -0.3491
 3208TIP3    H1 9588   3.699   2.906   4.210  0.4709  0.1471 -0.8116
 3208TIP3    H2 9589   3.604   3.021   4.188 -0.7762 -0.4803  1.0214
 3209TIP3   OH2 9590   0.482   1.986   2.240  0.0494  0.3742  0.6335
 3209TIP3    H1 9591   0.533   2.067   2.238 -1.6276  1.4654  0.2312
 3209TIP3    H2 9592   0.497   1.945   2.155  1.5018 -0.1544  1.1197
 3210TIP3   OH2 9593   3.093   5.672   1.710  0.0677 -0.1090  0.5371
 3210TIP3    H1 9594   3.093   5.579   1.733 -1.0058 -0.3896 -0.5220
 3210TIP3    H2 9595   3.043   5.714   1.780 -0.7897 -0.5581  0.2065
 3211TIP3   OH2 9596   2.860   2.292   4.887 -0.3082 -0.5456  0.2902
 3211TIP3    H1 9597   2.770   2.263   4.899 -0.2429 -1.3295 -0.8864
 3211TIP3    H2 9598   2.892   2.241   4.812 -0.3216  2.9388 -2.3257
 3212TIP3   OH2 9599   2.676   0.299   5.635  0.4252 -0.0198  0.1467
 3212TIP3    H1 9600   2.652   0.212   5.602  2.1665 -0.0419 -1.2509
 3212TIP3    H2 9601   2.595   0.335   5.669 -0.6227 -1.6828 -0.4550
 3213TIP3   OH2 9602   6.557   5.227   5.298  0.0367  0.0355  0.0347
 3213TIP3    H1 9603   6.541   5.137   5.327  0.5722 -0.4854 -1.2213
 3213TIP3    H2 9604   6.646   5.225   5.263  0.2406  1.1839  0.4355
 3214TIP3   OH2 9605   5.539   4.844   2.549 -0.4938  0.5196  0.0787
 3214TIP3    H1 9606   5.496   4.859   2.633  1.6928  0.1097  1.3431
 3214TIP3    H2 9607   5.613   4.906   2.548  0.0033 -0.0539 -1.1678
 3215TIP3   OH2 9608   6.936   2.155   4.053 -0.5113 -0.1855 -0.6938
 3215TIP3    H1 9609   6.995   2.103   4.108  0.6042  0.4268 -1.2679
 3215TIP3    H2 9610   6.871   2.190   4.114  0.7051  0.4900  0.2606
 3216TIP3   OH2 9611   4.018   6.697   5.668 -0.0138 -0.3914 -0.0013
 3216TIP3    H1 9612   4.009   6.626   5.604  1.2800  0.0371 -0.7108
 3216TIP3    H2 9613   4.000   6.656   5.752  0.4108 -1.4986 -0.4291
 3217TIP3   OH2 9614   3.273   2.116   0.818 -0.0623  0.0754 -0.6544
 3217TIP3    H1 9615   3.342   2.162   0.770 -0.1283  0.7974 -0.0612
 3217TIP3    H2 9616   3.218   2.185   0.854 -1.5529 -0.4930 -1.7486
 3218TIP3   OH2 9617   2.619   4.765   0.489 -0.4793 -0.0814 -0.0360
 3218TIP3    H1 9618   2.575   4.713   0.421 -1.7781  0.9840 -0.0646
 3218TIP3    H2 9619   2.556   4.834   0.510  0.2707  0.1479  1.6104
 3219TIP3   OH2 9620   3.427   4.137   5.660 -0.4119 -0.1360  0.0847
 3219TIP3    H1 9621   3.464   4.187   5.588  0.5570 -0.3372  0.4231
 3219TIP3    H2 9622   3.468   4.051   5.654  0.9368  0.3070  1.7686
 3220TIP3   OH2 9623   3.890   1.533   4.329  0.6184  0.0960 -0.2557
 3220TIP3    H1 9624   3.815   1.556   4.273 -0.0518 -1.2153  0.0592
 3220TIP3    H2 9625   3.857   1.464   4.386  1.2963  1.3473  1.7752
 3221TIP3   OH2 9626   3.031   1.061   3.877  0.3339  0.0806  0.2992
 3221TIP3    H1 9627   3.116   1.055   3.921 -1.0733 -2.3334  3.0182
 3221TIP3    H2 9628   3.023   0.980   3.827  0.5773  1.4205 -2.0848
 3222TIP3   OH2 9629   2.130   4.510   2.258 -0.1496  0.7993  0.3710
 3222TIP3    H1 9630   2.044   4.545   2.280  0.0917  0.8509  1.2753
 3222TIP3    H2 9631   2.137   4.429   2.308 -0.7783 -0.7247 -1.8275
 3223TIP3   OH2 9632   7.043   5.511   0.079  0.2624 -0.7449  0.2768
 3223TIP3    H1 9633   7.135   5.531   0.059 -0.2665  0.8320 -0.6733
 3223TIP3    H2 9634   7.034   5.531   0.172  0.2304  1.7809 -0.2178
 3224TIP3   OH2 9635   3.038   1.769   1.221 -0.2046 -0.1164 -0.3713
 3224TIP3    H1 9636   3.090   1.766   1.141  1.3110  2.3647  0.4129
 3224TIP3    H2 9637   3.019   1.862   1.233 -0.5381 -0.4500  2.0533
 3225TIP3   OH2 9638   1.016   2.164   5.099  0.0890 -0.7230  0.5472
 3225TIP3    H1 9639   0.932   2.118   5.104 -0.2457 -0.3746 -1.3712
 3225TIP3    H2 9640   1.044   2.155   5.008  1.0272  1.0869  0.6121
 3226TIP3   OH2 9641   3.314   4.382   5.699 -0.3318  0.2527  0.4336
 3226TIP3    H1 9642   3.353   4.296   5.685  0.8612  0.8433  0.0316
 3226TIP3    H2 9643   3.220   4.365   5.703 -0.1736 -0.9486 -0.5186
 3227TIP3   OH2 9644   0.060   3.318   0.745  0.2722  0.1706 -0.0083
 3227TIP3    H1 9645   0.102   3.242   0.785 -0.7833 -0.0550  0.7201
 3227TIP3    H2 9646   0.063   3.300   0.651  2.1690  0.3828 -0.0249
 3228TIP3   OH2 9647   6.977   3.965   5.723 -0.0307  0.4647  0.4028
 3228TIP3    H1 9648   7.055   4.016   5.743 -0.5285  0.7885  1.5948
 3228TIP3    H2 9649   7.010   3.879   5.698  0.8758  1.5404 -2.5381
 3229TIP3   OH2 9650   5.628   0.111   3.076 -0.1852 -0.2560  0.1312
 3229TIP3    H1 9651   5.708   0.153   3.107 -0.7129  1.4511 -0.7026
 3229TIP3    H2 9652   5.569   0.113   3.151  0.0094 -0.0798  0.2804
 3230TIP3   OH2 9653   7.142   4.127   3.360 -0.4835  0.4844  0.3692
 3230TIP3    H1 9654   7.105   4.206   3.320  1.0247  0.6114 -0.8737
 3230TIP3    H2 9655   7.072   4.062   3.353 -0.7048  0.8545 -1.4235
 3231TIP3   OH2 9656   6.109   3.115   4.736 -0.0703 -0.1445 -0.3955
 3231TIP3    H1 9657   6.039   3.177   4.754 -0.6131 -0.9499  0.3727
 3231TIP3    H2 9658   6.102   3.097   4.643 -1.1981 -0.5606 -0.2442
 3232TIP3   OH2 9659   6.607   0.331   2.245 -0.2372 -0.0190 -0.5166
 3232TIP3    H1 9660   6.522   0.361   2.278  0.2840  1.1759 -0.2116
 3232TIP3    H2 9661   6.650   0.293   2.321 -0.4340 -0.5005 -0.6409
 3233TIP3   OH2 9662   4.792   3.623   5.844 -0.4992  0.1246  0.4672
 3233TIP3    H1 9663   4.742   3.683   5.788 -0.6122  0.2049  0.6532
 3233TIP3    H2 9664   4.879   3.622   5.805 -1.3766 -2.3803 -1.7361
 3234TIP3   OH2 9665   7.193   4.416   3.985 -0.0245  0.3839  0.3747
 3234TIP3    H1 9666   7.126   4.406   3.917  0.5907 -1.0433 -0.0575
 3234TIP3    H2 9667   7.149   4.465   4.054 -1.5409 -0.5018  0.1027
 3235TIP3   OH2 9668   0.497   2.262   0.071  0.0584  0.0491 -0.1079
 3235TIP3    H1 9669   0.490   2.221   0.158 -2.4411  1.3209  0.3775
 3235TIP3    H2 9670   0.460   2.349   0.083 -0.8194  0.0853 -2.5556
 3236TIP3   OH2 9671   6.612   5.704   4.391  0.1725  0.2049  0.0661
 3236TIP3    H1 9672   6.590   5.710   4.484  0.2198 -0.7615  0.1499
 3236TIP3    H2 9673   6.595   5.792   4.357  0.1361  0.5687  0.9781
 3237TIP3   OH2 9674   4.722   2.433   0.020  0.4392 -0.3365 -0.0926
 3237TIP3    H1 9675   4.749   2.514  -0.024  1.8489 -0.2844  0.7885
 3237TIP3    H2 9676   4.648   2.459   0.075  1.5657  0.6634  1.0361
 3238TIP3   OH2 9677   7.019   2.334   5.452 -0.0618  0.0500  0.2557
 3238TIP3    H1 9678   7.040   2.385   5.374  4.7153 -0.1386  1.1201
 3238TIP3    H2 9679   7.030   2.242   5.424  1.1841 -0.0335  0.9477
 3239TIP3   OH2 9680   4.774   5.588   1.607  0.7171 -0.5791 -0.1966
 3239TIP3    H1 9681   4.685   5.579   1.640  1.0667 -0.1615  0.9476
 3239TIP3    H2 9682   4.797   5.501   1.574  0.0051 -0.7696 -0.2096
 3240TIP3   OH2 9683   5.274   4.221   4.187 -0.0289 -0.0649 -0.2004
 3240TIP3    H1 9684   5.184   4.240   4.160  0.4979 -0.8705 -2.8831
 3240TIP3    H2 9685   5.290   4.132   4.155  2.6488  1.1677 -2.7071
 3241TIP3   OH2 9686   0.112   0.281   1.447 -0.2666 -0.4142  0.2013
 3241TIP3    H1 9687   0.046   0.288   1.515 -0.6572 -0.1272 -0.2016
 3241TIP3    H2 9688   0.195   0.298   1.492 -0.5136 -0.2918  0.6123
 3242TIP3   OH2 9689   1.913   4.384   5.020 -0.1238  0.5515 -0.4125
 3242TIP3    H1 9690   1.890   4.468   5.060  0.9376  0.1620  1.1290
 3242TIP3    H2 9691   1.832   4.334   5.020 -0.6816  1.4403 -0.9998
 3243TIP3   OH2 9692   5.681   3.047   5.471 -0.5105  0.0940 -0.1116
 3243TIP3    H1 9693   5.714   3.113   5.533 -0.2555  0.2319 -0.3942
 3243TIP3    H2 9694   5.760   3.010   5.432 -0.6540 -0.3622  0.0256
 3244TIP3   OH2 9695   4.362   0.964   3.308  0.2658 -0.3385 -0.2841
 3244TIP3    H1 9696   4.303   0.891   3.326 -1.1406  0.8156  0.0724
 3244TIP3    H2 9697   4.345   1.026   3.379  2.9309 -0.5052  0.6014
 3245TIP3   OH2 9698   4.712   5.075   0.799 -0.2089  0.1005 -0.1163
 3245TIP3    H1 9699   4.740   5.167   0.802  0.4870 -0.1043 -0.2677
 3245TIP3    H2 9700   4.785   5.026   0.835 -0.6986 -0.3792  0.2528
 3246TIP3   OH2 9701   1.456   2.774   0.757 -0.1068 -0.2680 -0.0545
 3246TIP3    H1 9702   1.387   2.714   0.727 -0.1387 -0.7600  0.9866
 3246TIP3    H2 9703   1.520   2.718   0.801 -0.9793  0.5961  2.4878
 3247TIP3   OH2 9704   3.943   2.698   2.444  0.9819  0.6296 -0.2890
 3247TIP3    H1 9705   3.992   2.669   2.366  2.4533  2.0328  0.0443
 3247TIP3    H2 9706   3.928   2.792   2.428  0.1058  0.6390  0.5331
 3248TIP3   OH2 9707   1.589   3.570   3.637 -0.2740  0.1407  0.2916
 3248TIP3    H1 9708   1.524   3.544   3.571  0.0064 -0.6939  0.3428
 3248TIP3    H2 9709   1.658   3.614   3.586 -0.8551  1.0262  0.2363
 3249TIP3   OH2 9710   1.382   4.526   3.370  0.1843 -0.2973 -0.1326
 3249TIP3    H1 9711   1.379   4.430   3.373 -2.6175 -0.4639 -3.1034
 3249TIP3    H2 9712   1.306   4.553   3.421  1.5597  0.5058  1.6052
 3250TIP3   OH2 9713   2.230   6.538   4.999  0.0493  0.4347 -0.1456
 3250TIP3    H1 9714   2.168   6.611   5.003 -1.2540 -0.6258 -0.6230
 3250TIP3    H2 9715   2.201   6.484   4.926 -0.2899 -1.6885  1.4593
 3251TIP3   OH2 9716   3.785   0.068   4.817 -0.0679  0.1612  0.1241
 3251TIP3    H1 9717   3.820   0.022   4.741  0.4772 -0.9049  0.9825
 3251TIP3    H2 9718   3.824   0.022   4.892 -1.4375  0.4871  1.0680
 3252TIP3   OH2 9719   0.563   5.147   0.315 -0.1708  0.5463  0.2739
 3252TIP3    H1 9720   0.580   5.238   0.290 -1.1864  1.1327  1.6053
 3252TIP3    H2 9721   0.468   5.141   0.318 -0.0963 -0.3534  0.9681
 3253TIP3   OH2 9722   5.244   3.737   4.520  0.4964 -0.1384  0.3049
 3253TIP3    H1 9723   5.162   3.749   4.568  0.3413  1.6498 -0.3263
 3253TIP3    H2 9724   5.219   3.742   4.428  1.1086 -1.3090  0.0491
 3254TIP3   OH2 9725   0.175   4.561   1.082  0.4415 -0.1466  0.1606
 3254TIP3    H1 9726   0.251   4.507   1.102  0.0479 -1.7028 -2.1165
 3254TIP3    H2 9727   0.168   4.558   0.986  0.6224  4.3414 -0.1909
 3255TIP3   OH2 9728   0.463   0.831   5.227 -0.0465 -0.5586 -0.1046
 3255TIP3    H1 9729   0.476   0.918   5.189 -2.7970  0.2108  0.5089
 3255TIP3    H2 9730   0.474   0.845   5.321 -1.2280 -0.7033  0.0595
 3256TIP3   OH2 9731   5.515   0.359   3.379  0.0366  0.0665 -0.3557
 3256TIP3    H1 9732   5.460   0.302   3.326 -1.2396  1.0608 -0.1615
 3256TIP3    H2 9733   5.454   0.406   3.436  1.2207  0.2002  0.8696
 3257TIP3   OH2 9734   1.030   3.516   3.494  0.1151 -0.9507 -0.1413
 3257TIP3    H1 9735   1.090   3.490   3.564 -0.2639 -1.1395  0.1171
 3257TIP3    H2 9736   1.057   3.463   3.419 -0.6592 -2.1273  0.3828
 3258TIP3   OH2 9737   3.024   2.895   4.584 -0.4565 -0.2180  0.4032
 3258TIP3    H1 9738   2.973   2.828   4.628 -1.7862  1.2253  1.1603
 3258TIP3    H2 9739   3.060   2.852   4.507 -2.1277 -1.5163  0.3011
 3259TIP3   OH2 9740   2.536   4.017   4.172  0.5047 -0.0230  0.3811
 3259TIP3    H1 9741   2.630   4.002   4.180  0.4764 -0.9839 -0.7736
 3259TIP3    H2 9742   2.497   3.929   4.178 -0.2714  0.3144  0.3816
 3260TIP3   OH2 9743   4.060   0.461   5.274 -0.3322  0.0971 -0.0872
 3260TIP3    H1 9744   4.003   0.523   5.319 -4.0976 -2.3994 -0.9712
 3260TIP3    H2 9745   4.061   0.490   5.183  1.6009  1.2521  0.2506
 3261TIP3   OH2 9746   4.430   4.885   0.484  0.3743 -0.4191 -0.6246
 3261TIP3    H1 9747   4.472   4.802   0.460  1.2921 -0.2077  0.1580
 3261TIP3    H2 9748   4.354   4.859   0.536 -0.4550 -0.8095 -1.9949
 3262TIP3   OH2 9749   3.658   4.922   4.815  0.1986 -0.6429  0.6777
 3262TIP3    H1 9750   3.706   4.872   4.749  0.0148  0.0738 -0.0174
 3262TIP3    H2 9751   3.652   4.863   4.890 -0.7978 -2.0301 -0.4289
 3263TIP3   OH2 9752   3.076   2.496   2.276 -0.0899 -0.0002 -0.2848
 3263TIP3    H1 9753   3.035   2.444   2.344  1.3186  0.6756  1.1309
 3263TIP3    H2 9754   3.006   2.510   2.211 -1.9167  0.5866  1.6982
 3264TIP3   OH2 9755   6.981   1.944   4.726  0.1952  0.5596 -0.3272
 3264TIP3    H1 9756   6.963   2.034   4.752 -2.1715  0.5398 -1.5601
 3264TIP3    H2 9757   6.947   1.891   4.798 -0.0635  0.6287 -0.3977
 3265TIP3   OH2 9758   4.339   5.096   3.338  0.2786  0.3190 -0.3567
 3265TIP3    H1 9759   4.320   5.064   3.427 -1.2525 -2.8022 -1.6575
 3265TIP3    H2 9760   4.254   5.123   3.303  0.2467 -1.5964 -1.9101
 3266TIP3   OH2 9761   5.961   4.699   0.163 -0.0638 -0.5668 -0.0197
 3266TIP3    H1 9762   5.875   4.710   0.204  0.1383  0.1231  0.2253
 3266TIP3    H2 9763   6.024   4.716   0.233  0.2787  0.1059 -0.4772
 3267TIP3   OH2 9764   6.208   4.560   5.277  0.0595 -0.6179 -0.0399
 3267TIP3    H1 9765   6.150   4.572   5.202  1.0787 -2.6426 -1.2667
 3267TIP3    H2 9766   6.160   4.595   5.351 -1.1017  1.2427 -1.5791
 3268TIP3   OH2 9767   5.662   1.837   3.484 -0.0647  0.6146  0.5335
 3268TIP3    H1 9768   5.653   1.905   3.417  1.0799 -0.1473 -0.4398
 3268TIP3    H2 9769   5.652   1.755   3.437 -1.6141  0.0662  1.7282
 3269TIP3   OH2 9770   0.066   6.272   0.313 -0.2531 -0.0917  0.3138
 3269TIP3    H1 9771   0.140   6.213   0.328 -0.5356 -0.3869  0.5658
 3269TIP3    H2 9772   0.000   6.217   0.269  0.2305  0.5350 -1.2693
 3270TIP3   OH2 9773   4.432   1.424   3.607  0.4150  0.3056 -0.4172
 3270TIP3    H1 9774   4.517   1.397   3.641 -0.2442  1.7497  2.7660
 3270TIP3    H2 9775   4.371   1.356   3.635 -0.0734  1.2960  1.0526
 3271TIP3   OH2 9776   5.900   3.018   1.388 -0.4894 -0.2096  0.1287
 3271TIP3    H1 9777   5.819   3.068   1.387  0.0433  0.6730 -0.0762
 3271TIP3    H2 9778   5.957   3.065   1.448  0.0718 -0.4958 -0.1707
 3272TIP3   OH2 9779   4.105   1.966   1.076  0.0475 -0.0531  0.8380
 3272TIP3    H1 9780   4.182   2.021   1.062 -0.4397  0.9124  1.7981
 3272TIP3    H2 9781   4.136   1.898   1.136  0.1035  0.4650  1.4055
 3273TIP3   OH2 9782   3.713   6.540   3.845 -0.4357 -0.2050 -0.0112
 3273TIP3    H1 9783   3.689   6.545   3.752  1.7038  1.0687 -0.5758
 3273TIP3    H2 9784   3.728   6.631   3.871  1.3874 -0.6851  0.8494
 3274TIP3   OH2 9785   5.195   2.754   5.140  0.1345 -0.1078 -0.0379
 3274TIP3    H1 9786   5.181   2.843   5.108  0.0647  0.1228  0.6176
 3274TIP3    H2 9787   5.123   2.738   5.201 -0.0650 -0.7519 -0.4301
 3275TIP3   OH2 9788   5.018   4.890   4.905  0.2131 -0.2141 -0.0049
 3275TIP3    H1 9789   4.994   4.802   4.877 -0.9028  0.1736 -0.3195
 3275TIP3    H2 9790   5.090   4.916   4.848  1.0345 -1.1892  0.5685
 3276TIP3   OH2 9791   2.191   3.107   1.127  0.2234 -0.1266 -0.1498
 3276TIP3    H1 9792   2.187   3.036   1.063 -0.2271  0.1990 -0.4891
 3276TIP3    H2 9793   2.102   3.141   1.131  0.1447 -0.4295  0.9859
 3277TIP3   OH2 9794   6.357   2.726   2.383  0.4142  0.4940  0.2923
 3277TIP3    H1 9795   6.318   2.639   2.396  0.0976  0.9176  2.7476
 3277TIP3    H2 9796   6.282   2.786   2.387  0.5079  0.8857 -2.3636
 3278TIP3   OH2 9797   6.244   5.860   0.241  0.1253  0.0689  0.4968
 3278TIP3    H1 9798   6.296   5.834   0.317 -0.7471  2.3281  1.9538
 3278TIP3    H2 9799   6.155   5.833   0.262 -0.4490  2.3301  1.1816
 3279TIP3   OH2 9800   0.952   0.368   5.794  0.5749 -0.8519  0.0137
 3279TIP3    H1 9801   1.021   0.311   5.759  0.3292  0.1794 -2.3299
 3279TIP3    H2 9802   0.872   0.316   5.787  0.8390 -1.4556  1.2111
 3280TIP3   OH2 9803   5.242   6.259   2.576  0.6211 -0.2940  1.0059
 3280TIP3    H1 9804   5.279   6.346   2.558  3.0933 -1.4130  0.3056
 3280TIP3    H2 9805   5.306   6.218   2.634  0.5208 -2.3744 -0.2811
 3281TIP3   OH2 9806   1.767   4.476   2.579 -0.3686 -0.4967  0.7297
 3281TIP3    H1 9807   1.843   4.531   2.597  0.1631 -0.7526 -0.5507
 3281TIP3    H2 9808   1.729   4.514   2.500 -1.9657  0.0041  1.7082
 3282TIP3   OH2 9809   3.495   4.535   1.704 -0.0811  0.6578 -0.0361
 3282TIP3    H1 9810   3.518   4.446   1.729  0.6935  0.9619  0.3738
 3282TIP3    H2 9811   3.479   4.531   1.610 -0.4439  0.0122  0.0506
 3283TIP3   OH2 9812   5.791   0.911   2.822  0.6026  0.1393  0.1055
 3283TIP3    H1 9813   5.790   0.990   2.877 -0.1590  1.0200 -1.1300
 3283TIP3    H2 9814   5.708   0.868   2.842  0.8308 -0.1336  0.4708
 3284TIP3   OH2 9815   6.655   4.711   0.276  0.1593 -0.0997  0.3169
 3284TIP3    H1 9816   6.681   4.797   0.244  0.5162  0.5337  2.1577
 3284TIP3    H2 9817   6.706   4.649   0.223  0.1274  0.8182 -0.8271
 3285TIP3   OH2 9818   2.866   3.447   3.366 -0.2593 -0.3813  0.2465
 3285TIP3    H1 9819   2.907   3.385   3.305  2.8152 -1.0150  2.7397
 3285TIP3    H2 9820   2.873   3.532   3.321 -0.0095 -1.0964 -1.1398
 3286TIP3   OH2 9821   3.658   0.550   3.071  0.1067 -0.4969 -0.5343
 3286TIP3    H1 9822   3.733   0.495   3.093  0.4899  0.2839  0.1698
 3286TIP3    H2 9823   3.697   0.628   3.030 -0.1919  0.4727  0.9350
 3287TIP3   OH2 9824   3.263   2.774   5.623 -0.0002 -0.2961 -0.0104
 3287TIP3    H1 9825   3.311   2.764   5.541 -0.0564 -1.5740  0.0772
 3287TIP3    H2 9826   3.330   2.791   5.689  0.2644 -1.2272 -0.0237
 3288TIP3   OH2 9827   4.215   2.805   4.160 -0.8006 -0.1138 -0.1847
 3288TIP3    H1 9828   4.252   2.847   4.238  1.6610 -0.5391 -1.0254
 3288TIP3    H2 9829   4.174   2.725   4.193 -0.8363  0.2950  0.8020
 3289TIP3   OH2 9830   3.401   5.038   5.621  0.1090  0.0329  0.1207
 3289TIP3    H1 9831   3.423   5.020   5.712  1.2815 -1.1081 -0.3466
 3289TIP3    H2 9832   3.354   5.121   5.623  3.1402  1.8785  1.4079
 3290TIP3   OH2 9833   0.235   4.309   0.380  0.6439  0.2055  0.3397
 3290TIP3    H1 9834   0.186   4.385   0.351  0.6417  0.0452 -0.0882
 3290TIP3    H2 9835   0.290   4.286   0.305  0.2751 -0.5205  0.2794
 3291TIP3   OH2 9836   4.851   1.180   3.335 -0.1272 -0.1708 -0.0993
 3291TIP3    H1 9837   4.820   1.213   3.250 -1.4731 -0.0730  0.4048
 3291TIP3    H2 9838   4.871   1.088   3.319  0.9284  0.1674 -0.8311
 3292TIP3   OH2 9839   3.963   1.037   4.845  0.2005  0.1240 -0.2595
 3292TIP3    H1 9840   3.904   1.009   4.915 -0.1688 -0.5705 -0.8432
 3292TIP3    H2 9841   4.051   1.025   4.881  0.0069  0.1110  0.2131
 3293TIP3   OH2 9842   6.275   3.440   4.607  0.0283 -0.7770 -0.1562
 3293TIP3    H1 9843   6.248   3.399   4.525  0.4510  2.7410 -2.3006
 3293TIP3    H2 9844   6.369   3.419   4.614 -0.4093 -2.7079  0.5911
 3294TIP3   OH2 9845   1.336   2.710   4.101 -0.1318  0.1484  0.8316
 3294TIP3    H1 9846   1.319   2.779   4.164  0.8361  1.6897 -0.5088
 3294TIP3    H2 9847   1.337   2.629   4.153 -2.4526  0.9448  2.2694
 3295TIP3   OH2 9848   6.720   5.571   5.228  0.7045 -0.2390  0.1070
 3295TIP3    H1 9849   6.769   5.540   5.151  1.9196  2.0769 -0.1388
 3295TIP3    H2 9850   6.636   5.600   5.192  0.6546 -0.6112 -0.0857
 3296TIP3   OH2 9851   1.640   6.088   2.702 -0.2880  0.1715 -0.4522
 3296TIP3    H1 9852   1.636   6.028   2.627  1.1366 -1.4241  0.6633
 3296TIP3    H2 9853   1.733   6.088   2.726 -0.7463  0.5059  1.4170
 3297TIP3   OH2 9854   1.767   6.362   3.434  0.4038  0.0199 -0.6611
 3297TIP3    H1 9855   1.793   6.398   3.519 -0.9332 -1.7076  0.5485
 3297TIP3    H2 9856   1.746   6.270   3.452  0.3030 -0.4626 -2.9224
 3298TIP3   OH2 9857   5.554   6.532   5.826  0.3008 -0.1760 -0.0191
 3298TIP3    H1 9858   5.573   6.555   5.916 -1.1589  2.1891 -0.2490
 3298TIP3    H2 9859   5.500   6.453   5.832  0.3405 -0.1202  1.1700
 3299TIP3   OH2 9860   3.742   5.673   4.767  0.2891 -0.0114 -1.0850
 3299TIP3    H1 9861   3.827   5.643   4.737  0.9896 -1.6365  2.1344
 3299TIP3    H2 9862   3.698   5.595   4.799 -0.0492  1.4725  2.5509
 3300TIP3   OH2 9863   0.202   6.757   2.880 -0.1481 -0.2284 -0.2471
 3300TIP3    H1 9864   0.146   6.682   2.863 -0.6345 -0.0728  0.6128
 3300TIP3    H2 9865   0.267   6.725   2.942 -0.4510  0.0987  0.2426
 3301TIP3   OH2 9866   2.462   2.190   0.320  0.1741 -0.0055  0.0411
 3301TIP3    H1 9867   2.503   2.110   0.287  1.0797  0.9250 -1.1716
 3301TIP3    H2 9868   2.521   2.220   0.389  0.7735  0.5222 -0.6813
 3302TIP3   OH2 9869   0.331   1.150   5.155 -0.1931  0.2678 -0.3155
 3302TIP3    H1 9870   0.384   1.227   5.175 -0.1294 -0.0245  0.6869
 3302TIP3    H2 9871   0.394   1.083   5.127 -0.3873  1.0796 -2.9652
 3303TIP3   OH2 9872   5.292   4.887   0.442 -0.0038 -0.2914  0.6647
 3303TIP3    H1 9873   5.357   4.889   0.373  0.7049 -2.3020  1.1900
 3303TIP3    H2 9874   5.222   4.944   0.411  1.5086  1.0634 -0.4010
 3304TIP3   OH2 9875   3.928   4.514   5.304 -0.1635  0.3699 -0.2383
 3304TIP3    H1 9876   3.906   4.504   5.397  1.1458 -1.0891 -0.0503
 3304TIP3    H2 9877   3.997   4.580   5.303 -0.5695  0.8005 -0.2461
 3305TIP3   OH2 9878   4.550   6.514   0.112 -0.1351  0.1311 -0.1990
 3305TIP3    H1 9879   4.557   6.551   0.024  0.5972  1.0976  0.2403
 3305TIP3    H2 9880   4.604   6.571   0.166 -0.5817 -0.4407  0.8878
 3306TIP3   OH2 9881   1.545   3.083   5.811 -0.4645  1.2056 -0.0202
 3306TIP3    H1 9882   1.531   3.118   5.898 -1.1358  0.4397  0.1954
 3306TIP3    H2 9883   1.616   3.019   5.822  0.0528  1.7404 -0.2118
 3307TIP3   OH2 9884   0.039   6.483   0.142  0.1350  0.0096 -0.3418
 3307TIP3    H1 9885   0.109   6.429   0.180  1.1857  2.1150  0.9082
 3307TIP3    H2 9886   0.077   6.519   0.062 -0.2395 -0.3541 -0.6906
 3308TIP3   OH2 9887   0.497   0.749   3.328  0.0375 -0.4248  0.0292
 3308TIP3    H1 9888   0.550   0.825   3.303 -0.7324  0.0325 -0.2405
 3308TIP3    H2 9889   0.466   0.714   3.245 -2.3938  0.9953  0.2586
 3309TIP3   OH2 9890   0.752   0.214   5.725  0.2322  0.6781 -0.3564
 3309TIP3    H1 9891   0.709   0.137   5.689  1.7144  0.4705 -1.7854
 3309TIP3    H2 9892   0.690   0.248   5.789 -2.4376  0.8744 -2.8347
 3310TIP3   OH2 9893   1.971   6.056   2.652 -0.6246  0.1105  0.2253
 3310TIP3    H1 9894   1.990   6.045   2.559 -0.4243  1.4972  0.0736
 3310TIP3    H2 9895   1.991   5.972   2.691  2.2357  0.3492 -0.5229
 3311TIP3   OH2 9896   0.009   6.039   4.200  0.3595  0.2893 -1.1033
 3311TIP3    H1 9897  -0.032   5.957   4.227 -0.4620  0.5795 -1.4387
 3311TIP3    H2 9898   0.054   6.018   4.118  1.8917 -0.3116 -0.1588
 3312TIP3   OH2 9899   2.925   6.207   2.421  0.0893  0.0323 -0.5948
 3312TIP3    H1 9900   2.865   6.280   2.438 -0.4559 -0.3734 -0.7505
 3312TIP3    H2 9901   2.869   6.129   2.423  0.8636 -0.5254  0.8432
 3313TIP3   OH2 9902   7.173   2.349   5.670 -0.5411 -0.1170  0.8005
 3313TIP3    H1 9903   7.111   2.354   5.597  0.1209 -0.3276  0.2073
 3313TIP3    H2 9904   7.256   2.326   5.628 -0.2646 -0.7520  1.6861
 3314TIP3   OH2 9905   5.388   3.722   3.968 -0.5781 -0.2639 -0.2750
 3314TIP3    H1 9906   5.385   3.631   3.938 -1.0698 -0.8075  1.3346
 3314TIP3    H2 9907   5.410   3.716   4.061 -1.9207  1.1883  0.1790
 3315TIP3   OH2 9908   4.420   1.128   0.890  0.0178 -0.2192  0.1426
 3315TIP3    H1 9909   4.382   1.141   0.977 -0.1799 -0.7635  0.1403
 3315TIP3    H2 9910   4.438   1.217   0.858 -1.7782  0.1013 -0.0843
 3316TIP3   OH2 9911   0.390   6.574   0.700  0.1185  0.2030 -0.1340
 3316TIP3    H1 9912   0.422   6.486   0.680  1.4297  0.9039 -1.2931
 3316TIP3    H2 9913   0.360   6.569   0.791 -0.8590 -1.6964 -0.5080
 3317TIP3   OH2 9914   1.940   4.046   0.987  0.3434  0.9612  0.1660
 3317TIP3    H1 9915   1.954   4.092   0.904 -0.6791  3.4929  1.2955
 3317TIP3    H2 9916   2.023   4.001   1.003  0.4497  0.0943 -2.3606
 3318TIP3   OH2 9917   3.430   2.572   3.117 -0.6663 -0.1682 -0.7160
 3318TIP3    H1 9918   3.395   2.489   3.151 -0.7578 -0.1155 -0.6812
 3318TIP3    H2 9919   3.373   2.593   3.043  0.8031 -1.3792 -2.2875
 3319TIP3   OH2 9920   6.350   2.164   5.307 -0.0858 -0.0777  0.5869
 3319TIP3    H1 9921   6.290   2.128   5.243  0.6816 -0.8939  0.2992
 3319TIP3    H2 9922   6.360   2.256   5.283  0.1259 -0.3552 -0.4169
 3320TIP3   OH2 9923   5.571   2.174   2.225  0.2257  0.0582 -0.3319
 3320TIP3    H1 9924   5.602   2.264   2.218  1.2202 -0.2301  0.1765
 3320TIP3    H2 9925   5.567   2.142   2.135  2.7415 -0.3068 -0.3779
 3321TIP3   OH2 9926   1.462   4.078   0.602  0.4894 -0.1444 -0.5884
 3321TIP3    H1 9927   1.425   4.165   0.613  1.2509  0.0302  0.7377
 3321TIP3    H2 9928   1.520   4.066   0.677  0.2124 -1.8923 -0.5982
 3322TIP3   OH2 9929   4.292   1.476   2.177 -0.1054 -0.1336  0.4031
 3322TIP3    H1 9930   4.226   1.459   2.110 -1.1699 -0.6633  1.5386
 3322TIP3    H2 9931   4.321   1.389   2.204  1.2670  0.0988 -0.2625
 3323TIP3   OH2 9932   4.341   5.886   1.611 -0.2797 -0.6906  0.2523
 3323TIP3    H1 9933   4.404   5.867   1.681  0.6684  1.0893 -0.0733
 3323TIP3    H2 9934   4.371   5.834   1.536  0.5798 -0.1403  0.2138
 3324TIP3   OH2 9935   2.277   4.986   3.487  0.1090  0.0459  0.3551
 3324TIP3    H1 9936   2.242   4.937   3.413 -0.1110 -0.6471  0.8956
 3324TIP3    H2 9937   2.324   4.919   3.538  0.2505  0.5115  0.8382
 3325TIP3   OH2 9938   0.102   2.016   1.339 -0.4682  0.3914  0.0836
 3325TIP3    H1 9939   0.068   1.928   1.353 -1.7070  0.9774  0.9489
 3325TIP3    H2 9940   0.068   2.067   1.413 -1.6773  2.0961 -1.5382
 3326TIP3   OH2 9941   5.370   1.912   4.904  0.2935  0.8018 -0.5603
 3326TIP3    H1 9942   5.360   1.999   4.942  0.4874  1.0380 -1.0395
 3326TIP3    H2 9943   5.461   1.888   4.921  0.9553  1.7209 -2.5168
 3327TIP3   OH2 9944   0.066   5.760   3.385 -0.0492  0.3714  0.0633
 3327TIP3    H1 9945  -0.027   5.779   3.372 -0.2885 -1.6402 -1.7785
 3327TIP3    H2 9946   0.070   5.706   3.463 -0.5946 -0.4804 -0.4856
 3328TIP3   OH2 9947   3.951   5.206   0.666  0.2286  0.3289  0.0024
 3328TIP3    H1 9948   4.033   5.250   0.644 -0.7620  2.2168 -0.1439
 3328TIP3    H2 9949   3.906   5.195   0.582 -0.2443  0.5524  0.2217
 3329TIP3   OH2 9950   0.549   5.183   2.520 -0.1102 -0.0463  0.3112
 3329TIP3    H1 9951   0.515   5.199   2.432  0.4501 -0.0723  0.0851
 3329TIP3    H2 9952   0.472   5.161   2.573 -0.4885  0.2956 -0.0972
 3330TIP3   OH2 9953   3.346   4.720   1.817 -0.2882  0.6500  0.1717
 3330TIP3    H1 9954   3.405   4.652   1.785 -1.5805 -0.2285 -0.4853
 3330TIP3    H2 9955   3.350   4.788   1.750 -1.4167 -0.2640 -0.8931
 3331TIP3   OH2 9956   0.169   3.620   5.845  0.3106  0.7794  0.0160
 3331TIP3    H1 9957   0.173   3.540   5.793  1.5912  0.5321  0.4627
 3331TIP3    H2 9958   0.139   3.687   5.783  0.3027  0.1829 -0.6402
 3332TIP3   OH2 9959   4.988   3.380   1.822  0.2206 -0.3061 -0.2947
 3332TIP3    H1 9960   4.994   3.456   1.763  1.9336 -0.1337  0.0690
 3332TIP3    H2 9961   4.916   3.329   1.785 -0.0467  0.7805 -1.3864
 3333TIP3   OH2 9962   3.363   4.783   4.365 -0.6721 -0.0523 -0.3760
 3333TIP3    H1 9963   3.342   4.864   4.318 -0.6680 -0.0008 -0.2905
 3333TIP3    H2 9964   3.368   4.716   4.297 -1.8604 -0.2137 -0.3101
 3334TIP3   OH2 9965   1.244   5.437   4.478  0.5938  0.2174 -0.1557
 3334TIP3    H1 9966   1.184   5.392   4.537  0.3923 -2.2844 -2.1074
 3334TIP3    H2 9967   1.199   5.438   4.393  1.3001  2.7521 -0.6093
 3335TIP3   OH2 9968   4.917   3.611   3.689 -0.2229  0.8567 -0.6130
 3335TIP3    H1 9969   4.927   3.706   3.678  0.0736  0.7968 -0.8664
 3335TIP3    H2 9970   4.849   3.587   3.626 -1.1304  1.0733  0.2552
 3336TIP3   OH2 9971   6.175   0.092   1.233 -0.1604  0.2711  0.1540
 3336TIP3    H1 9972   6.252   0.038   1.246  0.0677 -0.0887 -2.1997
 3336TIP3    H2 9973   6.164   0.095   1.137 -2.5047  1.0707  0.3809
 3337TIP3   OH2 9974   1.645   2.132   4.236 -0.4862 -0.4807  0.2269
 3337TIP3    H1 9975   1.662   2.114   4.144 -0.3076 -2.7533  0.6552
 3337TIP3    H2 9976   1.715   2.192   4.262 -0.8838  0.6601 -1.2232
 3338TIP3   OH2 9977   4.134   3.210   1.062 -0.0530 -0.3318 -0.1348
 3338TIP3    H1 9978   4.084   3.202   1.143 -1.8809  0.2476 -1.1373
 3338TIP3    H2 9979   4.142   3.120   1.030  1.3514 -0.6555  1.0225
 3339TIP3   OH2 9980   6.761   4.831   5.874  0.2300 -0.1163  0.9279
 3339TIP3    H1 9981   6.717   4.765   5.822 -0.4595  0.5614  0.6244
 3339TIP3    H2 9982   6.782   4.901   5.812 -1.3467  1.0762  1.6567
 3340TIP3   OH2 9983   0.722   6.474   2.181 -0.0718 -0.2185  0.1576
 3340TIP3    H1 9984   0.687   6.446   2.097  0.1873  1.8958 -0.6914
 3340TIP3    H2 9985   0.785   6.542   2.160  1.2270 -0.7849  1.9719
 3341TIP3   OH2 9986   4.184   3.113   4.598  0.1925 -0.2661  0.4841
 3341TIP3    H1 9987   4.134   3.060   4.536 -0.9696  1.6220 -0.2769
 3341TIP3    H2 9988   4.152   3.088   4.684  1.5518 -2.6487  0.3766
 3342TIP3   OH2 9989   4.363   3.181   2.714  0.0124  0.1518  0.2881
 3342TIP3    H1 9990   4.349   3.087   2.699 -0.9342  0.3427 -0.1012
 3342TIP3    H2 9991   4.416   3.184   2.793 -1.8100 -0.6834  1.6302
 3343TIP3   OH2 9992   4.170   2.492   1.553  0.0308  0.2411 -0.1350
 3343TIP3    H1 9993   4.196   2.446   1.633 -3.1654 -0.4194  0.6866
 3343TIP3    H2 9994   4.105   2.556   1.584  0.3785  1.5484 -1.9692
 3344TIP3   OH2 9995   3.948   5.443   4.230 -0.2010  0.4356  0.5152
 3344TIP3    H1 9996   3.979   5.485   4.310 -2.7753  0.8465  1.3721
 3344TIP3    H2 9997   3.921   5.355   4.257  0.9137 -0.2199 -0.3780
 3345TIP3   OH2 9998   4.916   5.920   3.953 -0.4743 -0.2300  0.1783
 3345TIP3    H1 9999   4.975   5.913   3.878 -0.4848 -0.2192  0.1691
 3345TIP3    H210000   4.905   6.014   3.967 -1.0717 -0.2311 -0.2742
 3346TIP3   OH210001   4.876   2.338   4.624  0.0425 -0.3186  0.3320
 3346TIP3    H110002   4.810   2.322   4.557 -1.6441 -0.8414  2.0340
 3346TIP3    H210003   4.833   2.394   4.687  1.5288  0.0128  1.0933
 3347TIP3   OH210004   3.099   3.004   5.304  0.7772 -0.2988  0.3634
 3347TIP3    H110005   3.189   3.009   5.335  0.2858 -0.2366  1.8651
 3347TIP3    H210006   3.061   2.930   5.352  0.2654 -0.9187 -0.9318
 3348TIP3   OH210007   5.027   0.187   2.719  0.8281  0.7002  0.6413
 3348TIP3    H110008   5.093   0.235   2.669 -1.4632  0.2064 -3.1827
 3348TIP3    H210009   5.030   0.098   2.685 -2.3981  0.8830 -0.4782
 3349TIP3   OH210010   5.431   4.928   5.394  0.0683  0.0272 -0.3094
 3349TIP3    H110011   5.410   4.835   5.399  1.4844 -0.2745  0.8885
 3349TIP3    H210012   5.362   4.971   5.443 -0.2626 -0.4566 -0.3446
 3350TIP3   OH210013   1.352   3.955   3.414 -0.1028  0.1332  0.0535
 3350TIP3    H110014   1.270   4.003   3.400  0.7801  2.0085  0.8680
 3350TIP3    H210015   1.326   3.876   3.461 -1.7828 -0.9323 -2.4756
 3351TIP3   OH210016   5.332   4.552   1.191  0.2702 -0.5459 -0.3099
 3351TIP3    H110017   5.364   4.475   1.237 -1.4064 -0.6451  0.7667
 3351TIP3    H210018   5.261   4.520   1.137 -0.1826  0.1725 -0.1587
 3352TIP3   OH210019   0.719   1.504   5.283  0.1766 -0.5974  0.1386
 3352TIP3    H110020   0.743   1.417   5.252  0.5556 -0.4811  0.1032
 3352TIP3    H210021   0.713   1.495   5.378 -0.1478 -0.7472  0.1077
 3353TIP3   OH210022   3.517   0.840   4.681  0.8233  0.0456  0.2340
 3353TIP3    H110023   3.468   0.758   4.681 -0.4903  0.7930 -1.0220
 3353TIP3    H210024   3.609   0.812   4.676  0.6823 -1.3831  3.3820
 3354TIP3   OH210025   3.780   0.971   0.653  0.0776 -0.1138 -0.3979
 3354TIP3    H110026   3.829   0.979   0.735 -1.2710  2.7839  0.2370
 3354TIP3    H210027   3.726   0.894   0.665  0.8909 -0.5189  0.8694
 3355TIP3   OH210028   5.414   4.954   0.188  0.2756 -0.8404 -0.4029
 3355TIP3    H110029   5.337   4.988   0.145  0.1113 -0.1244  0.4315
 3355TIP3    H210030   5.412   4.860   0.171 -1.5735 -1.0652  0.7907
 3356TIP3   OH210031   6.968   6.725   0.244 -0.6085 -0.2435  0.2555
 3356TIP3    H110032   6.972   6.629   0.243 -2.7049 -0.3884 -0.9126
 3356TIP3    H210033   7.028   6.751   0.314 -1.4561 -2.5028  1.9504
 3357TIP3   OH210034   3.389   1.813   3.435  0.2334 -0.2545 -0.1978
 3357TIP3    H110035   3.360   1.863   3.511  0.8367  0.7605 -0.6144
 3357TIP3    H210036   3.336   1.846   3.363 -0.3260 -1.2054 -0.2399
 3358TIP3   OH210037   0.990   2.589   4.344 -0.5181 -0.5219 -0.3141
 3358TIP3    H110038   0.996   2.661   4.406 -1.5369  0.2979 -1.1301
 3358TIP3    H210039   0.897   2.586   4.321 -0.0252 -0.1656 -2.5355
 3359TIP3   OH210040   0.785   4.794   4.390 -0.7085  0.5407 -0.0856
 3359TIP3    H110041   0.700   4.806   4.346 -0.3742  0.9960 -0.6220
 3359TIP3    H210042   0.827   4.879   4.383  1.0476 -0.4268 -2.4966
 3360TIP3   OH210043   1.083   3.630   5.000 -0.6911 -0.2714 -0.3338
 3360TIP3    H110044   1.156   3.687   4.975 -0.0229 -0.4147  1.1561
 3360TIP3    H210045   1.046   3.601   4.917  1.2184 -0.5098 -1.1663
 3361TIP3   OH210046   6.184   0.211   4.294  0.4171  0.1099  0.0210
 3361TIP3    H110047   6.184   0.217   4.390 -1.3829 -0.5812  0.1106
 3361TIP3    H210048   6.168   0.118   4.276 -0.1064  0.3758 -0.9417
 3362TIP3   OH210049   5.918   4.375   2.320  0.7703 -0.1751 -0.8354
 3362TIP3    H110050   5.878   4.454   2.285 -0.4945 -0.0136  0.8633
 3362TIP3    H210051   5.908   4.310   2.250 -1.6002  0.1511 -0.8749
 3363TIP3   OH210052   6.104   1.873   2.713  0.2942 -0.4586 -0.0055
 3363TIP3    H110053   6.090   1.816   2.788  1.1996 -0.5225  0.1210
 3363TIP3    H210054   6.020   1.917   2.700 -0.4085 -1.7848 -0.0931
 3364TIP3   OH210055   1.678   4.022   0.114 -0.0967 -0.1305 -0.2715
 3364TIP3    H110056   1.631   3.945   0.081 -0.9254  0.1079  0.3055
 3364TIP3    H210057   1.765   3.990   0.137 -0.8473 -1.2094  1.2280
 3365TIP3   OH210058   4.053   0.963   5.449  0.2226  0.3000  0.7113
 3365TIP3    H110059   4.108   1.020   5.503 -0.1941  1.3948  0.0157
 3365TIP3    H210060   3.964   0.991   5.467 -0.0879 -0.9657  1.2600
 3366TIP3   OH210061   4.260   3.190   0.469 -0.4447  0.4389 -0.0230
 3366TIP3    H110062   4.251   3.277   0.431 -3.0444  0.1411 -0.3183
 3366TIP3    H210063   4.189   3.139   0.428 -0.8094 -1.0140  2.2394
 3367TIP3   OH210064   7.037   6.759  -0.024  0.8628  0.1599 -0.1769
 3367TIP3    H110065   7.112   6.818  -0.032 -0.1725  2.0020  2.3767
 3367TIP3    H210066   7.030   6.741   0.070 -1.0989 -1.0673 -0.4913
 3368TIP3   OH210067   2.577   3.514   5.515 -0.0229 -0.4589 -0.4418
 3368TIP3    H110068   2.485   3.498   5.534  0.3308 -0.9814  0.9554
 3368TIP3    H210069   2.577   3.556   5.429 -1.9650  4.0941  1.4509
 3369TIP3   OH210070   5.552   6.235   2.341  0.1688 -0.2787  0.2502
 3369TIP3    H110071   5.468   6.257   2.302 -0.6015  0.2193  2.0737
 3369TIP3    H210072   5.539   6.248   2.435  2.3940  0.1718  0.5599
 3370TIP3   OH210073   2.576   0.495   1.663 -0.4152 -0.5798  0.0977
 3370TIP3    H110074   2.586   0.519   1.755 -2.3132  0.5526  0.0526
 3370TIP3    H210075   2.487   0.461   1.656  0.7181 -3.7597 -0.7249
 3371TIP3   OH210076   0.641   0.643   0.169  0.2717 -0.1637  0.0050
 3371TIP3    H110077   0.578   0.707   0.203  0.9325  0.6251 -0.2232
 3371TIP3    H210078   0.684   0.608   0.247  1.4080  1.2513  0.0539
 3372TIP3   OH210079   6.315   2.840   0.753 -0.3118  0.2815  0.2333
 3372TIP3    H110080   6.314   2.935   0.740  0.7800  0.5330  1.6533
 3372TIP3    H210081   6.402   2.813   0.725 -0.2900 -0.1451  0.6938
 3373TIP3   OH210082   0.276   6.551   3.331  0.1904 -0.7572  0.0607
 3373TIP3    H110083   0.186   6.543   3.363  0.3757 -0.5133  0.6518
 3373TIP3    H210084   0.273   6.515   3.242 -0.0828 -2.6459  0.7840
 3374TIP3   OH210085   0.452   0.803   0.302  0.7042 -0.9676 -0.5170
 3374TIP3    H110086   0.470   0.877   0.245 -2.2098 -1.2826 -2.0799
 3374TIP3    H210087   0.399   0.839   0.373  0.0220 -1.3529 -0.8122
 3375TIP3   OH210088   7.039   5.213   1.504  0.1915  0.2055  0.1780
 3375TIP3    H110089   6.993   5.136   1.470 -1.1785  0.0248  2.2241
 3375TIP3    H210090   7.111   5.227   1.443 -1.4934 -0.6380 -2.1410
 3376TIP3   OH210091   5.977   6.038   1.910  0.2111 -0.2020 -0.4315
 3376TIP3    H110092   5.963   6.098   1.983 -0.5528 -2.7432  1.6741
 3376TIP3    H210093   5.890   6.009   1.884  0.5567 -3.4962  1.5096
 3377TIP3   OH210094   3.806   0.110   4.529  0.2517  0.5925  0.0113
 3377TIP3    H110095   3.775   0.182   4.583  1.7035  0.6087  0.8978
 3377TIP3    H210096   3.786   0.136   4.439  0.5804  2.0326  0.3310
 3378TIP3   OH210097   4.576   5.181   5.051  0.2834  0.2397 -0.4814
 3378TIP3    H110098   4.593   5.137   4.967  0.4917 -1.4054  0.3916
 3378TIP3    H210099   4.502   5.134   5.088 -0.1209  1.2754  0.0659
 3379TIP3   OH210100   2.913   1.792   2.269 -0.7884 -0.0074  0.7557
 3379TIP3    H110101   2.943   1.729   2.203 -1.1948 -0.8744  1.3803
 3379TIP3    H210102   2.887   1.869   2.219 -2.0418 -1.0100 -0.2088
 3380TIP3   OH210103   3.925   4.283   0.427 -0.8494 -0.2434 -0.1132
 3380TIP3    H110104   3.838   4.318   0.407 -0.8441  1.0306  1.8369
 3380TIP3    H210105   3.908   4.200   0.471 -1.0552 -0.3373 -0.3696
 3381TIP3   OH210106   6.477   1.558   4.309  0.0466  0.3396 -0.4071
 3381TIP3    H110107   6.550   1.497   4.322  0.4248  0.5736 -1.3329
 3381TIP3    H210108   6.453   1.585   4.397  0.3863 -0.5528 -0.0273
 3382TIP3   OH210109   4.713   5.138   5.749 -0.2613  0.8964 -0.0986
 3382TIP3    H110110   4.634   5.108   5.703  0.8177 -0.3050 -1.2496
 3382TIP3    H210111   4.780   5.142   5.680  0.7240  1.7861  0.8798
 3383TIP3   OH210112   2.570   3.712   0.548  0.2153  0.3364 -0.5859
 3383TIP3    H110113   2.497   3.659   0.579  0.1582 -0.1842 -1.5616
 3383TIP3    H210114   2.645   3.682   0.598 -0.4078  1.6313  1.2212
 3384TIP3   OH210115   5.699   0.436   4.424  0.0478  0.1369 -0.0559
 3384TIP3    H110116   5.788   0.466   4.404  0.7669 -1.2623  0.8960
 3384TIP3    H210117   5.702   0.341   4.411 -1.4921  0.1447 -0.6308
 3385TIP3   OH210118   3.418   6.273   1.467  0.2475  0.6367  0.7631
 3385TIP3    H110119   3.415   6.347   1.528 -1.6820  1.1980  0.0805
 3385TIP3    H210120   3.493   6.221   1.495  1.2462  2.4932  1.6779
 3386TIP3   OH210121   6.870   6.301   4.805 -0.0322  0.2713 -0.4940
 3386TIP3    H110122   6.948   6.328   4.855  0.8638  0.1318 -1.7742
 3386TIP3    H210123   6.797   6.340   4.853  0.9560  1.9507 -0.2493
 3387TIP3   OH210124   1.746   5.694   2.133 -0.0572 -0.0457  0.1357
 3387TIP3    H110125   1.807   5.729   2.197  1.5461 -0.7128 -0.9395
 3387TIP3    H210126   1.769   5.738   2.051 -1.4279  0.1175 -0.1831
 3388TIP3   OH210127   4.516   4.933   3.755  0.5439  0.4491  0.1404
 3388TIP3    H110128   4.514   5.016   3.802 -2.7987  0.3993  0.3572
 3388TIP3    H210129   4.548   4.954   3.668  1.4347  1.5898  0.7154
 3389TIP3   OH210130   3.644   2.067   0.100  0.1030 -0.4718  0.2499
 3389TIP3    H110131   3.610   2.155   0.080 -1.7292 -0.8150  1.6028
 3389TIP3    H210132   3.668   2.072   0.192  1.8021 -0.8840 -0.1396
 3390TIP3   OH210133   7.027   3.295   0.373 -0.4793 -0.4466  0.0470
 3390TIP3    H110134   7.014   3.206   0.339 -0.1723 -0.9775  1.2679
 3390TIP3    H210135   6.972   3.299   0.451  1.3690 -0.4304  1.4183
 3391TIP3   OH210136   3.669   2.307   4.253 -0.2136  0.3979  0.2528
 3391TIP3    H110137   3.736   2.298   4.320  0.8778 -0.1113 -0.8505
 3391TIP3    H210138   3.708   2.366   4.188 -0.0887 -1.2192 -1.2326
 3392TIP3   OH210139   1.094   4.037   4.513  0.0457 -0.2312  0.3871
 3392TIP3    H110140   1.162   4.104   4.517 -0.2633  0.2391 -1.4212
 3392TIP3    H210141   1.124   3.968   4.572  1.2972  0.6767  0.8343
 3393TIP3   OH210142   4.222   5.977   5.735  0.0162 -0.3770  0.0155
 3393TIP3    H110143   4.178   5.981   5.820  0.0352 -0.7576  0.0478
 3393TIP3    H210144   4.224   6.067   5.705  2.8492  0.2807  1.8373
 3394TIP3   OH210145   3.910   4.238   3.248  0.8774  0.4033 -0.1594
 3394TIP3    H110146   3.944   4.149   3.238  0.4119 -0.0099  1.5532
 3394TIP3    H210147   3.949   4.287   3.176  1.1950 -1.1686 -1.1015
 3395TIP3   OH210148   2.748   1.166   3.229 -0.5640  0.3033 -0.2210
 3395TIP3    H110149   2.805   1.141   3.157  1.6207  0.7479  1.2358
 3395TIP3    H210150   2.742   1.262   3.223  0.1465  0.4050  0.5120
 3396TIP3   OH210151   0.800   1.884   1.481 -0.0142  0.5394 -0.2696
 3396TIP3    H110152   0.889   1.879   1.447 -0.1394 -1.4772 -0.4488
 3396TIP3    H210153   0.754   1.941   1.420  1.3092  2.2633  0.2734
 3397TIP3   OH210154   6.282   3.258   2.563  0.0079  0.3896 -0.2222
 3397TIP3    H110155   6.220   3.328   2.583  2.7903  2.5281  1.7243
 3397TIP3    H210156   6.333   3.290   2.489  0.9210  0.1726  0.2985
 3398TIP3   OH210157   1.062   3.756   0.603  0.0157 -0.1852 -0.0404
 3398TIP3    H110158   1.015   3.690   0.552  0.2027 -2.3442  2.3628
 3398TIP3    H210159   0.994   3.810   0.642 -0.6134 -2.4157  2.2720
 3399TIP3   OH210160   5.527   2.467   3.684 -0.7385 -0.1961 -0.4907
 3399TIP3    H110161   5.580   2.449   3.606  1.5542 -1.1427  1.1661
 3399TIP3    H210162   5.446   2.505   3.650 -0.1693 -1.2908 -3.3683
 3400TIP3   OH210163   1.116   5.000   2.598 -0.3518 -0.5414  0.4064
 3400TIP3    H110164   1.052   5.016   2.528  0.9332  1.9754 -0.3068
 3400TIP3    H210165   1.180   4.941   2.559  0.5665  1.1524 -0.7633
 3401TIP3   OH210166   2.033   5.564   5.533 -0.0877 -0.4856  0.1082
 3401TIP3    H110167   2.109   5.507   5.529 -0.3097 -0.7327 -1.2912
 3401TIP3    H210168   2.013   5.572   5.626  0.0106 -2.6052  0.3525
 3402TIP3   OH210169   4.514   3.573   5.263  0.4698 -0.3809  0.3179
 3402TIP3    H110170   4.478   3.551   5.349 -0.9064  1.1453  0.1890
 3402TIP3    H210171   4.446   3.626   5.222  1.8469  0.4205 -1.0178
 3403TIP3   OH210172   5.498   0.865   3.544 -0.3826  0.2191 -0.1266
 3403TIP3    H110173   5.594   0.862   3.537 -0.0140 -0.6524  3.4390
 3403TIP3    H210174   5.475   0.786   3.592 -2.5451  1.7887  1.6150
 3404TIP3   OH210175   0.124   0.960   1.419 -0.0049 -0.5728 -0.0237
 3404TIP3    H110176   0.197   0.932   1.363 -0.4050 -1.5165 -0.0982
 3404TIP3    H210177   0.051   0.904   1.392 -0.9909  0.8951 -0.4974
 3405TIP3   OH210178   2.040   4.246   3.722 -0.1268  1.0560  0.0086
 3405TIP3    H110179   1.995   4.236   3.806  1.2543 -0.9053  0.5776
 3405TIP3    H210180   2.132   4.231   3.742  0.3043  1.1006 -1.7850
 3406TIP3   OH210181   5.211   6.611   3.914 -0.2832  0.4952  0.0972
 3406TIP3    H110182   5.182   6.698   3.942  0.7357  1.0692 -0.5559
 3406TIP3    H210183   5.260   6.627   3.833 -1.4117 -0.8748 -0.8964
 3407TIP3   OH210184   6.658   5.386   1.346 -0.3753 -0.1243  0.0237
 3407TIP3    H110185   6.584   5.439   1.319 -1.3251 -1.2365  0.3480
 3407TIP3    H210186   6.704   5.439   1.411  0.0492  1.2183 -1.3210
 3408TIP3   OH210187   1.373   3.271   1.520 -0.1762 -0.1537 -0.2508
 3408TIP3    H110188   1.306   3.247   1.583  0.1456 -1.0122 -0.2297
 3408TIP3    H210189   1.325   3.283   1.437 -0.4737  0.1317 -0.0397
 3409TIP3   OH210190  -0.009   4.886   2.700 -0.5142 -0.0218 -0.0939
 3409TIP3    H110191   0.041   4.926   2.629  2.5506 -2.0059  0.7520
 3409TIP3    H210192   0.023   4.929   2.779 -1.2666 -0.3450  0.4011
 3410TIP3   OH210193   3.553   4.495   0.620  0.4333  0.0190 -0.1371
 3410TIP3    H110194   3.563   4.402   0.643  0.8983  0.3492  1.0458
 3410TIP3    H210195   3.639   4.533   0.636  0.2300  0.6745 -0.5668
 3411TIP3   OH210196   4.772   1.342   5.285  0.7620 -0.1854 -0.2369
 3411TIP3    H110197   4.791   1.291   5.364  2.4503 -0.2441 -0.6314
 3411TIP3    H210198   4.819   1.297   5.216  1.6642  1.4408 -0.7473
 3412TIP3   OH210199   4.038   2.965   4.009  0.5029  0.5084 -0.3230
 3412TIP3    H110200   4.082   2.923   3.935  1.7137  1.9072 -0.4516
 3412TIP3    H210201   4.082   2.929   4.087  0.0152 -0.0964 -0.3167
 3413TIP3   OH210202   1.291   5.748   3.253  0.3303 -0.5992 -0.1015
 3413TIP3    H110203   1.350   5.689   3.299 -0.7773 -0.5171  1.5092
 3413TIP3    H210204   1.306   5.730   3.160  0.8656 -2.5775  0.3207
 3414TIP3   OH210205   6.790   4.052   3.614  0.4759 -0.5302 -0.2324
 3414TIP3    H110206   6.795   4.144   3.641  1.3990 -0.5384 -0.3579
 3414TIP3    H210207   6.717   4.016   3.665 -0.0499  0.3209 -0.3488
 3415TIP3   OH210208   0.636   3.314   4.370 -0.2422  0.1881 -0.2467
 3415TIP3    H110209   0.704   3.299   4.436 -0.1688  1.9420  0.1017
 3415TIP3    H210210   0.562   3.261   4.400 -0.3613  1.2708  1.5139
 3416TIP3   OH210211   0.706   3.011   4.372  0.3252  0.7323 -0.6633
 3416TIP3    H110212   0.662   2.993   4.289 -1.1030  1.3171 -0.0540
 3416TIP3    H210213   0.799   3.011   4.349  0.0369 -0.4190 -2.0014
 3417TIP3   OH210214   5.494   3.722   0.638  0.0984  0.0748  0.4742
 3417TIP3    H110215   5.504   3.630   0.615  0.3115  0.1545  0.2397
 3417TIP3    H210216   5.406   3.729   0.675  0.0160 -0.1869  0.3262
 3418TIP3   OH210217   7.243   1.745   2.519  0.2046  0.1071  0.2400
 3418TIP3    H110218   7.171   1.764   2.459  0.9126 -0.6495 -0.8963
 3418TIP3    H210219   7.219   1.661   2.560  0.4773 -0.1975 -0.2165
 3419TIP3   OH210220   0.271   3.428   0.333 -0.1410 -0.1082 -0.5551
 3419TIP3    H110221   0.237   3.444   0.244  2.3829  2.6719 -1.1810
 3419TIP3    H210222   0.344   3.367   0.320 -0.6010 -0.7434 -0.1834
 3420TIP3   OH210223   1.264   2.206   1.106  0.0849  0.1209  0.2846
 3420TIP3    H110224   1.295   2.141   1.169 -0.3913 -0.0887  0.3115
 3420TIP3    H210225   1.341   2.258   1.084  0.7437 -1.1540 -0.5893
 3421TIP3   OH210226   4.717   4.786   4.229 -0.1857 -0.3879  0.6875
 3421TIP3    H110227   4.727   4.880   4.247  0.1963 -0.3282  0.1668
 3421TIP3    H210228   4.774   4.744   4.294  1.6197 -0.1482 -0.6393
 3422TIP3   OH210229   5.794   2.819   4.999  0.5584 -0.2575  0.4300
 3422TIP3    H110230   5.867   2.831   4.938  0.5013  0.4507  0.4957
 3422TIP3    H210231   5.778   2.906   5.035 -0.5721 -0.3237  0.1267
 3423TIP3   OH210232   6.394   1.459   4.985 -0.0131  0.0666 -0.0933
 3423TIP3    H110233   6.349   1.476   5.068  1.1321  0.9416  0.3772
 3423TIP3    H210234   6.347   1.385   4.947 -1.6948  0.7840  0.4778
 3424TIP3   OH210235   6.512   5.664   2.712  0.2808  0.2404  0.0228
 3424TIP3    H110236   6.480   5.609   2.640 -0.9702 -0.2854  0.9434
 3424TIP3    H210237   6.434   5.683   2.764  1.2335  0.1798  1.5170
 3425TIP3   OH210238   3.483   2.081   2.172  0.3021  0.6159 -1.3290
 3425TIP3    H110239   3.565   2.118   2.140  0.0747  1.1076 -1.3541
 3425TIP3    H210240   3.509   2.019   2.240  0.7056  0.5945 -1.5023
 3426TIP3   OH210241   1.640   1.827   3.897  0.1032 -0.3423  0.2619
 3426TIP3    H110242   1.598   1.807   3.813 -0.5894  0.2716  0.4431
 3426TIP3    H210243   1.699   1.754   3.913  0.7646 -0.1474 -1.0907
 3427TIP3   OH210244   6.602   0.831   3.181  0.1478 -0.1132 -0.0233
 3427TIP3    H110245   6.556   0.751   3.155 -1.4092  0.5230  0.6127
 3427TIP3    H210246   6.543   0.902   3.156  1.1913  0.8113  0.0385
 3428TIP3   OH210247   1.217   0.242   0.253  0.3324  0.1866 -0.2166
 3428TIP3    H110248   1.255   0.328   0.235 -2.9314  1.6435 -0.9667
 3428TIP3    H210249   1.243   0.188   0.179  0.8154  1.1363 -0.7614
 3429TIP3   OH210250   7.046   0.303   4.089 -0.0095 -0.0404 -0.1515
 3429TIP3    H110251   7.132   0.260   4.086 -0.1947 -0.5570  1.3679
 3429TIP3    H210252   7.059   0.378   4.147 -0.6933 -0.3535  0.4027
 3430TIP3   OH210253   2.231   6.367   3.777  0.5847  0.5898 -0.1100
 3430TIP3    H110254   2.273   6.296   3.730  2.0869 -0.0264  2.0121
 3430TIP3    H210255   2.300   6.404   3.832 -0.9710  1.4671  1.3612
 3431TIP3   OH210256   6.502   5.607   3.378  0.7430 -0.0316  0.2455
 3431TIP3    H110257   6.482   5.679   3.437 -1.1932  0.6421 -1.1454
 3431TIP3    H210258   6.468   5.529   3.421 -0.6720  0.4563  0.0678
 3432TIP3   OH210259   6.068   4.752   2.248 -0.3270  0.5314 -0.3568
 3432TIP3    H110260   6.116   4.799   2.316 -1.4225  1.4285 -0.1864
 3432TIP3    H210261   5.990   4.804   2.233 -1.0086 -0.6345 -1.0010
 3433TIP3   OH210262   3.048   4.045   5.558  0.2091  0.1571  0.3211
 3433TIP3    H110263   2.965   4.065   5.514 -0.4038 -2.9257 -0.0889
 3433TIP3    H210264   3.056   3.950   5.554  3.9175  0.3292  0.1517
 3434TIP3   OH210265   5.588   2.327   3.902  0.0363  0.2106 -0.0175
 3434TIP3    H110266   5.532   2.358   3.974  1.3174  0.8647  0.7311
 3434TIP3    H210267   5.559   2.376   3.825 -0.7605  0.1604  0.2440
 3435TIP3   OH210268   0.317   3.569   0.559  0.3769  0.6803  0.1223
 3435TIP3    H110269   0.234   3.593   0.599 -0.2003 -0.7144 -0.1946
 3435TIP3    H210270   0.293   3.518   0.482  1.5282 -0.7344  0.6546
 3436TIP3   OH210271   5.235   6.187   1.536  0.2434 -0.2730 -0.1296
 3436TIP3    H110272   5.322   6.197   1.498 -0.0269  1.1105 -0.4510
 3436TIP3    H210273   5.223   6.092   1.545  0.7149 -0.6233 -2.5667
 3437TIP3   OH210274   6.131   3.477   2.559 -0.8746 -0.6417  0.0657
 3437TIP3    H110275   6.187   3.550   2.587  0.2883 -1.3952 -0.2267
 3437TIP3    H210276   6.049   3.492   2.605  0.2106 -0.5743  2.1181
 3438TIP3   OH210277   3.948   6.119   0.752 -0.0300 -0.1892  0.1668
 3438TIP3    H110278   4.024   6.061   0.752  0.5525  0.5691  0.2230
 3438TIP3    H210279   3.896   6.090   0.676 -0.4834 -1.7130  1.0014
 3439TIP3   OH210280   4.913   3.860   2.305  0.3799 -0.0936  0.0526
 3439TIP3    H110281   4.870   3.799   2.245 -0.7178  0.1354  0.5784
 3439TIP3    H210282   4.987   3.895   2.255 -0.6358  0.2668 -1.2615
 3440TIP3   OH210283   0.206   0.444   1.854  0.6039  0.4641 -0.1542
 3440TIP3    H110284   0.208   0.532   1.890 -0.4437  0.8951 -1.0864
 3440TIP3    H210285   0.270   0.445   1.783 -1.4270  1.4060 -2.0889
 3441TIP3   OH210286   3.204   3.282   1.825  0.0212 -0.1718 -0.3346
 3441TIP3    H110287   3.282   3.315   1.870  0.7764 -0.9351 -1.0489
 3441TIP3    H210288   3.232   3.272   1.734 -0.9178 -0.4572 -0.6000
 3442TIP3   OH210289   4.064   2.892   3.534 -0.6406  0.2253 -0.1354
 3442TIP3    H110290   4.140   2.902   3.477  0.4584  1.7801  1.4964
 3442TIP3    H210291   4.020   2.813   3.502  2.8897 -2.0899  0.2056
 3443TIP3   OH210292   3.401   5.409   4.137 -0.0761  0.2292 -0.2758
 3443TIP3    H110293   3.438   5.464   4.068  1.0478 -0.5991 -0.3649
 3443TIP3    H210294   3.410   5.462   4.217  0.4409  0.4157 -0.4508
 3444TIP3   OH210295   1.808   3.626   1.031  0.0110  0.2872 -0.3193
 3444TIP3    H110296   1.771   3.677   0.958  0.0487  0.0298 -0.5215
 3444TIP3    H210297   1.763   3.541   1.025  2.4071 -0.9726 -2.1495
 3445TIP3   OH210298   4.852   6.365   0.900  0.1858 -0.2897  0.3419
 3445TIP3    H110299   4.943   6.344   0.881  0.0283 -0.2702 -0.4548
 3445TIP3    H210300   4.829   6.309   0.974  1.2053  0.5713  1.3445
 3446TIP3   OH210301   0.032   4.543   5.708 -0.3084 -0.3918 -0.1062
 3446TIP3    H110302   0.096   4.611   5.727 -0.7245 -0.2340  0.7499
 3446TIP3    H210303  -0.050   4.590   5.691 -0.1846 -0.5828 -1.3758
 3447TIP3   OH210304   3.149   3.441   3.029  0.4959  0.4953  0.0709
 3447TIP3    H110305   3.216   3.373   3.036 -2.0377 -2.2890 -0.6733
 3447TIP3    H210306   3.141   3.458   2.935 -0.7531 -0.3140 -0.0052
 3448TIP3   OH210307   2.035   3.281   2.867 -0.6809  0.3043  0.5414
 3448TIP3    H110308   2.093   3.322   2.803 -0.3412  0.3682  0.8884
 3448TIP3    H210309   1.968   3.238   2.814 -2.5790  3.4199  0.1633
 3449TIP3   OH210310   6.927   6.335   0.937  0.4516  0.0220 -0.2623
 3449TIP3    H110311   6.897   6.388   0.864 -1.9196  0.3720  0.8672
 3449TIP3    H210312   6.904   6.245   0.912  0.1574  0.0768 -0.1912
 3450TIP3   OH210313   0.678   1.998   4.162  0.2703  0.3661  0.2433
 3450TIP3    H110314   0.764   1.998   4.120 -0.1534 -0.2568 -0.6558
 3450TIP3    H210315   0.694   1.963   4.249  0.9276  0.2656  0.0873
 3451TIP3   OH210316   0.410   2.407   2.060 -0.4535 -0.6515 -0.1832
 3451TIP3    H110317   0.339   2.465   2.032  1.4357  1.7034 -0.4299
 3451TIP3    H210318   0.397   2.396   2.154 -0.8890  0.1115 -0.1492
 3452TIP3   OH210319   6.973   3.008   2.523 -0.4440  0.1148 -0.1528
 3452TIP3    H110320   6.945   3.093   2.556  0.4890  0.0937  0.7695
 3452TIP3    H210321   7.064   3.000   2.554 -1.4362 -2.5342  2.5422
 3453TIP3   OH210322   0.334   4.114   3.687 -0.0626 -0.4350  0.3516
 3453TIP3    H110323   0.278   4.172   3.635 -0.2074 -1.9582 -1.2687
 3453TIP3    H210324   0.414   4.105   3.636  0.6472 -0.3008  1.4221
 3454TIP3   OH210325   5.695   4.083   1.876  0.0382  0.1498  0.2439
 3454TIP3    H110326   5.749   4.142   1.824 -0.9349  0.0709 -0.9093
 3454TIP3    H210327   5.651   4.028   1.811  0.0026 -1.0284  1.2429
 3455TIP3   OH210328   4.352   3.877   5.611  0.0440  0.2210  0.2124
 3455TIP3    H110329   4.290   3.804   5.607  0.8801 -0.4963 -0.2037
 3455TIP3    H210330   4.298   3.955   5.597 -0.6030 -0.4789 -1.5574
 3456TIP3   OH210331   0.463   0.240   2.637 -0.5802 -0.1475 -0.4868
 3456TIP3    H110332   0.535   0.229   2.574  0.6272  1.2327  0.5919
 3456TIP3    H210333   0.476   0.328   2.673 -3.2017  0.3796 -0.6954
 3457TIP3   OH210334   5.539   6.265   3.373 -0.4142  0.2336 -0.0086
 3457TIP3    H110335   5.509   6.272   3.282 -0.8721  0.3542  0.1503
 3457TIP3    H210336   5.625   6.307   3.372 -0.6355  0.6949 -0.2822
 3458TIP3   OH210337   0.938   3.268   5.225 -0.2368  0.3148 -0.3561
 3458TIP3    H110338   0.936   3.319   5.306  0.5299  1.0228 -0.7654
 3458TIP3    H210339   0.847   3.262   5.197 -0.6231 -0.7109  1.0224
 3459TIP3   OH210340   2.286   2.089   1.327 -0.7917 -0.0276 -0.0769
 3459TIP3    H110341   2.193   2.098   1.302 -1.2968 -2.0051  0.8935
 3459TIP3    H210342   2.314   2.007   1.285  0.7706  0.9264 -0.9888
 3460TIP3   OH210343   5.357   1.968   2.170 -0.5593  0.2495  0.0825
 3460TIP3    H110344   5.367   2.063   2.162  0.7061  0.1159 -0.2163
 3460TIP3    H210345   5.275   1.948   2.125 -0.6408  1.1536 -0.1892
 3461TIP3   OH210346   4.861   1.590   0.024 -0.4336  0.0108  0.3114
 3461TIP3    H110347   4.829   1.673   0.058  0.8251 -0.1272  1.9352
 3461TIP3    H210348   4.797   1.525   0.055  0.2616 -0.0065  1.8040
 3462TIP3   OH210349   4.701   4.384   3.301 -0.2649 -0.2293 -0.0194
 3462TIP3    H110350   4.655   4.388   3.216 -0.1985  0.3523 -0.0320
 3462TIP3    H210351   4.633   4.358   3.363 -1.0520  2.2554  0.2476
 3463TIP3   OH210352   5.300   5.717   1.452 -0.1740  0.2935  0.3545
 3463TIP3    H110353   5.359   5.694   1.524 -1.6977 -0.5343  1.4020
 3463TIP3    H210354   5.344   5.685   1.373  1.7643  1.6547  0.8187
 3464TIP3   OH210355   4.325   6.020   2.686  0.1181  0.0620 -0.4402
 3464TIP3    H110356   4.309   6.111   2.709 -0.2333 -0.1394  0.1176
 3464TIP3    H210357   4.378   6.025   2.606  1.8000  0.7665  0.6684
 3465TIP3   OH210358   0.500   2.767   1.138  0.1417 -0.0937 -0.1585
 3465TIP3    H110359   0.525   2.841   1.194  2.2674 -0.5046 -0.4955
 3465TIP3    H210360   0.494   2.805   1.050 -0.6166  0.0280 -0.0618
 3466TIP3   OH210361   1.711   4.740   0.227  0.3448  0.1548 -0.1361
 3466TIP3    H110362   1.622   4.772   0.212 -1.3068 -2.1100  3.3070
 3466TIP3    H210363   1.726   4.677   0.156 -0.2290  1.4416 -1.4582
 3467TIP3   OH210364   6.247   2.205   4.258  0.3175  1.0362 -0.2634
 3467TIP3    H110365   6.234   2.300   4.257 -3.1725  0.7886  1.8467
 3467TIP3    H210366   6.227   2.176   4.169  0.4203  2.1701 -0.6671
 3468TIP3   OH210367   1.554   1.254   1.766 -0.1045  0.3286 -0.1428
 3468TIP3    H110368   1.533   1.172   1.721  0.1648  0.2257 -0.0839
 3468TIP3    H210369   1.628   1.290   1.717  0.3248  0.1103  0.3445
 3469TIP3   OH210370   3.055   2.664   2.743 -0.4178  0.1791  0.7819
 3469TIP3    H110371   3.090   2.674   2.655  0.9617 -0.5241  1.2119
 3469TIP3    H210372   2.980   2.606   2.733 -0.9095  0.9432 -0.0552
 3470TIP3   OH210373   3.982   4.070   4.201 -0.0947  0.4679  0.6178
 3470TIP3    H110374   3.964   4.153   4.156 -1.1079 -0.3138 -0.4901
 3470TIP3    H210375   3.916   4.065   4.270 -1.7816 -0.5984 -0.9899
 3471TIP3   OH210376   1.123   1.405   5.421 -0.0623  0.1513 -0.1054
 3471TIP3    H110377   1.083   1.432   5.339  0.0946  0.0261 -0.2247
 3471TIP3    H210378   1.124   1.485   5.475 -0.9293  0.0327  0.0915
 3472TIP3   OH210379   0.234   4.468   3.739 -0.1919  0.1388 -0.1339
 3472TIP3    H110380   0.203   4.494   3.653 -1.8324  1.3754  0.7873
 3472TIP3    H210381   0.155   4.457   3.792  0.6051 -3.0145  0.6148
 3473TIP3   OH210382   3.088   1.232   2.305 -0.4095 -0.3693  0.3949
 3473TIP3    H110383   2.996   1.210   2.289 -0.5010 -0.5238  1.1088
 3473TIP3    H210384   3.085   1.316   2.350 -0.2406 -0.7597  1.1358
 3474TIP3   OH210385   6.045   0.614   1.704  0.1822  0.8530  0.1909
 3474TIP3    H110386   5.957   0.651   1.710 -0.9536 -1.6388  0.1942
 3474TIP3    H210387   6.089   0.643   1.784 -1.9675 -0.8928  2.1708
 3475TIP3   OH210388   0.666   2.004   5.116  0.0462 -0.4097  0.5981
 3475TIP3    H110389   0.667   2.020   5.210 -0.7000  0.9530  0.3962
 3475TIP3    H210390   0.670   1.909   5.108 -4.5692 -0.9927  2.1564
 3476TIP3   OH210391   5.210   4.195   5.158 -0.8225  0.1411 -0.2640
 3476TIP3    H110392   5.159   4.241   5.091 -1.3781 -0.2824 -0.1409
 3476TIP3    H210393   5.149   4.133   5.197 -0.2572 -0.2677  0.0006
 3477TIP3   OH210394   5.112   2.970   2.425  0.2800 -0.1410  0.0199
 3477TIP3    H110395   5.141   3.052   2.466 -1.0744 -0.1590  1.0766
 3477TIP3    H210396   5.050   2.997   2.358  3.0778 -0.0512 -2.7630
 3478TIP3   OH210397   4.932   4.605   1.695 -0.2850  0.2853  0.7684
 3478TIP3    H110398   5.009   4.648   1.731 -0.6668  0.6871  1.1031
 3478TIP3    H210399   4.865   4.672   1.694 -0.6390 -0.0692  0.4906
 3479TIP3   OH210400   3.552   6.285   5.052  0.1640 -0.3856  0.3594
 3479TIP3    H110401   3.580   6.359   4.999 -0.0345  0.3580  1.2716
 3479TIP3    H210402   3.623   6.221   5.042  1.4047  0.7821  1.2495
 3480TIP3   OH210403   0.563   1.051   5.060  0.3394  0.2122  0.4813
 3480TIP3    H110404   0.575   0.985   4.992  1.8025 -3.1206  3.6366
 3480TIP3    H210405   0.644   1.103   5.058 -0.4631  1.5194 -1.4591
 3481TIP3   OH210406   2.844   1.452   4.169  0.3575  0.1019  0.3654
 3481TIP3    H110407   2.839   1.357   4.157 -1.5923  0.1591  0.4321
 3481TIP3    H210408   2.885   1.464   4.255 -0.2663 -0.7184  0.7894
 3482TIP3   OH210409   1.758   4.306   4.727  0.1481  0.1263  0.4185
 3482TIP3    H110410   1.842   4.263   4.713  1.4350  2.7353 -0.3846
 3482TIP3    H210411   1.751   4.316   4.822  1.4878  1.2435  0.4143
 3483TIP3   OH210412   6.938   1.865   2.110 -0.1352 -0.0289 -0.8428
 3483TIP3    H110413   6.860   1.844   2.059  0.4302  0.1431 -1.8095
 3483TIP3    H210414   7.011   1.848   2.050  0.4930  1.3916 -0.5291
 3484TIP3   OH210415   1.523   3.357   5.725 -1.0078 -0.4456  0.4560
 3484TIP3    H110416   1.466   3.284   5.745 -2.2340  0.7375  1.4889
 3484TIP3    H210417   1.475   3.434   5.755 -0.1911  0.8942 -1.4581
 3485TIP3   OH210418   1.304   0.542   5.317  0.2905 -0.4393 -0.3499
 3485TIP3    H110419   1.244   0.535   5.391  1.6907 -1.8108  0.7379
 3485TIP3    H210420   1.283   0.626   5.276 -0.0255  0.7629  2.0903
 3486TIP3   OH210421   5.797   4.666   4.459  0.3279  0.4383 -0.3547
 3486TIP3    H110422   5.869   4.717   4.421  1.0789 -0.5092 -0.2646
 3486TIP3    H210423   5.823   4.575   4.445 -1.3358  0.0629 -1.1779
 3487TIP3   OH210424   0.841   4.744   2.378 -0.0682 -0.3403  0.3747
 3487TIP3    H110425   0.920   4.738   2.324  1.0327 -1.6989  2.0728
 3487TIP3    H210426   0.770   4.718   2.319  0.3135  2.9828 -1.8496
 3488TIP3   OH210427   5.131   4.656   3.412  0.1004  0.1646  0.3127
 3488TIP3    H110428   5.206   4.711   3.393  1.9116 -1.7418  1.5125
 3488TIP3    H210429   5.099   4.628   3.326  2.2842 -0.8649 -0.2298
 3489TIP3   OH210430   4.241   2.894   1.906  0.2885 -0.0538 -0.6003
 3489TIP3    H110431   4.273   2.976   1.868  1.4054 -0.3948 -0.4492
 3489TIP3    H210432   4.171   2.920   1.965  1.3801  0.9348  0.3079
 3490TIP3   OH210433   6.120   6.399   4.296  0.4864 -0.2696  0.4223
 3490TIP3    H110434   6.207   6.417   4.333  0.5505 -1.7466  1.0685
 3490TIP3    H210435   6.125   6.432   4.206  1.3647  0.5825  0.7581
 3491TIP3   OH210436   2.107   5.788   3.820  0.2045 -0.5942  0.4637
 3491TIP3    H110437   2.109   5.874   3.863  0.7950 -0.2479 -0.2442
 3491TIP3    H210438   2.013   5.767   3.814 -0.1276  1.1367 -1.5381
 3492TIP3   OH210439   3.724   5.016   4.506 -0.0392  0.3438  0.9171
 3492TIP3    H110440   3.723   4.926   4.474  1.0609  0.2911  1.0176
 3492TIP3    H210441   3.650   5.058   4.462  0.1232 -0.3130  0.0058
 3493TIP3   OH210442   2.635   0.492   1.924 -0.0967  0.1922 -0.0612
 3493TIP3    H110443   2.620   0.432   1.997 -1.3401 -0.1730 -0.5855
 3493TIP3    H210444   2.690   0.561   1.961  0.1216 -0.4952  0.9530
 3494TIP3   OH210445   3.247   3.509   0.875  0.1580 -0.2698  0.1680
 3494TIP3    H110446   3.183   3.544   0.813  1.2986  1.3789 -0.1612
 3494TIP3    H210447   3.332   3.538   0.841  1.1073 -2.3051  0.6442
 3495TIP3   OH210448   4.843   4.861   2.219  0.3834  0.2584 -0.3517
 3495TIP3    H110449   4.788   4.806   2.162  1.4528 -1.0275 -0.2012
 3495TIP3    H210450   4.874   4.801   2.287  0.8266  1.2924  0.3847
 3496TIP3   OH210451   6.080   4.028   4.591  0.3504  0.2461 -0.0146
 3496TIP3    H110452   6.136   3.963   4.547 -0.5595  0.6245 -1.8046
 3496TIP3    H210453   5.991   3.995   4.579  0.0610  0.1883  1.9080
 3497TIP3   OH210454   5.115   4.701   0.305 -0.5130 -0.5224  0.6624
 3497TIP3    H110455   5.165   4.724   0.384  3.1037 -3.2043 -0.6021
 3497TIP3    H210456   5.102   4.606   0.311 -2.3864 -0.4269 -0.8501
 3498TIP3   OH210457   6.084   3.655   4.716  0.4618  0.0135  0.0468
 3498TIP3    H110458   6.018   3.656   4.646  0.0144 -2.0278  0.3761
 3498TIP3    H210459   6.145   3.586   4.690  1.5704  0.7672  0.5711
 3499TIP3   OH210460   0.808   3.275   0.484  0.2454  0.0363 -0.5798
 3499TIP3    H110461   0.745   3.334   0.526  1.1419  0.4947  0.1579
 3499TIP3    H210462   0.754   3.217   0.430 -0.7040  1.3005 -1.0575
 3500TIP3   OH210463   1.200   4.685   0.870  0.7643  0.0585  0.0168
 3500TIP3    H110464   1.184   4.631   0.948 -0.6428 -0.8595 -0.8457
 3500TIP3    H210465   1.195   4.775   0.902  0.4702 -0.2953  1.0259
 3501TIP3   OH210466   3.752   2.029   2.278  0.5014 -0.3711 -0.6519
 3501TIP3    H110467   3.745   1.939   2.310  2.0479  0.3805  2.0733
 3501TIP3    H210468   3.702   2.081   2.340  1.0931  0.8483 -1.1609
 3502TIP3   OH210469   1.055   1.039   2.748  0.7645 -0.2169 -0.1055
 3502TIP3    H110470   1.043   1.021   2.654  2.2617 -0.4741 -0.2620
 3502TIP3    H210471   0.974   1.007   2.788  0.3439 -0.6494 -1.2470
 3503TIP3   OH210472   5.489   3.446   0.165 -0.0602  0.0409  0.0630
 3503TIP3    H110473   5.551   3.492   0.109  0.0897 -0.2632 -0.0224
 3503TIP3    H210474   5.543   3.386   0.216 -0.4570 -1.4926 -1.2550
 3504TIP3   OH210475   2.684   3.917   3.821 -0.0817 -0.2904 -0.5045
 3504TIP3    H110476   2.747   3.881   3.883 -0.1184  2.0295  1.0169
 3504TIP3    H210477   2.675   3.850   3.753  0.8550 -2.4511  1.3788
 3505TIP3   OH210478   2.023   0.498   0.391  0.3816  1.1531 -0.3665
 3505TIP3    H110479   1.981   0.496   0.305 -1.1754 -1.2684  0.3284
 3505TIP3    H210480   2.075   0.418   0.395 -1.0098  0.2599  1.5433
 3506TIP3   OH210481   0.867   1.514   5.799 -0.2667  0.3244  0.4528
 3506TIP3    H110482   0.784   1.532   5.843 -0.2112  0.8793  0.3296
 3506TIP3    H210483   0.929   1.501   5.870 -0.3820  0.2498  0.5415
 3507TIP3   OH210484   0.648   2.963   1.280  0.7223 -0.3940  0.0455
 3507TIP3    H110485   0.691   3.048   1.282 -1.5676  0.8454 -0.2747
 3507TIP3    H210486   0.642   2.936   1.372 -0.3776  0.7982  0.3405
 3508TIP3   OH210487   0.030   2.325   4.832  0.0284  0.5053 -0.0006
 3508TIP3    H110488   0.113   2.284   4.810  0.3880  0.8758  0.6366
 3508TIP3    H210489  -0.021   2.322   4.750  0.6161  0.1764 -0.3610
 3509TIP3   OH210490   1.195   1.717   0.375 -0.5587  0.3324  0.2037
 3509TIP3    H110491   1.281   1.758   0.362 -0.7491  1.1900  1.5121
 3509TIP3    H210492   1.213   1.642   0.431 -0.5091 -0.1867 -0.4946
 3510TIP3   OH210493   4.250   2.115   1.828  0.5654  0.1365 -0.3964
 3510TIP3    H110494   4.302   2.154   1.758  1.2208 -2.2652 -1.3548
 3510TIP3    H210495   4.315   2.087   1.893  0.2072 -0.1941 -0.1771
 3511TIP3   OH210496   2.526   3.124   3.886 -0.0246 -0.2133  0.0582
 3511TIP3    H110497   2.495   3.043   3.925 -0.3689 -0.0911  0.0421
 3511TIP3    H210498   2.530   3.106   3.792 -1.9739  0.3698 -0.1851
 3512TIP3   OH210499   5.041   6.195   2.793  0.5426  0.1503  0.4383
 3512TIP3    H110500   5.020   6.151   2.875  0.6065 -2.2189 -0.7365
 3512TIP3    H210501   5.137   6.196   2.791  0.5458  0.6933  0.6093
 3513TIP3   OH210502   3.488   5.136   1.952  0.4019  0.1200 -0.6120
 3513TIP3    H110503   3.491   5.170   2.041 -0.3804  1.0381 -0.9254
 3513TIP3    H210504   3.407   5.170   1.916  1.4812  1.1309 -2.2153
 3514TIP3   OH210505   4.245   0.058   5.413 -0.0964  0.0085  0.4355
 3514TIP3    H110506   4.291  -0.013   5.367 -1.5376 -0.7446  0.0878
 3514TIP3    H210507   4.211   0.114   5.343  0.4860  0.7013  0.6944
 3515TIP3   OH210508   1.536   6.485   3.643 -0.4378 -0.2280 -0.2219
 3515TIP3    H110509   1.581   6.453   3.721 -0.3024  0.0523 -0.1854
 3515TIP3    H210510   1.562   6.577   3.636 -0.3943 -0.2693 -0.6358
 3516TIP3   OH210511   6.244   6.354   3.114  0.1291  0.1157 -0.0991
 3516TIP3    H110512   6.234   6.259   3.114  0.9249  0.0203 -0.5386
 3516TIP3    H210513   6.258   6.377   3.206  0.7236 -0.2880 -0.0851
 3517TIP3   OH210514   2.879   0.134   2.637 -0.1464 -0.7666 -0.0112
 3517TIP3    H110515   2.818   0.095   2.574  0.1570 -1.2463 -0.0110
 3517TIP3    H210516   2.827   0.203   2.681 -0.1172  0.1588 -1.3659
 3518TIP3   OH210517   0.783   5.710   4.984 -0.6524 -0.3191 -0.2420
 3518TIP3    H110518   0.783   5.727   5.078 -0.7891  3.6415 -0.8075
 3518TIP3    H210519   0.706   5.755   4.951  0.4180  0.0194 -2.4759
 3519TIP3   OH210520   5.432   1.757   0.903  0.4246 -0.2178  0.0286
 3519TIP3    H110521   5.489   1.819   0.947 -1.2579  1.3500  0.1492
 3519TIP3    H210522   5.453   1.672   0.942  0.9177  0.6964  1.8354
 3520TIP3   OH210523   6.220   6.423   3.378 -0.2854 -0.6720 -0.6646
 3520TIP3    H110524   6.306   6.383   3.382  0.0096 -0.0477 -0.5866
 3520TIP3    H210525   6.169   6.377   3.445  0.1261 -0.7310 -0.3881
 3521TIP3   OH210526   6.795   6.149   0.384 -0.8660 -0.1117  0.5086
 3521TIP3    H110527   6.719   6.129   0.438 -0.1675 -1.5300  1.0218
 3521TIP3    H210528   6.759   6.179   0.301 -1.9578  0.2370  1.0902
 3522TIP3   OH210529   5.257   2.780   1.524  0.0927 -0.3971  0.1666
 3522TIP3    H110530   5.227   2.714   1.462  0.0398  0.1904 -0.4428
 3522TIP3    H210531   5.223   2.751   1.608 -2.0987  0.1820 -0.4716
 3523TIP3   OH210532   3.132   3.899   1.550  0.0714 -0.3145  0.4388
 3523TIP3    H110533   3.178   3.879   1.468 -1.2167  1.1655 -0.7125
 3523TIP3    H210534   3.155   3.990   1.568 -1.3981  0.0730  0.4926
 3524TIP3   OH210535   4.383   2.808   0.738 -0.5970 -0.1901 -0.2055
 3524TIP3    H110536   4.474   2.839   0.740 -0.4852 -0.5138 -0.1616
 3524TIP3    H210537   4.358   2.814   0.646  0.0163 -1.6359 -0.4886
 3525TIP3   OH210538   5.166   0.508   1.877 -0.2017 -0.7681 -0.1138
 3525TIP3    H110539   5.137   0.420   1.902 -2.1178 -0.1211  0.1192
 3525TIP3    H210540   5.243   0.525   1.932 -0.6371 -1.7754  0.8287
 3526TIP3   OH210541   5.484   5.660   4.520  0.5737 -0.3140 -0.9364
 3526TIP3    H110542   5.430   5.585   4.495 -1.7996  1.1014 -0.4103
 3526TIP3    H210543   5.467   5.726   4.453  2.1285  0.0171 -1.0536
 3527TIP3   OH210544   4.457   2.373   2.150  0.0799  0.3517  0.6338
 3527TIP3    H110545   4.432   2.459   2.183 -0.8651 -0.2185  1.4699
 3527TIP3    H210546   4.542   2.387   2.108  0.6590  1.4027  2.0542
 3528TIP3   OH210547   0.012   0.525   4.594 -0.2956  0.0923 -0.0372
 3528TIP3    H110548   0.017   0.436   4.559  1.7997  0.0632  0.1949
 3528TIP3    H210549   0.064   0.521   4.675 -3.7272  0.5067  2.3710
 3529TIP3   OH210550   4.604   2.853   0.144 -0.0197 -0.2894 -0.1422
 3529TIP3    H110551   4.690   2.831   0.107 -0.2417  0.3090 -1.0387
 3529TIP3    H210552   4.616   2.941   0.181 -0.1665 -0.3333  0.0117
 3530TIP3   OH210553   6.613   2.833   4.994  0.0231 -0.0643  0.1777
 3530TIP3    H110554   6.612   2.789   5.079 -2.8039 -0.1610  0.2081
 3530TIP3    H210555   6.700   2.872   4.988  0.8986 -1.4969  2.3365
 3531TIP3   OH210556   5.401   0.148   4.125 -0.4249 -0.2505 -0.6852
 3531TIP3    H110557   5.368   0.058   4.127  2.4007 -1.3841  0.5873
 3531TIP3    H210558   5.357   0.191   4.198  0.1551 -1.4038  0.3704
 3532TIP3   OH210559   6.253   3.647   1.918 -0.1399 -0.2401 -0.2838
 3532TIP3    H110560   6.336   3.694   1.905 -0.1976  0.1963  0.7857
 3532TIP3    H210561   6.185   3.712   1.899 -0.2207 -0.1503  0.2781
 3533TIP3   OH210562   5.301   1.386   5.089  0.0776 -0.1966  0.3113
 3533TIP3    H110563   5.325   1.453   5.024  0.7068 -0.5980  0.1209
 3533TIP3    H210564   5.382   1.369   5.136  0.1030 -1.3615 -0.1301
 3534TIP3   OH210565   2.756   3.089   3.361  0.6703 -0.3648 -0.0445
 3534TIP3    H110566   2.701   3.100   3.438 -0.3672  0.1635 -0.8249
 3534TIP3    H210567   2.699   3.113   3.288  1.3811 -1.6277 -1.0451
 3535TIP3   OH210568   1.969   6.314   2.768 -0.0142  0.7182  0.1654
 3535TIP3    H110569   1.957   6.296   2.861  2.1151 -0.5871  0.2653
 3535TIP3    H210570   1.957   6.230   2.725  0.8618  0.9156 -0.5025
 3536TIP3   OH210571   0.456   3.833   5.350  0.2548  0.4897  0.1745
 3536TIP3    H110572   0.541   3.860   5.314 -0.8049  2.9588 -0.7070
 3536TIP3    H210573   0.446   3.742   5.322  2.7227 -0.0020  0.6111
 3537TIP3   OH210574   5.398   5.869   2.377  0.3653 -0.1614 -0.1130
 3537TIP3    H110575   5.365   5.821   2.301 -1.0642 -0.7673  0.8484
 3537TIP3    H210576   5.332   5.937   2.392  2.2246  2.0727 -1.3118
 3538TIP3   OH210577   1.952   1.077   1.232  0.4043  0.0515  0.0451
 3538TIP3    H110578   2.029   1.023   1.252  0.5004 -0.2230 -1.0242
 3538TIP3    H210579   1.987   1.156   1.192  0.1469  0.0852 -0.1164
 3539TIP3   OH210580   2.176   3.721   1.662  0.2469 -0.0490  0.1063
 3539TIP3    H110581   2.254   3.714   1.716  0.7845 -1.7678 -0.8324
 3539TIP3    H210582   2.112   3.663   1.704 -0.5023  1.2052  0.7676
 3540TIP3   OH210583   0.606   4.292   2.984 -0.7020  0.0798 -0.0205
 3540TIP3    H110584   0.669   4.358   2.954 -0.5547  0.0215  0.1595
 3540TIP3    H210585   0.527   4.342   3.003 -0.7728  0.1274 -0.4297
 3541TIP3   OH210586   5.997   1.776   1.313 -0.8128  0.6431  0.1612
 3541TIP3    H110587   5.920   1.720   1.309 -0.8233  0.7184 -1.6924
 3541TIP3    H210588   5.990   1.832   1.236  1.7425 -0.2621 -0.8465
 3542TIP3   OH210589   2.724   3.159   1.077  0.3119 -0.9532  0.3081
 3542TIP3    H110590   2.642   3.144   1.030 -0.1152  1.6893  0.0461
 3542TIP3    H210591   2.715   3.247   1.114  2.5894 -1.0302  1.2338
 3543TIP3   OH210592   6.310   1.652   0.243  0.2851 -0.5952  0.1133
 3543TIP3    H110593   6.234   1.710   0.237 -0.7342 -1.6924  1.5441
 3543TIP3    H210594   6.275   1.564   0.229  1.7425 -0.9531 -1.6798
 3544TIP3   OH210595   5.347   4.093   3.467  0.3130  0.3849  0.0953
 3544TIP3    H110596   5.431   4.114   3.427  0.1857 -0.0359 -0.4145
 3544TIP3    H210597   5.282   4.136   3.412  0.2225  1.2960  0.8922
 3545TIP3   OH210598   6.537   5.885   1.244  0.4117  0.0754 -0.3870
 3545TIP3    H110599   6.463   5.914   1.296  0.5841 -0.8144  0.3802
 3545TIP3    H210600   6.527   5.930   1.160 -0.0347  1.2858  0.3038
 3546TIP3   OH210601   3.112   1.418   4.028 -0.0436  0.0421  0.4217
 3546TIP3    H110602   3.025   1.453   4.050  0.1502  2.3103 -1.9538
 3546TIP3    H210603   3.108   1.326   4.055 -2.1713  0.7564  2.9471
 3547TIP3   OH210604   5.375   5.049   4.532  0.0295  0.8346  0.1181
 3547TIP3    H110605   5.421   4.981   4.481 -2.6659  0.3081 -1.8242
 3547TIP3    H210606   5.345   5.112   4.467 -0.4293  2.1256  1.5246
 3548TIP3   OH210607   2.422   6.162   5.116 -0.5252 -0.7125  0.4356
 3548TIP3    H110608   2.388   6.081   5.078 -1.6388  0.4830 -1.2723
 3548TIP3    H210609   2.345   6.209   5.147  0.0213  0.0370  0.7006
 3549TIP3   OH210610   4.812   4.165   1.041 -0.0975 -0.5471 -0.2707
 3549TIP3    H110611   4.894   4.149   0.994 -1.2704  0.9033 -3.0330
 3549TIP3    H210612   4.822   4.253   1.078 -0.4275 -0.3580 -0.6336
 3550TIP3   OH210613   2.381   0.646   0.744 -0.2366  0.2099  0.4912
 3550TIP3    H110614   2.337   0.564   0.723 -1.5200  0.5573  1.6607
 3550TIP3    H210615   2.428   0.670   0.664 -1.3172 -0.7433 -0.4561
 3551TIP3   OH210616   5.060   1.241   0.956  0.4628  0.8604 -0.1189
 3551TIP3    H110617   5.054   1.163   0.900 -2.0963  1.2873 -0.5434
 3551TIP3    H210618   5.113   1.213   1.030  2.1176 -0.3673 -1.6796
 3552TIP3   OH210619   0.873   4.809   4.953 -0.4182  0.1876 -0.0682
 3552TIP3    H110620   0.864   4.895   4.993 -0.8601 -1.0145  2.6965
 3552TIP3    H210621   0.803   4.805   4.888  0.0407  2.1132 -0.7412
 3553TIP3   OH210622   1.233   3.846   2.788 -0.1262  0.3370  0.0794
 3553TIP3    H110623   1.169   3.908   2.752 -0.9050  0.7362  1.9918
 3553TIP3    H210624   1.271   3.803   2.712 -0.2599  2.4743 -1.2889
 3554TIP3   OH210625   4.755   5.020   1.555 -0.4563  0.3731 -0.0065
 3554TIP3    H110626   4.717   5.052   1.637  1.1489  0.8499  0.5872
 3554TIP3    H210627   4.807   5.093   1.522  0.3807 -0.4198 -0.4940
 3555TIP3   OH210628   1.867   1.368   5.185  0.3267 -0.8911 -0.4287
 3555TIP3    H110629   1.803   1.297   5.191  0.4647 -1.1024 -1.3422
 3555TIP3    H210630   1.846   1.413   5.103 -0.4323  0.7972  0.6374
 3556TIP3   OH210631   4.151   0.269   0.341 -0.3351  0.3877  0.4383
 3556TIP3    H110632   4.172   0.179   0.315 -0.0143  0.5060  0.2695
 3556TIP3    H210633   4.183   0.322   0.268 -0.8714  0.6123  0.3636
 3557TIP3   OH210634   3.243   5.231   4.019  0.2797  0.4859 -0.2864
 3557TIP3    H110635   3.183   5.184   4.077  1.2520 -0.5065 -0.0458
 3557TIP3    H210636   3.296   5.284   4.078  2.3939 -1.7739 -0.0052
 3558TIP3   OH210637   6.783   6.479   0.439 -0.4386  0.6934  0.1119
 3558TIP3    H110638   6.805   6.394   0.479 -2.0633  0.2335  0.1186
 3558TIP3    H210639   6.861   6.503   0.390 -0.3449 -1.4359 -0.9217
 3559TIP3   OH210640   0.383   1.983   1.230  0.1946 -0.2833 -0.0780
 3559TIP3    H110641   0.421   2.057   1.184  1.4043 -1.9809 -1.9765
 3559TIP3    H210642   0.292   2.007   1.244  0.4214  1.3119 -1.1451
 3560TIP3   OH210643   2.228   0.883   0.188  0.0405  0.2015 -0.5795
 3560TIP3    H110644   2.295   0.948   0.170 -1.0125  1.3706 -0.4021
 3560TIP3    H210645   2.167   0.926   0.248 -0.7405 -0.9065 -0.5414
 3561TIP3   OH210646   0.309   0.593   0.612 -0.0630 -0.5922 -0.1533
 3561TIP3    H110647   0.332   0.579   0.520  1.8905  0.7235  0.0601
 3561TIP3    H210648   0.272   0.682   0.614  1.9017  0.2691  0.5730
 3562TIP3   OH210649   6.436   0.758   5.073 -1.4017 -0.3548 -0.2069
 3562TIP3    H110650   6.478   0.718   5.149  0.4026 -0.3660 -1.1548
 3562TIP3    H210651   6.456   0.698   5.001 -0.6934  1.0185 -1.1949
 3563TIP3   OH210652   3.971   5.469   0.812  0.0667 -0.6443  0.4682
 3563TIP3    H110653   3.967   5.544   0.753 -1.2103  0.7764  2.2377
 3563TIP3    H210654   4.001   5.396   0.757  0.2358  0.8835 -1.5728
 3564TIP3   OH210655   3.946   0.855   0.043 -0.3678 -0.6523  0.4991
 3564TIP3    H110656   3.913   0.765   0.041  1.7684 -1.6815  3.7152
 3564TIP3    H210657   3.914   0.891   0.126 -0.4459  1.2723 -0.3217
 3565TIP3   OH210658   3.248   6.342   2.617  0.1651 -0.9648  0.1454
 3565TIP3    H110659   3.167   6.291   2.626 -0.1141 -0.7059 -0.8392
 3565TIP3    H210660   3.294   6.301   2.544  0.6163 -0.6991  0.2816
 3566TIP3   OH210661   0.435   1.045   3.963  0.1683  0.4590 -0.4968
 3566TIP3    H110662   0.416   0.985   4.035 -1.9451  0.8385 -0.6575
 3566TIP3    H210663   0.438   1.132   4.004  0.8187  0.4880 -0.6025
 3567TIP3   OH210664   6.995   1.605   5.175 -0.5603  0.0799 -0.1205
 3567TIP3    H110665   6.905   1.578   5.192 -0.8010  0.9292  0.0115
 3567TIP3    H210666   7.046   1.525   5.182 -1.0576 -0.1306  1.5659
 3568TIP3   OH210667   1.121   6.259   2.015 -0.1289  0.2142  0.0882
 3568TIP3    H110668   1.152   6.184   2.066 -1.1696 -1.5035 -1.6811
 3568TIP3    H210669   1.188   6.273   1.948  0.2479  1.1639  0.6330
 3569TIP3   OH210670   1.997   5.050   3.062 -0.0275  0.3862  0.2136
 3569TIP3    H110671   2.048   5.123   3.029 -0.8534  1.3894  1.0857
 3569TIP3    H210672   1.977   4.997   2.985  1.2606  0.6310 -0.3052
 3570TIP3   OH210673   5.716   2.508   4.422 -0.0249  0.1790  0.0860
 3570TIP3    H110674   5.675   2.594   4.422 -0.0093  0.2514 -2.2937
 3570TIP3    H210675   5.664   2.456   4.483  0.2172  1.9340  1.8991
 3571TIP3   OH210676   6.387   0.096   4.043  0.2697  0.0081 -0.1551
 3571TIP3    H110677   6.417   0.074   4.132 -0.0306 -0.6704 -0.2168
 3571TIP3    H210678   6.462   0.141   4.004  1.2700 -1.6959 -0.3191
 3572TIP3   OH210679   4.480   4.008   1.347 -0.7274 -0.7484 -0.3492
 3572TIP3    H110680   4.418   4.071   1.384 -0.2106  0.1151 -0.9199
 3572TIP3    H210681   4.510   4.049   1.266  0.9058 -0.9574  0.1252
 3573TIP3   OH210682   5.364   3.794   5.421 -0.4845  0.1822 -0.5227
 3573TIP3    H110683   5.334   3.708   5.390 -0.7650 -0.2011  0.7835
 3573TIP3    H210684   5.284   3.840   5.446 -0.1777 -0.0557  0.9720
 3574TIP3   OH210685   4.992   0.903   1.586 -0.1263  0.0036  0.0403
 3574TIP3    H110686   5.006   0.821   1.634 -0.4196  0.3226  0.6805
 3574TIP3    H210687   4.974   0.968   1.653 -0.5565  0.4634 -0.5061
 3575TIP3   OH210688   6.781   3.345   3.577 -0.2292  0.2682 -0.1854
 3575TIP3    H110689   6.699   3.387   3.549  0.1190  0.6068 -0.7223
 3575TIP3    H210690   6.816   3.404   3.643 -1.4008 -0.8806  1.5538
 3576TIP3   OH210691   0.706   3.560   4.667  0.1733 -0.8806  0.5187
 3576TIP3    H110692   0.714   3.554   4.762 -0.6783 -0.5262  0.6198
 3576TIP3    H210693   0.612   3.551   4.650  0.1707  0.2612 -0.1859
 3577TIP3   OH210694   4.631   1.716   3.879  0.0174  0.4543 -0.1079
 3577TIP3    H110695   4.642   1.657   3.804 -2.0913  1.2205 -1.0833
 3577TIP3    H210696   4.658   1.663   3.955 -1.3052 -1.6180 -1.0019
 3578TIP3   OH210697   5.129   4.330   2.379  0.5370  0.4391  0.1531
 3578TIP3    H110698   5.096   4.282   2.454  0.2633  0.0363 -0.2227
 3578TIP3    H210699   5.131   4.266   2.308  1.1851  0.7050 -0.0846
 3579TIP3   OH210700   5.847   4.528   3.507 -0.2586 -0.0247  0.2641
 3579TIP3    H110701   5.806   4.592   3.448 -0.0711 -0.6180 -0.5392
 3579TIP3    H210702   5.809   4.444   3.482  1.0971 -0.5372 -0.2182
 3580TIP3   OH210703   2.141   3.860   2.230  0.5863  0.4029 -0.1200
 3580TIP3    H110704   2.220   3.911   2.210 -0.1689  1.5774 -0.2265
 3580TIP3    H210705   2.095   3.913   2.295 -0.3629 -0.0192 -0.4453
 3581TIP3   OH210706   0.790   2.673   2.074 -0.2060  0.3263 -0.1252
 3581TIP3    H110707   0.832   2.656   2.158  0.9039  0.2099 -0.6861
 3581TIP3    H210708   0.696   2.680   2.095 -0.0815 -0.7877  0.9560
 3582TIP3   OH210709   3.171   5.697   5.883 -0.0262 -0.5215  0.1001
 3582TIP3    H110710   3.194   5.652   5.802 -0.4684 -1.5644  0.5435
 3582TIP3    H210711   3.077   5.682   5.894 -0.6928  2.2942 -0.8230
 3583TIP3   OH210712   4.209   3.512   0.926 -0.1917  0.0768  0.0750
 3583TIP3    H110713   4.199   3.417   0.934  1.0216  0.0548  1.9076
 3583TIP3    H210714   4.225   3.526   0.833 -2.3487 -1.2745 -0.5823
 3584TIP3   OH210715   5.069   3.678   0.612 -0.5832  0.2381  0.6654
 3584TIP3    H110716   5.058   3.625   0.533 -3.2526 -0.1930  1.2474
 3584TIP3    H210717   5.053   3.767   0.583 -0.5696  0.2032  0.5486
 3585TIP3   OH210718   6.057   0.873   2.706 -0.1483 -0.0640 -0.4490
 3585TIP3    H110719   5.966   0.880   2.735  0.2221 -1.3255  1.1708
 3585TIP3    H210720   6.067   0.781   2.680  0.2345  0.4530 -2.3127
 3586TIP3   OH210721   1.747   5.537   1.736 -0.2621  0.3737 -0.2556
 3586TIP3    H110722   1.680   5.483   1.778  0.3359 -0.7977 -0.7295
 3586TIP3    H210723   1.822   5.532   1.795 -0.9234  2.7071  0.9083
 3587TIP3   OH210724   4.441   3.141   5.223  0.2851  0.1241  0.0597
 3587TIP3    H110725   4.363   3.148   5.169  1.1564 -2.1167 -1.6670
 3587TIP3    H210726   4.425   3.065   5.279  1.7071 -1.3346 -1.3828
 3588TIP3   OH210727   1.300   6.296   4.652 -0.4338 -0.0716  0.0261
 3588TIP3    H110728   1.313   6.263   4.563  2.0155  1.3627 -0.2312
 3588TIP3    H210729   1.243   6.372   4.642  0.0233  0.2235 -0.3667
 3589TIP3   OH210730   2.903   0.841   4.526 -0.0549  0.8077  0.1434
 3589TIP3    H110731   2.964   0.768   4.516 -0.6030  0.4152 -0.4560
 3589TIP3    H210732   2.902   0.883   4.440 -1.5383  0.0622 -0.2362
 3590TIP3   OH210733   6.934   4.122   1.123 -0.0927  0.3555  0.1442
 3590TIP3    H110734   7.025   4.135   1.150  0.2503 -0.1002 -0.7504
 3590TIP3    H210735   6.907   4.208   1.090 -0.0390  0.5259  0.5295
 3591TIP3   OH210736   4.032   0.182   2.445  0.1867  0.3371 -0.5184
 3591TIP3    H110737   3.950   0.217   2.480 -0.5502 -1.1822 -0.6414
 3591TIP3    H210738   4.099   0.216   2.504 -0.3999  2.3026 -0.9066
 3592TIP3   OH210739   5.830   6.697   0.889  0.2275 -0.0618 -0.3604
 3592TIP3    H110740   5.782   6.647   0.956  1.4926 -0.6473  0.1523
 3592TIP3    H210741   5.920   6.699   0.921  1.2307 -1.7109 -2.7890
 3593TIP3   OH210742   1.395   0.805   0.730  0.3452 -0.4298  0.0076
 3593TIP3    H110743   1.451   0.882   0.742  0.9536 -0.9198  0.3903
 3593TIP3    H210744   1.313   0.840   0.694  0.6977  0.3634 -0.0449
 3594TIP3   OH210745   7.062   2.137   3.647  0.3810  0.0888 -0.7013
 3594TIP3    H110746   7.127   2.144   3.577  1.3413  0.3845  0.2019
 3594TIP3    H210747   7.109   2.162   3.726 -0.3884 -1.3262  0.2415
 3595TIP3   OH210748   4.342   4.316   0.322 -0.5378 -0.3003 -0.5125
 3595TIP3    H110749   4.246   4.314   0.315 -0.5487 -1.1898 -0.2155
 3595TIP3    H210750   4.360   4.387   0.383 -1.2664 -2.6008  2.6614
 3596TIP3   OH210751   3.154   5.884   2.623  0.1790  0.3989 -0.3032
 3596TIP3    H110752   3.159   5.829   2.545 -0.0903 -1.0963  0.6920
 3596TIP3    H210753   3.118   5.827   2.691 -0.1122  1.8119  0.7915
 3597TIP3   OH210754   5.836   2.161   3.632  0.5224  0.4518  0.4297
 3597TIP3    H110755   5.905   2.102   3.661  1.0114  0.7102 -0.1854
 3597TIP3    H210756   5.856   2.244   3.675 -0.0582  0.2326  1.1451
 3598TIP3   OH210757   6.206   6.589   5.462 -0.2748 -0.2382  0.5068
 3598TIP3    H110758   6.210   6.684   5.453  0.9990 -0.4138 -1.1738
 3598TIP3    H210759   6.268   6.569   5.532 -0.5770  0.1536  0.8927
 3599TIP3   OH210760   0.547   3.546   4.273 -0.2842  0.1949  0.4192
 3599TIP3    H110761   0.460   3.509   4.261 -0.4465 -0.3566  2.8302
 3599TIP3    H210762   0.593   3.482   4.327  0.6099  1.8172  1.6762
 3600TIP3   OH210763   2.356   5.953   4.644 -0.1059  0.0587 -1.0226
 3600TIP3    H110764   2.339   5.878   4.700 -0.9694 -0.4665 -1.9528
 3600TIP3    H210765   2.447   5.943   4.618  0.6790  0.9491  1.1765
 3601TIP3   OH210766   6.971   4.663   4.040  0.0863 -0.2934  0.1713
 3601TIP3    H110767   6.932   4.652   4.127 -1.0376  2.5956  0.1276
 3601TIP3    H210768   6.917   4.609   3.982  0.1136 -1.3057  1.0518
 3602TIP3   OH210769   1.188   1.142   0.141 -0.5078 -0.2044  0.2778
 3602TIP3    H110770   1.117   1.206   0.131  0.6467  1.0442 -0.4079
 3602TIP3    H210771   1.179   1.084   0.066 -1.6158 -0.9343  0.9463
 3603TIP3   OH210772   6.486   1.827   3.514  0.0627 -0.7479 -0.0725
 3603TIP3    H110773   6.505   1.869   3.430 -0.8925 -0.3949 -0.1324
 3603TIP3    H210774   6.524   1.885   3.579 -0.1014 -0.4672 -0.2221
 3604TIP3   OH210775   3.972   1.111   2.685 -0.6326  0.1063  0.5955
 3604TIP3    H110776   4.047   1.156   2.725 -0.3334  0.2491 -0.1081
 3604TIP3    H210777   3.952   1.040   2.746  0.0683  0.0781  0.8104
 3605TIP3   OH210778   2.233   2.916   1.993 -0.3543 -0.0079 -0.2555
 3605TIP3    H110779   2.241   2.998   2.040  1.3587 -0.4862  0.3583
 3605TIP3    H210780   2.175   2.863   2.047  1.7580 -0.6358  1.5626
 3606TIP3   OH210781   6.838   2.200   4.997  0.2845 -0.8295  0.3045
 3606TIP3    H110782   6.872   2.215   4.909 -0.8447  0.3507  0.0338
 3606TIP3    H210783   6.813   2.287   5.029 -0.7585 -1.4116  1.1630
 3607TIP3   OH210784   6.940   1.353   0.680  0.3535  0.0114 -0.3876
 3607TIP3    H110785   7.030   1.364   0.710  0.0930  1.2780  0.0048
 3607TIP3    H210786   6.946   1.347   0.585  0.8446  0.0357 -0.3587
 3608TIP3   OH210787   3.368   2.375   1.182  0.1181  0.1623  0.3100
 3608TIP3    H110788   3.437   2.417   1.131  0.2651  0.5509  0.8177
 3608TIP3    H210789   3.289   2.424   1.162  0.4095  1.1327  1.4038
 3609TIP3   OH210790   2.114   5.296   1.721 -0.0340 -0.1344 -0.0589
 3609TIP3    H110791   2.142   5.205   1.729 -0.5087 -0.1639  1.9826
 3609TIP3    H210792   2.023   5.291   1.692  0.3590 -0.2324 -1.3273
 3610TIP3   OH210793   7.033   3.291   3.690 -0.0026 -0.2107  0.3183
 3610TIP3    H110794   7.009   3.363   3.749 -0.2633 -0.0232 -0.0083
 3610TIP3    H210795   6.968   3.296   3.620  0.4338 -0.2887 -0.0975
 3611TIP3   OH210796   0.280   5.626   1.469 -0.0165 -0.2118  0.0801
 3611TIP3    H110797   0.222   5.585   1.533  0.0341  0.6239  0.6623
 3611TIP3    H210798   0.242   5.712   1.452  0.9040  0.2448  0.2724
 3612TIP3   OH210799   4.294   3.113   4.080 -0.3195 -0.3276 -0.2072
 3612TIP3    H110800   4.277   3.196   4.124 -1.5125 -0.5547 -0.1826
 3612TIP3    H210801   4.282   3.047   4.148  0.1141 -0.5492 -0.3428
 3613TIP3   OH210802   2.592   0.256   4.072  0.1494  0.2863 -0.0703
 3613TIP3    H110803   2.545   0.177   4.095  1.6872 -0.8679 -0.6743
 3613TIP3    H210804   2.657   0.267   4.142  0.5277  0.4897 -0.4464
 3614TIP3   OH210805   5.762   6.173   1.107  0.4337 -0.7229 -0.1503
 3614TIP3    H110806   5.847   6.217   1.112  1.2673 -2.3492  1.2410
 3614TIP3    H210807   5.731   6.191   1.018  1.2098  1.6634 -0.0197
 3615TIP3   OH210808   1.504   6.647   4.643  0.5653 -0.1196 -0.3391
 3615TIP3    H110809   1.495   6.727   4.591  1.0386 -0.1245 -0.4364
 3615TIP3    H210810   1.524   6.579   4.579 -3.6525 -1.1779 -0.8259
 3616TIP3   OH210811   5.444   0.619   3.317  0.0405 -0.1312  0.4023
 3616TIP3    H110812   5.496   0.693   3.350 -1.3142  0.8508  0.4239
 3616TIP3    H210813   5.426   0.566   3.395 -0.7348  0.6463  0.7643
 3617TIP3   OH210814   5.286   2.320   0.203 -0.2880 -0.3221 -0.1723
 3617TIP3    H110815   5.273   2.301   0.110  2.2372 -1.8426 -0.3021
 3617TIP3    H210816   5.380   2.335   0.211 -0.5005  0.0928  2.1022
 3618TIP3   OH210817   0.896   6.780   1.944 -0.4835 -0.1245 -0.0540
 3618TIP3    H110818   0.983   6.771   1.984 -0.2467 -0.4346 -0.6257
 3618TIP3    H210819   0.872   6.871   1.959 -0.4439 -0.2482  0.8721
 3619TIP3   OH210820   4.598   1.249   0.361  0.2408  0.0511 -0.0231
 3619TIP3    H110821   4.532   1.244   0.292 -0.2767 -2.1723  0.5516
 3619TIP3    H210822   4.593   1.165   0.406  3.7564 -0.4393 -0.2192
 3620TIP3   OH210823   5.627   1.566   3.384 -0.0994  0.4389  0.3742
 3620TIP3    H110824   5.622   1.508   3.459  0.9146 -0.7700 -0.4596
 3620TIP3    H210825   5.562   1.531   3.322  2.0833 -1.3215 -1.0811
 3621TIP3   OH210826   0.597   4.837   2.281  0.2019 -0.3032 -0.1857
 3621TIP3    H110827   0.648   4.914   2.257 -0.2708  0.2052  0.4256
 3621TIP3    H210828   0.565   4.803   2.197  0.7958 -0.1135 -0.4974
 3622TIP3   OH210829   3.472   4.560   4.513  0.7837  0.3961 -0.0756
 3622TIP3    H110830   3.421   4.628   4.470 -0.7982 -0.2396  0.7261
 3622TIP3    H210831   3.409   4.490   4.532  2.3808 -1.3687 -0.9748
 3623TIP3   OH210832   3.410   3.904   2.263 -0.1000  0.1901 -0.1651
 3623TIP3    H110833   3.503   3.914   2.245 -0.2922 -0.7077 -1.8263
 3623TIP3    H210834   3.401   3.815   2.296 -0.3046  0.4650  0.5360
 3624TIP3   OH210835   2.218   2.893   0.955  0.4099 -0.3502  0.1640
 3624TIP3    H110836   2.143   2.834   0.949  0.0244  0.2714 -2.2114
 3624TIP3    H210837   2.287   2.841   0.996 -0.6833 -1.5982  0.4714
 3625TIP3   OH210838   2.465   5.171   3.675 -0.2250 -0.0821 -0.0072
 3625TIP3    H110839   2.373   5.161   3.698 -0.6359  1.9096 -0.5930
 3625TIP3    H210840   2.503   5.085   3.689 -2.2045 -0.9813  0.1032
 3626TIP3   OH210841   1.679   1.371   5.433  0.3220 -0.3703  0.1389
 3626TIP3    H110842   1.744   1.360   5.502  0.5873 -1.7800 -0.3115
 3626TIP3    H210843   1.706   1.452   5.388  1.8110 -0.9635 -0.0907
 3627TIP3   OH210844   1.469   1.789   0.615 -0.0976 -0.8306 -0.0439
 3627TIP3    H110845   1.549   1.778   0.665  0.4885 -0.3805 -0.8498
 3627TIP3    H210846   1.472   1.719   0.549 -0.8869 -1.4571  0.5666
 3628TIP3   OH210847   2.019   5.463   4.880 -0.4862 -0.2179 -0.5658
 3628TIP3    H110848   2.108   5.440   4.852 -1.0083 -1.8192 -1.0229
 3628TIP3    H210849   2.021   5.455   4.975 -0.3495 -1.1197 -0.6346
 3629TIP3   OH210850   7.026   5.986   3.632  0.0562 -0.3471 -0.2714
 3629TIP3    H110851   6.939   6.006   3.666 -0.0329  1.2711 -1.3433
 3629TIP3    H210852   7.084   6.001   3.707 -0.5731 -1.6196  0.5016
 3630TIP3   OH210853   1.891   0.915   3.982  0.1889 -0.3812  0.1761
 3630TIP3    H110854   1.880   0.910   3.887  0.1725  1.0856  0.0698
 3630TIP3    H210855   1.818   0.865   4.018 -1.1606  0.9426 -0.5900
 3631TIP3   OH210856   3.422   6.004   2.529 -0.1859  0.2816  0.5037
 3631TIP3    H110857   3.411   6.061   2.453 -0.8737 -0.5445 -0.0429
 3631TIP3    H210858   3.333   5.990   2.561 -0.4411 -2.7708 -1.1359
 3632TIP3   OH210859   6.251   4.029   5.076 -0.1281 -1.0105 -0.4780
 3632TIP3    H110860   6.332   3.986   5.050  2.3217  1.3692  2.4547
 3632TIP3    H210861   6.211   3.971   5.140  1.5290 -0.4207  1.1584
 3633TIP3   OH210862   0.924   0.105   4.823 -0.0973 -0.2956  0.3005
 3633TIP3    H110863   0.846   0.130   4.873  0.3348  1.3144  0.2466
 3633TIP3    H210864   0.984   0.179   4.836  0.6829 -0.6304 -1.2096
 3634TIP3   OH210865   5.268   3.173   0.604 -0.7605 -0.4388 -0.1765
 3634TIP3    H110866   5.199   3.235   0.626 -2.1194 -1.6194 -0.9764
 3634TIP3    H210867   5.262   3.106   0.672 -0.1293 -0.3664 -0.0390
 3635TIP3   OH210868   2.958   6.604   3.762 -0.8268 -0.3076  0.1225
 3635TIP3    H110869   2.903   6.548   3.815 -4.0208  1.9498 -0.5241
 3635TIP3    H210870   2.922   6.596   3.673 -1.1426  2.3082 -0.0620
 3636TIP3   OH210871   3.921   3.517   0.028  0.9332 -0.3128 -0.4916
 3636TIP3    H110872   3.842   3.567   0.008  1.0058 -0.7224 -1.8712
 3636TIP3    H210873   3.949   3.549   0.114 -0.0180  0.7384 -0.5630
 3637TIP3   OH210874   5.855   1.676   2.592 -0.1909  0.4555  0.1509
 3637TIP3    H110875   5.924   1.715   2.537  0.5977  0.5666  1.1990
 3637TIP3    H210876   5.774   1.698   2.546  0.4321  0.6562 -0.9066
 3638TIP3   OH210877   4.621   6.620   2.085  0.2053 -0.1765 -0.0070
 3638TIP3    H110878   4.685   6.690   2.069  0.5628 -0.3540  0.6157
 3638TIP3    H210879   4.674   6.546   2.115 -0.2045 -0.6262 -0.3765
 3639TIP3   OH210880   2.792   1.702   1.551  0.2919  0.1130  0.2350
 3639TIP3    H110881   2.824   1.776   1.603  1.6955  1.4412 -2.3528
 3639TIP3    H210882   2.870   1.667   1.508 -0.9968  0.3388 -2.4847
 3640TIP3   OH210883   5.237   3.834   2.314  0.0610  0.8439  0.3748
 3640TIP3    H110884   5.331   3.838   2.328  0.3001 -1.0280 -0.3303
 3640TIP3    H210885   5.228   3.823   2.219 -0.8366  0.4299  0.4998
 3641TIP3   OH210886   2.121   6.002   3.367 -0.1544 -0.0560  0.1656
 3641TIP3    H110887   2.136   6.032   3.278 -1.9114  0.5525  0.0459
 3641TIP3    H210888   2.078   6.075   3.411  0.4783 -0.4169  1.4742
 3642TIP3   OH210889   5.106   4.619   5.877  0.1405 -0.0018  0.6207
 3642TIP3    H110890   5.160   4.567   5.817 -0.1837  0.2946  0.0600
 3642TIP3    H210891   5.159   4.697   5.894 -0.3764  0.6158 -0.4822
 3643TIP3   OH210892   2.676   1.443   1.441 -1.0738 -0.0258 -0.4318
 3643TIP3    H110893   2.714   1.393   1.513  0.0033  0.6380 -0.5161
 3643TIP3    H210894   2.751   1.469   1.388 -1.8472 -0.4843 -1.7956
 3644TIP3   OH210895   2.504   4.870   0.802  0.3856  0.5791  0.3692
 3644TIP3    H110896   2.583   4.884   0.855  1.9282  0.0522 -1.6830
 3644TIP3    H210897   2.504   4.776   0.785 -0.4870  0.6338  0.0236
 3645TIP3   OH210898   3.416   4.176   4.085  0.0425 -0.2356 -0.6186
 3645TIP3    H110899   3.477   4.166   4.012 -0.9784  1.2084 -1.7208
 3645TIP3    H210900   3.462   4.233   4.147  0.4614 -0.5171 -0.6669
 3646TIP3   OH210901   2.207   2.949   0.122  0.1328 -0.0427 -0.3111
 3646TIP3    H110902   2.160   2.930   0.203  0.7666  1.6056  0.5081
 3646TIP3    H210903   2.138   2.970   0.058 -0.3194  0.7051  0.4047
 3647TIP3   OH210904   6.602   6.592   3.940 -0.5560  0.1475 -0.1720
 3647TIP3    H110905   6.603   6.547   3.856  2.4455  0.0268 -0.1694
 3647TIP3    H210906   6.666   6.662   3.931 -1.0923  0.9415  1.6296
 3648TIP3   OH210907   6.142   6.637   2.221 -0.1502  0.3804 -0.0604
 3648TIP3    H110908   6.238   6.636   2.214 -0.2165  0.0371 -1.0659
 3648TIP3    H210909   6.123   6.715   2.273  0.5420  2.2203 -2.3741
 3649TIP3   OH210910   0.784   1.255   5.181  0.0326 -0.1643 -0.1174
 3649TIP3    H110911   0.869   1.246   5.139 -0.1082 -1.4344 -0.1722
 3649TIP3    H210912   0.777   1.180   5.240 -1.1521 -0.2559 -0.3320
 3650TIP3   OH210913   1.988   3.146   1.601  0.4516 -0.2020 -0.7962
 3650TIP3    H110914   1.945   3.070   1.562 -1.4215 -0.5655  1.7344
 3650TIP3    H210915   1.928   3.175   1.669  2.1532  2.2103 -0.1944
 3651TIP3   OH210916   4.168   4.259   2.691  0.7377  0.2366 -0.2266
 3651TIP3    H110917   4.125   4.322   2.747  0.6972 -1.0088  1.2036
 3651TIP3    H210918   4.102   4.234   2.627 -0.1239 -0.3516  0.8694
 3652TIP3   OH210919   0.826   3.123   3.126  0.2335  0.1159  0.1345
 3652TIP3    H110920   0.890   3.113   3.056  0.5519  0.9118  0.2972
 3652TIP3    H210921   0.879   3.135   3.205 -0.1133 -1.5776  0.6574
 3653TIP3   OH210922   4.413   2.284   5.050 -0.3397 -0.1402 -0.2528
 3653TIP3    H110923   4.365   2.326   5.122  0.7705  0.5814  0.0883
 3653TIP3    H210924   4.471   2.221   5.093  0.5104  0.4762 -0.4768
 3654TIP3   OH210925   0.586   1.555   0.837 -0.0887  0.1659  0.2478
 3654TIP3    H110926   0.551   1.549   0.748  0.5866  0.2889 -0.0306
 3654TIP3    H210927   0.508   1.560   0.893 -0.5181 -0.0721 -0.3217
 3655TIP3   OH210928   5.039   5.285   4.736  0.4024 -0.5583  0.0025
 3655TIP3    H110929   4.963   5.341   4.750 -0.1734 -1.0681 -1.0042
 3655TIP3    H210930   5.052   5.285   4.641  2.0730  0.0544  0.1857
 3656TIP3   OH210931   5.387   1.403   2.478 -0.3027  0.0063 -0.6746
 3656TIP3    H110932   5.442   1.332   2.512 -0.9998 -1.1795 -1.8988
 3656TIP3    H210933   5.413   1.480   2.528  1.1786 -0.9019  0.0272
 3657TIP3   OH210934   0.570   2.955   3.107 -0.1540 -0.4359 -0.0929
 3657TIP3    H110935   0.557   3.007   3.028 -0.5779 -0.9192 -0.3431
 3657TIP3    H210936   0.656   2.982   3.139  1.3064 -2.1817 -2.2319
 3658TIP3   OH210937   0.554   2.510   1.245 -0.5789  0.0905  0.0589
 3658TIP3    H110938   0.557   2.600   1.211 -0.2711 -0.0303 -0.2304
 3658TIP3    H210939   0.525   2.457   1.171 -0.4131 -0.1019  0.1299
 3659TIP3   OH210940   6.283   3.545   1.643 -0.0506 -0.6764 -0.4416
 3659TIP3    H110941   6.197   3.523   1.678 -0.2787  0.0658 -0.5114
 3659TIP3    H210942   6.291   3.640   1.656  1.0778 -0.8446  0.2640
 3660TIP3   OH210943   3.173   5.045   0.415  0.2313  0.3927  0.2648
 3660TIP3    H110944   3.182   5.071   0.323 -1.0036 -0.1103 -0.0180
 3660TIP3    H210945   3.250   4.991   0.431 -2.1441 -4.4202 -2.2655
 3661TIP3   OH210946   6.300   0.684   2.992 -1.1836  0.4489  0.1986
 3661TIP3    H110947   6.275   0.742   3.064  0.0949  0.5954  0.5577
 3661TIP3    H210948   6.353   0.739   2.934  0.5524 -0.4531  0.8460
 3662TIP3   OH210949   5.451   4.495   4.605 -0.0421  0.0888 -0.0853
 3662TIP3    H110950   5.530   4.443   4.621  0.4497  1.1406  1.0867
 3662TIP3    H210951   5.409   4.452   4.530  0.7208 -1.5275  0.3602
 3663TIP3   OH210952   4.250   2.260   3.118  0.5859 -0.2443 -0.3382
 3663TIP3    H110953   4.238   2.253   3.213 -0.5521 -1.0701 -0.5190
 3663TIP3    H210954   4.260   2.353   3.102 -0.8078  0.0723  0.4433
 3664TIP3   OH210955   3.118   1.712   1.867 -0.3452  0.1700 -0.1236
 3664TIP3    H110956   3.047   1.771   1.890 -0.2648  0.0276  0.5042
 3664TIP3    H210957   3.084   1.661   1.794 -0.1308  1.5247 -1.2071
 3665TIP3   OH210958   3.700   1.762   4.924  0.5037  0.2221 -0.1408
 3665TIP3    H110959   3.653   1.836   4.963 -3.0642 -0.0796 -3.2507
 3665TIP3    H210960   3.702   1.781   4.830  1.6492 -2.5029 -0.7801
 3666TIP3   OH210961   5.474   4.706   1.024  0.3005  0.0097 -0.2459
 3666TIP3    H110962   5.462   4.788   1.072  0.9095 -0.4710  0.7677
 3666TIP3    H210963   5.419   4.642   1.070 -0.1529 -0.1604 -1.0136
 3667TIP3   OH210964   4.129   5.033   5.791  0.0037 -0.3785 -0.1897
 3667TIP3    H110965   4.124   5.105   5.728 -0.7980  0.5486  0.8874
 3667TIP3    H210966   4.222   5.027   5.813  0.1550 -0.0634 -0.7241
 3668TIP3   OH210967   3.541   4.085   3.321  0.0973  0.1198 -0.4667
 3668TIP3    H110968   3.487   4.019   3.365 -0.0697 -0.0630 -0.9465
 3668TIP3    H210969   3.624   4.083   3.369 -0.5173  0.8239  0.6556
 3669TIP3   OH210970   6.515   0.748   2.093 -0.0153  0.6199  0.3474
 3669TIP3    H110971   6.576   0.674   2.093  0.5978  1.1114 -0.1761
 3669TIP3    H210972   6.521   0.783   2.182 -0.3796 -0.0125  0.6256
 3670TIP3   OH210973   4.436   5.799   3.827  0.0905 -0.1761  0.2514
 3670TIP3    H110974   4.401   5.884   3.800 -0.7206 -0.5957 -0.0359
 3670TIP3    H210975   4.528   5.801   3.799 -0.0344  0.4415 -0.1315
 3671TIP3   OH210976   2.690   6.419   2.882  0.4907  0.1436 -0.6373
 3671TIP3    H110977   2.627   6.352   2.855 -1.4683  1.1648  1.1168
 3671TIP3    H210978   2.768   6.369   2.906  0.1216 -1.2439 -2.1064
 3672TIP3   OH210979   0.506   1.150   2.296  0.6593  0.4570  0.3130
 3672TIP3    H110980   0.548   1.091   2.359  1.5595  1.3339  0.5482
 3672TIP3    H210981   0.575   1.211   2.270  0.1599  0.4536 -1.1228
 3673TIP3   OH210982   5.190   4.381   0.625  0.7782 -0.1554  0.3135
 3673TIP3    H110983   5.241   4.407   0.702 -0.4834 -0.0938  1.1621
 3673TIP3    H210984   5.167   4.289   0.641 -1.2524  0.4132  1.0926
 3674TIP3   OH210985   1.519   5.599   4.804  0.0343 -0.2877 -0.4792
 3674TIP3    H110986   1.552   5.614   4.715  3.0639 -0.9394  0.4164
 3674TIP3    H210987   1.530   5.683   4.848 -0.3097 -0.2944 -0.3763
 3675TIP3   OH210988   1.712   2.097   4.721  0.0234 -0.0436  0.3721
 3675TIP3    H110989   1.716   2.138   4.808  1.7249  0.9536 -0.1350
 3675TIP3    H210990   1.694   2.169   4.661 -0.7017 -0.6601 -0.1786
 3676TIP3   OH210991   6.258   6.078   0.769 -0.0215  0.0473  0.2175
 3676TIP3    H110992   6.337   6.130   0.750 -0.3986  0.6289  0.2131
 3676TIP3    H210993   6.190   6.143   0.787 -0.5050 -0.4481  0.2142
 3677TIP3   OH210994   5.313   6.638   0.733  0.3287  0.3702  0.4073
 3677TIP3    H110995   5.267   6.672   0.657 -0.1571  1.9928  1.3711
 3677TIP3    H210996   5.402   6.675   0.726  1.5448 -2.5417 -1.3112
 3678TIP3   OH210997   4.744   3.707   2.139 -0.5184  0.0229 -0.0346
 3678TIP3    H110998   4.709   3.745   2.058  1.2439 -0.4152 -1.0706
 3678TIP3    H210999   4.765   3.617   2.115 -0.3004 -0.2185  1.0336
 3679TIP3   OH211000   0.666   4.417   2.130  0.0018  0.3001 -0.1906
 3679TIP3    H111001   0.745   4.392   2.082  0.0727  0.0640  0.0526
 3679TIP3    H211002   0.598   4.357   2.099 -0.2323  0.8958 -0.8513
 3680TIP3   OH211003   5.799   0.664   3.757 -0.3050  0.6634 -0.2584
 3680TIP3    H111004   5.714   0.677   3.798 -0.6181  1.5358 -1.1485
 3680TIP3    H211005   5.833   0.584   3.797 -0.3471  1.7503  2.0667
 3681TIP3   OH211006   3.900   6.677   4.578  0.9524 -0.1878  0.5351
 3681TIP3    H111007   3.873   6.585   4.578  1.8530 -0.4746  1.1860
 3681TIP3    H211008   3.929   6.693   4.489  0.8984 -0.5726  0.4448
 3682TIP3   OH211009   4.128   6.051   3.885  0.1438  0.4438 -0.3740
 3682TIP3    H111010   4.113   6.145   3.880  1.0214  0.5145 -2.6119
 3682TIP3    H211011   4.205   6.036   3.831  0.0627 -1.5596 -0.0013
 3683TIP3   OH211012   4.797   6.774   4.658 -0.3069  0.3883  0.0802
 3683TIP3    H111013   4.764   6.736   4.740  0.6555 -1.6636 -0.4238
 3683TIP3    H211014   4.882   6.732   4.645 -1.2844 -0.8457 -2.9700
 3684TIP3   OH211015   3.088   5.465   4.057 -0.0740  0.1885  0.9405
 3684TIP3    H111016   3.149   5.395   4.034 -0.1956  0.5257 -0.4746
 3684TIP3    H211017   3.067   5.450   4.149  1.9160 -0.0982  1.3739
 3685TIP3   OH211018   0.682   4.171   0.093  0.6004 -0.6434  0.1432
 3685TIP3    H111019   0.635   4.098   0.052 -1.6205 -0.6410  2.4311
 3685TIP3    H211020   0.748   4.129   0.148  0.2744 -0.9020  0.3467
 3686TIP3   OH211021   3.851   1.444   5.552 -0.0512 -0.5218 -0.0434
 3686TIP3    H111022   3.867   1.350   5.542  0.5413 -0.2913 -1.4981
 3686TIP3    H211023   3.756   1.451   5.557 -0.0607 -1.4583  3.5726
 3687TIP3   OH211024   2.971   1.301   0.915  0.5816 -0.4856 -0.5862
 3687TIP3    H111025   2.958   1.254   0.997  2.3357 -0.0577 -0.0337
 3687TIP3    H211026   2.983   1.231   0.850  1.4254 -0.8355 -0.0769
 3688TIP3   OH211027   0.321   1.112   0.260  0.1823 -0.6520  0.4056
 3688TIP3    H111028   0.402   1.098   0.212 -0.9402  1.2119 -2.2784
 3688TIP3    H211029   0.315   1.207   0.270 -1.4913 -0.7683  0.8677
 3689TIP3   OH211030   6.276   0.807   3.253 -0.5805  0.3955 -0.0415
 3689TIP3    H111031   6.316   0.874   3.309  0.5887  0.6694 -1.1493
 3689TIP3    H211032   6.230   0.749   3.313  1.6244 -0.0254  1.3559
 3690TIP3   OH211033   2.031   0.281   0.061  0.6265  0.0679  0.1665
 3690TIP3    H111034   2.083   0.280   0.141  0.2514 -0.8193  0.4070
 3690TIP3    H211035   2.030   0.373   0.035  3.2889 -0.0127 -0.5051
 3691TIP3   OH211036   7.094   4.156   0.566  0.7678 -0.0906  0.3992
 3691TIP3    H111037   7.061   4.075   0.604 -0.7316  0.3791  0.1493
 3691TIP3    H211038   7.164   4.128   0.506  2.4010 -0.9268  2.5683
 3692TIP3   OH211039   4.743   2.720   5.067 -0.3816  0.2384 -0.1781
 3692TIP3    H111040   4.728   2.627   5.051 -1.1961  0.4251 -0.5592
 3692TIP3    H211041   4.753   2.758   4.979  1.3896  0.3020  0.0066
 3693TIP3   OH211042   6.640   5.847   5.845 -0.0055  0.3389  0.3424
 3693TIP3    H111043   6.659   5.783   5.776 -0.0686  0.2520  0.4056
 3693TIP3    H211044   6.718   5.845   5.901  0.1945  0.6576  0.0865
 3694TIP3   OH211045   4.662   1.606   3.614 -0.2622 -0.0553  0.1345
 3694TIP3    H111046   4.573   1.607   3.578 -0.8684  2.0790  1.5240
 3694TIP3    H211047   4.717   1.637   3.543 -0.6937 -0.7996 -0.5421
 3695TIP3   OH211048   0.774   6.299   4.463 -0.2872  0.1547 -0.2601
 3695TIP3    H111049   0.734   6.239   4.400 -0.3236 -1.0565  0.8728
 3695TIP3    H211050   0.865   6.305   4.436 -0.7590  1.4345 -1.7328
 3696TIP3   OH211051   5.847   3.949   0.579  0.1687  0.3755 -0.6222
 3696TIP3    H111052   5.873   3.936   0.670  0.0808  1.6942 -0.3926
 3696TIP3    H211053   5.759   3.985   0.583  0.0024  0.0527 -1.2417
 3697TIP3   OH211054   2.971   3.877   4.056  0.2048 -0.0943  0.1066
 3697TIP3    H111055   2.987   3.938   3.983 -0.8499 -0.5665 -0.5432
 3697TIP3    H211056   2.991   3.791   4.020 -0.2895 -0.3283  0.3848
 3698TIP3   OH211057   5.435   1.846   1.885  0.2627 -0.2424 -0.0650
 3698TIP3    H111058   5.449   1.895   1.966 -1.1508  0.0357  0.0367
 3698TIP3    H211059   5.488   1.767   1.895  0.1142 -0.2097  1.1269
 3699TIP3   OH211060   1.695   1.497   2.913 -0.6568 -0.3345  0.5478
 3699TIP3    H111061   1.718   1.582   2.874 -1.6452  0.0274  0.7297
 3699TIP3    H211062   1.683   1.516   3.006  1.6326 -1.1844  1.0786
 3700TIP3   OH211063   0.268   2.475   3.812 -0.2507  0.6781 -0.2238
 3700TIP3    H111064   0.310   2.406   3.760 -2.9563 -0.9775 -0.4104
 3700TIP3    H211065   0.228   2.533   3.747  1.7250  2.3279 -0.0551
 3701TIP3   OH211066   1.797   0.904   3.502 -0.7218 -0.2862 -0.0365
 3701TIP3    H111067   1.889   0.915   3.478 -0.5387  0.7915  1.0223
 3701TIP3    H211068   1.799   0.846   3.578 -0.9682 -0.6156 -0.2763
 3702TIP3   OH211069   6.388   6.654   3.135 -0.3733 -0.5995  0.0181
 3702TIP3    H111070   6.387   6.562   3.162 -1.4910 -0.8939 -0.9437
 3702TIP3    H211071   6.348   6.654   3.048  0.2420  0.7173 -0.2836
 3703TIP3   OH211072   2.460   6.750   3.685  0.5713 -0.9286  0.4099
 3703TIP3    H111073   2.396   6.807   3.727 -0.4916 -1.7910  0.0128
 3703TIP3    H211074   2.518   6.722   3.756 -0.0105 -0.8264  0.9336
 3704TIP3   OH211075   0.198   0.381   5.430 -0.2760  0.3308 -0.1334
 3704TIP3    H111076   0.275   0.335   5.464 -1.1563 -1.9392 -1.0321
 3704TIP3    H211077   0.226   0.473   5.424  2.1201 -0.3100  0.2152
 3705TIP3   OH211078   4.359   3.515   1.369  0.3621  0.3290  0.2059
 3705TIP3    H111079   4.403   3.590   1.409 -1.1466  1.4288 -0.0858
 3705TIP3    H211080   4.292   3.554   1.312 -1.0162 -1.2220  0.6631
 3706TIP3   OH211081   3.908   0.313   0.803 -0.1159 -0.0700  0.4858
 3706TIP3    H111082   3.935   0.222   0.815  2.8954 -0.0754 -4.0497
 3706TIP3    H211083   3.985   0.365   0.825 -0.9567  1.2329  0.5370
 3707TIP3   OH211084   2.323   0.487   0.285  0.1020 -0.1256 -0.2709
 3707TIP3    H111085   2.302   0.438   0.364 -1.8477 -0.3588 -0.8602
 3707TIP3    H211086   2.416   0.473   0.271  0.1425 -1.4262  1.0680
 3708TIP3   OH211087   1.157   2.201   0.405 -0.2594  0.2965 -0.0781
 3708TIP3    H111088   1.194   2.123   0.446  0.1369  0.8526  0.6452
 3708TIP3    H211089   1.163   2.184   0.311 -0.7775 -0.8099  0.0831
 3709TIP3   OH211090   2.685   2.461   1.561 -0.4548 -0.4852  0.3144
 3709TIP3    H111091   2.756   2.397   1.570  0.2902  0.4697  1.6574
 3709TIP3    H211092   2.608   2.416   1.595 -0.5236 -1.5050 -1.0758
 3710TIP3   OH211093   4.815   1.601   2.202 -0.4957  1.4411  0.2818
 3710TIP3    H111094   4.869   1.538   2.155 -1.2418  0.1753  1.0571
 3710TIP3    H211095   4.739   1.550   2.232 -0.7571  2.5310  1.5807
 3711TIP3   OH211096   3.031   1.841   4.258  0.0311 -0.0704 -0.0131
 3711TIP3    H111097   3.017   1.806   4.346 -0.6544  1.8081  0.6901
 3711TIP3    H211098   2.950   1.820   4.210 -1.9563  3.2976  1.4483
 3712TIP3   OH211099   0.801   4.189   1.820  1.0182 -0.0629  0.3047
 3712TIP3    H111100   0.782   4.099   1.843 -0.0984  0.1183  0.1135
 3712TIP3    H211101   0.812   4.188   1.724  0.4645  0.0892  0.2350
 3713TIP3   OH211102   6.146   2.999   1.019  0.2756 -0.4058 -0.5564
 3713TIP3    H111103   6.200   3.024   0.944  0.0745 -0.0627 -0.5887
 3713TIP3    H211104   6.195   3.031   1.095 -0.4864  1.0535 -0.6513
 3714TIP3   OH211105   5.203   3.938   5.801 -0.2179 -0.2177 -0.1920
 3714TIP3    H111106   5.122   3.986   5.819  0.6010  1.8339 -1.6943
 3714TIP3    H211107   5.201   3.922   5.707  1.2319  0.0615 -0.2911
 3715TIP3   OH211108   3.275   0.123   5.565  0.0987  0.1430 -0.2298
 3715TIP3    H111109   3.336   0.070   5.615  0.6429  0.9518 -0.0176
 3715TIP3    H211110   3.227   0.173   5.631  0.5659  0.9478 -0.4863
 3716TIP3   OH211111   2.226   1.395   3.746 -0.0327  0.0550 -0.3230
 3716TIP3    H111112   2.191   1.432   3.665  0.7090  0.4641 -0.4664
 3716TIP3    H211113   2.249   1.305   3.723 -1.1893 -0.2989 -0.1608
 3717TIP3   OH211114   5.125   5.673   1.761 -0.2671 -0.0144  0.9178
 3717TIP3    H111115   5.095   5.585   1.737 -1.9012  0.9483 -0.8243
 3717TIP3    H211116   5.219   5.673   1.741  0.0571 -1.7029  2.1628
 3718TIP3   OH211117   0.300   1.619   2.675  0.3581 -0.0443 -0.3579
 3718TIP3    H111118   0.323   1.661   2.758 -0.1586 -0.0134 -0.2293
 3718TIP3    H211119   0.224   1.668   2.644 -0.5672 -1.1777  0.0312
 3719TIP3   OH211120   5.405   4.802   1.733 -0.9173 -0.5707 -0.2162
 3719TIP3    H111121   5.395   4.808   1.638 -0.2702 -0.3716 -0.2756
 3719TIP3    H211122   5.491   4.761   1.745 -0.8214 -0.2240  0.2892
 3720TIP3   OH211123   5.149   4.223   4.681  0.0264  0.2457  0.4927
 3720TIP3    H111124   5.226   4.221   4.737  1.0294 -2.9392 -0.7886
 3720TIP3    H211125   5.173   4.280   4.609  0.7790  0.1679  0.6707
 3721TIP3   OH211126   0.418   3.586   2.391 -0.1330 -0.0872  0.1485
 3721TIP3    H111127   0.506   3.620   2.407 -0.8223  1.2176  1.3520
 3721TIP3    H211128   0.419   3.499   2.432  0.4714  0.0826  0.5035
 3722TIP3   OH211129   2.702   1.949   0.015  0.2172  0.1051  0.6557
 3722TIP3    H111130   2.763   1.923   0.084  0.7894  0.2693  0.2158
 3722TIP3    H211131   2.633   1.883   0.020  0.9117 -0.6535  0.5262
 3723TIP3   OH211132   1.154   5.497   2.768 -0.3770 -0.6437 -0.5028
 3723TIP3    H111133   1.113   5.506   2.854  0.4857 -0.0206 -0.1393
 3723TIP3    H211134   1.145   5.405   2.746  0.9436 -1.1802  1.0686
 3724TIP3   OH211135   3.855   4.109   4.504  0.1622  0.3622 -0.6855
 3724TIP3    H111136   3.881   4.018   4.519  0.3026  0.5454  0.2357
 3724TIP3    H211137   3.760   4.109   4.517  0.3757  0.6750  1.1706
 3725TIP3   OH211138   2.745   0.795   5.221 -0.1590  0.0245  0.2162
 3725TIP3    H111139   2.757   0.873   5.166 -2.3842  0.0294 -0.3315
 3725TIP3    H211140   2.790   0.726   5.173  2.9683  1.1055  1.3192
 3726TIP3   OH211141   3.901   6.686   1.346  0.3456  0.2001 -0.1845
 3726TIP3    H111142   3.834   6.662   1.410  0.0050  1.3288 -0.0966
 3726TIP3    H211143   3.930   6.602   1.309  2.0191 -0.6889  2.8723
 3727TIP3   OH211144   6.352   0.146   0.982  0.1782 -0.2829  0.3252
 3727TIP3    H111145   6.448   0.144   0.976  0.2071 -0.6615  0.8357
 3727TIP3    H211146   6.326   0.219   0.925  0.8778  0.8717  1.4128
 3728TIP3   OH211147   3.601   6.733   3.187  0.5087 -0.2595  0.4364
 3728TIP3    H111148   3.547   6.666   3.228  0.1510 -0.9892 -1.1444
 3728TIP3    H211149   3.551   6.814   3.198  0.5230 -0.3895  1.5850
 3729TIP3   OH211150   5.073   1.613   4.525 -0.3810  1.1686  0.0332
 3729TIP3    H111151   5.030   1.531   4.503  1.5679 -0.1434  0.8912
 3729TIP3    H211152   5.114   1.642   4.444  3.0555 -1.3539  0.6415
 3730TIP3   OH211153   4.734   1.201   2.071  0.5200  0.0061  0.1725
 3730TIP3    H111154   4.683   1.121   2.077 -0.0326  0.4371  1.4806
 3730TIP3    H211155   4.824   1.171   2.057  0.2088 -0.8084 -0.1424
 3731TIP3   OH211156   2.606   5.487   0.208  0.3235 -0.5049 -0.4486
 3731TIP3    H111157   2.584   5.570   0.165 -0.7285  0.0604  1.0984
 3731TIP3    H211158   2.693   5.502   0.245 -0.4458  0.4938  1.0800
 3732TIP3   OH211159   7.075   2.608   5.711 -0.0214 -0.4808  0.0763
 3732TIP3    H111160   7.125   2.527   5.703 -0.2199 -0.6028  0.0594
 3732TIP3    H211161   7.020   2.610   5.633  0.5604  0.0729 -0.3286
 3733TIP3   OH211162   0.647   0.717   1.587 -0.1242  0.5164  0.0912
 3733TIP3    H111163   0.625   0.782   1.654  1.2937 -0.5878  1.7183
 3733TIP3    H211164   0.572   0.658   1.585  0.5302 -0.4663  2.0847
 3734TIP3   OH211165   3.801   1.482   4.804 -0.2845  0.1893  0.2182
 3734TIP3    H111166   3.741   1.552   4.828  0.7107  0.8498  0.8644
 3734TIP3    H211167   3.831   1.505   4.716  0.3068  0.7988  0.5612
 3735TIP3   OH211168   4.619   5.039   3.483 -0.0977  0.7635  0.1704
 3735TIP3    H111169   4.549   5.057   3.420  1.2103 -1.8181 -2.2611
 3735TIP3    H211170   4.681   4.984   3.435  1.7565 -0.1865  3.3402
 3736TIP3   OH211171   4.624   6.317   3.379 -0.7000 -0.1756 -0.4887
 3736TIP3    H111172   4.632   6.304   3.284  0.7606 -1.1909 -0.2525
 3736TIP3    H211173   4.595   6.408   3.388 -1.4156 -0.2260 -1.9208
 3737TIP3   OH211174   2.611   4.525   3.995 -0.0055  0.1672  0.0855
 3737TIP3    H111175   2.561   4.550   4.072  0.1277  0.0205  0.2196
 3737TIP3    H211176   2.668   4.454   4.025 -0.2609 -0.1795 -0.2520
 3738TIP3   OH211177   2.551   2.755   0.001  0.0621  0.5908  0.5445
 3738TIP3    H111178   2.501   2.674  -0.001 -0.8613  1.1194  1.1559
 3738TIP3    H211179   2.636   2.731   0.038  0.0317 -0.2037  0.1104
 3739TIP3   OH211180   6.591   3.129   0.816 -0.2311  0.3011 -0.0653
 3739TIP3    H111181   6.528   3.057   0.815 -1.2625  1.1718 -1.2214
 3739TIP3    H211182   6.538   3.206   0.836  0.4351  1.0738 -1.1686
 3740TIP3   OH211183   2.951   4.305   3.929  0.4221 -0.3825  0.0372
 3740TIP3    H111184   3.034   4.333   3.968  0.6161 -0.9654  0.0522
 3740TIP3    H211185   2.975   4.231   3.872  0.4164  1.4414 -2.4906
 3741TIP3   OH211186   2.104   6.553   2.464 -0.2544  0.1724  0.2431
 3741TIP3    H111187   2.065   6.504   2.391 -0.0294  1.8091 -1.0430
 3741TIP3    H211188   2.199   6.546   2.449 -0.2222  0.9456  0.0791
 3742TIP3   OH211189   5.420   6.054   3.956  0.3783  0.0995 -0.3935
 3742TIP3    H111190   5.418   6.033   3.862 -0.2078 -3.0685  0.1965
 3742TIP3    H211191   5.487   5.995   3.992  0.0316  0.6819  1.3005
 3743TIP3   OH211192   3.394   3.431   2.628 -0.2888 -0.5940 -0.5111
 3743TIP3    H111193   3.429   3.417   2.716 -1.0194  0.4379 -0.0263
 3743TIP3    H211194   3.469   3.424   2.570 -0.1353 -3.7409 -0.1260
 3744TIP3   OH211195   1.008   4.900   3.542  0.2137  0.2545  0.1838
 3744TIP3    H111196   0.998   4.950   3.623  0.6571 -0.4213  0.6631
 3744TIP3    H211197   0.923   4.906   3.499 -0.1102  0.3887  0.8301
 3745TIP3   OH211198   3.391   0.796   4.028 -0.4150 -0.3377 -0.5166
 3745TIP3    H111199   3.432   0.839   3.953 -1.8851  1.6835 -0.2661
 3745TIP3    H211200   3.307   0.765   3.994 -0.5561 -0.5151 -0.0034
 3746TIP3   OH211201   4.789   3.351   5.395 -0.0606 -0.7582  0.0510
 3746TIP3    H111202   4.856   3.283   5.395  0.5117 -0.2307  1.2114
 3746TIP3    H211203   4.725   3.320   5.459 -1.2871 -1.5657 -1.5034
 3747TIP3   OH211204   6.483   2.940   3.858 -0.4651 -0.1175  0.1061
 3747TIP3    H111205   6.490   2.857   3.904 -1.4249  0.2911  1.0482
 3747TIP3    H211206   6.562   2.945   3.804 -0.2240 -1.4600  0.3104
 3748TIP3   OH211207   1.740   2.546   3.678  0.1417 -0.6249 -0.2373
 3748TIP3    H111208   1.832   2.574   3.674 -0.3747  1.2877  0.3179
 3748TIP3    H211209   1.691   2.626   3.697 -1.3560 -2.0250  2.5359
 3749TIP3   OH211210   1.177   4.177   2.033  0.2575 -0.5596 -0.0925
 3749TIP3    H111211   1.176   4.233   2.110  1.6002 -1.1520  0.3844
 3749TIP3    H211212   1.262   4.132   2.036  0.7691  0.0942 -2.4270
 3750TIP3   OH211213   1.348   0.503   4.585 -0.1439 -0.7541 -0.1590
 3750TIP3    H111214   1.273   0.558   4.562 -0.6841 -0.8163  1.3468
 3750TIP3    H211215   1.318   0.414   4.568  0.2211 -0.6957 -1.2028
 3751TIP3   OH211216   5.806   0.719   1.629  0.8989 -0.1970  0.3935
 3751TIP3    H111217   5.756   0.785   1.678  1.0074 -0.1881  0.4951
 3751TIP3    H211218   5.807   0.751   1.539  1.9294  0.5490  0.6475
 3752TIP3   OH211219   0.840   5.941   3.203 -0.5802 -0.3202 -0.2478
 3752TIP3    H111220   0.842   5.981   3.290  0.2204  1.6891 -1.1229
 3752TIP3    H211221   0.864   5.849   3.218  1.0371  0.3173  1.5026
 3753TIP3   OH211222   6.954   0.850   0.345  0.3927 -0.3240  0.4404
 3753TIP3    H111223   6.900   0.927   0.363  2.0293  1.0690 -0.2780
 3753TIP3    H211224   6.902   0.797   0.285  0.2721  1.6130 -1.2892
 3754TIP3   OH211225   3.250   3.007   2.642 -0.2853  0.3792  0.1835
 3754TIP3    H111226   3.156   2.993   2.645 -0.2158 -0.3934 -0.7690
 3754TIP3    H211227   3.273   3.038   2.730 -1.3764  0.3069  0.5019
 3755TIP3   OH211228   1.847   1.429   4.123  0.0126 -0.6902 -0.0298
 3755TIP3    H111229   1.886   1.457   4.040  0.6969  0.8769  0.7813
 3755TIP3    H211230   1.772   1.488   4.135 -0.2550 -1.0981  0.3130
 3756TIP3   OH211231   1.342   3.109   4.716  0.1670 -1.0230  0.2204
 3756TIP3    H111232   1.431   3.102   4.749  0.3853 -1.3970 -0.4305
 3756TIP3    H211233   1.351   3.159   4.634 -0.2439 -0.8973  0.2487
 3757TIP3   OH211234   4.130   5.331   3.669 -0.9486  0.1873  0.2768
 3757TIP3    H111235   4.143   5.329   3.764 -0.9447 -0.2860  0.2673
 3757TIP3    H211236   4.043   5.371   3.657 -1.3486 -0.6020  0.5195
 3758TIP3   OH211237   0.406   6.687   0.432  0.5331 -0.2360  0.3542
 3758TIP3    H111238   0.343   6.623   0.400  0.1522  0.1848  0.2702
 3758TIP3    H211239   0.408   6.673   0.527  0.9379 -0.8137  0.2676
 3759TIP3   OH211240   5.753   2.420   0.437 -0.1191 -1.0299  0.2801
 3759TIP3    H111241   5.750   2.417   0.341 -0.1252 -1.2459  0.2850
 3759TIP3    H211242   5.706   2.499   0.461  1.3734 -0.0144  0.0280
 3760TIP3   OH211243   3.796   6.340   0.845  0.0035  0.1532 -0.6205
 3760TIP3    H111244   3.840   6.256   0.844  2.3725  1.3252 -1.3864
 3760TIP3    H211245   3.836   6.390   0.774  1.4575  3.2478  2.0976
 3761TIP3   OH211246   4.116   5.491   0.147 -0.5876  0.3872  0.7449
 3761TIP3    H111247   4.104   5.536   0.230 -0.2701  0.3663  0.8014
 3761TIP3    H211248   4.034   5.505   0.100 -1.8157 -1.7629  2.0697
 3762TIP3   OH211249   4.353   1.061   1.881 -0.3342 -0.1036  1.2344
 3762TIP3    H111250   4.443   1.040   1.907  0.0126 -0.9196 -0.4745
 3762TIP3    H211251   4.300   0.991   1.919 -0.0146 -0.5182  0.9365
 3763TIP3   OH211252   6.718   2.756   4.726  0.0465 -0.2290 -0.2710
 3763TIP3    H111253   6.678   2.753   4.812 -1.7636 -0.6714 -1.0917
 3763TIP3    H211254   6.809   2.728   4.741 -0.0407  0.3252  1.5534
 3764TIP3   OH211255   5.742   1.806   4.737  0.1110  0.6133  0.8032
 3764TIP3    H111256   5.654   1.775   4.756  0.0324  0.1000 -0.3259
 3764TIP3    H211257   5.787   1.730   4.699 -0.0880  1.7698 -2.0234
 3765TIP3   OH211258   5.151   4.664   2.182 -0.3050 -0.5021  0.1784
 3765TIP3    H111259   5.180   4.630   2.267 -2.0795  1.4211  1.6385
 3765TIP3    H211260   5.151   4.759   2.193  1.2676 -0.0661 -2.6511
 3766TIP3   OH211261   5.585   4.193   5.470 -0.5578  0.2209  0.1407
 3766TIP3    H111262   5.583   4.116   5.414 -1.2290  1.1449 -1.1742
 3766TIP3    H211263   5.603   4.266   5.410  1.6207  0.9476  1.5451
 3767TIP3   OH211264   7.152   1.787   0.427  0.3691  0.0806  0.0789
 3767TIP3    H111265   7.112   1.713   0.382  1.9554 -0.6108 -0.2799
 3767TIP3    H211266   7.082   1.853   0.433 -1.4129 -1.8163  1.4159
 3768TIP3   OH211267   6.135   5.103   1.226 -0.0921  0.9693  0.7137
 3768TIP3    H111268   6.141   5.023   1.277 -0.6648 -1.0727 -2.1623
 3768TIP3    H211269   6.212   5.154   1.253  2.3612 -2.1457  0.2435
 3769TIP3   OH211270   2.521   6.386   4.554  0.2241  0.5326  0.3920
 3769TIP3    H111271   2.504   6.362   4.645 -0.1201 -0.0249  0.1855
 3769TIP3    H211272   2.452   6.449   4.533 -0.4291 -0.2524  0.1514
 3770TIP3   OH211273   5.934   2.838   0.877 -0.0364 -0.2721 -0.6183
 3770TIP3    H111274   5.870   2.794   0.934 -0.9300  1.1781 -0.4420
 3770TIP3    H211275   5.992   2.884   0.937 -2.0363  2.7218 -0.7667
 3771TIP3   OH211276   4.268   1.418   2.566  0.4627  0.2060  0.3881
 3771TIP3    H111277   4.219   1.345   2.528 -3.0751  1.8344  1.3534
 3771TIP3    H211278   4.248   1.493   2.510  2.1511  0.9366  0.6936
 3772TIP3   OH211279   5.578   4.667   1.354 -0.0447  0.1447  0.2730
 3772TIP3    H111280   5.523   4.623   1.288  1.4386 -0.2072 -0.7879
 3772TIP3    H211281   5.667   4.638   1.333  0.7998  2.3175  0.6323
 3773TIP3   OH211282   3.169   1.070   1.299 -0.3004  0.1686 -0.5347
 3773TIP3    H111283   3.168   1.148   1.243  1.4897  1.2394  0.8180
 3773TIP3    H211284   3.127   1.098   1.380  0.1211 -0.3449 -0.1318
 3774TIP3   OH211285   0.432   5.104   3.184  0.0031  0.4669 -0.0942
 3774TIP3    H111286   0.460   5.177   3.128 -0.8199  0.0503 -1.0731
 3774TIP3    H211287   0.460   5.026   3.138  0.3325  0.1382  0.6515
 3775TIP3   OH211288   4.000   2.442   1.339 -0.4063 -0.8033  0.0748
 3775TIP3    H111289   4.064   2.446   1.410  1.4808 -2.5425 -1.4346
 3775TIP3    H211290   3.988   2.348   1.322 -0.2917 -0.4584 -2.2956
 3776TIP3   OH211291   4.341   5.155   2.413 -0.2000  0.2379 -0.1256
 3776TIP3    H111292   4.270   5.172   2.475 -1.6450  0.7239 -1.8003
 3776TIP3    H211293   4.345   5.234   2.360 -0.3284 -0.8508 -1.8417
 3777TIP3   OH211294   6.385   5.927   2.850  0.0557 -0.6555 -0.0392
 3777TIP3    H111295   6.319   5.996   2.846  0.1463 -0.3992  2.1157
 3777TIP3    H211296   6.334   5.846   2.848 -0.5659 -0.4701  3.1202
 3778TIP3   OH211297   0.844   1.261   1.658 -0.4164  0.4965 -0.0990
 3778TIP3    H111298   0.902   1.337   1.660  1.6724 -0.9865 -0.1034
 3778TIP3    H211299   0.867   1.216   1.577 -1.1370 -0.4590  0.2103
 3779TIP3   OH211300   0.437   6.062   3.089  0.0481 -0.0725 -0.4847
 3779TIP3    H111301   0.449   5.993   3.023 -0.4100 -0.3762 -0.2548
 3779TIP3    H211302   0.525   6.093   3.107  0.0928  1.0820 -2.3634
 3780TIP3   OH211303   1.033   0.574   4.274  0.5933  0.2266 -0.2724
 3780TIP3    H111304   1.040   0.592   4.368  0.5221 -0.5058 -0.1128
 3780TIP3    H211305   1.007   0.657   4.235  0.4562  0.4986  0.3812
 3781TIP3   OH211306   2.561   1.025   0.346 -0.2327  0.4668 -0.3151
 3781TIP3    H111307   2.527   1.067   0.425 -0.2124  0.3584 -0.2483
 3781TIP3    H211308   2.653   1.009   0.365  0.1437  1.7749 -0.9174
 3782TIP3   OH211309   0.605   4.479   5.348 -0.3347 -0.0839 -0.1732
 3782TIP3    H111310   0.617   4.412   5.281  1.1166  0.0169 -0.0630
 3782TIP3    H211311   0.590   4.560   5.298  0.6714 -0.0214 -0.3941
 3783TIP3   OH211312   6.840   4.354   1.032 -0.1037  0.1337 -0.6177
 3783TIP3    H111313   6.893   4.359   0.953  0.8880  1.3303  0.0787
 3783TIP3    H211314   6.792   4.437   1.034 -1.9101 -0.8292 -1.1171
 3784TIP3   OH211315   2.448   1.793   3.452  1.0126 -0.2747 -0.5368
 3784TIP3    H111316   2.473   1.844   3.375  1.9473 -1.1918 -0.8637
 3784TIP3    H211317   2.525   1.739   3.471  0.2282 -1.2177  0.0700
 3785TIP3   OH211318   6.915   5.259   0.343  0.5818 -0.0166 -0.5415
 3785TIP3    H111319   6.893   5.167   0.361  0.8158 -0.0763 -0.5552
 3785TIP3    H211320   6.831   5.303   0.334  0.4566 -0.3971 -1.3699
 3786TIP3   OH211321   6.959   5.907   0.102 -0.0296 -0.2399 -0.1588
 3786TIP3    H111322   6.949   5.813   0.088 -0.2733 -0.0337 -1.4459
 3786TIP3    H211323   6.908   5.925   0.182 -1.9261 -0.8288 -1.1871
 3787TIP3   OH211324   2.895   6.504   0.902 -0.4325 -0.2255 -0.5066
 3787TIP3    H111325   2.943   6.502   0.985  0.9152  0.3234 -1.2432
 3787TIP3    H211326   2.932   6.577   0.854 -1.7329 -0.0547 -1.3048
 3788TIP3   OH211327   4.130   3.610   1.863  0.7154 -0.7610 -0.6399
 3788TIP3    H111328   4.120   3.625   1.957 -0.2362 -1.5664 -0.6028
 3788TIP3    H211329   4.132   3.515   1.854  0.8571 -0.6870 -1.4365
 3789TIP3   OH211330   2.880   0.324   4.142 -0.6089  0.1170  0.4392
 3789TIP3    H111331   2.882   0.403   4.195 -0.9646 -0.0395  0.6846
 3789TIP3    H211332   2.887   0.252   4.204 -0.5807 -0.0564  0.2393
 3790TIP3   OH211333   5.850   4.515   5.598 -0.5010  0.0143  0.5193
 3790TIP3    H111334   5.787   4.541   5.531 -0.7883 -0.9783  0.3912
 3790TIP3    H211335   5.925   4.482   5.548 -0.4102 -0.0272  0.6838
 3791TIP3   OH211336   1.922   5.957   0.927  0.0885  0.0703  0.1394
 3791TIP3    H111337   1.856   6.004   0.876 -0.8644 -2.1021 -0.7352
 3791TIP3    H211338   1.882   5.873   0.948  2.3376 -1.1098  0.0915
 3792TIP3   OH211339   3.877   3.689   1.296 -0.1711  0.1382 -0.4149
 3792TIP3    H111340   3.857   3.766   1.350 -2.9071  0.1706 -1.3321
 3792TIP3    H211341   3.901   3.622   1.360 -1.4294  0.7237  0.7446
 3793TIP3   OH211342   0.203   4.854   3.113  0.6474 -0.5342 -0.7476
 3793TIP3    H111343   0.190   4.937   3.159 -0.2237 -0.8479 -0.4059
 3793TIP3    H211344   0.280   4.869   3.059  1.6395 -0.1166  0.7201
 3794TIP3   OH211345   3.719   6.321   3.472  0.2591  0.7564  0.4291
 3794TIP3    H111346   3.651   6.385   3.452 -1.1195 -0.4777  1.0114
 3794TIP3    H211347   3.754   6.296   3.386 -2.9844 -1.6909 -0.3458
 3795TIP3   OH211348   2.883   4.225   0.143 -0.0065 -0.0417  0.0670
 3795TIP3    H111349   2.950   4.162   0.170  1.7061  2.2468  1.5325
 3795TIP3    H211350   2.909   4.307   0.184 -3.2381  1.2103 -0.0676
 3796TIP3   OH211351   1.143   4.782   1.410 -0.1662 -0.1539 -0.2167
 3796TIP3    H111352   1.111   4.815   1.494  0.7810  0.5029 -0.0986
 3796TIP3    H211353   1.192   4.702   1.432 -1.0267 -0.7229 -0.3100
 3797TIP3   OH211354   4.147   6.311   3.820 -0.7488  0.0714  0.4286
 3797TIP3    H111355   4.123   6.351   3.736  0.6626  0.0025 -0.0409
 3797TIP3    H211356   4.242   6.324   3.826 -0.4307 -2.0748  0.8475
 3798TIP3   OH211357   4.814   0.200   1.361 -0.5658 -0.3434 -0.2279
 3798TIP3    H111358   4.893   0.227   1.315 -0.1855 -1.7551 -0.4380
 3798TIP3    H211359   4.754   0.274   1.350  0.3293  0.2976 -0.9943
 3799TIP3   OH211360   4.808   0.819   3.515 -0.1222 -0.7649 -0.2103
 3799TIP3    H111361   4.743   0.829   3.585  0.7566  1.2050  0.3683
 3799TIP3    H211362   4.757   0.821   3.435 -0.8174  0.5785  0.2428
 3800TIP3   OH211363   6.448   5.960   0.066  1.0223  0.6975 -0.0729
 3800TIP3    H111364   6.409   5.921   0.144  0.7282  1.4710  0.1689
 3800TIP3    H211365   6.502   5.890   0.029 -0.3583 -0.3168 -0.2656
 3801TIP3   OH211366   3.707   1.261   1.161 -0.3110 -0.0423 -0.4824
 3801TIP3    H111367   3.791   1.222   1.138 -1.4645 -3.3191  0.3353
 3801TIP3    H211368   3.645   1.223   1.098 -1.4224  1.1164 -0.1224
 3802TIP3   OH211369   6.491   6.175   2.762 -0.2931 -0.0240  0.2573
 3802TIP3    H111370   6.528   6.168   2.674  0.3673  1.0869  0.4270
 3802TIP3    H211371   6.480   6.084   2.790  0.4697 -0.3954 -0.5676
 3803TIP3   OH211372   4.760   4.066   0.212  0.1166 -0.1264  0.6769
 3803TIP3    H111373   4.682   4.026   0.251  0.3727 -1.0310  0.2894
 3803TIP3    H211374   4.799   3.996   0.160  1.7558  0.0112  1.6715
 3804TIP3   OH211375   4.586   5.103   3.966  0.4721  0.1906  0.4282
 3804TIP3    H111376   4.664   5.078   4.015 -0.9067 -1.0740  2.1110
 3804TIP3    H211377   4.587   5.199   3.965  0.6899  0.2554  2.7664
 3805TIP3   OH211378   5.580   5.859   1.144 -0.2041  1.0685 -0.0128
 3805TIP3    H111379   5.554   5.897   1.228  0.2212  1.3255  0.0045
 3805TIP3    H211380   5.610   5.933   1.092  0.4406  0.7933 -0.0484
 3806TIP3   OH211381   7.189   5.558   1.168 -0.1094  0.1559  0.5622
 3806TIP3    H111382   7.240   5.551   1.087 -1.6603 -0.4099 -0.3973
 3806TIP3    H211383   7.099   5.571   1.139 -0.7891 -0.6403  2.1884
 3807TIP3   OH211384   5.341   2.158   1.495 -0.0293 -0.2264  0.3686
 3807TIP3    H111385   5.400   2.090   1.464  0.3752  0.3679 -0.1965
 3807TIP3    H211386   5.301   2.122   1.574  0.1524 -1.1238  0.0577
 3808TIP3   OH211387   6.218   0.611   1.501  0.0500 -0.0053  0.0587
 3808TIP3    H111388   6.199   0.518   1.490 -0.8754  0.3246 -1.4351
 3808TIP3    H211389   6.165   0.637   1.577 -1.6506 -0.1900 -1.0152
 3809TIP3   OH211390   3.052   3.673   2.083 -0.3520 -0.4041 -0.2195
 3809TIP3    H111391   2.972   3.631   2.053  0.1398 -0.6812 -1.1597
 3809TIP3    H211392   3.077   3.624   2.161 -2.1693  0.9379  1.3263
 3810TIP3   OH211393   1.657   5.369   1.318 -0.4974 -0.1175  0.2857
 3810TIP3    H111394   1.563   5.355   1.310 -0.5747 -0.6096  1.7740
 3810TIP3    H211395   1.691   5.287   1.354  0.3126  0.4879  0.9578
 3811TIP3   OH211396   3.004   5.780   3.448 -0.7605 -0.2863  0.1279
 3811TIP3    H111397   2.932   5.741   3.398 -1.7287 -0.0674  1.2869
 3811TIP3    H211398   2.981   5.763   3.540  0.7348 -0.3091  0.5270
 3812TIP3   OH211399   0.161   1.209   2.179  0.5463  0.3181 -0.2514
 3812TIP3    H111400   0.213   1.251   2.110  0.3128  0.4873 -0.3252
 3812TIP3    H211401   0.072   1.206   2.143  0.5593 -0.2314 -0.2437
 3813TIP3   OH211402   0.910   4.293   5.278 -0.1378  0.3545 -0.1518
 3813TIP3    H111403   0.872   4.370   5.319 -1.7125 -0.5664  0.2127
 3813TIP3    H211404   0.858   4.220   5.311  1.0741 -0.8383 -0.7640
 3814TIP3   OH211405   0.802   5.772   0.769 -0.1437 -0.5912 -0.7562
 3814TIP3    H111406   0.861   5.767   0.694  0.5835 -1.7220 -0.1383
 3814TIP3    H211407   0.771   5.682   0.781 -0.9195 -0.2618 -0.2148
 3815TIP3   OH211408   0.096   0.344   2.975  0.4395 -0.2770 -0.4814
 3815TIP3    H111409   0.037   0.420   2.979  0.1174 -0.4978 -0.9226
 3815TIP3    H211410   0.132   0.346   2.887  2.1456  0.6234  0.2088
 3816TIP3   OH211411   3.794   2.542   0.940  0.3426 -0.0243  0.0755
 3816TIP3    H111412   3.885   2.520   0.961  0.7682 -0.7022 -2.1135
 3816TIP3    H211413   3.800   2.621   0.886 -0.4474  0.3310  0.4875
 3817TIP3   OH211414   0.494   6.575   1.947 -0.2246  0.1815  0.1301
 3817TIP3    H111415   0.507   6.481   1.955  1.2695  0.4459  1.4102
 3817TIP3    H211416   0.401   6.588   1.966 -0.3011 -0.9796  0.6405
 3818TIP3   OH211417   4.406   4.754   3.151  0.0963  0.3740  0.1402
 3818TIP3    H111418   4.318   4.772   3.184  0.1382  1.5658 -0.3778
 3818TIP3    H211419   4.449   4.708   3.224 -0.8639 -0.0120  0.4861
 3819TIP3   OH211420   3.816   2.035   1.226  0.2985  0.0201  0.1804
 3819TIP3    H111421   3.905   2.067   1.232  0.5423 -0.6639  0.2869
 3819TIP3    H211422   3.789   2.020   1.317 -0.6530  2.1436  0.2945
 3820TIP3   OH211423   1.877   1.904   3.193  0.3547 -0.0226  0.8509
 3820TIP3    H111424   1.889   1.998   3.203  1.6557  0.0670 -0.9280
 3820TIP3    H211425   1.785   1.894   3.170  0.6929  1.1233 -1.2905
 3821TIP3   OH211426   0.549   0.526   0.777 -0.5734 -0.0821  0.9827
 3821TIP3    H111427   0.465   0.571   0.784 -0.1253  1.2679 -1.3251
 3821TIP3    H211428   0.537   0.463   0.705  0.0488 -0.7582  1.4529
 3822TIP3   OH211429   4.206   0.833   1.573 -0.2642 -0.4882  0.1479
 3822TIP3    H111430   4.139   0.875   1.627  0.8756 -0.9301  1.9680
 3822TIP3    H211431   4.246   0.767   1.630  0.8699 -1.1197 -1.3019
 3823TIP3   OH211432   1.942   3.883   0.180 -0.5154  0.3636  0.1906
 3823TIP3    H111433   1.905   3.796   0.164 -1.2081  0.7427 -0.2795
 3823TIP3    H211434   1.925   3.899   0.273  0.3352 -0.3342  0.4850
 3824TIP3   OH211435   0.713   1.287   2.191 -0.0007 -0.5310  0.1993
 3824TIP3    H111436   0.733   1.239   2.111 -1.1430 -0.7196  0.0085
 3824TIP3    H211437   0.750   1.374   2.177  1.2251 -1.0400  0.1451
 3825TIP3   OH211438   6.175   5.337   4.208 -0.2011  0.7647 -0.3003
 3825TIP3    H111439   6.225   5.368   4.132 -0.1948 -2.3266 -1.7113
 3825TIP3    H211440   6.222   5.373   4.284  1.2927  1.9060 -1.6815
 3826TIP3   OH211441   3.572   3.344   4.105  0.0015  0.2208  0.0455
 3826TIP3    H111442   3.648   3.291   4.125  0.2471  0.8123  0.7631
 3826TIP3    H211443   3.593   3.430   4.142 -1.5406  0.0451  1.4709
 3827TIP3   OH211444   2.702   6.362   1.983 -0.0360  0.1049  0.7901
 3827TIP3    H111445   2.607   6.355   1.991 -0.2494 -0.1680 -1.2692
 3827TIP3    H211446   2.715   6.384   1.890  1.9477 -0.5978  0.8808
 3828TIP3   OH211447   2.460   1.492   3.297  0.1031  0.4880 -0.3687
 3828TIP3    H111448   2.488   1.460   3.383 -1.9846  1.8867  0.9137
 3828TIP3    H211449   2.538   1.536   3.262  0.9778 -0.0438  0.8236
 3829TIP3   OH211450   0.138   5.737   0.699  0.1024  0.0520 -0.1375
 3829TIP3    H111451   0.128   5.747   0.604 -0.3500  0.5564 -0.0397
 3829TIP3    H211452   0.210   5.674   0.709 -0.5232 -0.8009 -0.8223
 3830TIP3   OH211453   4.683   1.345   3.735 -0.1211  0.0587 -0.3573
 3830TIP3    H111454   4.752   1.296   3.692  2.1650  0.0706  2.9561
 3830TIP3    H211455   4.689   1.433   3.697  2.0414  0.1807  0.1570
 3831TIP3   OH211456   4.256   6.287   4.377  0.7068 -0.0701  0.3863
 3831TIP3    H111457   4.234   6.200   4.344  2.0258 -1.0619  2.0144
 3831TIP3    H211458   4.297   6.331   4.302 -0.0459 -0.8056 -0.4747
 3832TIP3   OH211459   5.837   5.351   4.180  0.0780  0.1377  0.1412
 3832TIP3    H111460   5.925   5.360   4.143  0.1956 -1.4473 -0.0172
 3832TIP3    H211461   5.780   5.398   4.119  1.0405  3.2246  1.4480
 3833TIP3   OH211462   4.258   2.885   3.034  0.1031 -0.1261 -0.1020
 3833TIP3    H111463   4.324   2.941   3.074 -0.1738 -0.1230  0.3697
 3833TIP3    H211464   4.278   2.886   2.941  1.1148 -0.5852  0.0913
 3834TIP3   OH211465   6.636   4.509   4.459  0.0216 -0.1190 -0.3353
 3834TIP3    H111466   6.598   4.472   4.380 -2.4014  1.3256  0.0568
 3834TIP3    H211467   6.607   4.451   4.530 -0.6818  0.4622 -0.1399
 3835TIP3   OH211468   6.694   5.011   2.935  0.4414  0.3835 -0.2010
 3835TIP3    H111469   6.693   5.073   3.008 -0.2038  0.8994 -0.6251
 3835TIP3    H211470   6.772   4.958   2.949  0.6707  0.8913  0.5126
 3836TIP3   OH211471   5.933   0.405   5.219  0.4558  0.2935 -0.0483
 3836TIP3    H111472   5.868   0.354   5.170  0.4590  1.2928 -1.1182
 3836TIP3    H211473   5.918   0.380   5.311 -0.0599 -1.0310 -0.4643
 3837TIP3   OH211474   2.192   2.130   3.780 -0.1416  0.3219 -0.0447
 3837TIP3    H111475   2.244   2.083   3.715 -0.5742 -0.4471  0.1576
 3837TIP3    H211476   2.254   2.190   3.821  0.8156 -1.1880  0.8016
 3838TIP3   OH211477   6.942   6.408   1.925 -0.8199  0.7563 -0.4985
 3838TIP3    H111478   6.938   6.319   1.892 -0.9284  0.1432  1.0901
 3838TIP3    H211479   6.872   6.413   1.991 -1.7542  2.4546 -1.5538
 3839TIP3   OH211480   4.099   2.942   0.007  0.2953 -0.2199 -0.1280
 3839TIP3    H111481   4.100   2.854  -0.032 -0.0837 -1.3560  2.2037
 3839TIP3    H211482   4.186   2.952   0.045  0.0746  0.0620  0.3119
 3840TIP3   OH211483   4.299   3.959   3.005 -0.1921  0.5975  0.1691
 3840TIP3    H111484   4.294   3.953   2.909  0.0500  1.1686  0.1193
 3840TIP3    H211485   4.369   4.021   3.022  3.2276 -3.0703  0.8082
 3841TIP3   OH211486   0.607   5.307   1.587  0.0916 -0.2970  0.2172
 3841TIP3    H111487   0.695   5.285   1.555  0.0806 -0.2121  0.1309
 3841TIP3    H211488   0.554   5.231   1.565  0.6471 -1.3926  2.3266
 3842TIP3   OH211489   6.497   6.141   5.399  0.3356  0.5398  0.3033
 3842TIP3    H111490   6.559   6.069   5.387 -0.4094  0.0820 -0.9352
 3842TIP3    H211491   6.424   6.102   5.447  0.6375  0.8905  1.0724
 3843TIP3   OH211492   5.454   2.752   2.265 -0.2278  0.2217 -0.1521
 3843TIP3    H111493   5.374   2.783   2.222  0.7033  0.9405 -1.4459
 3843TIP3    H211494   5.460   2.805   2.345 -0.8911  0.3535 -0.1833
 3844TIP3   OH211495   1.619   6.525   4.854  0.7654 -0.0110  0.2048
 3844TIP3    H111496   1.611   6.438   4.814  1.3366  0.4326 -0.9106
 3844TIP3    H211497   1.580   6.585   4.790  0.2017  0.5459  1.0505
 3845TIP3   OH211498   4.939   2.818   5.873 -0.0594 -0.4068 -0.0029
 3845TIP3    H111499   5.000   2.884   5.905 -2.2567  1.1567  1.2491
 3845TIP3    H211500   4.925   2.841   5.781 -1.0697  1.1957  0.4995
 3846TIP3   OH211501   4.678   4.140   3.971 -0.9473  0.0134 -0.2108
 3846TIP3    H111502   4.715   4.057   3.941  0.5424  0.2345  0.9173
 3846TIP3    H211503   4.678   4.134   4.066  1.8305  2.3063  0.0800
 3847TIP3   OH211504   1.749   5.425   3.717 -0.0866 -0.0921 -0.3088
 3847TIP3    H111505   1.818   5.433   3.652  0.3525  2.2594  0.3519
 3847TIP3    H211506   1.671   5.402   3.667  0.5743  0.1014 -1.4498
 3848TIP3   OH211507   0.326   1.371   1.983  0.3537  0.8151  0.2791
 3848TIP3    H111508   0.328   1.440   1.916  0.7002  1.1614  0.6463
 3848TIP3    H211509   0.347   1.416   2.065 -2.3939  0.8852  1.0561
 3849TIP3   OH211510   3.313   4.172   0.382 -0.0647 -0.2409 -0.7796
 3849TIP3    H111511   3.265   4.107   0.330  0.0644  0.0676 -1.2891
 3849TIP3    H211512   3.379   4.207   0.322  0.0353  0.1747 -0.4314
 3850TIP3   OH211513   4.514   2.719   4.107  0.4404  0.1747 -0.3450
 3850TIP3    H111514   4.527   2.772   4.028  0.2971  0.4789 -0.1655
 3850TIP3    H211515   4.428   2.746   4.140  0.6865  0.3649  0.1535
 3851TIP3   OH211516   3.580   4.986   0.330 -0.2683 -0.0696 -0.4735
 3851TIP3    H111517   3.580   5.069   0.378 -2.6441 -1.3079  1.9277
 3851TIP3    H211518   3.513   4.933   0.373 -0.1728 -2.5894 -3.1095
 3852TIP3   OH211519   2.504   3.038   2.209 -0.7051  0.1848 -0.1312
 3852TIP3    H111520   2.506   3.122   2.164 -1.3025  0.2707 -0.0080
 3852TIP3    H211521   2.464   3.058   2.294 -0.6582 -0.1860 -0.0214
 3853TIP3   OH211522   5.283   2.152   1.951 -0.6789  0.2881  0.1756
 3853TIP3    H111523   5.255   2.109   1.871  0.6646 -0.6657  0.1718
 3853TIP3    H211524   5.379   2.154   1.945 -0.5959  1.1145  1.2959
 3854TIP3   OH211525   1.635   1.215   3.923  0.1558 -0.2451  0.2169
 3854TIP3    H111526   1.597   1.264   3.850 -0.7112 -0.5321  0.4678
 3854TIP3    H211527   1.729   1.221   3.909  0.0034 -0.0980 -0.7951
 3855TIP3   OH211528   0.421   3.805   3.547 -0.3928 -0.3231  0.4954
 3855TIP3    H111529   0.444   3.893   3.517 -0.8751 -0.0611  0.8784
 3855TIP3    H211530   0.380   3.763   3.472  0.2425 -0.3777  0.1739
 3856TIP3   OH211531   7.042   3.859   2.836 -0.8697  0.2886  0.2027
 3856TIP3    H111532   7.100   3.789   2.866 -0.8444 -0.4049 -1.3788
 3856TIP3    H211533   7.075   3.938   2.880 -0.6727 -0.6034  1.7186
 3857TIP3   OH211534   2.813   3.590   2.185  0.4218 -0.6221  0.0161
 3857TIP3    H111535   2.758   3.662   2.157  1.3089  0.5275  1.1228
 3857TIP3    H211536   2.784   3.515   2.133 -0.7939  0.4276 -0.8497
 3858TIP3   OH211537   4.595   5.261   0.580 -0.4631 -0.6062 -0.5942
 3858TIP3    H111538   4.623   5.189   0.637 -1.6410 -1.0880 -0.5858
 3858TIP3    H211539   4.673   5.282   0.528  0.3181 -0.8839  0.4332
 3859TIP3   OH211540   1.210   5.429   5.467 -0.9818  0.2350  0.5027
 3859TIP3    H111541   1.241   5.519   5.467 -2.3830  0.7551 -0.6578
 3859TIP3    H211542   1.116   5.435   5.484 -0.8178 -1.1562  2.2357
 3860TIP3   OH211543   2.424   4.942   3.198  0.1171 -0.0319  0.3863
 3860TIP3    H111544   2.430   5.031   3.231 -0.2758  0.2861 -0.3646
 3860TIP3    H211545   2.330   4.925   3.192  0.1860 -0.3183  0.0704
 3861TIP3   OH211546   1.227   5.198   3.252  0.5324 -0.4378 -0.8324
 3861TIP3    H111547   1.287   5.181   3.179 -0.2321 -1.3549 -1.2727
 3861TIP3    H211548   1.158   5.134   3.241 -1.3536  1.5290 -1.2295
 3862TIP3   OH211549   5.539   2.312   1.634  0.3847 -0.9720  0.3868
 3862TIP3    H111550   5.456   2.307   1.587 -0.7622 -0.4988  2.2453
 3862TIP3    H211551   5.545   2.403   1.664  3.5866  0.1943 -2.9965
 3863TIP3   OH211552   6.546   5.879   3.090  0.1132 -0.4345 -0.2778
 3863TIP3    H111553   6.499   5.898   3.009 -0.3857 -0.6922 -0.0473
 3863TIP3    H211554   6.511   5.795   3.120 -1.0912  0.5635  1.2226
 3864TIP3   OH211555   6.808   6.450   3.116 -0.4819  0.2841 -0.4322
 3864TIP3    H111556   6.799   6.475   3.208 -1.9815  4.3165 -1.4685
 3864TIP3    H211557   6.734   6.392   3.099  0.7343 -1.8805  1.1697
 3865TIP3   OH211558   0.780   0.851   0.604 -0.2581 -0.1067  0.5239
 3865TIP3    H111559   0.728   0.881   0.529  2.9693  1.1690 -1.3782
 3865TIP3    H211560   0.762   0.916   0.673 -2.5564 -0.7917  0.6724
 3866TIP3   OH211561   6.897   4.611   4.553  0.1634  0.0843  0.6604
 3866TIP3    H111562   6.885   4.520   4.525  1.0738  0.0636  0.2768
 3866TIP3    H211563   6.978   4.609   4.604 -1.0509  0.2716  2.6821
 3867TIP3   OH211564   3.632   5.752   5.319  0.4175  0.3369  0.0719
 3867TIP3    H111565   3.607   5.660   5.322 -0.0877  0.4353 -0.7363
 3867TIP3    H211566   3.708   5.759   5.377 -0.3787 -0.3096  1.2373
 3868TIP3   OH211567   1.320   1.200   2.151  0.4333 -1.3038  0.0788
 3868TIP3    H111568   1.240   1.152   2.127 -0.8286  0.6045  0.2271
 3868TIP3    H211569   1.333   1.261   2.078  0.0857  0.3472  1.3446
 3869TIP3   OH211570   0.223   2.606   1.107 -0.4131  0.3579  0.2044
 3869TIP3    H111571   0.280   2.676   1.136  0.2935 -0.4438  0.8087
 3869TIP3    H211572   0.225   2.542   1.178 -3.3926  1.0145  1.0192
 3870TIP3   OH211573   1.607   1.230   1.154  0.1341 -0.4455  0.3957
 3870TIP3    H111574   1.650   1.177   1.087  0.8534 -0.4005  0.8104
 3870TIP3    H211575   1.553   1.168   1.202 -0.9549 -0.3516 -0.6675
 3871TIP3   OH211576   0.314   4.871   2.587 -0.0960  0.0529  0.6697
 3871TIP3    H111577   0.286   4.780   2.589  0.1656 -0.1831 -2.3291
 3871TIP3    H211578   0.233   4.921   2.574 -0.1564  0.2350  1.6332
 3872TIP3   OH211579   0.094   0.825   4.723  0.2208  0.1508  0.3265
 3872TIP3    H111580   0.060   0.869   4.645 -0.5449 -0.4832  0.2969
 3872TIP3    H211581   0.147   0.892   4.767  2.4245 -0.0667 -1.7936
 3873TIP3   OH211582   6.528   1.283   3.079 -0.1201 -0.2639 -0.3567
 3873TIP3    H111583   6.616   1.275   3.041 -0.1952 -0.8871 -0.4089
 3873TIP3    H211584   6.537   1.353   3.144  0.5570 -0.6937  0.0314
 3874TIP3   OH211585   2.104   3.987   5.187 -0.7065 -0.2107 -0.2351
 3874TIP3    H111586   2.057   4.038   5.253 -0.8155 -0.0206 -0.4583
 3874TIP3    H211587   2.193   4.021   5.189 -0.6704 -0.3134 -0.0758
 3875TIP3   OH211588   2.170   3.253   5.790  0.2543  0.2107  0.2308
 3875TIP3    H111589   2.113   3.294   5.725  1.5819  0.0218 -1.1140
 3875TIP3    H211590   2.237   3.208   5.738  0.0375 -1.9207  1.7031
 3876TIP3   OH211591   2.659   2.692   5.769 -0.1932  0.0370 -0.2853
 3876TIP3    H111592   2.569   2.684   5.800 -0.8577  0.1867 -2.0843
 3876TIP3    H211593   2.685   2.780   5.795 -0.6362  0.0773  0.0458
 3877TIP3   OH211594   4.431   6.341   5.503 -0.2122  0.0103 -0.0498
 3877TIP3    H111595   4.441   6.266   5.561  0.3589  0.8208  0.9283
 3877TIP3    H211596   4.356   6.318   5.447  1.6770 -2.5496 -1.7772
 3878TIP3   OH211597   4.784   6.575   3.443  0.4943 -0.0520 -0.2845
 3878TIP3    H111598   4.844   6.525   3.499  1.6038  3.0864  1.6158
 3878TIP3    H211599   4.700   6.572   3.490  1.0819  1.4463  0.9507
 3879TIP3   OH211600   5.749   4.275   3.486 -0.1835 -0.1185  0.1399
 3879TIP3    H111601   5.751   4.202   3.548 -0.4726 -1.4800 -1.3907
 3879TIP3    H211602   5.685   4.249   3.420 -0.0227  1.3682 -0.6429
 3880TIP3   OH211603   6.975   1.372   1.253 -0.0597  0.1258  0.0253
 3880TIP3    H111604   6.913   1.388   1.324 -2.2853 -0.1312 -1.7387
 3880TIP3    H211605   7.048   1.432   1.271  0.3136 -1.1007  3.3490
 3881TIP3   OH211606   0.717   1.319   0.807 -0.0987 -0.1764  0.1394
 3881TIP3    H111607   0.665   1.297   0.730 -2.1430 -0.6551  1.5669
 3881TIP3    H211608   0.678   1.400   0.840 -1.2603 -1.4663  2.2433
 3882TIP3   OH211609   5.266   5.709   4.860 -0.0339  0.0772 -0.5826
 3882TIP3    H111610   5.230   5.644   4.800 -0.7838 -1.1589  1.1099
 3882TIP3    H211611   5.285   5.660   4.940  1.4446  1.5478  0.0247
 3883TIP3   OH211612   6.411   2.460   1.179 -0.6947  0.7098 -0.4458
 3883TIP3    H111613   6.422   2.400   1.106 -1.9703  0.6326 -0.6015
 3883TIP3    H211614   6.332   2.428   1.224  0.6723  0.0685  1.6310
 3884TIP3   OH211615   2.262   5.382   1.039  0.5051  0.0401 -0.1884
 3884TIP3    H111616   2.184   5.328   1.054  0.1840  0.2868 -0.8787
 3884TIP3    H211617   2.313   5.332   0.975  0.9543 -0.1585  0.3262
 3885TIP3   OH211618   5.314   0.707   4.394 -0.0973  0.2867  0.2504
 3885TIP3    H111619   5.321   0.641   4.464  0.7823 -0.3848 -0.4426
 3885TIP3    H211620   5.224   0.699   4.363 -0.1237 -0.2961  0.4600
 3886TIP3   OH211621   4.326   2.253   1.278 -0.3779  0.4565 -0.3841
 3886TIP3    H111622   4.385   2.180   1.259 -0.0625  0.5295  0.2946
 3886TIP3    H211623   4.248   2.213   1.314  0.0236  0.4782  0.5429
 3887TIP3   OH211624   4.328   1.574   1.451  0.3618  0.9476  0.2465
 3887TIP3    H111625   4.315   1.646   1.513  1.7717  1.4326  0.0241
 3887TIP3    H211626   4.406   1.599   1.402  0.9755 -0.7913  0.2580
 3888TIP3   OH211627   7.173   4.498   1.517  0.3914 -0.2286 -0.3830
 3888TIP3    H111628   7.180   4.576   1.571  0.5676 -0.6866  0.2653
 3888TIP3    H211629   7.098   4.515   1.460  0.4262  0.4094 -0.2454
 3889TIP3   OH211630   4.835   0.725   1.233 -0.2504 -0.3433 -1.3177
 3889TIP3    H111631   4.768   0.787   1.204 -0.3789 -1.3145 -3.3272
 3889TIP3    H211632   4.826   0.652   1.172  1.6897 -1.1343 -0.7067
 3890TIP3   OH211633   1.460   6.674   3.941  0.5253 -0.0199 -0.4753
 3890TIP3    H111634   1.488   6.658   4.032 -1.2161 -0.1608  0.0593
 3890TIP3    H211635   1.500   6.603   3.891  2.7863  0.9050 -0.1290
 3891TIP3   OH211636   6.617   2.875   1.631  0.4010 -0.3753  0.3511
 3891TIP3    H111637   6.668   2.945   1.674  0.6390  0.0765 -0.6463
 3891TIP3    H211638   6.647   2.876   1.540 -1.3883 -0.1132 -0.2677
 3892TIP3   OH211639   4.450   0.591   3.636  0.3016 -0.4796  0.3221
 3892TIP3    H111640   4.504   0.661   3.671 -0.7268 -0.3014  1.6188
 3892TIP3    H211641   4.447   0.525   3.706 -2.1431  0.0704  0.8199
 3893TIP3   OH211642   1.989   0.617   4.241  0.0486 -0.2989  0.1923
 3893TIP3    H111643   1.946   0.619   4.155 -0.4883 -0.5349  0.4467
 3893TIP3    H211644   2.032   0.702   4.248  0.4166 -0.4209 -0.4702
 3894TIP3   OH211645   0.840   4.311   3.417  0.1335  0.3252  0.1704
 3894TIP3    H111646   0.788   4.369   3.473 -2.1632 -0.0132 -1.4917
 3894TIP3    H211647   0.855   4.362   3.337 -0.5440 -0.7522 -0.6757
 3895TIP3   OH211648   0.390   2.352   3.333 -0.0648 -0.7762 -0.1889
 3895TIP3    H111649   0.361   2.326   3.420  1.5037  1.1291  1.0032
 3895TIP3    H211650   0.350   2.438   3.319  0.2292 -0.7707 -1.0529
 3896TIP3   OH211651   4.929   6.575   1.470 -0.7043  0.0914  0.0642
 3896TIP3    H111652   4.966   6.487   1.483 -1.0466  0.0680  1.0062
 3896TIP3    H211653   4.992   6.634   1.512 -0.3268  0.3393 -0.8221
 3897TIP3   OH211654   5.449   6.605   1.606  0.2489 -0.3316  0.2338
 3897TIP3    H111655   5.414   6.683   1.562  0.8489 -1.1473 -1.8361
 3897TIP3    H211656   5.394   6.533   1.574  0.6757 -0.9622  0.8926
 3898TIP3   OH211657   3.392   6.157   5.571 -0.3927 -0.4635 -0.3797
 3898TIP3    H111658   3.350   6.114   5.497 -1.7710 -1.5435  0.9572
 3898TIP3    H211659   3.456   6.093   5.603  1.0670  0.4713 -1.3156
 3899TIP3   OH211660   5.024   5.567   0.111  0.2118 -1.0280 -0.5950
 3899TIP3    H111661   4.958   5.630   0.082  0.0955 -0.1667  1.4116
 3899TIP3    H211662   5.094   5.620   0.148 -0.3144 -2.0122  2.0507
 3900TIP3   OH211663   2.324   3.681   5.786 -0.2336  0.1735 -0.0260
 3900TIP3    H111664   2.414   3.701   5.759 -0.2518  0.6222  0.2237
 3900TIP3    H211665   2.278   3.765   5.779 -0.6261 -0.0509 -0.1310
 3901TIP3   OH211666   3.427   4.880   3.902 -0.5291  0.3870  0.7340
 3901TIP3    H111667   3.342   4.866   3.945 -0.5134 -2.9413 -0.0388
 3901TIP3    H211668   3.417   4.964   3.857 -3.0314  0.6236  1.5548
 3902TIP3   OH211669   1.465   3.925   1.042  0.1818  0.8461  0.5165
 3902TIP3    H111670   1.451   3.834   1.017 -1.1466  0.9343  0.8573
 3902TIP3    H211671   1.386   3.949   1.090  0.3352  2.2923  0.1038
 3903TIP3   OH211672   1.270   5.857   5.060  0.2358  0.2646  0.4510
 3903TIP3    H111673   1.229   5.929   5.012  2.1978  1.0131 -0.1640
 3903TIP3    H211674   1.196   5.812   5.101 -1.0944  2.2735  0.4080
 3904TIP3   OH211675   4.349   2.893   2.160 -0.5916  0.5298 -0.0556
 3904TIP3    H111676   4.324   2.867   2.072 -0.5169  1.3126 -0.3162
 3904TIP3    H211677   4.268   2.891   2.211 -0.7219  0.5858 -0.2646
 3905TIP3   OH211678   1.320   0.483   4.274 -0.3154 -0.8074 -0.1680
 3905TIP3    H111679   1.347   0.517   4.359  0.8651  0.3175 -0.9637
 3905TIP3    H211680   1.236   0.526   4.257 -0.2460 -0.5421  0.1345
 3906TIP3   OH211681   4.152   0.794   0.272  0.1214  0.5952 -0.2731
 3906TIP3    H111682   4.156   0.860   0.204  0.0191  0.3756 -0.4916
 3906TIP3    H211683   4.099   0.834   0.341 -2.1740 -0.2159 -1.4717
 3907TIP3   OH211684   5.939   5.080   5.025  0.0656  0.2854 -0.0699
 3907TIP3    H111685   5.956   5.165   4.986 -1.7837  0.3344 -0.8964
 3907TIP3    H211686   5.864   5.046   4.976 -0.2444 -1.1118  1.2909
 3908TIP3   OH211687   0.122   0.679   2.620 -0.0768 -0.2475  0.2380
 3908TIP3    H111688   0.028   0.696   2.614 -0.2881 -1.5025 -0.1282
 3908TIP3    H211689   0.153   0.688   2.530  0.0191 -0.6167  0.2359
 3909TIP3   OH211690   3.686   5.412   2.487  0.9150 -0.1819  0.3167
 3909TIP3    H111691   3.601   5.369   2.479  0.0716  1.2664  1.0185
 3909TIP3    H211692   3.679   5.489   2.430  1.7194  0.0358  0.4961
 3910TIP3   OH211693   2.282   2.549   3.949 -0.5732  0.1129  0.5218
 3910TIP3    H111694   2.252   2.557   4.039 -2.1395  1.1533 -0.0274
 3910TIP3    H211695   2.238   2.622   3.904  0.5594 -0.0898 -0.9702
 3911TIP3   OH211696   4.154   6.764   4.661  0.1690  0.6258 -0.2464
 3911TIP3    H111697   4.072   6.723   4.632  0.2355  0.6954 -0.5348
 3911TIP3    H211698   4.174   6.721   4.744  0.5862 -0.4007 -0.8637
 3912TIP3   OH211699   4.432   1.042   0.532  0.5978  0.0127  0.1283
 3912TIP3    H111700   4.451   1.106   0.600  2.1862  0.7378 -0.9311
 3912TIP3    H211701   4.458   0.958   0.569  0.3881  0.2428  0.8034
 3913TIP3   OH211702   4.659   0.443   3.986  0.5822  0.3922 -0.2063
 3913TIP3    H111703   4.626   0.396   4.061  2.6234 -0.2043  0.3929
 3913TIP3    H211704   4.693   0.375   3.927 -0.4355  0.8839 -1.4033
 3914TIP3   OH211705   2.112   1.925   5.075 -0.4806 -0.1894 -0.3123
 3914TIP3    H111706   2.178   1.993   5.060 -0.1017 -0.2905  0.8045
 3914TIP3    H211707   2.079   1.942   5.164 -0.8663 -1.0603 -0.2760
 3915TIP3   OH211708   2.494   5.188   5.495 -0.2117  0.0425 -0.4876
 3915TIP3    H111709   2.405   5.207   5.523 -0.8844 -1.0286 -1.7819
 3915TIP3    H211710   2.532   5.273   5.475 -0.7598  0.5506  0.5816
 3916TIP3   OH211711   1.915   3.183   1.164 -0.3602  0.1003  0.4664
 3916TIP3    H111712   1.868   3.257   1.200  0.5523  0.5235  0.8199
 3916TIP3    H211713   1.877   3.106   1.208 -1.0263  0.3846  0.3957
 3917TIP3   OH211714   4.021   2.244   0.409  0.5535  0.2323  0.6155
 3917TIP3    H111715   4.042   2.262   0.317  0.7361  1.7986  0.9383
 3917TIP3    H211716   3.961   2.314   0.434 -0.0749 -0.5947  1.4978
 3918TIP3   OH211717   6.284   3.572   0.677  0.3749  0.2215  0.4555
 3918TIP3    H111718   6.371   3.552   0.644  0.3476  0.7843  0.0186
 3918TIP3    H211719   6.300   3.616   0.761  0.5569  1.0671 -0.0065
 3919TIP3   OH211720   2.777   1.729   0.932 -0.4757 -0.2265 -0.0553
 3919TIP3    H111721   2.748   1.796   0.995  0.0162  0.2050 -0.2792
 3919TIP3    H211722   2.862   1.702   0.964 -1.3813 -2.0057  1.0021
 3920TIP3   OH211723   1.961   2.891   4.229  0.8984 -0.0411  0.7109
 3920TIP3    H111724   2.019   2.854   4.295  1.2838  0.9654  0.9395
 3920TIP3    H211725   1.908   2.955   4.276  0.3775 -0.1356  0.2673
 3921TIP3   OH211726   2.549   5.704   3.365  0.2800  0.1819  0.1579
 3921TIP3    H111727   2.578   5.658   3.443 -1.2082  0.1471  0.7263
 3921TIP3    H211728   2.483   5.767   3.397 -1.3701 -0.7802 -1.1895
 3922TIP3   OH211729   6.167   0.720   1.922  0.4995 -0.4218 -0.4232
 3922TIP3    H111730   6.261   0.713   1.939  0.6079  0.9228 -0.3927
 3922TIP3    H211731   6.143   0.805   1.959 -0.4245 -0.0504 -1.8304
 3923TIP3   OH211732   3.464   2.778   5.422 -0.1267 -0.3216 -0.3496
 3923TIP3    H111733   3.473   2.856   5.477 -0.8673  0.4999 -1.3487
 3923TIP3    H211734   3.526   2.793   5.350 -1.2518  0.0006 -1.2659
 3924TIP3   OH211735   6.324   1.234   2.329 -1.0025 -0.3381 -0.0646
 3924TIP3    H111736   6.300   1.143   2.346  0.7419 -0.8701 -0.1588
 3924TIP3    H211737   6.279   1.285   2.396 -1.0273 -1.4167  0.7617
 3925TIP3   OH211738   6.569   6.270   1.662 -0.5086 -0.6261  0.2519
 3925TIP3    H111739   6.639   6.276   1.727 -1.0373  1.8949  0.6893
 3925TIP3    H211740   6.489   6.261   1.714 -0.7450 -0.9466 -0.1613
 3926TIP3   OH211741   2.687   4.020   0.723 -0.2019 -0.0635  0.3276
 3926TIP3    H111742   2.705   3.942   0.670  0.7398  1.8238 -2.2868
 3926TIP3    H211743   2.595   4.039   0.707 -0.5122 -0.7328  1.1970
 3927TIP3   OH211744   4.317   1.828   1.590  0.1108 -0.5736 -0.0519
 3927TIP3    H111745   4.293   1.919   1.611 -0.5460 -0.5331 -0.9258
 3927TIP3    H211746   4.409   1.821   1.615  0.1035  0.2627  0.2481
 3928TIP3   OH211747   0.857   5.502   0.267  0.3097 -0.0245  0.6152
 3928TIP3    H111748   0.778   5.466   0.226  0.3685  1.4648 -0.9480
 3928TIP3    H211749   0.917   5.518   0.193  1.6017 -0.0040  1.6411
 3929TIP3   OH211750   2.306   5.988   1.439 -0.1065 -0.6560  0.0826
 3929TIP3    H111751   2.376   5.927   1.462 -1.1694 -2.0313 -0.1800
 3929TIP3    H211752   2.232   5.932   1.416 -0.3751  0.6638 -2.6716
 3930TIP3   OH211753   5.348   3.171   2.140  0.1586  0.5605 -0.2158
 3930TIP3    H111754   5.434   3.163   2.182 -1.0746  3.0570  3.2987
 3930TIP3    H211755   5.366   3.214   2.056  2.4648 -1.2927 -0.7800
 3931TIP3   OH211756   5.694   0.019   0.555 -0.3620  0.0800  0.0214
 3931TIP3    H111757   5.727  -0.056   0.604 -1.9968 -1.5855 -1.3358
 3931TIP3    H211758   5.662   0.079   0.622  1.2695 -0.2320  1.1381
 3932TIP3   OH211759   4.167   4.128   5.574  0.5263  0.1415  0.0238
 3932TIP3    H111760   4.193   4.215   5.603  1.8640 -0.4595  0.7282
 3932TIP3    H211761   4.071   4.129   5.575  0.5300  1.1486  1.4363
 3933TIP3   OH211762   2.533   5.246   1.041 -0.6513  0.0858 -0.3193
 3933TIP3    H111763   2.497   5.326   1.080  0.2569 -0.2453  1.3086
 3933TIP3    H211764   2.555   5.191   1.116  1.0507 -0.6703 -1.3174
 3934TIP3   OH211765   3.409   0.079   1.543  0.3098 -0.2676 -0.2624
 3934TIP3    H111766   3.415   0.119   1.630 -4.0035  2.1621 -0.8104
 3934TIP3    H211767   3.324   0.034   1.542  0.7823 -1.3141 -2.8269
 3935TIP3   OH211768   6.815   3.626   5.147 -0.0744  0.2038 -0.3439
 3935TIP3    H111769   6.794   3.672   5.229  2.0628 -0.7331  0.8261
 3935TIP3    H211770   6.730   3.598   5.114 -1.0941  1.4446  1.0457
 3936TIP3   OH211771   3.751   4.358   1.810  0.7226 -0.2220 -0.5125
 3936TIP3    H111772   3.789   4.402   1.734 -0.3551  0.7178 -0.5308
 3936TIP3    H211773   3.671   4.317   1.777 -0.5779  1.4842  0.3873
 3937TIP3   OH211774   0.324   4.820   4.633 -0.7847  0.4574 -0.3103
 3937TIP3    H111775   0.341   4.727   4.645  0.8658  0.6422 -0.9279
 3937TIP3    H211776   0.247   4.838   4.686 -0.9773 -1.2081  0.0029
 3938TIP3   OH211777   6.957   2.553   1.302 -0.2117  0.4673  0.3714
 3938TIP3    H111778   6.869   2.525   1.329 -0.3300  1.2085  0.8144
 3938TIP3    H211779   6.955   2.648   1.314  0.1496  0.6783 -1.1280
 3939TIP3   OH211780   6.320   5.897   2.464  0.0830 -0.1088  0.2272
 3939TIP3    H111781   6.310   5.823   2.524 -0.0935  0.3949  0.8333
 3939TIP3    H211782   6.237   5.944   2.470  1.4817  2.4166  2.9881
 3940TIP3   OH211783   1.776   4.243   0.253  0.3780  0.1002 -0.1622
 3940TIP3    H111784   1.855   4.266   0.204 -0.7409  0.2592 -1.9775
 3940TIP3    H211785   1.735   4.173   0.202  0.0785 -1.0304  1.5316
 3941TIP3   OH211786   0.140   5.394   0.972 -0.3391  0.1776  0.1019
 3941TIP3    H111787   0.186   5.475   0.994 -0.2371  0.3805 -0.7999
 3941TIP3    H211788   0.197   5.350   0.909 -0.6607 -0.3176  0.1501
 3942TIP3   OH211789   6.692   4.206   3.081  0.1697  0.1217  0.0731
 3942TIP3    H111790   6.692   4.302   3.080 -0.9999  0.1519  0.7182
 3942TIP3    H211791   6.738   4.181   3.001 -2.1678  1.2569 -1.7435
 3943TIP3   OH211792   0.055   2.932   3.867 -0.1400  0.1205 -0.3003
 3943TIP3    H111793   0.025   3.021   3.884 -0.5310 -0.3819  2.0820
 3943TIP3    H211794  -0.025   2.883   3.846 -0.3800 -0.2010  1.2047
 3944TIP3   OH211795   5.138   1.694   2.368  0.3456 -0.2893  0.7461
 3944TIP3    H111796   5.089   1.767   2.331  1.8572  1.4235  1.9353
 3944TIP3    H211797   5.091   1.673   2.448 -0.6519 -1.3154 -0.0880
 3945TIP3   OH211798   3.619   0.353   4.666 -0.5069  0.0453  0.3971
 3945TIP3    H111799   3.676   0.427   4.684 -1.1498  0.5777  0.2769
 3945TIP3    H211800   3.592   0.322   4.752  0.3063 -0.4844  0.4669
 3946TIP3   OH211801   4.415   3.341   1.133 -0.2469  0.2224  0.5238
 3946TIP3    H111802   4.334   3.301   1.162 -0.0010  0.4418  1.5548
 3946TIP3    H211803   4.393   3.433   1.118 -0.2113  0.2612  0.7090
 3947TIP3   OH211804   4.074   4.010   5.082  0.3746  0.5866  0.1265
 3947TIP3    H111805   4.056   3.916   5.076  0.7853  0.4961  0.2624
 3947TIP3    H211806   3.990   4.052   5.063  0.0713  0.1831  0.5537
 3948TIP3   OH211807   0.661   2.403   3.149  0.3592 -0.0436 -0.2333
 3948TIP3    H111808   0.735   2.362   3.105 -0.0114 -1.5964  0.5224
 3948TIP3    H211809   0.654   2.490   3.109  2.6352  0.1903 -0.2503
 3949TIP3   OH211810   1.377   2.413   4.857 -0.2399  0.2701 -0.3320
 3949TIP3    H111811   1.316   2.390   4.928  0.8996 -0.5797  0.4020
 3949TIP3    H211812   1.445   2.464   4.900  0.5064 -0.3262 -0.7983
 3950TIP3   OH211813   4.107   0.296   3.266 -0.1729 -0.6913 -0.3091
 3950TIP3    H111814   4.141   0.333   3.184 -0.5498 -0.5232 -0.3908
 3950TIP3    H211815   4.169   0.226   3.288  0.5165 -0.0449 -0.1793
 3951TIP3   OH211816   3.961   5.319   5.624  0.0661  0.1835  0.3168
 3951TIP3    H111817   4.047   5.330   5.582 -0.6448 -2.2545 -2.0594
 3951TIP3    H211818   3.981   5.276   5.707  1.2057  0.2655  0.1012
 3952TIP3   OH211819   1.321   2.849   3.010  0.7522 -0.2338 -0.3668
 3952TIP3    H111820   1.299   2.796   2.934  0.4195 -0.8526  0.1528
 3952TIP3    H211821   1.293   2.797   3.085 -1.7354  1.5986  0.1188
 3953TIP3   OH211822   1.053   4.843   2.221 -0.8734  0.3219  0.2841
 3953TIP3    H111823   0.992   4.828   2.148  0.2271 -0.8607 -0.4267
 3953TIP3    H211824   1.087   4.931   2.206 -0.5513  0.0337 -0.7294
 3954TIP3   OH211825   5.128   0.599   1.004 -0.4010 -0.1000 -0.4951
 3954TIP3    H111826   5.121   0.504   0.999  0.8249 -0.1602 -1.7968
 3954TIP3    H211827   5.222   0.617   1.003 -0.6040  1.1069  0.3019
 3955TIP3   OH211828   6.879   0.018   1.185 -1.0480 -0.4578 -0.2457
 3955TIP3    H111829   6.797   0.066   1.195  0.1618  1.2877  2.6966
 3955TIP3    H211830   6.930   0.070   1.122 -0.8995  0.4871  0.6310
 3956TIP3   OH211831   2.651   4.198   3.503  0.3431  0.4260 -0.4062
 3956TIP3    H111832   2.570   4.148   3.499  0.6585 -0.0007 -2.6518
 3956TIP3    H211833   2.688   4.177   3.589 -0.7144 -1.2996 -0.3292
 3957TIP3   OH211834   3.030   1.179   2.735 -0.5963  0.0188  0.4513
 3957TIP3    H111835   3.122   1.188   2.711 -0.7326  0.1803 -0.0284
 3957TIP3    H211836   2.983   1.176   2.651 -1.0470  0.1975  0.6900
 3958TIP3   OH211837   6.524   4.336   0.868 -0.1555  0.0217  0.3050
 3958TIP3    H111838   6.468   4.387   0.809  0.9731  0.7743 -0.1556
 3958TIP3    H211839   6.466   4.309   0.939 -1.2695  0.1221 -0.5410
 3959TIP3   OH211840   4.819   2.924   1.641 -0.0105  0.1613 -0.2980
 3959TIP3    H111841   4.731   2.914   1.607 -0.2472 -1.3464  0.6586
 3959TIP3    H211842   4.870   2.956   1.567 -1.4902  1.8677 -0.6521
 3960TIP3   OH211843   6.545   3.065   2.320 -0.5232 -0.3094 -0.3456
 3960TIP3    H111844   6.546   3.055   2.415 -1.4598  1.2949 -0.1187
 3960TIP3    H211845   6.487   3.139   2.305 -0.7899 -0.8399 -2.2127
 3961TIP3   OH211846   2.105   5.797   1.378  0.3189 -0.0228  0.4136
 3961TIP3    H111847   2.173   5.730   1.387  0.9364  0.6759  1.1095
 3961TIP3    H211848   2.024   5.752   1.403  0.6030 -0.7163  0.1199
 3962TIP3   OH211849   2.031   5.881   0.383  0.0808  0.0666  0.3643
 3962TIP3    H111850   1.988   5.930   0.313  1.2019 -1.4973 -1.5466
 3962TIP3    H211851   2.114   5.852   0.345 -0.9331 -4.1901  0.8327
 3963TIP3   OH211852   1.694   2.095   1.591 -0.1779 -0.1407 -0.4862
 3963TIP3    H111853   1.670   2.030   1.525  0.2037 -1.5547  0.7231
 3963TIP3    H211854   1.785   2.075   1.612 -0.3522  0.1656  0.5904
 3964TIP3   OH211855   5.437   2.125   2.499  0.0374 -0.3648  0.4812
 3964TIP3    H111856   5.469   2.127   2.409  1.1639  0.4378  0.8789
 3964TIP3    H211857   5.343   2.143   2.492  0.3924  1.3327 -0.4273
 3965TIP3   OH211858   4.269   4.200   1.379  0.5665  0.9347 -0.0601
 3965TIP3    H111859   4.178   4.203   1.408  0.1249  1.1940 -1.3807
 3965TIP3    H211860   4.263   4.206   1.283  1.9406  0.3830 -0.1979
 3966TIP3   OH211861   7.019   1.195   0.081  0.3734  0.1389  0.1704
 3966TIP3    H111862   6.934   1.236   0.093  0.5331  0.0541  1.7680
 3966TIP3    H211863   7.074   1.263   0.042 -0.3387  0.2609 -0.6515
 3967TIP3   OH211864   1.092   4.938   0.513  0.4011 -0.3396 -0.5238
 3967TIP3    H111865   1.156   5.008   0.526  0.8258 -0.4805 -1.7333
 3967TIP3    H211866   1.107   4.878   0.586  0.9505  0.1489 -0.2241
 3968TIP3   OH211867   5.906   0.500   4.886 -0.0826  0.2582 -0.4393
 3968TIP3    H111868   5.970   0.515   4.955  0.7364  0.5695 -1.2348
 3968TIP3    H211869   5.957   0.469   4.811 -0.9554 -0.1871 -0.8742
 3969TIP3   OH211870   3.112   2.380   4.756  0.4107  0.3424 -0.1530
 3969TIP3    H111871   3.130   2.348   4.667  0.4698 -0.0084 -0.0171
 3969TIP3    H211872   3.016   2.386   4.760  0.3173 -1.0610  0.2375
 3970TIP3   OH211873   3.651   4.062   1.088  0.7269  0.4903  0.4801
 3970TIP3    H111874   3.740   4.090   1.067  0.9339  0.3000  1.1096
 3970TIP3    H211875   3.644   4.072   1.183  0.3975 -0.4322  0.5609
 3971TIP3   OH211876   0.663   1.724   2.710 -0.0497 -0.1872 -0.2974
 3971TIP3    H111877   0.736   1.784   2.696  1.3431 -1.9728 -1.0484
 3971TIP3    H211878   0.585   1.779   2.700  1.1256  1.2681 -2.2687
 3972TIP3   OH211879   0.448   0.963   4.467  0.3785 -0.0407  0.1086
 3972TIP3    H111880   0.382   0.894   4.466 -2.1000  2.1047  2.1563
 3972TIP3    H211881   0.427   1.017   4.391  1.7750 -0.9618 -0.9883
 3973TIP3   OH211882   7.076   3.493   2.008 -0.0443 -0.0101 -0.3347
 3973TIP3    H111883   7.013   3.565   2.020  0.4172  0.6272 -1.5854
 3973TIP3    H211884   7.149   3.533   1.962  0.6843 -1.0663 -0.1187
 3974TIP3   OH211885   1.013   2.368   3.810  0.0288 -0.1191  0.0620
 3974TIP3    H111886   0.943   2.372   3.875  0.2594 -0.5189  0.3376
 3974TIP3    H211887   1.090   2.401   3.856 -0.1452  1.1409 -0.4903
 3975TIP3   OH211888   0.256   4.041   4.349 -0.2667 -0.1297  0.9181
 3975TIP3    H111889   0.293   4.075   4.430 -1.7112  2.1401  0.7043
 3975TIP3    H211890   0.296   4.094   4.280  0.8349 -1.9357  0.0987
 3976TIP3   OH211891   5.061   0.843   1.112  0.0506  0.0019 -0.1238
 3976TIP3    H111892   5.104   0.785   1.049  0.3714 -0.5213  0.5716
 3976TIP3    H211893   4.985   0.793   1.142  0.1843  0.0521  0.2895
 3977TIP3   OH211894   7.129   4.529   1.096 -0.4141 -0.6273  0.0249
 3977TIP3    H111895   7.224   4.524   1.104 -0.4830 -1.7693  0.3762
 3977TIP3    H211896   7.097   4.528   1.187 -0.8152 -2.4605 -0.0990
 3978TIP3   OH211897   1.328   4.822   2.533 -0.5777 -0.2726  0.0884
 3978TIP3    H111898   1.262   4.758   2.507  0.0391 -1.6313  1.7252
 3978TIP3    H211899   1.362   4.790   2.616  1.2612  1.0750 -0.0779
 3979TIP3   OH211900   3.327   3.126   4.698  0.3400 -0.3450 -0.3916
 3979TIP3    H111901   3.316   3.062   4.628  0.6403  0.2254 -0.9736
 3979TIP3    H211902   3.402   3.094   4.749 -0.6831 -1.4627  0.4793
 3980TIP3   OH211903   2.480   1.686   2.254 -0.8581  0.0061  0.2500
 3980TIP3    H111904   2.531   1.703   2.333 -0.3155  0.8241 -0.2615
 3980TIP3    H211905   2.503   1.757   2.195 -0.1283 -1.3836 -1.2007
 3981TIP3   OH211906   6.908   3.362   5.093  0.1530  0.1783  0.2289
 3981TIP3    H111907   6.893   3.457   5.093 -1.9266 -0.0961 -0.9482
 3981TIP3    H211908   6.904   3.338   5.185  2.7276  1.4544  0.7610
 3982TIP3   OH211909   1.001   5.147   4.580 -0.0264 -0.0216  0.2347
 3982TIP3    H111910   0.934   5.191   4.527 -1.2178 -0.4275  1.3518
 3982TIP3    H211911   1.024   5.210   4.648 -1.3603 -0.8568  1.5284
 3983TIP3   OH211912   4.868   3.794   3.345 -0.2839 -0.1137  0.0822
 3983TIP3    H111913   4.874   3.827   3.434  0.8331 -2.0891  0.7975
 3983TIP3    H211914   4.816   3.860   3.298 -1.2343  0.7669  2.2605
 3984TIP3   OH211915   0.344   1.808   3.709  0.1182  0.2011  0.0657
 3984TIP3    H111916   0.338   1.869   3.783  0.9336 -1.0872  1.2441
 3984TIP3    H211917   0.355   1.864   3.633  2.5001  1.5610  1.2771
 3985TIP3   OH211918   6.056   4.564   3.685  0.1742 -0.0266 -0.1661
 3985TIP3    H111919   6.133   4.522   3.646 -0.3357 -2.2567  1.0741
 3985TIP3    H211920   5.986   4.546   3.622 -0.1646 -1.6198  0.6279
 3986TIP3   OH211921   0.656   1.682   2.212 -0.4406  0.1282 -0.4156
 3986TIP3    H111922   0.602   1.638   2.278  0.1320  0.6375  0.4212
 3986TIP3    H211923   0.698   1.754   2.260  0.1898  0.3524 -1.2784
 3987TIP3   OH211924   7.205   6.617   1.931  0.7810  0.1362  0.3515
 3987TIP3    H111925   7.140   6.682   1.959  1.4009  0.8553  0.1473
 3987TIP3    H211926   7.153   6.547   1.893  0.0534  0.1365  1.3080
 3988TIP3   OH211927   1.692   2.422   2.791 -0.6935  0.6186 -0.0246
 3988TIP3    H111928   1.691   2.489   2.723  1.7650  2.0422  1.2273
 3988TIP3    H211929   1.740   2.349   2.752  0.1316  1.1681 -0.0408
 3989TIP3   OH211930   5.405   1.616   4.461 -0.2310  0.0861 -0.3181
 3989TIP3    H111931   5.463   1.565   4.405  0.8910  0.5946  0.3374
 3989TIP3    H211932   5.353   1.668   4.400  0.4293  0.0662 -0.9214
 3990TIP3   OH211933   6.978   3.551   1.252  0.4221  0.1059 -0.6810
 3990TIP3    H111934   7.057   3.575   1.300  0.5898  1.8393 -1.7235
 3990TIP3    H211935   6.976   3.456   1.255  0.8426  0.1097  2.0171
 3991TIP3   OH211936   6.348   3.107   4.363  0.6199 -0.2387  0.2909
 3991TIP3    H111937   6.369   3.079   4.274 -1.0637 -1.4498  0.2402
 3991TIP3    H211938   6.321   3.198   4.354 -2.0279 -1.0522 -0.8950
 3992TIP3   OH211939   5.030   2.435   4.948  0.2089 -0.0052 -0.1554
 3992TIP3    H111940   5.014   2.343   4.926  0.4135 -0.2262  0.6014
 3992TIP3    H211941   4.945   2.478   4.934  0.0163 -0.3782 -0.1472
 3993TIP3   OH211942   0.329   3.968   0.742  0.4354  0.8188  0.3409
 3993TIP3    H111943   0.265   3.969   0.670  1.2156 -1.2075 -0.4612
 3993TIP3    H211944   0.313   3.885   0.786  0.3341  1.7987  2.2314
 3994TIP3   OH211945   1.536   0.407   0.606 -0.4452  0.0127 -0.4719
 3994TIP3    H111946   1.538   0.403   0.702  1.3691  0.6118 -0.4335
 3994TIP3    H211947   1.491   0.327   0.579 -0.0851 -0.6750  0.8775
 3995TIP3   OH211948   4.961   4.527   0.708  0.1578  0.1528 -0.8413
 3995TIP3    H111949   5.021   4.468   0.662  0.3753 -0.9928  0.8052
 3995TIP3    H211950   5.006   4.612   0.709  1.9587 -0.7351  0.5925
 3996TIP3   OH211951   6.350   2.417   4.847  0.0308  0.4937  0.3615
 3996TIP3    H111952   6.273   2.467   4.873 -1.6915 -1.6556 -0.2410
 3996TIP3    H211953   6.365   2.356   4.919  1.5909  1.2845  0.7414
 3997TIP3   OH211954   7.101   6.087   0.858  0.2313 -0.1291 -0.1909
 3997TIP3    H111955   7.104   6.179   0.832 -0.8320 -0.1029 -0.2854
 3997TIP3    H211956   7.070   6.090   0.949 -2.5027 -0.4513 -1.0002
 3998TIP3   OH211957   2.938   2.970   0.211 -0.6423  0.3395  0.1404
 3998TIP3    H111958   2.874   3.041   0.202  0.7597  1.5614 -0.8838
 3998TIP3    H211959   2.954   2.964   0.305 -0.5859  1.6014  0.2316
 3999TIP3   OH211960   3.616   4.276   5.132 -0.2496  0.5101  0.3143
 3999TIP3    H111961   3.675   4.276   5.057  2.1069  0.0996  2.0455
 3999TIP3    H211962   3.569   4.193   5.126 -2.0151  1.5546 -1.9970
 4000TIP3   OH211963   0.015   5.011   5.310  0.5736 -0.1572 -0.0036
 4000TIP3    H111964   0.056   4.926   5.292 -0.0680 -0.7829  1.2661
 4000TIP3    H211965   0.079   5.057   5.365  0.3542 -0.3912  0.4550
 4001TIP3   OH211966   4.071   3.807   3.637 -0.1112 -0.6001 -0.0649
 4001TIP3    H111967   4.082   3.715   3.614 -1.4813 -0.8012 -0.0127
 4001TIP3    H211968   3.982   3.812   3.673  0.1650  0.6295  0.5020
 4002TIP3   OH211969   3.510   3.765   1.285  0.1346  0.1300 -0.1385
 4002TIP3    H111970   3.539   3.741   1.197 -0.1452  0.8481 -0.4354
 4002TIP3    H211971   3.589   3.797   1.328 -0.0350  1.3704 -0.6960
 4003TIP3   OH211972   7.143   2.193   4.597  0.2903 -0.0247  0.1641
 4003TIP3    H111973   7.194   2.119   4.631  0.9460 -0.1052 -0.9174
 4003TIP3    H211974   7.184   2.212   4.512 -0.2969  1.1488  0.1300
 4004TIP3   OH211975   3.270   1.023   1.735  0.2022 -0.3933 -0.6400
 4004TIP3    H111976   3.296   0.954   1.796  0.5500  0.6931  0.4768
 4004TIP3    H211977   3.324   1.008   1.658 -1.0631 -2.5052 -1.2266
 4005TIP3   OH211978   1.751   2.230   2.992 -0.4713  0.0384 -0.1461
 4005TIP3    H111979   1.778   2.148   2.953 -0.8924 -0.0371 -0.2871
 4005TIP3    H211980   1.738   2.289   2.918 -1.2170 -0.0889 -0.1303
 4006TIP3   OH211981   4.210   3.651   1.182 -0.3592 -0.7062 -0.0491
 4006TIP3    H111982   4.216   3.738   1.142 -1.2071 -0.3128  0.6558
 4006TIP3    H211983   4.167   3.597   1.116 -0.2827 -0.4672 -0.2962
 4007TIP3   OH211984   4.091   5.023   0.803  0.4107  0.5854  0.1550
 4007TIP3    H111985   4.022   5.072   0.758  1.5169  0.7343 -1.4730
 4007TIP3    H211986   4.109   5.073   0.883 -1.5750  0.3376  0.8116
 4008TIP3   OH211987   6.017   0.836   5.724 -0.1809  0.1692 -0.2804
 4008TIP3    H111988   5.932   0.852   5.766 -0.5293 -2.2188  0.0660
 4008TIP3    H211989   6.025   0.906   5.659 -0.4862  2.8547  2.3796
 4009TIP3   OH211990   4.833   5.439   4.168 -0.3763 -0.4803 -0.0272
 4009TIP3    H111991   4.751   5.487   4.173 -1.1081 -1.6838 -0.0669
 4009TIP3    H211992   4.893   5.499   4.123 -2.3138 -0.9401 -3.6966
 4010TIP3   OH211993   1.576   6.287   4.722  0.2492  0.2614  0.1309
 4010TIP3    H111994   1.481   6.276   4.716  0.4449 -0.7517 -2.1891
 4010TIP3    H211995   1.601   6.328   4.639  1.9214 -0.2616  0.3338
 4011TIP3   OH211996   0.942   5.032   3.223  0.5921  0.1335  0.1120
 4011TIP3    H111997   0.949   4.938   3.213  0.2854  0.3135 -2.5656
 4011TIP3    H211998   0.890   5.061   3.147 -0.2513  2.3439  1.4085
 4012TIP3   OH211999   0.608   4.550   4.250 -0.4772  0.0486 -0.3177
 4012TIP3    H112000   0.696   4.580   4.276 -1.1064 -0.2236  2.5236
 4012TIP3    H212001   0.562   4.631   4.228  0.7163  0.1086 -2.9122
 4013TIP3   OH212002   1.089   4.930   2.874 -0.3634 -0.3324 -0.0919
 4013TIP3    H112003   1.018   4.865   2.879 -1.8035  1.0947 -0.8916
 4013TIP3    H212004   1.081   4.966   2.786  0.3720  0.9566  0.3532
 4014TIP3   OH212005   5.619   0.393   4.013 -0.7588 -0.0279 -0.1428
 4014TIP3    H112006   5.535   0.359   3.980 -0.8430 -0.1729  0.2197
 4014TIP3    H212007   5.595   0.447   4.088 -0.7589  1.9112 -1.4711
 4015TIP3   OH212008   0.461   4.652   3.350 -0.2032  0.4673  0.0610
 4015TIP3    H112009   0.502   4.569   3.325 -0.9994  0.9868 -3.3731
 4015TIP3    H212010   0.535   4.707   3.377  0.4914 -0.8486  0.9608
 4016TIP3   OH212011   3.466   1.977   1.330  0.1524  0.0811 -0.4779
 4016TIP3    H112012   3.451   2.071   1.320  1.2374  0.1909 -1.3178
 4016TIP3    H212013   3.453   1.941   1.242  1.7602 -0.2227 -0.6235
 4017TIP3   OH212014   1.810   0.494   0.180 -0.1614  0.3758 -0.1858
 4017TIP3    H112015   1.870   0.503   0.106  1.9255  0.4706  1.4135
 4017TIP3    H212016   1.773   0.582   0.192 -0.7964  0.2782 -1.2940
 4018TIP3   OH212017   2.622   1.352   0.410  0.3833  0.3952 -0.2276
 4018TIP3    H112018   2.609   1.329   0.502 -1.2444 -1.3699 -0.8251
 4018TIP3    H212019   2.542   1.398   0.385 -0.1245 -0.9601 -1.2369
 4019TIP3   OH212020   3.119   3.893   4.399  0.7591 -0.1649 -0.3895
 4019TIP3    H112021   3.084   3.978   4.370  0.4820 -0.0518  0.2663
 4019TIP3    H212022   3.044   3.834   4.395  0.9988 -0.4347 -1.0421
 4020TIP3   OH212023   6.838   4.008   1.506 -0.4726 -0.0724 -0.3461
 4020TIP3    H112024   6.838   4.104   1.506  0.8342 -0.0512 -0.5396
 4020TIP3    H212025   6.839   3.984   1.413  1.3034 -0.2137 -0.3283
 4021TIP3   OH212026   0.402   4.386   4.342  0.8808  0.4739  0.3924
 4021TIP3    H112027   0.474   4.442   4.312  0.6711  0.2493 -0.5824
 4021TIP3    H212028   0.404   4.311   4.283  0.6672 -0.1789  1.1953
 4022TIP3   OH212029   6.069   1.121   5.690 -0.4855  0.0021 -0.0534
 4022TIP3    H112030   6.124   1.115   5.768 -0.6890 -1.1685  0.0048
 4022TIP3    H212031   6.128   1.100   5.618 -0.4009  0.6624 -0.1829
 4023TIP3   OH212032   6.229   1.826   4.958  0.4603 -0.2423  0.4929
 4023TIP3    H112033   6.146   1.816   5.006  0.0940 -0.3040 -0.1413
 4023TIP3    H212034   6.296   1.803   5.022 -0.0445 -0.7122  0.8686
 4024TIP3   OH212035   7.185   5.992   4.586 -0.2357 -0.3917  0.1437
 4024TIP3    H112036   7.197   5.898   4.574 -1.8430 -0.6346  0.1620
 4024TIP3    H212037   7.115   6.015   4.526  0.3155  0.8645 -0.0556
 4025TIP3   OH212038   4.039   6.012   2.558  0.2210  0.2319  0.3600
 4025TIP3    H112039   3.987   5.977   2.631 -1.4046 -1.1422 -1.3803
 4025TIP3    H212040   4.122   6.036   2.599 -0.3066 -1.2524  2.5351
 4026TIP3   OH212041   6.639   0.273   3.992  0.1879 -0.0921 -0.1107
 4026TIP3    H112042   6.610   0.272   3.901 -0.9876  0.2986  0.2458
 4026TIP3    H212043   6.639   0.366   4.016  1.5222 -0.0948 -0.0118
 4027TIP3   OH212044   3.847   3.631   0.895  0.3247 -0.2601 -0.4297
 4027TIP3    H112045   3.873   3.555   0.948  0.2904  0.2146  0.2709
 4027TIP3    H212046   3.893   3.618   0.812 -0.4982 -1.5892 -0.7050
 4028TIP3   OH212047   3.646   6.804   2.883 -0.3867 -0.3487 -0.6064
 4028TIP3    H112048   3.592   6.732   2.915 -0.4661 -0.0669 -0.0812
 4028TIP3    H212049   3.670   6.779   2.794 -0.1334 -1.1758 -0.3116
 4029TIP3   OH212050   3.709   3.272   3.782  0.2773 -0.7082 -0.2224
 4029TIP3    H112051   3.790   3.221   3.788  2.0493  2.0364  3.5526
 4029TIP3    H212052   3.735   3.361   3.808 -3.5904  0.8728 -1.0811
 4030TIP3   OH212053   0.160   5.405   4.999 -0.0668  0.2215  0.0133
 4030TIP3    H112054   0.248   5.401   5.038  0.6115  0.5620 -1.3965
 4030TIP3    H212055   0.172   5.455   4.918 -1.3058 -0.8509 -0.8759
 4031TIP3   OH212056   4.634   6.534   4.863 -0.0890 -0.2353 -0.0606
 4031TIP3    H112057   4.601   6.444   4.851 -0.5191  0.0432 -1.0761
 4031TIP3    H212058   4.555   6.586   4.876  0.1522  0.0223  0.3570
 4032TIP3   OH212059   6.876   5.028   2.543  0.1741 -0.7958 -0.1878
 4032TIP3    H112060   6.922   4.944   2.541  1.7128  0.0103 -0.8101
 4032TIP3    H212061   6.917   5.079   2.473 -2.3172 -0.3015 -1.3713
 4033TIP3   OH212062   5.896   5.340   3.099 -0.0279 -0.0089 -0.6766
 4033TIP3    H112063   5.816   5.307   3.058 -0.7941  1.0218 -0.0609
 4033TIP3    H212064   5.899   5.432   3.073  0.0662  0.3698  0.6414
 4034TIP3   OH212065   5.377   4.207   0.122  0.6900 -0.4716 -0.7559
 4034TIP3    H112066   5.422   4.146   0.182  1.9572 -0.4422 -1.6317
 4034TIP3    H212067   5.445   4.234   0.061  0.1840  1.9290 -0.3413
 4035TIP3   OH212068   3.435   6.014   0.837  0.7481 -0.2518 -0.4231
 4035TIP3    H112069   3.472   6.097   0.866  1.1748 -0.4193 -0.4833
 4035TIP3    H212070   3.511   5.961   0.814  0.5175 -0.9417  0.3704
 4036TIP3   OH212071   2.141   1.746   3.958  0.0459  0.0627 -0.3362
 4036TIP3    H112072   2.073   1.685   3.926 -0.1660  0.5076 -0.7395
 4036TIP3    H212073   2.101   1.832   3.948 -0.4549  0.1732  2.1406
 4037TIP3   OH212074   4.837   4.691   0.429  0.1743 -0.1272  0.2363
 4037TIP3    H112075   4.878   4.771   0.464  0.7472  0.1012 -0.9181
 4037TIP3    H212076   4.911   4.636   0.405 -0.1578  0.1460 -1.5640
 4038TIP3   OH212077   2.777   2.724   0.187  0.2614  0.0339  0.1273
 4038TIP3    H112078   2.836   2.676   0.245  1.9459  0.9680 -0.7346
 4038TIP3    H212079   2.820   2.809   0.175  0.6306 -0.5124 -3.3808
 4039TIP3   OH212080   1.465   2.888   0.167 -0.4740 -0.2054 -0.1559
 4039TIP3    H112081   1.452   2.970   0.121 -0.0110 -0.2576 -0.3907
 4039TIP3    H212082   1.527   2.839   0.112  0.7722  0.0871  0.9303
 4040TIP3   OH212083   2.861   1.074   2.988  0.1894  0.3747 -0.1322
 4040TIP3    H112084   2.879   1.056   2.896 -1.3744  0.5759 -0.5193
 4040TIP3    H212085   2.870   1.169   2.997 -0.0946  0.4118 -0.2046
 4041TIP3   OH212086   4.423   6.365   3.794  0.2877 -0.1743 -0.4239
 4041TIP3    H112087   4.467   6.297   3.844 -0.7106  1.0536  2.3370
 4041TIP3    H212088   4.446   6.447   3.839 -0.2998  1.0856 -2.2874
 4042TIP3   OH212089   5.425   4.970   1.188  0.3071  0.6406 -0.4726
 4042TIP3    H112090   5.493   4.979   1.120  0.6477  2.0167  0.0366
 4042TIP3    H212091   5.365   5.042   1.172 -2.3584 -1.7706 -2.2928
 4043TIP3   OH212092   1.758   0.213   0.465  0.0066  0.2237 -0.3188
 4043TIP3    H112093   1.706   0.272   0.411 -0.3063  1.3870  1.2115
 4043TIP3    H212094   1.813   0.166   0.402 -1.6902  0.1435 -1.8186
 4044TIP3   OH212095   0.327   2.005   5.137  0.0450 -0.1807  0.9321
 4044TIP3    H112096   0.241   2.047   5.135  0.4601  0.6582 -0.9697
 4044TIP3    H212097   0.385   2.066   5.092  1.3755 -1.3189  1.0333
 4045TIP3   OH212098   5.246   4.441   1.466  0.2685  0.2746 -0.1122
 4045TIP3    H112099   5.325   4.471   1.512 -0.7967  1.9975  0.7199
 4045TIP3    H212100   5.208   4.521   1.429 -1.1683 -0.4857 -0.3510
 4046TIP3   OH212101   2.350   5.654   5.367 -0.4634  0.1995  0.5268
 4046TIP3    H112102   2.365   5.597   5.291  0.1421 -0.6935  1.2982
 4046TIP3    H212103   2.425   5.714   5.367  0.4767 -0.9186  1.3864
 4047TIP3   OH212104   6.662   0.338   2.550  0.1461  0.0777 -0.0951
 4047TIP3    H112105   6.582   0.306   2.591  0.4635 -0.5165  0.0838
 4047TIP3    H212106   6.670   0.429   2.579  0.5403 -0.4141  1.4702
 4048TIP3   OH212107   6.960   5.067   0.741  0.6439  0.4914  0.8887
 4048TIP3    H112108   6.990   5.109   0.660 -0.8439  1.0943  0.6312
 4048TIP3    H212109   7.016   5.105   0.809 -0.9762  3.3820  0.7514
 4049TIP3   OH212110   2.714   0.724   3.693 -0.3924 -0.0013  0.0143
 4049TIP3    H112111   2.742   0.755   3.779 -1.9564  0.5818  0.3459
 4049TIP3    H212112   2.665   0.797   3.656  2.1644  0.6763 -2.4135
 4050TIP3   OH212113   0.937   1.700   5.336  0.0838  0.2365  0.3980
 4050TIP3    H112114   0.992   1.715   5.259  1.0085  0.4866  1.0796
 4050TIP3    H212115   0.869   1.640   5.307  0.8597 -0.2608 -0.4173
 4051TIP3   OH212116   1.024   4.427   1.208  0.1789 -0.2064 -0.0553
 4051TIP3    H112117   0.952   4.368   1.187  0.1000 -0.7269  1.5345
 4051TIP3    H212118   1.031   4.485   1.132 -1.0145 -1.0135 -0.8120
 4052TIP3   OH212119   6.806   3.036   4.424 -0.2443 -0.8284  0.4298
 4052TIP3    H112120   6.886   2.989   4.447 -0.2983 -0.7214  0.8404
 4052TIP3    H212121   6.736   2.974   4.445 -0.2815 -0.8193  0.3294
 4053TIP3   OH212122   6.640   6.689   5.458 -0.0808  0.0714 -0.0037
 4053TIP3    H112123   6.594   6.610   5.484  1.7928 -1.3103 -0.7116
 4053TIP3    H212124   6.610   6.706   5.368 -0.0278 -0.1810 -0.0683
 4054TIP3   OH212125   5.469   1.369   0.395  0.5682 -0.3389  0.5931
 4054TIP3    H112126   5.391   1.339   0.349  0.9959 -1.4628  0.5657
 4054TIP3    H212127   5.452   1.347   0.487 -0.4110  2.1613  1.1000
 4055TIP3   OH212128   1.895   0.002   2.171 -0.1802 -0.1468  0.1342
 4055TIP3    H112129   1.939   0.067   2.117  0.6159 -0.3910  0.4751
 4055TIP3    H212130   1.916   0.027   2.261 -0.7575 -0.2620  0.3086
 4056TIP3   OH212131   0.915   3.444   3.074 -0.0616 -0.3056  0.4801
 4056TIP3    H112132   0.863   3.521   3.048  1.4128  0.2709 -0.9129
 4056TIP3    H212133   0.866   3.370   3.039 -1.4547 -0.0377  1.7516
 4057TIP3   OH212134   0.771   4.080   2.143 -0.2099 -0.3113  0.3960
 4057TIP3    H112135   0.721   3.999   2.157 -1.6198  0.5356  0.5162
 4057TIP3    H212136   0.705   4.149   2.152  0.2038  0.7118 -3.1265
 4058TIP3   OH212137   6.412   4.778   3.266 -0.5033  0.2861  0.3156
 4058TIP3    H112138   6.381   4.864   3.239 -1.2238 -0.5212 -1.5741
 4058TIP3    H212139   6.387   4.771   3.358 -0.3369  2.1145  0.5323
 4059TIP3   OH212140   4.748   2.932   3.583 -0.4276  0.5309  0.2913
 4059TIP3    H112141   4.782   2.938   3.672 -2.1999 -0.1731  1.0746
 4059TIP3    H212142   4.657   2.962   3.590 -1.3874 -1.8333 -0.7457
 4060TIP3   OH212143   1.483   0.348   5.212  0.3438  0.0045  0.6012
 4060TIP3    H112144   1.424   0.404   5.262 -1.0079 -1.4746  0.7454
 4060TIP3    H212145   1.570   0.371   5.244 -0.1145  2.2098  0.4194
 4061TIP3   OH212146   1.486   1.796   0.336 -0.4649  0.2725 -0.0296
 4061TIP3    H112147   1.564   1.751   0.305 -2.3604 -3.2470 -0.1711
 4061TIP3    H212148   1.495   1.885   0.303  2.2487 -0.6768 -2.2367
 4062TIP3   OH212149   6.158   0.616   4.803  0.1803  0.2062  0.0133
 4062TIP3    H112150   6.107   0.697   4.798  2.3524  1.6109 -0.9415
 4062TIP3    H212151   6.160   0.595   4.897 -0.7331  1.0248  0.2336
 4063TIP3   OH212152   2.355   3.334   1.214  0.0793 -0.2855 -0.0276
 4063TIP3    H112153   2.324   3.251   1.179 -1.0908  0.2823 -0.3733
 4063TIP3    H212154   2.446   3.317   1.239 -0.6841 -2.2153  1.6976
 4064TIP3   OH212155   6.235   2.475   3.524 -0.1934  0.1422 -0.2633
 4064TIP3    H112156   6.286   2.412   3.473 -0.0255  0.8539 -0.9925
 4064TIP3    H212157   6.161   2.496   3.468  0.4233  1.5572 -0.5938
 4065TIP3   OH212158   1.396   1.630   5.133 -0.2675 -0.1211 -0.4264
 4065TIP3    H112159   1.479   1.654   5.090 -0.1294  0.7276  0.2729
 4065TIP3    H212160   1.364   1.556   5.083  0.2651  0.3621 -1.5263
 4066TIP3   OH212161   4.464   2.301   4.775 -0.1367 -0.3267  0.2910
 4066TIP3    H112162   4.419   2.323   4.856  0.5652  1.1928  0.3018
 4066TIP3    H212163   4.548   2.263   4.803 -0.0362 -0.1168  0.2752
 4067TIP3   OH212164   0.084   6.511   2.877 -1.0184  0.0586  0.2170
 4067TIP3    H112165  -0.003   6.530   2.911 -0.4970  0.1280  1.5757
 4067TIP3    H212166   0.090   6.416   2.877 -1.4755  0.0139 -0.9328
 4068TIP3   OH212167   0.031   6.373   2.617  0.7170 -0.6630  0.0089
 4068TIP3    H112168   0.068   6.319   2.687 -0.7053 -2.1655 -0.3182
 4068TIP3    H212169  -0.038   6.423   2.660  0.7581 -0.5512 -0.0553
 4069TIP3   OH212170   4.088   0.801   2.772 -0.4151  0.6872  0.4175
 4069TIP3    H112171   4.047   0.795   2.686  0.2306  0.3284  0.1369
 4069TIP3    H212172   4.163   0.858   2.759 -1.5655  2.4916  1.2250
 4070TIP3   OH212173   1.343   5.615   1.269 -0.2166  0.5610  0.0371
 4070TIP3    H112174   1.353   5.609   1.174  0.0070  2.0257 -0.0551
 4070TIP3    H212175   1.250   5.636   1.282 -0.3092  0.0919  0.1723
 4071TIP3   OH212176   6.893   5.449   3.120 -0.0407 -0.0716  0.0913
 4071TIP3    H112177   6.902   5.439   3.025 -1.1488  0.0172 -0.0380
 4071TIP3    H212178   6.983   5.448   3.153  0.4413  1.1096 -1.0845
 4072TIP3   OH212179   0.592   5.406   4.589 -0.3339  0.5626 -0.1797
 4072TIP3    H112180   0.516   5.423   4.644  0.5951 -0.3626  1.4531
 4072TIP3    H212181   0.667   5.422   4.646  0.6630 -1.2951 -0.8957
 4073TIP3   OH212182   3.584   4.153   0.763  0.4372 -0.6672 -0.1010
 4073TIP3    H112183   3.499   4.148   0.720 -0.0072 -0.9836  0.7861
 4073TIP3    H212184   3.600   4.064   0.793  0.6074 -0.4001  0.6195
 4074TIP3   OH212185   6.907   6.124   5.377 -0.5323  0.2808 -0.1222
 4074TIP3    H112186   6.823   6.079   5.366 -0.5472  0.5459 -1.1520
 4074TIP3    H212187   6.967   6.077   5.320  0.2339 -0.4059  1.2002
 4075TIP3   OH212188   2.152   2.773   3.807  0.0759  0.2041 -0.6502
 4075TIP3    H112189   2.133   2.730   3.724  0.4983 -1.6161  0.1643
 4075TIP3    H212190   2.071   2.765   3.857 -0.9160  3.1411 -1.5524
 4076TIP3   OH212191   2.824   2.073   4.067  0.2225  0.2634 -0.1141
 4076TIP3    H112192   2.835   1.981   4.093  0.9695 -0.1664 -1.7939
 4076TIP3    H212193   2.865   2.123   4.138 -0.8123 -0.6357  1.1733
 4077TIP3   OH212194  -0.005   0.667   0.450  0.1018  0.1896  0.3666
 4077TIP3    H112195  -0.024   0.759   0.465 -1.5161 -0.0645  0.1503
 4077TIP3    H212196   0.030   0.635   0.533  2.5800  1.3994 -0.1409
 4078TIP3   OH212197   5.756   0.888   1.869  0.6092  0.5040  0.2153
 4078TIP3    H112198   5.847   0.907   1.893  0.9022  1.5084 -1.5260
 4078TIP3    H212199   5.707   0.964   1.899  0.8179  1.2859 -1.3407
 4079TIP3   OH212200   5.302   4.202   2.757 -0.3281 -0.4665 -0.1448
 4079TIP3    H112201   5.379   4.167   2.711 -0.8247 -0.1711 -1.2470
 4079TIP3    H212202   5.228   4.175   2.703 -0.7309  2.5025 -1.2628
 4080TIP3   OH212203   3.013   5.726   2.816  0.2765 -0.3273 -0.2715
 4080TIP3    H112204   3.040   5.635   2.830  0.3247 -0.2845 -0.0815
 4080TIP3    H212205   2.963   5.748   2.894 -1.6129 -0.8825 -1.2736
 4081TIP3   OH212206   6.701   0.942   3.795  0.4850 -0.1261 -0.3733
 4081TIP3    H112207   6.702   0.969   3.887  1.6284 -0.0155 -0.4006
 4081TIP3    H212208   6.774   0.881   3.787 -1.3433 -2.3979 -0.5933
 4082TIP3   OH212209   6.353   6.315   4.822 -0.0826  0.0698  0.4007
 4082TIP3    H112210   6.343   6.319   4.727  3.0982  1.8542  0.0278
 4082TIP3    H212211   6.328   6.225   4.845  1.2941 -1.1436 -2.4230
 4083TIP3   OH212212   6.742   4.288   1.275 -0.5410 -0.9913 -0.1269
 4083TIP3    H112213   6.787   4.204   1.263  2.0220  0.4100 -1.1236
 4083TIP3    H212214   6.753   4.334   1.192 -1.2121  0.6435  0.6300
 4084TIP3   OH212215   4.085   4.906   2.188 -0.6461 -0.3203 -0.2114
 4084TIP3    H112216   3.991   4.891   2.181 -0.4064 -1.4267 -1.4136
 4084TIP3    H212217   4.116   4.906   2.098  0.6538 -0.9615  0.2118
 4085TIP3   OH212218   3.342   2.569   3.450  0.1948  0.1973  0.1455
 4085TIP3    H112219   3.380   2.583   3.364 -0.1799  1.9578  0.2084
 4085TIP3    H212220   3.282   2.644   3.462 -1.7070 -1.3583  0.8836
 4086TIP3   OH212221   6.104   4.840   2.719  0.6480 -0.1555  0.5799
 4086TIP3    H112222   6.188   4.879   2.744  0.7197  0.7132 -0.8616
 4086TIP3    H212223   6.125   4.750   2.697  1.4663  0.3592 -0.8984
 4087TIP3   OH212224   2.712   4.420   2.933 -0.0194  0.3302  0.6459
 4087TIP3    H112225   2.641   4.453   2.988  1.1265  0.5189  2.0801
 4087TIP3    H212226   2.710   4.325   2.946 -1.5256  0.0304 -1.2705
 4088TIP3   OH212227   0.231   6.432   4.639 -0.2757 -0.1635  0.4284
 4088TIP3    H112228   0.223   6.493   4.713 -0.8830  0.0388  0.2045
 4088TIP3    H212229   0.147   6.387   4.636 -0.5006  0.3006 -0.5488
 4089TIP3   OH212230   1.117   5.684   5.240  0.9329  0.1441 -0.4302
 4089TIP3    H112231   1.178   5.669   5.313  0.7747 -2.6929 -0.7534
 4089TIP3    H212232   1.031   5.690   5.281  1.0255  0.1955 -0.2435
 4090TIP3   OH212233   5.557   4.619   3.724 -0.0981  0.0139 -0.0957
 4090TIP3    H112234   5.509   4.701   3.731  1.1655  0.7332  0.4328
 4090TIP3    H212235   5.494   4.558   3.686 -2.0734  0.3533  2.3604
 4091TIP3   OH212236   0.946   0.740   0.406 -0.7839  0.2885 -0.0257
 4091TIP3    H112237   1.015   0.684   0.441  1.8413  3.2156 -0.0651
 4091TIP3    H212238   0.890   0.759   0.481 -0.2847 -0.3793  0.5282
 4092TIP3   OH212239   2.185   1.525   0.088 -0.2312 -0.1463  0.3978
 4092TIP3    H112240   2.235   1.559   0.162 -0.3537 -0.6737  0.7252
 4092TIP3    H212241   2.179   1.431   0.103  0.1335 -0.3342 -0.5215
 4093TIP3   OH212242   3.576   0.401   5.279  0.0367  0.1589  0.0554
 4093TIP3    H112243   3.481   0.411   5.292  0.2547  0.9010  1.1771
 4093TIP3    H212244   3.585   0.314   5.240 -1.2078  0.5883 -1.3292
 4094TIP3   OH212245   0.274   6.168   5.741 -0.0519  0.1457  0.7329
 4094TIP3    H112246   0.280   6.073   5.726  0.6163  0.4005 -0.7320
 4094TIP3    H212247   0.188   6.179   5.783 -0.3520 -1.0520  0.4919
 4095TIP3   OH212248   3.668   2.063   4.892 -0.8746 -0.3054 -0.8107
 4095TIP3    H112249   3.644   2.142   4.844 -0.5509  1.5273  1.8027
 4095TIP3    H212250   3.712   2.095   4.971  1.7654 -3.2178 -0.9011
 4096TIP3   OH212251   5.539   5.879   5.665 -0.3568  0.0322 -0.4482
 4096TIP3    H112252   5.554   5.935   5.741 -0.4556 -0.6408  0.0769
 4096TIP3    H212253   5.508   5.796   5.701  0.8833 -0.7658 -1.1158
 4097TIP3   OH212254   3.537   4.150   3.853  0.5357  0.1267 -0.0722
 4097TIP3    H112255   3.579   4.205   3.787  0.0433 -0.0702 -0.5574
 4097TIP3    H212256   3.546   4.061   3.819  0.1320  0.0387  0.0466
 4098TIP3   OH212257   2.187   1.506   2.642 -0.2101  0.0965 -0.2274
 4098TIP3    H112258   2.119   1.563   2.605 -0.6654  0.0695  0.5538
 4098TIP3    H212259   2.155   1.484   2.730 -0.7483 -2.5147 -0.9768
 4099TIP3   OH212260   2.380   4.120   1.544 -0.0061 -0.1529 -0.1473
 4099TIP3    H112261   2.422   4.100   1.628 -0.2742  0.0868  0.0443
 4099TIP3    H212262   2.355   4.034   1.509  0.5028 -0.2882 -0.1937
 4100TIP3   OH212263   3.595   4.979   0.703 -0.6571  0.0555  0.0259
 4100TIP3    H112264   3.687   4.965   0.682 -0.2876 -0.1190  1.6446
 4100TIP3    H212265   3.593   5.065   0.747 -1.4264  0.5239 -0.8753
 4101TIP3   OH212266   0.867   4.507   5.455 -0.1032  0.2205 -0.3813
 4101TIP3    H112267   0.772   4.519   5.462  0.1449  1.4509  1.4268
 4101TIP3    H212268   0.899   4.590   5.420  0.2910 -0.3374 -1.3801
 4102TIP3   OH212269   6.285   1.028   0.249  0.2104  0.4606 -0.0633
 4102TIP3    H112270   6.318   1.112   0.216  1.0481  0.0117 -0.4106
 4102TIP3    H212271   6.254   0.982   0.171 -0.0108  0.3448  0.0924
 4103TIP3   OH212272   4.466   6.163   0.433  0.2137 -0.0120  0.9037
 4103TIP3    H112273   4.378   6.126   0.421 -0.3997  1.5708  0.1067
 4103TIP3    H212274   4.452   6.258   0.427  1.8872  0.3023  1.4961
 4104TIP3   OH212275   4.103   0.967   5.162 -0.4128 -0.3998  0.1585
 4104TIP3    H112276   4.068   0.969   5.251 -3.9361 -1.0698 -1.0342
 4104TIP3    H212277   4.097   0.875   5.136  2.0757 -0.4796 -0.3037
 4105TIP3   OH212278   2.735   6.222   3.870  0.0561  0.0203  0.0185
 4105TIP3    H112279   2.772   6.151   3.817 -0.7555 -0.2604 -0.1880
 4105TIP3    H212280   2.693   6.280   3.806 -0.5206 -0.0741  0.3036
 4106TIP3   OH212281   6.741   6.381   2.082 -0.0181  0.2291  0.0939
 4106TIP3    H112282   6.737   6.380   2.177  0.6587 -0.9477  0.1291
 4106TIP3    H212283   6.742   6.288   2.057 -1.9138  0.4744 -1.1547
 4107TIP3   OH212284   1.083   4.034   2.653  0.0752 -0.0498  0.3539
 4107TIP3    H112285   1.167   4.065   2.619  0.7610 -0.9370  1.1913
 4107TIP3    H212286   1.017   4.080   2.601  1.0557  1.7069  0.6069
 4108TIP3   OH212287   6.495   6.375   3.201 -0.0762  0.6740 -0.7390
 4108TIP3    H112288   6.540   6.443   3.251 -0.6614 -0.6741  1.7292
 4108TIP3    H212289   6.554   6.300   3.203 -0.9738 -0.0351 -0.3354
 4109TIP3   OH212290   6.581   0.364   5.121 -0.2052 -0.4604  0.0837
 4109TIP3    H112291   6.603   0.457   5.132 -1.1026 -0.0874 -1.0414
 4109TIP3    H212292   6.581   0.328   5.210  0.2558  0.5869  0.5257
 4110TIP3   OH212293   0.607   1.068   4.711  0.3047  0.3212  0.0126
 4110TIP3    H112294   0.562   1.001   4.762  1.8334 -0.9681 -0.2610
 4110TIP3    H212295   0.568   1.063   4.624  0.7157 -0.5533 -0.1333
 4111TIP3   OH212296   3.322   1.627   2.251 -0.0241 -0.5454 -0.7200
 4111TIP3    H112297   3.398   1.574   2.226  1.9160  1.1288  1.1680
 4111TIP3    H212298   3.277   1.575   2.317  0.3213 -0.9543 -0.8042
 4112TIP3   OH212299   0.312   6.278   5.119  0.7977  0.7110 -0.0081
 4112TIP3    H112300   0.406   6.292   5.132  0.8226  0.0928  0.5495
 4112TIP3    H212301   0.308   6.213   5.048  0.9216 -1.4896  1.8760
 4113TIP3   OH212302   2.669   3.045   4.580 -0.3868 -0.1965  0.4591
 4113TIP3    H112303   2.601   3.044   4.513 -0.1062  0.1686  0.1661
 4113TIP3    H212304   2.720   3.124   4.562 -0.2013 -0.1881  0.9957
 4114TIP3   OH212305   6.927   1.025   1.229  0.0973 -0.1195  0.2312
 4114TIP3    H112306   6.883   1.049   1.310  0.1765 -0.5747  0.4125
 4114TIP3    H212307   6.955   0.934   1.242 -0.0587 -0.2633 -0.3765
 4115TIP3   OH212308   3.517   0.563   2.485  0.7682  0.0579  0.1223
 4115TIP3    H112309   3.483   0.477   2.460  0.4210  0.3034 -0.2451
 4115TIP3    H212310   3.468   0.625   2.432  1.5250  0.4416 -0.1508
 4116TIP3   OH212311   5.940   4.265   1.090 -0.1506  0.4423  0.0430
 4116TIP3    H112312   5.990   4.250   1.170 -0.7947 -0.5635  0.2790
 4116TIP3    H212313   5.879   4.192   1.086 -1.2532  1.3663 -0.5094
 4117TIP3   OH212314   2.900   4.538   3.146 -0.1740 -0.1315  0.2809
 4117TIP3    H112315   2.842   4.477   3.101  0.0780  0.8028 -1.3977
 4117TIP3    H212316   2.988   4.502   3.133  0.0220  0.7633 -1.1126
 4118TIP3   OH212317   6.258   1.750   4.060  0.1215 -0.8199  0.1597
 4118TIP3    H112318   6.328   1.762   3.996  0.0494  1.5482  0.4265
 4118TIP3    H212319   6.269   1.822   4.122 -2.2540 -0.6319  0.4876
 4119TIP3   OH212320   6.764   5.416   0.956 -0.0171  0.0362 -0.5948
 4119TIP3    H112321   6.757   5.435   0.863  2.0055  0.2535 -0.7484
 4119TIP3    H212322   6.793   5.499   0.995  0.7505 -0.4793 -0.0424
 4120TIP3   OH212323   1.240   5.914   4.752 -0.1278 -0.0699 -0.2492
 4120TIP3    H112324   1.177   5.869   4.807 -0.9539  0.1633 -0.9688
 4120TIP3    H212325   1.278   5.846   4.696  2.0470 -0.6314  1.7531
 4121TIP3   OH212326   7.229   0.885   4.448  0.8746 -0.7825 -0.3680
 4121TIP3    H112327   7.193   0.827   4.380  1.4574 -1.8837  0.2243
 4121TIP3    H212328   7.170   0.960   4.450  0.5644 -0.9602 -1.7432
 4122TIP3   OH212329   6.062   4.301   5.804  0.1847  0.6426 -0.6708
 4122TIP3    H112330   5.998   4.243   5.764 -1.1878  1.7567 -0.1887
 4122TIP3    H212331   6.127   4.242   5.842 -1.3195 -0.6141  0.0797
 4123TIP3   OH212332   1.256   3.493   0.349  0.4566  0.1411 -0.0341
 4123TIP3    H112333   1.238   3.573   0.398 -1.2986 -1.1624  1.6196
 4123TIP3    H212334   1.318   3.445   0.404 -0.3624 -0.6838  0.1770
 4124TIP3   OH212335   1.245   2.920   3.743 -0.1665 -0.5133 -0.1777
 4124TIP3    H112336   1.182   2.942   3.675  0.2226 -0.4180 -0.5092
 4124TIP3    H212337   1.241   2.825   3.750  0.9293 -0.6872 -1.4583
 4125TIP3   OH212338   6.952   5.012   1.320 -0.1528  0.1860  0.1487
 4125TIP3    H112339   6.918   5.088   1.273 -2.4615 -1.8212 -1.6683
 4125TIP3    H212340   7.006   4.966   1.256 -2.1623 -1.8363 -0.1915
 4126TIP3   OH212341   3.770   1.773   3.958  0.5512 -0.4262 -0.1508
 4126TIP3    H112342   3.825   1.703   3.992 -0.0630 -0.5484  0.6364
 4126TIP3    H212343   3.777   1.843   4.024  0.8442  0.0972 -0.7279
 4127TIP3   OH212344   6.642   0.156   0.025 -0.8871  0.1185 -0.0845
 4127TIP3    H112345   6.607   0.245   0.013  0.1806  0.9074  2.0516
 4127TIP3    H212346   6.732   0.161  -0.007 -0.9185 -0.2929 -0.2430
 4128TIP3   OH212347   5.109   5.203   4.044 -0.3636  0.3075  0.2517
 4128TIP3    H112348   5.024   5.185   4.004 -0.1830 -0.1689  0.0824
 4128TIP3    H212349   5.166   5.132   4.014  0.0307  0.4854  0.5661
 4129TIP3   OH212350   3.251   6.084   4.102 -0.3150  0.0750 -0.2526
 4129TIP3    H112351   3.339   6.084   4.064 -0.7349  2.9944 -1.4398
 4129TIP3    H212352   3.247   6.164   4.154 -1.6434 -1.0579  1.5201
 4130TIP3   OH212353   1.170   3.507   5.527  0.2065  0.7705 -0.0762
 4130TIP3    H112354   1.076   3.510   5.548 -0.1602  0.5088 -1.5347
 4130TIP3    H212355   1.188   3.593   5.488  0.0537  0.1281 -1.6675
 4131TIP3   OH212356   0.322   2.901   4.319 -0.7661  0.4343  0.4246
 4131TIP3    H112357   0.364   2.972   4.271  0.0893  0.7332  1.5973
 4131TIP3    H212358   0.298   2.838   4.251 -0.7820  1.4501 -0.5363
 4132TIP3   OH212359   2.288   5.579   1.272 -0.3798  0.4585  0.3350
 4132TIP3    H112360   2.266   5.525   1.196 -1.8189  1.6128 -0.1215
 4132TIP3    H212361   2.351   5.527   1.321 -0.0166 -0.6566 -1.2389
 4133TIP3   OH212362   0.366   5.931   2.368 -0.0761 -0.0513 -0.1723
 4133TIP3    H112363   0.310   5.856   2.354 -0.5372  0.3764 -0.6530
 4133TIP3    H212364   0.372   5.940   2.463 -2.1856  0.8875 -0.0841
 4134TIP3   OH212365   5.048   2.182   4.803  0.1202  0.4169 -0.5174
 4134TIP3    H112366   4.985   2.207   4.736  0.4195 -0.4121 -1.1399
 4134TIP3    H212367   5.083   2.098   4.772  0.5654  0.2185  0.4772
 4135TIP3   OH212368   0.497   0.002   1.496  0.8928  0.0796 -0.1451
 4135TIP3    H112369   0.557   0.068   1.463  0.4308 -0.2781 -1.7823
 4135TIP3    H212370   0.433  -0.010   1.426 -0.0462 -0.8471  0.8223
 4136TIP3   OH212371   5.538   0.192   0.704 -0.2911  0.3218 -0.0816
 4136TIP3    H112372   5.444   0.212   0.701 -0.1216  1.4209  1.1294
 4136TIP3    H212373   5.573   0.253   0.769  1.2917  0.0027 -0.6110
 4137TIP3   OH212374   3.707   2.057   2.840  0.0741  0.1230  0.1335
 4137TIP3    H112375   3.802   2.048   2.851  0.3689  1.6053 -0.8776
 4137TIP3    H212376   3.682   1.983   2.785  0.5149 -0.6506  0.9374
 4138TIP3   OH212377   4.446   0.560   0.952  0.2139  0.3350 -0.2108
 4138TIP3    H112378   4.386   0.633   0.936  2.9758  2.8704  0.1022
 4138TIP3    H212379   4.502   0.558   0.875  2.3137  0.8778  1.2109
 4139TIP3   OH212380   7.185   4.327   5.015 -0.0330 -0.3232  0.1241
 4139TIP3    H112381   7.259   4.292   5.066 -0.1639 -0.0469  0.5092
 4139TIP3    H212382   7.108   4.287   5.055 -0.0409 -1.4802 -0.9775
 4140TIP3   OH212383   5.686   4.333   4.645 -0.2903 -0.1117 -0.2912
 4140TIP3    H112384   5.761   4.362   4.593  0.3210 -0.7671  0.2067
 4140TIP3    H212385   5.664   4.247   4.610 -1.3294  0.4174 -0.9642
 4141TIP3   OH212386   0.763   5.836   3.915 -0.4050  0.2846  0.3020
 4141TIP3    H112387   0.801   5.793   3.838 -0.0113 -0.1196  0.7191
 4141TIP3    H212388   0.756   5.928   3.889 -0.3860  0.1337 -0.2609
 4142TIP3   OH212389   3.814   1.103   3.896 -0.2091 -0.6822 -0.2540
 4142TIP3    H112390   3.804   1.065   3.984  0.4368  0.5898  0.3960
 4142TIP3    H212391   3.774   1.039   3.838 -1.1048 -1.3226  1.0197
 4143TIP3   OH212392   2.797   6.387   4.507  0.3729  0.2083  0.0415
 4143TIP3    H112393   2.706   6.367   4.529  0.7175  0.3583  1.6783
 4143TIP3    H212394   2.849   6.336   4.568  1.3759  1.0650 -0.0587
 4144TIP3   OH212395   5.665   6.379   0.826 -0.3002 -0.6320  0.1153
 4144TIP3    H112396   5.719   6.418   0.895 -0.1447 -1.3065  0.3892
 4144TIP3    H212397   5.575   6.390   0.857 -0.4281  1.3998 -0.8114
 4145TIP3   OH212398   6.375   2.851   0.171  0.3034 -0.2832  0.8055
 4145TIP3    H112399   6.469   2.867   0.162  0.0155  1.1582  0.1551
 4145TIP3    H212400   6.344   2.839   0.081 -0.3198  0.4034  0.9180
 4146TIP3   OH212401   1.051   4.810   5.579 -0.3214 -0.0346 -0.3169
 4146TIP3    H112402   1.118   4.743   5.591 -0.1232  0.3796  0.9385
 4146TIP3    H212403   0.976   4.779   5.630  0.0891  1.1221  1.0414
 4147TIP3   OH212404   5.719   1.559   0.453  0.3328 -0.0538  0.5434
 4147TIP3    H112405   5.661   1.484   0.444 -0.7576  0.8564 -0.3696
 4147TIP3    H212406   5.696   1.597   0.538 -0.1493  0.0740  0.3606
 4148TIP3   OH212407   6.381   2.444   5.300  0.6853  0.0869  0.0122
 4148TIP3    H112408   6.415   2.458   5.389  2.4512  2.0853 -0.8901
 4148TIP3    H212409   6.304   2.500   5.295  0.8928  0.3806  0.1053
 4149TIP3   OH212410   0.309   4.809   3.527 -0.5071  0.5082 -0.7213
 4149TIP3    H112411   0.363   4.757   3.468 -0.4350  1.0102 -1.1122
 4149TIP3    H212412   0.330   4.778   3.614 -1.0520 -0.6604 -0.9912
 4150TIP3   OH212413   4.219   4.663   4.032  0.1652  0.2003  0.7181
 4150TIP3    H112414   4.146   4.715   4.065  1.0088  2.1750 -0.3183
 4150TIP3    H212415   4.295   4.720   4.042  1.5741 -1.7174  1.5658
 4151TIP3   OH212416   4.264   5.836   0.440 -0.5694  0.3708  0.4098
 4151TIP3    H112417   4.225   5.900   0.381 -2.3924 -1.0957 -0.0798
 4151TIP3    H212418   4.350   5.817   0.402 -0.6889  1.2890 -0.3405
 4152TIP3   OH212419   5.138   5.129   2.882  0.0673 -0.0578 -0.2642
 4152TIP3    H112420   5.191   5.191   2.833  1.1647 -0.6116  0.1904
 4152TIP3    H212421   5.104   5.069   2.815  0.4484 -0.0117 -0.5036
 4153TIP3   OH212422   6.405   5.451   1.610 -0.4202  0.2307 -0.3525
 4153TIP3    H112423   6.432   5.542   1.598 -1.2025  0.7177  1.2450
 4153TIP3    H212424   6.406   5.438   1.705  4.0432 -2.8430 -0.5554
 4154TIP3   OH212425   2.253   2.020   2.642  0.2056  0.1704 -0.4904
 4154TIP3    H112426   2.296   2.096   2.681 -1.5274  0.1121  1.7317
 4154TIP3    H212427   2.296   1.945   2.682  0.6596  0.0051 -1.2695
 4155TIP3   OH212428   5.126   4.670   1.388  0.4069 -0.1359 -0.2325
 4155TIP3    H112429   5.194   4.736   1.400  0.2700 -0.2685  1.5307
 4155TIP3    H212430   5.048   4.710   1.427 -0.7670  0.3231 -2.8812
 4156TIP3   OH212431   6.533   0.910   0.552 -0.1960  0.2657  0.0509
 4156TIP3    H112432   6.453   0.955   0.577 -0.4699  0.4806 -1.1654
 4156TIP3    H212433   6.603   0.968   0.581 -0.5347  1.1771 -0.8943
 4157TIP3   OH212434   6.341   6.464   3.850 -0.5936 -0.0164 -0.5744
 4157TIP3    H112435   6.394   6.519   3.792  0.0707  1.3448  1.2303
 4157TIP3    H212436   6.253   6.503   3.846 -0.1307  1.2461  0.6808
 4158TIP3   OH212437   6.963   0.567   0.644  1.1123  0.3926 -0.8198
 4158TIP3    H112438   7.035   0.579   0.706  1.6736  0.2318 -1.4324
 4158TIP3    H212439   6.929   0.656   0.630 -1.3991  0.1476  2.4451
 4159TIP3   OH212440   7.039   6.500   2.968 -0.1389 -0.6228  0.1341
 4159TIP3    H112441   7.015   6.449   2.890 -0.1830 -3.0662  1.6578
 4159TIP3    H212442   6.960   6.500   3.022  0.5835 -1.0735  1.2350
 4160TIP3   OH212443   0.201   0.205   3.501  0.7371  0.1931 -0.4214
 4160TIP3    H112444   0.283   0.209   3.452  1.6095  2.1843  1.0394
 4160TIP3    H212445   0.146   0.273   3.461  0.5208  0.1503 -0.1997
 4161TIP3   OH212446   6.549   1.671   2.457  0.3842  0.2990  0.2326
 4161TIP3    H112447   6.490   1.654   2.383  0.5391 -0.6961  0.3298
 4161TIP3    H212448   6.636   1.676   2.418  0.6291 -1.5433  0.4969
 4162TIP3   OH212449   6.535   3.858   0.698  0.5333 -0.0292 -0.2140
 4162TIP3    H112450   6.578   3.857   0.784  0.5463 -1.3913 -0.2171
 4162TIP3    H212451   6.598   3.902   0.641 -0.1289  2.3722  0.7478
 4163TIP3   OH212452   4.414   6.416   5.201 -0.1889 -0.2976 -0.5103
 4163TIP3    H112453   4.503   6.449   5.188 -0.0625 -1.0159 -1.5589
 4163TIP3    H212454   4.358   6.490   5.178  0.0331  1.6899  4.1679
 4164TIP3   OH212455   7.025   5.038   3.465 -0.0855  0.0605 -0.4279
 4164TIP3    H112456   7.039   5.122   3.422  1.1330  1.7336  2.8724
 4164TIP3    H212457   7.112   5.001   3.476 -0.3875 -0.5230  0.1319
 4165TIP3   OH212458   2.963   1.260   5.389 -0.1089 -0.1523 -0.5994
 4165TIP3    H112459   3.046   1.249   5.343  0.9540 -0.0541  1.1803
 4165TIP3    H212460   2.927   1.172   5.394  0.3622 -0.3508 -0.5965
 4166TIP3   OH212461   4.697   4.944   0.539 -0.7507  0.4318  0.1523
 4166TIP3    H112462   4.676   4.982   0.624 -1.6609 -0.5009  0.3605
 4166TIP3    H212463   4.612   4.920   0.501 -0.2239 -1.5756  0.1366
 4167TIP3   OH212464   2.956   5.720   2.221 -0.0460 -0.6937  0.0661
 4167TIP3    H112465   2.968   5.634   2.180  1.1307 -0.6148  0.2168
 4167TIP3    H212466   2.921   5.775   2.152 -0.1940 -1.1290 -0.2147
 4168TIP3   OH212467   3.400   4.989   1.641 -0.5587 -0.6979 -0.3161
 4168TIP3    H112468   3.483   5.028   1.668 -0.8592  0.1602 -0.5838
 4168TIP3    H212469   3.347   5.063   1.612 -1.4032 -1.2324 -0.1969
 4169TIP3   OH212470   0.611   2.916   5.558  0.1424  0.6595  0.0512
 4169TIP3    H112471   0.620   2.964   5.476  0.7290 -0.1575 -0.3798
 4169TIP3    H212472   0.660   2.835   5.544 -0.6907 -0.0042  0.8080
 4170TIP3   OH212473   1.365   2.828   3.470 -0.4065 -0.1877 -0.1834
 4170TIP3    H112474   1.316   2.901   3.433 -2.5455  0.2806  3.0759
 4170TIP3    H212475   1.303   2.755   3.469 -0.5867 -0.1638  2.1191
 4171TIP3   OH212476   2.617   0.369   2.938 -0.0016 -0.2206 -0.4038
 4171TIP3    H112477   2.641   0.326   3.020 -0.7522 -1.6634 -0.9075
 4171TIP3    H212478   2.556   0.308   2.896  0.3099  0.5237 -2.0050
 4172TIP3   OH212479   4.529   2.918   5.685  0.0492 -0.7210  0.3757
 4172TIP3    H112480   4.530   2.967   5.768 -0.7827 -1.8749  1.0985
 4172TIP3    H212481   4.582   2.840   5.703  0.4792 -0.6223 -0.4236
 4173TIP3   OH212482   2.557   0.421   1.132 -0.4455 -0.0021  0.3477
 4173TIP3    H112483   2.648   0.391   1.129  0.3934  2.3531  0.4302
 4173TIP3    H212484   2.517   0.383   1.054  1.4189  1.2085 -1.2943
 4174TIP3   OH212485   2.768   4.306   4.118 -0.4057  0.1189  0.1391
 4174TIP3    H112486   2.816   4.335   4.195  0.5237 -1.1621  0.0705
 4174TIP3    H212487   2.825   4.327   4.044 -1.8377  2.5487 -0.3973
 4175TIP3   OH212488   0.264   2.957   3.638  0.2640  0.4736  0.5095
 4175TIP3    H112489   0.274   2.901   3.560 -1.8194  1.5545 -0.6215
 4175TIP3    H212490   0.192   2.916   3.687 -0.7453  1.6601  0.0737
 4176TIP3   OH212491   6.810   0.193   2.401  0.0241 -0.4382 -0.2756
 4176TIP3    H112492   6.757   0.239   2.466 -1.5770 -0.4754 -1.4903
 4176TIP3    H212493   6.880   0.151   2.451  0.1058  1.2885  1.1542
 4177TIP3   OH212494   1.511   5.512   3.051  0.3338  0.1914 -0.3281
 4177TIP3    H112495   1.485   5.509   3.143  1.7473  0.2610  0.0953
 4177TIP3    H212496   1.455   5.579   3.012 -0.5891 -0.1607  0.3747
 4178TIP3   OH212497   3.476   0.466   0.894  0.1516  0.2860  0.2081
 4178TIP3    H112498   3.562   0.505   0.909  0.3318  0.6752 -1.6434
 4178TIP3    H212499   3.484   0.377   0.928  2.0081 -0.3870 -1.7609
 4179TIP3   OH212500   6.623   1.750   4.118  0.2615  0.0983  0.9054
 4179TIP3    H112501   6.610   1.732   4.025 -1.2264  0.6393  0.9851
 4179TIP3    H212502   6.588   1.673   4.162  1.6363 -0.4835  1.0151
 4180TIP3   OH212503   2.738   4.114   5.185  0.0183 -0.0733 -0.5369
 4180TIP3    H112504   2.749   4.030   5.140 -4.5711 -0.3662 -1.5348
 4180TIP3    H212505   2.750   4.180   5.116 -0.5786 -0.1526 -0.7168
 4181TIP3   OH212506   0.028   6.662   5.021  0.5399  0.5687  0.3750
 4181TIP3    H112507  -0.020   6.724   4.967 -0.4360  0.3729  0.9979
 4181TIP3    H212508   0.009   6.688   5.111 -0.8115 -1.2925  0.6767
 4182TIP3   OH212509   3.674   0.858   0.343 -0.1178  0.3036  0.2860
 4182TIP3    H112510   3.639   0.770   0.332 -0.7686  0.6592 -0.6082
 4182TIP3    H212511   3.597   0.911   0.365  0.4800  0.4039  2.3683
 4183TIP3   OH212512   0.194   2.138   3.568  0.3770 -0.4314  0.4335
 4183TIP3    H112513   0.202   2.124   3.662  0.3347 -1.0228  0.3555
 4183TIP3    H212514   0.270   2.093   3.530  1.4994  1.4685  0.3060
 4184TIP3   OH212515   0.455   0.241   3.389  0.5061 -0.1062  0.0195
 4184TIP3    H112516   0.467   0.261   3.296  2.5075  0.3814  0.3467
 4184TIP3    H212517   0.512   0.166   3.405 -0.4656 -0.7243  0.6982
 4185TIP3   OH212518   3.035   6.132   5.492 -0.4870  0.3891  0.2942
 4185TIP3    H112519   3.123   6.109   5.464 -0.3470 -0.0329  1.0739
 4185TIP3    H212520   3.017   6.216   5.449 -1.3194 -1.4239 -3.2655
 4186TIP3   OH212521   1.027   6.289   4.369 -0.1225  0.1618 -0.0051
 4186TIP3    H112522   1.091   6.240   4.317  0.7211  0.0872  1.0569
 4186TIP3    H212523   1.008   6.367   4.316 -0.5868 -0.7219 -1.1767
 4187TIP3   OH212524   4.353   5.514   1.272  0.1739  0.3798 -0.3344
 4187TIP3    H112525   4.315   5.526   1.185  0.2738  1.9794 -0.1815
 4187TIP3    H212526   4.435   5.466   1.256 -1.4795 -2.6077 -0.7240
 4188TIP3   OH212527   0.991   1.458   0.527 -0.1478  0.2850  0.3383
 4188TIP3    H112528   1.085   1.446   0.510  0.1794  1.8855  0.8618
 4188TIP3    H212529   0.988   1.511   0.607 -1.4923  0.9535 -0.1380
 4189TIP3   OH212530   2.495   4.606   0.323  0.4820 -0.1789 -0.5634
 4189TIP3    H112531   2.428   4.660   0.280  0.4772  0.5262  0.3077
 4189TIP3    H212532   2.517   4.540   0.258 -1.5405 -0.8334 -0.6674
 4190TIP3   OH212533   0.392   5.789   4.073  0.0518 -0.1451  0.1814
 4190TIP3    H112534   0.408   5.714   4.016 -0.1470  0.5528 -0.8197
 4190TIP3    H212535   0.475   5.802   4.119 -0.0667 -1.2691  0.7372
 4191TIP3   OH212536   5.526   3.401   4.732 -0.0825 -0.1346 -0.2737
 4191TIP3    H112537   5.490   3.489   4.745 -0.4041 -0.0430 -1.6097
 4191TIP3    H212538   5.619   3.415   4.718  0.2056 -0.2035  1.3861
 4192TIP3   OH212539   4.329   6.628   2.948 -0.3380 -0.0122  0.5222
 4192TIP3    H112540   4.411   6.676   2.947  0.0023 -0.5897  0.1435
 4192TIP3    H212541   4.277   6.666   2.877 -0.1589 -0.0581  0.3681
 4193TIP3   OH212542   5.636   5.634   2.403 -0.3329 -0.4010  0.5157
 4193TIP3    H112543   5.620   5.681   2.321  1.2389 -0.4678  0.1332
 4193TIP3    H212544   5.554   5.642   2.452 -1.2097 -0.1180 -0.9394
 4194TIP3   OH212545   4.651   1.189   4.604  0.0551  0.5416  0.0065
 4194TIP3    H112546   4.659   1.248   4.679 -1.2322  1.5604 -0.6180
 4194TIP3    H212547   4.740   1.158   4.588  0.4576  0.8677  1.4918
 4195TIP3   OH212548   0.661   6.092   1.859  0.2040 -0.6281  0.1531
 4195TIP3    H112549   0.753   6.114   1.871  0.0659 -0.2536  0.5609
 4195TIP3    H212550   0.652   6.005   1.897 -0.1160  0.3202  2.4492
 4196TIP3   OH212551   4.080   1.915   5.757  0.7315 -0.2608 -0.2675
 4196TIP3    H112552   4.031   1.945   5.679 -0.1482 -0.3531  0.2322
 4196TIP3    H212553   4.143   1.985   5.773 -0.1333  0.5162 -0.1502
 4197TIP3   OH212554   4.535   3.296   3.764  0.3648  0.1849 -0.0226
 4197TIP3    H112555   4.614   3.319   3.814  0.4415 -2.1178  1.0197
 4197TIP3    H212556   4.467   3.353   3.799  1.2120  1.1077  0.1622
 4198TIP3   OH212557   5.749   6.522   1.124 -0.0327 -0.1255  0.3280
 4198TIP3    H112558   5.739   6.616   1.141  1.8054 -0.0160  1.0069
 4198TIP3    H212559   5.707   6.481   1.199  1.5301  0.2409  1.4533
 4199TIP3   OH212560   2.832   5.129   4.579 -0.4402 -0.0552  0.2091
 4199TIP3    H112561   2.908   5.146   4.635 -1.0444  3.0377  0.2541
 4199TIP3    H212562   2.790   5.052   4.617  0.5480  0.4614  2.4795
 4200TIP3   OH212563   0.010   2.182   4.303 -0.0580  0.2196  0.2832
 4200TIP3    H112564   0.076   2.119   4.330 -0.0046  0.4277  0.6495
 4200TIP3    H212565  -0.058   2.129   4.261  0.4284  0.0245 -0.2837
 4201TIP3   OH212566   2.753   5.770   1.338  0.5684  0.2379  0.0002
 4201TIP3    H112567   2.729   5.834   1.270  4.0941  0.0037 -1.6790
 4201TIP3    H212568   2.824   5.812   1.387  1.9954 -1.7635 -0.2227
 4202TIP3   OH212569   3.565   3.539   2.864 -0.2062 -0.1197 -0.2630
 4202TIP3    H112570   3.486   3.586   2.892 -0.5788 -1.7805  1.6789
 4202TIP3    H212571   3.634   3.606   2.867 -1.1206  0.8430  0.2056
 4203TIP3   OH212572   2.051   6.221   3.510  0.0406  0.3609 -0.5405
 4203TIP3    H112573   1.990   6.292   3.532 -0.5710 -0.0681 -0.8213
 4203TIP3    H212574   2.129   6.240   3.563  0.6687  2.3270 -2.0441
 4204TIP3   OH212575   5.096   5.027   1.438 -0.4688  0.1271 -0.3687
 4204TIP3    H112576   5.030   4.957   1.435 -0.4281 -0.0096  1.0988
 4204TIP3    H212577   5.053   5.102   1.398 -0.4494 -0.7591 -2.1578
 4205TIP3   OH212578   2.599   5.577   0.906 -0.3305 -0.0653  0.1105
 4205TIP3    H112579   2.606   5.656   0.959 -0.9290  0.6516 -0.8671
 4205TIP3    H212580   2.506   5.567   0.889 -0.2970 -1.1573  0.4671
 4206TIP3   OH212581   4.199   3.226   3.840  0.3488 -0.1047  0.1600
 4206TIP3    H112582   4.247   3.191   3.915 -0.0623 -1.3752 -0.1495
 4206TIP3    H212583   4.108   3.204   3.858  0.0535  0.9465  0.0105
 4207TIP3   OH212584   1.047   2.100   3.873  0.4702  0.4288  0.3264
 4207TIP3    H112585   1.055   2.194   3.862 -1.9060  0.6835  0.1684
 4207TIP3    H212586   1.037   2.066   3.783  0.5569  0.1149  0.4327
 4208TIP3   OH212587   0.874   3.310   2.375 -0.1202 -0.0333  0.0932
 4208TIP3    H112588   0.969   3.322   2.366  0.3155 -2.3068  1.0881
 4208TIP3    H212589   0.859   3.314   2.470 -1.8801  5.3057 -0.0630
 4209TIP3   OH212590   3.502   0.023   4.910 -0.0659  0.3756  0.1439
 4209TIP3    H112591   3.548   0.106   4.900 -2.7000  2.1818  1.6652
 4209TIP3    H212592   3.422   0.034   4.857 -0.7629 -0.9204  0.8879
 4210TIP3   OH212593   1.876   6.326   5.441 -0.4216  0.2200 -0.0963
 4210TIP3    H112594   1.838   6.335   5.353 -0.1301 -0.7082 -0.3298
 4210TIP3    H212595   1.894   6.233   5.449 -0.5739  0.2787  1.0133
 4211TIP3   OH212596   4.450   3.509   5.525  0.1476  0.1438 -0.0479
 4211TIP3    H112597   4.421   3.522   5.616 -0.3853  0.3948 -0.2462
 4211TIP3    H212598   4.445   3.414   5.513  2.2984 -0.1304  0.8393
 4212TIP3   OH212599   5.195   5.509   1.193 -0.0432 -0.1744  0.6187
 4212TIP3    H112600   5.285   5.535   1.215 -0.3343  1.4917 -0.0925
 4212TIP3    H212601   5.175   5.556   1.113 -1.8334  0.0824  1.1822
 4213TIP3   OH212602   4.519   4.630   3.371  0.4998 -0.2709 -0.6409
 4213TIP3    H112603   4.431   4.653   3.399 -0.1745 -2.0597 -1.1492
 4213TIP3    H212604   4.566   4.611   3.452  0.6108  1.2037 -0.3297
 4214TIP3   OH212605   2.719   4.033   2.061  0.7029 -0.1119 -0.6251
 4214TIP3    H112606   2.656   3.962   2.053  1.4525 -0.6408 -2.2249
 4214TIP3    H212607   2.802   3.990   2.082  0.9726  0.3655 -0.6922
 4215TIP3   OH212608   2.277   3.003   2.962 -0.1225 -0.2949 -0.0843
 4215TIP3    H112609   2.294   2.966   3.049  1.0684 -1.5979 -0.8167
 4215TIP3    H212610   2.191   2.968   2.938 -0.7660  0.6170  0.8212
 4216TIP3   OH212611   5.027   5.159   4.490  0.0487  0.0782 -0.1811
 4216TIP3    H112612   5.097   5.155   4.425 -0.0172  0.7582 -0.3011
 4216TIP3    H212613   5.013   5.068   4.517  0.1203 -0.2017 -1.0686
 4217TIP3   OH212614   7.169   2.150   0.039  0.0119  0.7204 -0.3421
 4217TIP3    H112615   7.259   2.122   0.055  0.2973  0.9989 -1.3664
 4217TIP3    H212616   7.128   2.148   0.125  0.5077 -1.1009 -0.1042
 4218TIP3   OH212617   1.513   4.361   0.245 -0.5842  0.3517 -0.4832
 4218TIP3    H112618   1.514   4.405   0.330  0.8615  0.2372 -0.4226
 4218TIP3    H212619   1.587   4.301   0.248 -1.9111 -1.4051 -0.9320
 4219TIP3   OH212620   6.203   4.035   1.227  0.0413  0.2533  0.4100
 4219TIP3    H112621   6.234   3.948   1.253  0.2036 -0.4233 -1.8052
 4219TIP3    H212622   6.122   4.047   1.276 -1.5356 -2.4537 -1.2544
 4220TIP3   OH212623   7.169   5.141   3.760  0.5883  0.2840  0.5024
 4220TIP3    H112624   7.222   5.116   3.684 -1.2434 -1.8880 -0.1744
 4220TIP3    H212625   7.092   5.184   3.723  0.3994  0.6077  1.2478
 4221TIP3   OH212626   3.696   4.051   0.021 -0.3086  0.3710  0.2101
 4221TIP3    H112627   3.679   4.015   0.108 -1.1290  1.9340  0.7223
 4221TIP3    H212628   3.741   4.133   0.037  1.9991 -0.5814 -0.9593
 4222TIP3   OH212629   5.993   3.111   2.335 -0.4267 -0.0094  0.2915
 4222TIP3    H112630   6.003   3.082   2.244 -0.8248 -1.8587  0.8031
 4222TIP3    H212631   6.041   3.194   2.339  1.1284 -0.7811 -1.1648
 4223TIP3   OH212632   4.779   1.139   3.593  0.1894  0.0795  0.1305
 4223TIP3    H112633   4.791   1.149   3.499  1.8853  2.2953  0.4927
 4223TIP3    H212634   4.847   1.077   3.619  2.6872  2.7067  0.3699
 4224TIP3   OH212635   2.495   2.262   1.758  0.5958  0.4107 -0.2872
 4224TIP3    H112636   2.472   2.225   1.844  0.8122  1.1601  0.0993
 4224TIP3    H212637   2.477   2.191   1.696  0.1515 -0.0385  0.3437
 4225TIP3   OH212638   0.022   1.307   0.977 -0.4910  0.0535 -0.4301
 4225TIP3    H112639   0.072   1.338   1.052 -2.0835  1.4190  0.1512
 4225TIP3    H212640  -0.037   1.240   1.013  0.5295 -1.1990 -1.0104
 4226TIP3   OH212641   5.796   0.251   2.378 -0.0725  0.5912 -0.5269
 4226TIP3    H112642   5.734   0.218   2.443 -0.5806  1.5350 -0.5190
 4226TIP3    H212643   5.766   0.213   2.295 -0.0077  0.1745 -0.3633
 4227TIP3   OH212644   2.175   2.113   0.290 -0.0484 -0.2068 -0.0407
 4227TIP3    H112645   2.169   2.020   0.271  1.1896 -0.2864 -0.0854
 4227TIP3    H212646   2.258   2.141   0.253  0.2011  0.6492  1.0760
 4228TIP3   OH212647   0.498   6.415   5.761  0.3254 -0.1520  0.3654
 4228TIP3    H112648   0.426   6.440   5.702  1.0090 -1.6309 -1.1768
 4228TIP3    H212649   0.577   6.447   5.717  0.7254  0.3125  1.4019
 4229TIP3   OH212650   0.610   5.445   5.856 -0.1089  0.6272  0.3031
 4229TIP3    H112651   0.577   5.362   5.891 -1.9136  1.2699  0.1958
 4229TIP3    H212652   0.667   5.479   5.926  2.1405 -1.4759 -0.3308
 4230TIP3   OH212653   6.389   6.588   1.808  0.0570  0.1397  0.2172
 4230TIP3    H112654   6.461   6.617   1.863 -0.0822  2.0419 -0.5419
 4230TIP3    H212655   6.310   6.612   1.856 -0.0735 -0.3022  0.2301
 4231TIP3   OH212656   4.354   2.930   4.390 -0.0909 -0.6288  0.1687
 4231TIP3    H112657   4.291   2.980   4.442 -0.7175  1.1994 -2.2369
 4231TIP3    H212658   4.437   2.940   4.437 -0.6580  0.8217  0.9107
 4232TIP3   OH212659   4.646   1.386   0.061 -0.3281  0.0240 -0.0470
 4232TIP3    H112660   4.626   1.367  -0.030 -2.3866 -1.2075  0.5777
 4232TIP3    H212661   4.560   1.404   0.101  0.4477  0.0268  1.7327
 4233TIP3   OH212662   4.466   2.269   5.819  0.7649 -0.0431  0.5720
 4233TIP3    H112663   4.505   2.302   5.738 -1.7807  1.7283 -0.0622
 4233TIP3    H212664   4.539   2.229   5.866  3.2392  2.5890 -0.7039
 4234TIP3   OH212665   1.298   4.503   4.252  0.7590 -0.0996  0.2832
 4234TIP3    H112666   1.274   4.596   4.261  2.5800  0.3003  1.5503
 4234TIP3    H212667   1.379   4.495   4.301  1.2120 -2.1650 -0.7204
 4235TIP3   OH212668   0.001   0.541   3.407 -0.5251 -0.3670 -0.5552
 4235TIP3    H112669  -0.022   0.470   3.347  0.0305 -0.3679 -0.7690
 4235TIP3    H212670   0.096   0.539   3.412 -0.5567 -0.2725  0.2189
 4236TIP3   OH212671   6.463   3.311   2.753  0.4327  0.4388 -0.1427
 4236TIP3    H112672   6.530   3.337   2.689 -0.7197  1.9273 -0.7966
 4236TIP3    H212673   6.394   3.271   2.700 -0.6055  1.8281  0.1291
 4237TIP3   OH212674   4.285   4.975   0.086 -0.1471 -0.0807  0.1016
 4237TIP3    H112675   4.200   5.013   0.105  1.1239  3.1209  0.0404
 4237TIP3    H212676   4.308   5.009  -0.001  0.5016 -2.3464 -0.7020
 4238TIP3   OH212677   3.356   5.857   4.635 -0.2123 -0.3466  0.2962
 4238TIP3    H112678   3.339   5.778   4.686 -0.1952  0.6703  1.9746
 4238TIP3    H212679   3.307   5.845   4.554  0.1288 -2.2417  0.3211
 4239TIP3   OH212680   1.787   5.871   3.570  0.2709 -0.5039 -0.2370
 4239TIP3    H112681   1.707   5.822   3.553 -1.0582  1.3464  0.3794
 4239TIP3    H212682   1.824   5.830   3.648  0.1399 -1.5845 -0.7209
 4240TIP3   OH212683   4.318   1.503   0.495 -0.0323 -0.5934  0.1215
 4240TIP3    H112684   4.293   1.594   0.483 -0.4599 -0.6998  0.1814
 4240TIP3    H212685   4.366   1.480   0.415 -0.8846 -0.6331 -0.3956
 4241TIP3   OH212686   2.536   0.774   2.672  0.4929  0.2435  0.1400
 4241TIP3    H112687   2.545   0.719   2.750 -1.7065 -0.6220 -0.1562
 4241TIP3    H212688   2.466   0.835   2.694  0.8330  0.9391 -0.6511
 4242TIP3   OH212689   1.541   2.758   1.718  0.9584  0.1039  0.3555
 4242TIP3    H112690   1.487   2.827   1.755  1.4054  0.3543  0.5521
 4242TIP3    H212691   1.560   2.788   1.629  1.6104  0.5026  0.6255
 4243TIP3   OH212692   3.647   0.600   2.029 -0.4872  0.1363 -0.0971
 4243TIP3    H112693   3.556   0.589   2.056 -0.3596 -0.0905  0.2500
 4243TIP3    H212694   3.658   0.540   1.955  0.1952 -2.1858  1.7652
 4244TIP3   OH212695   4.209   2.664   4.455  0.0548  0.3348 -0.4068
 4244TIP3    H112696   4.276   2.663   4.523  0.1050 -0.0410 -0.4556
 4244TIP3    H212697   4.237   2.596   4.393 -1.1403 -0.9068  0.3338
 4245TIP3   OH212698   2.070   0.828   3.743  0.2300  0.6368  0.1400
 4245TIP3    H112699   2.074   0.879   3.662 -1.0115  0.9270  0.2386
 4245TIP3    H212700   2.097   0.889   3.812 -0.9050  1.0863  0.2118
 4246TIP3   OH212701   3.055   5.999   4.463 -0.0999  0.1692  0.3239
 4246TIP3    H112702   3.051   6.073   4.524  0.0609 -0.9029  1.6804
 4246TIP3    H212703   2.963   5.974   4.450 -0.1771  0.7728 -0.3827
 4247TIP3   OH212704   5.017   2.507   0.240 -0.7378 -0.3698 -0.1525
 4247TIP3    H112705   5.111   2.520   0.252 -0.4122 -1.8587 -0.8413
 4247TIP3    H212706   4.985   2.590   0.204  0.6342 -0.3932 -1.5218
 4248TIP3   OH212707   0.578   4.333   5.129  0.1938  0.0677 -0.3428
 4248TIP3    H112708   0.639   4.348   5.057  0.3581 -0.6387 -0.3562
 4248TIP3    H212709   0.521   4.263   5.097  0.0716 -0.0320  0.0943
 4249TIP3   OH212710   4.919   1.396   4.442 -0.3303 -0.1001  0.0345
 4249TIP3    H112711   4.988   1.344   4.400 -0.8015  0.4146 -1.4556
 4249TIP3    H212712   4.844   1.388   4.382 -1.6481 -0.8058  1.7144
 4250TIP3   OH212713   6.736   6.510   3.345 -0.4795  0.6949 -0.4262
 4250TIP3    H112714   6.799   6.480   3.411  0.4767 -0.0721 -1.6479
 4250TIP3    H212715   6.710   6.597   3.375  1.2534  1.0854  0.0679
 4251TIP3   OH212716   0.949   0.914   4.536 -0.3875 -0.0064  0.1985
 4251TIP3    H112717   1.010   0.985   4.518 -1.1478  0.8624  0.9952
 4251TIP3    H212718   0.898   0.906   4.455  0.6450 -0.6266 -0.4110
 4252TIP3   OH212719   7.029   4.498   1.917  0.1057 -0.5759  0.1480
 4252TIP3    H112720   6.962   4.434   1.894  0.4320 -0.6116 -0.7399
 4252TIP3    H212721   6.980   4.578   1.936 -0.3375 -1.2057  1.7530
 4253TIP3   OH212722   4.997   1.022   0.760  0.6778  0.6547 -0.4775
 4253TIP3    H112723   4.954   1.087   0.705 -2.4159 -0.2845  0.5953
 4253TIP3    H212724   4.925   0.980   0.808  2.6124 -2.7477 -0.2498
 4254TIP3   OH212725   6.053   4.544   2.049 -0.1012 -0.1063  0.7218
 4254TIP3    H112726   5.960   4.535   2.071 -0.1779  1.4331  1.1480
 4254TIP3    H212727   6.089   4.594   2.121  0.3212  2.3418 -1.0815
 4255TIP3   OH212728   6.463   1.574   2.913  0.4811  0.2357  0.2352
 4255TIP3    H112729   6.368   1.572   2.907  0.4785  1.2461 -0.3920
 4255TIP3    H212730   6.481   1.598   3.004  0.2079 -1.8608  0.8989
 4256TIP3   OH212731   3.386   4.775   5.080  0.2900  0.1280 -0.4434
 4256TIP3    H112732   3.417   4.864   5.061  1.4482 -0.1150  0.2263
 4256TIP3    H212733   3.291   4.780   5.069  0.2301  1.7014  0.5713
 4257TIP3   OH212734   5.660   4.019   0.038  0.1274  0.6214  0.4609
 4257TIP3    H112735   5.682   3.938   0.083  1.5451  0.9602  0.4313
 4257TIP3    H212736   5.686   4.088   0.100  2.3768  1.1063 -0.9094
 4258TIP3   OH212737   3.486   3.714   3.874 -0.0939  0.1552  0.0662
 4258TIP3    H112738   3.410   3.674   3.917  0.9473  0.6335  2.5219
 4258TIP3    H212739   3.561   3.669   3.912  0.9150  0.4916 -1.4610
 4259TIP3   OH212740   2.657   0.458   5.345 -0.0870  0.0576  0.7752
 4259TIP3    H112741   2.623   0.369   5.331 -0.2043  0.2384 -0.1155
 4259TIP3    H212742   2.679   0.460   5.438 -1.8699 -0.3049  1.2447
 4260TIP3   OH212743   4.370   6.363   4.132 -0.5991  0.0032 -0.7267
 4260TIP3    H112744   4.427   6.286   4.135  0.9868  1.1214  1.4503
 4260TIP3    H212745   4.428   6.434   4.102  0.0437  1.6600  3.6920
 4261TIP3   OH212746   1.221   1.639   5.797  0.3388 -0.1872  0.6406
 4261TIP3    H112747   1.309   1.673   5.779  0.2568  0.0398  0.6705
 4261TIP3    H212748   1.174   1.648   5.714  0.8616 -1.9241  0.1111
 4262TIP3   OH212749   3.405   0.336   2.418 -0.1557 -0.1710  0.2830
 4262TIP3    H112750   3.484   0.285   2.401 -0.0961 -0.2798  0.8417
 4262TIP3    H212751   3.348   0.318   2.344  0.6218  0.4853 -0.5037
 4263TIP3   OH212752   2.767   2.876   1.203  0.5676 -0.0341 -0.2647
 4263TIP3    H112753   2.783   2.965   1.171 -1.8842  1.0220  1.1876
 4263TIP3    H212754   2.744   2.887   1.295 -0.6822 -2.0631 -0.2704
 4264TIP3   OH212755   5.876   3.391   2.908  0.0075  0.4135  0.6406
 4264TIP3    H112756   5.860   3.402   3.002  1.7571  0.5256  0.9576
 4264TIP3    H212757   5.939   3.459   2.886  1.7682 -1.3042  0.0243
 4265TIP3   OH212758   7.150   1.171   4.502  0.3969 -0.1327 -0.0123
 4265TIP3    H112759   7.122   1.247   4.553  3.6833  0.7962  0.6874
 4265TIP3    H212760   7.143   1.198   4.411 -0.5131  0.1567  0.1316
 4266TIP3   OH212761   2.109   0.566   2.213 -0.2053  0.2420 -0.3234
 4266TIP3    H112762   2.057   0.486   2.219  0.4865 -0.1239  1.1374
 4266TIP3    H212763   2.178   0.545   2.149 -0.7313  0.1029 -0.8545
 4267TIP3   OH212764   2.412   3.731   4.218 -0.5682 -0.2708 -0.0426
 4267TIP3    H112765   2.444   3.646   4.188 -0.3070  0.2827 -1.3768
 4267TIP3    H212766   2.319   3.732   4.195 -0.4273  0.0484 -0.6217
 4268TIP3   OH212767   5.598   3.289   3.964  0.3809 -0.6266 -0.3892
 4268TIP3    H112768   5.551   3.216   4.005  0.3369  0.0484  0.8253
 4268TIP3    H212769   5.682   3.292   4.010 -0.5476  1.5779  1.3757
 4269TIP3   OH212770   5.467   6.099   4.900  0.1426  0.2171  0.3721
 4269TIP3    H112771   5.423   6.047   4.968  0.8559  0.4867  1.0609
 4269TIP3    H212772   5.436   6.061   4.818 -0.3205 -0.4814  0.8501
 4270TIP3   OH212773   0.435   0.592   3.886 -0.0953  0.6186  0.4043
 4270TIP3    H112774   0.411   0.646   3.811  2.1482 -0.3849 -1.1347
 4270TIP3    H212775   0.370   0.615   3.954 -0.6806  3.3947 -0.9553
 4271TIP3   OH212776   2.066   0.073   1.346  0.3769  0.1130 -0.7590
 4271TIP3    H112777   2.011   0.088   1.269  0.4988  0.1406 -0.8411
 4271TIP3    H212778   2.027  -0.003   1.389  1.4606 -1.1484 -1.9196
 4272TIP3   OH212779   4.482   3.345   3.479  0.1293 -0.0789  0.0806
 4272TIP3    H112780   4.459   3.410   3.546  0.8507  0.1867  0.0821
 4272TIP3    H212781   4.496   3.264   3.528  0.5779  0.0965  0.2490
 4273TIP3   OH212782   6.420   6.126   1.997  0.2264 -0.2376 -0.2271
 4273TIP3    H112783   6.377   6.195   1.947  2.1453  0.6228 -0.7976
 4273TIP3    H212784   6.413   6.154   2.088  1.8021  1.2781 -0.5151
 4274TIP3   OH212785   1.775   2.494   4.977 -0.2699 -0.1485 -0.1439
 4274TIP3    H112786   1.688   2.530   4.966 -0.1885 -0.2370 -1.1250
 4274TIP3    H212787   1.834   2.569   4.968 -0.2422 -0.0699  0.6238
 4275TIP3   OH212788   6.513   1.299   1.813 -0.3764  0.3528 -0.2447
 4275TIP3    H112789   6.489   1.353   1.738  0.6406 -0.3685 -1.0976
 4275TIP3    H212790   6.429   1.272   1.850 -0.8871  0.3362 -1.3851
 4276TIP3   OH212791   1.133   3.143   4.322 -0.7927 -0.5451  0.3129
 4276TIP3    H112792   1.090   3.190   4.393 -0.5669  0.9795 -0.5091
 4276TIP3    H212793   1.226   3.146   4.344 -0.8866 -1.9367  0.9955
 4277TIP3   OH212794   6.191   6.809   3.287  0.7589  0.5127 -0.6843
 4277TIP3    H112795   6.110   6.757   3.284  0.7017  0.6217 -1.0733
 4277TIP3    H212796   6.260   6.745   3.267  0.8814  0.2044  0.6323
 4278TIP3   OH212797   5.709   1.917   2.905  0.0061  0.3359 -0.6994
 4278TIP3    H112798   5.689   1.953   2.991 -0.1635  1.5251 -1.2087
 4278TIP3    H212799   5.646   1.960   2.846  1.1668  0.7902 -1.6570
 4279TIP3   OH212800   2.616   2.919   2.915 -0.0144 -0.2159  0.1232
 4279TIP3    H112801   2.645   2.938   3.004 -1.5141  0.3318  0.5439
 4279TIP3    H212802   2.569   2.835   2.922  0.8671 -0.7604 -0.3954
 4280TIP3   OH212803   0.970   1.509   1.668 -0.1829 -0.2082  0.0704
 4280TIP3    H112804   1.060   1.486   1.645  0.0005  2.3947 -2.4502
 4280TIP3    H212805   0.978   1.575   1.737 -0.2901 -1.1504  1.0106
 4281TIP3   OH212806   4.725   1.425   0.529  0.7652  0.1054 -0.2644
 4281TIP3    H112807   4.769   1.496   0.482 -0.3758  0.8998 -0.1636
 4281TIP3    H212808   4.680   1.375   0.461 -0.1704  0.7444 -0.1356
 4282TIP3   OH212809   5.270   4.705   5.082 -0.2976  0.3313 -0.2890
 4282TIP3    H112810   5.292   4.794   5.054 -1.0709  0.1944 -1.4112
 4282TIP3    H212811   5.350   4.672   5.122 -0.1032  1.6438  0.4615
 4283TIP3   OH212812   6.236   2.844   3.923 -0.1268  0.6142  0.0404
 4283TIP3    H112813   6.288   2.915   3.886  0.2403  0.7362  0.7694
 4283TIP3    H212814   6.239   2.775   3.857  2.4594 -0.0847  0.7542
 4284TIP3   OH212815   2.320   4.070   4.762 -0.4569  0.1722 -0.2330
 4284TIP3    H112816   2.284   4.140   4.817  0.0113 -0.3444  0.7564
 4284TIP3    H212817   2.370   4.015   4.822 -1.8746 -1.7809 -0.7283
 4285TIP3   OH212818   4.125   4.747   2.511  0.2178  0.1558  0.4921
 4285TIP3    H112819   4.181   4.786   2.444 -0.6629  1.0502  0.2662
 4285TIP3    H212820   4.179   4.678   2.549  1.5754  1.1259  0.4221
 4286TIP3   OH212821   3.742   5.340   0.111 -0.0661  0.1291 -0.2165
 4286TIP3    H112822   3.782   5.410   0.059 -2.0363 -0.4035 -2.6494
 4286TIP3    H212823   3.797   5.263   0.095 -0.3980  0.0834 -1.1623
 4287TIP3   OH212824   3.479   6.467   2.432 -0.4807 -0.3307  0.2541
 4287TIP3    H112825   3.467   6.544   2.376 -1.2696 -1.0755 -0.6247
 4287TIP3    H212826   3.552   6.420   2.392 -1.4392 -1.1829 -0.5514
 4288TIP3   OH212827   4.639   0.459   1.384 -0.3131 -0.3625 -0.1639
 4288TIP3    H112828   4.571   0.395   1.404  0.0713 -0.7153  0.0290
 4288TIP3    H212829   4.603   0.543   1.413  0.0060 -0.7815  1.5344
 4289TIP3   OH212830   2.627   3.618   1.529  0.2693 -0.3318 -0.0987
 4289TIP3    H112831   2.556   3.664   1.484  0.4054  0.8301  0.8264
 4289TIP3    H212832   2.706   3.667   1.507  0.6263 -0.9327 -0.1889
 4290TIP3   OH212833   0.334   0.959   0.489 -0.3090 -0.1540  0.0116
 4290TIP3    H112834   0.259   0.918   0.532  0.1361  0.7022  1.6633
 4290TIP3    H212835   0.294   1.018   0.425 -1.1069  0.7719  1.3111
 4291TIP3   OH212836   6.625   3.620   2.422 -0.1156  0.8727  0.0456
 4291TIP3    H112837   6.601   3.682   2.491 -0.5380  1.2571 -0.4392
 4291TIP3    H212838   6.661   3.674   2.351  1.1280  0.4053  0.2900
 4292TIP3   OH212839   1.241   3.154   5.385  0.2915  0.4319 -0.1369
 4292TIP3    H112840   1.216   3.224   5.324  1.4828 -0.1077 -1.3234
 4292TIP3    H212841   1.242   3.195   5.471 -2.0980  1.0617 -0.3636
 4293TIP3   OH212842   5.445   0.855   4.608  1.1006 -0.5648  0.2222
 4293TIP3    H112843   5.434   0.832   4.516  1.4739 -0.1133  0.0612
 4293TIP3    H212844   5.406   0.782   4.656  0.6396 -0.6637 -0.2938
 4294TIP3   OH212845   0.999   3.356   4.892 -0.6313  0.3457 -0.3872
 4294TIP3    H112846   1.084   3.341   4.850 -1.3718 -0.3598 -1.6907
 4294TIP3    H212847   0.966   3.268   4.910 -0.5692  0.6336  1.2350
 4295TIP3   OH212848   1.196   5.737   0.830  0.0736  0.2916 -0.4437
 4295TIP3    H112849   1.201   5.802   0.760  0.7925 -0.0380 -0.7082
 4295TIP3    H212850   1.113   5.755   0.874 -0.1948  0.7604 -1.1284
 4296TIP3   OH212851   4.809   3.852   5.479  0.2974 -0.2817 -0.5834
 4296TIP3    H112852   4.783   3.788   5.413  0.2102  0.1033 -0.9243
 4296TIP3    H212853   4.741   3.845   5.547 -0.9025  0.9108 -1.5955
 4297TIP3   OH212854   1.652   3.149   5.301  0.0492 -0.4065  0.1439
 4297TIP3    H112855   1.695   3.233   5.285 -1.0120 -0.1913 -1.8885
 4297TIP3    H212856   1.633   3.150   5.395  1.8480  0.7083  0.5564
 4298TIP3   OH212857   1.469   5.595   5.334  0.6757  0.9642 -0.1249
 4298TIP3    H112858   1.529   5.561   5.400  1.4732  1.6288 -0.4932
 4298TIP3    H212859   1.513   5.673   5.299  0.8686 -0.0514 -2.3362
 4299TIP3   OH212860   0.530   6.629   2.341  0.1824 -0.2612  0.1999
 4299TIP3    H112861   0.590   6.648   2.412 -0.1674  0.6870  0.2503
 4299TIP3    H212862   0.576   6.564   2.287  1.0509  0.1076  0.4866
 4300TIP3   OH212863   4.929   4.248   0.441 -0.2890 -0.4545  0.6797
 4300TIP3    H112864   4.888   4.245   0.527  0.5350 -1.1799  1.0570
 4300TIP3    H212865   4.924   4.159   0.408  0.3404 -0.4051  0.4315
 4301TIP3   OH212866   4.390   6.250   3.142  0.3096  0.0935  0.1597
 4301TIP3    H112867   4.324   6.209   3.086 -0.6314  0.9683  0.6167
 4301TIP3    H212868   4.473   6.229   3.099  0.0492 -3.5057  1.1120
 4302TIP3   OH212869   1.348   5.976   2.430  0.2726  0.8297  0.2161
 4302TIP3    H112870   1.422   5.915   2.434  0.1261  0.6162 -0.2072
 4302TIP3    H212871   1.289   5.947   2.499 -1.8393 -2.2558 -2.5496
 4303TIP3   OH212872   4.769   1.677   4.869  0.2098 -0.1289  0.4009
 4303TIP3    H112873   4.850   1.629   4.888 -0.4926 -0.8297  1.8137
 4303TIP3    H212874   4.738   1.641   4.787  0.1827 -1.4543  0.9783
 4304TIP3   OH212875   2.541   3.706   4.706 -0.0670  0.1740 -0.0876
 4304TIP3    H112876   2.613   3.724   4.766  0.4923  0.4698 -0.8348
 4304TIP3    H212877   2.582   3.701   4.620 -1.1676  2.0820 -0.7724
 4305TIP3   OH212878   1.704   5.853   2.909  0.4219  0.2974 -0.4732
 4305TIP3    H112879   1.706   5.820   2.820  1.0715  1.2749 -0.8351
 4305TIP3    H212880   1.621   5.902   2.914 -0.8568 -1.7901  0.2554
 4306TIP3   OH212881   0.507   3.104   2.900  0.1601 -0.1702 -0.1599
 4306TIP3    H112882   0.422   3.079   2.865 -0.6380  0.4413  1.2627
 4306TIP3    H212883   0.553   3.144   2.826 -1.2798  0.6840 -0.6258
 4307TIP3   OH212884   6.291   1.901   3.244  0.2828  0.0401 -0.0119
 4307TIP3    H112885   6.377   1.863   3.229 -0.2158 -1.5522  0.9342
 4307TIP3    H212886   6.298   1.991   3.210  1.7749 -0.5843 -1.4821
 4308TIP3   OH212887   1.280   0.317   1.740 -0.1297  0.3893 -0.3423
 4308TIP3    H112888   1.246   0.232   1.714 -0.2012  0.1255  0.5960
 4308TIP3    H212889   1.217   0.351   1.803  1.7453 -0.5448  2.2070
 4309TIP3   OH212890   2.236   2.027   0.585 -0.1649 -0.8572  0.3788
 4309TIP3    H112891   2.147   1.995   0.568 -0.9315  0.6721  1.2647
 4309TIP3    H212892   2.234   2.118   0.555  0.8408 -0.5466  1.2231
 4310TIP3   OH212893   0.992   2.042   5.723 -0.9115 -0.2312 -0.4937
 4310TIP3    H112894   1.080   2.079   5.716 -0.7397 -0.4608  0.3824
 4310TIP3    H212895   0.935   2.119   5.729 -0.9698 -0.0229 -2.7717
 4311TIP3   OH212896   5.459   4.680   4.147  0.3308  0.9392  0.4201
 4311TIP3    H112897   5.378   4.725   4.123  1.0244  0.9768 -2.1210
 4311TIP3    H212898   5.435   4.587   4.149 -0.0344  1.0395  0.9529
 4312TIP3   OH212899   4.970   4.257   5.544 -0.5595 -0.3257 -0.1751
 4312TIP3    H112900   4.954   4.344   5.507 -0.8644  0.5728  1.8897
 4312TIP3    H212901   4.883   4.217   5.551 -0.9062  0.6542  2.0567
 4313TIP3   OH212902   7.047   2.787   4.660 -0.0955 -0.3142 -0.6236
 4313TIP3    H112903   7.040   2.691   4.664 -1.6148 -0.1987  0.0017
 4313TIP3    H212904   7.054   2.814   4.752  2.2491  0.0949 -0.8603
 4314TIP3   OH212905   4.538   4.085   2.691 -0.3067  0.4417 -0.3288
 4314TIP3    H112906   4.580   4.006   2.656 -0.1677  0.4934 -0.2789
 4314TIP3    H212907   4.446   4.061   2.699  0.0007 -0.3134  1.3492
 4315TIP3   OH212908   1.073   5.572   1.710 -0.2205 -0.5705  0.0516
 4315TIP3    H112909   1.163   5.570   1.743  0.1391  0.8254 -0.7291
 4315TIP3    H212910   1.047   5.480   1.703  1.3447 -1.0198 -0.2302
 4316TIP3   OH212911   5.928   1.419   1.477 -0.4029  0.4866  0.1256
 4316TIP3    H112912   5.916   1.324   1.475 -0.9236  0.5423  0.4625
 4316TIP3    H212913   5.845   1.453   1.510 -0.4635  1.1082 -0.6470
 4317TIP3   OH212914   2.996   2.771   3.689  1.0226 -0.0222 -0.4075
 4317TIP3    H112915   2.992   2.693   3.634  1.5518 -0.7852  0.6068
 4317TIP3    H212916   2.936   2.754   3.761 -0.3506  1.3492 -1.1816
 4318TIP3   OH212917   3.891   3.823   2.365  0.0350 -0.1398  0.0995
 4318TIP3    H112918   3.867   3.783   2.281 -0.9672 -0.4619  0.5293
 4318TIP3    H212919   3.891   3.750   2.427 -0.2376  0.2573  0.5759
 4319TIP3   OH212920   6.910   2.760   0.282 -0.6663 -0.1286  0.4854
 4319TIP3    H112921   6.971   2.725   0.346 -1.7151 -0.8129  1.1500
 4319TIP3    H212922   6.957   2.759   0.199  1.1666  1.9029  1.3990
 4320TIP3   OH212923   0.476   1.141   5.481  0.0163 -0.6395  0.5354
 4320TIP3    H112924   0.419   1.135   5.558 -0.8041 -0.1285 -0.0105
 4320TIP3    H212925   0.458   1.228   5.445 -0.2428 -1.1936 -0.7049
 4321TIP3   OH212926   2.521   0.664   5.609 -0.0401 -0.1928 -0.4252
 4321TIP3    H112927   2.448   0.641   5.667 -0.1775 -1.3481 -1.0121
 4321TIP3    H212928   2.486   0.652   5.520  0.1492  1.5955 -0.7811
 4322TIP3   OH212929   0.201   6.543   1.386  0.0566 -0.4256 -0.3995
 4322TIP3    H112930   0.110   6.568   1.404  0.0578 -1.5322  1.3408
 4322TIP3    H212931   0.252   6.621   1.405 -0.6329  0.9325 -3.4876
 4323TIP3   OH212932   2.804   6.607   2.581  0.1711 -0.7267  0.2223
 4323TIP3    H112933   2.772   6.518   2.595 -1.1950 -0.4098 -0.6626
 4323TIP3    H212934   2.780   6.627   2.490 -1.0190  1.1043  0.8805
 4324TIP3   OH212935   2.078   3.039   3.792 -0.6846  0.3028  0.0716
 4324TIP3    H112936   2.105   2.948   3.787  1.2140  0.8849 -1.8317
 4324TIP3    H212937   1.983   3.036   3.787 -0.6651 -1.5635  0.0817
 4325TIP3   OH212938   5.711   1.474   5.818  0.4811  0.1519  0.7535
 4325TIP3    H112939   5.806   1.478   5.826  0.5686 -0.1439 -0.0172
 4325TIP3    H212940   5.687   1.390   5.856  0.6020 -0.0502  0.3947
 4326TIP3   OH212941  -0.006   6.280   3.980 -0.1466 -0.3231 -0.5514
 4326TIP3    H112942  -0.058   6.308   4.056  1.4876 -0.9573  0.8461
 4326TIP3    H212943   0.085   6.290   4.008  0.5566  1.0645 -3.0567
 4327TIP3   OH212944   5.954   5.715   5.862 -0.2386  0.0595 -0.7951
 4327TIP3    H112945   5.930   5.772   5.936 -0.3005 -2.4219  1.2254
 4327TIP3    H212946   5.929   5.765   5.785 -1.3064  2.3023  0.8863
 4328TIP3   OH212947   0.461   4.079   5.484 -0.0783  0.2818  0.1455
 4328TIP3    H112948   0.489   3.990   5.463 -0.4910  0.7779 -2.8311
 4328TIP3    H212949   0.366   4.077   5.475 -0.3172  0.6037  2.0722
 4329TIP3   OH212950   0.184   0.425   0.762 -0.6819  0.2082  0.3626
 4329TIP3    H112951   0.243   0.473   0.705 -0.7528 -0.3970 -0.2404
 4329TIP3    H212952   0.236   0.405   0.839  0.3618 -1.4377 -0.6941
 4330TIP3   OH212953   2.148   1.424   3.467 -0.4268  0.4816 -0.7463
 4330TIP3    H112954   2.134   1.400   3.376  0.3779  0.0812 -0.7701
 4330TIP3    H212955   2.192   1.509   3.463  0.6618 -0.0693 -0.7695
 4331TIP3   OH212956   1.172   3.592   2.893 -0.0086 -0.1275 -0.8181
 4331TIP3    H112957   1.181   3.542   2.811  1.2253 -0.2560 -0.6231
 4331TIP3    H212958   1.207   3.678   2.873 -0.3830  0.0701 -0.6271
 4332TIP3   OH212959   1.647   1.580   1.397  0.0880 -0.2119 -0.8116
 4332TIP3    H112960   1.588   1.532   1.339  0.1693 -0.0235 -1.0500
 4332TIP3    H212961   1.677   1.654   1.345 -0.6334  0.5348 -0.1907
 4333TIP3   OH212962   4.954   1.321   5.720  0.0345 -0.3295  0.1241
 4333TIP3    H112963   4.999   1.405   5.710 -0.6267 -0.2277 -2.5658
 4333TIP3    H212964   5.022   1.255   5.705  0.2070 -0.2854  0.6563
 4334TIP3   OH212965   1.854   1.599   2.105 -0.2076  0.0760  0.1604
 4334TIP3    H112966   1.768   1.631   2.078 -0.4496 -0.7927 -0.1271
 4334TIP3    H212967   1.894   1.565   2.024 -0.0940 -0.6351  0.5033
 4335TIP3   OH212968   6.965   1.676   5.909  0.6489  0.0071  0.6204
 4335TIP3    H112969   6.971   1.628   5.826  2.1374  3.7052 -1.6681
 4335TIP3    H212970   6.874   1.704   5.914  0.5824 -0.1027  0.1034
 4336TIP3   OH212971   2.471   4.999   1.162 -0.3295  0.2262  0.0911
 4336TIP3    H112972   2.552   4.982   1.113 -0.5106 -1.1142  0.2076
 4336TIP3    H212973   2.415   4.925   1.140 -2.0633  1.7947 -1.0270
 4337TIP3   OH212974   3.967   1.898   1.676  0.3282 -0.2131 -0.2399
 4337TIP3    H112975   4.048   1.892   1.726 -1.4973  0.6221  3.1367
 4337TIP3    H212976   3.968   1.821   1.619  2.7119 -1.0713  0.8255
 4338TIP3   OH212977   6.304   5.098   0.856 -0.3084  0.2900  0.3342
 4338TIP3    H112978   6.309   5.072   0.764  0.2802 -0.4326  0.5536
 4338TIP3    H212979   6.232   5.045   0.891 -0.4980  0.5260  0.3009
 4339TIP3   OH212980   4.820   6.778   2.383  1.0242 -0.5235 -0.0926
 4339TIP3    H112981   4.861   6.712   2.327 -0.3916 -0.6766 -0.9986
 4339TIP3    H212982   4.819   6.858   2.330  0.0067 -0.5748 -0.1716
 4340TIP3   OH212983   1.433   4.980   2.326  0.1419  0.0713 -0.1239
 4340TIP3    H112984   1.422   5.073   2.346 -2.7983 -0.0699 -0.6426
 4340TIP3    H212985   1.392   4.935   2.401  1.5334 -0.8398  0.1240
 4341TIP3   OH212986   0.351   3.849   1.919  0.4341 -0.1748 -0.2565
 4341TIP3    H112987   0.291   3.824   1.990  0.3560 -0.3549 -0.3859
 4341TIP3    H212988   0.293   3.884   1.851  0.1841 -2.8066 -1.4930
 4342TIP3   OH212989   2.313   0.140   2.576  0.0346  0.2207 -0.5175
 4342TIP3    H112990   2.311   0.058   2.625  1.1457 -0.0799 -0.9330
 4342TIP3    H212991   2.384   0.191   2.616  1.3223 -0.2433 -2.0599
 4343TIP3   OH212992   1.084   5.513   3.042  0.1708  0.4814  0.4032
 4343TIP3    H112993   1.094   5.458   3.119 -0.1008  0.2580  0.2789
 4343TIP3    H212994   1.019   5.578   3.067  0.5532  0.8024  0.5788
 4344TIP3   OH212995   0.621   3.479   2.001  0.8635  0.0195 -0.2046
 4344TIP3    H112996   0.669   3.561   1.994 -1.2265  1.2768 -0.8144
 4344TIP3    H212997   0.587   3.478   2.091 -0.4831  0.6880 -0.6784
 4345TIP3   OH212998   1.673   1.350   0.695 -0.5106 -0.0551 -0.2799
 4345TIP3    H112999   1.655   1.281   0.631 -0.3761 -0.2593 -0.0984
 4345TIP3    H213000   1.739   1.313   0.753  1.1526  0.9746 -1.4198
 4346TIP3   OH213001   3.952   4.370   4.416  0.7144  0.1662  0.0193
 4346TIP3    H113002   3.893   4.296   4.424  1.0322 -0.0168  0.7809
 4346TIP3    H213003   3.898   4.440   4.379  0.1882 -0.1824  0.1199
 4347TIP3   OH213004   5.672   6.371   4.109  0.2827  0.0924 -0.2495
 4347TIP3    H113005   5.588   6.336   4.080 -0.6795  2.2219 -0.1522
 4347TIP3    H213006   5.710   6.300   4.161 -1.5375 -0.8261 -0.0794
 4348TIP3   OH213007   5.183   0.330   5.159 -0.0876  0.0697  0.2014
 4348TIP3    H113008   5.092   0.312   5.135  0.3901 -1.0568 -0.9178
 4348TIP3    H213009   5.177   0.379   5.241 -1.7384  1.5706 -0.7445
 4349TIP3   OH213010   0.550   5.109   1.848  0.4059 -0.2828  0.2786
 4349TIP3    H113011   0.525   5.120   1.756 -0.3910  1.7429  0.6693
 4349TIP3    H213012   0.541   5.015   1.864 -0.9638 -0.4804 -1.2979
 4350TIP3   OH213013   4.180   2.698   1.319  1.1046 -0.1795  0.2362
 4350TIP3    H113014   4.198   2.640   1.246 -0.7143 -0.3979 -0.0863
 4350TIP3    H213015   4.141   2.641   1.386  0.9718  0.3543  0.6211
 4351TIP3   OH213016   1.174   3.749   2.022  0.0636 -0.1308 -0.3362
 4351TIP3    H113017   1.122   3.828   2.007  0.6671  0.9566  2.6300
 4351TIP3    H213018   1.262   3.772   1.992 -0.4184 -0.8863 -2.4762
 4352TIP3   OH213019   0.335   5.812   5.149  0.2143 -0.7828 -0.1593
 4352TIP3    H113020   0.261   5.755   5.171 -0.4056  0.0573 -0.0105
 4352TIP3    H213021   0.413   5.759   5.166 -0.3381 -1.4219  0.4158
 4353TIP3   OH213022   2.128   6.369   0.156  0.3004 -0.2779  0.2169
 4353TIP3    H113023   2.088   6.433   0.215 -0.5988 -1.8746  1.4139
 4353TIP3    H213024   2.220   6.396   0.150  0.5515 -0.3414  2.7707
 4354TIP3   OH213025   2.010   1.906   1.122 -0.2518  0.4610  0.0738
 4354TIP3    H113026   2.079   1.853   1.082  0.5849  0.9661  0.8257
 4354TIP3    H213027   1.932   1.888   1.069  0.4020 -0.2804 -0.6529
 4355TIP3   OH213028   5.542   3.986   5.237 -0.1090  0.1707 -0.5358
 4355TIP3    H113029   5.544   3.932   5.316 -2.9495 -0.6979 -0.9559
 4355TIP3    H213030   5.576   3.927   5.168  1.2092  0.5329 -0.2339
 4356TIP3   OH213031   0.781   2.546   4.757  0.6825  0.0215 -0.2672
 4356TIP3    H113032   0.866   2.507   4.736  1.5587  0.6756  1.8344
 4356TIP3    H213033   0.783   2.631   4.712  0.4194 -0.6145 -1.5510
 4357TIP3   OH213034   0.884   3.656   2.580 -0.0957 -0.7503  0.0966
 4357TIP3    H113035   0.839   3.720   2.635 -1.1656 -2.2855  1.0802
 4357TIP3    H213036   0.881   3.694   2.492 -2.6387 -0.4421  0.2594
 4358TIP3   OH213037   1.995   4.950   0.481 -0.0922 -0.1988  0.1516
 4358TIP3    H113038   1.908   4.932   0.444  0.0535  0.8388 -0.7659
 4358TIP3    H213039   2.056   4.911   0.418  0.1473  1.0613 -0.4304
 4359TIP3   OH213040   3.036   0.213   1.591 -0.4912 -0.0932  0.1584
 4359TIP3    H113041   2.954   0.229   1.637  0.7179  0.0785  2.4333
 4359TIP3    H213042   3.079   0.299   1.588  0.1481 -0.4003  0.1833
 4360TIP3   OH213043   1.167   6.649   5.106  0.4339  0.5799  0.2805
 4360TIP3    H113044   1.160   6.689   5.020  1.5001  0.3371  0.0701
 4360TIP3    H213045   1.219   6.570   5.092  0.0912  0.2054  1.0432
 4361TIP3   OH213046   3.212   1.829   0.520  0.1025  0.2693  0.3512
 4361TIP3    H113047   3.141   1.786   0.568  0.7505 -0.8242  0.3787
 4361TIP3    H213048   3.183   1.920   0.510 -0.4102  0.3358  2.0971
 4362TIP3   OH213049   5.853   6.715   2.381  0.1043 -0.4035  0.5184
 4362TIP3    H113050   5.805   6.675   2.454 -2.8855  1.9700  0.0551
 4362TIP3    H213051   5.911   6.778   2.423 -2.8259  2.2249  1.0506
 4363TIP3   OH213052   2.473   0.308   4.911  0.0948 -0.4703  0.1863
 4363TIP3    H113053   2.516   0.285   4.829  0.3271  1.7028 -0.3788
 4363TIP3    H213054   2.533   0.369   4.953 -0.1381 -1.3599  1.8784
 4364TIP3   OH213055   2.291   0.558   5.230 -0.0771 -0.4324 -0.0820
 4364TIP3    H113056   2.286   0.593   5.141  0.0812  1.4089  0.5956
 4364TIP3    H213057   2.353   0.615   5.275 -1.8706  0.1289  1.8289
 4365TIP3   OH213058   1.880   3.778   3.241  0.4488 -0.2055  0.0449
 4365TIP3    H113059   1.933   3.830   3.302  0.1152 -0.1889  0.3278
 4365TIP3    H213060   1.875   3.832   3.162  0.2837  0.1029  0.2597
 4366TIP3   OH213061   4.036   3.768   4.108 -0.4775  0.3045 -0.0802
 4366TIP3    H113062   4.041   3.862   4.127 -0.5515  0.6761 -1.7404
 4366TIP3    H213063   3.946   3.744   4.129 -0.3217  0.4653  0.8331
 4367TIP3   OH213064   4.756   2.841   4.813  0.0946  0.0569  0.7554
 4367TIP3    H113065   4.684   2.875   4.759 -0.4291  0.0737  1.4425
 4367TIP3    H213066   4.826   2.905   4.803  0.7006 -0.8719 -1.3610
 4368TIP3   OH213067   1.087   3.981   3.752  0.0912 -0.2726  0.3370
 4368TIP3    H113068   1.077   4.065   3.797  0.5785 -0.2959  0.4917
 4368TIP3    H213069   1.061   3.999   3.662  2.2243  0.5916 -0.1659
 4369TIP3   OH213070   3.572   4.353   4.248  0.2595 -0.0873  0.4072
 4369TIP3    H113071   3.515   4.426   4.223 -1.1759 -1.2798  0.0686
 4369TIP3    H213072   3.523   4.306   4.316  1.1854 -0.7032  0.6609
 4370TIP3   OH213073   4.356   4.729   1.937  0.3041  0.2606 -0.0294
 4370TIP3    H113074   4.380   4.671   1.865 -1.1671 -0.4192 -0.0004
 4370TIP3    H213075   4.332   4.812   1.895 -1.0096 -0.2810 -0.4051
 4371TIP3   OH213076   1.793   5.153   3.198  0.1110  0.1666  0.3993
 4371TIP3    H113077   1.778   5.097   3.274 -0.9838 -0.8524 -0.5208
 4371TIP3    H213078   1.875   5.122   3.161 -0.5957 -1.0373 -0.2285
 4372TIP3   OH213079   2.876   1.865   3.008 -0.1059  0.0587  0.0807
 4372TIP3    H113080   2.963   1.858   2.968  0.2167 -0.0444  0.7907
 4372TIP3    H213081   2.816   1.857   2.934  0.5021  1.3702 -0.6027
 4373TIP3   OH213082   6.792   2.350   1.134  1.1636  0.1253  0.1208
 4373TIP3    H113083   6.738   2.274   1.114 -0.1789  1.0320  0.1082
 4373TIP3    H213084   6.733   2.409   1.182  2.0115  1.3655 -0.3149
 4374TIP3   OH213085   4.475   4.076   0.304 -0.1083 -0.5230  0.1698
 4374TIP3    H113086   4.447   4.165   0.286  1.8137  0.1757  0.3771
 4374TIP3    H213087   4.432   4.053   0.387  0.6736  0.8625  1.0004
 4375TIP3   OH213088   2.276   4.923   5.281 -0.4833 -0.0285  0.2881
 4375TIP3    H113089   2.202   4.863   5.271 -1.8722  1.1414  2.5680
 4375TIP3    H213090   2.237   5.010   5.273  0.6233  0.6090  1.5187
 4376TIP3   OH213091   4.025   1.608   5.384  0.0151 -0.2044  0.1415
 4376TIP3    H113092   3.967   1.636   5.313 -0.4147 -0.1262  0.5230
 4376TIP3    H213093   3.981   1.532   5.422 -0.4102  0.5418  1.1620
 4377TIP3   OH213094   7.105   2.958   4.239 -0.0944  0.0810 -0.0875
 4377TIP3    H113095   7.188   2.910   4.235  0.7847  1.3030  1.8420
 4377TIP3    H213096   7.039   2.893   4.214  1.4402 -0.7993 -2.1326
 4378TIP3   OH213097   3.442   0.618   3.379 -0.1618 -0.7842  0.3312
 4378TIP3    H113098   3.536   0.618   3.395 -0.2553 -0.7716  0.8796
 4378TIP3    H213099   3.434   0.607   3.284  0.3544 -3.0102  0.5090
 4379TIP3   OH213100   1.322   1.147   2.471  0.5086  0.3311 -0.3342
 4379TIP3    H113101   1.304   1.171   2.563  0.8097  0.4789 -0.3132
 4379TIP3    H213102   1.415   1.165   2.459  0.2278  1.4387 -1.0057
 4380TIP3   OH213103   4.428   3.589   1.704 -0.7340 -0.1378 -0.2794
 4380TIP3    H113104   4.392   3.656   1.762 -0.6011 -0.0594 -0.2869
 4380TIP3    H213105   4.355   3.529   1.688 -1.0199  0.3217 -0.7455
 4381TIP3   OH213106   4.279   2.391   5.600  0.5495  0.5089  0.4682
 4381TIP3    H113107   4.227   2.328   5.549  1.8999  0.5212 -1.0192
 4381TIP3    H213108   4.242   2.387   5.688 -1.4083 -0.0741 -0.3177
 4382TIP3   OH213109   5.246   6.491   1.483  0.6956  0.8371 -0.0624
 4382TIP3    H113110   5.262   6.406   1.524  2.3398  1.0252 -0.2661
 4382TIP3    H213111   5.239   6.472   1.389  1.9657  1.0169 -0.2069
 4383TIP3   OH213112   5.518   3.351   4.302 -0.3344  0.2203 -1.0510
 4383TIP3    H113113   5.609   3.353   4.332 -0.2210  1.1856 -1.4333
 4383TIP3    H213114   5.515   3.276   4.243 -0.1358 -0.6517  0.0059
 4384TIP3   OH213115   2.049   2.368   3.633  0.1508  0.1640 -0.3842
 4384TIP3    H113116   2.102   2.315   3.694 -0.4741  0.7884  0.7366
 4384TIP3    H213117   2.014   2.439   3.687 -0.4773  0.7135 -1.4753
 4385TIP3   OH213118   0.945   4.754   3.215  0.2910 -0.2578 -0.4232
 4385TIP3    H113119   0.933   4.660   3.206  0.7246 -0.2331 -1.4195
 4385TIP3    H213120   1.038   4.769   3.200  0.0325  0.4400 -1.4656
 4386TIP3   OH213121   7.207   2.601   3.750  0.1795 -0.3060 -0.3153
 4386TIP3    H113122   7.129   2.656   3.759  0.5331  0.0284  0.8484
 4386TIP3    H213123   7.219   2.592   3.655 -0.7620  0.3619 -0.5132
 4387TIP3   OH213124   3.217   5.836   0.986  0.0029 -0.0868  0.3039
 4387TIP3    H113125   3.128   5.846   1.018 -0.2541  1.0405 -0.6882
 4387TIP3    H213126   3.229   5.742   0.976 -0.1330 -0.4468  2.9403
 4388TIP3   OH213127   6.701   4.961   1.399 -0.3914  0.7904 -0.1593
 4388TIP3    H113128   6.676   5.038   1.451 -0.1345 -0.6712  2.3032
 4388TIP3    H213129   6.790   4.982   1.368 -0.8192  1.9878 -0.6620
 4389TIP3   OH213130   1.142   2.450   0.512  0.1990  0.2047 -0.5172
 4389TIP3    H113131   1.106   2.431   0.599 -1.1327  0.0821 -1.0737
 4389TIP3    H213132   1.157   2.364   0.473 -1.1301  0.2425 -1.1586
 4390TIP3   OH213133   1.190   0.297   5.642  0.4380  0.2078 -0.3786
 4390TIP3    H113134   1.183   0.214   5.689 -1.8603  0.0914 -0.8066
 4390TIP3    H213135   1.180   0.273   5.550  3.1249  0.6417 -0.8631
 4391TIP3   OH213136   3.091   4.744   0.369 -0.6192 -0.8490  0.1963
 4391TIP3    H113137   3.139   4.811   0.417 -0.2392 -1.2731  0.4170
 4391TIP3    H213138   3.044   4.792   0.301 -2.7173  0.0422  2.1359
 4392TIP3   OH213139   5.121   1.763   1.241 -0.6974 -0.2925  0.2738
 4392TIP3    H113140   5.189   1.723   1.295  0.1907 -1.0846 -1.3554
 4392TIP3    H213141   5.143   1.856   1.240 -0.7852 -0.2519  1.3238
 4393TIP3   OH213142   5.233   1.762   5.589 -0.2206 -0.2183 -0.5302
 4393TIP3    H113143   5.321   1.736   5.563 -0.5898 -0.0389 -2.0490
 4393TIP3    H213144   5.198   1.808   5.513 -1.0856  1.0589  0.5924
 4394TIP3   OH213145   6.493   3.604   3.011 -0.3684 -0.5265 -0.1690
 4394TIP3    H113146   6.436   3.536   3.047 -1.6692  0.2035 -0.7901
 4394TIP3    H213147   6.435   3.657   2.955  0.7135  0.8013 -0.0734
 4395TIP3   OH213148   5.652   4.666   5.885  0.4079  0.4052  0.2028
 4395TIP3    H113149   5.714   4.733   5.912  0.5621 -0.1960  1.4596
 4395TIP3    H213150   5.703   4.585   5.883 -0.0909  0.0837  0.2132
 4396TIP3   OH213151   2.136   4.305   0.422 -0.0403  0.4320  0.1174
 4396TIP3    H113152   2.123   4.318   0.516  0.8393  0.3647  0.2611
 4396TIP3    H213153   2.154   4.212   0.412 -1.5533  0.1604 -0.3129
 4397TIP3   OH213154   5.997   0.849   4.675 -0.8486 -0.2041 -0.1107
 4397TIP3    H113155   6.030   0.936   4.651 -0.7532 -0.2593 -0.1819
 4397TIP3    H213156   5.904   0.862   4.692 -1.0106 -0.2443 -0.9383
 4398TIP3   OH213157   0.191   2.531   2.173 -0.5316 -0.0521  0.1396
 4398TIP3    H113158   0.097   2.514   2.170 -0.4546 -0.7070  1.0062
 4398TIP3    H213159   0.211   2.541   2.266  0.2173  0.3166 -0.0529
 4399TIP3   OH213160   2.095   4.751   1.732  0.0197 -0.2538  0.2136
 4399TIP3    H113161   2.120   4.682   1.671 -1.3021  0.2056 -0.9106
 4399TIP3    H213162   2.065   4.704   1.810 -0.8133 -0.9776 -0.5158
 4400TIP3   OH213163   4.605   3.845   2.381  0.4083 -0.2276 -0.0255
 4400TIP3    H113164   4.616   3.842   2.286  0.6698 -1.3640  0.0252
 4400TIP3    H213165   4.687   3.883   2.414  0.9194 -1.1718 -0.1740
 4401TIP3   OH213166   5.468   0.382   2.155  0.0478  0.4503 -0.2147
 4401TIP3    H113167   5.475   0.325   2.079  0.3005 -0.5442  0.5416
 4401TIP3    H213168   5.426   0.462   2.122  0.5316  0.1947 -1.4729
 4402TIP3   OH213169   5.954   1.418   2.563  0.7312 -0.1404 -0.0509
 4402TIP3    H113170   5.956   1.493   2.623  2.5683 -0.6245  0.5886
 4402TIP3    H213171   5.948   1.342   2.621  2.7598 -0.6309 -0.3907
 4403TIP3   OH213172   2.036   0.207   4.032 -0.5726  0.7367  0.0494
 4403TIP3    H113173   1.983   0.225   4.110 -0.5648 -0.3502  0.3128
 4403TIP3    H213174   2.087   0.287   4.019 -3.2360  2.4373 -1.0175
 4404TIP3   OH213175   3.742   2.741   0.746 -0.3848  0.3520 -0.2049
 4404TIP3    H113176   3.786   2.790   0.816  0.0569  1.0222 -0.9294
 4404TIP3    H213177   3.739   2.802   0.673  0.3753 -0.7709 -1.2181
 4405TIP3   OH213178   3.725   4.991   1.918  0.2348  0.0886 -0.1726
 4405TIP3    H113179   3.694   4.923   1.978 -1.2930  0.0003 -1.0132
 4405TIP3    H213180   3.650   5.049   1.906  0.8312  0.6784 -1.1845
 4406TIP3   OH213181   0.132   5.508   2.744  0.5166  0.0350  0.2958
 4406TIP3    H113182   0.113   5.602   2.746  0.5763  0.0544 -0.0022
 4406TIP3    H213183   0.124   5.480   2.835 -2.2839 -0.2499  0.0334
 4407TIP3   OH213184   1.738   4.701   2.862 -0.2376  0.8240 -0.9210
 4407TIP3    H113185   1.783   4.617   2.850 -0.2825  1.0233 -2.9224
 4407TIP3    H213186   1.711   4.701   2.953 -1.6671 -2.1010 -1.2265
 4408TIP3   OH213187   4.291   3.952   3.721  0.0841 -0.4424  0.5172
 4408TIP3    H113188   4.326   3.907   3.798 -1.2716 -0.7370  0.9864
 4408TIP3    H213189   4.213   3.903   3.697  0.3775 -0.2404 -0.9580
 4409TIP3   OH213190   4.089   6.535   1.016 -0.6308 -0.0543 -0.0875
 4409TIP3    H113191   4.151   6.603   1.043 -0.7973 -0.4047  1.2334
 4409TIP3    H213192   4.075   6.551   0.923  1.6420 -0.1250 -0.4953
 4410TIP3   OH213193   4.906   1.818   4.250  0.3901  0.1543 -0.2288
 4410TIP3    H113194   4.852   1.886   4.208  0.1030 -0.5642 -1.0533
 4410TIP3    H213195   4.922   1.755   4.180  2.0234  0.1786  0.0956
 4411TIP3   OH213196   1.230   4.487   3.582  0.1955  0.5425  0.7674
 4411TIP3    H113197   1.302   4.452   3.634 -0.3658 -0.3495  0.9887
 4411TIP3    H213198   1.171   4.412   3.570  0.0949  0.8399 -0.7889
 4412TIP3   OH213199   3.442   0.255   0.150  0.7176  0.1398 -0.1918
 4412TIP3    H113200   3.400   0.279   0.067 -1.0248  0.7597  0.8066
 4412TIP3    H213201   3.442   0.336   0.200  0.1518 -0.6127  1.0583
 4413TIP3   OH213202   1.944   1.699   5.142 -0.3661 -0.0869  0.1363
 4413TIP3    H113203   1.911   1.645   5.070  0.2084 -0.8442  0.4168
 4413TIP3    H213204   1.963   1.784   5.103 -1.6647  0.0462 -0.2386
 4414TIP3   OH213205   2.223   4.767   0.430 -0.3764  0.2711  0.0652
 4414TIP3    H113206   2.289   4.814   0.481  1.4137 -3.2029  1.2712
 4414TIP3    H213207   2.259   4.762   0.341  0.6591 -0.8847  0.5241
 4415TIP3   OH213208   3.165   2.647   2.500  0.3812 -0.8439  0.2708
 4415TIP3    H113209   3.155   2.593   2.422 -1.5086  0.6437 -0.5784
 4415TIP3    H213210   3.224   2.717   2.473 -2.7375  1.4935 -0.9464
 4416TIP3   OH213211   1.741   3.605   3.410  0.2560 -0.1036 -0.0848
 4416TIP3    H113212   1.759   3.512   3.399 -1.7733 -0.5806  0.2751
 4416TIP3    H213213   1.799   3.648   3.347  0.9307 -1.6221 -0.5458
 4417TIP3   OH213214   6.969   4.499   1.332  0.1382 -0.3303  0.0807
 4417TIP3    H113215   6.910   4.432   1.297  0.0710  0.3150 -1.0628
 4417TIP3    H213216   6.916   4.579   1.334  0.5466 -0.0626  0.4313
 4418TIP3   OH213217   5.597   3.728   1.864 -0.6343  0.1019  0.0693
 4418TIP3    H113218   5.617   3.773   1.782 -1.0073 -0.1549 -0.1631
 4418TIP3    H213219   5.543   3.791   1.913  0.0340  0.4721  0.3555
 4419TIP3   OH213220   6.660   3.905   0.031  0.1490  0.4117 -0.5544
 4419TIP3    H113221   6.582   3.902   0.086  1.0308 -0.1720  0.7089
 4419TIP3    H213222   6.730   3.934   0.089  1.4149 -1.6503 -0.9501
 4420TIP3   OH213223   0.539   5.632   5.234 -0.5043  0.1189 -0.7669
 4420TIP3    H113224   0.628   5.667   5.236 -0.4848  0.0469  0.5511
 4420TIP3    H213225   0.547   5.550   5.186  0.4527 -0.6155  0.5615
 4421TIP3   OH213226   6.206   5.168   5.128 -0.4759  0.2721  0.4001
 4421TIP3    H113227   6.122   5.136   5.095  0.1685  0.1849 -1.2352
 4421TIP3    H213228   6.270   5.109   5.089  0.3721  0.4479  1.4923
 4422TIP3   OH213229   2.902   0.163   4.408  0.1833  0.2568 -0.3821
 4422TIP3    H113230   2.931   0.072   4.410  0.4785  0.2405 -2.6651
 4422TIP3    H213231   2.948   0.204   4.481 -1.1807 -1.7022  1.7170
 4423TIP3   OH213232   6.382   0.455   2.361 -0.2150  0.1520 -0.4708
 4423TIP3    H113233   6.293   0.424   2.379 -0.5936  1.2192 -0.3779
 4423TIP3    H213234   6.418   0.475   2.447  0.6187 -1.5238 -0.4025
 4424TIP3   OH213235   4.457   1.321   0.650 -0.3253 -0.2605  0.2900
 4424TIP3    H113236   4.530   1.352   0.596 -0.4897 -0.4410 -0.0453
 4424TIP3    H213237   4.380   1.364   0.612 -0.4664 -0.5424  0.2535
 4425TIP3   OH213238   7.102   4.280   0.236 -0.0540  0.7874  0.1568
 4425TIP3    H113239   7.172   4.232   0.279 -0.1871  0.9407  0.5426
 4425TIP3    H213240   7.048   4.212   0.196  1.3915  0.7255 -1.8536
 4426TIP3   OH213241   0.253   2.432   1.384  0.2759 -0.0499  0.5797
 4426TIP3    H113242   0.195   2.501   1.415  0.3041  0.5633 -0.6583
 4426TIP3    H213243   0.310   2.412   1.459  0.6198  1.6423  0.8092
 4427TIP3   OH213244   0.702   2.446   5.598  0.3646  0.5357  0.3608
 4427TIP3    H113245   0.734   2.531   5.567  2.0821  0.4531  1.8113
 4427TIP3    H213246   0.737   2.383   5.536  0.1895  0.7518  0.0372
 4428TIP3   OH213247   2.915   0.201   2.091  0.2150  0.1252 -1.0790
 4428TIP3    H113248   2.877   0.193   2.178 -2.0740 -1.3562 -2.0980
 4428TIP3    H213249   2.952   0.289   2.088 -0.8346  0.6879  0.9404
 4429TIP3   OH213250   1.175   6.174   5.106 -0.4296 -0.3057  0.4973
 4429TIP3    H113251   1.258   6.201   5.066 -0.7391  1.1155  0.7770
 4429TIP3    H213252   1.111   6.181   5.035 -0.0928 -2.9030 -0.1541
 4430TIP3   OH213253   2.455   6.021   3.848  0.8415 -0.3885 -0.3219
 4430TIP3    H113254   2.478   5.928   3.839 -0.1848 -0.6796 -0.0344
 4430TIP3    H213255   2.472   6.040   3.940  2.1283  0.0193 -0.6313
 4431TIP3   OH213256   3.800   1.308   5.037  0.4771 -0.8256 -0.4894
 4431TIP3    H113257   3.719   1.262   5.015 -1.2887  0.6744  2.3304
 4431TIP3    H213258   3.818   1.363   4.961 -2.9114  1.0594 -0.0882
 4432TIP3   OH213259   1.454   6.644   5.271  0.1407  0.1403 -0.2729
 4432TIP3    H113260   1.450   6.732   5.309 -0.3101  0.7815 -1.7358
 4432TIP3    H213261   1.373   6.636   5.221  0.1100 -1.1752 -0.0378
 4433TIP3   OH213262   1.310   0.828   2.647 -0.0229  0.0158  0.4396
 4433TIP3    H113263   1.235   0.883   2.667 -0.6135 -0.5747 -0.1030
 4433TIP3    H213264   1.378   0.890   2.620  0.1462  0.6629  2.2016
 4434TIP3   OH213265   1.816   5.789   4.824  0.2144 -0.0180 -0.1194
 4434TIP3    H113266   1.728   5.802   4.860  0.3056  0.4481 -0.0481
 4434TIP3    H213267   1.801   5.765   4.733  0.0249  1.3412 -0.4783
 4435TIP3   OH213268   5.326   0.121   1.044 -0.4480 -0.0342  0.6034
 4435TIP3    H113269   5.355   0.078   0.963 -0.9962  0.0845  0.3390
 4435TIP3    H213270   5.232   0.103   1.048 -0.9963  2.2546 -0.2262
 4436TIP3   OH213271   6.049   4.236   3.643  0.0211 -0.1283 -0.0847
 4436TIP3    H113272   6.047   4.302   3.713 -0.8060  0.8143 -0.9584
 4436TIP3    H213273   6.094   4.280   3.571 -0.5531 -0.5112 -0.6795
 4437TIP3   OH213274   2.809   4.624   2.751  0.1796 -0.5080 -0.3116
 4437TIP3    H113275   2.803   4.549   2.809  1.0719 -0.6917 -0.4305
 4437TIP3    H213276   2.726   4.670   2.761 -0.3456 -1.4556 -0.1690
 4438TIP3   OH213277   6.645   0.698   0.712 -0.1005  0.4224 -0.6220
 4438TIP3    H113278   6.724   0.745   0.739  0.0283  1.1863 -2.2323
 4438TIP3    H213279   6.611   0.749   0.638 -1.7353 -0.2621 -0.3805
 4439TIP3   OH213280   1.795   6.689   0.517  0.1191 -0.1364  0.6004
 4439TIP3    H113281   1.730   6.739   0.567  0.4667 -0.3740  1.3044
 4439TIP3    H213282   1.793   6.728   0.430 -2.1053 -1.1705  0.1133
 4440TIP3   OH213283   6.441   6.629   2.211  0.1779  0.2174 -0.6196
 4440TIP3    H113284   6.498   6.706   2.216 -1.1289  1.1333  1.9727
 4440TIP3    H213285   6.483   6.564   2.267 -0.5610  0.4130  0.1943
 4441TIP3   OH213286  -0.013   1.343   3.949  0.8164 -0.0225  0.0398
 4441TIP3    H113287   0.070   1.312   3.985  0.8514 -1.8893 -1.5103
 4441TIP3    H213288   0.004   1.435   3.928  3.0562 -0.7192 -1.6465
 4442TIP3   OH213289   3.288   5.334   5.683  0.4678  0.7033 -0.2059
 4442TIP3    H113290   3.248   5.418   5.661  0.7699  0.9236  0.0833
 4442TIP3    H213291   3.282   5.328   5.778 -0.8599 -0.2591 -0.3131
 4443TIP3   OH213292   2.458   3.060   4.991  0.5182  0.4945 -0.3565
 4443TIP3    H113293   2.398   2.987   4.975 -0.1911  0.7221  1.0989
 4443TIP3    H213294   2.530   3.045   4.930 -0.6252 -0.2307 -1.5914
 4444TIP3   OH213295   1.932   1.875   1.379  0.1337  0.4674 -0.3131
 4444TIP3    H113296   1.955   1.883   1.287 -1.4459  0.7374 -0.7152
 4444TIP3    H213297   1.838   1.890   1.382 -0.2230 -1.5712  1.0766
 4445TIP3   OH213298   3.601   3.496   2.285  0.5533  0.2047  0.4901
 4445TIP3    H113299   3.591   3.546   2.366  2.6022  0.0737  0.8669
 4445TIP3    H213300   3.523   3.440   2.281  0.0870  0.7107  1.9946
 4446TIP3   OH213301   6.473   2.961   5.721  0.3063  0.3189  0.2287
 4446TIP3    H113302   6.447   2.869   5.726  0.3801  0.2824 -0.0217
 4446TIP3    H213303   6.444   2.988   5.634 -0.1457  0.6649  0.4812
 4447TIP3   OH213304   7.007   4.859   5.301 -0.5122  0.1629  0.1685
 4447TIP3    H113305   7.025   4.814   5.384  0.4749 -0.2859 -0.2743
 4447TIP3    H213306   7.081   4.917   5.288  0.6451 -1.5752 -1.5874
 4448TIP3   OH213307   6.225   6.247   1.567 -0.4511 -0.1389 -0.3902
 4448TIP3    H113308   6.231   6.284   1.655  1.4688  3.7027 -1.8946
 4448TIP3    H213309   6.131   6.244   1.549 -0.8487 -0.4374  1.5517
 4449TIP3   OH213310   4.082   1.488   3.502 -0.3050 -0.5696  0.2298
 4449TIP3    H113311   4.087   1.422   3.433  1.4633  1.3545 -1.6699
 4449TIP3    H213312   4.049   1.567   3.458  0.3227  0.5722  1.6877
 4450TIP3   OH213313   5.752   5.343   1.181  0.3166  0.0600 -0.3054
 4450TIP3    H113314   5.830   5.329   1.127  0.8755  0.8514  0.2735
 4450TIP3    H213315   5.748   5.265   1.237  0.5337 -0.1124 -0.5306
 4451TIP3   OH213316   0.841   2.307   2.432 -0.1528 -0.3554 -0.0721
 4451TIP3    H113317   0.829   2.338   2.522 -0.2941  1.7636 -0.7680
 4451TIP3    H213318   0.930   2.269   2.432  0.2277  0.4988  0.7374
 4452TIP3   OH213319   2.977   4.454   2.372 -0.3324  0.0756  0.1099
 4452TIP3    H113320   2.996   4.537   2.414 -0.3864  0.0998  0.0866
 4452TIP3    H213321   2.917   4.409   2.432  0.3924 -0.3205  0.5431
 4453TIP3   OH213322   1.878   4.940   4.129 -0.3283 -0.1603  0.2705
 4453TIP3    H113323   1.963   4.983   4.139  1.3670 -3.0031 -0.6922
 4453TIP3    H213324   1.875   4.876   4.200 -1.6261 -0.2007  0.2066
 4454TIP3   OH213325   5.740   2.471   2.217 -0.1887 -0.1353 -0.0586
 4454TIP3    H113326   5.750   2.429   2.302 -1.0679  0.2308  0.2362
 4454TIP3    H213327   5.825   2.459   2.174  0.2372 -0.3884  0.8345
 4455TIP3   OH213328   1.338   3.835   3.844  0.1944  0.1565  0.2304
 4455TIP3    H113329   1.420   3.882   3.829 -0.0314  1.0143  1.5130
 4455TIP3    H213330   1.270   3.901   3.831 -0.3000 -0.5322 -0.7481
 4456TIP3   OH213331   6.511   1.419   0.243  0.1547  0.0631  0.3175
 4456TIP3    H113332   6.469   1.502   0.220  1.7341  1.5036  2.3460
 4456TIP3    H213333   6.483   1.402   0.333  0.5103 -1.2116  0.2058
 4457TIP3   OH213334   3.400   3.134   0.141  0.0437 -0.5878  0.2720
 4457TIP3    H113335   3.446   3.199   0.089  1.4863 -0.9519  1.0474
 4457TIP3    H213336   3.324   3.180   0.177  0.3809  0.3167 -0.1698
 4458TIP3   OH213337   7.050   0.481   2.565 -0.0678  0.2751  0.3322
 4458TIP3    H113338   7.041   0.576   2.575  0.4005  0.3433  0.1601
 4458TIP3    H213339   7.048   0.467   2.470  1.7699  0.3328  0.2464
 4459TIP3   OH213340   0.553   3.612   0.081 -0.1282  0.3985  0.2778
 4459TIP3    H113341   0.500   3.674   0.131 -0.6571  0.0533  0.1478
 4459TIP3    H213342   0.556   3.648  -0.008 -0.7975  0.0211  0.0970
 4460TIP3   OH213343   4.172   3.494   0.429 -0.3979 -0.1712 -0.5333
 4460TIP3    H113344   4.216   3.517   0.510  0.2341 -3.1071  0.0669
 4460TIP3    H213345   4.231   3.524   0.360  0.6864 -0.6244  0.1770
 4461TIP3   OH213346   6.842   0.632   2.422 -0.2964 -0.0774  0.0062
 4461TIP3    H113347   6.803   0.636   2.509 -2.3729 -1.8247 -0.7723
 4461TIP3    H213348   6.818   0.715   2.381  0.8539  0.8387  1.1037
 4462TIP3   OH213349   6.638   4.282   2.525  0.2793 -0.5595 -0.1626
 4462TIP3    H113350   6.550   4.312   2.500  0.2717 -0.9918 -0.6741
 4462TIP3    H213351   6.645   4.303   2.618 -0.7615 -1.4556  0.1426
 4463TIP3   OH213352   1.869   4.846   2.108  0.8103  0.1461  0.4261
 4463TIP3    H113353   1.827   4.866   2.192  0.5914 -0.7481  0.5397
 4463TIP3    H213354   1.913   4.927   2.084 -0.9479  1.1171  0.3181
 4464TIP3   OH213355   1.047   4.741   1.789  0.3750  0.1680 -0.2082
 4464TIP3    H113356   1.024   4.744   1.697  1.9865 -0.5295 -0.6683
 4464TIP3    H213357   1.142   4.747   1.791  0.2923  2.2643  1.5412
 4465TIP3   OH213358   5.614   3.076   1.346 -0.2053 -0.0126  0.0598
 4465TIP3    H113359   5.627   2.991   1.304  0.8836 -0.0897  0.5211
 4465TIP3    H213360   5.606   3.137   1.273  0.1923 -0.3490 -0.2789
 4466TIP3   OH213361   5.029   4.565   5.294  0.0525 -0.0804 -0.5590
 4466TIP3    H113362   5.063   4.653   5.281  0.2922 -0.2239 -0.9246
 4466TIP3    H213363   5.102   4.507   5.270  0.6342 -0.3719  1.6790
 4467TIP3   OH213364   1.201   3.154   1.700 -0.4341  0.3847 -0.5688
 4467TIP3    H113365   1.176   3.155   1.792  1.3884 -2.1300  0.0619
 4467TIP3    H213366   1.125   3.117   1.654 -1.3232  1.5909 -0.1314
 4468TIP3   OH213367   5.778   4.529   4.834 -0.6989  0.0930  0.2690
 4468TIP3    H113368   5.862   4.546   4.791 -0.9421  1.9140  0.4384
 4468TIP3    H213369   5.743   4.452   4.788  1.1881 -0.9231  0.4380
 4469TIP3   OH213370   3.484   3.286   1.757  0.1170  0.9331 -0.2502
 4469TIP3    H113371   3.550   3.222   1.784  0.8854  1.6503 -0.3884
 4469TIP3    H213372   3.526   3.370   1.771 -0.9041  1.4210 -0.0156
 4470TIP3   OH213373   1.982   1.760   3.674  0.1086 -0.1289 -0.3108
 4470TIP3    H113374   1.908   1.726   3.623 -1.3352  0.7243  1.1022
 4470TIP3    H213375   2.059   1.722   3.633 -1.1595 -1.7967 -1.2871
 4471TIP3   OH213376   0.357   3.381   1.002  0.0098  0.1145 -0.4852
 4471TIP3    H113377   0.420   3.392   0.930  2.3297 -0.0993  1.3758
 4471TIP3    H213378   0.337   3.288   1.003 -0.2368  0.1599 -1.0002
 4472TIP3   OH213379   4.355   4.677   3.772 -0.7212 -0.3396 -0.1133
 4472TIP3    H113380   4.395   4.763   3.779  1.4861 -1.3538  0.7906
 4472TIP3    H213381   4.312   4.662   3.856 -0.6889 -0.3248 -0.0946
 4473TIP3   OH213382   6.633   2.555   3.739 -0.6353 -0.0278  0.2151
 4473TIP3    H113383   6.629   2.474   3.689 -1.6584  0.2735 -0.2205
 4473TIP3    H213384   6.585   2.619   3.685  3.5657  2.0413 -1.5738
 4474TIP3   OH213385   0.128   4.273   5.753  0.2165 -0.1018  0.1098
 4474TIP3    H113386   0.083   4.357   5.747 -1.5707 -0.9534  1.0379
 4474TIP3    H213387   0.193   4.285   5.822  0.7838  0.8338 -0.5544
 4475TIP3   OH213388   0.525   4.814   4.269 -0.1921 -0.3390 -0.0114
 4475TIP3    H113389   0.430   4.802   4.273 -0.4066  1.4809  1.0487
 4475TIP3    H213390   0.539   4.869   4.192  0.1125 -1.3308 -0.6856
 4476TIP3   OH213391   3.897   1.429   2.448  0.3180 -0.1962 -0.7019
 4476TIP3    H113392   3.843   1.388   2.516  0.3490  0.8451 -0.0322
 4476TIP3    H213393   3.960   1.361   2.424 -1.5663 -1.6300 -1.8790
 4477TIP3   OH213394   5.624   1.260   4.192 -0.6491  0.2305 -0.3305
 4477TIP3    H113395   5.681   1.243   4.116 -0.2644  2.3852 -0.5859
 4477TIP3    H213396   5.539   1.225   4.166 -0.0366 -0.8631 -0.9332
 4478TIP3   OH213397   4.924   2.758   0.179 -0.4700  0.0125 -0.1605
 4478TIP3    H113398   5.007   2.795   0.208  0.8437 -1.9725 -1.1674
 4478TIP3    H213399   4.904   2.802   0.097 -1.4639  1.8534  1.0041
 4479TIP3   OH213400   0.943   6.103   4.977 -0.1452 -0.4109 -0.0104
 4479TIP3    H113401   0.924   6.150   4.896 -0.2935 -1.1929 -0.4380
 4479TIP3    H213402   0.890   6.148   5.043 -0.2059  0.0850 -0.3858
 4480TIP3   OH213403   4.453   4.312   3.442 -0.3411 -0.4219 -0.2785
 4480TIP3    H113404   4.477   4.238   3.498 -1.5491 -0.9721 -0.4687
 4480TIP3    H213405   4.393   4.275   3.377 -1.3726  0.8166 -0.0688
 4481TIP3   OH213406   6.587   5.068   1.740 -0.0369 -0.1115  0.9966
 4481TIP3    H113407   6.559   5.117   1.662  0.1054 -0.0622  0.9753
 4481TIP3    H213408   6.520   5.088   1.805 -0.3085 -0.3781  0.8022
 4482TIP3   OH213409   4.021   5.718   3.297  0.2068  0.2095  0.6245
 4482TIP3    H113410   3.993   5.809   3.281 -0.4371  0.1292  1.2406
 4482TIP3    H213411   3.944   5.666   3.274  0.8768 -0.2719 -0.6524
 4483TIP3   OH213412   1.545   5.060   4.088 -0.5726  0.2283 -0.0791
 4483TIP3    H113413   1.562   4.966   4.102 -0.7571  0.1410 -0.4369
 4483TIP3    H213414   1.618   5.090   4.035 -0.1084  0.4606  0.6830
 4484TIP3   OH213415   5.709   2.002   2.433  0.1470  0.7926 -0.5698
 4484TIP3    H113416   5.643   1.935   2.419 -1.8392  2.7756 -1.1453
 4484TIP3    H213417   5.689   2.070   2.369  2.1465  1.9114 -0.0939
 4485TIP3   OH213418   7.160   2.680   1.920  0.5148 -0.0343 -0.2554
 4485TIP3    H113419   7.172   2.608   1.983  2.2146  1.1093  0.8113
 4485TIP3    H213420   7.090   2.733   1.958 -0.4507 -0.8489 -0.8318
 4486TIP3   OH213421   2.346   2.477   5.061 -0.5665  0.6274  0.3280
 4486TIP3    H113422   2.372   2.500   5.150  1.0067 -1.7009  0.5585
 4486TIP3    H213423   2.286   2.404   5.072  0.2347 -0.1875 -0.5058
 4487TIP3   OH213424   4.296   1.724   4.163  1.0863 -1.1843  0.0472
 4487TIP3    H113425   4.282   1.672   4.084 -1.1198  0.7372 -0.9432
 4487TIP3    H213426   4.391   1.731   4.171  1.3780 -2.9818 -1.3283
 4488TIP3   OH213427   7.003   5.083   3.133 -0.0568 -0.2285 -0.1798
 4488TIP3    H113428   7.038   5.120   3.052 -2.2022  0.9017 -0.6607
 4488TIP3    H213429   7.039   5.138   3.202  1.0872 -0.6588 -0.4069
 4489TIP3   OH213430   1.685   6.492   5.277 -0.0615  0.2688 -0.8551
 4489TIP3    H113431   1.765   6.540   5.300 -0.1862 -0.3228  0.9978
 4489TIP3    H213432   1.617   6.559   5.275  0.1103  0.4618 -0.2935
 4490TIP3   OH213433   0.138   4.156   4.841 -0.0093 -0.5399 -0.2343
 4490TIP3    H113434   0.111   4.077   4.887 -1.4196 -0.8056 -1.4914
 4490TIP3    H213435   0.082   4.225   4.877  1.4105  0.0105  1.0725
 4491TIP3   OH213436   1.125   5.173   4.979  0.4881 -0.1482  0.7079
 4491TIP3    H113437   1.151   5.225   5.055  2.1686 -0.9424  0.7234
 4491TIP3    H213438   1.181   5.204   4.908  0.0098 -0.4663  0.1814
 4492TIP3   OH213439   4.722   0.766   5.451  0.5462  0.2988 -0.2571
 4492TIP3    H113440   4.753   0.690   5.402 -0.6208 -0.4020  0.0477
 4492TIP3    H213441   4.627   0.752   5.459  0.5423  0.9763  1.1760
 4493TIP3   OH213442   3.101   3.770   2.510  0.5500  0.1595  0.5473
 4493TIP3    H113443   3.036   3.712   2.471  0.2715  1.7458 -1.4580
 4493TIP3    H213444   3.101   3.746   2.603 -2.4458 -0.2792  0.5214
 4494TIP3   OH213445   4.635   1.408   2.228  0.2571  0.3530  0.0605
 4494TIP3    H113446   4.672   1.338   2.174  3.0019  1.5047  0.2831
 4494TIP3    H213447   4.582   1.362   2.293 -1.1136 -1.2044 -2.0380
 4495TIP3   OH213448   1.251   0.716   4.006 -0.2601  0.3428 -0.2247
 4495TIP3    H113449   1.181   0.733   4.070  1.2615 -0.7375  1.8486
 4495TIP3    H213450   1.326   0.765   4.040  0.4866  0.0581 -1.4185
 4496TIP3   OH213451   4.857   4.255   3.817  0.0606  0.0102  0.5214
 4496TIP3    H113452   4.781   4.234   3.872 -0.6150  1.5862  0.2607
 4496TIP3    H213453   4.858   4.186   3.751 -2.2545  0.8547 -0.5185
 4497TIP3   OH213454   4.225   1.630   2.400 -0.0926  0.5192 -0.3517
 4497TIP3    H113455   4.135   1.663   2.397 -0.5432 -0.6359 -0.0619
 4497TIP3    H213456   4.234   1.579   2.319 -0.3259 -0.8696  0.4541
 4498TIP3   OH213457   6.418   1.349   5.798 -0.0824  0.0432 -0.0840
 4498TIP3    H113458   6.478   1.289   5.754 -1.3003 -0.5734 -0.9600
 4498TIP3    H213459   6.364   1.292   5.854  0.3590  0.6296  0.9780
 4499TIP3   OH213460   5.741   0.386   3.536  0.4026  1.0694 -0.1667
 4499TIP3    H113461   5.662   0.362   3.488 -0.3333  1.8609  0.6186
 4499TIP3    H213462   5.764   0.473   3.503 -0.0423  1.5710  0.8028
 4500TIP3   OH213463   4.372   5.557   3.190 -0.2518  0.1002 -0.3081
 4500TIP3    H113464   4.383   5.495   3.118  0.7879  0.7805 -0.7694
 4500TIP3    H213465   4.307   5.517   3.247  0.3930 -1.4072 -0.5915
 4501TIP3   OH213466   3.503   0.182   0.888 -0.0168  0.7337 -0.1842
 4501TIP3    H113467   3.540   0.212   0.805  1.8498  0.1574  0.3934
 4501TIP3    H213468   3.579   0.171   0.946 -1.2783  1.4631  1.7294
 4502TIP3   OH213469   5.995   0.368   0.441  0.2812 -0.5083  0.8385
 4502TIP3    H113470   6.032   0.334   0.359 -0.6650  1.1895 -0.3782
 4502TIP3    H213471   6.066   0.419   0.480  0.1902  0.2668  0.0451
 4503TIP3   OH213472   3.403   4.270   1.382 -0.1396 -0.3106  0.2948
 4503TIP3    H113473   3.414   4.363   1.399  0.6076 -0.5122  0.9945
 4503TIP3    H213474   3.317   4.263   1.340 -0.1451  0.6980  0.1145
 4504TIP3   OH213475   3.398   3.190   5.841  0.3988 -0.2932  0.1161
 4504TIP3    H113476   3.481   3.167   5.884  0.1664 -0.8444  0.2720
 4504TIP3    H213477   3.420   3.195   5.748  0.7291  0.1231  0.2082
 4505TIP3   OH213478   4.603   5.598   4.170  0.4516  0.2850 -0.6660
 4505TIP3    H113479   4.535   5.643   4.220 -0.2967 -0.3536 -1.0843
 4505TIP3    H213480   4.579   5.613   4.078  0.9564  0.1806 -0.8185
 4506TIP3   OH213481   5.388   4.772   0.697  0.2940  0.5308 -0.4379
 4506TIP3    H113482   5.431   4.776   0.611 -2.3825 -0.8247 -1.9833
 4506TIP3    H213483   5.460   4.777   0.760  2.5325 -0.0289 -2.7702
 4507TIP3   OH213484   4.795   3.226   1.680  0.1846  0.9422  0.6537
 4507TIP3    H113485   4.829   3.136   1.680 -0.0039  0.8721  0.5732
 4507TIP3    H213486   4.740   3.231   1.602  2.6324  2.0469 -1.1340
 4508TIP3   OH213487   0.202   3.482   3.273  0.0493 -0.4488 -0.0080
 4508TIP3    H113488   0.256   3.488   3.194  0.0213  1.5549  0.0738
 4508TIP3    H213489   0.156   3.398   3.264  1.9501 -1.4702 -0.8423
 4509TIP3   OH213490   5.508   6.594   2.875  0.0593  0.4073 -0.4545
 4509TIP3    H113491   5.447   6.610   2.803 -1.9509  0.4957  1.1824
 4509TIP3    H213492   5.527   6.681   2.910 -0.3350  0.2496  0.1683
 4510TIP3   OH213493   3.252   0.877   4.263 -0.0953 -0.0116  0.0082
 4510TIP3    H113494   3.165   0.843   4.244  0.2283 -2.2062  2.0461
 4510TIP3    H213495   3.299   0.870   4.180 -1.0295 -1.5344 -0.4345
 4511TIP3   OH213496   0.503   5.791   1.304  0.9612  0.1703 -0.6542
 4511TIP3    H113497   0.561   5.853   1.349  0.9355  0.0860 -0.5053
 4511TIP3    H213498   0.469   5.840   1.229  1.0264  0.3010 -0.5987
 4512TIP3   OH213499   6.181   3.354   5.621 -0.3394 -0.4020 -0.5324
 4512TIP3    H113500   6.197   3.340   5.528  0.7344 -1.1269 -0.2632
 4512TIP3    H213501   6.218   3.440   5.640 -2.7827  0.8934 -1.2462
 4513TIP3   OH213502   6.185   2.754   2.138  0.5150  0.1847  0.1308
 4513TIP3    H113503   6.089   2.755   2.137  0.3751 -1.6422  2.4551
 4513TIP3    H213504   6.210   2.841   2.168 -0.6390 -0.3984  3.0472
 4514TIP3   OH213505   0.755   1.748   0.537  0.8255  0.0229 -0.4688
 4514TIP3    H113506   0.802   1.733   0.455  2.0648 -0.4165  0.2913
 4514TIP3    H213507   0.698   1.672   0.547  0.9348 -0.0978 -0.7537
 4515TIP3   OH213508   1.244   0.458   3.921  0.0246 -0.1197  0.2230
 4515TIP3    H113509   1.280   0.521   3.983 -0.5671 -0.2531  0.7092
 4515TIP3    H213510   1.174   0.505   3.876 -0.3651 -0.4003  0.5308
 4516TIP3   OH213511   6.746   2.371   1.877 -0.0796  0.0335 -0.2543
 4516TIP3    H113512   6.794   2.302   1.830 -0.5377  0.9626 -2.1662
 4516TIP3    H213513   6.790   2.376   1.962 -0.0830 -2.6511  0.0054
 4517TIP3   OH213514   4.472   1.411   5.549 -0.2000  0.0033 -0.0243
 4517TIP3    H113515   4.501   1.332   5.503 -0.2488  0.9001 -1.6889
 4517TIP3    H213516   4.429   1.464   5.481 -0.2978  1.3959  1.0715
 4518TIP3   OH213517   2.560   3.670   2.300  0.0323 -0.1167 -0.0114
 4518TIP3    H113518   2.536   3.708   2.216 -2.0665  2.7633  1.6987
 4518TIP3    H213519   2.643   3.712   2.322  0.5857 -0.8774 -0.5961
 4519TIP3   OH213520   5.159   6.056   3.585  0.1599 -0.3227  0.4218
 4519TIP3    H113521   5.127   6.031   3.499  2.4674 -0.6370 -0.3950
 4519TIP3    H213522   5.137   5.982   3.641  0.2180 -0.8928 -0.2978
 4520TIP3   OH213523   3.682   2.211   5.718  0.1470  0.4056  0.0427
 4520TIP3    H113524   3.709   2.187   5.807  0.4505  1.0948  0.1357
 4520TIP3    H213525   3.645   2.130   5.682 -2.0199  0.6392  1.5536
 4521TIP3   OH213526   1.529   1.227   4.177 -0.9996  0.3099  0.1847
 4521TIP3    H113527   1.569   1.226   4.089  2.1237  0.6027  1.4690
 4521TIP3    H213528   1.545   1.315   4.209 -2.3051  0.2632  1.0253
 4522TIP3   OH213529   0.261   5.506   3.012 -0.0040 -0.4774 -0.4069
 4522TIP3    H113530   0.326   5.448   2.973  1.9878  0.7217  0.9365
 4522TIP3    H213531   0.292   5.594   2.992 -2.4163  0.2095 -1.5439
 4523TIP3   OH213532   2.932   5.784   1.006  0.4740  0.2704 -0.7011
 4523TIP3    H113533   2.998   5.748   0.947  1.7518 -1.1207  1.4441
 4523TIP3    H213534   2.880   5.708   1.033  2.4071  0.0138  2.9203
 4524TIP3   OH213535   3.017   5.177   4.199 -0.0820 -0.4192 -0.2033
 4524TIP3    H113536   3.046   5.251   4.254 -0.8321 -0.5824  0.4246
 4524TIP3    H213537   2.948   5.214   4.144  0.6253 -0.2731 -1.0096
 4525TIP3   OH213538   4.783   2.715   5.505 -0.2372  0.0541 -0.3361
 4525TIP3    H113539   4.724   2.722   5.580  1.7487 -0.5059  1.3789
 4525TIP3    H213540   4.832   2.797   5.505  0.7541 -0.5099 -0.0810
 4526TIP3   OH213541   0.685   6.441   4.006 -0.1848 -0.0670 -0.7191
 4526TIP3    H113542   0.612   6.486   4.049 -0.5898 -0.5320 -0.9101
 4526TIP3    H213543   0.648   6.411   3.923  0.7456  1.3266 -1.6772
 4527TIP3   OH213544   4.988   6.299   1.507  0.4472  0.0365 -0.0679
 4527TIP3    H113545   5.073   6.256   1.510  0.0500 -0.7782 -0.0913
 4527TIP3    H213546   4.933   6.248   1.567 -0.7495 -1.1372 -2.0488
 4528TIP3   OH213547   2.601   1.212   0.941  0.7628  0.1057 -0.2316
 4528TIP3    H113548   2.672   1.248   0.995  0.8717 -1.0828  0.4477
 4528TIP3    H213549   2.528   1.272   0.955  1.0340  0.2435  0.6389
 4529TIP3   OH213550   3.051   2.155   5.364  0.0352  0.3681 -0.4100
 4529TIP3    H113551   3.103   2.111   5.431 -0.5722 -3.2332 -2.0620
 4529TIP3    H213552   3.115   2.197   5.308  1.0462 -1.6191 -0.8274
 4530TIP3   OH213553   2.518   5.792   5.183  0.8534  0.1319 -0.4695
 4530TIP3    H113554   2.426   5.772   5.172  0.6078  0.0598  1.4312
 4530TIP3    H213555   2.534   5.865   5.122 -0.4309  0.1338 -0.8279
 4531TIP3   OH213556   6.733   1.949   1.864  0.6188 -0.0636 -0.4674
 4531TIP3    H113557   6.683   1.896   1.926 -0.8090  1.3058 -0.3652
 4531TIP3    H213558   6.666   1.998   1.815  1.7931  3.1600  0.8339
 4532TIP3   OH213559   2.334   6.141   1.680  0.3663  0.4356  0.4789
 4532TIP3    H113560   2.302   6.155   1.591 -0.0804 -1.8508  0.2150
 4532TIP3    H213561   2.426   6.169   1.678  0.0628  1.4059 -0.3885
 4533TIP3   OH213562   1.579   3.771   4.087 -0.3409  0.4562 -0.4044
 4533TIP3    H113563   1.552   3.812   4.005 -0.5770 -0.8919 -1.0396
 4533TIP3    H213564   1.502   3.723   4.116 -0.1505  0.6451  0.4385
 4534TIP3   OH213565   4.722   4.940   2.885 -0.5789  0.1423  0.0537
 4534TIP3    H113566   4.773   4.924   2.965 -1.8240 -1.7384  0.5395
 4534TIP3    H213567   4.715   5.035   2.880  0.0489  0.3270  1.8723
 4535TIP3   OH213568   3.942   6.297   4.823 -0.6304 -0.1523  0.3407
 4535TIP3    H113569   3.860   6.267   4.860 -0.1540  0.0965  1.6325
 4535TIP3    H213570   3.965   6.230   4.758 -1.2133 -0.8658  0.8544
 4536TIP3   OH213571   2.403   4.404   5.278 -0.2202  0.0715 -0.7721
 4536TIP3    H113572   2.443   4.386   5.363 -0.8007  1.0907 -0.2576
 4536TIP3    H213573   2.466   4.461   5.234 -0.3278  0.2967 -0.6403
 4537TIP3   OH213574   4.557   5.278   3.639  0.3666 -0.1950  0.3174
 4537TIP3    H113575   4.546   5.341   3.567 -0.6213 -1.7875 -0.9973
 4537TIP3    H213576   4.590   5.199   3.596 -0.6373 -1.3208  1.5566
 4538TIP3   OH213577   0.307   5.112   4.838  0.7597 -0.2770  0.3063
 4538TIP3    H113578   0.265   5.134   4.921 -1.0950  4.7614 -1.5669
 4538TIP3    H213579   0.392   5.155   4.841  1.9794 -2.5286  0.5229
 4539TIP3   OH213580   2.857   3.624   1.875  0.2120  0.5432  0.3501
 4539TIP3    H113581   2.902   3.553   1.830  0.9939  0.0658  1.8066
 4539TIP3    H213582   2.901   3.703   1.844  1.8319  0.1179  1.4067
 4540TIP3   OH213583   4.406   1.928   3.649  0.4659 -0.2401  0.3044
 4540TIP3    H113584   4.389   1.932   3.743  0.2382 -0.1593  0.2601
 4540TIP3    H213585   4.345   1.863   3.616 -0.8439  1.1471 -0.0937
 4541TIP3   OH213586   5.012   6.537   0.727 -0.3738  0.5417  0.1316
 4541TIP3    H113587   5.038   6.581   0.646 -0.3852  0.6906  0.2093
 4541TIP3    H213588   4.955   6.599   0.772 -1.3840 -0.0217 -0.3350
 4542TIP3   OH213589   3.474   2.843   5.801  0.0531 -0.0521  0.2869
 4542TIP3    H113590   3.502   2.893   5.877 -0.3825 -0.3378  0.6421
 4542TIP3    H213591   3.553   2.833   5.748  0.0718  1.3252  0.0252
 4543TIP3   OH213592   7.029   1.338   5.488  0.0008 -0.0546  0.2288
 4543TIP3    H113593   7.092   1.403   5.456 -0.2609  0.3551  0.5369
 4543TIP3    H213594   7.084   1.265   5.519  0.2648 -0.4408 -1.0739
 4544TIP3   OH213595   3.303   2.228   3.752 -0.4296 -0.1449  0.1541
 4544TIP3    H113596   3.215   2.195   3.771 -1.4521  2.3652  0.1201
 4544TIP3    H213597   3.330   2.271   3.833 -0.2933  1.2295 -0.6001
 4545TIP3   OH213598   6.346   3.624   0.383  0.0258  0.3849  0.1758
 4545TIP3    H113599   6.279   3.639   0.450 -0.1414  0.4861 -0.0148
 4545TIP3    H213600   6.426   3.608   0.433  0.0709  1.2406  0.3984
 4546TIP3   OH213601   3.316   1.133   3.617 -0.6348 -0.4068 -0.4312
 4546TIP3    H113602   3.389   1.074   3.634 -0.0166 -0.3764 -2.6358
 4546TIP3    H213603   3.325   1.202   3.682  0.1340 -1.4046  0.5707
 4547TIP3   OH213604   0.713   4.088   4.398  0.0348 -0.1056  0.4662
 4547TIP3    H113605   0.791   4.051   4.355 -0.6883  0.8390 -1.8302
 4547TIP3    H213606   0.724   4.182   4.391 -1.5087  0.0553 -0.3900
 4548TIP3   OH213607   5.952   5.848   1.249  0.2549 -0.3458 -0.0856
 4548TIP3    H113608   5.869   5.832   1.204  1.4426 -0.5521 -2.3850
 4548TIP3    H213609   5.962   5.775   1.309 -1.2030 -0.3275  0.1978
 4549TIP3   OH213610   4.896   1.750   5.767  0.0403 -0.3042 -0.7808
 4549TIP3    H113611   4.825   1.699   5.728 -0.7991  0.9783 -0.9977
 4549TIP3    H213612   4.851   1.821   5.814  1.1658  0.3900 -0.7248
 4550TIP3   OH213613   2.544   4.603   0.784  0.2849  0.6294 -0.4889
 4550TIP3    H113614   2.633   4.579   0.761  0.1081  0.0177 -0.5424
 4550TIP3    H213615   2.528   4.563   0.869 -1.2016 -2.5549 -2.0982
 4551TIP3   OH213616   0.157   1.686   5.817  0.0786  0.0950 -0.4899
 4551TIP3    H113617   0.086   1.659   5.876 -1.1529  0.3697 -1.8070
 4551TIP3    H213618   0.157   1.620   5.748  1.9859 -0.6289  0.1286
 4552TIP3   OH213619   5.782   0.212   5.679  0.1317 -0.0725  0.1001
 4552TIP3    H113620   5.843   0.246   5.613 -1.2662  0.4735 -0.9817
 4552TIP3    H213621   5.826   0.136   5.716  1.2592  0.0225 -0.9786
 4553TIP3   OH213622   6.792   2.488   3.039 -0.8158 -0.0370 -0.0105
 4553TIP3    H113623   6.747   2.538   3.107  0.2810  2.2168 -0.8704
 4553TIP3    H213624   6.767   2.530   2.957  0.1274 -0.9269 -0.7846
 4554TIP3   OH213625   0.412   5.458   1.786  0.3680 -0.4246  0.0634
 4554TIP3    H113626   0.468   5.419   1.719  0.0297  1.6143 -1.4879
 4554TIP3    H213627   0.368   5.383   1.827  3.9557 -2.1262  1.2258
 4555TIP3   OH213628   1.151   5.055   1.279  0.2110  0.0511  0.2066
 4555TIP3    H113629   1.079   5.099   1.323 -1.8167 -2.3627 -0.4416
 4555TIP3    H213630   1.181   4.989   1.342 -1.1534 -1.8612 -1.0503
 4556TIP3   OH213631   7.217   3.568   0.874 -0.0744 -0.7304 -0.7532
 4556TIP3    H113632   7.183   3.540   0.959  0.0474 -0.2973 -0.5590
 4556TIP3    H213633   7.229   3.487   0.825  0.4150 -1.0353 -0.1465
 4557TIP3   OH213634   5.334   0.748   0.935 -0.0597  0.4271  0.6556
 4557TIP3    H113635   5.412   0.693   0.929 -0.7875 -0.9192  2.5715
 4557TIP3    H213636   5.367   0.835   0.958  0.9209  0.1457  0.3587
 4558TIP3   OH213637   3.755   0.561   2.650 -0.1508  0.1474 -0.7852
 4558TIP3    H113638   3.819   0.499   2.614 -2.0975 -3.0705  0.7559
 4558TIP3    H213639   3.685   0.564   2.585 -0.1977  0.5135 -0.7199
 4559TIP3   OH213640   5.713   5.011   0.958 -0.7212  0.3399 -0.3335
 4559TIP3    H113641   5.785   5.061   0.997 -0.9484  0.9175 -0.6282
 4559TIP3    H213642   5.744   4.921   0.955 -0.4548  0.3962  0.5887
 4560TIP3   OH213643   4.551   0.517   4.374  0.1214  0.1512 -0.2877
 4560TIP3    H113644   4.644   0.518   4.396  0.2981 -0.3648 -0.9785
 4560TIP3    H213645   4.543   0.447   4.309 -0.8178 -0.0800  0.0651
 4561TIP3   OH213646   6.876   0.378   1.393 -0.0409  0.6965 -0.2975
 4561TIP3    H113647   6.887   0.337   1.479 -1.4287  1.1355  0.1084
 4561TIP3    H213648   6.782   0.376   1.377  0.1641  0.9097 -1.6809
 4562TIP3   OH213649   5.161   4.904   3.092  0.3194 -1.1029  0.1209
 4562TIP3    H113650   5.167   4.989   3.049 -0.5634 -1.0847  0.0154
 4562TIP3    H213651   5.222   4.848   3.043  3.7307  0.3062  2.4017
 4563TIP3   OH213652   5.902   4.789   1.295 -0.3940 -0.0220  0.1180
 4563TIP3    H113653   5.920   4.732   1.220  1.5442  1.7562 -0.8537
 4563TIP3    H213654   5.846   4.859   1.260 -3.0448 -1.3489  1.3756
 4564TIP3   OH213655   4.110   0.530   0.809 -0.2357  0.7369 -0.5230
 4564TIP3    H113656   4.145   0.604   0.858  1.8108 -0.3323 -0.2918
 4564TIP3    H213657   4.127   0.552   0.717  1.4070  0.1125 -0.4044
 4565TIP3   OH213658   3.280   3.982   5.342  0.0265 -0.4200  0.4238
 4565TIP3    H113659   3.286   4.077   5.353  0.2177 -0.5032  1.0341
 4565TIP3    H213660   3.251   3.949   5.427 -1.3174 -0.7914 -0.1415
 4566TIP3   OH213661   6.797   6.502   5.759  0.1514 -0.5375  0.6445
 4566TIP3    H113662   6.737   6.444   5.713  0.1173  0.0938 -0.1277
 4566TIP3    H213663   6.740   6.559   5.811 -0.0583  1.0187 -1.1895
 4567TIP3   OH213664   3.444   0.998   2.338 -0.0624 -0.6082  0.1357
 4567TIP3    H113665   3.453   1.063   2.408 -0.9978 -1.2095  0.8436
 4567TIP3    H213666   3.405   1.047   2.265  1.3344  0.1251 -0.1442
 4568TIP3   OH213667   1.680   5.818   5.275 -0.3438 -0.1609  0.3801
 4568TIP3    H113668   1.725   5.782   5.199 -0.2941  1.9573 -0.6709
 4568TIP3    H213669   1.751   5.846   5.333 -0.2688  1.7700 -0.5852
 4569TIP3   OH213670   2.388   1.633   3.781  0.0907  0.0716 -0.4517
 4569TIP3    H113671   2.341   1.675   3.708  0.3466  1.8383  0.3545
 4569TIP3    H213672   2.320   1.586   3.829 -0.3376  0.1731 -0.9456
 4570TIP3   OH213673   1.484   1.638   3.009 -0.0648 -0.1413  0.1013
 4570TIP3    H113674   1.427   1.685   2.948 -0.0561  0.0285  0.2258
 4570TIP3    H213675   1.443   1.552   3.017 -0.7278  0.2259  0.7750
 4571TIP3   OH213676   7.114   5.529   5.233 -0.1116 -0.5234 -0.5476
 4571TIP3    H113677   7.126   5.436   5.251  0.7908 -0.3963 -0.4445
 4571TIP3    H213678   7.088   5.567   5.317  0.0425 -0.5939 -0.4682
 4572TIP3   OH213679   1.950   5.276   5.702 -0.0850 -0.0956  0.4035
 4572TIP3    H113680   2.043   5.299   5.692  0.0799  0.2056  2.3049
 4572TIP3    H213681   1.912   5.295   5.616  1.8852 -1.7078 -0.9225
 4573TIP3   OH213682   5.308   6.728   3.159 -0.0609 -0.6093  0.3878
 4573TIP3    H113683   5.274   6.672   3.089  0.7796  1.0998 -1.4778
 4573TIP3    H213684   5.241   6.794   3.172 -0.6754 -1.5066  1.9898
 4574TIP3   OH213685   5.793   4.526   2.099 -0.1128 -0.2765  0.3307
 4574TIP3    H113686   5.714   4.470   2.101  0.0623 -0.5111  1.0953
 4574TIP3    H213687   5.760   4.613   2.079 -0.4324 -0.5838 -0.5359
 4575TIP3   OH213688   5.472   5.160   2.645  0.4900 -0.2545  0.6096
 4575TIP3    H113689   5.564   5.144   2.667  0.5012 -0.4953  0.3899
 4575TIP3    H213690   5.425   5.084   2.679  0.5101 -0.6341 -0.2018
 4576TIP3   OH213691   4.459   2.906   1.052  0.1074 -0.2792  0.0769
 4576TIP3    H113692   4.482   2.950   0.970 -2.4010  0.3343 -0.3668
 4576TIP3    H213693   4.499   2.960   1.120 -0.8142  1.2911 -0.5925
 4577TIP3   OH213694   1.051   5.864   2.186 -0.6508 -0.2066 -0.7393
 4577TIP3    H113695   1.007   5.835   2.266 -0.3670  1.0404 -0.1087
 4577TIP3    H213696   1.085   5.783   2.147  0.5948 -0.7113  1.2257
 4578TIP3   OH213697   4.085   2.682   0.111 -0.0988 -0.4350  0.2759
 4578TIP3    H113698   4.175   2.714   0.108 -0.4370  0.5971  0.5864
 4578TIP3    H213699   4.090   2.600   0.161  0.5682 -0.0171  0.9166
 4579TIP3   OH213700   5.728   3.751   0.142  0.3680 -0.3924 -0.8337
 4579TIP3    H113701   5.824   3.748   0.142  0.5416  2.2450  0.0061
 4579TIP3    H213702   5.704   3.738   0.234  0.0500  0.4613 -0.7836
 4580TIP3   OH213703   4.187   2.510   3.126  0.1084 -0.4423  0.0470
 4580TIP3    H113704   4.143   2.525   3.042  0.4021 -0.6613 -0.1448
 4580TIP3    H213705   4.265   2.565   3.123  0.6807 -1.2506 -0.2632
 4581TIP3   OH213706   7.119   3.557   0.318  0.2763 -0.1932  0.6907
 4581TIP3    H113707   7.054   3.570   0.250  2.2801 -0.3707 -1.3698
 4581TIP3    H213708   7.090   3.478   0.364 -2.4831  1.3568  1.8162
 4582TIP3   OH213709   0.604   0.167   4.946 -0.7398 -0.7101 -0.1351
 4582TIP3    H113710   0.515   0.161   4.979 -0.5954 -0.7406  0.2473
 4582TIP3    H213711   0.639   0.078   4.953 -0.8990 -0.8470 -0.9170
 4583TIP3   OH213712   1.710   6.477   2.830 -0.0973 -0.1887  0.0722
 4583TIP3    H113713   1.636   6.453   2.886  0.6636 -0.1331  1.1216
 4583TIP3    H213714   1.754   6.395   2.811  0.3689 -0.0718  0.6112
 4584TIP3   OH213715   2.206   2.940   1.709  0.3655 -0.6151 -0.0918
 4584TIP3    H113716   2.212   2.929   1.804  0.2227  0.0839  0.0077
 4584TIP3    H213717   2.157   3.022   1.698  0.5118 -0.6136 -0.7691
 4585TIP3   OH213718   5.726   5.558   3.926 -0.1261 -0.3018 -0.3019
 4585TIP3    H113719   5.724   5.642   3.879 -1.4121  0.7291  1.4935
 4585TIP3    H213720   5.806   5.562   3.978 -1.9328  1.5437  2.6079
 4586TIP3   OH213721   4.564   0.447   5.375 -0.0934  0.9160 -0.5996
 4586TIP3    H113722   4.532   0.359   5.353 -0.2975  0.5551  1.0628
 4586TIP3    H213723   4.622   0.434   5.450  1.2854  2.0025 -1.4241
 4587TIP3   OH213724   3.150   5.365   4.328 -0.3964  0.1682  0.2824
 4587TIP3    H113725   3.118   5.319   4.406  1.5391 -0.1667  0.9392
 4587TIP3    H213726   3.228   5.412   4.358 -0.8674  1.8357 -0.9732
 4588TIP3   OH213727   0.919   6.243   3.603 -0.4518 -0.2248  0.2390
 4588TIP3    H113728   0.944   6.272   3.516 -0.3226 -0.6729  0.1209
 4588TIP3    H213729   1.000   6.244   3.653 -0.3119 -1.0061  0.0489
 4589TIP3   OH213730   2.506   2.024   5.203  0.1537  0.0088  0.1765
 4589TIP3    H113731   2.581   2.040   5.261  0.6385 -2.8403  0.4482
 4589TIP3    H213732   2.504   1.929   5.191 -2.1277  0.1960 -1.5998
 4590TIP3   OH213733   3.333   0.963   4.846 -0.3516 -0.1684 -0.2209
 4590TIP3    H113734   3.381   0.967   4.929 -1.9849  0.0232  0.7617
 4590TIP3    H213735   3.387   0.906   4.790  1.2921  0.5165  0.5916
 4591TIP3   OH213736   1.414   3.315   4.079 -0.1189 -0.1340  0.2217
 4591TIP3    H113737   1.341   3.362   4.038  0.6370 -0.7695 -1.9521
 4591TIP3    H213738   1.452   3.379   4.139 -0.9826  1.0111 -0.3947
 4592TIP3   OH213739   0.399   2.911   0.048 -0.6562 -0.0338  0.0458
 4592TIP3    H113740   0.439   2.870  -0.029 -0.1391 -0.1889  0.3930
 4592TIP3    H213741   0.308   2.924   0.023 -0.2543  0.9037 -0.9811
 4593TIP3   OH213742   2.440   3.698   0.167 -0.4967 -0.9403 -0.3990
 4593TIP3    H113743   2.523   3.743   0.152  0.3899 -0.9596  3.3879
 4593TIP3    H213744   2.457   3.607   0.144  0.1481 -0.7259 -0.8010
 4594TIP3   OH213745   5.271   5.484   5.734  0.1928 -0.3759 -0.0814
 4594TIP3    H113746   5.221   5.411   5.771 -0.0625 -0.3278 -0.3290
 4594TIP3    H213747   5.344   5.496   5.795  1.3075 -2.0658 -1.0270
 4595TIP3   OH213748   3.922   5.641   2.139  0.7369  0.5173 -0.4027
 4595TIP3    H113749   3.861   5.572   2.113  3.0199 -1.4777 -0.7674
 4595TIP3    H213750   3.925   5.637   2.234  2.3594 -1.3292 -0.4911
 4596TIP3   OH213751   1.979   3.069   4.668 -0.0063 -0.1448  0.2463
 4596TIP3    H113752   2.019   2.986   4.692  0.5754  0.3318  0.9980
 4596TIP3    H213753   2.020   3.133   4.727 -1.6891  0.4134  0.8922
 4597TIP3   OH213754   4.041   4.437   4.004  0.0102  0.0308 -0.3092
 4597TIP3    H113755   4.097   4.372   3.961  0.1529  0.4741 -0.7892
 4597TIP3    H213756   4.092   4.518   4.004 -0.9488  0.6616 -1.5094
 4598TIP3   OH213757   5.519   5.308   5.652 -0.0503 -0.8348  0.0885
 4598TIP3    H113758   5.607   5.294   5.617  0.5824 -1.4272  1.8366
 4598TIP3    H213759   5.498   5.228   5.699 -1.1439 -0.3307  0.5026
 4599TIP3   OH213760   7.191   6.735   5.914  0.4845  0.0169 -0.3267
 4599TIP3    H113761   7.164   6.643   5.918  0.0209  0.1792  1.2124
 4599TIP3    H213762   7.138   6.773   5.845 -2.4454  0.0203  1.7174
 4600TIP3   OH213763   2.480   3.098   4.392 -0.0562  0.3453 -0.0074
 4600TIP3    H113764   2.513   3.048   4.317 -0.4044  1.5631 -1.0169
 4600TIP3    H213765   2.385   3.093   4.384 -0.3647 -3.3858  3.0459
 4601TIP3   OH213766   7.171   1.358   3.495  0.3278 -0.7300 -0.1891
 4601TIP3    H113767   7.076   1.361   3.482  0.0747 -1.4387  1.3427
 4601TIP3    H213768   7.199   1.449   3.488 -0.3832 -0.5643 -1.0928
 4602TIP3   OH213769   5.952   6.227   2.997 -0.3957 -0.4348  0.1408
 4602TIP3    H113770   5.987   6.311   2.968 -1.6726 -0.3185 -1.1989
 4602TIP3    H213771   5.915   6.245   3.084 -0.1229  0.2238  0.1256
 4603TIP3   OH213772   6.187   2.739   3.020  0.1345 -0.3116  0.1576
 4603TIP3    H113773   6.170   2.821   2.973 -0.7293  0.0173  1.0236
 4603TIP3    H213774   6.115   2.681   2.994  1.0182 -1.0087 -0.8600
 4604TIP3   OH213775   3.681   3.687   3.180 -0.3458 -0.0978  0.0040
 4604TIP3    H113776   3.657   3.597   3.203 -2.6257  0.2792 -0.6957
 4604TIP3    H213777   3.626   3.742   3.235 -1.2399  0.8220 -1.7085
 4605TIP3   OH213778   6.997   5.682   2.639  0.0734 -0.2656  0.4258
 4605TIP3    H113779   6.921   5.722   2.597 -0.1384 -1.3856 -0.3048
 4605TIP3    H213780   7.029   5.618   2.575 -0.3697 -2.1904  2.0109
 4606TIP3   OH213781   5.985   1.937   4.774  0.2255  0.4053  0.5041
 4606TIP3    H113782   5.907   1.886   4.753  0.5809 -0.2142  0.6727
 4606TIP3    H213783   5.956   1.997   4.842 -0.2945  0.7023  0.0374
 4607TIP3   OH213784   7.060   3.377   4.069 -0.0541 -0.0721 -0.4077
 4607TIP3    H113785   7.094   3.465   4.082  1.2906 -0.6869  0.3949
 4607TIP3    H213786   7.128   3.332   4.019 -0.3271 -0.9155 -0.0322
 4608TIP3   OH213787   6.850   1.994   3.544 -0.1075 -0.2422 -0.4356
 4608TIP3    H113788   6.843   2.058   3.473 -0.0162 -0.6258 -0.7914
 4608TIP3    H213789   6.923   2.026   3.598 -1.3260  1.0465  0.5149
 4609TIP3   OH213790   2.443   3.720   5.066  0.1674  0.1572  0.2793
 4609TIP3    H113791   2.447   3.807   5.026  2.5490  0.0827  0.2149
 4609TIP3    H213792   2.442   3.659   4.993 -0.0238  0.1075  0.3238
 4610TIP3   OH213793   1.602   3.296   4.603 -0.1412  0.3439 -0.6864
 4610TIP3    H113794   1.547   3.356   4.653  1.8201  2.8449 -1.2859
 4610TIP3    H213795   1.676   3.277   4.662  0.3394  0.2979 -1.2921
 4611TIP3   OH213796   4.610   4.258   1.867 -0.2100  0.1493  0.4166
 4611TIP3    H113797   4.622   4.350   1.843  1.2851 -0.3230 -0.8070
 4611TIP3    H213798   4.528   4.257   1.916 -1.5660  1.7761 -1.6264
 4612TIP3   OH213799   4.850   3.866   1.594 -0.0861  0.5994  0.0850
 4612TIP3    H113800   4.812   3.950   1.622 -0.1269 -0.0095  1.9600
 4612TIP3    H213801   4.780   3.803   1.604  0.7879 -0.1825  1.6548
 4613TIP3   OH213802   2.625   1.183   2.854 -0.6138 -0.2798  0.7123
 4613TIP3    H113803   2.623   1.110   2.792 -0.3622 -0.9987  1.5405
 4613TIP3    H213804   2.533   1.206   2.867 -0.9448 -2.4024  2.6896
 4614TIP3   OH213805   1.800   2.785   3.364  0.3656  0.5820  0.1258
 4614TIP3    H113806   1.758   2.854   3.415  1.8400  0.8909  0.9812
 4614TIP3    H213807   1.741   2.770   3.290  0.1999  3.0487 -0.3165
 4615TIP3   OH213808   0.660   4.483   1.786  0.1310 -0.2893  0.5220
 4615TIP3    H113809   0.714   4.445   1.856 -0.0205  1.2324  1.5245
 4615TIP3    H213810   0.722   4.499   1.714  1.9331  4.0542  2.6124
 4616TIP3   OH213811   6.756   5.441   2.053 -1.1793 -0.1562 -0.8897
 4616TIP3    H113812   6.729   5.511   1.993  0.6981  0.4657 -1.0528
 4616TIP3    H213813   6.754   5.361   1.999  1.6136  0.5569 -2.2128
 4617TIP3   OH213814   5.654   6.186   0.236  0.1086 -0.1730  0.5898
 4617TIP3    H113815   5.560   6.196   0.254  0.4421  1.1926  1.6901
 4617TIP3    H213816   5.690   6.274   0.248  1.8354 -1.0247  2.0623
 4618TIP3   OH213817   3.741   2.183   2.039 -0.2438 -0.1509  0.1876
 4618TIP3    H113818   3.761   2.125   2.112  0.3502 -1.4936 -0.9992
 4618TIP3    H213819   3.822   2.187   1.988 -0.6779  0.6812 -0.4718
 4619TIP3   OH213820   5.020   2.541   5.858  0.0321 -0.5843  0.6754
 4619TIP3    H113821   5.105   2.571   5.827 -1.3482 -0.5339 -3.8417
 4619TIP3    H213822   4.978   2.619   5.894  0.1845  0.7115 -1.7009
 4620TIP3   OH213823   2.416   6.463   3.537 -0.3569 -0.0509  0.4719
 4620TIP3    H113824   2.340   6.478   3.593  0.4544  0.6972  1.4387
 4620TIP3    H213825   2.417   6.538   3.478 -1.4630 -1.0662 -0.8753
 4621TIP3   OH213826   5.576   1.009   3.844  0.1533  0.0254 -0.0357
 4621TIP3    H113827   5.644   1.067   3.809  0.5665  0.0575  0.7895
 4621TIP3    H213828   5.624   0.942   3.892 -0.3826 -0.2286  0.1541
 4622TIP3   OH213829   6.390   1.678   4.555  0.0483  0.1196 -0.3407
 4622TIP3    H113830   6.456   1.642   4.614 -0.0307  0.0279 -0.3080
 4622TIP3    H213831   6.330   1.726   4.613 -0.6818 -0.9337 -0.2004
 4623TIP3   OH213832   6.344   4.094   4.092  1.0786 -0.1551  0.5472
 4623TIP3    H113833   6.374   4.112   4.181  0.3368  1.9574  0.4310
 4623TIP3    H213834   6.270   4.035   4.103  2.6291 -2.0707  1.1034
 4624TIP3   OH213835   1.004   0.731   5.033 -0.0828  0.4053 -0.5673
 4624TIP3    H113836   0.931   0.735   4.971 -1.4202 -0.5941  0.8726
 4624TIP3    H213837   1.021   0.637   5.044 -0.3674  0.5225  1.0997
 4625TIP3   OH213838   6.759   5.182   3.139  0.5406  0.1131  0.3531
 4625TIP3    H113839   6.834   5.124   3.155 -0.4488 -0.3505  4.7485
 4625TIP3    H213840   6.787   5.267   3.173 -0.3704  0.3461  0.5367
 4626TIP3   OH213841   0.526   4.825   1.854  0.4837  0.1435 -0.3172
 4626TIP3    H113842   0.546   4.758   1.920  3.7183 -1.3392 -2.5035
 4626TIP3    H213843   0.442   4.798   1.817 -0.7707  0.2998  2.2106
 4627TIP3   OH213844   1.843   2.070   5.801 -0.5441 -0.1360  0.6150
 4627TIP3    H113845   1.815   2.069   5.892 -1.3660 -0.6220  0.3663
 4627TIP3    H213846   1.780   2.014   5.756  0.0196 -0.1274 -0.2046
 4628TIP3   OH213847   7.108   0.682   4.865  0.1332 -0.1947  0.1231
 4628TIP3    H113848   7.137   0.767   4.832 -3.5859  0.3288 -2.4046
 4628TIP3    H213849   7.140   0.619   4.800 -3.0209  0.2760 -2.1190
 4629TIP3   OH213850   2.076   4.035   1.309  0.5326 -0.0839 -0.2099
 4629TIP3    H113851   2.134   3.989   1.370  2.5750  1.0275 -1.2042
 4629TIP3    H213852   2.113   4.017   1.222  0.4419  2.0353 -0.7468
 4630TIP3   OH213853   7.114   5.289   2.955  0.2000 -0.2824  0.2629
 4630TIP3    H113854   7.080   5.210   2.912  0.6741 -0.8862  0.9793
 4630TIP3    H213855   7.065   5.361   2.915 -0.9454 -1.0218  0.3025
 4631TIP3   OH213856   5.521   4.984   3.301  0.6143 -0.4604  0.1360
 4631TIP3    H113857   5.499   5.066   3.258  1.3278 -0.4232 -0.1603
 4631TIP3    H213858   5.566   5.009   3.382  1.4425 -0.5606 -0.2857
 4632TIP3   OH213859   2.764   5.187   3.978  0.1701  0.2327 -0.3420
 4632TIP3    H113860   2.768   5.250   4.050 -1.5536 -0.0736  0.0628
 4632TIP3    H213861   2.757   5.241   3.899 -1.4954  0.6023  0.0172
 4633TIP3   OH213862   2.598   4.296   2.024 -0.1708 -0.3285 -0.3724
 4633TIP3    H113863   2.618   4.203   2.036  1.2910 -0.1662 -1.3338
 4633TIP3    H213864   2.529   4.314   2.088  1.7864 -1.3125  2.1865
 4634TIP3   OH213865   4.324   1.946   4.546 -0.0044  0.1130  0.2394
 4634TIP3    H113866   4.280   1.933   4.461  1.6320  1.1747 -0.8246
 4634TIP3    H213867   4.267   2.007   4.593 -2.2980 -2.4493  1.0549
 4635TIP3   OH213868   6.871   5.029   2.109  0.6813 -0.1438  0.0523
 4635TIP3    H113869   6.918   5.032   2.192  1.3082  0.2059 -0.3094
 4635TIP3    H213870   6.784   5.063   2.130  0.8801  0.0813  0.5385
 4636TIP3   OH213871   3.568   1.983   4.297 -0.2286 -0.2866 -0.3776
 4636TIP3    H113872   3.655   1.966   4.260 -0.5711 -1.5427 -0.6569
 4636TIP3    H213873   3.556   1.913   4.361 -1.1891 -0.3422 -0.6088
 4637TIP3   OH213874   0.230   3.772   4.284 -0.5478  0.1399 -0.0210
 4637TIP3    H113875   0.273   3.749   4.367  2.0270  0.2026 -1.2235
 4637TIP3    H213876   0.193   3.859   4.299 -1.3841 -0.4408  1.4654
 4638TIP3   OH213877   4.482   4.047   2.039 -0.0240  0.7757  0.4840
 4638TIP3    H113878   4.461   4.012   1.953  1.8894 -0.2145  0.3529
 4638TIP3    H213879   4.455   3.979   2.101  0.6817  0.4845  0.4797
 4639TIP3   OH213880   5.164   2.139   2.492 -0.5420 -0.2342 -0.0182
 4639TIP3    H113881   5.164   2.161   2.399 -0.2812  3.1110  0.6298
 4639TIP3    H213882   5.072   2.147   2.518 -0.5318 -0.5935  0.1310
 4640TIP3   OH213883   6.529   4.650   3.906  0.0510  0.1636 -0.6919
 4640TIP3    H113884   6.544   4.679   3.996  0.9286 -0.6606 -0.5641
 4640TIP3    H213885   6.451   4.594   3.912 -0.0179  0.2785 -0.4841
 4641TIP3   OH213886   0.365   0.192   0.293 -0.3669 -0.1461  0.3781
 4641TIP3    H113887   0.282   0.237   0.276  1.0583  1.7564 -2.5061
 4641TIP3    H213888   0.375   0.132   0.219  1.7551  1.2806 -0.6002
 4642TIP3   OH213889   3.992   5.224   4.958 -0.2269  0.3619 -0.4268
 4642TIP3    H113890   3.920   5.214   4.895 -0.3919  1.5622 -0.4616
 4642TIP3    H213891   3.981   5.152   5.020 -0.4364 -0.4720 -1.4112
 4643TIP3   OH213892   3.137   3.758   5.517 -0.5996 -0.1016 -1.0310
 4643TIP3    H113893   3.177   3.671   5.517 -1.7071 -0.6311 -1.3883
 4643TIP3    H213894   3.057   3.748   5.465 -1.4305  0.8162  0.0062
 4644TIP3   OH213895   1.746   0.098   4.188 -0.1532  0.4218  0.1690
 4644TIP3    H113896   1.750   0.163   4.259  0.0641  1.7734 -1.0329
 4644TIP3    H213897   1.685   0.135   4.125 -0.9393 -1.1344 -0.0161
 4645TIP3   OH213898   3.703   3.595   4.007  0.5008 -0.2166 -0.6128
 4645TIP3    H113899   3.794   3.578   3.983  0.8889 -1.7141  1.5794
 4645TIP3    H213900   3.709   3.668   4.069 -0.2016  1.8524 -2.8270
 4646TIP3   OH213901   3.340   2.750   2.832 -0.2254 -0.3473 -0.0376
 4646TIP3    H113902   3.359   2.841   2.808 -0.7283 -0.3393 -0.4179
 4646TIP3    H213903   3.276   2.721   2.767 -0.6406 -0.7326  0.5339
 4647TIP3   OH213904   1.452   3.941   2.303  0.0013 -0.2310 -0.1457
 4647TIP3    H113905   1.517   3.871   2.293  1.3595  0.6146  1.9380
 4647TIP3    H213906   1.481   3.990   2.380 -3.9095 -0.6400  1.8473
 4648TIP3   OH213907   3.056   5.301   3.829  0.3841 -0.0524  0.3215
 4648TIP3    H113908   2.988   5.239   3.804 -1.1127  1.2027  1.1410
 4648TIP3    H213909   3.122   5.247   3.873 -0.8156 -1.1084  0.8940
 4649TIP3   OH213910   2.316   0.496   1.978 -0.9501  0.1658 -0.2987
 4649TIP3    H113911   2.308   0.475   1.885 -0.5719  1.8941 -0.7487
 4649TIP3    H213912   2.390   0.443   2.009 -1.1203 -0.4643 -0.9527
 4650TIP3   OH213913   0.815   0.073   2.043  0.4215  0.3720  0.1946
 4650TIP3    H113914   0.803   0.012   1.970  1.0058  1.5331 -0.9034
 4650TIP3    H213915   0.907   0.064   2.067 -0.0684 -1.0361  1.7872
 4651TIP3   OH213916   6.706   0.969   4.084 -0.2740 -0.0979  0.4447
 4651TIP3    H113917   6.801   0.978   4.081 -0.0727 -1.6228  1.1180
 4651TIP3    H213918   6.690   0.911   4.158 -1.6987 -0.2000  0.0845
 4652TIP3   OH213919   4.611   4.217   0.043 -0.0224 -0.1361 -0.2893
 4652TIP3    H113920   4.676   4.181   0.103 -0.4087  1.8729  1.4719
 4652TIP3    H213921   4.637   4.309   0.033 -1.8999  0.4054 -0.4775
 4653TIP3   OH213922   2.254   3.883   1.450 -0.0153  0.1101 -0.5327
 4653TIP3    H113923   2.215   3.829   1.519 -1.4371  0.3821 -1.0879
 4653TIP3    H213924   2.299   3.820   1.393  1.0763 -0.1245  0.5465
 4654TIP3   OH213925   4.104   3.431   2.732  0.1693  0.1849  0.4070
 4654TIP3    H113926   4.192   3.467   2.744  0.4869 -1.1720  2.9025
 4654TIP3    H213927   4.065   3.485   2.664  2.5258  1.5596  0.0282
 4655TIP3   OH213928   5.645   1.763   0.652  0.3978  0.2124 -0.0675
 4655TIP3    H113929   5.607   1.848   0.673 -0.9104 -0.0627 -1.1253
 4655TIP3    H213930   5.705   1.744   0.724 -2.1087  0.3371  2.2223
 4656TIP3   OH213931   7.078   5.598   5.493  0.0003  0.4356 -0.1158
 4656TIP3    H113932   7.127   5.645   5.560  1.1003 -2.4015  1.2224
 4656TIP3    H213933   6.998   5.569   5.538  0.3647 -0.7973 -0.2255
 4657TIP3   OH213934   3.357   6.371   3.797 -0.5163 -0.0050  0.3837
 4657TIP3    H113935   3.291   6.302   3.797 -0.5331  0.0107  0.0814
 4657TIP3    H213936   3.361   6.400   3.888 -2.2170  1.2273  0.1208
 4658TIP3   OH213937   5.806   3.533   0.851 -0.2388 -0.8456 -0.1282
 4658TIP3    H113938   5.896   3.554   0.877 -0.4691  0.6230 -0.4544
 4658TIP3    H213939   5.756   3.534   0.932  0.0608 -1.9527  0.0966
 4659TIP3   OH213940   0.497   2.386   5.246  0.0796 -0.1298  0.3033
 4659TIP3    H113941   0.401   2.395   5.250  0.1048  0.6109 -0.4765
 4659TIP3    H213942   0.513   2.340   5.164  0.3838 -0.3998  0.5148
 4660TIP3   OH213943   4.717   6.142   4.761 -0.2407 -0.3099  0.0781
 4660TIP3    H113944   4.632   6.179   4.786 -0.1629 -0.9696  1.4264
 4660TIP3    H213945   4.743   6.089   4.837  0.4163 -1.7849 -1.1250
 4661TIP3   OH213946   3.739   0.669   2.301  0.5576  0.1678  0.0475
 4661TIP3    H113947   3.724   0.695   2.210  1.9891 -0.7725 -0.4898
 4661TIP3    H213948   3.651   0.662   2.339 -0.0183  2.3865 -0.7033
 4662TIP3   OH213949   4.730   3.649   4.021 -0.1248  0.4178 -0.0249
 4662TIP3    H113950   4.667   3.579   4.038  0.5072 -0.4041 -0.9004
 4662TIP3    H213951   4.810   3.620   4.063  0.6324 -0.2591 -1.8447
 4663TIP3   OH213952   2.672   0.450   4.450 -0.1145 -0.5123  0.6424
 4663TIP3    H113953   2.593   0.487   4.488 -0.6238 -2.1067  1.2173
 4663TIP3    H213954   2.643   0.368   4.408  1.2695 -1.3359  1.2125
 4664TIP3   OH213955   1.575   4.646   5.696  0.6579  0.4133  0.1061
 4664TIP3    H113956   1.502   4.704   5.676  0.0089 -0.2887  0.3757
 4664TIP3    H213957   1.620   4.633   5.613 -0.7264 -0.7566 -0.5001
 4665TIP3   OH213958   5.333   6.379   2.198  1.0870 -0.0481  0.1291
 4665TIP3    H113959   5.291   6.374   2.112 -0.2994 -2.1024  0.8638
 4665TIP3    H213960   5.339   6.473   2.216  0.0171  0.3808 -1.5429
 4666TIP3   OH213961   1.785   4.278   4.255  0.1389 -0.0067 -0.2073
 4666TIP3    H113962   1.790   4.199   4.201 -1.0295 -0.1276 -0.1561
 4666TIP3    H213963   1.692   4.293   4.268  0.3419  1.3638 -0.1736
 4667TIP3   OH213964   0.653   1.821   1.096  0.1206  0.2443  0.1286
 4667TIP3    H113965   0.712   1.894   1.110 -0.0213  0.2649  0.6602
 4667TIP3    H213966   0.710   1.748   1.069  0.1131  0.9018 -1.8141
 4668TIP3   OH213967   2.769   2.728   4.398 -0.1333  0.2753 -0.8682
 4668TIP3    H113968   2.780   2.700   4.307  0.1657 -0.1302 -0.7137
 4668TIP3    H213969   2.792   2.650   4.450  1.9368  1.1322 -0.3988
 4669TIP3   OH213970   3.564   0.841   4.335 -0.6446  0.3760 -0.5456
 4669TIP3    H113971   3.482   0.837   4.384  0.6986 -0.1284  1.8212
 4669TIP3    H213972   3.609   0.760   4.358  1.1981  1.3766 -0.4855
 4670TIP3   OH213973   6.821   6.559   1.752  0.2061 -0.0364  0.2220
 4670TIP3    H113974   6.748   6.570   1.812  0.4515 -0.3599  0.5818
 4670TIP3    H213975   6.875   6.490   1.791 -0.2504 -1.1145 -0.9577
 4671TIP3   OH213976   2.057   4.283   3.456  0.1084  0.1740 -0.4527
 4671TIP3    H113977   2.044   4.279   3.551  3.0396 -1.8433 -0.0241
 4671TIP3    H213978   1.990   4.345   3.426 -0.9673  0.8498  2.8828
 4672TIP3   OH213979   4.937   5.972   0.902  0.0419 -0.1587 -0.2130
 4672TIP3    H113980   4.843   5.966   0.886  0.0464  1.7560 -1.3011
 4672TIP3    H213981   4.947   5.959   0.996 -1.8621  3.7458  0.7530
 4673TIP3   OH213982   0.222   4.935   1.742  0.2693  0.1411  0.3255
 4673TIP3    H113983   0.170   4.859   1.769 -0.2256  0.0079 -0.9033
 4673TIP3    H213984   0.269   4.905   1.665 -0.2911  1.2002 -0.4595
 4674TIP3   OH213985   2.786   5.407   1.768 -0.2159  0.1046  0.0292
 4674TIP3    H113986   2.868   5.405   1.718 -0.6409  1.3450 -0.7653
 4674TIP3    H213987   2.797   5.339   1.835  2.9957  2.5504  2.3335
 4675TIP3   OH213988   6.513   2.304   3.038  0.2231  0.2915 -0.0043
 4675TIP3    H113989   6.602   2.317   3.070  0.1117 -0.8372  0.8476
 4675TIP3    H213990   6.483   2.391   3.013  1.6967  0.6179 -0.6803
 4676TIP3   OH213991   6.081   2.761   1.719  0.3157 -0.0446 -0.1275
 4676TIP3    H113992   6.133   2.692   1.760 -1.3623 -0.4015  1.4919
 4676TIP3    H213993   6.144   2.831   1.702  1.8217 -1.4815 -0.7113
 4677TIP3   OH213994   3.899   4.147   1.008  0.5532 -0.1121  0.4639
 4677TIP3    H113995   3.972   4.187   1.056  0.3159  0.5121  0.3206
 4677TIP3    H213996   3.927   4.058   0.990  1.0272 -0.0618  0.9527
 4678TIP3   OH213997   2.500   3.158   0.633  0.3522 -0.2731  0.2205
 4678TIP3    H113998   2.504   3.253   0.624  1.8541 -0.4790 -2.7587
 4678TIP3    H213999   2.409   3.139   0.655  0.2934  1.8502  2.1784
 4679TIP3   OH214000   3.230   3.212   5.577 -0.1412  0.4351 -0.6158
 4679TIP3    H114001   3.160   3.157   5.613  1.5854 -0.7819  1.0635
 4679TIP3    H214002   3.184   3.288   5.541 -2.4207 -0.9599 -0.8454
 4680TIP3   OH214003   4.374   1.251   2.742  0.3324 -0.2984  0.2205
 4680TIP3    H114004   4.347   1.303   2.666  1.6457 -2.1271 -1.6098
 4680TIP3    H214005   4.429   1.310   2.793 -0.7911  1.0568 -0.0688
 4681TIP3   OH214006   1.143   4.157   4.024 -0.1218  0.2782  0.0478
 4681TIP3    H114007   1.168   4.208   4.102 -0.3952  0.1235  0.2396
 4681TIP3    H214008   1.133   4.067   4.057 -0.2599  0.2164 -0.1615
 4682TIP3   OH214009   5.340   5.037   2.018  0.2927 -0.7164  0.0725
 4682TIP3    H114010   5.260   4.993   1.987  0.6293 -1.5523  0.3526
 4682TIP3    H214011   5.318   5.067   2.106  0.0266 -0.2131 -0.1599
 4683TIP3   OH214012   4.196   5.970   4.157  0.1199 -0.7555  0.1893
 4683TIP3    H114013   4.156   5.987   4.072 -0.7312  1.7198  0.9907
 4683TIP3    H214014   4.122   5.958   4.217  0.6571 -4.7160  0.3495
 4684TIP3   OH214015   4.633   0.021   0.607 -0.1448 -0.7424  1.1167
 4684TIP3    H114016   4.672  -0.023   0.531 -1.2301  2.0383 -1.2172
 4684TIP3    H214017   4.547   0.050   0.577  0.3226  2.5626  2.5261
 4685TIP3   OH214018   0.994   3.487   0.881  0.4795  0.2150  0.2701
 4685TIP3    H114019   0.899   3.480   0.871  0.3416 -1.2922  2.0755
 4685TIP3    H214020   1.029   3.453   0.799 -0.5420 -0.1578 -0.0287
 4686TIP3   OH214021   2.449   5.336   3.936 -0.6623 -0.1621 -0.4541
 4686TIP3    H114022   2.453   5.303   3.846 -1.3577 -0.9649 -0.2100
 4686TIP3    H214023   2.363   5.308   3.967 -0.4949  0.2586  0.4093
 4687TIP3   OH214024   1.757   6.057   4.206  0.1464  0.3430  0.2680
 4687TIP3    H114025   1.829   6.027   4.262  2.4910  1.8884 -1.7586
 4687TIP3    H214026   1.709   5.977   4.185  1.2885 -0.7577  1.6336
 4688TIP3   OH214027   4.991   6.398   4.032  0.2662 -0.1150  0.4807
 4688TIP3    H114028   5.081   6.363   4.030  0.1665 -0.4855  1.5081
 4688TIP3    H214029   4.994   6.475   3.976  0.9306 -0.7975 -0.4544
 4689TIP3   OH214030   2.209  -0.010   4.025 -0.4205  0.2350 -0.0295
 4689TIP3    H114031   2.285   0.027   3.981 -0.9398  0.6921 -0.5611
 4689TIP3    H214032   2.143   0.059   4.021 -1.3324 -0.6591 -0.8188
 4690TIP3   OH214033   6.650   2.872   0.075 -0.0666 -0.3159 -0.5050
 4690TIP3    H114034   6.681   2.961   0.056  2.8155 -1.3312 -1.1199
 4690TIP3    H214035   6.646   2.830  -0.011  0.9508 -1.4386 -0.0292
 4691TIP3   OH214036   2.994   6.121   4.193  0.1688  0.9331 -0.0948
 4691TIP3    H114037   3.039   6.083   4.117 -1.3959  1.4593 -1.3564
 4691TIP3    H214038   3.017   6.064   4.266  2.1521  0.7175 -0.8378
 4692TIP3   OH214039   2.953   3.856   1.779  0.5874 -1.0361  0.2943
 4692TIP3    H114040   2.988   3.933   1.824  1.3196 -1.6167  0.7464
 4692TIP3    H214041   2.997   3.856   1.693 -0.8382  0.0923 -0.4732
 4693TIP3   OH214042   3.513   0.103   5.254  0.2833 -0.2302 -0.3866
 4693TIP3    H114043   3.432   0.111   5.205 -1.3138 -0.1472  2.0633
 4693TIP3    H214044   3.547   0.016   5.231 -0.8782 -0.5518 -0.9413
 4694TIP3   OH214045   2.961   5.065   5.510  0.0007  0.0333 -0.3505
 4694TIP3    H114046   2.893   5.092   5.572  1.3736  1.6208  0.5523
 4694TIP3    H214047   2.915   5.055   5.427 -1.3723  0.8532  0.2784
 4695TIP3   OH214048   2.377   0.862   4.842 -0.3061 -0.0979  0.3766
 4695TIP3    H114049   2.352   0.901   4.926  0.4042  1.7172 -0.1975
 4695TIP3    H214050   2.465   0.826   4.857 -0.9703 -1.5649  0.9135
 4696TIP3   OH214051   6.757   3.533   2.964  0.0351 -0.3199  0.3800
 4696TIP3    H114052   6.668   3.539   2.997  0.6832  2.1844  2.0066
 4696TIP3    H214053   6.768   3.610   2.909  0.9820 -0.9773 -0.3915
 4697TIP3   OH214054   2.699   2.684   1.799 -0.2991  0.2123  0.0566
 4697TIP3    H114055   2.640   2.686   1.723 -1.7252 -2.4099  0.9458
 4697TIP3    H214056   2.676   2.762   1.849 -0.1129  1.3908 -1.5908
 4698TIP3   OH214057   0.662   4.945   0.160  0.4033  0.5209  0.6299
 4698TIP3    H114058   0.577   4.914   0.191  0.9670 -0.3134  1.3780
 4698TIP3    H214059   0.671   5.032   0.200 -0.2539  0.7792  0.2334
 4699TIP3   OH214060   1.704   0.347   2.134 -0.6734  0.3535  0.8354
 4699TIP3    H114061   1.651   0.286   2.082 -0.8857  1.3234 -0.1234
 4699TIP3    H214062   1.647   0.424   2.145 -0.3718  0.4303  1.9381
 4700TIP3   OH214063   7.101   0.782   5.167 -0.1746  0.5150  0.2763
 4700TIP3    H114064   7.126   0.822   5.084 -0.3664  0.2735  0.1046
 4700TIP3    H214065   7.176   0.798   5.224  0.1916  0.1817 -0.1064
 4701TIP3   OH214066   1.784   5.363   5.931 -0.5880 -0.9206  0.2672
 4701TIP3    H114067   1.702   5.375   5.883 -0.8703 -2.6152  0.2483
 4701TIP3    H214068   1.846   5.333   5.865 -0.2145 -0.5538  0.4522
 4702TIP3   OH214069   5.774   0.416   1.371 -0.1308 -0.2110 -0.3917
 4702TIP3    H114070   5.759   0.336   1.320 -0.8082 -0.2909 -0.0878
 4702TIP3    H214071   5.700   0.418   1.433 -0.2598  0.7938 -0.5718
 4703TIP3   OH214072   4.770   1.855   5.409 -0.0218  0.1991  0.1543
 4703TIP3    H114073   4.792   1.778   5.356  0.5164  1.5482 -1.6579
 4703TIP3    H214074   4.845   1.914   5.399 -0.4511  1.0186  1.4650
 4704TIP3   OH214075   0.638   5.987   1.448 -0.5006 -0.4028 -0.4145
 4704TIP3    H114076   0.573   6.053   1.474 -0.7888 -1.2483  1.1009
 4704TIP3    H214077   0.698   5.982   1.522 -0.3594 -1.6892 -0.6019
 4705TIP3   OH214078   3.019   0.189   0.633  0.0025 -0.3019 -0.7151
 4705TIP3    H114079   3.068   0.181   0.551  0.8992 -0.8562 -0.1390
 4705TIP3    H214080   3.064   0.131   0.694  0.1677  1.0963  0.5629
 4706TIP3   OH214081   5.625   0.360   5.861 -0.5562 -0.2930  0.3909
 4706TIP3    H114082   5.682   0.301   5.812  0.7106  1.2649 -0.1322
 4706TIP3    H214083   5.598   0.311   5.938  1.4156 -1.1406  0.5875
 4707TIP3   OH214084   1.366   2.578   0.346 -0.1488 -0.5502  0.2801
 4707TIP3    H114085   1.377   2.525   0.267  1.7074  0.0496  0.1005
 4707TIP3    H214086   1.304   2.528   0.399 -3.0645 -0.0243 -2.3399
 4708TIP3   OH214087   5.383   2.433   5.333 -0.0455  0.3970  0.6807
 4708TIP3    H114088   5.295   2.469   5.327  0.2118  0.8646 -0.7961
 4708TIP3    H214089   5.440   2.503   5.299  0.5844 -0.8796 -1.0621
 4709TIP3   OH214090   2.977   2.685   1.825 -0.3799 -0.1995  0.2430
 4709TIP3    H114091   2.881   2.679   1.821 -0.4299 -0.2699  1.4166
 4709TIP3    H214092   2.999   2.757   1.766 -1.1049 -0.5265 -0.4534
 4710TIP3   OH214093   0.305   5.263   1.348 -0.0244 -0.1315  0.2090
 4710TIP3    H114094   0.332   5.177   1.317  0.4197  0.5990 -1.5649
 4710TIP3    H214095   0.212   5.269   1.326  0.3188  0.4343 -1.1914
 4711TIP3   OH214096   4.112   4.992   0.391 -0.4518  0.1087 -0.0661
 4711TIP3    H114097   4.197   5.020   0.426 -0.0022  0.1182 -1.1307
 4711TIP3    H214098   4.112   4.897   0.401  0.2303 -0.0259 -1.2108
 4712TIP3   OH214099   2.955   1.593   2.480 -0.2952 -0.0797 -0.1075
 4712TIP3    H114100   2.947   1.659   2.411  0.8753 -1.1855 -1.3455
 4712TIP3    H214101   2.867   1.555   2.487 -0.3392 -0.2113 -1.2555
 4713TIP3   OH214102   1.896   5.052   2.510  0.2450 -0.2219 -0.3491
 4713TIP3    H114103   1.982   5.077   2.543 -0.6285  0.5703  1.5243
 4713TIP3    H214104   1.838   5.060   2.586 -1.8075  0.9402 -1.9188
 4714TIP3   OH214105   1.559   4.785   3.843  0.4829  0.0119 -0.2400
 4714TIP3    H114106   1.496   4.796   3.772  0.2011  0.2879  0.0513
 4714TIP3    H214107   1.525   4.710   3.894  0.4486  0.0912 -0.1458
 4715TIP3   OH214108   0.588   6.465   3.105  0.0086 -0.1560 -0.4477
 4715TIP3    H114109   0.574   6.468   3.200  0.9744  0.2504 -0.3007
 4715TIP3    H214110   0.676   6.429   3.095  0.1477  0.3509 -1.1596
 4716TIP3   OH214111   0.982   1.024   0.361  0.0869 -0.9192  0.0819
 4716TIP3    H114112   0.986   0.929   0.352  1.6619 -0.7154 -2.3737
 4716TIP3    H214113   1.041   1.057   0.292  1.8937  1.7739  2.6808
 4717TIP3   OH214114   7.131   2.510   4.579 -0.2834  0.1341 -0.0805
 4717TIP3    H114115   7.225   2.495   4.579 -0.5059 -1.6417  1.4260
 4717TIP3    H214116   7.110   2.535   4.489  1.5410  0.0070 -0.5702
 4718TIP3   OH214117   4.260   1.727   1.148 -0.3231 -0.0764  0.3726
 4718TIP3    H114118   4.328   1.660   1.156 -0.2083 -0.1379 -0.9013
 4718TIP3    H214119   4.278   1.788   1.220  0.7976 -0.3424  0.3390
 4719TIP3   OH214120   4.980   1.636   3.530  0.3310  0.1831 -0.2987
 4719TIP3    H114121   4.955   1.555   3.485  0.8939 -0.8339  1.1427
 4719TIP3    H214122   5.036   1.607   3.602 -1.4178  1.6069  1.7545
 4720TIP3   OH214123   0.434   3.853   3.860  0.2575 -0.6837  0.0297
 4720TIP3    H114124   0.398   3.892   3.781  0.5001 -1.1101 -0.2944
 4720TIP3    H214125   0.366   3.794   3.892 -0.0029 -0.2065  0.3716
 4721TIP3   OH214126   0.232   2.744   4.523  0.7736  0.8008  0.3370
 4721TIP3    H114127   0.182   2.822   4.550 -1.6308 -0.1442 -1.0809
 4721TIP3    H214128   0.296   2.778   4.461  0.6208  1.8135  0.7034
 4722TIP3   OH214129   2.443   3.256   1.863 -0.0748 -0.5824 -0.5306
 4722TIP3    H114130   2.441   3.342   1.905 -0.9871 -0.5682 -0.5659
 4722TIP3    H214131   2.352   3.225   1.868  0.4757 -2.1306  0.6624
 4723TIP3   OH214132   5.010   3.684   0.020 -0.5144  0.7633  0.1126
 4723TIP3    H114133   5.094   3.652  -0.012  1.0118  1.9540  2.5695
 4723TIP3    H214134   4.966   3.606   0.056  0.7078  0.5119  1.1142
 4724TIP3   OH214135   4.421   3.827   3.437  0.0822 -0.4111  0.1612
 4724TIP3    H114136   4.358   3.874   3.491 -2.2807 -1.6351 -1.3595
 4724TIP3    H214137   4.378   3.819   3.351  2.3864 -1.1877 -1.0087
 4725TIP3   OH214138   6.903   6.274   1.394 -0.2883 -0.4169 -0.2295
 4725TIP3    H114139   6.969   6.212   1.362 -0.4361 -0.4775 -0.4208
 4725TIP3    H214140   6.952   6.353   1.415  0.4796 -1.6488  3.2475
 4726TIP3   OH214141   6.349   4.895   2.084  0.4523  0.2502  0.1387
 4726TIP3    H114142   6.343   4.799   2.090  0.1063  0.2091 -0.7631
 4726TIP3    H214143   6.343   4.925   2.175 -0.9929 -0.4993  0.3213
 4727TIP3   OH214144   5.298   0.834   1.291 -0.3018 -0.5966 -0.1098
 4727TIP3    H114145   5.321   0.747   1.258  0.8633  0.0230 -1.0044
 4727TIP3    H214146   5.205   0.843   1.271 -0.7815 -2.1661  1.2467
 4728TIP3   OH214147   1.343   3.669   4.163  0.7660  0.1691  0.1010
 4728TIP3    H114148   1.383   3.602   4.219  1.0383  0.2954  0.0634
 4728TIP3    H214149   1.301   3.620   4.093  1.1832  0.0444 -0.0675
 4729TIP3   OH214150   4.495   3.844   4.291 -0.3011  0.1571 -0.0564
 4729TIP3    H114151   4.517   3.788   4.366 -2.0357  0.2950  0.6050
 4729TIP3    H214152   4.406   3.873   4.309 -0.7553  0.1976 -2.1996
 4730TIP3   OH214153   3.097   4.913   0.651  0.4942  0.3650  0.0873
 4730TIP3    H114154   3.093   4.970   0.573 -0.6635  1.2052  0.7189
 4730TIP3    H214155   3.011   4.870   0.653 -0.0116  1.3690  1.6115
 4731TIP3   OH214156   6.336   0.389   2.100 -0.3268 -0.6295 -0.4612
 4731TIP3    H114157   6.407   0.334   2.068 -1.5115 -2.3687 -0.2469
 4731TIP3    H214158   6.376   0.444   2.168  0.9765 -0.9461 -0.9547
 4732TIP3   OH214159   0.055   5.315   4.038 -0.3834 -0.3673 -0.3159
 4732TIP3    H114160   0.035   5.222   4.027 -1.0574  0.0704 -5.0678
 4732TIP3    H214161   0.123   5.333   3.973 -1.5616  2.7244 -0.8746
 4733TIP3   OH214162   3.967   2.360   2.330 -0.2568 -0.4115 -0.0558
 4733TIP3    H114163   3.988   2.435   2.276  0.9949 -0.1563  0.7334
 4733TIP3    H214164   3.979   2.284   2.273 -0.0240 -0.0934 -0.4287
 4734TIP3   OH214165   4.288   2.022   0.644  0.1854 -0.7443 -0.6840
 4734TIP3    H114166   4.222   2.070   0.693  0.8093 -0.1950 -0.3626
 4734TIP3    H214167   4.245   1.939   0.620 -0.0299 -1.1834  1.0750
 4735TIP3   OH214168   0.391   6.703   4.474 -0.0585 -0.1179 -0.3759
 4735TIP3    H114169   0.320   6.704   4.410  1.4693  0.3627 -2.1651
 4735TIP3    H214170   0.447   6.629   4.447  2.5183  2.2175 -1.9113
 4736TIP3   OH214171   5.433   2.496   5.850  0.5226  0.2819  0.1255
 4736TIP3    H114172   5.368   2.561   5.823  0.6086  0.1265 -0.4842
 4736TIP3    H214173   5.471   2.530   5.931 -0.8792 -0.0056  0.9299
 4737TIP3   OH214174   1.992   6.618   3.214  0.1019  0.1188  0.1957
 4737TIP3    H114175   1.947   6.536   3.229 -0.0810  0.4360  1.4652
 4737TIP3    H214176   1.955   6.651   3.132 -1.3592 -0.0494  0.7597
 4738TIP3   OH214177   6.872   6.591   4.634  0.0559  0.5681  0.0098
 4738TIP3    H114178   6.851   6.676   4.595  0.1392  0.6965  0.2388
 4738TIP3    H214179   6.789   6.544   4.636  0.2063  0.2343 -1.0968
 4739TIP3   OH214180   6.812   4.632   3.618  0.3583 -0.1688 -0.5316
 4739TIP3    H114181   6.903   4.616   3.591  0.5859  0.3508 -0.0944
 4739TIP3    H214182   6.803   4.727   3.614  0.1051 -0.1552  0.2948
 4740TIP3   OH214183   3.748   4.763   1.455 -0.0905  0.1250  0.0940
 4740TIP3    H114184   3.754   4.805   1.540 -0.0932  1.1215 -0.3805
 4740TIP3    H214185   3.682   4.813   1.408  0.1594 -0.1885 -0.6113
 4741TIP3   OH214186   0.455   1.406   1.181  0.3210  0.0163  0.5384
 4741TIP3    H114187   0.546   1.429   1.198 -0.0049 -0.4205  3.4380
 4741TIP3    H214188   0.439   1.330   1.238 -1.7497 -0.1865 -0.2289
 4742TIP3   OH214189   0.127   2.256   1.961 -0.0297 -0.2355 -0.7466
 4742TIP3    H114190   0.161   2.244   2.050 -0.8406 -0.6289 -0.4780
 4742TIP3    H214191   0.033   2.268   1.973 -0.1511 -0.3444 -1.5609
 4743TIP3   OH214192   7.135   2.665   3.205  0.3332 -0.6200  0.1890
 4743TIP3    H114193   7.144   2.589   3.148  0.5764 -1.0518  0.7871
 4743TIP3    H214194   7.208   2.721   3.182  0.2092 -0.6103 -0.1889
 4744TIP3   OH214195   4.780   6.347   2.965  0.4438 -0.6248 -0.1650
 4744TIP3    H114196   4.776   6.443   2.968  3.3058 -0.2529 -2.8314
 4744TIP3    H214197   4.689   6.319   2.959 -0.3913  2.0697 -1.3836
 4745TIP3   OH214198   0.306   3.575   1.834 -0.0738 -0.2144 -0.2124
 4745TIP3    H114199   0.273   3.565   1.923 -0.0886  0.4148 -0.1393
 4745TIP3    H214200   0.333   3.667   1.829 -1.9240  0.3215 -1.4651
 4746TIP3   OH214201   5.171   1.221   4.891  0.3213 -0.2809 -0.6904
 4746TIP3    H114202   5.201   1.261   4.973 -0.3433  1.0637 -1.0850
 4746TIP3    H214203   5.223   1.264   4.823 -2.4549  2.2338 -1.4123
 4747TIP3   OH214204   1.352   0.537   1.115  0.3124 -0.1162 -0.1782
 4747TIP3    H114205   1.383   0.507   1.029 -0.8654  0.5869 -0.8841
 4747TIP3    H214206   1.430   0.569   1.159  1.0246 -0.9616 -0.7835
 4748TIP3   OH214207   1.460   2.715   2.259 -0.1811 -0.0755  0.2648
 4748TIP3    H114208   1.527   2.673   2.205 -0.5745 -0.7901  0.3259
 4748TIP3    H214209   1.501   2.797   2.288  0.5320 -0.3297 -0.0020
 4749TIP3   OH214210   5.834   0.626   3.331 -0.6235  0.2436 -0.0604
 4749TIP3    H114211   5.911   0.584   3.293 -1.2310 -0.4769 -0.5512
 4749TIP3    H214212   5.761   0.592   3.278 -1.6604 -1.6701  2.3880
 4750TIP3   OH214213   3.174   0.905   5.786 -0.0003 -0.0253 -0.1987
 4750TIP3    H114214   3.176   0.831   5.725  0.9008 -0.4708  0.3571
 4750TIP3    H214215   3.094   0.952   5.763  0.2573 -0.2412 -1.6637
 4751TIP3   OH214216   7.038   6.519   1.476  0.1135 -0.0433  0.0159
 4751TIP3    H114217   6.952   6.554   1.502  0.2876  0.4407 -0.0458
 4751TIP3    H214218   7.064   6.574   1.402 -0.1406 -1.0579 -0.8635
 4752TIP3   OH214219   0.857   5.466   5.211 -0.5451  0.2059 -0.3826
 4752TIP3    H114220   0.833   5.376   5.188 -0.6332 -0.1015  0.8557
 4752TIP3    H214221   0.915   5.494   5.139  1.1681 -1.5605  0.2039
 4753TIP3   OH214222   3.177   5.996   5.046 -0.0554 -0.0992  0.1033
 4753TIP3    H114223   3.223   6.078   5.059  2.4916 -1.2287 -1.1594
 4753TIP3    H214224   3.218   5.935   5.107 -2.4174 -0.3410  1.5763
 4754TIP3   OH214225   3.478   3.069   5.578 -0.6293 -0.2548 -0.1220
 4754TIP3    H114226   3.411   3.134   5.554  0.4579 -0.0804 -3.1278
 4754TIP3    H214227   3.560   3.109   5.550  0.6030 -1.1276  2.0733
 4755TIP3   OH214228   6.560   1.908   5.848 -0.0095  0.0436 -0.0962
 4755TIP3    H114229   6.640   1.924   5.798 -0.3164  0.9882 -0.3040
 4755TIP3    H214230   6.589   1.894   5.938  0.6322 -2.5563 -0.6360
 4756TIP3   OH214231   6.615   2.047   1.367  0.1244 -0.1666 -0.2455
 4756TIP3    H114232   6.583   2.076   1.282 -1.9401  2.3202  1.2268
 4756TIP3    H214233   6.535   2.034   1.419  1.3155 -1.3617  1.4014
 4757TIP3   OH214234   4.147   5.803   4.834 -0.0002 -0.2308 -0.2366
 4757TIP3    H114235   4.098   5.752   4.770  0.3427 -1.2104  0.2617
 4757TIP3    H214236   4.235   5.809   4.797 -0.6030  2.2761 -1.5642
 4758TIP3   OH214237   6.901   4.330   4.534  0.2138  0.3505 -0.4264
 4758TIP3    H114238   6.951   4.279   4.598  0.8121  1.0385 -0.3318
 4758TIP3    H214239   6.816   4.342   4.575  0.6321  0.9035  0.3084
 4759TIP3   OH214240   4.596   2.748   0.406  0.0403 -0.4672  0.2054
 4759TIP3    H114241   4.513   2.768   0.449  0.9839  3.6854  0.5163
 4759TIP3    H214242   4.588   2.789   0.319  2.1356  1.2219  0.7321
 4760TIP3   OH214243   0.399   6.663   5.901  0.0524  0.3322  0.3730
 4760TIP3    H114244   0.416   6.718   5.825  0.5846  1.6828  1.4265
 4760TIP3    H214245   0.429   6.576   5.875  0.6233  0.8619 -0.7973
 4761TIP3   OH214246   0.895   6.124   0.432  0.3156  0.1992 -0.4202
 4761TIP3    H114247   0.904   6.172   0.515 -0.4450 -0.0832 -0.1735
 4761TIP3    H214248   0.842   6.181   0.377 -1.7237 -0.8914  0.3258
 4762TIP3   OH214249   4.892   1.072   4.527 -0.0621  0.0646  0.2505
 4762TIP3    H114250   4.923   1.109   4.610  0.5351 -0.0811  0.0966
 4762TIP3    H214251   4.951   1.108   4.461 -0.7830  0.4933 -0.1645
 4763TIP3   OH214252   5.996   4.844   4.353 -0.0742  0.0578  0.6157
 4763TIP3    H114253   5.983   4.917   4.292 -0.4758 -1.1667 -0.7983
 4763TIP3    H214254   6.088   4.851   4.379  0.5625 -0.3180 -1.3787
 4764TIP3   OH214255   0.966   0.123   0.095  0.5221  0.5121  0.2806
 4764TIP3    H114256   0.894   0.074   0.055 -0.2591  2.5932 -1.0349
 4764TIP3    H214257   1.043   0.068   0.080 -0.4077 -0.6432 -0.4645
 4765TIP3   OH214258   5.240   1.992   3.947  0.4381 -0.5569 -0.2741
 4765TIP3    H114259   5.235   2.085   3.924 -1.6450 -0.6953 -0.5467
 4765TIP3    H214260   5.301   1.990   4.021 -0.3065  1.1829  0.4525
 4766TIP3   OH214261   5.782   6.608   5.251  0.3579 -0.5284 -0.6523
 4766TIP3    H114262   5.856   6.613   5.189  0.1940  0.2917 -0.7943
 4766TIP3    H214263   5.715   6.663   5.212  0.2161 -0.0719  0.2143
 4767TIP3   OH214264   5.832   1.595   0.206  0.1149  0.4360 -0.0084
 4767TIP3    H114265   5.797   1.542   0.278 -0.4252  0.4522 -0.2558
 4767TIP3    H214266   5.879   1.532   0.151  0.2921  0.3770  0.2058
 4768TIP3   OH214267   6.777   1.592   2.955  0.4675 -0.1802 -0.3325
 4768TIP3    H114268   6.842   1.663   2.961  0.9562 -0.6639  0.3267
 4768TIP3    H214269   6.717   1.619   2.886 -0.2247  1.6058  0.8914
 4769TIP3   OH214270   4.230   1.248   3.599 -0.4019  0.1036  0.3375
 4769TIP3    H114271   4.165   1.240   3.669  0.0102  0.1512  0.7320
 4769TIP3    H214272   4.181   1.281   3.524 -0.5611  1.5598  1.0445
 4770TIP3   OH214273   1.587   0.719   2.333 -0.5027  0.5556  0.0631
 4770TIP3    H114274   1.549   0.722   2.245  1.0705 -0.9170 -0.7117
 4770TIP3    H214275   1.665   0.665   2.324 -0.6510 -0.1744  2.5115
 4771TIP3   OH214276   0.918   1.278   0.997  0.7261  0.0334  0.2782
 4771TIP3    H114277   0.962   1.358   1.025  0.6960 -0.0633  0.6049
 4771TIP3    H214278   0.859   1.307   0.927 -0.2807  0.5399  1.2984
 4772TIP3   OH214279   1.285   2.550   1.008 -0.1948  0.0572  0.5538
 4772TIP3    H114280   1.306   2.546   0.915  0.5683 -0.2527  0.7329
 4772TIP3    H214281   1.202   2.597   1.012 -0.4331 -0.2782 -0.3112
 4773TIP3   OH214282   1.098   3.262   1.936 -0.3677  0.0615  0.2444
 4773TIP3    H114283   1.011   3.282   1.971  0.6803  0.4814  2.8356
 4773TIP3    H214284   1.150   3.340   1.956  0.4024  0.3196 -2.3263
 4774TIP3   OH214285   5.901   5.081   2.909  0.1901  0.7392 -0.1376
 4774TIP3    H114286   5.893   5.159   2.964  0.5148  0.2145  0.6661
 4774TIP3    H214287   5.973   5.032   2.947 -0.0722 -0.0047 -0.5828
 4775TIP3   OH214288   5.682   4.357   2.653 -0.1027 -0.0719 -0.2728
 4775TIP3    H114289   5.628   4.303   2.711  0.1122  1.0583  1.0280
 4775TIP3    H214290   5.626   4.432   2.632  0.4192  0.3433 -0.1842
 4776TIP3   OH214291   3.119   1.832   4.792 -0.0727 -0.1259 -0.1487
 4776TIP3    H114292   3.083   1.746   4.770  1.9709 -1.1254  0.1204
 4776TIP3    H214293   3.072   1.859   4.871  0.8313 -2.1539  1.1840
 4777TIP3   OH214294   2.459   1.373   1.326  0.1846 -0.5243  0.4736
 4777TIP3    H114295   2.461   1.429   1.249 -1.5029  0.7761  1.3066
 4777TIP3    H214296   2.543   1.387   1.369  0.5626 -0.1558 -0.3641
 4778TIP3   OH214297   0.038   1.732   0.763  0.2886 -0.5390  0.2065
 4778TIP3    H114298  -0.008   1.812   0.737  0.3510 -0.3192  0.7508
 4778TIP3    H214299   0.073   1.752   0.850  1.0108 -0.8672  0.0017
 4779TIP3   OH214300   3.543   6.652   1.005 -0.0322 -0.2645 -0.1071
 4779TIP3    H114301   3.623   6.606   1.032 -0.1229  0.1947  0.9771
 4779TIP3    H214302   3.565   6.687   0.919  1.0876  0.1989  0.3410
 4780TIP3   OH214303   6.217   4.791   0.571  0.2019 -0.4324 -0.1850
 4780TIP3    H114304   6.155   4.800   0.644 -2.4838 -1.3187 -2.1976
 4780TIP3    H214305   6.227   4.696   0.560  1.8087 -0.2987 -0.0349
 4781TIP3   OH214306   2.719   1.563   1.776  0.2357 -0.1004 -0.1813
 4781TIP3    H114307   2.726   1.635   1.713  0.0450 -1.4757 -1.8613
 4781TIP3    H214308   2.755   1.488   1.729  3.2832 -0.5426  2.5689
 4782TIP3   OH214309   2.626   2.921   4.822  0.3489 -0.3487 -0.7276
 4782TIP3    H114310   2.638   2.958   4.734  0.9589 -0.8196 -0.8464
 4782TIP3    H214311   2.714   2.897   4.851  0.3329  0.9738  0.5454
 4783TIP3   OH214312   2.311   2.134   4.055  0.5158  0.3235  0.0026
 4783TIP3    H114313   2.308   2.047   4.013 -0.8823  0.7926 -0.9395
 4783TIP3    H214314   2.280   2.118   4.144 -1.4221  0.0747 -0.6615
 4784TIP3   OH214315   0.819   4.915   3.962  0.9388  0.1188  0.9697
 4784TIP3    H114316   0.792   4.950   4.047  2.9229  0.4053  1.5204
 4784TIP3    H214317   0.739   4.874   3.927 -1.0894  3.5567  1.0466
 4785TIP3   OH214318   0.998   2.803   2.336 -0.1782  1.0714 -0.4786
 4785TIP3    H114319   1.039   2.826   2.253  1.3922 -0.3033 -0.1440
 4785TIP3    H214320   0.991   2.707   2.333  0.0057  0.9834  1.0020
 4786TIP3   OH214321   6.137   3.813   5.195 -0.0016  0.3944 -0.1454
 4786TIP3    H114322   6.088   3.788   5.116 -0.8467 -2.6462  1.1859
 4786TIP3    H214323   6.071   3.812   5.264  1.3127 -0.3150  1.1254
 4787TIP3   OH214324   2.092   2.451   0.792 -0.2755 -0.0339 -0.9730
 4787TIP3    H114325   2.185   2.435   0.775 -0.3822 -0.7687 -0.9166
 4787TIP3    H214326   2.053   2.363   0.795 -0.7060  0.1906  0.5233
 4788TIP3   OH214327   7.068   5.386   5.752 -0.7639 -0.2990 -0.6057
 4788TIP3    H114328   7.049   5.476   5.780  0.5976 -0.4849  1.0231
 4788TIP3    H214329   7.117   5.347   5.825  0.9128 -1.5661 -2.3033
 4789TIP3   OH214330   6.497   4.565   5.037  0.5432 -0.7053  0.2024
 4789TIP3    H114331   6.500   4.473   5.066  0.8528 -1.7141 -2.7014
 4789TIP3    H214332   6.586   4.584   5.007 -0.1316 -0.4309 -1.7766
 4790TIP3   OH214333   2.146   3.610   3.122 -0.0718  0.6173  0.3301
 4790TIP3    H114334   2.139   3.699   3.087 -0.4902  0.1494 -0.8474
 4790TIP3    H214335   2.204   3.565   3.061  2.5025  0.8009  2.5102
 4791TIP3   OH214336   1.333   1.709   1.458 -0.4739 -0.4017  0.1405
 4791TIP3    H114337   1.376   1.789   1.428 -0.1960 -0.4341  0.4470
 4791TIP3    H214338   1.361   1.642   1.395 -0.3228 -0.3596  0.1622
 4792TIP3   OH214339   0.503   6.009   3.577 -0.2633  0.0542  0.6825
 4792TIP3    H114340   0.408   6.018   3.592 -0.0550  2.4613  1.0344
 4792TIP3    H214341   0.543   6.040   3.658  0.8581 -1.2293  0.6487
 4793TIP3   OH214342   5.654   5.408   3.616  0.1695  0.3836 -0.6567
 4793TIP3    H114343   5.640   5.432   3.524  2.5516  0.0170 -1.1782
 4793TIP3    H214344   5.735   5.453   3.640  0.1134 -0.3293  0.9741
 4794TIP3   OH214345   4.426   0.344   3.800  0.7517  0.0843 -0.4172
 4794TIP3    H114346   4.508   0.315   3.839  0.0588 -1.4514 -0.0151
 4794TIP3    H214347   4.369   0.267   3.803 -0.5223  0.9445 -1.2006
 4795TIP3   OH214348   2.401   0.139   3.092  0.0219  0.1716  0.8493
 4795TIP3    H114349   2.389   0.054   3.135 -1.0498  0.3951  1.0255
 4795TIP3    H214350   2.477   0.177   3.134 -0.9929  0.3856  2.5878
 4796TIP3   OH214351   5.873   1.544   3.220  0.0594 -0.1652  0.0687
 4796TIP3    H114352   5.944   1.573   3.278  0.2481 -0.8792  0.1970
 4796TIP3    H214353   5.793   1.574   3.264  0.1746 -1.1100  0.9430
 4797TIP3   OH214354   5.462   1.515   5.392 -0.1029  0.2774 -0.3527
 4797TIP3    H114355   5.488   1.588   5.335 -2.2273  0.9087 -0.6066
 4797TIP3    H214356   5.518   1.523   5.468  0.4488  1.5309 -0.8596
 4798TIP3   OH214357   6.374   5.471   5.387  0.0021 -0.1519  0.3998
 4798TIP3    H114358   6.456   5.424   5.374 -0.5058 -0.6695 -1.2411
 4798TIP3    H214359   6.382   5.511   5.474  2.0981  0.0560  0.1623
 4799TIP3   OH214360   3.850   3.041   5.274 -0.1419  0.5055 -0.1590
 4799TIP3    H114361   3.936   3.063   5.308  0.2577 -1.0116 -0.1157
 4799TIP3    H214362   3.864   3.026   5.181  0.4792 -3.3355  0.3936
 4800TIP3   OH214363   1.336   6.164   4.882 -0.4042 -0.2410  0.5201
 4800TIP3    H114364   1.310   6.073   4.868 -0.4057 -0.0844 -0.5747
 4800TIP3    H214365   1.318   6.207   4.798 -0.6927  0.8404  1.1183
 4801TIP3   OH214366   1.733   3.271   1.721  0.2172 -1.0508 -0.7968
 4801TIP3    H114367   1.691   3.209   1.661 -2.5161 -0.0791 -0.0169
 4801TIP3    H214368   1.745   3.351   1.669  0.3031 -1.0517 -0.7786
 4802TIP3   OH214369   4.623   2.487   4.187  0.3927 -0.0802 -0.5892
 4802TIP3    H114370   4.604   2.574   4.152  1.0837  0.1758 -0.3577
 4802TIP3    H214371   4.650   2.502   4.277 -0.4822 -0.6449 -0.2196
 4803TIP3   OH214372   3.853   5.055   0.448 -0.3884 -0.6441  0.1258
 4803TIP3    H114373   3.793   5.022   0.381 -0.7831  1.0702 -0.4387
 4803TIP3    H214374   3.939   5.023   0.421 -0.7463 -1.2293 -0.3549
 4804TIP3   OH214375   5.891   5.388   5.194  0.5082 -0.7629  0.4989
 4804TIP3    H114376   5.927   5.365   5.108 -0.9231 -0.8697 -0.0971
 4804TIP3    H214377   5.835   5.315   5.217 -1.2796  0.4594  0.2326
 4805TIP3   OH214378   4.927   2.514   4.281 -0.2635 -0.1413 -0.0869
 4805TIP3    H114379   4.842   2.545   4.312 -0.3906  0.9964 -1.4890
 4805TIP3    H214380   4.944   2.564   4.201  2.2791  0.5436  0.7824
 4806TIP3   OH214381   0.953   5.259   2.614  0.3766  0.5559  0.2152
 4806TIP3    H114382   0.947   5.317   2.538 -0.4796  0.0327 -0.1318
 4806TIP3    H214383   0.862   5.237   2.635  0.6495 -0.0178  0.8377
 4807TIP3   OH214384   2.870   2.054   3.202 -0.1380 -0.2450 -0.2406
 4807TIP3    H114385   2.892   2.013   3.285 -0.4696 -0.6081 -0.3290
 4807TIP3    H214386   2.901   1.993   3.135 -0.1794 -0.1149 -0.3813
 4808TIP3   OH214387   0.418   0.445   3.603 -0.3354 -0.2317 -0.2784
 4808TIP3    H114388   0.381   0.363   3.633 -0.9976  0.0491 -0.3206
 4808TIP3    H214389   0.505   0.421   3.571  0.0261 -0.6818  0.9873
 4809TIP3   OH214390   1.663   5.733   4.568  0.1026 -0.7116 -0.1104
 4809TIP3    H114391   1.650   5.802   4.502  2.1201 -1.3939 -1.2877
 4809TIP3    H214392   1.637   5.652   4.524  2.5624 -1.3321 -0.5556
 4810TIP3   OH214393   2.632   2.720   1.538 -0.1659 -0.0328  0.1790
 4810TIP3    H114394   2.705   2.769   1.501  0.2945 -0.5692  0.3600
 4810TIP3    H214395   2.664   2.630   1.545 -1.4153 -0.6679 -1.3921
 4811TIP3   OH214396   5.840   2.584   5.145 -0.4118  0.3539  0.2382
 4811TIP3    H114397   5.929   2.581   5.181 -0.7281  0.1794  1.0375
 4811TIP3    H214398   5.833   2.670   5.104  0.2140  0.2600 -0.0797
 4812TIP3   OH214399   2.587   1.469   4.303  0.8000 -0.1062  0.8371
 4812TIP3    H114400   2.602   1.389   4.353 -0.4618 -1.4162 -0.7541
 4812TIP3    H214401   2.628   1.451   4.218  0.2027  0.7990  0.3493
 4813TIP3   OH214402   7.116   2.846   2.839  0.5570  0.3225  0.0486
 4813TIP3    H114403   7.069   2.768   2.868  1.3610 -0.6913 -1.2595
 4813TIP3    H214404   7.060   2.919   2.863 -0.4346 -0.6967  0.8803
 4814TIP3   OH214405   0.592   2.643   1.490 -0.4065 -0.4467  0.3532
 4814TIP3    H114406   0.511   2.663   1.536 -0.7089 -0.9847  0.0669
 4814TIP3    H214407   0.565   2.595   1.412  0.1108  0.3824 -0.3559
 4815TIP3   OH214408   2.604   3.700   5.777  0.1552 -0.5386  0.1983
 4815TIP3    H114409   2.616   3.743   5.692 -1.5023 -2.1742 -0.9477
 4815TIP3    H214410   2.690   3.660   5.796  0.5754 -0.0651 -0.6426
 4816TIP3   OH214411   0.350   0.187   5.030 -0.4853 -0.1947  0.2374
 4816TIP3    H114412   0.336   0.259   5.091 -0.6654 -0.8856  1.0325
 4816TIP3    H214413   0.280   0.195   4.966 -0.8215  0.0338  0.6275
 4817TIP3   OH214414   5.774   5.235   4.812 -0.3128 -0.1782 -0.1302
 4817TIP3    H114415   5.713   5.297   4.774 -0.2805 -0.5781 -0.8429
 4817TIP3    H214416   5.860   5.277   4.803 -0.1743 -0.6808 -1.4244
 4818TIP3   OH214417   2.926   5.182   1.195 -0.1511 -0.2892  0.6090
 4818TIP3    H114418   2.944   5.110   1.134 -1.5788 -0.7167  0.6495
 4818TIP3    H214419   3.009   5.229   1.202 -0.0799  0.1774 -2.1939
 4819TIP3   OH214420   2.028   6.687   4.226  0.0947  0.2451 -0.2642
 4819TIP3    H114421   2.079   6.748   4.281 -0.5825 -0.5098  1.2616
 4819TIP3    H214422   2.087   6.614   4.211 -0.2039 -0.2021  0.7035
 4820TIP3   OH214423   3.401   3.250   3.494  0.1366 -0.5005  0.1749
 4820TIP3    H114424   3.478   3.294   3.458 -0.3222  1.3218  1.2882
 4820TIP3    H214425   3.382   3.296   3.576 -1.9895 -1.0371  0.0653
 4821TIP3   OH214426   4.530   5.673   0.456  0.3645  0.1970  0.7555
 4821TIP3    H114427   4.449   5.624   0.446 -0.2270  1.0877  1.0247
 4821TIP3    H214428   4.543   5.677   0.551 -0.2339  1.5434  0.8022
 4822TIP3   OH214429   6.855   5.245   5.702 -0.1092  0.2776  0.2001
 4822TIP3    H114430   6.823   5.249   5.792  0.9381 -0.0401  0.6103
 4822TIP3    H214431   6.930   5.305   5.701 -0.1586  0.3318 -0.4755
 4823TIP3   OH214432   7.240   6.751   1.419  0.2719  0.9896 -0.7071
 4823TIP3    H114433   7.163   6.794   1.381 -3.0179 -2.2757  1.4910
 4823TIP3    H214434   7.239   6.777   1.511 -0.7354 -2.0386  0.2554
 4824TIP3   OH214435   4.680   3.569   1.325 -0.3235  0.2557 -0.3150
 4824TIP3    H114436   4.604   3.607   1.369 -0.1221  0.7556 -0.3882
 4824TIP3    H214437   4.655   3.565   1.233  0.4398  2.2990 -0.6764
 4825TIP3   OH214438   0.919   2.597   0.404  0.8627  0.2626 -0.2994
 4825TIP3    H114439   0.862   2.570   0.332  0.7129  1.7306 -0.7636
 4825TIP3    H214440   0.985   2.529   0.410  0.4120 -0.2752 -1.3043
 4826TIP3   OH214441   2.546   3.627   3.280  0.2582 -1.1496  0.3885
 4826TIP3    H114442   2.506   3.688   3.217 -1.3533 -0.9794  1.5254
 4826TIP3    H214443   2.602   3.683   3.334  0.8999 -1.1451 -0.2565
 4827TIP3   OH214444   0.993   5.364   3.269  0.1811 -0.2792  0.3754
 4827TIP3    H114445   0.972   5.357   3.362 -0.4654 -2.5874  0.1335
 4827TIP3    H214446   1.068   5.306   3.257 -0.8679 -1.4897 -0.7980
 4828TIP3   OH214447   3.307   3.469   2.102 -0.5724  0.7797 -0.1624
 4828TIP3    H114448   3.355   3.390   2.126  0.4765  1.6204  0.6127
 4828TIP3    H214449   3.225   3.464   2.152 -0.0134  0.7261  0.7717
 4829TIP3   OH214450   2.674   5.911   2.166 -0.0703 -0.2671 -0.2257
 4829TIP3    H114451   2.631   5.844   2.113 -0.6964 -0.3693  0.3946
 4829TIP3    H214452   2.682   5.987   2.107  0.7039 -0.8999 -0.9480
 4830TIP3   OH214453   4.511   4.838   1.483 -0.2808  0.4024 -0.7196
 4830TIP3    H114454   4.548   4.765   1.432  1.5473  0.9815 -0.3035
 4830TIP3    H214455   4.585   4.898   1.495 -1.4108  1.6698  0.1205
 4831TIP3   OH214456   3.167   1.421   4.917  0.3562 -0.2796  0.5517
 4831TIP3    H114457   3.236   1.438   4.981  1.0473  2.0379 -0.7079
 4831TIP3    H214458   3.212   1.377   4.844  0.1497 -0.3321  0.4545
 4832TIP3   OH214459   3.870   1.308   0.856  0.2395  0.2976 -0.1060
 4832TIP3    H114460   3.777   1.289   0.866  0.0906 -0.2732 -2.1091
 4832TIP3    H214461   3.874   1.402   0.840 -0.0653  0.2323 -0.5963
 4833TIP3   OH214462   6.439   4.335   4.365 -0.1520  0.2163 -0.0885
 4833TIP3    H114463   6.382   4.289   4.427  0.6552  1.8087  1.9561
 4833TIP3    H214464   6.514   4.277   4.355 -0.0346  0.1798  0.9009
 4834TIP3   OH214465   2.641   5.398   0.523  0.4586  0.0835 -0.7881
 4834TIP3    H114466   2.676   5.451   0.452  0.6391  1.1729  0.0839
 4834TIP3    H214467   2.712   5.394   0.587  0.5196 -1.3997 -0.9137
 4835TIP3   OH214468   4.155   4.202   1.858 -0.0604 -0.1536 -0.1723
 4835TIP3    H114469   4.082   4.216   1.797  0.1019 -1.8092 -0.7757
 4835TIP3    H214470   4.197   4.288   1.864 -1.7637  0.7342 -0.1685
 4836TIP3   OH214471   2.964   0.024   1.893  0.3038  0.0494 -0.0473
 4836TIP3    H114472   2.928   0.077   1.965 -1.2643 -0.1109 -0.6663
 4836TIP3    H214473   2.951  -0.067   1.921 -0.8406 -0.0204 -0.7545
 4837TIP3   OH214474   5.126   0.992   5.217 -0.3256  0.0109 -0.2215
 4837TIP3    H114475   5.056   0.928   5.228  0.0335 -0.4641 -0.6364
 4837TIP3    H214476   5.145   0.991   5.123 -0.4468  0.8713 -0.2603
 4838TIP3   OH214477   2.144   2.815   4.409  0.3197  0.3784 -0.4245
 4838TIP3    H114478   2.109   2.738   4.454 -1.2676  0.8278 -0.8248
 4838TIP3    H214479   2.211   2.849   4.468  1.0008 -1.2513 -0.2117
 4839TIP3   OH214480   4.800   3.316   1.103 -0.4773  0.2962 -0.4702
 4839TIP3    H114481   4.864   3.381   1.073 -1.3165  1.1762 -0.4138
 4839TIP3    H214482   4.844   3.270   1.174 -0.7977  2.6989  1.4186
 4840TIP3   OH214483   2.061   4.884   5.499  0.0484 -0.1998  0.0585
 4840TIP3    H114484   2.049   4.978   5.484  2.0969 -0.0827 -1.2448
 4840TIP3    H214485   2.055   4.844   5.413  1.2300 -0.9749  0.2992
 4841TIP3   OH214486   7.060   6.180   3.427 -0.2149 -0.1737  0.3547
 4841TIP3    H114487   7.085   6.090   3.450 -0.8077 -0.9841 -1.8758
 4841TIP3    H214488   6.968   6.172   3.401  0.1849  0.7389 -1.4676
 4842TIP3   OH214489   2.843   4.762   0.669 -0.5727  0.2207 -0.2725
 4842TIP3    H114490   2.768   4.778   0.611 -1.5066 -0.1760  0.7854
 4842TIP3    H214491   2.841   4.668   0.685  0.5172  0.1145 -0.6822
 4843TIP3   OH214492   4.114   2.759   2.693 -0.0635  0.6173 -0.4343
 4843TIP3    H114493   4.061   2.707   2.632  0.4684 -0.4242 -0.0313
 4843TIP3    H214494   4.083   2.733   2.780  0.9203  0.1815 -0.2037
 4844TIP3   OH214495   4.311   3.192   0.127 -0.4544 -0.1567 -0.7902
 4844TIP3    H114496   4.300   3.101   0.153  1.8691 -0.7904 -1.7245
 4844TIP3    H214497   4.393   3.219   0.167 -2.2021  2.3877  1.4575
 4845TIP3   OH214498   4.446   0.759   2.314  0.3314 -0.4418  0.4239
 4845TIP3    H114499   4.472   0.818   2.385  0.1394 -0.1643  0.2609
 4845TIP3    H214500   4.505   0.684   2.323  0.1767 -0.5011  1.0042
 4846TIP3   OH214501   6.099   2.671   0.554  0.0479  0.3704 -0.7588
 4846TIP3    H114502   6.192   2.686   0.572 -0.2353  3.4738 -1.3147
 4846TIP3    H214503   6.096   2.658   0.459 -0.3042  3.9164 -1.3669
 4847TIP3   OH214504   5.070   0.257   1.267  0.7748 -0.2605  0.5151
 4847TIP3    H114505   5.035   0.196   1.201 -0.7136 -0.8506  1.7731
 4847TIP3    H214506   5.165   0.250   1.258  0.6174 -1.3522 -0.6534
 4848TIP3   OH214507   1.630   4.651   5.024 -0.3295 -0.1219  0.3166
 4848TIP3    H114508   1.558   4.714   5.024  0.1933  0.4900 -0.2678
 4848TIP3    H214509   1.637   4.624   4.932  0.7633  0.5043  0.2009
 4849TIP3   OH214510   1.372   0.208   0.521  0.0115 -0.4345  0.5596
 4849TIP3    H114511   1.417   0.126   0.502  0.0893  0.0114 -1.3379
 4849TIP3    H214512   1.314   0.222   0.446 -2.9151 -0.6694  2.6292
 4850TIP3   OH214513   6.440   5.375   5.113 -0.2102  0.0063  0.5138
 4850TIP3    H114514   6.351   5.345   5.091 -0.0309  0.4240 -0.8866
 4850TIP3    H214515   6.462   5.326   5.192 -0.7070 -2.0668 -0.5301
 4851TIP3   OH214516   5.502   3.157   2.381 -0.4805 -0.3399  0.4943
 4851TIP3    H114517   5.494   3.076   2.432 -1.4195 -0.1761  0.6082
 4851TIP3    H214518   5.415   3.195   2.380 -0.2708  0.1624 -0.4230
 4852TIP3   OH214519   0.977   2.615   0.088 -0.2513 -0.0582  0.1036
 4852TIP3    H114520   0.902   2.640   0.034  0.3424 -0.3145 -0.8638
 4852TIP3    H214521   0.946   2.540   0.139 -1.6258  1.7171  2.0675
 4853TIP3   OH214522   1.202   6.693   4.454 -0.3019 -0.1772  0.2741
 4853TIP3    H114523   1.128   6.674   4.396  0.2836 -3.1093  0.3334
 4853TIP3    H214524   1.219   6.787   4.441 -1.9716 -0.1122 -2.1527
 4854TIP3   OH214525   6.715   4.005   5.776 -0.5105  0.4542  0.2463
 4854TIP3    H114526   6.811   4.013   5.778 -0.5224  1.4314 -1.2637
 4854TIP3    H214527   6.700   3.929   5.719 -0.6276  1.3350 -0.9330
 4855TIP3   OH214528   1.903   5.629   1.486 -0.8065  0.0154 -0.5316
 4855TIP3    H114529   1.960   5.552   1.486  1.0247  1.3074 -0.5675
 4855TIP3    H214530   1.836   5.609   1.550 -0.4505 -1.6566 -0.6275
 4856TIP3   OH214531   3.295   1.786   1.412  0.3863 -0.2742 -0.4447
 4856TIP3    H114532   3.234   1.800   1.340  1.4590  1.1950 -1.1196
 4856TIP3    H214533   3.358   1.858   1.405  0.0688  0.4165  2.4589
 4857TIP3   OH214534   4.847   3.328   4.604  0.3523  0.6670  1.0592
 4857TIP3    H114535   4.897   3.274   4.665 -0.6375 -0.9537  0.5235
 4857TIP3    H214536   4.906   3.398   4.579  2.8765 -1.7874 -0.4645
 4858TIP3   OH214537   4.601   0.021   4.408  0.1482  0.5392 -0.0480
 4858TIP3    H114538   4.673   0.061   4.359  0.0187  0.3566 -0.3909
 4858TIP3    H214539   4.644  -0.029   4.477  0.3306  0.8598  0.0730
 4859TIP3   OH214540   1.987   0.430   2.473  0.1837  1.1149 -0.3169
 4859TIP3    H114541   2.075   0.461   2.493 -0.1791  1.2356  1.2004
 4859TIP3    H214542   1.930   0.503   2.498 -0.3165  1.4351 -2.2358
 4860TIP3   OH214543   3.787   4.556   4.322 -0.0615 -0.0260 -0.6237
 4860TIP3    H114544   3.739   4.594   4.248 -1.3276 -1.0713 -0.3661
 4860TIP3    H214545   3.750   4.469   4.334  1.8921 -0.8923 -0.3710
 4861TIP3   OH214546   6.915   4.349   0.450 -0.3178 -0.3378 -0.2982
 4861TIP3    H114547   6.979   4.308   0.508  0.0197 -0.1056 -0.5014
 4861TIP3    H214548   6.955   4.345   0.363  0.3637  1.6699 -0.1257
 4862TIP3   OH214549   2.142   0.899   2.922 -0.3702  0.3361  0.9216
 4862TIP3    H114550   2.096   0.942   2.994  1.2447 -1.0853  2.9065
 4862TIP3    H214551   2.085   0.826   2.898  0.2334 -0.6912  2.5271
 4863TIP3   OH214552   0.876   3.507   1.222  0.6587  0.1636  0.2429
 4863TIP3    H114553   0.822   3.444   1.174 -0.8510  0.2989  1.7020
 4863TIP3    H214554   0.825   3.530   1.299  0.5951  4.1181 -0.7742
 4864TIP3   OH214555   0.910   2.659   3.987  0.1099 -0.7104 -1.0012
 4864TIP3    H114556   0.884   2.697   4.071  1.1569 -1.4646 -0.3147
 4864TIP3    H214557   0.984   2.712   3.958  0.6459 -1.2969 -0.7453
 4865TIP3   OH214558   3.809   6.096   1.988 -0.7675 -0.6297  0.5648
 4865TIP3    H114559   3.835   6.084   2.080 -0.0348 -2.1704  0.1956
 4865TIP3    H214560   3.858   6.029   1.941 -1.2171  0.0730 -0.9530
 4866TIP3   OH214561   1.792   5.515   3.002 -0.6526  0.5938 -0.1550
 4866TIP3    H114562   1.823   5.454   2.934 -1.5154  0.3162 -0.3032
 4866TIP3    H214563   1.700   5.531   2.980 -1.0536  0.1901  1.1892
 4867TIP3   OH214564   3.494   0.462   0.316 -0.4431  0.6706 -0.4886
 4867TIP3    H114565   3.575   0.509   0.333 -0.6500  0.3431  1.5853
 4867TIP3    H214566   3.424   0.525   0.333 -0.6988  1.3305 -3.4414
 4868TIP3   OH214567   5.881   4.697   1.784  0.5609  0.0009 -0.4025
 4868TIP3    H114568   5.913   4.729   1.700  0.3103  0.5064 -0.3087
 4868TIP3    H214569   5.911   4.763   1.847  2.9533 -1.6300  0.2795
 4869TIP3   OH214570   6.868   0.095   4.106 -0.2035 -0.6250 -0.1658
 4869TIP3    H114571   6.792   0.141   4.070  0.7378  0.4919 -0.7874
 4869TIP3    H214572   6.936   0.162   4.113  0.7370 -1.5980  0.3808
 4870TIP3   OH214573   1.736   2.522   1.143  0.1784 -0.6990  0.1215
 4870TIP3    H114574   1.768   2.601   1.099  1.0224 -1.2669 -0.3185
 4870TIP3    H214575   1.682   2.479   1.077 -0.7130 -0.2433  0.5347
 4871TIP3   OH214576   3.866   2.117   3.515 -0.5246  0.5288  0.4266
 4871TIP3    H114577   3.809   2.089   3.443 -1.0925  1.6060  0.4436
 4871TIP3    H214578   3.806   2.138   3.586  0.0682 -3.6586  2.5178
 4872TIP3   OH214579   2.999   0.989   1.532 -0.1072  0.4800 -0.4469
 4872TIP3    H114580   2.909   0.971   1.559  0.6602 -0.9719  1.3527
 4872TIP3    H214581   3.028   0.908   1.489  0.3196  0.9588 -1.0757
 4873TIP3   OH214582   3.702   6.268   4.289 -0.3458 -0.1977  0.5613
 4873TIP3    H114583   3.615   6.301   4.313 -0.3829 -0.1785  0.3997
 4873TIP3    H214584   3.686   6.209   4.215 -0.0042  1.4299 -0.8869
 4874TIP3   OH214585   1.920   1.705   2.336 -0.4078  0.4309  0.2368
 4874TIP3    H114586   2.015   1.698   2.325 -0.5585 -0.2209 -0.8605
 4874TIP3    H214587   1.884   1.652   2.264 -1.5820 -0.9730  1.7945
 4875TIP3   OH214588   5.084   2.165   0.270 -0.3745 -0.1372 -0.0191
 4875TIP3    H114589   5.015   2.229   0.255 -1.0048 -1.3430 -3.3355
 4875TIP3    H214590   5.162   2.204   0.231  0.5963  0.6614  2.5406
 4876TIP3   OH214591   7.126   1.253   2.097  0.0818 -1.1154  0.0762
 4876TIP3    H114592   7.109   1.337   2.054 -0.5606 -0.7310  1.0372
 4876TIP3    H214593   7.081   1.189   2.042  0.4023 -0.8107 -0.5513
 4877TIP3   OH214594   1.838   2.055   2.141  0.0574  0.0591 -0.3790
 4877TIP3    H114595   1.917   2.105   2.164 -0.5458  0.4097  1.0356
 4877TIP3    H214596   1.811   2.090   2.056  0.2660  1.3891  0.0878
 4878TIP3   OH214597   5.442   2.458   2.331  0.4743  0.0795 -0.8701
 4878TIP3    H114598   5.432   2.450   2.426 -0.7721  1.0303 -0.8956
 4878TIP3    H214599   5.445   2.553   2.315 -1.4216  0.0146 -1.9348
 4879TIP3   OH214600   5.395   4.900   4.881 -0.6178 -0.0635 -0.2495
 4879TIP3    H114601   5.427   4.949   4.957  0.7009 -0.1798 -0.7080
 4879TIP3    H214602   5.322   4.953   4.847 -0.2961  0.7200  0.2554
 4880TIP3   OH214603   1.899   1.194   1.949 -0.0815 -0.1932  0.2103
 4880TIP3    H114604   1.915   1.127   1.883  0.4664 -0.5988  0.7525
 4880TIP3    H214605   1.907   1.149   2.032  0.7255  0.6242  0.5984
 4881TIP3   OH214606   6.079   3.353   0.778  0.4379  0.1500 -0.2062
 4881TIP3    H114607   6.029   3.347   0.696 -1.1469 -0.5833  0.7635
 4881TIP3    H214608   6.155   3.406   0.755 -0.2457  0.4435 -2.0195
 4882TIP3   OH214609   1.556   5.499   4.455 -0.4560  0.0227 -0.2282
 4882TIP3    H114610   1.576   5.409   4.430  2.1669  0.3723  0.3310
 4882TIP3    H214611   1.469   5.494   4.493 -0.2976 -2.3237 -0.0144
 4883TIP3   OH214612   4.675   2.196   0.930  0.2913 -0.0842  0.1530
 4883TIP3    H114613   4.625   2.162   0.856  0.8284 -0.3908 -0.0823
 4883TIP3    H214614   4.689   2.119   0.986  1.1476 -0.1830 -0.1694
 4884TIP3   OH214615   2.809   4.048   4.221 -0.1456 -0.1430 -0.4479
 4884TIP3    H114616   2.859   4.129   4.217 -0.4350  0.0809  0.2379
 4884TIP3    H214617   2.874   3.979   4.206  0.7117  0.0449  1.9428
 4885TIP3   OH214618   4.213   1.991   2.450 -0.0127 -0.3037  0.5262
 4885TIP3    H114619   4.274   1.967   2.520  0.3301  1.9931  1.0881
 4885TIP3    H214620   4.267   2.042   2.389 -0.1732 -2.6434 -1.7536
 4886TIP3   OH214621   6.490   4.172   5.089 -0.2087  0.2405  0.1359
 4886TIP3    H114622   6.423   4.198   5.152  0.7482 -0.7694  1.6229
 4886TIP3    H214623   6.572   4.199   5.129  0.5469 -1.8948  0.1175
 4887TIP3   OH214624   6.780   5.541   1.523  0.3425 -0.3927  0.3379
 4887TIP3    H114625   6.757   5.618   1.574  1.6293  0.1648  0.1001
 4887TIP3    H214626   6.827   5.485   1.585  1.4326  0.0468 -0.0795
 4888TIP3   OH214627   2.006   5.141   3.475  0.7349 -0.1617  0.2051
 4888TIP3    H114628   1.949   5.097   3.538  0.0769  2.1583  1.3761
 4888TIP3    H214629   2.079   5.081   3.460 -0.3471 -1.7960  1.2645
 4889TIP3   OH214630   6.347   2.491   3.977 -0.0667  0.5467 -0.2202
 4889TIP3    H114631   6.309   2.493   4.064  0.9190  0.4200  0.2204
 4889TIP3    H214632   6.394   2.408   3.972  1.5436  1.4039 -0.1311
 4890TIP3   OH214633   2.778   0.665   0.906 -0.2320  0.3365  0.5424
 4890TIP3    H114634   2.753   0.573   0.919  1.3838 -0.5089 -1.6648
 4890TIP3    H214635   2.696   0.708   0.881 -0.7028 -0.9159 -0.1964
 4891TIP3   OH214636   5.208   6.481   4.961 -0.4130  0.1928 -0.2239
 4891TIP3    H114637   5.152   6.408   4.986  0.8755 -0.4358  0.9424
 4891TIP3    H214638   5.297   6.445   4.959  0.2920  1.7347  0.5584
 4892TIP3   OH214639   4.238   6.078   0.320 -0.3191 -0.1217 -0.8055
 4892TIP3    H114640   4.174   6.125   0.373  0.0276 -0.2612 -0.2577
 4892TIP3    H214641   4.214   6.098   0.229 -1.6125 -0.7727 -0.6389
 4893TIP3   OH214642   6.354   3.000   5.467 -0.0627  0.8028  0.8412
 4893TIP3    H114643   6.380   2.948   5.392  0.1087 -0.2251  1.5853
 4893TIP3    H214644   6.289   3.061   5.433 -1.1023 -0.6393  0.1403
 4894TIP3   OH214645   2.687   1.793   2.421 -0.3756 -0.1483  0.0999
 4894TIP3    H114646   2.758   1.785   2.358 -0.8836 -1.6113 -0.3193
 4894TIP3    H214647   2.645   1.877   2.399 -0.3971 -0.5098 -1.3562
 4895TIP3   OH214648   2.819   5.226   2.547 -0.6112 -0.2545  0.2814
 4895TIP3    H114649   2.757   5.270   2.488 -0.5537  0.0867  0.4728
 4895TIP3    H214650   2.896   5.212   2.493  0.0481  1.5013  0.6836
 4896TIP3   OH214651   1.840   4.761   4.668 -0.2733 -0.0282 -0.0285
 4896TIP3    H114652   1.767   4.701   4.681 -1.4271  1.2117 -0.5305
 4896TIP3    H214653   1.884   4.730   4.589 -2.5327  1.3261 -1.9447
 4897TIP3   OH214654   2.670   5.290   2.753  0.0665 -0.2915 -0.3851
 4897TIP3    H114655   2.718   5.245   2.684  1.2923 -0.0024  0.2356
 4897TIP3    H214656   2.711   5.260   2.834 -0.8033 -0.0165  0.1713
 4898TIP3   OH214657   1.645   1.567   0.524 -0.2798 -0.2364 -0.3235
 4898TIP3    H114658   1.658   1.488   0.576  4.5959  0.2104 -0.4381
 4898TIP3    H214659   1.626   1.535   0.436  1.0337 -1.3221 -0.2456
 4899TIP3   OH214660   2.927   2.693   4.711 -0.6965 -0.5197  0.1078
 4899TIP3    H114661   2.928   2.605   4.673 -1.8326 -1.0743  1.2472
 4899TIP3    H214662   2.858   2.689   4.777 -0.9085  1.3024  0.0519
 4900TIP3   OH214663   0.107   0.946   2.269 -0.1250 -0.2606  0.3262
 4900TIP3    H114664   0.022   0.980   2.298 -0.9513 -1.0916 -1.0254
 4900TIP3    H214665   0.146   1.017   2.219 -0.1905 -0.0090  0.6296
 4901TIP3   OH214666   4.058   6.247   0.416 -0.0087 -0.0198 -0.1894
 4901TIP3    H114667   3.966   6.276   0.413  0.3557  1.3375  0.7199
 4901TIP3    H214668   4.105   6.312   0.365  0.3493 -1.3052 -1.5673
 4902TIP3   OH214669   5.116   2.752   2.585 -1.0632  0.5070  0.0590
 4902TIP3    H114670   5.033   2.711   2.561 -0.6193 -0.0334 -0.5900
 4902TIP3    H214671   5.134   2.814   2.513 -0.1610 -0.4830 -0.5913
 4903TIP3   OH214672   6.623   5.849   2.187  0.5077 -0.4339 -0.3281
 4903TIP3    H114673   6.533   5.815   2.185  0.5452 -0.5250 -0.4455
 4903TIP3    H214674   6.620   5.918   2.253  0.4012 -0.5788 -0.1800
 4904TIP3   OH214675   3.944   2.504   0.471 -0.0235  0.1612 -0.0270
 4904TIP3    H114676   3.985   2.493   0.557 -0.3962 -0.3513  0.0912
 4904TIP3    H214677   3.927   2.598   0.465 -0.1611  0.1807  0.5440
 4905TIP3   OH214678   4.248   4.748   4.478  0.7082 -0.2871 -0.2381
 4905TIP3    H114679   4.310   4.817   4.452  0.9555 -0.6627 -0.6389
 4905TIP3    H214680   4.232   4.765   4.571  0.7123  0.3579 -0.3518
 4906TIP3   OH214681   5.423   0.468   4.517 -0.1826  0.3142 -0.4391
 4906TIP3    H114682   5.462   0.384   4.541 -1.1420  0.2604  1.1000
 4906TIP3    H214683   5.424   0.519   4.597 -0.9174  1.2416 -0.9927
 4907TIP3   OH214684   4.202   3.976   1.984 -0.1586  0.4916  0.1023
 4907TIP3    H114685   4.198   4.057   1.932 -1.3089  0.1449 -0.3817
 4907TIP3    H214686   4.244   3.913   1.926  0.9218  0.7847  0.5530
 4908TIP3   OH214687   2.255   5.948   0.871  0.0827 -0.3194 -0.1535
 4908TIP3    H114688   2.281   5.890   0.800  0.4820 -0.9104  0.4625
 4908TIP3    H214689   2.176   5.992   0.839  1.1553  0.6210 -1.5839
 4909TIP3   OH214690   4.927   1.855   1.597  0.4471 -0.1073 -0.2473
 4909TIP3    H114691   4.967   1.794   1.658 -0.4089 -0.3521  0.0924
 4909TIP3    H214692   4.883   1.800   1.532  0.7237  0.1499 -0.6578
 4910TIP3   OH214693   3.372   4.177   4.398  0.1054 -0.2077  0.0529
 4910TIP3    H114694   3.326   4.095   4.415  0.6924 -0.1289  2.4394
 4910TIP3    H214695   3.322   4.243   4.445  1.2136  0.2869  0.5820
 4911TIP3   OH214696   2.599   3.368   3.391  0.7324 -0.5157 -0.4105
 4911TIP3    H114697   2.694   3.382   3.389  0.4339  1.9250 -0.5290
 4911TIP3    H214698   2.563   3.444   3.346 -1.3807 -0.3743  1.3747
 4912TIP3   OH214699   3.559   0.229   1.323 -0.6048  0.6741 -0.5953
 4912TIP3    H114700   3.609   0.186   1.254  0.2477  0.1185  0.3563
 4912TIP3    H214701   3.501   0.161   1.357 -0.0320  0.5514  0.1674
 4913TIP3   OH214702   5.805   3.393   3.524  0.3330 -0.3261 -0.2358
 4913TIP3    H114703   5.753   3.470   3.548 -0.8272 -0.6644 -1.5759
 4913TIP3    H214704   5.765   3.322   3.574 -2.1480 -1.0501 -2.9793
 4914TIP3   OH214705   3.203   3.305   4.942  0.0176  0.2513 -0.1871
 4914TIP3    H114706   3.208   3.247   4.866  0.1682 -0.4549  0.3511
 4914TIP3    H214707   3.231   3.251   5.016 -0.0646  0.9438  0.3667
 4915TIP3   OH214708   1.579   1.185   0.479 -0.7788 -0.4511 -0.1855
 4915TIP3    H114709   1.637   1.141   0.418 -2.4110  1.5893 -3.5549
 4915TIP3    H214710   1.492   1.177   0.439 -1.6059  2.8789  0.6002
 4916TIP3   OH214711   4.312   2.152   1.013 -0.4290 -0.2986  0.3084
 4916TIP3    H114712   4.356   2.237   1.013 -1.1992  0.1294  2.1573
 4916TIP3    H214713   4.381   2.090   1.037 -0.5918  0.2634  2.3586
 4917TIP3   OH214714   2.422   5.362   1.391 -0.4652  0.2293  0.4239
 4917TIP3    H114715   2.451   5.336   1.479  1.9653  1.7788  0.1870
 4917TIP3    H214716   2.490   5.423   1.361 -1.3300 -0.0957 -2.4677
 4918TIP3   OH214717   0.609   0.285   3.805  0.1205 -0.6703  0.0441
 4918TIP3    H114718   0.571   0.367   3.837 -1.5465 -0.3397 -2.4629
 4918TIP3    H214719   0.680   0.313   3.746 -1.9769 -0.7778 -2.7220
 4919TIP3   OH214720   2.978   3.361   5.371  0.5667  0.6213  0.5659
 4919TIP3    H114721   2.904   3.383   5.315  0.2228  0.4207  0.9365
 4919TIP3    H214722   2.951   3.388   5.458  1.1268  0.9958  0.6242
 4920TIP3   OH214723   1.221   3.939   1.259 -0.1882 -0.4882  0.0651
 4920TIP3    H114724   1.168   3.989   1.196  0.7101  0.2656 -0.1076
 4920TIP3    H214725   1.267   4.006   1.309 -0.0273 -1.1233  0.7686
 4921TIP3   OH214726   6.911   1.934   0.400  0.2250 -0.1792  0.7550
 4921TIP3    H114727   6.836   1.983   0.366  0.6943  0.6791  0.9338
 4921TIP3    H214728   6.885   1.842   0.390  0.7419 -0.0800 -2.9916
 4922TIP3   OH214729   6.453   5.658   0.786 -0.1142 -0.3144 -0.1278
 4922TIP3    H114730   6.458   5.622   0.875  1.8906  1.4718  0.5915
 4922TIP3    H214731   6.450   5.581   0.729 -1.0261 -1.5152  1.4377
 4923TIP3   OH214732   6.980   5.763   3.072 -0.4137 -0.0883 -0.0475
 4923TIP3    H114733   6.894   5.723   3.080 -0.5288  0.4690  2.2856
 4923TIP3    H214734   7.041   5.689   3.078 -0.6826 -0.1957  1.7264
 4924TIP3   OH214735   4.123   0.437   2.777 -0.0927  0.3716  0.8035
 4924TIP3    H114736   4.167   0.382   2.712  0.0053  2.2378 -0.8081
 4924TIP3    H214737   4.107   0.519   2.731 -1.2596  1.2999  2.7595
 4925TIP3   OH214738   6.973   1.719   1.851  0.0883  0.0504  0.6512
 4925TIP3    H114739   6.978   1.802   1.802  1.0441 -0.3925 -0.0462
 4925TIP3    H214740   6.900   1.672   1.811  0.0072  0.2576  0.5551
 4926TIP3   OH214741   3.318   1.226   5.296 -0.1123 -0.3828  0.2487
 4926TIP3    H114742   3.356   1.153   5.247  3.0810  0.0492  1.8821
 4926TIP3    H214743   3.328   1.301   5.238  1.5427 -0.3012  0.5986
 4927TIP3   OH214744   6.909   0.340   0.800  0.2485  0.2324  0.2899
 4927TIP3    H114745   7.004   0.329   0.797  0.2629  0.2994  0.4847
 4927TIP3    H214746   6.891   0.412   0.738  0.1376 -0.9329 -1.0933
 4928TIP3   OH214747   3.095   4.750   3.600 -0.0389 -0.0374 -0.6396
 4928TIP3    H114748   3.147   4.819   3.642  0.9734 -1.1999  0.0876
 4928TIP3    H214749   3.085   4.779   3.510  0.0674  1.2240 -0.2691
 4929TIP3   OH214750   3.288   4.581   5.347 -0.0752  0.3584 -0.0143
 4929TIP3    H114751   3.312   4.673   5.357 -0.5543  0.5516 -0.5563
 4929TIP3    H214752   3.335   4.553   5.268  0.0419  0.1515  0.1299
 4930TIP3   OH214753   3.287   6.036   5.360 -0.1290  0.0602 -0.1709
 4930TIP3    H114754   3.270   5.945   5.334 -2.6043  0.6173 -0.7478
 4930TIP3    H214755   3.279   6.086   5.279  1.2132  0.8364  0.1406
 4931TIP3   OH214756   5.696   6.083   0.494 -0.0530  0.3751 -0.1941
 4931TIP3    H114757   5.657   6.109   0.410 -0.2330  0.5480 -0.0573
 4931TIP3    H214758   5.622   6.055   0.547  0.1695 -0.7073 -0.4354
 4932TIP3   OH214759   0.935   1.460   3.848  0.2036  0.3130 -0.1360
 4932TIP3    H114760   0.930   1.462   3.753 -0.9934 -0.3081 -0.0948
 4932TIP3    H214761   0.853   1.497   3.878 -0.4609 -1.6274  0.6225
 4933TIP3   OH214762   5.684   0.861   5.165  0.2370  0.5260 -0.4820
 4933TIP3    H114763   5.711   0.951   5.185 -0.3201  0.4625  0.6484
 4933TIP3    H214764   5.765   0.815   5.145  0.6120  1.0885 -0.2876
 4934TIP3   OH214765   0.166   4.937   0.174  0.3689  0.1913  0.8517
 4934TIP3    H114766   0.246   4.887   0.156 -0.1527 -1.3330  2.5409
 4934TIP3    H214767   0.183   5.023   0.134  1.8783 -0.8277 -0.8927
 4935TIP3   OH214768   0.551   4.383   1.546 -0.0712 -0.4031 -0.3823
 4935TIP3    H114769   0.468   4.336   1.552  1.1949 -2.7659 -0.1744
 4935TIP3    H214770   0.580   4.393   1.637 -0.8950  2.0397 -0.3041
 4936TIP3   OH214771   5.054   6.053   3.332  0.4106  0.6946 -0.3191
 4936TIP3    H114772   4.958   6.047   3.330  0.3710  0.9433 -3.0444
 4936TIP3    H214773   5.072   6.147   3.328  0.6016  0.6736 -4.8165
 4937TIP3   OH214774   5.454   6.547   4.418  0.3063  0.2325 -0.1796
 4937TIP3    H114775   5.463   6.632   4.462  1.2087  0.1279 -0.1392
 4937TIP3    H214776   5.497   6.560   4.333 -3.1429  1.0550 -2.0032
 4938TIP3   OH214777   4.170   3.134   5.086 -0.0822 -0.0149  0.5493
 4938TIP3    H114778   4.175   3.110   5.179  2.4332  0.9456  0.7472
 4938TIP3    H214779   4.179   3.051   5.039  2.1525 -0.2021  1.2069
 4939TIP3   OH214780   5.675   5.002   4.959 -0.1585  0.1992  0.2212
 4939TIP3    H114781   5.679   5.050   4.877 -0.0740  1.3863  0.8966
 4939TIP3    H214782   5.612   5.051   5.012 -0.9588 -1.1083  0.5258
 4940TIP3   OH214783   5.575   1.553   0.092  0.2563  0.4130  0.2238
 4940TIP3    H114784   5.500   1.527   0.039  1.5046 -0.1109 -1.3523
 4940TIP3    H214785   5.544   1.630   0.141 -0.8471  1.1249 -1.5133
 4941TIP3   OH214786   1.869   4.959   0.113  0.3023 -0.1567  0.0375
 4941TIP3    H114787   1.799   4.902   0.145  3.5420 -4.5086  0.2739
 4941TIP3    H214788   1.842   4.983   0.024 -1.9892 -0.6079  0.5521
 4942TIP3   OH214789   3.470   0.882   3.785 -0.4829  0.0824 -0.2649
 4942TIP3    H114790   3.479   0.976   3.798  1.0026 -0.1392  0.5748
 4942TIP3    H214791   3.558   0.853   3.760 -0.4861 -1.3110  1.1625
 4943TIP3   OH214792   4.530   2.754   2.691  0.2544  0.0530 -0.1310
 4943TIP3    H114793   4.614   2.788   2.660 -0.0512  0.8209 -0.1409
 4943TIP3    H214794   4.543   2.660   2.699  1.1455  0.1801 -0.0435
 4944TIP3   OH214795   3.117   0.287   3.740  0.5147 -0.1203  0.1902
 4944TIP3    H114796   3.157   0.356   3.688  0.9387 -0.5030  0.0086
 4944TIP3    H214797   3.184   0.263   3.804  0.7613 -1.0969 -0.4206
 4945TIP3   OH214798   5.070   1.708   1.791  0.3725  0.1796  0.3691
 4945TIP3    H114799   5.145   1.714   1.731  0.5237 -0.3583  0.4991
 4945TIP3    H214800   5.110   1.697   1.877  0.1511 -0.9750  0.3439
 4946TIP3   OH214801   3.345   6.795   0.016 -0.0718 -0.4570 -0.3473
 4946TIP3    H114802   3.349   6.700   0.002  3.5532 -0.6599  0.9153
 4946TIP3    H214803   3.345   6.805   0.111  0.9738  0.7672 -0.4484
 4947TIP3   OH214804   0.872   3.115   4.918 -0.3174 -0.1498  0.2995
 4947TIP3    H114805   0.819   3.061   4.859  0.4378 -2.0298  1.2634
 4947TIP3    H214806   0.808   3.168   4.966 -1.2590 -1.4743  0.5644
 4948TIP3   OH214807   6.250   3.494   2.995  0.4122  0.3802 -0.2195
 4948TIP3    H114808   6.169   3.542   2.976 -0.8451 -1.0775  1.1095
 4948TIP3    H214809   6.275   3.455   2.912 -1.2827 -0.5583 -0.3434
 4949TIP3   OH214810   2.576   4.733   1.249  0.3799  0.2164 -0.0115
 4949TIP3    H114811   2.562   4.678   1.172 -0.4743  0.7743 -0.2565
 4949TIP3    H214812   2.630   4.805   1.217 -1.1617  1.2230 -0.4535
 4950TIP3   OH214813   1.184   4.797   4.878  0.3933 -0.6965  0.4067
 4950TIP3    H114814   1.120   4.734   4.911 -0.1772  1.1924  3.2107
 4950TIP3    H214815   1.139   4.841   4.806 -0.1999 -1.5781  0.2189
 4951TIP3   OH214816   3.350   0.426   4.006 -0.0136 -0.4207  0.1066
 4951TIP3    H114817   3.321   0.450   3.918  1.3674 -1.2809 -0.6122
 4951TIP3    H214818   3.430   0.376   3.993  0.3215 -0.4338  1.8725
 4952TIP3   OH214819   2.482   3.980   4.987  0.5236  0.5817 -0.3190
 4952TIP3    H114820   2.458   4.020   5.070  1.6800 -0.3362  0.4976
 4952TIP3    H214821   2.577   3.987   4.984  0.4870  0.7201 -1.6411
 4953TIP3   OH214822   3.582   0.337   2.829  0.0931  0.1326 -0.7824
 4953TIP3    H114823   3.515   0.276   2.859 -0.8143  0.3660 -2.2882
 4953TIP3    H214824   3.634   0.355   2.908  0.4710 -2.6243 -0.2962
 4954TIP3   OH214825   4.627   2.178   2.343  0.6207  0.3329 -0.4890
 4954TIP3    H114826   4.609   2.085   2.327  0.4159 -0.1137  1.9122
 4954TIP3    H214827   4.547   2.223   2.316 -0.3518 -0.5291  0.8228
 4955TIP3   OH214828   2.138   1.511   5.759  0.4691  0.8897  0.1500
 4955TIP3    H114829   2.076   1.581   5.778 -0.9663 -0.2638 -0.0603
 4955TIP3    H214830   2.100   1.433   5.801  2.8142  0.5124  1.7699
 4956TIP3   OH214831   0.954   5.532   2.350 -0.6850 -0.3451 -0.0698
 4956TIP3    H114832   0.977   5.582   2.428 -0.9087 -0.8025  0.2922
 4956TIP3    H214833   0.884   5.583   2.308  0.6286  0.8186 -0.9360
 4957TIP3   OH214834   6.305   4.068   0.228 -0.5524  0.1852  0.2149
 4957TIP3    H114835   6.231   4.116   0.266  0.8344  2.0927  0.6921
 4957TIP3    H214836   6.325   4.116   0.147  1.6970  1.3548  1.3581
 4958TIP3   OH214837   5.097   4.294   3.351 -0.1406  0.2005 -0.7146
 4958TIP3    H114838   5.041   4.332   3.419 -0.3307 -0.6723 -0.3684
 4958TIP3    H214839   5.121   4.368   3.295 -1.1948  0.6868 -0.5456
 4959TIP3   OH214840   5.673   0.610   2.531  0.4046  0.3243  0.2344
 4959TIP3    H114841   5.713   0.603   2.444 -0.2499 -0.0605 -0.0412
 4959TIP3    H214842   5.730   0.558   2.588 -0.1965 -1.0137 -0.3369
 4960TIP3   OH214843   2.144   6.042   3.905  0.1064 -0.1886  0.0026
 4960TIP3    H114844   2.222   6.072   3.859 -0.3927 -1.4799 -1.8133
 4960TIP3    H214845   2.072   6.094   3.869 -0.4138 -1.7863 -1.4036
 4961TIP3   OH214846   4.563   3.431   4.049 -0.0176  0.3424  0.2577
 4961TIP3    H114847   4.617   3.369   4.000 -0.3472  0.9736 -0.9710
 4961TIP3    H214848   4.476   3.423   4.009 -0.6422 -0.0409  1.6256
 4962TIP3   OH214849   3.747   0.150   3.587  0.6596  0.3629 -0.3021
 4962TIP3    H114850   3.815   0.097   3.545 -1.6882 -0.5322 -3.3456
 4962TIP3    H214851   3.749   0.233   3.540 -1.4235 -0.3284 -1.7601
 4963TIP3   OH214852   6.973   2.242   0.781 -0.0090 -0.1338 -0.5639
 4963TIP3    H114853   7.027   2.222   0.857 -0.0338 -0.1488 -0.5503
 4963TIP3    H214854   6.908   2.172   0.778 -1.2048  0.8551  0.5150
 4964TIP3   OH214855   2.810   1.853   4.644 -0.2905  0.6556 -0.3091
 4964TIP3    H114856   2.787   1.814   4.728 -0.3459  0.9309 -0.1951
 4964TIP3    H214857   2.777   1.791   4.579 -0.4592  0.5580 -0.1317
 4965TIP3   OH214858   6.478   0.883   5.449  0.4630  0.3671  0.3859
 4965TIP3    H114859   6.552   0.865   5.391  1.7950 -0.1938  2.1714
 4965TIP3    H214860   6.460   0.798   5.491 -0.3788  0.7873  0.8960
 4966TIP3   OH214861   3.202   5.717   3.286 -0.3507  0.0650  0.2056
 4966TIP3    H114862   3.152   5.647   3.244 -0.3181  0.9978 -1.4336
 4966TIP3    H214863   3.136   5.767   3.334 -0.3574 -1.1200  1.5073
 4967TIP3   OH214864   1.568   5.360   1.871 -0.7600  0.0225  0.1680
 4967TIP3    H114865   1.574   5.297   1.798 -1.3671  1.6280 -1.3425
 4967TIP3    H214866   1.627   5.324   1.938  1.4104 -0.5224 -1.8785
 4968TIP3   OH214867   5.689   2.125   0.475 -0.0970 -0.2043  0.0865
 4968TIP3    H114868   5.721   2.215   0.477  1.8353 -0.8603  0.7197
 4968TIP3    H214869   5.752   2.077   0.421  0.7026 -1.7540  2.2028
 4969TIP3   OH214870   4.388   5.774   4.257 -0.5443 -0.6488 -0.3184
 4969TIP3    H114871   4.316   5.810   4.206 -0.4933 -0.1353 -0.0289
 4969TIP3    H214872   4.417   5.846   4.312 -0.3331 -1.0827  0.1442
 4970TIP3   OH214873   1.898   3.118   0.809  0.0247  0.0154  0.4770
 4970TIP3    H114874   1.984   3.155   0.827  0.1377  0.3315 -0.6585
 4970TIP3    H214875   1.905   3.083   0.721 -0.9792 -0.0603  0.4168
 4971TIP3   OH214876   0.433   5.932   4.398  0.0117 -0.3663 -0.3585
 4971TIP3    H114877   0.401   5.845   4.374  0.6695 -0.5507 -0.5661
 4971TIP3    H214878   0.354   5.986   4.400 -0.4799 -1.0920  0.3375
 4972TIP3   OH214879   0.737   6.290   1.398 -0.1435  0.5968  0.7176
 4972TIP3    H114880   0.725   6.263   1.489  0.1941 -0.6534  0.4203
 4972TIP3    H214881   0.758   6.208   1.352 -2.2820  0.8370 -0.8455
 4973TIP3   OH214882   3.062   1.903   3.901  0.0206  0.3721 -0.1462
 4973TIP3    H114883   3.002   1.837   3.935 -0.2835 -0.5592 -2.2952
 4973TIP3    H214884   3.147   1.880   3.939 -0.4926  0.1471  0.9070
 4974TIP3   OH214885   6.655   2.353   0.356  0.0137 -0.2068 -0.4280
 4974TIP3    H114886   6.649   2.257   0.350  0.4910 -0.3607  1.1000
 4974TIP3    H214887   6.566   2.383   0.341 -0.5235 -1.0338  0.9342
 4975TIP3   OH214888   4.733   6.722   4.144 -0.3739 -0.1543  0.0306
 4975TIP3    H114889   4.773   6.777   4.077 -0.2952  0.7587  0.8001
 4975TIP3    H214890   4.712   6.783   4.216  0.6443 -1.2855  1.3372
 4976TIP3   OH214891   6.890   2.154   1.800  0.3272  0.0525  0.2232
 4976TIP3    H114892   6.848   2.077   1.837 -1.9826  1.5974  1.0870
 4976TIP3    H214893   6.876   2.147   1.706 -0.1685 -0.4098  0.3287
 4977TIP3   OH214894   1.801   5.040   5.076 -0.1156  0.4390 -0.2628
 4977TIP3    H114895   1.721   5.089   5.056 -0.4905 -0.6270 -1.5299
 4977TIP3    H214896   1.870   5.087   5.030 -0.1572  0.8433  0.0828
 4978TIP3   OH214897   5.805   1.186   5.648  0.3369  0.3040 -0.3985
 4978TIP3    H114898   5.896   1.174   5.673  0.7690  2.8341 -0.5531
 4978TIP3    H214899   5.774   1.097   5.626  2.4166 -0.7347  0.6496
 4979TIP3   OH214900   0.700   6.764   0.749  0.1728  0.3152  0.3954
 4979TIP3    H114901   0.688   6.713   0.668 -0.3548  0.5766  0.3067
 4979TIP3    H214902   0.669   6.705   0.818  2.9103 -0.8951  0.7225
 4980TIP3   OH214903   5.179   5.032   4.744  0.3665 -0.3520 -0.2379
 4980TIP3    H114904   5.227   5.043   4.662  2.1115 -1.2906  0.6100
 4980TIP3    H214905   5.108   5.096   4.738  1.8736  1.3216 -1.4371
 4981TIP3   OH214906   0.073   2.098   5.198 -0.1232  0.8256 -0.3282
 4981TIP3    H114907   0.079   2.020   5.253  0.4863  0.2547 -1.1712
 4981TIP3    H214908  -0.017   2.099   5.168  0.6449 -1.6866 -3.2357
 4982TIP3   OH214909   3.468   3.514   5.611 -0.1051 -0.1508 -0.6070
 4982TIP3    H114910   3.562   3.497   5.602  0.0477  0.2497  0.1200
 4982TIP3    H214911   3.461   3.609   5.614 -0.5541 -0.1749 -0.8218
 4983TIP3   OH214912   0.793   0.719   1.123  0.4770 -0.5342 -0.1834
 4983TIP3    H114913   0.858   0.774   1.168 -0.7579  1.1987 -0.4330
 4983TIP3    H214914   0.841   0.682   1.048  1.4905 -0.2738  0.3217
 4984TIP3   OH214915   2.114   1.206   5.166 -0.2335  0.0594  0.0166
 4984TIP3    H114916   2.173   1.271   5.128  0.4503  0.2174  1.2705
 4984TIP3    H214917   2.091   1.243   5.251 -0.0921 -1.1830  0.6140
 4985TIP3   OH214918   6.808   6.168   1.820  0.0350 -0.1294 -0.2248
 4985TIP3    H114919   6.782   6.099   1.760 -2.5934  1.7343 -1.4087
 4985TIP3    H214920   6.784   6.135   1.907  1.2016 -1.6699 -0.4380
 4986TIP3   OH214921   4.607   0.589   2.980  0.3810 -0.3697 -0.3732
 4986TIP3    H114922   4.579   0.670   2.938  0.6851  0.2775  0.6270
 4986TIP3    H214923   4.572   0.520   2.925  2.0811  0.4151 -2.5642
 4987TIP3   OH214924   5.955   2.546   4.336 -0.0484  0.6968 -0.0683
 4987TIP3    H114925   5.934   2.628   4.291  0.3796 -0.1497 -1.8595
 4987TIP3    H214926   5.878   2.529   4.391  0.3173  2.8393  1.2298
 4988TIP3   OH214927   0.577   5.841   2.970  0.1476 -0.2073  0.7481
 4988TIP3    H114928   0.590   5.794   3.053  0.4657 -2.1661 -0.3693
 4988TIP3    H214929   0.663   5.881   2.952  0.4716 -0.9250  0.6834
 4989TIP3   OH214930   4.536   1.657   1.271 -0.3277 -0.7185 -0.2327
 4989TIP3    H114931   4.554   1.605   1.192 -0.9273 -1.3054  0.0122
 4989TIP3    H214932   4.616   1.650   1.322 -1.1487 -3.3401  0.8622
 4990TIP3   OH214933   3.371   5.535   4.393  0.0508  0.3592 -0.1313
 4990TIP3    H114934   3.314   5.608   4.417  1.0702  0.8678  0.8314
 4990TIP3    H214935   3.434   5.574   4.332 -0.5142 -0.1679 -1.0787
 4991TIP3   OH214936   1.744   6.095   0.768  0.0814  0.4047 -0.0251
 4991TIP3    H114937   1.651   6.078   0.782  0.0184  0.9152  0.1948
 4991TIP3    H214938   1.754   6.097   0.672 -0.2168  0.7832 -0.0488
 4992TIP3   OH214939   5.854   3.165   0.603  0.1300 -0.1489  0.2097
 4992TIP3    H114940   5.825   3.140   0.515  1.1962 -0.1370 -0.1578
 4992TIP3    H214941   5.898   3.087   0.636  1.0644  0.3425  0.1371
 4993TIP3   OH214942   5.096   4.568   4.303  0.1275 -0.0128  0.0548
 4993TIP3    H114943   5.053   4.490   4.337 -1.5095  1.1047  0.7153
 4993TIP3    H214944   5.025   4.631   4.290  1.5676  2.0470  1.4470
 4994TIP3   OH214945   7.189   0.776   1.951  0.4074  0.1248  0.6040
 4994TIP3    H114946   7.148   0.833   2.017 -0.3275 -0.3802  0.5993
 4994TIP3    H214947   7.184   0.688   1.989  0.6459 -0.0722  0.1892
 4995TIP3   OH214948   4.189   0.447   3.070 -0.0791  0.0724 -0.2862
 4995TIP3    H114949   4.211   0.440   2.977  0.2276  0.3960 -0.2429
 4995TIP3    H214950   4.132   0.524   3.075  1.0516  0.9282 -0.0247
 4996TIP3   OH214951   5.892   3.099   2.792  0.0862  0.1608  0.3570
 4996TIP3    H114952   5.912   3.114   2.699  0.5466 -0.2166  0.3910
 4996TIP3    H214953   5.882   3.187   2.828  0.2805  0.3245  0.0261
 4997TIP3   OH214954   0.918   3.213   0.222  0.5449  0.4503  0.5061
 4997TIP3    H114955   0.919   3.224   0.317 -0.5231 -0.6181  0.6613
 4997TIP3    H214956   0.914   3.303   0.188  1.7226  0.8787  1.4285
 4998TIP3   OH214957   3.782   0.225   2.628  0.4625 -0.6286 -0.1901
 4998TIP3    H114958   3.701   0.260   2.664 -0.3572 -0.5094 -2.0062
 4998TIP3    H214959   3.757   0.140   2.592  1.0351 -0.4101 -1.1376
 4999TIP3   OH214960   2.440   5.674   4.721  0.2817 -0.2857 -0.3859
 4999TIP3    H114961   2.512   5.726   4.686  0.3368 -0.3093 -0.3102
 4999TIP3    H214962   2.446   5.589   4.677  0.4256 -0.3569 -0.2313
 5000TIP3   OH214963   6.295   5.137   1.630  0.0185 -0.0538 -0.0971
 5000TIP3    H114964   6.353   5.133   1.554  0.0503 -0.8901 -0.0469
 5000TIP3    H214965   6.242   5.215   1.618  1.1455  0.7181 -0.1619
 5001TIP3   OH214966   5.214   2.393   0.460 -0.2246 -0.0915 -0.4362
 5001TIP3    H114967   5.289   2.367   0.513 -0.4699  1.1009  0.5517
 5001TIP3    H214968   5.213   2.331   0.387  0.1805 -1.7365  0.8958
 5002TIP3   OH214969   2.767   0.814   1.555  0.5495  0.2100  0.0279
 5002TIP3    H114970   2.839   0.772   1.602  0.7866 -0.0213 -0.5371
 5002TIP3    H214971   2.705   0.742   1.538  1.1378  0.0038 -1.2869
 5003TIP3   OH214972   1.174   2.602   5.352  0.0704 -0.4523  0.0586
 5003TIP3    H114973   1.188   2.695   5.368  1.2846 -0.8173  1.2815
 5003TIP3    H214974   1.146   2.597   5.260  1.9991  0.9403 -0.6552
 5004TIP3   OH214975   3.900   2.355   4.424  0.1037  0.6471  0.0071
 5004TIP3    H114976   3.944   2.274   4.447 -1.4528 -0.2890 -0.1466
 5004TIP3    H214977   3.970   2.420   4.418  1.5297 -0.9000 -0.9180
 5005TIP3   OH214978   6.436   0.364   0.581 -0.6083 -0.0092 -0.0012
 5005TIP3    H114979   6.370   0.296   0.593  0.3561 -0.7299  1.6498
 5005TIP3    H214980   6.457   0.362   0.488 -1.4521 -1.1610 -0.1864
 5006TIP3   OH214981   7.216   4.649   2.130 -0.0060 -0.1241  0.1182
 5006TIP3    H114982   7.149   4.648   2.198 -1.1534  2.4561 -0.8763
 5006TIP3    H214983   7.186   4.714   2.067  2.7416  0.0796 -1.1212
 5007TIP3   OH214984   3.726   0.572   0.299  0.1680  0.1903  0.4048
 5007TIP3    H114985   3.735   0.560   0.394 -0.0613 -2.6401  0.1456
 5007TIP3    H214986   3.812   0.600   0.270  1.4206 -2.6032  1.0686
 5008TIP3   OH214987   2.856   3.675   2.999 -0.4694  0.1421  0.4267
 5008TIP3    H114988   2.907   3.688   3.079  1.0950 -1.2334 -0.3013
 5008TIP3    H214989   2.912   3.707   2.929 -0.1786 -2.1800 -0.4872
 5009TIP3   OH214990   3.586   0.284   5.557 -0.4793 -0.4524 -0.4934
 5009TIP3    H114991   3.599   0.361   5.502  0.4360 -0.6265 -0.5509
 5009TIP3    H214992   3.506   0.243   5.524 -1.6781  1.1286  0.3532
 5010TIP3   OH214993   4.343   0.665   4.872  0.0235 -0.6995 -0.0565
 5010TIP3    H114994   4.404   0.614   4.818  0.5842 -1.0782  0.8960
 5010TIP3    H214995   4.379   0.754   4.871 -1.3296 -0.1059 -2.2769
 5011TIP3   OH214996   2.146   0.874   4.169  0.2397 -0.0787  0.3376
 5011TIP3    H114997   2.148   0.937   4.241 -2.9483 -0.6674  1.0987
 5011TIP3    H214998   2.075   0.906   4.113 -0.1707 -1.9543 -0.2631
 5012TIP3   OH214999   1.593   5.033   5.321  0.6097  0.0434  0.1157
 5012TIP3    H115000   1.652   5.099   5.283  0.6652  0.1552  0.3979
 5012TIP3    H215001   1.649   4.957   5.337  0.7561  0.2734  0.7187
 5013TIP3   OH215002   3.852   5.211   3.201  0.2825  0.1663  0.1029
 5013TIP3    H115003   3.933   5.164   3.183  0.1423  0.1300 -0.4537
 5013TIP3    H215004   3.852   5.284   3.138  1.0612  1.6207  1.6963
 5014TIP3   OH215005   2.971   6.021   0.034 -0.4135  0.1695 -0.4252
 5014TIP3    H115006   3.011   5.947  -0.012  0.1783  1.1908 -1.6144
 5014TIP3    H215007   2.931   5.982   0.112  2.3699 -0.9999  0.5471
 5015TIP3   OH215008   5.123   1.725   4.011  0.7469  0.1231  0.3174
 5015TIP3    H115009   5.137   1.669   3.935  1.2331  0.9422 -0.2080
 5015TIP3    H215010   5.125   1.814   3.976  0.1793  0.4840  1.1695
 5016TIP3   OH215011   1.302   4.805   1.877 -0.5310 -0.0378  0.1950
 5016TIP3    H115012   1.338   4.880   1.924 -1.6140  0.6416 -0.0373
 5016TIP3    H215013   1.377   4.771   1.827 -0.2727  1.5982 -0.5979
 5017TIP3   OH215014   3.673   6.141   5.787 -0.6288 -0.4566 -0.3421
 5017TIP3    H115015   3.717   6.098   5.714  0.5523 -1.2521  0.7985
 5017TIP3    H215016   3.682   6.234   5.769  3.3540 -0.4389  0.7378
 5018TIP3   OH215017   0.754   6.777   1.562 -0.0883  0.3891 -0.0652
 5018TIP3    H115018   0.705   6.855   1.588  2.1278  1.3259  1.5987
 5018TIP3    H215019   0.737   6.714   1.631 -1.8260 -0.6995 -1.3765
 5019TIP3   OH215020   2.339   0.377   1.699  0.4845  0.3217 -0.1529
 5019TIP3    H115021   2.381   0.315   1.759  1.0441  0.1053 -0.7667
 5019TIP3    H215022   2.279   0.322   1.648  1.6744  0.1116 -1.3510
 5020TIP3   OH215023   1.704   4.931   4.400  0.1369  0.1561 -0.7046
 5020TIP3    H115024   1.759   5.005   4.374  0.2470  0.2170 -0.3051
 5020TIP3    H215025   1.758   4.881   4.461  0.1444 -0.3790 -1.1413
 5021TIP3   OH215026   2.966   4.696   1.750  0.2556  0.1028 -0.4537
 5021TIP3    H115027   2.945   4.670   1.660  0.3321  0.3160 -0.5325
 5021TIP3    H215028   3.024   4.627   1.782 -0.8687 -0.7170 -0.0987
 5022TIP3   OH215029   5.173   3.406   0.793 -0.0505 -0.7755 -0.5635
 5022TIP3    H115030   5.215   3.492   0.786 -1.4156 -0.0723 -0.4811
 5022TIP3    H215031   5.211   3.367   0.871  0.9018 -0.4448 -0.8363
 5023TIP3   OH215032   1.812   1.961   5.097  0.1815  0.3718 -0.1436
 5023TIP3    H115033   1.822   2.048   5.060 -1.1844  1.4070  1.7806
 5023TIP3    H215034   1.869   1.960   5.173 -0.5836 -0.0427  0.4385
 5024TIP3   OH215035   6.637   3.322   2.501 -0.5330 -0.1142  0.1100
 5024TIP3    H115036   6.622   3.407   2.461  1.7440 -1.0598 -3.1230
 5024TIP3    H215037   6.557   3.273   2.485 -1.4806  1.0396  1.1227
 5025TIP3   OH215038   4.645   6.624   1.361  0.1426  0.0819  0.2356
 5025TIP3    H115039   4.687   6.600   1.443  2.3902  2.1742 -0.1667
 5025TIP3    H215040   4.691   6.573   1.294  2.3085  2.3898 -0.2083
 5026TIP3   OH215041   5.573   3.434   5.464  0.2707  0.3843 -0.9749
 5026TIP3    H115042   5.665   3.452   5.445  0.7685  0.0928  0.9864
 5026TIP3    H215043   5.545   3.378   5.391  2.5643 -2.1681 -0.0836
 5027TIP3   OH215044   5.615   1.138   3.458 -0.2294  0.6509  0.7138
 5027TIP3    H115045   5.703   1.176   3.450 -0.0392  0.2384  0.8322
 5027TIP3    H215046   5.617   1.088   3.539  0.3884 -1.8126 -0.6938
 5028TIP3   OH215047   0.438   5.510   0.397  0.6035 -0.5843  0.0305
 5028TIP3    H115048   0.422   5.589   0.448  2.0009  1.6604 -2.7055
 5028TIP3    H215049   0.486   5.452   0.456 -1.1717  0.1995  2.3840
 5029TIP3   OH215050   3.050   2.140   5.046  0.3624 -0.2813  0.4271
 5029TIP3    H115051   3.113   2.173   5.110 -0.6506  1.0570  0.8001
 5029TIP3    H215052   2.998   2.217   5.022 -3.3559 -1.7968  2.6724
 5030TIP3   OH215053   6.408   3.887   5.667 -0.5952 -0.7554 -0.2523
 5030TIP3    H115054   6.397   3.973   5.626  0.8036  0.1611  1.1818
 5030TIP3    H215055   6.501   3.869   5.659 -0.3135 -0.6830  2.1529
 5031TIP3   OH215056   4.320   6.762   3.555  0.0632 -0.0980 -0.2672
 5031TIP3    H115057   4.250   6.763   3.490  0.0028  1.1305 -0.1973
 5031TIP3    H215058   4.344   6.669   3.562 -2.4942 -0.7601  0.7304
 5032TIP3   OH215059   4.044   5.067   0.128  0.1262 -1.0022 -0.3885
 5032TIP3    H115060   4.038   5.089   0.221  0.5978  0.3381 -0.6492
 5032TIP3    H215061   3.970   5.008   0.112  1.1435 -2.8207  1.2218
 5033TIP3   OH215062   5.705   3.755   2.581  0.3783 -0.1755  0.2096
 5033TIP3    H115063   5.732   3.666   2.559 -0.9404 -0.9309  1.4654
 5033TIP3    H215064   5.729   3.765   2.674 -0.8619  0.2117  0.5003
 5034TIP3   OH215065   3.315   2.339   3.225 -0.1391  0.1797  0.5174
 5034TIP3    H115066   3.293   2.294   3.306  1.6873  0.2734  1.1147
 5034TIP3    H215067   3.395   2.296   3.195  1.6135  2.8326  1.0205
 5035TIP3   OH215068   5.912   1.436   2.955 -0.7094 -0.0799 -0.1618
 5035TIP3    H115069   5.840   1.484   2.913  0.1755  0.2670 -1.3328
 5035TIP3    H215070   5.920   1.476   3.042 -2.2173 -0.4318  0.1602
 5036TIP3   OH215071   6.516   6.376   2.340  0.2413 -0.2710  0.1233
 5036TIP3    H115072   6.466   6.359   2.419 -1.9714  0.3930 -1.0544
 5036TIP3    H215073   6.462   6.341   2.269  1.6286  0.1537 -1.2075
 5037TIP3   OH215074   5.168   3.265   1.299 -0.1050 -0.1462  0.1920
 5037TIP3    H115075   5.199   3.179   1.330 -0.8587  0.3036  2.3360
 5037TIP3    H215076   5.202   3.327   1.364 -0.8523  1.0059 -0.4956
 5038TIP3   OH215077   2.503   0.983   4.075 -0.1921  0.4683 -0.0396
 5038TIP3    H115078   2.571   1.007   4.139 -0.2547  1.9710 -0.5065
 5038TIP3    H215079   2.454   1.064   4.060 -1.4775 -0.3565 -0.4649
 5039TIP3   OH215080   3.535   6.568   3.634  0.0436  0.2964 -0.6208
 5039TIP3    H115081   3.504   6.558   3.724  2.3157 -0.6219  0.1188
 5039TIP3    H215082   3.521   6.661   3.615 -3.0990 -0.0342 -0.4176
 5040TIP3   OH215083   5.295   2.892   2.728 -0.2675  0.8350 -0.1165
 5040TIP3    H115084   5.236   2.951   2.776  0.5425  0.3740  1.5066
 5040TIP3    H215085   5.237   2.826   2.690 -0.8135  0.0734  1.9177
 5041TIP3   OH215086   0.773   1.381   4.503 -0.1786  0.4987  0.0655
 5041TIP3    H115087   0.792   1.327   4.579  2.2557 -1.4321 -1.7585
 5041TIP3    H215088   0.848   1.440   4.495 -0.8992  1.4121 -0.3025
 5042TIP3   OH215089   2.794   3.036   1.835 -0.4011 -0.1907  0.1727
 5042TIP3    H115090   2.783   3.004   1.924 -1.2623 -1.3978 -0.3363
 5042TIP3    H215091   2.705   3.058   1.807 -0.5306 -2.2013 -1.2143
 5043TIP3   OH215092   1.056   5.379   4.701 -0.1410  0.6588  0.2123
 5043TIP3    H115093   1.001   5.453   4.675 -0.3996  0.9468  1.4705
 5043TIP3    H215094   1.128   5.420   4.749 -0.4750  0.0872  1.2290
 5044TIP3   OH215095   3.244   5.467   2.813 -0.4367  0.3953 -0.3453
 5044TIP3    H115096   3.200   5.431   2.891  0.1409  0.5018  0.0306
 5044TIP3    H215097   3.337   5.465   2.835 -0.1025 -1.2624 -1.7221
 5045TIP3   OH215098   2.076   6.402   1.888  0.1971  0.4509  0.6344
 5045TIP3    H115099   2.104   6.311   1.896  1.8784  0.7642 -1.0512
 5045TIP3    H215100   1.982   6.397   1.874  0.1099 -0.9455  1.5096
 5046TIP3   OH215101   2.817   5.673   3.287  0.2796 -0.1372 -0.0545
 5046TIP3    H115102   2.727   5.692   3.315  0.4551  0.6363 -0.0120
 5046TIP3    H215103   2.830   5.726   3.209  0.6561 -0.3511 -0.1394
 5047TIP3   OH215104   2.435   5.208   0.516  0.3501 -0.5637 -0.4741
 5047TIP3    H115105   2.502   5.275   0.528  1.0529 -1.3548  0.1508
 5047TIP3    H215106   2.395   5.229   0.431  1.0148  0.2367 -0.6055
 5048TIP3   OH215107   5.204   4.437   0.101 -0.3044  0.3616 -0.0080
 5048TIP3    H115108   5.174   4.455   0.190  0.3779 -0.5947  0.4414
 5048TIP3    H215109   5.248   4.352   0.108  0.7295  0.7853 -1.0312
 5049TIP3   OH215110   3.489   5.285   5.863 -0.4433  0.3077  0.5299
 5049TIP3    H115111   3.497   5.349   5.792  0.7321  0.1124  0.4774
 5049TIP3    H215112   3.575   5.282   5.904 -0.9723  0.0516  1.6673
 5050TIP3   OH215113   5.183   0.797   0.432 -0.2081  0.0766 -0.3334
 5050TIP3    H115114   5.178   0.795   0.527 -0.2942 -1.0383 -0.3431
 5050TIP3    H215115   5.189   0.890   0.410 -0.7727  0.3786  0.7225
 5051TIP3   OH215116   1.065   0.978   3.499 -0.0430  0.4725  0.0819
 5051TIP3    H115117   1.147   1.011   3.460 -0.5354  1.8110  0.1226
 5051TIP3    H215118   1.065   0.885   3.478  1.2469  0.5453 -0.3676
 5052TIP3   OH215119   4.861   1.372   2.438 -0.3143 -0.0090 -0.2530
 5052TIP3    H115120   4.941   1.420   2.459  1.0998 -1.2798 -2.4009
 5052TIP3    H215121   4.837   1.329   2.520  0.8061  0.9124  0.5983
 5053TIP3   OH215122   3.669   0.115   1.094 -0.0683 -0.2059 -0.3475
 5053TIP3    H115123   3.635   0.046   1.036  1.5666 -2.1364  0.8348
 5053TIP3    H215124   3.752   0.079   1.127 -0.1483  1.4705  1.9164
 5054TIP3   OH215125   0.875   5.177   1.105  0.6250 -0.2226 -0.0689
 5054TIP3    H115126   0.860   5.159   1.198  0.9638  0.8193  0.1985
 5054TIP3    H215127   0.869   5.091   1.063 -2.3831 -0.3973  0.5065
 5055TIP3   OH215128   4.382   3.098   1.615  0.8727  0.1294 -0.0914
 5055TIP3    H115129   4.368   3.149   1.535 -1.8073  0.8241  0.7260
 5055TIP3    H215130   4.373   3.162   1.686  0.5802 -0.9393  0.8557
 5056TIP3   OH215131   0.784   4.559   3.618 -0.4549  0.2046 -0.1432
 5056TIP3    H115132   0.856   4.529   3.674 -1.1876 -0.7689  0.3213
 5056TIP3    H215133   0.708   4.510   3.650 -1.0396  0.1771 -1.5171
 5057TIP3   OH215134   5.555   3.125   5.800 -0.1365 -0.1122  0.2186
 5057TIP3    H115135   5.582   3.144   5.890 -0.5924  1.5127  0.0495
 5057TIP3    H215136   5.636   3.122   5.751  0.0052  1.2529  0.3198
 5058TIP3   OH215137  -0.009   4.288   4.318 -0.4197  0.0224 -0.5819
 5058TIP3    H115138   0.068   4.294   4.262  0.8685 -1.0812  0.9976
 5058TIP3    H215139   0.020   4.319   4.404 -1.7070 -0.4946  0.0792
 5059TIP3   OH215140   5.443   6.010   3.678 -0.0922 -0.5219  0.3513
 5059TIP3    H115141   5.451   5.955   3.600  0.9678 -3.0630  2.1254
 5059TIP3    H215142   5.349   6.026   3.687 -0.4906 -2.3875 -0.0798
 5060TIP3   OH215143   2.041   1.458   3.931 -0.3334  0.2195 -0.5615
 5060TIP3    H115144   2.099   1.406   3.875  0.1181  0.1286 -0.0090
 5060TIP3    H215145   2.095   1.483   4.006 -1.2918 -0.8204  0.5233
 5061TIP3   OH215146   2.178   4.396   5.648 -0.6298  0.0048  0.1067
 5061TIP3    H115147   2.180   4.389   5.743 -1.3343  1.1779  0.2181
 5061TIP3    H215148   2.244   4.462   5.627  0.0641 -0.7917 -0.2919
 5062TIP3   OH215149   0.311   5.434   4.351 -0.4129 -0.0500 -0.1588
 5062TIP3    H115150   0.249   5.419   4.422  0.7248 -2.0951  0.5035
 5062TIP3    H215151   0.306   5.355   4.298  1.5264 -0.2657 -0.1142
 5063TIP3   OH215152   6.998   2.875   1.044  0.1840 -0.0722  0.3504
 5063TIP3    H115153   6.999   2.900   1.137  0.0231  0.2498  0.2674
 5063TIP3    H215154   7.086   2.841   1.027  0.7540  1.4220  0.2035
 5064TIP3   OH215155   3.800   0.091   5.337 -0.5495 -0.4389 -0.0133
 5064TIP3    H115156   3.705   0.082   5.349 -0.4627 -0.0873  0.9608
 5064TIP3    H215157   3.814   0.185   5.326 -0.4440 -0.5987 -1.4484
 5065TIP3   OH215158   5.947   0.324   1.599  0.6310  0.4571 -0.6700
 5065TIP3    H115159   5.997   0.396   1.561  2.6590  0.0745  1.1241
 5065TIP3    H215160   5.936   0.262   1.527  1.7022  1.0934 -1.4059
 5066TIP3   OH215161   0.085   2.307   0.822  0.5604  0.0614  0.0645
 5066TIP3    H115162   0.039   2.387   0.796  2.3091  0.2560 -2.9648
 5066TIP3    H215163   0.115   2.324   0.911 -2.2797  1.2152  0.8850
 5067TIP3   OH215164   4.637   2.541   1.794  0.0620 -0.2402 -0.7587
 5067TIP3    H115165   4.686   2.557   1.713 -0.1077 -1.1002 -1.0442
 5067TIP3    H215166   4.604   2.627   1.819 -0.7779 -0.1104 -2.1854
 5068TIP3   OH215167   3.875   2.865   0.142 -0.3145  0.1128 -0.4302
 5068TIP3    H115168   3.920   2.936   0.096  0.5416  0.0488  0.2769
 5068TIP3    H215169   3.934   2.790   0.133 -0.1547  0.0832  0.7010
 5069TIP3   OH215170   6.177   5.319   2.117 -0.6783  0.4800 -0.2115
 5069TIP3    H115171   6.177   5.259   2.042  2.2162  0.8439 -0.6210
 5069TIP3    H215172   6.152   5.264   2.192  2.8932 -1.7185 -0.3734
 5070TIP3   OH215173   1.119   5.520   3.844  0.5280 -0.2923  0.1517
 5070TIP3    H115174   1.205   5.553   3.871 -0.6133  2.4788  0.7903
 5070TIP3    H215175   1.064   5.532   3.921 -1.2214  1.3949 -1.2661
 5071TIP3   OH215176   2.669   1.684   3.146 -0.2862  0.7384  0.2165
 5071TIP3    H115177   2.634   1.634   3.072 -0.5758 -0.0399  0.8727
 5071TIP3    H215178   2.748   1.726   3.111 -0.9742  1.1953 -0.8124
 5072TIP3   OH215179   5.581   4.090   4.485 -0.7058 -0.5831  0.1614
 5072TIP3    H115180   5.504   4.043   4.454  0.6594 -1.6043 -1.9300
 5072TIP3    H215181   5.626   4.117   4.405  1.5022 -0.7300  1.2900
 5073TIP3   OH215182   6.014   2.110   0.630 -0.1790 -0.4577  0.0611
 5073TIP3    H115183   5.973   2.193   0.605 -0.1618 -0.3640  0.3328
 5073TIP3    H215184   6.036   2.068   0.548  0.8463  0.3141 -0.0835
 5074TIP3   OH215185   3.378   3.926   0.133  0.6170 -0.1589 -0.0484
 5074TIP3    H115186   3.386   3.859   0.065 -2.7990 -1.0986  0.3282
 5074TIP3    H215187   3.425   3.890   0.207  0.9442 -0.9793 -0.6383
 5075TIP3   OH215188   6.501   5.675   4.911  0.4950 -0.1461  0.4812
 5075TIP3    H115189   6.584   5.721   4.902 -1.4319  3.4666 -0.9247
 5075TIP3    H215190   6.480   5.681   5.004  1.6257 -0.8890  0.8046
 5076TIP3   OH215191   1.350   3.737   2.521 -0.2193  0.2707  0.3150
 5076TIP3    H115192   1.428   3.703   2.477  0.7158  2.5348  0.0801
 5076TIP3    H215193   1.298   3.776   2.450 -0.0826  1.4221  0.8285
 5077TIP3   OH215194   4.169   1.747   0.535  0.4231 -0.0101 -0.2417
 5077TIP3    H115195   4.159   1.693   0.613  0.7129  1.8923  1.1823
 5077TIP3    H215196   4.083   1.747   0.494  0.0893 -0.4793  0.4437
 5078TIP3   OH215197   0.041   5.043   4.075 -0.4727 -0.3236 -0.0009
 5078TIP3    H115198   0.043   5.093   4.156  0.6390 -1.4293  0.6766
 5078TIP3    H215199   0.064   4.954   4.100  1.5763 -0.3656 -1.7662
 5079TIP3   OH215200   5.836   0.669   1.237  0.1128 -0.3348  0.2047
 5079TIP3    H115201   5.828   0.632   1.149 -3.2841 -1.5887  0.8946
 5079TIP3    H215202   5.838   0.593   1.295  0.2791  0.4885  1.3057
 5080TIP3   OH215203   1.470   1.188   2.831  0.1838 -0.5934  0.3622
 5080TIP3    H115204   1.396   1.134   2.861 -1.5532  1.2802 -0.2983
 5080TIP3    H215205   1.473   1.260   2.894  1.1766 -0.4029  0.1097
 5081TIP3   OH215206   1.802   0.132   2.720 -0.2060 -0.0422 -0.3497
 5081TIP3    H115207   1.720   0.164   2.757  0.1745  0.0420  0.4425
 5081TIP3    H215208   1.810   0.178   2.636  0.1264  1.6726  0.5708
 5082TIP3   OH215209   4.062   1.697   3.298 -0.4092 -0.1790 -0.0119
 5082TIP3    H115210   3.967   1.706   3.303 -0.3381 -0.2198  2.4094
 5082TIP3    H215211   4.096   1.780   3.332  0.4420 -0.0765 -1.0564
 5083TIP3   OH215212   3.617   5.357   5.080  0.4101 -0.1697 -0.1750
 5083TIP3    H115213   3.547   5.336   5.140  0.8760  0.7819  0.7272
 5083TIP3    H215214   3.661   5.273   5.063  0.4202 -0.4105  1.0035
 5084TIP3   OH215215   7.209   1.157   3.243  0.2110  0.1019 -0.4296
 5084TIP3    H115216   7.164   1.234   3.209  0.5381  0.4428 -0.1042
 5084TIP3    H215217   7.179   1.150   3.334  1.7561  1.0964  0.2079
 5085TIP3   OH215218   2.213   2.344   5.306 -0.4079  0.7098  0.4330
 5085TIP3    H115219   2.227   2.393   5.387 -0.4585 -0.5473  1.2156
 5085TIP3    H215220   2.250   2.257   5.323 -0.0110  0.5585 -1.0524
 5086TIP3   OH215221   0.425   5.782   0.920  0.0093 -0.4203 -0.2489
 5086TIP3    H115222   0.448   5.837   0.846 -2.2893  0.0449 -0.6975
 5086TIP3    H215223   0.412   5.843   0.993 -1.0063 -0.5029 -0.3460
 5087TIP3   OH215224   0.306   4.940   0.960 -0.2980  0.0153 -0.1519
 5087TIP3    H115225   0.293   4.994   0.882 -0.4078 -0.5614 -0.5395
 5087TIP3    H215226   0.253   4.862   0.944 -1.3492  0.4395  1.0587
 5088TIP3   OH215227   5.748   6.565   2.592 -0.2621  0.6617  0.4045
 5088TIP3    H115228   5.793   6.585   2.675  1.3226 -0.8798 -0.0229
 5088TIP3    H215229   5.752   6.470   2.585  0.0910  0.7874 -1.6697
 5089TIP3   OH215230   2.755   6.051   0.816 -0.0697 -0.6590  0.4595
 5089TIP3    H115231   2.778   5.965   0.781  1.2743 -0.3232  0.4652
 5089TIP3    H215232   2.833   6.105   0.803  0.0759 -0.1678  2.8294
 5090TIP3   OH215233   0.262   4.251   3.962  0.2572 -0.5597  0.0569
 5090TIP3    H115234   0.167   4.256   3.964  0.2407 -0.7505  1.9196
 5090TIP3    H215235   0.283   4.210   3.878 -1.3572 -1.5930  0.1258
 5091TIP3   OH215236   6.426   2.553   2.980 -0.1203  0.2822  1.0576
 5091TIP3    H115237   6.363   2.625   2.985 -1.2388 -0.5204 -0.7444
 5091TIP3    H215238   6.431   2.532   2.887  2.2110 -0.2481  1.2387
 5092TIP3   OH215239   2.464   3.172   0.976  0.4843  0.1633  0.0701
 5092TIP3    H115240   2.404   3.101   0.999  1.5312 -0.2505  1.7961
 5092TIP3    H215241   2.424   3.215   0.901 -1.2663 -0.9213  0.3247
 5093TIP3   OH215242   4.111   5.647   4.090  0.0473  0.6247 -0.0806
 5093TIP3    H115243   4.092   5.577   4.152 -0.9822 -0.7674 -1.8406
 5093TIP3    H215244   4.031   5.699   4.086 -1.1509 -1.2032 -2.4912
 5094TIP3   OH215245   2.801   4.398   2.593  0.3329 -0.0198  0.3753
 5094TIP3    H115246   2.708   4.417   2.601  0.2154 -0.4349  0.0334
 5094TIP3    H215247   2.844   4.468   2.642 -0.1213  0.6604 -0.1903
 5095TIP3   OH215248   7.050   3.280   0.921 -0.0045  0.1451  0.1202
 5095TIP3    H115249   7.128   3.286   0.865 -0.1212  3.6795  0.1423
 5095TIP3    H215250   6.984   3.240   0.864  0.8539  0.3754 -1.0979
 5096TIP3   OH215251   0.978   0.420   0.175  0.3347  0.6325  0.3018
 5096TIP3    H115252   0.932   0.450   0.254  0.5632  2.6702 -0.2746
 5096TIP3    H215253   0.947   0.331   0.162 -4.1192  1.9820 -0.4083
 5097TIP3   OH215254   0.526   1.134   2.806  0.3307  0.1296  0.3457
 5097TIP3    H115255   0.487   1.212   2.766  1.9622  1.5915  1.4456
 5097TIP3    H215256   0.608   1.122   2.758  1.5769  1.0031  2.1287
 5098TIP3   OH215257   3.002   4.797   1.247 -0.0853  0.2839 -0.4352
 5098TIP3    H115258   3.054   4.721   1.220  1.8487  0.5473  2.1460
 5098TIP3    H215259   3.064   4.854   1.293 -2.1422  1.8705  0.5804
 5099TIP3   OH215260   2.451   3.737   0.875 -0.5528  0.5310  0.2789
 5099TIP3    H115261   2.389   3.734   0.802 -0.8441  2.0533  0.4354
 5099TIP3    H215262   2.408   3.687   0.945 -1.0792  0.5893  0.0005
 5100TIP3   OH215263   1.721   1.228   1.421 -0.2066 -0.5749  0.1771
 5100TIP3    H115264   1.760   1.285   1.355 -0.3096 -2.1241 -1.2886
 5100TIP3    H215265   1.791   1.217   1.486  0.8453 -1.0365 -0.9801
 5101TIP3   OH215266   2.588   4.115   2.437 -0.3006  0.5203  0.7675
 5101TIP3    H115267   2.630   4.038   2.399 -2.6016 -0.0924 -0.7048
 5101TIP3    H215268   2.652   4.185   2.425 -0.1813 -0.0207 -2.7865
 5102TIP3   OH215269   3.427   2.796   4.725 -0.8794  0.5770  0.3739
 5102TIP3    H115270   3.344   2.791   4.773 -1.4002  1.3030 -0.4136
 5102TIP3    H215271   3.491   2.819   4.792 -1.2011 -0.5608  1.0990
 5103TIP3   OH215272   3.487   0.217   0.601  0.5694 -0.2747 -0.0703
 5103TIP3    H115273   3.392   0.221   0.610  0.4808 -1.7716 -0.1211
 5103TIP3    H215274   3.504   0.241   0.510  0.4729  2.3485  0.5135
 5104TIP3   OH215275   3.147   6.555   3.960  0.7120 -0.6170 -0.1842
 5104TIP3    H115276   3.073   6.595   3.914  1.9822  1.5392 -0.5272
 5104TIP3    H215277   3.118   6.549   4.051  0.1610  0.3695 -0.2798
 5105TIP3   OH215278   3.860   3.577   1.892  0.2668 -0.1109 -0.0312
 5105TIP3    H115279   3.852   3.667   1.923  0.4052 -0.8502  2.3925
 5105TIP3    H215280   3.928   3.581   1.824 -1.6838  1.9925 -2.0130
 5106TIP3   OH215281   5.657   0.881   2.320 -0.3212 -0.1716  0.3183
 5106TIP3    H115282   5.748   0.870   2.346 -0.0622 -2.2898 -1.2363
 5106TIP3    H215283   5.660   0.938   2.243 -0.3696  0.0665  0.4894
 5107TIP3   OH215284   6.296   0.361   3.491 -0.4726 -0.2553  0.4204
 5107TIP3    H115285   6.306   0.453   3.512 -1.0812 -0.2079  0.5357
 5107TIP3    H215286   6.301   0.316   3.576  0.7409 -0.4242  0.2732
 5108TIP3   OH215287   0.076   4.219   0.753 -0.2488  0.2657 -0.0931
 5108TIP3    H115288   0.095   4.292   0.694 -1.2576 -0.3826 -1.2799
 5108TIP3    H215289  -0.002   4.178   0.716  1.2073 -2.4357 -0.4332
 5109TIP3   OH215290   3.557   5.661   5.621  0.0348 -0.3844 -0.2859
 5109TIP3    H115291   3.621   5.593   5.641 -0.3232 -0.6806 -0.1331
 5109TIP3    H215292   3.554   5.716   5.699  0.3202 -0.1969 -0.4071
 5110TIP3   OH215293   3.111   3.971   4.844  0.1845  0.1152  0.3041
 5110TIP3    H115294   3.121   3.969   4.939 -1.7644 -0.4083  0.5452
 5110TIP3    H215295   3.017   3.987   4.830  0.2900 -0.6123 -1.5257
 5111TIP3   OH215296   1.443   4.898   5.080 -0.0373  0.0284  0.1065
 5111TIP3    H115297   1.351   4.880   5.100  0.0083 -1.4276 -0.8568
 5111TIP3    H215298   1.469   4.964   5.145 -1.4266 -0.3744  1.1213
 5112TIP3   OH215299   5.740   1.423   2.376 -0.1737  0.0347 -0.0140
 5112TIP3    H115300   5.682   1.361   2.419 -1.2524  1.3389  0.4685
 5112TIP3    H215301   5.805   1.445   2.443 -0.3600  0.1630  0.1234
 5113TIP3   OH215302   0.404   0.601   1.543 -0.2178  0.8903  0.5284
 5113TIP3    H115303   0.368   0.662   1.479  3.6400  1.1581 -1.6456
 5113TIP3    H215304   0.404   0.517   1.498 -0.5538  0.3405  1.5206
 5114TIP3   OH215305   5.708   1.340   0.982 -0.4997 -0.3355  0.1221
 5114TIP3    H115306   5.694   1.254   0.942 -0.1162 -0.0571 -0.6322
 5114TIP3    H215307   5.802   1.357   0.970 -0.5206  0.0633  0.5082
 5115TIP3   OH215308   6.749   0.535   1.824  0.7266 -0.1699 -0.0636
 5115TIP3    H115309   6.843   0.528   1.811  0.6530 -0.7262 -0.3310
 5115TIP3    H215310   6.716   0.569   1.741  0.4272 -2.2880 -0.8694
 5116TIP3   OH215311   0.801   5.015   2.729 -0.5252 -0.4957  1.0161
 5116TIP3    H115312   0.843   5.048   2.650 -0.1736  0.2748  1.5097
 5116TIP3    H215313   0.735   4.953   2.698  0.7094 -1.4417  0.2203
 5117TIP3   OH215314   7.188   6.000   2.465  0.1564 -0.1672 -0.1175
 5117TIP3    H115315   7.248   5.974   2.534 -0.8524 -1.6602  0.2396
 5117TIP3    H215316   7.105   6.014   2.509  0.2517  2.1859 -0.5605
 5118TIP3   OH215317   1.940   5.970   3.030  0.1688  0.0922 -0.0133
 5118TIP3    H115318   1.974   5.881   3.034  2.5748  0.7388 -2.6727
 5118TIP3    H215319   1.860   5.962   2.977 -0.5058 -0.6375  1.0724
 5119TIP3   OH215320   0.192   1.426   1.193 -0.3112 -0.4044 -0.6506
 5119TIP3    H115321   0.194   1.515   1.228  0.2201 -1.6629  2.9331
 5119TIP3    H215322   0.284   1.399   1.192 -0.6123 -1.5540  0.3247
 5120TIP3   OH215323   5.254   6.428   3.089  0.4260  0.5101  0.0584
 5120TIP3    H115324   5.161   6.404   3.089  0.3303  0.8924  0.1667
 5120TIP3    H215325   5.269   6.464   3.001  0.6668 -0.3129 -0.2486
 5121TIP3   OH215326   2.104   5.070   4.238  0.1732 -0.3371 -0.2343
 5121TIP3    H115327   2.134   5.054   4.328 -0.7431  0.4676  0.2384
 5121TIP3    H215328   2.064   5.157   4.242 -0.4304 -0.5559 -1.2854
 5122TIP3   OH215329   5.739   6.038   2.922  0.8235  0.6805 -0.2778
 5122TIP3    H115330   5.795   6.113   2.939  0.1333  1.3546 -0.8745
 5122TIP3    H215331   5.727   5.997   3.007  1.7395  0.8607 -0.0515
 5123TIP3   OH215332   2.411   4.745   3.561 -0.3758  0.5912 -0.7632
 5123TIP3    H115333   2.507   4.746   3.562 -0.3253 -1.1603 -0.6064
 5123TIP3    H215334   2.389   4.656   3.531 -1.9519  1.3441 -1.9685
 5124TIP3   OH215335   5.461   3.397   0.879 -0.4510 -0.3926  0.3569
 5124TIP3    H115336   5.387   3.408   0.938 -0.9016 -0.4598 -0.1956
 5124TIP3    H215337   5.479   3.484   0.845  0.7456 -0.0826  1.6950
 5125TIP3   OH215338   5.809   5.985   4.570  0.5566  0.2829 -0.3168
 5125TIP3    H115339   5.823   5.936   4.489  1.8577  0.3526 -0.1534
 5125TIP3    H215340   5.772   5.922   4.631  1.3584 -0.2769 -0.3956
 5126TIP3   OH215341   0.456   4.629   2.405 -0.2357  0.0764  0.2377
 5126TIP3    H115342   0.371   4.668   2.385  0.2938  0.8427 -0.6020
 5126TIP3    H215343   0.518   4.701   2.398  0.4603 -0.4280  1.0670
 5127TIP3   OH215344   2.698   4.709   3.620  0.3298 -0.2907  0.2780
 5127TIP3    H115345   2.668   4.625   3.654  0.1845  0.8309  3.2023
 5127TIP3    H215346   2.785   4.722   3.659 -0.0798  1.3579  0.7358
 5128TIP3   OH215347   5.243   6.358   0.654 -0.1819  0.1805  0.8610
 5128TIP3    H115348   5.330   6.385   0.622 -0.3914 -0.3055 -0.1700
 5128TIP3    H215349   5.196   6.441   0.663 -0.1422  0.3474 -0.2350
 5129TIP3   OH215350   6.064   2.338   2.758  0.4060 -0.1211 -0.1337
 5129TIP3    H115351   6.155   2.319   2.780  0.3661 -0.4722 -0.2623
 5129TIP3    H215352   6.056   2.312   2.666  0.0873 -0.4183 -0.0231
 5130TIP3   OH215353   6.133   5.383   2.730  0.7640  0.0919  0.2482
 5130TIP3    H115354   6.042   5.374   2.758  0.1601  2.7270 -0.5940
 5130TIP3    H215355   6.184   5.379   2.811 -0.1380 -0.7268  0.7948
 5131TIP3   OH215356   5.835   3.513   2.569  0.1223 -0.0409  0.2098
 5131TIP3    H115357   5.862   3.532   2.480  1.6973  1.3826  0.9419
 5131TIP3    H215358   5.792   3.427   2.563  0.7856 -0.2833 -1.7841
 5132TIP3   OH215359   3.682   4.367   0.909  0.0562  0.3635  0.9888
 5132TIP3    H115360   3.741   4.322   0.969 -0.8659 -0.5413  1.2493
 5132TIP3    H215361   3.633   4.297   0.867  1.1817  0.8816 -1.4254
 5133TIP3   OH215362   1.479   3.172   2.091 -0.9534  0.1621  0.3463
 5133TIP3    H115363   1.521   3.241   2.142  0.8296 -1.6561  1.5420
 5133TIP3    H215364   1.390   3.167   2.125 -1.1365  1.8589  0.1931
 5134TIP3   OH215365   6.773   1.708   2.291  0.4513  0.0489 -0.3176
 5134TIP3    H115366   6.698   1.715   2.231 -0.1243 -1.0289  0.2347
 5134TIP3    H215367   6.836   1.772   2.259 -0.7859  1.1333 -0.6821
 5135TIP3   OH215368   7.042   0.521   1.780  0.3130  0.7421 -0.1540
 5135TIP3    H115369   7.087   0.446   1.741 -0.0172  0.2230  0.4352
 5135TIP3    H215370   7.071   0.521   1.871 -0.6007  0.6095  0.1458
 5136TIP3   OH215371   2.396   0.063   2.325  0.1312  0.2609  0.1659
 5136TIP3    H115372   2.334   0.118   2.371  0.6209 -0.2845  1.5275
 5136TIP3    H215373   2.351  -0.021   2.315  0.1313  0.2922 -0.1205
 5137TIP3   OH215374   0.304   1.795   0.214  0.2859  0.0418 -0.2810
 5137TIP3    H115375   0.386   1.845   0.211 -0.4299  1.2046 -1.6706
 5137TIP3    H215376   0.263   1.821   0.296  1.0962 -0.2393  0.2315
 5138TIP3   OH215377   3.196   5.881   2.260 -0.0648 -0.0652  0.5300
 5138TIP3    H115378   3.114   5.835   2.278 -0.1959 -0.3306 -0.6674
 5138TIP3    H215379   3.169   5.971   2.241 -0.0918 -0.1576  0.1144
 5139TIP3   OH215380   6.405   4.469   1.074 -0.3926 -0.0811  0.1451
 5139TIP3    H115381   6.487   4.421   1.063 -2.2474 -3.0518 -2.4441
 5139TIP3    H215382   6.357   4.420   1.141 -0.9524  0.2768  0.0155
 5140TIP3   OH215383   5.641   3.536   3.692 -0.0704 -0.3388 -0.3652
 5140TIP3    H115384   5.585   3.613   3.700 -1.7598 -1.5410  0.0186
 5140TIP3    H215385   5.600   3.470   3.749  2.2281 -1.0430  0.6389
 5141TIP3   OH215386   1.860   1.360   0.419  0.2502  0.0441  0.2086
 5141TIP3    H115387   1.874   1.300   0.493 -4.6443 -0.3672  1.1278
 5141TIP3    H215388   1.807   1.310   0.357 -0.6805  2.1756 -0.8138
 5142TIP3   OH215389   1.090   0.071   4.278  0.1436 -0.1274 -0.1878
 5142TIP3    H115390   1.170   0.088   4.228 -0.0835 -1.1504 -0.9351
 5142TIP3    H215391   1.115   0.005   4.343  0.2618  0.6689  0.5972
 5143TIP3   OH215392   3.409   3.452   3.700  0.5078  0.0407 -0.3786
 5143TIP3    H115393   3.440   3.421   3.785  1.3427  0.5474 -0.4940
 5143TIP3    H215394   3.478   3.509   3.668 -0.7341  1.6049 -0.4258
 5144TIP3   OH215395   3.788   0.819   1.992  0.0522  0.2925  0.3115
 5144TIP3    H115396   3.746   0.734   1.979  2.1240 -0.4935 -1.7505
 5144TIP3    H215397   3.721   0.872   2.036 -0.6630 -2.8987  3.5129
 5145TIP3   OH215398   1.698   1.223   4.511  0.8790  0.1698  0.4306
 5145TIP3    H115399   1.721   1.259   4.597  2.9232  2.5172 -0.9745
 5145TIP3    H215400   1.751   1.273   4.449 -3.3005  1.3952 -2.6181
 5146TIP3   OH215401   4.661   6.763   0.285 -0.2911  0.8194 -0.1585
 5146TIP3    H115402   4.669   6.856   0.308  0.3545  1.1801 -1.6828
 5146TIP3    H215403   4.748   6.727   0.304  0.0335  0.9683 -1.2651
 5147TIP3   OH215404   4.327   2.156   2.238 -0.3969  0.5222  0.5424
 5147TIP3    H115405   4.249   2.132   2.188  0.6432 -1.2000 -0.3557
 5147TIP3    H215406   4.364   2.230   2.190 -1.1590  0.9713  0.6398
 5148TIP3   OH215407   3.861   4.176   0.680 -0.3997 -0.3864 -0.0177
 5148TIP3    H115408   3.847   4.110   0.748 -1.9778 -0.5443 -0.4597
 5148TIP3    H215409   3.776   4.220   0.671  0.2883  0.8800 -0.5902
 5149TIP3   OH215410   2.665   5.093   0.192 -0.8461 -0.3226  0.4194
 5149TIP3    H115411   2.583   5.136   0.216 -1.7517 -1.3698 -0.7157
 5149TIP3    H215412   2.652   5.062   0.103  0.4023 -1.4500  0.5939
 5150TIP3   OH215413   5.857   1.148   2.996 -0.2311 -0.2626 -0.0890
 5150TIP3    H115414   5.799   1.224   2.998  1.6422  1.2774 -0.9628
 5150TIP3    H215415   5.927   1.173   2.936  1.5996 -1.8539  1.2629
 5151TIP3   OH215416   3.646   0.613   4.046 -0.3752 -0.3421  0.1485
 5151TIP3    H115417   3.572   0.674   4.037  0.9370  1.0589 -2.3211
 5151TIP3    H215418   3.618   0.535   3.998 -0.6036 -0.1899  0.0297
 5152TIP3   OH215419   6.892   2.778   3.268  0.1382 -0.1257  0.9517
 5152TIP3    H115420   6.958   2.709   3.261 -0.6581 -0.8350  0.0840
 5152TIP3    H215421   6.918   2.842   3.202  0.5293  0.1038  1.3248
 5153TIP3   OH215422   1.921   6.532   3.613  0.1111  0.1714 -0.0594
 5153TIP3    H115423   1.981   6.574   3.552  0.5121 -0.4837 -0.1287
 5153TIP3    H215424   1.965   6.538   3.698  0.7372 -1.1315 -0.2594
 5154TIP3   OH215425   5.912   5.890   0.851  0.0694 -0.4117  0.4513
 5154TIP3    H115426   5.856   5.848   0.786  0.9891  0.6229 -1.0746
 5154TIP3    H215427   5.942   5.970   0.809  3.3419 -1.2691  0.8203
 5155TIP3   OH215428   4.648   3.764   1.889  0.1387  0.2351 -0.3127
 5155TIP3    H115429   4.610   3.847   1.859 -0.3542  0.8079  1.7560
 5155TIP3    H215430   4.676   3.720   1.808 -1.6118  1.4118 -1.6307
 5156TIP3   OH215431   5.786   3.255   4.362  0.4601 -0.5515  0.1844
 5156TIP3    H115432   5.835   3.244   4.280  2.3138 -2.6779  1.4551
 5156TIP3    H215433   5.734   3.175   4.370  2.2859 -1.6683  2.2093
 5157TIP3   OH215434   6.317   2.969   1.668  0.4056 -0.2560 -0.1460
 5157TIP3    H115435   6.394   2.936   1.622 -0.2177 -2.8321  0.4988
 5157TIP3    H215436   6.336   2.952   1.761 -1.5386 -2.5685 -0.0659
 5158TIP3   OH215437  -0.016   6.050   0.550  0.5937  0.0281  0.2451
 5158TIP3    H115438   0.040   5.981   0.514 -2.6875 -2.7735  0.0282
 5158TIP3    H215439  -0.013   6.036   0.644  0.0755 -0.3032  0.2144
 5159TIP3   OH215440   5.000   1.999   5.471  0.1511  0.4996  0.8030
 5159TIP3    H115441   5.034   2.073   5.521  0.6773  1.6591 -1.1402
 5159TIP3    H215442   5.078   1.961   5.429 -0.4443  0.8220 -0.6772
 5160TIP3   OH215443   2.461   5.759   3.721  0.0637 -0.2698  0.4610
 5160TIP3    H115444   2.456   5.665   3.735  1.9380 -0.4022  0.5385
 5160TIP3    H215445   2.392   5.778   3.657  0.3588 -1.8715 -0.3919
 5161TIP3   OH215446   5.482   5.737   5.335  0.0432  0.0931  0.1650
 5161TIP3    H115447   5.571   5.729   5.301  0.5887 -1.8438  1.8341
 5161TIP3    H215448   5.464   5.652   5.375 -3.3705 -0.3565 -1.9020
 5162TIP3   OH215449   2.467   4.455   4.212  0.1015 -0.1408 -0.2952
 5162TIP3    H115450   2.453   4.383   4.150  1.3573 -0.3869 -0.3349
 5162TIP3    H215451   2.380   4.490   4.230 -0.3018 -0.1087 -2.1472
 5163TIP3   OH215452   3.474   2.984   2.150 -0.0128 -0.5845 -0.2411
 5163TIP3    H115453   3.389   2.941   2.139  1.0314 -3.2840  1.1488
 5163TIP3    H215454   3.533   2.913   2.175  1.7195  1.8106  3.2239
 5164TIP3   OH215455   2.804   5.986   2.854 -0.2384 -0.6859  0.2498
 5164TIP3    H115456   2.728   6.044   2.853 -0.1987 -0.6322  0.3455
 5164TIP3    H215457   2.874   6.036   2.810 -0.1669 -0.6113  0.4503
 5165TIP3   OH215458   5.040   2.593   2.222 -0.6957  0.3148  0.2234
 5165TIP3    H115459   5.096   2.547   2.160 -1.3875 -1.4914  0.8862
 5165TIP3    H215460   4.961   2.614   2.172 -2.2403 -3.1542  0.9160
 5166TIP3   OH215461   3.891   0.599   3.799  0.1760  0.1506  0.2917
 5166TIP3    H115462   3.950   0.627   3.729 -0.2410 -1.7879 -0.9028
 5166TIP3    H215463   3.935   0.625   3.880  1.7785  0.3978 -0.6335
 5167TIP3   OH215464   4.290   3.258   1.400 -0.0481  0.1551 -0.8079
 5167TIP3    H115465   4.314   3.344   1.367 -0.5843  1.4716  1.9752
 5167TIP3    H215466   4.205   3.239   1.359  1.0595 -0.1133 -3.1166
 5168TIP3   OH215467   4.369   4.589   2.250  1.0145  0.1536 -0.6402
 5168TIP3    H115468   4.381   4.666   2.306  0.9039 -0.9627  1.0022
 5168TIP3    H215469   4.394   4.515   2.306  2.7899 -0.9075 -2.7027
 5169TIP3   OH215470   2.329   5.489   5.139 -0.3296  0.1794  0.5491
 5169TIP3    H115471   2.328   5.396   5.119 -2.5934  0.1029  0.7734
 5169TIP3    H215472   2.312   5.533   5.055 -1.9872  0.2129  0.8584
 5170TIP3   OH215473   4.131   1.254   0.672 -0.5096  0.6268  0.1285
 5170TIP3    H115474   4.157   1.346   0.664 -0.6702  0.7241  0.7155
 5170TIP3    H215475   4.036   1.256   0.673 -0.5126  0.5710  1.3939
 5171TIP3   OH215476   2.057   5.627   1.843 -0.0064 -0.2885 -0.6528
 5171TIP3    H115477   2.126   5.680   1.802 -0.4550  1.5031  0.7662
 5171TIP3    H215478   2.104   5.554   1.883  1.2767  1.3888  1.0753
 5172TIP3   OH215479   6.479   6.415   5.451  0.6473 -0.3152 -0.1429
 5172TIP3    H115480   6.421   6.423   5.375 -0.5667 -0.8942  0.6896
 5172TIP3    H215481   6.515   6.327   5.445 -0.8785 -1.0566  0.8879
 5173TIP3   OH215482   1.649   4.917   5.786 -0.5801  0.2924  0.0930
 5173TIP3    H115483   1.668   4.836   5.739 -0.3220 -0.5617  1.6110
 5173TIP3    H215484   1.732   4.965   5.786 -0.4696  0.1010  0.0668
 5174TIP3   OH215485   0.242   1.665   3.991  0.2101 -0.2078  0.2651
 5174TIP3    H115486   0.332   1.697   3.984 -0.5569  2.0483 -0.1431
 5174TIP3    H215487   0.233   1.605   3.917  1.1780  0.0936 -0.1198
 5175TIP3   OH215488   2.086   2.584   4.909  0.0687  0.2168 -0.1836
 5175TIP3    H115489   2.092   2.678   4.895 -0.7803 -0.1083 -3.7280
 5175TIP3    H215490   2.176   2.556   4.926  0.8146  1.3810 -1.9301
 5176TIP3   OH215491   5.251   3.656   0.806 -0.0035 -0.5832 -0.0747
 5176TIP3    H115492   5.197   3.666   0.728  1.1550  1.0175 -0.7253
 5176TIP3    H215493   5.201   3.697   0.876  0.1345  0.4299 -0.5636
 5177TIP3   OH215494   5.962   4.234   3.316 -0.2649 -0.0207  0.0925
 5177TIP3    H115495   5.908   4.257   3.392 -3.0472 -0.5145 -1.5777
 5177TIP3    H215496   5.951   4.139   3.306 -1.7959  0.3065 -2.1123
 5178TIP3   OH215497   3.407   0.686   1.208 -0.4622 -0.4908 -0.2643
 5178TIP3    H115498   3.371   0.755   1.263  1.2505  0.8008 -0.6581
 5178TIP3    H215499   3.370   0.702   1.121 -0.4808 -0.4063 -0.2402
 5179TIP3   OH215500   2.209   3.006   0.679 -0.5596 -0.2604  0.1190
 5179TIP3    H115501   2.192   2.959   0.761 -0.9380 -2.7521 -1.2685
 5179TIP3    H215502   2.205   2.938   0.611  2.0831  1.2620 -1.7588
 5180TIP3   OH215503   4.074   5.885   2.080 -0.3088  0.1853  0.0835
 5180TIP3    H115504   4.146   5.865   2.140  1.7711 -0.9287 -2.5926
 5180TIP3    H215505   4.023   5.804   2.075 -1.1641  0.6296  1.1206
 5181TIP3   OH215506   2.470   6.124   0.673 -0.1212  0.1960 -0.6197
 5181TIP3    H115507   2.475   6.191   0.605 -0.4791  0.5400 -0.3072
 5181TIP3    H215508   2.387   6.079   0.657 -0.3205  0.4332 -0.2690
 5182TIP3   OH215509   4.020   3.168   1.318  0.0454  0.1717  0.2133
 5182TIP3    H115510   4.059   3.087   1.286 -1.8727 -0.2257 -1.2924
 5182TIP3    H215511   3.964   3.140   1.391 -1.1575  0.0025 -0.7512
 5183TIP3   OH215512   2.912   3.338   0.934 -0.0819 -0.2647  0.0170
 5183TIP3    H115513   2.873   3.406   0.988  1.1635  0.7547 -0.2941
 5183TIP3    H215514   2.988   3.308   0.984  0.7382  0.2687 -0.8609
 5184TIP3   OH215515   3.731   0.616   5.262  0.1413 -0.1998  0.4538
 5184TIP3    H115516   3.690   0.688   5.309  2.1384  0.9142  0.6215
 5184TIP3    H215517   3.674   0.541   5.278 -1.6955  1.1831  0.7663
 5185TIP3   OH215518   2.655   0.909   5.674  0.1074  0.3422  0.1421
 5185TIP3    H115519   2.637   0.820   5.644 -0.3505 -0.0898  1.6091
 5185TIP3    H215520   2.637   0.906   5.768  1.4652  1.6194  0.4692
 5186TIP3   OH215521   3.851   3.392   2.405 -0.1946 -0.3014  0.5254
 5186TIP3    H115522   3.795   3.361   2.334 -0.0410  0.2295  0.1691
 5186TIP3    H215523   3.921   3.327   2.411  0.3120  0.1358 -0.4359
 5187TIP3   OH215524   2.830   2.179   1.893  0.4816 -0.4324 -0.3835
 5187TIP3    H115525   2.789   2.264   1.908 -1.1213 -0.9761 -1.4541
 5187TIP3    H215526   2.839   2.141   1.980 -0.6457  0.0110 -0.0513
 5188TIP3   OH215527   6.883   2.105   2.236  0.6145  0.1261  0.1066
 5188TIP3    H115528   6.797   2.097   2.278  1.2402  0.6043  1.5164
 5188TIP3    H215529   6.893   2.023   2.187 -0.1037 -0.4947  0.9678
 5189TIP3   OH215530   0.823   0.919   2.807 -0.1576  0.0386 -0.5971
 5189TIP3    H115531   0.743   0.900   2.857 -0.6670 -0.9992 -1.7447
 5189TIP3    H215532   0.875   0.840   2.814  0.5265  0.5058 -0.3288
 5190TIP3   OH215533   6.312   1.981   5.766  0.4945  0.4253 -0.1663
 5190TIP3    H115534   6.403   1.955   5.779  0.5279  0.5138 -0.2187
 5190TIP3    H215535   6.263   1.931   5.831  0.9127  2.4675  1.8638
 5191TIP3   OH215536   4.666   1.053   3.819 -0.2327 -0.0820 -0.1510
 5191TIP3    H115537   4.694   1.093   3.737 -3.9154 -0.3780 -1.7547
 5191TIP3    H215538   4.627   1.125   3.869 -1.5263 -0.5320 -0.4572
 5192TIP3   OH215539   0.417   1.907   4.245  0.0576 -0.3691 -0.1351
 5192TIP3    H115540   0.453   1.848   4.180 -2.1897  0.1876 -2.0168
 5192TIP3    H215541   0.482   1.977   4.254  0.8697 -1.0089 -0.9682
 5193TIP3   OH215542   0.502   2.829   0.373  0.6280  0.4210  0.1833
 5193TIP3    H115543   0.438   2.839   0.302  0.5331 -0.9333  0.0458
 5193TIP3    H215544   0.585   2.858   0.335  1.3324 -3.5645 -1.7756
 5194TIP3   OH215545   0.508   5.113   4.357  0.2060  0.5383  0.4721
 5194TIP3    H115546   0.511   5.090   4.450 -0.2943  1.6683  0.7836
 5194TIP3    H215547   0.419   5.093   4.329  0.7467 -1.1543 -0.1548
 5195TIP3   OH215548   3.113   6.581   1.498  0.2220 -0.5291  0.3360
 5195TIP3    H115549   3.023   6.613   1.503  0.3502  0.3673 -1.9153
 5195TIP3    H215550   3.116   6.509   1.561 -2.4596 -1.4789 -0.4718
 5196TIP3   OH215551   0.185   5.899   1.443 -0.3815  0.3549  0.2743
 5196TIP3    H115552   0.271   5.940   1.451 -0.1036 -0.1706  0.0157
 5196TIP3    H215553   0.125   5.963   1.481  0.1944  0.4621  1.0349
 5197TIP3   OH215554   6.588   2.213   0.767  0.7293 -0.5256  0.1815
 5197TIP3    H115555   6.589   2.137   0.709  0.7212 -0.8589  0.6134
 5197TIP3    H215556   6.668   2.206   0.818  0.7380 -0.2349  0.2117
 5198TIP3   OH215557   1.573   5.985   4.438  0.1834 -0.0661 -0.0283
 5198TIP3    H115558   1.485   6.021   4.450  0.4504  0.5779  0.0395
 5198TIP3    H215559   1.598   6.011   4.349 -0.7805 -2.6352 -1.1505
 5199TIP3   OH215560   1.458   4.776   2.755  0.2922 -0.3073  0.3146
 5199TIP3    H115561   1.445   4.868   2.780  0.8866  0.0067 -0.4847
 5199TIP3    H215562   1.551   4.761   2.770  0.3369 -0.5699 -0.2043
 5200TIP3   OH215563   5.978   5.031   1.013 -0.4900  0.3822  0.7218
 5200TIP3    H115564   6.027   4.957   0.977 -1.0886  0.8364 -1.0895
 5200TIP3    H215565   6.039   5.073   1.074  0.1461 -1.0823  1.1222
 5201TIP3   OH215566   4.120   6.470   5.526 -0.3777  0.2264  0.1669
 5201TIP3    H115567   4.151   6.542   5.471  0.4487  0.0186  0.3477
 5201TIP3    H215568   4.055   6.426   5.472  0.4647 -0.0105 -0.6851
 5202TIP3   OH215569   3.365   4.940   1.122  0.0646  0.1046  0.3262
 5202TIP3    H115570   3.398   5.019   1.165 -0.4243  0.6755 -0.3273
 5202TIP3    H215571   3.415   4.936   1.040 -0.8517  0.4901 -0.2632
 5203TIP3   OH215572   1.193   3.646   1.634 -0.0717 -0.3029 -0.1212
 5203TIP3    H115573   1.157   3.610   1.553 -0.7975 -0.5425  0.2956
 5203TIP3    H215574   1.287   3.628   1.630 -0.4135 -2.3638  0.1274
 5204TIP3   OH215575   6.851   1.413   2.670  0.7182  0.0525  0.3406
 5204TIP3    H115576   6.919   1.471   2.704  0.6103 -0.5806  1.7191
 5204TIP3    H215577   6.770   1.465   2.678  0.9793  0.7543 -1.1722
 5205TIP3   OH215578   7.059   5.625   1.479 -0.5003 -0.0125  0.8947
 5205TIP3    H115579   7.052   5.710   1.436 -2.3142  1.4442  3.7375
 5205TIP3    H215580   6.974   5.584   1.464 -0.2046 -0.6199  0.8813
 5206TIP3   OH215581   3.993   6.576   3.371 -0.0508  0.2324 -0.0369
 5206TIP3    H115582   3.950   6.628   3.302 -0.3249  0.2026  0.1096
 5206TIP3    H215583   4.075   6.547   3.331  0.3499  1.1946  0.0467
 5207TIP3   OH215584   2.800   5.786   3.022 -0.5047  0.4752 -0.1505
 5207TIP3    H115585   2.759   5.717   2.970 -3.0886  1.2931  0.6595
 5207TIP3    H215586   2.793   5.865   2.967 -0.6216  0.7667  0.2797
 5208TIP3   OH215587   0.055   5.485   1.546  0.5573 -0.3352 -0.3751
 5208TIP3    H115588  -0.020   5.532   1.509  1.9760  2.7358  0.3604
 5208TIP3    H215589   0.029   5.467   1.636  0.7552  0.9468 -0.0450
 5209TIP3   OH215590   3.365   0.181   4.676 -0.2580 -0.4163 -0.4181
 5209TIP3    H115591   3.348   0.123   4.602 -0.8627  0.4912 -1.0192
 5209TIP3    H215592   3.387   0.265   4.635  2.4516 -0.6386  0.3655
 5210TIP3   OH215593   1.859   0.096   1.125 -0.1359 -0.2788 -0.1045
 5210TIP3    H115594   1.815   0.012   1.137  0.1821 -0.1955  1.8777
 5210TIP3    H215595   1.787   0.160   1.119 -0.3366 -0.4428  0.5165
 5211TIP3   OH215596   6.680   5.323   2.597 -0.2632  0.0483 -0.0582
 5211TIP3    H115597   6.665   5.287   2.684 -1.2923 -0.3703 -0.3834
 5211TIP3    H215598   6.598   5.368   2.576  0.0421  0.2967 -0.7323
 5212TIP3   OH215599   0.237   3.959   5.195  1.0573  0.3323 -0.1901
 5212TIP3    H115600   0.264   3.891   5.134 -0.0639  0.7112 -1.1582
 5212TIP3    H215601   0.305   3.961   5.262  1.9619 -0.5716 -1.0609
 5213TIP3   OH215602   0.331   6.782   5.263  0.3288  0.0201  0.2923
 5213TIP3    H115603   0.274   6.705   5.263 -0.2288  0.4255 -0.3231
 5213TIP3    H215604   0.370   6.784   5.176 -0.1841  0.8080  0.0690
 5214TIP3   OH215605   6.302   2.574   5.568  0.7158  0.8071  0.2254
 5214TIP3    H115606   6.228   2.598   5.512 -0.4257  0.0541  1.3349
 5214TIP3    H215607   6.267   2.582   5.657  1.3358 -1.4668  0.7280
 5215TIP3   OH215608   1.607   2.942   3.508 -0.0216 -0.1805  0.1766
 5215TIP3    H115609   1.571   2.984   3.586 -0.5043  0.0884 -0.1843
 5215TIP3    H215610   1.532   2.896   3.469  0.7548 -2.6799  1.3721
 5216TIP3   OH215611   3.150   6.370   1.135 -0.1119 -0.2683 -0.1494
 5216TIP3    H115612   3.188   6.333   1.055 -1.5705 -2.0663 -0.0642
 5216TIP3    H215613   3.226   6.399   1.186  0.8483  0.9081 -2.1368
 5217TIP3   OH215614   3.981   6.389   4.368 -0.0845  0.4094 -0.2496
 5217TIP3    H115615   3.952   6.313   4.418  0.2697  0.4840  0.0722
 5217TIP3    H215616   4.075   6.378   4.360 -0.1081  0.5232 -0.6957
 5218TIP3   OH215617   5.412   3.604   4.958 -0.1125  0.2598 -0.6528
 5218TIP3    H115618   5.411   3.623   4.865 -1.1995 -0.2282 -0.7498
 5218TIP3    H215619   5.384   3.686   5.000 -2.7840 -0.4256 -0.9567
 5219TIP3   OH215620   6.728   2.525   4.270  0.2901  0.4162 -0.0965
 5219TIP3    H115621   6.695   2.459   4.209 -0.5021 -0.0485  0.7994
 5219TIP3    H215622   6.821   2.507   4.278 -0.1166 -1.4409  1.0930
 5220TIP3   OH215623   4.918   5.204   2.301 -1.1908 -0.8339 -0.4171
 5220TIP3    H115624   4.963   5.188   2.384 -1.6034  2.1892  0.5032
 5220TIP3    H215625   4.827   5.182   2.318 -1.0900 -1.2622 -0.4221
 5221TIP3   OH215626   3.333   6.695   4.349  0.1871  0.2457 -0.5206
 5221TIP3    H115627   3.265   6.645   4.393 -0.4909  1.1947 -0.4561
 5221TIP3    H215628   3.317   6.680   4.256  0.5710 -0.3965 -0.4903
 5222TIP3   OH215629   5.318   4.173   1.091  0.4375  0.0763 -0.1782
 5222TIP3    H115630   5.373   4.222   1.152  0.8069  1.4087 -1.5362
 5222TIP3    H215631   5.244   4.144   1.144  1.3763  0.0925  1.1910
 5223TIP3   OH215632   6.896   2.765   1.643 -0.8102  0.3937 -1.0006
 5223TIP3    H115633   6.838   2.824   1.691 -1.2937 -0.2059 -0.8254
 5223TIP3    H215634   6.858   2.678   1.657 -0.1433  0.0481 -1.2957
 5224TIP3   OH215635   5.002   3.928   4.137 -0.4093 -0.8416 -0.1063
 5224TIP3    H115636   4.950   3.909   4.059 -2.3078  0.4836  0.7452
 5224TIP3    H215637   5.085   3.960   4.104 -0.9073 -0.9820 -1.5735
 5225TIP3   OH215638   5.684   0.636   2.943  0.3094  0.3204  0.5164
 5225TIP3    H115639   5.670   0.688   3.022 -1.1285  0.7154  0.0473
 5225TIP3    H215640   5.613   0.572   2.944  0.0193  0.6024 -0.6498
 5226TIP3   OH215641   0.528   0.600   2.965  0.1137  0.4237  0.0104
 5226TIP3    H115642   0.584   0.677   2.972  1.5255 -0.0550 -3.6465
 5226TIP3    H215643   0.448   0.633   2.924 -0.2069  0.3162  0.5543
 5227TIP3   OH215644   2.673   1.987   1.018 -0.3824  0.0464 -0.1979
 5227TIP3    H115645   2.629   2.053   1.071  0.9543 -0.2010  1.3277
 5227TIP3    H215646   2.662   2.016   0.928  1.1740  3.0543  0.4489
 5228TIP3   OH215647   6.221   1.614   5.529  0.3312 -1.0435 -0.0764
 5228TIP3    H115648   6.305   1.602   5.574  0.2455 -2.4157 -0.2444
 5228TIP3    H215649   6.210   1.535   5.477  0.5518  0.5887 -2.7647
 5229TIP3   OH215650   7.047   2.223   1.290  0.3647  0.4338 -0.7630
 5229TIP3    H115651   7.033   2.158   1.221  1.6232 -0.6786 -0.0070
 5229TIP3    H215652   7.022   2.306   1.250  0.9927 -0.1966 -2.5321
 5230TIP3   OH215653   6.257   1.240   1.889  0.4266 -0.1989  0.2486
 5230TIP3    H115654   6.268   1.152   1.926 -0.5241  0.5391  2.4786
 5230TIP3    H215655   6.168   1.241   1.855  0.9627 -0.5519 -1.2452
 5231TIP3   OH215656   2.398   0.673   2.249  0.0034  0.1888  0.1374
 5231TIP3    H115657   2.370   0.582   2.257  1.0056 -0.0201  1.9113
 5231TIP3    H215658   2.341   0.721   2.309 -0.2936  0.6981 -0.5328
 5232TIP3   OH215659   3.188   5.307   1.184 -0.0952  0.0912  0.2474
 5232TIP3    H115660   3.228   5.356   1.256  0.2994  0.3169 -0.1189
 5232TIP3    H215661   3.251   5.316   1.112 -0.8035  0.4452 -0.3353
 5233TIP3   OH215662   6.824   1.976   5.741  0.0518 -0.4047 -0.5883
 5233TIP3    H115663   6.862   1.974   5.652  0.7928 -2.2608 -0.2861
 5233TIP3    H215664   6.895   1.946   5.797 -0.8081 -0.4729  0.4843
 5234TIP3   OH215665   5.203   4.232   2.075 -0.6066 -0.3406 -0.8465
 5234TIP3    H115666   5.272   4.239   2.009 -0.0329 -0.7544 -0.3036
 5234TIP3    H215667   5.153   4.313   2.065 -1.0515 -0.7714 -2.3386
 5235TIP3   OH215668   2.165   6.228   0.387  0.0193 -0.9202 -0.1771
 5235TIP3    H115669   2.126   6.220   0.301 -1.4884  0.8380  0.3046
 5235TIP3    H215670   2.170   6.322   0.404  1.7041 -1.1720  1.0445
 5236TIP3   OH215671   6.651   6.607   1.957  0.2560  0.2025  0.3331
 5236TIP3    H115672   6.682   6.530   2.004  0.8759  0.2891  0.0720
 5236TIP3    H215673   6.666   6.679   2.018 -0.4724  0.0969  0.6396
 5237TIP3   OH215674   1.529   2.630   4.967 -0.6620  0.0916 -0.2335
 5237TIP3    H115675   1.472   2.659   5.038 -1.6324  0.2432 -1.0398
 5237TIP3    H215676   1.508   2.689   4.894 -2.3162 -2.1760 -1.7507
 5238TIP3   OH215677  -0.017   3.872   1.630 -0.5978 -0.6234 -0.1722
 5238TIP3    H115678   0.040   3.899   1.558  1.5165 -2.5183  0.6586
 5238TIP3    H215679   0.020   3.914   1.707  1.2756 -3.6347  0.7465
 5239TIP3   OH215680   3.360   0.709   5.202  0.4275 -0.6565  0.2346
 5239TIP3    H115681   3.328   0.727   5.290 -1.7995  1.6329 -0.9149
 5239TIP3    H215682   3.420   0.782   5.184  1.4776 -1.5267  0.0601
 5240TIP3   OH215683   2.860   2.455   4.582 -0.9237 -0.0379  0.8324
 5240TIP3    H115684   2.920   2.420   4.516 -0.5953 -1.6548  1.9275
 5240TIP3    H215685   2.776   2.412   4.562 -1.5901  1.6602 -0.2470
 5241TIP3   OH215686   5.730   2.107   4.690  0.3073 -0.3639  0.7621
 5241TIP3    H115687   5.727   2.012   4.674  0.4790 -0.6941  2.4857
 5241TIP3    H215688   5.810   2.136   4.647  1.2399 -1.3443  1.7519
 5242TIP3   OH215689   0.172   3.848   2.936  0.5535  0.0853 -0.1020
 5242TIP3    H115690   0.123   3.843   2.854 -0.6931  2.2963  0.4418
 5242TIP3    H215691   0.212   3.761   2.945 -0.7218 -0.7861 -2.1398
 5243TIP3   OH215692   6.559   2.078   1.717  0.3241 -0.0770  0.1008
 5243TIP3    H115693   6.507   2.041   1.646 -0.2089 -0.1656  0.5371
 5243TIP3    H215694   6.503   2.145   1.757 -0.5336 -1.9649  2.2739
 5244TIP3   OH215695   5.605   2.633   0.496 -0.0843  0.2919  0.4938
 5244TIP3    H115696   5.538   2.621   0.562 -0.5708 -1.4872 -0.2669
 5244TIP3    H215697   5.559   2.671   0.421  0.3807  1.8942  0.9763
 5245TIP3   OH215698   6.780   6.048   5.658  0.2341 -0.1696  0.0956
 5245TIP3    H115699   6.848   5.993   5.618 -0.1907  0.5336 -1.6887
 5245TIP3    H215700   6.713   5.986   5.685  0.0051 -0.6206 -1.4053
 5246TIP3   OH215701   0.313   1.965   3.229  0.4983 -0.3322  0.2821
 5246TIP3    H115702   0.295   1.874   3.249 -2.8381  0.3563  1.0079
 5246TIP3    H215703   0.337   1.966   3.136  3.2976 -2.1312  0.8688
 5247TIP3   OH215704   2.277   3.309   3.911  0.0899  0.1173  0.1254
 5247TIP3    H115705   2.235   3.318   3.825 -1.3074  0.1205  0.7862
 5247TIP3    H215706   2.355   3.257   3.894  0.0318  0.4380 -1.2117
 5248TIP3   OH215707   6.938   6.174   2.263  0.8691 -0.1748 -0.4168
 5248TIP3    H115708   6.914   6.256   2.307 -0.3046 -1.1217  0.7877
 5248TIP3    H215709   6.924   6.107   2.329  2.0558 -1.3425 -1.3077
 5249TIP3   OH215710   4.035   6.230   3.324  0.1756  0.5202 -0.0049
 5249TIP3    H115711   4.073   6.309   3.363  0.9691 -0.0460  0.4082
 5249TIP3    H215712   3.965   6.262   3.268 -1.4481  1.3598  2.3679
 5250TIP3   OH215713   1.837   2.982   5.624 -0.2807 -0.3305 -0.6389
 5250TIP3    H115714   1.861   2.961   5.714 -0.2625  0.7098 -0.3855
 5250TIP3    H215715   1.875   2.913   5.571  0.6355 -0.3619  0.0524
 5251TIP3   OH215716   5.096   6.039   1.987  0.6656 -0.2738  0.2257
 5251TIP3    H115717   5.064   5.956   2.023 -0.1989 -0.6060 -1.2132
 5251TIP3    H215718   5.017   6.085   1.960  1.2338  0.2425 -0.6107
 5252TIP3   OH215719   3.233   5.899   5.687  0.1738  0.2575  0.2565
 5252TIP3    H115720   3.201   5.976   5.733 -2.5726 -0.1364 -0.7779
 5252TIP3    H215721   3.219   5.827   5.749 -3.1312 -0.2121 -0.8715
 5253TIP3   OH215722   7.028   2.460   1.043  0.1102  0.2466 -0.1203
 5253TIP3    H115723   6.941   2.422   1.057  1.0469 -1.6002  1.0236
 5253TIP3    H215724   7.052   2.496   1.129  0.7893  0.0347 -0.2185
 5254TIP3   OH215725   2.967   4.838   5.817 -0.0232  0.0464 -0.4919
 5254TIP3    H115726   2.878   4.853   5.847 -0.4518 -0.7675 -1.3214
 5254TIP3    H215727   3.015   4.917   5.843 -1.2419  1.0095 -1.0587
 5255TIP3   OH215728   4.539   5.236   1.623 -0.4076 -0.3334  0.0729
 5255TIP3    H115729   4.579   5.314   1.662 -0.5068 -0.3983  0.3009
 5255TIP3    H215730   4.585   5.226   1.539  0.7808 -0.9879  0.7629
 5256TIP3   OH215731   2.657   5.862   0.429  0.6490  0.0921  0.0165
 5256TIP3    H115732   2.667   5.782   0.377  0.1262 -0.3414  0.5745
 5256TIP3    H215733   2.663   5.833   0.520  0.8745  0.7483  0.2156
 5257TIP3   OH215734   5.934   1.395   2.050  0.0441 -0.0083 -0.1034
 5257TIP3    H115735   5.945   1.447   1.971  1.8294  1.0951  0.7828
 5257TIP3    H215736   5.915   1.460   2.118 -1.9698 -0.9816  0.3202
 5258TIP3   OH215737   5.161   3.350   3.863  0.1533 -0.0255 -0.0996
 5258TIP3    H115738   5.126   3.433   3.896  1.0113  0.4302 -0.3213
 5258TIP3    H215739   5.090   3.314   3.809  0.4243  1.4696 -1.5395
 5259TIP3   OH215740   4.408   1.999   1.997 -0.1120 -0.0951 -0.4517
 5259TIP3    H115741   4.390   1.905   1.999 -1.4657  0.1434 -0.0285
 5259TIP3    H215742   4.438   2.019   2.086 -0.9494  0.0600 -0.1966
 5260TIP3   OH215743   5.726   4.049   1.078  0.4797 -0.3831 -0.1869
 5260TIP3    H115744   5.652   4.046   1.138  0.7201 -1.0490  0.0915
 5260TIP3    H215745   5.689   4.081   0.996  0.0073 -0.1435  0.1148
 5261TIP3   OH215746   6.227   3.775   1.346  0.3414 -0.4745 -0.0133
 5261TIP3    H115747   6.289   3.710   1.381  1.0671 -0.4537 -1.2166
 5261TIP3    H215748   6.187   3.732   1.270 -0.3920 -0.1053  0.1551
 5262TIP3   OH215749   4.067   3.357   3.402 -0.1033  0.7373 -0.0561
 5262TIP3    H115750   4.090   3.365   3.310  2.4392 -0.0660  0.4122
 5262TIP3    H215751   4.005   3.284   3.405 -0.6411  1.1256 -1.1578
 5263TIP3   OH215752   3.925   5.818   0.395  0.0547 -0.0107 -0.5869
 5263TIP3    H115753   3.931   5.854   0.306  0.3813  0.6625 -0.3064
 5263TIP3    H215754   3.977   5.738   0.392  0.2799  0.1459 -0.9387
 5264TIP3   OH215755   3.894   2.994   0.701  0.4440  0.4065  0.0394
 5264TIP3    H115756   3.891   3.065   0.637 -3.3555 -0.3435 -0.9087
 5264TIP3    H215757   3.884   3.037   0.786 -1.3398  1.1557 -0.4890
 5265TIP3   OH215758   3.986   0.936   1.698  0.2914  0.3342 -0.0143
 5265TIP3    H115759   3.986   0.953   1.792  1.0352  1.1262 -0.1476
 5265TIP3    H215760   3.939   1.010   1.660 -0.4710 -0.2466 -0.2391
 5266TIP3   OH215761   4.774   1.794   4.497 -0.1652  0.1928  0.2203
 5266TIP3    H115762   4.848   1.802   4.437 -0.3980  1.0149  0.0203
 5266TIP3    H215763   4.745   1.703   4.489  0.5099  0.0023 -0.0699
 5267TIP3   OH215764   3.766   2.727   4.244  0.1610 -0.0902  0.6788
 5267TIP3    H115765   3.819   2.657   4.204 -0.2668 -2.0390  3.2412
 5267TIP3    H215766   3.689   2.682   4.277  0.6198  1.2365  3.8752
 5268TIP3   OH215767   1.887   6.332   4.654  0.2684  0.3862 -0.0959
 5268TIP3    H115768   1.802   6.366   4.627 -0.0477  1.0687  1.6213
 5268TIP3    H215769   1.872   6.238   4.666  0.0229  0.3377 -0.7349
 5269TIP3   OH215770   2.396   5.258   5.858 -0.0514  0.8513  0.2409
 5269TIP3    H115771   2.366   5.328   5.917 -1.4819 -0.8864  1.6865
 5269TIP3    H215772   2.343   5.270   5.779 -1.4192  0.5468  1.0660
 5270TIP3   OH215773   2.862   0.285   1.810 -0.1834  0.1017 -0.4629
 5270TIP3    H115774   2.799   0.344   1.852 -0.9080  0.9216 -2.5458
 5270TIP3    H215775   2.841   0.199   1.846  0.6460  0.9561  2.3627
 5271TIP3   OH215776   4.157   2.603   3.883 -0.1150  0.1135  0.3033
 5271TIP3    H115777   4.247   2.573   3.900 -0.2983  0.9069  3.1179
 5271TIP3    H215778   4.166   2.696   3.867 -0.3856  0.0663 -0.1303
 5272TIP3   OH215779   0.106   5.361   3.401 -0.2216  0.0359 -0.3805
 5272TIP3    H115780   0.192   5.321   3.417  0.3516  1.1073 -0.6620
 5272TIP3    H215781   0.102   5.434   3.462 -0.5835  0.4831 -0.9299
 5273TIP3   OH215782   4.310   4.194   1.041 -0.2657  0.4947  0.4168
 5273TIP3    H115783   4.398   4.176   1.073 -1.1108 -3.6120  0.9145
 5273TIP3    H215784   4.322   4.221   0.950  1.4769  0.1280  0.5069
 5274TIP3   OH215785   2.990   3.291   2.763 -0.2356 -0.3830  0.0561
 5274TIP3    H115786   2.951   3.211   2.798 -0.8892  0.1042  0.4605
 5274TIP3    H215787   2.999   3.274   2.669 -1.9873 -0.2903 -0.1560
 5275TIP3   OH215788   5.419   6.773   3.447 -0.4325 -0.6466  0.0119
 5275TIP3    H115789   5.350   6.796   3.509 -0.7461 -1.0778 -0.1698
 5275TIP3    H215790   5.391   6.689   3.410 -0.1359 -0.5104 -0.5390
 5276TIP3   OH215791   4.503   2.613   3.716  0.0419  0.2537 -0.2439
 5276TIP3    H115792   4.469   2.565   3.641 -0.0472  1.0037 -0.6935
 5276TIP3    H215793   4.473   2.564   3.793 -0.3833 -0.1743 -0.6843
 5277TIP3   OH215794   7.199   3.130   5.454 -0.1205 -0.0007  0.1277
 5277TIP3    H115795   7.261   3.149   5.383  1.8688  0.2746  1.8439
 5277TIP3    H215796   7.165   3.043   5.433  2.1692 -0.9225 -0.0329
 5278TIP3   OH215797   3.639   3.744   1.049 -0.1476  0.2608  0.4935
 5278TIP3    H115798   3.665   3.836   1.049  0.2716  0.1701  2.1228
 5278TIP3    H215799   3.715   3.698   1.015 -0.9704  0.6107 -2.0370
 5279TIP3   OH215800   4.592   6.439   1.544  0.0837  0.7780  0.3733
 5279TIP3    H115801   4.665   6.404   1.596 -0.9296 -0.2496  1.1686
 5279TIP3    H215802   4.530   6.366   1.539 -1.3356  1.9378  0.5828
 5280TIP3   OH215803   4.268   5.807   0.860  0.0602  0.1227  0.2083
 5280TIP3    H115804   4.354   5.795   0.899  1.3045  0.6683 -2.1323
 5280TIP3    H215805   4.232   5.884   0.903  1.8397  1.3749 -0.4005
 5281TIP3   OH215806   3.992   3.545   1.506  0.0621 -0.5349 -0.0731
 5281TIP3    H115807   3.998   3.634   1.538 -0.2071 -0.7274  0.5112
 5281TIP3    H215808   4.074   3.503   1.534 -0.3357 -0.8093  0.7055
 5282TIP3   OH215809   7.080   2.769   4.943 -0.1179 -0.1615  0.1400
 5282TIP3    H115810   7.148   2.819   4.989 -0.6845 -0.2796  1.1181
 5282TIP3    H215811   7.099   2.678   4.965 -0.1300 -0.2543 -0.2284
 5283TIP3   OH215812   6.137   0.657   3.486  0.0548  0.4333  0.3744
 5283TIP3    H115813   6.079   0.583   3.505 -0.9725  1.6715  2.2959
 5283TIP3    H215814   6.208   0.649   3.551 -0.3531  1.4225  0.9515
 5284TIP3   OH215815   7.064   6.401   4.420 -0.0871  0.0142 -0.5073
 5284TIP3    H115816   6.997   6.431   4.481 -1.0283 -0.5665 -1.2309
 5284TIP3    H215817   7.077   6.474   4.360  2.9377  1.7912  1.9308
 5285TIP3   OH215818   5.714   0.258   5.156  0.1506 -0.1863  0.6689
 5285TIP3    H115819   5.642   0.321   5.165 -1.3192 -1.8813  1.3335
 5285TIP3    H215820   5.689   0.185   5.213  2.3821 -0.8775  0.8572
 5286TIP3   OH215821   2.210   0.622   3.428 -0.6433 -0.0590 -0.1529
 5286TIP3    H115822   2.246   0.535   3.415 -1.7657 -0.8311  1.4964
 5286TIP3    H215823   2.188   0.653   3.340  0.8677 -0.9160 -0.8671
 5287TIP3   OH215824   5.468   2.213   0.885  0.1730  0.0465  0.4237
 5287TIP3    H115825   5.388   2.196   0.935  0.4487 -0.5313  0.6685
 5287TIP3    H215826   5.537   2.221   0.951  0.4342 -0.1277  0.1753
 5288TIP3   OH215827   6.315   6.487   5.786 -0.5475 -0.2792  0.0915
 5288TIP3    H115828   6.384   6.428   5.816 -1.7603 -1.0508  1.4957
 5288TIP3    H215829   6.362   6.564   5.754  1.0126 -1.3873 -0.4087
 5289TIP3   OH215830   1.933   4.315   1.842 -0.3042 -0.2648 -0.0483
 5289TIP3    H115831   1.872   4.375   1.885 -0.5850  0.5939 -1.5898
 5289TIP3    H215832   1.884   4.281   1.767  0.2417 -1.5685  0.1558
 5290TIP3   OH215833   1.954   1.989   4.640 -0.0791 -0.2986 -0.0157
 5290TIP3    H115834   1.863   2.012   4.658  0.0698  2.2884 -1.9187
 5290TIP3    H215835   1.948   1.925   4.569 -0.4477  0.4880 -0.7175
 5291TIP3   OH215836   4.977   4.344   4.453 -0.2106 -0.0263  0.1081
 5291TIP3    H115837   4.994   4.311   4.541  1.2134  3.3040  1.2431
 5291TIP3    H215838   4.957   4.266   4.402  3.4057 -2.7208  2.3150
 5292TIP3   OH215839   0.708   6.032   0.160 -0.3956 -0.0903 -0.3813
 5292TIP3    H115840   0.645   6.010   0.229  0.2660 -3.0171 -0.5749
 5292TIP3    H215841   0.765   6.098   0.200 -0.6081 -1.0125  1.5541
 5293TIP3   OH215842   4.306   4.761   3.518  0.1663  0.0116 -0.7141
 5293TIP3    H115843   4.300   4.701   3.592  3.1173 -0.3010 -0.5848
 5293TIP3    H215844   4.300   4.848   3.556  1.1238 -0.1607 -0.1212
 5294TIP3   OH215845   5.879   0.039   2.059 -0.4769 -0.1101  0.2526
 5294TIP3    H115846   5.857  -0.049   2.028 -0.2649 -0.9126  2.2161
 5294TIP3    H215847   5.960   0.061   2.012  1.4292 -2.4578  2.1426
 5295TIP3   OH215848   2.417   2.699   2.815  0.0015  0.0146 -0.2667
 5295TIP3    H115849   2.339   2.741   2.851  0.2470  0.1645  0.0977
 5295TIP3    H215850   2.395   2.606   2.809  0.8312 -0.5050  2.7849
 5296TIP3   OH215851   4.757   2.607   1.549 -0.6241  0.5694  0.1008
 5296TIP3    H115852   4.829   2.666   1.526  0.8594 -0.9777  0.5862
 5296TIP3    H215853   4.737   2.562   1.467 -2.8745  2.7806 -0.6871
 5297TIP3   OH215854   3.854   3.488   3.032 -0.1467  0.5241 -0.1144
 5297TIP3    H115855   3.815   3.543   3.101 -0.4458  1.2456 -0.8432
 5297TIP3    H215856   3.905   3.549   2.979  1.6265 -0.3327  0.5341
 5298TIP3   OH215857   0.359   6.528   5.534 -0.5864 -0.0491  0.4812
 5298TIP3    H115858   0.382   6.465   5.466 -0.9243 -0.9927  1.2151
 5298TIP3    H215859   0.420   6.601   5.521 -1.3612  0.3101 -1.4984
 5299TIP3   OH215860   0.168   3.970   2.554  0.3674 -0.2789  0.3078
 5299TIP3    H115861   0.094   4.030   2.565  0.8934  0.1928  1.5140
 5299TIP3    H215862   0.244   4.021   2.584  1.1560 -0.8117 -0.7381
 5300TIP3   OH215863   1.723   6.349   0.456 -0.4299 -0.4748 -0.3644
 5300TIP3    H115864   1.754   6.410   0.523  0.4574 -0.4631 -0.7638
 5300TIP3    H215865   1.786   6.358   0.384 -0.2392 -1.8707 -0.4170
 5301TIP3   OH215866   0.254   2.495   4.890  0.4629  0.1287 -0.8078
 5301TIP3    H115867   0.282   2.406   4.869  1.1037  0.2219 -0.3687
 5301TIP3    H215868   0.167   2.502   4.852  0.0130 -1.0016 -0.0399
 5302TIP3   OH215869   5.428   5.609   1.248 -0.4857 -0.5474  0.4808
 5302TIP3    H115870   5.509   5.651   1.222 -1.1882  1.5726  1.5365
 5302TIP3    H215871   5.455   5.524   1.283  1.1142 -0.4585 -0.4564
 5303TIP3   OH215872   2.648   0.727   0.259 -0.7339 -0.1899 -0.2917
 5303TIP3    H115873   2.712   0.775   0.207 -0.6093  0.5873  0.5546
 5303TIP3    H215874   2.608   0.666   0.197 -1.3729  1.4547 -1.5688
 5304TIP3   OH215875   6.272   6.690   2.898 -0.0979 -0.6799  0.4444
 5304TIP3    H115876   6.242   6.774   2.865  2.0003  0.1973  0.6019
 5304TIP3    H215877   6.260   6.629   2.825 -1.8398 -0.3379  0.4048
 5305TIP3   OH215878   5.536   1.709   5.189  0.4378  0.4251 -1.1581
 5305TIP3    H115879   5.559   1.790   5.143  0.0446  0.9524 -0.4467
 5305TIP3    H215880   5.520   1.646   5.120  3.7528  0.0513 -1.7728
 5306TIP3   OH215881   0.941   2.441   5.279 -0.0416  0.6674 -0.4824
 5306TIP3    H115882   0.919   2.423   5.188  2.6142 -0.6752 -0.9658
 5306TIP3    H215883   0.905   2.366   5.328 -0.1767  0.6265 -0.6451
 5307TIP3   OH215884   2.193   6.236   2.496 -0.2290  0.3919  0.2439
 5307TIP3    H115885   2.108   6.263   2.531 -0.6062 -0.4139 -0.0495
 5307TIP3    H215886   2.189   6.258   2.403 -1.3552 -2.5303 -0.4873
 5308TIP3   OH215887   3.086   4.050   1.905  0.2281 -0.2066 -0.0346
 5308TIP3    H115888   3.173   4.018   1.931  0.7651  0.2368 -1.2103
 5308TIP3    H215889   3.059   4.106   1.978  2.4038  2.3280 -0.9815
 5309TIP3   OH215890   3.140   4.290   1.278 -0.3698 -0.0951  0.0905
 5309TIP3    H115891   3.110   4.369   1.233 -1.9795  0.5274  2.0863
 5309TIP3    H215892   3.139   4.222   1.211 -1.7728  0.9724 -1.0370
 5310TIP3   OH215893   0.932   2.355   0.213 -0.0032 -0.3441 -0.4522
 5310TIP3    H115894   0.871   2.334   0.142 -2.1374  0.9640  0.8875
 5310TIP3    H215895   0.896   2.311   0.289  0.9436  0.1756  0.3128
 5311TIP3   OH215896   6.126   3.109   3.847  0.2890 -0.3512  0.0552
 5311TIP3    H115897   6.157   3.083   3.934  0.6305  1.6035  0.5767
 5311TIP3    H215898   6.131   3.205   3.848  1.2364 -0.2929 -2.4534
 5312TIP3   OH215899   3.488   1.021   1.017 -0.3035  0.2094 -0.5641
 5312TIP3    H115900   3.427   0.947   1.019  1.8920 -1.7361  1.1266
 5312TIP3    H215901   3.574   0.980   1.030  1.5183  2.6963 -3.6154
 5313TIP3   OH215902   1.524   1.754   5.357 -0.3648 -0.2494  0.2624
 5313TIP3    H115903   1.450   1.779   5.411 -0.0027 -2.3432  1.8243
 5313TIP3    H215904   1.486   1.710   5.282 -0.7436  0.0520  0.2763
 5314TIP3   OH215905   1.006   0.837   3.030 -0.0399 -0.1741 -0.5294
 5314TIP3    H115906   0.969   0.777   2.966 -0.0617 -0.8741  0.1224
 5314TIP3    H215907   0.931   0.879   3.071 -0.0043  0.9258 -1.5565
 5315TIP3   OH215908   1.231   0.958   2.283 -0.9580 -0.2432 -0.3796
 5315TIP3    H115909   1.271   1.019   2.345 -0.6960  1.0122 -1.7361
 5315TIP3    H215910   1.305   0.918   2.238 -1.1677 -0.3445 -0.6335
 5316TIP3   OH215911   3.950   6.034   4.722 -0.0159  0.1271 -0.0669
 5316TIP3    H115912   3.980   5.948   4.752 -1.0185 -1.0781 -2.2613
 5316TIP3    H215913   3.861   6.042   4.756 -0.2429 -0.1315 -0.5780
 5317TIP3   OH215914   6.584   3.965   2.979 -0.3349  0.3147 -0.3473
 5317TIP3    H115915   6.504   3.915   2.995  0.5612 -0.9997  0.1701
 5317TIP3    H215916   6.602   4.009   3.062 -0.8106  1.0635 -0.6314
 5318TIP3   OH215917   4.296   6.269   2.779 -0.4557  0.0766  0.0669
 5318TIP3    H115918   4.317   6.331   2.709 -0.1195  0.1545  0.2309
 5318TIP3    H215919   4.220   6.306   2.822  0.9296  1.4768  1.4491
 5319TIP3   OH215920   5.247   1.587   3.356  0.0106 -0.6263 -0.3535
 5319TIP3    H115921   5.325   1.537   3.381 -0.5643 -0.3424  2.3230
 5319TIP3    H215922   5.174   1.532   3.383 -0.6498  1.0017  1.3785
 5320TIP3   OH215923   1.766   5.795   4.272 -0.4873 -0.3154 -0.4967
 5320TIP3    H115924   1.841   5.802   4.214  0.7832  1.8272  1.2519
 5320TIP3    H215925   1.775   5.709   4.313  1.2450  0.0564 -0.0514
 5321TIP3   OH215926   4.110   1.076   3.019  0.0806 -0.3220 -0.1682
 5321TIP3    H115927   4.062   1.031   3.088 -0.9218 -1.6595 -1.6633
 5321TIP3    H215928   4.150   1.152   3.062  1.9828 -2.6593  2.4953
 5322TIP3   OH215929   2.931   0.248   5.046  0.2874 -0.1822 -0.3040
 5322TIP3    H115930   2.919   0.154   5.036  1.1385 -0.2375 -0.9407
 5322TIP3    H215931   2.991   0.272   4.975  0.0735  0.8398 -0.1583
 5323TIP3   OH215932   4.381   5.034   1.686 -0.0008 -0.3947 -0.2866
 5323TIP3    H115933   4.385   4.979   1.607 -0.4861  0.6910 -1.0916
 5323TIP3    H215934   4.433   5.111   1.663  1.6123 -0.9522  1.2357
 5324TIP3   OH215935   1.344   1.086   0.881  0.9502  0.2137 -0.3870
 5324TIP3    H115936   1.330   0.996   0.911  0.2160  0.4375 -0.0349
 5324TIP3    H215937   1.422   1.081   0.827  0.0648 -0.9301 -1.6365
 5325TIP3   OH215938   2.664   6.440   1.173 -0.4066 -0.1038 -0.0364
 5325TIP3    H115939   2.650   6.424   1.266  0.8337 -2.1907 -0.1462
 5325TIP3    H215940   2.694   6.531   1.168  1.9855 -0.6957  1.8983
 5326TIP3   OH215941   0.057   1.454   2.535  0.5493  0.3437 -0.4961
 5326TIP3    H115942   0.002   1.433   2.460  0.7137  0.0205 -0.5250
 5326TIP3    H215943   0.146   1.461   2.499  0.5084  1.0244 -0.4784
 5327TIP3   OH215944   6.020   6.183   3.971 -0.4753  0.3536 -0.1354
 5327TIP3    H115945   6.014   6.262   4.024 -2.1237  0.6420 -0.6959
 5327TIP3    H215946   5.973   6.204   3.890 -1.3504 -1.3292 -0.1125
 5328TIP3   OH215947   6.870   0.557   1.050  0.3070  0.0604  0.2080
 5328TIP3    H115948   6.888   0.536   0.958  1.0304  2.7135 -0.3564
 5328TIP3    H215949   6.776   0.542   1.059  0.0003  0.8013 -1.3239
 5329TIP3   OH215950   3.220   1.047   4.453  0.5860  0.3540  0.1525
 5329TIP3    H115951   3.225   0.982   4.383 -1.0991  0.2474  0.1042
 5329TIP3    H215952   3.312   1.060   4.479  0.9713 -2.5634  0.6617
 5330TIP3   OH215953   6.288   6.043   1.379 -0.7132 -0.2830 -0.2142
 5330TIP3    H115954   6.289   6.118   1.438 -1.4073 -0.2887 -0.1934
 5330TIP3    H215955   6.276   5.967   1.436  2.0838 -0.6569  0.0054
 5331TIP3   OH215956   5.353   4.057   0.539 -0.6268  0.8176  0.4714
 5331TIP3    H115957   5.277   4.023   0.588 -0.1082  0.6766  1.1888
 5331TIP3    H215958   5.351   4.008   0.456 -1.2552  0.7385  0.5220
 5332TIP3   OH215959   2.742   2.647   4.917  0.2233 -0.1977  0.0170
 5332TIP3    H115960   2.677   2.597   4.867 -0.4569  0.3797  0.3110
 5332TIP3    H215961   2.693   2.683   4.990  0.9762 -0.1101  0.4845
 5333TIP3   OH215962   2.112   6.502   5.557  0.0506  0.2446  0.0432
 5333TIP3    H115963   2.178   6.569   5.542 -0.5086  0.8766  0.3262
 5333TIP3    H215964   2.108   6.453   5.476  0.9189  0.1529  0.0533
 5334TIP3   OH215965   6.792   4.878   3.521 -0.1381  0.1551 -0.1137
 5334TIP3    H115966   6.872   4.931   3.526  0.1428 -0.2779  0.1208
 5334TIP3    H215967   6.746   4.910   3.443  0.8311 -0.3721 -0.9195
 5335TIP3   OH215968   2.382   4.300   3.638  0.1704  0.0160  0.2079
 5335TIP3    H115969   2.299   4.287   3.684 -0.7552 -2.7178 -1.9479
 5335TIP3    H215970   2.421   4.213   3.634  1.8634  0.7717 -1.1521
 5336TIP3   OH215971   0.268   6.148   5.394  0.0637  0.9877  0.4231
 5336TIP3    H115972   0.293   6.199   5.317  1.7597 -1.1074 -0.5016
 5336TIP3    H215973   0.341   6.160   5.455 -0.0880  0.6276  0.6764
 5337TIP3   OH215974   1.625   2.558   4.361 -0.1944 -0.1949  0.4345
 5337TIP3    H115975   1.662   2.624   4.302  0.1491  0.0520  0.9150
 5337TIP3    H215976   1.662   2.475   4.331 -0.4933 -0.1519 -0.0679
 5338TIP3   OH215977   1.829   6.638   5.699  0.3518  0.0260 -0.0267
 5338TIP3    H115978   1.795   6.724   5.674  1.6164 -0.1427 -2.6642
 5338TIP3    H215979   1.896   6.619   5.634  2.0005 -1.8242  2.0559
 5339TIP3   OH215980   1.127   6.541   3.403 -0.4247  0.0130 -0.1264
 5339TIP3    H115981   1.208   6.491   3.416 -0.1276  0.6205  0.4661
 5339TIP3    H215982   1.058   6.475   3.397  0.1348 -0.5181 -0.8124
 5340TIP3   OH215983   5.612   6.588   1.363 -0.1843  0.3135 -0.1752
 5340TIP3    H115984   5.707   6.580   1.375 -0.0455  1.8700  0.0122
 5340TIP3    H215985   5.579   6.610   1.450 -0.7914 -0.6471 -0.1510
 5341TIP3   OH215986   5.194   6.572   1.900  0.1287  0.1010  0.1020
 5341TIP3    H115987   5.153   6.487   1.919  1.6264 -0.8350 -0.6935
 5341TIP3    H215988   5.285   6.551   1.883  0.0714  1.5639 -2.4053
 5342TIP3   OH215989   1.773   0.545   0.519 -0.1136 -0.3068 -0.3116
 5342TIP3    H115990   1.717   0.469   0.533 -1.0231 -0.0472 -2.1485
 5342TIP3    H215991   1.850   0.510   0.474  0.2321 -0.3525  0.3003
 5343TIP3   OH215992   3.004   6.183   4.646 -0.1031 -0.1110  0.1353
 5343TIP3    H115993   3.065   6.254   4.665  2.3705 -1.5420 -1.8271
 5343TIP3    H215994   3.001   6.131   4.727 -0.8886  1.4136  1.1298
 5344TIP3   OH215995   4.021   5.368   1.888  0.3530  0.5801 -0.3724
 5344TIP3    H115996   4.077   5.410   1.823  0.5293  3.1153  1.2852
 5344TIP3    H215997   3.939   5.417   1.884  0.3171  0.6955  1.1780
 5345TIP3   OH215998   5.935   6.056   5.010  0.5769 -0.2663  0.6780
 5345TIP3    H115999   5.866   6.081   4.949 -0.4904 -1.8308  1.1636
 5345TIP3    H216000   5.919   5.963   5.028  1.3597 -0.0836  2.6774
 5346TIP3   OH216001   7.120   0.492   4.314 -0.3260 -0.1520  0.6586
 5346TIP3    H116002   7.092   0.556   4.379 -0.0979 -1.6150  2.2854
 5346TIP3    H216003   7.136   0.412   4.364 -0.0540 -1.3404 -1.1992
 5347TIP3   OH216004   3.071   3.135   2.021 -0.1849  0.1811  0.5048
 5347TIP3    H116005   3.127   3.166   1.950 -1.4519  0.8990 -0.2076
 5347TIP3    H216006   3.091   3.041   2.028  0.1069  0.1416 -0.6559
 5348TIP3   OH216007   1.112   1.309   4.607 -0.1458  0.0424  0.1466
 5348TIP3    H116008   1.164   1.232   4.586 -0.9160 -0.6910  0.8426
 5348TIP3    H216009   1.023   1.276   4.620 -0.7651  1.2370 -0.8335
 5349TIP3   OH216010   6.628   4.981   2.653  0.1827 -0.0015 -0.0841
 5349TIP3    H116011   6.637   5.013   2.743 -0.3850 -0.5364  0.1766
 5349TIP3    H216012   6.707   5.010   2.609  0.1418  0.8759  0.4024
 5350TIP3   OH216013   6.353   5.243   2.841 -0.4260 -0.0862 -0.8216
 5350TIP3    H116014   6.355   5.180   2.769 -0.0974 -1.8563  0.6717
 5350TIP3    H216015   6.444   5.271   2.852 -0.7020  1.4362 -2.0939
 5351TIP3   OH216016   4.762   4.680   2.634  0.3807 -0.6679 -0.7423
 5351TIP3    H116017   4.811   4.651   2.711  1.1014 -0.8890 -1.2799
 5351TIP3    H216018   4.702   4.608   2.615  3.0199 -2.5046 -2.8379
 5352TIP3   OH216019   5.293   5.832   4.088 -0.3446 -0.0232 -0.3718
 5352TIP3    H116020   5.329   5.911   4.048 -0.1364  0.6416  1.0534
 5352TIP3    H216021   5.345   5.761   4.050 -0.5387  0.4975 -1.6788
 5353TIP3   OH216022   1.369   0.697   1.516 -0.0539 -0.4928 -0.0391
 5353TIP3    H116023   1.389   0.729   1.604 -0.7244 -1.3552  0.4419
 5353TIP3    H216024   1.421   0.617   1.507  1.4755  0.5608 -1.1677
 5354TIP3   OH216025   6.005   3.627   0.262 -0.3001 -0.0712  0.0743
 5354TIP3    H116026   5.922   3.617   0.308 -0.2772 -3.1252 -0.3832
 5354TIP3    H216027   6.049   3.699   0.308 -2.1396 -0.0215  1.9056
 5355TIP3   OH216028   3.187   4.344   0.106 -0.3000 -0.1055 -0.5575
 5355TIP3    H116029   3.210   4.436   0.120  0.2656 -0.1370 -1.2320
 5355TIP3    H216030   3.263   4.295   0.136 -0.3033 -0.3141 -0.8851
 5356TIP3   OH216031   0.544   5.595   4.392 -0.1803  0.0120  0.0052
 5356TIP3    H116032   0.449   5.593   4.381 -0.0779  1.1704 -1.3433
 5356TIP3    H216033   0.562   5.525   4.455 -2.1047  1.0276  1.7858
 5357TIP3   OH216034   0.445   2.971   4.911 -0.0837 -0.0821 -0.2643
 5357TIP3    H116035   0.422   3.064   4.915  1.9185  0.4927 -1.0642
 5357TIP3    H216036   0.363   2.926   4.931 -0.7769  1.8521  1.7782
 5358TIP3   OH216037   5.062   3.173   1.985 -0.7983 -0.1720 -0.6146
 5358TIP3    H116038   5.146   3.201   2.020 -1.6713  0.8149  0.7675
 5358TIP3    H216039   5.040   3.239   1.919 -0.4119 -0.5283 -1.1016
 5359TIP3   OH216040   6.060   4.492   0.624 -0.3009  0.1231 -0.0271
 5359TIP3    H116041   6.049   4.469   0.716 -0.5055  0.0504 -0.0699
 5359TIP3    H216042   5.999   4.564   0.609 -0.8566 -0.4014 -0.3099
 5360TIP3   OH216043   3.066   4.070   5.124 -0.1567  0.3726  0.3064
 5360TIP3    H116044   3.045   3.999   5.186  0.7252 -0.3906 -0.2417
 5360TIP3    H216045   3.056   4.150   5.174 -1.4371 -0.1154  0.8800
 5361TIP3   OH216046   3.581   3.998   5.185 -0.0892 -0.4217  0.1418
 5361TIP3    H116047   3.527   3.923   5.212 -0.4168 -0.3048 -0.1778
 5361TIP3    H216048   3.651   4.002   5.250 -2.7056  1.9386  3.2057
 5362TIP3   OH216049   3.223   5.113   2.191  0.1922  0.3989  0.6668
 5362TIP3    H116050   3.239   5.045   2.125 -0.1751  0.5102  0.4597
 5362TIP3    H216051   3.300   5.169   2.187  0.8238 -0.3919  1.3226
 5363TIP3   OH216052   3.244   2.842   4.157 -0.0373 -0.6363 -0.0944
 5363TIP3    H116053   3.298   2.764   4.163 -0.2288 -0.7702 -0.1213
 5363TIP3    H216054   3.221   2.863   4.248 -0.9304 -1.2707 -0.1649
 5364TIP3   OH216055   1.674   6.012   1.773  0.1443  0.2062 -0.3084
 5364TIP3    H116056   1.678   5.962   1.854 -1.9936 -2.0984 -1.4837
 5364TIP3    H216057   1.745   5.977   1.719 -1.9960 -2.5951 -1.5394
 5365TIP3   OH216058   5.576   4.049   3.941  0.2615  0.0795 -0.0638
 5365TIP3    H116059   5.505   4.113   3.937  0.4209  0.2279 -0.7244
 5365TIP3    H216060   5.613   4.049   3.852 -0.7212 -2.0694 -0.5327
 5366TIP3   OH216061   5.305   0.271   2.907 -0.9219 -0.4880  0.8638
 5366TIP3    H116062   5.254   0.341   2.866 -0.4450 -0.0492  1.0038
 5366TIP3    H216063   5.240   0.208   2.938 -1.3620 -0.0598  0.8170
 5367TIP3   OH216064   1.330   3.162   3.795  0.4075 -0.0328 -0.3204
 5367TIP3    H116065   1.307   3.075   3.762 -0.6169 -0.0763  0.4279
 5367TIP3    H216066   1.315   3.155   3.890  3.1599  0.1029  0.1919
 5368TIP3   OH216067   5.359   5.364   0.598  0.6536 -0.7508  0.0720
 5368TIP3    H116068   5.354   5.270   0.610  1.8698 -0.9952 -1.1109
 5368TIP3    H216069   5.434   5.392   0.651  0.1667 -0.4147  0.5894
 5369TIP3   OH216070   4.763   5.157   4.583 -0.2880 -0.3795  0.4591
 5369TIP3    H116071   4.735   5.248   4.573 -0.9299 -0.5634  0.5806
 5369TIP3    H216072   4.839   5.149   4.526 -1.7392 -0.4463 -1.5592
 5370TIP3   OH216073   3.249   1.931   4.548  0.2460  0.1968  0.2253
 5370TIP3    H116074   3.210   1.919   4.635 -0.4611 -1.2752 -0.2404
 5370TIP3    H216075   3.256   1.842   4.513  2.0361  0.6216 -0.5946
 5371TIP3   OH216076   0.524   1.506   1.590  0.0831 -0.2532  0.0755
 5371TIP3    H116077   0.464   1.521   1.518 -0.7106 -0.5890  0.6544
 5371TIP3    H216078   0.609   1.535   1.557 -0.5008  0.8352 -0.5321
 5372TIP3   OH216079   7.041   4.810   5.018 -0.2892  0.0400  0.1967
 5372TIP3    H116080   7.054   4.844   5.107 -1.7800  1.5551 -0.1189
 5372TIP3    H216081   7.051   4.886   4.961 -0.8095 -0.6174 -0.8070
 5373TIP3   OH216082   4.384   2.728   0.041  0.2656  0.3585 -0.3985
 5373TIP3    H116083   4.469   2.769   0.028  1.1345 -1.2106  0.0943
 5373TIP3    H216084   4.389   2.646  -0.008 -0.8533  0.0959 -0.1150
 5374TIP3   OH216085   6.241   0.347   2.741  0.8312  0.1496  0.0149
 5374TIP3    H116086   6.171   0.322   2.681  0.7219  0.1004  0.1627
 5374TIP3    H216087   6.197   0.392   2.813  0.9651  0.2377  0.0433
 5375TIP3   OH216088   6.104   0.488   2.955  0.1896 -0.1554  0.3613
 5375TIP3    H116089   6.185   0.531   2.984  1.4133 -0.6692 -1.9615
 5375TIP3    H216090   6.108   0.401   2.994 -1.3910  1.0759  3.6030
 5376TIP3   OH216091   3.682   2.401   3.007 -0.0216  1.0290  0.2900
 5376TIP3    H116092   3.760   2.385   2.954 -0.4658 -0.1963 -0.0323
 5376TIP3    H216093   3.635   2.471   2.962  0.3901  1.0762 -0.0649
 5377TIP3   OH216094   6.235   0.487   0.348  0.0982  0.3335  0.4599
 5377TIP3    H116095   6.321   0.447   0.358  0.2083  0.3341 -0.3868
 5377TIP3    H216096   6.234   0.519   0.257 -1.5319 -1.4776 -0.2324
 5378TIP3   OH216097   7.105   5.164   0.523  0.0472  0.6454  0.6119
 5378TIP3    H116098   7.074   5.201   0.440 -0.0470  0.6778  0.6611
 5378TIP3    H216099   7.151   5.236   0.566  0.9327  0.3635  0.1615
 5379TIP3   OH216100   3.731   3.369   2.034 -0.4841 -0.1049 -0.1115
 5379TIP3    H116101   3.757   3.439   1.974  0.1478 -1.1261 -1.0703
 5379TIP3    H216102   3.667   3.410   2.092  0.4605  1.4792 -0.1238
 5380TIP3   OH216103   5.215   1.604   3.070 -0.1716 -0.4185  0.2130
 5380TIP3    H116104   5.290   1.545   3.063 -0.0718 -0.7139  2.7112
 5380TIP3    H216105   5.179   1.587   3.158 -1.6755  1.4458  0.0379
 5381TIP3   OH216106   3.677   5.697   2.433 -0.0170  0.3172 -0.4000
 5381TIP3    H116107   3.732   5.775   2.447  0.2787  0.0993 -0.3394
 5381TIP3    H216108   3.605   5.707   2.495  0.4561  0.1387  0.1874
 5382TIP3   OH216109   6.435   4.532   2.849 -0.3788  0.2428 -0.1901
 5382TIP3    H116110   6.356   4.576   2.881  0.2796  3.1056 -2.1309
 5382TIP3    H216111   6.502   4.599   2.850  1.0585 -1.0397 -2.1840
 5383TIP3   OH216112   1.146   5.896   2.880  0.6144 -0.0653  0.6297
 5383TIP3    H116113   1.051   5.893   2.888  0.4679  0.5865 -0.6153
 5383TIP3    H216114   1.172   5.973   2.931  0.0981  1.7621 -1.7210
 5384TIP3   OH216115   4.589   6.090   5.606  0.3237 -0.3162  0.1114
 5384TIP3    H116116   4.674   6.048   5.593  1.1581  0.7322  1.7597
 5384TIP3    H216117   4.566   6.070   5.697 -0.5787  0.4541  0.0702
 5385TIP3   OH216118   2.661   6.215   3.406  0.3097 -0.2825 -0.0767
 5385TIP3    H116119   2.697   6.141   3.357  0.5736  0.0083 -0.3229
 5385TIP3    H216120   2.736   6.271   3.423  0.5142 -1.0905  1.9684
 5386TIP3   OH216121   5.551   3.081   0.608 -0.0540  0.0002  0.2762
 5386TIP3    H116122   5.605   3.005   0.585  0.2714  0.6993 -1.3771
 5386TIP3    H216123   5.606   3.133   0.666  0.4472 -0.0969 -0.1052
 5387TIP3   OH216124   0.879   3.732   3.489 -0.3066  0.8209  0.1492
 5387TIP3    H116125   0.940   3.658   3.496  0.3192  1.4405  1.8650
 5387TIP3    H216126   0.796   3.698   3.523  0.6171  1.4937  3.4666
 5388TIP3   OH216127   4.892   2.022   1.171  0.0250  0.5915  0.1440
 5388TIP3    H116128   4.953   2.095   1.170 -1.0076  1.5511  2.1404
 5388TIP3    H216129   4.805   2.062   1.168 -0.6297 -0.7437 -2.7999
 5389TIP3   OH216130   0.804   4.146   0.675  0.2937 -0.0747 -0.0109
 5389TIP3    H116131   0.800   4.213   0.743 -0.4800 -0.9758  0.8524
 5389TIP3    H216132   0.736   4.172   0.613  1.5684  1.2239 -0.9335
 5390TIP3   OH216133   1.737   4.671   0.482 -0.1413 -0.3652 -0.1060
 5390TIP3    H116134   1.827   4.644   0.501  0.5164  1.7030  0.0039
 5390TIP3    H216135   1.740   4.700   0.391 -0.5522  0.2443  0.0693
 5391TIP3   OH216136   1.472   4.699   0.734  0.1556 -0.4774 -0.3897
 5391TIP3    H116137   1.549   4.643   0.746  0.3124 -0.5842 -1.7017
 5391TIP3    H216138   1.406   4.662   0.791  0.1514 -2.2523 -1.4694
 5392TIP3   OH216139   6.303   0.667   4.422  0.4051 -0.0043  0.6000
 5392TIP3    H116140   6.274   0.669   4.331 -1.3095  2.3053  1.1011
 5392TIP3    H216141   6.348   0.751   4.435  0.2526 -0.1128  1.9788
 5393TIP3   OH216142   6.891   3.629   0.704 -0.0077  0.2006  0.7457
 5393TIP3    H116143   6.905   3.720   0.677  0.3451  0.4317  1.6701
 5393TIP3    H216144   6.867   3.634   0.796 -0.1206 -0.6391  0.7735
 5394TIP3   OH216145   6.400   6.072   5.717 -0.3563  0.5987  0.0244
 5394TIP3    H116146   6.305   6.060   5.714 -0.3066  0.3557 -1.1824
 5394TIP3    H216147   6.424   6.052   5.807 -1.4820  0.8996  0.3978
 5395TIP3   OH216148   4.049   2.307   4.808  0.0671 -0.0033  0.8743
 5395TIP3    H116149   4.015   2.382   4.758  0.8134  0.6175  1.2684
 5395TIP3    H216150   3.988   2.300   4.883 -0.1044  0.1054  0.7474
 5396TIP3   OH216151   7.118   6.469   1.077  0.0977  0.9457 -0.3467
 5396TIP3    H116152   7.042   6.428   1.037 -0.2980  1.6552 -0.3290
 5396TIP3    H216153   7.091   6.559   1.094  0.7451  1.0450  0.1917
 5397TIP3   OH216154   1.296   2.337   5.321  0.2310 -0.2638  0.1247
 5397TIP3    H116155   1.359   2.290   5.376 -0.2297 -1.6794 -0.4897
 5397TIP3    H216156   1.277   2.417   5.369  0.4720 -1.0641  1.6382
 5398TIP3   OH216157   6.380   1.460   4.045 -0.8100 -0.0816 -0.4010
 5398TIP3    H116158   6.374   1.519   4.120 -0.0499 -1.0327  0.4276
 5398TIP3    H216159   6.465   1.417   4.055  0.2540  1.2325 -2.9120
 5399TIP3   OH216160   1.288   2.880   5.369 -0.1428  0.1393  0.0377
 5399TIP3    H116161   1.265   2.973   5.372 -0.9210 -0.0399 -0.1844
 5399TIP3    H216162   1.317   2.859   5.457 -1.4050  0.2375  0.4959
 5400TIP3   OH216163   2.658   4.865   1.506 -0.4231 -0.5539 -0.2966
 5400TIP3    H116164   2.616   4.849   1.422 -0.0683 -1.2481 -0.3471
 5400TIP3    H216165   2.744   4.824   1.498  0.9642  2.2469 -0.7882
 5401TIP3   OH216166   3.367   6.331   2.055 -0.2769  0.2648 -0.0360
 5401TIP3    H116167   3.313   6.329   1.976  0.8527 -0.2265 -0.8224
 5401TIP3    H216168   3.440   6.272   2.035  0.9859  1.5454  0.6581
 5402TIP3   OH216169   3.937   6.760   2.501  0.2076  0.1847 -0.4059
 5402TIP3    H116170   3.869   6.732   2.562 -0.6283  0.2110 -1.3120
 5402TIP3    H216171   3.967   6.678   2.461 -1.1109  0.3836 -1.8787
 5403TIP3   OH216172   2.871   4.747   5.140  0.2019 -0.0857 -0.3061
 5403TIP3    H116173   2.840   4.657   5.140  0.1822 -0.0825  0.4348
 5403TIP3    H216174   2.864   4.775   5.048 -1.6026 -0.2118 -0.2362
 5404TIP3   OH216175   2.309   1.018   1.491  0.8178  0.1845 -0.1149
 5404TIP3    H116176   2.253   1.083   1.533  0.8526  0.1914 -0.0788
 5404TIP3    H216177   2.344   0.966   1.563 -0.9342 -1.2967 -0.2582
 5405TIP3   OH216178   1.366   5.286   0.942  0.0814  0.3454  0.2603
 5405TIP3    H116179   1.282   5.256   0.978  0.0837  0.8320  0.6795
 5405TIP3    H216180   1.370   5.379   0.965  1.2703  0.0649  1.2388
 5406TIP3   OH216181   6.514   2.723   4.022  0.2390  0.2027 -0.2369
 5406TIP3    H116182   6.508   2.724   4.117  0.1233 -0.9528 -0.2152
 5406TIP3    H216183   6.434   2.678   3.993  0.7793 -0.4273 -0.8107
 5407TIP3   OH216184   0.459   4.299   4.699  0.1410 -0.1660 -0.0606
 5407TIP3    H116185   0.372   4.331   4.676  0.9624  2.5767  0.1932
 5407TIP3    H216186   0.514   4.378   4.695  2.1484 -1.3683  2.0108
 5408TIP3   OH216187   4.923   5.906   2.605 -0.0306 -0.7394  0.4558
 5408TIP3    H116188   4.938   5.878   2.695  1.1536  1.6772  1.0841
 5408TIP3    H216189   5.011   5.924   2.571 -0.6342  1.1232 -0.2075
 5409TIP3   OH216190   6.185   4.571   3.256 -0.2592 -0.0702  0.4021
 5409TIP3    H116191   6.250   4.502   3.245  0.3295  0.6933 -1.2555
 5409TIP3    H216192   6.135   4.570   3.175  0.2644  1.9049 -0.0213
 5410TIP3   OH216193   1.579   6.489   1.939  0.0434  0.4497  0.6674
 5410TIP3    H116194   1.543   6.401   1.927  1.0738  0.0988  0.0746
 5410TIP3    H216195   1.513   6.535   1.991 -0.8076 -0.4708  0.4214
 5411TIP3   OH216196   3.766   5.352   5.407 -0.3027 -0.0399 -0.0938
 5411TIP3    H116197   3.723   5.270   5.384 -0.7357 -0.2158  1.2229
 5411TIP3    H216198   3.822   5.329   5.482 -0.5184  0.8703  0.3620
 5412TIP3   OH216199   6.167   5.616   2.553  0.1679  0.3305 -0.2432
 5412TIP3    H116200   6.180   5.575   2.639  1.1619 -1.3206 -1.1057
 5412TIP3    H216201   6.094   5.568   2.515  0.7905 -0.0854 -0.9406
 5413TIP3   OH216202   3.819   4.325   2.811  0.3745  0.1551  0.3360
 5413TIP3    H116203   3.813   4.236   2.776  1.0183  0.9664 -2.0499
 5413TIP3    H216204   3.730   4.360   2.800  0.4084  0.1827  0.1432
 5414TIP3   OH216205   5.536   4.923   2.822  0.2169 -0.0182  0.0721
 5414TIP3    H116206   5.484   4.853   2.860 -0.3771  0.5233  0.2731
 5414TIP3    H216207   5.627   4.896   2.836 -0.0039 -0.5871  0.4345
 5415TIP3   OH216208   5.288   1.409   4.670 -0.1586 -0.0374  0.0426
 5415TIP3    H116209   5.264   1.501   4.664 -1.2115 -0.2778  0.2121
 5415TIP3    H216210   5.381   1.409   4.691 -0.6067  1.0632  2.4320
 5416TIP3   OH216211   6.081   4.222   2.933 -0.1664  0.2880  0.2898
 5416TIP3    H116212   5.995   4.187   2.956 -0.1766  1.4712  2.2114
 5416TIP3    H216213   6.110   4.270   3.010  0.9239  2.4589 -1.3573
 5417TIP3   OH216214   2.155   5.018   0.709 -0.2157  0.3410 -0.6046
 5417TIP3    H116215   2.203   4.948   0.664 -2.1221 -2.7385  1.7551
 5417TIP3    H216216   2.069   5.019   0.668  0.4078  3.1011 -2.1512
 5418TIP3   OH216217   4.519   2.880   1.576 -0.3564 -0.3299 -0.5495
 5418TIP3    H116218   4.459   2.955   1.573  1.5603  1.2664 -1.1034
 5418TIP3    H216219   4.496   2.828   1.499 -0.7894  0.4458 -0.9548
 5419TIP3   OH216220   5.038   0.698   4.330 -0.4348  0.8231  0.2119
 5419TIP3    H116221   5.033   0.613   4.286  1.1258  1.3184 -1.0154
 5419TIP3    H216222   4.971   0.751   4.288 -0.9049  0.4368  0.4617
 5420TIP3   OH216223   6.130   5.493   3.434 -0.5800  0.1686 -0.4364
 5420TIP3    H116224   6.112   5.399   3.427  0.2879 -0.2482  2.0142
 5420TIP3    H216225   6.226   5.499   3.443 -0.4276  1.4677 -2.3202
 5421TIP3   OH216226   3.352   1.417   0.221 -0.1382  0.0616 -0.2935
 5421TIP3    H116227   3.443   1.441   0.207 -0.2571  0.0838 -1.0896
 5421TIP3    H216228   3.306   1.501   0.227  0.1226  0.1043  1.9487
 5422TIP3   OH216229   2.080   0.812   0.794  0.3785 -0.4102 -0.2208
 5422TIP3    H116230   2.143   0.741   0.802 -1.1926 -1.8256  0.3088
 5422TIP3    H216231   2.129   0.891   0.815  1.4831 -1.6965  2.5550
 5423TIP3   OH216232   0.272   2.070   0.943  0.2944  0.6167  0.1293
 5423TIP3    H116233   0.229   1.988   0.965  0.2421 -0.2457 -2.7512
 5423TIP3    H216234   0.252   2.129   1.016 -2.0997 -1.0518  0.9218
 5424TIP3   OH216235   4.648   4.721   5.084  0.0968  0.2189 -0.6167
 5424TIP3    H116236   4.661   4.656   5.015 -0.7773 -0.2387 -0.3661
 5424TIP3    H216237   4.553   4.730   5.091  0.2083  1.7703 -0.8671
 5425TIP3   OH216238   2.188   3.327   1.565 -0.2445 -0.3706  0.3903
 5425TIP3    H116239   2.182   3.347   1.659 -0.8700  1.3288  0.0388
 5425TIP3    H216240   2.110   3.275   1.547 -0.8955  0.5070  0.5715
 5426TIP3   OH216241   6.160   1.605   4.366 -0.2396 -0.4990  0.3074
 5426TIP3    H116242   6.197   1.643   4.287 -1.5678 -0.0694 -0.1430
 5426TIP3    H216243   6.216   1.636   4.437  0.5635 -0.3364 -0.3894
 5427TIP3   OH216244   3.925   3.970   2.086  0.3113 -0.1563  0.4279
 5427TIP3    H116245   3.962   3.988   2.173  2.0756  0.2309 -0.3699
 5427TIP3    H216246   3.992   3.999   2.025 -0.5551 -1.1833 -1.0671
 5428TIP3   OH216247   1.608   0.340   0.283 -0.0694  0.3714  0.2989
 5428TIP3    H116248   1.684   0.388   0.248 -0.0862  0.3859  0.2826
 5428TIP3    H216249   1.534   0.399   0.269  0.3451  1.7481  3.0997
 5429TIP3   OH216250   3.890   5.631   1.494  0.0700  0.6259 -0.0715
 5429TIP3    H116251   3.849   5.544   1.488 -0.3196  0.8075 -0.0762
 5429TIP3    H216252   3.963   5.627   1.432  0.2217  0.2122  0.1261
 5430TIP3   OH216253   6.370   6.158   3.416  0.0534  0.5396  0.1988
 5430TIP3    H116254   6.347   6.131   3.328  0.1001  1.2267 -0.0262
 5430TIP3    H216255   6.346   6.083   3.471  1.5641 -0.5726 -0.5752
 5431TIP3   OH216256   2.041   0.021   5.302 -0.0103 -0.1341 -0.3387
 5431TIP3    H116257   1.965   0.022   5.245 -0.6724 -0.2152  0.5140
 5431TIP3    H216258   2.019  -0.042   5.370  0.0717  1.0844  0.8778
 5432TIP3   OH216259   3.087   5.719   0.358  0.1748  0.7335  0.2907
 5432TIP3    H116260   3.007   5.749   0.315  0.7754  0.5987 -0.9570
 5432TIP3    H216261   3.056   5.659   0.426 -0.7990  1.0693  0.1694
 5433TIP3   OH216262   1.211   0.767   5.186  0.2272  0.5286 -0.5437
 5433TIP3    H116263   1.130   0.757   5.136  0.4603 -1.2994 -0.6444
 5433TIP3    H216264   1.279   0.781   5.119  0.2644  0.0123 -0.6214
 5434TIP3   OH216265   6.956   5.536   3.897  0.0613 -0.4441  0.0050
 5434TIP3    H116266   7.026   5.527   3.962 -0.4783  0.4309  0.7266
 5434TIP3    H216267   6.883   5.485   3.932 -0.0288 -0.4737 -0.2176
 5435TIP3   OH216268   6.295   6.298   4.540  0.2713  0.1968  0.2165
 5435TIP3    H116269   6.341   6.377   4.510  0.4816 -0.6420 -1.8148
 5435TIP3    H216270   6.300   6.238   4.466  1.0412 -2.1629  2.0721
 5436TIP3   OH216271   6.185   1.036   2.529 -0.0993  0.2772  0.3158
 5436TIP3    H116272   6.147   0.981   2.597  0.1053  2.3708  2.2583
 5436TIP3    H216273   6.279   1.036   2.548  0.1261  0.0068 -0.6986
 5437TIP3   OH216274   6.749   4.662   3.317  0.2077 -0.3516  0.2665
 5437TIP3    H116275   6.734   4.664   3.411  0.9643  0.5264  0.3755
 5437TIP3    H216276   6.694   4.733   3.282 -1.4067 -1.7456 -0.1803
 5438TIP3   OH216277   0.246   6.559   3.728  0.1585  0.1095  0.0578
 5438TIP3    H116278   0.250   6.467   3.704  1.9861 -0.4306  2.1275
 5438TIP3    H216279   0.153   6.574   3.747 -0.4172 -0.8509 -1.7248
 5439TIP3   OH216280   3.252   3.574   3.902 -0.0191 -0.8810  0.3140
 5439TIP3    H116281   3.292   3.530   3.827 -0.3592  0.5553 -0.7664
 5439TIP3    H216282   3.189   3.511   3.936 -0.5126 -1.2638 -1.2027
 5440TIP3   OH216283   2.192   6.066   3.107 -0.2706  0.3569 -0.0305
 5440TIP3    H116284   2.197   6.161   3.098  0.4756  0.4662  1.1709
 5440TIP3    H216285   2.123   6.039   3.047 -0.4561  1.6515 -0.4296
 5441TIP3   OH216286   4.973   2.285   1.769  0.2742  0.6998 -0.3622
 5441TIP3    H116287   5.023   2.294   1.850 -0.1405  1.2581 -0.1579
 5441TIP3    H216288   4.906   2.220   1.789  0.7974  0.0793 -0.5829
 5442TIP3   OH216289   2.893   2.129   4.657  0.9032  0.2620  0.6520
 5442TIP3    H116290   2.910   2.036   4.673  1.1495  0.2596  0.3691
 5442TIP3    H216291   2.870   2.134   4.564  0.4799  0.4263  0.7601
 5443TIP3   OH216292   2.041   6.555   3.880 -0.3851 -0.0574  0.4065
 5443TIP3    H116293   2.109   6.593   3.824 -1.0468  0.5062 -0.0301
 5443TIP3    H216294   2.089   6.510   3.949  0.4390 -0.0657 -0.1590
 5444TIP3   OH216295   5.251   1.987   1.721  0.3740  0.2810  0.3882
 5444TIP3    H116296   5.189   1.926   1.682  1.7028 -0.8497 -0.0602
 5444TIP3    H216297   5.320   1.931   1.757  2.1115  1.4897 -0.8558
 5445TIP3   OH216298   2.240   1.549   1.850  0.2168 -0.3295 -0.5827
 5445TIP3    H116299   2.331   1.532   1.873  0.0463 -0.2514  0.1583
 5445TIP3    H216300   2.240   1.635   1.808  0.2968  0.2810  0.6366
 5446TIP3   OH216301   5.468   0.446   2.440  0.1612 -0.8054 -0.4700
 5446TIP3    H116302   5.518   0.485   2.511 -0.4156 -0.4402 -0.2582
 5446TIP3    H216303   5.509   0.479   2.360 -0.4876  0.4706 -0.2936
 5447TIP3   OH216304   3.951   3.819   3.325  0.1496 -0.0976 -0.4491
 5447TIP3    H116305   4.041   3.801   3.298  0.5189 -0.5978  1.0442
 5447TIP3    H216306   3.914   3.867   3.251  1.0283 -1.5739 -1.9300
 5448TIP3   OH216307   4.498   2.143   3.884 -0.3742 -0.5425 -0.6055
 5448TIP3    H116308   4.499   2.048   3.886  0.1782 -0.5627 -1.4022
 5448TIP3    H216309   4.500   2.169   3.976 -0.4594 -1.2946 -0.3873
 5449TIP3   OH216310   3.692   1.084   5.318  0.2385 -0.0909 -0.3635
 5449TIP3    H116311   3.630   1.065   5.247  1.7255 -1.7214 -1.3503
 5449TIP3    H216312   3.744   1.158   5.286 -0.3352  0.4269 -0.1095
 5450TIP3   OH216313   2.002   1.616   0.819  0.6274 -0.0186 -0.4781
 5450TIP3    H116314   1.941   1.671   0.771 -0.2025  0.5106  1.1005
 5450TIP3    H216315   2.038   1.556   0.753  1.1111  1.9752 -2.1353
 5451TIP3   OH216316   0.215   2.058   3.825 -0.2812 -0.2218 -0.4365
 5451TIP3    H116317   0.134   2.094   3.863  0.3309 -0.4489  1.1544
 5451TIP3    H216318   0.284   2.086   3.885  0.7614 -0.4946 -1.4788
 5452TIP3   OH216319   1.045   2.477   4.687 -0.4681  0.4612  0.1391
 5452TIP3    H116320   1.104   2.550   4.670  0.3999 -0.4649 -1.0775
 5452TIP3    H216321   1.102   2.408   4.722 -1.1156  0.0743  0.4566
 5453TIP3   OH216322   6.521   6.122   3.826  0.1247  0.0410 -0.5190
 5453TIP3    H116323   6.496   6.161   3.910  0.6279 -0.0162 -0.3379
 5453TIP3    H216324   6.448   6.063   3.804 -0.7296  1.1972 -0.8860
 5454TIP3   OH216325   6.632   0.025   2.746 -0.0672  0.0753  0.7637
 5454TIP3    H116326   6.567   0.079   2.701 -0.7378  0.5085  2.2079
 5454TIP3    H216327   6.679   0.087   2.803 -1.2464 -0.8967  2.9084
 5455TIP3   OH216328   4.053   2.984   2.097  0.2891  0.1194  0.3675
 5455TIP3    H116329   4.088   3.068   2.125  1.3843 -0.4902  0.8868
 5455TIP3    H216330   3.983   2.965   2.159  0.9768 -0.0087  1.1133
 5456TIP3   OH216331   0.358   4.517   1.752  0.0756  0.5418 -0.0156
 5456TIP3    H116332   0.323   4.431   1.776 -1.7916  1.1862 -0.2635
 5456TIP3    H216333   0.452   4.504   1.746 -0.0374 -1.1743  1.2520
 5457TIP3   OH216334   0.594   5.541   1.462  0.5564 -0.4574 -0.3238
 5457TIP3    H116335   0.598   5.460   1.513  0.4475 -0.5320 -0.4327
 5457TIP3    H216336   0.665   5.595   1.496  1.0717 -0.8800 -0.7280
 5458TIP3   OH216337   5.505   4.461   1.584  0.0513 -0.0638  0.3156
 5458TIP3    H116338   5.524   4.506   1.667  0.7260 -0.0488  0.1577
 5458TIP3    H216339   5.574   4.491   1.525 -0.6681  0.2448 -0.3772
 5459TIP3   OH216340   7.213   5.566   3.567  0.2083  0.0031 -0.6651
 5459TIP3    H116341   7.168   5.622   3.630  0.9985  0.2638 -0.3189
 5459TIP3    H216342   7.143   5.531   3.512 -0.3725  0.7107 -0.3965
 5460TIP3   OH216343   2.396   0.323   0.496 -0.6199 -0.4813  0.4373
 5460TIP3    H116344   2.447   0.375   0.557 -0.3054 -0.5848  0.2638
 5460TIP3    H216345   2.460   0.287   0.435 -1.0209  0.3138 -0.4703
 5461TIP3   OH216346   3.731   1.296   2.654 -0.0591  0.0204  0.3639
 5461TIP3    H116347   3.661   1.285   2.718 -0.6585 -1.5782 -0.5127
 5461TIP3    H216348   3.793   1.226   2.672  1.2338  1.2645  0.9629
 5462TIP3   OH216349   0.467   3.574   0.801  0.1654  0.0056  0.0063
 5462TIP3    H116350   0.420   3.567   0.718 -0.9771  0.5124  0.5966
 5462TIP3    H216351   0.426   3.648   0.846 -0.4314 -1.3606  1.7936
 5463TIP3   OH216352   3.247   4.589   0.214  0.5683  0.0673 -0.0994
 5463TIP3    H116353   3.174   4.620   0.268  1.2303  1.3770  0.0837
 5463TIP3    H216354   3.273   4.506   0.253 -1.3665 -0.8677 -0.6931
 5464TIP3   OH216355   2.035   5.517   2.213 -0.8223 -0.0371 -0.0103
 5464TIP3    H116356   2.034   5.483   2.124 -2.9596  0.8603 -0.3901
 5464TIP3    H216357   2.053   5.611   2.203 -2.3184  0.3140  0.3453
 5465TIP3   OH216358   3.828   5.248   4.669 -0.5862 -0.1728 -0.2608
 5465TIP3    H116359   3.776   5.170   4.651 -0.7998  0.2123 -1.3415
 5465TIP3    H216360   3.773   5.302   4.725 -0.6423 -0.5580  0.0575
 5466TIP3   OH216361   6.470   5.717   1.574 -0.0002  0.0323  0.2672
 5466TIP3    H116362   6.386   5.756   1.596  0.3413  1.8552 -1.4396
 5466TIP3    H216363   6.528   5.791   1.557  0.7214 -1.1209 -3.0207
 5467TIP3   OH216364   4.341   6.714   5.392  0.2754  0.2574 -0.0898
 5467TIP3    H116365   4.314   6.698   5.301  0.8810 -0.0467 -0.2253
 5467TIP3    H216366   4.431   6.682   5.396  0.1905  0.0991  0.6734
 5468TIP3   OH216367   6.134   2.024   5.221 -0.7498 -0.3793  0.1481
 5468TIP3    H116368   6.171   1.963   5.285 -3.1210 -0.1782  1.8796
 5468TIP3    H216369   6.056   2.059   5.264 -0.6027  2.3917 -1.5706
 5469TIP3   OH216370   0.969   5.120   5.833 -0.7143 -0.3490 -0.1154
 5469TIP3    H116371   1.027   5.057   5.791  0.0111 -0.0340  0.4050
 5469TIP3    H216372   0.929   5.072   5.905 -0.7007 -0.4086 -0.1471
 5470TIP3   OH216373   1.110   2.006   4.532 -0.2473  0.1076  0.0048
 5470TIP3    H116374   1.166   2.045   4.600  0.6867 -0.0302 -0.6728
 5470TIP3    H216375   1.170   1.955   4.478 -0.9217  0.5032 -1.1439
 5471TIP3   OH216376   5.333   1.557   2.255 -0.2561 -0.2201 -0.3983
 5471TIP3    H116377   5.276   1.619   2.302  0.9929  1.0043 -0.4294
 5471TIP3    H216378   5.368   1.501   2.324 -0.6615 -0.2907 -0.2451
 5472TIP3   OH216379   2.833   0.832   0.096  0.1432 -0.6832 -0.0398
 5472TIP3    H116380   2.907   0.772   0.096  0.3945 -0.3968  0.9798
 5472TIP3    H216381   2.859   0.902   0.036  0.3547 -0.9766 -0.2952
 5473TIP3   OH216382   3.612   3.940   5.640 -0.0108  0.0308  0.0082
 5473TIP3    H116383   3.646   3.876   5.577 -1.2212 -0.7159  0.0784
 5473TIP3    H216384   3.562   3.888   5.702 -0.9552  1.0408  0.1177
 5474TIP3   OH216385   6.689   5.418   3.354  0.8574 -0.0457 -0.2813
 5474TIP3    H116386   6.768   5.444   3.308  0.8828  0.4632  0.0409
 5474TIP3    H216387   6.633   5.495   3.352 -0.6011 -1.0547 -2.4941
 5475TIP3   OH216388   5.541   1.593   3.738  0.1445 -0.2632  0.2719
 5475TIP3    H116389   5.500   1.674   3.706 -2.1153 -0.9503  1.1994
 5475TIP3    H216390   5.569   1.613   3.827  2.3282  0.3271 -0.5001
 5476TIP3   OH216391   2.041   5.971   5.877  0.0123  0.1556 -0.2390
 5476TIP3    H116392   2.065   5.888   5.918 -0.4560 -0.1331 -0.5414
 5476TIP3    H216393   1.945   5.972   5.878  0.0122  0.6128 -0.3978
 5477TIP3   OH216394   4.494   2.810   1.844 -0.3901 -0.3388  0.3094
 5477TIP3    H116395   4.404   2.831   1.870 -0.5569 -0.7910  0.1152
 5477TIP3    H216396   4.498   2.829   1.751 -0.2018 -0.0586  0.3722
 5478TIP3   OH216397   4.558   5.715   3.060 -0.5579  1.1155 -0.2102
 5478TIP3    H116398   4.477   5.699   3.108  0.6764 -1.1683  1.3434
 5478TIP3    H216399   4.590   5.627   3.038  2.0485  1.8456  0.2940
 5479TIP3   OH216400   0.485   6.645   0.167  0.4087  0.2986 -0.6674
 5479TIP3    H116401   0.459   6.708   0.234  1.0615 -0.1810  0.0581
 5479TIP3    H216402   0.580   6.639   0.175  0.6529  1.0822 -2.4239
 5480TIP3   OH216403   6.403   0.060   2.988 -0.5029  0.1049 -0.1248
 5480TIP3    H116404   6.489   0.085   3.023 -0.0313 -0.8412 -0.5496
 5480TIP3    H216405   6.357   0.143   2.976  0.2803  0.6158  0.2955
 5481TIP3   OH216406   7.083   3.435   1.551  0.3982  0.9384 -0.0807
 5481TIP3    H116407   7.087   3.342   1.528 -0.5973  0.9595 -0.4065
 5481TIP3    H216408   6.991   3.448   1.576  0.3765  1.9867 -0.6868
 5482TIP3   OH216409   6.996   4.028   4.978  0.3400  0.1285 -0.7206
 5482TIP3    H116410   6.973   4.006   5.069  0.3831 -0.8128 -0.9332
 5482TIP3    H216411   7.084   3.993   4.967  0.8500  1.3582 -0.7496
 5483TIP3   OH216412   4.256   3.822   1.758  0.1570 -0.3657  0.6401
 5483TIP3    H116413   4.209   3.835   1.676  0.0683 -0.9285  0.5922
 5483TIP3    H216414   4.201   3.761   1.807  0.4644 -0.4370  0.9010
 5484TIP3   OH216415   5.119   2.477   5.237  0.1172 -0.1615  0.4301
 5484TIP3    H116416   5.099   2.447   5.149 -1.3968 -2.7997  1.5494
 5484TIP3    H216417   5.060   2.551   5.252  0.6147  0.5119 -0.8421
 5485TIP3   OH216418   3.410   6.401   1.215  0.4007 -0.3760  0.7079
 5485TIP3    H116419   3.420   6.354   1.298  0.2050  0.6869  1.3459
 5485TIP3    H216420   3.424   6.493   1.237  0.3967 -0.0806 -0.4523
 5486TIP3   OH216421   6.522   6.521   0.579 -0.4915 -0.4944 -0.8458
 5486TIP3    H116422   6.465   6.448   0.555  1.1147 -1.4455 -1.9415
 5486TIP3    H216423   6.602   6.508   0.527  1.8799 -0.7910  2.5262
 5487TIP3   OH216424   1.576   3.657   2.373  0.4036  0.0705 -0.1057
 5487TIP3    H116425   1.663   3.695   2.371 -0.2798  1.7326 -0.3714
 5487TIP3    H216426   1.582   3.577   2.320  1.7088  0.2591 -0.2585
 5488TIP3   OH216427   1.497   4.751   1.177 -0.1764 -0.6380  0.5086
 5488TIP3    H116428   1.441   4.813   1.131 -0.5095 -1.1033  0.2842
 5488TIP3    H216429   1.466   4.665   1.150  0.4409 -0.9063  0.6260
 5489TIP3   OH216430   7.090   6.625   2.300  0.5014  0.0620  0.0200
 5489TIP3    H116431   7.109   6.554   2.239  0.9026  1.2225 -1.2400
 5489TIP3    H216432   6.996   6.639   2.293  0.4095 -0.3670  0.3209
 5490TIP3   OH216433   4.508   0.467   2.290  0.4223  0.1626  0.3916
 5490TIP3    H116434   4.434   0.416   2.257 -0.7035  1.1958  1.2581
 5490TIP3    H216435   4.506   0.455   2.385  1.4482  0.1125  0.4224
 5491TIP3   OH216436   6.556   0.302   5.407 -1.0194 -0.3633 -0.3879
 5491TIP3    H116437   6.641   0.328   5.441 -1.4227  1.1554 -0.4639
 5491TIP3    H216438   6.538   0.218   5.449 -0.4790  0.3590  1.3878
 5492TIP3   OH216439   0.754   3.341   3.606  0.5862  0.0746 -0.0338
 5492TIP3    H116440   0.745   3.436   3.607 -0.3469 -0.0081 -0.0838
 5492TIP3    H216441   0.847   3.326   3.589  0.5632  0.9666 -1.0486
 5493TIP3   OH216442   2.962   6.550   1.758 -0.1933  0.1738 -0.5848
 5493TIP3    H116443   2.997   6.611   1.822 -0.9385  0.9687 -0.9266
 5493TIP3    H216444   3.025   6.477   1.757 -0.1200  0.1980  0.9519
 5494TIP3   OH216445   1.298   4.269   3.378 -0.1481 -0.3251 -0.1180
 5494TIP3    H116446   1.248   4.230   3.449  0.9523 -0.4093  0.6427
 5494TIP3    H216447   1.253   4.242   3.298 -1.8296  0.3777  0.5482
 5495TIP3   OH216448   1.490   5.282   2.167  0.3182  0.3964 -0.3338
 5495TIP3    H116449   1.512   5.302   2.258  0.6099 -0.8250 -0.1220
 5495TIP3    H216450   1.574   5.260   2.126  0.0151 -0.3828 -0.5501
 5496TIP3   OH216451   5.169   1.645   2.056 -0.5473 -0.0073 -0.0576
 5496TIP3    H116452   5.113   1.570   2.078 -0.1215 -0.0649  0.8899
 5496TIP3    H216453   5.247   1.633   2.109 -1.2913  2.1527  1.6982
 5497TIP3   OH216454   6.229   5.818   5.043  0.5735 -0.4440  0.2780
 5497TIP3    H116455   6.163   5.826   5.112  1.5098  0.9192  1.0865
 5497TIP3    H216456   6.191   5.758   4.979 -1.2487 -0.0430  0.9272
 5498TIP3   OH216457   1.688   4.308   3.334 -0.0612  0.4415  0.0389
 5498TIP3    H116458   1.707   4.223   3.373  2.0791 -0.0635 -1.8426
 5498TIP3    H216459   1.641   4.287   3.253 -1.7453  1.2582  0.7675
 5499TIP3   OH216460   5.142   1.094   4.023 -0.6033 -0.3135 -0.2870
 5499TIP3    H116461   5.068   1.033   4.018  0.2073 -1.2312 -2.8028
 5499TIP3    H216462   5.132   1.149   3.945 -0.8093  2.2895  1.4369
 5500TIP3   OH216463   3.164   6.534   4.919  0.0181 -0.1074 -0.1844
 5500TIP3    H116464   3.086   6.510   4.970  0.4252 -1.6604 -0.2220
 5500TIP3    H216465   3.136   6.609   4.867 -0.9767  0.3408  0.9253
 5501TIP3   OH216466   4.179   1.334   3.088  0.3863 -0.0543  0.1124
 5501TIP3    H116467   4.270   1.363   3.080  0.4234 -0.5348 -2.0100
 5501TIP3    H216468   4.140   1.356   3.004 -1.5564  0.3728  1.0867
 5502TIP3   OH216469   3.787   3.671   2.169 -0.3529  0.0882 -0.3575
 5502TIP3    H116470   3.725   3.606   2.202  0.0484 -0.0948  0.0565
 5502TIP3    H216471   3.763   3.684   2.078 -0.8255 -0.1847 -0.2733
 5503TIP3   OH216472   3.617   3.711   5.007 -0.1584  0.5397 -0.5669
 5503TIP3    H116473   3.541   3.655   4.992 -0.4454  1.0080 -0.8728
 5503TIP3    H216474   3.589   3.798   4.978  0.2538  0.8630 -0.0066
 5504TIP3   OH216475   2.184   3.362   1.932  0.2292  0.1331  0.2033
 5504TIP3    H116476   2.229   3.444   1.952 -0.4549  0.5325  0.1628
 5504TIP3    H216477   2.096   3.390   1.906 -0.2377 -0.6664  0.9151
 5505TIP3   OH216478   5.887   1.383   5.457 -0.5153  0.0009  0.0908
 5505TIP3    H116479   5.976   1.375   5.423 -0.8862  0.5168 -1.0385
 5505TIP3    H216480   5.869   1.298   5.498 -0.2636 -0.8610 -1.5323
 5506TIP3   OH216481   3.536   4.929   1.376  0.3187  0.6440 -0.7643
 5506TIP3    H116482   3.447   4.904   1.400  0.4401  0.9752  0.0923
 5506TIP3    H216483   3.524   5.000   1.312 -0.0450  1.0446 -0.2676
 5507TIP3   OH216484   0.838   5.873   2.854 -0.8703 -0.8824  0.6148
 5507TIP3    H116485   0.855   5.912   2.768 -2.9595  0.2041  0.6272
 5507TIP3    H216486   0.839   5.779   2.838  2.6511 -0.9216  0.2556
 5508TIP3   OH216487   3.956   0.716   1.091 -0.6074  0.0824  0.1389
 5508TIP3    H116488   3.999   0.768   1.160 -2.5235 -0.9673  2.2677
 5508TIP3    H216489   4.005   0.634   1.090 -0.7904 -0.0355  0.5314
 5509TIP3   OH216490   0.149   2.366   0.509  0.3613 -0.1535  0.1087
 5509TIP3    H116491   0.159   2.460   0.528  0.4342  0.3294 -2.0061
 5509TIP3    H216492   0.164   2.360   0.414  0.7183 -2.3716  0.2714
 5510TIP3   OH216493   2.173   2.454   5.728 -0.4402 -0.1198 -0.1843
 5510TIP3    H116494   2.084   2.460   5.693 -0.4890  0.5433  0.0396
 5510TIP3    H216495   2.229   2.449   5.651 -0.6006  0.5328 -0.3424
 5511TIP3   OH216496   1.246   2.944   1.446  0.5310 -0.0137 -0.3103
 5511TIP3    H116497   1.181   3.000   1.488  1.4514 -0.0095  1.1683
 5511TIP3    H216498   1.212   2.930   1.358 -1.0192  0.7091  0.1451
 5512TIP3   OH216499   3.874   2.368   3.376 -0.4188  0.0151 -0.0224
 5512TIP3    H116500   3.842   2.295   3.428 -1.9204 -1.0150 -2.2241
 5512TIP3    H216501   3.912   2.328   3.298 -0.2985  1.5361 -0.7924
 5513TIP3   OH216502   6.280   1.113   5.498 -0.7170 -0.4457  0.1399
 5513TIP3    H116503   6.366   1.070   5.500 -0.1428  0.6529  0.1987
 5513TIP3    H216504   6.255   1.113   5.406 -0.5078 -0.4980  0.0827
 5514TIP3   OH216505   4.180   3.184   2.214 -0.2399  0.2802 -0.2998
 5514TIP3    H116506   4.268   3.222   2.206  0.2475 -0.5522  0.9068
 5514TIP3    H216507   4.121   3.257   2.196  0.6852  0.8881 -0.9887
 5515TIP3   OH216508   6.975   1.208   3.998 -0.6018 -0.6068  0.2022
 5515TIP3    H116509   7.053   1.225   3.945 -0.5319  2.1238  1.0327
 5515TIP3    H216510   7.002   1.139   4.059  2.0299  1.8198  2.0250
 5516TIP3   OH216511   7.169   1.318   2.941  0.8264 -0.5813  0.0912
 5516TIP3    H116512   7.138   1.228   2.927 -0.1843 -0.0629 -1.1865
 5516TIP3    H216513   7.135   1.367   2.867  2.1599  0.6889  0.2778
 5517TIP3   OH216514   0.039   3.054   0.893 -0.3637 -0.4585  0.0497
 5517TIP3    H116515   0.027   3.085   0.982  1.1804 -0.5405  0.3249
 5517TIP3    H216516   0.058   2.961   0.902  1.6132 -0.1190 -0.1600
 5518TIP3   OH216517   3.751   1.237   0.108  0.0330  0.0778  0.6135
 5518TIP3    H116518   3.693   1.205   0.039 -0.4342  1.0705  0.5297
 5518TIP3    H216519   3.692   1.275   0.174  0.5112 -0.1944  1.2080
 5519TIP3   OH216520   5.866   3.867   2.305 -0.2667 -0.4655 -0.2520
 5519TIP3    H116521   5.800   3.909   2.250  1.0177 -0.4243 -1.8251
 5519TIP3    H216522   5.905   3.940   2.354  0.7324 -0.0196 -1.6536
 5520TIP3   OH216523   5.240   1.408   5.547  0.0878  1.0982  0.7773
 5520TIP3    H116524   5.264   1.468   5.477  0.4564  0.2978  0.2055
 5520TIP3    H216525   5.213   1.328   5.502 -0.3067  0.7944  1.5337
 5521TIP3   OH216526   3.273   6.710   1.012  0.3695 -0.2279 -0.1254
 5521TIP3    H116527   3.260   6.670   0.926  1.9786 -1.6504  0.2425
 5521TIP3    H216528   3.368   6.712   1.023  0.2509  1.4369  0.9619
 5522TIP3   OH216529   7.235   6.201   5.812  0.3515  0.5663 -0.0015
 5522TIP3    H116530   7.167   6.269   5.812  1.6216  1.9269  1.0012
 5522TIP3    H216531   7.212   6.143   5.740 -1.5121  1.3434 -0.0729
 5523TIP3   OH216532   6.485   1.071   4.809 -0.2501 -0.0441 -0.6465
 5523TIP3    H116533   6.403   1.096   4.851 -0.1465  0.3465 -0.6779
 5523TIP3    H216534   6.458   1.009   4.740 -0.6130  0.7354 -1.2223
 5524TIP3   OH216535   4.035   0.070   1.862 -0.1304  0.6587  0.0005
 5524TIP3    H116536   3.963   0.023   1.821  0.3683  0.5590 -0.7728
 5524TIP3    H216537   4.047   0.026   1.947 -1.6872  1.3759  0.6304
 5525TIP3   OH216538   7.050   2.826   2.204  0.3284  0.5822  0.0464
 5525TIP3    H116539   7.011   2.904   2.244  0.2618  0.4283  0.2855
 5525TIP3    H216540   6.979   2.787   2.154  0.0545  0.0885  0.7953
 5526TIP3   OH216541   1.222   3.744   5.415  0.0293  0.6490  0.1606
 5526TIP3    H116542   1.174   3.826   5.406  0.0215  0.6656  0.3472
 5526TIP3    H216543   1.306   3.769   5.453 -0.5508  0.4044  1.6928
 5527TIP3   OH216544   5.948   0.016   2.562 -0.2776 -0.2164  0.3451
 5527TIP3    H116545   5.942  -0.004   2.469 -1.8912  2.2015 -0.1712
 5527TIP3    H216546   5.859   0.001   2.596  0.4165 -1.6137  1.6527
 5528TIP3   OH216547   4.320   0.694   4.235  0.3963 -0.4293 -0.0159
 5528TIP3    H116548   4.257   0.626   4.209 -0.6486  0.7736 -0.7760
 5528TIP3    H216549   4.270   0.752   4.293  0.8651  0.4065 -0.4336
 5529TIP3   OH216550   3.973   3.075   5.812 -0.0451 -0.4684  0.3643
 5529TIP3    H116551   3.939   3.111   5.730 -2.1972 -2.6423  0.1816
 5529TIP3    H216552   4.037   3.010   5.785 -2.0842 -2.5162  0.2152
 5530TIP3   OH216553   6.506   2.193   5.538 -0.0694 -0.0090 -0.2455
 5530TIP3    H116554   6.477   2.119   5.590 -1.0811 -0.1577 -1.0032
 5530TIP3    H216555   6.503   2.162   5.448  0.1552  0.7398 -0.5175
 5531TIP3   OH216556   4.894   4.609   2.880  0.4829  0.4612  0.4199
 5531TIP3    H116557   4.867   4.682   2.936  1.4226 -0.1607  1.7456
 5531TIP3    H216558   4.871   4.531   2.930  2.3902 -0.1041  0.5038
 5532TIP3   OH216559   3.531   0.529   1.764 -0.0291 -0.0909 -0.4084
 5532TIP3    H116560   3.513   0.472   1.690 -1.0374  0.7948 -0.8813
 5532TIP3    H216561   3.478   0.494   1.836 -0.0001 -0.2308 -0.4559
 5533TIP3   OH216562   6.043   3.672   1.088 -0.2662  0.0370 -0.1654
 5533TIP3    H116563   5.977   3.737   1.112  0.5453  0.8075  0.0615
 5533TIP3    H216564   6.043   3.671   0.992  0.2451  0.9685 -0.1947
 5534TIP3   OH216565   0.063   4.410   2.019 -0.4285 -0.4457 -0.4998
 5534TIP3    H116566   0.116   4.489   2.027  2.0118 -1.7557 -2.3346
 5534TIP3    H216567  -0.019   4.439   1.980  0.1199  1.2629 -0.4644
 5535TIP3   OH216568   1.039   0.072   2.732 -0.1740 -0.0995  0.2537
 5535TIP3    H116569   1.029   0.095   2.824  0.6853  2.4605 -0.2258
 5535TIP3    H216570   1.071   0.152   2.690  0.9541 -1.6236 -2.0107
 5536TIP3   OH216571   2.905   6.167   1.718  0.5483 -0.1882 -0.5110
 5536TIP3    H116572   2.941   6.140   1.634 -1.3625  1.2502 -1.8796
 5536TIP3    H216573   2.845   6.239   1.697 -2.3004 -1.6973  1.6819
 5537TIP3   OH216574   6.064   2.245   0.282 -0.5075 -0.6226 -0.3762
 5537TIP3    H116575   6.094   2.306   0.349 -0.0261 -2.0809  0.8069
 5537TIP3    H216576   6.111   2.270   0.203  0.9125 -0.4418  0.4875
 5538TIP3   OH216577   6.530   1.057   1.641 -0.4542  0.4573 -0.2281
 5538TIP3    H116578   6.599   1.073   1.706  0.0040 -1.6655 -0.1003
 5538TIP3    H216579   6.507   1.143   1.608  2.2784  1.2441 -0.2796
 5539TIP3   OH216580   4.127   1.069   2.248  0.2084  0.7250  0.0809
 5539TIP3    H116581   4.119   1.024   2.164  0.5403 -0.0201  0.4356
 5539TIP3    H216582   4.210   1.117   2.242  1.3867 -1.1044  0.7690
 5540TIP3   OH216583   3.215   2.500   5.006 -0.0015 -0.4604 -0.0522
 5540TIP3    H116584   3.202   2.442   4.931 -0.9019 -1.2654  0.7094
 5540TIP3    H216585   3.129   2.536   5.023  0.2412 -0.1300  0.4930
 5541TIP3   OH216586   6.046   1.000   1.962  0.7070  0.1825  0.1958
 5541TIP3    H116587   6.011   1.049   1.888  1.2029 -0.0261 -0.1861
 5541TIP3    H216588   6.071   1.067   2.025  3.6158  0.6583 -1.2860
 5542TIP3   OH216589   2.223   1.729   5.281 -0.0995  0.0306 -0.1531
 5542TIP3    H116590   2.136   1.704   5.312  0.2902 -0.5051  0.5329
 5542TIP3    H216591   2.206   1.790   5.209 -1.0424 -0.3615 -0.2741
 5543TIP3   OH216592   0.886   6.356   3.088 -0.3516 -0.5174  0.3227
 5543TIP3    H116593   0.897   6.344   2.994  1.7506 -2.1401  0.7290
 5543TIP3    H216594   0.936   6.435   3.108 -1.8295  0.5642 -0.0536
 5544TIP3   OH216595   6.710   4.008   2.590 -0.9015 -0.0706  0.1048
 5544TIP3    H116596   6.796   4.036   2.622 -1.0648 -0.3772  0.8283
 5544TIP3    H216597   6.662   4.090   2.577 -0.3610  0.1283 -0.7358
 5545TIP3   OH216598   4.872   6.589   0.339  0.3392 -0.0462  0.6011
 5545TIP3    H116599   4.817   6.515   0.363 -0.0206 -0.4317 -1.2566
 5545TIP3    H216600   4.939   6.552   0.282 -0.2572  1.1228 -0.9381
 5546TIP3   OH216601   0.079   3.457   3.555  0.0831  0.5953 -0.0658
 5546TIP3    H116602   0.088   3.366   3.582  1.3608  0.7193 -0.0300
 5546TIP3    H216603   0.157   3.475   3.503 -1.3298  0.9711 -2.1664
 5547TIP3   OH216604   5.014   2.110   3.232  0.2751 -0.2891  0.4522
 5547TIP3    H116605   5.046   2.039   3.288  2.0788  0.7190  0.7993
 5547TIP3    H216606   5.068   2.104   3.153 -0.8247 -0.4217 -0.2994
 5548TIP3   OH216607   2.480   4.196   0.981  0.1617  0.5812  0.0898
 5548TIP3    H116608   2.564   4.175   0.940  0.1838  0.5327  0.1593
 5548TIP3    H216609   2.423   4.123   0.958  0.1154  0.6531 -0.0244
 5549TIP3   OH216610   2.557   0.441   3.822  0.0782  0.1981  0.0199
 5549TIP3    H116611   2.582   0.366   3.875 -3.9159 -1.0579  0.5021
 5549TIP3    H216612   2.548   0.513   3.884 -0.4109 -0.1313  0.3341
 5550TIP3   OH216613   1.836   5.024   4.724 -0.2532 -0.2971 -0.2757
 5550TIP3    H116614   1.890   5.016   4.802  1.8611 -1.8222 -1.7818
 5550TIP3    H216615   1.816   4.934   4.699 -2.3756  0.2039 -0.5738
 5551TIP3   OH216616   1.607   5.831   2.552  0.2648  0.0390 -0.3472
 5551TIP3    H116617   1.556   5.786   2.619  2.6601  1.4956  2.7267
 5551TIP3    H216618   1.679   5.771   2.531 -0.0815 -0.1175 -1.1266
 5552TIP3   OH216619   6.778   2.634   3.952 -0.1808  0.2371 -0.9115
 5552TIP3    H116620   6.752   2.561   3.896  0.4402 -1.5621  1.0015
 5552TIP3    H216621   6.695   2.674   3.979 -0.7408 -1.5148  0.1580
 5553TIP3   OH216622   2.294   2.046   5.370  0.0061  0.3515 -0.2142
 5553TIP3    H116623   2.374   2.045   5.319  0.4886 -0.0472  0.5281
 5553TIP3    H216624   2.320   2.017   5.457 -1.3942 -2.4667 -0.6214
 5554TIP3   OH216625   6.960   6.676   3.694 -0.1264  0.3104 -0.0266
 5554TIP3    H116626   6.943   6.724   3.613  1.1687 -0.3047 -0.6896
 5554TIP3    H216627   6.917   6.728   3.762 -1.4582  0.7021 -1.1231
 5555TIP3   OH216628   0.406   4.854   0.448  0.4297  0.3348  0.1041
 5555TIP3    H116629   0.362   4.939   0.436  1.7976  1.0204 -0.2938
 5555TIP3    H216630   0.397   4.810   0.363 -0.0350  0.2035  0.2214
 5556TIP3   OH216631   4.503  -0.012   4.721 -0.3434 -0.4662  0.2753
 5556TIP3    H116632   4.418   0.004   4.679 -0.4840 -1.7412  0.0490
 5556TIP3    H216633   4.540   0.076   4.733 -0.9702  0.0267 -1.1381
 5557TIP3   OH216634   6.274   2.789   1.413 -0.2275  0.2324 -0.5679
 5557TIP3    H116635   6.287   2.883   1.401  0.5421 -0.0148 -1.8619
 5557TIP3    H216636   6.182   2.775   1.390 -0.9353  0.9219  1.5678
 5558TIP3   OH216637   3.621   6.736   4.708  0.2250 -0.3532  0.1363
 5558TIP3    H116638   3.668   6.684   4.643 -0.0706 -0.6754  0.1737
 5558TIP3    H216639   3.546   6.773   4.661  0.2601 -0.2185  0.1847
 5559TIP3   OH216640   7.151   6.166   1.350 -0.6407  0.0816  0.1104
 5559TIP3    H116641   7.170   6.183   1.442  0.8572  0.0175 -0.1539
 5559TIP3    H216642   7.223   6.209   1.303 -1.5195  0.3351 -1.0506
 5560TIP3   OH216643   5.251   5.836   2.780 -0.1250 -0.9652  0.4074
 5560TIP3    H116644   5.338   5.865   2.807  0.2839 -1.6921 -0.0936
 5560TIP3    H216645   5.225   5.900   2.713  0.8009 -1.7448 -0.7405
 5561TIP3   OH216646   2.488   1.619   1.100 -0.3146 -0.0209  0.0481
 5561TIP3    H116647   2.511   1.682   1.031  1.6839 -0.3865  0.3272
 5561TIP3    H216648   2.531   1.653   1.178 -2.3043  0.2175  1.0887
 5562TIP3   OH216649   6.375   5.216   4.551 -0.1198  0.1699  0.2276
 5562TIP3    H116650   6.437   5.184   4.485  0.9831 -0.1420  1.3766
 5562TIP3    H216651   6.430   5.240   4.625 -1.4776 -1.0208  1.6647
 5563TIP3   OH216652   6.394   4.462   0.677 -0.0076  0.2558 -0.4888
 5563TIP3    H116653   6.454   4.501   0.613  1.1220  0.2094  0.5149
 5563TIP3    H216654   6.314   4.444   0.627  0.5088  1.0905 -1.6622
 5564TIP3   OH216655   3.342   1.306   4.724 -0.1778  0.1704 -0.2238
 5564TIP3    H116656   3.404   1.360   4.674  0.3857  1.1752  1.4611
 5564TIP3    H216657   3.341   1.222   4.678 -0.5946  1.3626 -2.5746
 5565TIP3   OH216658   2.845   2.873   1.481  0.2786  0.3731  0.3915
 5565TIP3    H116659   2.849   2.962   1.448  1.8527  0.6394  1.2240
 5565TIP3    H216660   2.911   2.869   1.550 -0.5255 -1.1278  1.1407
 5566TIP3   OH216661   1.858   4.154   1.418  0.2755 -0.2632 -0.5052
 5566TIP3    H116662   1.813   4.166   1.334 -0.2208 -3.6131 -0.8612
 5566TIP3    H216663   1.937   4.105   1.396 -0.0512 -1.5126  1.0050
 5567TIP3   OH216664   1.061   0.688   3.644  0.3106 -0.6002  0.1479
 5567TIP3    H116665   1.056   0.597   3.674 -0.1872 -0.6338 -0.0264
 5567TIP3    H216666   0.973   0.722   3.659  0.3037 -0.3536 -0.4510
 5568TIP3   OH216667   7.233   0.952   2.859 -0.1361  0.0659  0.4251
 5568TIP3    H116668   7.147   0.921   2.831 -0.2006  0.7285 -0.1683
 5568TIP3    H216669   7.258   1.016   2.791  1.1077 -0.5870  0.2270
 5569TIP3   OH216670   3.644   3.185   0.247  0.3730 -0.5925 -0.3880
 5569TIP3    H116671   3.687   3.214   0.167 -0.4472  2.7107  0.2380
 5569TIP3    H216672   3.557   3.156   0.219 -0.1949  1.2778 -0.6850
 5570TIP3   OH216673   1.923   0.135   1.908 -0.8072 -0.0717  0.0135
 5570TIP3    H116674   1.833   0.108   1.924 -0.9418  0.0537 -0.5263
 5570TIP3    H216675   1.916   0.204   1.842 -0.1945 -1.2134 -1.2783
 5571TIP3   OH216676   6.596   2.659   2.512  0.7151 -0.7138 -0.6529
 5571TIP3    H116677   6.650   2.735   2.533 -0.5182 -0.2883  1.3158
 5571TIP3    H216678   6.551   2.683   2.431  1.2633  0.1357 -0.7180
 5572TIP3   OH216679   4.812   6.722   5.224  0.1783 -0.5564  0.0628
 5572TIP3    H116680   4.847   6.761   5.144  0.0871 -1.1459 -0.2773
 5572TIP3    H216681   4.839   6.781   5.294 -0.8014  0.6408 -0.5268
 5573TIP3   OH216682   2.999   3.054   2.550  0.2728 -0.0768 -0.0411
 5573TIP3    H116683   2.934   2.993   2.586  1.3559 -0.7530  0.8381
 5573TIP3    H216684   2.947   3.117   2.500 -0.9517 -1.2828 -0.3517
 5574TIP3   OH216685   5.722   1.325   3.185 -0.2883 -0.2026  0.3072
 5574TIP3    H116686   5.762   1.252   3.231  2.1322  0.4457 -0.6359
 5574TIP3    H216687   5.775   1.401   3.208 -0.2240  0.5007 -1.8764
 5575TIP3   OH216688   1.998   2.361   0.079 -0.3215  0.1373  0.1724
 5575TIP3    H116689   2.083   2.318   0.081  0.8288  2.2979  0.5852
 5575TIP3    H216690   1.991   2.397  -0.009 -0.9206 -0.1781  0.0816
 5576TIP3   OH216691   1.153   4.172   3.167 -0.3224  0.5090  0.1375
 5576TIP3    H116692   1.156   4.088   3.213  1.7997  0.6219  0.2789
 5576TIP3    H216693   1.114   4.152   3.082  0.5922 -0.7235 -0.0098
 5577TIP3   OH216694   5.116   0.068   3.010  0.1773 -0.0579  0.0967
 5577TIP3    H116695   5.081   0.016   2.937  0.3108 -0.0200  0.0062
 5577TIP3    H216696   5.132   0.004   3.079  1.6256 -0.3507 -0.4766
 5578TIP3   OH216697   4.814   3.131   4.098 -0.2445  0.0033  0.0165
 5578TIP3    H116698   4.880   3.065   4.118  0.5834  1.1958  1.4865
 5578TIP3    H216699   4.730   3.086   4.109  0.3052 -0.8756  0.7553
 5579TIP3   OH216700   3.950   1.840   5.064 -0.4341 -0.2951  0.0330
 5579TIP3    H116701   3.888   1.803   5.002  1.0793 -1.4081 -0.8980
 5579TIP3    H216702   3.902   1.843   5.147 -2.6996  1.8035 -1.2213
 5580TIP3   OH216703   0.166   0.863   5.193 -0.3344 -0.0492 -0.4725
 5580TIP3    H116704   0.257   0.845   5.219 -1.0846 -0.8221  1.8956
 5580TIP3    H216705   0.159   0.826   5.105  1.9989  1.3453 -1.3532
 5581TIP3   OH216706   3.034   0.180   4.654  0.2248  0.1924  0.0846
 5581TIP3    H116707   2.956   0.228   4.683  0.6772 -0.3540  2.3921
 5581TIP3    H216708   3.099   0.197   4.721  1.4143 -1.0917 -0.6990
 5582TIP3   OH216709   2.652   0.958   0.671 -0.4042  0.1323  0.1455
 5582TIP3    H116710   2.678   0.877   0.627 -0.7834 -0.1684  0.4715
 5582TIP3    H216711   2.735   1.001   0.693 -0.1583 -0.8302  1.2043
 5583TIP3   OH216712   6.338   0.032   0.142  0.5531 -0.4357  0.4117
 5583TIP3    H116713   6.306   0.072   0.223 -0.3615 -0.4809  0.0774
 5583TIP3    H216714   6.359   0.107   0.086 -0.6077 -0.3944  0.0020
 5584TIP3   OH216715   4.132   5.882   5.117 -0.1468 -0.1715 -0.6096
 5584TIP3    H116716   4.062   5.830   5.156  0.5361  0.3200  1.4091
 5584TIP3    H216717   4.131   5.859   5.025 -1.8291 -1.4686 -0.3067
 5585TIP3   OH216718   4.358   6.475   3.548 -0.1829  0.5827 -0.6071
 5585TIP3    H116719   4.434   6.530   3.570  0.5021  0.0840 -1.6268
 5585TIP3    H216720   4.361   6.403   3.611  0.4629  0.3282 -0.9221
 5586TIP3   OH216721   2.201   2.136   4.706  0.0294 -0.6496 -0.9040
 5586TIP3    H116722   2.175   2.190   4.781  1.1760 -1.4100  0.0762
 5586TIP3    H216723   2.122   2.086   4.684  0.4231 -2.7322  1.8588
 5587TIP3   OH216724   4.894   3.410   2.966  0.4567 -0.0990  0.3107
 5587TIP3    H116725   4.881   3.424   2.872 -1.5152 -1.9666  0.2291
 5587TIP3    H216726   4.809   3.378   2.997  0.7605  1.4012  2.9571
 5588TIP3   OH216727   1.839   5.773   1.893 -0.3795  0.3536  0.4824
 5588TIP3    H116728   1.810   5.785   1.802 -3.9568 -1.5972  1.1869
 5588TIP3    H216729   1.913   5.713   1.886  0.3307  1.3505 -1.2042
 5589TIP3   OH216730   2.832   3.037   2.331  0.2933 -0.1031  0.0568
 5589TIP3    H116731   2.848   2.968   2.395 -0.4805 -0.4705 -0.1409
 5589TIP3    H216732   2.744   3.068   2.350  0.6944  0.9552  0.2543
 5590TIP3   OH216733   3.642   4.642   2.610  0.9026 -0.0149  0.1269
 5590TIP3    H116734   3.671   4.733   2.617  1.4551 -0.2463  1.2497
 5590TIP3    H216735   3.723   4.592   2.598  0.8398 -0.5318  1.6346
 5591TIP3   OH216736   1.471   2.421   0.113  0.1033  0.7062  0.1792
 5591TIP3    H116737   1.493   2.357   0.180  1.5869  0.7199 -0.2623
 5591TIP3    H216738   1.468   2.370   0.032  0.4656  1.0456 -0.0524
 5592TIP3   OH216739   3.455   0.175   1.785 -0.2080 -0.1785 -0.0543
 5592TIP3    H116740   3.512   0.220   1.847  0.7262 -0.2185 -0.8641
 5592TIP3    H216741   3.370   0.173   1.829  0.5150 -0.6060  1.4105
 5593TIP3   OH216742   4.695   2.692   5.778 -0.1477 -0.1400 -0.0809
 5593TIP3    H116743   4.646   2.642   5.843 -0.5231 -0.2016 -0.4072
 5593TIP3    H216744   4.769   2.727   5.826  0.4596 -1.5016  0.0393
 5594TIP3   OH216745   1.698   2.377   3.403 -0.1195  0.1072  0.2853
 5594TIP3    H116746   1.761   2.407   3.468  1.6263  1.8994 -2.0902
 5594TIP3    H216747   1.617   2.423   3.426  0.4119  0.6039  1.2393
 5595TIP3   OH216748   6.480   4.311   5.696  0.4696 -0.3328  0.9686
 5595TIP3    H116749   6.432   4.257   5.759 -0.4024 -0.4585  0.2257
 5595TIP3    H216750   6.428   4.391   5.689  0.4605 -0.3877  0.2948
 5596TIP3   OH216751   5.366   5.283   3.832 -0.0337  0.5943 -0.1512
 5596TIP3    H116752   5.323   5.212   3.879  0.2681 -0.6558 -1.6473
 5596TIP3    H216753   5.324   5.283   3.745 -1.3986  3.5797  0.3875
 5597TIP3   OH216754   1.431   4.024   1.578 -0.1713 -0.4316 -0.4818
 5597TIP3    H116755   1.371   3.981   1.639  0.2536 -1.2537 -0.6314
 5597TIP3    H216756   1.515   3.980   1.593  0.4632  0.8475 -0.1122
 5598TIP3   OH216757   6.132   0.221   3.046 -0.4342 -0.2979  0.0489
 5598TIP3    H116758   6.121   0.158   2.974 -3.4561 -0.6597  0.7051
 5598TIP3    H216759   6.049   0.217   3.094  0.6422  1.6057  2.2293
 5599TIP3   OH216760   2.936   3.900   2.187  0.1583  0.2573 -0.5921
 5599TIP3    H116761   2.960   3.823   2.135 -0.2120 -0.9192  0.8836
 5599TIP3    H216762   3.019   3.930   2.224  0.0766 -0.6564  0.3854
 5600TIP3   OH216763   0.058   5.663   5.688 -0.8007 -0.2923 -0.5596
 5600TIP3    H116764   0.065   5.751   5.723 -3.3134 -0.0912 -0.4511
 5600TIP3    H216765   0.026   5.610   5.761 -1.0993 -0.9264 -1.1411
 5601TIP3   OH216766   0.986   6.070   1.032 -0.0120  0.1987 -0.4318
 5601TIP3    H116767   1.008   5.981   1.006 -1.5157  0.2728 -2.1406
 5601TIP3    H216768   1.047   6.125   0.982  0.1178  0.1806 -0.2949
 5602TIP3   OH216769   2.800   4.490   0.734 -0.2086  0.1404  0.0693
 5602TIP3    H116770   2.811   4.402   0.698 -0.7151 -0.4706  1.3483
 5602TIP3    H216771   2.825   4.482   0.826  0.0361  1.4103  0.1307
 5603TIP3   OH216772   6.423   4.521   2.563 -0.2568 -0.1186 -0.2526
 5603TIP3    H116773   6.426   4.518   2.659  0.9115  1.3380 -0.2149
 5603TIP3    H216774   6.476   4.596   2.539 -1.0933 -0.0352 -2.0393
 5604TIP3   OH216775   1.806   0.215   0.764 -0.2513  0.4913 -0.0608
 5604TIP3    H116776   1.797   0.234   0.670 -2.3411  1.8828  0.3498
 5604TIP3    H216777   1.733   0.263   0.805  1.2305  0.8105  2.3936
 5605TIP3   OH216778   4.829   2.365   0.358 -0.0328  0.2554  0.3119
 5605TIP3    H116779   4.739   2.397   0.351 -0.2022 -0.4643 -1.3018
 5605TIP3    H216780   4.881   2.428   0.308  0.5109  1.0653  1.8219
 5606TIP3   OH216781   2.679   1.783   2.738 -0.0114  0.3707  0.7515
 5606TIP3    H116782   2.707   1.874   2.732  0.8852  0.0420 -0.6126
 5606TIP3    H216783   2.678   1.753   2.647 -1.4088 -0.6663  1.0752
 5607TIP3   OH216784   5.374   4.754   3.871  0.0624  0.2248 -0.2385
 5607TIP3    H116785   5.285   4.757   3.836 -0.2196  0.2097  0.4546
 5607TIP3    H216786   5.376   4.675   3.925 -0.3548  1.6002  1.8996
 5608TIP3   OH216787   3.210   2.819   0.324 -0.0918 -0.9575 -0.3890
 5608TIP3    H116788   3.150   2.844   0.395  0.6165 -0.7195  0.1431
 5608TIP3    H216789   3.162   2.839   0.244 -0.7086 -0.7376  0.0276
 5609TIP3   OH216790   0.695   6.111   2.840  0.0693 -0.5617  0.5407
 5609TIP3    H116791   0.760   6.048   2.871  0.5332 -0.4016 -0.0766
 5609TIP3    H216792   0.741   6.195   2.842  0.3271 -0.6277 -1.1216
 5610TIP3   OH216793   1.648   4.520   0.843 -0.2588  0.3128 -0.4863
 5610TIP3    H116794   1.729   4.472   0.823 -0.1156  0.1856  0.3311
 5610TIP3    H216795   1.668   4.565   0.925 -1.0953  0.1077 -0.1618
 5611TIP3   OH216796   2.655   5.643   2.030  0.4836 -0.3759 -0.2208
 5611TIP3    H116797   2.589   5.626   2.098  0.6078 -1.8992 -0.4365
 5611TIP3    H216798   2.604   5.656   1.950  0.3688  0.6136  0.0073
 5612TIP3   OH216799   3.064   6.125   2.675  0.4333  0.3214 -0.7679
 5612TIP3    H116800   3.010   6.137   2.597  1.3575 -0.7037 -1.5991
 5612TIP3    H216801   3.100   6.036   2.666  2.0787  0.8853 -0.1324
 5613TIP3   OH216802   1.074   0.642   4.530 -0.0772 -0.1743 -0.4166
 5613TIP3    H116803   1.071   0.735   4.552  0.0411  0.1138 -1.5614
 5613TIP3    H216804   1.021   0.600   4.598 -1.1735  0.8740 -0.5881
 5614TIP3   OH216805   1.578   3.728   1.487 -0.0814  0.1867 -0.2103
 5614TIP3    H116806   1.545   3.722   1.577  1.0334 -3.3295  0.1177
 5614TIP3    H216807   1.501   3.714   1.432 -0.2665 -1.3115  0.3695
 5615TIP3   OH216808   1.366   5.195   0.084 -0.1699  0.9322  0.1616
 5615TIP3    H116809   1.307   5.184   0.008 -0.8081 -1.2246  0.8843
 5615TIP3    H216810   1.442   5.142   0.062 -0.7882 -0.5393  1.3869
 5616TIP3   OH216811   4.772   5.716   0.034 -0.1750  0.2422 -0.2082
 5616TIP3    H116812   4.745   5.749   0.120 -2.1788 -1.0243 -0.2787
 5616TIP3    H216813   4.741   5.782  -0.028 -0.7955  0.0795 -0.0846
 5617TIP3   OH216814   3.181   3.144   0.498  0.3909 -0.0569 -0.3984
 5617TIP3    H116815   3.161   3.230   0.536  1.2001 -0.5766  1.2824
 5617TIP3    H216816   3.274   3.149   0.476  0.3937 -0.4444 -0.4750
 5618TIP3   OH216817   4.464   2.485   1.358 -0.4439  0.3341  0.6056
 5618TIP3    H116818   4.458   2.403   1.308 -0.4309  0.5201  0.2966
 5618TIP3    H216819   4.415   2.468   1.438 -0.0588 -0.1298  0.7484
 5619TIP3   OH216820   2.973   6.251   1.986  0.0092 -0.1321  0.1458
 5619TIP3    H116821   2.983   6.232   1.893  1.2513  2.2217 -0.2922
 5619TIP3    H216822   2.878   6.259   1.998 -0.2659 -1.8969 -0.5515
 5620TIP3   OH216823   1.443   1.859   2.266  0.3456  0.2660  0.4289
 5620TIP3    H116824   1.408   1.944   2.238 -0.5238 -0.1008  0.3772
 5620TIP3    H216825   1.537   1.872   2.268  0.2214  1.2474  0.4463
 5621TIP3   OH216826   2.505   1.689   1.472 -0.3277  0.1164  0.2027
 5621TIP3    H116827   2.547   1.610   1.438  1.1811  0.6216  0.7976
 5621TIP3    H216828   2.571   1.758   1.460 -0.6483  0.7836  1.9390
 5622TIP3   OH216829   0.544   3.923   2.167 -0.7069  0.0996 -0.3205
 5622TIP3    H116830   0.516   3.893   2.081 -1.1052 -1.5338  0.3348
 5622TIP3    H216831   0.469   3.973   2.200 -1.5951 -1.4123  0.0634
 5623TIP3   OH216832   1.018   3.743   0.285 -0.6011  0.2837  0.0130
 5623TIP3    H116833   0.975   3.809   0.339 -0.0843  0.0685  0.7104
 5623TIP3    H216834   1.088   3.791   0.240  0.1101  0.1423  0.9172
 5624TIP3   OH216835   5.869   6.663   3.859  0.1931 -0.0218  0.2952
 5624TIP3    H116836   5.857   6.734   3.922 -0.2655  0.1480  0.0190
 5624TIP3    H216837   5.784   6.619   3.856  0.4728 -0.5826  0.4651
 5625TIP3   OH216838   0.281   1.032   2.918 -0.2385  0.0132 -0.2326
 5625TIP3    H116839   0.247   0.967   2.856 -2.6507  0.9089  0.0244
 5625TIP3    H216840   0.359   1.067   2.876 -1.8378  0.6580 -2.8855
 5626TIP3   OH216841   4.779   5.056   4.259  0.4403  0.1257  0.1671
 5626TIP3    H116842   4.813   5.139   4.227 -0.5110  0.3862 -0.1798
 5626TIP3    H216843   4.711   5.080   4.321  2.7543 -0.3280  3.1435
 5627TIP3   OH216844   4.593   1.822   3.154 -0.0729 -0.0489 -0.7397
 5627TIP3    H116845   4.499   1.815   3.135  0.0119 -0.1026 -1.1414
 5627TIP3    H216846   4.597   1.859   3.242 -0.4631  1.7282 -1.4265
 5628TIP3   OH216847   5.698   3.196   3.695 -0.1614  0.3335 -0.1245
 5628TIP3    H116848   5.699   3.259   3.767  1.9833  0.0627  0.1508
 5628TIP3    H216849   5.742   3.119   3.731 -0.5004 -0.3993 -1.2383
 5629TIP3   OH216850   4.346   1.056   4.176 -0.7951 -0.4543 -0.1718
 5629TIP3    H116851   4.298   0.993   4.230  0.1590 -0.4347  0.7421
 5629TIP3    H216852   4.324   1.142   4.212  0.3180 -0.4761  0.6221
 5630TIP3   OH216853   6.663   4.204   4.391  0.3604  0.4529  0.4534
 5630TIP3    H116854   6.726   4.154   4.339 -0.8603 -1.0244  0.3249
 5630TIP3    H216855   6.699   4.203   4.480  0.0800 -1.1690  0.5654
 5631TIP3   OH216856   6.494   5.009   5.006  0.3461 -0.2865 -0.2111
 5631TIP3    H116857   6.561   4.943   5.023 -0.2574 -0.2237  3.1713
 5631TIP3    H216858   6.411   4.963   5.018 -0.1006  0.7538  0.9624
 5632TIP3   OH216859   3.313   4.491   4.888  0.7505  0.2991  0.2748
 5632TIP3    H116860   3.301   4.584   4.869  0.7001 -0.0536 -1.6349
 5632TIP3    H216861   3.334   4.488   4.981 -1.8776  1.9749  1.0253
 5633TIP3   OH216862   0.068   2.411   3.995  0.0926 -0.0714 -0.0297
 5633TIP3    H116863  -0.018   2.452   3.986 -0.6091 -1.8243 -2.1066
 5633TIP3    H216864   0.123   2.460   3.934 -0.0917 -0.5407 -0.5809
 5634TIP3   OH216865   0.335   3.812   4.525 -0.1171  0.3727 -0.4264
 5634TIP3    H116866   0.383   3.893   4.543  0.1278  0.2907 -0.6919
 5634TIP3    H216867   0.396   3.743   4.549  0.0851  0.2631 -1.2140
 5635TIP3   OH216868   3.051   2.167   2.146 -0.2817 -0.0739 -0.2067
 5635TIP3    H116869   3.042   2.246   2.093  0.9368  0.0678 -0.2462
 5635TIP3    H216870   3.112   2.112   2.096  1.6173  0.4424  1.4266
 5636TIP3   OH216871   1.706   2.975   2.816 -0.5814  0.6303  0.6845
 5636TIP3    H116872   1.659   3.005   2.894  1.6032  0.6491  2.0768
 5636TIP3    H216873   1.708   2.880   2.825 -1.3906  0.5259 -0.0454
 5637TIP3   OH216874   2.410   2.840   3.980 -0.2483  0.1937  0.6683
 5637TIP3    H116875   2.448   2.758   3.949  0.2581  0.4555  0.5920
 5637TIP3    H216876   2.315   2.827   3.971 -0.1459 -0.1031 -0.0489
 5638TIP3   OH216877   5.341   1.039   5.556  0.0056 -0.3274  0.2720
 5638TIP3    H116878   5.364   0.964   5.610 -2.1278 -0.4216  1.1579
 5638TIP3    H216879   5.346   1.114   5.615  0.6372  0.0298 -0.2185
 5639TIP3   OH216880   2.778   1.310   1.137 -0.3631  0.2644 -0.1240
 5639TIP3    H116881   2.817   1.397   1.148  1.2005 -0.0049 -2.7204
 5639TIP3    H216882   2.820   1.258   1.206  0.8033  0.9439 -0.2836
 5640TIP3   OH216883   4.529   6.208   2.898  0.1977 -0.1877  0.1764
 5640TIP3    H116884   4.446   6.233   2.858  0.3794 -0.6130 -0.4727
 5640TIP3    H216885   4.542   6.117   2.873  1.7185  0.3753 -1.2365
 5641TIP3   OH216886   5.335   1.833   3.001 -0.0863  0.7971  0.6309
 5641TIP3    H116887   5.388   1.793   2.932 -1.2737  2.8114 -1.6187
 5641TIP3    H216888   5.277   1.763   3.031 -0.9369  0.2828 -1.9404
 5642TIP3   OH216889   1.744   6.101   1.108  0.1903  0.0309  0.5876
 5642TIP3    H116890   1.733   6.190   1.078  0.9752  0.3287  1.1340
 5642TIP3    H216891   1.837   6.081   1.094  0.0258 -0.6968  0.4606
 5643TIP3   OH216892   3.203   2.247   0.445 -0.8773  0.2310 -0.2079
 5643TIP3    H116893   3.166   2.328   0.481 -1.1252  0.1005 -0.1630
 5643TIP3    H216894   3.167   2.178   0.501 -0.9831  0.0559 -0.4905
 5644TIP3   OH216895   1.996   5.939   5.110 -0.2403 -0.0193  0.6375
 5644TIP3    H116896   1.918   5.990   5.087  0.0249  0.1316  0.0440
 5644TIP3    H216897   1.964   5.851   5.128 -0.7221  0.3712  1.7749
 5645TIP3   OH216898   5.691   2.469   4.161 -0.3526  0.0438  0.1407
 5645TIP3    H116899   5.668   2.376   4.161 -2.9269  0.5899  1.6403
 5645TIP3    H216900   5.688   2.494   4.253  2.0437  1.2831 -0.0456
 5646TIP3   OH216901   2.349   0.392   5.688 -0.5053 -0.1492  0.0368
 5646TIP3    H116902   2.320   0.303   5.705 -2.9138  0.6140  0.3314
 5646TIP3    H216903   2.292   0.422   5.616  0.2338  1.1637 -0.0367
 5647TIP3   OH216904   5.955   0.855   5.450  0.2115 -0.0726 -0.4994
 5647TIP3    H116905   5.931   0.781   5.396  1.1153  0.4403 -1.6416
 5647TIP3    H216906   5.911   0.930   5.410 -1.7470 -0.1222  1.3832
 5648TIP3   OH216907   5.804   6.168   0.760 -0.2094 -0.0762  0.6799
 5648TIP3    H116908   5.775   6.140   0.673 -0.5522 -0.6087  0.9596
 5648TIP3    H216909   5.739   6.233   0.787  0.6085  1.0492  0.0139
 5649TIP3   OH216910   2.671   0.079   1.943  0.1203  0.0058 -0.2093
 5649TIP3    H116911   2.693   0.045   2.030 -0.1953 -1.5453 -0.7221
 5649TIP3    H216912   2.577   0.096   1.948 -0.1710 -1.3710 -0.6465
 5650TIP3   OH216913   5.005   3.414   0.156 -0.2574 -0.0764 -0.2634
 5650TIP3    H116914   4.921   3.377   0.127  0.1860 -1.1943 -0.1625
 5650TIP3    H216915   5.071   3.364   0.108  0.3469  1.3369 -0.9469
 5651TIP3   OH216916   4.599   4.248   4.787 -0.1476 -0.6626  0.3526
 5651TIP3    H116917   4.583   4.153   4.789 -0.5051 -0.6803 -1.5503
 5651TIP3    H216918   4.694   4.256   4.783 -0.1603 -1.0465 -1.4319
 5652TIP3   OH216919   1.517   1.234   3.218 -0.1971 -0.2129 -0.2041
 5652TIP3    H116920   1.463   1.253   3.295 -0.6091 -0.8551 -0.3293
 5652TIP3    H216921   1.454   1.210   3.150  0.1698  0.2875 -0.7265
 5653TIP3   OH216922   6.805   5.186   1.893  0.2228 -0.4563  0.4015
 5653TIP3    H116923   6.747   5.126   1.846 -0.6118  0.1409  0.6513
 5653TIP3    H216924   6.847   5.131   1.959 -0.7259 -0.7324  0.7910
 5654TIP3   OH216925   6.527   6.659   4.866  0.0567  0.1923 -0.3925
 5654TIP3    H116926   6.596   6.602   4.902  0.0950 -0.3634 -1.3065
 5654TIP3    H216927   6.454   6.649   4.927  0.1215 -0.7315 -0.4477
 5655TIP3   OH216928   0.379   5.570   0.705  0.1813  0.3417  0.1943
 5655TIP3    H116929   0.386   5.478   0.730  0.9550 -0.1657 -1.7187
 5655TIP3    H216930   0.451   5.613   0.751  0.3516 -0.1674  0.4081
 5656TIP3   OH216931   6.009   4.383   5.038  0.9967  0.2812  0.1181
 5656TIP3    H116932   6.017   4.358   4.946 -0.6663  0.8190 -0.2025
 5656TIP3    H216933   6.038   4.305   5.087 -0.5089 -0.9468 -0.8639
 5657TIP3   OH216934   3.435   3.580   4.443  0.5268  0.6904  0.0470
 5657TIP3    H116935   3.409   3.489   4.459  1.8970 -0.2295 -2.3633
 5657TIP3    H216936   3.389   3.603   4.363 -0.3611  2.4241  1.0155
 5658TIP3   OH216937   0.923   0.974   1.833 -0.1888  0.0106 -0.1043
 5658TIP3    H116938   0.835   0.959   1.868  0.4921 -1.9204  0.9029
 5658TIP3    H216939   0.908   1.019   1.749 -2.1066 -0.1890  0.0787
 5659TIP3   OH216940   7.019   6.412   4.972 -0.4876 -0.1400 -0.5132
 5659TIP3    H116941   6.964   6.434   5.047 -0.5627  2.8906 -1.3274
 5659TIP3    H216942   7.091   6.361   5.010 -2.1298 -1.3979  1.0742
 5660TIP3   OH216943   3.640   4.965   3.530 -0.6859 -0.1670 -0.3822
 5660TIP3    H116944   3.663   4.916   3.452  0.4761  0.3362 -0.3687
 5660TIP3    H216945   3.614   5.051   3.498  3.8717  1.5837 -0.1025
 5661TIP3   OH216946   5.425   1.130   4.064  0.3485  0.0742  0.1037
 5661TIP3    H116947   5.458   1.076   3.993 -1.3195 -0.1535 -0.5420
 5661TIP3    H216948   5.331   1.112   4.067  0.1476  1.1208  1.4664
 5662TIP3   OH216949   4.960   4.545   3.817 -0.0117  0.1920 -1.0052
 5662TIP3    H116950   4.919   4.608   3.876  0.7422 -1.7953  1.8175
 5662TIP3    H216951   4.912   4.464   3.830  0.8191 -0.5655 -2.4171
 5663TIP3   OH216952   6.931   3.061   3.819  0.1332  0.3260  0.1762
 5663TIP3    H116953   6.906   3.092   3.906 -0.3241  0.0410  0.1513
 5663TIP3    H216954   6.972   3.137   3.777  2.8511 -0.2884  1.5834
 5664TIP3   OH216955   6.238   1.222   1.483 -0.6245  0.1340  0.0058
 5664TIP3    H116956   6.170   1.200   1.547 -0.4057 -2.3454 -0.4958
 5664TIP3    H216957   6.206   1.185   1.401  0.1062  1.3581 -0.8594
 5665TIP3   OH216958   2.419   6.652   3.316 -0.1853 -0.1874 -0.2553
 5665TIP3    H116959   2.454   6.580   3.264  0.4355 -0.2714  0.2699
 5665TIP3    H216960   2.440   6.731   3.266 -0.0171 -0.2979 -0.3584
 5666TIP3   OH216961   3.745   6.128   3.957  0.7998  0.7218  0.9345
 5666TIP3    H116962   3.814   6.063   3.970 -0.9220 -1.5930 -0.5609
 5666TIP3    H216963   3.744   6.144   3.863 -1.2513 -0.0955  0.7476
 5667TIP3   OH216964   6.305   5.937   3.559  0.0204  0.1357  0.4781
 5667TIP3    H116965   6.348   5.888   3.630 -0.5385 -1.6600 -0.3604
 5667TIP3    H216966   6.213   5.938   3.584 -0.1798 -0.5172 -0.1990
 5668TIP3   OH216967   2.921   2.908   5.093  0.7010  0.1278 -1.0193
 5668TIP3    H116968   3.001   2.924   5.043  1.4662 -0.4449 -0.0064
 5668TIP3    H216969   2.946   2.922   5.184 -0.3075 -0.2552 -0.6677
 5669TIP3   OH216970   4.926   2.721   1.821 -0.5240  0.2160 -0.2404
 5669TIP3    H116971   5.007   2.694   1.779 -0.2029 -0.9503  1.0834
 5669TIP3    H216972   4.891   2.790   1.763  1.2404  0.5456 -0.9632
 5670TIP3   OH216973   3.878   1.039   0.278  0.4204  0.4569  0.0112
 5670TIP3    H116974   3.815   0.970   0.297  1.6576 -0.5543  0.5712
 5670TIP3    H216975   3.830   1.102   0.224 -0.9174 -0.5131  0.0422
 5671TIP3   OH216976   1.752   6.793   0.263 -0.1751 -0.1001  0.0624
 5671TIP3    H116977   1.843   6.773   0.240 -0.5019  0.6802 -2.1782
 5671TIP3    H216978   1.702   6.767   0.185 -1.6747  0.8982  0.6595
 5672TIP3   OH216979   4.709   6.393   0.451  0.2586  0.1361  0.2899
 5672TIP3    H116980   4.781   6.355   0.502  0.2432 -1.0506 -0.5163
 5672TIP3    H216981   4.632   6.344   0.478  0.6371 -2.2792 -2.5408
 5673TIP3   OH216982   1.885   6.157   1.367  0.0626 -0.2645  0.1003
 5673TIP3    H116983   1.946   6.130   1.298  0.1424  1.4505 -0.5457
 5673TIP3    H216984   1.941   6.181   1.441 -0.0056 -1.7194  0.6512
 5674TIP3   OH216985   0.386   0.087   5.353  0.3936 -0.0994 -0.0169
 5674TIP3    H116986   0.472   0.056   5.324  0.8542 -1.4206  2.5346
 5674TIP3    H216987   0.406   0.154   5.418 -0.4537 -0.8517  1.0485
 5675TIP3   OH216988  -0.036   5.583   3.073 -0.3373 -0.3548  0.2704
 5675TIP3    H116989   0.016   5.641   3.018  1.2652  0.2898  2.3345
 5675TIP3    H216990   0.023   5.510   3.093 -1.2432 -1.0883  0.3180
 5676TIP3   OH216991   0.190   5.745   2.417 -0.1473  0.0852 -0.2417
 5676TIP3    H116992   0.139   5.772   2.341 -2.7144 -0.8632  1.0399
 5676TIP3    H216993   0.217   5.655   2.397 -0.7592 -0.1386 -0.0726
 5677TIP3   OH216994   6.661   1.585   3.509 -0.3102  0.0472  0.0168
 5677TIP3    H116995   6.704   1.558   3.590 -0.6021  2.0427  0.8849
 5677TIP3    H216996   6.630   1.673   3.526  1.3418  1.3634 -2.9332
 5678TIP3   OH216997   4.014   0.732   5.881  0.0556 -0.0844 -0.2277
 5678TIP3    H116998   4.085   0.689   5.835 -0.2563  1.1520 -1.9558
 5678TIP3    H216999   3.975   0.791   5.816  0.0109  2.2550  1.7679
 5679TIP3   OH217000   2.538   0.954   3.607  0.4055  0.4141  0.8700
 5679TIP3    H117001   2.480   0.888   3.645  1.1816 -0.6713  0.2257
 5679TIP3    H217002   2.526   0.945   3.513  0.0556  1.6448  0.7840
 5680TIP3   OH217003   6.606   2.051   5.004 -0.4901 -0.0287 -0.0986
 5680TIP3    H117004   6.688   2.098   5.020 -0.8225 -0.0435  1.9574
 5680TIP3    H217005   6.623   1.962   5.036 -0.9774 -0.3290 -0.6594
 5681TIP3   OH217006   4.861   0.254   1.842  0.0487  0.1435 -0.1914
 5681TIP3    H117007   4.934   0.257   1.780 -0.5855  0.0846 -0.9665
 5681TIP3    H217008   4.801   0.189   1.804 -1.4160  1.7207 -0.7274
 5682TIP3   OH217009   1.656   5.049   1.046  0.5140  0.1692 -0.0778
 5682TIP3    H117010   1.580   5.037   1.102 -0.9105  1.8897 -1.5346
 5682TIP3    H217011   1.638   4.995   0.969  0.2738  1.3263 -0.8560
 5683TIP3   OH217012   1.325   2.534   5.692  0.3862  0.6640 -0.1547
 5683TIP3    H117013   1.233   2.507   5.696  0.3377  0.4755 -1.7838
 5683TIP3    H217014   1.371   2.456   5.661  0.9420  1.0617 -0.3333
 5684TIP3   OH217015   3.345   5.250   0.979 -0.3501 -0.1862 -0.0740
 5684TIP3    H117016   3.329   5.172   0.925 -0.1424 -1.2461  1.3535
 5684TIP3    H217017   3.336   5.323   0.917 -0.4785 -1.3245 -1.4675
 5685TIP3   OH217018   1.302   6.578   0.383  0.1500  0.1163  0.6120
 5685TIP3    H117019   1.213   6.566   0.416 -0.3463  0.2035 -0.6176
 5685TIP3    H217020   1.328   6.664   0.416  1.5103 -1.6197  4.6173
 5686TIP3   OH217021   2.621   6.159   2.800  0.4421 -0.0549 -0.0416
 5686TIP3    H117022   2.553   6.124   2.858  1.4605 -1.7676  0.1958
 5686TIP3    H217023   2.577   6.168   2.716 -0.7021  1.2042  0.6486
 5687TIP3   OH217024   2.769   6.170   5.628  0.7351 -0.0717  0.3735
 5687TIP3    H117025   2.860   6.140   5.630  0.8474  0.1911 -0.4585
 5687TIP3    H217026   2.732   6.140   5.711  1.9289  0.9491  1.3201
 5688TIP3   OH217027   4.918   1.857   2.314  0.2397  0.2854 -0.0600
 5688TIP3    H117028   4.870   1.780   2.283 -0.0772  0.5831 -0.3204
 5688TIP3    H217029   4.909   1.855   2.409  0.5058 -0.1759 -0.0426
 5689TIP3   OH217030   6.014   2.295   5.733 -0.1004  0.8118 -0.4070
 5689TIP3    H117031   5.962   2.356   5.784  0.0627  0.7544 -0.1704
 5689TIP3    H217032   6.007   2.326   5.643 -0.8341  0.5986 -0.4289
 5690TIP3   OH217033   3.241   3.698   3.350 -0.1127 -0.2362 -0.3302
 5690TIP3    H117034   3.335   3.705   3.332 -0.0052 -0.3896  0.1368
 5690TIP3    H217035   3.237   3.644   3.429 -0.4802  1.6608  1.0036
 5691TIP3   OH217036   5.084   5.282   1.312 -0.1512 -0.7495 -0.1973
 5691TIP3    H117037   5.103   5.368   1.273  1.2490 -0.5136  0.9265
 5691TIP3    H217038   5.007   5.298   1.367 -0.0406 -0.2628 -0.1723
 5692TIP3   OH217039   6.291   0.907   1.722 -0.1595  0.0511 -0.0207
 5692TIP3    H117040   6.365   0.955   1.686 -0.4497  0.8724  0.4671
 5692TIP3    H217041   6.278   0.944   1.810 -1.8303  0.6875 -0.4978
 5693TIP3   OH217042   1.642   0.208   5.559 -0.2994 -0.1302  0.4969
 5693TIP3    H117043   1.626   0.264   5.635 -0.5388 -0.5923  0.7968
 5693TIP3    H217044   1.724   0.240   5.523 -0.5985  0.6241  0.4629
 5694TIP3   OH217045   5.998   4.206   3.973 -0.6285 -0.6994 -0.1367
 5694TIP3    H117046   5.945   4.282   3.950 -0.1298 -0.2004  0.3363
 5694TIP3    H217047   6.039   4.229   4.056  1.2272 -0.6011 -1.0387
 5695TIP3   OH217048   2.566   6.082   0.307 -0.3190  0.1898 -0.7502
 5695TIP3    H117049   2.604   6.006   0.352 -0.1972  0.0143 -1.1383
 5695TIP3    H217050   2.493   6.108   0.362 -1.2966 -1.1425 -1.3634
 5696TIP3   OH217051   0.359   2.303   0.791 -0.4457  0.5669  0.2819
 5696TIP3    H117052   0.272   2.331   0.763 -0.9837 -1.0661  0.2081
 5696TIP3    H217053   0.346   2.215   0.825  1.2709  0.0507 -0.2854
 5697TIP3   OH217054   3.401   5.483   0.834 -0.0517  0.1608 -0.0383
 5697TIP3    H117055   3.382   5.495   0.741 -0.8036  0.2544  0.1281
 5697TIP3    H217056   3.471   5.546   0.852  0.9000 -0.6444 -0.7953
 5698TIP3   OH217057   3.407   2.133   4.485 -0.4136  0.3557 -0.0583
 5698TIP3    H117058   3.344   2.062   4.499 -1.8071  1.4726 -0.4792
 5698TIP3    H217059   3.460   2.103   4.411 -2.0636  0.4234 -1.3223
 5699TIP3   OH217060   1.037   2.282   4.259  0.2332  0.0941  0.7016
 5699TIP3    H117061   0.979   2.314   4.328 -0.7283 -0.6660  0.2592
 5699TIP3    H217062   1.043   2.355   4.197  0.1302  0.3439  0.9839
 5700TIP3   OH217063   6.171   6.641   1.941  0.0170  0.2976 -0.7118
 5700TIP3    H117064   6.091   6.617   1.896  1.3277 -0.5257 -2.7156
 5700TIP3    H217065   6.163   6.599   2.027 -0.5346 -2.1120 -1.8534
 5701TIP3   OH217066   3.224   6.570   0.786  0.3009  0.2320 -0.4714
 5701TIP3    H117067   3.148   6.523   0.751 -0.9678  3.3843 -2.3406
 5701TIP3    H217068   3.298   6.535   0.736  0.0090 -2.0403  0.5445
 5702TIP3   OH217069   3.580   5.714   2.177  0.0002 -0.4012 -0.3320
 5702TIP3    H117070   3.616   5.704   2.265 -0.6675 -0.5304 -0.0654
 5702TIP3    H217071   3.619   5.643   2.126  3.4683  1.8598 -1.2094
 5703TIP3   OH217072   4.543   4.072   1.088  0.2163 -0.1488 -0.1154
 5703TIP3    H117073   4.513   3.989   1.050  0.2393  0.4079 -1.4088
 5703TIP3    H217074   4.627   4.089   1.046  0.0456  0.7013 -0.1387
 5704TIP3   OH217075   0.749   1.098   2.616 -0.1126  0.1121  0.4722
 5704TIP3    H117076   0.805   1.162   2.571 -0.3969 -0.8472 -1.3581
 5704TIP3    H217077   0.800   1.072   2.693  2.3693 -1.2473 -1.4815
 5705TIP3   OH217078   3.228   5.544   3.806 -0.0300  0.0790  0.3362
 5705TIP3    H117079   3.169   5.470   3.820 -1.2764  0.8273 -0.7551
 5705TIP3    H217080   3.228   5.591   3.890 -2.5461  1.1233 -0.1621
 5706TIP3   OH217081   2.724   3.355   1.576 -0.2850 -0.1277  0.6721
 5706TIP3    H117082   2.800   3.356   1.633 -0.5252 -0.6916  1.0089
 5706TIP3    H217083   2.688   3.444   1.581  1.2075  0.5971 -0.6669
 5707TIP3   OH217084   1.810   0.888   0.720 -0.4196 -0.0734 -0.1059
 5707TIP3    H117085   1.788   0.795   0.712  1.2563 -0.4614 -0.7626
 5707TIP3    H217086   1.900   0.888   0.754 -0.3308  1.3061 -0.2830
 5708TIP3   OH217087   3.489   5.994   3.841  0.4954  0.0295  0.6356
 5708TIP3    H117088   3.445   5.922   3.796  0.9853 -0.4907  0.9777
 5708TIP3    H217089   3.523   6.049   3.770 -0.5138  0.3247  0.3715
 5709TIP3   OH217090   1.596   6.072   1.388 -0.4312 -0.5834 -0.0019
 5709TIP3    H117091   1.664   6.119   1.339  0.7144 -0.6192  1.4714
 5709TIP3    H217092   1.573   6.132   1.459 -0.5489 -1.3686  0.6267
 5710TIP3   OH217093   1.715   5.683   5.755 -0.8888 -0.7481 -0.0626
 5710TIP3    H117094   1.805   5.670   5.784 -0.4047 -1.4121 -1.7435
 5710TIP3    H217095   1.661   5.656   5.830  0.2739  1.1012  1.5334
 5711TIP3   OH217096   4.951   3.727   1.850  0.1695 -0.0875  1.4435
 5711TIP3    H117097   4.863   3.742   1.884 -0.2645 -0.0326  0.3320
 5711TIP3    H217098   4.991   3.814   1.849 -0.4890  0.2366  0.0505
 5712TIP3   OH217099   1.566   0.212   4.908 -0.1739  0.4508 -0.2503
 5712TIP3    H117100   1.643   0.254   4.946  0.6252 -1.2444  0.0958
 5712TIP3    H217101   1.601   0.148   4.847 -1.3061 -0.3154 -0.1276
 5713TIP3   OH217102   5.277   2.767   4.183 -0.1046  0.0263 -0.3369
 5713TIP3    H117103   5.339   2.743   4.114  1.2277 -1.0540  1.1765
 5713TIP3    H217104   5.285   2.697   4.248  0.2351  2.0489  1.9126
 5714TIP3   OH217105   1.153   0.612   0.070  0.1533  0.7211 -0.1252
 5714TIP3    H117106   1.148   0.571  -0.016  1.4197 -1.6686  0.8133
 5714TIP3    H217107   1.092   0.562   0.124 -0.7367  2.2817  0.3496
 5715TIP3   OH217108   1.031   2.751   0.756 -0.1025  0.5108 -0.5356
 5715TIP3    H117109   0.987   2.667   0.741 -1.6995  1.5870 -2.3591
 5715TIP3    H217110   1.036   2.758   0.851 -0.9920 -1.1401 -0.3260
 5716TIP3   OH217111   4.124   1.672   0.221  0.2358 -0.4692  0.3526
 5716TIP3    H117112   4.083   1.655   0.136 -1.4393 -0.8328  1.2112
 5716TIP3    H217113   4.061   1.641   0.285  1.0233  0.7503  1.7680
 5717TIP3   OH217114   5.299   3.387   4.512  0.9927 -0.3639 -0.3795
 5717TIP3    H117115   5.361   3.394   4.439 -0.0793 -0.6181 -1.3305
 5717TIP3    H217116   5.354   3.361   4.587  2.0162 -0.7489 -1.2333
 5718TIP3   OH217117   2.030   6.386   4.438 -0.4867 -0.0397 -0.1108
 5718TIP3    H117118   1.990   6.470   4.419  0.0143  0.0388 -0.8593
 5718TIP3    H217119   1.993   6.360   4.523 -1.1399  0.6176 -0.1865
 5719TIP3   OH217120   7.053   0.214   0.389  0.1328 -0.2232  0.0568
 5719TIP3    H117121   7.080   0.301   0.363 -1.3354  0.6378  1.2313
 5719TIP3    H217122   6.959   0.211   0.371  0.2995 -1.8952 -0.7842
 5720TIP3   OH217123   6.276   4.604   0.345 -0.0518 -0.1207  0.1369
 5720TIP3    H117124   6.261   4.512   0.322 -0.8364 -0.3002  1.2625
 5720TIP3    H217125   6.282   4.649   0.262  2.2773 -1.4653 -0.5105
 5721TIP3   OH217126   5.147   0.114   3.967  0.5764 -0.3859 -0.4171
 5721TIP3    H117127   5.241   0.131   3.973  0.6564 -0.6244 -0.9139
 5721TIP3    H217128   5.107   0.200   3.960  0.7353 -0.2703  0.0686
 5722TIP3   OH217129   0.819   6.730   5.390  0.2850 -1.0318 -0.0053
 5722TIP3    H117130   0.812   6.656   5.451  1.5894 -1.3768 -0.2550
 5722TIP3    H217131   0.844   6.804   5.446 -0.4625 -0.8868  0.1569
 5723TIP3   OH217132   7.119   1.605   4.569 -0.0194  0.0983 -0.2586
 5723TIP3    H117133   7.158   1.640   4.650 -0.3909 -0.7562  0.3065
 5723TIP3    H217134   7.064   1.676   4.537  0.8212  0.7700 -0.2444
 5724TIP3   OH217135   6.624   2.070   2.315  0.0499 -0.4574 -0.4680
 5724TIP3    H117136   6.576   2.011   2.372 -3.0787  2.5429  0.3770
 5724TIP3    H217137   6.577   2.067   2.232 -0.4517  1.0293 -0.2776
 5725TIP3   OH217138   0.300   4.545   4.558  0.0898  0.4235 -0.0082
 5725TIP3    H117139   0.330   4.491   4.485 -2.1356 -0.5707 -0.2806
 5725TIP3    H217140   0.238   4.607   4.518 -0.1665  0.7265  0.8380
 5726TIP3   OH217141   0.829   1.596   3.156 -0.3866 -0.0780  0.6435
 5726TIP3    H117142   0.894   1.590   3.226 -0.6651 -0.8827  0.8454
 5726TIP3    H217143   0.876   1.631   3.081 -0.1363  1.0443  1.2983
 5727TIP3   OH217144   6.364   1.618   5.843 -0.0129 -0.3056  0.3300
 5727TIP3    H117145   6.441   1.656   5.801 -0.9549  0.6616 -0.5977
 5727TIP3    H217146   6.355   1.532   5.802  0.0771 -0.0604 -0.2230
 5728TIP3   OH217147   4.753   2.260   1.514  0.1939 -0.4916 -0.1157
 5728TIP3    H117148   4.698   2.313   1.457  0.5020 -0.1438 -0.0936
 5728TIP3    H217149   4.836   2.251   1.467  0.6871  0.3567  0.5563
 5729TIP3   OH217150   0.973   2.252   2.721  0.1618 -0.6157  0.2429
 5729TIP3    H117151   1.025   2.223   2.796  0.3113  0.7585  0.7034
 5729TIP3    H217152   0.893   2.199   2.726  0.2223 -0.6254  1.3079
 5730TIP3   OH217153   3.530   1.841   3.807 -0.8776 -0.2345  0.1807
 5730TIP3    H117154   3.501   1.767   3.752 -1.1819 -0.5086  0.7001
 5730TIP3    H217155   3.614   1.812   3.843 -1.5333 -0.8251  1.2997
 5731TIP3   OH217156   5.583   1.638   4.021  0.8818  0.0607  0.3682
 5731TIP3    H117157   5.579   1.582   4.098  1.6319  0.0860  0.4306
 5731TIP3    H217158   5.651   1.703   4.042  0.8427  0.2799 -0.1707
 5732TIP3   OH217159   0.529   2.538   3.870 -0.2910 -0.4367  0.3240
 5732TIP3    H117160   0.458   2.495   3.824  0.5395 -4.4721  2.3885
 5732TIP3    H217161   0.486   2.590   3.937 -1.3060  0.4060 -0.9278
 5733TIP3   OH217162   5.997   6.663   0.662  0.3401  0.4638  0.6893
 5733TIP3    H117163   6.090   6.684   0.655  0.4742  0.2924  1.7668
 5733TIP3    H217164   5.983   6.647   0.755 -0.7076  0.1859  0.4987
 5734TIP3   OH217165   3.669   1.180   2.917 -0.0313  0.1843 -0.1471
 5734TIP3    H117166   3.722   1.100   2.926  0.9233  0.7834 -0.3544
 5734TIP3    H217167   3.599   1.170   2.982 -0.4032 -1.1838 -0.7115
 5735TIP3   OH217168   1.694   2.541   1.760  0.0694 -0.6619  0.4247
 5735TIP3    H117169   1.672   2.634   1.746 -0.1510 -0.4716  1.8649
 5735TIP3    H217170   1.710   2.507   1.672 -0.5829  0.5607 -0.2033
 5736TIP3   OH217171   5.644   3.285   2.151  0.3915 -0.1706  0.2580
 5736TIP3    H117172   5.626   3.225   2.224 -0.4605 -0.0082  0.1883
 5736TIP3    H217173   5.610   3.369   2.180 -1.1824 -0.3922 -0.8359
 5737TIP3   OH217174   5.189   2.812   4.675  0.3021  0.0738  0.3464
 5737TIP3    H117175   5.123   2.872   4.711 -2.3941 -1.4289 -1.7261
 5737TIP3    H217176   5.193   2.740   4.738  1.6245  1.1189  1.5288
 5738TIP3   OH217177   3.529   4.485   2.818  0.1567  0.3606 -0.1014
 5738TIP3    H117178   3.561   4.534   2.742  3.1315  2.1572  2.1042
 5738TIP3    H217179   3.562   4.533   2.894 -1.3946 -2.1331  2.3635
 5739TIP3   OH217180   5.045   1.183   4.303  0.5417 -0.1081 -0.2565
 5739TIP3    H117181   5.110   1.113   4.312 -2.7957 -3.3996  1.0979
 5739TIP3    H217182   5.010   1.171   4.214 -0.3757 -0.5519  0.1528
 5740TIP3   OH217183   3.263   0.482   0.718 -0.6011  0.6989 -0.5358
 5740TIP3    H117184   3.318   0.477   0.796  0.1681 -0.1837 -1.1126
 5740TIP3    H217185   3.321   0.517   0.650 -0.3778 -1.2800 -1.4369
 5741TIP3   OH217186   6.102   6.618   3.699  0.6515 -0.2526  0.3987
 5741TIP3    H117187   6.010   6.634   3.718  0.4781 -0.4083 -0.2911
 5741TIP3    H217188   6.141   6.705   3.692 -0.2432  0.0459 -3.0966
 5742TIP3   OH217189   4.997   3.000   4.714 -0.2962 -0.9483 -0.2063
 5742TIP3    H117190   4.937   3.018   4.642 -0.2941 -0.3504 -0.0596
 5742TIP3    H217191   5.029   3.086   4.741 -0.8968 -1.0837  1.0256
 5743TIP3   OH217192   1.884   0.674   2.519  0.1688 -0.4481 -0.0774
 5743TIP3    H117193   1.910   0.745   2.460 -2.2671  0.9617  0.4036
 5743TIP3    H217194   1.833   0.717   2.587 -0.9146 -2.5982  0.5578
 5744TIP3   OH217195   0.828   5.155   0.032  0.2151 -0.4882  0.6708
 5744TIP3    H117196   0.826   5.064   0.002  0.9779 -0.9832  2.0154
 5744TIP3    H217197   0.744   5.191   0.005  1.0874 -0.6234 -2.6802
 5745TIP3   OH217198   0.743   1.905   3.862 -0.1547 -0.3760  0.3622
 5745TIP3    H117199   0.837   1.897   3.847 -0.1771  1.6597 -1.3540
 5745TIP3    H217200   0.704   1.833   3.812  0.3892  0.1946 -0.9248
 5746TIP3   OH217201   6.227   0.032   3.689 -0.3246 -0.0310  0.3625
 5746TIP3    H117202   6.277   0.064   3.614  0.3587  0.2988  0.9486
 5746TIP3    H217203   6.282  -0.037   3.726 -0.6991 -0.2523  0.5133
 5747TIP3   OH217204   2.597   0.036   0.515  0.0945  0.1335 -0.0249
 5747TIP3    H117205   2.596   0.024   0.610  1.7728 -1.2206 -0.1247
 5747TIP3    H217206   2.689   0.025   0.490 -0.3955 -0.1682 -1.8655
 5748TIP3   OH217207   4.366   1.653   5.114 -0.1943  0.2079 -0.5913
 5748TIP3    H117208   4.438   1.591   5.110 -1.1577 -0.9012 -1.5984
 5748TIP3    H217209   4.331   1.643   5.203 -0.2994 -0.6473 -0.7249
 5749TIP3   OH217210   4.553   4.640   0.378 -0.2876  0.4262 -0.0618
 5749TIP3    H117211   4.637   4.652   0.422 -0.5860  1.5670  0.2219
 5749TIP3    H217212   4.576   4.619   0.288  0.3804 -3.3723  0.8337
 5750TIP3   OH217213   4.917   3.177   0.364 -0.6336  0.1582  0.0656
 5750TIP3    H117214   4.983   3.119   0.402 -0.2156  0.0516 -0.8010
 5750TIP3    H217215   4.967   3.251   0.331 -0.9753  0.2005 -0.3620
 5751TIP3   OH217216   3.142   5.096   1.872 -0.0515 -0.4248 -0.1357
 5751TIP3    H117217   3.131   5.051   1.788 -1.1606  0.1746 -0.3407
 5751TIP3    H217218   3.170   5.028   1.933 -0.2562 -1.0803 -0.7610
 5752TIP3   OH217219   1.157   2.954   4.804 -1.0849  0.3392  0.3957
 5752TIP3    H117220   1.224   3.007   4.761 -0.1163 -1.7243 -0.8160
 5752TIP3    H217221   1.179   2.959   4.897  0.5493  0.0701  0.0696
 5753TIP3   OH217222   4.520   3.540   2.274 -0.1975 -0.2011 -0.0142
 5753TIP3    H117223   4.510   3.552   2.369  1.3763  0.1633  0.1250
 5753TIP3    H217224   4.613   3.556   2.257 -0.0859 -1.9416 -1.3632
 5754TIP3   OH217225   0.827   5.025   2.419 -0.4789  0.6060  0.0040
 5754TIP3    H117226   0.840   4.931   2.412 -1.5884  0.5905 -3.4204
 5754TIP3    H217227   0.732   5.037   2.419 -0.3805  1.7479 -1.4461
 5755TIP3   OH217228   0.352   4.411   0.609  0.0588  0.3263  0.4598
 5755TIP3    H117229   0.282   4.368   0.561 -0.1778  0.1517  0.9559
 5755TIP3    H217230   0.309   4.483   0.656  0.6506  2.0090 -1.4223
 5756TIP3   OH217231   2.128   1.825   2.806 -0.4636  0.1564  0.4374
 5756TIP3    H117232   2.096   1.783   2.726  0.4786 -0.2093  0.2470
 5756TIP3    H217233   2.217   1.852   2.786 -0.9360  2.0474  0.6476
 5757TIP3   OH217234   1.269   1.807   1.157 -0.2792  0.0239  0.1152
 5757TIP3    H117235   1.210   1.838   1.088  0.6832  0.6000 -0.4708
 5757TIP3    H217236   1.269   1.877   1.222 -0.0393  0.1446 -0.0133
 5758TIP3   OH217237   1.789   6.506   2.117  0.0904  0.7863 -0.0717
 5758TIP3    H117238   1.740   6.495   2.198 -0.8043  0.8164 -0.5964
 5758TIP3    H217239   1.728   6.480   2.048  1.0501  0.1188 -0.6990
 5759TIP3   OH217240   6.407   6.744   1.119  0.3515 -0.4391 -0.2133
 5759TIP3    H117241   6.433   6.697   1.039  1.1539 -0.4664  0.0527
 5759TIP3    H217242   6.357   6.819   1.087 -0.5840 -1.2305 -0.6683
 5760TIP3   OH217243   5.992   6.619   3.330  0.5034 -0.5001  0.2221
 5760TIP3    H117244   6.030   6.545   3.377 -0.8537 -0.9665  0.6354
 5760TIP3    H217245   5.927   6.655   3.390  2.4953  2.3406  0.8637
 5761TIP3   OH217246   1.359   5.832   3.944 -0.5009 -0.1832  0.1582
 5761TIP3    H117247   1.364   5.913   3.994  0.6183 -1.1015  1.6192
 5761TIP3    H217248   1.394   5.765   4.002 -2.5155 -1.9694 -0.5303
 5762TIP3   OH217249   1.493   1.280   3.503  0.2486 -0.4247  0.2044
 5762TIP3    H117250   1.545   1.211   3.545 -0.7580 -1.0274  0.5087
 5762TIP3    H217251   1.410   1.280   3.551 -1.2580 -1.6713 -2.1922
 5763TIP3   OH217252   1.364   5.570   1.810  0.3148 -0.1229  0.5840
 5763TIP3    H117253   1.435   5.514   1.843  0.5093 -0.8779 -1.0582
 5763TIP3    H217254   1.370   5.649   1.864  2.0082 -0.4168  0.8878
 5764TIP3   OH217255   4.293   4.333   2.364  0.1504  0.0218  0.4800
 5764TIP3    H117256   4.266   4.325   2.456 -1.7696 -1.3364 -0.1389
 5764TIP3    H217257   4.215   4.363   2.318  0.2582 -1.9041 -1.0879
 5765TIP3   OH217258   0.159   4.588   4.835 -0.0346  0.1136  0.1627
 5765TIP3    H117259   0.114   4.673   4.835 -0.4144 -0.0813  0.5388
 5765TIP3    H217260   0.113   4.537   4.768  2.2524  1.2411 -2.4180
 5766TIP3   OH217261   4.926   4.635   4.771 -0.6820  0.1141 -0.5988
 5766TIP3    H117262   4.968   4.599   4.849 -0.3790  0.6636 -0.5010
 5766TIP3    H217263   4.859   4.571   4.748 -1.8677  0.6745  1.0547
 5767TIP3   OH217264   1.332   1.279   5.031  0.2748  0.0505 -0.1130
 5767TIP3    H117265   1.281   1.207   5.067 -0.1810  1.6992  2.8286
 5767TIP3    H217266   1.266   1.341   5.000  0.6134  0.2021 -0.5324
 5768TIP3   OH217267   1.537   3.008   2.566  0.4139 -0.5584  0.2621
 5768TIP3    H117268   1.596   3.070   2.522  1.1631 -1.2575  0.2509
 5768TIP3    H217269   1.586   2.981   2.644  0.0817 -1.1152  0.2814
 5769TIP3   OH217270   0.687   0.925   1.941  0.1284  0.2760 -0.2658
 5769TIP3    H117271   0.603   0.935   1.895 -0.5809 -1.1132  0.6316
 5769TIP3    H217272   0.664   0.932   2.034  0.4241 -3.0207  0.1776
 5770TIP3   OH217273   0.618   2.630   0.834 -0.0719  0.3572  0.0979
 5770TIP3    H117274   0.662   2.690   0.774 -0.0021  0.7194  0.5078
 5770TIP3    H217275   0.596   2.554   0.781  1.6888 -0.1388  0.0409
 5771TIP3   OH217276   4.909   3.327   1.389  0.1402 -0.1680  0.0829
 5771TIP3    H117277   4.981   3.308   1.328 -0.6563 -2.1102 -0.3206
 5771TIP3    H217278   4.947   3.388   1.452  2.1627 -1.1455 -0.1043
 5772TIP3   OH217279   1.621   2.704   2.881  0.4208 -0.6611 -0.1124
 5772TIP3    H117280   1.603   2.610   2.888 -3.2631 -0.1183 -0.3550
 5772TIP3    H217281   1.589   2.741   2.963 -2.4955  0.7905 -1.7508
 5773TIP3   OH217282   0.872   1.198   4.301  0.0758  0.1418  0.1782
 5773TIP3    H117283   0.876   1.242   4.386  0.3088  2.8337 -1.1183
 5773TIP3    H217284   0.868   1.269   4.237  1.9813 -1.7161 -2.2193
 5774TIP3   OH217285   4.361   3.848   3.985 -0.2431  0.1084  0.1501
 5774TIP3    H117286   4.397   3.842   4.073  0.1091  0.2087  0.0151
 5774TIP3    H217287   4.351   3.942   3.970 -0.4371  0.0852  0.1382
 5775TIP3   OH217288   6.782   3.273   1.223 -0.1530  0.0944 -0.4463
 5775TIP3    H117289   6.865   3.246   1.264 -1.2863 -1.2252  1.1025
 5775TIP3    H217290   6.770   3.213   1.151 -0.7794 -1.1311  0.6439
 5776TIP3   OH217291   0.341   2.609   3.261 -0.0966 -0.1654 -0.5310
 5776TIP3    H117292   0.252   2.598   3.227 -0.5188  0.0138  0.4559
 5776TIP3    H217293   0.376   2.684   3.213 -0.7800  0.2700 -0.3635
 5777TIP3   OH217294   4.010   5.614   4.639 -0.6943 -0.4488  0.6117
 5777TIP3    H117295   4.055   5.538   4.677 -0.2096  0.3326  1.6477
 5777TIP3    H217296   4.067   5.642   4.568  0.9127  0.9543  2.3397
 5778TIP3   OH217297   6.857   2.177   3.357  0.4576  0.1145  0.6039
 5778TIP3    H117298   6.867   2.188   3.262  0.5287 -0.4378  0.5448
 5778TIP3    H217299   6.852   2.266   3.391 -0.6669  0.3292 -0.0422
 5779TIP3   OH217300   5.297   2.553   1.028 -0.1445 -0.1563  0.1586
 5779TIP3    H117301   5.239   2.505   0.970 -0.5217 -0.6290  0.9087
 5779TIP3    H217302   5.355   2.486   1.065  1.7204  0.4604 -1.4999
 5780TIP3   OH217303   3.283   0.839   1.397 -0.7853  0.6213 -0.4238
 5780TIP3    H117304   3.331   0.892   1.461 -0.1456  0.4414 -0.7431
 5780TIP3    H217305   3.240   0.902   1.340 -1.4415  0.7813  0.2423
 5781TIP3   OH217306   4.195   5.051   4.851 -0.3897  0.1983  0.0514
 5781TIP3    H117307   4.114   5.034   4.900 -0.4032 -1.4345 -0.4987
 5781TIP3    H217308   4.165   5.094   4.771 -0.8834 -1.4611 -0.7032
 5782TIP3   OH217309   5.659   3.835   4.085  0.0613 -0.2563  0.0325
 5782TIP3    H117310   5.646   3.752   4.038 -0.7571  0.1974 -0.5688
 5782TIP3    H217311   5.610   3.899   4.034  0.2475  0.5054  0.7927
 5783TIP3   OH217312   3.930   1.491   5.834 -0.0899 -0.0589  0.5099
 5783TIP3    H117313   4.008   1.536   5.801 -0.1199  1.3555  2.1992
 5783TIP3    H217314   3.866   1.501   5.764 -0.2245  3.0349  0.9206
 5784TIP3   OH217315   1.600   0.769   3.341  0.0271  0.9499  0.4768
 5784TIP3    H117316   1.604   0.818   3.423  1.6770 -0.6162  1.3969
 5784TIP3    H217317   1.652   0.691   3.357  0.0188  0.3752 -1.9345
 5785TIP3   OH217318   2.535   6.227   4.057  0.8658  0.0145  0.0019
 5785TIP3    H117319   2.605   6.212   3.993  1.0774  1.9296 -0.2603
 5785TIP3    H217320   2.575   6.206   4.142  2.2466  2.2980  0.0099
 5786TIP3   OH217321   4.590   3.415   2.713 -0.3055  0.5352  0.2495
 5786TIP3    H117322   4.589   3.326   2.678 -0.6039  0.5795  0.1464
 5786TIP3    H217323   4.682   3.430   2.737 -0.5542 -0.5204  2.0990
 5787TIP3   OH217324   1.126   4.120   3.507  0.3331  0.3876 -0.7241
 5787TIP3    H117325   1.099   4.186   3.571 -0.7878 -0.6429 -0.1109
 5787TIP3    H217326   1.048   4.103   3.455  0.4329 -0.8983 -0.4806
 5788TIP3   OH217327   1.708   3.619   4.396  0.4139  0.0594 -0.6292
 5788TIP3    H117328   1.775   3.644   4.333 -0.8987  0.1817 -2.0086
 5788TIP3    H217329   1.680   3.701   4.435 -1.6136  0.4995 -2.8386
 5789TIP3   OH217330   4.638   1.742   0.302 -0.1538  0.5284  0.1637
 5789TIP3    H117331   4.553   1.766   0.264 -0.6190 -0.5547  0.4787
 5789TIP3    H217332   4.641   1.646   0.296  0.7402  0.5030  0.7946
 5790TIP3   OH217333   6.404   5.647   5.172 -0.1310  0.4032 -0.3092
 5790TIP3    H117334   6.330   5.687   5.126  1.0050  1.3324 -1.4481
 5790TIP3    H217335   6.374   5.560   5.196 -1.7101  0.8945 -0.3982
 5791TIP3   OH217336   1.437   5.549   0.326 -0.6887 -0.1588  0.6172
 5791TIP3    H117337   1.531   5.554   0.342 -0.4347 -3.2246  0.5593
 5791TIP3    H217338   1.428   5.560   0.231 -0.0683 -2.2453  0.2656
 5792TIP3   OH217339   1.385   0.880   4.941 -0.2092  0.2561  0.0708
 5792TIP3    H117340   1.326   0.889   4.866 -0.1389  0.2811  0.0179
 5792TIP3    H217341   1.473   0.882   4.902 -0.1837 -0.4831  0.0701
 5793TIP3   OH217342   3.691   0.986   4.130  0.2910  0.1622  0.2649
 5793TIP3    H117343   3.657   0.919   4.190 -3.0968  1.2043 -0.2379
 5793TIP3    H217344   3.662   1.069   4.169 -0.0204  0.9935 -1.6389
 5794TIP3   OH217345   4.437   5.720   5.543  0.3772 -0.1144 -0.1774
 5794TIP3    H117346   4.525   5.757   5.537  0.9642 -1.6396 -1.8550
 5794TIP3    H217347   4.378   5.792   5.519  1.3885  0.1577 -1.9812
 5795TIP3   OH217348   4.233   3.923   4.644  0.7208  0.0667  0.4345
 5795TIP3    H117349   4.182   4.000   4.670 -0.0265  0.5419 -2.1649
 5795TIP3    H217350   4.324   3.948   4.658  0.4065  0.2517  2.4753
 5796TIP3   OH217351   6.912   3.272   2.602  0.9844 -0.0739 -0.1255
 5796TIP3    H117352   6.897   3.260   2.696  1.5999 -0.2227 -0.0439
 5796TIP3    H217353   6.827   3.301   2.568  0.6372 -0.4544  0.4006
 5797TIP3   OH217354   3.073   4.008   3.276  0.8236  0.1447 -0.1142
 5797TIP3    H117355   3.005   4.075   3.272  0.5650 -0.1390 -0.5733
 5797TIP3    H217356   3.150   4.050   3.237 -0.2842 -0.9155 -3.9127
 5798TIP3   OH217357   0.410   3.057   3.875  0.1591  0.6453 -0.1957
 5798TIP3    H117358   0.339   3.024   3.819  1.1244 -1.5034 -0.2499
 5798TIP3    H217359   0.482   3.076   3.814 -0.0864  2.1258 -0.0620
 5799TIP3   OH217360   5.067   0.522   0.049  0.6192 -0.3863  0.4806
 5799TIP3    H117361   5.023   0.547  -0.033  0.0775 -0.2641  0.8025
 5799TIP3    H217362   5.160   0.530   0.029  0.5333 -1.4180 -0.4627
 5800TIP3   OH217363   5.711   4.435   0.212 -0.3726  0.0096  0.0550
 5800TIP3    H117364   5.803   4.441   0.241 -0.2222 -0.4757 -0.3104
 5800TIP3    H217365   5.714   4.457   0.119 -0.7368  0.7264  0.2077
 5801TIP3   OH217366   1.979   2.069   3.532 -0.0394 -0.3245  0.4297
 5801TIP3    H117367   2.021   2.056   3.447  1.0800  1.1650  0.7113
 5801TIP3    H217368   2.052   2.080   3.593 -0.8249 -1.1862  1.5838
 5802TIP3   OH217369   3.887   4.714   1.890  0.1776  0.5865  0.1102
 5802TIP3    H117370   3.964   4.668   1.856  0.3385  1.2868 -0.4834
 5802TIP3    H217371   3.879   4.792   1.836 -2.0350 -0.3523 -1.0380
 5803TIP3   OH217372   2.622   1.775   5.800  0.1157  0.4426  0.3688
 5803TIP3    H117373   2.651   1.864   5.780  1.5613 -0.4426 -1.7721
 5803TIP3    H217374   2.687   1.719   5.759 -2.2115 -1.6493 -0.6838
 5804TIP3   OH217375   2.219   1.024   3.890  0.2537 -0.0107  0.1401
 5804TIP3    H117376   2.253   0.978   3.967 -1.5238 -0.1901  0.8811
 5804TIP3    H217377   2.264   1.109   3.891  0.6497 -0.2132  1.0743
 5805TIP3   OH217378   3.880   1.775   4.588 -0.0968 -0.1960 -0.0968
 5805TIP3    H117379   3.861   1.753   4.497  1.4362 -2.7232  0.0988
 5805TIP3    H217380   3.797   1.811   4.621 -0.7953  0.4310 -2.3457
 5806TIP3   OH217381   4.514   0.171   2.648 -0.0141  0.0959  0.2099
 5806TIP3    H117382   4.591   0.227   2.636  0.6825 -0.8921 -0.0518
 5806TIP3    H217383   4.542   0.085   2.617 -1.5442 -0.0712 -0.8244
 5807TIP3   OH217384   3.863   3.536   3.789 -0.6184 -0.2934 -0.6463
 5807TIP3    H117385   3.844   3.630   3.792 -0.4383 -0.1025 -3.3198
 5807TIP3    H217386   3.942   3.529   3.736  0.7609 -1.8652  1.4171
 5808TIP3   OH217387   2.509   2.314   3.341 -0.3582  0.0270 -0.0851
 5808TIP3    H117388   2.479   2.383   3.401  1.7868 -0.5308  1.7711
 5808TIP3    H217389   2.582   2.354   3.294 -1.1424 -0.0068 -1.3893
 5809TIP3   OH217390   2.639   5.031   1.692  0.0189 -0.0127 -0.0049
 5809TIP3    H117391   2.642   4.962   1.626 -0.5812 -1.1725  1.1296
 5809TIP3    H217392   2.691   4.997   1.765 -0.3182  0.7147  0.5966
 5810TIP3   OH217393   0.094   6.232   2.388 -0.1104  0.6621  0.3299
 5810TIP3    H117394   0.048   6.156   2.426  0.9634 -0.7571 -1.0693
 5810TIP3    H217395   0.084   6.301   2.453 -1.3214 -0.6085  1.5697
 5811TIP3   OH217396   1.707   0.725   0.336 -0.1898 -0.1233  0.8772
 5811TIP3    H117397   1.614   0.729   0.357 -0.3187 -2.5048  1.0915
 5811TIP3    H217398   1.745   0.669   0.405  0.6948 -2.1250 -1.0891
 5812TIP3   OH217399   2.621   3.622   2.864 -0.1313 -0.1286 -0.1964
 5812TIP3    H117400   2.626   3.528   2.850 -0.8629 -0.1046 -0.6244
 5812TIP3    H217401   2.693   3.641   2.925 -0.1754 -1.0032  0.1356
 5813TIP3   OH217402   1.418   2.166   4.424  0.0056  0.3845 -0.1528
 5813TIP3    H117403   1.505   2.168   4.383 -0.1480 -1.2367 -0.6209
 5813TIP3    H217404   1.357   2.184   4.353 -0.2356 -2.0500 -0.6213
 5814TIP3   OH217405   0.722   3.077   3.463  0.0584 -0.4875  0.1565
 5814TIP3    H117406   0.767   3.016   3.521  0.8343 -1.6855 -1.6020
 5814TIP3    H217407   0.763   3.162   3.480  1.8208 -1.2296 -0.1539
 5815TIP3   OH217408   3.087   2.068   0.603 -0.2530 -0.2194  0.4433
 5815TIP3    H117409   3.122   2.021   0.679  0.5913 -0.2343  0.0438
 5815TIP3    H217410   3.015   2.121   0.639 -0.0600 -0.4643  1.1966
 5816TIP3   OH217411   5.969   5.831   3.839  0.1759 -0.5430 -0.4852
 5816TIP3    H117412   5.893   5.773   3.829  1.8476 -2.9889  0.0807
 5816TIP3    H217413   5.965   5.858   3.931 -0.5094  0.1091 -0.6992
 5817TIP3   OH217414   0.056   6.784   3.623  0.1446  0.8340  0.5005
 5817TIP3    H117415  -0.013   6.849   3.622  1.4435  2.2667  0.8203
 5817TIP3    H217416   0.022   6.711   3.571 -2.2522  0.7592  2.0308
 5818TIP3   OH217417   5.495   6.060   0.678 -0.3230  0.2159  0.4362
 5818TIP3    H117418   5.501   6.061   0.773 -2.3678 -0.1274  0.6095
 5818TIP3    H217419   5.445   5.981   0.657  1.9981 -0.9919 -1.1166
 5819TIP3   OH217420   5.498   1.456   3.116  0.1160  0.2814  0.3550
 5819TIP3    H117421   5.585   1.418   3.123  0.9881  2.4450  3.5519
 5819TIP3    H217422   5.440   1.391   3.155  0.7784 -0.0011  0.8871
 5820TIP3   OH217423   1.608   2.634   0.034 -0.0592 -0.1820 -0.6980
 5820TIP3    H117424   1.573   2.692  -0.034  1.1260  0.1822 -1.0126
 5820TIP3    H217425   1.537   2.571   0.050 -0.8574  0.5404 -1.3054
 5821TIP3   OH217426   3.318   0.294   2.978  0.1487  0.1273 -0.0053
 5821TIP3    H117427   3.228   0.314   2.949 -0.6176 -1.9057  0.8251
 5821TIP3    H217428   3.350   0.376   3.015 -1.0567  1.1170 -1.0722
 5822TIP3   OH217429   1.325   3.483   0.056  0.0374  0.6552 -0.3418
 5822TIP3    H117430   1.324   3.531   0.139  2.8519  1.0474 -0.4399
 5822TIP3    H217431   1.348   3.393   0.081  0.0339  0.5782 -0.6167
 5823TIP3   OH217432   2.951   3.126   1.410  0.3884  0.4369  0.4176
 5823TIP3    H117433   2.928   3.219   1.421  1.4946  1.1207 -2.3221
 5823TIP3    H217434   3.040   3.119   1.445  0.8803  0.7868 -0.7269
 5824TIP3   OH217435   6.827   5.811   2.000  0.3125  0.0829 -0.4774
 5824TIP3    H117436   6.759   5.826   2.066  0.2340 -0.2291 -0.4863
 5824TIP3    H217437   6.778   5.808   1.917  0.4333  0.6785 -0.5757
 5825TIP3   OH217438   1.139   1.777   2.825  0.0889  0.4246  0.4322
 5825TIP3    H117439   1.166   1.795   2.735  2.3740 -1.1579  0.7078
 5825TIP3    H217440   1.210   1.810   2.879  0.1176 -1.1418  1.4351
 5826TIP3   OH217441   2.861   6.769   0.165  0.5010 -0.0044  0.2558
 5826TIP3    H117442   2.858   6.843   0.225 -0.9933  1.9478 -2.0017
 5826TIP3    H217443   2.769   6.747   0.149  0.8046 -0.0727 -1.6673
 5827TIP3   OH217444   7.022   6.527   2.664  0.2314 -0.3353  0.0697
 5827TIP3    H117445   7.047   6.609   2.707 -1.2801  0.1006  0.1532
 5827TIP3    H217446   6.957   6.552   2.599  0.4249 -1.3659 -0.5431
 5828TIP3   OH217447   1.066   2.965   2.770 -0.2886 -0.5588  0.1718
 5828TIP3    H117448   1.024   2.986   2.854  2.4817 -2.7986  2.3229
 5828TIP3    H217449   1.135   3.032   2.761 -0.8090 -0.1021 -0.5776
 5829TIP3   OH217450   5.540   2.237   4.290 -0.4373  0.9860  0.4750
 5829TIP3    H117451   5.590   2.156   4.299 -0.8975  0.5014 -0.9751
 5829TIP3    H217452   5.534   2.271   4.378 -0.0295 -0.4510  1.0953
 5830TIP3   OH217453   4.237   5.304   4.304 -0.3204  0.1529 -0.1565
 5830TIP3    H117454   4.144   5.294   4.324 -0.8174  3.2756 -0.4196
 5830TIP3    H217455   4.248   5.263   4.219 -0.8280 -2.4569  0.9312
 5831TIP3   OH217456   5.725   5.151   5.262 -0.1693  0.0540  0.3481
 5831TIP3    H117457   5.630   5.160   5.272 -0.4542 -1.6910 -0.5205
 5831TIP3    H217458   5.737   5.063   5.226  1.7874  0.2401  0.4723
 5832TIP3   OH217459   6.826   5.232   1.187 -0.0500  0.4216  0.6688
 5832TIP3    H117460   6.786   5.302   1.239 -1.1368 -0.1366  0.6114
 5832TIP3    H217461   6.815   5.261   1.096 -0.0870  0.3905  0.6635
 5833TIP3   OH217462   0.993   0.051   3.017 -0.1808 -0.5379  0.3708
 5833TIP3    H117463   1.025   0.084   3.102  0.2430  0.4954 -0.1691
 5833TIP3    H217464   0.898   0.046   3.028 -0.4682  2.3469  0.0488
 5834TIP3   OH217465   0.519   5.176   5.806  0.0869 -0.7047  0.2352
 5834TIP3    H117466   0.447   5.125   5.842 -1.9566  1.5300 -0.4726
 5834TIP3    H217467   0.537   5.136   5.721 -0.6347 -0.9747  0.2050
 5835TIP3   OH217468   3.463   2.578   5.061  0.3786 -0.0601  0.7370
 5835TIP3    H117469   3.455   2.553   5.153  1.6247 -1.0834  0.5926
 5835TIP3    H217470   3.374   2.572   5.027 -0.0148 -0.1704  1.7467
 5836TIP3   OH217471   0.280   3.984   3.155  0.0112  0.0582 -0.1287
 5836TIP3    H117472   0.264   3.945   3.069  0.3424  0.8078 -0.5417
 5836TIP3    H217473   0.196   3.978   3.201 -0.8903  1.8422 -1.4083
 5837TIP3   OH217474   5.317   4.954   3.656 -0.2513 -0.1073  0.1584
 5837TIP3    H117475   5.314   4.988   3.566  1.4327  0.7955  0.4243
 5837TIP3    H217476   5.256   4.879   3.654  0.3436 -0.6194 -1.9548
 5838TIP3   OH217477   5.522   2.026   2.753  0.1440  0.5820 -0.0973
 5838TIP3    H117478   5.524   2.057   2.662  1.3703  1.4560  0.2137
 5838TIP3    H217479   5.436   2.053   2.785  0.1801  1.3828 -0.6346
 5839TIP3   OH217480   0.171   3.995   1.756 -0.3020  0.0189  0.0335
 5839TIP3    H117481   0.175   4.042   1.672 -0.7595 -0.7529 -0.4279
 5839TIP3    H217482   0.162   4.064   1.821  0.5885  0.6710 -0.4982
 5840TIP3   OH217483   6.295   1.947   2.922 -1.1118  0.3919 -0.1824
 5840TIP3    H117484   6.254   1.895   2.991  2.1192 -1.0203  0.9079
 5840TIP3    H217485   6.240   1.933   2.845 -1.2564 -3.6373  0.4300
 5841TIP3   OH217486   3.806   3.196   0.475 -0.0333  0.1930 -0.2230
 5841TIP3    H117487   3.747   3.194   0.399  0.3588  0.7653 -0.5488
 5841TIP3    H217488   3.789   3.279   0.517 -1.2887 -0.7320  1.1792
 5842TIP3   OH217489   2.534   6.826   4.503  0.0061  0.2250 -0.0558
 5842TIP3    H117490   2.612   6.817   4.448  0.9196  0.0638  1.2332
 5842TIP3    H217491   2.503   6.737   4.518 -0.1302  0.2568 -0.1397
 5843TIP3   OH217492   1.251   0.250   4.121  0.2287 -0.0657  0.7327
 5843TIP3    H117493   1.268   0.302   4.042 -1.4633 -0.6747 -0.0872
 5843TIP3    H217494   1.235   0.315   4.190 -3.3875  0.6785 -0.5978
 5844TIP3   OH217495   4.187   5.587   4.381  0.5559  0.6912 -1.0171
 5844TIP3    H117496   4.246   5.642   4.329  1.1938  0.3395 -0.6788
 5844TIP3    H217497   4.233   5.503   4.389 -0.0694  0.3569 -0.8945
 5845TIP3   OH217498   1.131   5.021   1.780  0.1548  0.2665  0.7489
 5845TIP3    H117499   1.068   5.009   1.709  0.5479  1.0392  0.2682
 5845TIP3    H217500   1.114   4.947   1.839 -1.7114  0.8749  1.0165
 5846TIP3   OH217501   2.247   5.825   2.001  0.0074  0.2647 -0.2756
 5846TIP3    H117502   2.237   5.821   1.906  2.7339  1.4423 -0.6914
 5846TIP3    H217503   2.341   5.814   2.015 -0.6207 -3.2309  2.5465
 5847TIP3   OH217504   6.243   5.266   2.516  0.2545  0.2236 -0.0928
 5847TIP3    H117505   6.178   5.226   2.458  1.0881 -0.5658 -0.5067
 5847TIP3    H217506   6.193   5.294   2.593 -0.4280 -1.3471  0.0768
 5848TIP3   OH217507   4.050   4.691   4.944 -0.3138 -0.3608  0.4870
 5848TIP3    H117508   4.023   4.601   4.963  0.9737 -0.5302  1.5857
 5848TIP3    H217509   3.982   4.724   4.884 -0.3043 -2.3543 -0.6952
 5849TIP3   OH217510   1.300   3.412   2.063  0.2124 -0.3884 -0.1913
 5849TIP3    H117511   1.379   3.436   2.111 -0.1609  1.6714 -0.5444
 5849TIP3    H217512   1.239   3.382   2.131  0.5168  0.1794  0.3380
 5850TIP3   OH217513   3.723   5.324   1.891 -0.3550  0.2252 -0.3262
 5850TIP3    H117514   3.743   5.373   1.811  0.9784 -0.5865 -0.5249
 5850TIP3    H217515   3.689   5.240   1.861  0.6173 -0.2779 -0.0796
 5851TIP3   OH217516   6.850   1.272   5.291 -0.3227  0.0325 -0.0897
 5851TIP3    H117517   6.913   1.255   5.221 -0.4037 -2.3328  0.3301
 5851TIP3    H217518   6.903   1.300   5.365 -0.0661  0.8296 -0.5660
 5852TIP3   OH217519   1.374   1.420   0.012 -0.3568  0.2017  0.1297
 5852TIP3    H117520   1.352   1.430   0.104 -0.4923 -1.4212  0.3126
 5852TIP3    H217521   1.289   1.419  -0.033 -0.3861 -0.6262  0.1909
 5853TIP3   OH217522   3.492   2.197   5.240  0.0412 -0.2652  0.0410
 5853TIP3    H117523   3.576   2.206   5.196 -0.7342  0.6715 -1.3145
 5853TIP3    H217524   3.492   2.266   5.306 -0.5883  1.3586 -1.5717
 5854TIP3   OH217525   0.644   5.893   2.242 -0.4511  0.3648  0.2527
 5854TIP3    H117526   0.606   5.870   2.157 -1.3035 -2.5488  1.3153
 5854TIP3    H217527   0.571   5.931   2.291 -0.7470 -0.6340  0.6141
 5855TIP3   OH217528   2.651   5.744   5.435  0.0643 -0.3654  0.0126
 5855TIP3    H117529   2.650   5.733   5.340  0.7612 -4.2357  0.2760
 5855TIP3    H217530   2.733   5.790   5.453  0.3339 -0.3335 -1.1960
 5856TIP3   OH217531   3.950   3.860   1.085  0.7542 -0.1138  0.1624
 5856TIP3    H117532   4.038   3.889   1.110 -0.1609  0.7490  2.6630
 5856TIP3    H217533   3.932   3.787   1.144  0.3639 -1.3525 -1.4326
 5857TIP3   OH217534   6.208   5.618   3.869 -0.3024  0.0132  0.0206
 5857TIP3    H117535   6.193   5.700   3.823 -0.0717  0.2266  0.3251
 5857TIP3    H217536   6.294   5.589   3.839 -0.4823 -0.2415 -0.2659
 5858TIP3   OH217537   3.000   2.961   3.420 -0.2015 -0.4306  0.0085
 5858TIP3    H117538   2.959   2.884   3.380 -0.0403 -0.6904  0.3377
 5858TIP3    H217539   2.939   3.032   3.403 -0.2887 -0.6043 -0.4184
 5859TIP3   OH217540   5.192   0.816   3.781  0.6894  0.1468  0.2944
 5859TIP3    H117541   5.232   0.757   3.845  0.8049  0.8263  0.8602
 5859TIP3    H217542   5.137   0.759   3.727 -1.2330 -0.1402  2.4329
 5860TIP3   OH217543   3.035   5.497   3.274 -0.1925 -0.3345 -0.1873
 5860TIP3    H117544   2.955   5.549   3.274  0.6160  0.9520 -0.3517
 5860TIP3    H217545   3.023   5.434   3.345 -0.7169  0.8580  0.8052
 5861TIP3   OH217546   3.301   5.041   0.778  0.4832  0.2758 -0.3739
 5861TIP3    H117547   3.396   5.046   0.763  0.8010  0.9375  1.5460
 5861TIP3    H217548   3.276   4.955   0.744  2.1914 -0.8733  1.0819
 5862TIP3   OH217549   2.356   0.144   1.888  0.3165 -0.7000 -0.0006
 5862TIP3    H117550   2.341   0.180   1.976 -0.8299  1.0947 -0.8595
 5862TIP3    H217551   2.279   0.090   1.871  0.2191 -0.5239 -0.1297
 5863TIP3   OH217552   1.456   0.050   5.396 -0.2836 -0.0363 -0.4065
 5863TIP3    H117553   1.479   0.060   5.304  1.6097  1.2115  0.1331
 5863TIP3    H217554   1.509   0.116   5.441 -1.6530 -0.1511  1.5190
 5864TIP3   OH217555   2.021   6.762   0.248  0.1004 -0.2210 -0.4115
 5864TIP3    H117556   2.104   6.745   0.206  1.2772  0.6510  1.4230
 5864TIP3    H217557   2.043   6.814   0.326 -2.2656  1.1770 -0.5584
 5865TIP3   OH217558   3.233   3.093   3.208 -0.5794  0.0842 -0.0599
 5865TIP3    H117559   3.183   3.061   3.282 -0.2461 -0.2102  0.0430
 5865TIP3    H217560   3.279   3.015   3.175  1.5737  0.7143  1.2228
 5866TIP3   OH217561   2.021   4.588   2.549  0.3961 -0.3029 -0.0096
 5866TIP3    H117562   2.045   4.657   2.487  1.5508 -0.4545  0.2354
 5866TIP3    H217563   2.046   4.624   2.634 -3.9246  1.1880  0.8674
 5867TIP3   OH217564   0.094   2.795   2.656  0.2263  0.7007 -0.4968
 5867TIP3    H117565   0.027   2.789   2.724  2.2785  1.3012  1.7268
 5867TIP3    H217566   0.063   2.865   2.598 -1.6461  0.0881 -0.2797
 5868TIP3   OH217567   4.333   6.613   2.602 -0.1895 -0.8223 -0.0214
 5868TIP3    H117568   4.281   6.569   2.534 -0.0966 -1.2346  0.1707
 5868TIP3    H217569   4.275   6.681   2.636  0.1451  0.1082 -1.2541
 5869TIP3   OH217570   5.243   2.020   1.249 -0.3614  0.2537  0.4140
 5869TIP3    H117571   5.330   1.990   1.272 -0.5216 -0.2365  0.3997
 5869TIP3    H217572   5.251   2.052   1.159  0.6932  3.9233  1.6522
 5870TIP3   OH217573   1.818   2.231   5.058 -0.0740  0.7598 -0.1385
 5870TIP3    H117574   1.845   2.241   5.149 -0.6279  2.0003 -0.0879
 5870TIP3    H217575   1.808   2.321   5.026 -0.1479  0.3448 -1.3485
 5871TIP3   OH217576   0.928   3.167   1.317 -0.6045 -0.3345  0.0190
 5871TIP3    H117577   0.928   3.259   1.289 -0.8425 -0.1755  0.5398
 5871TIP3    H217578   0.962   3.120   1.241  3.6706  0.5946  1.0935
 5872TIP3   OH217579   6.567   4.945   5.384  0.0269 -0.0020 -0.3255
 5872TIP3    H117580   6.544   4.880   5.318  1.0069 -0.6905  0.0005
 5872TIP3    H217581   6.511   4.924   5.459  0.7321 -0.8238 -0.0226
 5873TIP3   OH217582   4.525   0.995   2.127  0.2070 -0.0607  0.2279
 5873TIP3    H117583   4.609   0.953   2.148  0.8492  1.2986  0.4646
 5873TIP3    H217584   4.461   0.925   2.139  1.0641 -0.5936  2.1804
 5874TIP3   OH217585   4.253   4.784   4.799 -0.2944  0.4958 -0.3088
 5874TIP3    H117586   4.169   4.749   4.831  0.3822 -2.1130 -1.1200
 5874TIP3    H217587   4.251   4.877   4.823 -2.4339  0.0356  1.7338
 5875TIP3   OH217588   1.558   5.339   5.747  0.6251  0.2003 -0.1187
 5875TIP3    H117589   1.560   5.278   5.673  0.4912 -2.1926  1.7342
 5875TIP3    H217590   1.465   5.362   5.756 -0.0470 -2.8077  1.7442
 5876TIP3   OH217591   1.248   4.266   4.547 -0.3314 -0.1101  0.4305
 5876TIP3    H117592   1.340   4.257   4.573  0.2864 -0.5697 -1.7726
 5876TIP3    H217593   1.225   4.355   4.573  1.9559  1.4623 -2.3483
 5877TIP3   OH217594   1.500   3.285   2.895  0.0989  0.1279  0.0325
 5877TIP3    H117595   1.553   3.361   2.918  0.7330 -0.3816  0.2642
 5877TIP3    H217596   1.550   3.210   2.927 -0.3973 -0.4043 -0.4283
 5878TIP3   OH217597   1.625   5.044   3.706  0.0093 -0.1848 -0.3322
 5878TIP3    H117598   1.601   4.953   3.723  0.3257 -0.3128 -0.5545
 5878TIP3    H217599   1.676   5.070   3.783  1.2308 -0.6873 -0.9347
 5879TIP3   OH217600   2.005   1.972   3.875 -0.4974  0.1277 -0.0609
 5879TIP3    H117601   1.965   1.937   3.795  0.8659 -0.1574 -0.6442
 5879TIP3    H217602   2.081   2.021   3.845  0.2251 -0.2421  1.0789
 5880TIP3   OH217603   2.941   1.015   5.706  0.3793  0.4789  0.9478
 5880TIP3    H117604   2.952   0.982   5.616 -2.0192  0.8610  0.4461
 5880TIP3    H217605   2.850   0.996   5.728  0.4395  1.8997  2.6800
 5881TIP3   OH217606   6.984   4.792   0.428 -1.0521 -0.4682 -0.0181
 5881TIP3    H117607   6.970   4.711   0.379 -2.2510  0.9359 -2.0876
 5881TIP3    H217608   7.022   4.853   0.365 -1.3607  1.0034  1.1592
 5882TIP3   OH217609   4.864   6.164   4.000  0.0202 -0.3583  0.8298
 5882TIP3    H117610   4.923   6.235   3.973  0.6250 -0.7562  1.1094
 5882TIP3    H217611   4.860   6.171   4.096  0.1987 -0.7974  0.8697
 5883TIP3   OH217612   6.544   3.583   5.512  0.2341 -0.2809  0.3075
 5883TIP3    H117613   6.510   3.608   5.427  0.0286  1.4371  0.8593
 5883TIP3    H217614   6.554   3.488   5.507 -0.6085 -0.3129 -1.3076
 5884TIP3   OH217615   3.130   0.631   4.441 -0.9168 -0.4262 -0.0354
 5884TIP3    H117616   3.093   0.651   4.355 -1.5735  0.3988  0.4230
 5884TIP3    H217617   3.220   0.605   4.423 -0.7079  0.7972 -0.8872
 5885TIP3   OH217618   5.771   0.698   0.416 -0.5385  0.2268  0.6044
 5885TIP3    H117619   5.763   0.740   0.501 -0.3211 -1.1985  1.3692
 5885TIP3    H217620   5.827   0.622   0.432 -1.6731 -0.9008 -0.4774
 5886TIP3   OH217621   1.582   2.974   2.233  1.0493  0.0999 -0.3551
 5886TIP3    H117622   1.542   3.051   2.193 -0.6837 -0.6914 -0.2044
 5886TIP3    H217623   1.671   3.003   2.256  0.3515  2.1327 -0.0357
 5887TIP3   OH217624   6.008   2.948   0.628  0.1742  0.5092  0.7874
 5887TIP3    H117625   6.002   2.921   0.720  0.2378 -0.2566  0.5768
 5887TIP3    H217626   6.057   2.878   0.586  0.8119  1.2314  0.3087
 5888TIP3   OH217627   1.616   4.056   2.488 -0.1986 -0.1159 -0.3926
 5888TIP3    H117628   1.643   4.132   2.540  0.7164 -1.1400  0.6815
 5888TIP3    H217629   1.657   3.982   2.532 -1.7623 -1.3317 -0.9227
 5889TIP3   OH217630   5.645   0.639   1.949 -0.5002  0.0384  0.6452
 5889TIP3    H117631   5.714   0.580   1.918 -0.3507 -0.2346  1.4605
 5889TIP3    H217632   5.669   0.725   1.915 -0.4765 -0.2891 -0.1787
 5890TIP3   OH217633   5.987   2.370   3.181 -0.4116 -0.1913 -0.0566
 5890TIP3    H117634   5.971   2.432   3.252 -2.4538  0.2945 -0.8588
 5890TIP3    H217635   6.014   2.424   3.106 -1.1102 -0.3579 -0.4424
 5891TIP3   OH217636   5.588   5.155   4.156 -0.6176 -0.4289  0.3423
 5891TIP3    H117637   5.586   5.072   4.108  0.7548  0.7790 -1.9623
 5891TIP3    H217638   5.603   5.222   4.089 -0.4350  1.5889  2.2632
 5892TIP3   OH217639   2.785   3.568   0.282  0.0329 -0.2429  0.3012
 5892TIP3    H117640   2.853   3.613   0.333 -0.1737  0.9951 -0.4842
 5892TIP3    H217641   2.780   3.617   0.200 -2.0383 -0.0695  0.4615
 5893TIP3   OH217642   4.466   3.763   1.464  0.6238  0.2126  0.0732
 5893TIP3    H117643   4.483   3.845   1.418  2.0678  0.4259  0.9318
 5893TIP3    H217644   4.455   3.788   1.555 -0.6335 -0.3846  0.1139
 5894TIP3   OH217645   1.522   3.913   4.723 -0.2165 -0.4219 -0.1356
 5894TIP3    H117646   1.436   3.877   4.743 -0.5193 -0.2938 -1.1364
 5894TIP3    H217647   1.548   3.867   4.643  1.0751 -1.1586  0.6732
 5895TIP3   OH217648   4.459   5.027   2.631  0.0540  0.0877  0.0079
 5895TIP3    H117649   4.460   5.079   2.712  0.5610  0.2703 -0.1091
 5895TIP3    H217650   4.419   5.085   2.566  1.4510  0.7018 -0.3466
 5896TIP3   OH217651   6.862   2.260   4.731 -0.3518 -0.3626 -0.2748
 5896TIP3    H117652   6.795   2.247   4.663 -0.3306  2.2977 -0.9305
 5896TIP3    H217653   6.945   2.251   4.685 -0.3179 -0.0246 -0.2813
 5897TIP3   OH217654   3.678   5.981   4.446  0.1746  0.1580 -0.1051
 5897TIP3    H117655   3.684   5.895   4.488  0.4412 -0.3093 -1.0735
 5897TIP3    H217656   3.598   5.976   4.393 -0.1744  0.7472  0.3597
 5898TIP3   OH217657   1.700   4.241   3.019  0.1911  0.2204  0.0033
 5898TIP3    H117658   1.611   4.224   3.048 -0.0793 -0.3981 -1.1263
 5898TIP3    H217659   1.730   4.157   2.983  0.9718  0.5949 -0.2466
 5899TIP3   OH217660   6.555   6.663   5.167  0.4884 -0.0484 -0.0563
 5899TIP3    H117661   6.527   6.575   5.191  0.8829 -0.0857  0.2800
 5899TIP3    H217662   6.475   6.708   5.141  0.2438 -0.4149  0.0656
 5900TIP3   OH217663   6.644   4.398   3.417  0.5418  0.0109  0.7889
 5900TIP3    H117664   6.722   4.448   3.443  0.9872 -0.3537  0.1749
 5900TIP3    H217665   6.591   4.394   3.496  1.1577  0.2468  1.2209
 5901TIP3   OH217666   0.392   0.399   1.332  0.4351  0.3912 -0.1967
 5901TIP3    H117667   0.476   0.381   1.375 -0.3531  0.2106  1.3314
 5901TIP3    H217668   0.371   0.318   1.285  0.8347  0.2457 -0.1267
 5902TIP3   OH217669   0.342   4.420   2.640  0.3681 -0.4810  0.6549
 5902TIP3    H117670   0.362   4.510   2.612  1.1658 -0.3173  1.6731
 5902TIP3    H217671   0.427   4.376   2.640 -0.0133 -1.2361  0.2037
 5903TIP3   OH217672   4.794   2.068   0.327 -0.6864 -0.2949 -0.6877
 5903TIP3    H117673   4.787   2.159   0.355  0.5676 -0.3963  0.0037
 5903TIP3    H217674   4.747   2.018   0.394 -1.1446 -0.1934 -0.9269
 5904TIP3   OH217675   3.301   0.499   3.739 -0.2916 -0.8760 -0.1796
 5904TIP3    H117676   3.256   0.583   3.739  0.2411 -0.5354  1.5607
 5904TIP3    H217677   3.386   0.516   3.699  0.3757 -0.2062  1.4403
 5905TIP3   OH217678   1.172   3.283   5.682 -0.2391  0.9761  0.0962
 5905TIP3    H117679   1.184   3.299   5.775  3.5654 -0.8203  0.1034
 5905TIP3    H217680   1.186   3.369   5.641 -0.4098  1.4965  1.1009
 5906TIP3   OH217681   4.167   2.852   5.034 -0.4876  0.3986 -0.1300
 5906TIP3    H117682   4.128   2.779   5.082 -2.4678  1.9613  0.7949
 5906TIP3    H217683   4.257   2.824   5.017 -0.9851 -1.9782  0.7032
 5907TIP3   OH217684   6.697   4.970   0.157  0.0606 -0.3613  0.0084
 5907TIP3    H117685   6.788   4.979   0.127 -0.2755  0.4314 -0.8224
 5907TIP3    H217686   6.652   5.045   0.119 -1.1294 -1.2010 -0.3054
 5908TIP3   OH217687   4.646   3.447   4.825  0.2755  0.1062  0.1500
 5908TIP3    H117688   4.684   3.435   4.737  0.6329 -0.3855  0.3596
 5908TIP3    H217689   4.657   3.361   4.866  0.3555  0.4128  0.7694
 5909TIP3   OH217690   4.570   4.213   3.125  0.1196 -0.2924 -0.4116
 5909TIP3    H117691   4.481   4.246   3.113  0.3384  0.2226 -0.6619
 5909TIP3    H217692   4.606   4.208   3.036  0.2030 -0.8924 -0.3459
 5910TIP3   OH217693   1.178   6.779   2.852  0.3021 -0.7123  0.7493
 5910TIP3    H117694   1.195   6.814   2.940 -1.4643 -3.8077  2.5241
 5910TIP3    H217695   1.086   6.797   2.836 -0.1467 -2.6544  0.8803
 5911TIP3   OH217696   1.307   4.174   1.393  0.1920 -0.1423  0.5302
 5911TIP3    H117697   1.350   4.150   1.474  2.3455  1.1910 -0.1401
 5911TIP3    H217698   1.223   4.211   1.420  0.4558 -0.6093  2.0581
 5912TIP3   OH217699   6.511   0.796   1.503  0.2526  0.6716 -0.3921
 5912TIP3    H117700   6.441   0.754   1.553 -0.4817 -0.2074 -2.0676
 5912TIP3    H217701   6.528   0.878   1.550 -0.8795  0.2310  0.8587
 5913TIP3   OH217702   0.804   0.568   0.652 -0.0011 -0.0379  0.6200
 5913TIP3    H117703   0.780   0.660   0.668 -0.4859 -0.0365 -0.0665
 5913TIP3    H217704   0.723   0.520   0.667 -0.5700 -0.0110 -1.9852
 5914TIP3   OH217705   5.456   4.064   4.814 -0.3849  0.2123  0.1078
 5914TIP3    H117706   5.458   4.104   4.901 -1.6831 -2.1804  1.3091
 5914TIP3    H217707   5.547   4.065   4.786 -0.2981  4.0377 -0.0590
 5915TIP3   OH217708   4.222   3.949   1.164  0.0543  0.0227  0.5109
 5915TIP3    H117709   4.250   4.016   1.102  0.0292 -1.0640 -0.7187
 5915TIP3    H217710   4.293   3.944   1.228  0.5949  0.3967 -0.0474
 5916TIP3   OH217711   2.734   4.193   3.761  0.9045 -0.4764  0.2183
 5916TIP3    H117712   2.795   4.229   3.825  1.3761  0.5259 -0.7520
 5916TIP3    H217713   2.730   4.099   3.781 -1.3558  0.1445  3.6821
 5917TIP3   OH217714   4.994   5.794   1.153 -0.7132  0.0789 -0.0813
 5917TIP3    H117715   4.992   5.717   1.210  1.5165  1.1074  1.5663
 5917TIP3    H217716   4.911   5.839   1.171 -1.0385 -0.7824  0.6685
 5918TIP3   OH217717   1.688   2.381   1.526  0.3826  0.3602 -0.3231
 5918TIP3    H117718   1.620   2.362   1.462  0.2532 -1.9594  0.4221
 5918TIP3    H217719   1.712   2.296   1.562  1.5855  1.4295  1.5752
 5919TIP3   OH217720   6.311   2.344   1.784 -0.1136  0.2155  0.5097
 5919TIP3    H117721   6.236   2.403   1.775 -0.4712  0.0888  2.3331
 5919TIP3    H217722   6.383   2.400   1.814 -0.7713 -0.3695  3.4647
 5920TIP3   OH217723   4.871   4.456   0.086  0.5036  0.0050 -0.1166
 5920TIP3    H117724   4.813   4.507   0.143  1.2019  1.5227 -0.6873
 5920TIP3    H217725   4.865   4.500   0.000 -0.4108 -2.1271 -1.2165
 5921TIP3   OH217726   3.745   0.906   1.056  0.0675  0.5110  0.1866
 5921TIP3    H117727   3.806   0.834   1.037 -0.0718  0.3312  0.4197
 5921TIP3    H217728   3.800   0.985   1.056  0.4798  0.2433  1.3668
 5922TIP3   OH217729   5.476   2.625   4.061  0.3024  0.3111 -0.2032
 5922TIP3    H117730   5.552   2.605   4.117  1.2099  1.8378 -0.8251
 5922TIP3    H217731   5.418   2.549   4.071  2.5000 -1.5375 -0.7537
 5923TIP3   OH217732   1.081   1.475   0.212 -0.7781 -0.0973  0.1007
 5923TIP3    H117733   1.116   1.412   0.274 -0.3005  0.5569  0.5135
 5923TIP3    H217734   1.071   1.556   0.263 -3.1218 -0.2890  0.0692
 5924TIP3   OH217735   6.249   4.448   3.521  0.6485 -0.3121 -0.6030
 5924TIP3    H117736   6.235   4.498   3.440 -2.1183 -0.7867 -0.5321
 5924TIP3    H217737   6.270   4.360   3.491  0.3581 -0.3108 -0.8191
 5925TIP3   OH217738   6.429   0.785   0.905 -0.5531  0.1978 -0.3574
 5925TIP3    H117739   6.449   0.853   0.969  0.4899 -0.1384 -0.3153
 5925TIP3    H217740   6.509   0.776   0.853 -0.7048 -0.9204 -0.4275
 5926TIP3   OH217741   5.715   0.822   0.899 -0.5339  0.5347 -0.1157
 5926TIP3    H117742   5.765   0.873   0.963  1.0181 -2.1710  0.9871
 5926TIP3    H217743   5.649   0.777   0.951  0.4044 -1.2871 -0.4124
 5927TIP3   OH217744   0.828   1.245   1.934 -0.1323  0.5592  0.4381
 5927TIP3    H117745   0.845   1.237   1.840  1.0844  2.6096  0.4378
 5927TIP3    H217746   0.845   1.337   1.955  0.1066  0.0668  2.7584
 5928TIP3   OH217747   0.313   4.968   5.421 -0.5770 -0.2023  0.2625
 5928TIP3    H117748   0.365   5.043   5.449 -0.7625  0.1548 -0.3252
 5928TIP3    H217749   0.297   4.918   5.501 -0.8201  0.6116  0.7368
 5929TIP3   OH217750   7.081   0.429   3.617  0.3588  0.4864 -0.4661
 5929TIP3    H117751   7.015   0.374   3.576  1.6022 -0.2454 -1.5523
 5929TIP3    H217752   7.134   0.461   3.545  2.4101 -0.5557  0.4812
 5930TIP3   OH217753   6.852   4.578   0.832  0.2732  0.0637 -0.2596
 5930TIP3    H117754   6.854   4.667   0.798  0.7980  0.0484 -0.2759
 5930TIP3    H217755   6.792   4.531   0.774 -1.4948  0.8415  0.8603
 5931TIP3   OH217756   5.303   3.801   2.655  0.1604  0.0956 -0.2110
 5931TIP3    H117757   5.313   3.729   2.593  0.7190  0.6458 -0.7816
 5931TIP3    H217758   5.335   3.878   2.607  2.3204  0.2556  1.3326
 5932TIP3   OH217759   1.683   4.264   4.984 -0.0991 -0.2302  0.3330
 5932TIP3    H117760   1.670   4.176   5.020 -0.8501 -0.7760 -1.1463
 5932TIP3    H217761   1.600   4.308   5.000 -0.6869 -0.6976 -1.2072
 5933TIP3   OH217762   3.474   5.645   3.888  0.7626  0.3063  0.0208
 5933TIP3    H117763   3.422   5.713   3.931  0.1366 -0.6542  0.8208
 5933TIP3    H217764   3.413   5.603   3.828  1.5362  1.4009 -1.6223
 5934TIP3   OH217765   1.101   1.297   2.719  0.0555 -0.5198  0.5349
 5934TIP3    H117766   1.123   1.210   2.751 -0.9409 -1.4091 -1.0892
 5934TIP3    H217767   1.017   1.318   2.758 -1.4230 -1.8314 -1.7291
 5935TIP3   OH217768   0.891   5.023   4.250 -0.4614  0.1754  0.2685
 5935TIP3    H117769   0.864   5.100   4.302  2.2259  1.4437 -0.0516
 5935TIP3    H217770   0.986   5.023   4.256 -0.2880 -1.8733 -1.5925
 5936TIP3   OH217771   3.924   4.312   5.551  0.3011 -0.3943 -0.2267
 5936TIP3    H117772   3.915   4.250   5.479 -0.4937 -0.3771 -0.1472
 5936TIP3    H217773   3.851   4.292   5.609  0.1785  0.4457 -0.0799
 5937TIP3   OH217774   4.100   6.272   5.080  0.2121 -0.0118  0.0571
 5937TIP3    H117775   4.039   6.276   5.006 -1.3069  0.9824  1.2975
 5937TIP3    H217776   4.082   6.351   5.130  0.2615 -1.2877  2.1897
 5938TIP3   OH217777   3.679   1.159   2.107  0.1627 -0.5028 -0.1662
 5938TIP3    H117778   3.692   1.182   2.199 -0.6343 -2.1277  0.3912
 5938TIP3    H217779   3.767   1.155   2.070  0.4470  0.9068  0.3165
 5939TIP3   OH217780   2.834   1.257   4.610 -1.0059 -0.2258 -0.3987
 5939TIP3    H117781   2.826   1.288   4.700  0.3725  0.9903 -0.6599
 5939TIP3    H217782   2.895   1.184   4.615  0.8931  1.2652 -0.5785
 5940TIP3   OH217783   0.622   6.799   3.375 -0.2484 -0.3116  0.1870
 5940TIP3    H117784   0.627   6.708   3.348  0.1374 -0.7045  1.5436
 5940TIP3    H217785   0.544   6.804   3.431  0.1379  0.0382  0.6981
 5941TIP3   OH217786   1.238   4.568   2.001 -0.6432  0.2370 -0.0440
 5941TIP3    H117787   1.207   4.522   1.923 -0.9051  0.2800  0.0335
 5941TIP3    H217788   1.244   4.660   1.974 -0.9524  0.2864  0.0499
 5942TIP3   OH217789   2.312   1.812   1.819 -1.1579  0.4274  0.0818
 5942TIP3    H117790   2.366   1.793   1.743 -0.1793 -1.0822  1.1055
 5942TIP3    H217791   2.243   1.870   1.786 -0.7872 -0.2195 -1.9275
 5943TIP3   OH217792   2.482   0.899   2.425 -0.0782 -0.4923  0.0611
 5943TIP3    H117793   2.512   0.821   2.471 -0.7067 -0.2716  0.8545
 5943TIP3    H217794   2.389   0.905   2.446 -0.1519  0.1748 -0.4329
 5944TIP3   OH217795   5.307   4.636   4.809 -0.9654 -0.1451 -0.2803
 5944TIP3    H117796   5.321   4.709   4.870  0.4874 -1.1314  0.6284
 5944TIP3    H217797   5.284   4.562   4.865 -0.9504 -0.7451 -1.0534
 5945TIP3   OH217798   3.799   6.293   1.777  0.2726  0.0196 -0.3731
 5945TIP3    H117799   3.813   6.233   1.850 -0.3650 -0.3432 -0.5365
 5945TIP3    H217800   3.786   6.237   1.701 -0.4944  0.3498 -0.5003
 5946TIP3   OH217801   4.517   1.615   5.922 -0.2580 -0.3921  0.3238
 5946TIP3    H117802   4.522   1.711   5.921 -1.2695 -0.3230 -0.5129
 5946TIP3    H217803   4.464   1.594   5.845  0.4475 -1.6636  0.1701
 5947TIP3   OH217804   3.667   3.940   0.262  0.4824 -0.1815 -0.1178
 5947TIP3    H117805   3.683   3.849   0.287 -0.0051  0.1871  1.7401
 5947TIP3    H217806   3.654   3.985   0.346 -1.6284  1.1418 -1.0831
 5948TIP3   OH217807   0.473   6.485   4.189 -0.5704  0.2904 -0.3625
 5948TIP3    H117808   0.509   6.452   4.271  0.1738  0.9428 -0.4192
 5948TIP3    H217809   0.386   6.517   4.212 -0.3009  0.6251  0.2103
 5949TIP3   OH217810   2.020   0.496   1.908 -0.3476  0.2314 -0.0978
 5949TIP3    H117811   1.971   0.574   1.933  1.6350  1.4823  0.1400
 5949TIP3    H217812   2.112   0.523   1.913  0.3595 -1.5961 -1.7868
 5950TIP3   OH217813   3.410   6.475   1.678  0.1628  0.7329  0.0270
 5950TIP3    H117814   3.365   6.558   1.691 -0.4483  0.3014  0.7590
 5950TIP3    H217815   3.479   6.473   1.745 -1.7254 -0.6183  2.0987
 5951TIP3   OH217816   6.266   6.744   0.758  0.2269 -0.1168  0.1256
 5951TIP3    H117817   6.314   6.781   0.684  0.6689 -0.9613 -0.0170
 5951TIP3    H217818   6.264   6.814   0.823 -0.1147  0.6204 -0.6525
 5952TIP3   OH217819   1.059   0.328   5.389 -0.2050  0.5929  0.0989
 5952TIP3    H117820   1.123   0.281   5.336  0.3613  0.2838  1.0228
 5952TIP3    H217821   1.102   0.409   5.414  0.2273 -0.0314  1.5088
 5953TIP3   OH217822   1.311   4.336   5.913  0.7688  0.1632 -0.2536
 5953TIP3    H117823   1.357   4.346   5.830  1.1794 -0.4792 -0.1059
 5953TIP3    H217824   1.225   4.301   5.889  1.3231 -1.1969 -0.3183
 5954TIP3   OH217825   1.694   6.552   1.032 -0.0102 -0.0738  0.3535
 5954TIP3    H117826   1.762   6.616   1.013 -1.8990  1.0193 -4.0136
 5954TIP3    H217827   1.734   6.467   1.012  0.6911  0.3732 -0.2021
 5955TIP3   OH217828   7.035   5.066   2.822  0.1093 -0.2379  0.2881
 5955TIP3    H117829   7.052   5.123   2.747 -2.3266  1.0483  0.5912
 5955TIP3    H217830   7.001   4.985   2.784  0.0654 -0.0732 -0.0230
 5956TIP3   OH217831   1.530   0.975   1.638 -0.4243  0.0962  0.1118
 5956TIP3    H117832   1.548   0.951   1.547  1.4604 -0.4250  0.5630
 5956TIP3    H217833   1.559   0.899   1.689  1.3466  1.4517  1.2934
 5957TIP3   OH217834   2.377   2.600   0.832  0.3285 -0.7368  0.5797
 5957TIP3    H117835   2.392   2.632   0.921 -0.6695  1.3739  0.0701
 5957TIP3    H217836   2.420   2.665   0.775 -1.4310 -0.4466 -0.5122
 5958TIP3   OH217837   0.782   6.184   4.081  0.0091  0.2816 -0.1365
 5958TIP3    H117838   0.713   6.159   4.143 -0.1114  0.0722 -0.3578
 5958TIP3    H217839   0.765   6.277   4.064  0.7048  0.6418  1.0025
 5959TIP3   OH217840   2.116   2.863   3.429  0.0100 -0.3217  0.5027
 5959TIP3    H117841   2.080   2.871   3.340 -0.3892  0.0739  0.6959
 5959TIP3    H217842   2.108   2.951   3.466  0.2877 -0.4577  0.8877
 5960TIP3   OH217843   3.026   4.381   3.367  0.6577  0.0079 -0.0689
 5960TIP3    H117844   2.981   4.396   3.450 -0.2050  0.6740 -0.6453
 5960TIP3    H217845   2.969   4.320   3.320  0.0837  1.2451 -1.0078
 5961TIP3   OH217846   2.569   2.488   5.592 -0.4464 -0.1128  0.3680
 5961TIP3    H117847   2.631   2.460   5.525 -0.2298  0.1707  0.4467
 5961TIP3    H217848   2.595   2.578   5.613  0.6534 -0.7709  2.1120
 5962TIP3   OH217849   6.670   3.799   1.647 -0.4183 -0.0154  0.1224
 5962TIP3    H117850   6.730   3.868   1.618  0.4144  0.3197  2.4100
 5962TIP3    H217851   6.637   3.830   1.732 -1.9359 -1.3412  0.0646
 5963TIP3   OH217852   1.687   5.629   1.185 -0.5033  0.1997  0.0664
 5963TIP3    H117853   1.724   5.692   1.124 -0.8173 -0.5100 -0.8804
 5963TIP3    H217854   1.634   5.681   1.245 -0.3296  0.8846 -0.3639
 5964TIP3   OH217855   5.005   5.659   5.645 -0.0032  0.0864  0.4229
 5964TIP3    H117856   4.977   5.622   5.561  3.3839 -0.7819 -0.4794
 5964TIP3    H217857   5.083   5.712   5.623  1.9441 -1.4180  3.1267
 5965TIP3   OH217858   4.142   6.399   2.951 -0.0075 -0.0060 -0.1315
 5965TIP3    H117859   4.207   6.459   2.989 -0.0507 -1.3248  2.2016
 5965TIP3    H217860   4.063   6.453   2.941  0.0486  0.4881  1.6362
 5966TIP3   OH217861   1.830   4.768   3.911  0.1634  0.1719 -0.3764
 5966TIP3    H117862   1.737   4.765   3.892 -0.1771 -0.4829  1.2249
 5966TIP3    H217863   1.836   4.803   4.000  1.3488 -0.8185 -0.0326
 5967TIP3   OH217864   5.959   4.391   2.606 -0.4073  0.0884  0.5284
 5967TIP3    H117865   5.874   4.404   2.647  0.3594 -0.1674  2.2604
 5967TIP3    H217866   5.943   4.407   2.512 -1.9121  2.1222  1.0520
 5968TIP3   OH217867   4.697   1.315   4.237 -0.2569 -0.1452  0.3803
 5968TIP3    H117868   4.622   1.309   4.296 -1.1199 -1.1081 -0.7729
 5968TIP3    H217869   4.715   1.225   4.212  0.1371  0.2343 -0.7554
 5969TIP3   OH217870   5.111   3.793   1.035  0.2005  0.1321  0.0115
 5969TIP3    H117871   5.116   3.887   1.049  2.1904  0.1198 -0.2771
 5969TIP3    H217872   5.031   3.780   0.984  1.0298  1.9524 -1.8714
 5970TIP3   OH217873   3.977   0.861   4.440  0.6944  0.3767 -0.3185
 5970TIP3    H117874   4.068   0.878   4.463  0.7175  0.9052 -0.7782
 5970TIP3    H217875   3.982   0.789   4.376  0.6735 -0.6250  0.7602
 5971TIP3   OH217876   0.859   6.352   2.825 -0.2795 -0.0554 -0.4309
 5971TIP3    H117877   0.852   6.398   2.741  0.1520 -0.6416 -0.7960
 5971TIP3    H217878   0.891   6.265   2.802  0.6123  0.0337  0.4333
 5972TIP3   OH217879   6.079   5.162   2.312 -0.0572  0.0427 -1.0412
 5972TIP3    H117880   6.002   5.172   2.368  0.3806  0.1718 -0.4445
 5972TIP3    H217881   6.093   5.067   2.308 -0.4819 -0.0037 -1.4859
 5973TIP3   OH217882   6.688   5.942   5.337 -0.0093 -0.1903  0.1949
 5973TIP3    H117883   6.612   5.888   5.315 -0.6489  1.1504 -1.0644
 5973TIP3    H217884   6.763   5.894   5.301 -0.4787 -0.5827 -0.2639
 5974TIP3   OH217885   4.137   6.131   1.984 -0.1241 -0.6517  0.5874
 5974TIP3    H117886   4.119   6.042   2.016 -0.6325 -0.2902  1.3548
 5974TIP3    H217887   4.141   6.122   1.889 -1.4965 -1.2840  0.5640
 5975TIP3   OH217888   6.090   6.625   0.942  0.1787  0.0127  0.6904
 5975TIP3    H117889   6.152   6.675   0.889 -0.5470  1.4435  1.1318
 5975TIP3    H217890   6.141   6.593   1.016  1.0130 -1.2896 -0.4188
 5976TIP3   OH217891   6.847   0.703   3.156 -0.0684  0.2789 -0.6903
 5976TIP3    H117892   6.766   0.752   3.172 -1.1086 -1.2022 -1.1948
 5976TIP3    H217893   6.906   0.729   3.226 -1.5378  0.2212  0.6120
 5977TIP3   OH217894   0.158   4.023   1.464 -0.1438 -0.0750 -0.1927
 5977TIP3    H117895   0.189   4.107   1.428  3.0373 -0.4167  1.4200
 5977TIP3    H217896   0.170   3.961   1.392 -0.7926  0.4917 -0.8127
 5978TIP3   OH217897   1.270   0.538   2.253 -0.3564  0.2002 -0.1100
 5978TIP3    H117898   1.303   0.533   2.343 -0.5862  0.1017 -0.0302
 5978TIP3    H217899   1.178   0.564   2.263 -0.7862 -1.2015 -0.2436
 5979TIP3   OH217900   2.342   3.450   0.350  0.2653 -0.2161 -0.0506
 5979TIP3    H117901   2.334   3.483   0.440 -0.8450  0.9235 -0.5500
 5979TIP3    H217902   2.258   3.469   0.309  0.1271 -2.3055 -0.8449
 5980TIP3   OH217903   6.724   3.015   5.607 -0.2479 -0.8031 -0.4512
 5980TIP3    H117904   6.656   2.989   5.669  0.9412 -0.8488  0.8808
 5980TIP3    H217905   6.782   2.939   5.602  0.5041 -0.2458 -0.4192
 5981TIP3   OH217906   6.418   5.892   0.659 -0.0295  0.3295  0.0060
 5981TIP3    H117907   6.429   5.820   0.721 -0.4703  1.4494  1.4550
 5981TIP3    H217908   6.373   5.960   0.709  0.8312  1.8151 -1.1397
 5982TIP3   OH217909   2.092   6.053   4.826  0.5619 -0.1259  0.7541
 5982TIP3    H117910   2.024   6.084   4.885 -0.7965 -1.2905 -0.1121
 5982TIP3    H217911   2.167   6.033   4.882  0.1263  0.9893  1.7518
 5983TIP3   OH217912   7.240   4.715   1.694 -0.1664 -0.4816 -0.4373
 5983TIP3    H117913   7.166   4.770   1.668 -0.5180 -0.7593 -0.0446
 5983TIP3    H217914   7.221   4.692   1.785  0.6416 -0.1652 -0.1746
 5984TIP3   OH217915   3.340   3.392   4.630  0.0063  0.2733  0.0847
 5984TIP3    H117916   3.321   3.298   4.633  0.2258  0.2448  0.6208
 5984TIP3    H217917   3.425   3.401   4.673  1.0694  0.4546 -1.9192
 5985TIP3   OH217918   1.192   3.717   3.144 -0.2452  0.3790  0.3757
 5985TIP3    H117919   1.164   3.681   3.059  1.0434  1.6367 -0.6304
 5985TIP3    H217920   1.277   3.676   3.160  1.0623  2.5110 -0.5968
 5986TIP3   OH217921   0.049   6.420   1.700 -0.0044 -0.0715 -0.1503
 5986TIP3    H117922   0.022   6.336   1.665  1.0840 -0.4513 -0.1248
 5986TIP3    H217923   0.016   6.484   1.637  0.4657 -0.6290 -0.9891
 5987TIP3   OH217924   2.403   4.042   4.490 -0.0223  0.4261 -0.0921
 5987TIP3    H117925   2.484   4.077   4.452  0.3053 -0.4290 -0.1956
 5987TIP3    H217926   2.407   4.067   4.582 -0.8501  2.5725 -0.5672
 5988TIP3   OH217927   0.171   2.086   0.669  0.0305 -0.2366 -0.2741
 5988TIP3    H117928   0.200   2.048   0.752 -0.5046  1.3016  0.6587
 5988TIP3    H217929   0.117   2.162   0.695  1.4726  1.4789 -2.0003
 5989TIP3   OH217930   4.562   2.873   3.862  0.2647 -0.6972  0.0331
 5989TIP3    H117931   4.654   2.894   3.842 -0.3651 -0.6398 -3.5065
 5989TIP3    H217932   4.539   2.806   3.798 -2.1685 -0.7215  0.8518
 5990TIP3   OH217933   0.859   2.419   5.007 -0.0586 -0.1293 -0.1716
 5990TIP3    H117934   0.866   2.464   4.923 -1.4082 -0.0516 -0.2636
 5990TIP3    H217935   0.766   2.400   5.017 -0.1923  1.3134  2.0711
 5991TIP3   OH217936   0.193   3.396   1.424  0.3680 -0.6601 -0.3720
 5991TIP3    H117937   0.120   3.366   1.478 -0.1891 -0.8910 -1.2380
 5991TIP3    H217938   0.222   3.477   1.465  0.0181 -0.8835  0.3261
 5992TIP3   OH217939   0.224   5.256   1.611 -0.4013 -0.3774 -0.5239
 5992TIP3    H117940   0.274   5.258   1.529  2.4354  1.5310  1.0702
 5992TIP3    H217941   0.162   5.329   1.603  0.7123  0.6019 -0.5655
 5993TIP3   OH217942   5.514   0.077   2.843 -0.0529 -0.4832 -0.1973
 5993TIP3    H117943   5.567   0.097   2.920  0.9883 -1.7032 -0.5566
 5993TIP3    H217944   5.438   0.134   2.851  0.6996  0.4059  1.0031
 5994TIP3   OH217945   4.441   0.752   1.152 -0.1231  0.4196  0.2405
 5994TIP3    H117946   4.480   0.677   1.108 -0.9574  1.0796 -1.7391
 5994TIP3    H217947   4.383   0.714   1.218  0.5673 -0.6231  0.2647
 5995TIP3   OH217948   0.426   0.349   4.055 -0.1123  0.4163  0.3676
 5995TIP3    H117949   0.448   0.442   4.059 -1.4518  0.8052 -0.6995
 5995TIP3    H217950   0.330   0.347   4.053 -0.2376 -1.1289  3.0800
 5996TIP3   OH217951   0.400   5.232   5.428 -0.4208  0.0201 -0.3536
 5996TIP3    H117952   0.421   5.325   5.414 -1.0494  0.1556 -0.4054
 5996TIP3    H217953   0.356   5.231   5.513  0.9170 -0.4332  0.3550
 5997TIP3   OH217954   6.804   4.408   2.126 -0.3909  0.6823 -0.4756
 5997TIP3    H117955   6.793   4.314   2.112 -0.1237  0.4572  0.6801
 5997TIP3    H217956   6.765   4.449   2.049 -0.8849 -0.3590 -0.7941
 5998TIP3   OH217957   3.176   5.573   2.577  0.3139  0.2767 -0.0138
 5998TIP3    H117958   3.211   5.501   2.524 -1.0340 -0.7003  0.3992
 5998TIP3    H217959   3.205   5.554   2.666  0.3553  0.5056  0.0229
 5999TIP3   OH217960   7.057   1.939   1.668  0.1200  0.2437  0.5275
 5999TIP3    H117961   7.139   1.893   1.651 -0.5122 -1.1040  1.0005
 5999TIP3    H217962   7.076   2.030   1.644  1.0780 -0.4173 -1.5056
 6000TIP3   OH217963   1.716   3.973   5.646  0.4265 -0.3272  0.0522
 6000TIP3    H117964   1.665   3.934   5.575  0.1235 -1.3399  0.8057
 6000TIP3    H217965   1.726   4.065   5.621 -0.3609 -0.4922 -0.9061
 6001TIP3   OH217966   5.645   3.541   2.817  0.4748 -0.1066 -0.4118
 6001TIP3    H117967   5.720   3.482   2.826 -0.1917 -1.0755 -1.0957
 6001TIP3    H217968   5.581   3.510   2.881 -1.5388 -2.7966 -3.4280
 6002TIP3   OH217969   7.171   4.766   3.045  0.3552 -0.2931  0.4662
 6002TIP3    H117970   7.192   4.678   3.013  0.5926 -0.2359  0.4586
 6002TIP3    H217971   7.101   4.753   3.108  2.2025 -0.8542  2.5514
 6003TIP3   OH217972   7.212   4.127   3.053  0.1211  0.2112 -0.2891
 6003TIP3    H117973   7.222   4.068   3.127 -2.1975 -1.4311 -1.1571
 6003TIP3    H217974   7.135   4.180   3.075 -0.3045  0.0293 -1.2814
 6004TIP3   OH217975   5.917   1.496   1.803  0.1212  0.9087 -0.1117
 6004TIP3    H117976   5.831   1.514   1.765 -0.4205  0.3967  0.8509
 6004TIP3    H217977   5.967   1.576   1.785 -1.1815  2.0630  1.0687
 6005TIP3   OH217978   4.056   4.042   3.111  0.8220 -0.1350  0.1519
 6005TIP3    H117979   4.134   4.008   3.068  1.4380 -3.0872  3.1379
 6005TIP3    H217980   3.983   3.998   3.067  0.9643  1.0308 -1.2908
 6006TIP3   OH217981   4.776   6.100   0.328  0.2255 -0.4339  0.0101
 6006TIP3    H117982   4.741   6.133   0.410 -1.2441 -1.8099 -0.0211
 6006TIP3    H217983   4.750   6.165   0.262 -3.1751 -1.7706 -0.1606
 6007TIP3   OH217984   7.099   6.084   0.246 -0.0310  0.3761  0.1464
 6007TIP3    H117985   7.053   6.028   0.183  1.7418 -1.6103  0.4856
 6007TIP3    H217986   7.071   6.052   0.331  0.7350  0.1869  0.3393
 6008TIP3   OH217987   3.150   4.161   1.659  0.2986  0.2718  0.2716
 6008TIP3    H117988   3.141   4.131   1.749  1.5534 -0.1924  0.2547
 6008TIP3    H217989   3.166   4.255   1.667  0.4347  0.2271  0.5245
 6009TIP3   OH217990   3.888   2.878   1.804  0.0703  0.2241  0.1955
 6009TIP3    H117991   3.795   2.868   1.827 -0.0417 -0.3214 -0.4553
 6009TIP3    H217992   3.931   2.899   1.886 -0.5879  0.1590  0.5635
 6010TIP3   OH217993   4.206   5.579   1.032  0.5959 -0.7945  0.1712
 6010TIP3    H117994   4.163   5.501   0.997  1.6168 -0.7214 -1.3577
 6010TIP3    H217995   4.212   5.639   0.958  0.7313  0.3575  1.0713
 6011TIP3   OH217996   0.435   6.461   2.607  0.1296  0.1617 -0.0340
 6011TIP3    H117997   0.444   6.521   2.680  0.2366  1.0524 -0.7625
 6011TIP3    H217998   0.460   6.512   2.530  0.8384 -1.0008 -0.6041
 6012TIP3   OH217999   4.438   2.423   0.141 -0.0375 -0.3569  0.2224
 6012TIP3    H118000   4.464   2.474   0.218  2.6116 -1.2699  0.0212
 6012TIP3    H218001   4.421   2.335   0.175 -1.3480 -0.1688  0.0925
 6013TIP3   OH218002   6.472   3.442   3.700  0.0992  0.1328 -0.2875
 6013TIP3    H118003   6.484   3.356   3.739 -0.8209  0.5078  0.8958
 6013TIP3    H218004   6.448   3.424   3.609 -0.6213 -0.8969  0.0812
 6014TIP3   OH218005   3.439   3.249   5.119 -1.4719  0.3196 -0.1369
 6014TIP3    H118006   3.359   3.230   5.168 -2.0035  1.3092 -0.5861
 6014TIP3    H218007   3.474   3.328   5.160 -2.0867  1.3403 -1.4929
 6015TIP3   OH218008   2.187   6.396   0.854  0.4290 -0.7107  0.0539
 6015TIP3    H118009   2.153   6.331   0.793 -0.7998  0.0532 -0.1079
 6015TIP3    H218010   2.130   6.472   0.842  1.4159  0.1592  0.7180
 6016TIP3   OH218011   7.209   5.106   4.353  0.1815 -0.0148 -0.5612
 6016TIP3    H118012   7.271   5.104   4.426  0.2891  0.2751 -0.6462
 6016TIP3    H218013   7.158   5.026   4.364  0.8381 -0.4713 -0.7219
 6017TIP3   OH218014   3.839   6.097   2.995  0.4227  0.0891  0.2232
 6017TIP3    H118015   3.856   6.004   2.981  1.0159  0.3189 -0.7488
 6017TIP3    H218016   3.767   6.118   2.935  0.5364  0.3195  0.1612
 6018TIP3   OH218017   6.186   0.402   0.871  0.5405 -0.4826 -0.3086
 6018TIP3    H118018   6.247   0.461   0.826  0.9661 -1.0797 -0.5300
 6018TIP3    H218019   6.185   0.433   0.961 -2.1896  2.2927 -1.1193
 6019TIP3   OH218020   1.261   3.310   1.260  0.1485  0.0473  0.5603
 6019TIP3    H118021   1.315   3.240   1.222 -0.2673  0.2730 -0.4898
 6019TIP3    H218022   1.214   3.347   1.185  0.1968  1.3103  1.1296
 6020TIP3   OH218023   5.568   2.307   4.569 -0.1062  0.5804  0.1005
 6020TIP3    H118024   5.622   2.237   4.606 -0.9763 -0.8095 -1.1578
 6020TIP3    H218025   5.528   2.349   4.645  2.8283  1.8112  1.1230
 6021TIP3   OH218026   1.189   1.611   3.805 -0.0705  0.3483  0.0403
 6021TIP3    H118027   1.214   1.696   3.840 -0.5107  1.2541 -1.7883
 6021TIP3    H218028   1.113   1.585   3.858  0.8607  0.4576  1.4729
 6022TIP3   OH218029   1.130   1.978   1.696  0.4627  0.2536 -0.3382
 6022TIP3    H118030   1.127   1.970   1.601  0.5918 -2.7717 -0.1928
 6022TIP3    H218031   1.205   1.925   1.722 -1.4776 -1.8287  1.5735
 6023TIP3   OH218032   1.014   3.874   3.267  0.4336  0.2155  0.9178
 6023TIP3    H118033   1.068   3.809   3.222 -1.4393 -0.7442 -0.0420
 6023TIP3    H218034   0.978   3.828   3.343  0.9246  0.8429  1.5450
 6024TIP3   OH218035   7.103   2.226   0.519 -0.3369  1.0843  0.0416
 6024TIP3    H118036   7.184   2.271   0.545 -0.0221 -0.4367  1.9412
 6024TIP3    H218037   7.034   2.270   0.569 -0.3229  0.8382  0.2828
 6025TIP3   OH218038   4.157   1.507   4.659  0.1749 -0.0352 -0.1467
 6025TIP3    H118039   4.226   1.544   4.713  0.1794  0.0577 -0.2166
 6025TIP3    H218040   4.129   1.428   4.706  1.0291 -0.6410 -0.6392
 6026TIP3   OH218041   0.507   6.765   5.046  0.8219 -0.2217  0.0659
 6026TIP3    H118042   0.540   6.676   5.054  0.2867 -0.8055 -3.0071
 6026TIP3    H218043   0.482   6.773   4.954 -1.3125  2.3582  0.7441
 6027TIP3   OH218044   0.423   5.826   0.390 -0.1123  0.1672  0.2259
 6027TIP3    H118045   0.516   5.839   0.412  0.1352 -2.5430  1.1726
 6027TIP3    H218046   0.424   5.803   0.297  0.1648  0.1476  0.2322
 6028TIP3   OH218047   3.436   4.483   5.138 -0.6014  0.3337 -0.4878
 6028TIP3    H118048   3.480   4.568   5.142  0.8779 -0.4433  1.0906
 6028TIP3    H218049   3.504   4.419   5.159 -2.1119 -1.0814  0.3910
 6029TIP3   OH218050   3.717   3.167   5.510 -0.1401 -0.0059 -0.1450
 6029TIP3    H118051   3.806   3.186   5.540  0.5481 -1.3073 -1.2616
 6029TIP3    H218052   3.728   3.123   5.426 -1.7918 -1.2305  0.2167
 6030TIP3   OH218053   5.705   0.395   3.185 -0.3965  0.1646  0.3376
 6030TIP3    H118054   5.652   0.404   3.264 -0.0824 -1.2670  0.7347
 6030TIP3    H218055   5.649   0.426   3.115 -1.1899  0.1305  0.9442
 6031TIP3   OH218056   4.907   1.850   0.933 -1.1904  0.3732 -0.5849
 6031TIP3    H118057   4.899   1.926   0.992 -1.9465 -0.5280  0.5236
 6031TIP3    H218058   4.975   1.796   0.973  0.2852  1.0222 -2.0711
 6032TIP3   OH218059   5.671   0.656   4.606 -0.4771  0.2512 -0.2053
 6032TIP3    H118060   5.673   0.580   4.547  1.2743 -0.2613  0.4433
 6032TIP3    H218061   5.706   0.728   4.554 -2.4263  0.7245 -0.9172
 6033TIP3   OH218062   1.646   4.384   2.272 -0.1927 -0.7894 -0.1370
 6033TIP3    H118063   1.563   4.415   2.309  0.3441 -2.5687  2.9164
 6033TIP3    H218064   1.711   4.446   2.304 -0.0154 -0.9880 -0.1116
 6034TIP3   OH218065   0.491   1.118   3.589  0.1972 -0.1756  0.6752
 6034TIP3    H118066   0.405   1.075   3.581  0.3137 -0.5775  1.4793
 6034TIP3    H218067   0.470   1.211   3.585  0.0616 -0.2308 -2.2879
 6035TIP3   OH218068   5.629   5.334   0.131  0.3236 -0.0003 -0.0144
 6035TIP3    H118069   5.567   5.401   0.159  0.2528 -0.4093  0.8273
 6035TIP3    H218070   5.715   5.368   0.157  0.0928 -1.4404  3.0245
 6036TIP3   OH218071   3.979   2.618   3.318 -0.2576 -0.2397 -0.1393
 6036TIP3    H118072   4.033   2.557   3.267  1.8293  1.4917 -0.1756
 6036TIP3    H218073   3.979   2.699   3.267 -3.5940 -0.3207 -0.4805
 6037TIP3   OH218074  -0.009   1.476   5.331 -0.3497  0.0146  0.1563
 6037TIP3    H118075   0.056   1.411   5.303  0.8560  0.5995  1.4762
 6037TIP3    H218076   0.015   1.556   5.283  1.2328  0.7966  2.0839
 6038TIP3   OH218077   4.097  -0.006   3.756 -0.1715 -0.5506  0.1932
 6038TIP3    H118078   4.085   0.031   3.669 -0.9997  2.3250  1.4090
 6038TIP3    H218079   4.191  -0.001   3.772 -0.1949  0.5885  0.0851
 6039TIP3   OH218080   0.727   6.678   3.850 -0.0593  0.3428  0.3184
 6039TIP3    H118081   0.727   6.615   3.922 -0.1840  0.2058  0.1988
 6039TIP3    H218082   0.777   6.635   3.781  2.5437  1.5866  1.2742
 6040TIP3   OH218083   3.447   3.608   0.633  0.5332 -0.0977  0.2206
 6040TIP3    H118084   3.431   3.520   0.599 -0.1508 -0.4110  1.2930
 6040TIP3    H218085   3.402   3.667   0.573  3.3824 -0.1556 -2.2225
 6041TIP3   OH218086   4.874   0.248   5.620 -0.1232 -0.7947 -0.3299
 6041TIP3    H118087   4.813   0.198   5.565  0.9206 -1.8983 -0.5257
 6041TIP3    H218088   4.851   0.339   5.604 -2.1124 -1.1695  0.0536
 6042TIP3   OH218089   7.012   1.804   5.615 -0.1219 -0.1440 -0.0319
 6042TIP3    H118090   7.074   1.867   5.651 -2.1840  0.1781  3.3741
 6042TIP3    H218091   7.036   1.721   5.657 -1.2224 -0.2501  0.4173
 6043TIP3   OH218092   7.157   1.413   1.626  0.1915 -0.1748  0.0781
 6043TIP3    H118093   7.072   1.400   1.667  0.3411 -0.7389  0.2271
 6043TIP3    H218094   7.189   1.324   1.611 -0.0651  0.0100 -1.7036
 6044TIP3   OH218095   2.128   3.528   0.213 -0.1828 -0.3988 -0.1025
 6044TIP3    H118096   2.172   3.566   0.137  1.0069 -0.0608  0.7255
 6044TIP3    H218097   2.042   3.570   0.214  0.9226  2.0176  0.5367
 6045TIP3   OH218098   6.099   2.278   0.869  0.1721  0.1333 -0.7177
 6045TIP3    H118099   6.039   2.318   0.933  0.4470  1.0204 -0.9896
 6045TIP3    H218100   6.060   2.193   0.849 -0.3142  0.1624  0.0638
 6046TIP3   OH218101   2.490   2.857   1.883 -0.2196 -0.4089  0.3027
 6046TIP3    H118102   2.434   2.929   1.912 -0.3562 -0.5170  0.3078
 6046TIP3    H218103   2.435   2.779   1.891 -0.2300 -0.4547 -0.1561
 6047TIP3   OH218104   1.941   6.491   0.328 -0.0741  0.4225 -0.0772
 6047TIP3    H118105   1.954   6.545   0.405  2.0363  0.6810 -0.5487
 6047TIP3    H218106   1.888   6.545   0.269  1.2628  1.6717 -0.1931
 6048TIP3   OH218107   3.341   1.869   4.013  0.0236 -0.1500 -0.4722
 6048TIP3    H118108   3.408   1.858   3.946 -1.1527 -1.3189 -1.5421
 6048TIP3    H218109   3.330   1.781   4.050  0.0332  0.3045  0.6350
 6049TIP3   OH218110   5.206   0.513   2.765 -0.0142 -0.1384  0.1558
 6049TIP3    H118111   5.169   0.549   2.846  0.3558  0.1248  0.2141
 6049TIP3    H218112   5.279   0.572   2.744 -1.9392  1.6575 -2.0491
 6050TIP3   OH218113   1.908   2.192   3.223  0.1475  0.1421 -0.3049
 6050TIP3    H118114   1.968   2.259   3.254 -0.6389  0.5676  0.3500
 6050TIP3    H218115   1.861   2.232   3.150  0.4884 -0.1105 -0.6690
 6051TIP3   OH218116   1.466   4.595   0.068  0.3591  0.3229  0.4378
 6051TIP3    H118117   1.460   4.513   0.117  0.0153  1.1397  1.8014
 6051TIP3    H218118   1.444   4.663   0.131  0.2697  1.4531 -0.7632
 6052TIP3   OH218119   7.174   5.781   4.832  0.3535  0.0806 -0.0983
 6052TIP3    H118120   7.248   5.740   4.787 -0.0750  0.2510 -0.9774
 6052TIP3    H218121   7.101   5.721   4.819  0.7611 -1.1642  2.5692
 6053TIP3   OH218122   0.384   3.400   3.677 -0.0172  0.0694 -0.1481
 6053TIP3    H118123   0.410   3.448   3.598 -1.8631  1.0819 -0.1934
 6053TIP3    H218124   0.417   3.454   3.749 -0.9552  0.7398 -0.2124
 6054TIP3   OH218125   4.114   0.463   1.095 -0.1963  0.0369  0.4241
 6054TIP3    H118126   4.127   0.372   1.120  2.6903  0.5784  1.3056
 6054TIP3    H218127   4.147   0.468   1.005 -0.0780  0.2601  0.4784
 6055TIP3   OH218128   6.937   1.651   0.303  0.5392 -0.5973  0.0005
 6055TIP3    H118129   6.904   1.576   0.352  0.4371  0.5518  1.7952
 6055TIP3    H218130   6.880   1.657   0.227  0.6763 -2.4286 -0.2957
 6056TIP3   OH218131   6.458   3.306   1.884  0.5369 -0.3644 -0.4312
 6056TIP3    H118132   6.509   3.250   1.943 -1.7503 -1.2127  0.8878
 6056TIP3    H218133   6.491   3.394   1.901  3.6449 -1.0818 -1.9387
 6057TIP3   OH218134   0.992   3.073   2.169 -0.0089  0.4941 -0.0915
 6057TIP3    H118135   0.915   3.018   2.152  0.3672  0.2838 -1.1493
 6057TIP3    H218136   1.005   3.066   2.264  0.8974 -2.4629 -0.3156
 6058TIP3   OH218137   3.821   4.315   2.481 -0.3601  0.5315  0.2464
 6058TIP3    H118138   3.756   4.340   2.415  0.1648  2.0670  0.2780
 6058TIP3    H218139   3.852   4.398   2.518 -0.8736 -0.2589  2.6798
 6059TIP3   OH218140   4.906   3.069   1.184  0.3369 -0.0985  0.2881
 6059TIP3    H118141   4.856   2.987   1.185 -0.3362  0.2790 -0.9100
 6059TIP3    H218142   4.973   3.056   1.118 -1.5208  1.2531 -2.0411
 6060TIP3   OH218143   6.718   2.421   5.056 -0.2001  0.0270  0.6426
 6060TIP3    H118144   6.643   2.461   5.099 -0.6559 -1.2748  1.1263
 6060TIP3    H218145   6.704   2.438   4.963 -1.2947 -0.4950  0.6942
 6061TIP3   OH218146   1.138   2.032   4.877  0.2015  0.0747  0.0961
 6061TIP3    H118147   1.180   2.101   4.826  0.2388 -0.3897 -0.5089
 6061TIP3    H218148   1.201   2.009   4.944  0.5472  0.0192 -0.2450
 6062TIP3   OH218149   4.530   0.941   0.296 -0.2745 -0.0109 -0.3560
 6062TIP3    H118150   4.451   0.977   0.336 -0.1894 -0.6655  0.4157
 6062TIP3    H218151   4.578   0.901   0.369  0.3212 -0.4319 -0.9663
 6063TIP3   OH218152   3.045   4.069   3.792 -0.2203  0.7772  0.0217
 6063TIP3    H118153   3.030   4.029   3.707  0.7729 -1.3879  0.7788
 6063TIP3    H218154   3.131   4.111   3.784  0.2828 -0.1922  0.1828
 6064TIP3   OH218155   3.121   4.028   0.194 -0.1410  0.0168  0.0114
 6064TIP3    H118156   3.207   3.994   0.172 -0.3593  0.0195 -0.8679
 6064TIP3    H218157   3.082   3.961   0.250  0.2373 -0.2108  0.0043
 6065TIP3   OH218158   6.378   1.968   1.536 -0.6294 -0.3596  0.1266
 6065TIP3    H118159   6.385   1.891   1.480  1.0267  0.4035 -0.7886
 6065TIP3    H218160   6.287   1.996   1.528 -1.1348 -1.9286  0.1105
 6066TIP3   OH218161   4.103   1.988   0.107  0.4046  0.3018 -0.3665
 6066TIP3    H118162   4.026   2.028   0.147  1.1565  1.0535  0.3723
 6066TIP3    H218163   4.078   1.972   0.016 -2.0145 -3.1710  0.7033
 6067TIP3   OH218164   5.632   3.984   3.677 -0.1959  0.2463 -0.2971
 6067TIP3    H118165   5.575   3.907   3.684 -1.5091  1.1701 -0.5148
 6067TIP3    H218166   5.681   3.971   3.595 -0.1574 -0.5002 -0.1636
 6068TIP3   OH218167   0.050   5.580   4.031 -0.2795  0.2339  0.8472
 6068TIP3    H118168   0.101   5.578   3.950 -2.1049 -0.8564 -0.3593
 6068TIP3    H218169   0.056   5.491   4.066 -0.0641  0.5180  1.5583
 6069TIP3   OH218170   5.422   2.070   0.362 -0.2700  0.2085  0.1819
 6069TIP3    H118171   5.468   2.045   0.282  0.3413  0.1637  0.5400
 6069TIP3    H218172   5.491   2.097   0.422 -0.8536  2.4632 -0.0639
 6070TIP3   OH218173   0.073   0.518   4.081  1.0257  0.5738 -0.1536
 6070TIP3    H118174   0.027   0.547   4.160 -1.6496 -0.8401 -1.0765
 6070TIP3    H218175   0.078   0.423   4.091 -1.7660  0.0068 -2.7281
 6071TIP3   OH218176   0.189   2.335   0.210  0.4304  0.3393 -0.4335
 6071TIP3    H118177   0.212   2.245   0.233 -0.1086  0.1493 -0.6115
 6071TIP3    H218178   0.191   2.336   0.114  0.3614  0.4992 -0.4329
 6072TIP3   OH218179   5.594   4.976   3.929 -0.0403  0.3327 -0.3830
 6072TIP3    H118180   5.547   4.909   3.880  1.9456 -1.0549 -0.5018
 6072TIP3    H218181   5.686   4.951   3.922  0.4648  0.8689  2.8949
 6073TIP3   OH218182   1.222   4.779   3.221 -0.0922  0.6883 -0.3058
 6073TIP3    H118183   1.247   4.856   3.271  0.1521  0.3547  0.0926
 6073TIP3    H218184   1.298   4.721   3.226 -0.8500 -0.2495  0.7397
 6074TIP3   OH218185   3.498   0.991   1.573 -0.2325 -0.1127 -0.1664
 6074TIP3    H118186   3.534   0.983   1.485  0.3956 -1.7398  0.1948
 6074TIP3    H218187   3.537   0.918   1.621 -2.4609 -0.7715  0.7820
 6075TIP3   OH218188   6.021   0.080   5.177  0.0542  0.1005 -0.7646
 6075TIP3    H118189   5.966   0.049   5.106 -0.7439 -0.2639 -0.0114
 6075TIP3    H218190   5.959   0.115   5.242  0.8060  1.2815 -0.6441
 6076TIP3   OH218191   2.741   3.168   0.207  0.0336  0.9809  0.5672
 6076TIP3    H118192   2.688   3.219   0.268 -0.6248  2.0526 -0.8441
 6076TIP3    H218193   2.682   3.147   0.135  1.2386  1.3789 -0.6005
 6077TIP3   OH218194   3.383   6.288   3.422 -0.2181 -0.3015 -0.2854
 6077TIP3    H118195   3.385   6.334   3.506  0.9260  0.0541 -0.4793
 6077TIP3    H218196   3.442   6.338   3.366  0.3897 -1.5120 -0.7735
 6078TIP3   OH218197   3.526   4.585   0.181 -0.1306 -0.1060  0.0044
 6078TIP3    H118198   3.563   4.625   0.102 -0.4318  0.9984  0.3978
 6078TIP3    H218199   3.439   4.625   0.189  0.3321  0.6944  1.5170
 6079TIP3   OH218200   5.749   4.501   1.180 -0.1800  0.2426 -0.4097
 6079TIP3    H118201   5.775   4.440   1.249  0.0245 -0.2619 -0.9199
 6079TIP3    H218202   5.823   4.500   1.119 -0.6298  0.1882 -0.9580
 6080TIP3   OH218203   5.524   0.555   4.218 -0.4853  0.8508  0.1333
 6080TIP3    H118204   5.551   0.512   4.299 -1.1903  0.1333 -0.0087
 6080TIP3    H218205   5.442   0.599   4.240 -0.5288  0.8988 -0.1179
 6081TIP3   OH218206   2.385   6.543   2.425 -0.0999  0.1331 -0.8754
 6081TIP3    H118207   2.413   6.585   2.507  1.0337  1.0425 -1.7084
 6081TIP3    H218208   2.408   6.605   2.357 -0.1370 -1.0351 -1.9898
 6082TIP3   OH218209   0.936   5.645   4.607 -0.0581  0.6280  0.0937
 6082TIP3    H118210   0.846   5.677   4.612 -0.3766 -0.1985 -0.1500
 6082TIP3    H218211   0.979   5.703   4.544 -0.2825  1.3250  0.5698
 6083TIP3   OH218212   3.915   3.260   4.794  0.0203 -0.2664  0.4492
 6083TIP3    H118213   3.868   3.180   4.773  1.1069 -0.7372 -0.2724
 6083TIP3    H218214   3.976   3.273   4.721 -1.7155  2.5149 -0.6796
 6084TIP3   OH218215   4.439   0.217   2.127 -0.0715  0.7019  0.5188
 6084TIP3    H118216   4.515   0.161   2.139  1.7238  2.7519 -0.7080
 6084TIP3    H218217   4.428   0.224   2.032 -1.3740  1.0017  0.6691
 6085TIP3   OH218218   5.002   4.269   4.976  0.0132  0.0470 -0.4185
 6085TIP3    H118219   5.020   4.196   4.918 -1.4578 -1.2445  0.6550
 6085TIP3    H218220   4.906   4.270   4.984  0.1444  0.4997  1.5557
 6086TIP3   OH218221   7.121   6.408   3.288 -0.1444 -0.7719 -0.2655
 6086TIP3    H118222   7.091   6.373   3.204  3.8124 -2.9882 -1.0332
 6086TIP3    H218223   7.120   6.332   3.347 -2.4179  0.6440  1.6923
 6087TIP3   OH218224   0.564   5.708   2.503  0.4077  0.1646  0.1134
 6087TIP3    H118225   0.519   5.790   2.528 -1.4666 -0.5874 -0.5842
 6087TIP3    H218226   0.525   5.642   2.561 -0.3112 -0.7181 -1.3165
 6088TIP3   OH218227   2.562   2.366   2.643  0.3197 -0.2782  0.3648
 6088TIP3    H118228   2.650   2.389   2.671  0.7932 -1.7589  0.1977
 6088TIP3    H218229   2.565   2.370   2.547 -0.7677  2.9152  0.3509
 6089TIP3   OH218230   6.311   3.323   5.334 -0.0676 -0.5367 -0.0501
 6089TIP3    H118231   6.286   3.397   5.279  1.7564  1.0231  1.0946
 6089TIP3    H218232   6.324   3.250   5.273 -0.2731  0.5391 -1.4110
 6090TIP3   OH218233   3.059   5.018   0.999  0.5996  0.0115 -0.7242
 6090TIP3    H118234   3.092   5.031   0.910  1.3849 -1.9267 -0.7530
 6090TIP3    H218235   3.100   4.937   1.029 -0.3985  0.1103  1.0610
 6091TIP3   OH218236   6.793   6.137   3.411 -0.4020  0.4468  0.1769
 6091TIP3    H118237   6.738   6.182   3.476 -1.2695  0.5967 -0.6473
 6091TIP3    H218238   6.747   6.149   3.328 -0.2513 -1.2906 -0.1921
 6092TIP3   OH218239   4.926   4.605   5.631 -0.0359  0.3466  0.6554
 6092TIP3    H118240   4.949   4.677   5.573 -1.0163  0.5351  0.4773
 6092TIP3    H218241   4.983   4.616   5.707  2.1306 -0.5957 -0.7237
 6093TIP3   OH218242   5.356   5.913   1.853 -0.2330  0.0300 -0.0028
 6093TIP3    H118243   5.262   5.925   1.841 -0.3478 -2.3046 -2.4009
 6093TIP3    H218244   5.364   5.861   1.933 -1.2837 -2.1033 -1.1966
 6094TIP3   OH218245   0.162   3.833   5.548 -0.6940  0.1307 -0.2649
 6094TIP3    H118246   0.193   3.920   5.574 -0.1298  1.1670 -3.8039
 6094TIP3    H218247   0.228   3.773   5.581  0.4373  1.3825 -0.1591
 6095TIP3   OH218248   5.359   5.970   3.137 -0.1316  0.2636  0.6104
 6095TIP3    H118249   5.275   5.928   3.120 -0.4280  0.1703  2.0973
 6095TIP3    H218250   5.424   5.911   3.100 -0.6792 -0.1833  0.3470
 6096TIP3   OH218251   6.044   3.212   0.335  0.5679 -0.8249  0.6881
 6096TIP3    H118252   5.994   3.281   0.379  0.1748 -1.3334  1.0568
 6096TIP3    H218253   5.992   3.133   0.349  0.8568 -1.1385  0.0020
 6097TIP3   OH218254   4.238   2.198   3.945  0.1272  0.0411  0.4815
 6097TIP3    H118255   4.233   2.143   4.023 -0.8030 -1.1784 -0.4107
 6097TIP3    H218256   4.318   2.170   3.901 -0.0232 -0.1621  0.3391
 6098TIP3   OH218257   3.606   5.659   0.897  0.4251  0.0820  0.6031
 6098TIP3    H118258   3.692   5.623   0.918  0.2103 -1.3440 -0.8132
 6098TIP3    H218259   3.625   5.741   0.851  1.0509 -0.4337 -0.0701
 6099TIP3   OH218260   6.405   5.412   3.527 -0.5632  0.2900  0.0019
 6099TIP3    H118261   6.390   5.320   3.547  3.0901 -0.7306 -1.1789
 6099TIP3    H218262   6.452   5.446   3.603 -0.6013  0.7959 -0.1940
 6100TIP3   OH218263   0.918   3.530   5.638  0.0960 -0.1403 -0.1775
 6100TIP3    H118264   0.945   3.486   5.718  0.4538 -0.7854 -0.6443
 6100TIP3    H218265   0.839   3.484   5.611  0.0671 -0.0292 -0.2865
 6101TIP3   OH218266   1.707   5.391   0.745 -0.6906  0.2084 -0.1146
 6101TIP3    H118267   1.693   5.344   0.663 -0.4069 -0.7919  0.3878
 6101TIP3    H218268   1.790   5.438   0.732 -0.2129 -0.6110 -0.1213
 6102TIP3   OH218269   4.325   4.373   4.765 -0.9485  0.0123 -0.1944
 6102TIP3    H118270   4.320   4.389   4.859 -0.1387 -2.0017  0.2595
 6102TIP3    H218271   4.413   4.338   4.752 -0.6947  1.1910 -1.8878
 6103TIP3   OH218272   3.963   0.343   4.392 -0.7594  0.6405 -0.1896
 6103TIP3    H118273   3.881   0.367   4.349 -0.6269  3.1661  0.7967
 6103TIP3    H218274   4.027   0.338   4.320 -1.3328  0.8183 -0.7179
 6104TIP3   OH218275   0.447   0.159   4.392 -0.2578  0.3344  0.1434
 6104TIP3    H118276   0.507   0.090   4.421  0.7954  1.0356 -0.2977
 6104TIP3    H218277   0.503   0.236   4.381 -1.2279  0.9777 -0.4182
 6105TIP3   OH218278   4.355   1.119   1.621  0.2039 -0.4114 -1.0825
 6105TIP3    H118279   4.354   1.100   1.715  1.7477  0.8287 -0.7701
 6105TIP3    H218280   4.308   1.046   1.581 -0.0508 -1.2196  0.6014
 6106TIP3   OH218281   1.328   2.460   1.256 -0.1779 -0.0040  0.3058
 6106TIP3    H118282   1.243   2.420   1.269 -0.6435  1.4772  2.1170
 6106TIP3    H218283   1.323   2.498   1.168 -0.7023 -1.4789 -0.3242
 6107TIP3   OH218284   0.269   3.227   0.127 -0.3663  0.0150  0.0658
 6107TIP3    H118285   0.227   3.152   0.170 -1.5676 -0.5772 -2.0238
 6107TIP3    H218286   0.205   3.298   0.135 -0.6633 -0.1403 -0.8258
 6108TIP3   OH218287   2.619   6.658   3.881  0.4411  0.8809 -0.3439
 6108TIP3    H118288   2.679   6.583   3.888 -0.5203  0.1279  0.0627
 6108TIP3    H218289   2.663   6.729   3.928  0.6276  0.0871  0.6984
 6109TIP3   OH218290   0.163   2.909   5.506 -0.1259  0.0100  0.2065
 6109TIP3    H118291   0.105   2.983   5.489  0.3014 -0.0087 -1.5070
 6109TIP3    H218292   0.171   2.907   5.601 -0.6911  1.7312  0.3333
 6110TIP3   OH218293   4.099   1.993   3.492 -0.1303 -1.2420 -0.3803
 6110TIP3    H118294   4.146   2.041   3.560 -0.0849 -2.9797  0.8848
 6110TIP3    H218295   4.018   2.042   3.480 -0.4112 -1.2247  1.3748
 6111TIP3   OH218296   4.595   2.481   0.373 -0.1539 -0.2314  0.2360
 6111TIP3    H118297   4.580   2.576   0.375 -0.6040 -0.2288 -1.3863
 6111TIP3    H218298   4.558   2.449   0.455  2.2747  1.2570  2.0172
 6112TIP3   OH218299   4.967   4.395   1.134  0.0293  0.2893  0.9171
 6112TIP3    H118300   5.004   4.456   1.070 -1.0495 -0.3863 -0.3942
 6112TIP3    H218301   4.928   4.452   1.201 -0.3892  1.0394  0.0608
 6113TIP3   OH218302   7.019   1.053   0.833 -0.4900 -0.0057  0.4500
 6113TIP3    H118303   6.998   1.118   0.900 -2.2953  2.0456 -1.9005
 6113TIP3    H218304   7.093   1.092   0.785 -0.2379 -0.7023  0.2571
 6114TIP3   OH218305   0.864   5.862   1.936 -0.0886 -0.5115  0.0643
 6114TIP3    H118306   0.822   5.794   1.989  0.5044 -0.8936  0.0458
 6114TIP3    H218307   0.879   5.934   1.997  1.2010 -1.2041  0.5854
 6115TIP3   OH218308   3.277   4.496   3.655 -0.0600  0.1681  0.1719
 6115TIP3    H118309   3.186   4.527   3.653  0.4219  1.6560  0.4479
 6115TIP3    H218310   3.295   4.470   3.564 -1.1966 -1.5715  0.3848
 6116TIP3   OH218311   0.167   2.237   1.143  0.3919  0.1044 -0.3974
 6116TIP3    H118312   0.108   2.186   1.198  1.1855 -1.5374 -0.9909
 6116TIP3    H218313   0.174   2.321   1.187 -1.8960  0.1477 -0.0065
 6117TIP3   OH218314   6.601   0.196   3.124  0.4182 -0.7183  0.1169
 6117TIP3    H118315   6.612   0.135   3.196  0.1838 -0.9874 -0.0740
 6117TIP3    H218316   6.541   0.263   3.158  0.5081 -0.7087  0.2552
 6118TIP3   OH218317   6.782   5.504   4.467 -0.0275 -0.4423 -0.7430
 6118TIP3    H118318   6.712   5.548   4.419  1.3691 -0.5146 -3.0066
 6118TIP3    H218319   6.823   5.574   4.518  0.3376  0.3327 -2.0367
 6119TIP3   OH218320   1.600   3.945   0.402  0.3442 -0.3112  0.7002
 6119TIP3    H118321   1.532   3.971   0.465 -0.6460 -2.2152  0.4815
 6119TIP3    H218322   1.609   4.021   0.345 -1.0332  0.2881  1.2208
 6120TIP3   OH218323   5.137   2.440   4.443 -0.4986 -0.6046 -0.6041
 6120TIP3    H118324   5.056   2.449   4.393  0.5435  1.3710 -2.0654
 6120TIP3    H218325   5.181   2.524   4.433  0.6242 -0.7630  2.2261
 6121TIP3   OH218326   5.821   6.767   0.473  0.4193 -0.5323  0.2424
 6121TIP3    H118327   5.886   6.743   0.539 -0.0342  0.5851  1.1147
 6121TIP3    H218328   5.842   6.858   0.450  0.0675 -0.6438 -0.5635
 6122TIP3   OH218329   6.755   5.783   4.935 -0.5494 -0.5232 -0.8752
 6122TIP3    H118330   6.818   5.742   4.994 -0.5114  0.5980 -0.1092
 6122TIP3    H218331   6.802   5.858   4.898 -1.4906  0.4737 -0.1148
 6123TIP3   OH218332   1.291   1.855   4.368  0.4906  0.0984 -0.0161
 6123TIP3    H118333   1.374   1.837   4.412  1.0026  0.6786 -0.7198
 6123TIP3    H218334   1.314   1.915   4.297 -0.5197  0.2010 -0.2730
 6124TIP3   OH218335   6.109   0.548   5.498 -0.0115 -0.0874 -0.6102
 6124TIP3    H118336   6.147   0.530   5.584 -1.3678  0.3315  0.1090
 6124TIP3    H218337   6.154   0.626   5.467 -0.0307  0.1907  0.0576
 6125TIP3   OH218338   1.204   2.375   3.380  0.0213 -0.1037 -0.2741
 6125TIP3    H118339   1.130   2.326   3.344  0.2967 -0.6622 -0.0877
 6125TIP3    H218340   1.247   2.314   3.439 -0.0940  0.6251  0.5844
 6126TIP3   OH218341   1.504   0.610   0.867 -0.4339  0.0138  0.4087
 6126TIP3    H118342   1.587   0.626   0.824 -0.8888 -0.6390 -0.7339
 6126TIP3    H218343   1.444   0.674   0.829 -0.7723 -0.3927  0.2451
 6127TIP3   OH218344   5.949   2.098   5.013  0.6218 -0.2258  0.5085
 6127TIP3    H118345   5.989   2.089   5.100 -2.3751  0.3634  2.1013
 6127TIP3    H218346   5.960   2.191   4.991 -0.1788  0.0259  1.1315
 6128TIP3   OH218347   2.232   0.213   1.514  0.3507  0.1311 -0.2312
 6128TIP3    H118348   2.154   0.168   1.483 -1.2068  2.4551  0.0593
 6128TIP3    H218349   2.252   0.278   1.447  0.9137  0.7911  0.5395
 6129TIP3   OH218350   5.484   6.222   5.289 -0.8516 -0.1221  0.2936
 6129TIP3    H118351   5.476   6.149   5.351  0.0130  0.1852  0.7976
 6129TIP3    H218352   5.432   6.292   5.328  1.1483  0.7018  1.7209
 6130TIP3   OH218353   4.478   2.386   4.494 -0.0110  0.8609 -0.2880
 6130TIP3    H118354   4.489   2.374   4.588 -0.8463  2.0339 -0.0259
 6130TIP3    H218355   4.497   2.479   4.479 -1.6640  1.1261 -0.9827
 6131TIP3   OH218356   5.658   2.108   5.706 -0.3009  0.1458  0.6014
 6131TIP3    H118357   5.645   2.193   5.665  0.6083  0.1406  0.2713
 6131TIP3    H218358   5.713   2.126   5.782  1.4853 -0.3403 -0.5009
 6132TIP3   OH218359   4.482   5.556   4.619 -0.7376  0.3007  0.2665
 6132TIP3    H118360   4.474   5.478   4.565 -3.6524  1.0656 -0.5932
 6132TIP3    H218361   4.476   5.524   4.709 -1.3979 -0.5333 -0.0580
 6133TIP3   OH218362   6.387   4.834   0.206  0.2644  0.0107 -0.1416
 6133TIP3    H118363   6.477   4.812   0.226  1.4658  1.2704 -3.4904
 6133TIP3    H218364   6.393   4.902   0.139 -3.1925  0.8118  0.1649
 6134TIP3   OH218365   3.273   0.779   3.527  0.3345 -0.0642  0.2848
 6134TIP3    H118366   3.317   0.724   3.462  2.6093  1.5234  0.3475
 6134TIP3    H218367   3.338   0.791   3.596 -1.3504 -0.1314  1.9881
 6135TIP3   OH218368   4.263   0.490   2.031  0.4048  0.0427  0.2978
 6135TIP3    H118369   4.211   0.501   2.111 -0.2016  1.0557 -0.2121
 6135TIP3    H218370   4.210   0.432   1.976 -0.4153  1.3572 -0.3669
 6136TIP3   OH218371   0.567   1.576   3.289  0.1503  0.7773  0.1618
 6136TIP3    H118372   0.521   1.539   3.214 -0.6815  0.4572  0.8148
 6136TIP3    H218373   0.660   1.572   3.265 -0.1690  2.4931 -1.6645
 6137TIP3   OH218374   7.070   2.206   2.004  0.6857  0.3550 -0.1146
 6137TIP3    H118375   7.120   2.124   2.001 -0.2513 -0.2240 -0.3145
 6137TIP3    H218376   7.007   2.199   1.933 -2.8290 -1.0666  2.8137
 6138TIP3   OH218377   0.188   1.219   4.619  0.3369 -0.2565  0.3393
 6138TIP3    H118378   0.104   1.187   4.585  0.3145 -0.0140  0.1630
 6138TIP3    H218379   0.223   1.272   4.548 -0.1669  1.0671  1.0531
 6139TIP3   OH218380   2.436   4.103   2.856 -0.7887  0.4325  0.2037
 6139TIP3    H118381   2.421   4.019   2.812 -1.9064  0.4823  0.4678
 6139TIP3    H218382   2.527   4.124   2.835 -0.7975 -0.3401 -0.7189
 6140TIP3   OH218383   3.593   6.036   5.403  0.6850 -0.2088 -0.0585
 6140TIP3    H118384   3.597   5.941   5.395  0.8793 -0.1921 -0.1759
 6140TIP3    H218385   3.500   6.057   5.396  0.6684 -0.3652 -0.3047
 6141TIP3   OH218386   2.252   6.713   1.098 -0.6927  0.1757 -0.7461
 6141TIP3    H118387   2.303   6.713   1.179 -1.3339  0.4287 -0.3278
 6141TIP3    H218388   2.265   6.625   1.061 -1.4719 -0.4194  0.3369
 6142TIP3   OH218389   3.319   1.967   3.648  0.4212 -0.2630  0.0060
 6142TIP3    H118390   3.364   1.926   3.722 -0.7082 -0.7739  0.4331
 6142TIP3    H218391   3.319   2.060   3.668  0.9787 -0.2924  0.1585
 6143TIP3   OH218392   4.556   2.543   2.850  0.3883  0.0738  0.4358
 6143TIP3    H118393   4.640   2.519   2.809 -1.2031 -0.2001 -3.0242
 6143TIP3    H218394   4.503   2.464   2.841 -0.3890  0.3393  2.3409
 6144TIP3   OH218395   7.176   0.593   0.828 -0.3341 -0.4500  0.5727
 6144TIP3    H118396   7.269   0.578   0.811 -0.1458  0.5893  0.6194
 6144TIP3    H218397   7.174   0.665   0.891 -1.1711 -0.4773  0.5917
 6145TIP3   OH218398   5.283   1.681   1.632 -0.0971 -0.2584 -0.0491
 6145TIP3    H118399   5.335   1.615   1.676 -0.7599 -1.7220 -1.3477
 6145TIP3    H218400   5.316   1.683   1.542 -0.7086  0.4912 -0.2760
 6146TIP3   OH218401   1.697   0.326   1.165  0.4473 -0.3108 -0.4487
 6146TIP3    H118402   1.620   0.307   1.218  0.0225 -0.6059 -1.1493
 6146TIP3    H218403   1.766   0.344   1.228 -0.8102  2.6528  0.2541
 6147TIP3   OH218404   6.316   2.338   0.560  0.0189  0.4523  0.3292
 6147TIP3    H118405   6.227   2.310   0.577  0.1600 -1.0569 -1.1234
 6147TIP3    H218406   6.329   2.415   0.615 -2.0674  0.5226  0.7723
 6148TIP3   OH218407   4.173   6.546   4.154  0.0706 -1.0938 -0.4481
 6148TIP3    H118408   4.098   6.509   4.108  1.4181 -0.7659 -3.0979
 6148TIP3    H218409   4.244   6.483   4.142  1.0049 -0.0654 -0.5723
 6149TIP3   OH218410   1.325   1.142   3.884 -0.0793 -0.7843  0.2503
 6149TIP3    H118411   1.248   1.189   3.916 -0.3940 -0.7411 -0.5688
 6149TIP3    H218412   1.290   1.070   3.832  0.3751  0.9614 -2.7085
 6150TIP3   OH218413   3.312   5.653   2.171 -0.0880 -0.1196 -0.7355
 6150TIP3    H118414   3.269   5.725   2.217 -1.2018 -2.6042  2.5247
 6150TIP3    H218415   3.405   5.673   2.176 -0.4333  1.8417 -1.4226
 6151TIP3   OH218416   6.342   1.029   1.223  0.0593  0.0704 -0.0572
 6151TIP3    H118417   6.257   1.064   1.195 -0.2051 -0.4925  0.0155
 6151TIP3    H218418   6.319   0.957   1.282  0.5926 -0.1198 -0.0833
 6152TIP3   OH218419   1.054   6.055   4.543  0.5362 -0.7772  0.0288
 6152TIP3    H118420   1.027   6.144   4.519  1.0087 -0.7404 -0.4059
 6152TIP3    H218421   1.066   6.058   4.638  3.2195  0.4213 -0.2500
 6153TIP3   OH218422   2.004   3.532   1.777  0.2209 -0.3333  0.4802
 6153TIP3    H118423   1.927   3.531   1.721  1.0726  0.6087 -0.7744
 6153TIP3    H218424   1.972   3.558   1.863 -0.8522  0.1418 -0.0496
 6154TIP3   OH218425   1.594   0.116   0.113 -0.0611 -0.0794 -0.3658
 6154TIP3    H118426   1.662   0.048   0.119  1.8365  1.4836 -2.4119
 6154TIP3    H218427   1.616   0.178   0.182 -0.1578 -0.1923 -0.2333
 6155TIP3   OH218428   1.642   5.501   5.539 -0.5298  0.1450 -0.3225
 6155TIP3    H118429   1.643   5.575   5.600 -0.1128  2.1813 -2.6386
 6155TIP3    H218430   1.590   5.434   5.583  0.8245  0.9434  2.7974
 6156TIP3   OH218431   7.036   0.775   1.183 -0.0036 -0.1569  0.2026
 6156TIP3    H118432   7.007   0.687   1.159 -0.3316 -0.5398  1.9228
 6156TIP3    H218433   7.063   0.768   1.274  0.6874  1.3702  0.1504
 6157TIP3   OH218434   2.920   5.133   4.834 -0.0345  0.5197 -0.0383
 6157TIP3    H118435   2.832   5.097   4.847 -0.3382  0.1237 -2.7246
 6157TIP3    H218436   2.963   5.123   4.919 -1.9231 -1.1234  0.7882
 6158TIP3   OH218437   1.693   3.243   0.958 -0.2992 -0.0263 -0.6496
 6158TIP3    H118438   1.757   3.187   0.916 -2.0693 -1.7773 -1.1845
 6158TIP3    H218439   1.686   3.209   1.047 -0.4097  0.2279 -0.5589
 6159TIP3   OH218440   6.421   3.349   4.006 -0.6225 -0.1867 -0.0467
 6159TIP3    H118441   6.493   3.333   3.945 -1.8167  1.2043 -1.9304
 6159TIP3    H218442   6.401   3.263   4.042  1.2493 -0.7697 -0.3220
 6160TIP3   OH218443   4.182   6.192   0.083 -0.1956 -0.2284 -0.0567
 6160TIP3    H118444   4.219   6.280   0.078  0.9418 -0.5943  1.3426
 6160TIP3    H218445   4.247   6.136   0.042 -1.1627 -0.3976 -1.4481
 6161TIP3   OH218446   1.605   5.178   4.724  0.2507 -0.2645  0.0581
 6161TIP3    H118447   1.638   5.256   4.769 -1.1628  0.1093  0.4977
 6161TIP3    H218448   1.683   5.126   4.706  1.3416  1.6733 -1.0969
 6162TIP3   OH218449   1.881   4.214   2.574  0.3138  0.1320 -0.4125
 6162TIP3    H118450   1.973   4.228   2.552  0.1498  0.6970 -0.7390
 6162TIP3    H218451   1.833   4.278   2.522 -0.1961  0.4650  0.4487
 6163TIP3   OH218452   0.711   0.986   1.325 -0.4716 -0.0798 -0.2272
 6163TIP3    H118453   0.622   0.950   1.322 -0.8286  0.6845  0.6814
 6163TIP3    H218454   0.707   1.063   1.267 -0.3847 -0.0756 -0.2281
 6164TIP3   OH218455   5.098   5.028   5.201  0.5686  0.3692 -0.0927
 6164TIP3    H118456   5.164   5.097   5.215 -0.1942  0.6039  2.7626
 6164TIP3    H218457   5.126   4.956   5.257  0.1713 -0.8647 -1.4146
 6165TIP3   OH218458   5.743   3.304   0.207  0.0566 -0.0188  0.2319
 6165TIP3    H118459   5.810   3.297   0.139  1.1471  0.6821  1.1870
 6165TIP3    H218460   5.743   3.218   0.249 -0.7469 -0.5116 -0.7403
 6166TIP3   OH218461   6.892   2.242   3.075 -0.5241  0.4883 -0.5540
 6166TIP3    H118462   6.866   2.335   3.071 -0.0352  0.6091 -0.9322
 6166TIP3    H218463   6.909   2.218   2.984  1.1765  0.5482 -0.2828
 6167TIP3   OH218464   6.622   4.786   4.437 -0.2713  0.1475 -0.2618
 6167TIP3    H118465   6.670   4.763   4.516  1.5663  0.8903 -1.0977
 6167TIP3    H218466   6.584   4.703   4.407 -0.9651 -0.1531  1.3322
 6168TIP3   OH218467   6.965   3.602   3.132  0.3603 -0.2639 -0.4613
 6168TIP3    H118468   6.893   3.656   3.165 -0.4775 -2.5159  1.6911
 6168TIP3    H218469   6.927   3.553   3.059 -0.2584 -1.2970  0.5389
 6169TIP3   OH218470   6.663   4.855   4.140  0.7030  0.0765 -0.2957
 6169TIP3    H118471   6.574   4.867   4.171  0.7684  0.4673 -0.2489
 6169TIP3    H218472   6.711   4.821   4.216  1.6023  4.0138  1.1368
 6170TIP3   OH218473   0.411   5.620   5.804  0.4802  0.1824 -0.3700
 6170TIP3    H118474   0.495   5.573   5.801 -0.1002 -1.1978  2.2096
 6170TIP3    H218475   0.345   5.553   5.785 -0.2820  0.1072  2.2226
 6171TIP3   OH218476   5.285   2.850   0.957 -0.1664  0.2029 -0.1889
 6171TIP3    H118477   5.300   2.863   0.864  0.9768  1.2011  0.1143
 6171TIP3    H218478   5.324   2.764   0.976  0.7655  0.5735 -0.3893
 6172TIP3   OH218479   6.166   3.370   1.901 -0.7312  0.4680  0.3172
 6172TIP3    H118480   6.179   3.463   1.920  0.3888  0.6207 -1.0572
 6172TIP3    H218481   6.254   3.335   1.887 -1.1942 -0.6102 -0.0494
 6173TIP3   OH218482   6.731   5.414   4.005 -0.2934 -0.1788  0.4290
 6173TIP3    H118483   6.783   5.368   4.070 -0.3045 -0.4015  0.2828
 6173TIP3    H218484   6.703   5.346   3.944 -0.2988  0.0221  0.2023
 6174TIP3   OH218485   2.645   6.654   0.970  0.1820  0.1976  0.0168
 6174TIP3    H118486   2.632   6.577   1.025  0.0948  0.8309  0.9006
 6174TIP3    H218487   2.733   6.642   0.933 -0.1058 -0.6578 -0.4068
 6175TIP3   OH218488   5.337   1.147   0.026 -0.5092  0.7954  0.4164
 6175TIP3    H118489   5.420   1.127  -0.018 -0.4916  0.2825  0.6789
 6175TIP3    H218490   5.347   1.238   0.055 -0.2792  0.9355 -0.0921
 6176TIP3   OH218491   0.542   3.991   0.414  0.1671 -0.3383 -0.2093
 6176TIP3    H118492   0.542   3.927   0.484 -0.5043  0.4737  0.5607
 6176TIP3    H218493   0.507   3.944   0.338 -0.3902 -0.8657  0.3597
 6177TIP3   OH218494   4.157   0.926   1.096  0.9314  0.0921 -0.5660
 6177TIP3    H118495   4.216   1.001   1.087  0.1890  0.7652  0.0715
 6177TIP3    H218496   4.152   0.910   1.190 -1.2351  1.1768 -0.4233
 6178TIP3   OH218497   0.177   1.409   5.104  0.6030  0.7401  0.5181
 6178TIP3    H118498   0.216   1.471   5.043 -0.0361  0.3415 -0.3134
 6178TIP3    H218499   0.249   1.353   5.132  0.5563 -0.4286 -1.5228
 6179TIP3   OH218500   4.134   0.776   3.829  0.1571 -0.0358  0.1265
 6179TIP3    H118501   4.177   0.692   3.848 -0.4459  0.0511  2.0571
 6179TIP3    H218502   4.204   0.841   3.834  0.6093 -0.3783 -1.2831
 6180TIP3   OH218503   6.506   0.776   2.846  0.2602 -0.2894  0.2750
 6180TIP3    H118504   6.568   0.842   2.876  0.5178 -0.1506 -0.5451
 6180TIP3    H218505   6.552   0.729   2.777 -0.8934  0.4929 -1.0721
 6181TIP3   OH218506   0.514   6.372   5.363  0.2580  0.6179  0.0639
 6181TIP3    H118507   0.596   6.348   5.406  0.1775  0.7117  0.2690
 6181TIP3    H218508   0.541   6.419   5.285  0.5532 -2.6734 -2.0341
 6182TIP3   OH218509   1.384   5.573   1.013  0.0469 -0.8671 -0.0933
 6182TIP3    H118510   1.327   5.632   0.963  1.0388  0.1817 -0.0363
 6182TIP3    H218511   1.463   5.565   0.959  1.1267  0.2591  1.2375
 6183TIP3   OH218512   6.199   2.921   4.923  0.1735 -0.2317 -0.4768
 6183TIP3    H118513   6.274   2.933   4.865  1.0870 -0.0655  0.6941
 6183TIP3    H218514   6.137   2.989   4.899  0.8329  0.2544 -0.8053
 6184TIP3   OH218515   6.274   1.140   0.893  0.1883 -0.6338  0.0823
 6184TIP3    H118516   6.185   1.147   0.928  0.0941 -0.9073 -0.1025
 6184TIP3    H218517   6.309   1.229   0.899  0.1072 -0.6401  0.6989
 6185TIP3   OH218518   2.565   0.203   5.363 -0.3534  0.3463  0.1749
 6185TIP3    H118519   2.488   0.212   5.308  0.4838  1.3458 -0.8765
 6185TIP3    H218520   2.608   0.124   5.331  0.1063  0.8990 -0.6017
 6186TIP3   OH218521   3.409   5.143   3.803  0.5316  0.2990 -0.0522
 6186TIP3    H118522   3.340   5.170   3.863  1.5958 -0.4579  1.5897
 6186TIP3    H218523   3.478   5.208   3.813  0.7918  0.0723 -0.3181
 6187TIP3   OH218524   6.613   6.718   3.454 -0.2074 -0.2993  0.3000
 6187TIP3    H118525   6.641   6.799   3.412 -1.9429 -0.2212 -0.8112
 6187TIP3    H218526   6.518   6.717   3.444 -0.3799 -1.7435  1.6503
 6188TIP3   OH218527   2.253   2.149   3.270  0.2616 -0.3176 -0.4205
 6188TIP3    H118528   2.327   2.209   3.265  0.3179 -0.3317  0.1932
 6188TIP3    H218529   2.208   2.159   3.186  0.5699  0.1896 -0.5263
 6189TIP3   OH218530   4.894   1.247   5.050 -0.1439 -0.5871  0.2755
 6189TIP3    H118531   4.971   1.219   5.001  0.1108  0.3344  0.1305
 6189TIP3    H218532   4.820   1.214   4.998  0.1381 -0.7412 -0.0369
 6190TIP3   OH218533   0.092   1.071   4.212  0.6011  0.2616  0.4387
 6190TIP3    H118534   0.018   1.131   4.220  1.5843  1.3851  1.6787
 6190TIP3    H218535   0.080   1.008   4.283 -1.2697 -2.0976 -1.7864
 6191TIP3   OH218536   5.456   6.169   0.937 -0.0502  0.0519  0.0208
 6191TIP3    H118537   5.439   6.159   1.030 -1.9361 -0.8881 -0.3797
 6191TIP3    H218538   5.442   6.262   0.919 -1.9135 -0.1459  0.2969
 6192TIP3   OH218539   1.849   1.364   2.547  0.4585  0.1796 -0.2534
 6192TIP3    H118540   1.871   1.330   2.460  0.4252  0.1688 -0.2574
 6192TIP3    H218541   1.795   1.441   2.529  3.4100  2.4025 -0.3951
 6193TIP3   OH218542   5.506   5.902   2.808 -0.2554  0.0684  0.2044
 6193TIP3    H118543   5.540   5.820   2.773 -1.5069  0.2183 -1.5241
 6193TIP3    H218544   5.581   5.961   2.811  0.1182 -0.3028 -1.2569
 6194TIP3   OH218545   1.750   1.970   0.455 -0.1701  0.0056 -0.2172
 6194TIP3    H118546   1.664   2.000   0.426 -0.6510 -0.6233  0.5067
 6194TIP3    H218547   1.772   1.898   0.396  0.4036  0.9060 -1.1392
 6195TIP3   OH218548   6.235   6.545   2.502 -0.2113 -0.6430 -0.3024
 6195TIP3    H118549   6.203   6.525   2.414  0.7816  0.9988 -1.0954
 6195TIP3    H218550   6.163   6.593   2.544 -0.6542 -1.3575 -0.2313
 6196TIP3   OH218551   2.798   6.656   4.551  0.7382 -0.2805  0.1567
 6196TIP3    H118552   2.733   6.667   4.621 -0.0561 -0.2924 -0.5545
 6196TIP3    H218553   2.803   6.561   4.539  1.0146 -0.2868  0.3270
 6197TIP3   OH218554   0.335   3.003   5.181  0.1087  0.1688  0.3717
 6197TIP3    H118555   0.264   2.940   5.197  0.1914  0.0079  0.1153
 6197TIP3    H218556   0.408   2.949   5.150 -0.4959  0.6111 -1.9849
 6198TIP3   OH218557   1.064   3.411   0.005 -0.3132  0.3591  0.3361
 6198TIP3    H118558   1.012   3.454   0.073 -0.8645  0.9607 -0.4333
 6198TIP3    H218559   1.154   3.438   0.022 -0.1356 -1.1521  2.0240
 6199TIP3   OH218560   3.504   5.180   3.066  0.2016  0.2560  0.0333
 6199TIP3    H118561   3.528   5.143   3.151 -0.6042 -0.0986  0.1182
 6199TIP3    H218562   3.417   5.144   3.049  0.1925  0.6464 -0.7564
 6200TIP3   OH218563   3.139   2.494   1.095  0.1465 -0.0660 -0.3850
 6200TIP3    H118564   3.046   2.478   1.112  0.6809 -1.2582  1.6946
 6200TIP3    H218565   3.156   2.451   1.011 -0.7354 -1.6848  0.2367
 6201TIP3   OH218566   5.347   4.751   3.284 -0.0805  0.0506  0.5205
 6201TIP3    H118567   5.347   4.749   3.188 -0.2191  2.1446  0.4476
 6201TIP3    H218568   5.419   4.809   3.307  1.3341 -2.0885  1.8009
 6202TIP3   OH218569   3.672   4.769   4.458 -0.1570  0.0032  0.0231
 6202TIP3    H118570   3.587   4.746   4.495  0.3307  2.3238  2.8937
 6202TIP3    H218571   3.713   4.685   4.437 -2.5826 -1.1962 -0.2270
 6203TIP3   OH218572   4.419   1.877   3.918  0.2467  0.4655  0.1993
 6203TIP3    H118573   4.416   1.834   4.004  1.5535 -0.7943 -0.3340
 6203TIP3    H218574   4.502   1.847   3.880 -0.3940  0.8526 -1.5788
 6204TIP3   OH218575   4.040   1.269   3.353 -0.5155  0.4355 -0.3213
 6204TIP3    H118576   4.088   1.243   3.275 -0.5574 -1.3337  0.1922
 6204TIP3    H218577   3.954   1.296   3.320 -0.8238 -1.0764 -0.8646
 6205TIP3   OH218578   7.136   2.227   2.295 -0.1970 -0.7672  0.2537
 6205TIP3    H118579   7.064   2.172   2.265 -0.7605 -0.6063  1.2726
 6205TIP3    H218580   7.160   2.278   2.218 -0.7365 -1.2976 -0.2765
 6206TIP3   OH218581   4.945   5.848   2.877 -0.5825  0.4646  0.2018
 6206TIP3    H118582   5.039   5.837   2.893 -0.7292  0.6556  1.2532
 6206TIP3    H218583   4.903   5.805   2.951 -1.3066  1.6094  0.4748
 6207TIP3   OH218584   0.698   0.498   1.252 -0.2921 -0.4895  0.3170
 6207TIP3    H118585   0.737   0.471   1.335  1.3373 -1.1874 -0.6364
 6207TIP3    H218586   0.725   0.589   1.240 -1.0969 -0.1653  0.8426
 6208TIP3   OH218587   3.169   2.455   5.396  0.2006 -0.1710 -0.1203
 6208TIP3    H118588   3.246   2.486   5.347 -0.1945 -0.3291 -0.8584
 6208TIP3    H218589   3.205   2.403   5.468  0.7787 -0.5027 -0.6440
 6209TIP3   OH218590   2.981   4.808   2.164  0.2675 -0.3355 -0.3135
 6209TIP3    H118591   2.996   4.776   2.253 -1.3991 -0.5950 -0.0852
 6209TIP3    H218592   3.041   4.757   2.110 -0.0381 -1.5659  0.4529
 6210TIP3   OH218593   6.952   4.288   4.244  0.0561 -0.1438  0.0887
 6210TIP3    H118594   7.041   4.266   4.273 -0.5661 -3.2567  0.0702
 6210TIP3    H218595   6.907   4.315   4.324  0.1887 -1.8996  0.8097
 6211TIP3   OH218596   7.211   2.901   0.441 -0.1581 -0.2056 -0.0196
 6211TIP3    H118597   7.228   2.814   0.478 -0.0166  0.1364  0.7385
 6211TIP3    H218598   7.150   2.942   0.502 -0.1597  0.2654 -0.3259
 6212TIP3   OH218599   6.979   3.008   3.142 -0.6282 -0.2869 -0.0841
 6212TIP3    H118600   6.997   3.079   3.080  0.2926 -0.2316  0.2294
 6212TIP3    H218601   6.975   3.052   3.228 -2.1479 -0.3228 -0.1021
 6213TIP3   OH218602   2.196   6.280   1.103  0.6873 -0.1942 -0.8882
 6213TIP3    H118603   2.190   6.305   1.011 -0.1866  2.1724 -0.2538
 6213TIP3    H218604   2.136   6.206   1.112  0.0309  0.1774 -2.0265
 6214TIP3   OH218605   3.843   2.711   4.763  0.7131  0.0344  0.4376
 6214TIP3    H118606   3.791   2.644   4.808  2.2238 -0.7374  1.1089
 6214TIP3    H218607   3.785   2.744   4.694 -1.7783  1.4081  2.9784
 6215TIP3   OH218608   5.367   3.472   1.394  0.3870 -0.3161  0.0874
 6215TIP3    H118609   5.321   3.475   1.310  3.1915 -1.8344 -1.6648
 6215TIP3    H218610   5.388   3.564   1.413  0.6556 -0.0357 -1.4648
 6216TIP3   OH218611   6.497   0.610   5.434  0.5413 -0.0157 -0.0116
 6216TIP3    H118612   6.421   0.564   5.398  1.5048 -0.3911 -1.6853
 6216TIP3    H218613   6.564   0.602   5.366  2.0296  0.4552  1.3324
 6217TIP3   OH218614   5.913   1.429   3.964 -0.1483  0.1467  0.1869
 6217TIP3    H118615   5.856   1.465   4.033 -0.8196  0.7965 -0.6815
 6217TIP3    H218616   5.887   1.476   3.885  0.1103 -1.0903 -0.6603
 6218TIP3   OH218617   0.801   5.700   0.449  0.4557 -0.4236  0.7782
 6218TIP3    H118618   0.810   5.629   0.385  1.3038 -0.6367  1.1263
 6218TIP3    H218619   0.891   5.716   0.479  0.1973  0.4178  1.1119
 6219TIP3   OH218620   1.674   2.109   3.963 -0.6814  0.1069 -0.2487
 6219TIP3    H118621   1.736   2.170   3.923 -0.7343 -0.0642 -0.5925
 6219TIP3    H218622   1.678   2.031   3.908 -2.3827  0.6714 -1.2136
 6220TIP3   OH218623   2.540   1.044   1.346  0.0311 -0.5244 -0.3144
 6220TIP3    H118624   2.535   1.017   1.255  0.6617 -3.2137  0.3761
 6220TIP3    H218625   2.448   1.055   1.373 -0.1433  2.6294 -1.8098
 6221TIP3   OH218626   6.131   2.769   3.291 -0.1369 -0.8281  0.0443
 6221TIP3    H118627   6.213   2.795   3.333 -0.9064  0.5195  0.8154
 6221TIP3    H218628   6.154   2.756   3.199  0.8750 -0.1072  0.1762
 6222TIP3   OH218629   6.496   3.295   5.529 -0.6036  0.2664 -0.6143
 6222TIP3    H118630   6.501   3.200   5.541 -0.7585  0.4709  1.4124
 6222TIP3    H218631   6.443   3.307   5.450 -1.0572 -1.3247 -0.5711
 6223TIP3   OH218632   3.434   3.754   0.371  0.0344  0.2965  0.4344
 6223TIP3    H118633   3.523   3.718   0.369  0.7235  1.9218 -1.4517
 6223TIP3    H218634   3.384   3.696   0.314  0.6069  0.9708 -0.7982
 6224TIP3   OH218635   1.796   4.532   0.048 -0.5768  0.3399 -0.0822
 6224TIP3    H118636   1.874   4.485   0.077  0.2922  0.0683 -2.6097
 6224TIP3    H218637   1.757   4.475  -0.018 -0.6013  2.2395 -1.8088
 6225TIP3   OH218638   5.232   0.441   5.443 -0.1270  0.1030 -0.2227
 6225TIP3    H118639   5.254   0.526   5.480  2.4530  0.0097 -1.3137
 6225TIP3    H218640   5.223   0.383   5.518  0.1625  0.9187  0.4503
 6226TIP3   OH218641   5.985   0.007   0.342  0.6780 -0.4741  0.2338
 6226TIP3    H118642   5.896   0.043   0.338  0.0365 -1.6632  2.2521
 6226TIP3    H218643   6.041   0.080   0.316 -0.7966  0.7812  0.4168
 6227TIP3   OH218644   0.806   6.512   4.763  0.3844 -0.1674  0.8422
 6227TIP3    H118645   0.783   6.583   4.703 -0.8729 -0.9605  0.3517
 6227TIP3    H218646   0.865   6.553   4.826  1.9149  0.6590 -1.0002
 6228TIP3   OH218647   3.303   3.919   4.145  0.0765 -0.5818 -0.0833
 6228TIP3    H118648   3.335   4.008   4.153  0.5792 -0.7443 -0.2861
 6228TIP3    H218649   3.237   3.911   4.215 -0.3266  0.0942 -0.3745
 6229TIP3   OH218650   0.660   1.473   3.922 -0.1846 -0.2124 -0.8422
 6229TIP3    H118651   0.576   1.475   3.968 -0.3019  0.0045 -1.0687
 6229TIP3    H218652   0.643   1.421   3.843 -0.7217  1.7622 -2.0968
 6230TIP3   OH218653   1.580   3.709   2.725 -0.6880 -0.5037  0.5597
 6230TIP3    H118654   1.648   3.741   2.666  0.5631 -3.2460  0.3778
 6230TIP3    H218655   1.499   3.715   2.674  0.3449 -2.7666 -1.5107
 6231TIP3   OH218656   5.573   4.377   2.107  0.6434 -0.5547  0.6559
 6231TIP3    H118657   5.511   4.386   2.179  0.5326 -1.2619  0.6591
 6231TIP3    H218658   5.531   4.314   2.048  0.3120  0.6687 -0.4786
 6232TIP3   OH218659   7.150   5.113   1.995 -0.0858  0.3185 -0.2530
 6232TIP3    H118660   7.108   5.088   2.077 -0.7874  1.6977 -0.1661
 6232TIP3    H218661   7.228   5.161   2.022  0.4486 -0.4332 -0.4159
 6233TIP3   OH218662   4.394   1.223   2.238  0.1530 -0.6460 -0.8236
 6233TIP3    H118663   4.424   1.222   2.329 -1.9840 -0.1129 -0.0382
 6233TIP3    H218664   4.452   1.162   2.193  0.1415 -2.3788  1.3104
 6234TIP3   OH218665   4.109   5.475   3.372  0.0931  0.1112 -0.3020
 6234TIP3    H118666   4.049   5.423   3.426  0.7114 -1.0219 -0.6701
 6234TIP3    H218667   4.067   5.560   3.365 -1.6582 -0.7422 -0.8261
 6235TIP3   OH218668   5.177   0.031   4.353  0.5978 -0.6465 -0.1466
 6235TIP3    H118669   5.240   0.102   4.361  0.7335 -0.9535  2.1453
 6235TIP3    H218670   5.206  -0.035   4.416 -2.0407 -0.7585  1.1032
 6236TIP3   OH218671   3.389   5.291   5.227  0.0194 -0.1953 -0.0663
 6236TIP3    H118672   3.316   5.249   5.273  1.8178 -0.1024  3.2176
 6236TIP3    H218673   3.409   5.368   5.280  2.5381 -0.2801 -0.7706
 6237TIP3   OH218674   0.567   4.676   5.149 -0.3181  0.5113  0.3518
 6237TIP3    H118675   0.553   4.618   5.074  2.9258  0.2532 -0.1932
 6237TIP3    H218676   0.552   4.764   5.114 -2.2452  0.2304  0.3795
 6238TIP3   OH218677   5.383   5.861   4.349 -0.0118 -0.1083  0.1771
 6238TIP3    H118678   5.434   5.938   4.327 -0.6459  0.1467 -0.4357
 6238TIP3    H218679   5.352   5.827   4.265 -1.1100 -0.0709  0.5470
 6239TIP3   OH218680   0.525   2.143   3.229  0.3299 -0.7100 -0.2152
 6239TIP3    H118681   0.607   2.096   3.243  0.9755 -0.3663 -2.4510
 6239TIP3    H218682   0.458   2.088   3.268  1.2859 -2.5456 -1.0497
 6240TIP3   OH218683   6.376   6.320   0.437 -0.1700  0.0632 -0.1001
 6240TIP3    H118684   6.328   6.337   0.518 -2.7142  0.8428 -1.6316
 6240TIP3    H218685   6.323   6.362   0.369  1.9151 -0.4446 -2.1690
 6241TIP3   OH218686   5.354   5.084   0.637  0.6089  0.1799 -0.3508
 6241TIP3    H118687   5.356   5.008   0.579  0.6465 -1.5720  1.7744
 6241TIP3    H218688   5.393   5.052   0.719  0.0764  2.3370  0.8353
 6242TIP3   OH218689   6.496   5.595   3.096  0.0966 -0.2452 -0.0246
 6242TIP3    H118690   6.417   5.540   3.093 -0.4249  0.5016 -0.4327
 6242TIP3    H218691   6.527   5.587   3.186  0.3664 -1.6583 -0.2205
 6243TIP3   OH218692   6.634   3.796   0.974  0.0989 -0.3848  0.4422
 6243TIP3    H118693   6.682   3.876   0.994  0.4473 -0.2435 -0.8466
 6243TIP3    H218694   6.674   3.729   1.030  0.5245  0.1221  0.7508
 6244TIP3   OH218695   2.393   4.276   2.486 -0.2103 -0.8625 -0.1528
 6244TIP3    H118696   2.434   4.360   2.507 -1.3388 -0.9335  2.8405
 6244TIP3    H218697   2.462   4.211   2.504 -0.8405 -0.8410  2.7490
 6245TIP3   OH218698   4.876   5.696   4.790  0.0484 -0.1327  0.1440
 6245TIP3    H118699   4.946   5.727   4.732 -0.5147 -0.6012 -0.8118
 6245TIP3    H218700   4.915   5.698   4.877  1.4685 -0.9475 -0.4256
 6246TIP3   OH218701   1.797   4.167   3.944 -0.6355  0.1652  0.3875
 6246TIP3    H118702   1.830   4.098   4.001 -0.1941  0.4128  0.4394
 6246TIP3    H218703   1.810   4.134   3.856 -1.6003 -0.3465  0.4286
 6247TIP3   OH218704   3.992   3.204   5.527  0.5251 -0.5066  0.3147
 6247TIP3    H118705   4.044   3.270   5.573 -0.3186 -0.7251  1.6423
 6247TIP3    H218706   4.051   3.170   5.460  0.8920  1.7844 -0.6293
 6248TIP3   OH218707   3.181   3.361   5.891 -0.4205 -0.4785 -0.3354
 6248TIP3    H118708   3.253   3.302   5.872  1.8436  1.6019  1.0787
 6248TIP3    H218709   3.104   3.305   5.898  1.6401 -3.3384  1.4480
 6249TIP3   OH218710   0.559   3.126   0.165 -0.4552 -0.5425  0.0957
 6249TIP3    H118711   0.604   3.128   0.080 -0.8315 -0.1514 -0.0963
 6249TIP3    H218712   0.469   3.102   0.143 -1.3025  2.2782  0.0272
 6250TIP3   OH218713   0.737   3.641   4.104 -0.0668 -0.1882  0.1977
 6250TIP3    H118714   0.715   3.660   4.013  0.1544 -1.2533 -0.0874
 6250TIP3    H218715   0.779   3.555   4.102  1.9670  0.7116  1.0085
 6251TIP3   OH218716   0.501   5.964   2.623  0.0674 -0.0576 -0.5340
 6251TIP3    H118717   0.440   5.899   2.658 -0.2922  0.3074 -0.4736
 6251TIP3    H218718   0.547   5.997   2.700  0.8476 -0.8317 -0.6529
 6252TIP3   OH218719   6.840   3.290   2.880 -0.5074 -0.7195  0.0025
 6252TIP3    H118720   6.764   3.237   2.905 -1.8391  1.0283 -0.1216
 6252TIP3    H218721   6.831   3.371   2.931  1.9049 -0.8772  0.8228
 6253TIP3   OH218722   5.257   5.206   4.332  0.1389  0.7353  0.1000
 6253TIP3    H118723   5.290   5.295   4.341 -1.2365  1.2208  0.7278
 6253TIP3    H218724   5.241   5.195   4.239  1.9043  0.5124 -0.2136
 6254TIP3   OH218725   1.580   5.832   4.966  0.2389  0.0751 -0.2865
 6254TIP3    H118726   1.574   5.927   4.979 -0.1503 -0.0173  0.2209
 6254TIP3    H218727   1.503   5.797   5.009 -1.6331 -0.2155 -3.4944
 6255TIP3   OH218728   5.049   0.586   4.767  0.0930 -0.1582 -0.0583
 6255TIP3    H118729   5.038   0.661   4.709  0.2770 -0.2831 -0.2550
 6255TIP3    H218730   5.088   0.518   4.712  1.2808  0.0743  0.4628
 6256TIP3   OH218731   0.661   0.349   4.470  0.6905 -0.0592 -1.0864
 6256TIP3    H118732   0.667   0.420   4.534 -0.2157  0.1418 -1.2049
 6256TIP3    H218733   0.729   0.287   4.496  0.3969  0.0586  0.0306
 6257TIP3   OH218734   6.379   1.370   2.102 -0.0039 -0.3358  0.2303
 6257TIP3    H118735   6.319   1.357   2.029  0.3269 -0.6940  0.0186
 6257TIP3    H218736   6.356   1.302   2.165  0.0702 -0.3676  0.2230
 6258TIP3   OH218737   1.984   5.298   0.468 -0.1106 -0.1280 -0.0575
 6258TIP3    H118738   2.073   5.269   0.447 -0.2941 -2.0128  1.4897
 6258TIP3    H218739   1.996   5.377   0.521  0.5388  0.7237 -1.4190
 6259TIP3   OH218740   1.990   0.674   2.822 -0.0065  0.8125 -0.1328
 6259TIP3    H118741   1.981   0.579   2.822 -0.5150  0.8559 -0.1871
 6259TIP3    H218742   2.023   0.695   2.734  3.5841  0.4112  0.9439
 6260TIP3   OH218743   3.615   4.589   1.974  0.1827  0.1949  0.0898
 6260TIP3    H118744   3.565   4.597   1.892 -1.1614 -0.8615  0.7642
 6260TIP3    H218745   3.706   4.595   1.947 -0.2515  0.7365 -1.3794
 6261TIP3   OH218746   1.090   4.454   2.726 -0.2361  0.2995  0.6056
 6261TIP3    H118747   1.176   4.480   2.693 -0.0695 -1.0005 -0.0509
 6261TIP3    H218748   1.097   4.463   2.821  0.1956  1.4088  0.4862
 6262TIP3   OH218749   1.117   3.401   3.250  0.0003 -0.2328 -0.8462
 6262TIP3    H118750   1.193   3.396   3.192 -0.0986  0.3459 -1.0385
 6262TIP3    H218751   1.045   3.424   3.191  0.0145  1.0056 -0.4159
 6263TIP3   OH218752   1.581   5.128   1.713  0.3456  0.3377 -0.1519
 6263TIP3    H118753   1.490   5.149   1.695 -0.0037  0.4284  1.5026
 6263TIP3    H218754   1.587   5.033   1.700  0.4055  0.5389 -1.7069
 6264TIP3   OH218755   6.653   5.274   0.561  0.5584  0.2969  0.2502
 6264TIP3    H118756   6.627   5.328   0.486 -1.0285  0.1379  0.6464
 6264TIP3    H218757   6.687   5.194   0.523  0.7676  0.6496 -0.3121
 6265TIP3   OH218758   4.476   0.916   4.952 -0.2772  0.1464 -0.6405
 6265TIP3    H118759   4.521   0.906   5.036  0.7909  0.3660 -1.1662
 6265TIP3    H218760   4.544   0.900   4.887 -1.1640 -0.3321 -1.4737
 6266TIP3   OH218761   0.610   3.407   2.287  0.5920 -0.0890 -0.0561
 6266TIP3    H118762   0.557   3.396   2.366  0.0539 -0.9511 -0.5182
 6266TIP3    H218763   0.696   3.371   2.310  0.0589 -1.5746 -0.2381
 6267TIP3   OH218764   4.890   6.467   1.849  0.1559  0.4905 -0.3311
 6267TIP3    H118765   4.968   6.502   1.804 -0.3566  0.6267 -1.1345
 6267TIP3    H218766   4.818   6.520   1.815 -0.2730  0.4827  0.5459
 6268TIP3   OH218767   1.522   3.478   1.641  0.6298 -0.0417 -0.8165
 6268TIP3    H118768   1.518   3.408   1.707  1.4397  0.8670  0.2519
 6268TIP3    H218769   1.468   3.447   1.569  0.0590 -1.2688  0.1052
 6269TIP3   OH218770   6.067   1.787   0.205  0.5727 -0.0469  0.4230
 6269TIP3    H118771   6.017   1.779   0.287 -0.4541  2.4051  0.1077
 6269TIP3    H218772   6.011   1.746   0.139  0.4450 -0.1349  0.5835
 6270TIP3   OH218773   2.790   5.504   0.742  0.0439  0.2852 -0.3347
 6270TIP3    H118774   2.808   5.416   0.774 -1.4409 -1.0037 -2.6886
 6270TIP3    H218775   2.735   5.544   0.809 -1.2357 -1.5010 -0.2326
 6271TIP3   OH218776   5.707   6.043   1.333 -0.5285  0.5614 -0.5536
 6271TIP3    H118777   5.708   6.090   1.249 -0.4554  0.3152 -0.6917
 6271TIP3    H218778   5.789   5.994   1.334 -1.1787 -0.6035 -1.0089
 6272TIP3   OH218779   5.362   1.677   0.487  0.2481  0.2268  0.0918
 6272TIP3    H118780   5.400   1.738   0.549  1.7927  0.0579 -0.6460
 6272TIP3    H218781   5.424   1.604   0.482  0.0299  0.1101 -1.4327
 6273TIP3   OH218782   4.180   1.998   3.221  0.3212 -0.4116  0.0481
 6273TIP3    H118783   4.194   2.079   3.173  0.1957 -0.2199  0.3284
 6273TIP3    H218784   4.179   2.025   3.313  1.1335 -0.8506  0.1919
 6274TIP3   OH218785   0.506   2.258   5.538 -0.2517 -0.1257 -0.5754
 6274TIP3    H118786   0.472   2.277   5.450 -0.3741 -1.3519 -0.8101
 6274TIP3    H218787   0.528   2.344   5.574 -2.3379  0.6136 -0.9154
 6275TIP3   OH218788   3.275   1.573   1.019 -0.3888 -0.0598 -0.1900
 6275TIP3    H118789   3.357   1.524   1.012 -0.7882 -0.4862 -2.4019
 6275TIP3    H218790   3.302   1.664   1.033  0.4901 -0.0889 -1.5843
 6276TIP3   OH218791   5.521   3.039   0.168 -0.7814 -0.0946  0.1707
 6276TIP3    H118792   5.462   3.090   0.224 -0.3250  0.3241  0.2810
 6276TIP3    H218793   5.537   3.094   0.092 -0.9892 -0.4496 -0.1356
 6277TIP3   OH218794   4.801   5.419   4.793 -0.3491  0.1996 -0.8055
 6277TIP3    H118795   4.833   5.508   4.776 -0.2174  0.4912  0.7695
 6277TIP3    H218796   4.723   5.432   4.846  2.0267 -0.5501  3.3165
 6278TIP3   OH218797   0.599   4.470   5.616 -0.1918 -0.3894  0.4554
 6278TIP3    H118798   0.506   4.465   5.640 -0.8085  0.1378 -1.6524
 6278TIP3    H218799   0.600   4.459   5.521  1.8302  0.5285  0.3268
 6279TIP3   OH218800   1.011   3.622   5.255  0.4636 -0.2011  0.0296
 6279TIP3    H118801   1.080   3.661   5.308  0.6811  0.6750 -0.8555
 6279TIP3    H218802   1.036   3.643   5.165 -1.5452  1.2354 -0.2711
 6280TIP3   OH218803   6.136   3.364   3.949 -0.6500  0.7026  0.3645
 6280TIP3    H118804   6.218   3.400   3.984 -0.5964  0.2849  0.6786
 6280TIP3    H218805   6.092   3.439   3.910 -0.7112  1.1883  1.3364
 6281TIP3   OH218806   6.947   0.116   3.033  0.0897 -0.7090 -0.7498
 6281TIP3    H118807   7.023   0.113   2.975 -0.5266 -1.1135 -1.5655
 6281TIP3    H218808   6.884   0.172   2.987  0.0758  0.0281  0.1523
 6282TIP3   OH218809   2.176   2.654  -0.006  0.3622  0.0476  0.0839
 6282TIP3    H118810   2.238   2.613   0.055  0.2989 -1.5080 -0.8125
 6282TIP3    H218811   2.185   2.748   0.009 -0.9078 -0.2590  3.6616
 6283TIP3   OH218812   2.177   0.138   0.590  0.2129 -0.3140  0.3388
 6283TIP3    H118813   2.229   0.059   0.574 -0.7728 -0.5696 -2.0090
 6283TIP3    H218814   2.239   0.210   0.577  1.0087 -0.6418  2.0456
 6284TIP3   OH218815   6.138   0.606   2.606 -0.4474  0.5719  1.0663
 6284TIP3    H118816   6.054   0.590   2.649  0.1891 -1.8715  1.5603
 6284TIP3    H218817   6.130   0.562   2.521 -0.6794  2.8992 -0.1760
 6285TIP3   OH218818   1.221   5.931   0.583  0.4941 -0.3668 -0.1840
 6285TIP3    H118819   1.205   6.004   0.643  0.7236  0.2197 -0.8324
 6285TIP3    H218820   1.298   5.957   0.533 -0.8985  0.0960 -2.2028
 6286TIP3   OH218821   5.455   4.008   2.960  0.5636  0.4174 -0.2672
 6286TIP3    H118822   5.485   4.052   2.880 -0.0983 -1.0147 -1.3579
 6286TIP3    H218823   5.382   4.062   2.991  0.3945  0.6301 -1.0138
 6287TIP3   OH218824   4.209   6.247   1.042 -0.0602  0.4105 -0.2084
 6287TIP3    H118825   4.258   6.235   1.123 -0.7693  1.0344  0.3225
 6287TIP3    H218826   4.176   6.337   1.047 -0.9811  0.1133 -0.7057
 6288TIP3   OH218827   2.570   3.167   3.574  0.0460 -0.7206  0.3170
 6288TIP3    H118828   2.497   3.107   3.558 -1.5322  1.5180 -1.6913
 6288TIP3    H218829   2.555   3.240   3.513  2.9321  0.7783  1.1935
 6289TIP3   OH218830   3.196   3.488   5.601  0.0719 -0.5288 -0.2877
 6289TIP3    H118831   3.291   3.477   5.604  0.1903  0.5589  1.2188
 6289TIP3    H218832   3.168   3.487   5.693 -1.2405  0.1132 -0.6496
 6290TIP3   OH218833   6.838   3.423   3.849  0.0448 -0.3543 -0.3387
 6290TIP3    H118834   6.888   3.429   3.931 -0.0072 -0.3552 -0.3069
 6290TIP3    H218835   6.795   3.508   3.841 -1.0106 -0.8106  0.3204
 6291TIP3   OH218836   5.344   5.277   5.300 -0.1077  0.1305  0.3206
 6291TIP3    H118837   5.343   5.338   5.227  0.4828 -0.3424 -0.0961
 6291TIP3    H218838   5.333   5.331   5.378 -1.3300  0.5861 -0.1406
 6292TIP3   OH218839   7.140   3.359   3.186 -0.1753  0.2933  0.1675
 6292TIP3    H118840   7.085   3.438   3.190  1.7723  1.6822  1.0733
 6292TIP3    H218841   7.181   3.363   3.100 -1.2209 -0.5936 -0.3956
 6293TIP3   OH218842   6.387   1.298   3.736  0.7167  0.0923 -0.5912
 6293TIP3    H118843   6.417   1.274   3.823 -0.1981 -0.9572 -0.5392
 6293TIP3    H218844   6.456   1.354   3.701  1.6698 -0.4764  0.3359
 6294TIP3   OH218845   2.611   5.800   5.848  0.0314 -0.1090 -0.1506
 6294TIP3    H118846   2.536   5.835   5.800  0.3755  0.9897  0.0828
 6294TIP3    H218847   2.674   5.777   5.779 -0.6623 -1.4532 -0.3739
 6295TIP3   OH218848   4.363   3.979   5.208 -0.4818  0.5759  0.3029
 6295TIP3    H118849   4.270   3.976   5.190 -0.1434  0.4181 -1.5348
 6295TIP3    H218850   4.389   3.887   5.217 -0.4758  0.6152  0.7135
 6296TIP3   OH218851   1.319   5.696   2.975  0.4870  0.6432 -0.4605
 6296TIP3    H118852   1.273   5.612   2.979  1.0917  0.3509  0.9655
 6296TIP3    H218853   1.253   5.758   2.942 -0.5095 -0.0255  0.2199
 6297TIP3   OH218854   1.653   4.065   0.849 -0.1870  0.4690 -0.2116
 6297TIP3    H118855   1.718   4.090   0.914  0.6403 -0.1744 -0.7706
 6297TIP3    H218856   1.569   4.068   0.896  0.5077 -1.1099  1.2083
 6298TIP3   OH218857   4.948   6.431   2.665 -0.5702 -0.0629 -0.1248
 6298TIP3    H118858   4.943   6.336   2.671 -1.5034  0.0255  0.5396
 6298TIP3    H218859   5.002   6.457   2.740  0.8960 -0.1492 -1.0929
 6299TIP3   OH218860   0.973   5.047   5.408  0.3147 -0.4060 -0.5234
 6299TIP3    H118861   0.902   5.096   5.450 -0.6024 -0.4894 -1.8968
 6299TIP3    H218862   0.994   4.978   5.470  0.1727  0.4726  0.5236
 6300TIP3   OH218863   0.307   1.259   2.441 -0.4943 -0.8736  0.0984
 6300TIP3    H118864   0.244   1.267   2.370  0.7312  1.8855 -0.8175
 6300TIP3    H218865   0.382   1.214   2.402 -1.0822 -2.3540  0.6264
 6301TIP3   OH218866   6.815   2.020   0.729  0.3797  0.3060  0.3025
 6301TIP3    H118867   6.806   1.974   0.645  0.8322 -1.5952  1.2397
 6301TIP3    H218868   6.782   1.958   0.794 -0.3121  1.8913  1.5235
 6302TIP3   OH218869   6.134   1.546   2.770  0.0859 -0.1544 -0.1341
 6302TIP3    H118870   6.161   1.595   2.847 -0.7980 -0.2150  0.2254
 6302TIP3    H218871   6.112   1.460   2.803  3.1129 -1.3839 -0.9695
 6303TIP3   OH218872   0.221   0.768   3.993 -0.0667 -0.3259 -0.5455
 6303TIP3    H118873   0.207   0.831   3.922 -0.8318  0.3353  0.1708
 6303TIP3    H218874   0.144   0.711   3.989 -1.0822  0.8559  0.8874
 6304TIP3   OH218875   2.197   6.491   4.153  0.2711  0.2769  0.8521
 6304TIP3    H118876   2.179   6.406   4.192 -0.2646  0.8364  1.8600
 6304TIP3    H218877   2.271   6.475   4.094  1.2624 -0.5623  2.2550
 6305TIP3   OH218878   1.830   2.962   5.199 -0.0775 -0.0438  0.1421
 6305TIP3    H118879   1.747   3.009   5.193  0.2872  0.6604  0.5665
 6305TIP3    H218880   1.815   2.895   5.266 -0.2319  0.2215  0.3704
 6306TIP3   OH218881   2.277   3.551   5.524  0.3383 -0.3527 -0.5300
 6306TIP3    H118882   2.274   3.619   5.457  1.8946  1.6714  1.3050
 6306TIP3    H218883   2.272   3.599   5.606  1.4032 -2.4680  0.8443
 6307TIP3   OH218884   1.996   4.175   4.676  0.6753 -0.0120  0.3160
 6307TIP3    H118885   2.023   4.107   4.738 -0.5434  0.0960  1.0160
 6307TIP3    H218886   2.022   4.142   4.590  0.4126 -1.2051  0.6753
 6308TIP3   OH218887   4.336   3.465   3.886  0.2405 -0.2715  0.2242
 6308TIP3    H118888   4.291   3.515   3.954 -0.2744 -1.2355  0.6093
 6308TIP3    H218889   4.266   3.415   3.844  0.9259 -1.7456  0.7912
 6309TIP3   OH218890   2.909   5.876   5.444 -0.2450  0.0818 -0.2155
 6309TIP3    H118891   2.882   5.914   5.360 -2.1614 -0.4140  0.1160
 6309TIP3    H218892   2.955   5.947   5.488  0.0249  0.6279 -1.3371
 6310TIP3   OH218893   0.776   4.209   4.721 -0.2062 -0.0859 -0.4407
 6310TIP3    H118894   0.749   4.292   4.760 -1.3268 -0.3008 -0.7119
 6310TIP3    H218895   0.832   4.233   4.647 -0.0386  0.4008 -0.1610
 6311TIP3   OH218896   2.240   6.472   1.671  0.0300 -0.1953 -0.5463
 6311TIP3    H118897   2.191   6.469   1.753  0.5980  3.2420  0.0579
 6311TIP3    H218898   2.184   6.524   1.612  1.0320  0.1325 -1.2360
 6312TIP3   OH218899   5.133   0.892   0.043  0.8357  0.4127  0.5049
 6312TIP3    H118900   5.174   0.978   0.044  2.3759 -0.2836  0.1181
 6312TIP3    H218901   5.205   0.831   0.026 -0.5609 -0.7686 -1.6221
 6313TIP3   OH218902   1.709   1.000   2.847 -0.4726  0.1826 -0.0549
 6313TIP3    H118903   1.712   1.094   2.828  0.6599 -0.0932 -1.4413
 6313TIP3    H218904   1.638   0.967   2.792  0.7840 -0.1294 -1.5689
 6314TIP3   OH218905   0.017  -0.010   2.062 -0.8219 -0.1822 -0.5434
 6314TIP3    H118906   0.008   0.075   2.018 -1.8077 -0.0352 -0.0934
 6314TIP3    H218907   0.104  -0.041   2.037 -0.3340  1.0878 -0.4929
 6315TIP3   OH218908   5.035   5.766   5.177  0.0118 -0.3068  0.5520
 6315TIP3    H118909   4.949   5.724   5.178 -0.0204 -0.2451  1.3525
 6315TIP3    H218910   5.023   5.846   5.228  0.4156 -0.0305  0.2219
 6316TIP3   OH218911   7.117   0.642   5.461  0.3851  0.0302 -0.7234
 6316TIP3    H118912   7.127   0.603   5.374  0.2578  0.2138 -0.8224
 6316TIP3    H218913   7.194   0.698   5.471  0.1646  0.3677 -0.9100
 6317TIP3   OH218914   7.215   5.312   5.477  0.6839  0.5714  0.1415
 6317TIP3    H118915   7.158   5.364   5.532  2.0045  0.2084  1.9459
 6317TIP3    H218916   7.161   5.289   5.401 -2.6355 -2.1771  2.9816
 6318TIP3   OH218917   0.112   0.248   4.158  0.1359 -0.0742 -0.0906
 6318TIP3    H118918   0.105   0.261   4.253  0.3027 -0.2015 -0.0611
 6318TIP3    H218919   0.162   0.168   4.148 -0.5575 -0.4948 -0.2825
 6319TIP3   OH218920   4.188   5.822   2.878 -0.0917  0.0507  0.1123
 6319TIP3    H118921   4.171   5.886   2.947  0.5216  1.7088 -1.2127
 6319TIP3    H218922   4.253   5.864   2.822 -0.0323 -1.5483 -1.0825
 6320TIP3   OH218923   1.424   6.661   2.775  0.0139  0.1906 -0.1819
 6320TIP3    H118924   1.343   6.695   2.813 -0.7668 -2.0646  0.3750
 6320TIP3    H218925   1.462   6.606   2.844  0.6502 -0.8130 -1.2886
 6321TIP3   OH218926   2.597   3.360   0.368  0.3965 -0.1781  0.2068
 6321TIP3    H118927   2.663   3.423   0.342  1.4373  0.1393  3.2512
 6321TIP3    H218928   2.515   3.410   0.371  0.3967 -0.0285 -1.3205
 6322TIP3   OH218929   6.687   3.322   0.339 -0.7516 -0.3145 -0.5558
 6322TIP3    H118930   6.758   3.387   0.338 -1.3244  0.3163 -1.2952
 6322TIP3    H218931   6.696   3.274   0.257 -1.0414 -0.3885 -0.5461
 6323TIP3   OH218932   3.563   5.452   0.317  0.4330  0.0612  0.0403
 6323TIP3    H118933   3.564   5.383   0.384  1.8454  0.6023  0.6131
 6323TIP3    H218934   3.564   5.405   0.234  2.4961 -0.6614  0.4217
 6324TIP3   OH218935   5.876   5.420   0.238 -0.4552  0.7755  0.3359
 6324TIP3    H118936   5.883   5.401   0.332  0.6097  1.0630  0.3268
 6324TIP3    H218937   5.965   5.441   0.211 -0.8592  1.3326 -0.6126
 6325TIP3   OH218938   2.247   2.291   0.503  0.2246 -0.0119 -0.1086
 6325TIP3    H118939   2.284   2.379   0.498 -0.6216  0.3496 -0.1888
 6325TIP3    H218940   2.296   2.240   0.438  0.6863  0.4123 -0.0932
 6326TIP3   OH218941   5.300   4.457   5.767  0.0240  0.0793  0.3770
 6326TIP3    H118942   5.267   4.370   5.745  0.3334 -0.0206  0.3048
 6326TIP3    H218943   5.371   4.473   5.704 -0.6651  0.7874 -0.2406
 6327TIP3   OH218944   2.203   5.133   3.710 -0.1924  0.5937 -0.4814
 6327TIP3    H118945   2.141   5.203   3.689  0.2394  0.5630 -1.9339
 6327TIP3    H218946   2.219   5.089   3.627  1.5354  0.3918 -0.0854
 6328TIP3   OH218947   3.227   5.890   3.736  0.2915  0.0193  0.2629
 6328TIP3    H118948   3.288   5.882   3.663  0.7151  1.2102  0.4611
 6328TIP3    H218949   3.188   5.803   3.745  0.5565 -0.2543 -1.0860
 6329TIP3   OH218950   4.872   0.623   0.565  0.3318 -0.2044  0.2325
 6329TIP3    H118951   4.931   0.645   0.637  2.3344 -1.0179 -1.0528
 6329TIP3    H218952   4.902   0.537   0.535 -3.2722 -1.9886  1.1711
 6330TIP3   OH218953   1.944   0.987   1.774  1.0136  0.6708  0.3922
 6330TIP3    H118954   1.936   0.992   1.679  1.9991 -0.4785  0.2347
 6330TIP3    H218955   1.853   0.987   1.805  0.6101 -0.9893 -0.6737
 6331TIP3   OH218956   2.406   2.725   2.180 -0.1821 -0.0147  0.5076
 6331TIP3    H118957   2.410   2.803   2.235 -0.1348  0.5386 -0.2715
 6331TIP3    H218958   2.368   2.756   2.098 -1.6406 -1.1088  0.7194
 6332TIP3   OH218959   6.519   2.698   1.085 -0.6227  0.4252 -0.1400
 6332TIP3    H118960   6.544   2.677   0.995  0.8359 -0.7533  0.4879
 6332TIP3    H218961   6.471   2.620   1.114  0.1006  0.2144  0.5117
 6333TIP3   OH218962   6.505   1.690   3.167 -0.4412  0.1168 -0.0981
 6333TIP3    H118963   6.499   1.599   3.196 -2.0477  0.4129  0.6197
 6333TIP3    H218964   6.593   1.717   3.193 -0.2726 -0.9487  0.5475
 6334TIP3   OH218965   7.062   3.104   2.231  0.0403  0.7815  0.2533
 6334TIP3    H118966   7.001   3.126   2.301  0.4906  0.5895  0.7176
 6334TIP3    H218967   7.068   3.183   2.178  0.2927  1.1931  0.8847
 6335TIP3   OH218968   6.273   4.308   2.088  0.1660  0.7100 -0.6061
 6335TIP3    H118969   6.352   4.331   2.136 -0.6119  0.4513  0.8611
 6335TIP3    H218970   6.204   4.361   2.128 -0.6265  0.0231 -1.0077
 6336TIP3   OH218971   5.476   4.011   0.940 -0.2456  0.1041 -0.1488
 6336TIP3    H118972   5.400   4.009   0.882 -0.9097  2.8588  0.4704
 6336TIP3    H218973   5.452   4.072   1.010  2.3999  0.8501  0.2398
 6337TIP3   OH218974   3.896   6.585   0.157 -0.5949 -0.4945 -0.1687
 6337TIP3    H118975   3.919   6.678   0.150  0.9244 -0.6192  2.2414
 6337TIP3    H218976   3.878   6.571   0.250 -0.3699 -2.7062 -0.4094
 6338TIP3   OH218977   6.596   6.038   4.871 -0.7713 -0.3816  0.2210
 6338TIP3    H118978   6.614   6.052   4.964  1.0626 -2.5196  0.2839
 6338TIP3    H218979   6.504   6.013   4.869 -1.5464  2.0917  1.0912
 6339TIP3   OH218980   2.648   2.805   5.169 -1.0467  0.7096  0.5626
 6339TIP3    H118981   2.608   2.891   5.156  1.7818  2.0625  0.1210
 6339TIP3    H218982   2.717   2.820   5.233 -1.0003 -1.4485  1.1113
 6340TIP3   OH218983   1.417   4.650   4.610  0.9021  0.0513  0.0793
 6340TIP3    H118984   1.336   4.653   4.560  1.1783 -0.5347 -0.4282
 6340TIP3    H218985   1.440   4.741   4.625  2.1772  0.4133 -3.1725
 6341TIP3   OH218986   6.435   5.864   1.913 -0.0467 -0.3334 -0.7064
 6341TIP3    H118987   6.444   5.956   1.937 -0.9998 -0.4417  0.1199
 6341TIP3    H218988   6.348   5.858   1.874  0.5569 -0.6259 -2.0640
 6342TIP3   OH218989   0.580   6.498   4.445 -0.0926  0.4861  0.1107
 6342TIP3    H118990   0.604   6.574   4.498  0.1563 -0.3819  1.2821
 6342TIP3    H218991   0.658   6.443   4.445 -0.9614 -0.8037  1.1437
 6343TIP3   OH218992   1.777   6.078   0.501  0.0028 -0.3352  0.0195
 6343TIP3    H118993   1.747   6.168   0.487 -0.2043 -0.4156 -0.0673
 6343TIP3    H218994   1.783   6.042   0.413  0.9121 -0.1463  0.0000
 6344TIP3   OH218995   2.512   1.731   4.913 -0.0073  0.0506 -0.0164
 6344TIP3    H118996   2.479   1.706   4.999  0.4172 -1.1673 -0.1914
 6344TIP3    H218997   2.461   1.809   4.889 -0.6753 -0.0641  0.9845
 6345TIP3   OH218998   6.388   3.283   2.310  0.1054  0.2047  0.1216
 6345TIP3    H118999   6.297   3.260   2.290  0.1885  0.3832 -0.4877
 6345TIP3    H219000   6.406   3.360   2.255  1.1653 -0.8872 -1.1420
 6346TIP3   OH219001   1.712   2.160   3.612  0.4077  0.0978  0.4029
 6346TIP3    H119002   1.680   2.172   3.522 -0.1257  2.1159  0.8179
 6346TIP3    H219003   1.807   2.151   3.602  0.2076 -1.6750 -0.4760
 6347TIP3   OH219004   0.498   4.723   2.854 -0.1338 -0.1806 -0.2068
 6347TIP3    H119005   0.561   4.692   2.789 -0.3069 -0.6358 -0.1607
 6347TIP3    H219006   0.433   4.653   2.860  0.8188 -0.9549  1.7533
 6348TIP3   OH219007   4.792   6.412   1.240  0.2962 -0.8025 -0.1797
 6348TIP3    H119008   4.831   6.440   1.323 -0.5093 -0.4766  0.0954
 6348TIP3    H219009   4.860   6.358   1.199  0.9233 -0.4921  0.4231
 6349TIP3   OH219010   0.818   0.302   5.259  0.0809 -0.1761  0.0971
 6349TIP3    H119011   0.839   0.256   5.177 -0.9059 -0.6284  0.0782
 6349TIP3    H219012   0.901   0.307   5.306  1.2188  2.2333 -1.9585
 6350TIP3   OH219013   2.913   3.779   0.706  0.1244 -0.2294  0.1777
 6350TIP3    H119014   2.959   3.792   0.623 -1.1860  0.4042 -0.4938
 6350TIP3    H219015   2.940   3.692   0.736 -1.9134 -2.0160 -2.6574
 6351TIP3   OH219016   3.237   5.153   3.189 -0.6864  0.2215  0.0953
 6351TIP3    H119017   3.246   5.142   3.283 -1.7807  1.5277  0.3753
 6351TIP3    H219018   3.149   5.121   3.168 -0.3233 -0.4045 -0.5636
 6352TIP3   OH219019   4.851   0.506   2.514 -0.1003  0.6444  0.2091
 6352TIP3    H119020   4.918   0.561   2.554  2.0037 -0.3857 -1.6886
 6352TIP3    H219021   4.838   0.542   2.427  0.1088 -0.8471 -0.4651
 6353TIP3   OH219022   5.438   4.937   2.280 -0.8624 -0.0422 -0.5830
 6353TIP3    H119023   5.443   4.887   2.361 -1.3061 -0.1907 -0.6424
 6353TIP3    H219024   5.468   4.876   2.212  2.0244  0.8545 -0.2538
 6354TIP3   OH219025   5.460   5.041   5.151  0.3979 -0.3629 -0.2914
 6354TIP3    H119026   5.449   5.135   5.167  0.3206  0.0213 -2.2354
 6354TIP3    H219027   5.442   4.999   5.235  2.5145  1.4715  1.1888
 6355TIP3   OH219028   4.633   0.702   2.580  0.7802 -0.5587 -0.1317
 6355TIP3    H119029   4.554   0.647   2.582  1.3401 -1.4623 -1.4327
 6355TIP3    H219030   4.697   0.650   2.532  1.5480  0.9772 -0.8404
 6356TIP3   OH219031   4.840   5.215   3.999 -0.0220  0.4946 -0.2754
 6356TIP3    H119032   4.860   5.282   4.064  0.3966 -0.6003  0.7409
 6356TIP3    H219033   4.829   5.265   3.917  2.2771  1.6317  0.0185
 6357TIP3   OH219034   2.911   4.522   5.750  0.3059 -0.0187  0.1999
 6357TIP3    H119035   2.967   4.510   5.673  0.7956  0.2250  0.5140
 6357TIP3    H219036   2.926   4.613   5.776 -1.4871  0.5821 -0.6957
 6358TIP3   OH219037   0.253   2.130   2.858 -0.0717 -0.1312  0.7578
 6358TIP3    H119038   0.210   2.156   2.777 -0.6134 -0.1439  1.0374
 6358TIP3    H219039   0.292   2.211   2.891  0.2313 -0.1448  0.4420
 6359TIP3   OH219040   0.479   2.254   1.363  0.2741  0.5545 -0.0710
 6359TIP3    H119041   0.541   2.319   1.329 -0.3106  1.1603  0.0196
 6359TIP3    H219042   0.395   2.299   1.364  0.1247  0.2797  1.3804
 6360TIP3   OH219043   5.114   4.931   2.270  0.1467 -0.3297  0.4830
 6360TIP3    H119044   5.019   4.923   2.284 -0.0265 -0.1292 -0.5398
 6360TIP3    H219045   5.145   4.980   2.346 -0.7248  0.4795  0.3321
 6361TIP3   OH219046   5.320   6.476   3.382  0.2027 -0.3023  0.1572
 6361TIP3    H119047   5.349   6.487   3.291 -1.0993  0.4838 -0.2008
 6361TIP3    H219048   5.294   6.384   3.388  0.1213 -0.3150 -0.3199
 6362TIP3   OH219049   5.367   0.419   4.984  0.5657 -0.2142  0.2397
 6362TIP3    H119050   5.296   0.384   5.039  0.2107 -0.7693 -0.5507
 6362TIP3    H219051   5.438   0.437   5.046  0.2983 -1.1372  0.8471
 6363TIP3   OH219052   0.449   0.962   0.779 -0.4102 -0.5444 -0.2423
 6363TIP3    H119053   0.361   0.949   0.814  0.3716  0.2365  2.2235
 6363TIP3    H219054   0.435   0.998   0.692 -2.4993 -2.0501 -0.6134
 6364TIP3   OH219055   2.019   1.634   5.475  0.2727  0.4192  0.1550
 6364TIP3    H119056   1.928   1.614   5.453  0.5632 -2.2201  0.9666
 6364TIP3    H219057   2.026   1.612   5.569  1.5900  1.1801  0.2615
 6365TIP3   OH219058   1.976   4.517   1.385 -0.1305  0.5222  0.0731
 6365TIP3    H119059   2.034   4.538   1.458 -1.0332  0.7849  0.7338
 6365TIP3    H219060   1.888   4.534   1.419 -0.7729 -1.9505 -0.1640
 6366TIP3   OH219061   3.606   5.890   4.087 -0.0200  0.5712 -0.0921
 6366TIP3    H119062   3.577   5.951   4.154  0.2267  1.6173 -0.9109
 6366TIP3    H219063   3.560   5.918   4.007  0.1383 -0.2813 -0.4951
 6367TIP3   OH219064   5.588   1.179   2.448 -0.0055 -0.0011 -0.2557
 6367TIP3    H119065   5.596   1.117   2.375 -0.2902 -1.5408  0.9836
 6367TIP3    H219066   5.655   1.151   2.510 -1.6368 -0.4971  1.3294
 6368TIP3   OH219067   5.641   6.484   3.833 -0.5393 -0.1637  0.4551
 6368TIP3    H119068   5.572   6.423   3.859 -0.5205 -0.7154 -0.7545
 6368TIP3    H219069   5.598   6.547   3.776 -0.1087 -0.3363 -0.0679
 6369TIP3   OH219070   3.564   5.635   4.223  0.4368  0.4203 -0.5362
 6369TIP3    H119071   3.570   5.723   4.186  2.0418  0.6806  0.2822
 6369TIP3    H219072   3.616   5.581   4.165  2.8380  0.8022  1.1216
 6370TIP3   OH219073   5.730   5.019   4.369 -0.0392 -0.1158 -0.4527
 6370TIP3    H119074   5.724   4.930   4.336  0.8886 -0.0569 -0.7893
 6370TIP3    H219075   5.675   5.070   4.310 -0.1071 -0.3637 -0.6056
 6371TIP3   OH219076   0.519   5.938   0.711 -0.6324 -0.3271  0.4927
 6371TIP3    H119077   0.582   5.972   0.775 -0.1021 -0.0506 -0.1672
 6371TIP3    H219078   0.570   5.926   0.631 -1.4625  0.0658 -0.1037
 6372TIP3   OH219079   1.078   4.488   1.578  0.0116 -0.2099 -0.2405
 6372TIP3    H119080   1.117   4.432   1.645  0.9032  0.5607 -0.0991
 6372TIP3    H219081   1.053   4.427   1.508 -1.3697 -1.0729  0.9578
 6373TIP3   OH219082   0.172   2.628   5.369 -0.3823 -0.0943  0.0729
 6373TIP3    H119083   0.183   2.720   5.393 -1.3535  0.1189 -0.2535
 6373TIP3    H219084   0.261   2.594   5.366  0.1671  1.3070 -1.6147
 6374TIP3   OH219085   3.387   0.514   4.965 -0.1898  0.6788 -0.2322
 6374TIP3    H119086   3.348   0.536   5.050 -0.4511 -0.8700  0.0897
 6374TIP3    H219087   3.481   0.510   4.983 -0.2605  0.1347  0.0603
 6375TIP3   OH219088   3.696   2.522   4.489  0.4851  0.9334  0.1238
 6375TIP3    H119089   3.769   2.473   4.451  1.3462  0.5689  2.1081
 6375TIP3    H219090   3.670   2.470   4.565 -2.3249  0.7012 -0.8908
 6376TIP3   OH219091   2.157   3.156   2.151 -0.1698 -0.2450 -0.0121
 6376TIP3    H119092   2.191   3.213   2.081  0.3242  0.5259  0.8328
 6376TIP3    H219093   2.063   3.170   2.149  0.0030  1.3612  0.7712
 6377TIP3   OH219094   3.091   6.140   2.206  0.3505  0.1761  0.5198
 6377TIP3    H119095   3.042   6.181   2.277 -1.6244  0.5861 -0.9713
 6377TIP3    H219096   3.049   6.174   2.126  0.8810 -2.1110 -0.8218
 6378TIP3   OH219097   2.136   5.384   1.987  0.5920  0.1868 -0.3926
 6378TIP3    H119098   2.118   5.331   1.910  0.1273 -1.6629  0.9200
 6378TIP3    H219099   2.201   5.334   2.036  0.5988  1.1364  0.6153
 6379TIP3   OH219100   4.157   5.049   4.434  0.1151  0.1974  0.4399
 6379TIP3    H119101   4.252   5.055   4.437  0.0883  0.3179  1.3633
 6379TIP3    H219102   4.126   5.113   4.499 -0.5873  0.0071  0.3100
 6380TIP3   OH219103   0.446   2.831   0.888 -0.4349  0.0034 -0.2481
 6380TIP3    H119104   0.505   2.756   0.889 -0.3368  0.0744 -0.6230
 6380TIP3    H219105   0.399   2.825   0.805 -1.7973 -0.6936  0.5306
 6381TIP3   OH219106   3.624   5.176   3.328 -0.2979 -0.3811 -0.5406
 6381TIP3    H119107   3.709   5.189   3.285  0.2195 -0.2603  0.4839
 6381TIP3    H219108   3.610   5.256   3.378 -2.7143  1.1757 -3.3983
 6382TIP3   OH219109   6.621   5.135   2.176 -0.0330 -0.0751  0.1138
 6382TIP3    H119110   6.559   5.136   2.249  0.9649 -3.2429  1.1702
 6382TIP3    H219111   6.693   5.192   2.205 -0.6189  0.4091  0.6468
 6383TIP3   OH219112   4.564   6.168   5.108 -0.3579 -0.2625  0.3474
 6383TIP3    H119113   4.539   6.260   5.099  0.4865  0.1794  2.1615
 6383TIP3    H219114   4.494   6.120   5.063 -0.9982  1.2310 -0.3207
 6384TIP3   OH219115   0.404   0.579   4.892 -0.3274  0.2683  0.1735
 6384TIP3    H119116   0.419   0.536   4.976 -0.7386 -0.7537 -0.2652
 6384TIP3    H219117   0.482   0.559   4.840  0.4590  1.8647  0.6742
 6385TIP3   OH219118   6.072   1.368   0.766 -0.1822 -0.4188 -0.0947
 6385TIP3    H119119   6.161   1.404   0.769 -0.6447  0.8116 -0.6589
 6385TIP3    H219120   6.059   1.343   0.675 -0.3967 -0.6317 -0.0063
 6386TIP3   OH219121   6.530   1.174   3.980 -0.1592 -0.8881 -0.2037
 6386TIP3    H119122   6.592   1.245   4.000  0.6449 -1.6609  0.0931
 6386TIP3    H219123   6.563   1.099   4.028 -1.3917 -1.3040  0.0409
 6387TIP3   OH219124   4.758   0.583   2.273  0.6565  0.3175  0.2506
 6387TIP3    H119125   4.678   0.531   2.280  0.8501  0.1308  1.1573
 6387TIP3    H219126   4.736   0.653   2.211  0.4555 -0.9467 -1.1720
 6388TIP3   OH219127   4.921   1.896   4.840 -0.2930 -0.0097  0.6376
 6388TIP3    H119128   4.889   1.806   4.842  1.0086 -0.5080  0.1071
 6388TIP3    H219129   4.994   1.895   4.779  0.3317  1.2148  1.3051
 6389TIP3   OH219130   3.937   0.813   0.465 -0.0691 -0.2653 -0.3465
 6389TIP3    H119131   3.861   0.851   0.423  0.6012  1.3704 -0.1618
 6389TIP3    H219132   3.926   0.833   0.558  0.1401 -0.8280 -0.1935
 6390TIP3   OH219133   3.628   6.176   2.839  0.1751  0.3747  0.6785
 6390TIP3    H119134   3.608   6.248   2.778 -0.7040 -0.1035  0.3807
 6390TIP3    H219135   3.575   6.196   2.916 -0.7836 -0.4047  0.2501
 6391TIP3   OH219136   3.785   3.095   3.226  0.0774  0.5111 -0.4304
 6391TIP3    H119137   3.813   3.092   3.135  1.4260  3.4992 -0.2115
 6391TIP3    H219138   3.689   3.095   3.222  0.0034 -2.4880 -1.5692
 6392TIP3   OH219139   2.857   5.203   5.757  0.4026  0.2377 -0.2372
 6392TIP3    H119140   2.773   5.250   5.760  0.6739  0.6842  1.1344
 6392TIP3    H219141   2.839   5.120   5.800  0.9084  0.7731  1.0377
 6393TIP3   OH219142   5.928   0.324   0.705 -0.5031  0.4391  0.1121
 6393TIP3    H119143   5.984   0.395   0.736 -0.8747  0.4052  0.8830
 6393TIP3    H219144   5.958   0.307   0.616 -0.4535  1.6105 -0.1119
 6394TIP3   OH219145   2.222   4.120   3.075 -0.1762 -0.1468 -0.1856
 6394TIP3    H119146   2.304   4.111   3.027 -0.5917  2.5126 -1.5405
 6394TIP3    H219147   2.167   4.174   3.020 -1.6933  0.8217  2.1150
 6395TIP3   OH219148   2.338   0.183   3.863 -0.5374 -0.5792  0.5842
 6395TIP3    H119149   2.322   0.277   3.868  0.9679 -0.2620  0.0542
 6395TIP3    H219150   2.361   0.168   3.771  0.6801 -1.1862  0.9657
 6396TIP3   OH219151   6.870   3.167   0.722 -0.4080 -0.1110 -0.4098
 6396TIP3    H119152   6.794   3.148   0.777 -1.7512  0.9877 -1.8265
 6396TIP3    H219153   6.845   3.136   0.635  1.0727 -0.3940 -0.7621
 6397TIP3   OH219154   5.039   6.576   2.385  0.5486  0.0382 -0.1258
 6397TIP3    H119155   4.951   6.541   2.373  0.8854 -0.6586 -0.5583
 6397TIP3    H219156   5.070   6.534   2.465  0.1689  0.9552  0.5281
 6398TIP3   OH219157   2.365   3.885   2.024 -0.1568  0.5642  0.5021
 6398TIP3    H119158   2.361   3.950   2.094 -2.2627  1.2628 -0.1807
 6398TIP3    H219159   2.360   3.936   1.943  1.4446 -0.2747 -0.1700
 6399TIP3   OH219160   0.161   5.693   0.986 -0.2476  0.2232  0.0775
 6399TIP3    H119161   0.103   5.702   0.910 -0.1138  0.9883  0.0548
 6399TIP3    H219162   0.244   5.732   0.957 -0.5574  1.6315  0.9955
 6400TIP3   OH219163   2.328   4.952   2.642  0.3632  0.2211  0.8797
 6400TIP3    H119164   2.350   5.045   2.647  1.1232  0.1386 -0.4955
 6400TIP3    H219165   2.376   4.919   2.566  1.8163 -1.7769  2.5439
 6401TIP3   OH219166   5.616   2.477   1.921 -0.2110  0.4535  0.2773
 6401TIP3    H119167   5.680   2.548   1.929  0.3469 -0.0916  0.8653
 6401TIP3    H219168   5.555   2.491   1.994 -0.8665  1.0626 -0.3760
 6402TIP3   OH219169   0.162   4.286   1.327 -0.5069  0.0457  1.0034
 6402TIP3    H119170   0.239   4.316   1.281  1.1823 -4.3266  0.5140
 6402TIP3    H219171   0.187   4.286   1.420 -0.1377 -0.7298  0.9083
 6403TIP3   OH219172   3.644   6.654   5.547  0.2970  0.4167  0.3625
 6403TIP3    H119173   3.552   6.676   5.561  0.2091  0.9352 -0.9125
 6403TIP3    H219174   3.690   6.738   5.546  0.3664  0.4077 -1.6996
 6404TIP3   OH219175   3.768   3.972   3.468  0.2186 -0.0488 -0.6410
 6404TIP3    H119176   3.834   3.923   3.419  0.2539 -1.6475  0.8934
 6404TIP3    H219177   3.815   4.007   3.544 -0.7482 -1.9665  0.9602
 6405TIP3   OH219178   1.987   4.388   5.467  0.4088 -0.3190  0.3315
 6405TIP3    H119179   2.039   4.382   5.386 -0.8425  0.7161 -0.5772
 6405TIP3    H219180   2.052   4.394   5.536  1.5298  0.6034 -0.7500
 6406TIP3   OH219181   2.734   6.704   3.282  0.3393  0.0546  0.1377
 6406TIP3    H119182   2.692   6.781   3.320  1.9414  1.9389 -1.6343
 6406TIP3    H219183   2.756   6.649   3.357 -1.6279  0.8794  1.3939
 6407TIP3   OH219184   3.968   6.065   1.275 -0.2834 -0.2378  0.3306
 6407TIP3    H119185   4.019   6.111   1.341 -1.4041  0.6261  0.6211
 6407TIP3    H219186   3.902   6.129   1.246 -0.9033 -1.1604 -0.3640
 6408TIP3   OH219187   4.818   5.364   0.766  0.0871  0.5788  1.0706
 6408TIP3    H119188   4.877   5.328   0.700  0.0707  0.2854  1.2153
 6408TIP3    H219189   4.859   5.446   0.792 -1.3765  2.2716 -1.4538
 6409TIP3   OH219190   1.886   4.584   5.883 -0.2703  0.0131  0.5134
 6409TIP3    H119191   1.953   4.621   5.825 -0.4343  0.0271  0.3337
 6409TIP3    H219192   1.878   4.647   5.954 -0.5367  0.3160  0.2168
 6410TIP3   OH219193   4.664   5.344   2.102  0.1276  0.5696  0.3119
 6410TIP3    H119194   4.669   5.254   2.135  0.7004 -0.6724 -2.7798
 6410TIP3    H219195   4.571   5.367   2.111 -0.0198 -0.2991  1.2169
 6411TIP3   OH219196   6.694   5.892   0.791  0.2367 -0.1767  0.0883
 6411TIP3    H119197   6.624   5.839   0.753  0.0538 -0.4467  0.7868
 6411TIP3    H219198   6.769   5.878   0.733 -0.6274  1.1479 -1.4263
 6412TIP3   OH219199   4.839   5.908   5.889  0.0446 -0.1501  0.0412
 6412TIP3    H119200   4.845   5.853   5.811 -1.7268  0.7390 -0.8014
 6412TIP3    H219201   4.797   5.852   5.955  1.9725 -1.0550  0.5732
 6413TIP3   OH219202   1.409   2.495   1.678  0.0154 -0.1313 -0.4700
 6413TIP3    H119203   1.348   2.540   1.620 -0.7244 -0.2379  0.1943
 6413TIP3    H219204   1.492   2.542   1.668 -1.0341  2.2271  1.1231
 6414TIP3   OH219205   6.411   4.165   4.818 -0.3604 -0.3965 -0.0137
 6414TIP3    H119206   6.332   4.203   4.780  1.2635  1.1543 -2.0682
 6414TIP3    H219207   6.411   4.194   4.909 -1.0005  1.5486 -0.5940
 6415TIP3   OH219208   0.860   0.852   0.135 -0.3002  0.4373 -0.4981
 6415TIP3    H119209   0.870   0.835   0.229 -0.4160  1.0859 -0.3643
 6415TIP3    H219210   0.800   0.784   0.105  1.6376 -1.3331 -0.6138
 6416TIP3   OH219211   6.398   4.851   2.775 -0.2014 -0.0808  0.5500
 6416TIP3    H119212   6.486   4.885   2.765  0.3261 -1.6386 -0.4560
 6416TIP3    H219213   6.396   4.816   2.864 -0.4189  1.5366  1.2184
 6417TIP3   OH219214   1.350   5.210   4.824 -0.3267 -0.6965  0.2670
 6417TIP3    H119215   1.399   5.233   4.903  0.5466 -2.2088  0.2024
 6417TIP3    H219216   1.417   5.187   4.760 -1.0437  0.0924 -0.7986
 6418TIP3   OH219217   0.502   5.725   1.767 -0.4352  0.0150 -0.0634
 6418TIP3    H119218   0.571   5.663   1.792 -0.7084  0.2574  1.3704
 6418TIP3    H219219   0.431   5.669   1.735  0.3717 -0.2359 -1.5446
 6419TIP3   OH219220   6.226   0.047   5.582  0.4225 -0.2993  0.1875
 6419TIP3    H119221   6.243   0.110   5.651  0.4330 -1.2345  1.0604
 6419TIP3    H219222   6.293  -0.020   5.593 -0.2675 -1.0363 -0.0084
 6420TIP3   OH219223   5.160   6.450   5.691  0.1816 -0.4608 -0.4911
 6420TIP3    H119224   5.119   6.395   5.757  1.5627 -0.6716  0.2335
 6420TIP3    H219225   5.212   6.389   5.638  3.1853  0.2212  1.4174
 6421TIP3   OH219226   4.367   6.029   3.682 -0.0929  0.4600 -0.8683
 6421TIP3    H119227   4.317   6.008   3.603  0.9808 -1.2154 -1.1515
 6421TIP3    H219228   4.442   6.081   3.650  0.4509 -0.3903 -1.0001
 6422TIP3   OH219229   0.551   4.073   3.544  0.2025  1.0071 -0.4779
 6422TIP3    H119230   0.622   4.049   3.604 -0.2511  0.9599  0.0571
 6422TIP3    H219231   0.587   4.060   3.457  0.6307  0.3459 -0.2073
 6423TIP3   OH219232   1.442   5.515   3.333 -0.2043 -0.2826 -0.3377
 6423TIP3    H119233   1.520   5.461   3.349 -0.1775 -0.8422 -2.1166
 6423TIP3    H219234   1.370   5.466   3.374  0.1615 -0.4667  0.0985
 6424TIP3   OH219235   1.659   0.197   4.645 -0.6669  0.0995  0.5846
 6424TIP3    H119236   1.751   0.172   4.641 -0.5977 -0.0488  2.3126
 6424TIP3    H219237   1.660   0.293   4.648 -0.5567  0.0975  0.6257
 6425TIP3   OH219238   0.596   2.397   0.662  0.1388  0.2881 -0.0317
 6425TIP3    H119239   0.640   2.317   0.635  0.9526  0.8258 -0.3418
 6425TIP3    H219240   0.503   2.373   0.667  0.6129 -1.3493  2.4045
 6426TIP3   OH219241   4.605   2.875   2.259 -0.2719  0.9387  0.2636
 6426TIP3    H119242   4.518   2.876   2.219 -0.5256  0.0978  0.7811
 6426TIP3    H219243   4.662   2.838   2.192 -0.3158  1.4302 -0.0521
 6427TIP3   OH219244   2.214   2.605   4.220 -0.5819 -0.4768  0.1638
 6427TIP3    H119245   2.304   2.605   4.252 -0.6890 -0.5647  0.4758
 6427TIP3    H219246   2.171   2.677   4.267 -0.6733 -0.4335  0.0155
 6428TIP3   OH219247   1.566   4.459   0.513  0.2350  0.4653 -0.5586
 6428TIP3    H119248   1.636   4.419   0.565  0.1152  0.7111 -0.2048
 6428TIP3    H219249   1.607   4.535   0.472  0.8143 -0.6975 -2.2558
 6429TIP3   OH219250   2.680   2.139   2.974 -0.5391 -0.0459 -0.2539
 6429TIP3    H119251   2.609   2.076   2.973 -1.0192  0.4940 -0.5059
 6429TIP3    H219252   2.731   2.117   3.053 -0.3251 -1.1461 -0.6816
 6430TIP3   OH219253   0.680   6.526   3.370  0.0436  0.4876 -0.0283
 6430TIP3    H119254   0.684   6.570   3.455  2.2736  0.2868  0.0425
 6430TIP3    H219255   0.668   6.433   3.392 -0.8766  0.5939 -0.0267
 6431TIP3   OH219256   1.179   3.542   3.964  0.2125 -0.3865 -0.0155
 6431TIP3    H119257   1.256   3.552   3.907 -0.0521  0.2887 -0.2664
 6431TIP3    H219258   1.111   3.594   3.921  0.6214  2.0001  2.0318
 6432TIP3   OH219259   1.486   5.600   0.735 -0.1444 -1.0399  0.3333
 6432TIP3    H119260   1.429   5.605   0.659  0.3459 -1.5365 -0.0685
 6432TIP3    H219261   1.526   5.514   0.731  1.7075 -0.2073 -0.1801
 6433TIP3   OH219262   3.144   0.401   3.187  0.3030 -0.5288 -0.6197
 6433TIP3    H119263   3.069   0.456   3.165  0.4192 -0.2225 -0.2763
 6433TIP3    H219264   3.220   0.448   3.151  0.5811  0.3587  0.9774
 6434TIP3   OH219265   5.162   1.965   4.666 -0.2314 -0.8175  0.4703
 6434TIP3    H119266   5.154   1.954   4.571 -0.5438 -1.4614  0.5681
 6434TIP3    H219267   5.252   1.997   4.678  0.0946 -1.5431  0.0210
 6435TIP3   OH219268   3.777   1.334   3.319 -0.5365 -0.3300  0.8825
 6435TIP3    H119269   3.742   1.314   3.406 -1.4445 -0.7547  0.4305
 6435TIP3    H219270   3.716   1.399   3.283  0.3833  0.5944  0.9327
 6436TIP3   OH219271   2.173   6.682   3.415  0.5024 -0.7721  0.0496
 6436TIP3    H119272   2.121   6.655   3.339  0.3720  1.2212 -0.6224
 6436TIP3    H219273   2.263   6.688   3.382  0.6144 -0.8876  0.3277
 6437TIP3   OH219274   5.822   3.438   4.595 -0.4078  0.1725  0.0801
 6437TIP3    H119275   5.815   3.379   4.520 -1.0893 -0.4352  0.5986
 6437TIP3    H219276   5.848   3.522   4.558  0.3607 -0.3952 -0.7033
 6438TIP3   OH219277   6.881   4.315   1.732 -0.6272 -0.3180  0.4769
 6438TIP3    H119278   6.909   4.242   1.788 -0.7881  0.1376  1.1656
 6438TIP3    H219279   6.919   4.295   1.646  0.0166 -0.7947  0.8608
 6439TIP3   OH219280   6.575   3.536   1.914  0.0394 -0.0282  0.2059
 6439TIP3    H119281   6.582   3.618   1.864  0.6671 -1.1994 -1.7612
 6439TIP3    H219282   6.542   3.563   2.000 -0.7234  2.1723 -0.6878
 6440TIP3   OH219283   3.850   3.292   1.602  0.1066  0.0220 -0.4741
 6440TIP3    H119284   3.905   3.367   1.580  0.4293 -0.1788 -0.3449
 6440TIP3    H219285   3.866   3.276   1.695 -0.8287  0.5121 -0.2130
 6441TIP3   OH219286   6.421   4.146   1.489  0.3468  0.6483 -0.1710
 6441TIP3    H119287   6.342   4.096   1.508  1.3592 -0.7565  0.5108
 6441TIP3    H219288   6.472   4.091   1.430  1.0840  1.2647 -0.1340
 6442TIP3   OH219289   4.143   4.119   0.590 -0.1512 -0.1349  0.5805
 6442TIP3    H119290   4.051   4.145   0.587  0.1429  0.8287 -1.0081
 6442TIP3    H219291   4.186   4.187   0.642  0.0073  0.6147 -0.5057
 6443TIP3   OH219292   4.594   4.789   2.076 -0.3353 -0.3537  0.4810
 6443TIP3    H119293   4.540   4.828   2.008  1.6417 -0.3733 -1.2067
 6443TIP3    H219294   4.534   4.771   2.148 -2.2270  1.0744 -0.6646
 6444TIP3   OH219295   1.701   0.289   2.495  0.0323  0.2037 -0.9478
 6444TIP3    H119296   1.753   0.345   2.438 -0.6753  0.2228 -1.5912
 6444TIP3    H219297   1.657   0.350   2.554  0.3857  0.2189 -0.6978
 6445TIP3   OH219298   1.426   3.587   3.882  0.3201 -0.4027 -0.5664
 6445TIP3    H119299   1.431   3.682   3.881  2.9214 -0.4638 -1.8672
 6445TIP3    H219300   1.463   3.560   3.798  0.2542 -2.5639  0.0365
 6446TIP3   OH219301   6.736   1.916   4.337  0.0867 -0.4820 -0.1815
 6446TIP3    H119302   6.651   1.930   4.379 -0.8219 -0.0475 -2.0526
 6446TIP3    H219303   6.718   1.850   4.269  1.6495 -1.6627  0.4933
 6447TIP3   OH219304   0.706   4.147   5.387 -0.6221  0.5610  0.1099
 6447TIP3    H119305   0.650   4.168   5.313 -2.0332  1.2020  1.3108
 6447TIP3    H219306   0.648   4.149   5.463  0.8626  0.3843  1.3059
 6448TIP3   OH219307   1.208   3.418   1.019 -0.5005 -0.4943 -0.0299
 6448TIP3    H119308   1.257   3.354   0.966  1.4271  0.9636 -0.1140
 6448TIP3    H219309   1.124   3.427   0.974 -0.5727 -2.4313 -0.3923
 6449TIP3   OH219310   2.796   5.964   2.409 -0.5600 -0.2237 -0.0958
 6449TIP3    H119311   2.756   5.957   2.323  0.3233 -0.2936 -0.5064
 6449TIP3    H219312   2.821   5.874   2.432  1.4093  0.0800 -0.8546
 6450TIP3   OH219313   0.798   6.188   5.246 -0.4476  0.4565 -0.3752
 6450TIP3    H119314   0.820   6.234   5.327 -1.1632  0.0047  0.0885
 6450TIP3    H219315   0.828   6.099   5.260  0.3329  0.6095 -1.0124
 6451TIP3   OH219316   3.240   2.409   0.848 -0.4023  0.1400  0.0091
 6451TIP3    H119317   3.251   2.503   0.837  0.2000  0.2263  1.1682
 6451TIP3    H219318   3.315   2.371   0.803 -0.1866  0.2734  0.2465
 6452TIP3   OH219319   6.791   0.010   1.457  0.1469 -0.3506  0.1240
 6452TIP3    H119320   6.711   0.062   1.454  1.3426  1.5579 -0.9073
 6452TIP3    H219321   6.847   0.056   1.519  2.6382  1.9874 -3.4618
 6453TIP3   OH219322   3.421   1.630   0.556 -0.7473  0.1260 -0.2134
 6453TIP3    H119323   3.386   1.550   0.517  0.8415 -0.5420 -0.3672
 6453TIP3    H219324   3.348   1.692   0.554 -2.1705 -1.4618  0.3629
 6454TIP3   OH219325   0.938   5.688   3.252  0.5093 -0.3492  0.5670
 6454TIP3    H119326   0.976   5.730   3.329 -1.2153  0.2417  1.1222
 6454TIP3    H219327   0.911   5.601   3.283  0.4802 -0.3895  0.4302
 6455TIP3   OH219328   5.904   1.609   0.743  0.0082 -0.0784 -0.4306
 6455TIP3    H119329   5.943   1.524   0.763  0.3567  0.2497  0.3696
 6455TIP3    H219330   5.869   1.639   0.827 -1.7945 -0.2590 -1.0753
 6456TIP3   OH219331   5.957   4.494   3.925 -0.0035  0.3518  0.4571
 6456TIP3    H119332   5.971   4.521   3.834 -0.7108 -0.1417  0.1934
 6456TIP3    H219333   5.862   4.494   3.936  0.0333 -0.5570  0.8894
 6457TIP3   OH219334   3.932   6.451   2.542  0.2261 -0.7878 -0.3070
 6457TIP3    H119335   4.019   6.467   2.506  0.3757 -2.2723 -0.7025
 6457TIP3    H219336   3.909   6.363   2.511 -0.7784 -1.0342  1.0220
 6458TIP3   OH219337   3.576   1.876   0.933 -0.5286  0.1259 -0.4165
 6458TIP3    H119338   3.569   1.968   0.909  1.6830  1.4834  3.3230
 6458TIP3    H219339   3.670   1.857   0.931 -0.8275 -1.6721  0.1247
 6459TIP3   OH219340   6.530   6.633   4.593  0.5853 -0.3192  0.3834
 6459TIP3    H119341   6.600   6.695   4.572 -0.1181  1.2968  2.4762
 6459TIP3    H219342   6.520   6.639   4.688 -1.1638 -1.8645  0.3496
 6460TIP3   OH219343   4.346   4.552   4.290  0.2145  0.1279  0.0751
 6460TIP3    H119344   4.293   4.589   4.359  0.5851 -2.7950  2.1086
 6460TIP3    H219345   4.295   4.566   4.210 -1.0921  1.9746  1.1634
 6461TIP3   OH219346   4.753   1.579   5.584  0.1445 -0.0371 -0.0812
 6461TIP3    H119347   4.743   1.484   5.580  1.1880 -0.2646  1.6879
 6461TIP3    H219348   4.780   1.604   5.495  2.1357 -1.7122 -0.0341
 6462TIP3   OH219349   0.026   5.057   1.084 -0.2045  0.6424 -0.2758
 6462TIP3    H119350   0.036   4.975   1.034  0.1206  0.1921  0.5068
 6462TIP3    H219351   0.084   5.046   1.159  0.2157  1.8109 -0.4139
 6463TIP3   OH219352   6.385   2.422   2.348 -0.0409 -0.3262 -0.2865
 6463TIP3    H119353   6.427   2.478   2.283  1.0435 -1.3940 -0.5185
 6463TIP3    H219354   6.339   2.356   2.297  0.4256 -0.8917  0.0198
 6464TIP3   OH219355   2.310   2.751   5.752  0.9449  0.0962  0.5335
 6464TIP3    H119356   2.284   2.660   5.739 -1.1805  0.4396  1.7728
 6464TIP3    H219357   2.341   2.780   5.666 -0.0260 -1.3062 -0.3388
 6465TIP3   OH219358   5.111   3.606   3.034  0.0778  0.6198  0.7287
 6465TIP3    H119359   5.034   3.574   2.986 -0.0905  2.2478 -0.1486
 6465TIP3    H219360   5.099   3.572   3.123 -0.8217 -0.4785  0.2237
 6466TIP3   OH219361   6.152   6.098   2.537  0.8098 -0.4346 -0.0645
 6466TIP3    H119362   6.067   6.128   2.504  0.0170 -2.1372  0.3165
 6466TIP3    H219363   6.130   6.034   2.605  2.3968 -1.4972 -0.4980
 6467TIP3   OH219364   3.183   0.711   3.879  0.3348 -0.2007  0.1722
 6467TIP3    H119365   3.131   0.635   3.904  0.7286 -0.4659  0.1963
 6467TIP3    H219366   3.125   0.763   3.824 -0.1477 -0.2019  0.6729
 6468TIP3   OH219367   6.852   3.955   4.571  0.3501  0.6021 -0.1668
 6468TIP3    H119368   6.944   3.970   4.593 -0.0535  0.9966  1.3754
 6468TIP3    H219369   6.839   4.003   4.489  1.4260  0.8576 -0.2070
 6469TIP3   OH219370   5.040   0.682   1.417 -0.2434  0.7817  0.6986
 6469TIP3    H119371   4.965   0.690   1.359  0.2304  1.8124  0.2126
 6469TIP3    H219372   5.037   0.761   1.471  0.2697  0.6403  0.9388
 6470TIP3   OH219373   5.920   0.206   0.975 -0.1289 -0.7402  0.4280
 6470TIP3    H119374   5.981   0.263   1.022  1.0641 -1.8997  0.3790
 6470TIP3    H219375   5.933   0.228   0.883 -1.3417  0.4612  0.5183
 6471TIP3   OH219376   1.960   5.193   4.540 -0.7830 -0.1211  0.2889
 6471TIP3    H119377   2.029   5.129   4.518 -0.5723  0.6673 -1.4727
 6471TIP3    H219378   1.898   5.143   4.593 -0.8623 -1.9561 -1.4213
 6472TIP3   OH219379   1.170   6.479   2.900 -0.0985  0.1247  0.2136
 6472TIP3    H119380   1.178   6.544   2.831  0.6500 -1.5609 -1.3577
 6472TIP3    H219381   1.119   6.523   2.968 -2.0771  1.3991 -1.9525
 6473TIP3   OH219382   4.900   1.766   3.126  0.2368  0.0673  0.0179
 6473TIP3    H119383   4.863   1.687   3.165  1.7016 -0.0361  1.3044
 6473TIP3    H219384   4.841   1.837   3.152 -0.5557 -0.4616 -0.3318
 6474TIP3   OH219385   2.462   3.389   0.791 -0.2142  0.1399 -0.8043
 6474TIP3    H119386   2.550   3.425   0.777 -0.1567  0.9663  1.3309
 6474TIP3    H219387   2.441   3.412   0.881 -2.2612 -0.8736 -0.9727
 6475TIP3   OH219388   5.428   2.315   0.637  0.2528  0.5386  0.3655
 6475TIP3    H119389   5.518   2.333   0.612  0.0737 -1.2503 -1.9447
 6475TIP3    H219390   5.435   2.271   0.722  1.5559  0.5460  0.2793
 6476TIP3   OH219391   2.968   3.408   1.754  0.2910  0.3462  0.0419
 6476TIP3    H119392   3.032   3.341   1.779 -0.1765  0.0426  0.4520
 6476TIP3    H219393   3.008   3.453   1.680  0.0361 -1.2913 -1.1529
 6477TIP3   OH219394   6.598   5.235   3.795  0.4505  0.1721  0.1412
 6477TIP3    H119395   6.615   5.232   3.701 -0.2348 -0.0094  0.0207
 6477TIP3    H219396   6.627   5.150   3.827 -0.7962 -0.3898 -0.1688
 6478TIP3   OH219397   3.905   0.364   3.488  0.3415  0.3055 -0.6110
 6478TIP3    H119398   3.960   0.331   3.418 -0.0614 -0.3865 -0.6127
 6478TIP3    H219399   3.946   0.333   3.568  0.2408  0.2229 -0.5904
 6479TIP3   OH219400   5.516   3.668   5.608 -0.1204 -0.0565  0.1582
 6479TIP3    H119401   5.450   3.723   5.565  1.5938  0.0019 -2.5913
 6479TIP3    H219402   5.533   3.597   5.546  0.4444 -1.6438  2.0179
 6480TIP3   OH219403   2.778   4.758   0.243  0.0660  0.0902 -0.5442
 6480TIP3    H119404   2.759   4.758   0.337 -0.0580  0.5137 -0.5689
 6480TIP3    H219405   2.799   4.849   0.222 -0.8973  0.1935 -1.1234
 6481TIP3   OH219406   5.995   4.967   3.666  0.2503  0.3732 -0.2786
 6481TIP3    H119407   5.929   5.036   3.668  0.1962  0.3643 -1.3752
 6481TIP3    H219408   5.945   4.886   3.680  0.2885  0.5217  0.8031
 6482TIP3   OH219409   5.553   1.511   4.264  0.0734 -0.1286  0.1493
 6482TIP3    H119410   5.615   1.545   4.330 -0.0328 -1.6693  1.0962
 6482TIP3    H219411   5.556   1.416   4.276 -3.5830 -0.2514  1.3044
 6483TIP3   OH219412   5.400   1.089   4.753 -0.5188 -0.5602 -0.6190
 6483TIP3    H119413   5.435   1.013   4.705 -0.0622 -1.0134  0.4086
 6483TIP3    H219414   5.324   1.116   4.702 -0.2141 -1.2065 -1.4481
 6484TIP3   OH219415   2.576   6.614   3.091 -0.2834 -0.2920 -0.1988
 6484TIP3    H119416   2.614   6.543   3.038 -1.7576 -1.7512  0.6070
 6484TIP3    H219417   2.650   6.647   3.143  0.4318 -1.2646 -0.5616
 6485TIP3   OH219418   0.872   4.795   2.012 -0.3332  0.4839  0.1336
 6485TIP3    H119419   0.927   4.796   1.933  0.1783 -0.2521  0.4722
 6485TIP3    H219420   0.792   4.751   1.984 -1.2449  2.4722 -0.6484
 6486TIP3   OH219421   5.725   5.781   0.285  0.1905 -0.5455  0.2839
 6486TIP3    H119422   5.644   5.829   0.300  0.1381 -0.4110 -0.3834
 6486TIP3    H219423   5.711   5.697   0.329 -0.2066 -0.4243  0.3952
 6487TIP3   OH219424   6.566   2.093   1.105  0.2803 -0.4778 -0.3993
 6487TIP3    H119425   6.584   2.016   1.051  0.7785 -0.3949 -0.3519
 6487TIP3    H219426   6.480   2.123   1.075 -0.7363 -2.0650  0.7529
 6488TIP3   OH219427   2.674   3.159   3.112  0.6649  0.5367 -0.4127
 6488TIP3    H119428   2.613   3.170   3.039  0.6325  0.1824 -0.4438
 6488TIP3    H219429   2.731   3.236   3.108  0.8748  0.3553 -1.0163
 6489TIP3   OH219430   5.187   1.701   4.747 -0.3507  0.3557  0.0561
 6489TIP3    H119431   5.155   1.666   4.664 -0.4137 -0.0382  0.2405
 6489TIP3    H219432   5.200   1.794   4.731 -0.7116  0.3503 -0.2907
 6490TIP3   OH219433   1.061   1.745   5.082 -0.4201 -0.1440 -0.4601
 6490TIP3    H119434   1.016   1.788   5.009 -0.7824  1.5133  0.6835
 6490TIP3    H219435   1.142   1.794   5.094  0.8152 -1.8824 -1.2166
 6491TIP3   OH219436   7.239   2.581   3.484 -0.4485  0.1778 -0.2716
 6491TIP3    H119437   7.191   2.636   3.422  0.5864 -0.2898 -1.5353
 6491TIP3    H219438   7.231   2.492   3.448  0.1695 -0.1032  0.2714
 6492TIP3   OH219439   1.564   0.192   2.832  0.4349 -0.1161 -0.1403
 6492TIP3    H119440   1.552   0.276   2.787 -0.9295  0.9528  2.0374
 6492TIP3    H219441   1.481   0.177   2.878  1.4734 -1.4764  1.4232
 6493TIP3   OH219442   4.406   4.126   3.969 -0.0206 -0.2075 -0.3956
 6493TIP3    H119443   4.396   4.216   4.000  0.9062 -0.0986 -0.4023
 6493TIP3    H219444   4.499   4.117   3.949 -0.4293 -0.5148 -2.4023
 6494TIP3   OH219445   3.015   3.511   4.967 -0.1502 -0.1395  0.5960
 6494TIP3    H119446   3.079   3.446   4.939 -1.2166  0.2180 -3.3795
 6494TIP3    H219447   2.946   3.460   5.009  1.6842 -0.7457  3.0713
 6495TIP3   OH219448   3.138   6.382   5.825  0.2919  0.7042 -0.2606
 6495TIP3    H119449   3.146   6.289   5.805 -0.2976 -0.1546  2.8782
 6495TIP3    H219450   3.228   6.413   5.831  0.4983  0.3159 -1.1729
 6496TIP3   OH219451   0.607   6.345   4.872 -0.3825 -0.0456 -0.6164
 6496TIP3    H119452   0.687   6.381   4.834  0.6911 -2.0603 -0.3586
 6496TIP3    H219453   0.562   6.304   4.798  0.0195 -0.9936 -0.3440
 6497TIP3   OH219454   4.321   2.737   2.484  0.8427 -0.2510 -0.1813
 6497TIP3    H119455   4.394   2.747   2.545  1.6811  0.0984 -1.2001
 6497TIP3    H219456   4.272   2.819   2.492 -0.0415 -0.8901  1.2369
 6498TIP3   OH219457   6.523   6.011   4.414  0.3303  0.1963 -0.2003
 6498TIP3    H119458   6.525   6.058   4.498 -1.7139 -0.1834  0.1169
 6498TIP3    H219459   6.574   6.066   4.354  1.5018  0.6686  1.1792
 6499TIP3   OH219460   4.693   1.545   1.474  0.2816  0.2557  0.3523
 6499TIP3    H119461   4.768   1.561   1.418 -1.5388 -1.1532 -2.7646
 6499TIP3    H219462   4.693   1.450   1.487 -1.4668  0.0907 -0.5937
 6500TIP3   OH219463   3.912   1.130   1.921  0.0134 -0.0116 -0.0083
 6500TIP3    H119464   3.982   1.180   1.879 -0.3665  0.6402  0.1229
 6500TIP3    H219465   3.835   1.143   1.864 -0.3580  0.4146  0.5816
 6501TIP3   OH219466   5.654   0.815   4.027 -0.4893 -0.0929 -0.2005
 6501TIP3    H119467   5.749   0.800   4.029 -0.7112 -2.2457 -1.8918
 6501TIP3    H219468   5.620   0.762   4.099 -0.4880 -0.3032 -0.3522
 6502TIP3   OH219469   1.741   3.333   3.253  0.0435  0.1495  0.3213
 6502TIP3    H119470   1.818   3.372   3.210 -1.0337  0.9489 -0.9888
 6502TIP3    H219471   1.675   3.329   3.184 -1.0713 -0.5986  1.3909
 6503TIP3   OH219472   1.001   0.446   3.772 -0.4236 -0.7135 -0.2056
 6503TIP3    H119473   1.064   0.377   3.750  2.1687  1.4574 -0.0897
 6503TIP3    H219474   0.989   0.437   3.867 -1.2849 -1.8865 -0.4062
 6504TIP3   OH219475   0.844   1.226   4.717 -0.2997  0.1304  0.3279
 6504TIP3    H119476   0.885   1.228   4.804  0.5629 -3.5239  0.1455
 6504TIP3    H219477   0.788   1.148   4.719  1.6188 -1.5588 -3.1128
 6505TIP3   OH219478   4.657   0.074   2.224  0.4716 -0.2400  0.8226
 6505TIP3    H119479   4.672   0.165   2.252  0.3145  0.5394 -1.3432
 6505TIP3    H219480   4.737   0.052   2.175 -0.2243 -0.5843 -0.1888
 6506TIP3   OH219481   4.949   1.279   4.714  0.5848 -0.1854  0.7317
 6506TIP3    H119482   5.039   1.247   4.724  0.0672 -2.2750 -0.6105
 6506TIP3    H219483   4.950   1.329   4.633  0.3800 -0.9398  0.2539
 6507TIP3   OH219484   0.907   3.523   0.191  0.3198  0.6207 -0.7271
 6507TIP3    H119485   0.961   3.598   0.214 -0.7476  1.1180  0.2229
 6507TIP3    H219486   0.841   3.518   0.260  1.6259 -2.4990  0.5137
 6508TIP3   OH219487   1.504   0.246   1.331  0.6729  0.4420 -0.2181
 6508TIP3    H119488   1.572   0.202   1.383  0.1652  0.3481  0.3930
 6508TIP3    H219489   1.425   0.194   1.349  0.8554 -0.8190 -2.6693
 6509TIP3   OH219490   0.645   3.196   5.653 -0.3725  0.4104  0.1941
 6509TIP3    H119491   0.622   3.102   5.652  0.6413  0.1589 -0.6289
 6509TIP3    H219492   0.610   3.228   5.736  0.5681 -1.0310  1.1799
 6510TIP3   OH219493   2.778   5.977   4.382  0.3412 -0.1718  0.1284
 6510TIP3    H119494   2.735   6.059   4.356  2.2938  1.3349  1.3395
 6510TIP3    H219495   2.779   5.924   4.303 -1.7850  0.5621 -0.4609
 6511TIP3   OH219496   3.484   1.286   2.403 -0.4688 -0.8139  0.3756
 6511TIP3    H119497   3.478   1.341   2.325 -1.5621  1.2100  1.8012
 6511TIP3    H219498   3.578   1.285   2.424 -0.4384  0.7006  0.4208
 6512TIP3   OH219499   3.602   6.779   1.599 -0.5746  0.4562 -0.4201
 6512TIP3    H119500   3.595   6.838   1.524  0.4742  1.7025  0.4403
 6512TIP3    H219501   3.511   6.760   1.623 -1.0375  3.4110  0.5697
 6513TIP3   OH219502   7.058   6.054   1.135  0.0347 -0.1398 -0.7551
 6513TIP3    H119503   7.065   6.109   1.213  0.1847 -0.6233 -0.4194
 6513TIP3    H219504   7.084   5.967   1.166 -0.8174 -0.5305 -1.1263
 6514TIP3   OH219505   6.081   3.075   4.119 -0.0203  0.4457  0.5799
 6514TIP3    H119506   6.008   3.014   4.124 -1.0021  0.9089 -3.7202
 6514TIP3    H219507   6.156   3.027   4.155 -1.3362 -2.2044  0.0309
 6515TIP3   OH219508   5.862   2.739   4.115 -0.5584  0.0234 -0.1327
 6515TIP3    H119509   5.872   2.784   4.031 -2.4612  0.5846 -0.1178
 6515TIP3    H219510   5.798   2.670   4.097 -0.2358 -0.4880  0.6336
 6516TIP3   OH219511   5.211   0.703   5.599  0.1285  0.5624 -0.9531
 6516TIP3    H119512   5.154   0.762   5.549  0.8304  0.1436 -2.2929
 6516TIP3    H219513   5.180   0.711   5.689 -1.6014  0.8804 -1.5309
 6517TIP3   OH219514   3.957   4.923   1.371  0.3096  0.3089  0.8448
 6517TIP3    H119515   3.889   4.856   1.373  0.4823  0.1247  0.6380
 6517TIP3    H219516   3.913   5.003   1.399 -0.8966  0.9889 -2.4639
 6518TIP3   OH219517   6.792   4.554   3.870 -0.7577 -0.2383 -0.5604
 6518TIP3    H119518   6.709   4.592   3.898 -1.1644  0.4322 -2.5057
 6518TIP3    H219519   6.801   4.581   3.779  0.9901 -1.3648 -0.7708
 6519TIP3   OH219520   1.414   4.005   5.362 -0.1631  0.2611  0.3797
 6519TIP3    H119521   1.438   3.930   5.416  1.2352  0.5774  0.2441
 6519TIP3    H219522   1.332   4.036   5.399 -0.6059 -1.1353  0.6375
 6520TIP3   OH219523   1.165   5.327   1.451  0.4287  0.5171 -0.0140
 6520TIP3    H119524   1.072   5.308   1.440  0.1304  2.1428 -0.5820
 6520TIP3    H219525   1.179   5.322   1.546 -0.7589  2.3380  0.3153
 6521TIP3   OH219526   1.847   1.770   0.269 -0.3994  0.1876 -0.4168
 6521TIP3    H119527   1.855   1.716   0.347 -0.5200  0.4821 -0.1989
 6521TIP3    H219528   1.931   1.816   0.263 -0.0508 -0.5028 -0.9650
 6522TIP3   OH219529   5.557   4.402   4.206  1.0993 -0.0512  0.5017
 6522TIP3    H119530   5.645   4.381   4.239  1.3759  0.5128  0.1270
 6522TIP3    H219531   5.516   4.317   4.192  2.5326 -0.4297 -1.8896
 6523TIP3   OH219532   7.030   5.609   0.759 -0.1783  0.1973 -0.0591
 6523TIP3    H119533   6.982   5.527   0.747  1.7409 -0.9912 -0.0745
 6523TIP3    H219534   7.091   5.612   0.686  0.5526  1.0462  0.5649
 6524TIP3   OH219535   1.764   2.182   0.099  0.5434  0.1906  0.4405
 6524TIP3    H119536   1.830   2.246   0.127  0.9080 -0.0595  0.1667
 6524TIP3    H219537   1.812   2.121   0.043  0.2649 -0.5022  0.9398
 6525TIP3   OH219538   6.056   1.093   0.396 -0.5547 -0.2469  0.3718
 6525TIP3    H119539   6.003   1.013   0.392  0.1113 -0.7560  1.3478
 6525TIP3    H219540   6.146   1.064   0.381 -0.3518  0.3698  0.3675
 6526TIP3   OH219541   0.483   1.810   3.973  0.3579 -0.0006  0.1633
 6526TIP3    H119542   0.534   1.756   3.912 -0.1077 -0.8334  0.4996
 6526TIP3    H219543   0.486   1.898   3.936  0.5879 -0.3836 -0.7406
 6527TIP3   OH219544   2.918   3.665   3.871  0.3891 -0.3846  0.4795
 6527TIP3    H119545   2.920   3.649   3.776 -1.7675  0.1824  0.2964
 6527TIP3    H219546   2.899   3.579   3.909 -2.8193  0.0200  0.0562
 6528TIP3   OH219547   2.229   0.720   1.672  0.5819 -0.6489  0.3623
 6528TIP3    H119548   2.314   0.676   1.669  0.5386 -0.7127  0.0604
 6528TIP3    H219549   2.250   0.812   1.683  0.7544 -0.4471 -1.3418
 6529TIP3   OH219550   4.680   2.611   4.454  0.2449  0.0652 -0.1087
 6529TIP3    H119551   4.758   2.665   4.467  0.9800 -0.7683 -0.9074
 6529TIP3    H219552   4.613   2.652   4.509  1.6987 -0.2335  2.0032
 6530TIP3   OH219553   1.492   3.505   0.692 -0.2683 -0.7974 -0.3089
 6530TIP3    H119554   1.440   3.585   0.707 -0.4202 -0.7659 -1.0073
 6530TIP3    H219555   1.452   3.464   0.616  0.4356 -1.0274 -0.5625
 6531TIP3   OH219556   4.483   6.262   4.820 -0.2370  0.0066 -0.2104
 6531TIP3    H119557   4.422   6.241   4.891 -0.3476  0.7493 -0.0805
 6531TIP3    H219558   4.428   6.275   4.743 -0.2668  0.7947 -0.0674
 6532TIP3   OH219559   5.202   1.999   0.515  0.0981 -0.3024  0.2305
 6532TIP3    H119560   5.125   2.033   0.470  0.0264 -1.0522 -0.2179
 6532TIP3    H219561   5.276   2.020   0.458  0.6268  2.6678  1.7702
 6533TIP3   OH219562   6.924   4.446   5.214 -0.2295  0.1097 -0.3719
 6533TIP3    H119563   7.005   4.486   5.183  0.3205 -1.9066 -1.7898
 6533TIP3    H219564   6.923   4.464   5.308  1.0620  1.4865 -0.5758
 6534TIP3   OH219565   3.511   1.578   1.465 -0.5649  0.0712  0.2398
 6534TIP3    H119566   3.436   1.637   1.455 -0.2131  0.4211 -0.5002
 6534TIP3    H219567   3.483   1.513   1.528 -2.1947 -0.9169 -1.4043
 6535TIP3   OH219568   5.590   0.484   5.548  0.1668 -0.1650 -0.2186
 6535TIP3    H119569   5.680   0.498   5.575  0.6110 -1.0120 -1.1907
 6535TIP3    H219570   5.569   0.396   5.581 -1.0667  0.8403  1.9046
 6536TIP3   OH219571   6.381   5.265   1.176  0.1458 -0.0725  0.4209
 6536TIP3    H119572   6.413   5.344   1.134 -0.9297 -0.4193 -1.1393
 6536TIP3    H219573   6.436   5.195   1.142  1.2983 -0.0089  2.0340
 6537TIP3   OH219574   1.457   3.461   4.315 -0.1205  0.9566  0.5303
 6537TIP3    H119575   1.550   3.465   4.334 -0.1339  1.0924  0.5717
 6537TIP3    H219576   1.415   3.494   4.395 -0.2193  0.5318  0.6550
 6538TIP3   OH219577   4.023   0.435   4.036 -0.0774 -0.5053  0.0578
 6538TIP3    H119578   3.999   0.362   3.979  0.0635 -1.0252  0.6553
 6538TIP3    H219579   4.099   0.475   3.993  0.0179 -0.8855 -0.1306
 6539TIP3   OH219580   4.452   1.316   4.440 -0.1104 -0.4212 -0.5824
 6539TIP3    H119581   4.359   1.305   4.463  0.1951 -1.8737  0.1258
 6539TIP3    H219582   4.498   1.269   4.509  1.1497  0.1473 -1.0236
 6540TIP3   OH219583   7.002   3.535   2.370  0.1718  0.4348 -0.8758
 6540TIP3    H119584   6.987   3.608   2.308 -0.5192  1.3901  0.3675
 6540TIP3    H219585   6.997   3.576   2.456  0.2371 -1.0272 -0.1555
 6541TIP3   OH219586   6.130   5.312   5.783 -0.2661  0.2611  0.1230
 6541TIP3    H119587   6.084   5.357   5.853  2.0771  3.3100 -0.0674
 6541TIP3    H219588   6.221   5.307   5.813 -0.1190 -3.3375 -0.4903
 6542TIP3   OH219589   2.718   4.923   5.859  0.5315 -0.0489  0.0184
 6542TIP3    H119590   2.668   4.963   5.930  1.5558  1.1529  0.0935
 6542TIP3    H219591   2.652   4.897   5.795 -0.2613  0.5933  0.5497
 6543TIP3   OH219592   6.301   1.303   2.794  0.8340  0.4530  0.2852
 6543TIP3    H119593   6.353   1.234   2.752 -0.8476 -0.5531 -0.2346
 6543TIP3    H219594   6.357   1.336   2.864  1.5418 -1.7485  0.8339
 6544TIP3   OH219595   6.087   1.017   3.394 -0.6583  0.3274  0.1467
 6544TIP3    H119596   6.028   0.969   3.336 -1.3970  2.3511 -0.8705
 6544TIP3    H219597   6.056   0.997   3.482 -0.7238 -1.2763 -0.2108
 6545TIP3   OH219598   3.754   5.526   4.057 -0.0048 -0.4357  0.7415
 6545TIP3    H119599   3.818   5.513   4.128  0.9782 -0.6211 -0.1571
 6545TIP3    H219600   3.800   5.579   3.993 -1.8594  2.3086  1.5085
 6546TIP3   OH219601   6.248   2.638   3.766 -0.5694  0.5362  0.1369
 6546TIP3    H119602   6.231   2.585   3.688  0.6401  0.8301 -0.3482
 6546TIP3    H219603   6.266   2.575   3.835 -0.1343  0.2948 -0.1959
 6547TIP3   OH219604   6.060   2.625   0.291  0.5526 -0.1559  0.2130
 6547TIP3    H119605   5.981   2.576   0.270  0.0497  1.6282 -2.5147
 6547TIP3    H219606   6.127   2.591   0.232  0.7957  0.8621 -0.1250
 6548TIP3   OH219607   1.429   4.960   4.391 -0.5514  0.2422 -0.2541
 6548TIP3    H119608   1.403   5.014   4.465  0.4174  0.7365 -0.2515
 6548TIP3    H219609   1.523   4.975   4.382 -0.1486 -1.7499 -0.0087
 6549TIP3   OH219610   1.187   6.222   1.185  0.0655 -0.4936  0.7183
 6549TIP3    H119611   1.179   6.265   1.270 -0.0763  0.1666  0.3775
 6549TIP3    H219612   1.131   6.145   1.192 -0.3924 -0.1404  1.0278
 6550TIP3   OH219613   2.592   2.274   4.899 -0.0595 -0.2946 -0.2571
 6550TIP3    H119614   2.568   2.362   4.871  0.0613 -0.3988 -0.6917
 6550TIP3    H219615   2.578   2.220   4.821  1.1846 -0.4339 -0.3905
 6551TIP3   OH219616   3.360   1.656   1.766  0.0810 -0.0965  0.1770
 6551TIP3    H119617   3.439   1.683   1.815  0.7861  0.0640 -1.0061
 6551TIP3    H219618   3.288   1.694   1.815  0.6109 -1.3614  2.0564
 6552TIP3   OH219619   6.968   0.006   3.292 -0.5145  0.5956  0.3253
 6552TIP3    H119620   6.963   0.037   3.201 -1.4043 -1.2727 -0.3049
 6552TIP3    H219621   7.056  -0.032   3.299 -1.2878 -1.4736 -0.5574
 6553TIP3   OH219622   5.041   6.244   2.298 -0.4310 -0.3061  0.5057
 6553TIP3    H119623   4.967   6.294   2.332 -1.7762 -2.4092  0.8106
 6553TIP3    H219624   5.118   6.292   2.328 -1.6217  0.3804  2.6345
 6554TIP3   OH219625   6.057   6.106   0.219 -0.2213 -0.2788  0.0183
 6554TIP3    H119626   6.104   6.028   0.247  1.2244  0.2187 -0.9317
 6554TIP3    H219627   6.014   6.137   0.299  0.4020 -1.2012  0.7397
 6555TIP3   OH219628   5.823   3.942   4.597 -0.2154  0.1287  0.0097
 6555TIP3    H119629   5.760   3.999   4.554 -1.5517 -0.5879  0.9666
 6555TIP3    H219630   5.799   3.944   4.690  2.9160  2.0458  0.9471
 6556TIP3   OH219631   5.159   1.230   1.876  0.3819 -0.0831 -0.8117
 6556TIP3    H119632   5.232   1.250   1.817  0.4567  1.1721 -0.3194
 6556TIP3    H219633   5.189   1.259   1.962  0.1759 -1.6688 -0.1748
 6557TIP3   OH219634   0.638   3.265   1.260  0.3161  0.2477 -0.2303
 6557TIP3    H119635   0.683   3.296   1.339  0.5401 -0.8017  0.0709
 6557TIP3    H219636   0.557   3.225   1.293  0.5081 -0.3788 -0.5062
 6558TIP3   OH219637   5.683   5.237   2.205  0.2261  0.6488  0.0316
 6558TIP3    H119638   5.592   5.253   2.228  0.0148 -0.5701  0.1051
 6558TIP3    H219639   5.688   5.143   2.188  1.0841  0.9681 -1.7373
 6559TIP3   OH219640   0.480   5.057   1.578 -0.2991  0.5348  0.1835
 6559TIP3    H119641   0.422   4.992   1.538 -0.0853  0.0343  0.6763
 6559TIP3    H219642   0.558   5.008   1.603  0.7243  1.3541 -1.2425
 6560TIP3   OH219643   1.739   4.158   1.168 -0.1053 -0.1245  0.2408
 6560TIP3    H119644   1.818   4.116   1.134  0.9577  2.2542 -0.4414
 6560TIP3    H219645   1.739   4.245   1.128 -2.2261  0.5234  1.4923
 6561TIP3   OH219646   1.838   3.609   0.199  0.3773 -0.4845  0.0560
 6561TIP3    H119647   1.786   3.570   0.128 -0.0663  1.3136 -0.6568
 6561TIP3    H219648   1.794   3.580   0.279 -1.7585  0.8888 -0.5200
 6562TIP3   OH219649   1.034   4.767   1.133  0.7154 -0.2970 -1.1173
 6562TIP3    H119650   1.104   4.785   1.196 -0.7712  0.3522  0.4288
 6562TIP3    H219651   0.987   4.850   1.124 -3.1399 -1.7738  2.1561
 6563TIP3   OH219652   4.931   3.007   0.832 -0.3486 -0.1631  0.2886
 6563TIP3    H119653   4.965   2.997   0.744  1.6759  0.0697  0.9906
 6563TIP3    H219654   4.874   3.084   0.827  0.3091  0.2805 -0.6601
 6564TIP3   OH219655   1.434   0.110   0.975 -0.1297 -0.2316 -0.0684
 6564TIP3    H119656   1.475   0.196   0.987  0.1895 -0.2072 -1.2092
 6564TIP3    H219657   1.342   0.123   0.999 -0.7166  1.1304 -2.6561
 6565TIP3   OH219658   6.189   4.330   1.704 -0.0898  0.1681  0.0697
 6565TIP3    H119659   6.119   4.373   1.753 -0.0644  1.1912 -0.7638
 6565TIP3    H219660   6.232   4.401   1.657 -0.4623 -0.8396 -1.8742
 6566TIP3   OH219661   4.290   2.537   0.693  0.1262 -0.1655 -0.3110
 6566TIP3    H119662   4.325   2.622   0.720  1.2901 -0.0759 -1.9261
 6566TIP3    H219663   4.366   2.480   0.688 -0.5126 -1.0524 -0.2051
 6567TIP3   OH219664   1.444   3.608   3.167 -0.5998 -0.1132 -0.4529
 6567TIP3    H119665   1.510   3.578   3.104  0.5225 -0.1863  0.7322
 6567TIP3    H219666   1.469   3.566   3.250 -0.4366  2.1144  0.6917
 6568TIP3   OH219667   2.100   1.218   1.487  0.5538  0.2972  0.5619
 6568TIP3    H119668   2.047   1.271   1.427 -0.7713 -1.1596  0.3814
 6568TIP3    H219669   2.132   1.281   1.552  0.9198  1.6816 -0.8975
 6569TIP3   OH219670   4.994   0.048   0.390  0.2742 -0.3946  0.1951
 6569TIP3    H119671   5.009   0.128   0.340 -1.3613  1.1371  2.0011
 6569TIP3    H219672   5.076   0.033   0.437 -0.0293  1.4027  1.3608
 6570TIP3   OH219673   5.962   2.219   1.373 -0.0807 -0.3943  0.2617
 6570TIP3    H119674   5.892   2.182   1.426 -0.6916  0.3462 -0.0007
 6570TIP3    H219675   5.922   2.233   1.287  0.2193  0.5187  0.2552
 6571TIP3   OH219676   5.874   5.588   3.610  0.0545  0.0644 -0.4376
 6571TIP3    H119677   5.961   5.552   3.627  0.1901  1.4000  2.0738
 6571TIP3    H219678   5.875   5.610   3.517  1.5833 -1.9675 -0.9737
 6572TIP3   OH219679   5.208   3.319   5.564 -0.4879  0.0057  0.5450
 6572TIP3    H119680   5.233   3.323   5.657 -0.0030  0.1256  0.4128
 6572TIP3    H219681   5.285   3.280   5.521 -0.9420 -0.6095  0.2777
 6573TIP3   OH219682   6.858   2.884   5.071 -0.4637 -0.1516  0.1133
 6573TIP3    H119683   6.911   2.820   5.024  0.0477  0.0060  0.4650
 6573TIP3    H219684   6.910   2.965   5.070 -0.6934  0.0050  0.4648
 6574TIP3   OH219685   0.560   5.009   4.623  0.5357  0.0929 -0.1368
 6574TIP3    H119686   0.570   5.070   4.695  0.5011 -1.1693  0.9852
 6574TIP3    H219687   0.483   4.957   4.645  0.4986 -0.2944 -1.0999
 6575TIP3   OH219688   4.567   1.290   3.958 -0.2102  0.1944  0.0984
 6575TIP3    H119689   4.612   1.334   3.886  2.2358 -2.6613 -0.3325
 6575TIP3    H219690   4.619   1.310   4.035 -1.5510  1.4245  0.7381
 6576TIP3   OH219691   4.417   2.628   2.275  0.1550  0.2155 -0.4096
 6576TIP3    H119692   4.459   2.714   2.266  0.8293  0.0306  0.7858
 6576TIP3    H219693   4.374   2.632   2.360 -0.8778 -0.1942 -0.9016
 6577TIP3   OH219694   6.380   4.569   1.472  0.2736 -0.0853  0.2306
 6577TIP3    H119695   6.435   4.490   1.468 -0.7577 -0.8150  0.0724
 6577TIP3    H219696   6.441   4.639   1.496  1.5814 -0.5742 -1.4635
 6578TIP3   OH219697   4.146   0.538   4.724 -0.3363 -0.2538 -0.5730
 6578TIP3    H119698   4.218   0.577   4.775  0.1258 -2.2035  0.3646
 6578TIP3    H219699   4.191   0.493   4.652 -0.4524 -2.4866  0.6826
 6579TIP3   OH219700   0.379   0.842   5.769 -0.3070 -0.8453 -0.1898
 6579TIP3    H119701   0.471   0.862   5.780 -0.0946 -1.1455 -1.3497
 6579TIP3    H219702   0.344   0.839   5.859  0.6497 -0.0725  0.2208
 6580TIP3   OH219703   3.823   6.320   3.173  0.0058 -0.0028  0.7456
 6580TIP3    H119704   3.809   6.249   3.110 -1.9631  0.4003  0.6810
 6580TIP3    H219705   3.866   6.388   3.122 -0.1689 -0.2724  0.2223
 6581TIP3   OH219706   4.875   2.789   0.995  0.2737  0.2667 -0.3787
 6581TIP3    H119707   4.892   2.867   0.942  1.2892  1.1245  1.1261
 6581TIP3    H219708   4.913   2.717   0.944 -0.3310  0.7943 -1.6070
 6582TIP3   OH219709   3.034   3.757   2.790 -0.3214  0.2217  0.2474
 6582TIP3    H119710   3.050   3.828   2.852 -1.2667 -0.3060  1.1094
 6582TIP3    H219711   3.104   3.694   2.807  0.7025  1.0379 -0.7237
 6583TIP3   OH219712   4.329   1.400   1.669  0.6557 -0.1289 -0.0225
 6583TIP3    H119713   4.372   1.317   1.651  2.8347  0.9923 -0.2671
 6583TIP3    H219714   4.317   1.441   1.583 -2.4955 -1.0654 -0.1623
 6584TIP3   OH219715   4.454   4.638   4.707  0.4235 -0.0640  0.3432
 6584TIP3    H119716   4.380   4.696   4.728 -1.1983 -0.9644 -2.2641
 6584TIP3    H219717   4.418   4.550   4.718  1.1124 -0.5162 -0.8466
 6585TIP3   OH219718   5.656   5.100   5.806  0.1756  0.1673 -0.3884
 6585TIP3    H119719   5.664   5.170   5.870 -0.5698  1.0492 -1.2238
 6585TIP3    H219720   5.745   5.088   5.772  0.1288  1.5885 -1.1073
 6586TIP3   OH219721   3.640   5.804   3.095 -0.3600  0.5022 -0.6159
 6586TIP3    H119722   3.641   5.807   3.000 -0.9879  2.7204 -0.6316
 6586TIP3    H219723   3.558   5.848   3.119  0.2849  0.9326  0.9419
 6587TIP3   OH219724   4.604   3.148   1.164 -0.3854 -0.0951  0.2984
 6587TIP3    H119725   4.522   3.194   1.148  0.2914  0.9099 -0.4332
 6587TIP3    H219726   4.672   3.214   1.148  0.5538 -0.7410  1.4423
 6588TIP3   OH219727   0.089   4.723   4.492  0.0955  0.1709 -0.0993
 6588TIP3    H119728   0.063   4.646   4.544  0.6039  0.3339  0.3933
 6588TIP3    H219729   0.018   4.732   4.428  0.0892 -0.7940 -0.2580
 6589TIP3   OH219730   2.627   5.583   3.933  0.2938  0.0206 -0.9206
 6589TIP3    H119731   2.587   5.596   4.019  0.6087  0.1223 -0.7882
 6589TIP3    H219732   2.600   5.495   3.908  0.4869 -0.1469 -0.5596
 6590TIP3   OH219733   3.111   6.829   5.270 -0.1112 -0.5852  0.0417
 6590TIP3    H119734   3.175   6.837   5.341 -1.1728 -2.3625  1.2587
 6590TIP3    H219735   3.107   6.736   5.251 -0.9455 -0.2902 -1.3611
 6591TIP3   OH219736   2.152   4.898   3.891 -0.1279  0.1554 -0.0443
 6591TIP3    H119737   2.056   4.900   3.890 -0.1424  0.2681  0.7114
 6591TIP3    H219738   2.178   4.980   3.848 -0.3508 -0.3093 -1.0920
 6592TIP3   OH219739   4.309   3.859   0.469  0.3633 -0.1462 -0.4093
 6592TIP3    H119740   4.294   3.783   0.413 -0.6085 -0.2985  0.0370
 6592TIP3    H219741   4.223   3.878   0.508  0.8091  0.5530  0.2754
 6593TIP3   OH219742   6.867   2.001   5.462 -0.3382  0.4954 -0.3914
 6593TIP3    H119743   6.921   1.930   5.426 -1.7012 -0.1622 -1.2089
 6593TIP3    H219744   6.779   1.983   5.429 -0.9041  2.0208  0.2182
 6594TIP3   OH219745   5.108   0.512   5.895 -0.2470 -0.3951  0.1076
 6594TIP3    H119746   5.126   0.605   5.907 -3.0398  0.4511 -1.4468
 6594TIP3    H219747   5.194   0.472   5.884  0.9748  2.2457 -0.7315
 6595TIP3   OH219748   5.137   1.230   2.650 -0.1744  0.5848 -0.1692
 6595TIP3    H119749   5.140   1.292   2.722 -0.9311  1.2991 -0.7299
 6595TIP3    H219750   5.222   1.187   2.650  0.5418  1.9685 -0.0686
 6596TIP3   OH219751   3.755   1.292   1.430  0.2314  0.7026  0.5863
 6596TIP3    H119752   3.683   1.326   1.484 -1.3803 -1.2983 -0.1717
 6596TIP3    H219753   3.718   1.283   1.342  1.9513  1.2068 -0.2373
 6597TIP3   OH219754   4.314   5.123   4.008 -0.3103 -0.2497  0.3133
 6597TIP3    H119755   4.340   5.195   3.950  0.7437  0.4214  1.5541
 6597TIP3    H219756   4.395   5.076   4.026 -0.7523 -0.8966  0.6402
 6598TIP3   OH219757   0.971   1.240   3.407 -0.0168  0.1157  0.5327
 6598TIP3    H119758   0.940   1.328   3.430 -1.2492 -0.1621 -0.0011
 6598TIP3    H219759   0.945   1.228   3.316 -0.9185 -1.2275  0.9328
 6599TIP3   OH219760   3.051   3.947   3.553  0.2145 -0.5424  0.5439
 6599TIP3    H119761   2.983   3.881   3.541 -0.8521  0.6402 -0.0932
 6599TIP3    H219762   3.077   3.970   3.464  0.1948  0.2771  0.7451
 6600TIP3   OH219763   4.306   3.303   2.475 -0.0328 -0.1284  0.4222
 6600TIP3    H119764   4.343   3.390   2.493 -0.3920  0.3505 -0.9829
 6600TIP3    H219765   4.328   3.251   2.552  1.3443  0.8415  0.7202
 6601TIP3   OH219766   4.999   0.826   5.458 -0.1214 -0.1411 -0.5082
 6601TIP3    H119767   4.905   0.806   5.465 -0.0198 -1.1850 -1.7770
 6601TIP3    H219768   5.008   0.911   5.501 -1.8757  0.5935 -1.4723
 6602TIP3   OH219769   6.010   2.384   0.531  1.0213 -0.2052 -0.2711
 6602TIP3    H119770   5.921   2.404   0.503  0.2192 -0.3904  1.8906
 6602TIP3    H219771   6.043   2.466   0.566  0.3778 -0.8441  2.0294
 6603TIP3   OH219772   6.665   5.205   3.516  0.0861  0.0918  0.2171
 6603TIP3    H119773   6.670   5.267   3.444 -2.5962 -0.1074 -0.2361
 6603TIP3    H219774   6.656   5.120   3.474 -0.9124 -0.0954  0.7794
 6604TIP3   OH219775   1.355   0.679   3.569  0.2505  0.1808 -0.0994
 6604TIP3    H119776   1.378   0.586   3.573 -0.4506 -0.0670 -1.2001
 6604TIP3    H219777   1.263   0.680   3.544 -0.0959  1.1748  1.0905
 6605TIP3   OH219778   0.998   5.307   1.690 -0.6543  0.7796 -0.2038
 6605TIP3    H119779   0.996   5.246   1.763 -0.7338  0.9614 -0.0521
 6605TIP3    H219780   0.947   5.265   1.621 -0.4808  0.5566 -0.1954
 6606TIP3   OH219781   3.783   2.765   3.444 -0.1239  0.1921 -0.1281
 6606TIP3    H119782   3.702   2.781   3.394 -1.4786 -4.0751  0.3257
 6606TIP3    H219783   3.767   2.806   3.529 -1.0295  0.9055 -0.6215
 6607TIP3   OH219784   6.262   3.899   0.680  0.3505 -0.2832  0.1569
 6607TIP3    H119785   6.351   3.869   0.697  0.9624  1.6273  0.6220
 6607TIP3    H219786   6.234   3.939   0.763  0.1554  1.5939 -0.7463
 6608TIP3   OH219787   6.080   5.344   1.580  0.4607 -0.0611  0.0845
 6608TIP3    H119788   6.055   5.408   1.647 -1.0101  1.5122 -1.8213
 6608TIP3    H219789   6.135   5.394   1.519  0.8491 -1.1277 -0.4661
 6609TIP3   OH219790   1.497   5.655   4.136  0.1736 -0.0615 -0.3572
 6609TIP3    H119791   1.569   5.601   4.102  3.9133  3.9154  0.3977
 6609TIP3    H219792   1.488   5.627   4.228  2.2302  0.6335  0.1077
 6610TIP3   OH219793   6.671   4.965   4.730 -0.3235  0.3753  0.3381
 6610TIP3    H119794   6.738   4.935   4.792  0.3466  0.0387 -0.5277
 6610TIP3    H219795   6.610   4.892   4.724  0.1450  0.0128 -0.1336
 6611TIP3   OH219796   0.274   4.445   5.031 -0.5592  0.0243  0.3781
 6611TIP3    H119797   0.226   4.465   4.950  0.3099  0.1132 -0.1181
 6611TIP3    H219798   0.355   4.403   5.002 -0.1260  0.2776  1.1918
 6612TIP3   OH219799   6.546   4.775   1.080 -0.2453 -0.0817 -0.3197
 6612TIP3    H119800   6.474   4.743   1.025  0.5210  0.4161 -1.6585
 6612TIP3    H219801   6.535   4.870   1.080 -1.1314 -0.1441  1.7069
 6613TIP3   OH219802   6.808   6.098   0.931 -0.2932 -0.0078 -0.4879
 6613TIP3    H119803   6.736   6.126   0.988  1.7585  3.8912  0.5259
 6613TIP3    H219804   6.768   6.034   0.871 -3.6205 -0.8779  2.3392
 6614TIP3   OH219805   0.833   3.344   4.573 -0.0918 -0.4976  0.4848
 6614TIP3    H119806   0.919   3.384   4.563  0.0008 -0.3392  1.7687
 6614TIP3    H219807   0.780   3.412   4.615 -0.8667 -0.5662 -0.3581
 6615TIP3   OH219808   6.253   5.439   3.033 -0.5305 -0.2969 -0.5978
 6615TIP3    H119809   6.275   5.371   2.970 -1.0426 -0.3360 -0.7352
 6615TIP3    H219810   6.260   5.396   3.119  2.7297  0.3941 -0.3920
 6616TIP3   OH219811   2.719   0.637   2.535 -0.2163  0.3233  0.3014
 6616TIP3    H119812   2.716   0.675   2.447  1.4752  0.4056  0.2514
 6616TIP3    H219813   2.641   0.672   2.579 -0.5977  0.9987 -0.8687
 6617TIP3   OH219814   2.266   3.240   5.342 -0.3414 -0.6249 -0.0169
 6617TIP3    H119815   2.245   3.326   5.379  1.4582  0.7175 -1.8864
 6617TIP3    H219816   2.183   3.207   5.308 -1.0610  0.3876  0.7200
 6618TIP3   OH219817   6.282   0.980   4.984  0.0878 -0.0645  0.1160
 6618TIP3    H119818   6.344   0.916   5.018  0.1428  0.1667  0.4689
 6618TIP3    H219819   6.198   0.934   4.979  0.4305 -0.5773 -1.0281
 6619TIP3   OH219820   0.242   2.065   0.158 -0.0346 -0.3130 -0.2501
 6619TIP3    H119821   0.259   2.003   0.087  0.6705 -0.7099  0.2450
 6619TIP3    H219822   0.244   2.011   0.238  0.1086  0.2622  0.1438
 6620TIP3   OH219823   1.897   4.505   3.326 -0.0089 -0.7539  0.0238
 6620TIP3    H119824   1.833   4.434   3.331  0.4336 -1.1865 -0.4041
 6620TIP3    H219825   1.872   4.554   3.248  0.1059 -0.8527 -0.0760
 6621TIP3   OH219826   5.887   3.566   3.828  0.0606  0.1172  0.0188
 6621TIP3    H119827   5.823   3.586   3.897 -0.4580 -1.1873 -0.0468
 6621TIP3    H219828   5.835   3.528   3.758  0.6986  0.6599 -0.7588
 6622TIP3   OH219829   4.753   4.458   4.649 -0.0740  0.4516 -0.2716
 6622TIP3    H119830   4.676   4.446   4.593  0.0662 -0.6815 -0.2548
 6622TIP3    H219831   4.806   4.380   4.633  0.0376  0.1580  1.3259
 6623TIP3   OH219832   1.254   1.283   3.299  0.0910  0.4271 -0.1114
 6623TIP3    H119833   1.159   1.276   3.303  0.0918  0.8154  0.8722
 6623TIP3    H219834   1.274   1.368   3.339  0.7907  0.8440 -1.2926
 6624TIP3   OH219835   5.639   5.998   3.189 -0.3848 -0.2679  0.1184
 6624TIP3    H119836   5.688   6.054   3.250  0.3437  0.8158 -1.4049
 6624TIP3    H219837   5.551   5.992   3.228 -0.2874  1.3789  0.6816
 6625TIP3   OH219838   3.916   4.866   3.962  0.0007  0.2351  0.6357
 6625TIP3    H119839   3.847   4.866   4.028  0.1434  1.7550  0.8153
 6625TIP3    H219840   3.880   4.916   3.889  2.0541  4.3537  2.1053
 6626TIP3   OH219841   3.012   0.404   0.782  0.3816 -0.1348 -0.1311
 6626TIP3    H119842   3.008   0.316   0.745 -0.6090  0.3181 -1.1621
 6626TIP3    H219843   3.100   0.436   0.759  0.3537 -0.4561 -0.6909
 6627TIP3   OH219844   4.247   0.215   2.617 -0.3798 -0.3074  0.3930
 6627TIP3    H119845   4.337   0.190   2.638 -0.4828  0.7160  2.3418
 6627TIP3    H219846   4.194   0.147   2.658 -0.5401  0.8634  2.2442
 6628TIP3   OH219847   1.287   4.909   1.050  0.5276 -0.2830 -0.1026
 6628TIP3    H119848   1.257   4.949   0.969  0.8820 -0.8860 -0.5391
 6628TIP3    H219849   1.260   4.971   1.118  0.9851  0.6452 -0.7448
 6629TIP3   OH219850   4.117   5.989   0.989 -0.4071 -0.0820  0.1743
 6629TIP3    H119851   4.146   6.080   0.984 -0.4726 -0.1383 -1.8856
 6629TIP3    H219852   4.071   5.984   1.073  2.6579  0.8138  2.0945
 6630TIP3   OH219853   5.215   4.439   3.812  0.3025 -0.4100  0.1237
 6630TIP3    H119854   5.123   4.463   3.811  0.7245  1.4089  0.9509
 6630TIP3    H219855   5.236   4.427   3.905  0.9715 -0.5713 -0.0371
 6631TIP3   OH219856   3.572   5.870   5.824  0.0816 -0.2818 -0.2368
 6631TIP3    H119857   3.635   5.937   5.798  1.7528 -0.3290  3.2283
 6631TIP3    H219858   3.497   5.920   5.858  0.9410 -0.1177  1.4853
 6632TIP3   OH219859   2.629   4.582   3.329 -0.6486  0.9851 -0.0858
 6632TIP3    H119860   2.706   4.553   3.378  1.6056 -0.3036 -3.9458
 6632TIP3    H219861   2.627   4.677   3.342  0.5099  0.8412  1.4753
 6633TIP3   OH219862   3.906   0.298   0.196  0.4020  0.2280 -0.1317
 6633TIP3    H119863   3.904   0.393   0.193 -1.6238  0.2545  0.5931
 6633TIP3    H219864   3.970   0.278   0.265  1.2645  1.0196 -0.6776
 6634TIP3   OH219865   6.155   5.304   0.978  0.2186  0.1233  0.0809
 6634TIP3    H119866   6.211   5.265   0.910  0.8261 -0.9126  1.1252
 6634TIP3    H219867   6.201   5.284   1.059 -1.5406 -0.5099  0.9615
 6635TIP3   OH219868   3.467   3.279   2.205  0.1913  0.5934  0.2363
 6635TIP3    H119869   3.441   3.256   2.294  2.6989 -0.3452  0.8225
 6635TIP3    H219870   3.502   3.198   2.168  1.5515  1.5512 -0.6826
 6636TIP3   OH219871   4.276   1.215   5.272 -0.5167 -0.5529  0.9094
 6636TIP3    H119872   4.198   1.235   5.220 -0.2363  0.9253  0.9946
 6636TIP3    H219873   4.242   1.193   5.358 -0.8656 -0.0793  0.8986
 6637TIP3   OH219874   6.715   5.570   2.317  0.5283  0.5231  0.0662
 6637TIP3    H119875   6.780   5.640   2.318  0.2079  0.8247 -0.3815
 6637TIP3    H219876   6.746   5.509   2.249  1.7290 -0.6546  1.5942
 6638TIP3   OH219877   5.717   5.322   0.534 -0.2939 -0.2493 -0.0394
 6638TIP3    H119878   5.704   5.331   0.629  1.1599  0.1435  0.1494
 6638TIP3    H219879   5.673   5.240   0.512  0.6580 -1.1704  1.2754
 6639TIP3   OH219880   4.368   0.988   2.494  0.3161  0.4452  0.0227
 6639TIP3    H119881   4.456   1.019   2.517  0.7691 -1.4724  1.1224
 6639TIP3    H219882   4.325   0.977   2.579 -0.4458 -0.1012 -0.4311
 6640TIP3   OH219883   2.443   0.650   3.953 -0.5967  0.7548 -0.3178
 6640TIP3    H119884   2.517   0.705   3.977 -0.1982  0.1267 -0.0608
 6640TIP3    H219885   2.401   0.695   3.880 -0.4692  1.5498  0.0935
 6641TIP3   OH219886   1.839   2.354   1.300 -0.0891 -0.1176  0.4974
 6641TIP3    H119887   1.794   2.407   1.235  0.3769 -1.3194 -0.8536
 6641TIP3    H219888   1.807   2.387   1.384 -0.8664  1.3287 -0.3313
 6642TIP3   OH219889   4.923   4.007   5.886  0.5693  0.6562  0.1829
 6642TIP3    H119890   4.892   4.065   5.816  0.9854 -0.7637 -1.2496
 6642TIP3    H219891   4.850   3.947   5.901  1.6405 -1.1847 -1.5002
 6643TIP3   OH219892   4.534   3.359   0.235  0.2298  0.3073 -0.4943
 6643TIP3    H119893   4.565   3.397   0.318  1.0229  1.1632 -1.1578
 6643TIP3    H219894   4.598   3.388   0.171  0.3081 -1.3831 -1.2114
 6644TIP3   OH219895   2.071   3.583   5.753 -0.5146 -0.5464  0.4557
 6644TIP3    H119896   2.155   3.603   5.794 -0.7773 -1.2088  1.3225
 6644TIP3    H219897   2.084   3.498   5.712 -0.3276  0.0015 -0.6763
 6645TIP3   OH219898   0.947   2.971   4.250  0.0603 -0.1094  0.0215
 6645TIP3    H119899   1.016   3.037   4.253 -0.8474  0.9759 -1.9698
 6645TIP3    H219900   0.947   2.940   4.160 -1.3088 -0.9172  0.2750
 6646TIP3   OH219901   1.576   1.502   4.211 -0.2300  0.7839  0.1541
 6646TIP3    H119902   1.624   1.565   4.264 -0.0065  1.6966 -1.0812
 6646TIP3    H219903   1.514   1.554   4.161 -0.3270 -0.0099 -0.5890
 6647TIP3   OH219904   4.037   3.962   0.351 -0.3071 -0.4783 -0.1686
 6647TIP3    H119905   3.987   3.898   0.300  0.5179 -0.5734 -0.8800
 6647TIP3    H219906   4.109   3.988   0.293 -0.1912  0.5128  0.4116
 6648TIP3   OH219907   1.347   6.456   4.988 -0.7932 -0.5245  0.5780
 6648TIP3    H119908   1.292   6.506   4.928 -0.4054 -0.7382  0.0350
 6648TIP3    H219909   1.362   6.373   4.942  1.4571  0.1852 -0.1043
 6649TIP3   OH219910   2.969   4.397   1.882  0.3945  0.6397 -0.0383
 6649TIP3    H119911   3.045   4.408   1.824  0.5130 -0.7404 -0.1828
 6649TIP3    H219912   3.007   4.371   1.966  0.0694 -1.7447 -0.5548
 6650TIP3   OH219913   4.570   0.362   1.124  0.2418 -0.2309  0.4312
 6650TIP3    H119914   4.556   0.376   1.217  1.4564  2.8999  0.2550
 6650TIP3    H219915   4.512   0.424   1.081  1.3850  0.0326 -0.8141
 6651TIP3   OH219916   7.190   3.431   5.441  0.9383 -0.0577  0.0010
 6651TIP3    H119917   7.280   3.400   5.450  1.0417  0.4716  0.9358
 6651TIP3    H219918   7.143   3.358   5.402  1.6891 -0.4887 -0.1118
 6652TIP3   OH219919   5.426   5.984   5.408 -0.6894 -0.2503 -0.0863
 6652TIP3    H119920   5.434   5.905   5.354  0.0564  0.2102 -0.6489
 6652TIP3    H219921   5.478   5.964   5.486 -0.6497 -0.3843 -0.1459
 6653TIP3   OH219922   2.562   4.495   4.934  0.1740 -0.0990 -0.8163
 6653TIP3    H119923   2.600   4.408   4.920 -1.9414 -0.8758 -2.1775
 6653TIP3    H219924   2.476   4.491   4.891 -1.6738  1.3854  2.3932
 6654TIP3   OH219925   0.181   1.933   0.418 -0.2373 -0.0944 -0.1203
 6654TIP3    H119926   0.187   1.971   0.506 -0.6199 -1.7173  0.6407
 6654TIP3    H219927   0.106   1.873   0.423 -0.9614  0.5852 -1.8890
 6655TIP3   OH219928   2.609   3.833   4.422 -0.1083 -0.2730 -0.1603
 6655TIP3    H119929   2.573   3.819   4.335 -0.8096 -0.3786  0.1402
 6655TIP3    H219930   2.550   3.896   4.463  1.2422  1.2175 -0.3946
 6656TIP3   OH219931   0.837   5.833   1.324 -0.1527 -0.5150  0.0140
 6656TIP3    H119932   0.754   5.879   1.313  0.3809  0.3157 -0.5873
 6656TIP3    H219933   0.903   5.901   1.318  0.5889 -1.1933  0.3617
 6657TIP3   OH219934   5.961   4.043   0.344  0.0156  0.0257  0.5986
 6657TIP3    H119935   5.911   3.996   0.411  0.2443 -0.9186  0.1269
 6657TIP3    H219936   5.951   4.135   0.367 -0.0658 -0.2670  1.8221
 6658TIP3   OH219937   2.019   3.853   4.450  0.1517 -0.5428 -0.5079
 6658TIP3    H119938   2.040   3.816   4.535 -0.7601  0.2893  0.1044
 6658TIP3    H219939   2.013   3.778   4.391  0.4304 -1.1570  0.2386
 6659TIP3   OH219940   4.740   2.392   5.012  0.1468  0.8584  0.2103
 6659TIP3    H119941   4.729   2.325   4.944  0.8991  1.9248 -1.0244
 6659TIP3    H219942   4.772   2.345   5.088  0.8541 -0.1625 -0.6932
 6660TIP3   OH219943   5.766   0.805   3.531 -0.6514 -0.2480 -0.5085
 6660TIP3    H119944   5.790   0.737   3.469 -0.4123  0.9413 -1.7710
 6660TIP3    H219945   5.779   0.765   3.617  3.7266 -0.5055 -1.0430
 6661TIP3   OH219946   3.586   3.552   1.804 -0.5434 -0.3486  0.5996
 6661TIP3    H119947   3.665   3.585   1.847  0.0339 -2.0192  0.9028
 6661TIP3    H219948   3.587   3.593   1.717  0.8646 -0.6400  0.4590
 6662TIP3   OH219949   6.032   6.158   4.417  0.1203  0.2490  0.6133
 6662TIP3    H119950   6.047   6.250   4.396 -0.0856  0.3629  0.9652
 6662TIP3    H219951   5.980   6.159   4.497 -0.3582 -0.1698  0.3143
 6663TIP3   OH219952   1.062   1.511   0.814 -0.2708 -0.3020  0.4773
 6663TIP3    H119953   1.124   1.582   0.794 -1.5482  0.6729 -0.1304
 6663TIP3    H219954   1.116   1.432   0.813  1.0783  0.5817  0.5540
 6664TIP3   OH219955   1.353   4.376   2.948  0.5856 -0.5452  0.0474
 6664TIP3    H119956   1.374   4.441   2.882  0.8414 -0.3068  0.3587
 6664TIP3    H219957   1.373   4.292   2.907 -0.1719 -0.4633 -0.5166
 6665TIP3   OH219958   1.732   5.396   4.870  0.0503  0.0229 -0.0285
 6665TIP3    H119959   1.814   5.443   4.887 -0.3278  0.6322  0.1524
 6665TIP3    H219960   1.666   5.465   4.866 -0.6537 -0.5561  1.0792
 6666TIP3   OH219961   1.974   6.356   3.089  0.3506 -0.2860 -0.2224
 6666TIP3    H119962   1.966   6.434   3.034  1.4229 -0.8141 -1.1797
 6666TIP3    H219963   2.056   6.369   3.136  1.3844 -1.5175 -1.5899
 6667TIP3   OH219964   1.642   3.938   1.272 -0.0119  0.1052  0.0372
 6667TIP3    H119965   1.690   4.015   1.240  0.6655 -0.3865 -0.1534
 6667TIP3    H219966   1.567   3.931   1.213 -1.3974  1.9712  1.4590
 6668TIP3   OH219967   5.940   6.174   0.473 -0.3501  0.0901 -0.4845
 6668TIP3    H119968   5.985   6.106   0.524 -0.4365 -0.8056 -1.5579
 6668TIP3    H219969   5.848   6.147   0.474 -0.3355  0.0066 -1.1854
 6669TIP3   OH219970   7.070   3.561   5.841 -0.5264 -0.1673 -0.3348
 6669TIP3    H119971   7.107   3.608   5.917 -1.3757 -2.0087  1.3161
 6669TIP3    H219972   7.079   3.622   5.768 -0.7410  2.1680  1.4806
 6670TIP3   OH219973   0.767   1.607   1.510  0.6381 -0.4281 -0.3427
 6670TIP3    H119974   0.832   1.584   1.576 -0.2917  1.2936  1.2734
 6670TIP3    H219975   0.768   1.702   1.508 -1.8151 -0.3511 -0.2527
 6671TIP3   OH219976   0.902   6.247   1.866  0.2663  0.1613  0.2107
 6671TIP3    H119977   0.967   6.237   1.935 -0.1467  0.4001  0.6338
 6671TIP3    H219978   0.848   6.321   1.893  0.6668  0.8620 -0.8172
 6672TIP3   OH219979   1.442   5.102   0.757  0.2532 -0.2380  0.1187
 6672TIP3    H119980   1.533   5.073   0.767  0.3752 -0.3370 -1.1773
 6672TIP3    H219981   1.430   5.165   0.828  2.0459  1.4756 -0.9711
 6673TIP3   OH219982   0.023   6.557   3.477  0.5303 -0.1432  0.1282
 6673TIP3    H119983   0.026   6.507   3.559 -0.2612  0.4220  0.5205
 6673TIP3    H219984  -0.026   6.501   3.416 -1.5274  0.6320  0.9570
 6674TIP3   OH219985   4.201   4.038   2.264 -0.3892  0.0019 -0.3569
 6674TIP3    H119986   4.166   4.125   2.281 -0.4621  0.0756 -0.8468
 6674TIP3    H219987   4.230   4.042   2.173  2.5294  0.4735  0.5027
 6675TIP3   OH219988   4.361   6.682   5.098  0.4066  0.8901  0.8453
 6675TIP3    H119989   4.356   6.630   5.018  0.8006  1.9088  0.1381
 6675TIP3    H219990   4.281   6.735   5.097  1.2764  2.2489  0.1414
 6676TIP3   OH219991   0.168   3.185   3.342  0.0305 -0.1920  0.0696
 6676TIP3    H119992   0.257   3.195   3.375  0.0821 -2.7138  0.9330
 6676TIP3    H219993   0.132   3.112   3.392 -3.3699  2.1316  1.3555
 6677TIP3   OH219994   0.507   3.777   0.590  0.0927 -0.2933  0.4633
 6677TIP3    H119995   0.523   3.791   0.683  1.0019 -1.2221  0.4697
 6677TIP3    H219996   0.450   3.699   0.587  0.7694 -0.7869  0.2259
 6678TIP3   OH219997   0.576   4.373   3.593  0.2352  0.0292 -0.6208
 6678TIP3    H119998   0.562   4.357   3.499  0.0237 -0.3067 -0.5358
 6678TIP3    H219999   0.495   4.342   3.634 -0.3659  1.7269 -0.4713
 6679TIP3   OH220000   1.323   2.568   2.004  0.0574 -0.8290  0.0078
 6679TIP3    H120001   1.313   2.594   2.096  0.6952 -1.2000  0.1881
 6679TIP3    H220002   1.310   2.650   1.955  2.8938  0.0919  0.6098
 6680TIP3   OH220003   2.588   0.422   0.260 -0.0403  0.3778  0.0316
 6680TIP3    H120004   2.619   0.381   0.179  0.7928  1.7516 -0.3756
 6680TIP3    H220005   2.654   0.400   0.325  0.0548  0.4847 -0.0269
 6681TIP3   OH220006   4.776   2.566   4.736  0.1214 -0.7792 -0.5831
 6681TIP3    H120007   4.819   2.598   4.657 -1.2717  1.2556 -0.6155
 6681TIP3    H220008   4.768   2.644   4.792  1.3835 -2.2127  1.7572
 6682TIP3   OH220009   5.353   5.473   3.347  0.4808  0.3854  0.0746
 6682TIP3    H120010   5.388   5.389   3.376  1.2315  0.0163 -1.7640
 6682TIP3    H220011   5.262   5.472   3.375  0.8284 -0.4532  1.2410
 6683TIP3   OH220012   2.893   1.530   1.290  0.2624 -0.0214 -0.2694
 6683TIP3    H120013   2.908   1.624   1.276 -1.0047  0.2506  0.0825
 6683TIP3    H220014   2.981   1.493   1.296  0.8138  0.9534 -1.5814
 6684TIP3   OH220015   0.432   2.399   2.631  0.6169  0.1307  0.1839
 6684TIP3    H120016   0.356   2.422   2.684 -0.3385 -1.9133 -0.2033
 6684TIP3    H220017   0.471   2.483   2.607 -1.9429  1.2698 -0.2452
 6685TIP3   OH220018   4.425   3.277   2.228  0.1427 -0.2509  0.2406
 6685TIP3    H120019   4.467   3.363   2.223  0.0575 -0.1574  0.9801
 6685TIP3    H220020   4.383   3.276   2.315 -1.5554 -0.2621 -0.5348
 6686TIP3   OH220021   6.968   4.348   3.829 -0.1611 -0.5100  0.2893
 6686TIP3    H120022   6.933   4.275   3.880  0.3742 -0.8216  0.2215
 6686TIP3    H220023   6.911   4.422   3.851 -1.3435 -1.1846 -0.4268
 6687TIP3   OH220024   3.154   6.367   1.731  0.3280 -0.3816  0.2386
 6687TIP3    H120025   3.156   6.274   1.755  1.4722  0.0682  1.9929
 6687TIP3    H220026   3.244   6.388   1.708  0.3599  0.6428  1.2727
 6688TIP3   OH220027   5.859   0.563   0.989 -0.2927  0.0855  0.0439
 6688TIP3    H120028   5.939   0.589   0.944 -0.4742 -0.0231 -0.3514
 6688TIP3    H220029   5.801   0.534   0.919  0.0653 -1.8440  0.4825
 6689TIP3   OH220030   1.955   0.278   1.655  0.3061  0.7635  0.1152
 6689TIP3    H120031   2.040   0.285   1.612  0.1965  0.7849 -0.1011
 6689TIP3    H220032   1.931   0.368   1.675  0.9951  0.6642  1.4920
 6690TIP3   OH220033   1.012   3.007   2.493  0.2838 -0.0450  0.2810
 6690TIP3    H120034   1.038   2.995   2.584 -0.6373 -0.2079  0.5387
 6690TIP3    H220035   1.016   2.919   2.455 -1.0752 -0.2931  0.6644
 6691TIP3   OH220036   1.748   2.599   2.543  0.0614  0.1150 -0.1816
 6691TIP3    H120037   1.746   2.540   2.469 -0.9458 -0.0253 -0.0493
 6691TIP3    H220038   1.656   2.621   2.560  0.0805 -1.2002  2.0755
 6692TIP3   OH220039   1.860   3.671   1.341  0.1128 -0.0561 -0.1459
 6692TIP3    H120040   1.839   3.640   1.253 -0.7567 -0.0821  0.0617
 6692TIP3    H220041   1.955   3.658   1.349  0.1817 -0.1498 -1.0347
 6693TIP3   OH220042   5.844   1.738   0.978  0.3475 -0.1466 -0.0925
 6693TIP3    H120043   5.764   1.777   1.015  0.8400  0.2299  0.6039
 6693TIP3    H220044   5.892   1.812   0.942  0.7665 -0.2541  0.2373
 6694TIP3   OH220045   5.598   6.722   5.050 -0.5639  0.7633 -0.7240
 6694TIP3    H120046   5.509   6.737   5.081 -0.2217 -0.5647  1.0542
 6694TIP3    H220047   5.590   6.654   4.984 -0.7887 -0.0005  0.0762
 6695TIP3   OH220048   0.223   3.716   2.668  0.2099  0.1466 -0.2607
 6695TIP3    H120049   0.189   3.775   2.601 -0.4061 -1.3117 -1.2991
 6695TIP3    H220050   0.181   3.632   2.649  1.2273 -0.6877  1.0021
 6696TIP3   OH220051   3.905   2.208   3.957 -0.1478  0.1106 -0.1327
 6696TIP3    H120052   3.914   2.288   3.906 -0.4064  0.7624  0.8147
 6696TIP3    H220053   3.851   2.151   3.902 -0.8585  0.9877 -0.3759
 6697TIP3   OH220054   4.612   3.828   0.441  0.1322  0.4311  0.3682
 6697TIP3    H120055   4.553   3.823   0.365 -0.8518  1.7982  0.9912
 6697TIP3    H220056   4.697   3.800   0.407 -0.5060  0.0496 -0.9946
 6698TIP3   OH220057   6.534   4.139   3.292  0.4543 -0.1315 -0.4406
 6698TIP3    H120058   6.568   4.200   3.358 -0.6631 -0.4048  0.4144
 6698TIP3    H220059   6.547   4.185   3.209  1.2529  0.5173  0.0158
 6699TIP3   OH220060   6.132   3.864   2.175 -0.3766  0.0269 -0.0256
 6699TIP3    H120061   6.045   3.837   2.205 -0.7634 -0.5778 -1.6158
 6699TIP3    H220062   6.119   3.951   2.138 -0.4231 -0.2935 -0.7705
 6700TIP3   OH220063   6.175   5.586   2.046  0.2488 -0.4013 -0.1978
 6700TIP3    H120064   6.175   5.496   2.079  0.0477  0.0306  1.0102
 6700TIP3    H220065   6.258   5.622   2.075  0.5686 -0.3406 -1.1409
 6701TIP3   OH220066   3.001   4.441   1.474 -0.3605 -0.3940  0.2224
 6701TIP3    H120067   3.047   4.431   1.557 -0.4848  1.0026  0.4750
 6701TIP3    H220068   3.058   4.400   1.410  1.2058  1.1544  0.5513
 6702TIP3   OH220069   2.237   2.091   5.829 -0.2529 -0.3427 -0.1705
 6702TIP3    H120070   2.208   2.034   5.900  0.5504 -1.5971 -0.8223
 6702TIP3    H220071   2.288   2.159   5.873 -1.0546 -0.2269  0.5954
 6703TIP3   OH220072   0.515   3.264   0.400 -0.3462  0.2980  0.4436
 6703TIP3    H120073   0.554   3.196   0.454  0.7513  0.6405  0.1038
 6703TIP3    H220074   0.522   3.231   0.310 -0.3087  0.6202  0.3269
 6704TIP3   OH220075   3.309   6.715   3.443 -0.7344 -0.3643  0.0635
 6704TIP3    H120076   3.303   6.649   3.512 -0.3590  1.0761  1.5235
 6704TIP3    H220077   3.401   6.741   3.441 -1.0987  1.0272  0.4165
 6705TIP3   OH220078   4.059   2.162   1.378 -0.3736  0.1855  0.0139
 6705TIP3    H120079   4.089   2.073   1.361 -0.0424  0.3724 -0.4079
 6705TIP3    H220080   4.001   2.154   1.454  0.2847 -0.2635  0.4812
 6706TIP3   OH220081   4.749   3.675   4.946 -0.1665 -0.3971 -0.7272
 6706TIP3    H120082   4.722   3.607   4.885 -0.0201  0.4521 -1.7535
 6706TIP3    H220083   4.685   3.745   4.934 -1.4167 -1.0170  1.6159
 6707TIP3   OH220084   0.612   2.007   5.389  0.3229  0.1611 -0.0271
 6707TIP3    H120085   0.588   2.085   5.439  0.4981 -0.0041  0.3203
 6707TIP3    H220086   0.695   1.979   5.427 -0.5986 -1.2221  1.0877
 6708TIP3   OH220087   4.037   2.835   0.495 -0.3369  0.1474 -0.4961
 6708TIP3    H120088   3.956   2.826   0.546 -0.5509 -0.9555 -0.9889
 6708TIP3    H220089   4.023   2.913   0.442 -1.3905 -0.4237 -1.0949
 6709TIP3   OH220090   2.290   5.484   4.588 -0.0024  0.0650  0.5372
 6709TIP3    H120091   2.241   5.563   4.566  1.6255  1.3620  1.3367
 6709TIP3    H220092   2.300   5.438   4.505  0.3186  1.4886 -0.2435
 6710TIP3   OH220093   7.163   2.238   3.031  0.3284 -0.0882 -0.1729
 6710TIP3    H120094   7.070   2.221   3.015  0.4044  0.8479 -1.9086
 6710TIP3    H220095   7.189   2.172   3.095 -1.8693  0.5765  1.5298
 6711TIP3   OH220096   4.037   2.463   0.748  0.0285  0.1002 -0.1469
 6711TIP3    H120097   4.011   2.537   0.803 -1.2651  2.6869 -3.9134
 6711TIP3    H220098   4.133   2.471   0.741  0.0029  0.8006  0.2424
 6712TIP3   OH220099   1.770   4.622   4.317  0.5506  0.1433 -0.3232
 6712TIP3    H120100   1.822   4.565   4.261  1.1496  0.6764 -0.3236
 6712TIP3    H220101   1.835   4.669   4.370  0.0716  0.8441 -0.3456
 6713TIP3   OH220102   1.062   1.137   0.594 -0.2053  0.4220  0.0239
 6713TIP3    H120103   1.107   1.052   0.590 -2.0159 -0.7422  2.2138
 6713TIP3    H220104   0.987   1.127   0.535 -0.3196  0.5683  0.1451
 6714TIP3   OH220105   4.112   5.069   3.152  0.0222 -0.1114 -0.6785
 6714TIP3    H120106   4.072   5.032   3.074  0.5111  0.0027 -0.9914
 6714TIP3    H220107   4.147   4.994   3.200 -1.3302 -0.2970  0.0476
 6715TIP3   OH220108   5.477   2.900   2.521 -0.3778 -0.3200  0.2579
 6715TIP3    H120109   5.557   2.902   2.573 -0.2880  0.7071  0.1021
 6715TIP3    H220110   5.406   2.907   2.585 -0.2862  0.2801  0.3032
 6716TIP3   OH220111   5.829   5.316   1.504  0.7552 -0.3644 -0.1423
 6716TIP3    H120112   5.759   5.251   1.508 -0.7306  1.1830  0.3981
 6716TIP3    H220113   5.905   5.268   1.470 -0.5556 -2.0990 -0.7601
 6717TIP3   OH220114   3.187   5.238   2.670 -0.1944 -0.0862 -0.0116
 6717TIP3    H120115   3.222   5.262   2.584  0.1214  0.2724  0.2149
 6717TIP3    H220116   3.200   5.316   2.723 -2.6888  0.6185 -0.3136
 6718TIP3   OH220117   5.400   2.603   0.674 -0.0494 -0.4617 -0.1511
 6718TIP3    H120118   5.313   2.643   0.680  0.6505  0.9896  2.9184
 6718TIP3    H220119   5.388   2.515   0.708 -0.3767 -0.3387  0.0670
 6719TIP3   OH220120   6.393   2.263   0.954 -0.0040 -0.0974 -0.0056
 6719TIP3    H120121   6.313   2.280   0.903  1.3798  1.8994 -1.6453
 6719TIP3    H220122   6.457   2.234   0.890  0.3877 -2.7005  1.4403
 6720TIP3   OH220123   0.764   1.613   0.271 -0.2038 -0.1604  0.3506
 6720TIP3    H120124   0.780   1.521   0.249  2.3372  0.1387  0.6693
 6720TIP3    H220125   0.829   1.662   0.219 -0.7591  1.3687  1.0340
 6721TIP3   OH220126   6.250   1.556   3.791  0.1226  0.5558  0.7550
 6721TIP3    H120127   6.272   1.463   3.802  1.8149  1.1149  2.6631
 6721TIP3    H220128   6.246   1.591   3.880 -2.2575  2.0013  0.1743
 6722TIP3   OH220129   5.823   5.140   0.063  0.0373  0.1533  0.1800
 6722TIP3    H120130   5.780   5.223   0.083  2.7697  1.9057 -0.6487
 6722TIP3    H220131   5.842   5.102   0.149 -0.4088  0.8482  0.6003
 6723TIP3   OH220132   6.240   4.506   3.994  0.0526  0.1373 -0.5177
 6723TIP3    H120133   6.147   4.491   4.009 -0.2146 -0.0129 -2.1479
 6723TIP3    H220134   6.274   4.422   3.966  0.9829 -0.1276  1.2604
 6724TIP3   OH220135   0.019   2.783   0.969  0.0838 -0.3444  0.2568
 6724TIP3    H120136  -0.005   2.707   0.915 -1.3288 -0.5975  1.1705
 6724TIP3    H220137   0.082   2.749   1.032 -1.1589 -1.0073  1.1910
 6725TIP3   OH220138   3.826   1.967   4.142 -0.3179  0.2246 -0.5223
 6725TIP3    H120139   3.878   1.986   4.220 -2.5638  1.2073  0.8372
 6725TIP3    H220140   3.874   2.007   4.070  1.5044 -0.1920  0.4138
 6726TIP3   OH220141   5.281   1.422   1.165 -0.7645  0.1875  0.0685
 6726TIP3    H120142   5.230   1.446   1.088 -1.5174 -1.1024  0.1348
 6726TIP3    H220143   5.218   1.423   1.237 -0.7849 -1.6575  0.1163
 6727TIP3   OH220144   3.398   2.459   4.713 -0.0204  0.1955 -0.3304
 6727TIP3    H120145   3.355   2.415   4.640 -1.0072  0.1560  0.2578
 6727TIP3    H220146   3.335   2.525   4.742 -0.4371 -0.9776  1.6165
 6728TIP3   OH220147   5.569   2.350   5.661 -0.3406  0.0176  0.0442
 6728TIP3    H120148   5.629   2.405   5.609  1.0908 -1.5629 -0.0588
 6728TIP3    H220149   5.538   2.408   5.730  0.0451  1.3403 -0.8486
 6729TIP3   OH220150   0.599   2.253   2.278  0.5424  0.3756  0.7578
 6729TIP3    H120151   0.618   2.283   2.189  0.2409  0.4257  0.7120
 6729TIP3    H220152   0.685   2.253   2.321  0.8005 -0.3330  0.2615
 6730TIP3   OH220153   0.205   4.722   0.699  0.3652  0.3656  0.6745
 6730TIP3    H120154   0.117   4.722   0.736  0.5833 -3.6340  1.5788
 6730TIP3    H220155   0.192   4.738   0.606 -1.0918  1.4644  1.0299
 6731TIP3   OH220156   3.865   0.976   2.909  0.0963 -0.1418  0.2736
 6731TIP3    H120157   3.934   1.020   2.958 -0.7217  0.9412  0.4932
 6731TIP3    H220158   3.859   0.889   2.949  2.0697 -0.6766 -0.5011
 6732TIP3   OH220159   0.076   1.963   2.040 -0.2768  0.5528  0.0101
 6732TIP3    H120160   0.109   1.999   2.122 -0.3339 -0.9043  0.7111
 6732TIP3    H220161   0.154   1.942   1.989 -0.2208  0.7710  0.0086
 6733TIP3   OH220162   2.443   3.467   4.366 -0.2441  0.5254  0.4333
 6733TIP3    H120163   2.538   3.463   4.380 -0.1957  0.0378  0.0268
 6733TIP3    H220164   2.433   3.458   4.271 -0.7084  0.2731  0.5044
 6734TIP3   OH220165   5.750   3.035   4.660  0.7292  0.0764  0.1964
 6734TIP3    H120166   5.685   3.040   4.590 -0.5681  0.6837  1.3991
 6734TIP3    H220167   5.728   2.954   4.707  1.5277 -0.2738 -0.0028
 6735TIP3   OH220168   3.865   6.750   5.130  0.3003 -0.3006 -0.4904
 6735TIP3    H120169   3.775   6.782   5.144 -0.0034 -0.3315 -2.2128
 6735TIP3    H220170   3.878   6.757   5.036  0.7832 -3.8069 -0.7907
 6736TIP3   OH220171   6.628   6.249   1.350  0.0300 -0.0124  0.4611
 6736TIP3    H120172   6.721   6.260   1.372  0.1328  1.6648 -0.6170
 6736TIP3    H220173   6.585   6.236   1.435  1.1237  0.2230  1.0786
 6737TIP3   OH220174   5.302   6.043   5.700  0.4881  0.1395  0.2964
 6737TIP3    H120175   5.388   6.042   5.658  0.0032 -0.8052 -0.7148
 6737TIP3    H220176   5.289   5.952   5.729 -0.3381  0.1871  0.0904
 6738TIP3   OH220177   6.218   0.350   1.425  0.0596  0.4515 -0.4330
 6738TIP3    H120178   6.265   0.289   1.483 -1.6384 -0.6393 -0.1078
 6738TIP3    H220179   6.286   0.389   1.370  1.3311 -1.0273  0.0177
 6739TIP3   OH220180   6.270   0.244   5.776 -0.4890 -0.6054 -0.1907
 6739TIP3    H120181   6.204   0.192   5.823  0.3077  0.1590  1.9192
 6739TIP3    H220182   6.351   0.230   5.825 -0.0563  1.8638 -0.0557
 6740TIP3   OH220183   1.076   0.470   5.060  0.2171 -0.5723  0.3410
 6740TIP3    H120184   1.166   0.489   5.086 -0.3363  1.5958  0.8802
 6740TIP3    H220185   1.066   0.375   5.073  2.8304 -1.1345 -1.1610
 6741TIP3   OH220186   1.391   2.894   2.014 -0.8960  0.2666 -0.1615
 6741TIP3    H120187   1.444   2.936   1.946 -1.9435  0.6537 -0.7616
 6741TIP3    H220188   1.450   2.886   2.089  0.4544 -0.6012 -1.2507
 6742TIP3   OH220189   5.247   2.832   0.064  0.0857 -0.1602  0.1393
 6742TIP3    H120190   5.245   2.894  -0.008 -1.4738 -0.0170  0.2842
 6742TIP3    H220191   5.257   2.747   0.022 -1.5535 -0.1504 -0.3241
 6743TIP3   OH220192   6.486   0.551   3.123  0.2396  0.3251  0.8305
 6743TIP3    H120193   6.433   0.476   3.151  0.0076  0.8973  1.9448
 6743TIP3    H220194   6.427   0.602   3.067  0.6440 -0.7097 -0.6146
 6744TIP3   OH220195   5.179   5.723   0.314 -0.0194 -0.2350 -0.1565
 6744TIP3    H120196   5.225   5.793   0.269 -1.5635 -0.3698 -2.0501
 6744TIP3    H220197   5.248   5.675   0.360  1.2475  1.6144 -0.0225
 6745TIP3   OH220198   0.093   2.828   2.188  0.3143  0.3084  0.2301
 6745TIP3    H120199   0.001   2.852   2.188 -0.3137 -1.8868 -0.0082
 6745TIP3    H220200   0.138   2.905   2.153 -1.6989  0.4946 -2.2148
 6746TIP3   OH220201   0.203   2.715   0.260  0.4637  0.4161  0.3940
 6746TIP3    H120202   0.128   2.658   0.243  0.2888  0.8403 -0.2649
 6746TIP3    H220203   0.172   2.803   0.240  1.8845  0.3705 -2.5725
 6747TIP3   OH220204   0.459   3.845   2.634  0.0777  0.3800  1.1440
 6747TIP3    H120205   0.446   3.936   2.663 -1.2773  0.7238 -0.3847
 6747TIP3    H220206   0.379   3.800   2.661 -0.2911  0.2166 -0.1877
 6748TIP3   OH220207   0.307   2.708   5.072 -0.1178 -0.2186 -0.3645
 6748TIP3    H120208   0.360   2.694   5.150 -1.1226 -0.2066  0.3381
 6748TIP3    H220209   0.290   2.620   5.039  1.9836 -0.1754 -1.7726
 6749TIP3   OH220210   6.970   4.607   0.245  0.4472 -0.2942  0.1636
 6749TIP3    H120211   6.897   4.567   0.198  0.6620 -0.1258 -0.3164
 6749TIP3    H220212   7.040   4.614   0.180  0.6027  0.3354  0.3960
 6750TIP3   OH220213   0.025   6.277   4.999 -0.1571 -0.0385  0.5287
 6750TIP3    H120214   0.032   6.304   4.907 -1.7590 -0.5713  0.2124
 6750TIP3    H220215   0.115   6.259   5.026  0.2695 -0.7204 -1.2175
 6751TIP3   OH220216   0.523   2.790   2.127 -0.7242 -0.1578  0.0043
 6751TIP3    H120217   0.498   2.875   2.163  0.5500  0.3565 -0.2456
 6751TIP3    H220218   0.513   2.729   2.200 -0.6744  0.3963  0.4858
 6752TIP3   OH220219   5.811   5.839   5.670 -0.2647  0.2723 -0.0080
 6752TIP3    H120220   5.722   5.854   5.638 -0.1366  1.3546  0.1055
 6752TIP3    H220221   5.858   5.920   5.648  1.1486 -0.9038 -1.5886
 6753TIP3   OH220222   5.434   6.345   4.995 -0.2043  0.4404  0.6619
 6753TIP3    H120223   5.455   6.307   5.080  0.0093 -0.1787  0.3441
 6753TIP3    H220224   5.428   6.269   4.936  0.7730  0.9226 -0.1082
 6754TIP3   OH220225   2.060   4.413   4.794 -0.0270  0.0618 -0.0534
 6754TIP3    H120226   2.050   4.347   4.726  1.9567  0.1002 -0.4455
 6754TIP3    H220227   2.012   4.378   4.869 -0.8445 -0.7595 -0.9245
 6755TIP3   OH220228   5.950   1.257   4.943 -0.0929  0.3502 -0.0375
 6755TIP3    H120229   5.940   1.263   4.848 -1.3989 -0.4548  0.0249
 6755TIP3    H220230   5.947   1.347   4.974 -0.3102  0.5779 -0.7082
 6756TIP3   OH220231   4.635   1.880   2.884 -0.4489 -0.5691  0.4058
 6756TIP3    H120232   4.722   1.916   2.866 -0.7432 -0.6528 -1.3983
 6756TIP3    H220233   4.644   1.837   2.969  1.5455 -1.4164 -0.1762
 6757TIP3   OH220234   4.333   5.435   1.533 -0.2624  0.9534  0.0740
 6757TIP3    H120235   4.363   5.348   1.509 -1.4986  0.6188 -0.2865
 6757TIP3    H220236   4.337   5.485   1.452 -2.6844  0.3156 -0.5142
 6758TIP3   OH220237   2.661   1.894   4.302 -0.3321  0.1136 -0.2504
 6758TIP3    H120238   2.626   1.841   4.231 -2.5046 -0.4888  1.1425
 6758TIP3    H220239   2.651   1.839   4.380  1.6925  0.8549  0.5863
 6759TIP3   OH220240   3.169   3.246   5.214  0.1666  0.5584  0.4372
 6759TIP3    H120241   3.145   3.153   5.224 -2.2173  1.0277 -0.3775
 6759TIP3    H220242   3.108   3.292   5.272 -0.4650  1.7957 -1.1632
 6760TIP3   OH220243   2.890   2.878   0.732  0.3513 -0.3439  0.5986
 6760TIP3    H120244   2.935   2.853   0.813 -1.3150 -1.5770  1.1857
 6760TIP3    H220245   2.858   2.966   0.748 -0.8234 -0.9464  1.7005
 6761TIP3   OH220246   2.528   6.408   5.583  0.2910  0.3099  0.1083
 6761TIP3    H120247   2.460   6.371   5.639  0.5623  0.5207  0.5788
 6761TIP3    H220248   2.592   6.338   5.575 -0.2218 -0.0760 -0.7620
 6762TIP3   OH220249   4.979   5.450   2.165 -0.1587  0.2365 -0.0149
 6762TIP3    H120250   4.913   5.509   2.200 -0.4729  0.1977 -0.5375
 6762TIP3    H220251   4.958   5.365   2.204  0.8077  0.6127  1.4206
 6763TIP3   OH220252   6.578   6.645   2.820  0.0302  0.4399 -0.3570
 6763TIP3    H120253   6.538   6.662   2.735  1.3232  0.3602 -1.0091
 6763TIP3    H220254   6.513   6.593   2.868 -2.1440  3.2872  0.0048
 6764TIP3   OH220255   1.188   2.661   3.855  0.2225  0.2382 -0.2372
 6764TIP3    H120256   1.188   2.567   3.835 -2.0044  0.0390  0.5186
 6764TIP3    H220257   1.238   2.668   3.936  0.0036 -0.3590 -0.0445
 6765TIP3   OH220258   6.602   3.979   5.393 -0.2763  0.4272  0.1177
 6765TIP3    H120259   6.668   4.024   5.447  0.1372 -0.5168  0.4210
 6765TIP3    H220260   6.519   4.015   5.423 -0.0912 -0.3648  1.7076
 6766TIP3   OH220261   1.787   6.074   4.614 -0.5036  0.8138  0.4425
 6766TIP3    H120262   1.730   6.089   4.690  0.3773 -0.6124  1.4478
 6766TIP3    H220263   1.729   6.035   4.548 -0.8483 -0.0534  1.2289
 6767TIP3   OH220264   5.059   2.674   3.150  0.0138  0.4712  0.3744
 6767TIP3    H120265   4.989   2.729   3.116 -0.2368  1.8415  2.8362
 6767TIP3    H220266   5.065   2.601   3.088 -0.6021  2.5016 -2.2651
 6768TIP3   OH220267   5.791   2.236   1.739 -0.0138 -0.0286  0.1192
 6768TIP3    H120268   5.725   2.303   1.721  0.8371  0.5506 -1.0263
 6768TIP3    H220269   5.808   2.196   1.653  0.2763 -0.9581  0.6060
 6769TIP3   OH220270   0.503   4.526   0.870 -0.0427  0.7604  0.0733
 6769TIP3    H120271   0.435   4.472   0.911 -0.4177 -0.7825 -2.3344
 6769TIP3    H220272   0.572   4.533   0.936 -0.5644 -1.6515  0.9823
 6770TIP3   OH220273   6.359   0.322   3.784 -0.0412  0.1902  0.1305
 6770TIP3    H120274   6.424   0.253   3.779  0.7469  1.0241 -2.3857
 6770TIP3    H220275   6.409   0.403   3.795 -0.9717  0.4537  4.2737
 6771TIP3   OH220276   2.908   4.696   3.785  0.4536  0.2708 -0.0424
 6771TIP3    H120277   2.976   4.690   3.718 -0.1177  1.1650 -0.7164
 6771TIP3    H220278   2.923   4.781   3.827 -1.2877  1.3270 -1.3950
 6772TIP3   OH220279   1.447   3.471   4.806  0.1494 -0.3556 -0.1026
 6772TIP3    H120280   1.538   3.499   4.812  0.7893 -2.2883 -0.2185
 6772TIP3    H220281   1.426   3.435   4.892  0.3405 -2.2077 -0.7759
 6773TIP3   OH220282   0.443   5.516   4.815  0.1331 -0.1618  0.0336
 6773TIP3    H120283   0.464   5.475   4.899 -0.6726 -0.6974 -0.0117
 6773TIP3    H220284   0.496   5.596   4.814 -1.5974  1.1412  2.1658
 6774TIP3   OH220285   1.960   0.459   4.636  0.0551 -0.5502  0.0749
 6774TIP3    H120286   1.947   0.370   4.667  0.1325 -0.5282  0.1716
 6774TIP3    H220287   1.971   0.511   4.715 -1.5428 -0.1928  0.0925
 6775TIP3   OH220288   1.693   2.442   5.457  0.3657 -0.4748 -0.4001
 6775TIP3    H120289   1.639   2.511   5.417 -0.2612 -1.4542 -1.2881
 6775TIP3    H220290   1.630   2.374   5.482  1.0459 -1.0135 -0.1285
 6776TIP3   OH220291   2.500   1.406   0.669 -0.0891  0.0069  0.0713
 6776TIP3    H120292   2.581   1.419   0.719  0.1390  1.6254 -0.6500
 6776TIP3    H220293   2.497   1.312   0.653  0.3453 -0.4355  2.2425
 6777TIP3   OH220294   0.733   5.214   5.492  0.3586  0.5452  0.1946
 6777TIP3    H120295   0.741   5.274   5.566  1.1735 -1.5007  1.8511
 6777TIP3    H220296   0.717   5.129   5.531  2.0910 -0.8559 -1.8808
 6778TIP3   OH220297   3.987   0.569   0.238  0.4451  0.0910 -0.1042
 6778TIP3    H120298   4.051   0.524   0.183 -1.3936 -0.3557 -2.0211
 6778TIP3    H220299   4.021   0.658   0.248  1.5820 -0.2670 -0.6606
 6779TIP3   OH220300   2.380   4.829   0.216  0.3318  0.1694  0.1495
 6779TIP3    H120301   2.375   4.925   0.220 -0.5582  0.0985  0.7926
 6779TIP3    H220302   2.414   4.811   0.128 -0.7022  1.0398 -0.4526
 6780TIP3   OH220303   0.812   5.774   2.410 -0.2056 -0.2258  0.2192
 6780TIP3    H120304   0.758   5.790   2.332  0.0021  0.1694  0.1539
 6780TIP3    H220305   0.749   5.742   2.475 -0.8927  1.9573  0.7249
 6781TIP3   OH220306   2.190   1.160   0.740  0.1701  0.2910  0.3361
 6781TIP3    H120307   2.207   1.109   0.819 -0.0887 -1.0558 -0.4449
 6781TIP3    H220308   2.275   1.171   0.699 -0.0835 -2.4410 -1.1812
 6782TIP3   OH220309   3.702   2.507   4.022 -0.1183  0.1320 -0.1018
 6782TIP3    H120310   3.781   2.462   3.995 -0.9246 -1.4344  0.0494
 6782TIP3    H220311   3.715   2.598   3.995  1.7831 -0.0532  0.0803
 6783TIP3   OH220312   6.193   3.415   1.171  0.0396 -0.6994 -0.1698
 6783TIP3    H120313   6.186   3.440   1.264 -0.2945  2.2254 -0.8730
 6783TIP3    H220314   6.219   3.496   1.127  1.0420 -2.2168 -2.5661
 6784TIP3   OH220315   0.693   0.361   0.034  0.1263 -0.2743  0.0029
 6784TIP3    H120316   0.765   0.360  -0.030 -0.5343 -0.1208 -0.7573
 6784TIP3    H220317   0.698   0.449   0.073 -0.3541  0.1516 -0.8734
 6785TIP3   OH220318   3.666   4.326   3.304 -0.0668 -0.0124  0.4412
 6785TIP3    H120319   3.613   4.250   3.279  0.5946  0.5703 -3.4394
 6785TIP3    H220320   3.756   4.295   3.298  0.1676  0.6871  0.2716
 6786TIP3   OH220321   1.792   3.510   1.569  0.4279  0.1314  0.4116
 6786TIP3    H120322   1.829   3.534   1.484 -1.0146 -1.0584 -0.5966
 6786TIP3    H220323   1.699   3.530   1.561 -0.1492 -2.1263  0.8488
 6787TIP3   OH220324   1.220   0.258   2.651  0.6431  0.0588  0.7878
 6787TIP3    H120325   1.160   0.294   2.585  0.1223 -1.6145  0.2768
 6787TIP3    H220326   1.214   0.318   2.725 -1.3903  0.1695  0.5875
 6788TIP3   OH220327   5.612   5.884   4.046 -0.1268 -0.3043 -0.3711
 6788TIP3    H120328   5.582   5.809   4.096  0.3404  0.7468  1.6097
 6788TIP3    H220329   5.707   5.873   4.042 -0.0898 -0.0058 -0.3477
 6789TIP3   OH220330   6.979  -0.008   3.851 -0.6300  0.4085 -0.3678
 6789TIP3    H120331   7.075   0.002   3.854 -0.5014 -0.7874  0.3196
 6789TIP3    H220332   6.947   0.055   3.914 -0.3298  1.1328 -0.9254
 6790TIP3   OH220333   5.460   6.626   4.066  0.3378 -0.0092  0.0788
 6790TIP3    H120334   5.373   6.587   4.077 -0.5147  1.0060 -2.3803
 6790TIP3    H220335   5.521   6.553   4.081 -0.9321 -0.8876  1.1993
 6791TIP3   OH220336   6.404   3.080   4.096 -0.0772 -0.4220  0.0058
 6791TIP3    H120337   6.401   3.036   4.012 -0.3312 -0.1037 -0.1514
 6791TIP3    H220338   6.498   3.087   4.115  0.1044  1.5272 -1.3270
 6792TIP3   OH220339   0.701   5.517   3.037  0.5137 -0.5787 -0.2078
 6792TIP3    H120340   0.753   5.571   2.976 -0.2178  1.0372  0.5333
 6792TIP3    H220341   0.673   5.578   3.105  0.8669 -2.2352  1.5025
 6793TIP3   OH220342   1.182   6.674   0.955  0.6664 -0.9564  0.0404
 6793TIP3    H120343   1.276   6.668   0.933  1.1802  1.9749  0.9534
 6793TIP3    H220344   1.143   6.714   0.877  0.5214 -0.5499  0.3183
 6794TIP3   OH220345   3.371   0.797   1.888 -0.2068  0.0918  0.2320
 6794TIP3    H120346   3.361   0.735   1.961  1.3403 -1.3853 -0.7252
 6794TIP3    H220347   3.438   0.858   1.919  0.9200 -0.9102 -0.1121
 6795TIP3   OH220348   0.424   5.241   2.242 -0.5845  0.0336  0.1568
 6795TIP3    H120349   0.343   5.289   2.260 -1.1871 -0.7865 -0.2651
 6795TIP3    H220350   0.415   5.215   2.150  0.5018  0.5647 -0.1103
 6796TIP3   OH220351   6.296   3.716   2.551  0.0880  0.1208  0.3223
 6796TIP3    H120352   6.266   3.803   2.524 -3.2984 -1.1647 -0.5789
 6796TIP3    H220353   6.392   3.721   2.546 -0.0293  3.2906 -1.2582
 6797TIP3   OH220354   7.044   3.696   2.599 -0.2430  0.3836  0.0664
 6797TIP3    H120355   7.035   3.770   2.659  1.2665  0.0731  0.7234
 6797TIP3    H220356   7.042   3.619   2.656 -0.0140  0.0127 -0.4205
 6798TIP3   OH220357   1.489   2.771   4.719 -0.1840  0.1700 -0.0469
 6798TIP3    H120358   1.542   2.846   4.748  1.8709 -0.5033 -1.8112
 6798TIP3    H220359   1.485   2.780   4.624 -0.7032 -1.4673 -0.2096
 6799TIP3   OH220360   0.073   2.838   5.131 -0.4783 -0.0131 -0.4876
 6799TIP3    H120361   0.153   2.793   5.105 -0.3215 -0.0813  0.0986
 6799TIP3    H220362   0.012   2.768   5.152 -0.0835  0.0219  0.8889
 6800TIP3   OH220363   4.396   3.560   2.522  0.0475 -0.3254 -0.6091
 6800TIP3    H120364   4.396   3.652   2.496  1.5759 -0.3586 -0.8642
 6800TIP3    H220365   4.477   3.550   2.573 -1.4129 -0.9278  1.7784
 6801TIP3   OH220366   1.982   1.763   5.764  0.0005  0.1928 -0.2437
 6801TIP3    H120367   2.016   1.851   5.783  0.0035  0.0353  0.5376
 6801TIP3    H220368   1.905   1.778   5.711  1.8544  0.5209 -3.0696
 6802TIP3   OH220369   0.134   5.283   2.262 -0.3460 -0.4083 -0.1839
 6802TIP3    H120370   0.143   5.287   2.167 -2.8481 -0.1178 -0.4727
 6802TIP3    H220371   0.040   5.288   2.278 -0.0848 -1.5690  2.2725
 6803TIP3   OH220372   1.533   2.312   0.375 -0.4443  0.0485 -0.4691
 6803TIP3    H120373   1.538   2.407   0.382 -0.6494  0.1170 -1.2435
 6803TIP3    H220374   1.596   2.281   0.440 -0.0180  0.7201 -0.5491
 6804TIP3   OH220375   0.530   2.179   1.086 -0.1919  0.3259  0.5535
 6804TIP3    H120376   0.613   2.150   1.050 -0.6773 -0.8975  0.3906
 6804TIP3    H220377   0.524   2.272   1.062  0.3179 -0.0131 -0.9556
 6805TIP3   OH220378   1.163   0.189   3.733 -0.1273 -0.8592  0.4901
 6805TIP3    H120379   1.130   0.180   3.823  1.1578 -0.8286  0.9932
 6805TIP3    H220380   1.252   0.155   3.738  0.1210 -0.3998 -0.6761
 6806TIP3   OH220381   5.360   3.735   3.004 -0.6036 -1.0459  0.1209
 6806TIP3    H120382   5.269   3.718   2.981 -1.0762 -0.4431  1.4568
 6806TIP3    H220383   5.363   3.829   3.024 -0.5532 -1.6647  3.5962
 6807TIP3   OH220384   1.208   5.374   0.227  0.4664  0.5149 -0.6197
 6807TIP3    H120385   1.260   5.432   0.282  1.1866  2.7111 -3.3596
 6807TIP3    H220386   1.269   5.308   0.196 -0.2500 -1.6350  2.1183
 6808TIP3   OH220387   6.229   0.642   0.111  0.1356 -0.1178 -0.5319
 6808TIP3    H120388   6.186   0.598   0.037  0.8474  0.2393 -1.1705
 6808TIP3    H220389   6.192   0.730   0.111 -2.0602 -0.9454  1.3832
 6809TIP3   OH220390   2.699   2.650   2.729  0.5755 -0.0751  0.1379
 6809TIP3    H120391   2.608   2.670   2.751  0.2222  0.0762 -1.3729
 6809TIP3    H220392   2.741   2.736   2.722  0.4280 -0.0674 -0.7660
 6810TIP3   OH220393   0.537   2.071   3.876 -0.1954  0.0599 -0.3669
 6810TIP3    H120394   0.611   2.011   3.874  0.0411  0.3571 -1.2791
 6810TIP3    H220395   0.519   2.085   3.969  0.0633 -1.0224 -0.1423
 6811TIP3   OH220396   2.984   3.755   4.736 -0.2075 -0.0720 -0.2517
 6811TIP3    H120397   3.060   3.789   4.784 -0.5979 -1.1554  1.1953
 6811TIP3    H220398   3.021   3.691   4.676  0.0354 -0.5576  0.4092
 6812TIP3   OH220399   7.046   3.002   1.745 -0.0767 -0.0842 -0.2848
 6812TIP3    H120400   6.952   2.989   1.742 -0.1085  0.2113 -0.5018
 6812TIP3    H220401   7.058   3.095   1.761  0.1898  0.5313 -3.4342
 6813TIP3   OH220402   4.722   2.025   1.685 -0.1909 -0.2934  0.1332
 6813TIP3    H120403   4.746   2.088   1.617  0.0731 -1.8265 -1.2543
 6813TIP3    H220404   4.793   1.962   1.685 -1.0297 -1.2671  0.6289
 6814TIP3   OH220405   0.330   4.250   1.664  0.1907  0.3529  0.4003
 6814TIP3    H120406   0.378   4.167   1.670 -1.1726 -0.5991 -0.9947
 6814TIP3    H220407   0.239   4.224   1.652 -0.4665  2.0878  1.2578
 6815TIP3   OH220408   1.663   6.086   2.258  0.4512  0.6768  0.2248
 6815TIP3    H120409   1.611   6.006   2.262 -0.2070  1.1330  2.9565
 6815TIP3    H220410   1.606   6.154   2.293  1.5717  2.0156 -0.4320
 6816TIP3   OH220411   0.493   0.987   1.723 -0.3845  0.7307  0.3779
 6816TIP3    H120412   0.405   0.982   1.762  0.4247  0.1573  2.2673
 6816TIP3    H220413   0.511   1.081   1.719 -1.6773  0.9570 -1.5834
 6817TIP3   OH220414   5.482   2.537   2.632 -0.1281 -0.1273 -0.3609
 6817TIP3    H120415   5.477   2.596   2.708 -1.3012  0.5741 -0.9519
 6817TIP3    H220416   5.395   2.496   2.629  0.1003 -0.5645 -0.9962
 6818TIP3   OH220417   3.043   3.142   4.740  0.3406  0.6255  0.2890
 6818TIP3    H120418   3.009   3.062   4.701  2.3478 -0.1456  0.0078
 6818TIP3    H220419   3.124   3.160   4.691  0.8872  1.8053  1.5460
 6819TIP3   OH220420   1.115   0.144   0.931 -0.0207 -0.4294  0.0109
 6819TIP3    H120421   1.073   0.176   1.011  0.3429 -0.3232  0.1591
 6819TIP3    H220422   1.060   0.070   0.903 -0.3239 -0.2711  0.1870
 6820TIP3   OH220423   5.250   2.676   5.772 -0.1343 -0.5558 -0.1115
 6820TIP3    H120424   5.246   2.772   5.782 -2.7252 -0.5793 -0.2377
 6820TIP3    H220425   5.245   2.662   5.677  0.1612 -0.8267 -0.0885
 6821TIP3   OH220426   2.314   2.515   4.608 -0.4000 -0.1210  0.3474
 6821TIP3    H120427   2.234   2.560   4.582  1.4280  2.6682 -0.9066
 6821TIP3    H220428   2.330   2.450   4.539 -0.9199  0.1573 -0.0353
 6822TIP3   OH220429   0.912   3.944   5.425 -0.4563 -0.2126  0.8093
 6822TIP3    H120430   0.909   3.864   5.374  0.1542  0.3998 -0.2129
 6822TIP3    H220431   0.825   3.983   5.413 -0.9041 -0.9173  1.6621
 6823TIP3   OH220432   2.357   4.558   4.536  0.1911 -0.8308 -0.3460
 6823TIP3    H120433   2.374   4.651   4.519 -0.4034 -0.5213  0.6758
 6823TIP3    H220434   2.271   4.542   4.497 -0.2210 -0.6548  0.4768
 6824TIP3   OH220435   6.396   3.003   3.025  0.1886 -0.0103 -0.3767
 6824TIP3    H120436   6.443   3.080   2.992  0.2652  0.2909  0.4063
 6824TIP3    H220437   6.304   3.023   3.012  0.2417 -0.2396 -1.1398
 6825TIP3   OH220438   0.133   0.648   2.146 -0.2538 -0.3998  0.3586
 6825TIP3    H120439   0.152   0.739   2.170 -0.3756  0.1360 -1.3976
 6825TIP3    H220440   0.187   0.596   2.205 -0.2702  0.7972  1.4888
 6826TIP3   OH220441   6.023   5.298   4.894 -0.5000  0.0472 -0.0280
 6826TIP3    H120442   6.060   5.258   4.815 -0.3567  1.2741 -0.6034
 6826TIP3    H220443   6.079   5.374   4.911 -0.5880 -0.1424  1.2139
 6827TIP3   OH220444   5.693   5.278   0.810 -0.0543  0.5745 -0.4431
 6827TIP3    H120445   5.656   5.244   0.891 -1.5507  4.7183  0.8285
 6827TIP3    H220446   5.779   5.313   0.835  1.4527 -1.8736 -1.7202
 6828TIP3   OH220447   6.940   3.843   3.803  0.3405  0.4460 -0.3159
 6828TIP3    H120448   6.893   3.764   3.777 -1.4317  0.5793  2.1174
 6828TIP3    H220449   6.895   3.914   3.759 -0.2027  0.3528  0.0751
 6829TIP3   OH220450   1.062   4.029   2.951 -0.8269  0.1309  0.2648
 6829TIP3    H120451   1.035   4.058   2.864 -0.5415 -0.4479 -0.0230
 6829TIP3    H220452   1.122   3.957   2.934  1.4162  1.7630  0.8605
 6830TIP3   OH220453   4.610   4.509   1.743  0.3829  0.0374  0.6845
 6830TIP3    H120454   4.670   4.581   1.725  0.6050 -0.5849 -1.2609
 6830TIP3    H220455   4.523   4.550   1.742  0.5929  0.4901  0.8527
 6831TIP3   OH220456   4.111   5.781   3.741 -0.4029  0.7105 -0.3477
 6831TIP3    H120457   4.085   5.839   3.813 -2.0327 -1.9991  1.3973
 6831TIP3    H220458   4.173   5.720   3.781  1.6868  1.4103 -2.2714
 6832TIP3   OH220459   3.399   5.033   4.884  0.1437 -0.2364  0.2035
 6832TIP3    H120460   3.434   5.031   4.973  1.5231 -0.6940 -0.3187
 6832TIP3    H220461   3.472   5.005   4.829 -1.7352 -3.7382 -0.7569
 6833TIP3   OH220462   2.020   2.643   0.274 -0.2078  0.0244  0.3965
 6833TIP3    H120463   2.039   2.586   0.200  1.3060  0.6212  0.2752
 6833TIP3    H220464   2.034   2.587   0.351 -0.1260 -0.1533  0.2534
 6834TIP3   OH220465   5.466   5.695   0.947  0.3926  0.5516  1.0838
 6834TIP3    H120466   5.501   5.751   1.017 -1.0168  0.0994  2.2009
 6834TIP3    H220467   5.374   5.684   0.970 -0.0720  0.2682 -0.7977
 6835TIP3   OH220468   5.640   0.802   3.154 -0.1554 -0.2231 -0.8575
 6835TIP3    H120469   5.582   0.877   3.142 -0.8854 -0.7282 -0.6014
 6835TIP3    H220470   5.692   0.824   3.231 -2.6006 -1.2761  1.2460
 6836TIP3   OH220471   2.630   5.485   3.146  0.2733  0.2331 -0.3868
 6836TIP3    H120472   2.661   5.437   3.070  0.4282  3.8971 -2.8879
 6836TIP3    H220473   2.708   5.531   3.178 -0.0311 -0.3898  1.3528
 6837TIP3   OH220474   7.112   3.037   0.691 -0.0523 -0.3051 -0.3123
 6837TIP3    H120475   7.035   3.086   0.717  0.3643  0.7251 -0.9579
 6837TIP3    H220476   7.168   3.036   0.769 -1.0164 -1.7124  0.3938
 6838TIP3   OH220477   2.087   0.047   4.316  0.6808 -0.4111 -0.7452
 6838TIP3    H120478   2.054  -0.036   4.283  1.7866 -0.5115 -1.6916
 6838TIP3    H220479   2.181   0.045   4.296  0.8338  0.8154 -0.2643
 6839TIP3   OH220480   4.795   2.234   2.813 -0.4971  0.3582  0.2212
 6839TIP3    H120481   4.701   2.252   2.803 -0.2839  2.3409  1.2373
 6839TIP3    H220482   4.812   2.250   2.906  0.6117 -1.3913  0.3587
 6840TIP3   OH220483   4.314   2.265   3.379 -0.2529  0.3175  0.2525
 6840TIP3    H120484   4.389   2.254   3.437 -0.3512 -3.0644 -0.0778
 6840TIP3    H220485   4.248   2.309   3.432  0.5883 -0.3204  1.8760
 6841TIP3   OH220486   0.944   5.492   4.076 -0.3170 -0.2750 -0.1722
 6841TIP3    H120487   0.895   5.543   4.141  0.4181  0.3439 -0.0863
 6841TIP3    H220488   0.878   5.439   4.032 -1.0131  0.2750  0.1886
 6842TIP3   OH220489   5.170   6.006   2.539 -0.0762 -0.7255 -0.2216
 6842TIP3    H120490   5.159   6.000   2.444 -0.4979  0.1512 -0.2408
 6842TIP3    H220491   5.168   6.100   2.557  0.8610 -0.8447  0.5664
 6843TIP3   OH220492   2.157   3.651   4.128 -0.0980  0.3152  0.2206
 6843TIP3    H120493   2.075   3.647   4.081 -1.1861  1.7465  1.8630
 6843TIP3    H220494   2.144   3.595   4.205  1.2206 -1.0632 -0.5033
 6844TIP3   OH220495   0.284   5.510   2.081  0.0818 -0.2982 -0.0980
 6844TIP3    H120496   0.270   5.425   2.039  3.6158 -0.8172 -0.4595
 6844TIP3    H220497   0.297   5.570   2.009 -1.6484  0.5022  0.1886
 6845TIP3   OH220498   6.006   3.430   0.479  0.0898 -0.2321  0.4745
 6845TIP3    H120499   5.958   3.498   0.527 -0.0141 -0.2349  0.3749
 6845TIP3    H220500   6.064   3.479   0.421 -0.0840 -0.2279  0.3039
 6846TIP3   OH220501   0.938   1.718   2.388  0.0553  0.0894 -0.3194
 6846TIP3    H120502   0.878   1.654   2.427  1.1641 -0.5984  0.2881
 6846TIP3    H220503   0.991   1.667   2.327  1.4562  0.2759  0.7189
 6847TIP3   OH220504   3.220   6.555   5.229  0.5186  0.2003  0.0832
 6847TIP3    H120505   3.237   6.587   5.141  0.7830 -0.2538 -0.0385
 6847TIP3    H220506   3.307   6.536   5.264  0.4927  1.3508  0.8264
 6848TIP3   OH220507   6.719   0.250   2.889 -0.2158 -0.0653 -0.1435
 6848TIP3    H120508   6.737   0.343   2.902  0.0645 -0.1623  0.1720
 6848TIP3    H220509   6.675   0.223   2.969 -2.1632  0.2504 -1.0352
 6849TIP3   OH220510   1.611   3.084   4.297 -0.2182 -0.5989 -0.0126
 6849TIP3    H120511   1.634   3.107   4.207 -0.7691  1.3474  0.2984
 6849TIP3    H220512   1.694   3.062   4.339  0.2847  0.3379 -0.5014
 6850TIP3   OH220513   7.044   0.935   0.020  0.5353  0.3822 -0.4666
 6850TIP3    H120514   7.126   0.914   0.066 -1.2235  0.2376  2.8427
 6850TIP3    H220515   7.033   1.029   0.031  0.2233  0.4050 -0.9297
 6851TIP3   OH220516   6.586   2.574   0.066  0.0960 -0.0354 -0.2361
 6851TIP3    H120517   6.587   2.660   0.109  0.3492 -0.6068  0.9678
 6851TIP3    H220518   6.510   2.530   0.103  0.8803 -0.9009  0.4154
 6852TIP3   OH220519   3.138   2.207   3.397 -0.0942  0.1871 -0.6817
 6852TIP3    H120520   3.152   2.112   3.388 -0.0513  0.3358 -2.5195
 6852TIP3    H220521   3.065   2.215   3.458  0.1472 -1.0136 -0.2050
 6853TIP3   OH220522   6.999   5.905   4.010  0.3977  0.0369 -0.5566
 6853TIP3    H120523   7.081   5.926   3.965  1.2386 -0.8853  0.4754
 6853TIP3    H220524   7.024   5.839   4.074 -0.9873  0.4519  0.4491
 6854TIP3   OH220525   3.002   1.575   4.734 -0.3825 -0.2134  0.6906
 6854TIP3    H120526   2.922   1.544   4.777 -0.7292  0.0037  0.2122
 6854TIP3    H220527   3.070   1.512   4.760 -1.2197 -1.8855 -0.8947
 6855TIP3   OH220528   7.082   0.805   3.959  0.3302  0.3059 -0.5830
 6855TIP3    H120529   7.093   0.771   3.871  1.3039  1.5824 -0.9792
 6855TIP3    H220530   7.142   0.879   3.965 -0.4081  0.8483  0.8316
 6856TIP3   OH220531   2.269   4.044   0.796  0.1683  0.1471 -0.2496
 6856TIP3    H120532   2.190   4.098   0.793 -0.0428 -0.0942  0.8049
 6856TIP3    H220533   2.237   3.955   0.780  0.2940  0.1099 -0.2925
 6857TIP3   OH220534   5.367   0.685   2.649  0.0275 -0.9224 -0.0969
 6857TIP3    H120535   5.314   0.641   2.583  0.8284 -2.9825  0.5350
 6857TIP3    H220536   5.445   0.715   2.602 -0.5633 -0.0669 -0.5503
 6858TIP3   OH220537   4.283   0.017   2.232 -0.2861 -0.0676 -0.3112
 6858TIP3    H120538   4.362  -0.032   2.257  0.1061 -0.1329 -1.5971
 6858TIP3    H220539   4.317   0.099   2.196 -0.8830  0.5747  0.5568
 6859TIP3   OH220540   5.099   5.754   3.383 -0.3702  0.0198 -0.1951
 6859TIP3    H120541   5.047   5.818   3.433  1.4187  0.8646  0.6598
 6859TIP3    H220542   5.171   5.730   3.441  0.2059 -1.1433 -1.3341
 6860TIP3   OH220543   2.701   5.107   3.463  0.2363 -0.6116  0.1243
 6860TIP3    H120544   2.676   5.195   3.436 -1.2450 -1.7507 -2.6084
 6860TIP3    H220545   2.633   5.079   3.524 -1.3099 -1.0439 -1.6956
 6861TIP3   OH220546   0.315   3.835   2.338  0.4087 -0.3129  0.2030
 6861TIP3    H120547   0.274   3.865   2.419 -0.8645 -0.0842 -0.4975
 6861TIP3    H220548   0.338   3.744   2.355  1.0633  0.0190  1.1530
 6862TIP3   OH220549   1.214   6.237   5.837  0.6076  0.1883  0.1073
 6862TIP3    H120550   1.257   6.306   5.888  0.2460  0.2925  0.2759
 6862TIP3    H220551   1.286   6.185   5.801  0.9954  1.9467 -1.8644
 6863TIP3   OH220552   0.851   4.615   1.314  0.6436  0.5618  0.0953
 6863TIP3    H120553   0.890   4.700   1.334  0.4252  0.6112  0.3156
 6863TIP3    H220554   0.923   4.563   1.279  0.7075  0.9364 -0.3274
 6864TIP3   OH220555   6.940   1.809   4.503  0.1716  0.1651 -0.3300
 6864TIP3    H120556   6.878   1.864   4.457 -1.6755 -0.3389  1.3907
 6864TIP3    H220557   6.955   1.854   4.587 -0.5850 -1.3842  0.6842
 6865TIP3   OH220558   4.691   4.346   1.536  0.5347  0.1987 -0.9775
 6865TIP3    H120559   4.621   4.280   1.528  1.8789 -1.0559 -3.5689
 6865TIP3    H220560   4.657   4.409   1.600 -2.2625 -1.2011 -0.9256
 6866TIP3   OH220561   2.167   5.018   4.494  0.3403 -0.4949 -0.3180
 6866TIP3    H120562   2.217   5.042   4.572 -0.6251  0.8754 -0.0898
 6866TIP3    H220563   2.197   4.929   4.474  1.6133 -0.3597  0.7894
 6867TIP3   OH220564   6.956   5.636   5.810 -0.4857  0.3119  0.0817
 6867TIP3    H120565   6.923   5.642   5.900  1.7052 -0.4751  1.0207
 6867TIP3    H220566   6.999   5.720   5.795 -0.2665  0.1884  0.0228
 6868TIP3   OH220567   4.992   0.695   0.794  0.9378  0.1596  0.1083
 6868TIP3    H120568   5.031   0.648   0.868  0.4379  0.4953  0.5937
 6868TIP3    H220569   4.944   0.767   0.835 -0.0725 -0.1634 -0.4821
 6869TIP3   OH220570   0.866   1.846   4.919 -0.3495 -0.5814  0.0313
 6869TIP3    H120571   0.815   1.925   4.899  0.8544  0.2162 -0.0096
 6869TIP3    H220572   0.806   1.791   4.969 -1.4542  0.0378 -0.5736
 6870TIP3   OH220573   1.556   4.761   4.224  0.2584 -0.1247 -0.2840
 6870TIP3    H120574   1.520   4.801   4.304 -0.5870 -1.8800  0.2653
 6870TIP3    H220575   1.626   4.704   4.255  0.0738 -0.6496 -0.8102
 6871TIP3   OH220576   2.112   1.533   4.751  0.3375  0.7637  0.0018
 6871TIP3    H120577   2.044   1.514   4.815  0.4977 -0.7709 -0.2367
 6871TIP3    H220578   2.115   1.629   4.746 -0.3518  0.8906  1.5374
 6872TIP3   OH220579   4.504   2.239   4.132  0.4070  0.3732  0.0647
 6872TIP3    H120580   4.540   2.325   4.156  2.2194 -0.7331  1.5349
 6872TIP3    H220581   4.458   2.209   4.211  1.7728 -0.9693  0.3933
 6873TIP3   OH220582   1.334   4.937   5.411  0.1945  0.1753  0.3591
 6873TIP3    H120583   1.274   5.004   5.380 -0.4862 -1.8045 -3.0815
 6873TIP3    H220584   1.420   4.968   5.385  0.0094  0.2528 -0.1760
 6874TIP3   OH220585   1.213   4.693   2.937 -0.0588  0.2542  0.7468
 6874TIP3    H120586   1.278   4.693   2.866 -1.0179 -2.3324 -0.2611
 6874TIP3    H220587   1.184   4.784   2.942  1.0018  0.7738 -1.2849
 6875TIP3   OH220588   5.965   5.134   1.711 -0.0272  0.4161  0.5342
 6875TIP3    H120589   5.888   5.182   1.740 -1.2111 -2.0900  1.8781
 6875TIP3    H220590   5.992   5.178   1.631 -4.0569  0.2820 -1.1412
 6876TIP3   OH220591   1.819   1.614   4.565  0.1727 -0.7133  0.3190
 6876TIP3    H120592   1.858   1.529   4.548  1.0397 -0.0695 -1.1422
 6876TIP3    H220593   1.874   1.676   4.517 -1.5365  0.4551 -0.2502
 6877TIP3   OH220594   6.651   1.608   5.743  0.6964 -0.2046 -0.2690
 6877TIP3    H120595   6.677   1.666   5.672  0.3197 -0.0050 -0.2509
 6877TIP3    H220596   6.676   1.520   5.714  0.9114 -0.0751 -0.4697
 6878TIP3   OH220597   6.129   6.448   0.400  0.2580 -0.6171  0.4691
 6878TIP3    H120598   6.060   6.383   0.393  0.0569 -0.4485  0.8548
 6878TIP3    H220599   6.140   6.461   0.495  0.8565 -0.6871  0.4164
 6879TIP3   OH220600   6.594   4.696   5.686 -0.0533 -0.0299 -0.0691
 6879TIP3    H120601   6.599   4.648   5.603  0.0073  0.3462 -0.2851
 6879TIP3    H220602   6.516   4.661   5.730  0.4891 -0.9666  0.1801
 6880TIP3   OH220603   2.820   3.447   5.643 -0.4074 -0.3951  0.2359
 6880TIP3    H120604   2.838   3.528   5.691 -1.8062  0.1102 -0.0516
 6880TIP3    H220605   2.744   3.468   5.588 -1.3591 -2.1547  0.8092
 6881TIP3   OH220606   6.786   5.930   1.660 -0.5094 -0.1258 -0.2154
 6881TIP3    H120607   6.789   5.927   1.565  0.7455  0.1703 -0.1961
 6881TIP3    H220608   6.788   5.838   1.687 -2.3017 -0.2892 -0.4695
 6882TIP3   OH220609   3.147   0.600   1.366 -0.4544 -0.1845  0.4661
 6882TIP3    H120610   3.210   0.672   1.373 -0.1593 -0.0373 -2.4584
 6882TIP3    H220611   3.172   0.540   1.436  2.6631  0.1181 -0.2201
 6883TIP3   OH220612   4.347   5.388   5.862  0.2862 -0.4713  0.4982
 6883TIP3    H120613   4.418   5.401   5.799  0.4065 -0.0885  0.7059
 6883TIP3    H220614   4.335   5.293   5.866  0.9045 -0.5496  0.5952
 6884TIP3   OH220615   6.863   6.504   0.741  0.3459 -0.1619 -0.1056
 6884TIP3    H120616   6.851   6.530   0.650  2.0903  1.1852 -0.0074
 6884TIP3    H220617   6.829   6.577   0.792 -0.5981 -0.8982  0.3423
 6885TIP3   OH220618   0.267   4.543   2.885 -0.0690 -0.2208 -0.3486
 6885TIP3    H120619   0.265   4.484   2.810 -1.0066 -2.0035  1.0119
 6885TIP3    H220620   0.315   4.495   2.952  1.0935  1.4954  0.1147
 6886TIP3   OH220621   6.138   5.166   3.224 -0.2589 -0.3181  0.6217
 6886TIP3    H120622   6.119   5.157   3.317 -2.5009  1.6733  0.4483
 6886TIP3    H220623   6.079   5.235   3.194 -0.1269 -1.3882 -2.4441
 6887TIP3   OH220624   6.087   5.883   3.316  0.2061 -0.3781 -0.2432
 6887TIP3    H120625   6.056   5.793   3.306  1.2100 -0.5638 -2.1911
 6887TIP3    H220626   6.056   5.910   3.402 -1.3033 -2.1039 -0.1965
 6888TIP3   OH220627   0.601   4.818   1.055  0.3492 -0.0098  0.5140
 6888TIP3    H120628   0.620   4.865   1.137 -0.8755  2.4057 -0.4808
 6888TIP3    H220629   0.518   4.856   1.025  0.4738 -1.2545 -1.5824
 6889TIP3   OH220630   1.449   4.815   0.239 -0.4926  0.0965  0.2403
 6889TIP3    H120631   1.434   4.784   0.328  3.2750 -0.3123  0.9101
 6889TIP3    H220632   1.463   4.909   0.247  2.8312 -0.3261  0.7249
 6890TIP3   OH220633   4.378   5.397   5.369  0.4315 -0.2190 -0.0233
 6890TIP3    H120634   4.470   5.395   5.343  0.4839 -3.9179 -0.1800
 6890TIP3    H220635   4.330   5.377   5.289 -0.4473  0.6136  0.2775
 6891TIP3   OH220636   0.172   4.752   5.800  0.7285 -0.6607  0.6961
 6891TIP3    H120637   0.149   4.815   5.868  1.7889  0.6394 -0.0863
 6891TIP3    H220638   0.268   4.754   5.798  0.7939 -2.3208  0.6338
 6892TIP3   OH220639   0.047   4.271   1.675  0.7277 -0.5013  0.2725
 6892TIP3    H120640  -0.038   4.240   1.641  0.8583 -1.9402  1.2003
 6892TIP3    H220641   0.039   4.367   1.674 -0.7468 -0.5993 -0.0479
 6893TIP3   OH220642   4.765   2.803   4.240 -0.0210 -0.0523  0.8827
 6893TIP3    H120643   4.672   2.810   4.219  0.5355  1.6133 -1.5388
 6893TIP3    H220644   4.798   2.734   4.181  0.2983 -0.5845  1.6716
 6894TIP3   OH220645   5.861   0.493   1.846 -0.3048 -0.0105  0.4323
 6894TIP3    H120646   5.929   0.479   1.912  0.4341  2.6420  0.3762
 6894TIP3    H220647   5.906   0.487   1.762 -0.4077  0.3664  0.3444
 6895TIP3   OH220648   4.198   2.916   0.936 -0.1896  0.4279  0.0757
 6895TIP3    H120649   4.202   2.864   0.856 -0.9686 -0.9181  0.8756
 6895TIP3    H220650   4.287   2.912   0.972 -0.0511  0.3301 -0.2725
 6896TIP3   OH220651   1.283   2.639   1.475  0.0763  0.2210  0.5765
 6896TIP3    H120652   1.287   2.590   1.394 -3.6830  0.2978  0.1621
 6896TIP3    H220653   1.289   2.731   1.448 -1.5753  0.2630  0.2896
 6897TIP3   OH220654   2.001   5.323   4.268  0.5057 -0.4896  0.1243
 6897TIP3    H120655   1.959   5.394   4.220 -0.7463 -1.1014  0.2689
 6897TIP3    H220656   1.956   5.320   4.352  1.6843 -0.3769  0.7747
 6898TIP3   OH220657   3.803   1.791   3.296  0.2480 -0.1522  0.2518
 6898TIP3    H120658   3.746   1.716   3.313  0.5071 -0.2415  0.7251
 6898TIP3    H220659   3.761   1.865   3.340  0.7465 -0.3162  1.0077
 6899TIP3   OH220660   7.014   5.566   4.760  0.2341 -0.3188 -0.2946
 6899TIP3    H120661   7.083   5.523   4.709 -1.9088 -2.3740 -1.6773
 6899TIP3    H220662   6.952   5.598   4.694  0.8167  3.5385  0.7721
 6900TIP3   OH220663   5.828   0.295   3.771 -0.1314 -0.4398 -0.2076
 6900TIP3    H120664   5.919   0.323   3.758 -0.5707  1.4633  0.4710
 6900TIP3    H220665   5.784   0.320   3.690 -0.1908 -0.7048 -0.2567
 6901TIP3   OH220666   3.465   2.416   3.963  0.0180  0.6579  1.3382
 6901TIP3    H120667   3.453   2.339   4.018 -0.7294  1.4370  2.2800
 6901TIP3    H220668   3.560   2.425   3.955  0.1192 -0.4597  1.0460
 6902TIP3   OH220669   2.567   2.802   0.754  0.1674  0.3313  0.1092
 6902TIP3    H120670   2.599   2.817   0.843  0.7733 -0.3897  0.0308
 6902TIP3    H220671   2.619   2.860   0.699  0.9955 -0.4401  0.0472
 6903TIP3   OH220672   5.312   2.037   3.219  0.1259  0.0220 -0.4865
 6903TIP3    H120673   5.293   2.007   3.130  1.1597 -0.9475 -0.4111
 6903TIP3    H220674   5.270   1.973   3.276 -0.1174  0.3674 -0.2710
 6904TIP3   OH220675   1.541   2.853   4.000 -0.0128 -0.3255 -0.3751
 6904TIP3    H120676   1.472   2.917   3.982 -0.6100 -0.5919  0.8623
 6904TIP3    H220677   1.496   2.779   4.041  0.9852 -0.5607  0.3494
 6905TIP3   OH220678   1.173   0.739   3.242  0.0903  0.2099  0.0753
 6905TIP3    H120679   1.229   0.811   3.271 -0.4678  0.6636  0.0390
 6905TIP3    H220680   1.128   0.773   3.165  1.9728 -1.1518 -1.7462
 6906TIP3   OH220681   6.242   0.838   0.694  0.1164 -0.3677 -0.0917
 6906TIP3    H120682   6.321   0.827   0.747  1.1176 -0.3664 -1.5396
 6906TIP3    H220683   6.256   0.921   0.648 -1.5703  0.5687  0.9962
 6907TIP3   OH220684   1.332   4.327   0.877 -0.2244  0.0930  0.6496
 6907TIP3    H120685   1.245   4.296   0.855  0.4203 -1.1889 -0.2386
 6907TIP3    H220686   1.379   4.330   0.793  0.4823  1.1059  1.0587
 6908TIP3   OH220687   2.624   4.348   0.163  0.7890  0.3466 -0.2438
 6908TIP3    H120688   2.707   4.300   0.160 -0.7473 -2.5507 -0.8776
 6908TIP3    H220689   2.571   4.300   0.227 -1.2391  0.5143 -1.6930
 6909TIP3   OH220690   0.629   4.557   1.116  0.1852  0.1691  0.2953
 6909TIP3    H120691   0.602   4.642   1.081  0.2062 -0.2379 -0.7440
 6909TIP3    H220692   0.713   4.575   1.159 -0.1188  0.7899  0.6524
 6910TIP3   OH220693   4.830   3.890   3.914 -0.0989 -0.8937 -0.4626
 6910TIP3    H120694   4.771   3.825   3.952  1.0015 -1.7444 -0.1669
 6910TIP3    H220695   4.855   3.853   3.829  0.2105 -0.6611 -0.4756
 6911TIP3   OH220696   1.524   6.744   4.214 -0.3702  0.2422 -0.0096
 6911TIP3    H120697   1.596   6.763   4.274  0.4170  0.8647 -1.1082
 6911TIP3    H220698   1.464   6.818   4.224  0.8104  1.4510 -1.5021
 6912TIP3   OH220699   2.896   2.231   3.597  0.4380 -0.3904 -0.1988
 6912TIP3    H120700   2.941   2.195   3.674  0.5459 -0.0372 -0.0915
 6912TIP3    H220701   2.821   2.278   3.633  0.4159 -0.3334 -0.3184
 6913TIP3   OH220702   5.147   1.092   2.957 -0.0107  0.0929  0.1757
 6913TIP3    H120703   5.216   1.040   2.917 -0.4960 -0.4890  0.0890
 6913TIP3    H220704   5.177   1.183   2.948  2.2006 -0.2526  2.8343
 6914TIP3   OH220705   0.858   4.216   4.143  0.1342  0.2101 -0.2292
 6914TIP3    H120706   0.914   4.251   4.212  0.3728 -0.0152 -0.3061
 6914TIP3    H220707   0.917   4.164   4.088 -0.1089  0.1482 -0.4356
 6915TIP3   OH220708   3.645   0.794   1.696  0.0637  0.3955  0.3548
 6915TIP3    H120709   3.596   0.724   1.739  0.9470 -0.8029 -0.5267
 6915TIP3    H220710   3.737   0.768   1.703  0.3830  1.2911 -0.2842
 6916TIP3   OH220711   1.387   2.471   4.599  0.3047 -0.0964  0.0551
 6916TIP3    H120712   1.390   2.441   4.690 -2.6226 -0.5394  0.0844
 6916TIP3    H220713   1.324   2.543   4.600 -0.7022 -0.9082 -1.8109
 6917TIP3   OH220714   1.009   1.491   5.101 -0.0691 -0.1094 -0.0952
 6917TIP3    H120715   1.090   1.456   5.064 -0.1805 -0.5528  0.0754
 6917TIP3    H220716   1.009   1.583   5.075 -0.1473 -0.4084 -1.2059
 6918TIP3   OH220717   6.539   2.276   2.045  0.1587  0.2743  0.0361
 6918TIP3    H120718   6.607   2.312   1.988 -1.9195  1.8316 -1.6592
 6918TIP3    H220719   6.525   2.345   2.111 -0.5104  0.4865 -0.3132
 6919TIP3   OH220720   3.106   0.463   1.074  0.0723 -0.3364 -0.0843
 6919TIP3    H120721   3.064   0.464   0.988 -0.2618  2.9824  0.0021
 6919TIP3    H220722   3.190   0.420   1.059 -0.3488 -0.6246 -1.8513
 6920TIP3   OH220723   1.005   3.727   3.855  0.2306 -0.0295 -0.8175
 6920TIP3    H120724   1.003   3.817   3.824 -0.7804 -0.3165 -1.6330
 6920TIP3    H220725   0.914   3.698   3.852  0.3436 -0.6385  0.8127
 6921TIP3   OH220726   2.028   1.287   5.865 -0.3255  0.6930  0.0111
 6921TIP3    H120727   2.031   1.196   5.895  0.1167  0.4475 -0.7592
 6921TIP3    H220728   1.948   1.294   5.814  0.3168  0.3530 -1.0833
 6922TIP3   OH220729   4.755   0.104   3.229  0.8062  0.2840 -0.3956
 6922TIP3    H120730   4.689   0.083   3.162  2.0897  0.0167 -1.6088
 6922TIP3    H220731   4.703   0.130   3.305 -0.7156 -0.3256 -1.1739
 6923TIP3   OH220732   3.948   6.596   2.911 -0.2970 -0.2680  0.2353
 6923TIP3    H120733   3.871   6.604   2.855 -3.3255 -1.0465  3.8991
 6923TIP3    H220734   3.963   6.684   2.945 -0.5094 -0.3780  0.6217
 6924TIP3   OH220735   2.793   2.304   0.149 -0.8117  0.5540 -0.1630
 6924TIP3    H120736   2.820   2.244   0.219 -2.9197  1.3503  1.4510
 6924TIP3    H220737   2.719   2.259   0.108 -0.4809  0.7276 -0.9476
 6925TIP3   OH220738   2.570   1.820   2.012  0.5904 -0.3233  0.0413
 6925TIP3    H120739   2.663   1.801   1.996  0.4025 -0.7538 -0.5409
 6925TIP3    H220740   2.523   1.768   1.947  0.0082  1.2049 -0.8025
 6926TIP3   OH220741   0.473   3.731   3.121 -0.5597  0.6361  0.1748
 6926TIP3    H120742   0.460   3.819   3.156 -0.5267 -0.2982  2.8423
 6926TIP3    H220743   0.564   3.731   3.090 -0.9720  1.8868 -1.0702
 6927TIP3   OH220744   5.952   5.528   1.777 -0.1425 -0.3256 -0.4942
 6927TIP3    H120745   5.922   5.615   1.748  0.6200  1.0116  2.3562
 6927TIP3    H220746   5.883   5.497   1.836  0.3323 -0.9548 -0.2609
 6928TIP3   OH220747   2.163   1.022   5.723  0.7753 -0.2222 -0.0404
 6928TIP3    H120748   2.094   0.984   5.669 -0.4727  1.2724  0.4254
 6928TIP3    H220749   2.220   1.068   5.662  0.7077 -0.4894 -0.3061
 6929TIP3   OH220750   3.503   6.182   4.078  0.0041 -0.1742  0.2854
 6929TIP3    H120751   3.576   6.152   4.024  0.7324 -0.5302  1.4530
 6929TIP3    H220752   3.501   6.277   4.065  0.3364 -0.2232 -0.1605
 6930TIP3   OH220753   4.361   5.013   5.097  0.5770 -0.1519 -0.4595
 6930TIP3    H120754   4.354   4.919   5.080  1.5679 -0.1438 -0.9912
 6930TIP3    H220755   4.299   5.053   5.037 -0.3735 -0.5053  0.2726
 6931TIP3   OH220756   0.755   1.057   0.847 -0.0806  0.1130  0.3679
 6931TIP3    H120757   0.765   1.142   0.804  1.5838 -0.3893 -0.2992
 6931TIP3    H220758   0.843   1.020   0.850 -0.4860 -0.8136  2.3172
 6932TIP3   OH220759   6.033   1.196   2.763  0.1232  0.6678 -0.4131
 6932TIP3    H120760   6.094   1.243   2.820 -0.0988  1.0099 -0.4586
 6932TIP3    H220761   6.089   1.142   2.708  0.5162  2.2321 -1.6131
 6933TIP3   OH220762   7.104   2.574   0.441  0.2903  0.5000  0.0124
 6933TIP3    H120763   7.049   2.521   0.498  0.4259  0.8218  0.4501
 6933TIP3    H220764   7.183   2.591   0.493  0.5671  0.4981 -0.4047
 6934TIP3   OH220765   0.850   2.255   2.987  0.0444  0.1812  0.1361
 6934TIP3    H120766   0.795   2.287   2.916 -3.0128  1.1815  2.7027
 6934TIP3    H220767   0.883   2.171   2.956  0.1526  1.2778 -2.9842
 6935TIP3   OH220768   0.094   5.997   3.208 -0.5490  0.0821 -0.2213
 6935TIP3    H120769   0.129   5.943   3.278 -0.0328  0.4733 -0.1693
 6935TIP3    H220770   0.142   6.079   3.215 -1.9490  0.8961  0.2792
 6936TIP3   OH220771   4.279   3.620   0.652 -0.2175  0.5610 -0.0769
 6936TIP3    H120772   4.196   3.667   0.662 -0.8411 -0.1746 -1.5592
 6936TIP3    H220773   4.340   3.685   0.618 -0.8127  0.5629 -1.1704
 6937TIP3   OH220774   4.087   2.211   5.447 -0.1723 -0.1013  0.2217
 6937TIP3    H120775   4.004   2.206   5.398  0.3693 -0.0828 -0.7248
 6937TIP3    H220776   4.110   2.120   5.464  0.4336 -0.1929 -0.9709
 6938TIP3   OH220777   3.896   0.278   2.874  0.6401 -0.2718  0.2618
 6938TIP3    H120778   3.871   0.238   2.791 -0.0953 -0.8718  0.7478
 6938TIP3    H220779   3.950   0.352   2.850 -2.5331  1.8833 -0.9739
 6939TIP3   OH220780   3.247   1.421   5.516  0.2140 -0.3066  0.0785
 6939TIP3    H120781   3.265   1.366   5.593 -0.5703  1.6337  1.7360
 6939TIP3    H220782   3.270   1.365   5.442  3.1825 -1.5259  1.7178
 6940TIP3   OH220783   3.934   1.126   1.069  0.3459 -0.7663 -0.1595
 6940TIP3    H120784   3.943   1.186   0.995  0.4182  0.8960  1.1483
 6940TIP3    H220785   4.018   1.079   1.072  1.1381  0.5988  0.0581
 6941TIP3   OH220786   4.844   6.271   5.223  0.2526 -0.2682  0.1010
 6941TIP3    H120787   4.835   6.278   5.318  1.0995  1.0575  0.1083
 6941TIP3    H220788   4.792   6.343   5.188 -0.5860 -1.1319 -0.4945
 6942TIP3   OH220789   2.483   5.794   1.849  0.0267  0.3985  0.3233
 6942TIP3    H120790   2.509   5.754   1.766 -0.6178 -1.3027  0.8871
 6942TIP3    H220791   2.526   5.879   1.849  1.2947 -0.1863 -1.0703
 6943TIP3   OH220792   3.972   2.912   4.374 -0.2934 -0.4180 -0.3785
 6943TIP3    H120793   3.907   2.866   4.321  1.2226 -0.8062 -1.9971
 6943TIP3    H220794   4.036   2.844   4.398  0.7938  0.3881 -0.8985
 6944TIP3   OH220795   2.599   5.360   3.406  0.1202  0.4727 -0.1978
 6944TIP3    H120796   2.516   5.316   3.390 -0.3925  1.6058 -0.8392
 6944TIP3    H220797   2.612   5.416   3.329  2.4412 -1.0590 -1.0434
 6945TIP3   OH220798   4.323   5.461   2.329  0.3735  0.5835 -0.6960
 6945TIP3    H120799   4.358   5.424   2.248  0.7015  1.1634 -0.8192
 6945TIP3    H220800   4.388   5.525   2.357 -0.7944  2.0236 -1.1669
 6946TIP3   OH220801   5.814   3.445   3.167 -1.0733 -0.2459 -0.5438
 6946TIP3    H120802   5.756   3.515   3.138 -1.8031 -0.8568 -0.6022
 6946TIP3    H220803   5.767   3.402   3.238 -1.9053 -2.3867 -2.2850
 6947TIP3   OH220804   5.302   1.296   3.196  0.2480 -0.3490 -0.4770
 6947TIP3    H120805   5.309   1.300   3.291  0.2634  2.7482 -0.4915
 6947TIP3    H220806   5.207   1.291   3.179  0.2849 -2.1551 -0.3627
 6948TIP3   OH220807   0.246   1.937   5.838 -0.6861 -0.5608  0.0040
 6948TIP3    H120808   0.218   1.974   5.922 -1.2530  1.7708 -1.1455
 6948TIP3    H220809   0.230   1.843   5.847 -0.3743 -0.4344  2.6180
 6949TIP3   OH220810   6.833   2.776   5.480 -0.4797  0.4776 -0.2736
 6949TIP3    H120811   6.842   2.691   5.522  2.6352  0.4036 -0.8461
 6949TIP3    H220812   6.762   2.765   5.418  0.6229 -2.1287 -1.2108
 6950TIP3   OH220813   7.197   1.696   3.221  0.0694 -0.3714 -0.0097
 6950TIP3    H120814   7.204   1.682   3.315  0.0660 -0.4276 -0.0178
 6950TIP3    H220815   7.216   1.789   3.209 -0.7303 -0.1836  0.1345
 6951TIP3   OH220816   3.444   5.412   3.215 -0.4429 -0.4266 -0.1280
 6951TIP3    H120817   3.443   5.328   3.168 -1.6650 -0.9650  0.8190
 6951TIP3    H220818   3.379   5.466   3.169 -1.5424 -0.9081  0.8229
 6952TIP3   OH220819   1.128   3.768   2.299  0.4071 -0.7519 -0.4774
 6952TIP3    H120820   1.150   3.744   2.209 -0.2506 -0.7972 -0.6313
 6952TIP3    H220821   1.040   3.734   2.312  1.2811 -2.7202  0.9191
 6953TIP3   OH220822   4.304   6.185   3.393 -0.0200  0.2041 -0.0622
 6953TIP3    H120823   4.353   6.223   3.320  0.8054 -0.2607  0.2323
 6953TIP3    H220824   4.226   6.147   3.353  0.2787  0.2086 -0.6622
 6954TIP3   OH220825   4.284   5.171   0.959  0.4190  0.0787 -0.0948
 6954TIP3    H120826   4.242   5.231   1.020  0.8403  0.9892 -0.6793
 6954TIP3    H220827   4.266   5.207   0.872  0.1566 -0.9832 -0.5061
 6955TIP3   OH220828   1.515   4.086   4.060  0.1119  0.3950  0.0174
 6955TIP3    H120829   1.550   4.033   3.989  0.7816  0.2873  0.4165
 6955TIP3    H220830   1.505   4.173   4.022 -1.0839 -0.0224 -0.6645
 6956TIP3   OH220831   1.337   0.382   4.991 -0.0266 -0.5849 -0.3956
 6956TIP3    H120832   1.400   0.395   5.061 -0.5122 -1.7422  0.2788
 6956TIP3    H220833   1.383   0.328   4.927 -0.4992 -1.9341  0.3725
 6957TIP3   OH220834   2.308   4.396   2.767 -0.0010 -0.1558 -0.1262
 6957TIP3    H120835   2.376   4.446   2.812 -2.0201  1.3175  1.5217
 6957TIP3    H220836   2.353   4.319   2.734  2.2664  0.2417  1.7165
 6958TIP3   OH220837   5.798   3.158   5.689 -0.0487 -0.2708  0.0142
 6958TIP3    H120838   5.807   3.243   5.731  0.0736 -0.0654 -0.4254
 6958TIP3    H220839   5.887   3.124   5.682  0.0811  0.2668 -1.2440
 6959TIP3   OH220840   0.952   4.915   1.587  0.1482  0.1679  0.3209
 6959TIP3    H120841   0.931   4.989   1.530 -2.7710  0.8386  2.0517
 6959TIP3    H220842   0.867   4.872   1.602  1.2030 -1.3652  2.2398
 6960TIP3   OH220843   1.848   6.591   0.095 -0.8435 -0.4052 -0.5186
 6960TIP3    H120844   1.762   6.601   0.054 -0.6170 -2.6972 -1.7126
 6960TIP3    H220845   1.899   6.666   0.063 -2.5043  1.3381  0.7018
 6961TIP3   OH220846   3.015   1.159   3.618  0.1427 -0.4264 -0.0383
 6961TIP3    H120847   3.108   1.162   3.596  0.2399  1.0672  0.4575
 6961TIP3    H220848   3.012   1.116   3.703  0.3335 -0.8730 -0.2537
 6962TIP3   OH220849   5.374   4.174   1.863 -0.6845 -0.2852  0.3990
 6962TIP3    H120850   5.455   4.185   1.814 -1.3650 -1.4848 -1.0843
 6962TIP3    H220851   5.305   4.191   1.800 -1.5956 -1.7423  0.9409
 6963TIP3   OH220852   2.033   4.794   4.861 -0.4112 -0.5276  0.2407
 6963TIP3    H120853   1.973   4.794   4.936  0.4593 -1.9263  0.9922
 6963TIP3    H220854   1.988   4.744   4.794 -1.2913  0.9202 -0.2894
 6964TIP3   OH220855   5.925   4.329   0.403 -0.3982 -1.0077 -0.0984
 6964TIP3    H120856   5.979   4.371   0.471 -1.7429  0.9022 -0.1225
 6964TIP3    H220857   5.843   4.308   0.448 -0.2462 -2.3945 -0.4491
 6965TIP3   OH220858   1.584   4.796   3.106 -0.0950 -0.0100 -0.2498
 6965TIP3    H120859   1.667   4.816   3.150 -0.2366 -1.0975  0.5558
 6965TIP3    H220860   1.572   4.702   3.120 -1.5318  0.1592 -0.2281
 6966TIP3   OH220861   6.602   2.653   3.172 -0.1583 -0.0666 -0.5327
 6966TIP3    H120862   6.536   2.619   3.111 -0.7859  2.4030 -1.3482
 6966TIP3    H220863   6.615   2.744   3.145  1.5614  0.3228  1.3652
 6967TIP3   OH220864   3.406   5.419   4.650 -0.4048  0.2023 -0.4612
 6967TIP3    H120865   3.381   5.327   4.637  0.8718  0.0593 -2.2707
 6967TIP3    H220866   3.404   5.457   4.563 -0.4805  1.8104  0.2075
 6968TIP3   OH220867   4.820   2.551   2.744 -0.5126  0.2255  0.5390
 6968TIP3    H120868   4.833   2.643   2.721 -0.8237  0.4599  1.2686
 6968TIP3    H220869   4.836   2.503   2.663  0.9679  0.8163  0.4412
 6969TIP3   OH220870   7.117   2.505   4.963 -0.6056  0.7649  0.0412
 6969TIP3    H120871   7.057   2.521   4.891 -1.6623 -0.9002  0.5163
 6969TIP3    H220872   7.182   2.444   4.928 -0.3854  0.9299  0.1529
 6970TIP3   OH220873   2.415   1.859   2.785  0.4339  0.1934 -0.1050
 6970TIP3    H120874   2.491   1.802   2.780  0.9147  0.7329  0.7007
 6970TIP3    H220875   2.412   1.888   2.876  0.2919  1.5531 -0.5142
 6971TIP3   OH220876   1.873   6.114   2.084  0.3271  0.3317  0.2132
 6971TIP3    H120877   1.791   6.108   2.132  0.8642  0.2154  1.1589
 6971TIP3    H220878   1.910   6.026   2.090 -0.4474 -0.2118 -2.0493
 6972TIP3   OH220879   5.882   3.801   5.642  0.1353  0.5530  0.3911
 6972TIP3    H120880   5.925   3.783   5.558  0.4080 -2.0671  0.9987
 6972TIP3    H220881   5.932   3.749   5.705 -2.1382 -0.2473  1.6063
 6973TIP3   OH220882   5.091   1.932   2.095 -0.0239  0.1378 -0.1810
 6973TIP3    H120883   5.016   1.923   2.155  0.7206 -0.6661  0.6539
 6973TIP3    H220884   5.105   1.843   2.061  1.9357 -0.2269  1.4032
 6974TIP3   OH220885   5.402   6.365   0.103 -0.1608 -0.9026  0.2046
 6974TIP3    H120886   5.456   6.387   0.027  1.7179 -4.1260  0.3876
 6974TIP3    H220887   5.336   6.305   0.069 -2.2610  1.1562  0.4250
 6975TIP3   OH220888   6.764   1.390   4.297 -0.3625 -0.2533 -0.6530
 6975TIP3    H120889   6.751   1.306   4.342 -1.1991  0.2223  0.0032
 6975TIP3    H220890   6.799   1.448   4.365  1.1955 -0.3184 -1.3412
 6976TIP3   OH220891   0.172   5.389   5.781 -0.1139  0.1481  0.5661
 6976TIP3    H120892   0.223   5.355   5.855 -1.3618  0.1349  1.4432
 6976TIP3    H220893   0.081   5.376   5.806 -0.5657  0.1611 -0.9875
 6977TIP3   OH220894   3.646   1.779   0.475  0.5371 -0.2751  0.0807
 6977TIP3    H120895   3.619   1.792   0.384 -0.9875  0.0465  0.5429
 6977TIP3    H220896   3.579   1.721   0.511  1.2557 -0.5931  0.9436
 6978TIP3   OH220897   0.351   3.300   4.580  0.2068 -0.2115 -0.4545
 6978TIP3    H120898   0.402   3.218   4.582 -1.1817 -1.1100  0.8320
 6978TIP3    H220899   0.267   3.274   4.542 -0.8782  0.1567  1.5139
 6979TIP3   OH220900   2.107   5.179   1.109  0.1854  0.5809 -0.2740
 6979TIP3    H120901   2.187   5.167   1.160 -0.9420  0.8894  1.6469
 6979TIP3    H220902   2.078   5.090   1.089 -0.2798  0.3787  1.1719
 6980TIP3   OH220903   6.229   6.567   0.126 -0.2628  0.3338  0.0742
 6980TIP3    H120904   6.293   6.557   0.196 -0.0712  1.7924  0.1469
 6980TIP3    H220905   6.274   6.537   0.047  0.7270  1.8335  0.0367
 6981TIP3   OH220906   6.451   1.013   3.020  0.7332 -0.1584  0.0412
 6981TIP3    H120907   6.359   0.987   3.015  0.3235  1.4306 -1.9837
 6981TIP3    H220908   6.450   1.101   3.058  1.3487  0.0801 -0.4655
 6982TIP3   OH220909   2.818   2.035   2.155 -0.1454 -0.8772  0.6044
 6982TIP3    H120910   2.902   2.066   2.189  0.5455  1.0610 -2.4528
 6982TIP3    H220911   2.754   2.095   2.193  0.1250 -0.9344  1.1642
 6983TIP3   OH220912   1.298   3.231   0.832  0.1620  0.5920  0.3614
 6983TIP3    H120913   1.283   3.144   0.797  1.7898 -0.3880  1.9654
 6983TIP3    H220914   1.373   3.265   0.783  0.5182  0.4549  0.8105
 6984TIP3   OH220915   2.352   2.591   3.365 -0.4097 -0.0712 -0.1317
 6984TIP3    H120916   2.277   2.650   3.371  0.7630  1.6137 -1.4099
 6984TIP3    H220917   2.427   2.644   3.390  0.5028 -1.4781  0.2247
 6985TIP3   OH220918   6.996   1.075   4.711  0.1930  0.5160 -0.5059
 6985TIP3    H120919   6.983   1.169   4.719  0.2311  0.7597 -2.7257
 6985TIP3    H220920   7.048   1.065   4.631 -0.2441 -1.4185 -0.5900
 6986TIP3   OH220921   7.051   6.478   0.317  0.3153 -0.4936 -0.0408
 6986TIP3    H120922   7.070   6.399   0.368  2.8495 -0.1880 -0.3872
 6986TIP3    H220923   7.118   6.479   0.249 -0.1094  1.5963 -0.4828
 6987TIP3   OH220924   3.436   0.568   2.732  0.1993 -0.1396 -0.7911
 6987TIP3    H120925   3.488   0.498   2.772 -1.5109 -0.9746  0.0904
 6987TIP3    H220926   3.473   0.578   2.645 -0.2669 -3.0958 -1.4529
 6988TIP3   OH220927   3.379   0.609   2.152 -0.2398 -1.1559  0.2818
 6988TIP3    H120928   3.382   0.675   2.221 -0.3656 -0.4283 -0.3920
 6988TIP3    H220929   3.292   0.571   2.159 -1.4226  1.0603 -1.3926
 6989TIP3   OH220930   6.927   5.696   1.730  0.6329  0.2554 -0.3989
 6989TIP3    H120931   6.900   5.624   1.787 -3.0115  0.4038 -1.6894
 6989TIP3    H220932   6.997   5.659   1.677 -0.8519 -2.2785 -0.7369
 6990TIP3   OH220933   2.896   3.701   3.563  0.1398 -0.3657  0.1514
 6990TIP3    H120934   2.827   3.640   3.590  0.7909  0.5199  4.6031
 6990TIP3    H220935   2.976   3.663   3.598  0.6780  2.4659  2.3378
 6991TIP3   OH220936   0.180   4.124   5.534 -0.2236  0.1126 -0.2109
 6991TIP3    H120937   0.146   4.170   5.610 -1.5816 -0.3251 -0.5236
 6991TIP3    H220938   0.129   4.158   5.460 -0.0986 -0.6780 -0.6782
 6992TIP3   OH220939   4.104   2.703   5.430 -0.4317  0.3036  0.4153
 6992TIP3    H120940   4.019   2.746   5.426 -0.3627  0.5574  1.4986
 6992TIP3    H220941   4.085   2.610   5.415 -0.7363  0.5134 -0.5752
 6993TIP3   OH220942   1.595   1.689   3.344 -0.1914  0.1536  0.2859
 6993TIP3    H120943   1.626   1.744   3.272  0.9070 -1.5589 -0.6198
 6993TIP3    H220944   1.518   1.735   3.377  0.5947  2.1666 -0.4697
 6994TIP3   OH220945   4.775   1.872   0.082  0.1158  0.3963 -0.4640
 6994TIP3    H120946   4.851   1.901   0.132  0.3708 -0.6316 -0.2356
 6994TIP3    H220947   4.700   1.908   0.129  0.4337  1.0812 -0.4648
 6995TIP3   OH220948   4.746   0.359   2.071  0.3315 -0.3691 -0.0701
 6995TIP3    H120949   4.775   0.335   1.983  1.1087  1.8595 -0.4897
 6995TIP3    H220950   4.651   0.367   2.062  0.3500 -0.6184 -0.5829
 6996TIP3   OH220951   2.726   6.135   1.435  0.4268  0.1054  0.2256
 6996TIP3    H120952   2.711   6.087   1.354  1.8518  1.8946 -1.1901
 6996TIP3    H220953   2.820   6.149   1.438  0.1456  2.4007  0.7383
 6997TIP3   OH220954   5.064   4.220   0.915 -0.4160 -0.0787  0.4251
 6997TIP3    H120955   5.093   4.207   1.005  2.0509 -0.3821 -0.3202
 6997TIP3    H220956   5.079   4.313   0.898  1.1122 -0.4119 -0.2402
 6998TIP3   OH220957   2.079   1.249   0.145 -1.1131  0.9636  0.1269
 6998TIP3    H120958   2.025   1.189   0.093  1.8051 -1.5299 -0.3680
 6998TIP3    H220959   2.086   1.206   0.230  2.8667 -0.9620 -0.8972
 6999TIP3   OH220960   6.342   6.301   2.513  0.1339 -0.3782 -0.0984
 6999TIP3    H120961   6.285   6.240   2.559  0.2737 -0.8428 -0.5413
 6999TIP3    H220962   6.293   6.384   2.513 -0.9712 -0.9988 -1.2877
 7000TIP3   OH220963   3.885   3.151   4.450  0.3231 -0.8281  0.1735
 7000TIP3    H120964   3.917   3.067   4.419  1.6924 -0.5811  0.8557
 7000TIP3    H220965   3.946   3.215   4.414  0.3544 -0.3017  1.1188
 7001TIP3   OH220966   0.456   3.664   1.380  0.4234 -0.7641 -0.2082
 7001TIP3    H120967   0.407   3.632   1.305 -1.8214  1.1188  0.3485
 7001TIP3    H220968   0.444   3.597   1.447  1.6540 -2.0027 -1.1802
 7002TIP3   OH220969   5.470   5.612   4.069  0.2632 -0.5815 -0.2081
 7002TIP3    H120970   5.538   5.569   4.018  1.3612 -1.0244  1.5535
 7002TIP3    H220971   5.412   5.541   4.098 -1.5702 -0.1149 -2.4709
 7003TIP3   OH220972   3.535   1.490   1.043 -0.3389 -0.2057 -0.1883
 7003TIP3    H120973   3.606   1.427   1.056  0.3870  0.2909 -1.5456
 7003TIP3    H220974   3.552   1.528   0.957 -1.3597  1.0860  0.1479
 7004TIP3   OH220975   2.437   0.698   0.454 -0.4648  0.0301  0.0564
 7004TIP3    H120976   2.385   0.644   0.395  0.3607 -0.9824  0.2215
 7004TIP3    H220977   2.514   0.724   0.403 -0.2249 -0.0352  0.3770
 7005TIP3   OH220978   3.987   6.727   4.290  0.5752 -0.6961 -0.1882
 7005TIP3    H120979   4.071   6.682   4.285  0.6303 -0.4852 -1.3577
 7005TIP3    H220980   3.922   6.659   4.272  0.3396 -1.2383  2.3597
 7006TIP3   OH220981   3.369   4.845   5.376 -0.4529 -0.4649  0.1317
 7006TIP3    H120982   3.390   4.888   5.460  0.3090 -0.0520 -0.2640
 7006TIP3    H220983   3.283   4.881   5.353 -0.6743 -0.5864  0.7373
 7007TIP3   OH220984   2.178   5.776   0.647 -0.4671  0.1739 -0.2222
 7007TIP3    H120985   2.160   5.830   0.571 -0.4683 -0.4320 -0.6584
 7007TIP3    H220986   2.261   5.733   0.627  0.5014  1.3989  0.9040
 7008TIP3   OH220987   3.934   5.540   3.720 -0.1013  0.1389 -0.0613
 7008TIP3    H120988   3.871   5.602   3.758  0.3820  0.2003  0.6534
 7008TIP3    H220989   4.019   5.582   3.732  0.1332 -0.2086 -0.4946
 7009TIP3   OH220990   3.976   2.685   1.639 -0.6748 -0.1238 -0.0100
 7009TIP3    H120991   3.899   2.659   1.588 -1.9375  0.5045  1.4932
 7009TIP3    H220992   3.944   2.754   1.697  1.5652  1.7596 -0.8684
 7010TIP3   OH220993   2.454   5.760   3.121  0.7942  0.2168 -0.1219
 7010TIP3    H120994   2.421   5.810   3.195  0.0428  0.4413 -0.5925
 7010TIP3    H220995   2.505   5.689   3.160 -0.9347 -0.6424  0.7045
 7011TIP3   OH220996   1.057   5.214   0.649  0.3577 -0.4195  0.5700
 7011TIP3    H120997   1.048   5.219   0.554  0.0927 -1.3043  0.5377
 7011TIP3    H220998   1.062   5.305   0.677  0.8739 -0.1528 -0.3291
 7012TIP3   OH220999   7.113   4.221   5.377 -0.4520  0.6028  0.3069
 7012TIP3    H121000   7.116   4.137   5.332  2.1507  0.9973 -0.4323
 7012TIP3    H221001   7.127   4.286   5.308 -1.1452  1.5846  1.0447
 7013TIP3   OH221002   0.749   3.725   4.421  0.0389 -0.1233  0.3107
 7013TIP3    H121003   0.824   3.784   4.416 -1.1142  1.4249  0.4723
 7013TIP3    H221004   0.755   3.688   4.509  1.3488 -1.0848 -0.1501
 7014TIP3   OH221005   7.136   4.758   3.757 -0.6370 -0.2095  0.1332
 7014TIP3    H121006   7.201   4.823   3.786 -0.1633 -0.4273 -0.4237
 7014TIP3    H221007   7.052   4.802   3.769 -0.2688  1.0542 -1.5083
 7015TIP3   OH221008   3.051   4.697   2.426 -0.3163  0.1454  0.2425
 7015TIP3    H121009   3.140   4.730   2.435  0.7088 -2.4674  0.6939
 7015TIP3    H221010   3.001   4.742   2.493  0.8192  1.2032  0.4101
 7016TIP3   OH221011   3.718   6.105   4.948 -0.7039  0.4528 -0.5987
 7016TIP3    H121012   3.757   6.058   5.022  0.1281  1.3704 -0.4185
 7016TIP3    H221013   3.631   6.068   4.939 -0.0383 -1.2124 -0.5710
 7017TIP3   OH221014   6.808   6.289   0.107  0.0705 -0.3868 -0.0800
 7017TIP3    H121015   6.879   6.345   0.074  0.2484  0.0384  0.9974
 7017TIP3    H221016   6.737   6.351   0.124  0.2963 -0.4663  1.2025
 7018TIP3   OH221017   3.482   6.473   0.641  0.1807  0.2746 -0.6225
 7018TIP3    H121018   3.568   6.433   0.633  0.1487  0.0343  0.1357
 7018TIP3    H221019   3.499   6.566   0.653  0.4775 -0.0203  1.7863
 7019TIP3   OH221020   5.339   5.765   2.134 -0.7899 -0.2650 -0.2235
 7019TIP3    H121021   5.422   5.754   2.088  0.2877  0.9171  1.3187
 7019TIP3    H221022   5.302   5.677   2.138  0.2148 -0.7604 -1.2291
 7020TIP3   OH221023   3.853   0.884   2.483  0.7575  0.3354 -0.2008
 7020TIP3    H121024   3.945   0.909   2.494  0.7650 -0.2460  1.1500
 7020TIP3    H221025   3.857   0.796   2.446  0.7477  0.3146 -0.1525
 7021TIP3   OH221026   2.350   0.541   1.272 -0.1546  0.0808  0.2025
 7021TIP3    H121027   2.296   0.463   1.254  0.7309  0.0342 -2.7890
 7021TIP3    H221028   2.438   0.515   1.247  0.2750  1.8415 -0.2190
 7022TIP3   OH221029   5.504   3.847   2.355 -0.1877 -0.5795  0.1347
 7022TIP3    H121030   5.555   3.875   2.279 -2.3526  1.4828 -0.6753
 7022TIP3    H221031   5.570   3.814   2.417  2.1609  2.0456 -0.7506
 7023TIP3   OH221032   6.523   4.206   1.976  0.0728 -0.0013 -0.2784
 7023TIP3    H121033   6.578   4.283   1.961  0.3523 -0.3836 -1.3154
 7023TIP3    H221034   6.434   4.235   1.954 -0.0890  0.4927  0.9711
 7024TIP3   OH221035   3.134   3.889   3.033  0.3302  0.0025  0.5528
 7024TIP3    H121036   3.121   3.841   3.114 -0.4083 -0.1896  0.3245
 7024TIP3    H221037   3.103   3.978   3.053 -0.3752 -0.1879  0.3185
 7025TIP3   OH221038   1.140   0.286   4.826 -0.0459 -0.2912  0.2196
 7025TIP3    H121039   1.188   0.284   4.743 -1.8849 -0.0852 -0.8895
 7025TIP3    H221040   1.195   0.340   4.883  0.1727  1.5189 -1.5807
 7026TIP3   OH221041   0.916   3.300   1.708 -0.1037 -0.1217 -0.3113
 7026TIP3    H121042   0.912   3.210   1.675  2.4739 -0.5983  0.4402
 7026TIP3    H221043   0.985   3.298   1.774 -1.2171  2.0527  1.0466
 7027TIP3   OH221044   3.289   4.922   2.023  0.0098 -0.2101  0.0085
 7027TIP3    H121045   3.382   4.944   2.020 -0.0113 -0.1826 -2.2479
 7027TIP3    H221046   3.285   4.831   1.993 -0.6562 -0.3624  0.5461
 7028TIP3   OH221047   5.218   2.636   4.889 -0.2590 -0.3190 -0.6868
 7028TIP3    H121048   5.230   2.680   4.973  2.1102 -0.5885 -0.8059
 7028TIP3    H221049   5.161   2.561   4.908 -0.7417  0.3169  0.4129
 7029TIP3   OH221050   6.377   4.064   3.642 -0.1985 -0.0663 -0.5335
 7029TIP3    H121051   6.350   4.078   3.551 -1.0255  0.5446 -0.2061
 7029TIP3    H221052   6.323   3.991   3.672 -0.0420 -0.1599 -0.4782
 7030TIP3   OH221053   2.484   5.793   1.427 -0.1307 -0.8037 -0.4639
 7030TIP3    H121054   2.456   5.752   1.345 -2.1724 -1.6857  0.5832
 7030TIP3    H221055   2.578   5.806   1.416 -0.5037  0.2943 -3.4194
 7031TIP3   OH221056   2.796   5.355   4.188  0.2398  0.1185 -0.2041
 7031TIP3    H121057   2.726   5.413   4.160  0.1262  0.7862  1.3653
 7031TIP3    H221058   2.783   5.344   4.282  0.7279 -1.8354 -0.3101
 7032TIP3   OH221059   6.685   2.925   1.350  0.3279  0.3734 -0.0585
 7032TIP3    H121060   6.626   2.999   1.363  0.1097  0.0534  0.7725
 7032TIP3    H221061   6.677   2.904   1.257  0.1378  1.1744 -0.2301
 7033TIP3   OH221062   4.749   3.698   5.256 -0.6301  0.1543  0.6965
 7033TIP3    H121063   4.665   3.653   5.256  0.4931 -2.0979  1.5267
 7033TIP3    H221064   4.780   3.692   5.166 -1.5881  1.5812  0.2318
 7034TIP3   OH221065   2.418   4.115   5.226  0.1538 -0.5128 -0.0884
 7034TIP3    H121066   2.416   4.209   5.242  1.4630 -0.3588 -0.7253
 7034TIP3    H221067   2.431   4.076   5.313  2.3414  0.0594 -0.0930
 7035TIP3   OH221068   4.827   4.194   2.046  0.2310 -0.3452  0.9420
 7035TIP3    H121069   4.738   4.210   2.015  0.0506 -1.5901  0.7567
 7035TIP3    H221070   4.851   4.273   2.095 -0.0302  1.0492 -1.1039
 7036TIP3   OH221071   0.402   1.496   3.074  0.1724 -0.0957  0.0392
 7036TIP3    H121072   0.331   1.437   3.048  0.8109  0.4035 -3.4407
 7036TIP3    H221073   0.377   1.580   3.036  0.7660  1.1456  2.2602
 7037TIP3   OH221074   7.136   6.744   0.496 -0.5845  0.0830 -0.1652
 7037TIP3    H121075   7.152   6.656   0.531 -0.3102  0.3820  0.4814
 7037TIP3    H221076   7.223   6.783   0.490 -0.5435 -0.1765 -1.8294
 7038TIP3   OH221077   5.298   5.889   0.139 -0.1283  0.2795  0.0684
 7038TIP3    H121078   5.270   5.977   0.113  1.4251  0.3168 -1.7224
 7038TIP3    H221079   5.259   5.831   0.072 -0.7103 -0.3487  0.9341
 7039TIP3   OH221080   7.054   4.202   4.715 -0.2738 -0.4627  0.3478
 7039TIP3    H121081   7.010   4.178   4.796 -0.3752 -1.8500 -0.0833
 7039TIP3    H221082   7.085   4.119   4.679  1.6001  0.3192  0.0017
 7040TIP3   OH221083   5.817   0.309   2.072 -0.2022 -0.2649 -0.1142
 7040TIP3    H121084   5.895   0.358   2.045 -0.2769 -0.0386  0.0779
 7040TIP3    H221085   5.850   0.222   2.093  0.0439 -0.0909  0.2295
 7041TIP3   OH221086   5.203   3.509   1.959  0.3185 -0.0807 -0.2043
 7041TIP3    H121087   5.128   3.474   1.912  0.6079 -0.2253 -0.5605
 7041TIP3    H221088   5.278   3.488   1.904  1.2412 -3.9183  2.1301
 7042TIP3   OH221089   3.824   1.522   1.818 -0.0266 -0.5481 -0.2221
 7042TIP3    H121090   3.777   1.575   1.754  0.0673  0.3606  0.4304
 7042TIP3    H221091   3.906   1.571   1.834  1.1876 -2.1086 -1.3574
 7043TIP3   OH221092   3.869   2.141   1.615  0.4372  0.1719  0.4226
 7043TIP3    H121093   3.812   2.109   1.545  2.0980  0.0328 -0.9381
 7043TIP3    H221094   3.895   2.062   1.662 -0.5332  0.2453  1.0989
 7044TIP3   OH221095   0.810   4.277   1.135 -0.1557  0.2505 -0.2212
 7044TIP3    H121096   0.729   4.327   1.146 -0.2386  0.2659 -0.8570
 7044TIP3    H221097   0.781   4.186   1.126 -0.2613  0.4280 -2.1572
 7045TIP3   OH221098   0.607   4.948   3.600 -0.1877  0.5638 -0.0305
 7045TIP3    H121099   0.614   4.853   3.592 -0.6817  0.5540 -0.4240
 7045TIP3    H221100   0.614   4.980   3.511  0.3266  0.9285  0.1370
 7046TIP3   OH221101   6.207   4.920   2.430  0.3331  0.2392  0.1397
 7046TIP3    H121102   6.285   4.899   2.482 -0.2770  0.9221  1.3891
 7046TIP3    H221103   6.137   4.929   2.495 -0.4795  1.0544 -0.8146
 7047TIP3   OH221104   6.559   3.494   0.566  0.4423  0.2538 -0.0010
 7047TIP3    H121105   6.637   3.450   0.532 -0.4070  0.2273 -2.1188
 7047TIP3    H221106   6.576   3.506   0.659  1.4056 -3.1577  0.4171
 7048TIP3   OH221107   0.799   3.925   3.060  0.2754  0.1649 -0.3565
 7048TIP3    H121108   0.818   3.968   2.977 -0.6953  1.1359 -0.0856
 7048TIP3    H221109   0.874   3.946   3.115 -0.2907  1.7708 -0.1442
 7049TIP3   OH221110   6.096   2.324   3.737 -0.5903  0.5717  0.1549
 7049TIP3    H121111   6.118   2.384   3.667  1.2234  0.1197  0.2750
 7049TIP3    H221112   6.097   2.237   3.696 -0.9407  0.4284  0.4404
 7050TIP3   OH221113   2.175   5.475   3.783  0.2026  0.1711  0.2101
 7050TIP3    H121114   2.200   5.476   3.876  0.5146  0.2979  0.1282
 7050TIP3    H221115   2.256   5.499   3.737 -0.1182  0.7585 -0.0544
 7051TIP3   OH221116   5.848   4.196   1.659 -0.1950  0.3261 -0.2166
 7051TIP3    H121117   5.890   4.275   1.694  0.7173  0.3820 -1.3610
 7051TIP3    H221118   5.903   4.171   1.584 -1.8578  0.0382 -1.3956
 7052TIP3   OH221119   1.178   6.599   4.768 -0.2903 -0.4298 -0.2373
 7052TIP3    H121120   1.165   6.611   4.674  0.0748 -1.2920 -0.4104
 7052TIP3    H221121   1.180   6.687   4.803  0.8396 -0.0334 -1.2133
 7053TIP3   OH221122   0.767   6.056   1.181 -0.5525  0.3817 -0.4598
 7053TIP3    H121123   0.849   6.041   1.133 -1.1152  0.1597 -1.3853
 7053TIP3    H221124   0.727   6.132   1.137  0.1992  1.9484  1.4225
 7054TIP3   OH221125   4.887   0.280   5.153 -0.5457 -0.2989  0.0008
 7054TIP3    H121126   4.804   0.315   5.121 -0.2931 -0.1591 -0.5101
 7054TIP3    H221127   4.861   0.209   5.213 -1.0385 -1.2761 -1.3039
 7055TIP3   OH221128   0.787   3.522   4.924  0.3920 -0.0342  0.4096
 7055TIP3    H121129   0.878   3.497   4.904  0.8740  0.4758  1.8122
 7055TIP3    H221130   0.794   3.569   5.007 -1.1151  0.4144  0.2990
 7056TIP3   OH221131   6.041   0.284   3.437  0.5649  0.1179 -0.4528
 7056TIP3    H121132   5.986   0.315   3.509  0.1287 -4.9065  1.7911
 7056TIP3    H221133   6.128   0.317   3.457  0.0594  0.4937  1.2923
 7057TIP3   OH221134   6.808   5.721   4.647  0.7302 -0.0288 -0.3337
 7057TIP3    H121135   6.712   5.718   4.642  0.7857 -0.1187 -1.9754
 7057TIP3    H221136   6.827   5.798   4.700 -0.2600  0.7244 -1.0306
 7058TIP3   OH221137   5.454   5.252   3.466 -0.0904 -0.7678  0.3081
 7058TIP3    H121138   5.475   5.166   3.502 -2.4515 -0.8717  1.6346
 7058TIP3    H221139   5.527   5.272   3.407  0.6024 -3.5857  0.0732
 7059TIP3   OH221140   2.909   5.738   1.919  0.0635 -0.0705 -0.1642
 7059TIP3    H121141   2.827   5.696   1.944  0.5590 -2.1523 -1.7686
 7059TIP3    H221142   2.887   5.830   1.906 -1.7241 -0.3542  0.5954
 7060TIP3   OH221143   3.992   2.223   1.866  0.1035 -0.3831  0.6550
 7060TIP3    H121144   3.943   2.208   1.785  0.7559  1.6047 -0.1779
 7060TIP3    H221145   4.074   2.174   1.853 -0.7895 -2.1054  1.2222
 7061TIP3   OH221146   0.854   5.344   5.716 -0.3799 -0.8419  0.0644
 7061TIP3    H121147   0.780   5.379   5.764  1.4706  0.5670  2.0537
 7061TIP3    H221148   0.887   5.272   5.771  1.1533  0.1353  0.4978
 7062TIP3   OH221149   1.358   0.484   0.243 -0.1725 -0.3004  0.1863
 7062TIP3    H121150   1.379   0.554   0.305 -2.4676 -1.4273  2.4249
 7062TIP3    H221151   1.282   0.517   0.194  0.0535 -0.4150 -0.2505
 7063TIP3   OH221152   4.521   1.049   0.011 -0.4714 -0.3642  0.2245
 7063TIP3    H121153   4.490   1.062   0.101  0.8580  1.5487  0.4637
 7063TIP3    H221154   4.461   0.984  -0.025 -0.5051 -1.9066  2.7541
 7064TIP3   OH221155   0.878   2.039   1.200 -0.4039  0.3206  0.3780
 7064TIP3    H121156   0.936   1.993   1.260 -1.0611 -1.9874 -0.6694
 7064TIP3    H221157   0.792   2.034   1.241 -0.6787 -0.4026 -0.2710
 7065TIP3   OH221158   6.725   3.590   4.082  0.1954 -0.1141  0.5700
 7065TIP3    H121159   6.814   3.622   4.073 -0.0292 -0.0865 -2.4677
 7065TIP3    H221160   6.687   3.598   3.994 -2.4026 -1.2740  1.4838
 7066TIP3   OH221161   6.943   5.618   1.031 -0.3314  0.0410  0.3624
 7066TIP3    H121162   6.957   5.623   0.937 -0.8962  0.7840  0.3122
 7066TIP3    H221163   6.898   5.699   1.053  0.9373  0.4842  1.4728
 7067TIP3   OH221164   3.219   0.808   0.748 -0.2297 -0.2129 -0.3932
 7067TIP3    H121165   3.206   0.884   0.692 -2.6061 -0.0228  0.3001
 7067TIP3    H221166   3.183   0.735   0.698  1.3420 -0.7887 -0.7381
 7068TIP3   OH221167   2.857   2.606   0.725  0.0924  0.3891 -0.0852
 7068TIP3    H121168   2.792   2.577   0.790  0.1630 -0.4829 -0.4032
 7068TIP3    H221169   2.834   2.698   0.709 -0.8566  0.1904  0.0609
 7069TIP3   OH221170   3.604   5.336   3.898 -0.4527  0.3728 -0.5604
 7069TIP3    H121171   3.640   5.334   3.809  0.6132  1.2051 -0.1561
 7069TIP3    H221172   3.627   5.422   3.932 -0.9455  0.1031  0.4992
 7070TIP3   OH221173   4.389   5.116   1.953  0.3739 -0.3188 -0.3498
 7070TIP3    H121174   4.348   5.120   1.867  1.2195  2.7223 -0.7305
 7070TIP3    H221175   4.323   5.075   2.009 -1.0978 -0.3062 -1.9937
 7071TIP3   OH221176   2.457   3.479   2.048  0.1767  0.3782  0.4701
 7071TIP3    H121177   2.519   3.549   2.030 -0.3307  0.2438 -2.1439
 7071TIP3    H221178   2.374   3.524   2.065  0.2443  0.4550  0.5956
 7072TIP3   OH221179   1.398   0.955   4.065  0.3966 -0.7377 -0.4618
 7072TIP3    H121180   1.455   1.014   4.114 -0.3707 -0.9049  0.7001
 7072TIP3    H221181   1.368   1.005   3.990 -0.5760  0.5165  0.7262
 7073TIP3   OH221182   1.456   5.001   2.029  0.1197  0.1246 -0.4148
 7073TIP3    H121183   1.437   5.021   2.121 -1.8985 -1.1599 -0.4826
 7073TIP3    H221184   1.509   5.074   1.998  1.4930  0.2190  1.9542
 7074TIP3   OH221185   2.106   5.183   2.639 -0.5079 -0.0824  0.5865
 7074TIP3    H121186   2.190   5.139   2.635 -1.1894 -1.4232  0.3583
 7074TIP3    H221187   2.116   5.260   2.583  0.2134 -0.8464 -0.3628
 7075TIP3   OH221188   5.507   5.907   0.314 -0.0766  0.3278 -0.0984
 7075TIP3    H121189   5.485   5.987   0.362 -1.1075 -0.6778  1.1709
 7075TIP3    H221190   5.439   5.899   0.247 -1.0924 -0.4468  0.9873
 7076TIP3   OH221191   6.543   1.774   5.065 -0.0179 -0.5146 -0.0723
 7076TIP3    H121192   6.535   1.741   4.976 -0.8526 -0.6407  0.0426
 7076TIP3    H221193   6.474   1.729   5.114 -0.1588  0.2341  0.4353
 7077TIP3   OH221194   4.225   0.764   5.698 -0.3175 -0.0607 -0.1347
 7077TIP3    H121195   4.298   0.825   5.711 -0.6702  0.1534  0.9092
 7077TIP3    H221196   4.226   0.745   5.604  2.0131 -1.2366  0.0597
 7078TIP3   OH221197   0.880   4.488   4.329 -0.4277 -0.1236 -0.0891
 7078TIP3    H121198   0.869   4.407   4.379  0.6028 -0.7511 -0.8539
 7078TIP3    H221199   0.929   4.545   4.388  0.5031 -0.7482 -0.2323
 7079TIP3   OH221200   1.258   6.707   5.592 -0.1154 -0.0833 -0.0242
 7079TIP3    H121201   1.303   6.629   5.559  0.2053  0.6102 -1.2981
 7079TIP3    H221202   1.328   6.765   5.621 -0.3616 -0.3187  1.0847
 7080TIP3   OH221203   6.455   5.546   2.158  0.0336  1.1072 -0.7155
 7080TIP3    H121204   6.439   5.633   2.193 -0.9164  1.8908 -2.9281
 7080TIP3    H221205   6.550   5.535   2.163  0.3104  2.8181 -1.5762
 7081TIP3   OH221206   6.717   5.374   5.002  0.8261  0.5272  0.2280
 7081TIP3    H121207   6.630   5.382   5.041  0.8973  1.0602  0.2911
 7081TIP3    H221208   6.716   5.435   4.928  1.1187  0.4823  0.1857
 7082TIP3   OH221209   6.384   2.249   0.119  0.1912 -0.2711 -0.0837
 7082TIP3    H121210   6.363   2.309   0.190 -1.1177  0.3535 -0.9567
 7082TIP3    H221211   6.360   2.162   0.153 -0.6934  0.0566  0.1646
 7083TIP3   OH221212   4.520   0.302   4.221 -0.3659 -1.0725 -0.4397
 7083TIP3    H121213   4.461   0.260   4.159  1.2612 -0.2026 -2.7182
 7083TIP3    H221214   4.577   0.232   4.253 -1.2872 -1.5445  0.1981
 7084TIP3   OH221215   0.628   5.757   3.493 -0.0860 -0.4116 -0.1924
 7084TIP3    H121216   0.591   5.843   3.515 -1.2078 -0.5522 -1.4429
 7084TIP3    H221217   0.661   5.724   3.577  0.6003  1.3277  0.2738
 7085TIP3   OH221218   1.979   1.484   1.905  0.3753  0.4812  0.2031
 7085TIP3    H121219   1.957   1.392   1.889  0.6561  0.1548  1.5598
 7085TIP3    H221220   2.073   1.490   1.886  0.2450  0.6351 -0.4300
 7086TIP3   OH221221   4.891   0.879   4.949 -0.3358  0.3568 -0.0397
 7086TIP3    H121222   4.984   0.901   4.946 -0.3786  0.5969  0.3556
 7086TIP3    H221223   4.889   0.783   4.948  0.0351  0.2585  2.4079
 7087TIP3   OH221224   1.881   1.390   4.400 -0.0495 -0.1019 -0.0118
 7087TIP3    H121225   1.964   1.364   4.439 -0.1960 -0.7127 -0.0991
 7087TIP3    H221226   1.901   1.404   4.308 -0.1564 -0.7923 -0.1423
 7088TIP3   OH221227   5.450   3.110   4.197  0.1245 -0.1288  0.2929
 7088TIP3    H121228   5.470   3.040   4.135  1.1100  0.0831  0.3495
 7088TIP3    H221229   5.367   3.084   4.237  0.6931 -1.4977  0.6439
 7089TIP3   OH221230   0.399   6.222   1.219 -0.3822 -0.8215 -0.1692
 7089TIP3    H121231   0.408   6.208   1.314 -0.2005 -0.4158 -0.1248
 7089TIP3    H221232   0.316   6.270   1.210 -0.1315 -0.3840 -0.1671
 7090TIP3   OH221233   4.937   2.355   3.576 -0.4147  0.1504  0.3624
 7090TIP3    H121234   4.843   2.341   3.589 -0.1047 -0.3907  2.2931
 7090TIP3    H221235   4.948   2.450   3.578 -0.7958  0.1809  1.2110
 7091TIP3   OH221236   1.838   6.052   0.233  0.1540  0.2606 -0.6872
 7091TIP3    H121237   1.858   5.992   0.161  1.6100 -0.7793  0.5240
 7091TIP3    H221238   1.838   6.139   0.192  1.0160 -0.2906 -1.9330
 7092TIP3   OH221239   0.128   3.057   2.930  0.3887 -0.0668  0.0936
 7092TIP3    H121240   0.205   3.004   2.909  2.0448  1.9465  0.6476
 7092TIP3    H221241   0.056   2.995   2.933  1.9639 -2.0533 -0.5235
 7093TIP3   OH221242   5.194   4.580   2.457  0.3292 -0.3820  0.6218
 7093TIP3    H121243   5.166   4.498   2.417 -0.2501  0.4509 -0.7272
 7093TIP3    H221244   5.229   4.553   2.543 -1.1397 -1.8737  0.8118
 7094TIP3   OH221245   6.131   2.610   5.788 -0.1301 -0.5130 -0.2778
 7094TIP3    H121246   6.136   2.694   5.833  1.1145 -1.8027  2.1795
 7094TIP3    H221247   6.045   2.574   5.810 -0.1181 -0.4911 -0.1983
 7095TIP3   OH221248   0.417   0.822  -0.018  0.2582 -0.0519 -0.5577
 7095TIP3    H121249   0.412   0.732  -0.049 -0.8276  0.4129 -1.8283
 7095TIP3    H221250   0.404   0.816   0.077 -0.6111 -1.1739 -0.7290
 7096TIP3   OH221251   2.160   4.403   0.686  0.0042 -0.1749 -0.0262
 7096TIP3    H121252   2.185   4.422   0.776  1.0679 -1.1492 -0.0908
 7096TIP3    H221253   2.234   4.434   0.634  0.2800 -1.3950 -0.3863
 7097TIP3   OH221254   0.230   4.533   3.446  0.1489  0.3151 -0.6890
 7097TIP3    H121255   0.173   4.600   3.408  1.4480  2.6606  1.1810
 7097TIP3    H221256   0.316   4.551   3.408  1.0974  1.6197  1.7955
 7098TIP3   OH221257   6.599   1.828   2.918 -0.1921  0.3474 -0.5094
 7098TIP3    H121258   6.523   1.879   2.948  0.3566  1.1899 -0.5267
 7098TIP3    H221259   6.568   1.737   2.919 -0.9868  0.6094  0.1378
 7099TIP3   OH221260   7.187   2.188   3.903  0.5416  0.2158  0.2452
 7099TIP3    H121261   7.240   2.261   3.935  1.0891  0.1818 -0.5413
 7099TIP3    H221262   7.122   2.173   3.971  1.6591  0.1432  1.3355
 7100TIP3   OH221263   5.067   4.480   2.014 -0.0203 -0.3325  0.0478
 7100TIP3    H121264   5.031   4.524   1.937  2.1957  0.9271 -0.3600
 7100TIP3    H221265   5.099   4.552   2.069 -2.0551 -1.1469  2.5089
 7101TIP3   OH221266   4.835   1.067   2.418 -0.1594  0.3698 -0.2051
 7101TIP3    H121267   4.833   1.162   2.409 -2.2200  0.2557 -1.8330
 7101TIP3    H221268   4.767   1.047   2.482 -0.0976 -0.0338 -0.2588
 7102TIP3   OH221269   0.317   6.640   0.948 -0.2996 -0.7670 -0.1509
 7102TIP3    H121270   0.265   6.641   1.029  0.4285 -1.7436  0.3556
 7102TIP3    H221271   0.408   6.644   0.978 -0.0468  0.1070 -0.9885
 7103TIP3   OH221272   4.138   5.947   0.675 -0.6473 -0.0007  0.3820
 7103TIP3    H121273   4.170   5.881   0.736 -1.4719 -1.2436 -0.4759
 7103TIP3    H221274   4.195   5.938   0.599 -0.8481  0.1669  0.2108
 7104TIP3   OH221275   2.002   1.224   3.594 -0.5047  0.5802 -0.1457
 7104TIP3    H121276   1.991   1.270   3.678 -1.2108  1.2177 -0.5728
 7104TIP3    H221277   2.055   1.283   3.541  2.1697 -0.9151  0.6654
 7105TIP3   OH221278   1.273   1.466   0.489  0.3455  0.4977  0.4229
 7105TIP3    H121279   1.315   1.421   0.563  0.9787 -0.7774 -0.6802
 7105TIP3    H221280   1.345   1.486   0.429 -0.0366  2.3210  0.5105
 7106TIP3   OH221281   6.041   2.446   4.642 -0.2688 -0.1061  0.0052
 7106TIP3    H121282   6.090   2.528   4.642  0.8928 -0.7755 -0.4850
 7106TIP3    H221283   6.006   2.439   4.731  0.3925  0.4820  0.3255
 7107TIP3   OH221284   4.594   2.601   3.406 -0.0093 -0.3586  1.0497
 7107TIP3    H121285   4.516   2.599   3.461 -0.4193 -0.3882  0.4776
 7107TIP3    H221286   4.562   2.581   3.318  0.6112 -0.1669  0.7727
 7108TIP3   OH221287   3.953   4.620   0.328  0.3225 -0.4751  0.3556
 7108TIP3    H121288   3.960   4.685   0.397  0.7576  1.3300 -1.2949
 7108TIP3    H221289   4.044   4.603   0.302  0.1322  1.4587 -1.9665
 7109TIP3   OH221290   5.953   6.164   5.262  0.0160 -0.6512  0.4420
 7109TIP3    H121291   5.864   6.192   5.243 -0.8407 -2.9376  0.7061
 7109TIP3    H221292   5.992   6.149   5.176 -0.8389 -2.2877  0.2873
 7110TIP3   OH221293   0.473   3.018   1.576  0.5542  1.0348 -0.1639
 7110TIP3    H121294   0.440   3.052   1.660  0.5612  0.9594 -0.1311
 7110TIP3    H221295   0.416   2.944   1.556  1.1494  0.4547  0.2439
 7111TIP3   OH221296   4.730   2.421   1.282  0.6799 -0.2569 -0.4816
 7111TIP3    H121297   4.640   2.453   1.283  0.8855  0.3728  1.3560
 7111TIP3    H221298   4.765   2.453   1.199 -0.2392  1.1266 -0.3787
 7112TIP3   OH221299   6.869   2.645   2.138 -0.3224  0.2174  0.4848
 7112TIP3    H121300   6.783   2.684   2.122 -1.0090 -0.5308  2.1842
 7112TIP3    H221301   6.851   2.556   2.168  1.1561 -0.8838 -1.5924
 7113TIP3   OH221302   5.770   3.093   5.029 -0.1394  0.0485 -0.1490
 7113TIP3    H121303   5.767   3.136   4.944 -1.7087 -0.6787 -0.4988
 7113TIP3    H221304   5.714   3.146   5.085  1.1826  0.7374  0.5622
 7114TIP3   OH221305   3.676   0.553   4.991 -0.4445  0.0386  0.0784
 7114TIP3    H121306   3.716   0.626   4.945  1.0663  0.2316  1.5902
 7114TIP3    H221307   3.686   0.574   5.084 -2.2056 -0.9379  0.5474
 7115TIP3   OH221308   3.675   0.692   0.675 -0.0050  0.2474  0.5210
 7115TIP3    H121309   3.676   0.676   0.769 -0.1806  0.1686  0.5097
 7115TIP3    H221310   3.750   0.645   0.641  0.7406  1.2183  0.7780
 7116TIP3   OH221311   6.538   6.607   1.351  0.3070 -0.6216  0.5071
 7116TIP3    H121312   6.485   6.530   1.369 -0.3440 -0.3796 -0.3082
 7116TIP3    H221313   6.513   6.634   1.263  3.2156 -1.6594 -0.7866
 7117TIP3   OH221314   3.686   0.247   0.354 -0.1212 -0.2735  0.0934
 7117TIP3    H121315   3.609   0.271   0.302 -0.6995  0.9358  1.4334
 7117TIP3    H221316   3.760   0.271   0.299 -0.7077 -0.0965 -0.6399
 7118TIP3   OH221317   5.547   0.108   3.649  0.0036 -0.3853  0.4123
 7118TIP3    H121318   5.606   0.071   3.582 -0.6428  0.3153 -0.5798
 7118TIP3    H221319   5.465   0.124   3.602 -0.4708  0.1274  1.3884
 7119TIP3   OH221320   4.211   2.395   5.273 -0.2032 -0.5669 -0.2944
 7119TIP3    H121321   4.289   2.368   5.322 -1.0651 -0.1295  1.3817
 7119TIP3    H221322   4.138   2.370   5.329 -1.2124  0.4393 -1.1270
 7120TIP3   OH221323   0.654   1.739   5.078 -0.6470  0.0270  0.1745
 7120TIP3    H121324   0.673   1.660   5.128 -1.3125  0.7089  1.5404
 7120TIP3    H221325   0.568   1.723   5.039 -0.4098 -0.2524 -0.2369
 7121TIP3   OH221326   1.268   2.902   4.289  0.0924 -0.3617 -0.5691
 7121TIP3    H121327   1.207   2.899   4.363 -1.0950 -1.6826 -1.5589
 7121TIP3    H221328   1.354   2.889   4.329 -0.4108 -0.0422  0.6774
 7122TIP3   OH221329   6.133   2.768   4.174  0.1081 -0.1334  0.4030
 7122TIP3    H121330   6.169   2.780   4.086  0.6729  1.9660  0.8515
 7122TIP3    H221331   6.040   2.752   4.160  0.1803  0.2502 -0.6012
 7123TIP3   OH221332   3.089   3.537   4.581  0.5829  0.5842 -0.4081
 7123TIP3    H121333   3.175   3.502   4.605  0.2086  1.1799  2.1406
 7123TIP3    H221334   3.042   3.462   4.544  1.6917 -0.1291 -0.4162
 7124TIP3   OH221335   4.645   4.835   5.587 -0.5917 -0.1587 -0.1874
 7124TIP3    H121336   4.654   4.767   5.654  1.3807  1.0111  0.8166
 7124TIP3    H221337   4.691   4.799   5.511 -0.2762 -0.2837  0.0609
 7125TIP3   OH221338   6.941   2.021   1.097 -0.2737  0.1107  0.4364
 7125TIP3    H121339   6.879   1.976   1.155 -1.0500 -0.8086 -1.0605
 7125TIP3    H221340   6.990   1.951   1.056 -0.5503  0.6710 -0.9036
 7126TIP3   OH221341   3.212   1.925   2.561  0.1847 -0.0753 -0.3143
 7126TIP3    H121342   3.262   1.981   2.502 -0.3768  0.7779 -0.0045
 7126TIP3    H221343   3.234   1.955   2.649 -0.5854  0.0753 -0.1599
 7127TIP3   OH221344   3.040   4.119   2.753 -1.0842 -0.4050  0.2087
 7127TIP3    H121345   2.973   4.176   2.789 -2.0005 -0.9217 -0.6361
 7127TIP3    H221346   3.097   4.098   2.827  1.1994  4.1126  0.0472
 7128TIP3   OH221347   0.782   0.841   4.323  0.4000  0.2369  0.0330
 7128TIP3    H121348   0.767   0.747   4.325  0.5220  0.2175  0.1189
 7128TIP3    H221349   0.800   0.861   4.231 -1.7312  0.5303 -0.3651
 7129TIP3   OH221350   2.817   5.966   1.848 -0.2312 -0.1989 -0.2509
 7129TIP3    H121351   2.725   5.989   1.839 -0.0441  0.1330 -1.4950
 7129TIP3    H221352   2.864   6.040   1.810  0.4690 -1.4173 -1.9151
 7130TIP3   OH221353   6.497   1.748   1.333 -0.2091 -0.5375  0.0240
 7130TIP3    H121354   6.414   1.776   1.294 -0.2477  2.8803  2.2055
 7130TIP3    H221355   6.563   1.779   1.271 -0.3736  2.8630  1.3603
 7131TIP3   OH221356   1.560   1.286   2.504 -0.0226  0.3105 -0.2980
 7131TIP3    H121357   1.590   1.374   2.529 -0.8662  0.5674 -0.1433
 7131TIP3    H221358   1.582   1.279   2.411  2.5784 -0.4154  0.2966
 7132TIP3   OH221359   6.918   1.273   3.445  0.3984  0.3005 -0.2275
 7132TIP3    H121360   6.848   1.244   3.504  0.7089  0.6158  0.2955
 7132TIP3    H221361   6.882   1.350   3.401  0.1322  0.0117 -0.5240
 7133TIP3   OH221362   3.509   5.011   2.400 -0.3485  0.3917 -0.3014
 7133TIP3    H121363   3.600   4.985   2.410 -0.4650  0.2872  0.5387
 7133TIP3    H221364   3.513   5.096   2.356  0.1604  0.4660 -0.1169
 7134TIP3   OH221365   2.645   1.288   3.888 -0.1105  0.2522 -0.5605
 7134TIP3    H121366   2.719   1.249   3.933  2.6401  3.0739 -2.2497
 7134TIP3    H221367   2.655   1.263   3.796 -0.2984  1.9104 -1.0792
 7135TIP3   OH221368   4.522   5.466   5.668  0.1742 -0.3575  0.2847
 7135TIP3    H121369   4.572   5.456   5.587 -1.0097 -0.5405 -0.4594
 7135TIP3    H221370   4.493   5.557   5.667  2.2626  0.4020  1.8210
 7136TIP3   OH221371   0.548   4.208   1.164  0.6717  0.2215 -0.1956
 7136TIP3    H121372   0.526   4.173   1.077 -1.1980 -2.4460  1.2127
 7136TIP3    H221373   0.487   4.282   1.175  0.7779  0.4553 -1.0456
 7137TIP3   OH221374   0.411   1.984   4.754 -0.4544  0.3791 -0.6010
 7137TIP3    H121375   0.499   1.989   4.716 -0.2692  1.0644 -0.1088
 7137TIP3    H221376   0.409   1.901   4.801 -0.5249 -0.2616 -1.7061
 7138TIP3   OH221377   5.922   5.133   5.672 -0.1248 -0.7259 -0.1709
 7138TIP3    H121378   5.985   5.110   5.603  0.4210 -1.9496  0.7038
 7138TIP3    H221379   5.968   5.199   5.724  0.5179 -1.6927  0.5282
 7139TIP3   OH221380   4.367   1.257   0.190 -0.3885 -0.5584 -0.8447
 7139TIP3    H121381   4.287   1.230   0.235 -0.5531  0.6456 -0.3919
 7139TIP3    H221382   4.337   1.311   0.117  0.0142  0.3972 -0.3240
 7140TIP3   OH221383   4.598   3.745   5.612 -0.2568  0.3028  0.3048
 7140TIP3    H121384   4.510   3.777   5.634 -1.2087 -2.2480  0.6099
 7140TIP3    H221385   4.583   3.683   5.540  1.4024  0.2847 -0.0679
 7141TIP3   OH221386   0.447   4.633   3.814 -0.0194  0.1195  0.0326
 7141TIP3    H121387   0.460   4.587   3.897  0.6002 -0.9833 -0.6456
 7141TIP3    H221388   0.372   4.588   3.773  1.0878 -0.8730 -0.9918
 7142TIP3   OH221389   6.128   4.846   0.332  0.1251 -0.9083  0.5324
 7142TIP3    H121390   6.210   4.836   0.284  0.5757 -0.0877  1.1145
 7142TIP3    H221391   6.147   4.815   0.420 -0.2114 -0.7887  0.6490
 7143TIP3   OH221392   3.976   5.143   1.704 -0.0318  0.1066 -0.2202
 7143TIP3    H121393   3.974   5.208   1.774  1.6608  0.1229 -0.1606
 7143TIP3    H221394   3.990   5.194   1.624 -2.3196  0.1307 -0.6937
 7144TIP3   OH221395   0.901   0.336   2.117  0.0369 -0.3393 -0.2176
 7144TIP3    H121396   0.888   0.252   2.073 -3.3444  0.2811 -0.6776
 7144TIP3    H221397   0.930   0.314   2.205 -1.8040 -2.1004  0.0123
 7145TIP3   OH221398   3.981   0.897   3.194 -0.4940  0.2543  0.0552
 7145TIP3    H121399   4.052   0.875   3.254  0.9948  1.0782 -1.3261
 7145TIP3    H221400   3.907   0.918   3.251 -1.0311 -4.6163  1.5524
 7146TIP3   OH221401   1.369   2.821   5.101 -0.2046  0.2145 -0.0614
 7146TIP3    H121402   1.340   2.851   5.188  2.0712  0.6153  0.6275
 7146TIP3    H221403   1.398   2.901   5.057  0.4886 -0.2352 -0.4356
 7147TIP3   OH221404   6.907   0.849   0.650  0.1971  0.3855  0.1525
 7147TIP3    H121405   6.943   0.933   0.676 -0.9571  0.6480  0.9317
 7147TIP3    H221406   6.899   0.855   0.554  1.8212  0.4527 -0.0073
 7148TIP3   OH221407   3.461   1.513   2.835  0.6495 -0.0711 -0.1130
 7148TIP3    H121408   3.436   1.423   2.819 -0.4102  0.1335  0.2797
 7148TIP3    H221409   3.496   1.544   2.752  1.2466 -0.9034 -0.1832
 7149TIP3   OH221410   3.369   6.429   5.592 -0.3684 -0.0227 -0.4737
 7149TIP3    H121411   3.362   6.447   5.686 -1.1850  1.1025 -0.7354
 7149TIP3    H221412   3.380   6.334   5.587  0.6947 -0.0009  0.8032
 7150TIP3   OH221413   4.380   3.470   5.824 -0.4855 -0.1267  0.3899
 7150TIP3    H121414   4.461   3.422   5.839  0.7669  2.1481  1.2985
 7150TIP3    H221415   4.388   3.549   5.877 -3.5591 -0.0737  0.9519
 7151TIP3   OH221416   3.075   1.757   3.624 -0.2099  0.6667 -0.2856
 7151TIP3    H121417   2.999   1.758   3.682 -1.7050  0.6380 -2.1773
 7151TIP3    H221418   3.121   1.839   3.644 -1.6456  1.5037 -0.2445
 7152TIP3   OH221419   1.626   1.865   5.821 -0.0488  0.4629  0.1919
 7152TIP3    H121420   1.640   1.799   5.889  0.6386  1.0747  0.6634
 7152TIP3    H221421   1.664   1.826   5.742  1.0496  0.5793  0.6386
 7153TIP3   OH221422   4.546   0.253   4.743  0.4614 -0.6600  0.0015
 7153TIP3    H121423   4.631   0.294   4.722  0.4524  0.2789  1.6583
 7153TIP3    H221424   4.482   0.311   4.703  0.5048  0.3420  1.3113
 7154TIP3   OH221425   5.155   1.420   2.833  0.6221 -0.5811 -0.1415
 7154TIP3    H121426   5.064   1.426   2.861  0.6464 -0.7511 -0.0292
 7154TIP3    H221427   5.203   1.478   2.893  0.3297  0.9661 -1.3352
 7155TIP3   OH221428   1.490   2.652   2.599 -0.3985 -0.0694  0.0664
 7155TIP3    H121429   1.454   2.698   2.675 -0.7919  0.5635 -0.4937
 7155TIP3    H221430   1.444   2.690   2.524  1.2271  0.5800 -0.6557
 7156TIP3   OH221431   1.549   4.366   1.053 -0.2776 -0.5948  0.1993
 7156TIP3    H121432   1.595   4.429   0.997 -0.3516 -1.6500 -1.1074
 7156TIP3    H221433   1.486   4.324   0.995 -2.4716  0.3309  1.8039
 7157TIP3   OH221434   2.917   6.777   0.788  0.2930 -0.1085  0.1376
 7157TIP3    H121435   2.972   6.751   0.714 -2.0977 -3.7505 -0.6695
 7157TIP3    H221436   2.834   6.803   0.747 -0.0182  1.1162  1.4654
 7158TIP3   OH221437   0.535   1.741   4.551  0.3659 -0.1164 -0.3423
 7158TIP3    H121438   0.570   1.657   4.520  0.5258 -0.6733  1.2248
 7158TIP3    H221439   0.441   1.736   4.534  0.2648 -0.9417  0.3973
 7159TIP3   OH221440   6.768   0.063   4.550  0.0778 -1.0247  0.0179
 7159TIP3    H121441   6.783   0.015   4.469 -0.4335 -1.2500  0.0513
 7159TIP3    H221442   6.693   0.020   4.590 -0.8763  0.2765 -0.3087
 7160TIP3   OH221443   1.202   2.216   5.689  0.1059 -0.4201  1.0211
 7160TIP3    H121444   1.165   2.290   5.642 -1.8130 -2.1760 -0.4355
 7160TIP3    H221445   1.276   2.188   5.634  0.3371 -0.0772  1.1553
 7161TIP3   OH221446   4.922   5.170   4.975 -0.3151  0.0829  0.7933
 7161TIP3    H121447   4.836   5.198   4.942  0.0128  2.0371  1.4486
 7161TIP3    H221448   4.985   5.208   4.914  0.2330  2.5643  2.7250
 7162TIP3   OH221449   5.198   0.950   3.342  0.2669  0.1661  0.1724
 7162TIP3    H121450   5.237   0.895   3.410 -1.0661 -0.8623  0.1330
 7162TIP3    H221451   5.163   0.889   3.278 -0.8258  1.0562 -0.1125
 7163TIP3   OH221452   4.454   4.804   4.051 -0.2694 -0.1127  0.1968
 7163TIP3    H121453   4.485   4.874   3.993  0.9760 -0.8128 -0.0229
 7163TIP3    H221454   4.489   4.826   4.137 -1.9597  0.8236  0.7013
 7164TIP3   OH221455   0.446   3.528   1.603  0.4069  0.3267  0.1164
 7164TIP3    H121456   0.535   3.505   1.629  0.1289 -0.2622  0.5767
 7164TIP3    H221457   0.396   3.524   1.684 -0.2286 -0.2816 -0.2961
 7165TIP3   OH221458   0.660   4.978   5.613 -0.1862 -0.4668  0.2480
 7165TIP3    H121459   0.675   4.906   5.675  0.4762 -0.1532  0.4636
 7165TIP3    H221460   0.623   4.936   5.536 -0.9311 -0.8758  0.8225
 7166TIP3   OH221461   1.830   2.743   5.367  0.9099  0.2187  0.1368
 7166TIP3    H121462   1.747   2.706   5.395  0.0745  1.2288 -0.9263
 7166TIP3    H221463   1.872   2.674   5.317  1.6042 -0.9662  2.2175
 7167TIP3   OH221464   2.565   4.793   3.013  0.4884 -0.5112 -0.4432
 7167TIP3    H121465   2.525   4.861   3.067 -0.7176 -1.5169 -0.0022
 7167TIP3    H221466   2.659   4.812   3.015  0.2283  0.8034  0.1147
 7168TIP3   OH221467   4.764   0.872   2.188 -0.3509 -0.8666 -0.2890
 7168TIP3    H121468   4.805   0.831   2.113  0.9879 -0.1910  0.0335
 7168TIP3    H221469   4.825   0.856   2.260 -1.1399 -0.6755  0.4412
 7169TIP3   OH221470   5.132   0.489   3.046 -0.5593  0.1985  0.1632
 7169TIP3    H121471   5.052   0.533   3.018 -0.8182  1.1449  2.2321
 7169TIP3    H221472   5.103   0.405   3.082 -0.5214  0.1884  0.1710
 7170TIP3   OH221473   2.219   1.215   5.503 -0.2250 -0.1538 -0.1349
 7170TIP3    H121474   2.159   1.277   5.461 -0.2794 -0.8949 -1.1975
 7170TIP3    H221475   2.239   1.255   5.588 -2.5995 -0.0974  0.4715
 7171TIP3   OH221476   6.782   2.486   1.620 -0.2017  0.3211  0.3516
 7171TIP3    H121477   6.820   2.407   1.581  0.3638  1.3888 -1.3840
 7171TIP3    H221478   6.770   2.464   1.712  1.3899 -1.2418  0.2364
 7172TIP3   OH221479   0.900   3.130   3.932 -0.7196  0.2940 -0.1235
 7172TIP3    H121480   0.922   3.043   3.964 -0.3713 -0.2502 -1.7771
 7172TIP3    H221481   0.975   3.184   3.957  0.5302 -0.5834 -1.7919
 7173TIP3   OH221482   1.380   5.383   5.182 -0.5455  0.4785 -0.2277
 7173TIP3    H121483   1.394   5.451   5.247 -0.2564 -0.4284  0.6749
 7173TIP3    H221484   1.310   5.417   5.127 -0.6394  1.3517  0.4110
 7174TIP3   OH221485   2.677   1.358   2.244  0.6738  0.1044  0.2268
 7174TIP3    H121486   2.738   1.408   2.189  1.3168  0.5467  1.3132
 7174TIP3    H221487   2.707   1.267   2.237  1.5964  0.3448  0.8947
 7175TIP3   OH221488   2.114   0.541   1.443 -0.1714 -0.1095  0.2055
 7175TIP3    H121489   2.126   0.609   1.510 -2.6620  1.1998 -0.5688
 7175TIP3    H221490   2.170   0.568   1.371  0.5194 -0.1092  0.7268
 7176TIP3   OH221491   4.147   5.262   1.158  0.4128 -0.1491 -0.3582
 7176TIP3    H121492   4.070   5.206   1.158  0.8752 -0.8143  0.6701
 7176TIP3    H221493   4.201   5.228   1.230  0.6910  1.6308  0.3200
 7177TIP3   OH221494   5.140   2.190   2.214 -0.0230 -0.1049  0.2808
 7177TIP3    H121495   5.139   2.125   2.144 -0.5105 -0.7613  0.8889
 7177TIP3    H221496   5.048   2.211   2.230 -0.0226 -0.9365  1.5951
 7178TIP3   OH221497   6.508   0.852   0.306 -0.4318  0.0564 -0.3374
 7178TIP3    H121498   6.443   0.920   0.288 -0.8378 -0.4608 -0.8526
 7178TIP3    H221499   6.525   0.860   0.400 -2.1988 -0.6145  0.0805
 7179TIP3   OH221500   3.847   1.801   1.949  0.7260  0.1826  0.1617
 7179TIP3    H121501   3.891   1.865   2.005 -1.9609  1.6755  0.7500
 7179TIP3    H221502   3.885   1.815   1.862  0.3005  2.6044  0.2856
 7180TIP3   OH221503   2.296   6.333   1.448  0.0095 -0.9070 -0.1554
 7180TIP3    H121504   2.297   6.393   1.522 -0.1150 -0.3219 -0.6154
 7180TIP3    H221505   2.225   6.272   1.467  0.4084 -1.1646  0.5169
 7181TIP3   OH221506   6.728   3.654   1.204 -0.7412  0.0484  1.2595
 7181TIP3    H121507   6.677   3.583   1.244 -0.9006 -1.5452 -1.5153
 7181TIP3    H221508   6.818   3.637   1.232 -1.0896  0.2642  2.6032
 7182TIP3   OH221509   1.751   3.379   0.361  0.4049  0.0577 -0.0552
 7182TIP3    H121510   1.752   3.377   0.457 -0.9414  2.7727  0.1292
 7182TIP3    H221511   1.679   3.321   0.337 -0.8812  1.2089  0.8007
 7183TIP3   OH221512   2.800   5.985   5.202  0.0888 -0.4038  0.0860
 7183TIP3    H121513   2.811   6.077   5.223 -0.7539 -0.1836 -0.3705
 7183TIP3    H221514   2.729   5.984   5.137 -0.6194 -1.4450  0.8357
 7184TIP3   OH221515   1.543   2.104   5.000  0.3864  0.1873 -0.2948
 7184TIP3    H121516   1.612   2.167   4.979  0.8661 -0.1364  0.3152
 7184TIP3    H221517   1.563   2.074   5.088 -0.3522 -0.1528 -0.2371
 7185TIP3   OH221518   4.995   3.068   3.520 -0.0731 -0.2853 -0.4208
 7185TIP3    H121519   4.910   3.029   3.543 -0.0047  0.3871  1.1513
 7185TIP3    H221520   5.047   2.995   3.486  0.0477 -1.6676  2.3941
 7186TIP3   OH221521   3.069   4.319   2.135 -0.2085 -0.6182  0.1160
 7186TIP3    H121522   3.061   4.388   2.200  4.8389 -0.5700  1.0878
 7186TIP3    H221523   3.102   4.244   2.184 -3.5149 -3.2646 -1.2796
 7187TIP3   OH221524   7.205   5.141   1.731 -0.2887 -0.0070 -0.4449
 7187TIP3    H121525   7.159   5.119   1.812 -0.8597  1.6979 -0.2523
 7187TIP3    H221526   7.138   5.135   1.663  0.2710 -1.7892 -0.8936
 7188TIP3   OH221527   3.245   6.773   2.473  0.4059  0.1225  0.0850
 7188TIP3    H121528   3.173   6.722   2.509  1.4858 -1.1815  0.4732
 7188TIP3    H221529   3.207   6.860   2.458 -1.6890 -0.9212 -1.2330
 7189TIP3   OH221530   3.062   2.529   3.527  0.0174 -0.1985 -0.4345
 7189TIP3    H121531   3.158   2.527   3.518  0.1562  2.5508 -0.3205
 7189TIP3    H221532   3.046   2.490   3.613  1.2101  0.7803  0.2693
 7190TIP3   OH221533   4.101   6.532   4.837 -1.0260  0.1722 -0.6758
 7190TIP3    H121534   4.055   6.572   4.910 -0.9512 -1.3694  0.2653
 7190TIP3    H221535   4.042   6.463   4.807 -0.8809  0.5282 -1.8354
 7191TIP3   OH221536   4.820   4.160   1.363  0.6583 -0.1594 -0.5857
 7191TIP3    H121537   4.772   4.192   1.440  0.6602  0.4623 -0.8390
 7191TIP3    H221538   4.804   4.226   1.296  0.2864 -0.9278 -1.2700
 7192TIP3   OH221539   0.690   0.870   2.229 -0.2789 -0.1355  0.5834
 7192TIP3    H121540   0.722   0.791   2.271 -0.3301 -0.2081  0.4859
 7192TIP3    H221541   0.764   0.901   2.176 -0.6393 -0.7828 -0.3349
 7193TIP3   OH221542   6.502   2.324   4.367  0.7996  0.4047  0.5779
 7193TIP3    H121543   6.428   2.275   4.330  0.7307 -0.1135  1.3776
 7193TIP3    H221544   6.468   2.358   4.450  0.4784  2.7652 -0.4153
 7194TIP3   OH221545   1.957   6.117   2.383 -0.2155  0.2253 -0.1197
 7194TIP3    H121546   1.988   6.116   2.292 -0.1400 -0.1017 -0.0921
 7194TIP3    H221547   1.862   6.120   2.376 -0.1967  0.6300 -0.2085
 7195TIP3   OH221548   3.345   2.870   5.115  0.4955 -0.3001  0.9381
 7195TIP3    H121549   3.413   2.856   5.181  1.7250 -1.0928 -0.4253
 7195TIP3    H221550   3.310   2.783   5.097 -0.1056 -0.0407  0.8220
 7196TIP3   OH221551   5.103   5.276   3.127  0.5111 -0.3655 -0.6150
 7196TIP3    H121552   5.026   5.329   3.107  1.7605  1.4539 -0.8630
 7196TIP3    H221553   5.109   5.215   3.054 -0.9150 -0.8183 -0.3793
 7197TIP3   OH221554   6.635   3.923   5.112 -0.2612 -0.3182 -0.6159
 7197TIP3    H121555   6.606   4.002   5.067  2.5637 -0.3644 -2.8154
 7197TIP3    H221556   6.663   3.955   5.198  0.7428  1.1414 -1.4229
 7198TIP3   OH221557   2.003   1.979   5.310  0.4362 -0.2821 -0.2406
 7198TIP3    H121558   2.071   2.038   5.345 -0.0432  0.3088 -0.3009
 7198TIP3    H221559   1.940   1.971   5.382 -0.4051  0.7036 -0.8507
 7199TIP3   OH221560   1.830   3.050   1.955  0.2535  0.7845  0.0008
 7199TIP3    H121561   1.769   3.111   1.914 -0.8151 -1.5244 -2.0254
 7199TIP3    H221562   1.823   3.069   2.049 -2.5632  1.4998 -0.2753
 7200TIP3   OH221563   4.289   1.525   5.349  1.0651  0.0427  0.0571
 7200TIP3    H121564   4.204   1.563   5.372  0.8250  0.4793 -1.4394
 7200TIP3    H221565   4.268   1.439   5.315  1.1233  0.4712 -1.0973
 7201TIP3   OH221566   0.073   4.089   0.979  0.0880  0.7720  0.1066
 7201TIP3    H121567   0.070   4.136   0.896  0.5796  0.3735 -0.1411
 7201TIP3    H221568   0.160   4.108   1.015 -0.6457  2.1814  1.2781
 7202TIP3   OH221569   6.729   3.223   4.619 -0.0978  0.1428  0.0715
 7202TIP3    H121570   6.790   3.197   4.689 -1.3761 -2.1815  0.4165
 7202TIP3    H221571   6.749   3.164   4.547 -0.4801  0.8491 -0.6227
 7203TIP3   OH221572   2.102   5.000   1.398 -0.1196 -0.5690  0.0997
 7203TIP3    H121573   2.160   5.063   1.356 -1.9733  1.8961  1.0236
 7203TIP3    H221574   2.021   5.003   1.348 -0.5041 -1.6841  0.6121
 7204TIP3   OH221575   2.335   3.828   0.417  0.1076 -0.7135  0.4786
 7204TIP3    H121576   2.405   3.798   0.476  1.1850 -0.7865 -0.7869
 7204TIP3    H221577   2.364   3.800   0.330 -1.1347 -0.0483 -0.1710
 7205TIP3   OH221578   2.220   0.977   2.379  0.0162 -0.6580  0.9364
 7205TIP3    H121579   2.164   1.023   2.443 -1.4045  0.3417 -0.9057
 7205TIP3    H221580   2.252   1.047   2.322 -0.2569 -1.6986 -0.5285
 7206TIP3   OH221581   5.579   0.492   5.139 -0.0039 -0.1404  0.1947
 7206TIP3    H121582   5.565   0.564   5.200  0.7829 -0.1582  0.4000
 7206TIP3    H221583   5.604   0.535   5.057  1.1182 -0.1964  0.4981
 7207TIP3   OH221584   3.971   1.691   2.489  0.7251 -0.2042  0.1600
 7207TIP3    H121585   3.999   1.686   2.580 -0.4733 -2.6848  0.4647
 7207TIP3    H221586   3.949   1.601   2.465 -2.9160  0.8982 -1.2830
 7208TIP3   OH221587   3.005   0.751   4.236  0.4112 -0.2240  0.2242
 7208TIP3    H121588   2.947   0.827   4.240 -0.1251 -0.5907 -0.3561
 7208TIP3    H221589   2.946   0.677   4.218  0.9166 -0.7821  0.8263
 7209TIP3   OH221590   0.283   5.292   3.883 -0.2748  0.3461 -0.4836
 7209TIP3    H121591   0.365   5.285   3.931 -0.5302  2.6746  0.4338
 7209TIP3    H221592   0.303   5.259   3.795  0.8755 -1.6452  0.4511
 7210TIP3   OH221593   2.362   5.337   0.271  0.0498 -0.5329  0.9058
 7210TIP3    H121594   2.282   5.388   0.285 -1.3938 -2.1732 -0.8505
 7210TIP3    H221595   2.431   5.403   0.262 -1.5287  1.0664 -0.1064
 7211TIP3   OH221596   2.008   1.915   0.553 -0.1398  0.0246 -0.3740
 7211TIP3    H121597   1.987   1.822   0.551 -1.5977  0.2795  0.9670
 7211TIP3    H221598   1.933   1.958   0.513  0.9755  0.6119 -1.9601
 7212TIP3   OH221599   5.883   5.867   2.330 -0.2240 -0.3717  0.3575
 7212TIP3    H121600   5.933   5.846   2.251 -1.2337 -0.9662 -0.1402
 7212TIP3    H221601   5.791   5.864   2.302 -0.5875 -0.3487  1.4996
 7213TIP3   OH221602   6.440   0.621   3.868  0.1416 -0.2054 -0.3328
 7213TIP3    H121603   6.463   0.594   3.957 -0.3786  0.7040  0.0942
 7213TIP3    H221604   6.524   0.644   3.828  0.1091  2.9964  1.1724
 7214TIP3   OH221605   3.469   1.863   2.324  0.3180  0.2846 -0.3557
 7214TIP3    H121606   3.395   1.808   2.298 -0.6678  0.6190  1.5011
 7214TIP3    H221607   3.541   1.802   2.337 -0.4601 -0.4610  0.6223
 7215TIP3   OH221608   2.354   1.174   3.628 -0.2217  0.3951  0.0089
 7215TIP3    H121609   2.350   1.200   3.537 -1.8302  0.3703  0.0462
 7215TIP3    H221610   2.412   1.098   3.629 -0.7447 -0.0376 -1.1082
 7216TIP3   OH221611   4.374   1.871   0.075 -0.1301 -0.1333  0.1545
 7216TIP3    H121612   4.290   1.895   0.114  0.1313  0.7722  0.1981
 7216TIP3    H221613   4.420   1.824   0.144  0.5352  1.8969  1.1991
 7217TIP3   OH221614   0.674   2.355   4.197  0.3240 -0.1965  0.6237
 7217TIP3    H121615   0.711   2.351   4.109 -1.6493 -2.9146 -0.2200
 7217TIP3    H221616   0.582   2.380   4.183  0.6049  2.0055  2.2250
 7218TIP3   OH221617   0.990   1.117   5.758  0.8577 -0.7028  0.1038
 7218TIP3    H121618   1.036   1.187   5.805  1.0019 -0.3014 -0.6213
 7218TIP3    H221619   0.903   1.114   5.798  1.2698 -1.0130  1.0300
 7219TIP3   OH221620   5.775   2.743   3.442 -0.1316 -0.3305 -0.1923
 7219TIP3    H121621   5.841   2.789   3.390 -0.5931 -0.0149 -0.4994
 7219TIP3    H221622   5.802   2.758   3.533  0.1269 -0.0675 -0.3110
 7220TIP3   OH221623   5.919   0.980   2.365 -0.8363  0.5255 -0.0087
 7220TIP3    H121624   5.906   1.009   2.455 -0.6504  2.4532 -0.5551
 7220TIP3    H221625   5.966   1.053   2.323  0.6853 -1.0655 -1.2182
 7221TIP3   OH221626   5.712   4.774   4.222 -0.1652 -0.2499  0.1670
 7221TIP3    H121627   5.644   4.715   4.189  0.1350 -0.6415  0.2396
 7221TIP3    H221628   5.744   4.731   4.302  0.9748 -0.6617 -0.4868
 7222TIP3   OH221629   2.634   6.603   0.674 -0.5002  0.0664 -0.2624
 7222TIP3    H121630   2.567   6.601   0.742  0.4273 -0.2622  0.6655
 7222TIP3    H221631   2.650   6.696   0.659  2.9322  0.4246  3.7554
 7223TIP3   OH221632   6.497   1.335   1.517 -0.2456  0.6723  0.0194
 7223TIP3    H121633   6.494   1.425   1.549 -2.0689  0.8701 -0.5946
 7223TIP3    H221634   6.409   1.319   1.482  0.0674 -1.3214  0.0307
 7224TIP3   OH221635   6.080   5.704   4.845 -0.7894  0.0754 -0.1460
 7224TIP3    H121636   6.105   5.624   4.799 -0.0802  0.2766 -0.1151
 7224TIP3    H221637   6.083   5.773   4.778  0.9355  0.5016  0.3054
 7225TIP3   OH221638   6.054   3.820   3.080 -0.2245 -0.2059 -0.1493
 7225TIP3    H121639   5.999   3.875   3.024  1.0432  0.9096 -0.3442
 7225TIP3    H221640   6.062   3.869   3.161  0.6010 -0.2983 -0.1736
 7226TIP3   OH221641   3.090   4.318   5.311 -0.2393  0.2368 -0.0623
 7226TIP3    H121642   3.168   4.369   5.334  0.7178 -1.0022 -0.4540
 7226TIP3    H221643   3.027   4.339   5.380  0.8640  0.3381  0.9556
 7227TIP3   OH221644   0.105   1.982   4.725 -0.1128 -0.5235  0.0215
 7227TIP3    H121645   0.050   1.915   4.765  0.4074 -0.2158  1.2704
 7227TIP3    H221646   0.194   1.956   4.745  0.0787  0.8796  1.0970
 7228TIP3   OH221647   4.778   4.926   0.246 -0.2738 -0.3491  0.3458
 7228TIP3    H121648   4.784   4.937   0.340 -0.6206  1.0009  0.2273
 7228TIP3    H221649   4.685   4.939   0.226 -0.6614 -2.9926  0.0666
 7229TIP3   OH221650   2.968   2.430   2.034  0.0392 -0.0588  0.9118
 7229TIP3    H121651   3.016   2.391   1.961 -0.2347 -1.5496  1.4946
 7229TIP3    H221652   2.926   2.508   1.997  0.8074 -0.1694 -0.2265
 7230TIP3   OH221653   3.455   3.897   4.808  0.2185 -0.4272  0.1176
 7230TIP3    H121654   3.412   3.908   4.723  1.3400  0.9692 -0.3317
 7230TIP3    H221655   3.457   3.986   4.845  0.0344 -0.9667  1.4647
 7231TIP3   OH221656   4.360   0.187   3.534 -0.2999  0.0869  0.3392
 7231TIP3    H121657   4.429   0.247   3.506  0.2055 -0.8378 -0.4500
 7231TIP3    H221658   4.332   0.142   3.454 -1.2381 -0.1568  0.7832
 7232TIP3   OH221659   0.188   5.514   5.486  0.1846  0.1326  0.2099
 7232TIP3    H121660   0.138   5.575   5.540 -0.4677  0.8832 -1.1707
 7232TIP3    H221661   0.141   5.431   5.492 -1.2238  0.8030 -0.9802
 7233TIP3   OH221662   2.494   2.626   4.270 -0.3354 -0.4726 -0.0548
 7233TIP3    H121663   2.569   2.630   4.211  0.4656  1.3157  0.9986
 7233TIP3    H221664   2.486   2.533   4.292 -0.7973 -1.2610 -3.0379
 7234TIP3   OH221665   3.640   2.994   1.930  0.2299 -0.7252  0.3712
 7234TIP3    H121666   3.582   2.998   2.006 -0.2077 -0.4365  0.0281
 7234TIP3    H221667   3.615   2.915   1.884 -1.6288  0.6423 -1.1223
 7235TIP3   OH221668   3.585   2.963   0.996 -0.0503  0.3907  0.0191
 7235TIP3    H121669   3.585   2.872   1.026  0.1986  0.3568 -0.0812
 7235TIP3    H221670   3.517   3.006   1.048  0.0287  0.2125  0.2696
 7236TIP3   OH221671   5.216   2.169   5.279 -0.3064 -0.0620 -0.3995
 7236TIP3    H121672   5.200   2.261   5.299 -2.1696 -0.4108 -0.1173
 7236TIP3    H221673   5.276   2.139   5.347  0.4081  0.9558 -0.5603
 7237TIP3   OH221674   1.051   6.504   1.651  0.5618  0.2210  0.3280
 7237TIP3    H121675   1.023   6.583   1.698 -0.4187 -0.4220  0.8711
 7237TIP3    H221676   0.970   6.468   1.614  0.5790 -1.7193  1.9722
 7238TIP3   OH221677   5.003   6.323   3.108 -0.2313 -0.6466  0.7765
 7238TIP3    H121678   5.018   6.229   3.094  0.2604 -0.3539 -0.8863
 7238TIP3    H221679   4.921   6.340   3.061 -0.1170 -0.1647  0.7570
 7239TIP3   OH221680   1.028   0.648   5.751  0.2627  0.5752  0.2989
 7239TIP3    H121681   0.975   0.571   5.775 -1.2462  1.0428 -1.3303
 7239TIP3    H221682   1.104   0.643   5.809 -0.2359 -1.6357  0.8839
 7240TIP3   OH221683   1.867   5.684   5.129  0.0572 -0.2124 -0.0852
 7240TIP3    H121684   1.873   5.591   5.152 -1.1905 -0.2316  0.2597
 7240TIP3    H221685   1.879   5.686   5.034 -0.1495 -0.7686 -0.1280
 7241TIP3   OH221686   4.549   4.370   3.761  0.3037  0.2030  0.3393
 7241TIP3    H121687   4.478   4.308   3.778 -0.1141  0.9180  1.2913
 7241TIP3    H221688   4.603   4.327   3.694 -0.9960 -0.3609 -0.3780
 7242TIP3   OH221689   1.821   3.212   2.730  0.2528  0.4815 -0.5288
 7242TIP3    H121690   1.789   3.124   2.751 -1.5046  1.7690  2.9978
 7242TIP3    H221691   1.750   3.254   2.683 -0.8228  1.2768  1.6411
 7243TIP3   OH221692   3.383   1.417   3.366  0.2592  0.1546 -0.1242
 7243TIP3    H121693   3.337   1.378   3.292  0.1519  4.0753 -2.3997
 7243TIP3    H221694   3.314   1.456   3.420  0.5337  1.5002 -0.6928
 7244TIP3   OH221695   1.395   2.328   2.226  0.0453 -0.3478 -0.7315
 7244TIP3    H121696   1.475   2.281   2.252  0.2193  0.7278  0.8498
 7244TIP3    H221697   1.424   2.391   2.161  1.7680  3.7850  3.4965
 7245TIP3   OH221698   4.361   0.047   0.790  0.2843  0.8347  0.8714
 7245TIP3    H121699   4.292   0.077   0.732 -1.0026 -1.8818  0.8289
 7245TIP3    H221700   4.442   0.071   0.746 -0.6576  1.1292 -0.7671
 7246TIP3   OH221701   1.908   1.885   4.162  0.2017 -0.2896 -0.2379
 7246TIP3    H121702   1.815   1.877   4.141  0.5065 -2.0323 -1.1658
 7246TIP3    H221703   1.948   1.911   4.079  0.5068  1.0163  0.2944
 7247TIP3   OH221704   1.714   1.746   4.774  0.3844 -0.0841  0.3241
 7247TIP3    H121705   1.648   1.775   4.710  0.1466 -0.0050  0.6052
 7247TIP3    H221706   1.777   1.696   4.722 -0.7246 -1.5085  0.2922
 7248TIP3   OH221707   5.238   0.985   4.361 -0.0326 -0.0682 -0.2215
 7248TIP3    H121708   5.274   0.935   4.288 -1.5992 -1.1960 -0.2622
 7248TIP3    H221709   5.224   0.921   4.430 -2.4665  0.1322 -0.4187
 7249TIP3   OH221710   6.530   6.007   1.621 -0.1873 -0.2728  0.5468
 7249TIP3    H121711   6.612   5.986   1.667 -0.8206  0.6538  2.2145
 7249TIP3    H221712   6.534   6.102   1.607 -1.1949 -0.1209  1.1628
 7250TIP3   OH221713   6.031   2.837   1.246 -0.0904  0.4400 -0.5167
 7250TIP3    H121714   5.978   2.899   1.296 -0.5044 -0.1075 -0.2675
 7250TIP3    H221715   6.067   2.890   1.174 -0.9651  0.8292 -0.6829
 7251TIP3   OH221716   1.684   2.600   0.822 -0.2806  0.0094  0.0642
 7251TIP3    H121717   1.713   2.585   0.732 -0.5129  1.7441 -0.3469
 7251TIP3    H221718   1.741   2.670   0.853 -1.3618  0.6594  0.6417
 7252TIP3   OH221719   2.604   6.660   0.117  0.3441 -0.0882 -0.5434
 7252TIP3    H121720   2.560   6.665   0.202  3.0636  0.9438  0.9264
 7252TIP3    H221721   2.640   6.572   0.113  1.7865  0.4308  0.2891
 7253TIP3   OH221722   0.892   3.361   2.081  0.4889 -0.1051  0.1582
 7253TIP3    H121723   0.807   3.401   2.064  0.1537 -0.3496  1.2022
 7253TIP3    H221724   0.888   3.334   2.173  0.7618 -2.3842 -0.4532
 7254TIP3   OH221725   1.217   1.427   1.569 -0.3005 -0.1907  0.7290
 7254TIP3    H121726   1.177   1.473   1.496  1.8686 -0.3645 -0.6753
 7254TIP3    H221727   1.271   1.359   1.528  2.7732  1.1124  2.2851
 7255TIP3   OH221728   0.094   6.753   1.729 -0.2331 -0.6265  0.6751
 7255TIP3    H121729   0.070   6.675   1.778  1.4783 -0.5439  1.7392
 7255TIP3    H221730   0.050   6.825   1.775 -0.6415 -0.8043  0.5654
 7256TIP3   OH221731   4.752   6.626   0.831 -0.0366 -0.2528  0.4415
 7256TIP3    H121732   4.789   6.539   0.817 -0.0528 -0.5337  1.9688
 7256TIP3    H221733   4.761   6.670   0.746 -0.1674 -1.7768 -0.3862
 7257TIP3   OH221734   2.401   1.635   5.841  0.2112  0.0902 -0.3830
 7257TIP3    H121735   2.469   1.702   5.840 -0.8643  1.2318  0.2462
 7257TIP3    H221736   2.402   1.601   5.931 -1.7777  1.9986  0.4320
 7258TIP3   OH221737   2.568   4.899   4.353 -0.0950  0.2339 -0.4135
 7258TIP3    H121738   2.576   4.937   4.266  1.3324  0.5484 -0.1669
 7258TIP3    H221739   2.578   4.805   4.338  0.6199  0.3271 -0.5360
 7259TIP3   OH221740   0.036   2.684   4.323  0.1924 -0.6046  0.4881
 7259TIP3    H121741   0.112   2.702   4.378  0.3334 -1.1461  0.4739
 7259TIP3    H221742   0.045   2.592   4.298 -0.7238 -0.8268  0.8972
 7260TIP3   OH221743   2.571   1.017   2.177  0.3885  0.1246  0.3335
 7260TIP3    H121744   2.492   1.043   2.223  1.2631  0.6302  1.5940
 7260TIP3    H221745   2.540   0.985   2.092 -1.4878 -2.8331  1.9862
 7261TIP3   OH221746   2.366   2.966   2.692  0.0365  0.3896  0.1382
 7261TIP3    H121747   2.335   2.982   2.781 -0.1154 -0.7568  0.3056
 7261TIP3    H221748   2.418   2.886   2.699 -0.3754  0.0205 -0.8945
 7262TIP3   OH221749   5.377   2.947   3.922 -0.0754  0.3433 -0.0621
 7262TIP3    H121750   5.400   2.882   3.855  1.1016  1.0008 -0.3107
 7262TIP3    H221751   5.346   3.023   3.872 -1.1197  0.1254  0.2200
 7263TIP3   OH221752   4.034   3.751   5.321 -0.0028 -0.5800  0.1564
 7263TIP3    H121753   4.054   3.658   5.305  0.4612 -0.6683  1.1829
 7263TIP3    H221754   3.946   3.762   5.285 -0.1792 -1.4884  0.2759
 7264TIP3   OH221755   2.203   1.742   2.233 -0.1568  0.3784 -0.0232
 7264TIP3    H121756   2.217   1.832   2.261 -0.4229  0.3199  0.3090
 7264TIP3    H221757   2.291   1.704   2.229 -0.1828 -0.1459  2.5449
 7265TIP3   OH221758   4.678   5.408   2.510 -0.6358 -0.1727  0.7739
 7265TIP3    H121759   4.637   5.462   2.578 -1.7877  0.6981 -0.5635
 7265TIP3    H221760   4.737   5.350   2.559  0.4864  2.0960  2.3245
 7266TIP3   OH221761   6.280   5.650   2.844  0.0271 -0.0397  0.2145
 7266TIP3    H121762   6.188   5.671   2.823  0.1031 -0.6138 -0.7742
 7266TIP3    H221763   6.275   5.602   2.927 -0.5912 -0.2211  0.0829
 7267TIP3   OH221764   5.329   0.242   1.310  0.6903  0.0975 -0.1027
 7267TIP3    H121765   5.359   0.198   1.230 -0.1024  1.9572 -1.5056
 7267TIP3    H221766   5.398   0.225   1.374  1.6798 -0.8920 -1.3774
 7268TIP3   OH221767   5.271   4.482   4.092 -0.1205 -0.4786 -0.0847
 7268TIP3    H121768   5.308   4.407   4.138 -0.4105 -0.5348  0.0601
 7268TIP3    H221769   5.194   4.506   4.144 -0.1230 -0.1861 -0.2223
 7269TIP3   OH221770   0.942   0.745   2.520 -0.1426  0.5712  0.1992
 7269TIP3    H121771   0.962   0.724   2.429 -0.1199 -0.4510  0.4287
 7269TIP3    H221772   0.952   0.840   2.525  1.1189  0.5059 -0.5471
 7270TIP3   OH221773   1.225   5.188   5.360  0.2928  0.0752 -0.4266
 7270TIP3    H121774   1.131   5.167   5.364  0.1020  1.0411  0.9550
 7270TIP3    H221775   1.229   5.281   5.381  1.5738  0.0222 -0.3696
 7271TIP3   OH221776   1.316   5.811   3.665  0.3851 -0.2167 -0.5717
 7271TIP3    H121777   1.332   5.802   3.759 -1.0646 -0.0639 -0.2848
 7271TIP3    H221778   1.388   5.763   3.624  0.2366 -1.5568  0.6441
 7272TIP3   OH221779   2.806   1.242   1.948 -0.4107  0.0245 -0.7561
 7272TIP3    H121780   2.817   1.333   1.975  0.0604  0.0537 -1.0205
 7272TIP3    H221781   2.893   1.202   1.961 -1.2736 -1.1313  1.9884
 7273TIP3   OH221782   0.176   1.813   0.994 -0.2173  1.1574  0.4020
 7273TIP3    H121783   0.242   1.748   1.020 -0.2759  1.1707  0.5810
 7273TIP3    H221784   0.110   1.810   1.063 -0.3607  1.2091  0.2689
 7274TIP3   OH221785   3.315   0.039   4.433 -0.2037 -0.0805  0.2391
 7274TIP3    H121786   3.332   0.104   4.365 -0.6566 -0.6018 -0.3831
 7274TIP3    H221787   3.319  -0.045   4.388 -0.3652 -0.4468  0.8909
 7275TIP3   OH221788   6.401   5.805   5.382  0.4824 -0.7408 -0.0530
 7275TIP3    H121789   6.394   5.738   5.314 -0.1645  0.5394 -1.2716
 7275TIP3    H221790   6.331   5.867   5.363  2.9379  2.0015 -0.8895
 7276TIP3   OH221791   4.652   1.537   2.791  0.3864  0.0315  0.4403
 7276TIP3    H121792   4.660   1.547   2.696 -0.6051 -0.7697  0.2471
 7276TIP3    H221793   4.562   1.564   2.810  0.4945 -0.0690  1.1095
 7277TIP3   OH221794   6.356   4.728   3.547  0.3080 -0.0698 -0.5600
 7277TIP3    H121795   6.416   4.768   3.610 -1.4676 -0.8817  1.7359
 7277TIP3    H221796   6.365   4.634   3.562 -0.5146 -0.2551 -1.1708
 7278TIP3   OH221797   5.620   4.122   0.571 -0.4540 -0.7353  0.3562
 7278TIP3    H121798   5.605   4.211   0.603  2.2643  0.2177 -0.7165
 7278TIP3    H221799   5.533   4.091   0.547 -1.6510  1.1372  1.9467
 7279TIP3   OH221800   2.049   2.628   4.586  0.0858 -0.0339  0.1816
 7279TIP3    H121801   2.060   2.667   4.672 -0.9576 -1.3083  0.9391
 7279TIP3    H221802   1.988   2.556   4.600  0.1183 -0.4602 -1.5772
 7280TIP3   OH221803   4.792   4.100   1.736 -0.3381  0.4338  0.3797
 7280TIP3    H121804   4.838   4.167   1.683 -1.5960  1.4528  0.5284
 7280TIP3    H221805   4.751   4.150   1.806  0.3420 -0.7730  1.6657
 7281TIP3   OH221806   6.385   3.810   3.752  0.6820  0.0075 -0.5806
 7281TIP3    H121807   6.433   3.784   3.674  2.6174 -1.6678  1.0516
 7281TIP3    H221808   6.293   3.791   3.732  1.0851 -0.0843 -2.5057
 7282TIP3   OH221809   6.130   5.958   2.118 -0.3327  0.3048  0.3084
 7282TIP3    H121810   6.073   5.951   2.041 -0.7782  0.7404  0.5917
 7282TIP3    H221811   6.163   6.048   2.115  1.0896 -0.2107 -0.3636
 7283TIP3   OH221812   4.467   0.215   0.426  0.1125 -0.1163 -0.2524
 7283TIP3    H121813   4.543   0.252   0.381  0.1368 -0.6132 -0.6236
 7283TIP3    H221814   4.435   0.287   0.482  1.3200 -0.1433  0.5021
 7284TIP3   OH221815   1.880   1.519   4.939  1.0208  0.5335 -0.0229
 7284TIP3    H121816   1.885   1.446   4.876  0.9265  0.3209  0.2162
 7284TIP3    H221817   1.797   1.561   4.919  0.4218 -0.2520  0.7421
 7285TIP3   OH221818   5.166   6.225   0.911  0.6748  0.3082  0.3033
 7285TIP3    H121819   5.182   6.271   0.829 -0.0799  0.9745  0.5215
 7285TIP3    H221820   5.227   6.150   0.909  0.7026  0.3481 -0.8211
 7286TIP3   OH221821   6.537   6.680   0.098  0.1910  0.6980 -0.0996
 7286TIP3    H121822   6.560   6.615   0.031  1.6391  0.8925  0.1647
 7286TIP3    H221823   6.495   6.630   0.167 -0.3288  0.3266 -0.6782
 7287TIP3   OH221824   5.114   0.143   5.619  0.3686  0.2042 -0.6152
 7287TIP3    H121825   5.074   0.061   5.646  2.0096 -0.2214  0.6473
 7287TIP3    H221826   5.043   0.190   5.574 -1.8780 -0.1105  2.2708
 7288TIP3   OH221827   5.437   5.207   2.342 -0.3601 -0.3226  0.2739
 7288TIP3    H121828   5.433   5.212   2.437 -0.9299 -0.4651  0.2616
 7288TIP3    H221829   5.423   5.114   2.322  1.2308 -0.5524  0.1091
 7289TIP3   OH221830   5.639   5.642   2.767 -0.2542  0.2319 -0.3855
 7289TIP3    H121831   5.712   5.696   2.738  0.2564 -0.5494 -0.5766
 7289TIP3    H221832   5.609   5.597   2.688 -0.2400 -0.2754 -0.1028
 7290TIP3   OH221833   4.614   1.330   1.790  0.3747  0.2182 -0.2085
 7290TIP3    H121834   4.672   1.327   1.866 -0.7103 -1.2322  0.6045
 7290TIP3    H221835   4.550   1.398   1.810 -0.2269 -0.5206  0.4519
 7291TIP3   OH221836   3.489   4.824   0.914 -0.2020 -0.5649 -0.3727
 7291TIP3    H121837   3.547   4.866   0.851  1.5519 -0.0014  1.4873
 7291TIP3    H221838   3.487   4.732   0.888  1.9412 -0.6846 -0.2422
 7292TIP3   OH221839   6.548   6.110   0.476 -0.3078 -0.1945  0.6817
 7292TIP3    H121840   6.496   6.190   0.467  0.8596  0.5228  0.0576
 7292TIP3    H221841   6.496   6.054   0.534 -2.1086  0.1941 -0.4623
 7293TIP3   OH221842   0.779   0.302   3.160  0.4823  0.1497  0.0272
 7293TIP3    H121843   0.780   0.258   3.245 -0.1980  1.5949  0.8220
 7293TIP3    H221844   0.693   0.344   3.156  1.5907  2.6068 -0.0197
 7294TIP3   OH221845   1.577   5.904   0.044 -0.1206  0.0855  0.3441
 7294TIP3    H121846   1.608   5.994   0.044  0.4113 -0.0883  0.8804
 7294TIP3    H221847   1.485   5.909   0.017 -0.0659  0.7722  0.2848
 7295TIP3   OH221848   0.582   6.105   5.043  0.4924  0.5875  0.0759
 7295TIP3    H121849   0.573   6.160   4.965  2.0520  1.6719  0.5910
 7295TIP3    H221850   0.634   6.159   5.103  1.0945 -1.0169  1.0593
 7296TIP3   OH221851   3.545   1.740   1.949 -0.4368 -0.3196 -0.1028
 7296TIP3    H121852   3.551   1.645   1.960 -0.4017 -0.5674 -1.9373
 7296TIP3    H221853   3.632   1.773   1.974  0.0382 -0.9493 -0.8771
 7297TIP3   OH221854   0.786   4.491   4.967 -0.0951  0.1003 -0.9552
 7297TIP3    H121855   0.757   4.537   4.888 -1.6600  0.5420 -0.1554
 7297TIP3    H221856   0.796   4.559   5.033 -1.9541 -0.5638  0.1008
 7298TIP3   OH221857   6.057   6.627   1.350 -0.0071 -0.1078 -0.2221
 7298TIP3    H121858   5.993   6.581   1.404  0.7690 -0.9045  0.0358
 7298TIP3    H221859   6.060   6.577   1.268  0.0634  0.1086 -0.3531
 7299TIP3   OH221860   1.106   5.981   0.300  0.2377  0.2157  0.0449
 7299TIP3    H121861   1.031   6.040   0.310  0.1098 -0.0563  0.7818
 7299TIP3    H221862   1.106   5.928   0.380  0.6143 -0.4849 -0.4028
 7300TIP3   OH221863   0.706   0.658   5.782  0.5219  0.0012  0.4128
 7300TIP3    H121864   0.679   0.749   5.772 -1.4085 -0.2693  2.4340
 7300TIP3    H221865   0.717   0.646   5.877  1.4623 -1.6803  0.1349
 7301TIP3   OH221866   1.757   3.812   5.866  0.1853  0.0087  0.4580
 7301TIP3    H121867   1.766   3.885   5.928 -0.0380 -0.7607  1.4113
 7301TIP3    H221868   1.743   3.855   5.782 -1.8226  1.1156  1.2641
 7302TIP3   OH221869   2.121   4.309   2.516 -0.2404  0.5335  0.0325
 7302TIP3    H121870   2.216   4.304   2.510  0.1568  0.7053  3.7058
 7302TIP3    H221871   2.103   4.401   2.537 -1.0965  0.3013  0.3688
 7303TIP3   OH221872   4.157   5.102   2.640 -0.8708 -0.3208  0.0311
 7303TIP3    H121873   4.211   5.047   2.697  0.6815  0.9677 -0.1060
 7303TIP3    H221874   4.107   5.040   2.587  0.0212 -1.5811  0.6119
 7304TIP3   OH221875   4.679   5.223   3.108  0.5807  0.6145  0.4246
 7304TIP3    H121876   4.636   5.137   3.107  1.9711 -0.1166  0.5029
 7304TIP3    H221877   4.668   5.255   3.198 -3.1358  2.2657 -0.4595
 7305TIP3   OH221878   0.261   4.495   1.491  0.1761  0.7878 -0.2910
 7305TIP3    H121879   0.264   4.515   1.585 -2.9081 -1.0126  0.3377
 7305TIP3    H221880   0.173   4.522   1.464  1.1683  1.7051 -2.8276
 7306TIP3   OH221881   0.781   5.598   4.271 -0.2227 -0.7118  0.1824
 7306TIP3    H121882   0.844   5.568   4.336 -0.0507  0.1256  0.4197
 7306TIP3    H221883   0.697   5.598   4.317 -0.0365  0.2839  0.5589
 7307TIP3   OH221884   2.946   6.567   0.378 -0.1302 -0.2521 -0.5800
 7307TIP3    H121885   3.009   6.619   0.329  2.7346 -0.0487  2.9130
 7307TIP3    H221886   2.942   6.484   0.331  2.1130  0.0436 -1.3996
 7308TIP3   OH221887   2.761   4.629   4.733 -0.2807  0.2604  0.2183
 7308TIP3    H121888   2.687   4.594   4.783 -0.5165  0.0837 -0.2427
 7308TIP3    H221889   2.790   4.555   4.679 -0.3571  0.5819 -0.2754
 7309TIP3   OH221890   2.016   2.497   0.511  0.4402  0.4802  0.2202
 7309TIP3    H121891   2.016   2.506   0.606 -0.7905  0.9136  0.1959
 7309TIP3    H221892   2.050   2.409   0.495  0.8338  0.4724  1.0480
 7310TIP3   OH221893   7.095   4.495   0.831 -0.0797  0.0878 -0.0909
 7310TIP3    H121894   7.004   4.523   0.821 -0.6603 -1.8155 -0.4669
 7310TIP3    H221895   7.109   4.490   0.925  0.4313  2.6442  0.0587
 7311TIP3   OH221896   5.565   2.575   1.583  0.1063 -0.0250 -0.1258
 7311TIP3    H121897   5.651   2.551   1.549 -0.3829 -0.8044 -0.8301
 7311TIP3    H221898   5.512   2.591   1.505 -0.4425  0.2761  0.3050
 7312TIP3   OH221899   6.676   2.519   1.327  0.0806  0.2663 -0.0141
 7312TIP3    H121900   6.596   2.555   1.288  0.2525  0.8086  0.1219
 7312TIP3    H221901   6.650   2.496   1.417 -0.0306  0.0492 -0.1015
 7313TIP3   OH221902   0.127   3.179   1.634  0.1263  0.2313  0.1780
 7313TIP3    H121903   0.100   3.144   1.719 -0.5301  0.3799  0.0403
 7313TIP3    H221904   0.057   3.154   1.574  1.5927 -1.7411 -0.8185
 7314TIP3   OH221905   1.768   2.114   1.190 -0.1191  0.6477 -0.3008
 7314TIP3    H121906   1.777   2.194   1.242 -2.6153  0.5724  0.4010
 7314TIP3    H221907   1.856   2.095   1.159  1.0448  2.0498  1.9136
 7315TIP3   OH221908   4.940   3.247   3.718  0.0914  0.1415  0.3326
 7315TIP3    H121909   4.982   3.172   3.674  0.4017  0.0780  0.7265
 7315TIP3    H221910   4.875   3.278   3.655  0.3986 -0.0634 -0.0960
 7316TIP3   OH221911   5.978   2.556   3.375 -0.1999  0.6068  0.0253
 7316TIP3    H121912   6.016   2.636   3.340 -1.6421  0.5399 -1.8362
 7316TIP3    H221913   5.895   2.583   3.415 -0.3785  0.1391 -0.0155
 7317TIP3   OH221914   4.526   4.211   2.256  0.2595 -0.6342  0.3047
 7317TIP3    H121915   4.499   4.168   2.176  2.3389 -2.3739  0.4413
 7317TIP3    H221916   4.445   4.244   2.295 -0.9295 -0.9022 -1.8204
 7318TIP3   OH221917   1.976   3.296   0.246 -0.2559  0.1114  0.0415
 7318TIP3    H121918   1.895   3.324   0.289  0.4851  0.4991  1.2316
 7318TIP3    H221919   2.042   3.359   0.275  0.7037 -0.8136 -0.0567
 7319TIP3   OH221920   1.558   2.050   0.240  0.2781 -0.0506  0.1207
 7319TIP3    H121921   1.547   2.123   0.302  0.3889 -1.3401  1.7047
 7319TIP3    H221922   1.625   2.081   0.179  0.2754  1.2054  0.7236
 7320TIP3   OH221923   2.675   5.579   2.570 -0.5847 -0.3727 -0.0612
 7320TIP3    H121924   2.758   5.614   2.537 -1.2176  1.4414  0.1997
 7320TIP3    H221925   2.657   5.504   2.512  0.2647  0.3776 -1.3587
 7321TIP3   OH221926   1.414   0.101   4.396  0.0055  0.3653  0.2192
 7321TIP3    H121927   1.413   0.014   4.437  0.9780 -0.7680 -1.9258
 7321TIP3    H221928   1.370   0.087   4.312 -1.7404  2.5133  0.6805
 7322TIP3   OH221929   4.914   2.727   4.562  0.2163 -0.1231  0.3421
 7322TIP3    H121930   5.009   2.736   4.569  0.1390  0.6609  0.5034
 7322TIP3    H221931   4.883   2.816   4.546 -0.2217 -0.7780 -3.1872
 7323TIP3   OH221932   2.368   4.397   1.573 -0.2230 -0.3255  0.3648
 7323TIP3    H121933   2.345   4.308   1.545 -0.3164 -0.5530  1.1376
 7323TIP3    H221934   2.445   4.419   1.521  0.1361 -1.0727  0.5558
 7324TIP3   OH221935   4.165   0.212   5.197  0.4251 -0.5383 -0.2867
 7324TIP3    H121936   4.171   0.195   5.103  0.2876  0.8269 -0.5545
 7324TIP3    H221937   4.142   0.304   5.204  0.8560 -0.5095  1.1031
 7325TIP3   OH221938   0.086   5.427   4.554 -0.2228  0.3059 -0.2273
 7325TIP3    H121939   0.095   5.339   4.592 -0.0172 -0.7923 -2.6084
 7325TIP3    H221940   0.014   5.417   4.491  0.0359  1.7560 -0.7743
 7326TIP3   OH221941   2.428   4.935   2.323  0.0002  0.0368  0.3464
 7326TIP3    H121942   2.516   4.939   2.285  1.5679 -1.3619  3.4907
 7326TIP3    H221943   2.382   4.871   2.268  1.6315 -0.7454 -0.1817
 7327TIP3   OH221944   5.326   1.022   3.676  0.3181  0.5032 -0.1858
 7327TIP3    H121945   5.391   0.982   3.619 -0.2703  1.1081 -1.3043
 7327TIP3    H221946   5.282   0.947   3.718  1.1674  0.0760 -0.0478
 7328TIP3   OH221947   5.830   2.419   0.166 -0.3936  0.3506  0.2207
 7328TIP3    H121948   5.892   2.345   0.164  1.0172  1.4716  0.8379
 7328TIP3    H221949   5.844   2.464   0.083 -1.8468 -0.4825 -0.5279
 7329TIP3   OH221950   5.179   1.263   2.388  0.4814  0.4607 -0.3590
 7329TIP3    H121951   5.146   1.261   2.477  0.3884 -0.2215 -0.3989
 7329TIP3    H221952   5.264   1.306   2.394  0.6036  0.1534  0.1078
 7330TIP3   OH221953   3.852   2.987   1.523  0.5740  0.0328  0.3839
 7330TIP3    H121954   3.885   2.950   1.605 -1.7436 -0.2976  1.2415
 7330TIP3    H221955   3.829   3.077   1.545  0.1866  0.0255  0.0052
 7331TIP3   OH221956   4.806   5.238   0.357 -0.0175  0.0133  0.4521
 7331TIP3    H121957   4.734   5.222   0.296  1.0048 -1.1590 -0.5024
 7331TIP3    H221958   4.825   5.332   0.346 -1.2419  0.2930  0.5729
 7332TIP3   OH221959   2.992   4.473   5.061  0.4932 -0.2575 -1.2203
 7332TIP3    H121960   3.054   4.424   5.116 -0.7939 -2.3108 -1.5049
 7332TIP3    H221961   3.006   4.440   4.973 -1.5616 -1.4310 -1.1641
 7333TIP3   OH221962   1.257   2.660   3.242 -0.3206 -0.2210  0.9727
 7333TIP3    H121963   1.284   2.570   3.259 -0.9569 -0.5267  0.4331
 7333TIP3    H221964   1.164   2.662   3.265 -1.6524 -1.0380 -3.4125
 7334TIP3   OH221965   3.632   5.213   4.140  0.4640  0.3814  0.2544
 7334TIP3    H121966   3.674   5.283   4.191  0.5307  0.5699 -0.0525
 7334TIP3    H221967   3.594   5.259   4.065 -0.1787  0.1934  0.4561
 7335TIP3   OH221968   0.339   6.219   0.900 -0.5763  0.0469  0.4580
 7335TIP3    H121969   0.292   6.136   0.893 -1.2859  0.4367  0.5294
 7335TIP3    H221970   0.341   6.237   0.994  0.8755 -0.6092  0.5798
 7336TIP3   OH221971   0.084   4.822   0.419 -0.2899 -0.0360  0.6020
 7336TIP3    H121972   0.136   4.839   0.340  0.0244 -2.3019  0.2611
 7336TIP3    H221973  -0.005   4.808   0.386  0.0604 -2.2040  0.4379
 7337TIP3   OH221974   4.029   0.665   1.975  0.3660  0.6603  0.0001
 7337TIP3    H121975   4.004   0.586   2.021  1.7614 -1.0847 -2.0392
 7337TIP3    H221976   3.948   0.716   1.968 -0.8748 -1.2100  0.2180
 7338TIP3   OH221977   3.350   2.928   3.639  0.2655 -0.2521 -0.5135
 7338TIP3    H121978   3.310   2.890   3.718 -0.8639 -2.6520 -2.1076
 7338TIP3    H221979   3.337   3.022   3.649  0.9453 -0.3669  2.5344
 7339TIP3   OH221980   4.379   4.707   5.392 -0.2014 -0.0534 -0.2423
 7339TIP3    H121981   4.458   4.709   5.446  0.5963  3.6695 -1.2216
 7339TIP3    H221982   4.323   4.641   5.432  2.4113 -1.0902  1.9629
 7340TIP3   OH221983   1.472   5.430   3.660  0.0240  0.2559  0.4788
 7340TIP3    H121984   1.404   5.382   3.614 -1.1924  1.1370  1.2818
 7340TIP3    H221985   1.431   5.456   3.743  1.7267 -0.2101  1.5213
 7341TIP3   OH221986   6.223   3.357   4.339  0.3522  0.0575  0.1625
 7341TIP3    H121987   6.143   3.365   4.288  0.2047 -0.0884  0.3709
 7341TIP3    H221988   6.260   3.445   4.340  1.4879 -0.3133 -2.0368
 7342TIP3   OH221989   2.269   0.929   5.464  0.0208 -0.4615 -0.9278
 7342TIP3    H121990   2.362   0.943   5.451 -0.1373 -0.3121 -2.0340
 7342TIP3    H221991   2.226   0.989   5.403 -0.8052 -0.4746 -0.3889
 7343TIP3   OH221992   3.352   3.685   2.429 -0.0475  0.8138 -0.3967
 7343TIP3    H121993   3.303   3.622   2.376  0.1942  0.3232 -0.0484
 7343TIP3    H221994   3.286   3.724   2.487  0.0327 -0.1633  0.3775
 7344TIP3   OH221995   4.588   4.430   2.555 -0.4573 -0.3260 -0.3847
 7344TIP3    H121996   4.587   4.357   2.617  2.1029 -1.5664 -1.6356
 7344TIP3    H221997   4.634   4.396   2.478 -0.2885  2.2360 -1.5299
 7345TIP3   OH221998   6.858   3.547   0.963  0.1476  0.2142 -0.2877
 7345TIP3    H121999   6.923   3.489   0.923  0.9651  0.9392 -0.0680
 7345TIP3    H222000   6.866   3.531   1.057 -1.6586 -1.3747 -0.3606
 7346TIP3   OH222001   1.502   4.157   3.181  0.1446  0.1557  0.1027
 7346TIP3    H122002   1.473   4.067   3.167 -0.6611  0.6682 -1.8540
 7346TIP3    H222003   1.459   4.184   3.263 -0.1190 -1.0158  0.3633
 7347TIP3   OH222004   5.299   2.267   3.863  0.1736 -0.0263  0.1426
 7347TIP3    H122005   5.267   2.353   3.834  0.2755 -0.5230 -1.5670
 7347TIP3    H222006   5.360   2.287   3.934  0.5468  1.3666 -0.5225
 7348TIP3   OH222007   6.067   4.647   5.067 -0.1116 -0.0395  0.1665
 7348TIP3    H122008   6.046   4.560   5.034 -0.0148 -0.2082  0.5430
 7348TIP3    H222009   5.988   4.675   5.113  0.1374 -0.2596  0.7279
 7349TIP3   OH222010   0.026   0.254   2.012 -0.0192 -0.1194 -0.2473
 7349TIP3    H122011   0.090   0.324   2.000  1.9127 -1.3041  2.2267
 7349TIP3    H222012   0.000   0.260   2.104 -0.4943 -2.0903 -0.2063
 7350TIP3   OH222013   1.502   2.125   5.844 -0.4828  0.2220 -0.6908
 7350TIP3    H122014   1.462   2.175   5.773 -0.0846 -0.5387 -1.4779
 7350TIP3    H222015   1.540   2.048   5.800  1.9468  0.9595  0.0028
 7351TIP3   OH222016   1.968   1.802   4.418 -0.4736 -0.3164  0.5403
 7351TIP3    H122017   2.050   1.758   4.395 -0.5522 -0.8613  1.2344
 7351TIP3    H222018   1.931   1.830   4.334 -0.4528 -1.6608  0.0452
 7352TIP3   OH222019   1.410   3.421   2.586  0.0979 -0.0369 -0.4739
 7352TIP3    H122020   1.341   3.424   2.520 -0.7450  3.0267  0.3647
 7352TIP3    H222021   1.418   3.512   2.617  2.6237 -0.7666  1.4192
 7353TIP3   OH222022   2.199   4.306   1.935  0.0443  0.2132 -0.0322
 7353TIP3    H122023   2.210   4.400   1.921 -1.1086  0.2681 -0.7712
 7353TIP3    H222024   2.107   4.289   1.911  0.2244 -1.0872  0.1183
 7354TIP3   OH222025   0.354   4.818   1.480 -0.0752  0.3342 -0.1835
 7354TIP3    H122026   0.298   4.786   1.410 -0.1735  1.1321 -0.4819
 7354TIP3    H222027   0.420   4.749   1.492  0.4528  0.5441 -1.6447
 7355TIP3   OH222028   6.849   6.000   2.443 -0.1656 -0.1311  0.4492
 7355TIP3    H122029   6.779   5.939   2.464  0.0326 -0.5517 -0.0823
 7355TIP3    H222030   6.869   6.044   2.525 -0.6367 -0.4411  0.7309
 7356TIP3   OH222031   4.668   3.161   5.611 -0.0006 -0.3034 -0.0450
 7356TIP3    H122032   4.600   3.223   5.638  0.1298 -1.2224  2.7047
 7356TIP3    H222033   4.619   3.085   5.579 -0.3025 -0.5556  0.9617
 7357TIP3   OH222034   0.506   0.503   2.696 -0.0380  0.1203 -0.3439
 7357TIP3    H122035   0.467   0.557   2.764  0.4769 -2.7021  2.4354
 7357TIP3    H222036   0.583   0.552   2.668 -0.4802  1.5690  0.8384
 7358TIP3   OH222037   2.852   0.639   2.067  0.4628  0.1962  0.6061
 7358TIP3    H122038   2.908   0.565   2.090  0.0810  0.2751  1.8658
 7358TIP3    H222039   2.786   0.641   2.136  0.3465  1.5916  0.4799
 7359TIP3   OH222040   2.634   2.333   4.514 -0.1887 -0.1235 -0.6749
 7359TIP3    H122041   2.610   2.260   4.571 -0.5717  0.0943 -0.5471
 7359TIP3    H222042   2.557   2.391   4.517  0.6686  1.0113  0.3945
 7360TIP3   OH222043   7.168   4.895   0.677 -0.2724 -0.0909  0.3514
 7360TIP3    H122044   7.120   4.968   0.638 -0.3908  0.4001  1.3921
 7360TIP3    H222045   7.232   4.869   0.610 -0.5558  0.6395 -0.2106
 7361TIP3   OH222046   6.966   1.763   4.951 -0.6354  0.4411 -0.3862
 7361TIP3    H122047   6.888   1.707   4.947 -1.0336  0.6203  2.6511
 7361TIP3    H222048   7.008   1.740   5.033  0.3363  3.1261 -0.0298
 7362TIP3   OH222049   3.046   0.013   1.283 -0.3317  0.0001  0.2268
 7362TIP3    H122050   3.099  -0.052   1.329 -0.8109 -0.9277 -0.5024
 7362TIP3    H222051   3.107   0.086   1.266  0.2876 -0.3776  0.7811
 7363TIP3   OH222052   6.708   4.065   0.958  0.1680 -0.3836  0.4182
 7363TIP3    H122053   6.787   4.102   0.999 -0.6387  0.0786  1.6145
 7363TIP3    H222054   6.694   4.119   0.880  0.1435  0.5786  1.0732
 7364TIP3   OH222055   6.838   0.974   1.777 -0.3177  0.3673  0.1278
 7364TIP3    H122056   6.880   0.890   1.762 -0.4966  0.6012 -1.9633
 7364TIP3    H222057   6.830   1.014   1.690 -3.3456  1.0411  0.5694
 7365TIP3   OH222058   3.280   3.858   0.567 -0.2724 -0.2377 -0.8216
 7365TIP3    H122059   3.340   3.860   0.493 -0.4020 -1.8398 -1.0226
 7365TIP3    H222060   3.206   3.805   0.537 -0.3601 -0.8657  0.4049
 7366TIP3   OH222061   1.077   4.476   3.001 -0.1246 -0.5850  0.2284
 7366TIP3    H122062   1.145   4.410   3.011 -0.0443 -0.4920  0.2969
 7366TIP3    H222063   1.124   4.560   3.002 -0.5004 -0.3214  3.2529
 7367TIP3   OH222064   3.805   5.189   2.291 -0.1665 -0.0654 -0.0977
 7367TIP3    H122065   3.716   5.225   2.285 -0.0398  0.1374 -0.9524
 7367TIP3    H222066   3.820   5.150   2.204  0.6351  0.0330 -0.0047
 7368TIP3   OH222067   0.610   1.851   3.382  0.4543 -0.0393 -0.4533
 7368TIP3    H122068   0.667   1.880   3.311 -3.4623  0.9576 -3.5793
 7368TIP3    H222069   0.586   1.761   3.358  1.5497 -0.8873  1.4647
 7369TIP3   OH222070   4.070   2.888   4.780 -0.1382 -0.1189  0.1543
 7369TIP3    H122071   4.116   2.868   4.862 -0.3699 -1.3787 -0.0042
 7369TIP3    H222072   3.997   2.826   4.778 -0.5071  0.3268 -0.7082
 7370TIP3   OH222073   5.673   5.420   3.298  0.2555  0.4773  0.0625
 7370TIP3    H122074   5.752   5.397   3.346  0.0382  0.2133  0.2938
 7370TIP3    H222075   5.704   5.441   3.210  0.6273  0.7441  0.2543
 7371TIP3   OH222076   0.986   6.746   1.241  0.4494 -0.0101  0.0277
 7371TIP3    H122077   0.934   6.692   1.300 -0.9680 -0.5665 -1.6400
 7371TIP3    H222078   0.940   6.831   1.241  0.4578 -0.0058 -0.2458
 7372TIP3   OH222079   2.896   6.559   3.500 -0.4202 -0.2472 -0.0147
 7372TIP3    H122080   2.914   6.477   3.454 -0.8412  0.2145 -1.0382
 7372TIP3    H222081   2.961   6.621   3.466  0.0631 -0.2108  0.9402
 7373TIP3   OH222082   4.182   2.636   1.850 -0.3944 -0.0379  0.1954
 7373TIP3    H122083   4.212   2.719   1.887  0.7791  0.3142 -1.4348
 7373TIP3    H222084   4.144   2.660   1.766 -2.5996 -0.8689  0.8760
 7374TIP3   OH222085   0.500   1.988   5.702  0.0067 -0.0104 -0.0119
 7374TIP3    H122086   0.421   1.975   5.755 -1.0314  0.1517 -1.4465
 7374TIP3    H222087   0.469   1.984   5.612  1.7167 -0.3094 -0.6306
 7375TIP3   OH222088   5.564   0.870   2.585  0.3675 -0.0091 -0.6200
 7375TIP3    H122089   5.600   0.787   2.617  0.0899  0.2783  0.4790
 7375TIP3    H222090   5.593   0.875   2.494  3.0525  0.1740  0.1737
 7376TIP3   OH222091   2.454   2.047   1.949 -0.3475 -0.1860 -0.1869
 7376TIP3    H122092   2.520   1.993   1.992  0.7429  0.5497 -0.9052
 7376TIP3    H222093   2.384   1.985   1.926 -0.8238 -0.6588  2.2853
 7377TIP3   OH222094   4.460   1.424   3.005 -0.1134  0.1269  0.3742
 7377TIP3    H122095   4.455   1.465   3.092  1.2772  1.1055  0.0192
 7377TIP3    H222096   4.418   1.488   2.947  0.5560  0.2906  0.0684
 7378TIP3   OH222097   3.666   4.305   3.669  0.5100  0.0605  0.0825
 7378TIP3    H122098   3.611   4.291   3.592  1.5461 -0.6473 -0.5669
 7378TIP3    H222099   3.701   4.394   3.657 -1.9791  1.3457  1.5253
 7379TIP3   OH222100   6.901   2.810   4.166 -0.1614 -0.2058  0.7558
 7379TIP3    H122101   6.859   2.751   4.104 -1.2889 -0.6284  1.8616
 7379TIP3    H222102   6.873   2.778   4.252 -0.4931  1.6921  1.4056
 7380TIP3   OH222103   0.391   3.108   5.829 -0.0424 -0.0324 -0.0118
 7380TIP3    H122104   0.384   3.013   5.845 -1.0853 -0.4327 -2.3706
 7380TIP3    H222105   0.483   3.128   5.845  0.4167 -1.6626 -0.3519
 7381TIP3   OH222106   0.736   5.540   1.820  0.1886  0.2071 -0.6427
 7381TIP3    H122107   0.808   5.569   1.765  1.3147 -0.2375  0.5396
 7381TIP3    H222108   0.747   5.445   1.826 -0.6181  0.1035 -0.5957
 7382TIP3   OH222109   1.925   5.707   1.044  0.4166  0.3479 -0.0292
 7382TIP3    H122110   1.863   5.682   0.975  0.9954 -0.2217 -0.3610
 7382TIP3    H222111   1.986   5.633   1.049  1.3276  1.0763 -0.0214
 7383TIP3   OH222112   2.119   6.821   1.458 -0.3677 -0.5859  0.3243
 7383TIP3    H122113   2.190   6.848   1.516  0.9547 -1.0266 -1.0151
 7383TIP3    H222114   2.096   6.733   1.486 -0.9449 -0.1448  1.2648
 7384TIP3   OH222115   6.299   3.846   1.621  0.2445 -0.1412  0.7001
 7384TIP3    H122116   6.335   3.874   1.537 -0.6909  0.8293  0.6056
 7384TIP3    H222117   6.216   3.893   1.629 -1.6759 -3.1562  0.3414
 7385TIP3   OH222118   4.953   0.594   3.841 -0.3062 -0.3758 -1.0481
 7385TIP3    H122119   4.943   0.684   3.874 -2.9016 -1.0668  0.3521
 7385TIP3    H222120   4.908   0.594   3.757  0.5701 -0.1550 -1.5261
 7386TIP3   OH222121   4.410   6.627   0.795  0.0813  0.5223 -0.1923
 7386TIP3    H122122   4.399   6.532   0.803  1.9320  0.3334  0.7316
 7386TIP3    H222123   4.435   6.640   0.703  0.9333 -0.0310 -0.0498
 7387TIP3   OH222124   4.579   2.679   1.036 -0.1186  0.3816  0.2548
 7387TIP3    H122125   4.661   2.728   1.045 -0.1103  0.5698 -0.7419
 7387TIP3    H222126   4.512   2.746   1.027 -0.0408  0.2460 -1.6935
 7388TIP3   OH222127   4.710   2.185   4.849 -0.3129  0.1487 -0.0569
 7388TIP3    H122128   4.689   2.106   4.899 -1.0934 -0.5705 -1.4583
 7388TIP3    H222129   4.765   2.153   4.777  0.0776  1.0364 -0.1632
 7389TIP3   OH222130   2.775   2.198   4.318 -0.4537 -0.0895  0.6299
 7389TIP3    H122131   2.752   2.254   4.392 -0.7457  0.3025  0.2522
 7389TIP3    H222132   2.693   2.153   4.296 -0.0088 -1.3796  1.5141
 7390TIP3   OH222133   0.609   3.941   1.400 -0.2673 -0.2436  0.4236
 7390TIP3    H122134   0.543   3.872   1.401 -0.0557 -0.4553  0.0750
 7390TIP3    H222135   0.584   3.997   1.326 -0.8262  0.4392  1.1212
 7391TIP3   OH222136   3.008   2.942   1.712  0.1863 -0.2271 -0.3050
 7391TIP3    H122137   3.071   3.012   1.692  0.4184  0.1121  1.4943
 7391TIP3    H222138   2.936   2.987   1.756 -0.5946 -0.8579 -0.9158
 7392TIP3   OH222139   5.726   1.405   3.641  0.6390 -0.3179  0.6322
 7392TIP3    H122140   5.801   1.464   3.631  0.9264 -0.8478 -0.6125
 7392TIP3    H222141   5.659   1.459   3.682  1.1042  0.6968  0.1081
 7393TIP3   OH222142   3.022   1.553   0.942 -0.3426 -0.6141 -0.2348
 7393TIP3    H122143   3.112   1.558   0.974 -0.9275 -0.7166  1.5071
 7393TIP3    H222144   3.006   1.459   0.931 -0.0624 -0.5666 -1.1012
 7394TIP3   OH222145   2.933   2.331   0.720 -0.2241  0.2386 -0.0696
 7394TIP3    H122146   2.895   2.417   0.734 -1.1882  0.0391 -1.3074
 7394TIP3    H222147   3.005   2.346   0.659 -0.5498  0.1270 -0.4783
 7395TIP3   OH222148   3.890   1.039   1.436  0.0040 -0.0420 -0.3310
 7395TIP3    H122149   3.806   0.993   1.434  0.6063 -1.3392  1.5452
 7395TIP3    H222150   3.868   1.128   1.464 -0.9835  0.4253 -2.3721
 7396TIP3   OH222151   7.074   5.660   0.294 -0.8330  0.4405 -0.0721
 7396TIP3    H122152   7.159   5.699   0.274 -0.6875  0.2860  0.2365
 7396TIP3    H222153   7.089   5.610   0.375 -1.1729  0.2699 -0.1133
 7397TIP3   OH222154   0.359   2.800   3.074 -0.2671 -0.2574  0.1203
 7397TIP3    H122155   0.431   2.862   3.083 -2.0123  1.9560 -0.5261
 7397TIP3    H222156   0.322   2.818   2.988 -1.2110 -1.8154  0.1606
 7398TIP3   OH222157   5.908   5.547   2.461 -0.2685  0.6132 -0.0151
 7398TIP3    H122158   5.831   5.603   2.448 -0.5591  0.2877  0.2581
 7398TIP3    H222159   5.916   5.498   2.379 -0.5964  0.3645  0.0957
 7399TIP3   OH222160   3.090   5.448   4.664 -0.6646  0.4126 -0.6546
 7399TIP3    H122161   3.153   5.381   4.689 -0.4707 -0.3760 -3.0641
 7399TIP3    H222162   3.008   5.422   4.707 -0.4190 -0.9919 -1.0152
 7400TIP3   OH222163   2.170   3.868   2.619  0.4156 -0.7629  0.2124
 7400TIP3    H122164   2.154   3.939   2.557  0.4135 -1.8519 -1.0717
 7400TIP3    H222165   2.138   3.790   2.574 -0.2988 -1.4843  1.9096
 7401TIP3   OH222166   2.274   1.325   3.194  0.0515 -0.0791  0.9176
 7401TIP3    H122167   2.351   1.373   3.224  0.5743 -2.1866  3.3680
 7401TIP3    H222168   2.309   1.249   3.148 -0.6514  0.1806 -0.0700
 7402TIP3   OH222169   4.577   4.485   4.423 -0.3223 -0.0184  0.7338
 7402TIP3    H122170   4.490   4.499   4.385 -0.7780 -2.0419  0.8996
 7402TIP3    H222171   4.623   4.567   4.409 -0.9769 -0.1154 -2.7928
 7403TIP3   OH222172   6.261   1.871   0.918  0.9231  0.4372 -0.3241
 7403TIP3    H122173   6.183   1.907   0.961  0.4029  0.6907 -1.4393
 7403TIP3    H222174   6.229   1.838   0.834  1.7435 -0.8890 -0.1447
 7404TIP3   OH222175   2.370   1.483   4.607 -0.6394 -0.0829 -0.0814
 7404TIP3    H122176   2.319   1.537   4.667 -0.2183  0.5548 -0.2804
 7404TIP3    H222177   2.385   1.540   4.531 -0.9651 -0.7953 -0.6871
 7405TIP3   OH222178   3.823   2.485   2.559  0.6189  0.8931 -0.2683
 7405TIP3    H122179   3.860   2.569   2.533  1.2847  0.6148 -0.2503
 7405TIP3    H222180   3.862   2.422   2.499 -1.3053  0.8048 -1.5091
 7406TIP3   OH222181   0.789   0.727   3.656  0.5329 -0.6497 -0.3137
 7406TIP3    H122182   0.729   0.791   3.694 -2.9748 -4.1692  0.8004
 7406TIP3    H222183   0.743   0.694   3.579  2.2141 -1.7410 -0.9089
 7407TIP3   OH222184   0.560   1.030   3.279 -0.5487 -0.1077  0.7624
 7407TIP3    H122185   0.469   1.028   3.309 -0.1207  1.9446  2.3824
 7407TIP3    H222186   0.561   1.095   3.209 -0.6709 -1.6686 -0.7694
 7408TIP3   OH222187   4.810   3.678   4.495  0.3658 -0.3837  0.4102
 7408TIP3    H122188   4.880   3.615   4.479 -0.2163 -1.0193  0.3163
 7408TIP3    H222189   4.731   3.624   4.507  0.1305  0.2348  1.8591
 7409TIP3   OH222190   2.798   2.558   2.362 -0.5657 -0.5642 -0.1442
 7409TIP3    H122191   2.832   2.481   2.408 -0.3883  1.2044  3.0493
 7409TIP3    H222192   2.703   2.546   2.361 -0.4895 -1.1609 -0.3710
 7410TIP3   OH222193   4.603   4.605   3.621 -0.2288  0.0149 -0.7523
 7410TIP3    H122194   4.584   4.677   3.681  3.7702 -1.0622  2.3255
 7410TIP3    H222195   4.607   4.528   3.678  1.7898 -1.4581 -2.7207
 7411TIP3   OH222196   5.157   1.304   0.324 -0.7449  0.5342 -0.0755
 7411TIP3    H122197   5.077   1.305   0.272  0.4574  0.1279 -2.0053
 7411TIP3    H222198   5.150   1.382   0.380 -3.1209 -0.2680  0.9032
 7412TIP3   OH222199   5.549   1.817   2.320 -0.2295 -0.1115  0.0225
 7412TIP3    H122200   5.476   1.855   2.270  1.5434 -0.5495 -3.1430
 7412TIP3    H222201   5.536   1.723   2.313 -0.6068 -0.1839  1.5032
 7413TIP3   OH222202   2.900   1.311   4.877  0.0577  0.7052  0.5073
 7413TIP3    H122203   2.972   1.371   4.896 -0.8670  1.4628  1.8180
 7413TIP3    H222204   2.917   1.234   4.930  1.5533 -0.5148 -1.6139
 7414TIP3   OH222205   5.005   4.258   4.076 -0.0487  0.0827 -0.0892
 7414TIP3    H122206   4.986   4.217   3.991 -0.3747  0.1147 -0.0354
 7414TIP3    H222207   4.935   4.323   4.086 -1.1313 -1.1861  1.0586
 7415TIP3   OH222208   5.159   5.847   5.477 -0.0632 -0.0601 -0.3412
 7415TIP3    H122209   5.245   5.804   5.478  0.5431  1.0127 -2.0362
 7415TIP3    H222210   5.177   5.937   5.449 -1.4162  1.0687  2.0496
 7416TIP3   OH222211   3.429   1.123   3.059  0.1765 -0.2937 -0.6258
 7416TIP3    H122212   3.377   1.192   3.101  1.7245  1.4068 -1.3397
 7416TIP3    H222213   3.369   1.049   3.052 -1.1585  0.4944  1.4141
 7417TIP3   OH222214   4.890   4.840   3.094  0.3516  0.2067  0.0516
 7417TIP3    H122215   4.878   4.776   3.164 -0.5712 -1.7379 -1.7710
 7417TIP3    H222216   4.978   4.875   3.108  0.5067 -0.7132  1.6584
 7418TIP3   OH222217   2.897   0.418   1.305  0.6134  0.1893  0.2328
 7418TIP3    H122218   2.888   0.332   1.263  2.5151 -0.5052  1.1391
 7418TIP3    H222219   2.871   0.404   1.396 -1.1869  1.1229 -0.1093
 7419TIP3   OH222220   4.781   4.030   0.714 -0.2278  0.0549  0.6582
 7419TIP3    H122221   4.769   4.125   0.711 -0.2163  0.0443  0.3136
 7419TIP3    H222222   4.697   3.996   0.747  0.2606  0.2935  2.2189
 7420TIP3   OH222223   4.179   5.328   5.182  0.5267 -0.1574 -0.0095
 7420TIP3    H122224   4.106   5.365   5.133  1.7180  0.0340 -1.6990
 7420TIP3    H222225   4.143   5.246   5.218 -0.2603 -0.5915 -1.6481
 7421TIP3   OH222226   6.613   0.244   0.880 -0.3549  0.1422  0.3162
 7421TIP3    H122227   6.707   0.239   0.863 -0.0809  0.0232  1.7316
 7421TIP3    H222228   6.587   0.330   0.847  0.4955  0.6683  1.0046
 7422TIP3   OH222229   0.334   0.036   4.142 -0.5058 -0.6134 -0.4809
 7422TIP3    H122230   0.292  -0.036   4.189 -0.0327 -0.8542 -0.4211
 7422TIP3    H222231   0.404   0.065   4.201 -0.8168  0.0294 -0.4171
 7423TIP3   OH222232   3.378   6.701   5.578 -0.1645 -0.2028  0.1592
 7423TIP3    H122233   3.357   6.607   5.573 -0.5498 -0.0551 -1.7785
 7423TIP3    H222234   3.323   6.734   5.648  0.2316 -1.4775  1.1183
 7424TIP3   OH222235   0.851   6.088   2.114  0.2592  0.4582 -0.3256
 7424TIP3    H122236   0.859   6.150   2.187  1.0134 -1.6482  1.4790
 7424TIP3    H222237   0.763   6.051   2.122  0.4667 -0.0310 -0.2766
 7425TIP3   OH222238   6.495   6.216   0.791 -0.6153 -0.0990 -0.5581
 7425TIP3    H122239   6.544   6.186   0.868 -0.1410 -0.4308 -0.9826
 7425TIP3    H222240   6.494   6.311   0.800  1.9170  0.1066 -1.5740
 7426TIP3   OH222241   2.462   3.200   2.972 -0.2788  0.3872 -0.0819
 7426TIP3    H122242   2.413   3.260   3.029 -1.7370  0.3925 -1.2761
 7426TIP3    H222243   2.400   3.131   2.951  1.3177 -1.5239  1.1153
 7427TIP3   OH222244   2.697   6.289   0.152  0.3063 -0.2627  0.1412
 7427TIP3    H122245   2.666   6.220   0.210  1.8763 -1.2715 -0.1521
 7427TIP3    H222246   2.790   6.298   0.173  0.8218 -0.3505 -1.8678
 7428TIP3   OH222247   1.291   4.121   4.968  0.1398 -0.1321  0.4987
 7428TIP3    H122248   1.302   4.211   4.937 -0.7026  0.2594  1.2892
 7428TIP3    H222249   1.238   4.129   5.047  0.0434 -1.3296  0.5750
 7429TIP3   OH222250   5.345   0.131   0.390  0.3400 -0.3813  0.8382
 7429TIP3    H122251   5.270   0.190   0.402 -0.6660 -1.8469  2.1631
 7429TIP3    H222252   5.415   0.170   0.442 -0.1550 -0.0763  1.2872
 7430TIP3   OH222253   0.601   3.866   4.796 -0.0616  0.6627 -0.5146
 7430TIP3    H122254   0.693   3.866   4.769 -0.1736 -1.2468 -1.0709
 7430TIP3    H222255   0.554   3.902   4.720  0.0001 -0.9619 -1.3623
 7431TIP3   OH222256   3.836   4.286   4.104  0.6857 -0.1785 -0.2988
 7431TIP3    H122257   3.891   4.351   4.060  0.4540  0.5769  0.5025
 7431TIP3    H222258   3.752   4.330   4.118  0.0272 -1.1427 -1.0411
 7432TIP3   OH222259   6.853   4.792   0.663  1.0348  0.3523  0.2413
 7432TIP3    H122260   6.889   4.878   0.685  1.3292  0.6746 -1.3682
 7432TIP3    H222261   6.917   4.755   0.602 -0.5540  0.2878 -1.4566
 7433TIP3   OH222262   6.047   0.587   5.823  0.9445 -0.0104  0.4431
 7433TIP3    H122263   6.032   0.670   5.777 -1.5376 -0.2491  0.6990
 7433TIP3    H222264   6.140   0.569   5.810  0.9478  1.3789 -2.0071
 7434TIP3   OH222265   0.695   4.090   2.838  0.1727 -0.6320 -0.2653
 7434TIP3    H122266   0.757   4.158   2.813 -0.0713 -0.1109  0.5078
 7434TIP3    H222267   0.634   4.133   2.897 -1.2205 -1.0288 -1.3726
 7435TIP3   OH222268   4.740   5.718   5.648  0.2577  0.2093 -0.1399
 7435TIP3    H122269   4.835   5.725   5.644  0.1875  1.3981 -0.3322
 7435TIP3    H222270   4.722   5.681   5.734  0.8937  0.0686 -0.0645
 7436TIP3   OH222271   5.145   3.788   3.464 -0.1435 -0.3113  0.1599
 7436TIP3    H122272   5.081   3.750   3.403  0.5636  0.3900 -1.0717
 7436TIP3    H222273   5.181   3.713   3.511 -1.2295 -0.7980  0.2500
 7437TIP3   OH222274   2.979   6.001   4.876 -0.0857  0.2001 -0.6981
 7437TIP3    H122275   3.044   6.001   4.945 -0.2785 -0.5535 -0.5145
 7437TIP3    H222276   2.978   5.911   4.843 -0.0777  0.5155 -1.6024
 7438TIP3   OH222277   5.433   1.680   2.599  0.0394  0.4352  0.2088
 7438TIP3    H122278   5.444   1.661   2.692  1.2139 -0.8804 -0.1550
 7438TIP3    H222279   5.340   1.700   2.589  0.1697  2.0324  1.8757
 7439TIP3   OH222280   0.731   4.742   3.417 -0.0512  0.1685 -0.2027
 7439TIP3    H122281   0.802   4.737   3.352 -0.0394  0.0077 -0.1787
 7439TIP3    H222282   0.752   4.673   3.480  0.2747  0.7321  0.3180
 7440TIP3   OH222283   3.420   2.411   1.803  0.3010 -0.2213  0.6856
 7440TIP3    H122284   3.436   2.428   1.896  0.4628  0.9099  0.4733
 7440TIP3    H222285   3.419   2.498   1.763 -0.9454 -0.6109 -0.1876
 7441TIP3   OH222286   0.424   5.983   4.676  0.1792 -0.2065  0.5562
 7441TIP3    H122287   0.413   6.076   4.694 -1.0755 -0.4901  1.4354
 7441TIP3    H222288   0.419   5.976   4.581 -1.9673  0.4180  0.5669
 7442TIP3   OH222289   2.095   5.435   1.465 -0.3745  0.5006 -0.2954
 7442TIP3    H122290   2.169   5.491   1.444  1.0499 -1.3454 -0.4059
 7442TIP3    H222291   2.131   5.366   1.521 -2.4081  0.5930  1.2545
 7443TIP3   OH222292   6.007   5.629   1.431 -0.4352  0.1695  0.0639
 7443TIP3    H122293   5.972   5.551   1.475 -0.7908  0.8467  1.0020
 7443TIP3    H222294   6.083   5.596   1.383 -0.6998 -0.7966  0.2705
 7444TIP3   OH222295   1.562   3.038   3.030 -0.1828  0.0896 -0.0366
 7444TIP3    H122296   1.563   3.051   3.125 -0.6895 -0.5254  0.0591
 7444TIP3    H222297   1.472   3.012   3.010 -0.3373  1.1871 -0.8303
 7445TIP3   OH222298   5.436   6.453   1.939 -0.7925 -0.2743  0.1176
 7445TIP3    H122299   5.458   6.387   1.873 -2.2736 -0.6699 -0.0203
 7445TIP3    H222300   5.518   6.469   1.985  0.2906  0.0276 -1.8090
 7446TIP3   OH222301   6.220   2.133   1.141  0.2948  0.4608  0.0677
 7446TIP3    H122302   6.237   2.167   1.053 -1.6585 -0.2357 -0.6180
 7446TIP3    H222303   6.203   2.210   1.194 -2.4286  0.7480 -1.0936
 7447TIP3   OH222304   3.793   1.608   2.134 -0.4158 -0.2732  0.1449
 7447TIP3    H122305   3.856   1.540   2.108 -3.2934 -2.1592 -2.5371
 7447TIP3    H222306   3.797   1.672   2.063  0.4715  1.1589  1.4304
 7448TIP3   OH222307   3.812   1.807   5.314  0.1288  0.5372  0.5571
 7448TIP3    H122308   3.729   1.844   5.344  0.5584  1.9001  0.1329
 7448TIP3    H222309   3.791   1.717   5.289 -1.3928  1.1009 -0.3167
 7449TIP3   OH222310   4.899   4.157   3.518 -0.1978 -0.5091 -0.1466
 7449TIP3    H122311   4.863   4.245   3.516  0.3420 -0.2348  1.3802
 7449TIP3    H222312   4.987   4.166   3.482 -0.3292 -0.5327 -0.4812
 7450TIP3   OH222313   1.301   6.081   3.549 -0.2191  0.0598 -0.5939
 7450TIP3    H122314   1.306   5.991   3.581 -3.6438  0.0457  0.2236
 7450TIP3    H222315   1.344   6.078   3.464 -0.0263 -2.2766 -0.4825
 7451TIP3   OH222316   2.000   5.166   4.928  0.5384 -0.2101  0.2573
 7451TIP3    H122317   1.960   5.247   4.895  0.5625 -0.8195 -1.3447
 7451TIP3    H222318   2.091   5.172   4.900  0.3318 -1.1850 -0.6807
 7452TIP3   OH222319   7.025   1.364   4.698 -0.2833 -0.0563  0.3815
 7452TIP3    H122320   6.989   1.424   4.633  0.6885  1.5231  1.2326
 7452TIP3    H222321   7.079   1.420   4.755  0.9050 -1.7889  1.0384
 7453TIP3   OH222322   3.943   4.435   3.449 -0.0025  1.0970 -0.4030
 7453TIP3    H122323   3.910   4.352   3.414 -0.3647  0.9126  0.3390
 7453TIP3    H222324   3.870   4.469   3.501  0.5751  1.2602  0.3144
 7454TIP3   OH222325   4.355   3.404   3.247 -0.3519 -0.1796 -0.1623
 7454TIP3    H122326   4.381   3.481   3.197 -2.1042  1.0740  0.7255
 7454TIP3    H222327   4.413   3.404   3.323  1.2950 -1.2163 -1.3520
 7455TIP3   OH222328   4.437   0.758   3.986 -0.0352 -0.0532 -0.1187
 7455TIP3    H122329   4.418   0.744   4.078  1.2917  0.1175  0.2029
 7455TIP3    H222330   4.531   0.743   3.978 -0.4474 -2.3889 -1.8945
 7456TIP3   OH222331   3.361   1.256   2.796 -0.4097 -0.1188 -0.0013
 7456TIP3    H122332   3.352   1.217   2.709 -0.1318 -1.2048  0.4381
 7456TIP3    H222333   3.386   1.183   2.852  1.7755  0.9930  0.5753
 7457TIP3   OH222334   6.918   4.187   0.047  0.6783 -0.3985 -0.2308
 7457TIP3    H122335   6.950   4.154  -0.037  0.2677 -0.7654 -0.2463
 7457TIP3    H222336   6.838   4.235   0.026  0.3442 -0.8409 -0.0125
 7458TIP3   OH222337   0.776   5.081   0.702  0.2876  0.0190 -0.3122
 7458TIP3    H122338   0.805   5.007   0.648 -0.0501 -0.8844  0.7114
 7458TIP3    H222339   0.820   5.157   0.665 -0.0158 -0.5555 -1.9284
 7459TIP3   OH222340   2.080   2.221   1.215 -0.4337 -0.1027 -0.3970
 7459TIP3    H122341   2.141   2.282   1.172  1.3072 -0.5733  1.2554
 7459TIP3    H222342   2.009   2.277   1.246 -0.5508  0.5718 -1.7970
 7460TIP3   OH222343   5.234   3.318   1.033 -0.2774  0.0533  0.5704
 7460TIP3    H122344   5.205   3.336   1.122 -1.1661 -0.7216  0.4548
 7460TIP3    H222345   5.191   3.236   1.010 -0.0383  0.2300 -0.5645
 7461TIP3   OH222346   6.208   4.872   3.813 -0.5381  0.3416 -0.3451
 7461TIP3    H122347   6.196   4.781   3.790 -0.5414  0.3358 -0.3201
 7461TIP3    H222348   6.133   4.918   3.776 -0.1182  0.4617 -1.0774
 7462TIP3   OH222349   0.428   0.102   3.892 -0.3137  0.3269  0.0783
 7462TIP3    H122350   0.382   0.115   3.974  0.6551  0.0387  0.6876
 7462TIP3    H222351   0.479   0.182   3.880  1.9033 -0.7809  1.3598
 7463TIP3   OH222352   2.720   1.692   3.414  0.0742 -0.2124 -0.3861
 7463TIP3    H122353   2.815   1.698   3.405  0.0947  2.1779  0.6196
 7463TIP3    H222354   2.687   1.698   3.324  0.8623 -1.7942 -0.8045
 7464TIP3   OH222355   3.252   6.074   3.344 -0.4475 -0.2299 -0.1161
 7464TIP3    H122356   3.295   6.148   3.388  0.7231  0.2454 -1.9580
 7464TIP3    H222357   3.322   6.033   3.293 -1.7552 -0.6276 -1.6604
 7465TIP3   OH222358   1.550   6.240   5.808  0.4308  0.1088 -0.0376
 7465TIP3    H122359   1.599   6.173   5.761 -0.8153 -0.4114 -0.6150
 7465TIP3    H222360   1.578   6.323   5.768  1.5046 -0.0934  0.2624
 7466TIP3   OH222361   4.898   1.348   3.978 -0.4400  0.4617 -0.1278
 7466TIP3    H122362   4.931   1.323   3.892 -0.6288 -0.9578  0.1921
 7466TIP3    H222363   4.974   1.341   4.036 -0.4980  0.6163 -0.0341
 7467TIP3   OH222364   5.919   2.981   3.328  0.1290 -0.0794  0.2977
 7467TIP3    H122365   5.943   3.063   3.372 -0.7204 -0.6170  1.8242
 7467TIP3    H222366   6.000   2.952   3.287  0.9375  0.5214  1.3952
 7468TIP3   OH222367   5.926   3.703   3.416  0.2277  0.0561  0.4937
 7468TIP3    H122368   5.942   3.624   3.365 -0.6998 -0.1359  0.4671
 7468TIP3    H222369   5.898   3.671   3.502 -1.6368  0.2962  0.0209
 7469TIP3   OH222370   6.625   5.710   1.824  0.0788 -0.1519  0.0380
 7469TIP3    H122371   6.585   5.657   1.755  1.8351 -1.3544 -0.1231
 7469TIP3    H222372   6.552   5.756   1.864 -1.6675 -3.0733  0.5121
 7470TIP3   OH222373   6.973   4.752   1.562 -0.0163  0.1560 -0.4255
 7470TIP3    H122374   6.925   4.796   1.632  1.3608  0.5111  0.3545
 7470TIP3    H222375   6.906   4.721   1.502 -1.1361  1.9211 -0.1714
 7471TIP3   OH222376   5.340   6.586   0.242 -0.5774 -0.7524 -0.1919
 7471TIP3    H122377   5.368   6.513   0.188  2.9284  1.7165 -2.1026
 7471TIP3    H222378   5.420   6.616   0.285 -1.9767  1.6407  0.9311
 7472TIP3   OH222379   4.501   2.013   1.156 -0.0750 -0.0760  0.1631
 7472TIP3    H122380   4.537   1.997   1.244 -1.3975  1.9396  1.1479
 7472TIP3    H222381   4.533   1.939   1.104  1.8404 -0.6517  1.9926
 7473TIP3   OH222382   1.291   2.255   0.697 -0.3516  0.1310  0.0715
 7473TIP3    H122383   1.386   2.261   0.700 -0.3320  0.1286 -0.4885
 7473TIP3    H222384   1.273   2.182   0.638 -0.6992 -0.1271  0.4807
 7474TIP3   OH222385   3.844   4.555   4.663  0.2318 -0.6358 -0.1952
 7474TIP3    H122386   3.918   4.497   4.683  1.1050  0.7597  0.7618
 7474TIP3    H222387   3.767   4.500   4.676  1.0446 -1.8150 -0.1326
 7475TIP3   OH222388   6.219   0.873   1.456 -0.0469  0.6307 -0.1983
 7475TIP3    H122389   6.217   0.888   1.551  1.7557  1.3616 -0.2480
 7475TIP3    H222390   6.248   0.782   1.447  0.2274  0.7053 -0.0633
 7476TIP3   OH222391   2.769   3.890   5.036 -0.4669 -0.0653 -0.7235
 7476TIP3    H122392   2.848   3.841   5.057 -0.4210  0.3691  0.1678
 7476TIP3    H222393   2.762   3.884   4.941  1.5952  1.3345 -1.0283
 7477TIP3   OH222394   5.163   3.744   0.259 -0.6655 -0.5563 -0.3105
 7477TIP3    H122395   5.106   3.713   0.189  1.2225  0.1730 -2.2634
 7477TIP3    H222396   5.205   3.665   0.294 -0.3435 -0.7792 -1.1836
 7478TIP3   OH222397   1.342   6.356   3.491  0.2069  0.0084  0.0907
 7478TIP3    H122398   1.418   6.367   3.549 -0.9614  1.3381  1.4659
 7478TIP3    H222399   1.303   6.273   3.518 -0.2026  0.5161  1.1251
 7479TIP3   OH222400   1.714   5.673   0.362  0.2328 -0.1678  0.1419
 7479TIP3    H122401   1.768   5.750   0.342 -1.7408  1.1974 -0.2686
 7479TIP3    H222402   1.777   5.604   0.382  2.0964  1.7551  1.3739
 7480TIP3   OH222403   5.109   2.978   5.037 -0.2324 -0.4369  0.4391
 7480TIP3    H122404   5.037   3.017   5.086 -0.0502  1.4935 -0.7275
 7480TIP3    H222405   5.102   3.016   4.950  1.4243 -1.2139 -0.0743
 7481TIP3   OH222406   2.351   1.191   4.315 -0.5524  0.0716 -0.0395
 7481TIP3    H122407   2.429   1.215   4.365 -1.4010 -1.0480  1.9312
 7481TIP3    H222408   2.376   1.203   4.223  1.5465  0.8017  0.5853
 7482TIP3   OH222409   1.698   4.080   1.688 -0.1638 -0.2022 -0.7678
 7482TIP3    H122410   1.723   4.158   1.639 -1.5126 -0.7214 -2.3693
 7482TIP3    H222411   1.666   4.113   1.772  2.0123  0.7236 -0.2256
 7483TIP3   OH222412   2.924   1.436   0.049  0.3634  0.3821  0.1304
 7483TIP3    H122413   2.988   1.421  -0.020  0.1325 -0.7580  0.1515
 7483TIP3    H222414   2.977   1.452   0.127  0.6243  1.7021 -0.2853
 7484TIP3   OH222415   3.162   4.560   4.244 -0.2003  0.0010 -0.2200
 7484TIP3    H122416   3.257   4.567   4.232 -0.0565  1.0110  1.2555
 7484TIP3    H222417   3.151   4.539   4.336 -1.3955 -1.6313 -0.6890
 7485TIP3   OH222418   2.497   4.921   1.963 -0.7323 -0.3283 -0.0383
 7485TIP3    H122419   2.552   4.868   1.905 -0.7952 -0.4875  0.0469
 7485TIP3    H222420   2.545   5.002   1.975 -1.1632  0.1038 -1.1140
 7486TIP3   OH222421   1.868   0.423   2.916 -0.0540  0.2817  0.1789
 7486TIP3    H122422   1.920   0.343   2.903 -0.1740  0.4221 -1.3920
 7486TIP3    H222423   1.874   0.440   3.010  2.2333 -0.0674  0.1597
 7487TIP3   OH222424   1.104   2.504   4.109  0.2998 -0.0584 -0.5070
 7487TIP3    H122425   1.050   2.556   4.050 -0.6021 -0.1467  0.2284
 7487TIP3    H222426   1.102   2.551   4.192 -0.9260 -1.4721  0.3170
 7488TIP3   OH222427   2.663   5.364   2.378 -0.0118  0.5149  0.1006
 7488TIP3    H122428   2.572   5.378   2.354  0.2278  0.7575 -0.7191
 7488TIP3    H222429   2.711   5.369   2.295  0.7232  0.2021  0.4916
 7489TIP3   OH222430   3.219   5.797   0.026 -0.3724  1.1814 -0.1372
 7489TIP3    H122431   3.264   5.738   0.086 -0.7085 -1.2160 -2.0674
 7489TIP3    H222432   3.284   5.865   0.007  1.8944 -1.1206 -1.3808
 7490TIP3   OH222433   1.414   1.184   4.720  0.5890  0.0478  0.0319
 7490TIP3    H122434   1.393   1.255   4.781 -1.9673 -1.0014  0.4919
 7490TIP3    H222435   1.481   1.221   4.662 -0.5399  2.7831  0.3350
 7491TIP3   OH222436   1.402   1.430   5.498  0.6721 -0.3530  0.1809
 7491TIP3    H122437   1.343   1.366   5.459  0.2755 -1.1965  2.0313
 7491TIP3    H222438   1.490   1.400   5.475  0.4481 -0.5310 -0.4514
 7492TIP3   OH222439   0.124   4.214   5.210  0.0882  0.3560 -0.6284
 7492TIP3    H122440   0.195   4.256   5.259 -0.4843 -0.1602  0.6877
 7492TIP3    H222441   0.155   4.126   5.192  0.0294  0.3368 -0.6346
 7493TIP3   OH222442   2.042   6.024   1.160  0.0159 -0.2577  0.2354
 7493TIP3    H122443   2.054   5.947   1.215 -1.3743 -0.7266 -0.1013
 7493TIP3    H222444   2.025   5.989   1.072 -0.2254  0.4468 -0.0020
 7494TIP3   OH222445   1.770   1.757   0.707 -0.2822 -0.0995  0.4165
 7494TIP3    H122446   1.737   1.682   0.657  1.5800 -0.3801 -0.4835
 7494TIP3    H222447   1.783   1.826   0.641 -0.0876  0.3340  0.9045
 7495TIP3   OH222448   4.714   2.257   4.430  0.0642 -0.1452 -0.0431
 7495TIP3    H122449   4.669   2.173   4.430  0.2732 -0.2834  1.1113
 7495TIP3    H222450   4.654   2.316   4.476  0.8733 -0.2495  1.2089
 7496TIP3   OH222451   6.616   2.024   3.713 -0.3539 -0.1645 -0.5971
 7496TIP3    H122452   6.644   2.088   3.778 -1.2979 -1.0765  0.7774
 7496TIP3    H222453   6.687   2.022   3.648  0.5025  0.9518  0.2661
 7497TIP3   OH222454   1.939   5.463   4.603 -0.4723 -0.0758  0.5720
 7497TIP3    H122455   1.940   5.474   4.698  0.9285 -0.6318  0.6463
 7497TIP3    H222456   1.966   5.372   4.589  0.0812  0.2158 -0.3693
 7498TIP3   OH222457   1.315   6.428   1.736 -0.5738 -0.5101  0.0297
 7498TIP3    H122458   1.233   6.469   1.709 -1.5464 -1.8403  0.8011
 7498TIP3    H222459   1.307   6.337   1.707 -0.7111 -1.4324  2.6956
 7499TIP3   OH222460   5.307   2.662   3.284 -0.3107  0.2497  0.6242
 7499TIP3    H122461   5.349   2.620   3.209 -0.8711  2.6845 -1.1904
 7499TIP3    H222462   5.216   2.631   3.280 -0.1498 -0.2632  0.8216
 7500TIP3   OH222463   4.232   3.778   3.232  0.1074  0.2285 -0.0355
 7500TIP3    H122464   4.229   3.698   3.180 -0.7732  0.3467 -0.1858
 7500TIP3    H222465   4.260   3.846   3.170  0.6756  0.0768  0.0491
 7501TIP3   OH222466   5.312   5.038   3.917 -0.5049  0.1182  0.2296
 7501TIP3    H122467   5.406   5.030   3.935 -0.1914  0.3781 -1.1766
 7501TIP3    H222468   5.300   4.993   3.833 -1.1497  2.2974 -0.9190
 7502TIP3   OH222469   3.093   1.255   1.605  0.0878  0.3092  0.1402
 7502TIP3    H122470   3.086   1.161   1.618 -0.0622  0.3673  0.5043
 7502TIP3    H222471   3.129   1.288   1.688  2.1456  0.3328 -0.6909
 7503TIP3   OH222472   4.493   4.020   4.614  0.0441  0.4068 -0.0174
 7503TIP3    H122473   4.484   4.115   4.616 -0.0246  0.4026 -0.1149
 7503TIP3    H222474   4.572   4.004   4.563  0.5859  0.4418  0.7906
 7504TIP3   OH222475   6.524   2.478   0.708 -0.4728  0.0745  0.3865
 7504TIP3    H122476   6.449   2.490   0.766 -1.5182 -1.6643 -0.5230
 7504TIP3    H222477   6.565   2.397   0.737  0.6897  0.6599  0.4555
 7505TIP3   OH222478   3.448   2.264   0.693 -0.8142  0.1967 -0.2753
 7505TIP3    H122479   3.530   2.215   0.688  0.1711  1.7609 -0.4209
 7505TIP3    H222480   3.429   2.287   0.602 -0.9876  0.4998 -0.1638
 7506TIP3   OH222481   2.170   2.160   3.023  0.6177 -0.0732 -0.2727
 7506TIP3    H122482   2.201   2.198   2.941 -0.2224  0.7168 -0.2439
 7506TIP3    H222483   2.096   2.105   2.996  1.1350 -0.8170 -0.1861
 7507TIP3   OH222484   1.758   4.238   5.593 -0.1149 -0.2196 -0.3842
 7507TIP3    H122485   1.722   4.276   5.673  1.1988 -1.6652  0.9474
 7507TIP3    H222486   1.828   4.299   5.568 -0.5090  0.2195 -0.4430
 7508TIP3   OH222487   0.070   4.698   3.318 -0.4447 -0.3990  0.4373
 7508TIP3    H122488   0.108   4.742   3.242 -0.1892 -0.3658  0.5843
 7508TIP3    H222489   0.005   4.639   3.281 -0.9778  0.2886  0.2508
 7509TIP3   OH222490   6.198   6.047   4.842  0.0428 -0.0360 -0.8200
 7509TIP3    H122491   6.140   6.063   4.916  0.9516 -0.3867 -0.0190
 7509TIP3    H222492   6.162   5.969   4.799  0.3365 -0.6916  0.1057
 7510TIP3   OH222493   4.399   5.812   4.675 -0.2947 -0.1354 -0.2497
 7510TIP3    H122494   4.484   5.842   4.708 -0.6363  0.8572 -0.2241
 7510TIP3    H222495   4.416   5.724   4.641  0.1425 -1.0639  2.1949
 7511TIP3   OH222496   0.413   5.498   2.684 -0.0905  0.0642 -0.2617
 7511TIP3    H122497   0.330   5.457   2.709 -0.6978  1.1187 -0.4356
 7511TIP3    H222498   0.480   5.441   2.720 -0.9020 -0.4615  0.4785
 7512TIP3   OH222499   2.306   5.399   2.868 -0.1812 -0.6161  0.4127
 7512TIP3    H122500   2.352   5.478   2.897  1.3237 -0.8570 -1.1746
 7512TIP3    H222501   2.254   5.373   2.944  0.9120  0.6940  1.6837
 7513TIP3   OH222502   6.582   0.180   3.705  0.1022  0.2697 -1.0789
 7513TIP3    H122503   6.638   0.109   3.672  1.2203  0.8505 -0.5039
 7513TIP3    H222504   6.575   0.241   3.632 -0.0720  0.0338 -1.2626
 7514TIP3   OH222505   1.954   0.893   5.528 -0.3871 -0.2204  0.0106
 7514TIP3    H122506   1.872   0.867   5.486 -0.6739  0.7478 -0.0356
 7514TIP3    H222507   2.015   0.907   5.456 -0.8237  1.2480 -0.0984
 7515TIP3   OH222508   2.794   5.362   5.457 -0.1661 -0.2749 -0.3491
 7515TIP3    H122509   2.712   5.403   5.487 -0.2019 -0.8646  0.3736
 7515TIP3    H222510   2.862   5.403   5.509 -0.3168 -1.9453  1.2537
 7516TIP3   OH222511   7.135   3.183   4.868 -0.0932  0.2168 -0.0552
 7516TIP3    H122512   7.040   3.193   4.873 -0.2803 -0.9303 -0.8504
 7516TIP3    H222513   7.157   3.126   4.942  0.0727  0.9806  0.4961
 7517TIP3   OH222514   0.620   6.676   2.603  0.1680 -0.2122  0.8482
 7517TIP3    H122515   0.639   6.769   2.615 -0.1687 -0.0914  0.4657
 7517TIP3    H222516   0.694   6.632   2.645 -0.2936  0.1932  2.1290
 7518TIP3   OH222517   3.247   0.172   1.193 -0.5137 -0.0221 -0.0139
 7518TIP3    H122518   3.259   0.185   1.099 -0.4066 -1.9290 -0.3154
 7518TIP3    H222519   3.281   0.251   1.233  0.2200  0.4822 -1.5460
 7519TIP3   OH222520   5.940   1.787   5.818  0.0920 -0.0142  0.1679
 7519TIP3    H122521   5.936   1.849   5.746  0.4225  1.2316  1.1777
 7519TIP3    H222522   5.854   1.793   5.859  0.4475  0.5637  0.8668
 7520TIP3   OH222523   2.574   1.526   2.938 -0.4177  0.1784  0.1704
 7520TIP3    H122524   2.512   1.474   2.888 -1.1633  1.3381 -0.1533
 7520TIP3    H222525   2.651   1.533   2.881 -1.4349  1.8901 -1.0861
 7521TIP3   OH222526   3.243   4.772   1.527 -0.1359  0.3624 -0.2317
 7521TIP3    H122527   3.169   4.781   1.587 -0.0840 -0.2736 -0.0686
 7521TIP3    H222528   3.307   4.837   1.556 -0.2777  0.3284  0.1497
 7522TIP3   OH222529   1.588   5.879   1.061  0.3146  0.4003 -0.4469
 7522TIP3    H122530   1.637   5.833   0.994 -0.0410  0.2928 -0.6358
 7522TIP3    H222531   1.630   5.965   1.066  1.2313 -0.0704  0.1917
 7523TIP3   OH222532   3.745   6.757   4.016 -0.2403 -0.2746 -0.2022
 7523TIP3    H122533   3.745   6.712   4.101 -0.1995  1.5277  0.8302
 7523TIP3    H222534   3.837   6.777   4.000 -0.4041  0.9916  0.2881
 7524TIP3   OH222535   0.850   6.542   5.587  0.7140 -0.3404 -0.2502
 7524TIP3    H122536   0.812   6.455   5.593 -0.1396  0.0252 -0.2233
 7524TIP3    H222537   0.944   6.527   5.571  0.6931 -1.2528  0.4384
 7525TIP3   OH222538   6.819   0.749   0.079 -0.0975 -0.2698  0.2318
 7525TIP3    H122539   6.895   0.801   0.052 -0.4802  0.7851  1.0856
 7525TIP3    H222540   6.746   0.790   0.032 -0.1228 -1.4505 -0.7974
 7526TIP3   OH222541   4.582   0.782   4.314  0.0184  0.0733 -0.0719
 7526TIP3    H122542   4.498   0.739   4.297 -0.9900  1.8264  0.3070
 7526TIP3    H222543   4.609   0.748   4.399 -1.4041  1.1019  0.8299
 7527TIP3   OH222544   5.203   2.370   0.832 -0.5586  0.1722 -0.1652
 7527TIP3    H122545   5.222   2.306   0.764 -0.2399 -1.4200  1.3453
 7527TIP3    H222546   5.118   2.407   0.807 -0.5088 -0.4709 -1.3545
 7528TIP3   OH222547   2.677   2.419   1.865  0.3576 -0.0561  0.0485
 7528TIP3    H122548   2.671   2.504   1.821  0.1574 -0.6340 -1.0791
 7528TIP3    H222549   2.607   2.367   1.826  0.8482 -0.9176  0.2937
 7529TIP3   OH222550   0.219   4.680   5.469 -0.2421  0.2630  0.4413
 7529TIP3    H122551   0.202   4.672   5.375 -0.5200  1.9336  0.3215
 7529TIP3    H222552   0.141   4.725   5.503  0.2486  0.4614  1.3230
 7530TIP3   OH222553   4.283   4.453   1.950 -0.1671 -0.5560 -0.0517
 7530TIP3    H122554   4.241   4.532   1.983  0.7287 -0.5421  1.1062
 7530TIP3    H222555   4.367   4.449   1.995  0.6095 -1.1857 -1.4797
 7531TIP3   OH222556   1.483   1.524   2.721  0.4406 -0.7420 -0.0288
 7531TIP3    H122557   1.554   1.531   2.785  0.3438  2.4777 -0.1151
 7531TIP3    H222558   1.423   1.459   2.760  2.5160 -2.2563  0.8690
 7532TIP3   OH222559   0.039   1.748   3.773 -0.0812  1.1630  0.1328
 7532TIP3    H122560   0.125   1.787   3.757 -0.4489  1.9931  0.1199
 7532TIP3    H222561  -0.005   1.810   3.831 -0.1016 -0.0231  1.4412
 7533TIP3   OH222562   3.644   6.642   0.050 -0.1361 -0.3347 -0.2074
 7533TIP3    H122563   3.578   6.648   0.119  0.2272 -0.9579  0.2044
 7533TIP3    H222564   3.717   6.595   0.091  0.7462  0.7237 -0.5109
 7534TIP3   OH222565   4.549   6.420   2.671 -0.0672 -0.3016 -0.0319
 7534TIP3    H122566   4.612   6.358   2.707  0.0561 -0.0119  0.2571
 7534TIP3    H222567   4.551   6.494   2.732 -1.0615 -0.5069  0.2792
 7535TIP3   OH222568   3.879   6.781   4.859  0.1543  0.4453 -0.3004
 7535TIP3    H122569   3.880   6.742   4.771  1.6503  0.0368 -0.1350
 7535TIP3    H222570   3.850   6.871   4.845 -0.7143  0.0762 -1.0476
 7536TIP3   OH222571   2.597   2.298   2.370 -0.5745 -0.2205 -0.2384
 7536TIP3    H122572   2.653   2.291   2.292 -0.2870  1.9781 -0.3014
 7536TIP3    H222573   2.533   2.228   2.360  2.0884 -2.8574 -0.1767
 7537TIP3   OH222574   3.265   2.149   2.816 -0.6305  0.4387 -0.6279
 7537TIP3    H122575   3.260   2.230   2.765 -1.7363  0.6863 -0.1708
 7537TIP3    H222576   3.267   2.179   2.907  0.9437 -0.0086 -0.4853
 7538TIP3   OH222577   4.032   4.056   2.527 -0.4760 -0.0720 -0.0742
 7538TIP3    H122578   3.986   3.978   2.559  0.5866 -1.0735 -0.8924
 7538TIP3    H222579   4.044   4.039   2.433 -0.8543  1.4193 -0.4181
 7539TIP3   OH222580   2.097   1.818   3.326 -0.1780  0.0498 -0.0769
 7539TIP3    H122581   2.018   1.849   3.280 -0.1585  0.6732  0.3035
 7539TIP3    H222582   2.147   1.773   3.258 -0.6291  0.0824 -0.4404
 7540TIP3   OH222583   1.693   2.777   4.227  0.0398  0.7721  0.3612
 7540TIP3    H122584   1.782   2.808   4.211 -0.3695  2.8479  1.6764
 7540TIP3    H222585   1.640   2.819   4.160 -0.3561  2.0363  1.4347
 7541TIP3   OH222586   3.596   4.843   2.128  0.3066  0.5062 -0.4147
 7541TIP3    H122587   3.576   4.758   2.089  0.0228  1.5316 -2.6264
 7541TIP3    H222588   3.561   4.837   2.217 -0.8125 -1.2596 -0.9273
 7542TIP3   OH222589   5.084   5.609   0.762  0.1939  0.2005  0.2753
 7542TIP3    H122590   5.044   5.665   0.695  1.8942 -0.1809 -1.1288
 7542TIP3    H222591   5.164   5.576   0.721  0.5464 -1.2240  1.9975
 7543TIP3   OH222592   6.370   1.071   3.563 -0.4991  0.7682  0.6528
 7543TIP3    H122593   6.392   1.148   3.615 -1.2613  1.5637 -0.1612
 7543TIP3    H222594   6.373   1.102   3.472  2.1727 -0.9032  0.0510
 7544TIP3   OH222595   0.822   4.563   1.593 -0.5620  0.0592  0.0647
 7544TIP3    H122596   0.913   4.534   1.585 -1.1126 -2.1923  1.2754
 7544TIP3    H222597   0.796   4.581   1.503  0.1391 -2.4917 -0.7540
 7545TIP3   OH222598   6.785   1.500   0.861  0.2985 -0.3498 -0.6390
 7545TIP3    H122599   6.760   1.441   0.932 -4.1386 -0.6002 -2.0355
 7545TIP3    H222600   6.824   1.443   0.795  0.7023 -0.8119 -0.0118
 7546TIP3   OH222601   6.773   0.359   4.245 -0.4169  0.4631 -0.1361
 7546TIP3    H122602   6.822   0.354   4.327  0.0287 -0.3143 -0.4388
 7546TIP3    H222603   6.725   0.276   4.241 -0.0389  0.2699 -0.8913
 7547TIP3   OH222604   5.050   1.249   3.787 -0.2861 -0.0392 -0.6430
 7547TIP3    H122605   5.023   1.192   3.715  0.1341  0.5572 -1.2807
 7547TIP3    H222606   5.133   1.286   3.759 -0.7876  1.2873 -0.4708
 7548TIP3   OH222607   3.844   1.149   5.542 -0.1415 -0.0085 -0.3425
 7548TIP3    H122608   3.824   1.086   5.611  1.5615 -0.6214 -0.3637
 7548TIP3    H222609   3.791   1.121   5.467  1.0070 -1.8188 -0.5381
 7549TIP3   OH222610   6.158   1.346   5.405 -0.1250 -0.2237 -0.2770
 7549TIP3    H122611   6.156   1.308   5.317  1.2481 -1.4333  0.1761
 7549TIP3    H222612   6.217   1.290   5.454  0.4802  1.4145  0.9762
 7550TIP3   OH222613   5.446   2.614   1.341 -0.9583  0.1164  0.0865
 7550TIP3    H122614   5.373   2.644   1.287 -0.5593  1.3184  0.1871
 7550TIP3    H222615   5.510   2.581   1.278 -1.8807 -1.6957  0.0375
 7551TIP3   OH222616   5.947   1.815   5.078  0.1495 -0.0328  0.1602
 7551TIP3    H122617   5.950   1.909   5.058 -2.4049  0.2129  0.4918
 7551TIP3    H222618   5.946   1.811   5.174  3.5106 -0.6695  0.2697
 7552TIP3   OH222619   6.159   4.206   2.600  0.7568 -0.2389  0.1471
 7552TIP3    H122620   6.074   4.233   2.635  0.6274 -1.0150  0.4620
 7552TIP3    H222621   6.201   4.159   2.673  0.7736 -1.2791 -0.5118
 7553TIP3   OH222622   0.015   4.016   5.841  0.0347  0.3587  0.0474
 7553TIP3    H122623   0.006   4.108   5.817  0.4860  0.4355  0.1514
 7553TIP3    H222624  -0.004   4.013   5.935 -1.7679  0.0522 -0.3008
 7554TIP3   OH222625   2.334   3.544   0.622 -0.0335  0.0240  0.2230
 7554TIP3    H122626   2.242   3.552   0.646  0.1151 -0.3115  0.9339
 7554TIP3    H222627   2.374   3.499   0.696  0.4229 -1.1857 -0.7322
 7555TIP3   OH222628   2.574   6.194   4.319  0.0805 -0.0501  0.0378
 7555TIP3    H122629   2.497   6.138   4.328 -0.9070  1.2667  0.1505
 7555TIP3    H222630   2.562   6.261   4.386  1.2672  0.2609 -0.0411
 7556TIP3   OH222631   0.132   1.894   4.154  0.1928  0.4019 -0.3885
 7556TIP3    H122632   0.153   1.819   4.100  0.4535  1.2084 -1.4426
 7556TIP3    H222633   0.215   1.918   4.196 -0.0195 -0.2521  0.4280
 7557TIP3   OH222634   0.165   2.437   1.733  0.1556  0.1185 -0.0425
 7557TIP3    H122635   0.154   2.370   1.801  1.7751 -1.0130 -0.8250
 7557TIP3    H222636   0.113   2.406   1.659  0.2202  0.1606 -0.1066
 7558TIP3   OH222637   5.082   0.855   4.628 -0.1798 -0.0833 -0.2727
 7558TIP3    H122638   5.088   0.890   4.717 -0.0721 -0.7325 -0.0235
 7558TIP3    H222639   5.016   0.910   4.585  1.4227  1.7593 -0.5251
 7559TIP3   OH222640   1.712   4.562   1.455 -0.2211  0.0803 -0.6014
 7559TIP3    H122641   1.632   4.531   1.413  0.4199 -0.0977 -1.7326
 7559TIP3    H222642   1.703   4.657   1.457 -0.4621  0.0591 -0.7400
 7560TIP3   OH222643   0.544   1.949   0.607 -0.3105  0.3966  0.2310
 7560TIP3    H122644   0.541   1.945   0.703  1.2724  0.2793  0.3032
 7560TIP3    H222645   0.554   1.858   0.580  0.3018  0.5228  0.0169
 7561TIP3   OH222646   7.113   0.532   2.077  0.5883 -0.3896 -0.2517
 7561TIP3    H122647   7.066   0.473   2.136  0.2337  1.4103  1.3340
 7561TIP3    H222648   7.189   0.561   2.128  1.3213 -0.2446 -1.3897
 7562TIP3   OH222649   4.248   4.579   0.447 -0.3212 -0.2258  0.1763
 7562TIP3    H122650   4.235   4.611   0.357  0.7423  0.6245  0.3130
 7562TIP3    H222651   4.338   4.603   0.469  0.6735 -3.5248  0.2366
 7563TIP3   OH222652   5.738   1.617   1.254 -0.0779  0.4315 -0.0080
 7563TIP3    H122653   5.702   1.588   1.170  0.2962 -0.3685  0.1029
 7563TIP3    H222654   5.678   1.686   1.283  0.2004  1.2441 -1.2826
 7564TIP3   OH222655   7.159   5.958   5.669  0.0338 -0.2072 -0.2057
 7564TIP3    H122656   7.226   5.943   5.603  0.5924 -0.0748  0.3201
 7564TIP3    H222657   7.080   5.919   5.632 -0.1066  1.3793 -1.7154
 7565TIP3   OH222658   6.115   2.836   2.475 -0.0513  0.0625 -0.1504
 7565TIP3    H122659   6.056   2.764   2.454 -0.6591  0.4888  0.0475
 7565TIP3    H222660   6.062   2.915   2.462  0.8504  0.5241 -1.1966
 7566TIP3   OH222661   5.870   3.591   2.314  0.0140  0.0004  0.5115
 7566TIP3    H122662   5.837   3.670   2.270 -1.6177  0.0559  1.7444
 7566TIP3    H222663   5.955   3.574   2.272  0.3137  2.2690  0.0587
 7567TIP3   OH222664   2.659   1.677   4.478 -0.4796  0.0920 -0.2050
 7567TIP3    H122665   2.657   1.605   4.542  0.5529 -0.1878 -0.4673
 7567TIP3    H222666   2.678   1.634   4.395  3.3192  0.8479  0.0627
 7568TIP3   OH222667   3.476   4.481   3.866 -0.3378  0.5987  0.0428
 7568TIP3    H122668   3.408   4.471   3.800  0.7502 -1.6691 -0.8411
 7568TIP3    H222669   3.540   4.540   3.827  0.3821 -0.8611 -1.0965
 7569TIP3   OH222670   6.756   5.498   0.697  0.1971  0.1510  0.3386
 7569TIP3    H122671   6.764   5.573   0.638 -3.0154  0.4078  0.0412
 7569TIP3    H222672   6.736   5.425   0.640  0.2281 -0.2787  0.8690
 7570TIP3   OH222673   0.241   6.547   4.891  0.7291  0.1360  0.1910
 7570TIP3    H122674   0.181   6.591   4.952  1.4313 -0.1833  1.1391
 7570TIP3    H222675   0.307   6.507   4.948  0.6334 -1.3514 -0.7137
 7571TIP3   OH222676   4.020   2.112   2.258  0.3759  0.5359  0.1647
 7571TIP3    H122677   3.927   2.100   2.276 -0.1086  0.8218 -1.9000
 7571TIP3    H222678   4.064   2.064   2.328 -1.3213  0.0168  0.9337
 7572TIP3   OH222679   1.275   5.016   3.882  0.1267 -0.2956 -0.2258
 7572TIP3    H122680   1.195   4.978   3.919 -0.2282  0.4983 -0.1616
 7572TIP3    H222681   1.346   4.970   3.926 -0.2909 -0.8499 -0.1173
 7573TIP3   OH222682   1.380   5.876   1.743 -0.2517 -0.5941 -0.5088
 7573TIP3    H122683   1.289   5.903   1.755 -0.0860 -0.3017  0.1713
 7573TIP3    H222684   1.429   5.931   1.804  0.5085 -0.0013 -1.6187
 7574TIP3   OH222685   5.886   5.774   1.689  0.1224  0.6422  0.0411
 7574TIP3    H122686   5.806   5.807   1.730  0.5454  1.6388  0.1130
 7574TIP3    H222687   5.856   5.727   1.611 -0.6523 -0.8513  1.2140
 7575TIP3   OH222688   0.613   5.877   5.580  0.0645 -0.2593 -0.2342
 7575TIP3    H122689   0.577   5.910   5.498 -0.7697 -1.4062 -0.3473
 7575TIP3    H222690   0.575   5.790   5.591  0.6045 -0.3651  1.0849
 7576TIP3   OH222691   1.118   4.718   3.738 -0.4317  0.0195  0.6823
 7576TIP3    H122692   1.070   4.733   3.656 -2.4402 -1.4406  1.5155
 7576TIP3    H222693   1.150   4.628   3.731 -0.1297  0.0767  1.2635
 7577TIP3   OH222694   6.938   4.403   2.947 -0.0819 -0.2866  0.2122
 7577TIP3    H122695   6.900   4.379   2.862  1.3209  0.6334 -0.7294
 7577TIP3    H222696   7.003   4.471   2.926 -0.8586  1.1941  2.2205
 7578TIP3   OH222697   0.921   6.303   0.653 -0.1708 -0.2456  0.0412
 7578TIP3    H122698   0.850   6.299   0.717  0.1631  2.9727  0.7820
 7578TIP3    H222699   0.993   6.343   0.701  2.1965 -3.1726 -0.7544
 7579TIP3   OH222700   1.071   4.230   5.813  0.0906  0.3292 -0.0322
 7579TIP3    H122701   1.061   4.237   5.718 -0.6993 -1.4511 -0.1135
 7579TIP3    H222702   0.981   4.229   5.846  0.3066 -0.8026  0.5633
 7580TIP3   OH222703   0.268   3.565   3.020  0.3600 -0.3173 -0.3429
 7580TIP3    H122704   0.322   3.511   2.962 -0.3999  0.3947 -1.7751
 7580TIP3    H222705   0.328   3.631   3.054  0.3465  0.8061 -2.3420
 7581TIP3   OH222706   4.099   4.075   3.515 -0.4581 -0.0557  0.2114
 7581TIP3    H122707   4.080   3.986   3.545  1.2121 -0.1085  1.2898
 7581TIP3    H222708   4.050   4.131   3.575 -1.2014 -0.2435 -0.2186
 7582TIP3   OH222709   5.200   0.354   0.484 -0.0579  0.0112  0.1007
 7582TIP3    H122710   5.147   0.418   0.438  0.2715  0.3417  0.1737
 7582TIP3    H222711   5.272   0.405   0.522  0.1223 -0.3763  0.2900
 7583TIP3   OH222712   5.786   6.427   0.259  0.3867 -0.1219  0.2506
 7583TIP3    H122713   5.856   6.435   0.195  0.8798  0.2719  0.8393
 7583TIP3    H222714   5.829   6.433   0.344 -0.1864 -1.2278  0.6369
 7584TIP3   OH222715   5.303   3.542   0.374  0.1634  0.5376 -0.0159
 7584TIP3    H122716   5.353   3.516   0.451 -1.1780 -0.2677  0.5979
 7584TIP3    H222717   5.361   3.519   0.300  0.0739 -1.9514  0.6012
 7585TIP3   OH222718   5.739   2.873   0.534  0.2827 -0.2324  0.1741
 7585TIP3    H122719   5.714   2.781   0.527 -1.8012  0.3862 -1.2697
 7585TIP3    H222720   5.831   2.870   0.561  0.3624 -2.7214 -0.1139
 7586TIP3   OH222721   4.595   5.481   0.946  0.1833  0.0541  0.3446
 7586TIP3    H122722   4.601   5.444   1.035 -0.7631  4.0576  2.2885
 7586TIP3    H222723   4.685   5.483   0.915  0.7388 -0.0188  1.8586
 7587TIP3   OH222724   2.408   4.072   2.214  0.1612  0.0252 -0.1781
 7587TIP3    H122725   2.465   4.046   2.287 -1.3818  0.7223  1.3456
 7587TIP3    H222726   2.372   4.156   2.241  0.5538  0.9640 -2.3795
 7588TIP3   OH222727   0.859   6.269   2.309 -0.0707 -0.4112  0.2022
 7588TIP3    H122728   0.797   6.233   2.371 -0.5272  0.3269  0.1877
 7588TIP3    H222729   0.816   6.347   2.275  1.1384  0.5165  0.7217
 7589TIP3   OH222730   3.691   5.361   4.368  0.4528  0.0343 -0.1369
 7589TIP3    H122731   3.757   5.310   4.415 -0.0413  1.1007  1.8349
 7589TIP3    H222732   3.608   5.318   4.390  0.1720  0.8195  0.3857
 7590TIP3   OH222733   3.577   0.226   4.418 -0.1505  0.2424  0.0625
 7590TIP3    H122734   3.520   0.283   4.365 -0.0938  0.2836  0.0460
 7590TIP3    H222735   3.593   0.275   4.498 -0.3982  0.0975  0.2041
 7591TIP3   OH222736   3.050   5.058   3.426  0.2517 -0.0563  0.1542
 7591TIP3    H122737   3.014   5.146   3.417 -0.8071 -0.5907 -1.0081
 7591TIP3    H222738   2.978   5.005   3.459  0.5820 -0.7081 -0.1533
 7592TIP3   OH222739   0.646   6.054   4.290 -0.8012 -0.0704 -0.2098
 7592TIP3    H122740   0.576   6.048   4.355 -1.2814 -0.3686 -0.7472
 7592TIP3    H222741   0.651   5.966   4.252  1.0624 -0.5516  1.0393
 7593TIP3   OH222742   4.499   5.339   4.147  0.2991 -0.2583 -0.2858
 7593TIP3    H122743   4.565   5.408   4.148 -0.8076  0.8552  0.5983
 7593TIP3    H222744   4.474   5.330   4.055  1.1762 -0.2117 -0.5349
 7594TIP3   OH222745   3.723   5.483   5.749 -0.1459 -0.3657 -0.2442
 7594TIP3    H122746   3.767   5.403   5.719  0.8681  0.5007 -1.1542
 7594TIP3    H222747   3.793   5.536   5.788 -0.4241  0.8382 -1.2928
 7595TIP3   OH222748   3.597   0.508   0.039  0.1497 -0.4976  0.3414
 7595TIP3    H122749   3.514   0.556   0.037 -0.5790 -1.7098 -1.1555
 7595TIP3    H222750   3.628   0.516   0.129 -1.0501  0.8644  0.6705
 7596TIP3   OH222751   1.373   4.810   3.670 -0.2972  0.6189 -0.4897
 7596TIP3    H122752   1.324   4.853   3.600  0.3616  1.0149 -0.7173
 7596TIP3    H222753   1.310   4.750   3.709 -0.9566  1.0864 -0.7962
 7597TIP3   OH222754   5.704   0.072   0.290 -0.4892  0.0826 -0.0335
 7597TIP3    H122755   5.677   0.044   0.378 -1.4282 -0.8894 -0.6136
 7597TIP3    H222756   5.660   0.157   0.277  0.7272  0.9012  0.9307
 7598TIP3   OH222757   1.936   3.615   3.942 -0.4927  0.6010 -0.4008
 7598TIP3    H122758   1.873   3.550   3.973  0.4485 -0.7690 -1.2368
 7598TIP3    H222759   1.937   3.604   3.847 -0.4824  2.0347 -0.6034
 7599TIP3   OH222760   0.187   1.979   2.565 -0.0695 -0.4578  0.6234
 7599TIP3    H122761   0.123   1.911   2.542  0.3206 -0.7905  0.5214
 7599TIP3    H222762   0.195   2.032   2.486 -0.0064 -0.5815  0.5484
 7600TIP3   OH222763   3.895   3.470   0.372  0.6150 -0.1633 -0.3444
 7600TIP3    H122764   3.988   3.463   0.393  0.6075  0.3331 -0.1376
 7600TIP3    H222765   3.867   3.379   0.359  1.3700 -0.2477 -1.5247
 7601TIP3   OH222766   6.745   3.066   2.077  0.2334 -0.1164  0.1988
 7601TIP3    H122767   6.688   3.041   2.149 -1.4666  2.3171 -0.1546
 7601TIP3    H222768   6.810   3.124   2.117  0.3772 -0.1763  0.0542
 7602TIP3   OH222769   2.254   0.638   0.061  0.2963 -0.4755  0.0052
 7602TIP3    H122770   2.267   0.571   0.127  3.5476 -0.8253 -0.8352
 7602TIP3    H222771   2.250   0.720   0.109 -2.0939 -1.0250  0.9013
 7603TIP3   OH222772   4.145   4.418   5.915 -0.0118  0.0519  0.0558
 7603TIP3    H122773   4.239   4.431   5.928 -0.0670 -0.9864  1.8532
 7603TIP3    H222774   4.138   4.380   5.828  1.0198  2.0833 -0.9850
 7604TIP3   OH222775   4.934   3.647   1.357  0.1297  0.0858 -0.1630
 7604TIP3    H122776   4.912   3.724   1.305  0.2614  0.2154 -0.0281
 7604TIP3    H222777   4.853   3.596   1.360  0.5703 -0.8098 -1.9817
 7605TIP3   OH222778   4.144   2.393   2.598  0.0005 -0.0708  0.4566
 7605TIP3    H122779   4.091   2.428   2.526 -1.1241 -1.4970  0.5390
 7605TIP3    H222780   4.219   2.352   2.556 -0.7904 -1.1425  0.0320
 7606TIP3   OH222781   1.778   4.335   5.860 -0.3947 -0.2858  0.1022
 7606TIP3    H122782   1.708   4.359   5.920 -0.0858  1.6451 -0.2653
 7606TIP3    H222783   1.834   4.412   5.856  1.4987 -1.5886 -0.0158
 7607TIP3   OH222784   2.585   2.627   3.211 -0.1210 -0.2502 -0.3266
 7607TIP3    H122785   2.629   2.711   3.200 -0.5871  0.1768  0.9087
 7607TIP3    H222786   2.653   2.562   3.195  0.6856  0.3817  0.4431
 7608TIP3   OH222787   3.636   0.912   2.702  0.3463 -0.6750 -0.2122
 7608TIP3    H122788   3.701   0.894   2.634  0.2504  0.7186 -0.7074
 7608TIP3    H222789   3.668   0.865   2.779  0.7339 -1.8490 -1.0590
 7609TIP3   OH222790   1.098   3.524   1.380  0.0045  0.1221  0.0961
 7609TIP3    H122791   1.159   3.450   1.377 -2.2669 -2.0117  2.0276
 7609TIP3    H222792   1.039   3.509   1.306  0.2593  0.7468 -0.2444
 7610TIP3   OH222793   1.175   1.018   1.629  0.3420  0.1166 -0.1285
 7610TIP3    H122794   1.173   0.932   1.670  1.2449 -0.8798 -2.0908
 7610TIP3    H222795   1.268   1.041   1.623  0.2228  0.3555 -1.3340
 7611TIP3   OH222796   4.664   6.252   0.121 -0.5701 -0.4472 -0.0844
 7611TIP3    H122797   4.628   6.339   0.102  0.8138 -0.1593 -1.6018
 7611TIP3    H222798   4.700   6.222   0.038  2.7620 -0.6580  1.2758
 7612TIP3   OH222799   0.195   2.704   2.409 -0.2907 -0.1841 -0.5341
 7612TIP3    H122800   0.139   2.735   2.480  0.6604  0.1685  0.0807
 7612TIP3    H222801   0.155   2.739   2.330 -0.8997  0.1231 -0.0957
 7613TIP3   OH222802   4.114   4.857   1.105  0.1037 -0.2469 -0.0724
 7613TIP3    H122803   4.077   4.944   1.091  0.8664  0.6237  2.6570
 7613TIP3    H222804   4.075   4.828   1.187  2.9169 -0.6733  1.2240
 7614TIP3   OH222805   4.454   0.228   1.831 -0.0906 -0.5293 -0.8160
 7614TIP3    H122806   4.416   0.210   1.745 -1.8080 -0.5988 -0.0779
 7614TIP3    H222807   4.482   0.320   1.826 -4.6811  1.1777  0.0062
 7615TIP3   OH222808   5.063   3.051   3.208 -0.2966 -0.1054  0.0286
 7615TIP3    H122809   5.138   2.995   3.189 -0.4858  0.1652 -1.6369
 7615TIP3    H222810   4.993   3.020   3.150 -0.3618  1.8980 -1.0502
 7616TIP3   OH222811   1.814   4.097   2.253 -0.7419 -0.2467 -0.1425
 7616TIP3    H122812   1.740   4.104   2.313 -0.7406  0.1600 -0.1820
 7616TIP3    H222813   1.784   4.140   2.173 -0.2659  0.4515  0.0399
 7617TIP3   OH222814   0.431   2.614   4.726  0.0917 -0.5086  0.0484
 7617TIP3    H122815   0.360   2.587   4.785 -0.4388 -2.9092 -1.5333
 7617TIP3    H222816   0.413   2.706   4.708 -4.4284 -1.5529 -2.4328
 7618TIP3   OH222817   6.819   1.401   0.133  0.5259  0.4089  0.1664
 7618TIP3    H122818   6.860   1.439   0.055  1.0358  0.2303  0.3454
 7618TIP3    H222819   6.784   1.477   0.181  0.7209  0.5713  0.0544
 7619TIP3   OH222820   7.171   4.180   1.217 -0.3162 -0.3281  0.3101
 7619TIP3    H122821   7.215   4.162   1.134 -2.1413 -1.8291 -0.3932
 7619TIP3    H222822   7.229   4.242   1.262  1.3542 -0.4917 -1.5021
 7620TIP3   OH222823   5.245   5.268   4.935 -0.3618  0.6001 -0.3615
 7620TIP3    H122824   5.192   5.302   4.862 -2.1009 -0.3628  0.3836
 7620TIP3    H222825   5.317   5.221   4.892 -0.9882  0.5942 -1.4655
 7621TIP3   OH222826   0.773   6.570   1.380  0.3319 -0.1917 -0.4443
 7621TIP3    H122827   0.760   6.477   1.399 -0.0585 -0.0265  0.1056
 7621TIP3    H222828   0.771   6.613   1.466  0.7319  0.2993 -0.6739
 7622TIP3   OH222829   2.773   6.467   3.987  0.1417  0.8863 -0.1765
 7622TIP3    H122830   2.831   6.449   4.061 -1.3628  1.8321  1.2983
 7622TIP3    H222831   2.757   6.381   3.948  1.3812  0.4395  0.2720
 7623TIP3   OH222832   5.732   1.269   4.481  0.2237  0.5920 -0.5916
 7623TIP3    H122833   5.824   1.245   4.471  0.0700 -0.2776  0.0294
 7623TIP3    H222834   5.696   1.263   4.392  0.4692 -0.3148 -0.6398
 7624TIP3   OH222835   3.215   4.784   4.828 -0.5650  0.1059 -0.1789
 7624TIP3    H122836   3.269   4.853   4.789 -0.7620  1.0359  1.1590
 7624TIP3    H222837   3.176   4.824   4.905 -0.7391 -1.4869  0.5976
 7625TIP3   OH222838   2.598   1.093   2.582  0.3460 -0.5238 -0.3271
 7625TIP3    H122839   2.546   1.172   2.575 -0.3356 -0.4628  3.3035
 7625TIP3    H222840   2.546   1.026   2.538 -1.5347  0.1059  0.8242
 7626TIP3   OH222841   3.660   2.560   2.321 -0.1041 -0.1673  0.2572
 7626TIP3    H122842   3.649   2.498   2.248 -1.9512  0.5227 -0.1276
 7626TIP3    H222843   3.636   2.509   2.398  0.5598 -0.5330  0.2311
 7627TIP3   OH222844   1.046   1.168   5.040  0.0006 -0.0850 -0.2609
 7627TIP3    H122845   1.036   1.103   4.970  3.9336 -1.7797  0.4513
 7627TIP3    H222846   1.012   1.124   5.118 -3.9076  1.6139 -0.7911
 7628TIP3   OH222847   1.365   3.543   4.550 -0.1928  0.0546 -0.0356
 7628TIP3    H122848   1.385   3.635   4.537 -1.1133  0.3192  0.3535
 7628TIP3    H222849   1.367   3.531   4.645  0.4764 -0.4571 -0.1103
 7629TIP3   OH222850   1.779   6.634   4.005 -0.2636 -0.9823 -0.2044
 7629TIP3    H122851   1.865   6.603   3.979 -0.1332 -1.3324  0.6050
 7629TIP3    H222852   1.762   6.710   3.950  0.3365 -1.2287 -0.7262
 7630TIP3   OH222853   7.185   2.468   1.477  0.0264 -0.1708 -1.0085
 7630TIP3    H122854   7.099   2.472   1.436  0.2310  1.2336 -1.3529
 7630TIP3    H222855   7.230   2.547   1.447  0.8663 -0.0518  0.4357
 7631TIP3   OH222856   6.955   5.934   0.420 -0.1215 -1.0765  0.1439
 7631TIP3    H122857   6.963   5.907   0.512 -0.3350 -0.1284  0.4490
 7631TIP3    H222858   6.885   5.999   0.420  2.1426  1.5448 -0.0972
 7632TIP3   OH222859   2.032   4.576   3.902 -0.3727 -0.4282  0.0247
 7632TIP3    H122860   1.949   4.621   3.884 -0.4456  0.0498  1.3752
 7632TIP3    H222861   2.092   4.609   3.836 -0.4760  1.5663  0.8567
 7633TIP3   OH222862   4.753   2.985   1.951  0.3107  0.0751 -0.0705
 7633TIP3    H122863   4.823   2.940   1.998  1.3086  1.4469 -0.1730
 7633TIP3    H222864   4.705   2.916   1.906  2.3916 -0.8124 -1.0552
 7634TIP3   OH222865   4.263   3.116   3.599 -0.0920  0.4142  0.2033
 7634TIP3    H122866   4.265   3.183   3.667  1.1150 -1.2552  1.9257
 7634TIP3    H222867   4.171   3.089   3.594 -0.2304  0.7322  0.9684
 7635TIP3   OH222868   0.131   6.701   5.513  0.1864 -0.3612 -0.3383
 7635TIP3    H122869   0.216   6.664   5.537  0.5252  0.7932  0.2765
 7635TIP3    H222870   0.079   6.624   5.488  1.1895 -1.1543 -0.0821
 7636TIP3   OH222871   7.213   6.291   4.722 -0.3043  0.9587  0.7964
 7636TIP3    H122872   7.125   6.329   4.729 -0.3286  0.8777  0.9212
 7636TIP3    H222873   7.199   6.203   4.687 -0.3099  0.7715  1.2681
 7637TIP3   OH222874   7.065   5.032   2.329 -0.1932  0.8102  0.7011
 7637TIP3    H122875   7.039   4.945   2.359 -0.2501  0.1688 -1.1133
 7637TIP3    H222876   7.156   5.041   2.357 -0.7830  1.0443  2.6988
 7638TIP3   OH222877   3.660   3.297   2.658 -0.7187  0.1658 -0.4703
 7638TIP3    H122878   3.592   3.257   2.604 -0.7562  1.3362 -1.3445
 7638TIP3    H222879   3.705   3.357   2.599 -1.0902  1.8912  0.9096
 7639TIP3   OH222880   1.019   6.212   5.554  0.5124 -0.6319 -0.7086
 7639TIP3    H122881   1.070   6.282   5.593  0.0267  0.5959 -2.1693
 7639TIP3    H222882   1.071   6.183   5.479 -0.8151  0.5707 -2.1577
 7640TIP3   OH222883   6.000   1.613   2.223  0.6369 -0.1327 -0.2784
 7640TIP3    H122884   6.090   1.615   2.193  1.4529 -1.6920  1.7808
 7640TIP3    H222885   5.991   1.691   2.279  0.2712  0.7229 -1.4965
 7641TIP3   OH222886   3.672   4.843   5.621 -0.2677 -0.1592 -0.1123
 7641TIP3    H122887   3.661   4.754   5.587 -2.2408  0.2294 -0.6079
 7641TIP3    H222888   3.600   4.855   5.682 -0.3599  1.2845 -0.4699
 7642TIP3   OH222889   2.315   5.978   4.126  0.6377 -0.0093  0.2550
 7642TIP3    H122890   2.230   5.975   4.083 -0.5538 -2.9429  2.4506
 7642TIP3    H222891   2.315   6.061   4.174 -1.4095 -0.3402  0.9279
 7643TIP3   OH222892   5.861   6.457   0.516 -0.1309  0.1404  0.1685
 7643TIP3    H122893   5.834   6.397   0.586 -0.0170 -0.5099 -0.3439
 7643TIP3    H222894   5.887   6.537   0.563  0.1201 -0.3496  0.8882
 7644TIP3   OH222895   0.935   0.264   2.377  0.0883 -0.3389 -0.7067
 7644TIP3    H122896   0.874   0.199   2.412  3.0087 -2.3004  1.1005
 7644TIP3    H222897   0.959   0.317   2.453  1.3462 -0.1972 -1.1888
 7645TIP3   OH222898   6.700   3.110   5.337  0.4485 -0.1774 -0.3628
 7645TIP3    H122899   6.770   3.055   5.302  1.0261  0.4949 -0.2784
 7645TIP3    H222900   6.669   3.061   5.414  0.7247 -0.5504 -0.4818
 7646TIP3   OH222901   5.377   4.819   1.429  0.1949 -0.8145 -0.3399
 7646TIP3    H122902   5.350   4.876   1.357 -0.2714 -1.3838 -0.6219
 7646TIP3    H222903   5.450   4.768   1.393 -0.1987 -1.2768 -0.5053
 7647TIP3   OH222904   0.128   5.795   2.990  0.3683  0.1394  0.0774
 7647TIP3    H122905   0.138   5.858   3.061 -0.2526 -1.5151  1.7483
 7647TIP3    H222906   0.059   5.831   2.934  1.9105  2.2012 -0.5982
 7648TIP3   OH222907   3.003   4.937   0.010 -0.5257 -0.7001  0.7048
 7648TIP3    H122908   2.930   4.956  -0.049 -0.0855 -1.5653 -0.1576
 7648TIP3    H222909   2.973   4.965   0.096 -0.9070  1.3170 -0.0254
 7649TIP3   OH222910   4.423   0.954   5.709  0.8326 -0.2846  0.0356
 7649TIP3    H122911   4.470   1.017   5.763  0.2668 -0.9677  1.3754
 7649TIP3    H222912   4.492   0.906   5.662  1.3813 -0.1643  0.7104
 7650TIP3   OH222913   1.961   1.134   0.601 -0.4673  0.3895  0.1822
 7650TIP3    H122914   1.925   1.049   0.627  0.0568  0.0647 -0.1316
 7650TIP3    H222915   2.036   1.147   0.660  0.1936  0.0587 -0.5645
 7651TIP3   OH222916   2.686   6.681   2.814  0.1174 -0.1226  0.4817
 7651TIP3    H122917   2.675   6.590   2.840  0.4684 -0.1757  0.4472
 7651TIP3    H222918   2.744   6.678   2.738  0.1801  0.1357  0.5172
 7652TIP3   OH222919   3.707   4.880   2.726 -0.2529 -0.6177 -0.1949
 7652TIP3    H122920   3.740   4.942   2.661  0.5507 -0.8128  0.0215
 7652TIP3    H222921   3.689   4.934   2.803  0.4327 -0.6437 -0.0107
 7653TIP3   OH222922   3.994   0.014   2.229  0.0678 -0.2351  0.4945
 7653TIP3    H122923   4.082  -0.010   2.199  0.1733  2.0575 -1.3138
 7653TIP3    H222924   4.008   0.077   2.299 -0.1335 -0.1072  0.4217
 7654TIP3   OH222925   6.654   4.235   0.411  0.4311  0.1928 -0.0291
 7654TIP3    H122926   6.741   4.269   0.431  0.6337 -0.6288  0.5310
 7654TIP3    H222927   6.660   4.141   0.426 -0.6823  0.1798  0.4706
 7655TIP3   OH222928   7.048   1.187   5.850 -0.3163 -0.4448 -0.1210
 7655TIP3    H122929   6.968   1.224   5.888  0.1393  2.1556 -1.4722
 7655TIP3    H222930   7.112   1.259   5.854  2.0136 -2.4213  0.8979
 7656TIP3   OH222931   1.568   1.385   4.998 -0.2076  0.6365 -0.2574
 7656TIP3    H122932   1.561   1.418   4.909  2.7174 -0.3712 -0.9917
 7656TIP3    H222933   1.488   1.336   5.013 -0.7914  0.8977 -2.2903
 7657TIP3   OH222934   5.946   4.063   5.135 -0.3477 -0.0186  0.6018
 7657TIP3    H122935   5.864   4.095   5.099  0.5171  2.4109  0.5828
 7657TIP3    H222936   5.990   4.021   5.061 -1.5841 -1.4648  0.6512
 7658TIP3   OH222937   6.960   2.469   0.651  0.4084 -0.4647 -0.5825
 7658TIP3    H122938   6.939   2.401   0.715  0.9358 -0.6231 -0.5702
 7658TIP3    H222939   6.875   2.499   0.620  0.1628 -1.0300 -0.4832
 7659TIP3   OH222940   1.137   5.214   1.052 -0.1371  0.0328 -0.0508
 7659TIP3    H122941   1.044   5.232   1.040 -0.1721 -1.1736 -2.1157
 7659TIP3    H222942   1.142   5.171   1.138 -1.3386  0.8726  0.4720
 7660TIP3   OH222943   2.072   2.356   3.374  0.6979  0.1929 -0.3036
 7660TIP3    H122944   2.125   2.276   3.374 -0.6308 -0.7265 -1.0309
 7660TIP3    H222945   2.057   2.375   3.466  1.5239 -0.0499 -0.1102
 7661TIP3   OH222946   4.819   4.397   3.022  0.1766  0.0472 -0.1352
 7661TIP3    H122947   4.791   4.345   2.946  0.8784  0.2807 -0.5576
 7661TIP3    H222948   4.740   4.446   3.047  0.2072  0.7691 -1.3743
 7662TIP3   OH222949   3.518   0.938   2.069  0.0924 -0.4365  0.6696
 7662TIP3    H122950   3.581   1.007   2.087 -0.5988  0.6168 -0.7205
 7662TIP3    H222951   3.469   0.928   2.150  0.9220 -0.0673  1.2266
 7663TIP3   OH222952   6.748   3.113   0.488  0.8585  0.9868 -0.2966
 7663TIP3    H122953   6.746   3.049   0.417 -2.0437  0.2406  0.3427
 7663TIP3    H222954   6.736   3.198   0.445  0.4965  0.6750 -0.8134
 7664TIP3   OH222955   2.649   1.078   1.615  0.1271 -0.2016 -0.1057
 7664TIP3    H122956   2.672   0.985   1.615  2.4215  0.3165 -0.4539
 7664TIP3    H222957   2.606   1.091   1.530 -1.4027 -1.1573  0.4716
 7665TIP3   OH222958   2.342   5.651   0.944  0.6027 -0.0982  0.0361
 7665TIP3    H122959   2.299   5.569   0.968  0.1238 -0.3080 -1.4442
 7665TIP3    H222960   2.282   5.720   0.975 -0.3448 -0.3701 -1.1432
 7666TIP3   OH222961   2.923   2.004   3.457  0.0119 -0.6183 -0.4777
 7666TIP3    H122962   2.902   2.095   3.479 -1.0629 -0.6101 -1.4581
 7666TIP3    H222963   2.892   1.953   3.532  0.7463 -0.1898  0.1425
 7667TIP3   OH222964   0.251   5.157   4.236  0.3158  0.2590  0.4920
 7667TIP3    H122965   0.236   5.149   4.142 -0.8527  0.3231  0.6519
 7667TIP3    H222966   0.266   5.067   4.266  0.3002  0.1913  0.2971
 7668TIP3   OH222967   2.663   4.559   2.272 -0.5063  0.5071  0.8043
 7668TIP3    H122968   2.590   4.505   2.242 -0.2902  0.0591  1.0742
 7668TIP3    H222969   2.731   4.496   2.296  1.4925  0.8860 -3.0527
 7669TIP3   OH222970   1.921   5.523   4.020  0.3761 -0.1822 -0.5436
 7669TIP3    H122971   1.994   5.493   3.966  0.7355 -0.1348 -0.0882
 7669TIP3    H222972   1.956   5.597   4.069  0.2693 -0.6669  0.2874
 7670TIP3   OH222973   4.072   4.439   0.606  0.3249  0.1249 -0.0390
 7670TIP3    H122974   4.046   4.374   0.541 -1.6440  1.4622 -0.6641
 7670TIP3    H222975   4.149   4.482   0.568  1.0608 -1.1396 -0.0465
 7671TIP3   OH222976   3.586   4.074   4.557 -0.0251  0.6669  0.3443
 7671TIP3    H122977   3.507   4.128   4.566 -0.2260  0.4451 -0.0525
 7671TIP3    H222978   3.553   3.984   4.553  0.2664  0.5581  0.3898
 7672TIP3   OH222979   2.342   6.156   3.635  0.0235  0.4556  0.1637
 7672TIP3    H122980   2.413   6.100   3.666 -0.1484 -0.7000 -1.3894
 7672TIP3    H222981   2.386   6.226   3.587  0.1648  0.6973  0.6351
 7673TIP3   OH222982   0.682   5.179   2.896  0.5497 -0.1954 -0.2188
 7673TIP3    H122983   0.736   5.186   2.974 -0.0829  0.3223  0.1816
 7673TIP3    H222984   0.732   5.122   2.837  1.4217  0.1045  0.2215
 7674TIP3   OH222985   5.653   4.765   2.048  0.3108  0.1591 -0.2314
 7674TIP3    H122986   5.652   4.847   2.000  0.7690  1.1470  1.3494
 7674TIP3    H222987   5.564   4.732   2.042  0.2821  0.4147 -1.4479
 7675TIP3   OH222988   0.336   2.211   4.056 -0.2552  0.4980 -0.0453
 7675TIP3    H122989   0.321   2.223   4.150 -2.3080 -0.1936 -0.2405
 7675TIP3    H222990   0.338   2.299   4.021 -0.1994  0.7349  0.5350
 7676TIP3   OH222991   2.091   1.812   4.788  0.1956  0.0477  0.3247
 7676TIP3    H122992   2.033   1.869   4.738 -1.0835 -1.4730 -0.0069
 7676TIP3    H222993   2.095   1.853   4.875 -2.0476 -0.1898  0.6040
 7677TIP3   OH222994   4.152   2.958   1.212 -0.4759 -0.8383  0.4738
 7677TIP3    H122995   4.152   2.937   1.119  1.4110  1.8672 -0.2382
 7677TIP3    H222996   4.179   2.877   1.255 -2.0706 -2.3449 -1.1981
 7678TIP3   OH222997   1.521   1.473   4.746 -0.1865  0.7300  0.1004
 7678TIP3    H122998   1.437   1.517   4.756 -0.8347 -0.8478  2.3955
 7678TIP3    H222999   1.584   1.543   4.729 -1.7027  2.1134  0.0440
 7679TIP3   OH223000   5.418   6.236   3.120  0.1083 -0.5015  0.0656
 7679TIP3    H123001   5.380   6.150   3.140 -0.0270 -0.5785 -0.5067
 7679TIP3    H223002   5.349   6.298   3.142 -0.2123 -0.6157 -0.5950
 7680TIP3   OH223003   5.781   6.698   4.695  0.2641  0.0822 -0.3268
 7680TIP3    H123004   5.784   6.788   4.728  0.4483 -0.3764  0.9605
 7680TIP3    H223005   5.738   6.649   4.764  0.7752 -0.9508 -0.7225
 7681TIP3   OH223006   4.623   3.475   0.479 -0.4043  0.0948 -0.4944
 7681TIP3    H123007   4.662   3.562   0.488  0.1630 -0.3582  1.9356
 7681TIP3    H223008   4.579   3.460   0.562  0.1854 -2.2825 -0.5649
 7682TIP3   OH223009   4.818   2.666   2.053 -0.2455  0.0554 -0.5350
 7682TIP3    H123010   4.853   2.691   1.968 -0.5460 -1.4629 -1.1418
 7682TIP3    H223011   4.785   2.577   2.040 -0.1229 -0.2870  1.2171
 7683TIP3   OH223012   3.640   2.293   2.697 -0.7063  0.0663  0.4652
 7683TIP3    H123013   3.718   2.332   2.657 -0.8740  0.6714  0.7291
 7683TIP3    H223014   3.675   2.234   2.764 -0.4729  0.4399  0.6785
 7684TIP3   OH223015   2.338   3.775   3.601  0.1435 -0.5949 -0.5329
 7684TIP3    H123016   2.292   3.729   3.531 -0.9001  0.4307 -0.5414
 7684TIP3    H223017   2.323   3.723   3.679  0.0451 -0.9378 -0.7799
 7685TIP3   OH223018   5.753   4.007   5.884 -0.6977 -0.1779  0.1016
 7685TIP3    H123019   5.684   4.043   5.828 -1.2059  0.0154  0.8463
 7685TIP3    H223020   5.738   4.047   5.970  0.2705 -0.2256  0.3010
 7686TIP3   OH223021   5.914   2.731   3.702 -0.3513 -0.3190  0.8630
 7686TIP3    H123022   5.898   2.659   3.763  0.2798 -0.9899  0.2547
 7686TIP3    H223023   5.999   2.711   3.663 -0.8359 -0.0186 -0.3945
 7687TIP3   OH223024   7.142   4.844   1.962  0.6764  0.6240 -0.5197
 7687TIP3    H123025   7.048   4.822   1.964  0.7514 -0.4048 -3.4404
 7687TIP3    H223026   7.144   4.939   1.971 -0.3614  0.4843  2.4430
 7688TIP3   OH223027   3.437   3.917   0.793  0.1694  0.3122 -0.0030
 7688TIP3    H123028   3.368   3.902   0.728 -0.2612  1.6528  0.1212
 7688TIP3    H223029   3.493   3.840   0.786 -1.2070 -0.7084 -0.2585
 7689TIP3   OH223030   4.115   2.624   5.158 -0.5470  0.1487  0.2823
 7689TIP3    H123031   4.021   2.603   5.156 -0.7218  0.9392 -0.6850
 7689TIP3    H223032   4.156   2.545   5.191 -1.4780 -0.5621 -0.1921
 7690TIP3   OH223033   0.584   4.314   2.660  0.2576 -0.4434  0.2107
 7690TIP3    H123034   0.660   4.319   2.718  0.0084 -1.8991  0.7024
 7690TIP3    H223035   0.619   4.280   2.578  0.2012 -0.8342  0.3442
 7691TIP3   OH223036   4.702   5.661   1.944  0.5680 -0.2641  0.1044
 7691TIP3    H123037   4.614   5.627   1.960 -0.9934  2.4120 -1.8669
 7691TIP3    H223038   4.733   5.613   1.868 -0.3062  0.4726 -0.7458
 7692TIP3   OH223039   4.864   1.179   0.587 -0.0727 -0.2941 -0.0739
 7692TIP3    H123040   4.886   1.137   0.504  0.4095 -1.9671  0.8625
 7692TIP3    H223041   4.806   1.252   0.562 -0.2376 -0.9798 -1.8362
 7693TIP3   OH223042   1.176   3.379   5.143 -0.1538  0.3222  0.5467
 7693TIP3    H123043   1.090   3.336   5.137 -0.4196  0.9463 -0.5055
 7693TIP3    H223044   1.156   3.469   5.170  0.3138  0.0753  1.7681
 7694TIP3   OH223045   0.086   3.741   4.648  0.0703 -0.2611 -0.2745
 7694TIP3    H123046   0.111   3.657   4.611  1.8679  0.8647 -1.8016
 7694TIP3    H223047   0.156   3.801   4.622 -1.1039  1.7024  0.8148
 7695TIP3   OH223048   4.603   3.888   2.957 -0.0224 -0.1843 -0.2925
 7695TIP3    H123049   4.626   3.922   3.043  0.3850 -0.2444 -0.3750
 7695TIP3    H223050   4.686   3.886   2.909 -0.0201 -1.3732 -0.2608
 7696TIP3   OH223051   5.610   6.633   0.289 -0.4486 -0.3544 -0.0138
 7696TIP3    H123052   5.661   6.698   0.336 -1.2638 -0.6289  1.3115
 7696TIP3    H223053   5.674   6.567   0.262  0.7684  1.9052 -3.2518
 7697TIP3   OH223054   3.241   5.811   0.689 -0.3480  0.4131 -0.0298
 7697TIP3    H123055   3.288   5.866   0.752  0.2081  1.7136 -1.5279
 7697TIP3    H223056   3.307   5.749   0.658  1.0963  3.3007 -3.4034
 7698TIP3   OH223057   0.851   1.503   2.066  0.3450  0.0057  0.0303
 7698TIP3    H123058   0.787   1.574   2.075 -1.2641 -1.3833  0.2164
 7698TIP3    H223059   0.936   1.544   2.080 -0.5798  1.7726  0.7008
 7699TIP3   OH223060   2.732   2.648   4.134 -0.7394  0.1338  0.2238
 7699TIP3    H123061   2.811   2.595   4.128 -1.4166 -0.8577 -0.2368
 7699TIP3    H223062   2.738   2.709   4.060 -0.5633 -0.1466  0.0074
 7700TIP3   OH223063   1.010   5.647   2.606 -0.1325 -0.0429  0.1723
 7700TIP3    H123064   1.064   5.587   2.658  0.4603  1.6591  1.6329
 7700TIP3    H223065   1.067   5.724   2.593 -0.6625  0.0162 -2.1112
 7701TIP3   OH223066   6.247   3.117   5.137 -0.6362  0.3300 -0.4478
 7701TIP3    H123067   6.186   3.098   5.208 -0.0195  1.8902  0.5638
 7701TIP3    H223068   6.260   3.033   5.092 -0.2035 -0.9684  1.9609
 7702TIP3   OH223069   2.941   0.645   5.090 -0.0068  0.0218 -0.2765
 7702TIP3    H123070   2.978   0.566   5.130 -0.2365  0.0635  0.0210
 7702TIP3    H223071   3.013   0.681   5.038  0.8819  0.9247  1.4701
 7703TIP3   OH223072   3.474   4.220   0.179  0.3146 -0.1574 -0.0171
 7703TIP3    H123073   3.488   4.156   0.110 -1.2306 -0.7358  0.1506
 7703TIP3    H223074   3.558   4.265   0.189  1.7096 -2.7226  0.4392
 7704TIP3   OH223075   1.906   6.625   4.514  0.3322  0.2649  0.9750
 7704TIP3    H123076   2.001   6.619   4.507  0.3328  0.8374  0.3815
 7704TIP3    H223077   1.891   6.709   4.557  0.1087 -0.1276  1.6800
 7705TIP3   OH223078   0.983   2.661   3.245  0.6585  0.3003  0.0983
 7705TIP3    H123079   0.965   2.594   3.311 -1.0965  1.1301  0.5158
 7705TIP3    H223080   0.912   2.724   3.254  1.7706  1.7663 -0.8981
 7706TIP3   OH223081   3.083   5.463   2.102  0.9072 -0.0007  0.2186
 7706TIP3    H123082   3.159   5.492   2.153  1.2169 -0.4233  0.0070
 7706TIP3    H223083   3.118   5.394   2.045  0.4669  0.1420 -0.2283
 7707TIP3   OH223084   6.948   6.788   3.404 -0.2081  0.1306  0.4049
 7707TIP3    H123085   7.015   6.738   3.357  0.0713  0.1543  0.7757
 7707TIP3    H223086   6.886   6.815   3.336  0.0471 -0.0680  0.0919
 7708TIP3   OH223087   1.816   6.392   1.529  0.1284  0.2481 -0.7280
 7708TIP3    H123088   1.776   6.314   1.492 -0.6641  0.7247 -0.9055
 7708TIP3    H223089   1.742   6.451   1.546  0.3721 -0.1325  2.1452
 7709TIP3   OH223090   3.832   1.802   0.149 -0.1003  0.0999 -0.3637
 7709TIP3    H123091   3.888   1.782   0.223 -0.6335 -0.9256 -0.2150
 7709TIP3    H223092   3.874   1.760   0.074 -0.5239 -0.4559 -0.2968
 7710TIP3   OH223093   1.123   1.058   4.244  0.1776 -0.1689  0.1218
 7710TIP3    H123094   1.036   1.096   4.251 -0.3789 -1.6299  1.9410
 7710TIP3    H223095   1.182   1.133   4.234 -1.3338  0.7834 -2.0874
 7711TIP3   OH223096   3.949   2.077   0.624 -0.2435 -0.2891 -0.1164
 7711TIP3    H123097   4.012   2.115   0.686  0.4876 -1.1627 -0.3081
 7711TIP3    H223098   3.965   2.123   0.542  0.7445 -1.0854 -0.3884
 7712TIP3   OH223099   2.828   2.516   3.092 -0.3403  0.2583 -0.0443
 7712TIP3    H123100   2.842   2.611   3.084  0.9489 -0.0491 -2.7372
 7712TIP3    H223101   2.892   2.489   3.158 -0.7004  1.2254  0.7401
 7713TIP3   OH223102   0.999   6.578   0.115 -0.1367  0.3987 -0.0478
 7713TIP3    H123103   1.053   6.651   0.085 -0.8163  1.1758  0.5851
 7713TIP3    H223104   1.058   6.503   0.113  1.5183  1.5110  2.2444
 7714TIP3   OH223105   4.073   0.818   1.340  0.3282 -0.6483 -0.3506
 7714TIP3    H123106   4.119   0.807   1.422 -2.4170 -0.8716  1.2998
 7714TIP3    H223107   4.003   0.881   1.360 -1.5602 -2.1024 -1.9700
 7715TIP3   OH223108   6.043   3.094   0.074 -0.1342  0.2945 -0.4846
 7715TIP3    H123109   6.018   3.054   0.158 -1.2831 -1.0069 -1.4021
 7715TIP3    H223110   6.028   3.188   0.087  0.7103  0.2387  1.0910
 7716TIP3   OH223111   3.225   3.665   1.084  0.0912  0.3030 -0.8269
 7716TIP3    H123112   3.214   3.613   1.004  1.0454  1.5611 -1.8207
 7716TIP3    H223113   3.315   3.698   1.079  0.2061  0.3422  0.8295
 7717TIP3   OH223114   2.263   4.824   1.102 -0.2825  0.3899  0.0883
 7717TIP3    H123115   2.187   4.870   1.067  0.6635  1.3556 -0.7811
 7717TIP3    H223116   2.238   4.732   1.103 -1.2212  0.6196 -0.8243
 7718TIP3   OH223117   3.003   2.553   4.130 -0.0702  0.1672  0.1918
 7718TIP3    H123118   3.016   2.645   4.109  1.4959  0.3021  1.5376
 7718TIP3    H223119   3.085   2.510   4.106 -0.4996 -0.7347  0.2928
 7719TIP3   OH223120   1.806   5.545   4.349 -0.6564 -0.1749 -0.0223
 7719TIP3    H123121   1.717   5.518   4.372 -1.5135  3.5572  1.7664
 7719TIP3    H223122   1.857   5.532   4.429  0.3429 -1.6635 -0.8408
 7720TIP3   OH223123   3.390   4.921   0.499 -0.2856  0.3781  0.4835
 7720TIP3    H123124   3.451   4.939   0.570 -0.8689  1.3887  0.7535
 7720TIP3    H223125   3.363   4.830   0.513  0.9975 -0.0182  0.4645
 7721TIP3   OH223126   3.785   5.304   0.976  0.6197  0.4454 -0.4929
 7721TIP3    H123127   3.841   5.378   0.954  0.3108  0.5959 -0.7764
 7721TIP3    H223128   3.722   5.339   1.039  0.4388  0.4382 -0.6690
 7722TIP3   OH223129   5.097   4.789   1.787 -0.0849  0.0066 -0.0405
 7722TIP3    H123130   5.064   4.876   1.810 -0.4621 -0.8214  3.1651
 7722TIP3    H223131   5.192   4.799   1.784 -0.2032  0.8496 -1.4849
 7723TIP3   OH223132   4.528   0.108   3.047  0.0175 -0.0107  0.4455
 7723TIP3    H123133   4.577   0.069   2.975  1.3091 -0.7500  1.6729
 7723TIP3    H223134   4.436   0.090   3.026  0.4202 -1.0676 -0.5354
 7724TIP3   OH223135   6.739   2.656   2.820  0.7724  0.3949  0.0945
 7724TIP3    H123136   6.653   2.619   2.800  0.7121  1.5235 -2.0667
 7724TIP3    H223137   6.719   2.737   2.867  0.7155  0.0063  0.7452
 7725TIP3   OH223138   2.018   0.181   2.885  0.2790  0.4270  0.2773
 7725TIP3    H123139   1.944   0.160   2.827  0.7186 -0.4451  0.0155
 7725TIP3    H223140   1.996   0.137   2.968 -0.6962  2.2593  1.0574
 7726TIP3   OH223141   0.805   6.517   1.846 -0.0233 -0.2995 -0.3409
 7726TIP3    H123142   0.728   6.505   1.789 -0.3383 -1.8982  0.3821
 7726TIP3    H223143   0.811   6.612   1.857 -0.7620 -0.0245 -1.9309
 7727TIP3   OH223144   0.143   0.838   0.645  0.0118  1.0158 -0.0616
 7727TIP3    H123145   0.148   0.833   0.741  2.0979 -2.5151 -0.1612
 7727TIP3    H223146   0.093   0.917   0.628  0.4100  2.3776  3.9107
 7728TIP3   OH223147   0.100   5.169   4.670 -0.0866  0.3056 -0.3315
 7728TIP3    H123148   0.179   5.134   4.710  1.2615  1.5065 -1.8066
 7728TIP3    H223149   0.028   5.130   4.720  1.4390  0.3314  2.0318
 7729TIP3   OH223150   0.129   3.089   4.729 -0.2797 -0.3843 -0.4302
 7729TIP3    H123151   0.066   3.148   4.770  0.3737 -0.8552  1.3523
 7729TIP3    H223152   0.076   3.031   4.674 -1.3669 -0.4974  0.6908
 7730TIP3   OH223153   4.090   2.148   5.103  0.3207  0.2490 -0.1737
 7730TIP3    H123154   4.012   2.202   5.108  0.3234  0.6114 -2.7739
 7730TIP3    H223155   4.162   2.209   5.091  0.4979 -0.2320 -1.7187
 7731TIP3   OH223156   5.243   5.509   2.147 -0.4416 -0.4004  0.0986
 7731TIP3    H123157   5.157   5.479   2.119  0.5410 -2.2171 -1.1832
 7731TIP3    H223158   5.252   5.477   2.237 -1.1071 -0.1351  0.2653
 7732TIP3   OH223159   1.457   0.880   2.112  0.2191  0.3959  0.5509
 7732TIP3    H123160   1.392   0.819   2.079  0.1086  0.6910  0.2254
 7732TIP3    H223161   1.443   0.960   2.062 -0.2308  0.9916  1.6007
 7733TIP3   OH223162   1.247   6.541   4.157 -0.4154 -0.0995 -0.6764
 7733TIP3    H123163   1.173   6.602   4.157 -0.6100 -0.3271  0.3726
 7733TIP3    H223164   1.302   6.570   4.084 -0.7647  1.0083 -0.5101
 7734TIP3   OH223165   6.085   5.219   0.099  0.3695 -0.6979  0.1374
 7734TIP3    H123166   6.096   5.174   0.183 -1.9281 -1.9234 -0.1625
 7734TIP3    H223167   6.003   5.186   0.064 -0.0529  1.7302 -1.4097
 7735TIP3   OH223168   0.058   6.268   4.336 -0.5411  0.1558 -0.0917
 7735TIP3    H123169   0.039   6.177   4.313 -1.9211  0.5749 -0.6980
 7735TIP3    H223170  -0.028   6.306   4.356 -0.0740  1.5045 -0.5493
 7736TIP3   OH223171   0.840   4.425   3.861  0.4961  0.1458 -0.0668
 7736TIP3    H123172   0.818   4.518   3.861 -0.5272 -0.0849  0.6587
 7736TIP3    H223173   0.787   4.387   3.931  0.9327 -0.9815 -0.3200
 7737TIP3   OH223174   0.860   6.600   5.172 -0.2703  0.3820  0.2477
 7737TIP3    H123175   0.851   6.651   5.252  0.9786  0.3184  0.4516
 7737TIP3    H223176   0.949   6.620   5.141 -0.5283 -0.0484 -0.7947
 7738TIP3   OH223177   2.388   4.494   0.578 -0.2157 -0.4959  0.0257
 7738TIP3    H123178   2.445   4.510   0.654  1.7435 -1.5533 -1.1395
 7738TIP3    H223179   2.433   4.538   0.506 -0.3392 -2.1931 -1.1228
 7739TIP3   OH223180   1.461   6.753   3.492 -0.4309  0.2353  0.3660
 7739TIP3    H123181   1.472   6.661   3.516  1.2628  0.7073  1.5968
 7739TIP3    H223182   1.523   6.765   3.419  1.6685  1.0544  2.1777
 7740TIP3   OH223183   1.787   5.109   3.940  0.0713  0.8369 -0.0600
 7740TIP3    H123184   1.856   5.175   3.937  0.9743 -0.0809 -0.1373
 7740TIP3    H223185   1.822   5.040   3.996 -0.3693 -0.1027 -0.9043
 7741TIP3   OH223186   5.111   4.624   0.991  0.2739  0.0741 -0.3337
 7741TIP3    H123187   5.131   4.628   0.897  0.9702 -0.2646 -0.2027
 7741TIP3    H223188   5.133   4.711   1.024 -0.1494  0.2533 -0.5135
 7742TIP3   OH223189   5.281   2.065   4.216 -0.0819  0.3168 -0.0546
 7742TIP3    H123190   5.238   2.145   4.187  0.9057  1.3808  1.2632
 7742TIP3    H223191   5.219   2.024   4.276 -1.1020 -0.5985 -1.6747
 7743TIP3   OH223192   4.394   6.428   0.444  0.6820  0.5048 -0.3267
 7743TIP3    H123193   4.438   6.481   0.510  0.4227 -0.1161  0.3581
 7743TIP3    H223194   4.344   6.491   0.392  0.6941  0.9731  0.2161
 7744TIP3   OH223195   5.621   3.234   5.184  0.2055  0.2273 -0.0009
 7744TIP3    H123196   5.579   3.307   5.139 -0.9238 -1.1523 -1.2809
 7744TIP3    H223197   5.549   3.183   5.221  0.9185 -0.6475  0.2286
 7745TIP3   OH223198   7.189   6.348   2.190 -0.2313  0.0611  0.6507
 7745TIP3    H123199   7.226   6.294   2.260 -2.2452  1.2719  2.8054
 7745TIP3    H223200   7.130   6.290   2.143 -0.3456 -0.3015  1.2319
 7746TIP3   OH223201   0.377   4.479   4.061 -0.2238  0.6669 -0.6319
 7746TIP3    H123202   0.327   4.407   4.022  0.0456 -0.5304  1.1326
 7746TIP3    H223203   0.463   4.442   4.079 -0.3743  1.1080  1.1902
 7747TIP3   OH223204   0.761   2.648   2.542 -0.1077 -0.0369  0.1550
 7747TIP3    H123205   0.741   2.643   2.636 -0.8301 -1.4492 -0.0484
 7747TIP3    H223206   0.848   2.607   2.534  0.6188  1.4100  0.3735
 7748TIP3   OH223207   6.548   3.961   4.700  0.4155  0.1089  0.1814
 7748TIP3    H123208   6.500   4.032   4.741 -4.3156 -2.9301  0.6106
 7748TIP3    H223209   6.484   3.915   4.646  3.7354 -2.4948 -2.0127
 7749TIP3   OH223210   3.411   2.419   2.787 -0.3261 -0.1370 -0.1930
 7749TIP3    H123211   3.500   2.388   2.776 -0.5724 -0.7269 -0.5241
 7749TIP3    H223212   3.368   2.402   2.703 -0.1518  2.1840 -0.8193
 7750TIP3   OH223213   6.210   6.037   5.383  0.3721 -0.2832 -0.0696
 7750TIP3    H123214   6.199   6.129   5.408  1.7757 -0.2859  0.6197
 7750TIP3    H223215   6.156   5.989   5.445 -0.3816  0.0574 -0.4394
 7751TIP3   OH223216   3.358   6.200   2.332  0.6371 -0.2186 -0.2590
 7751TIP3    H123217   3.296   6.162   2.270  0.0227  0.1517  0.1112
 7751TIP3    H223218   3.416   6.254   2.279 -1.7990  2.6561 -0.2456
 7752TIP3   OH223219   5.757   6.284   2.645  0.1885 -0.2752  0.6152
 7752TIP3    H123220   5.812   6.235   2.583 -0.0181  1.0415 -0.6690
 7752TIP3    H223221   5.756   6.230   2.724  2.0108 -1.1075  0.1221
 7753TIP3   OH223222   4.685   4.496   4.914  0.6506  0.2244  0.3365
 7753TIP3    H123223   4.668   4.474   4.822 -1.7576 -0.1619  0.8087
 7753TIP3    H223224   4.705   4.411   4.955  0.2744  0.1947  0.4554
 7754TIP3   OH223225   1.554   0.436   2.657 -0.5429  0.3377  0.1774
 7754TIP3    H123226   1.469   0.458   2.618 -1.5138 -2.6423  0.3379
 7754TIP3    H223227   1.561   0.495   2.733 -0.6263  3.2222 -1.8938
 7755TIP3   OH223228   6.070   3.114   5.368  0.3390 -0.3494 -0.9542
 7755TIP3    H123229   5.996   3.171   5.347 -0.0898 -0.7859 -0.6447
 7755TIP3    H223230   6.030   3.029   5.389  0.8970 -0.4651 -0.3308
 7756TIP3   OH223231   0.578   4.857   5.371 -0.7160  0.4574  0.6163
 7756TIP3    H123232   0.483   4.865   5.368 -0.9670 -2.0488 -0.5564
 7756TIP3    H223233   0.600   4.804   5.295  1.4002 -0.8648  2.0509
 7757TIP3   OH223234   1.848   0.704   1.424  0.7140 -0.0874  0.0656
 7757TIP3    H123235   1.838   0.689   1.330 -2.3882  0.9981  0.1110
 7757TIP3    H223236   1.870   0.618   1.459  1.9817 -0.5061 -1.6242
 7758TIP3   OH223237   6.741   1.365   4.024  0.4798  0.3892 -0.1834
 7758TIP3    H123238   6.735   1.385   4.118 -1.1082  1.3406 -0.4617
 7758TIP3    H223239   6.825   1.319   4.016 -0.2124 -1.4451  1.9950
 7759TIP3   OH223240   0.154   0.029   2.887 -0.4125 -0.1594 -0.3502
 7759TIP3    H123241   0.146   0.009   2.794  0.7297 -1.7129 -0.1463
 7759TIP3    H223242   0.063   0.041   2.917 -0.9257 -1.4641 -1.2893
 7760TIP3   OH223243   4.825   2.973   4.477  0.0259 -0.8428  0.3802
 7760TIP3    H123244   4.834   2.950   4.384 -0.8949  1.1844 -0.2756
 7760TIP3    H223245   4.764   3.047   4.477  0.2033 -0.6431  2.5925
 7761TIP3   OH223246   0.581   4.253   0.541 -0.1082  1.0193  0.0983
 7761TIP3    H123247   0.506   4.293   0.585 -0.5863 -0.4117  0.6777
 7761TIP3    H223248   0.543   4.178   0.495  0.9586  0.2700  0.3993
 7762TIP3   OH223249   3.187   5.980   1.383 -0.4038  0.0399 -0.9186
 7762TIP3    H123250   3.239   5.985   1.464 -0.7994 -0.9919 -0.5750
 7762TIP3    H223251   3.250   5.999   1.313  0.2079 -0.1858 -0.4425
 7763TIP3   OH223252   0.202   4.208   2.896  0.1736 -0.0316  0.5758
 7763TIP3    H123253   0.145   4.232   2.823  0.5002 -0.8112  0.0534
 7763TIP3    H223254   0.147   4.152   2.952 -0.3750  1.3138  1.4448
 7764TIP3   OH223255   4.642   1.017   1.822 -0.3457 -0.2540  0.1045
 7764TIP3    H123256   4.727   1.053   1.846 -0.4087 -0.3151  0.4190
 7764TIP3    H223257   4.600   1.086   1.771  0.1014 -0.4190 -0.5101
 7765TIP3   OH223258   6.839   3.242   4.858 -0.1754 -0.2770  0.1759
 7765TIP3    H123259   6.747   3.216   4.866 -0.3657  0.2790 -0.1363
 7765TIP3    H223260   6.856   3.293   4.938  0.2429 -1.4683  0.8646
 7766TIP3   OH223261   6.192   1.479   3.043  0.5022 -0.3463  0.2117
 7766TIP3    H123262   6.269   1.446   3.089  1.5572  0.4837 -0.8760
 7766TIP3    H223263   6.132   1.405   3.040  1.3520 -1.0886  0.8863
 7767TIP3   OH223264   5.780   4.808   3.711  0.3773  1.0505  0.7549
 7767TIP3    H123265   5.810   4.776   3.796 -1.5335  1.6474  1.7232
 7767TIP3    H223266   5.742   4.731   3.668 -0.6139  1.1530  1.4013
 7768TIP3   OH223267   6.801   1.729   3.217  0.5536 -0.1893 -0.0064
 7768TIP3    H123268   6.862   1.748   3.147  0.4488 -0.2712 -0.1211
 7768TIP3    H223269   6.812   1.635   3.234  1.2886  0.0279  0.7655
 7769TIP3   OH223270   6.034   1.178   2.178 -0.2963  0.4122 -0.1580
 7769TIP3    H123271   6.106   1.239   2.193 -0.7859  0.5345  2.0312
 7769TIP3    H223272   5.961   1.233   2.150 -0.1291  0.5563 -0.3089
 7770TIP3   OH223273   4.556   3.765   0.146 -0.0423 -0.2348 -0.3264
 7770TIP3    H123274   4.507   3.786   0.067  0.4533 -2.5801 -1.3222
 7770TIP3    H223275   4.647   3.783   0.123 -0.0927  1.6763  0.6869
 7771TIP3   OH223276   1.325   5.278   4.054  0.3004 -0.1979  0.0189
 7771TIP3    H123277   1.395   5.213   4.066  0.2469 -0.2721 -0.0695
 7771TIP3    H223278   1.263   5.235   3.995 -0.5637 -0.7284  1.2647
 7772TIP3   OH223279   3.279   0.114   3.395 -0.2905 -0.1325  0.4552
 7772TIP3    H123280   3.266   0.208   3.406 -0.0850 -0.1046  0.4619
 7772TIP3    H223281   3.197   0.083   3.355 -0.4631  0.0045  0.6945
 7773TIP3   OH223282   1.262   2.210   4.693  0.5258  0.8051  0.3654
 7773TIP3    H123283   1.295   2.230   4.606 -0.8271  1.7642  0.0377
 7773TIP3    H223284   1.315   2.264   4.752 -0.4704  2.4107 -0.1587
 7774TIP3   OH223285   4.697   4.172   2.881 -0.1445  0.0503  0.1430
 7774TIP3    H123286   4.768   4.117   2.847 -0.0051  1.5637 -2.2194
 7774TIP3    H223287   4.620   4.147   2.831 -0.2272  1.5033 -0.5131
 7775TIP3   OH223288   6.343   1.596   2.298  0.3603  0.0131 -1.0788
 7775TIP3    H123289   6.357   1.526   2.234  0.6080 -0.2113 -0.7839
 7775TIP3    H223290   6.285   1.558   2.363  0.5329  0.0630 -0.8923
 7776TIP3   OH223291   6.794   6.640   2.493  0.1452  0.2991  0.5530
 7776TIP3    H123292   6.711   6.646   2.540  1.0885  1.8503  2.1432
 7776TIP3    H223293   6.818   6.731   2.474  2.4963  0.0969  2.0991
 7777TIP3   OH223294   4.236   0.770   5.406  0.4358  0.1946 -0.2764
 7777TIP3    H123295   4.253   0.759   5.312  1.9499  1.2949 -0.1683
 7777TIP3    H223296   4.213   0.862   5.415 -2.9612 -0.5377  0.0499
 7778TIP3   OH223297   6.776   0.847   5.664 -0.0672 -0.1610  0.2315
 7778TIP3    H123298   6.698   0.887   5.702  0.6114  0.1870  1.3304
 7778TIP3    H223299   6.749   0.759   5.640 -1.0387  0.2686 -0.2689
 7779TIP3   OH223300   1.132   2.672   4.966  0.3971  0.0102 -0.4700
 7779TIP3    H123301   1.202   2.725   5.004  0.6884  0.9889 -2.2455
 7779TIP3    H223302   1.145   2.584   5.001  1.9708  0.3829 -0.0704
 7780TIP3   OH223303   2.836   2.499   1.079 -0.3995 -0.1534  0.0510
 7780TIP3    H123304   2.774   2.467   1.145  0.0698 -2.0417 -0.3679
 7780TIP3    H223305   2.802   2.585   1.055 -1.1636  0.1431  1.9884
 7781TIP3   OH223306   4.766   6.009   5.017 -0.7334  0.1598  0.0877
 7781TIP3    H123307   4.700   6.063   5.061 -0.3929 -0.6768  1.7309
 7781TIP3    H223308   4.817   5.971   5.089  0.6033 -0.3798 -1.0941
 7782TIP3   OH223309   4.448   2.226   3.620  0.2974 -0.4905 -0.6100
 7782TIP3    H123310   4.427   2.133   3.624  2.4588 -0.9792  1.1666
 7782TIP3    H223311   4.497   2.243   3.700  2.0714  1.6373 -2.0381
 7783TIP3   OH223312   3.694   4.624   2.996  0.3018  0.1913  0.1923
 7783TIP3    H123313   3.747   4.626   3.076 -1.0795  1.6887  1.1401
 7783TIP3    H223314   3.710   4.709   2.956  0.2308 -0.1820 -0.6440
 7784TIP3   OH223315   2.869   6.371   4.246  0.2995  0.1078 -0.1804
 7784TIP3    H123316   2.910   6.286   4.230 -0.0029 -0.1497  0.3707
 7784TIP3    H223317   2.826   6.361   4.331 -1.6350  0.0986 -1.0997
 7785TIP3   OH223318   3.862   5.583   1.108 -0.1655  0.1006  0.0367
 7785TIP3    H123319   3.790   5.539   1.153 -0.4566  0.3215 -0.2069
 7785TIP3    H223320   3.861   5.672   1.141  0.4320 -0.0690  0.5387
 7786TIP3   OH223321   1.038   5.837   4.926 -0.0964 -0.0633  0.0300
 7786TIP3    H123322   1.011   5.927   4.944  0.4225  0.4251 -1.4275
 7786TIP3    H223323   0.962   5.784   4.949 -0.1188  0.6382  1.7095
 7787TIP3   OH223324   0.046   2.926   1.247  0.4956  0.3582 -0.1772
 7787TIP3    H123325  -0.032   2.982   1.238 -0.3827 -1.0811 -2.4458
 7787TIP3    H223326   0.113   2.972   1.197  1.3886  1.8829  2.2352
 7788TIP3   OH223327   1.116   3.825   0.911  0.2752 -0.0965  0.2733
 7788TIP3    H123328   1.148   3.743   0.872 -0.5780 -0.8377  1.0697
 7788TIP3    H223329   1.037   3.799   0.959 -0.3818  1.3270 -0.0016
 7789TIP3   OH223330   3.940   3.783   1.645  0.1979 -0.1201  0.4829
 7789TIP3    H123331   3.923   3.793   1.739  1.4048 -1.5323  0.8977
 7789TIP3    H223332   3.873   3.836   1.602  1.1479  2.6530  2.1689
 7790TIP3   OH223333   0.515   4.217   5.742  0.3352  0.0277 -0.2262
 7790TIP3    H123334   0.548   4.305   5.723 -1.1237  1.0000  1.4558
 7790TIP3    H223335   0.464   4.193   5.664 -0.4340  1.2934 -0.1362
 7791TIP3   OH223336   2.773   6.595   5.299  0.2706  0.0747  0.2123
 7791TIP3    H123337   2.790   6.682   5.334 -1.7485  1.0978 -1.1470
 7791TIP3    H223338   2.764   6.539   5.376  0.6534  1.2456  1.1346
 7792TIP3   OH223339   4.195   6.522   0.244  0.0738  0.2602  0.0213
 7792TIP3    H123340   4.225   6.609   0.218  2.0583 -0.2127  0.5660
 7792TIP3    H223341   4.245   6.462   0.189 -1.2943 -0.5693 -0.3720
 7793TIP3   OH223342   5.237   6.464   4.234  0.2316  0.1050  0.4218
 7793TIP3    H123343   5.269   6.492   4.320  0.1230 -0.1902  0.5603
 7793TIP3    H223344   5.245   6.369   4.235 -0.7684  0.0059  0.5118
 7794TIP3   OH223345   4.407   5.669   2.018 -0.8465 -0.0149  0.2236
 7794TIP3    H123346   4.405   5.754   1.975 -1.8650 -1.2877 -2.5203
 7794TIP3    H223347   4.322   5.661   2.061 -1.5560 -0.3388 -1.1640
 7795TIP3   OH223348   5.081   1.595   2.624 -0.3213  0.3503 -0.0975
 7795TIP3    H123349   5.129   1.518   2.656  0.6468  0.5747 -0.9532
 7795TIP3    H223350   5.050   1.639   2.703 -2.4260 -1.8146  0.4302
 7796TIP3   OH223351   1.066   1.143   5.449 -0.3987  0.3628  0.2980
 7796TIP3    H123352   1.066   1.239   5.444 -1.8798  0.3314 -2.0228
 7796TIP3    H223353   1.135   1.116   5.389 -0.6367 -0.0194  0.1911
 7797TIP3   OH223354   2.857   1.595   0.493  0.5935 -0.0625 -0.1579
 7797TIP3    H123355   2.930   1.627   0.546  1.0588 -1.0473 -0.1668
 7797TIP3    H223356   2.814   1.529   0.549 -1.9586  2.3210  0.9226
 7798TIP3   OH223357   0.451   0.872   4.836  0.1053  0.2685 -0.7144
 7798TIP3    H123358   0.444   0.778   4.852  0.8878  0.1520 -1.0198
 7798TIP3    H223359   0.361   0.905   4.846  0.1121 -0.1851  1.4392
 7799TIP3   OH223360   0.372   1.577   1.811 -0.2213 -0.3027 -0.0562
 7799TIP3    H123361   0.451   1.581   1.758  0.7477  0.5963  1.3953
 7799TIP3    H223362   0.346   1.668   1.824 -0.0239 -0.4508  1.5767
 7800TIP3   OH223363   7.010   5.169   3.980 -0.2056  0.0564  0.1264
 7800TIP3    H123364   7.029   5.213   3.897  2.1049  1.7639  1.4478
 7800TIP3    H223365   7.048   5.081   3.970  0.3486  0.3604 -0.5040
 7801TIP3   OH223366   1.971   1.099   4.878  0.0382 -0.0242  0.3887
 7801TIP3    H123367   1.882   1.098   4.914 -0.4106  2.1418 -0.5380
 7801TIP3    H223368   2.023   1.143   4.945  0.0420  0.3527  0.1360
 7802TIP3   OH223369   2.590   2.659   0.387  0.0562  0.0001 -0.1485
 7802TIP3    H123370   2.614   2.660   0.294  0.4316  0.7327 -0.0568
 7802TIP3    H223371   2.577   2.751   0.409 -0.4605 -0.2037  0.4227
 7803TIP3   OH223372   1.716   0.753   3.692 -0.0786 -0.5128  0.2357
 7803TIP3    H123373   1.663   0.674   3.690 -0.4921 -0.2334 -1.1072
 7803TIP3    H223374   1.659   0.820   3.730 -0.0052 -0.6741  0.6285
 7804TIP3   OH223375   4.479   3.158   4.890 -0.0152  0.4885 -0.1797
 7804TIP3    H123376   4.456   3.172   4.982  1.8647  1.4133  0.1970
 7804TIP3    H223377   4.575   3.154   4.890 -0.0394 -1.5749 -1.8314
 7805TIP3   OH223378   4.318   6.416   0.013  0.2069  0.4072 -0.4103
 7805TIP3    H123379   4.406   6.415   0.050 -0.6691 -1.0422  1.8424
 7805TIP3    H223380   4.293   6.509   0.012  1.9098  0.9090 -1.6585
 7806TIP3   OH223381   1.189   2.772   0.157  0.7673  0.1311  0.2615
 7806TIP3    H123382   1.217   2.778   0.065  0.7498  3.4591  0.3604
 7806TIP3    H223383   1.127   2.700   0.158  1.1788 -0.3622 -2.2323
 7807TIP3   OH223384   3.447   5.984   4.285 -0.2663 -0.4172 -0.2062
 7807TIP3    H123385   3.401   6.061   4.253  0.4052 -0.5198 -1.4637
 7807TIP3    H223386   3.379   5.917   4.294 -0.7989  0.2210  0.5973
 7808TIP3   OH223387   6.089   0.371   1.155  0.7050 -0.1047 -0.0992
 7808TIP3    H123388   6.088   0.464   1.177  1.5845 -0.0938 -0.0609
 7808TIP3    H223389   6.116   0.327   1.235 -1.3087 -0.5728  0.3832
 7809TIP3   OH223390   4.274   2.525   1.121  0.0203  0.6742 -0.3193
 7809TIP3    H123391   4.257   2.435   1.147 -0.9844  0.6532 -0.9936
 7809TIP3    H223392   4.361   2.523   1.081  0.6849  0.3259  1.0945
 7810TIP3   OH223393   4.982   4.804   0.095 -0.1858 -0.6105  0.1359
 7810TIP3    H123394   4.917   4.848   0.149  0.1890 -1.1762  1.0831
 7810TIP3    H223395   5.032   4.750   0.157  0.7438 -0.7034 -0.6675
 7811TIP3   OH223396   6.108   4.789   3.397 -0.4654 -0.2773 -0.0733
 7811TIP3    H123397   6.173   4.778   3.466 -1.5037  1.1568  1.2145
 7811TIP3    H223398   6.117   4.712   3.342  3.4975  0.6321 -1.0083
 7812TIP3   OH223399   1.640   6.448   4.501  0.3322  0.4154 -0.6970
 7812TIP3    H123400   1.709   6.482   4.444  0.5018  0.9825 -0.1557
 7812TIP3    H223401   1.562   6.446   4.445  0.4316  1.2361 -0.8800
 7813TIP3   OH223402   4.978   0.335   3.963 -0.1903 -0.5328 -0.0191
 7813TIP3    H123403   4.964   0.421   3.924 -0.7535 -0.6822 -0.1579
 7813TIP3    H223404   4.904   0.283   3.932 -0.0401 -0.9667  0.3473
 7814TIP3   OH223405   0.178   6.732   0.269  0.0624 -0.3614 -0.0773
 7814TIP3    H123406   0.111   6.664   0.267 -1.3980  1.0254 -1.6231
 7814TIP3    H223407   0.169   6.771   0.355 -0.2586 -1.0039  0.1892
 7815TIP3   OH223408   6.887   2.181   2.814  0.3448  0.9571 -0.7649
 7815TIP3    H123409   6.953   2.168   2.746  1.8382  3.6348  0.0199
 7815TIP3    H223410   6.824   2.241   2.775 -0.7318 -0.2224 -0.9082
 7816TIP3   OH223411   5.108   4.423   0.351  0.0561  0.0678 -0.4414
 7816TIP3    H123412   5.037   4.360   0.355 -1.0453  1.3185  1.3426
 7816TIP3    H223413   5.165   4.400   0.425 -0.1422  0.8823 -0.0197
 7817TIP3   OH223414   3.331   6.059   1.134 -0.3932  0.3568 -0.5401
 7817TIP3    H123415   3.304   6.147   1.109 -0.2404  0.5813  0.0696
 7817TIP3    H223416   3.346   6.014   1.051  0.5532  1.2217 -0.8568
 7818TIP3   OH223417   0.492   4.037   4.601  0.3212 -0.2603  0.7655
 7818TIP3    H123418   0.498   4.112   4.660  0.5486 -0.1267  0.5735
 7818TIP3    H223419   0.562   4.050   4.537  0.6138 -0.8421  0.9598
 7819TIP3   OH223420   1.453   6.419   2.931 -0.0481 -0.1505 -0.0935
 7819TIP3    H123421   1.359   6.435   2.922  0.1944  2.2618  1.0517
 7819TIP3    H223422   1.466   6.402   3.024  0.7650  0.6251 -0.0530
 7820TIP3   OH223423   6.377   3.315   3.142 -0.1640  0.1099 -0.8118
 7820TIP3    H123424   6.292   3.346   3.111 -0.5776 -2.1881 -2.1803
 7820TIP3    H223425   6.357   3.237   3.194  1.0625  0.0512 -0.3832
 7821TIP3   OH223426   4.652   5.866   0.250 -0.1295  0.6566  0.2135
 7821TIP3    H123427   4.663   5.836   0.340  0.4382  1.1780  0.3234
 7821TIP3    H223428   4.642   5.961   0.257  1.4251  0.8899 -0.3666
 7822TIP3   OH223429   6.780   0.195   0.268 -0.2687 -0.1280  0.0400
 7822TIP3    H123430   6.730   0.186   0.187  0.5306  1.7620 -0.7346
 7822TIP3    H223431   6.719   0.235   0.329 -1.0403 -2.0523  0.5926
 7823TIP3   OH223432   4.038   4.590   0.989  0.0678  0.4098 -0.0302
 7823TIP3    H123433   4.080   4.671   0.959  0.6849 -0.3101 -1.2180
 7823TIP3    H223434   3.949   4.616   1.011 -0.1514  1.2069 -1.6624
 7824TIP3   OH223435   1.794   3.117   0.149  0.2202  0.3985  0.1040
 7824TIP3    H123436   1.702   3.133   0.126  0.2090 -0.7875 -0.7525
 7824TIP3    H223437   1.830   3.204   0.166 -0.5005  1.1253 -1.7561
 7825TIP3   OH223438   6.994   6.463   0.031  0.4644 -0.6364  0.4852
 7825TIP3    H123439   7.067   6.441   0.090  1.2471  0.0198 -0.2063
 7825TIP3    H223440   7.016   6.550  -0.003 -1.6688  0.5195  1.8191
 7826TIP3   OH223441   2.916   5.092   3.046  0.0950  0.6100 -0.1296
 7826TIP3    H123442   2.979   5.083   2.975  0.5861 -0.0174  0.3650
 7826TIP3    H223443   2.896   5.002   3.072  0.5002  0.8314  1.0181
 7827TIP3   OH223444   7.046   2.120   2.597  0.4935  0.0169 -0.3106
 7827TIP3    H123445   7.026   2.054   2.532  0.7967  0.1555 -0.5471
 7827TIP3    H223446   7.095   2.187   2.550 -0.5383  0.8311 -0.2655
 7828TIP3   OH223447   4.011   0.655   4.294  0.0232  0.2614 -0.3516
 7828TIP3    H123448   4.030   0.672   4.202  0.3567  0.5623 -0.2319
 7828TIP3    H223449   3.936   0.597   4.293 -1.1533  1.7212 -0.7991
 7829TIP3   OH223450   0.791   1.936   2.258  0.2383 -0.8627 -0.7682
 7829TIP3    H123451   0.871   1.890   2.284  1.1309  0.3143 -1.3481
 7829TIP3    H223452   0.801   1.950   2.164 -0.6074 -0.5858 -0.8252
 7830TIP3   OH223453   2.962   3.328   4.466  0.0266  0.0307  0.2700
 7830TIP3    H123454   3.024   3.316   4.394  1.1493  1.7614  0.8695
 7830TIP3    H223455   2.884   3.281   4.439  1.2267 -1.3182 -1.0085
 7831TIP3   OH223456   4.814   3.849   0.058 -0.5692 -0.3413  0.0522
 7831TIP3    H123457   4.782   3.852  -0.032 -1.1900  0.5116  0.2933
 7831TIP3    H223458   4.896   3.800   0.052  0.2549  1.0946 -1.2414
 7832TIP3   OH223459   3.106   0.539   4.754 -0.5661  0.0146  0.4741
 7832TIP3    H123460   3.089   0.600   4.681 -0.5759 -0.4953  0.0417
 7832TIP3    H223461   3.125   0.596   4.828  1.7494  0.5778 -0.4443
 7833TIP3   OH223462   3.604   4.247   5.409  0.7166  0.4243 -0.7109
 7833TIP3    H123463   3.613   4.303   5.332  5.0066  1.5750  0.3979
 7833TIP3    H223464   3.659   4.172   5.390 -0.3566 -0.6363  0.2194
 7834TIP3   OH223465   5.765   4.318   3.122  0.1431  0.3741  0.0212
 7834TIP3    H123466   5.810   4.354   3.046  0.6486 -1.8157 -0.7892
 7834TIP3    H223467   5.834   4.308   3.188  1.0733 -3.1336 -1.2744
 7835TIP3   OH223468   1.833   6.144   4.989  0.1295  0.3140 -0.4115
 7835TIP3    H123469   1.830   6.239   4.994 -0.2746  0.4357 -2.1362
 7835TIP3    H223470   1.745   6.115   5.014 -0.2716  0.5311 -1.5029
 7836TIP3   OH223471   3.851   1.762   1.086 -0.1685 -0.7411 -0.4682
 7836TIP3    H123472   3.879   1.846   1.123  0.4445 -0.1563 -2.1568
 7836TIP3    H223473   3.785   1.730   1.147 -1.8107  1.8707 -0.7028
 7837TIP3   OH223474   0.827   4.021   3.545  0.1194 -0.6735 -0.2749
 7837TIP3    H123475   0.825   3.930   3.515 -0.9215 -0.8851  0.4060
 7837TIP3    H223476   0.833   4.072   3.464  5.1601 -1.3517 -0.6716
 7838TIP3   OH223477   2.118   0.897   1.333  0.6947  1.0494  0.7521
 7838TIP3    H123478   2.176   0.890   1.256  0.6896 -0.5457  0.8497
 7838TIP3    H223479   2.177   0.919   1.405  0.9217  1.1502  0.5382
 7839TIP3   OH223480   5.455   4.345   1.275 -0.0595  0.6038 -0.6537
 7839TIP3    H123481   5.402   4.355   1.354 -1.9096 -1.4946 -1.5157
 7839TIP3    H223482   5.530   4.292   1.302  0.6536  1.9944  0.1807
 7840TIP3   OH223483   0.338   0.276   1.631 -0.8500 -0.6852 -0.3997
 7840TIP3    H123484   0.411   0.270   1.569  0.6189 -1.2890  1.3004
 7840TIP3    H223485   0.357   0.209   1.696 -0.3409  2.2070  2.6912
 7841TIP3   OH223486   7.113   4.772   1.291 -0.7370  0.1617 -0.3444
 7841TIP3    H123487   7.049   4.735   1.230 -0.1756 -3.2040  0.9124
 7841TIP3    H223488   7.064   4.787   1.371 -0.4776  0.0648 -0.1676
 7842TIP3   OH223489   6.343   5.023   0.571  0.1708 -0.9851 -0.2899
 7842TIP3    H123490   6.316   4.940   0.531  1.4520 -1.9247  0.6892
 7842TIP3    H223491   6.434   5.007   0.598 -0.3704 -0.1390  2.2423
 7843TIP3   OH223492   1.681   5.307   5.229  0.2042  0.4975  0.1441
 7843TIP3    H123493   1.680   5.337   5.320  0.3445  0.9510 -0.0025
 7843TIP3    H223494   1.590   5.313   5.200  0.4326  2.0763 -0.3015
 7844TIP3   OH223495   7.090   6.460   5.781 -0.0432 -0.9008 -0.2324
 7844TIP3    H123496   7.127   6.471   5.694 -0.3275  0.3317 -0.2133
 7844TIP3    H223497   6.999   6.488   5.772  0.3328  0.7868  0.8033
 7845TIP3   OH223498   6.696   3.801   4.266  0.5704 -0.3600  0.2183
 7845TIP3    H123499   6.696   3.716   4.223 -3.2754 -0.2383 -0.3187
 7845TIP3    H223500   6.680   3.781   4.358  0.3350 -0.2611  0.1993
 7846TIP3   OH223501   3.583   3.658   1.547  0.8295 -0.1272 -0.0229
 7846TIP3    H123502   3.642   3.732   1.535 -0.3595  0.7123 -0.9215
 7846TIP3    H223503   3.577   3.618   1.460  0.0359 -0.1437  0.0253
 7847TIP3   OH223504   6.376   3.579   4.280 -0.5467  0.0335  0.2491
 7847TIP3    H123505   6.364   3.605   4.189 -0.9529 -0.1174  0.2578
 7847TIP3    H223506   6.448   3.516   4.277  2.7544  3.4523  0.6204
 7848TIP3   OH223507   4.859   0.322   0.523 -0.1958  0.1876  0.0291
 7848TIP3    H123508   4.948   0.305   0.493  0.0457 -0.8570  1.2762
 7848TIP3    H223509   4.806   0.319   0.443  0.7025 -0.5440 -0.5577
 7849TIP3   OH223510   0.415   2.351   2.960  0.2947  0.1564 -0.6375
 7849TIP3    H123511   0.484   2.312   3.014 -0.1704  1.9446  1.3956
 7849TIP3    H223512   0.378   2.420   3.015 -2.6761 -0.2795 -1.9104
 7850TIP3   OH223513   1.149   1.349   5.847 -0.1177  0.2343  0.2069
 7850TIP3    H123514   1.214   1.406   5.805 -1.1641  1.9934  0.8540
 7850TIP3    H223515   1.100   1.407   5.905 -0.3105 -1.6368  2.0357
 7851TIP3   OH223516   1.946   5.401   5.155 -0.5294 -0.2193 -0.3347
 7851TIP3    H123517   1.874   5.341   5.175  0.6346 -1.5888 -0.1150
 7851TIP3    H223518   2.018   5.373   5.211  0.1503  1.2166 -0.4367
 7852TIP3   OH223519   6.548   1.597   1.586  0.2494  0.1395 -0.0109
 7852TIP3    H123520   6.554   1.644   1.503  0.3468 -0.4454 -0.3444
 7852TIP3    H223521   6.468   1.630   1.627  0.9621  1.4830  0.3347
 7853TIP3   OH223522   3.630   1.816   4.646 -0.0625  0.3771 -0.0804
 7853TIP3    H123523   3.569   1.787   4.577 -0.1516 -1.6749  0.7908
 7853TIP3    H223524   3.581   1.882   4.694 -1.6864 -1.2225  0.6020
 7854TIP3   OH223525   5.939   6.091   5.553  0.2516  0.4597 -0.0123
 7854TIP3    H123526   5.945   6.129   5.466  1.3328  0.8237  0.2093
 7854TIP3    H223527   5.852   6.117   5.585  0.8996  2.7030  0.0932
 7855TIP3   OH223528   3.503   2.502   2.067  0.9238  0.5604 -0.4393
 7855TIP3    H123529   3.462   2.587   2.083 -0.1064  0.2633 -1.4579
 7855TIP3    H223530   3.480   2.450   2.144 -1.3263  0.1552 -1.3096
 7856TIP3   OH223531   4.207   0.196   0.609  0.1951  0.3586  0.2973
 7856TIP3    H123532   4.259   0.257   0.661  0.4344  1.4267 -1.1276
 7856TIP3    H223533   4.182   0.246   0.531 -1.0104 -0.8597 -0.1378
 7857TIP3   OH223534   0.730   3.581   5.199  0.2074  0.7892 -0.3082
 7857TIP3    H123535   0.658   3.566   5.260  1.0612  1.2916  0.8639
 7857TIP3    H223536   0.808   3.580   5.254  0.9519  1.8655 -1.3123
 7858TIP3   OH223537   5.259   5.196   1.111  0.5239  0.0205 -0.4741
 7858TIP3    H123538   5.225   5.203   1.021 -0.5094 -1.2624 -0.2241
 7858TIP3    H223539   5.190   5.234   1.165  0.6752 -0.1700 -0.1456
 7859TIP3   OH223540   4.384   4.233   0.767  0.1109 -0.1742  0.2158
 7859TIP3    H123541   4.437   4.174   0.714  0.2602  0.2588 -0.1286
 7859TIP3    H223542   4.417   4.321   0.745 -0.1880  0.0437  0.6234
 7860TIP3   OH223543   7.037   5.627   4.438 -0.2139  0.0363 -0.1096
 7860TIP3    H123544   7.067   5.537   4.424  0.3061  0.4804 -2.2649
 7860TIP3    H223545   7.115   5.673   4.469 -0.7232 -0.4134  1.9671
 7861TIP3   OH223546   1.822   6.310   0.924 -0.4954  0.3218 -0.0457
 7861TIP3    H123547   1.823   6.226   0.879 -2.9710 -1.0944  2.2530
 7861TIP3    H223548   1.882   6.365   0.873 -0.8255 -1.9714 -3.2138
 7862TIP3   OH223549   5.748   5.605   3.033  0.0837 -0.1948 -0.1722
 7862TIP3    H123550   5.721   5.619   2.942  0.3487 -0.4652 -0.2922
 7862TIP3    H223551   5.681   5.650   3.084 -0.1952 -0.2398 -0.4930
 7863TIP3   OH223552   2.707   2.767   3.871 -0.3657 -0.2788 -0.2069
 7863TIP3    H123553   2.746   2.689   3.833 -0.7448 -1.0772  0.9762
 7863TIP3    H223554   2.735   2.839   3.814  0.7709 -1.1531 -0.7808
 7864TIP3   OH223555   4.855   5.449   3.824 -0.1705  0.0818  0.2435
 7864TIP3    H123556   4.851   5.518   3.758  1.2908  0.3862  0.4402
 7864TIP3    H223557   4.896   5.491   3.900 -1.8638 -0.2454  1.3840
 7865TIP3   OH223558   3.197   4.328   4.061 -0.1620  0.5305  0.0345
 7865TIP3    H123559   3.212   4.392   4.131  0.0062 -0.7541  1.2139
 7865TIP3    H223560   3.268   4.265   4.071 -2.0942 -1.6180  0.9855
 7866TIP3   OH223561   4.586   2.154   1.866  0.3478  0.3990 -0.0823
 7866TIP3    H123562   4.645   2.098   1.816  1.5624 -0.8889  2.5921
 7866TIP3    H223563   4.524   2.092   1.906 -1.2322  1.4887 -0.7468
 7867TIP3   OH223564   2.363   4.581   5.646  0.2519 -0.4052 -0.2251
 7867TIP3    H123565   2.371   4.670   5.612 -0.3253 -0.1896  0.2008
 7867TIP3    H223566   2.432   4.575   5.713  0.3123 -0.2951 -0.2771
 7868TIP3   OH223567   6.473   5.588   1.326 -0.3015 -0.1105 -0.0373
 7868TIP3    H123568   6.451   5.624   1.412 -0.1802 -1.2154  0.4627
 7868TIP3    H223569   6.474   5.665   1.268 -0.9897  0.5658  0.8139
 7869TIP3   OH223570   0.254   0.354   1.024  0.2547 -0.0615 -0.1017
 7869TIP3    H123571   0.294   0.297   1.090  1.4797  0.9106  0.0371
 7869TIP3    H223572   0.168   0.316   1.008  0.2992 -0.8534  1.3729
 7870TIP3   OH223573   2.329   2.263   2.763  0.2065  0.4349 -0.4861
 7870TIP3    H123574   2.417   2.292   2.739 -0.2609  2.6396  0.2235
 7870TIP3    H223575   2.280   2.344   2.779 -1.1284 -0.7319  2.0186
 7871TIP3   OH223576   6.906   6.602   1.219  0.9625 -0.4154 -0.4424
 7871TIP3    H123577   6.847   6.565   1.154  0.2879  0.2028 -0.1979
 7871TIP3    H223578   6.861   6.590   1.302 -0.0495  2.2871 -0.4861
 7872TIP3   OH223579   0.760   6.702   0.180 -0.4354  0.1259 -0.2628
 7872TIP3    H123580   0.852   6.679   0.167  0.3896  0.6939  3.3816
 7872TIP3    H223581   0.754   6.794   0.155 -0.2823 -0.1532 -1.3754
 7873TIP3   OH223582   0.814   0.592   1.903 -0.0285  0.2204 -0.5648
 7873TIP3    H123583   0.785   0.683   1.897 -0.3648  0.0511 -1.8727
 7873TIP3    H223584   0.747   0.549   1.957 -1.0245  0.3226 -1.6734
 7874TIP3   OH223585   7.124   6.707   3.179  0.0436 -0.3436 -0.6420
 7874TIP3    H123586   7.137   6.614   3.194 -0.2835 -0.0825  1.6499
 7874TIP3    H223587   7.056   6.712   3.113 -2.2228 -1.7924  1.4153
 7875TIP3   OH223588   0.386   5.972   1.101 -0.0644  0.3002 -0.1927
 7875TIP3    H123589   0.308   5.991   1.049  0.0820  0.7471 -0.2484
 7875TIP3    H223590   0.400   6.050   1.154  0.2629  0.1630 -0.0735
 7876TIP3   OH223591   4.684   6.179   1.351  0.8091 -1.0062  0.2350
 7876TIP3    H123592   4.716   6.252   1.298 -1.3192 -0.9988 -1.1319
 7876TIP3    H223593   4.680   6.214   1.440  0.3739  0.3818 -0.3009
 7877TIP3   OH223594   1.140   6.681   2.013 -0.5354  0.2986 -0.0719
 7877TIP3    H123595   1.217   6.648   2.059  0.2835  1.7333 -0.3367
 7877TIP3    H223596   1.098   6.603   1.977  1.3347 -0.4425 -0.7506
 7878TIP3   OH223597   5.515   4.596   0.327 -0.8369  0.1129  0.0067
 7878TIP3    H123598   5.587   4.553   0.282  0.2263 -0.0728  1.8101
 7878TIP3    H223599   5.450   4.613   0.258  1.7944  2.3253 -2.1651
 7879TIP3   OH223600   2.196   1.765   0.953  0.0907  0.0005  0.3515
 7879TIP3    H123601   2.119   1.721   0.916  0.1931  0.9525 -1.1025
 7879TIP3    H223602   2.267   1.744   0.893  0.8592 -0.4254  1.3902
 7880TIP3   OH223603   7.147   5.891   1.687  0.0920 -0.3191  0.1422
 7880TIP3    H123604   7.091   5.872   1.612  1.2438 -0.4208 -0.7150
 7880TIP3    H223605   7.104   5.848   1.761 -0.4950 -1.1282 -0.6519
 7881TIP3   OH223606   6.209   0.743   3.945  0.1245 -0.1603  0.4969
 7881TIP3    H123607   6.282   0.687   3.919  0.2991 -0.4572  1.5486
 7881TIP3    H223608   6.232   0.830   3.915  1.5001 -0.0164  1.8409
 7882TIP3   OH223609   1.555   2.363   0.718  0.9632  0.1743  0.9697
 7882TIP3    H123610   1.640   2.349   0.676  0.6117 -0.9642  0.5888
 7882TIP3    H223611   1.555   2.455   0.742  0.9441  1.0900 -2.1393
 7883TIP3   OH223612   2.256   5.029   1.898 -0.2302 -0.4597  0.0347
 7883TIP3    H123613   2.196   4.983   1.839  0.3572 -0.6902 -0.3824
 7883TIP3    H223614   2.337   4.978   1.895 -0.8932 -1.8775  2.8619
 7884TIP3   OH223615   5.753   4.743   5.041  0.3080  0.3651  0.5000
 7884TIP3    H123616   5.780   4.698   4.962  2.3840  0.9375  0.8417
 7884TIP3    H223617   5.741   4.834   5.015  1.9959  0.7634  1.0039
 7885TIP3   OH223618   6.525   6.057   2.462  0.2064 -0.1039  0.1627
 7885TIP3    H123619   6.461   5.988   2.483  1.3232 -1.0383  0.6031
 7885TIP3    H223620   6.476   6.119   2.407 -0.5733 -1.7772 -1.1329
 7886TIP3   OH223621   3.214   5.729   1.253  0.3608  0.2542  0.5602
 7886TIP3    H123622   3.216   5.801   1.316  0.6789  1.5595 -0.8934
 7886TIP3    H223623   3.140   5.675   1.282  1.5301 -0.1686  3.0410
 7887TIP3   OH223624   6.438   5.115   1.962 -0.3143  0.5331  0.5245
 7887TIP3    H123625   6.505   5.151   2.021 -0.1995  0.5494  0.3831
 7887TIP3    H223626   6.398   5.044   2.013  0.9800 -0.6418 -0.0107
 7888TIP3   OH223627   7.082   2.188   5.866  0.6492 -1.0659 -0.4784
 7888TIP3    H123628   7.109   2.253   5.801 -0.1813 -0.2790 -0.0690
 7888TIP3    H223629   7.150   2.191   5.933 -1.5143  2.9490  1.9841
 7889TIP3   OH223630   5.623   3.459   1.817  0.0273 -0.0508 -0.1739
 7889TIP3    H123631   5.541   3.479   1.863  0.0667 -0.6832  0.1692
 7889TIP3    H223632   5.687   3.519   1.855  0.5813 -1.9617  2.1672
 7890TIP3   OH223633   3.134   2.170   3.056 -0.1163  0.1459  0.1705
 7890TIP3    H123634   3.175   2.233   3.115 -1.3409  0.5005  0.6712
 7890TIP3    H223635   3.040   2.181   3.070 -0.3791 -1.1677 -0.3980
 7891TIP3   OH223636   0.389   1.366   2.681 -0.2040 -0.0069  0.4154
 7891TIP3    H123637   0.348   1.452   2.686 -1.8142 -0.7049 -0.1451
 7891TIP3    H223638   0.364   1.332   2.595  2.0467 -0.2781 -0.2007
 7892TIP3   OH223639   2.927   1.361   5.651 -0.2414  0.2423  0.6385
 7892TIP3    H123640   2.951   1.275   5.685 -0.9824 -0.3729 -0.3569
 7892TIP3    H223641   2.959   1.360   5.561 -2.0245  0.2179 -0.0362
 7893TIP3   OH223642   4.047   0.022   1.533  0.2090  0.3489 -0.2008
 7893TIP3    H123643   3.973   0.080   1.517 -0.8908 -1.1334 -0.6921
 7893TIP3    H223644   4.009  -0.057   1.571  2.0965  1.5637  5.0630
 7894TIP3   OH223645   5.718   4.890   0.291 -0.2586  0.4918 -0.0289
 7894TIP3    H123646   5.655   4.928   0.229 -1.4841  0.2503  1.0100
 7894TIP3    H223647   5.782   4.960   0.305  0.0623  0.5333 -1.5647
 7895TIP3   OH223648   3.615   5.715   0.346  0.2717 -0.0230  0.2319
 7895TIP3    H123649   3.630   5.621   0.348 -2.0992 -0.4680  0.6300
 7895TIP3    H223650   3.581   5.732   0.258  0.4959  0.4167  0.2284
 7896TIP3   OH223651   5.340   6.758   2.415  0.3567 -0.0587 -0.3615
 7896TIP3    H123652   5.284   6.783   2.342  0.0720  0.5849  0.0636
 7896TIP3    H223653   5.422   6.729   2.375 -0.4863 -1.6443 -1.0379
 7897TIP3   OH223654   3.409   6.442   5.872  0.2681 -0.3038 -0.2245
 7897TIP3    H123655   3.393   6.504   5.942 -2.3560  0.6356 -1.5293
 7897TIP3    H223656   3.505   6.435   5.867  0.5706 -0.3990  3.3262
 7898TIP3   OH223657   3.072   1.616   0.664 -0.3080  0.0259  0.0596
 7898TIP3    H123658   3.031   1.640   0.747  0.4850 -0.1060  0.5009
 7898TIP3    H223659   3.140   1.553   0.689  2.0517  2.2573 -0.2701
 7899TIP3   OH223660   2.474   4.740   3.873  0.1763  0.3226  0.2700
 7899TIP3    H123661   2.537   4.668   3.877  2.2687  1.9728 -0.9155
 7899TIP3    H223662   2.423   4.723   3.793 -2.2128 -1.9309  2.1134
 7900TIP3   OH223663   6.196   0.136   4.568 -0.3015 -0.0843  0.2243
 7900TIP3    H123664   6.148   0.056   4.548 -1.1518  0.1660  1.1759
 7900TIP3    H223665   6.282   0.106   4.597  0.3426 -0.5163 -1.9404
 7901TIP3   OH223666   0.299   1.674   3.304 -0.0127  0.7749 -0.0932
 7901TIP3    H123667   0.387   1.636   3.300 -0.1326  0.3982  0.6206
 7901TIP3    H223668   0.241   1.599   3.317 -0.3189  1.1269  0.6264
 7902TIP3   OH223669   1.561   2.728   3.193 -0.4049  0.1978 -0.0988
 7902TIP3    H123670   1.495   2.728   3.262 -1.0263 -0.2403 -0.6785
 7902TIP3    H223671   1.576   2.636   3.174  0.5231  0.2868  0.1564
 7903TIP3   OH223672   5.726   2.546   5.545 -0.5561 -0.1439 -0.3237
 7903TIP3    H123673   5.819   2.549   5.524 -0.1584  1.8399  1.3900
 7903TIP3    H223674   5.705   2.634   5.574 -3.5066  0.0426 -2.5547
 7904TIP3   OH223675   4.502   4.436   4.014 -0.8102 -0.5242  0.0928
 7904TIP3    H123676   4.472   4.524   3.993  1.3885  0.8270  2.2401
 7904TIP3    H223677   4.556   4.411   3.939 -2.8232 -0.8881 -1.3499
 7905TIP3   OH223678   6.581   2.843   0.658  0.2163  0.1573  0.2007
 7905TIP3    H123679   6.653   2.831   0.720 -0.8421 -1.3428  1.2144
 7905TIP3    H223680   6.623   2.871   0.577  1.6538  2.1920  1.5464
 7906TIP3   OH223681   5.401   0.792   2.315 -0.0083  0.4345 -0.5154
 7906TIP3    H123682   5.492   0.821   2.324  0.4062 -0.3467 -1.9287
 7906TIP3    H223683   5.363   0.803   2.403  1.5198  0.4817  0.1647
 7907TIP3   OH223684   0.384   5.496   1.227 -0.3814  0.3865 -0.2931
 7907TIP3    H123685   0.339   5.418   1.260 -0.4159 -0.0240 -1.2583
 7907TIP3    H223686   0.416   5.469   1.140  2.9411  0.1588  0.8435
 7908TIP3   OH223687   0.983   6.309   3.349  0.3784  0.0070 -0.0571
 7908TIP3    H123688   1.025   6.225   3.327 -2.6797 -2.4778  2.4732
 7908TIP3    H223689   0.902   6.309   3.300 -0.1736  0.9549  0.8184
 7909TIP3   OH223690   6.412   4.541   5.843 -0.0174 -0.4461  0.1015
 7909TIP3    H123691   6.417   4.455   5.885 -0.4508 -0.6131 -0.1800
 7909TIP3    H223692   6.321   4.547   5.812  0.1107 -0.0412 -0.2020
 7910TIP3   OH223693   3.913   5.830   2.995 -0.4001  0.3986 -0.0405
 7910TIP3    H123694   3.850   5.798   3.060  1.2586  0.9030  1.9109
 7910TIP3    H223695   3.959   5.751   2.966 -0.8451  0.2265 -0.2891
 7911TIP3   OH223696   5.587   1.980   3.242  0.2406  0.5994  0.0827
 7911TIP3    H123697   5.632   2.057   3.206  2.0490 -1.2322 -1.8637
 7911TIP3    H223698   5.494   1.995   3.221  0.5040  2.3628  0.0257
 7912TIP3   OH223699   0.618   2.291   4.794  0.0687 -0.2131 -0.7156
 7912TIP3    H123700   0.677   2.357   4.757 -2.1150  2.0015 -0.5222
 7912TIP3    H223701   0.531   2.320   4.768 -1.1412 -1.9098  1.1625
 7913TIP3   OH223702   7.094   0.743   3.271 -0.1150  0.0224 -0.5186
 7913TIP3    H123703   7.140   0.687   3.333 -0.4803  0.7034  0.3893
 7913TIP3    H223704   7.163   0.781   3.217  0.4707  1.3750  1.1061
 7914TIP3   OH223705   5.860   3.261   4.793  0.8170 -0.6617  0.5337
 7914TIP3    H123706   5.824   3.184   4.748  0.3838 -0.4666  0.5466
 7914TIP3    H223707   5.847   3.332   4.730 -1.7727  0.0700  1.7644
 7915TIP3   OH223708   1.755   6.145   3.633  0.6465 -0.1586 -0.3871
 7915TIP3    H123709   1.770   6.054   3.608  0.5941 -0.0276 -0.9041
 7915TIP3    H223710   1.842   6.178   3.655  0.7457 -0.1761 -0.7455
 7916TIP3   OH223711   1.794   2.940   1.266  0.3474  0.2467 -0.3326
 7916TIP3    H123712   1.876   2.893   1.252  0.6273  0.7599 -0.4744
 7916TIP3    H223713   1.783   2.941   1.362  0.8836  0.7829 -0.2663
 7917TIP3   OH223714   4.321   2.918   2.775 -0.3970  0.1263  0.1974
 7917TIP3    H123715   4.250   2.897   2.714  1.6427 -1.4646 -1.7629
 7917TIP3    H223716   4.398   2.873   2.740  1.2658  0.4224  3.1329
 7918TIP3   OH223717   0.664   3.474   3.284  0.1358  0.2610 -0.2382
 7918TIP3    H123718   0.737   3.533   3.265  2.0078 -2.1053 -0.9268
 7918TIP3    H223719   0.650   3.426   3.203 -3.1232  1.4544 -0.5376
 7919TIP3   OH223720   2.589   6.118   5.842 -0.4804 -0.3458  0.1543
 7919TIP3    H123721   2.547   6.070   5.770 -0.7870 -1.4390  1.0281
 7919TIP3    H223722   2.530   6.106   5.916  0.5962 -0.6020  1.0013
 7920TIP3   OH223723   2.856   1.853   1.943 -0.1395  0.2179 -0.2198
 7920TIP3    H123724   2.839   1.882   1.853  0.9582  1.0122 -0.1990
 7920TIP3    H223725   2.837   1.929   1.997 -1.1342 -0.3670  0.2714
 7921TIP3   OH223726   5.823   6.114   3.479 -0.3414  0.0995  0.1242
 7921TIP3    H123727   5.735   6.144   3.503 -1.1462 -1.4926 -0.6874
 7921TIP3    H223728   5.857   6.184   3.422 -2.1948 -0.4245 -1.7707
 7922TIP3   OH223729   1.839   5.751   3.800 -0.2339  0.3296  0.3299
 7922TIP3    H123730   1.794   5.672   3.770  0.0914  0.2635  0.0009
 7922TIP3    H223731   1.780   5.790   3.864 -0.5625  0.0172  0.2200
 7923TIP3   OH223732   3.072   0.815   2.126  0.0139 -0.6739 -0.2713
 7923TIP3    H123733   2.985   0.777   2.111 -0.4501 -0.5795  1.9081
 7923TIP3    H223734   3.107   0.766   2.201  1.2521  0.2627 -0.2110
 7924TIP3   OH223735   0.376   2.156   1.892 -0.2005 -0.1423 -0.1097
 7924TIP3    H123736   0.282   2.155   1.908 -0.2070  0.7428 -0.0574
 7924TIP3    H223737   0.406   2.238   1.931  0.3491  0.3104 -1.4253
 7925TIP3   OH223738   1.426   6.041   3.309  0.6265 -0.5956 -0.4240
 7925TIP3    H123739   1.372   5.966   3.284  0.7137 -0.2919 -1.6076
 7925TIP3    H223740   1.512   6.023   3.270  0.4534  0.4220 -1.3415
 7926TIP3   OH223741   5.754   4.452   5.120  0.5865 -0.4637 -0.0065
 7926TIP3    H123742   5.834   4.399   5.119  2.3839  2.0902 -0.4887
 7926TIP3    H223743   5.752   4.494   5.034 -0.7231  0.3098  0.3771
 7927TIP3   OH223744   5.709   6.349   1.710 -0.1731 -0.2685 -0.2515
 7927TIP3    H123745   5.764   6.401   1.769 -1.3490  0.2147  0.4601
 7927TIP3    H223746   5.766   6.279   1.680  0.0581 -1.5589  2.8220
 7928TIP3   OH223747   7.012   5.919   1.451  0.2236  0.4440  0.0312
 7928TIP3    H123748   7.083   5.925   1.387  0.6326 -4.5701 -0.4597
 7928TIP3    H223749   6.935   5.896   1.399  0.0024 -1.2481  1.0010
 7929TIP3   OH223750   4.683   3.615   1.615  0.1752 -0.1557 -0.1231
 7929TIP3    H123751   4.603   3.608   1.666  0.3950 -1.4416  0.0830
 7929TIP3    H223752   4.679   3.541   1.554  0.2061  0.9799 -1.5815
 7930TIP3   OH223753   2.150   6.072   5.629  0.4317 -0.1046  0.6133
 7930TIP3    H123754   2.133   6.034   5.715  0.4365 -0.7178  0.3507
 7930TIP3    H223755   2.166   5.996   5.572 -0.4348  0.2421 -0.1227
 7931TIP3   OH223756   3.708   5.624   2.854  0.7131  0.2761 -0.0614
 7931TIP3    H123757   3.721   5.588   2.766 -0.0193  0.5950 -0.3110
 7931TIP3    H223758   3.658   5.557   2.900 -1.2276  1.1990 -0.7307
 7932TIP3   OH223759   4.907   5.983   5.291 -0.2938  0.1197  0.0503
 7932TIP3    H123760   4.978   6.047   5.301 -0.9139  0.9200 -0.5149
 7932TIP3    H223761   4.828   6.036   5.282 -0.7986 -0.7205 -0.6351
 7933TIP3   OH223762   5.571   4.754   4.637 -0.4456  0.1951 -0.5571
 7933TIP3    H123763   5.590   4.838   4.679  0.4738 -0.2768  0.0099
 7933TIP3    H223764   5.647   4.737   4.582 -1.8179  1.0158 -2.8466
 7934TIP3   OH223765   6.970   0.812   2.882  0.1316 -0.1478 -0.0496
 7934TIP3    H123766   6.982   0.760   2.961  0.3874 -0.1739 -0.1043
 7934TIP3    H223767   6.915   0.885   2.909 -1.1622 -1.0332 -0.2200
 7935TIP3   OH223768   6.994   4.991   4.570 -0.1711 -0.0976 -0.4165
 7935TIP3    H123769   6.965   5.018   4.656  0.5129 -0.7552  0.0382
 7935TIP3    H223770   6.934   5.034   4.509 -0.9474  0.0037  0.4029
 7936TIP3   OH223771   3.294   1.914   0.094 -0.3857 -0.4200  0.1828
 7936TIP3    H123772   3.240   1.982   0.134  1.2803  0.5928  0.8012
 7936TIP3    H223773   3.335   1.957   0.019  0.2200 -0.9206  0.2165
 7937TIP3   OH223774   0.282   4.732   4.166 -0.4988 -0.1112  0.3188
 7937TIP3    H123775   0.300   4.649   4.122 -0.6671 -0.1456  0.3159
 7937TIP3    H223776   0.187   4.741   4.163 -0.3778  1.2711 -1.8973
 7938TIP3   OH223777   3.521   3.934   3.708 -0.4729  0.4467 -0.0846
 7938TIP3    H123778   3.449   3.961   3.652 -0.3993 -0.6447 -0.7351
 7938TIP3    H223779   3.481   3.875   3.772 -0.1504 -0.2377 -0.5058
 7939TIP3   OH223780   1.351   2.523   4.323 -0.3951 -0.2333  0.7046
 7939TIP3    H123781   1.322   2.499   4.411  0.0137  0.2883  0.9889
 7939TIP3    H223782   1.447   2.516   4.327 -0.4644 -2.2248 -0.3014
 7940TIP3   OH223783   5.456   6.599   5.450 -0.3935 -0.1429  0.5839
 7940TIP3    H123784   5.402   6.544   5.392  0.2266 -0.5991  0.4298
 7940TIP3    H223785   5.471   6.679   5.401  0.8407 -0.8622 -0.2528
 7941TIP3   OH223786   0.770   3.736   5.804  0.1673 -0.5857  0.2666
 7941TIP3    H123787   0.838   3.678   5.769  0.5630 -0.4272  0.7611
 7941TIP3    H223788   0.712   3.677   5.854  0.2417 -0.6420  0.2870
 7942TIP3   OH223789   3.459   6.737   2.317 -0.8439  0.3873  0.3821
 7942TIP3    H123790   3.452   6.765   2.225  0.2276  0.4645  0.3130
 7942TIP3    H223791   3.368   6.731   2.346 -1.2659 -0.8049 -1.0348
 7943TIP3   OH223792   5.087   1.401   1.351 -0.0213  0.3499 -0.4519
 7943TIP3    H123793   4.999   1.384   1.383  0.0134  1.2419  0.1388
 7943TIP3    H223794   5.143   1.339   1.399 -0.1349  0.8233  0.3057
 7944TIP3   OH223795   2.405   1.666   0.786  0.1343 -0.2305  0.1890
 7944TIP3    H123796   2.453   1.593   0.746  2.2401  0.6180  1.0737
 7944TIP3    H223797   2.454   1.744   0.761 -0.9379  0.7124  0.9305
 7945TIP3   OH223798   6.807   3.917   1.245  0.4738  0.1745  0.3292
 7945TIP3    H123799   6.792   3.828   1.214  0.8525  0.4875 -0.8122
 7945TIP3    H223800   6.864   3.956   1.179 -0.1787  1.4506  0.4904
 7946TIP3   OH223801   4.881   1.413   2.933  0.6116 -0.2183 -0.0270
 7946TIP3    H123802   4.845   1.492   2.892 -0.1837 -1.1367 -1.1834
 7946TIP3    H223803   4.804   1.362   2.959  1.1128 -0.2216  1.5467
 7947TIP3   OH223804   6.004   5.631   2.831  0.0993  0.3579  0.1234
 7947TIP3    H123805   5.933   5.692   2.848  1.4005  1.8817  0.3552
 7947TIP3    H223806   5.961   5.554   2.793 -1.7391  0.8632  1.0653
 7948TIP3   OH223807   6.227   0.216   5.326  0.0311 -0.1062 -0.0024
 7948TIP3    H123808   6.167   0.168   5.269 -0.3520  0.7321 -0.3263
 7948TIP3    H223809   6.254   0.152   5.392 -0.0953 -0.8882 -0.6892
 7949TIP3   OH223810   6.315   3.516   4.935  0.2571 -0.0350 -0.5736
 7949TIP3    H123811   6.363   3.445   4.977  1.0915  0.5895 -0.4598
 7949TIP3    H223812   6.322   3.498   4.842 -0.4342 -0.6689 -0.5171
 7950TIP3   OH223813   1.144   6.226   3.769  0.0680  0.3066 -0.7378
 7950TIP3    H123814   1.204   6.166   3.724 -1.1866 -1.6047  0.0126
 7950TIP3    H223815   1.131   6.187   3.855 -1.2317  1.4002 -0.4089
 7951TIP3   OH223816   3.295   5.562   1.567  0.1533  0.5076 -0.1537
 7951TIP3    H123817   3.373   5.611   1.540 -0.7796  1.4591 -1.2368
 7951TIP3    H223818   3.244   5.625   1.618  0.2717 -0.2398  0.9095
 7952TIP3   OH223819   1.672   5.445   4.011 -0.0267 -0.0600  0.1740
 7952TIP3    H123820   1.760   5.483   4.018  0.4935 -0.9929 -1.1004
 7952TIP3    H223821   1.674   5.394   3.931 -1.6447 -0.3763  0.3085
 7953TIP3   OH223822   3.818   3.229   4.113 -0.1723  0.0227  0.1979
 7953TIP3    H123823   3.784   3.148   4.152 -2.3971  0.0891 -1.4254
 7953TIP3    H223824   3.840   3.206   4.023  1.0936  0.7847  0.2842
 7954TIP3   OH223825   6.632   2.636   3.451 -0.2090 -0.0117 -0.3895
 7954TIP3    H123826   6.621   2.627   3.357 -0.7211 -1.1992 -0.2343
 7954TIP3    H223827   6.628   2.730   3.467 -0.5791  0.1704 -1.4975
 7955TIP3   OH223828   5.260   6.373   4.622  0.2547  0.4054  0.0409
 7955TIP3    H123829   5.190   6.419   4.576  0.7426 -0.6510 -1.8363
 7955TIP3    H223830   5.214   6.326   4.692 -0.5688  1.6438  0.3736
 7956TIP3   OH223831   6.631   3.897   0.427 -0.3289 -0.3998 -0.1298
 7956TIP3    H123832   6.561   3.923   0.367 -0.9421 -1.0768  0.2618
 7956TIP3    H223833   6.708   3.887   0.372 -1.0415 -1.7044 -0.9339
 7957TIP3   OH223834   4.586   5.946   2.892  0.4460 -0.3884  0.1348
 7957TIP3    H123835   4.633   5.919   2.814  0.5271  1.4317 -0.5024
 7957TIP3    H223836   4.566   5.865   2.938  1.4494 -1.4078 -1.1640
 7958TIP3   OH223837  -0.024   4.496   5.240  0.1328 -0.0848 -0.1508
 7958TIP3    H123838   0.034   4.453   5.176 -0.2573 -0.8477 -0.0060
 7958TIP3    H223839   0.035   4.549   5.294  1.0019 -2.2561  1.1686
 7959TIP3   OH223840   1.111   1.091   1.060 -0.3789  0.0701 -0.1919
 7959TIP3    H123841   1.055   1.154   1.013 -1.5352 -0.4353  0.4450
 7959TIP3    H223842   1.193   1.091   1.012 -0.7707  1.1809 -0.9142
 7960TIP3   OH223843   5.495   2.760   0.291  0.2888 -0.3184  0.1172
 7960TIP3    H123844   5.413   2.726   0.325  0.3617 -2.3918 -1.5562
 7960TIP3    H223845   5.472   2.842   0.248 -0.9903 -1.0483 -0.6338
 7961TIP3   OH223846   4.298   2.216   0.401 -0.1032 -0.5864 -0.7742
 7961TIP3    H123847   4.204   2.200   0.410  0.2535 -2.2804  0.2810
 7961TIP3    H223848   4.330   2.225   0.490  1.0181 -2.0011 -0.9885
 7962TIP3   OH223849   3.585   2.251   4.668  0.1450 -0.1892  0.7118
 7962TIP3    H123850   3.523   2.306   4.716  1.7397 -0.4671  3.2504
 7962TIP3    H223851   3.534   2.216   4.595 -1.4180  3.1889 -0.0166
 7963TIP3   OH223852   4.488   0.882   0.754  0.8037  0.3397  0.0500
 7963TIP3    H123853   4.488   0.961   0.808 -0.4583  1.1763 -1.0971
 7963TIP3    H223854   4.411   0.834   0.782  1.7248 -0.6613  0.9404
 7964TIP3   OH223855   5.831   2.392   2.451  0.0411  0.0197  0.3802
 7964TIP3    H123856   5.758   2.367   2.508 -0.2925  1.0542  0.4308
 7964TIP3    H223857   5.900   2.329   2.470 -0.6312 -0.6093  0.7704
 7965TIP3   OH223858   0.470   5.484   3.459 -0.1905  0.3441 -0.4572
 7965TIP3    H123859   0.545   5.537   3.486  0.0475  0.2480 -0.9225
 7965TIP3    H223860   0.414   5.544   3.409 -0.5287  0.4688  0.0669
 7966TIP3   OH223861   0.203   3.141   1.135 -0.5507 -0.0422  0.4731
 7966TIP3    H123862   0.261   3.132   1.059 -0.4122  2.4315  0.1915
 7966TIP3    H223863   0.262   3.141   1.211 -0.5353 -0.8705  0.4720
 7967TIP3   OH223864   6.686   0.647   5.214 -0.0245  0.5917 -0.4546
 7967TIP3    H123865   6.740   0.675   5.140  1.7866 -1.3778  0.0127
 7967TIP3    H223866   6.723   0.693   5.289  0.7021 -0.3448 -0.2183
 7968TIP3   OH223867   2.668   0.730   2.269 -0.0170  0.0473 -0.0830
 7968TIP3    H123868   2.678   0.825   2.265 -0.3345  0.0370 -2.3597
 7968TIP3    H223869   2.574   0.716   2.260  0.1212 -0.4814 -0.8220
 7969TIP3   OH223870   2.181   6.685   3.674 -0.4796 -0.8384 -0.4279
 7969TIP3    H123871   2.178   6.695   3.578  0.4096 -0.1813 -0.3946
 7969TIP3    H223872   2.274   6.695   3.696 -1.0610  3.0657  0.9402
 7970TIP3   OH223873   6.582   0.526   4.090  0.5484 -0.2114 -0.3149
 7970TIP3    H123874   6.653   0.578   4.128  0.6070  0.9477 -1.9215
 7970TIP3    H223875   6.542   0.482   4.166  0.5983  2.0481  1.1208
 7971TIP3   OH223876   6.285   0.620   1.072  0.6303 -0.4342 -0.1879
 7971TIP3    H123877   6.332   0.650   0.994 -0.1964 -0.3593 -0.6685
 7971TIP3    H223878   6.326   0.668   1.144  0.2774  0.8052 -0.7728
 7972TIP3   OH223879   0.435   0.571   1.078 -0.2552 -0.2865  0.9091
 7972TIP3    H123880   0.384   0.501   1.036  1.4582 -1.1530  0.1885
 7972TIP3    H223881   0.464   0.534   1.161 -0.8451  0.2442  1.3666
 7973TIP3   OH223882   1.466   4.418   1.300  0.1401 -0.5469 -0.5002
 7973TIP3    H123883   1.442   4.334   1.340 -2.1262  0.1090 -0.3415
 7973TIP3    H223884   1.487   4.396   1.210  1.2257 -1.4911 -0.0346
 7974TIP3   OH223885   6.459   6.665   4.173 -0.3441 -0.4688 -0.4887
 7974TIP3    H123886   6.493   6.636   4.088  0.1700  0.5418 -0.6427
 7974TIP3    H223887   6.496   6.753   4.185 -2.7124  0.6041 -0.5465
 7975TIP3   OH223888   3.292   0.390   5.271 -0.1508 -0.6481  0.1734
 7975TIP3    H123889   3.204   0.423   5.251  0.3383 -0.5362 -2.0125
 7975TIP3    H223890   3.293   0.301   5.234  0.5359 -0.7784  0.4910
 7976TIP3   OH223891   5.808   3.811   1.162 -0.1983  0.1170 -0.1465
 7976TIP3    H123892   5.781   3.897   1.128  1.4822  0.5403 -0.5082
 7976TIP3    H223893   5.824   3.826   1.255  2.4396  0.8968 -0.6200
 7977TIP3   OH223894   1.925   6.262   3.835 -0.3054  0.2055 -0.2011
 7977TIP3    H123895   1.989   6.330   3.856 -1.4279  2.0100 -2.2318
 7977TIP3    H223896   1.854   6.276   3.898  0.2765 -0.3763  0.6143
 7978TIP3   OH223897   5.545   6.033   2.157 -0.4500 -0.3421 -0.0390
 7978TIP3    H123898   5.509   5.957   2.202 -0.6081 -0.6511 -0.6824
 7978TIP3    H223899   5.539   6.104   2.221 -0.0033 -0.9376  0.6786
 7979TIP3   OH223900   1.832   4.430   2.859  0.2889  0.2350 -0.6420
 7979TIP3    H123901   1.788   4.394   2.936  1.4261 -1.2699 -0.6406
 7979TIP3    H223902   1.777   4.405   2.786  0.3738 -0.3720 -0.5076
 7980TIP3   OH223903   3.919   3.613   0.605 -0.0339  0.1747  0.0965
 7980TIP3    H123904   3.891   3.596   0.515 -0.3481 -0.2134  0.2638
 7980TIP3    H223905   3.960   3.699   0.601 -0.5481  0.4074 -0.3073
 7981TIP3   OH223906   1.251   6.047   2.186  0.2731  0.5469  0.4362
 7981TIP3    H123907   1.289   6.031   2.273  0.7479  0.5188  0.2266
 7981TIP3    H223908   1.181   5.983   2.178  0.2730  0.5027  0.7753
 7982TIP3   OH223909   3.652   3.751   0.729 -0.7335  0.4297  0.6910
 7982TIP3    H123910   3.720   3.705   0.779  0.8354  1.1056 -0.7262
 7982TIP3    H223911   3.601   3.682   0.689  0.3285 -0.1161  0.2281
 7983TIP3   OH223912   6.326   1.877   1.848  0.1213 -0.4852 -0.1774
 7983TIP3    H123913   6.388   1.951   1.845 -0.5891  0.2041  1.2132
 7983TIP3    H223914   6.240   1.918   1.845 -0.3393 -1.0403  2.6103
 7984TIP3   OH223915   6.826   1.559   4.513 -0.3451  0.2083 -0.0863
 7984TIP3    H123916   6.731   1.558   4.521 -0.3701 -0.3110 -0.4275
 7984TIP3    H223917   6.849   1.651   4.519 -0.6598  0.2053  2.3770
 7985TIP3   OH223918   3.905   1.106   5.883  0.2130 -0.2050  0.4715
 7985TIP3    H123919   3.873   1.175   5.826  0.0075 -0.1276  0.6768
 7985TIP3    H223920   3.836   1.040   5.881  0.6841 -0.6894 -0.2125
 7986TIP3   OH223921   0.134   6.615   2.457  0.1237 -0.0770  0.5604
 7986TIP3    H123922   0.144   6.525   2.488 -0.5901 -0.3751 -0.0639
 7986TIP3    H223923   0.042   6.623   2.433  0.2507  0.7177  0.3020
 7987TIP3   OH223924   3.449   3.481   0.109 -0.0153  0.4230  0.2674
 7987TIP3    H123925   3.419   3.412   0.050  1.5934 -0.4155  0.3578
 7987TIP3    H223926   3.370   3.529   0.133 -0.6932  1.0673 -2.8601
 7988TIP3   OH223927   6.362   2.432   0.308  0.7280 -0.2662  0.0405
 7988TIP3    H123928   6.324   2.516   0.331  0.7843 -0.7692  2.1580
 7988TIP3    H223929   6.356   2.380   0.388  2.8765 -1.4721 -0.5105
 7989TIP3   OH223930   4.890   3.431   2.688  0.0972  0.2082  0.2161
 7989TIP3    H123931   4.906   3.378   2.610  0.5217  0.7519 -0.0693
 7989TIP3    H223932   4.963   3.493   2.690 -1.6978  2.5102 -0.9112
 7990TIP3   OH223933   6.491   4.658   2.250  0.4800  0.1248 -0.2479
 7990TIP3    H123934   6.519   4.568   2.231 -0.5057 -0.3933  0.6499
 7990TIP3    H223935   6.544   4.684   2.326 -0.3949 -0.3174  0.5289
 7991TIP3   OH223936   0.277   3.328   3.971 -0.5144  0.1386 -0.6122
 7991TIP3    H123937   0.291   3.263   3.902 -0.4858 -1.1838  0.6060
 7991TIP3    H223938   0.363   3.364   3.988 -0.3608 -0.2286 -0.6040
 7992TIP3   OH223939   7.068   2.899   5.425  0.4464  0.3946  0.2676
 7992TIP3    H123940   7.096   2.838   5.357  0.1978  1.1907 -0.5531
 7992TIP3    H223941   6.984   2.863   5.455  0.1452  0.5004 -0.4325
 7993TIP3   OH223942   0.986   2.691   1.886  0.1677 -0.1045  0.0973
 7993TIP3    H123943   1.054   2.737   1.935 -0.9578  0.7970  0.8424
 7993TIP3    H223944   0.923   2.663   1.953 -1.0076  0.4885 -0.7296
 7994TIP3   OH223945   4.212   0.021   4.667  0.2046 -0.0026 -0.4605
 7994TIP3    H123946   4.198   0.107   4.627 -0.4630 -0.6893 -1.7778
 7994TIP3    H223947   4.128  -0.025   4.656  0.6263 -0.9060 -0.0293
 7995TIP3   OH223948   5.602   4.998   1.924 -0.2946  0.3962  0.0724
 7995TIP3    H123949   5.509   5.014   1.941 -0.0885 -0.1360  1.9745
 7995TIP3    H223950   5.642   5.085   1.929 -0.6184  0.5670 -0.2727
 7996TIP3   OH223951   3.980   6.808   2.127 -0.0437  0.1646  0.0700
 7996TIP3    H123952   3.915   6.740   2.112  2.5211 -2.4337 -0.2815
 7996TIP3    H223953   3.996   6.806   2.222 -0.7308  1.1186  0.2241
 7997TIP3   OH223954   2.701   5.610   4.547 -0.4225  0.4546 -0.0101
 7997TIP3    H123955   2.795   5.628   4.541 -0.0308 -0.1719  2.7340
 7997TIP3    H223956   2.690   5.526   4.504  0.1385  0.8784 -1.0056
 7998TIP3   OH223957   6.355   3.088   4.662 -0.1086 -0.6080  0.0923
 7998TIP3    H123958   6.311   3.036   4.595 -1.7618 -2.5139  2.4601
 7998TIP3    H223959   6.284   3.126   4.713  1.0406 -0.2566  1.4952
 7999TIP3   OH223960   0.221   6.074   4.487  0.1600 -0.0201  0.0262
 7999TIP3    H123961   0.197   6.156   4.443 -0.2591 -0.8702 -1.3659
 7999TIP3    H223962   0.141   6.048   4.534 -0.2547 -0.4847 -0.9069
 8000TIP3   OH223963   2.307   6.513   4.422  0.1119  0.1326 -0.6982
 8000TIP3    H123964   2.348   6.509   4.336 -0.0565 -1.4041 -0.7257
 8000TIP3    H223965   2.214   6.496   4.405 -0.3956  2.3073 -0.4811
 8001TIP3   OH223966   3.831   2.565   5.184 -0.5753  0.3804  0.5957
 8001TIP3    H123967   3.810   2.480   5.144  0.4629  1.8649 -3.6990
 8001TIP3    H223968   3.747   2.607   5.198 -1.0341  0.1219 -1.1199
 8002TIP3   OH223969   4.796   4.943   5.159  0.2161  0.0578  0.1124
 8002TIP3    H123970   4.775   4.924   5.250  1.7065 -0.4101  0.3974
 8002TIP3    H223971   4.740   4.885   5.108 -0.9782  0.6702  0.6904
 8003TIP3   OH223972   1.043   3.397   0.619  0.2597 -0.5342  0.6256
 8003TIP3    H123973   0.972   3.356   0.570 -1.2304  1.4105  1.0435
 8003TIP3    H223974   1.122   3.370   0.573 -0.8365 -1.5299 -0.7746
 8004TIP3   OH223975   6.958   1.190   2.808 -0.0012 -0.4215  0.1713
 8004TIP3    H123976   6.983   1.140   2.731  2.2787  0.5755  0.1752
 8004TIP3    H223977   6.916   1.269   2.773  0.2874 -0.3542 -0.0299
 8005TIP3   OH223978   1.604   6.485   2.302 -0.2240  0.0180 -0.3086
 8005TIP3    H123979   1.535   6.419   2.301 -0.0623 -0.1649 -1.9252
 8005TIP3    H223980   1.558   6.567   2.319 -0.6882 -0.2515 -0.2445
 8006TIP3   OH223981   1.252   2.723   2.458  0.0924  0.1205 -0.0793
 8006TIP3    H123982   1.295   2.715   2.372  1.5191 -0.7495  0.6648
 8006TIP3    H223983   1.217   2.635   2.475 -1.8415  0.7550 -0.5521
 8007TIP3   OH223984   1.208   2.669   4.637  0.1520 -0.5237  0.0433
 8007TIP3    H123985   1.243   2.721   4.710  0.9868  0.1149 -0.7864
 8007TIP3    H223986   1.146   2.728   4.593  0.9038 -0.2972 -0.7423
 8008TIP3   OH223987   4.620   5.819   4.846 -0.2245  0.3351  0.0045
 8008TIP3    H123988   4.705   5.785   4.817 -0.3920  1.3539 -1.8051
 8008TIP3    H223989   4.642   5.875   4.920  0.2928 -1.8032  1.5885
 8009TIP3   OH223990   3.755   4.803   5.076  0.1821 -0.6010  0.1228
 8009TIP3    H123991   3.786   4.713   5.071  2.6121  0.0787  1.1135
 8009TIP3    H223992   3.709   4.808   5.160  1.1376 -0.6708  0.6719
 8010TIP3   OH223993   4.590   4.409   5.689 -0.0943 -0.2478 -0.6544
 8010TIP3    H123994   4.540   4.421   5.608 -1.0828  0.3301  0.0321
 8010TIP3    H223995   4.635   4.492   5.702 -0.4183 -0.1269 -0.2938
 8011TIP3   OH223996   2.877   6.000   5.815 -0.1560 -0.3903 -0.8791
 8011TIP3    H123997   2.846   5.917   5.778  0.3592 -0.7058 -0.6145
 8011TIP3    H223998   2.844   6.000   5.905  0.0842 -0.4462 -0.7888
 8012TIP3   OH223999   3.639   2.864   4.917  0.3408 -0.1478  0.2793
 8012TIP3    H124000   3.663   2.774   4.939 -0.0560  0.1712  2.1264
 8012TIP3    H224001   3.722   2.906   4.896  0.8061 -0.4223  1.4733
 8013TIP3   OH224002   3.102   5.058   2.860  0.4926  0.5898  0.4841
 8013TIP3    H124003   3.151   4.984   2.824 -0.7353  0.1739 -0.3835
 8013TIP3    H224004   3.123   5.131   2.802  1.1301  0.7570  0.9127
 8014TIP3   OH224005   1.946   2.799   3.984  0.1966 -0.3098  0.1390
 8014TIP3    H124006   1.955   2.825   4.076  0.8030 -0.7000  0.1952
 8014TIP3    H224007   1.911   2.877   3.941  1.9035  0.6178  0.3285
 8015TIP3   OH224008   2.293   5.870   0.054 -0.2347  0.1973 -0.5868
 8015TIP3    H124009   2.290   5.945  -0.006  0.7132  0.2938 -0.5355
 8015TIP3    H224010   2.202   5.853   0.076 -0.5055  0.9555 -1.0769
 8016TIP3   OH224011   6.699   1.173   3.602 -0.5723  0.0184  0.1521
 8016TIP3    H124012   6.666   1.123   3.527 -3.4995  0.4378  1.0126
 8016TIP3    H224013   6.733   1.106   3.662 -0.2738 -0.5201 -0.6059
 8017TIP3   OH224014   0.245   0.010   1.339 -0.2989 -0.1821  0.5080
 8017TIP3    H124015   0.168  -0.045   1.323 -0.8491  1.0761 -1.5988
 8017TIP3    H224016   0.209   0.097   1.355  0.6289 -0.0608  2.1370
 8018TIP3   OH224017   3.886   4.861   5.429  0.0559 -0.0179  0.1283
 8018TIP3    H124018   3.814   4.812   5.388  0.2828 -0.6750  0.4965
 8018TIP3    H224019   3.875   4.845   5.523 -0.8718  2.0356  0.4194
 8019TIP3   OH224020   0.311   3.221   4.885  0.3000  0.3977 -0.3859
 8019TIP3    H124021   0.326   3.277   4.808  1.3451  0.1789 -0.3627
 8019TIP3    H224022   0.254   3.151   4.853  1.4098 -0.1652 -1.2145
 8020TIP3   OH224023   6.182   0.353   4.007 -0.0942 -0.1613 -0.1501
 8020TIP3    H124024   6.178   0.409   4.085  2.3596  1.0870 -0.8256
 8020TIP3    H224025   6.275   0.334   3.996 -0.4248 -0.7357 -2.4817
 8021TIP3   OH224026   3.730   1.755   2.369  0.1334  0.8570 -0.2459
 8021TIP3    H124027   3.807   1.738   2.423  0.3667 -3.0301 -1.4655
 8021TIP3    H224028   3.745   1.705   2.289 -2.7273  1.7174 -1.4621
 8022TIP3   OH224029   0.331   1.370   0.258 -0.4635  0.0613 -0.3611
 8022TIP3    H124030   0.341   1.398   0.349  0.9583  0.5477 -0.6485
 8022TIP3    H224031   0.359   1.446   0.207 -1.2607 -0.2074 -1.2177
 8023TIP3   OH224032   0.327   4.443   5.611 -0.1675  0.0311  0.5440
 8023TIP3    H124033   0.272   4.388   5.667  0.1708 -1.4279 -0.5004
 8023TIP3    H224034   0.266   4.496   5.561 -0.5534 -0.3120  0.6484
 8024TIP3   OH224035   3.273   3.682   1.905  0.0964  0.3514 -0.0291
 8024TIP3    H124036   3.308   3.609   1.956  1.4291  2.1918  1.8931
 8024TIP3    H224037   3.190   3.704   1.949 -0.4802 -0.2031 -0.8221
 8025TIP3   OH224038   6.624   3.944   1.900  0.5521 -0.3797 -0.5365
 8025TIP3    H124039   6.569   3.917   1.973  0.1042  0.3457 -0.5953
 8025TIP3    H224040   6.620   4.040   1.901  1.9376 -0.3144 -0.4539
 8026TIP3   OH224041   0.054   3.486   2.321  0.2174  0.2605  0.2662
 8026TIP3    H124042   0.073   3.570   2.362  0.1975  0.7754 -0.7475
 8026TIP3    H224043  -0.032   3.497   2.282  0.9104  0.3600 -1.3210
 8027TIP3   OH224044   0.927   0.955   5.198  0.0401 -0.2046 -0.0623
 8027TIP3    H124045   0.955   0.873   5.156 -0.2385  0.7381 -2.2339
 8027TIP3    H224046   0.839   0.935   5.232  0.5896 -1.2247  0.8324
 8028TIP3   OH224047   5.222   1.619   3.694  0.0929  0.4877 -0.0452
 8028TIP3    H124048   5.277   1.554   3.737 -0.2432  0.3385  0.1618
 8028TIP3    H224049   5.282   1.668   3.638  0.0242 -1.4897 -1.9931
 8029TIP3   OH224050   1.119   1.317   1.268  0.2038  0.1876 -0.1659
 8029TIP3    H124051   1.057   1.280   1.330  2.0950 -0.3276  1.5587
 8029TIP3    H224052   1.162   1.241   1.229  0.0668  0.5292 -0.9852
 8030TIP3   OH224053   1.521   6.817   1.167  0.3655 -0.5371 -0.4142
 8030TIP3    H124054   1.540   6.785   1.079  3.0398  1.5217 -0.7223
 8030TIP3    H224055   1.523   6.738   1.222  0.8477 -1.5925 -1.8869
 8031TIP3   OH224056   7.089   1.955   0.702 -0.2541 -0.5304 -0.0806
 8031TIP3    H124057   6.997   1.982   0.702 -0.3660 -0.5319  3.1186
 8031TIP3    H224058   7.129   2.004   0.631 -2.6394 -0.2098 -1.2844
 8032TIP3   OH224059   6.898   3.368   4.289 -0.0910  0.1402  0.0538
 8032TIP3    H124060   6.943   3.401   4.211 -0.0957  0.6211  0.2554
 8032TIP3    H224061   6.807   3.395   4.277 -0.3618 -0.8909 -0.3891
 8033TIP3   OH224062   3.645   6.165   1.185  0.1638  0.5345  0.6656
 8033TIP3    H124063   3.692   6.235   1.231  2.4574  0.3219 -1.1316
 8033TIP3    H224064   3.614   6.207   1.104  0.0434 -0.1000  0.3740
 8034TIP3   OH224065   5.143   2.587   1.695 -1.1845 -0.1412 -0.1961
 8034TIP3    H124066   5.069   2.527   1.700 -1.2938  0.0703  0.8114
 8034TIP3    H224067   5.217   2.539   1.730 -0.9868 -0.1184 -0.5728
 8035TIP3   OH224068   1.568   6.151   5.034 -0.2566 -0.2328 -0.3758
 8035TIP3    H124069   1.516   6.175   5.111 -0.2723 -3.7822  0.9045
 8035TIP3    H224070   1.518   6.184   4.960 -1.0664  1.9051  1.0210
 8036TIP3   OH224071   3.620   6.520   1.437 -0.0467  0.3408 -0.0058
 8036TIP3    H124072   3.555   6.533   1.505 -0.4170  0.5351 -0.3909
 8036TIP3    H224073   3.609   6.596   1.379 -0.1069 -0.0999 -0.5759
 8037TIP3   OH224074   6.076   1.559   5.169  0.3161  0.0287  0.0374
 8037TIP3    H124075   6.019   1.582   5.096  0.3527 -1.4124 -0.4768
 8037TIP3    H224076   6.029   1.589   5.247 -0.6877 -0.2838 -0.4421
 8038TIP3   OH224077   5.400   2.371   4.119  0.4256  0.1902  0.0251
 8038TIP3    H124078   5.444   2.332   4.194 -0.5316 -1.8390 -0.3934
 8038TIP3    H224079   5.307   2.354   4.134  0.1759  0.2137 -1.3498
 8039TIP3   OH224080   6.670   5.290   4.590  0.4821 -0.2699  0.6183
 8039TIP3    H124081   6.717   5.358   4.541 -2.4768  2.8329  1.6266
 8039TIP3    H224082   6.621   5.339   4.657  1.2227 -3.8911  4.1483
 8040TIP3   OH224083   3.081   6.566   5.617  0.3994 -0.7683  0.1106
 8040TIP3    H124084   3.096   6.655   5.648 -0.1901 -0.0370 -1.5566
 8040TIP3    H224085   3.053   6.518   5.694 -1.6483  1.0969  0.6370
 8041TIP3   OH224086   6.627   3.510   0.819 -0.4138 -0.8768 -0.4723
 8041TIP3    H124087   6.707   3.497   0.870  0.0379 -0.4604 -1.0615
 8041TIP3    H224088   6.605   3.602   0.831 -0.1344 -0.7013 -1.2614
 8042TIP3   OH224089   0.122   5.987   2.701  0.3590  0.6784  0.5302
 8042TIP3    H124090   0.053   5.943   2.751  0.2954  1.0603  0.7759
 8042TIP3    H224091   0.195   5.924   2.701  0.6111  0.9493  1.6889
 8043TIP3   OH224092   0.331   4.119   2.292  0.7528 -0.2175 -0.4781
 8043TIP3    H124093   0.269   4.169   2.343 -1.3251 -1.6204 -1.4826
 8043TIP3    H224094   0.292   4.032   2.285  0.7440 -0.0773 -4.5452
 8044TIP3   OH224095   4.767   2.491   3.824  0.4342 -0.1954  0.1150
 8044TIP3    H124096   4.740   2.403   3.800  1.5150 -0.1923 -1.2859
 8044TIP3    H224097   4.723   2.548   3.761 -0.6842  0.3475  1.3429
 8045TIP3   OH224098   4.509   4.426   5.436  0.3496 -0.0027 -0.3176
 8045TIP3    H124099   4.597   4.405   5.404 -0.3060 -1.9713 -0.9878
 8045TIP3    H224100   4.461   4.343   5.430 -1.6442  1.0824 -0.2294
 8046TIP3   OH224101   3.725   2.354   0.744 -0.5590 -0.0052  0.1994
 8046TIP3    H124102   3.726   2.432   0.799 -2.6827  0.5654 -0.4786
 8046TIP3    H224103   3.780   2.377   0.669  1.3036 -0.3274  1.4009
 8047TIP3   OH224104   2.330   2.223   0.034  0.4957 -0.3053 -0.0504
 8047TIP3    H124105   2.298   2.133   0.035 -0.3294 -0.0682  2.5806
 8047TIP3    H224106   2.425   2.216   0.040  0.5537 -0.9660 -1.3610
 8048TIP3   OH224107   4.602   1.467   5.022  0.6635  0.0495 -0.3342
 8048TIP3    H124108   4.608   1.387   5.073  2.0450  0.6133  0.4673
 8048TIP3    H224109   4.675   1.521   5.054 -0.7730  2.0043 -0.1808
 8049TIP3   OH224110   5.124   1.854   3.314  0.0488  0.1343  0.6173
 8049TIP3    H124111   5.048   1.825   3.265 -0.3318  0.6924  0.8652
 8049TIP3    H224112   5.152   1.776   3.363  0.0190 -0.2369  0.0555
 8050TIP3   OH224113   5.059   5.782   2.083 -0.2349  0.7039 -0.4866
 8050TIP3    H124114   5.147   5.775   2.121 -1.2826 -0.3874  1.9935
 8050TIP3    H224115   5.049   5.700   2.034 -0.1948  0.3841  0.0270
 8051TIP3   OH224116   3.964   1.116   4.580 -0.1024 -0.0004 -0.7837
 8051TIP3    H124117   3.955   1.074   4.665 -1.5028 -0.6967 -1.2547
 8051TIP3    H224118   3.970   1.043   4.518  1.2486  0.4917 -1.2766
 8052TIP3   OH224119   1.133   4.673   0.615  0.1615 -0.6436  0.1870
 8052TIP3    H124120   1.169   4.655   0.702 -0.8684 -1.0016  0.5477
 8052TIP3    H224121   1.042   4.643   0.620 -0.1781  0.1998 -0.7196
 8053TIP3   OH224122   0.843   5.659   1.527  0.0611  0.2306 -0.1605
 8053TIP3    H124123   0.837   5.720   1.454 -0.6075  1.3988  0.8391
 8053TIP3    H224124   0.937   5.638   1.533  0.2754  1.0275 -0.6106
 8054TIP3   OH224125   5.036   3.494   0.418 -0.2198  0.4687 -0.0529
 8054TIP3    H124126   5.131   3.503   0.417 -0.2886  1.3116 -0.4080
 8054TIP3    H224127   5.016   3.445   0.338 -0.0789  0.2875  0.0244
 8055TIP3   OH224128   7.146   5.941   2.191 -0.7554 -0.1159 -0.0082
 8055TIP3    H124129   7.099   6.021   2.166  0.8724  1.2561  1.1001
 8055TIP3    H224130   7.164   5.951   2.284  2.2008 -0.2551 -0.4598
 8056TIP3   OH224131   2.840   0.980   3.439 -0.0780 -0.2900 -0.1644
 8056TIP3    H124132   2.914   1.018   3.488 -1.1720  1.0958  0.4829
 8056TIP3    H224133   2.816   1.048   3.376 -1.2547 -0.4184  0.1245
 8057TIP3   OH224134   6.918   0.739   1.671 -0.2946  0.6992  0.3603
 8057TIP3    H124135   6.961   0.654   1.678  0.2110  0.7845 -1.2746
 8057TIP3    H224136   6.863   0.732   1.593 -1.6998  1.2755  1.2658
 8058TIP3   OH224137   5.862   3.678   1.944 -0.0626  0.3232  0.0540
 8058TIP3    H124138   5.918   3.751   1.916 -0.8492  1.4212  1.2353
 8058TIP3    H224139   5.777   3.698   1.905 -0.1964 -0.1460  0.1095
 8059TIP3   OH224140   2.554   0.319   2.134  0.0005 -0.0388  0.4569
 8059TIP3    H124141   2.575   0.330   2.226 -0.7195 -0.0757  0.6356
 8059TIP3    H224142   2.497   0.242   2.132 -1.9368  1.3406  0.2886
 8060TIP3   OH224143   3.470   3.993   1.574  0.0066 -0.4134  0.5246
 8060TIP3    H124144   3.447   4.010   1.482 -2.7278  1.8396  1.4764
 8060TIP3    H224145   3.565   4.000   1.576  0.0787  0.5651 -1.9829
 8061TIP3   OH224146   0.288   2.649   3.542  0.5344  0.2789  0.1501
 8061TIP3    H124147   0.350   2.637   3.470 -1.1017 -1.0412 -1.1383
 8061TIP3    H224148   0.204   2.619   3.506 -0.4237 -0.0435  2.4911
 8062TIP3   OH224149   5.848   5.223   3.715  0.0416  0.9165  0.0581
 8062TIP3    H124150   5.862   5.189   3.803 -1.0902  3.5608  1.3599
 8062TIP3    H224151   5.758   5.254   3.714  0.0303  0.9987 -2.0478
 8063TIP3   OH224152   4.275   6.688   0.023  0.3263  0.6035 -0.4591
 8063TIP3    H124153   4.230   6.710  -0.059 -3.1950  1.7522  1.5820
 8063TIP3    H224154   4.296   6.773   0.062 -2.3336  0.3055  1.9013
 8064TIP3   OH224155   0.469   4.222   2.091 -0.1545 -0.3935  0.0753
 8064TIP3    H124156   0.419   4.216   2.173 -3.1436  0.6728 -1.4897
 8064TIP3    H224157   0.419   4.167   2.030  1.7564 -0.8063 -1.1814
 8065TIP3   OH224158   0.771   3.047   0.984 -0.2238  0.6391 -0.3352
 8065TIP3    H124159   0.715   2.991   1.039  0.6549  0.7491  0.7013
 8065TIP3    H224160   0.775   3.001   0.901 -0.0031 -0.5680  0.3115
 8066TIP3   OH224161   0.627   0.290   1.866 -0.1119  0.1575  0.2176
 8066TIP3    H124162   0.558   0.230   1.839 -1.0323  0.8584  0.9552
 8066TIP3    H224163   0.706   0.235   1.871 -0.3602 -0.4472 -1.6221
 8067TIP3   OH224164   4.104   2.869   5.689  0.4008 -0.0062  0.0538
 8067TIP3    H124165   4.118   2.822   5.606  1.5534  0.4123  0.0009
 8067TIP3    H224166   4.034   2.820   5.732  0.3022 -0.6756 -0.8370
 8068TIP3   OH224167   2.649   2.329   0.489  0.4909  0.0710  0.1431
 8068TIP3    H124168   2.641   2.297   0.579  1.3844 -0.3480  0.0865
 8068TIP3    H224169   2.579   2.394   0.480 -1.0934 -1.5063  0.4249
 8069TIP3   OH224170   6.033   1.777   1.846  0.2103  0.5142  0.3198
 8069TIP3    H124171   6.044   1.745   1.756  0.7589 -0.6879  0.7942
 8069TIP3    H224172   5.950   1.825   1.845 -0.0579  0.0505 -0.6967
 8070TIP3   OH224173   4.374   5.279   4.819  0.3342 -0.2316  0.7132
 8070TIP3    H124174   4.375   5.183   4.828  1.1308 -0.3458 -0.4220
 8070TIP3    H224175   4.384   5.294   4.725  3.0693  0.9773  1.0968
 8071TIP3   OH224176   6.288   5.695   4.211  0.1873 -0.0222  0.2742
 8071TIP3    H124177   6.341   5.625   4.173 -0.4421 -0.6344  0.5119
 8071TIP3    H224178   6.283   5.761   4.142 -2.3658 -1.8457 -1.4576
 8072TIP3   OH224179   4.228   1.136   5.592  0.0862  0.0231 -0.2380
 8072TIP3    H124180   4.179   1.186   5.657  0.2106  1.7131 -1.3797
 8072TIP3    H224181   4.296   1.091   5.642  0.2191  1.3282  0.7967
 8073TIP3   OH224182  -0.020   3.116   5.853 -0.5749 -0.3539 -0.3765
 8073TIP3    H124183   0.069   3.129   5.886 -1.3046  0.6306  1.3160
 8073TIP3    H224184  -0.016   3.033   5.805  0.7211 -1.5089  1.6245
 8074TIP3   OH224185   2.696   3.788   0.961  0.0549  0.2643  0.3103
 8074TIP3    H124186   2.740   3.791   0.876 -0.9703 -0.1453 -0.2630
 8074TIP3    H224187   2.605   3.767   0.939  0.1441 -1.6892  1.6409
 8075TIP3   OH224188   1.958   5.370   1.236  0.0288  0.7495 -0.5873
 8075TIP3    H124189   2.016   5.314   1.185  0.3623 -0.1655  0.7220
 8075TIP3    H224190   2.007   5.388   1.317 -0.9698  1.0637 -0.0289
 8076TIP3   OH224191   0.590   1.717   3.720  0.6056 -0.3482 -0.1045
 8076TIP3    H124192   0.502   1.729   3.684  0.6832 -0.0377 -0.1951
 8076TIP3    H224193   0.621   1.635   3.681  0.5408 -0.2109 -0.4490
 8077TIP3   OH224194   2.851   4.812   3.051 -0.6209 -0.4691 -0.1265
 8077TIP3    H124195   2.863   4.744   3.117 -0.7443 -1.0020 -0.6431
 8077TIP3    H224196   2.918   4.795   2.985 -0.4439  0.1092 -0.1061
 8078TIP3   OH224197   6.820   0.097   0.698 -0.2215  0.1641  0.0409
 8078TIP3    H124198   6.860   0.184   0.700 -1.2343  0.6916  3.6698
 8078TIP3    H224199   6.860   0.049   0.770 -1.2471 -1.6641 -0.5245
 8079TIP3   OH224200   1.212   0.893   3.802  0.2719 -0.4200  0.2109
 8079TIP3    H124201   1.202   0.835   3.877  1.9747 -1.4988 -0.3478
 8079TIP3    H224202   1.210   0.836   3.726  2.2424  0.1436 -0.3409
 8080TIP3   OH224203   4.340   2.042   5.313  0.1227  0.9190  0.0920
 8080TIP3    H124204   4.408   2.044   5.247  0.1888 -1.2424  0.0210
 8080TIP3    H224205   4.262   2.074   5.268  1.2738  5.0215  0.6091
 8081TIP3   OH224206   2.034   0.704   4.497  0.1908 -0.2204 -0.1780
 8081TIP3    H124207   1.976   0.779   4.482 -0.5329 -0.8956 -0.8761
 8081TIP3    H224208   2.096   0.734   4.563 -1.1601  0.4356  0.8452
 8082TIP3   OH224209   0.790   2.925   5.822 -0.1300 -0.4407 -0.3445
 8082TIP3    H124210   0.841   2.998   5.786 -0.9515  0.7511  0.8300
 8082TIP3    H224211   0.779   2.865   5.748  0.8132  0.4761 -1.2649
 8083TIP3   OH224212   3.273   5.180   4.684  0.2529  0.0071 -0.0842
 8083TIP3    H124213   3.266   5.096   4.639 -0.3860 -0.0028  0.0313
 8083TIP3    H224214   3.314   5.159   4.769  2.2787  0.1411 -0.9582
 8084TIP3   OH224215   5.245   5.093   5.523  0.3874  0.2174 -0.4886
 8084TIP3    H124216   5.193   5.079   5.602  1.1487  0.0442 -0.0111
 8084TIP3    H224217   5.231   5.185   5.501 -1.2034 -0.1541 -1.1617
 8085TIP3   OH224218   0.768   1.078   3.604 -0.6246 -0.0509  0.3391
 8085TIP3    H124219   0.763   1.036   3.690  0.2808  0.4541  0.6505
 8085TIP3    H224220   0.676   1.092   3.579 -0.8975  0.2652  1.4572
 8086TIP3   OH224221   2.156   4.300   1.373 -0.3349  0.3461 -0.0643
 8086TIP3    H124222   2.071   4.344   1.367 -0.2101  0.5546 -0.3558
 8086TIP3    H224223   2.143   4.217   1.327  0.0980  1.1374 -1.7212
 8087TIP3   OH224224   7.188   0.303   3.272 -0.4359  0.1213  0.2214
 8087TIP3    H124225   7.221   0.217   3.244 -1.8132 -0.0011 -1.1258
 8087TIP3    H224226   7.093   0.295   3.268 -0.5975  2.1511 -1.3874
 8088TIP3   OH224227   6.593   1.292   1.044 -0.1543  0.4393  0.6909
 8088TIP3    H124228   6.554   1.341   1.117  0.4244  0.4855  0.9809
 8088TIP3    H224229   6.680   1.267   1.077 -1.0950 -2.3777  1.2673
 8089TIP3   OH224230   3.670   3.726   4.448 -0.0726  0.4470  0.5347
 8089TIP3    H124231   3.591   3.674   4.431  0.2212  0.1025  0.2213
 8089TIP3    H224232   3.673   3.733   4.543  0.3725 -0.8999  0.6543
 8090TIP3   OH224233   3.723   5.863   0.774  0.2497  0.1721  0.0839
 8090TIP3    H124234   3.760   5.943   0.737  0.5806 -0.2220 -0.4631
 8090TIP3    H224235   3.795   5.822   0.822  0.3457 -0.2611 -0.4207
 8091TIP3   OH224236   7.108   3.462   4.615 -0.3382 -0.0600 -1.3492
 8091TIP3    H124237   7.159   3.502   4.545  2.0711  1.2458  0.9969
 8091TIP3    H224238   7.121   3.368   4.604  0.9872  0.1791 -1.9604
 8092TIP3   OH224239   0.754   2.947   2.133 -0.6388 -0.0759  0.0232
 8092TIP3    H124240   0.736   2.855   2.115  2.0881 -1.0520  1.6381
 8092TIP3    H224241   0.693   2.969   2.203  0.3640 -1.5263  1.4431
 8093TIP3   OH224242   3.372   2.616   4.124  0.2316  0.5222 -0.4503
 8093TIP3    H124243   3.408   2.567   4.049  1.2455  1.3904 -0.5552
 8093TIP3    H224244   3.409   2.572   4.201  0.0402  0.2851 -0.4922
 8094TIP3   OH224245   2.352   3.182   5.596 -0.0540 -0.2343 -0.4502
 8094TIP3    H124246   2.293   3.205   5.524 -0.1980 -1.3442 -0.7080
 8094TIP3    H224247   2.437   3.167   5.554  0.7512  2.4343  0.0481
 8095TIP3   OH224248   6.309   0.494   5.686 -0.1976 -0.1123 -0.3495
 8095TIP3    H124249   6.302   0.407   5.725 -0.1935  0.0176 -0.0563
 8095TIP3    H224250   6.403   0.509   5.676 -0.1330  0.4255  0.8989
 8096TIP3   OH224251   5.848   3.985   2.989  0.1329 -0.0790 -0.8950
 8096TIP3    H124252   5.781   3.936   2.942  0.4532 -1.7366  0.2975
 8096TIP3    H224253   5.799   4.034   3.056 -0.0249 -0.2427 -0.8885
 8097TIP3   OH224254   7.084   0.768   4.229  0.6219 -0.3916  0.0961
 8097TIP3    H124255   7.093   0.770   4.133 -0.3607  0.1018  0.0048
 8097TIP3    H224256   7.018   0.701   4.245 -0.7356  0.9462  0.2822
 8098TIP3   OH224257   1.220   4.543   5.680 -0.1233 -0.4272 -0.2974
 8098TIP3    H124258   1.291   4.480   5.686 -0.1858 -0.5337 -0.7068
 8098TIP3    H224259   1.241   4.609   5.747  1.1536  0.3529 -1.4260
 8099TIP3   OH224260   6.507   0.360   0.313 -0.2448  0.7094 -0.0934
 8099TIP3    H124261   6.457   0.315   0.244 -1.6765 -0.3140  1.5448
 8099TIP3    H224262   6.543   0.437   0.269 -0.3014 -0.3935 -2.2187
 8100TIP3   OH224263   7.174   1.469   0.769 -0.2525  0.1443  0.1398
 8100TIP3    H124264   7.191   1.428   0.854  0.2102  0.8706  0.4103
 8100TIP3    H224265   7.218   1.554   0.774  2.5980 -1.0306 -1.9883
 8101TIP3   OH224266   7.154   4.522   2.469  0.2253  0.1524 -0.0136
 8101TIP3    H124267   7.175   4.459   2.401  5.2788  1.4583 -0.0417
 8101TIP3    H224268   7.137   4.469   2.547 -0.3410 -1.2363 -1.0402
 8102TIP3   OH224269   7.146   1.296   4.240  0.2346  0.0352 -0.1204
 8102TIP3    H124270   7.088   1.288   4.164 -1.6570 -1.1737  1.3507
 8102TIP3    H224271   7.153   1.390   4.256  0.8931  0.3203 -1.9210
 8103TIP3   OH224272   5.504   0.668   3.778 -0.3588 -0.2164 -0.0816
 8103TIP3    H124273   5.455   0.618   3.843 -0.2127 -2.2278 -1.4382
 8103TIP3    H224274   5.532   0.747   3.825 -3.2873  0.1415  1.2516
 8104TIP3   OH224275   0.215   3.046   0.601 -0.7865  0.3872 -0.6619
 8104TIP3    H124276   0.121   3.037   0.611 -0.8386  0.0981 -1.3723
 8104TIP3    H224277   0.227   3.120   0.542 -0.6346 -0.5754 -1.8768
 8105TIP3   OH224278   0.124   5.779   0.167  0.2676 -0.5844 -0.5371
 8105TIP3    H124279   0.045   5.799   0.116 -0.1088  0.5450  0.4645
 8105TIP3    H224280   0.196   5.799   0.107 -0.1752  0.5583 -0.7196
 8106TIP3   OH224281   6.336   1.448   0.830  0.5151  0.4520  0.5005
 8106TIP3    H124282   6.408   1.487   0.780  0.8520 -0.5934  0.1506
 8106TIP3    H224283   6.358   1.468   0.921  0.4588  1.4386  0.3046
 8107TIP3   OH224284   4.302   3.173   1.891  0.0036 -0.2073 -0.7825
 8107TIP3    H124285   4.396   3.168   1.873  0.3876 -1.8578  1.3315
 8107TIP3    H224286   4.295   3.213   1.977 -1.2970  0.3931 -1.1313
 8108TIP3   OH224287   3.506   5.920   1.862  0.1686 -0.8231 -0.3792
 8108TIP3    H124288   3.502   5.937   1.956 -0.7261 -1.1957 -0.3448
 8108TIP3    H224289   3.564   5.844   1.853  0.4755 -0.6177 -0.1583
 8109TIP3   OH224290   6.547   1.957   0.622 -0.3854  0.3710  0.0868
 8109TIP3    H124291   6.571   1.888   0.560  1.3373  0.6405  0.4003
 8109TIP3    H224292   6.519   2.030   0.566 -0.3835  0.0751 -0.3104
 8110TIP3   OH224293   5.838   3.426   1.474 -0.0157  0.5694 -0.0890
 8110TIP3    H124294   5.830   3.365   1.401 -0.2304 -0.9630  1.1579
 8110TIP3    H224295   5.757   3.413   1.524 -0.4317  2.4771 -0.2125
 8111TIP3   OH224296   4.799   4.669   4.460 -0.1073  0.3421  0.2695
 8111TIP3    H124297   4.833   4.583   4.481  0.2004  0.3709 -0.1037
 8111TIP3    H224298   4.767   4.704   4.544  0.5992  0.2374  0.5879
 8112TIP3   OH224299   0.120   1.232   1.465 -0.5647  0.5126 -0.2013
 8112TIP3    H124300   0.170   1.227   1.546  3.0331  1.5988 -2.1445
 8112TIP3    H224301   0.095   1.141   1.446 -1.9968  0.3073  2.2939
 8113TIP3   OH224302   0.082   0.882   5.796 -0.0516 -0.3532  0.6673
 8113TIP3    H124303  -0.010   0.904   5.782  0.1642  0.3409  0.3231
 8113TIP3    H224304   0.104   0.922   5.880  0.5702  1.5261 -0.3481
 8114TIP3   OH224305   2.019   3.873   4.937 -0.3589 -0.3191 -0.0750
 8114TIP3    H124306   2.042   3.915   5.020  2.1863  2.3962 -1.9623
 8114TIP3    H224307   1.940   3.919   4.908 -1.1446 -1.1453  0.6984
 8115TIP3   OH224308   5.261   2.129   5.012  0.1425  0.7462  0.2407
 8115TIP3    H124309   5.245   2.141   5.106  1.8710  1.5636  0.4553
 8115TIP3    H224310   5.174   2.137   4.973 -0.5696  0.7144  1.7257
 8116TIP3   OH224311   4.399   6.752   0.385 -0.1274 -0.1213 -0.0807
 8116TIP3    H124312   4.491   6.731   0.369  0.1242  1.0350 -0.2399
 8116TIP3    H224313   4.385   6.835   0.339 -0.9828  0.2328  0.7932
 8117TIP3   OH224314   2.031   0.598   5.311  0.0179 -0.3270  0.1767
 8117TIP3    H124315   2.017   0.679   5.262 -0.7208  0.6564  1.9264
 8117TIP3    H224316   2.119   0.570   5.285 -0.2065  0.3307 -1.4095
 8118TIP3   OH224317   5.017   5.022   1.856  0.4445  0.1576 -0.5739
 8118TIP3    H124318   5.017   5.106   1.810 -0.5703  0.4973  0.0109
 8118TIP3    H224319   4.950   5.032   1.925  0.5457 -1.0086 -0.2813
 8119TIP3   OH224320   2.615   5.972   1.659  0.3056  0.2332 -0.2164
 8119TIP3    H124321   2.696   5.921   1.667  0.3006  0.4305  1.6431
 8119TIP3    H224322   2.628   6.027   1.582  0.6674 -1.9011 -1.7793
 8120TIP3   OH224323   1.364   5.019   0.484 -0.0699 -0.3245 -0.4622
 8120TIP3    H124324   1.425   5.048   0.551  1.0367  0.0291 -1.5787
 8120TIP3    H224325   1.375   4.924   0.480 -0.4121 -0.3919  0.0950
 8121TIP3   OH224326   3.984   0.323   3.748  0.0628  0.2708 -0.4824
 8121TIP3    H124327   3.972   0.240   3.794  0.5303  0.2096 -0.4588
 8121TIP3    H224328   3.917   0.381   3.784  1.4675  0.7469  1.5447
 8122TIP3   OH224329   2.377   0.116   5.557  0.6462  0.1394  0.1769
 8122TIP3    H124330   2.425   0.193   5.528 -1.2336  0.4596 -2.4861
 8122TIP3    H224331   2.433   0.042   5.532  0.5784  0.5498 -1.2673
 8123TIP3   OH224332   1.477   3.743   5.158 -0.3366 -0.2888 -0.3838
 8123TIP3    H124333   1.444   3.788   5.236 -1.3687 -0.7839 -0.5152
 8123TIP3    H224334   1.571   3.733   5.174 -0.8201 -2.4009  1.8852
 8124TIP3   OH224335   4.687   0.523   5.029  0.0988 -0.0557 -0.0142
 8124TIP3    H124336   4.642   0.582   5.089  0.8253  0.1842  0.3009
 8124TIP3    H224337   4.777   0.554   5.028  0.0157  0.2449 -1.5946
 8125TIP3   OH224338   6.147   4.060   1.603  0.1386 -0.7696  0.0076
 8125TIP3    H124339   6.160   4.139   1.655  0.2776 -0.3816 -0.6079
 8125TIP3    H224340   6.082   4.085   1.537  0.1793 -1.1688 -0.1887
 8126TIP3   OH224341   3.142   2.013   1.764  0.5885 -0.0210 -0.6168
 8126TIP3    H124342   3.223   2.039   1.719  0.0039 -0.2809 -1.8530
 8126TIP3    H224343   3.170   1.994   1.854  1.6990  1.0441 -0.7003
 8127TIP3   OH224344   4.808   6.190   2.494  0.3263  0.5657  0.2113
 8127TIP3    H124345   4.865   6.114   2.485  1.7781  1.5079  1.0723
 8127TIP3    H224346   4.768   6.181   2.581 -1.4978 -0.4820 -0.6802
 8128TIP3   OH224347   0.952   4.705   2.665  0.0500 -0.0406 -0.2196
 8128TIP3    H124348   0.968   4.684   2.573 -1.2538 -0.5752 -0.3461
 8128TIP3    H224349   0.993   4.633   2.714 -1.7534 -1.3403 -0.5287
 8129TIP3   OH224350   2.032   5.735   4.144 -0.0252  0.2921  0.3527
 8129TIP3    H124351   2.103   5.705   4.200  0.7408  0.6362 -0.4233
 8129TIP3    H224352   2.023   5.828   4.163 -0.4004  0.2059  0.5966
 8130TIP3   OH224353   4.744   1.719   1.859 -0.3867  0.0367 -1.1439
 8130TIP3    H124354   4.828   1.738   1.817 -0.8470 -0.5008 -2.3518
 8130TIP3    H224355   4.745   1.624   1.870  0.3835  0.2801  1.5517
 8131TIP3   OH224356   4.158   5.527   2.064 -0.0101 -0.3127  0.5622
 8131TIP3    H124357   4.125   5.454   2.011 -0.5438 -2.3425  3.4238
 8131TIP3    H224358   4.082   5.558   2.112  0.7300  0.2951  1.3732
 8132TIP3   OH224359   6.348   1.385   3.429  0.3297 -0.8425  0.5565
 8132TIP3    H124360   6.347   1.479   3.448 -1.0587 -0.7702  0.2431
 8132TIP3    H224361   6.303   1.345   3.503  0.4925 -1.2156  0.4557
 8133TIP3   OH224362   4.884   0.538   2.923  0.2487 -1.0647  0.2061
 8133TIP3    H124363   4.792   0.527   2.948  0.3359 -1.4357  0.3664
 8133TIP3    H224364   4.905   0.458   2.875  1.0417 -1.8677  1.8184
 8134TIP3   OH224365   1.883   0.128   3.605 -0.2177 -0.5884 -0.5215
 8134TIP3    H124366   1.888   0.033   3.602  0.4179 -0.5529 -0.5805
 8134TIP3    H224367   1.871   0.154   3.514 -1.0893 -0.6426 -0.4344
 8135TIP3   OH224368   2.062   5.140   5.442 -0.3953  0.0455  0.2091
 8135TIP3    H124369   2.116   5.187   5.506  1.0473 -0.5471 -0.5475
 8135TIP3    H224370   2.022   5.209   5.389 -2.6603  0.6466  2.4517
 8136TIP3   OH224371   1.025   0.389   3.108 -0.4108 -0.2393 -1.3260
 8136TIP3    H124372   0.932   0.372   3.095 -0.4246 -1.8993  0.4824
 8136TIP3    H224373   1.057   0.312   3.155  1.2189  1.5800  0.7763
 8137TIP3   OH224374   3.018   5.532   1.318 -0.1865  0.0776  0.6602
 8137TIP3    H124375   2.953   5.602   1.315  1.2573  1.4996  1.2522
 8137TIP3    H224376   3.002   5.481   1.239 -0.9990  1.3295 -0.0182
 8138TIP3   OH224377   3.124   4.427   3.011  0.8869  0.3337  0.2405
 8138TIP3    H124378   3.127   4.484   2.934  0.1422  0.7248  0.4927
 8138TIP3    H224379   3.210   4.437   3.052  1.2119  0.2855 -0.4216
 8139TIP3   OH224380   5.844   3.595   5.109 -0.3582 -0.1072  0.2753
 8139TIP3    H124381   5.887   3.522   5.066  0.3657  0.7608 -0.5062
 8139TIP3    H224382   5.888   3.673   5.076 -1.6361  0.7417  0.4695
 8140TIP3   OH224383   3.773   3.704   5.229  0.0836 -0.3393  0.2432
 8140TIP3    H124384   3.701   3.721   5.168  0.6729  0.2489 -0.3086
 8140TIP3    H224385   3.828   3.641   5.184  0.3400 -0.1660  0.3134
 8141TIP3   OH224386   4.252   0.170   1.642  0.8660  0.6533  0.6790
 8141TIP3    H124387   4.184   0.103   1.645  1.4134 -0.0884 -1.6407
 8141TIP3    H224388   4.217   0.238   1.585  2.1675  0.0716 -0.8885
 8142TIP3   OH224389   5.487   1.318   2.759 -0.2879  0.0287 -0.4656
 8142TIP3    H124390   5.522   1.260   2.827  0.5994 -1.0282 -1.7773
 8142TIP3    H224391   5.528   1.403   2.778  1.3565 -0.6658 -0.6771
 8143TIP3   OH224392   0.443   3.102   4.182  0.5261  0.1189 -0.1762
 8143TIP3    H124393   0.392   3.128   4.105 -0.3468 -0.0359  0.3393
 8143TIP3    H224394   0.515   3.049   4.146 -0.4940 -0.8823 -0.8195
 8144TIP3   OH224395   6.610   4.526   4.186 -0.2995 -0.2358  0.7386
 8144TIP3    H124396   6.608   4.460   4.117 -0.8835 -0.6797  1.1727
 8144TIP3    H224397   6.522   4.563   4.188  0.1819  1.0308  0.0696
 8145TIP3   OH224398   2.436   0.150   2.816  0.1196  0.6052 -0.4403
 8145TIP3    H124399   2.404   0.135   2.905 -0.3141  2.3308 -0.2652
 8145TIP3    H224400   2.495   0.077   2.798 -0.3775 -0.1659  0.9733
 8146TIP3   OH224401   6.171   5.796   1.842  0.1652 -0.6123  0.1006
 8146TIP3    H124402   6.170   5.719   1.899  0.4209  0.5342  1.7318
 8146TIP3    H224403   6.078   5.813   1.824 -0.2208  0.7800  2.8010
 8147TIP3   OH224404   2.767   2.859   3.593 -0.0641  0.1965 -0.4972
 8147TIP3    H124405   2.741   2.940   3.549  1.2165  1.3734  0.8195
 8147TIP3    H224406   2.861   2.852   3.578 -0.3067 -1.5944 -1.4078
 8148TIP3   OH224407   4.481   2.073   5.531 -0.2894 -0.5817  0.2437
 8148TIP3    H124408   4.512   1.992   5.573 -1.8398 -0.7188  1.2365
 8148TIP3    H224409   4.453   2.045   5.444  1.1072 -0.6934 -0.1863
 8149TIP3   OH224410   0.650   5.003   1.237  0.0765 -0.0853  0.2033
 8149TIP3    H124411   0.571   5.053   1.217 -0.0629 -0.5242 -0.3480
 8149TIP3    H224412   0.693   5.054   1.306  0.2774  1.1374 -0.7910
 8150TIP3   OH224413   7.165   2.536   0.797  0.2479  0.5487  1.1597
 8150TIP3    H124414   7.110   2.536   0.875 -0.7825 -0.2139  0.4680
 8150TIP3    H224415   7.103   2.527   0.724  1.2342  0.4881  0.3017
 8151TIP3   OH224416   4.863   0.781   2.820  0.3625 -0.5409 -0.2628
 8151TIP3    H124417   4.885   0.714   2.886  0.4029  0.4260  0.7398
 8151TIP3    H224418   4.905   0.750   2.740  0.2116 -1.8168  0.1282
 8152TIP3   OH224419   0.692   0.677   2.598 -0.0574 -0.3843  0.1003
 8152TIP3    H124420   0.772   0.728   2.588  0.5637 -0.8758  2.1398
 8152TIP3    H224421   0.666   0.655   2.509  1.2171  1.0925 -0.6718
 8153TIP3   OH224422   6.508   0.850   3.596  0.0219 -0.0819  0.0752
 8153TIP3    H124423   6.431   0.906   3.598 -0.3014 -0.4528 -1.2798
 8153TIP3    H224424   6.555   0.871   3.678 -1.3553  0.3338  0.7889
 8154TIP3   OH224425   1.675   5.360   3.365 -0.2692 -0.6224  0.2673
 8154TIP3    H124426   1.687   5.270   3.335  0.0474 -0.9215  1.2438
 8154TIP3    H224427   1.750   5.407   3.331  0.2656 -1.0313  0.8537
 8155TIP3   OH224428   2.460   6.401   4.827 -0.2415 -0.2548  0.1361
 8155TIP3    H124429   2.386   6.457   4.853  0.4990  0.9852 -0.3291
 8155TIP3    H224430   2.522   6.409   4.899 -0.1783 -0.5759  0.1175
 8156TIP3   OH224431   3.439   6.589   1.968 -0.1929 -0.3656  0.2377
 8156TIP3    H124432   3.518   6.542   1.941  1.1771  0.9918  1.6248
 8156TIP3    H224433   3.394   6.530   2.028 -0.3763 -1.2423 -0.7473
 8157TIP3   OH224434   2.868   5.388   4.812  0.0857  0.4187  0.0933
 8157TIP3    H124435   2.864   5.294   4.824  2.0839  0.3885  0.9631
 8157TIP3    H224436   2.784   5.421   4.845  0.2495 -0.8713  1.9243
 8158TIP3   OH224437   5.805   2.189   4.024  0.0132  0.1874 -0.1706
 8158TIP3    H124438   5.802   2.095   4.006 -1.2280  0.1119  0.3318
 8158TIP3    H224439   5.730   2.225   3.978  0.5843  0.9665 -0.5035
 8159TIP3   OH224440   0.648   1.316   3.402 -0.3182 -0.3580 -0.0267
 8159TIP3    H124441   0.569   1.362   3.372 -1.0076  0.2020  2.3735
 8159TIP3    H224442   0.642   1.229   3.362 -2.2780 -0.3985  0.2348
 8160TIP3   OH224443   2.884   6.237   1.203  0.5206 -0.7464 -0.6069
 8160TIP3    H124444   2.832   6.314   1.181 -0.8335 -1.2616  0.6320
 8160TIP3    H224445   2.973   6.260   1.178 -0.0155  0.8253 -1.1796
 8161TIP3   OH224446   7.078   1.332   0.416 -0.6576  0.7959 -0.1905
 8161TIP3    H124447   7.148   1.385   0.378  0.5703 -0.0809  0.7701
 8161TIP3    H224448   7.053   1.272   0.346  1.9733 -1.1881  0.4009
 8162TIP3   OH224449   1.739   0.469   5.260 -0.5178  0.1803  0.3764
 8162TIP3    H124450   1.751   0.431   5.173  2.0758 -0.8946  1.0948
 8162TIP3    H224451   1.796   0.546   5.260  3.0841 -2.1890  2.3378
 8163TIP3   OH224452   1.464   5.029   1.263  0.2580 -0.3546  0.4734
 8163TIP3    H124453   1.424   5.009   1.348  2.6306  2.8638  2.5670
 8163TIP3    H224454   1.443   5.121   1.248  1.0961 -0.4656 -1.7872
 8164TIP3   OH224455   5.095   3.840   1.457  0.4463 -0.0397  0.0442
 8164TIP3    H124456   5.016   3.883   1.490  0.4333 -1.6439  2.3372
 8164TIP3    H224457   5.068   3.751   1.438  1.7113 -0.6657  1.0214
 8165TIP3   OH224458   5.933   1.345   1.196  0.3248  0.2187  0.2865
 8165TIP3    H124459   5.849   1.342   1.241  0.6761 -1.6428  0.9196
 8165TIP3    H224460   5.975   1.425   1.226 -0.0267 -0.2900  2.2477
 8166TIP3   OH224461   4.867   0.465   1.547 -0.4422  0.3367  0.6618
 8166TIP3    H124462   4.886   0.538   1.488 -0.9216 -1.4437 -1.8844
 8166TIP3    H224463   4.774   0.445   1.532 -0.2736 -0.9062  1.1160
 8167TIP3   OH224464   4.806   1.368   1.311 -0.2492  0.6002  0.2759
 8167TIP3    H124465   4.820   1.276   1.331  0.3210  0.1592 -1.9367
 8167TIP3    H224466   4.833   1.378   1.220  0.1316  3.0620  0.5837
 8168TIP3   OH224467   1.859   5.193   1.820  0.2344 -0.2247  0.2111
 8168TIP3    H124468   1.808   5.168   1.743 -0.0927 -1.1777  0.7310
 8168TIP3    H224469   1.911   5.116   1.840 -0.6758 -0.4676  1.7513
 8169TIP3   OH224470   0.771   6.360   0.878  0.0977  0.2020  0.1950
 8169TIP3    H124471   0.739   6.338   0.966  1.5544 -0.3979  0.5918
 8169TIP3    H224472   0.818   6.442   0.890 -1.5561  1.3005 -0.4683
 8170TIP3   OH224473   3.101   1.755   5.827 -0.0373  0.0136 -0.4333
 8170TIP3    H124474   3.189   1.733   5.858 -0.1175 -1.5437 -1.2016
 8170TIP3    H224475   3.087   1.845   5.857  0.6394 -0.6975  2.3186
 8171TIP3   OH224476   4.145   1.795   4.687  0.2589 -0.6343  0.0477
 8171TIP3    H124477   4.199   1.795   4.608 -1.1016  4.0473 -1.1767
 8171TIP3    H224478   4.068   1.743   4.663  0.2867 -0.0438 -1.4529
 8172TIP3   OH224479   3.570   5.939   1.287 -0.7159  0.3220 -0.1323
 8172TIP3    H124480   3.608   6.019   1.250 -0.1609 -0.0157 -0.3011
 8172TIP3    H224481   3.479   5.941   1.258 -0.8442  1.1405  0.2716
 8173TIP3   OH224482   3.209   2.280   1.385  0.3996 -0.0976 -0.3752
 8173TIP3    H124483   3.144   2.302   1.452 -0.0402 -0.2574 -0.7424
 8173TIP3    H224484   3.179   2.326   1.306  0.2709 -0.8356 -0.7654
 8174TIP3   OH224485   1.962   1.674   2.615 -0.3459 -0.1266  0.2091
 8174TIP3    H124486   1.882   1.686   2.667 -0.1135  0.0175  0.5399
 8174TIP3    H224487   1.932   1.674   2.524 -0.9738 -2.0181  0.3728
 8175TIP3   OH224488   4.374   3.345   4.659 -0.2498 -0.2488 -0.1386
 8175TIP3    H124489   4.436   3.304   4.719  1.0015  0.3084 -1.0168
 8175TIP3    H224490   4.323   3.272   4.624 -0.6935 -0.6248  1.2438
 8176TIP3   OH224491   3.807   5.016   3.768 -0.1860 -0.4362  0.3742
 8176TIP3    H124492   3.750   4.999   3.693 -0.7546  1.9171  0.2198
 8176TIP3    H224493   3.788   5.106   3.794  1.7722 -0.3713  1.8312
 8177TIP3   OH224494   5.988   5.569   4.034 -0.0609 -0.4348  0.0802
 8177TIP3    H124495   6.046   5.601   3.964  1.7552  1.7031  2.3705
 8177TIP3    H224496   6.046   5.549   4.107 -2.0332  0.5097  2.0567
 8178TIP3   OH224497   4.766   6.161   2.766  0.4972 -0.3855  0.0203
 8178TIP3    H124498   4.723   6.168   2.852  0.4716  1.9167 -0.1090
 8178TIP3    H224499   4.860   6.160   2.787  0.5410  1.3393  0.1038
 8179TIP3   OH224500   1.326   1.726   2.004 -0.4506  0.2227  0.4161
 8179TIP3    H124501   1.343   1.776   1.924 -0.9017 -1.1192 -0.5620
 8179TIP3    H224502   1.376   1.772   2.072  1.1686  0.5551 -0.9157
 8180TIP3   OH224503   2.784   0.597   4.225  0.0991  0.5629  0.1478
 8180TIP3    H124504   2.722   0.669   4.233 -0.9817 -0.2273 -0.7920
 8180TIP3    H224505   2.758   0.535   4.293 -1.1295 -0.4335 -1.1602
 8181TIP3   OH224506   6.162   4.640   1.654  0.0693  0.9990  0.5250
 8181TIP3    H124507   6.244   4.679   1.624 -0.0983  1.4332  0.6197
 8181TIP3    H224508   6.120   4.606   1.575  1.9769 -2.5073  0.8092
 8182TIP3   OH224509   2.831   4.733   4.448 -0.2108  0.5036 -0.2064
 8182TIP3    H124510   2.760   4.670   4.453  0.3503 -0.4635 -2.8914
 8182TIP3    H224511   2.889   4.709   4.521 -1.8937  0.4317  1.1596
 8183TIP3   OH224512   2.481   6.092   0.956  0.3387  0.6153 -0.0639
 8183TIP3    H124513   2.399   6.044   0.939  0.0621  1.1039 -0.1429
 8183TIP3    H224514   2.473   6.122   1.046 -0.0316  1.5332 -0.3897
 8184TIP3   OH224515   5.542   1.089   2.934 -0.0998  0.1441 -0.0355
 8184TIP3    H124516   5.524   1.089   3.028 -1.6392  0.5673 -0.3066
 8184TIP3    H224517   5.482   1.024   2.898 -2.4986  2.7622 -1.1705
 8185TIP3   OH224518   2.939   1.357   3.034 -0.0163  0.0647  0.4248
 8185TIP3    H124519   2.943   1.420   3.106  0.9454 -0.5598  0.9339
 8185TIP3    H224520   2.983   1.400   2.961  0.4267  0.0829  0.6992
 8186TIP3   OH224521   4.981   5.626   4.007 -0.2806 -0.0403  0.1683
 8186TIP3    H124522   5.041   5.601   3.938  0.9015  1.3577  0.6425
 8186TIP3    H224523   5.007   5.715   4.031 -1.5161  0.0067  1.4928
 8187TIP3   OH224524   0.583   5.714   3.228  0.0871 -0.4182 -0.1753
 8187TIP3    H124525   0.618   5.746   3.311 -3.5533  0.1214  1.3485
 8187TIP3    H224526   0.492   5.693   3.248 -1.0248 -0.0281 -4.1098
 8188TIP3   OH224527   0.209   5.963   1.753  0.0688  0.0836 -0.0137
 8188TIP3    H124528   0.200   6.013   1.834  1.3745 -1.2726  1.0154
 8188TIP3    H224529   0.120   5.933   1.734 -0.0392 -0.9979  1.8924
 8189TIP3   OH224530   5.580   6.054   5.860 -0.4415  0.4088  0.2910
 8189TIP3    H124531   5.631   6.039   5.940  0.9944 -1.9063 -0.9402
 8189TIP3    H224532   5.596   6.146   5.839  1.5992  0.2841  1.0737
 8190TIP3   OH224533   5.146   2.713   0.693  0.2308 -0.0064  0.3606
 8190TIP3    H124534   5.085   2.687   0.763  0.9294 -0.3312  0.8582
 8190TIP3    H224535   5.123   2.803   0.674  0.8401  0.5193  1.9041
 8191TIP3   OH224536   5.152   0.418   4.584  0.2891  0.1112  0.0059
 8191TIP3    H124537   5.245   0.416   4.563 -0.2083  0.6298 -2.5790
 8191TIP3    H224538   5.129   0.327   4.602  1.4519  0.1048  1.5958
 8192TIP3   OH224539   2.234   3.353   4.512  0.5254 -0.0977 -0.3934
 8192TIP3    H124540   2.227   3.270   4.465 -0.3348 -0.7546  0.8283
 8192TIP3    H224541   2.307   3.399   4.469  0.0549 -0.8283 -2.0446
 8193TIP3   OH224542   5.088   1.550   5.754  0.3844 -0.4067 -0.0534
 8193TIP3    H124543   5.156   1.558   5.687  0.5816 -0.9667  0.0809
 8193TIP3    H224544   5.038   1.632   5.746  1.2868  0.1786  0.0917
 8194TIP3   OH224545   0.084   5.853   1.980  0.0929  0.2165 -0.1476
 8194TIP3    H124546   0.023   5.894   2.042 -0.3396  0.2099 -0.5662
 8194TIP3    H224547   0.162   5.909   1.983  0.1491  0.1117  0.5395
 8195TIP3   OH224548   6.797   3.365   5.359 -0.0714  0.0073 -0.5705
 8195TIP3    H124549   6.760   3.415   5.286 -1.2582  0.9731  0.6258
 8195TIP3    H224550   6.747   3.284   5.360 -2.4689  1.3588  1.1182
 8196TIP3   OH224551   3.314   3.620   1.633  0.4598 -0.0120  0.1034
 8196TIP3    H124552   3.410   3.618   1.632  0.4489 -0.7752 -0.7241
 8196TIP3    H224553   3.292   3.659   1.717  1.5038  1.2043 -0.1638
 8197TIP3   OH224554   1.282   3.007   3.263  0.1779  0.3287  0.1534
 8197TIP3    H124555   1.370   3.046   3.269  1.5252 -2.4719  0.0629
 8197TIP3    H224556   1.277   2.972   3.174 -1.1103  0.5581  0.1168
 8198TIP3   OH224557   3.036   1.049   4.667 -0.2981 -0.1642  0.4508
 8198TIP3    H124558   2.975   0.976   4.660  0.4666 -0.8891  1.2094
 8198TIP3    H224559   3.077   1.054   4.581 -0.7183 -0.2825  0.2383
 8199TIP3   OH224560   4.736   4.261   5.041  0.1094  0.4472  0.1745
 8199TIP3    H124561   4.754   4.284   5.132  0.7548  0.7319 -0.0256
 8199TIP3    H224562   4.708   4.169   5.045 -0.9652  0.7849  0.7872
 8200TIP3   OH224563   0.781   5.266   3.981 -0.0049  1.0481 -0.3869
 8200TIP3    H124564   0.703   5.214   3.961  0.8844 -0.3672 -0.3346
 8200TIP3    H224565   0.806   5.305   3.897 -0.6161  1.3013 -0.4525
 8201TIP3   OH224566   0.652   3.605   3.564  0.1238  0.5124 -0.2003
 8201TIP3    H124567   0.633   3.538   3.498  0.0512  1.0428 -0.7281
 8201TIP3    H224568   0.572   3.658   3.567  0.5454  1.1870 -0.5369
 8202TIP3   OH224569   1.146   6.493   3.723 -0.6813  0.1291  0.0612
 8202TIP3    H124570   1.141   6.403   3.754 -0.5167 -0.1972 -0.8190
 8202TIP3    H224571   1.239   6.516   3.729 -0.6606  0.0924 -0.1123
 8203TIP3   OH224572   0.939   0.252   1.144  0.1381 -0.1927 -0.1588
 8203TIP3    H124573   0.871   0.302   1.099 -0.3178 -0.6012  0.0791
 8203TIP3    H224574   0.975   0.314   1.208 -0.2020 -0.0675 -0.0872
 8204TIP3   OH224575   5.788   1.417   5.219  0.1364  0.2408  0.1574
 8204TIP3    H124576   5.781   1.512   5.215 -0.4626  0.3949  3.0021
 8204TIP3    H224577   5.814   1.398   5.309 -0.4871 -2.3269 -0.1193
 8205TIP3   OH224578   2.722   3.694   0.049  0.0421 -0.1386  0.3194
 8205TIP3    H124579   2.765   3.630  -0.007  1.4109  0.6554  0.4198
 8205TIP3    H224580   2.696   3.764  -0.011 -1.5556 -0.8055  0.1907
 8206TIP3   OH224581   5.519   6.382   2.593 -0.2609  0.3646  0.3215
 8206TIP3    H124582   5.525   6.462   2.645  0.5228 -1.1229  2.7026
 8206TIP3    H224583   5.598   6.333   2.615 -2.0784 -2.3482  1.3348
 8207TIP3   OH224584   1.937   0.619   4.927 -0.2205 -0.0846 -0.1716
 8207TIP3    H124585   1.911   0.698   4.879 -0.3731 -1.2262 -2.0775
 8207TIP3    H224586   2.032   0.619   4.925 -0.2192  0.1033 -0.0862
 8208TIP3   OH224587   1.254   6.135   3.046  0.0803 -0.5654  0.0383
 8208TIP3    H124588   1.275   6.124   3.139  0.4547  1.1397  0.1777
 8208TIP3    H224589   1.211   6.220   3.041  0.1240 -0.6072 -1.3745
 8209TIP3   OH224590   3.593   4.403   4.704 -0.5536  0.6120  0.1313
 8209TIP3    H124591   3.521   4.346   4.731 -1.7055  0.0499 -3.5259
 8209TIP3    H224592   3.551   4.473   4.655  1.3005  0.6473 -1.5502
 8210TIP3   OH224593   4.857   1.805   2.562 -0.6284  0.0171 -0.4893
 8210TIP3    H124594   4.822   1.736   2.617 -1.1316 -0.4281 -1.3571
 8210TIP3    H224595   4.854   1.883   2.617 -2.1275 -0.1916 -0.2313
 8211TIP3   OH224596   1.515   4.182   4.663 -0.2483  0.2821  0.7166
 8211TIP3    H124597   1.593   4.237   4.669  0.1160 -0.1669  0.1820
 8211TIP3    H224598   1.537   4.103   4.711 -0.9070  0.7365  1.8028
 8212TIP3   OH224599   5.134   2.274   4.144 -0.6674  0.4940  0.3833
 8212TIP3    H124600   5.066   2.252   4.207 -1.5213  0.8212 -0.4101
 8212TIP3    H224601   5.088   2.315   4.071  0.0760 -1.3579 -1.2197
 8213TIP3   OH224602   2.504   2.791   4.522  0.9822  0.1008  0.2255
 8213TIP3    H124603   2.489   2.727   4.452  1.3198  0.4823 -0.2013
 8213TIP3    H224604   2.599   2.801   4.526  0.9070  1.1328 -0.2327
 8214TIP3   OH224605   1.288   1.021   5.344  0.3289  0.0263 -0.0708
 8214TIP3    H124606   1.241   0.940   5.323  0.5321 -0.1067 -0.0124
 8214TIP3    H224607   1.363   1.022   5.284 -0.1412  0.5994 -0.6688
 8215TIP3   OH224608   3.533   3.281   2.930  0.0745 -0.0235 -0.3454
 8215TIP3    H124609   3.624   3.254   2.914 -0.0292 -1.5880  1.4766
 8215TIP3    H224610   3.529   3.370   2.893  2.5000  0.3255  0.0146
 8216TIP3   OH224611   3.874   1.998   3.789 -0.4004 -0.1901 -0.5226
 8216TIP3    H124612   3.939   1.940   3.829 -1.0313 -0.4736  0.1268
 8216TIP3    H224613   3.792   1.948   3.793 -0.5393 -0.1044 -1.9267
 8217TIP3   OH224614   2.546   2.922   0.401  0.3398 -0.0233  0.8253
 8217TIP3    H124615   2.556   2.972   0.482 -0.9927  1.3842  0.1918
 8217TIP3    H224616   2.493   2.979   0.345 -2.6786 -2.7423  0.5813
 8218TIP3   OH224617   4.168   4.695   5.586 -0.5470 -0.0524  0.1351
 8218TIP3    H124618   4.227   4.748   5.639 -1.6935  0.5655  0.8158
 8218TIP3    H224619   4.081   4.730   5.603 -1.2381 -1.5812 -0.0865
 8219TIP3   OH224620   6.002   3.362   5.064 -0.0288 -0.0903  0.0829
 8219TIP3    H124621   5.983   3.289   5.123  2.6464 -1.0062 -0.0357
 8219TIP3    H224622   6.003   3.323   4.977 -1.6244  0.7754 -0.3597
 8220TIP3   OH224623   3.310   5.820   5.191 -0.0421 -0.2398  0.0483
 8220TIP3    H124624   3.342   5.768   5.265  0.2191  0.1884  0.2408
 8220TIP3    H224625   3.268   5.756   5.133  2.1493 -1.0255 -0.7872
 8221TIP3   OH224626   4.480   1.315   1.344 -0.3245 -0.1199 -0.1477
 8221TIP3    H124627   4.545   1.358   1.288  1.3994  0.1273  1.9567
 8221TIP3    H224628   4.417   1.384   1.365  0.7377  0.6069  0.7182
 8222TIP3   OH224629   6.343   6.660   3.501  0.5167 -0.4414  0.0956
 8222TIP3    H124630   6.282   6.597   3.463 -1.4975  1.4019  0.0696
 8222TIP3    H224631   6.319   6.663   3.594 -0.0511  0.9201 -0.0767
 8223TIP3   OH224632   4.404   1.510   4.847  0.1539 -0.2696  0.6629
 8223TIP3    H124633   4.368   1.575   4.906 -0.3865 -0.6222  0.7259
 8223TIP3    H224634   4.479   1.473   4.895  0.1092 -0.1060  0.8600
 8224TIP3   OH224635   5.836   2.276   1.131  0.4242  0.2136 -0.1239
 8224TIP3    H124636   5.747   2.249   1.152  0.4039 -0.5393 -1.1334
 8224TIP3    H224637   5.831   2.371   1.121 -0.1227  0.2510  0.4771
 8225TIP3   OH224638   4.844   4.721   0.917 -0.0070  0.5942  0.1534
 8225TIP3    H124639   4.861   4.674   0.835 -1.5139 -0.4989  0.4270
 8225TIP3    H224640   4.898   4.676   0.982  0.7451  1.0952 -0.1067
 8226TIP3   OH224641   2.611   5.171   2.004 -0.1802  0.0450 -0.1409
 8226TIP3    H124642   2.609   5.215   1.919  1.2361 -0.2729 -0.3564
 8226TIP3    H224643   2.655   5.234   2.063  0.9549 -0.6464 -0.2178
 8227TIP3   OH224644   2.903   4.936   3.946 -0.0358  0.4940 -0.8012
 8227TIP3    H124645   2.898   4.912   4.038  1.0990  0.7902 -0.6558
 8227TIP3    H224646   2.845   5.012   3.938 -2.1541 -1.0386 -0.8779
 8228TIP3   OH224647   2.754   5.599   2.835 -0.1433 -0.0308  0.1680
 8228TIP3    H124648   2.734   5.617   2.744 -1.1193  0.0713  0.3932
 8228TIP3    H224649   2.793   5.512   2.834 -0.4408 -0.1610 -0.3061
 8229TIP3   OH224650   4.586   1.017   3.052  0.2458  0.0396  0.3017
 8229TIP3    H124651   4.566   0.939   3.001 -1.5247 -0.7246  2.0212
 8229TIP3    H224652   4.513   1.025   3.113  1.6526  1.5741  1.9014
 8230TIP3   OH224653   6.526   1.900   0.894  0.0516 -0.6285  0.0369
 8230TIP3    H124654   6.533   1.890   0.799 -0.5273 -0.7988  0.0117
 8230TIP3    H224655   6.434   1.881   0.914  0.6472 -2.9063  0.9193
 8231TIP3   OH224656   3.389   3.122   1.080 -0.0643  0.1896 -0.2332
 8231TIP3    H124657   3.295   3.134   1.095 -0.0236  0.8300 -0.4605
 8231TIP3    H224658   3.423   3.210   1.070  0.7861  0.0372  1.0604
 8232TIP3   OH224659   1.667   0.974   1.892 -0.0550 -0.1117  0.2536
 8232TIP3    H124660   1.584   1.018   1.871  0.1063 -0.0180 -0.1943
 8232TIP3    H224661   1.675   0.983   1.987 -1.4377 -1.6556  0.5759
 8233TIP3   OH224662   5.511   2.846   3.369  0.6990 -0.1649  0.7679
 8233TIP3    H124663   5.441   2.794   3.330 -0.2491  1.6351 -0.0646
 8233TIP3    H224664   5.582   2.784   3.382 -0.3719 -1.6622 -0.1357
 8234TIP3   OH224665   5.627   4.586   1.781 -0.4538  0.2732  0.1498
 8234TIP3    H124666   5.590   4.580   1.869 -0.7166  0.3076  0.0451
 8234TIP3    H224667   5.717   4.615   1.794  0.7621 -3.2916  0.6575
 8235TIP3   OH224668   4.510   2.414   1.007 -0.1048 -0.4291  0.3699
 8235TIP3    H124669   4.549   2.501   1.008  0.1853 -0.4755 -1.9132
 8235TIP3    H224670   4.582   2.355   0.985 -0.7243 -0.9495 -0.3294
 8236TIP3   OH224671   1.692   5.921   3.975  0.5696 -0.0705  0.1046
 8236TIP3    H124672   1.601   5.948   3.965  0.4217 -0.6915 -0.3069
 8236TIP3    H224673   1.740   6.001   3.997 -0.1781  0.1454  0.9948
 8237TIP3   OH224674   6.450   4.492   3.223  0.7669  0.2938 -0.2569
 8237TIP3    H124675   6.451   4.587   3.212  1.5319  0.2615 -0.5202
 8237TIP3    H224676   6.527   4.472   3.276 -1.0692  0.0977  2.5159
 8238TIP3   OH224677   2.195   3.155   3.418 -0.4532  0.2069  0.3533
 8238TIP3    H124678   2.125   3.207   3.379 -0.3055 -0.1063 -0.3356
 8238TIP3    H224679   2.269   3.166   3.358 -1.2680 -3.1726 -1.4983
 8239TIP3   OH224680   4.194   4.517   1.339  0.1208 -0.0793 -0.3607
 8239TIP3    H124681   4.162   4.586   1.396  2.3214  0.0925  0.7614
 8239TIP3    H224682   4.198   4.439   1.395 -2.0429 -1.1318 -1.5290
 8240TIP3   OH224683   1.778   1.629   5.350  0.2517  0.3529 -0.7835
 8240TIP3    H124684   1.831   1.644   5.272 -3.2058 -2.5231 -4.0904
 8240TIP3    H224685   1.707   1.694   5.343 -0.4065 -0.3141 -0.4272
 8241TIP3   OH224686   3.305   1.718   5.318  0.0806 -0.2825 -0.5509
 8241TIP3    H124687   3.240   1.723   5.248  0.4905  1.4321 -0.8442
 8241TIP3    H224688   3.254   1.713   5.398 -0.3899 -1.1342 -0.8879
 8242TIP3   OH224689   4.865   6.109   1.655 -0.0610  0.2007 -0.8500
 8242TIP3    H124690   4.864   6.131   1.748 -1.4790  1.5371 -1.1363
 8242TIP3    H224691   4.871   6.013   1.654  0.8531  0.2124  0.5799
 8243TIP3   OH224692   6.115   3.707   4.098 -0.1880  0.2156 -0.3477
 8243TIP3    H124693   6.100   3.801   4.107  0.0448  0.3101 -0.8991
 8243TIP3    H224694   6.168   3.699   4.018 -0.3477 -0.3931 -0.3955
 8244TIP3   OH224695   4.825   3.937   2.797  0.1653  0.4210 -0.3255
 8244TIP3    H124696   4.780   3.941   2.713  0.4186  1.3411 -0.4205
 8244TIP3    H224697   4.917   3.929   2.775  0.0526 -2.8473 -0.1481
 8245TIP3   OH224698   0.003   5.518   0.484  0.3546  0.1418 -0.2605
 8245TIP3    H124699   0.056   5.482   0.413 -1.4740 -0.0196 -1.6069
 8245TIP3    H224700   0.017   5.457   0.557  0.4770 -1.0213 -1.2267
 8246TIP3   OH224701   0.403   5.660   5.477 -0.3076  0.6739 -0.6683
 8246TIP3    H124702   0.461   5.648   5.403 -1.4955  0.4686 -1.5970
 8246TIP3    H224703   0.340   5.589   5.470 -0.9446  1.1481  0.0496
 8247TIP3   OH224704   7.058   3.281   1.216 -0.0183 -0.5663  0.0468
 8247TIP3    H124705   7.143   3.276   1.260 -0.4971  1.9357  1.3959
 8247TIP3    H224706   7.079   3.292   1.123  1.1039 -0.2699  0.3273
 8248TIP3   OH224707   5.117   0.588   3.309  0.0207  0.6756  0.0160
 8248TIP3    H124708   5.043   0.639   3.276 -0.6504 -0.8031 -0.8966
 8248TIP3    H224709   5.167   0.564   3.231  0.4690  0.1978  0.4405
 8249TIP3   OH224710   2.997   5.466   5.166  0.5896  0.0876  0.1162
 8249TIP3    H124711   2.937   5.541   5.172 -0.7751 -0.8812 -0.8111
 8249TIP3    H224712   2.939   5.390   5.168  2.0290 -1.1133  3.2204
 8250TIP3   OH224713   1.121   1.583   1.926  0.1232  0.1095 -0.3200
 8250TIP3    H124714   1.196   1.638   1.947  0.8934 -0.6170 -1.0856
 8250TIP3    H224715   1.156   1.494   1.927 -0.6727 -0.2190 -0.9320
 8251TIP3   OH224716   6.930   0.728   2.118  0.2643 -0.0885  0.4731
 8251TIP3    H124717   7.003   0.673   2.089  0.7568  0.1260  1.2500
 8251TIP3    H224718   6.852   0.680   2.093  0.6777 -0.4316 -0.1848
 8252TIP3   OH224719   4.439   2.306   5.365  0.2377  0.2283  0.0184
 8252TIP3    H124720   4.432   2.213   5.384 -1.7893  0.5477  1.0990
 8252TIP3    H224721   4.457   2.348   5.449 -1.0945  0.9840 -0.0403
 8253TIP3   OH224722   1.459   6.692   0.883 -0.0965 -0.6881  0.2977
 8253TIP3    H124723   1.524   6.624   0.903 -1.5864 -2.6712 -1.1124
 8253TIP3    H224724   1.496   6.739   0.808  0.1584 -1.1462  0.1296
 8254TIP3   OH224725   4.800   3.383   3.523 -0.0842 -0.0348  0.0925
 8254TIP3    H124726   4.846   3.375   3.439  1.3429  0.4988  0.7905
 8254TIP3    H224727   4.715   3.420   3.500  0.1628 -0.1999 -1.1532
 8255TIP3   OH224728   3.242   1.284   1.136  0.3191  0.3539 -0.0054
 8255TIP3    H124729   3.250   1.376   1.111  0.9261  0.2924 -0.0496
 8255TIP3    H224730   3.298   1.237   1.075 -0.2677 -0.0917 -0.2154
 8256TIP3   OH224731   3.256   5.369   2.413  0.3474 -0.7586 -0.0762
 8256TIP3    H124732   3.347   5.352   2.386  0.3008  0.5221 -1.1701
 8256TIP3    H224733   3.204   5.305   2.365  0.5671 -0.6382 -0.4814
 8257TIP3   OH224734   7.015   5.832   3.387  0.0849  0.0373  0.4090
 8257TIP3    H124735   7.016   5.879   3.470  1.5013 -0.0370  0.4640
 8257TIP3    H224736   6.945   5.873   3.336  1.6003  2.6459  0.2462
 8258TIP3   OH224737   3.245   2.126   1.162 -0.2782  0.1333 -0.2050
 8258TIP3    H124738   3.302   2.203   1.164 -0.1602  0.0717 -0.8566
 8258TIP3    H224739   3.185   2.139   1.235  1.5156 -0.5481  1.4867
 8259TIP3   OH224740   0.300   5.786   2.656  0.0558 -0.6519 -0.0815
 8259TIP3    H124741   0.249   5.776   2.576  1.5528 -1.2071 -1.0031
 8259TIP3    H224742   0.307   5.697   2.691  0.0212 -0.5159  0.2789
 8260TIP3   OH224743   6.405   5.202   2.306 -0.0255 -0.3345  0.4514
 8260TIP3    H124744   6.375   5.210   2.396 -0.8371  1.0508  0.0742
 8260TIP3    H224745   6.370   5.278   2.261  0.7459 -0.7583 -0.9463
 8261TIP3   OH224746   0.098   0.807   5.541 -0.2796  0.0837  0.1835
 8261TIP3    H124747   0.093   0.899   5.516 -0.9279 -0.1093 -0.4513
 8261TIP3    H224748   0.093   0.807   5.636  0.6147  0.7516  0.2422
 8262TIP3   OH224749   1.076   0.311   4.395  0.6994  0.1111  0.0392
 8262TIP3    H124750   1.071   0.236   4.336  0.0675  0.3027 -0.1617
 8262TIP3    H224751   1.095   0.386   4.338  4.4898 -0.2774  0.5517
 8263TIP3   OH224752   6.610   0.451   1.067  1.0158 -0.8139 -0.0506
 8263TIP3    H124753   6.552   0.467   0.993 -0.0378  0.5918  1.0314
 8263TIP3    H224754   6.630   0.357   1.062 -0.3080 -1.0634 -1.1700
 8264TIP3   OH224755   5.685   5.499   1.931 -0.1912  0.3307 -0.2042
 8264TIP3    H124756   5.680   5.519   2.025 -0.9008 -0.3310 -0.0873
 8264TIP3    H224757   5.600   5.527   1.896  0.3760  1.3354 -0.8178
 8265TIP3   OH224758   2.367   1.393   0.955  0.0172 -0.8246  0.4313
 8265TIP3    H124759   2.351   1.446   0.878 -0.9851 -2.3776 -0.4911
 8265TIP3    H224760   2.396   1.455   1.022 -1.2033  0.8798 -0.5415
 8266TIP3   OH224761   4.659   1.540   4.478 -0.0571  0.4555  0.4287
 8266TIP3    H124762   4.577   1.496   4.458  0.8561 -0.7799 -0.8091
 8266TIP3    H224763   4.692   1.496   4.556 -0.1272  0.3029  0.3733
 8267TIP3   OH224764   4.021   1.457   1.473 -0.6343  0.5056  0.5503
 8267TIP3    H124765   3.943   1.405   1.490 -0.8597  0.7127  0.1761
 8267TIP3    H224766   4.066   1.412   1.401 -0.2638  0.2357  0.9483
 8268TIP3   OH224767   7.177   4.495   0.393 -0.0129 -0.2302 -0.0514
 8268TIP3    H124768   7.154   4.418   0.342 -0.0500  0.0133 -0.4091
 8268TIP3    H224769   7.120   4.564   0.359 -0.6509 -0.2636  0.9119
 8269TIP3   OH224770   6.694   5.755   2.514 -0.5059  0.0801 -0.0235
 8269TIP3    H124771   6.663   5.672   2.477 -1.2798 -0.1648  1.1356
 8269TIP3    H224772   6.615   5.796   2.551  0.2629  0.2498  1.4704
 8270TIP3   OH224773   2.354   2.532   0.507 -0.4993  0.2130  0.5076
 8270TIP3    H124774   2.413   2.589   0.457  0.3424 -0.5301  0.6340
 8270TIP3    H224775   2.376   2.548   0.599 -1.6952  1.1977  0.6547
 8271TIP3   OH224776   3.245   0.429   5.546 -0.1480  0.0172 -0.3191
 8271TIP3    H124777   3.260   0.411   5.453  1.8964  0.3390 -0.1104
 8271TIP3    H224778   3.299   0.364   5.592 -1.6735 -0.5925  0.6837
 8272TIP3   OH224779   0.948   6.002   2.459 -0.0151 -0.0521  0.1119
 8272TIP3    H124780   0.948   6.043   2.372  1.4856  1.2531  0.6691
 8272TIP3    H224781   0.898   5.921   2.448 -0.9819  0.7325 -1.6413
 8273TIP3   OH224782   5.324   4.474   0.853  0.1619 -0.1166  0.0578
 8273TIP3    H124783   5.398   4.435   0.900 -1.5561 -0.8784  2.3416
 8273TIP3    H224784   5.350   4.565   0.838  2.1275 -0.7400 -0.5588
 8274TIP3   OH224785   5.392   0.575   1.260  0.2259  0.1850  0.7271
 8274TIP3    H124786   5.329   0.519   1.306 -1.3161  1.8790  0.8009
 8274TIP3    H224787   5.431   0.517   1.194 -1.8454 -0.8391  0.2932
 8275TIP3   OH224788   3.572   0.575   4.449  0.0730  0.1117  0.6117
 8275TIP3    H124789   3.503   0.563   4.383  0.5856 -1.4950  0.3166
 8275TIP3    H224790   3.527   0.568   4.533 -0.0483 -1.8662  0.4333
 8276TIP3   OH224791   4.669   0.036   4.071 -0.0536  0.1936 -0.0537
 8276TIP3    H124792   4.757   0.008   4.096  0.4636  0.3941 -1.5487
 8276TIP3    H224793   4.678   0.068   3.981 -1.1800  2.3999  0.5267
 8277TIP3   OH224794   0.788   2.453   1.518  0.1718 -0.4385  0.1137
 8277TIP3    H124795   0.721   2.508   1.477 -0.4358 -1.2069  0.0553
 8277TIP3    H224796   0.840   2.514   1.570 -2.0957 -0.1303  2.2018
 8278TIP3   OH224797   0.032   5.341   0.692  0.5483  0.0035 -0.0287
 8278TIP3    H124798  -0.012   5.287   0.758 -0.1061  2.1371  1.3884
 8278TIP3    H224799   0.093   5.395   0.743 -0.6089  2.3385 -0.9662
 8279TIP3   OH224800   6.812   1.059   0.404 -0.0656 -0.2102 -0.1569
 8279TIP3    H124801   6.736   1.086   0.352  0.4644  0.7221 -0.4686
 8279TIP3    H224802   6.850   1.141   0.436  0.6066 -0.6827  0.3004
 8280TIP3   OH224803   5.426   3.191   5.441  0.2517 -0.0513 -0.7144
 8280TIP3    H124804   5.505   3.143   5.466 -0.6660 -1.4636 -0.3809
 8280TIP3    H224805   5.394   3.146   5.363 -0.7581 -0.1451 -0.2625
 8281TIP3   OH224806   5.308   2.533   3.523 -0.3486 -0.3752  0.3957
 8281TIP3    H124807   5.330   2.574   3.440  3.0065 -1.2195  0.7210
 8281TIP3    H224808   5.268   2.449   3.499  0.7729 -0.6981 -0.4047
 8282TIP3   OH224809   2.458   3.710   1.773  0.4582 -0.7506  0.0745
 8282TIP3    H124810   2.498   3.679   1.693 -2.4832 -0.9277 -1.4816
 8282TIP3    H224811   2.487   3.801   1.781  1.6048 -1.0465 -0.5997
 8283TIP3   OH224812   3.778   0.143   3.258  0.4378  0.0144 -0.5662
 8283TIP3    H124813   3.844   0.073   3.251 -0.5409 -0.8403 -1.7601
 8283TIP3    H224814   3.817   0.206   3.318  1.8306 -1.0365 -0.2936
 8284TIP3   OH224815   0.129   2.435   4.257 -0.6326  0.2428 -0.2974
 8284TIP3    H124816   0.091   2.426   4.170 -0.8567 -0.3720 -0.1445
 8284TIP3    H224817   0.090   2.363   4.307  0.2134  0.0146  0.0472
 8285TIP3   OH224818   1.267   2.008   0.579 -0.0809 -0.2666 -0.0029
 8285TIP3    H124819   1.357   1.979   0.593 -0.1219  0.3599  1.7165
 8285TIP3    H224820   1.213   1.945   0.627 -0.4831 -0.0097 -0.1108
 8286TIP3   OH224821   0.176   3.196   3.626 -0.4927  0.2729  0.3539
 8286TIP3    H124822   0.237   3.269   3.635 -1.1765  0.8728  0.2828
 8286TIP3    H224823   0.230   3.118   3.629  0.5921  0.8242 -2.3274
 8287TIP3   OH224824   6.759   6.775   3.115  0.2407  0.3541 -0.1094
 8287TIP3    H124825   6.764   6.681   3.134  1.6051  0.0685 -1.6048
 8287TIP3    H224826   6.666   6.793   3.106 -0.0115 -1.5705 -2.7411
 8288TIP3   OH224827   6.134   6.023   5.763 -0.0961 -0.0503  0.1790
 8288TIP3    H124828   6.064   6.033   5.698  1.0418  0.8429 -0.9643
 8288TIP3    H224829   6.099   6.065   5.842 -1.3084 -0.7025  0.0039
 8289TIP3   OH224830   0.972   2.301   3.276 -0.5620  0.1353 -0.0370
 8289TIP3    H124831   0.920   2.233   3.234 -0.8367  0.6006 -0.4679
 8289TIP3    H224832   0.913   2.342   3.338 -0.1929 -0.4654  0.7240
 8290TIP3   OH224833   4.526   2.846   5.360  0.4684 -0.1111  0.3403
 8290TIP3    H124834   4.595   2.781   5.351  0.2021 -0.3356 -0.0966
 8290TIP3    H224835   4.462   2.804   5.418  0.8677  0.2412  1.0443
 8291TIP3   OH224836   6.613   3.962   3.802  0.0680 -0.0946  0.5025
 8291TIP3    H124837   6.529   3.916   3.806  0.5348 -1.0865 -0.7257
 8291TIP3    H224838   6.643   3.965   3.893 -0.3052 -1.5903  0.6941
 8292TIP3   OH224839   2.024   3.923   3.427  0.1598  0.2133  0.3017
 8292TIP3    H124840   1.974   3.975   3.491 -0.0073 -0.4875  0.7558
 8292TIP3    H224841   2.091   3.983   3.394 -0.6253  0.9962  0.1048
 8293TIP3   OH224842   0.257   1.125   1.116 -0.2358 -0.5507 -0.3202
 8293TIP3    H124843   0.164   1.138   1.138 -0.2797 -1.7762  0.3676
 8293TIP3    H224844   0.305   1.163   1.190 -0.1452  0.6713 -0.9842
 8294TIP3   OH224845   3.021   6.445   0.610 -0.0264 -0.0248  0.1515
 8294TIP3    H124846   2.989   6.483   0.529  0.9190  0.4183 -0.0231
 8294TIP3    H224847   3.080   6.375   0.582 -1.9597 -1.9142  0.4554
 8295TIP3   OH224848   4.588   1.729   2.103  0.3539  0.0831 -0.0019
 8295TIP3    H124849   4.660   1.684   2.147 -0.8472 -1.7547  0.2322
 8295TIP3    H224850   4.622   1.748   2.015  0.8963 -1.4459 -0.1574
 8296TIP3   OH224851   5.125   4.862   1.121 -0.1382 -0.0536 -0.1243
 8296TIP3    H124852   5.133   4.939   1.177  0.5914 -0.0684 -0.1934
 8296TIP3    H224853   5.087   4.795   1.179  1.2887 -0.2858  0.5950
 8297TIP3   OH224854   4.292   2.939   0.219  0.0082  0.2520 -0.2754
 8297TIP3    H124855   4.264   2.910   0.306  0.0147  3.9494  1.1357
 8297TIP3    H224856   4.332   2.861   0.180 -1.7374 -2.0913  2.2041
 8298TIP3   OH224857   2.781   4.124   0.976 -0.3807  0.2061  0.2655
 8298TIP3    H124858   2.807   4.053   1.034 -0.6256  1.5679  2.1188
 8298TIP3    H224859   2.757   4.080   0.894 -0.1306 -1.7872  1.2047
 8299TIP3   OH224860   7.051   1.867   5.300  0.1259 -0.3999 -0.9294
 8299TIP3    H124861   7.132   1.861   5.350  0.0684 -1.7640 -0.9483
 8299TIP3    H224862   7.033   1.776   5.273 -1.1237 -0.0425 -1.3637
 8300TIP3   OH224863   6.673   6.293   2.948 -0.6058  0.4260  0.3975
 8300TIP3    H124864   6.579   6.281   2.960 -0.7001  1.3942  0.7279
 8300TIP3    H224865   6.680   6.357   2.877 -0.1538 -0.7351 -0.6417
 8301TIP3   OH224866   0.513   1.270   1.698 -0.0649  0.3324 -0.3950
 8301TIP3    H124867   0.543   1.276   1.788  1.1313 -2.9107 -0.4276
 8301TIP3    H224868   0.528   1.357   1.661  0.0227  1.5606  2.3123
 8302TIP3   OH224869   5.097   2.806   3.395  0.3998  0.0474 -0.5680
 8302TIP3    H124870   5.014   2.765   3.419 -0.2440  1.7211  0.2411
 8302TIP3    H224871   5.119   2.768   3.310  0.4924 -2.8126  0.6260
 8303TIP3   OH224872   1.598   2.132   3.288 -1.0077 -0.2791  0.1840
 8303TIP3    H124873   1.659   2.206   3.285 -0.0977 -1.0237 -0.0686
 8303TIP3    H224874   1.647   2.062   3.330 -1.8763 -0.7417  0.4610
 8304TIP3   OH224875   0.938   2.790   4.788 -0.1956  0.6037 -0.0170
 8304TIP3    H124876   0.995   2.867   4.798  1.1013  0.2674 -3.5033
 8304TIP3    H224877   0.990   2.717   4.822  0.1907  0.7117 -0.3802
 8305TIP3   OH224878   4.124   1.584   1.722 -0.3596 -0.5204 -0.1848
 8305TIP3    H124879   4.095   1.569   1.632  1.3458  2.2906 -1.3432
 8305TIP3    H224880   4.205   1.532   1.729  1.4500  1.8697 -1.6191
 8306TIP3   OH224881   0.257   6.100   1.985 -0.4797  0.1420  0.1529
 8306TIP3    H124882   0.285   6.112   2.076  1.6534 -1.3332 -0.2500
 8306TIP3    H224883   0.233   6.188   1.956  0.2028  0.8817  1.7130
 8307TIP3   OH224884   1.523   3.121   3.293  0.0141 -0.3355  0.0834
 8307TIP3    H124885   1.547   3.091   3.381 -0.1835 -0.4849  0.0896
 8307TIP3    H224886   1.541   3.215   3.293 -1.5103 -0.0053  0.8306
 8308TIP3   OH224887   7.185   0.971   0.413  0.2660 -0.1307 -0.2755
 8308TIP3    H124888   7.234   0.994   0.334 -1.2876  1.0045 -0.9640
 8308TIP3    H224889   7.111   0.920   0.380 -0.2893  0.1887  0.4812
 8309TIP3   OH224890   4.693   6.445   3.882 -0.4183  0.0996  0.3075
 8309TIP3    H124891   4.708   6.498   3.960  0.5479  0.5884 -0.1880
 8309TIP3    H224892   4.642   6.370   3.913  0.8423 -0.2593  1.6312
 8310TIP3   OH224893   3.691   2.814   2.213  0.3011 -0.2567  0.4808
 8310TIP3    H124894   3.670   2.730   2.256 -0.1342 -0.8657 -0.8721
 8310TIP3    H224895   3.731   2.789   2.130  0.0854  0.8909  0.0154
 8311TIP3   OH224896   5.448   0.994   5.803  0.3127  0.1296 -0.4587
 8311TIP3    H124897   5.527   0.994   5.749  0.0957  0.8354 -0.7766
 8311TIP3    H224898   5.464   0.924   5.867  0.6507 -0.5943 -1.3040
 8312TIP3   OH224899   6.920   0.785   3.489 -0.5009  0.0697 -0.1639
 8312TIP3    H124900   6.836   0.830   3.477  0.1361  1.3283 -0.1212
 8312TIP3    H224901   6.969   0.808   3.410  0.1355  0.1074  0.2450
 8313TIP3   OH224902   0.755   0.449   0.980 -0.2119 -0.5549  0.3415
 8313TIP3    H124903   0.667   0.448   0.942 -0.5002 -0.7222  0.9950
 8313TIP3    H224904   0.740   0.455   1.075  0.4729 -0.8633  0.4771
 8314TIP3   OH224905   1.189   2.407   5.069  0.2694 -0.1272  0.4173
 8314TIP3    H124906   1.236   2.368   5.143  2.0051 -1.1326 -1.1090
 8314TIP3    H224907   1.101   2.371   5.075  1.2638 -2.9178  0.2110
 8315TIP3   OH224908   3.934   5.964   3.270  0.0609 -0.4418  0.6536
 8315TIP3    H124909   3.994   6.038   3.282 -0.9206  0.7302 -1.1423
 8315TIP3    H224910   3.876   5.991   3.198 -0.5638 -2.8361  0.1528
 8316TIP3   OH224911   0.650   5.824   4.161 -0.0329  0.2145 -0.5109
 8316TIP3    H124912   0.705   5.825   4.083  2.4052  1.0536  1.0706
 8316TIP3    H224913   0.677   5.745   4.208 -1.7092 -0.4597 -0.6290
 8317TIP3   OH224914   1.073   0.556   0.567  0.3605  0.1075 -0.2882
 8317TIP3    H124915   1.119   0.484   0.610  0.4207  0.8525  0.9522
 8317TIP3    H224916   0.985   0.554   0.604  0.0452  0.0262 -1.0319
 8318TIP3   OH224917   3.249   4.875   2.365  0.0634 -0.0931  0.3934
 8318TIP3    H124918   3.345   4.876   2.369  0.1537 -2.4932  0.1674
 8318TIP3    H224919   3.228   4.930   2.290  1.2945  0.0834  0.1525
 8319TIP3   OH224920   5.457   5.058   0.882  0.2707  0.1411  0.0669
 8319TIP3    H124921   5.552   5.047   0.890  0.5280  1.9039 -0.1217
 8319TIP3    H224922   5.438   5.138   0.930 -0.9157  0.5596 -1.0527
 8320TIP3   OH224923   0.842   1.561   0.970  0.1070 -0.3767  0.6262
 8320TIP3    H124924   0.923   1.553   0.921  1.1003  0.1334  2.1008
 8320TIP3    H224925   0.773   1.567   0.904  1.3821  0.3406 -0.6737
 8321TIP3   OH224926   4.587   4.034   5.062 -0.3236 -0.5890  0.6917
 8321TIP3    H124927   4.587   3.945   5.027 -0.4409 -0.7808  1.1807
 8321TIP3    H224928   4.499   4.047   5.096 -0.5199 -0.0335 -0.0079
 8322TIP3   OH224929   0.023   1.349   0.032  0.5307 -0.4544 -0.0668
 8322TIP3    H124930   0.104   1.301   0.014  0.6062 -0.7796  1.1019
 8322TIP3    H224931   0.018   1.353   0.127 -0.7752 -0.3318 -0.1286
 8323TIP3   OH224932   2.688   3.465   2.572  0.1421  0.3260 -0.1248
 8323TIP3    H124933   2.686   3.422   2.657 -0.3314  1.9189  0.7242
 8323TIP3    H224934   2.602   3.449   2.534  0.7805 -1.4549 -0.9051
 8324TIP3   OH224935   2.953   1.102   0.731  0.3912 -0.1641  0.2652
 8324TIP3    H124936   2.975   1.011   0.711  1.2330  0.2697 -0.9159
 8324TIP3    H224937   2.975   1.150   0.651  0.4292  1.1469  1.0333
 8325TIP3   OH224938   7.127   2.668   5.245  0.5115 -0.5300 -0.3401
 8325TIP3    H124939   7.186   2.616   5.299 -0.3489  0.4268  1.6176
 8325TIP3    H224940   7.042   2.624   5.254  0.3738 -0.4185 -1.0261
 8326TIP3   OH224941   1.886   1.344   2.279 -0.2953 -0.0770 -0.2305
 8326TIP3    H124942   1.971   1.380   2.254  0.2152  0.0949  1.5630
 8326TIP3    H224943   1.824   1.387   2.221  0.6831  1.0957 -0.4552
 8327TIP3   OH224944   0.976   5.929   5.416  0.0000  0.0431 -0.0688
 8327TIP3    H124945   0.976   5.923   5.512 -1.4410  3.0515  0.2652
 8327TIP3    H224946   1.050   5.986   5.396  0.1239 -0.3406 -0.7336
 8328TIP3   OH224947   4.937   4.973   0.894  0.1814 -0.1849 -0.0136
 8328TIP3    H124948   4.938   4.879   0.876  1.3764 -0.5599  1.7864
 8328TIP3    H224949   5.015   4.988   0.947 -0.4791  1.6754  0.4898
 8329TIP3   OH224950   1.611   1.481   1.074 -0.6796 -0.2307  0.0595
 8329TIP3    H124951   1.705   1.500   1.073 -0.6585 -0.3477 -0.3034
 8329TIP3    H224952   1.606   1.387   1.091 -0.7726 -0.0083  1.3983
 8330TIP3   OH224953   3.335   4.667   0.581  0.5126  0.5004  0.0566
 8330TIP3    H124954   3.393   4.595   0.555 -0.4206 -0.6859  1.1281
 8330TIP3    H224955   3.247   4.632   0.569  0.0428  1.0697  1.6060
 8331TIP3   OH224956   3.359   0.601   4.274 -0.0903 -0.3537  0.2809
 8331TIP3    H124957   3.339   0.549   4.195 -1.5599  0.1500  0.2786
 8331TIP3    H224958   3.326   0.689   4.253 -0.3355 -0.1750  1.3862
 8332TIP3   OH224959   6.191   0.780   5.292 -0.0956  0.0371 -0.6142
 8332TIP3    H124960   6.283   0.808   5.286 -0.3480  0.7663 -1.3658
 8332TIP3    H224961   6.141   0.861   5.285 -0.7917 -0.2835  0.4867
 8333TIP3   OH224962   6.844   2.180   1.515  0.2115  0.8661  0.0200
 8333TIP3    H124963   6.783   2.112   1.488 -0.5886  1.3094  0.6662
 8333TIP3    H224964   6.903   2.192   1.440 -0.1063 -0.0015 -0.3711
 8334TIP3   OH224965   5.807   0.054   4.581 -0.2717 -0.1277 -0.2307
 8334TIP3    H124966   5.783   0.032   4.491 -1.1395 -0.9094  0.1789
 8334TIP3    H224967   5.735   0.111   4.611  0.6461  1.1797 -0.4271
 8335TIP3   OH224968   7.096   6.061   5.162 -0.2215 -0.1852 -0.5766
 8335TIP3    H124969   7.129   5.971   5.172  1.2432  0.1872 -1.7064
 8335TIP3    H224970   7.106   6.079   5.068 -3.6267  0.0060 -1.0196
 8336TIP3   OH224971   5.851   1.853   3.680  0.0242  0.4663  0.2621
 8336TIP3    H124972   5.785   1.851   3.611  0.5497  3.1541 -0.4626
 8336TIP3    H224973   5.932   1.876   3.635  1.2385 -1.5663  1.2975
 8337TIP3   OH224974   4.951   5.397   5.175 -0.1861  0.2213 -0.2308
 8337TIP3    H124975   4.865   5.416   5.139 -0.7850  1.4010  1.6636
 8337TIP3    H224976   4.949   5.304   5.195 -0.5931  0.0075 -1.2002
 8338TIP3   OH224977   1.889   3.875   0.443  0.0769  0.0786 -0.8259
 8338TIP3    H124978   1.913   3.870   0.536  1.2592  3.1963 -0.8269
 8338TIP3    H224979   1.822   3.808   0.432 -0.7274  0.1456  2.4921
 8339TIP3   OH224980   1.335   2.020   3.683  0.3292  0.4060 -0.1210
 8339TIP3    H124981   1.240   2.018   3.670  0.5066 -0.6762 -1.4917
 8339TIP3    H224982   1.363   2.101   3.643 -0.0108  0.7610  0.3431
 8340TIP3   OH224983   5.964   0.134   1.402 -0.5796  0.7388 -0.3862
 8340TIP3    H124984   6.039   0.107   1.349  0.6004 -0.3004  1.7089
 8340TIP3    H224985   5.891   0.135   1.340  0.5851 -1.0440 -1.9064
 8341TIP3   OH224986   3.357   3.847   4.543  0.2051 -0.0919 -0.5486
 8341TIP3    H124987   3.286   3.863   4.480 -1.0046 -1.0189  0.5380
 8341TIP3    H224988   3.382   3.756   4.528  0.0652 -0.2470  0.1631
 8342TIP3   OH224989   4.031   4.620   2.864 -0.2471  0.5856 -0.2782
 8342TIP3    H124990   4.003   4.609   2.955  1.2224  1.7688  0.3591
 8342TIP3    H224991   4.127   4.625   2.868 -0.2331  3.5597 -1.4881
 8343TIP3   OH224992   4.521   3.697   3.781 -0.2192  0.1423  0.2287
 8343TIP3    H124993   4.462   3.700   3.857  0.9321  0.5708  1.1338
 8343TIP3    H224994   4.608   3.684   3.818  0.2126 -1.0990 -1.1253
 8344TIP3   OH224995   5.936   2.141   1.950 -0.8151  0.2414  0.2457
 8344TIP3    H124996   6.016   2.100   1.917 -1.8462 -1.9219  0.2890
 8344TIP3    H224997   5.914   2.207   1.884 -0.3313 -0.8303 -1.0215
 8345TIP3   OH224998   2.558   5.734   0.075  0.6578 -0.3093 -0.0645
 8345TIP3    H124999   2.476   5.771   0.041  0.5317 -0.8536 -0.3590
 8345TIP3    H225000   2.619   5.740   0.001  1.0314  0.5326  0.2962
 8346TIP3   OH225001   3.868   5.656   5.435 -0.3080 -0.2398  0.7078
 8346TIP3    H125002   3.919   5.688   5.510 -1.4837 -0.4354  1.6074
 8346TIP3    H225003   3.858   5.562   5.450 -1.2006 -0.1493  0.7019
 8347TIP3   OH225004   0.221   1.191   1.707  0.3524  0.2798  0.3942
 8347TIP3    H125005   0.227   1.105   1.749 -0.5397  0.6337  1.2838
 8347TIP3    H225006   0.304   1.233   1.725  1.4888 -1.0018 -1.4854
 8348TIP3   OH225007   4.981   6.125   4.542  0.6120 -0.2988 -0.1443
 8348TIP3    H125008   5.030   6.048   4.570  1.0374 -0.0433 -0.1914
 8348TIP3    H225009   4.988   6.186   4.615 -0.5212 -0.6610  0.2918
 8349TIP3   OH225010   3.470   5.843   3.571  0.3905 -0.5446 -1.2087
 8349TIP3    H125011   3.467   5.801   3.485  1.7389 -1.2964 -0.9141
 8349TIP3    H225012   3.558   5.879   3.578 -0.1087  0.6190 -0.6343
 8350TIP3   OH225013   3.234   6.197   2.890 -0.1065 -0.5571  0.0734
 8350TIP3    H125014   3.232   6.291   2.873  1.6891 -0.3705  0.6708
 8350TIP3    H225015   3.196   6.157   2.812  0.1774  0.6100 -0.6813
 8351TIP3   OH225016   3.657   3.407   0.552  0.5582  0.6388  0.2907
 8351TIP3    H125017   3.595   3.385   0.621 -1.0989  1.6321 -0.8085
 8351TIP3    H225018   3.706   3.481   0.585 -0.7625  1.6100  0.1535
 8352TIP3   OH225019   4.124   0.134   4.944 -0.0028 -0.8497 -0.7209
 8352TIP3    H125020   4.150   0.114   4.854 -0.4281 -0.9523 -0.8201
 8352TIP3    H225021   4.054   0.072   4.963  0.2028 -0.9410 -0.2598
 8353TIP3   OH225022   2.349   6.718   0.378 -0.2490 -0.4587 -0.1250
 8353TIP3    H125023   2.324   6.725   0.286 -0.3264 -0.3678 -0.0974
 8353TIP3    H225024   2.437   6.753   0.382  0.5573 -2.3230 -0.5178
 8354TIP3   OH225025   1.257   1.538   3.376  0.2250 -0.3874  0.3274
 8354TIP3    H125026   1.286   1.591   3.450  2.5802 -0.6319 -0.3402
 8354TIP3    H225027   1.162   1.534   3.385  0.3118  0.8915  2.4303
 8355TIP3   OH225028   5.945   2.102   3.189 -0.1445  0.0590 -0.0404
 8355TIP3    H125029   5.872   2.085   3.129 -0.0210  0.8398 -0.4230
 8355TIP3    H225030   5.976   2.190   3.165  1.5546 -0.6383 -0.5603
 8356TIP3   OH225031   5.139   1.861   5.817 -0.0862  0.3014  1.2834
 8356TIP3    H125032   5.050   1.849   5.786  0.1500  0.8767  0.3163
 8356TIP3    H225033   5.194   1.838   5.741  0.5269  1.3472  1.3919
 8357TIP3   OH225034   2.927   3.426   1.385 -0.1486  0.1027 -0.8317
 8357TIP3    H125035   2.848   3.414   1.438  1.5190 -2.7978  1.2867
 8357TIP3    H225036   2.978   3.491   1.434 -0.2370  0.2675 -0.9577
 8358TIP3   OH225037   3.078   4.685   4.611  0.3109 -0.2317  0.2835
 8358TIP3    H125038   3.096   4.600   4.571  0.5534  0.2708 -0.7379
 8358TIP3    H225039   3.149   4.697   4.674  2.7687  0.9340 -2.4429
 8359TIP3   OH225040   3.831   1.572   0.846  0.0065 -0.3339 -0.1286
 8359TIP3    H125041   3.740   1.583   0.819 -0.3334  0.3413  1.2219
 8359TIP3    H225042   3.848   1.647   0.903  1.8311  0.3147 -1.4014
 8360TIP3   OH225043   2.623   5.990   4.989  0.0449 -0.5141  0.4602
 8360TIP3    H125044   2.669   6.068   4.958 -1.2176  0.1527  0.2173
 8360TIP3    H225045   2.624   5.931   4.914 -1.6881  0.5037 -0.4065
 8361TIP3   OH225046   2.259   5.927   5.031 -0.2561  0.3615 -0.3637
 8361TIP3    H125047   2.255   5.837   5.000 -0.9436  0.7406 -1.4413
 8361TIP3    H225048   2.175   5.941   5.075 -0.6550  0.8242 -1.2477
 8362TIP3   OH225049   4.713   2.233   3.726 -0.3513  0.1158  0.5872
 8362TIP3    H125050   4.650   2.194   3.786  0.1036 -0.0984  0.9369
 8362TIP3    H225051   4.750   2.159   3.678 -0.2208  0.2180  0.5301
 8363TIP3   OH225052   4.304   6.793   3.242 -0.0863 -0.1127 -0.4517
 8363TIP3    H125053   4.391   6.815   3.277 -0.2527 -0.0945 -0.0497
 8363TIP3    H225054   4.314   6.705   3.207  0.0062 -0.2368 -0.1104
 8364TIP3   OH225055   5.919   2.730   2.075  0.7431  0.9391  0.0653
 8364TIP3    H125056   5.844   2.726   2.134  1.1746  2.8689  0.8210
 8364TIP3    H225057   5.882   2.747   1.989  0.2311  0.1353  0.1173
 8365TIP3   OH225058   1.062   2.953   3.537  0.5165  0.9750  0.1597
 8365TIP3    H125059   1.040   2.976   3.446 -0.8069  1.5794  0.6078
 8365TIP3    H225060   0.991   2.896   3.565  2.1012 -1.1287  0.1228
 8366TIP3   OH225061   4.477   0.204   5.283  0.5163  0.3112  0.1118
 8366TIP3    H125062   4.403   0.150   5.254  1.3356 -0.5677 -0.3670
 8366TIP3    H225063   4.514   0.238   5.202 -0.4696  2.3120  0.4176
 8367TIP3   OH225064   5.821   1.085   2.605 -0.0040  0.1315  0.1348
 8367TIP3    H125065   5.885   1.135   2.655  0.0864 -0.6598  0.8411
 8367TIP3    H225066   5.787   1.021   2.667 -2.3390  1.2462  0.0906
 8368TIP3   OH225067   4.338   0.088   3.275  0.3847  0.4569 -0.1410
 8368TIP3    H125068   4.409   0.112   3.216  0.6187 -0.6002 -0.3117
 8368TIP3    H225069   4.355  -0.003   3.298  0.2997  0.8402  1.5824
 8369TIP3   OH225070   3.170   4.058   2.209  0.1041 -0.3811 -0.3302
 8369TIP3    H125071   3.171   4.028   2.300  0.2485  1.2655  0.2327
 8369TIP3    H225072   3.255   4.029   2.174  1.1094  1.0868  0.7974
 8370TIP3   OH225073   2.131   3.301   4.823 -0.6015 -0.3195  0.0833
 8370TIP3    H125074   2.180   3.359   4.881 -0.4794 -1.2688  0.9455
 8370TIP3    H225075   2.165   3.321   4.735  1.0429 -0.6676  0.6079
 8371TIP3   OH225076   2.673   3.369   2.821  0.2847 -0.1659  0.1975
 8371TIP3    H125077   2.606   3.302   2.833  0.7025 -1.6911 -4.2455
 8371TIP3    H225078   2.754   3.328   2.852 -0.2585  0.5744  2.8028
 8372TIP3   OH225079   4.589   0.808   3.718  0.0177 -0.6816  0.1482
 8372TIP3    H125080   4.653   0.786   3.786 -0.8124 -1.1527  0.7921
 8372TIP3    H225081   4.537   0.879   3.756 -0.3948 -0.8887 -0.0276
 8373TIP3   OH225082   2.793   1.883   3.673  0.0922 -0.3840 -0.3212
 8373TIP3    H125083   2.751   1.906   3.756  0.8584 -1.1437  0.2953
 8373TIP3    H225084   2.730   1.825   3.629 -0.8713  1.0380 -0.8797
 8374TIP3   OH225085   0.207   1.046   3.565  0.1908  0.2629  0.3859
 8374TIP3    H125086   0.118   1.009   3.558  0.2764  0.3099 -1.3260
 8374TIP3    H225087   0.197   1.121   3.623 -1.3018  1.3739 -1.1915
 8375TIP3   OH225088   3.168   3.261   0.241  0.0411  0.2484 -0.0651
 8375TIP3    H125089   3.147   3.208   0.317  0.2906  0.3257  0.0592
 8375TIP3    H225090   3.147   3.351   0.267 -0.7884  0.1744 -0.4218
 8376TIP3   OH225091   5.955   3.222   1.806  0.4863 -0.1858 -0.0897
 8376TIP3    H125092   6.020   3.278   1.849  0.1389 -0.6356  1.0589
 8376TIP3    H225093   5.883   3.217   1.868 -1.2760  1.3732 -1.9022
 8377TIP3   OH225094   7.025   2.521   3.994 -0.2513 -0.0608 -0.0052
 8377TIP3    H125095   7.042   2.503   3.901 -1.8230 -3.8533  0.2491
 8377TIP3    H225096   6.932   2.544   3.997  0.1138  1.4364  0.5472
 8378TIP3   OH225097   2.677   4.634   5.473 -0.2259 -0.1298 -0.2325
 8378TIP3    H125098   2.677   4.610   5.380 -1.2743 -0.6029 -0.1258
 8378TIP3    H225099   2.763   4.673   5.488  0.2466 -0.7557 -1.2160
 8379TIP3   OH225100   4.072   1.213   2.452 -0.0362 -0.0198  0.3139
 8379TIP3    H125101   4.103   1.154   2.384 -1.6602  0.0374 -0.5296
 8379TIP3    H225102   4.022   1.158   2.512  0.4515  0.1173  0.8598
 8380TIP3   OH225103   6.431   5.374   5.726 -0.2965  0.8574 -0.5133
 8380TIP3    H125104   6.401   5.460   5.696  1.1361  1.2271 -0.9459
 8380TIP3    H225105   6.504   5.352   5.669 -0.6826 -0.7098 -0.4578
 8381TIP3   OH225106   5.235   6.793   0.122  0.0491 -0.1277 -0.1649
 8381TIP3    H125107   5.260   6.734   0.193 -1.1575  0.1575  0.5202
 8381TIP3    H225108   5.233   6.736   0.044  1.3841 -0.4393 -0.0082
 8382TIP3   OH225109   5.078   0.718   3.550  0.3547 -0.3261 -0.0571
 8382TIP3    H125110   5.098   0.650   3.485  0.5270 -0.8667  0.5492
 8382TIP3    H225111   4.994   0.754   3.523  0.8355  0.0705 -1.0840
 8383TIP3   OH225112   5.367   6.270   3.610 -0.0302 -0.0478 -0.3540
 8383TIP3    H125113   5.325   6.192   3.575 -0.3111  0.1106 -0.3681
 8383TIP3    H225114   5.431   6.295   3.544  0.5224 -0.6438 -0.0605
 8384TIP3   OH225115   4.813   0.770   4.179 -0.3026 -0.6268  0.8105
 8384TIP3    H125116   4.809   0.853   4.133 -3.3602 -0.6089  0.8941
 8384TIP3    H225117   4.728   0.762   4.222 -1.3685 -5.0420 -1.5019
 8385TIP3   OH225118   1.261   2.345   1.879  0.6362  0.1350  0.1126
 8385TIP3    H125119   1.291   2.429   1.913 -0.9773  1.4062 -1.3739
 8385TIP3    H225120   1.191   2.319   1.938 -0.6205  1.2019 -0.8314
 8386TIP3   OH225121   6.938   5.483   2.851 -0.2259  0.0650  0.2892
 8386TIP3    H125122   6.954   5.540   2.776 -0.3821 -0.7480 -0.3810
 8386TIP3    H225123   6.861   5.520   2.894  1.2192  1.8928  1.4264
 8387TIP3   OH225124   4.042   5.307   1.488  0.1579  0.5156  0.2050
 8387TIP3    H125125   4.083   5.384   1.449 -0.8037  0.4422 -0.9980
 8387TIP3    H225126   3.961   5.295   1.439  0.5126 -1.5555  0.0191
 8388TIP3   OH225127   6.437   3.838   0.209 -0.4684 -0.5428  0.4048
 8388TIP3    H125128   6.408   3.769   0.268  0.1193 -0.4554  0.7992
 8388TIP3    H225129   6.375   3.910   0.223 -0.9907 -0.9313  0.1007
 8389TIP3   OH225130   5.091   6.671   1.684 -0.1349 -0.3632 -0.3951
 8389TIP3    H125131   5.108   6.613   1.759 -1.1924 -1.0199 -0.6394
 8389TIP3    H225132   5.135   6.629   1.611 -1.2070 -1.0794 -0.6484
 8390TIP3   OH225133   5.172   6.119   4.114  0.0668 -0.0424 -0.3033
 8390TIP3    H125134   5.193   6.143   4.204 -0.7368 -3.5179  0.9519
 8390TIP3    H225135   5.254   6.085   4.078  0.4874  1.7048 -1.0941
 8391TIP3   OH225136   2.037   5.773   2.734 -0.0455  0.6066  0.0336
 8391TIP3    H125137   2.125   5.811   2.741 -0.3201  1.2592  0.0218
 8391TIP3    H225138   2.021   5.734   2.819 -0.0578  1.1957  0.3069
 8392TIP3   OH225139   1.059   5.493   2.042 -0.4257 -0.1136  0.2522
 8392TIP3    H125140   1.058   5.436   2.119 -1.6899 -0.5874 -0.1034
 8392TIP3    H225141   0.971   5.531   2.038 -0.6103 -0.6261 -1.3379
 8393TIP3   OH225142   6.024   6.388   0.112  0.2804 -0.4231  0.7603
 8393TIP3    H125143   6.098   6.446   0.130 -0.3121  0.0342  1.7892
 8393TIP3    H225144   6.051   6.303   0.147  0.9963 -0.6916 -0.4070
 8394TIP3   OH225145   5.187   2.295   3.468 -0.1227 -0.9160 -0.4939
 8394TIP3    H125146   5.092   2.298   3.483  0.1190 -0.2818  1.0624
 8394TIP3    H225147   5.215   2.214   3.512  0.3260 -0.0154  0.9498
 8395TIP3   OH225148   0.454   6.275   4.663 -0.1031  0.3491  0.0280
 8395TIP3    H125149   0.499   6.318   4.590  0.5382 -1.5975 -0.7926
 8395TIP3    H225150   0.368   6.317   4.667  0.0697  0.8935 -1.4788
 8396TIP3   OH225151   1.075   3.307   2.683 -0.2396  0.6107 -0.3220
 8396TIP3    H125152   1.105   3.359   2.608 -1.3253  0.3451 -0.9658
 8396TIP3    H225153   1.143   3.242   2.696 -0.3806  0.1964 -1.5673
 8397TIP3   OH225154   6.534   5.216   1.509  0.4201 -0.1734 -0.0819
 8397TIP3    H125155   6.591   5.266   1.450  0.2296  1.2060  0.8431
 8397TIP3    H225156   6.477   5.282   1.548 -0.4112 -1.2534  0.5865
 8398TIP3   OH225157   0.578   0.529   4.685 -0.0622 -0.0498 -0.3042
 8398TIP3    H125158   0.644   0.467   4.717  0.2640 -0.1236 -1.0814
 8398TIP3    H225159   0.623   0.614   4.685  0.7764 -0.4187 -2.8245
 8399TIP3   OH225160   2.643   3.369   1.258 -0.1087  0.1459  0.2835
 8399TIP3    H125161   2.648   3.393   1.351  1.6432 -0.2764  0.3407
 8399TIP3    H225162   2.698   3.433   1.214 -0.3998 -0.0581 -0.3825
 8400TIP3   OH225163   3.890   4.017   5.654 -0.2785 -0.4901 -0.2119
 8400TIP3    H125164   3.889   4.066   5.736  0.6838 -0.1744 -0.3810
 8400TIP3    H225165   3.801   3.982   5.646 -0.0029 -1.7937  1.7173
 8401TIP3   OH225166   1.450   4.903   4.711  0.1759 -0.1066 -0.4055
 8401TIP3    H125167   1.433   4.914   4.804  0.2245 -0.9247 -0.2924
 8401TIP3    H225168   1.456   4.993   4.677 -0.2240  0.1967  0.3013
 8402TIP3   OH225169   1.987   0.201   4.723  0.0561  0.8913  0.4447
 8402TIP3    H125170   1.982   0.220   4.817 -0.2504 -0.8788  0.8211
 8402TIP3    H225171   2.080   0.181   4.708  0.1730  1.5441  0.2876
 8403TIP3   OH225172   5.058   1.122   2.163 -0.2154 -0.0703  0.1453
 8403TIP3    H125173   4.999   1.065   2.213 -3.2304  2.9783  0.3805
 8403TIP3    H225174   5.116   1.160   2.228 -0.8155  0.0993  0.5892
 8404TIP3   OH225175   6.636   1.922   5.320  0.0671 -0.5517  0.3060
 8404TIP3    H125176   6.566   1.985   5.336  1.4689  2.0863 -2.6902
 8404TIP3    H225177   6.607   1.874   5.242  0.6075 -1.0049  0.3804
 8405TIP3   OH225178   1.291   5.125   4.563  0.0652  0.5314 -0.1460
 8405TIP3    H125179   1.212   5.152   4.514 -0.3397  1.1078  0.7948
 8405TIP3    H225180   1.273   5.150   4.653  1.0897  0.1067  0.1921
 8406TIP3   OH225181   0.737   0.051   5.375  0.4412 -0.0300 -0.1517
 8406TIP3    H125182   0.827   0.035   5.403  0.3810 -0.5456 -0.2298
 8406TIP3    H225183   0.738   0.140   5.341  1.7159 -1.0329 -3.1331
 8407TIP3   OH225184   1.555   3.082   5.060 -0.4292  0.0309  0.2064
 8407TIP3    H125185   1.509   3.161   5.032 -1.5945 -0.8150 -0.3356
 8407TIP3    H225186   1.590   3.104   5.147 -1.2251  0.9479  0.3114
 8408TIP3   OH225187   2.306   6.002   0.497  0.5461  0.3596 -0.2184
 8408TIP3    H125188   2.246   6.066   0.458  2.0397  0.6801 -2.1351
 8408TIP3    H225189   2.319   5.936   0.429  0.5366 -0.9910  1.0300
 8409TIP3   OH225190   5.224   1.706   4.261 -0.3682  0.1263  0.0329
 8409TIP3    H125191   5.192   1.710   4.171 -1.7266  0.2209  0.4902
 8409TIP3    H225192   5.200   1.791   4.298 -0.8704 -0.3512  0.8162
 8410TIP3   OH225193   0.020   0.341   5.644  0.4383  0.1722 -0.4288
 8410TIP3    H125194   0.065   0.351   5.560 -0.4974 -0.8659 -1.0883
 8410TIP3    H225195   0.009   0.246   5.653 -1.3583  0.3660 -0.1855
 8411TIP3   OH225196   5.786   3.673   4.277  0.2457  0.2883  0.4690
 8411TIP3    H125197   5.736   3.739   4.229 -1.4647 -0.9103  0.5192
 8411TIP3    H225198   5.785   3.703   4.368 -0.1688  0.4073  0.4242
 8412TIP3   OH225199   6.118   4.083   2.002  0.5014 -0.1992 -0.5456
 8412TIP3    H125200   6.185   4.151   2.014  0.0803 -0.1599  2.4385
 8412TIP3    H225201   6.035   4.130   2.011  0.1086 -0.6571 -1.6172
 8413TIP3   OH225202   4.428   1.815   4.763  0.0566  0.0179 -0.2588
 8413TIP3    H125203   4.453   1.724   4.747 -1.0534 -0.5510  1.0447
 8413TIP3    H225204   4.388   1.844   4.681  1.8052 -0.1307 -1.2157
 8414TIP3   OH225205   5.704   5.752   3.752 -0.3209 -0.5087  0.2571
 8414TIP3    H125206   5.764   5.693   3.706  0.4153 -0.1536  0.7514
 8414TIP3    H225207   5.671   5.811   3.684  0.2365 -0.4190  0.0671
 8415TIP3   OH225208   5.270   3.472   1.673 -0.1753 -0.5553  0.0279
 8415TIP3    H125209   5.322   3.524   1.613  1.0606 -2.0926 -0.2934
 8415TIP3    H225210   5.180   3.479   1.639 -0.1352  1.6151  0.2359
 8416TIP3   OH225211   3.490   1.644   3.618 -0.2397 -0.1563 -0.0029
 8416TIP3    H125212   3.456   1.701   3.549  1.1293 -0.0818 -0.6433
 8416TIP3    H225213   3.546   1.581   3.572  1.8084  0.7410  1.1329
 8417TIP3   OH225214   2.681   6.550   0.406 -0.3158 -0.0375 -0.6548
 8417TIP3    H125215   2.676   6.568   0.499 -2.6618  0.4238 -0.7945
 8417TIP3    H225216   2.763   6.589   0.377  0.5380 -0.3635  1.2193
 8418TIP3   OH225217   0.168   2.654   0.539 -0.0307  0.3603  0.1452
 8418TIP3    H125218   0.202   2.693   0.458  1.5711 -0.8747  0.1662
 8418TIP3    H225219   0.221   2.694   0.608  0.9573 -1.0889  0.2510
 8419TIP3   OH225220   3.990   4.720   0.605  0.2934 -0.3629  0.1982
 8419TIP3    H125221   3.921   4.762   0.657  0.9138  0.6269  0.2576
 8419TIP3    H225222   3.979   4.626   0.621 -0.3839 -0.1516  1.0378
 8420TIP3   OH225223   0.564   0.844   1.033  0.0437  0.1849  0.3097
 8420TIP3    H125224   0.647   0.804   1.060  0.3947 -0.5541 -1.6887
 8420TIP3    H225225   0.502   0.772   1.034 -0.5207  0.6663  1.4574
 8421TIP3   OH225226   3.560   1.903   5.350 -0.1001  0.1761  0.1423
 8421TIP3    H125227   3.544   1.994   5.326 -2.7260  0.2047  1.5689
 8421TIP3    H225228   3.482   1.856   5.320 -0.8281 -0.7789  3.1225
 8422TIP3   OH225229   0.228   0.157   4.554  0.7035 -0.1878 -0.2997
 8422TIP3    H125230   0.254   0.076   4.598  3.2936  1.6810  1.9138
 8422TIP3    H225231   0.286   0.164   4.479  0.2390 -0.5055 -0.6984
 8423TIP3   OH225232   4.518   1.314   2.457 -0.1186  0.3752  0.0920
 8423TIP3    H125233   4.567   1.300   2.538 -0.4388 -0.8755  0.0927
 8423TIP3    H225234   4.491   1.406   2.461  1.0379  0.7044  0.7359
 8424TIP3   OH225235   0.677   2.494   0.261  0.2947 -0.1908  0.5452
 8424TIP3    H125236   0.588   2.528   0.245  0.4048  0.0533  0.4417
 8424TIP3    H225237   0.664   2.402   0.285  0.0575 -0.3177 -0.0575
 8425TIP3   OH225238   5.751   2.750   1.059 -0.6097 -0.2400 -0.0329
 8425TIP3    H125239   5.679   2.809   1.035 -1.0593 -0.6706  0.2327
 8425TIP3    H225240   5.745   2.742   1.154 -2.7485 -3.3871 -0.2766
 8426TIP3   OH225241   3.517   3.179   3.177 -0.1930 -0.0319 -0.5799
 8426TIP3    H125242   3.526   3.238   3.102 -1.5777  2.1430  0.8461
 8426TIP3    H225243   3.423   3.158   3.179 -0.2816  0.4267  0.8606
 8427TIP3   OH225244   5.027   3.741   4.752  0.0394 -0.3770  0.3023
 8427TIP3    H125245   5.004   3.662   4.802  0.0824 -1.5155 -1.4200
 8427TIP3    H225246   4.943   3.783   4.735  0.0090 -0.0668  1.1425
 8428TIP3   OH225247   5.554   5.719   3.316 -0.5836  0.6198 -0.3167
 8428TIP3    H125248   5.528   5.739   3.226  0.7610 -0.3333 -0.9688
 8428TIP3    H225249   5.530   5.627   3.328 -0.7655  0.7445  0.3031
 8429TIP3   OH225250   6.160   4.820   0.921  0.3355 -0.1769  0.1376
 8429TIP3    H125251   6.204   4.795   1.003  1.4533 -1.9336 -0.9265
 8429TIP3    H225252   6.200   4.764   0.855 -0.7474  0.9979 -1.5858
 8430TIP3   OH225253   6.071   2.033   5.708 -0.7001  0.1965  0.3069
 8430TIP3    H125254   6.160   2.019   5.740 -0.1223 -1.7266 -1.8595
 8430TIP3    H225255   6.060   2.129   5.708  1.0797  0.4431  1.2872
 8431TIP3   OH225256   6.054   4.481   1.417  0.4956  0.1070  0.2068
 8431TIP3    H125257   6.130   4.515   1.369  0.8503 -2.4497 -1.2493
 8431TIP3    H225258   6.056   4.386   1.400 -2.8572 -0.1012  0.3593
 8432TIP3   OH225259   1.571   3.941   3.794  0.0489 -0.0561 -0.3273
 8432TIP3    H125260   1.567   4.021   3.742 -1.5523 -0.6391 -1.1602
 8432TIP3    H225261   1.649   3.896   3.763 -0.7392 -0.2742 -2.1103
 8433TIP3   OH225262   5.866   6.797   3.556  0.1572  0.4662  0.9562
 8433TIP3    H125263   5.806   6.742   3.606  0.7817  1.1370  2.5301
 8433TIP3    H225264   5.900   6.860   3.620  1.0475  1.3443 -0.3188
 8434TIP3   OH225265   3.927   1.714   0.409 -0.2757  0.5051 -0.0163
 8434TIP3    H125266   3.845   1.728   0.457 -0.8651 -0.9461 -0.5613
 8434TIP3    H225267   3.953   1.625   0.432  0.8647  0.7562 -0.2949
 8435TIP3   OH225268   0.430   1.629   5.706 -0.1985  0.2379 -0.9967
 8435TIP3    H125269   0.487   1.661   5.636 -1.3855  2.0341 -1.1897
 8435TIP3    H225270   0.352   1.684   5.701 -0.4922  0.1670  1.4746
 8436TIP3   OH225271   0.700   5.608   3.725  0.0185 -0.1134  0.1378
 8436TIP3    H125272   0.698   5.631   3.818  2.1313  2.2109 -0.2753
 8436TIP3    H225273   0.753   5.529   3.721  1.4188  0.7461  0.8320
 8437TIP3   OH225274   2.282   3.613   3.811 -0.6040 -0.8955 -0.2077
 8437TIP3    H125275   2.322   3.596   3.896 -0.8873 -0.3359  0.0442
 8437TIP3    H225276   2.198   3.652   3.831 -1.1371 -1.7289 -0.7415
 8438TIP3   OH225277   5.955   5.503   4.571  0.1940 -0.5114 -0.0231
 8438TIP3    H125278   5.878   5.512   4.627 -0.7260  0.8917 -1.4468
 8438TIP3    H225279   5.944   5.417   4.529 -0.9959 -0.0363 -0.7416
 8439TIP3   OH225280   6.838   1.904   2.789 -0.6706 -0.1272  0.1404
 8439TIP3    H125281   6.762   1.884   2.843  0.6834  0.7201  2.5209
 8439TIP3    H225282   6.839   1.999   2.782  0.1535 -0.1267  0.1388
 8440TIP3   OH225283   6.661   3.121   4.185  0.5987 -0.1142 -0.1743
 8440TIP3    H125284   6.670   3.084   4.272  2.3717 -0.9381 -0.6703
 8440TIP3    H225285   6.737   3.090   4.137 -1.0788 -0.9493 -2.4821
 8441TIP3   OH225286   5.892   3.703   4.530 -0.3901  0.3256 -0.2206
 8441TIP3    H125287   5.873   3.788   4.571  0.4233  0.5996 -0.3892
 8441TIP3    H225288   5.969   3.720   4.476 -0.0644 -0.5827 -0.0525
 8442TIP3   OH225289   4.890   6.452   3.656 -0.3123  0.4376 -0.0315
 8442TIP3    H125290   4.851   6.435   3.741 -1.9242  2.1071 -0.3702
 8442TIP3    H225291   4.954   6.382   3.644  1.3235  1.1604  3.3298
 8443TIP3   OH225292   2.839   2.815   2.517  0.3532  0.4058 -0.1633
 8443TIP3    H125293   2.747   2.786   2.522  0.3461  0.6039  2.7028
 8443TIP3    H225294   2.883   2.744   2.470 -0.8040 -1.1578  0.9686
 8444TIP3   OH225295   5.856   5.430   2.695 -0.4192  0.7669  0.0016
 8444TIP3    H125296   5.809   5.347   2.698  2.6296 -1.0697  0.4772
 8444TIP3    H225297   5.874   5.444   2.602  0.5642 -0.0729  0.0452
 8445TIP3   OH225298   6.229   4.612   4.518 -0.0915  0.3478 -0.1287
 8445TIP3    H125299   6.215   4.601   4.424 -0.1186 -0.0028 -0.0861
 8445TIP3    H225300   6.295   4.547   4.541 -0.5135  0.0239  0.2013
 8446TIP3   OH225301   0.404   2.179   0.485 -0.3629 -0.3572 -0.6516
 8446TIP3    H125302   0.421   2.100   0.535 -1.7907  0.4916  1.3090
 8446TIP3    H225303   0.315   2.204   0.510  0.5181  2.6086 -0.1043
 8447TIP3   OH225304   5.201   3.266   3.544 -0.2483  0.7601 -0.2074
 8447TIP3    H125305   5.138   3.194   3.544 -0.3959  0.8407 -2.1504
 8447TIP3    H225306   5.284   3.225   3.567 -0.3529 -0.0472 -1.1668
 8448TIP3   OH225307   3.002   2.411   5.634 -0.2731 -0.4856 -0.4896
 8448TIP3    H125308   3.027   2.396   5.543 -0.3615 -1.7122 -0.3257
 8448TIP3    H225309   3.078   2.382   5.685  0.1583  1.0820 -0.1870
 8449TIP3   OH225310   2.875   5.137   3.676  0.8505  0.3725  0.2775
 8449TIP3    H125311   2.866   5.055   3.724  2.5343 -0.8545 -1.3480
 8449TIP3    H225312   2.801   5.138   3.616 -1.0324  1.7176  2.4306
 8450TIP3   OH225313   5.631   5.015   3.577 -0.2059  0.2793 -0.5412
 8450TIP3    H125314   5.693   4.946   3.601  0.1946  1.3403  1.7069
 8450TIP3    H225315   5.595   5.045   3.660  2.0776  5.0238 -0.9197
 8451TIP3   OH225316   6.067   4.684   5.489 -0.0683 -0.1865 -0.0769
 8451TIP3    H125317   6.075   4.778   5.474  0.2717 -0.2582 -0.3782
 8451TIP3    H225318   6.024   4.677   5.574 -0.3856  0.2385 -0.1978
 8452TIP3   OH225319   1.102   6.412   0.501 -0.1102  0.2947  0.6977
 8452TIP3    H125320   1.047   6.342   0.536 -1.0436  0.0093 -1.2314
 8452TIP3    H225321   1.187   6.398   0.543 -0.4218 -1.6804  0.7650
 8453TIP3   OH225322   0.177   2.477   4.592 -0.2071 -0.2215  0.2574
 8453TIP3    H125323   0.264   2.437   4.602 -0.5352 -0.9090  0.4316
 8453TIP3    H225324   0.195   2.565   4.560  0.6126 -0.0224  1.1983
 8454TIP3   OH225325   1.561   2.744   3.737 -0.2098 -0.2581 -0.2070
 8454TIP3    H125326   1.559   2.813   3.804 -1.1085  0.6350 -1.1141
 8454TIP3    H225327   1.482   2.759   3.685  0.4049 -1.0023 -1.3954
 8455TIP3   OH225328   0.942   3.931   4.329 -0.2491 -0.2272  0.3092
 8455TIP3    H125329   1.007   3.951   4.261  0.5416 -0.3613  1.0047
 8455TIP3    H225330   0.991   3.939   4.411 -0.9235 -1.1090  0.8092
 8456TIP3   OH225331   4.428   5.617   0.100 -0.5104 -0.3873  0.2222
 8456TIP3    H125332   4.439   5.710   0.120 -0.6294 -0.2948 -0.1334
 8456TIP3    H225333   4.401   5.615   0.008  0.0742 -0.8046  0.0571
 8457TIP3   OH225334   3.268   2.158   2.340 -0.1189 -0.4969 -0.1256
 8457TIP3    H125335   3.341   2.113   2.297 -0.2738  0.0718 -1.0178
 8457TIP3    H225336   3.193   2.141   2.283 -0.4460 -0.1815  0.2118
 8458TIP3   OH225337   3.272   0.630   0.257 -0.3242  0.1893 -0.4506
 8458TIP3    H125338   3.254   0.693   0.327  0.0908 -0.6765  0.4693
 8458TIP3    H225339   3.186   0.601   0.228 -0.5067  0.0272  0.2159
 8459TIP3   OH225340   3.481   4.827   3.095 -0.3176  0.1223  0.3317
 8459TIP3    H125341   3.439   4.803   3.013  0.1292 -1.0068  0.4214
 8459TIP3    H225342   3.408   4.835   3.157 -0.5130 -0.6115  0.2007
 8460TIP3   OH225343   1.945   1.363   3.108 -0.2505 -0.2342  0.1716
 8460TIP3    H125344   1.862   1.383   3.151 -0.4246 -0.8693  0.1359
 8460TIP3    H225345   1.989   1.448   3.101 -1.8758  0.5221 -1.9085
 8461TIP3   OH225346   0.041   3.951   5.007  0.2369  0.1865  0.1074
 8461TIP3    H125347   0.120   3.959   5.060  0.4216 -0.8753  0.0112
 8461TIP3    H225348  -0.004   3.874   5.041 -0.7347  0.7388  0.1129
 8462TIP3   OH225349   6.610   6.202   5.121 -0.1599 -0.3779 -0.2194
 8462TIP3    H125350   6.610   6.124   5.177  0.8264  0.5384  1.1147
 8462TIP3    H225351   6.567   6.269   5.173  0.0646  0.2856 -0.8755
 8463TIP3   OH225352   6.134   2.440   0.058 -0.2747  0.4713  0.1408
 8463TIP3    H125353   6.183   2.406  -0.016 -1.6687 -2.2303  0.3072
 8463TIP3    H225354   6.057   2.481   0.020 -1.1117 -1.1298  0.0392
 8464TIP3   OH225355   0.504   2.218   5.040 -0.1531 -0.1285 -0.0229
 8464TIP3    H125356   0.556   2.139   5.052  0.6490  0.3934  0.0472
 8464TIP3    H225357   0.542   2.260   4.963 -1.7948 -0.7511 -1.2124
 8465TIP3   OH225358   4.273   3.585   4.774  0.4978  0.5685  0.0436
 8465TIP3    H125359   4.313   3.499   4.758  1.0516  0.7213  0.5673
 8465TIP3    H225360   4.284   3.633   4.692 -1.5335 -0.5065 -0.9253
 8466TIP3   OH225361   3.376   4.222   4.717 -0.1586  0.3405 -0.1700
 8466TIP3    H125362   3.300   4.244   4.664 -0.6768 -3.2093 -1.1672
 8466TIP3    H225363   3.350   4.243   4.807 -1.9654  0.1190 -0.6112
 8467TIP3   OH225364   3.484   0.208   3.722  0.0075 -0.3824 -0.2362
 8467TIP3    H125365   3.422   0.191   3.793 -0.3791 -1.1301 -0.7421
 8467TIP3    H225366   3.435   0.260   3.658 -0.3065 -1.4822 -0.9171
 8468TIP3   OH225367   6.200   5.838   1.581 -0.0145 -0.1820  0.2277
 8468TIP3    H125368   6.201   5.862   1.673  0.2024  0.7153  0.0021
 8468TIP3    H225369   6.114   5.799   1.566  0.2344 -1.0337  0.9801
 8469TIP3   OH225370   2.479   6.356   3.264 -0.4463 -0.3978 -0.3265
 8469TIP3    H125371   2.553   6.298   3.283  0.0878  0.3622 -0.0102
 8469TIP3    H225372   2.450   6.387   3.349 -0.3212  0.2673 -0.5139
 8470TIP3   OH225373   3.971   0.451   2.123  0.2498 -0.0664 -0.2572
 8470TIP3    H125374   3.973   0.442   2.219  0.8013 -1.1814 -0.3654
 8470TIP3    H225375   3.917   0.379   2.093 -0.4397  0.6495 -0.7573
 8471TIP3   OH225376   4.227   2.509   0.386  0.4092 -0.4682 -0.3307
 8471TIP3    H125377   4.137   2.530   0.410 -0.3268 -0.7590 -2.6138
 8471TIP3    H225378   4.231   2.413   0.390  1.5191 -0.3896  2.5584
 8472TIP3   OH225379   0.334   6.402   1.649  0.1295  0.0277 -0.3583
 8472TIP3    H125380   0.247   6.435   1.628  0.1332  0.4676  0.3035
 8472TIP3    H225381   0.330   6.381   1.742  1.0457  1.0342 -0.0794
 8473TIP3   OH225382   0.911   6.523   4.234  0.0223  0.3933  0.3628
 8473TIP3    H125383   0.940   6.589   4.171 -1.5717  1.8700  1.0996
 8473TIP3    H225384   0.818   6.513   4.217  0.5289 -3.5627 -1.3601
 8474TIP3   OH225385   7.103   3.869   1.916 -0.2040  0.7797 -0.2589
 8474TIP3    H125386   7.119   3.804   1.848  0.3071  0.1407  0.4546
 8474TIP3    H225387   7.184   3.869   1.969 -1.0113  0.4202  1.0275
 8475TIP3   OH225388   0.437   1.404   5.220 -0.1043  0.2837  0.0818
 8475TIP3    H125389   0.383   1.467   5.268 -2.8930 -1.6934 -0.1631
 8475TIP3    H225390   0.523   1.410   5.260 -0.5828  3.2389  0.9301
 8476TIP3   OH225391   0.012   0.058   3.910 -0.0207  0.2109  0.4529
 8476TIP3    H125392   0.054  -0.000   3.846  1.6983 -3.1252  4.1508
 8476TIP3    H225393   0.039   0.146   3.883  3.0547 -1.1892 -1.7588
 8477TIP3   OH225394   5.761   3.063   0.323  0.1322  0.1397  0.0939
 8477TIP3    H125395   5.697   3.036   0.256  0.9851  0.6006 -0.9231
 8477TIP3    H225396   5.741   3.007   0.398 -2.5346  1.3666  0.4092
 8478TIP3   OH225397   1.567   4.682   3.517 -0.1646 -0.1506 -0.2421
 8478TIP3    H125398   1.517   4.621   3.463 -0.9485  0.4526 -0.2145
 8478TIP3    H225399   1.501   4.729   3.568  0.4657  0.3051  0.1703
 8479TIP3   OH225400   5.367   1.674   1.341 -0.0433  0.1669  0.4024
 8479TIP3    H125401   5.425   1.749   1.329 -2.9267  2.2137 -2.5851
 8479TIP3    H225402   5.416   1.599   1.309  2.5811  0.7869  2.5665
 8480TIP3   OH225403   6.246   3.146   1.249 -0.4714  0.0474  0.1028
 8480TIP3    H125404   6.273   3.225   1.203  1.5764  0.4601  1.8676
 8480TIP3    H225405   6.188   3.176   1.318  0.0517 -0.0142  0.5752
 8481TIP3   OH225406   0.659   3.062   5.319 -0.1510  0.0339  0.0449
 8481TIP3    H125407   0.653   3.148   5.277  0.9099 -0.1834 -0.5848
 8481TIP3    H225408   0.622   3.001   5.255  2.0112 -0.3753 -0.8712
 8482TIP3   OH225409   3.932   5.738   0.894  1.1312  0.0794  0.0087
 8482TIP3    H125410   3.938   5.654   0.938  0.7629  0.0920  0.0831
 8482TIP3    H225411   3.986   5.797   0.947  1.3118 -0.0860  0.0098
 8483TIP3   OH225412   3.159   3.235   2.326 -0.5140 -0.0453  0.2219
 8483TIP3    H125413   3.103   3.177   2.378  0.1533 -1.1457 -0.2551
 8483TIP3    H225414   3.141   3.210   2.236  0.7469 -0.4234  0.0603
 8484TIP3   OH225415   3.015   0.418   5.247  0.1618 -0.2874 -0.2480
 8484TIP3    H125416   2.984   0.401   5.335 -1.4664  0.4905 -0.6329
 8484TIP3    H225417   2.979   0.346   5.194  0.2114 -0.1602 -0.4585
 8485TIP3   OH225418   4.486   3.037   2.478  0.4284  0.6589 -0.0668
 8485TIP3    H125419   4.533   3.000   2.404  1.2328  1.5906 -0.0386
 8485TIP3    H225420   4.401   3.062   2.443  0.2839 -0.1885 -0.3367
 8486TIP3   OH225421   1.071   6.067   3.296 -0.0056  0.2252  0.4094
 8486TIP3    H125422   1.090   6.021   3.377 -1.7018  0.3379  0.9243
 8486TIP3    H225423   1.035   6.000   3.238 -3.3163  0.9026  1.4641
 8487TIP3   OH225424   0.174   6.738   1.157  0.0713  0.5742 -0.0250
 8487TIP3    H125425   0.220   6.720   1.239 -0.3474  0.3768  0.1701
 8487TIP3    H225426   0.083   6.752   1.184 -0.1759 -0.0456 -0.5142
 8488TIP3   OH225427   1.771   6.529   4.253 -0.0679  0.2023  0.0010
 8488TIP3    H125428   1.860   6.548   4.283 -0.3638  0.4808  0.7304
 8488TIP3    H225429   1.766   6.569   4.166  0.4776  0.3105  0.0151
 8489TIP3   OH225430   6.331   1.004   4.585  0.0208  0.2908  0.2612
 8489TIP3    H125431   6.363   0.989   4.496 -0.3145  0.2124  0.1525
 8489TIP3    H225432   6.236   1.009   4.575 -0.2521 -2.1221  0.9243
 8490TIP3   OH225433   3.699   6.039   0.257  0.2106 -0.2427 -0.3580
 8490TIP3    H125434   3.606   6.050   0.272  0.1173  0.1692 -1.1793
 8490TIP3    H225435   3.708   5.948   0.229  0.2525 -0.6982  1.0484
 8491TIP3   OH225436   5.758   3.109   1.975  0.0482  0.2968  0.2605
 8491TIP3    H125437   5.677   3.065   1.952 -0.1342  1.4259 -1.5280
 8491TIP3    H225438   5.731   3.184   2.029  0.0666 -0.1455  0.8914
 8492TIP3   OH225439   2.493   1.049   5.318  0.3645  0.2444  0.3042
 8492TIP3    H125440   2.447   1.093   5.389 -1.1505 -3.2316  1.6970
 8492TIP3    H225441   2.584   1.044   5.348  0.1865  0.7723  0.9603
 8493TIP3   OH225442   1.762   0.553   3.405  0.0202 -0.0662 -0.2284
 8493TIP3    H125443   1.850   0.568   3.441 -0.1680 -1.1528  0.7504
 8493TIP3    H225444   1.720   0.495   3.469 -2.0302  1.8167  0.2186
 8494TIP3   OH225445   6.791   3.117   3.440  0.0030  0.0371 -0.2272
 8494TIP3    H125446   6.877   3.131   3.402 -0.4852  1.3839 -0.8987
 8494TIP3    H225447   6.776   3.193   3.496 -1.6524  0.9988 -1.8774
 8495TIP3   OH225448   5.984   0.850   0.296  0.1211 -0.2012  0.0443
 8495TIP3    H125449   6.032   0.797   0.232 -0.7102 -1.5724  0.5189
 8495TIP3    H225450   5.893   0.825   0.285 -0.1184  0.0465  1.2979
 8496TIP3   OH225451   5.003   5.650   4.338 -0.5746  0.1499 -0.5466
 8496TIP3    H125452   5.004   5.728   4.284 -0.1141 -0.1624 -1.0000
 8496TIP3    H225453   4.913   5.645   4.372 -0.7930  0.4927 -1.0646
 8497TIP3   OH225454   1.333   4.174   0.211  0.3244  0.0177  0.3400
 8497TIP3    H125455   1.314   4.159   0.118  1.5091  0.2115  0.0539
 8497TIP3    H225456   1.392   4.249   0.211  0.1034  0.1947  1.2807
 8498TIP3   OH225457   5.002   6.621   4.268 -0.0395 -0.6664 -0.3028
 8498TIP3    H125458   4.930   6.629   4.205 -0.4379 -1.7831 -0.0018
 8498TIP3    H225459   5.066   6.565   4.223  0.7084  0.4084 -0.6126
 8499TIP3   OH225460   7.087   3.856   0.540  0.1297  0.6939  0.5128
 8499TIP3    H125461   7.080   3.870   0.446  1.1680  0.6592  0.4246
 8499TIP3    H225462   7.006   3.894   0.576 -0.2166  0.8127 -0.3699
 8500TIP3   OH225463   5.793   1.792   4.156 -0.9091 -0.4193 -0.3106
 8500TIP3    H125464   5.726   1.845   4.113  0.7808 -0.9582 -3.9387
 8500TIP3    H225465   5.873   1.844   4.150 -0.3032 -1.1448  1.0017
 8501TIP3   OH225466   3.141   0.156   0.165 -0.2133 -0.2679 -0.0665
 8501TIP3    H125467   3.059   0.180   0.122  0.2948  2.2435  0.2320
 8501TIP3    H225468   3.209   0.180   0.102  0.3640 -1.2238  0.1670
 8502TIP3   OH225469   3.838   4.463   1.508  0.2965 -0.2549 -0.1786
 8502TIP3    H125470   3.844   4.449   1.414  1.3316 -1.1340  0.0018
 8502TIP3    H225471   3.794   4.548   1.517 -1.2904 -0.8823 -1.4159
 8503TIP3   OH225472   0.614   6.241   1.635  0.1180 -0.7268 -0.7680
 8503TIP3    H125473   0.608   6.160   1.686 -0.8500  1.0159  2.1501
 8503TIP3    H225474   0.527   6.281   1.642  1.4091  2.1860  1.0643
 8504TIP3   OH225475   4.234   2.533   2.821  0.6425  0.2278  0.5676
 8504TIP3    H125476   4.224   2.623   2.789 -0.6414  0.0274  0.3663
 8504TIP3    H225477   4.203   2.478   2.748  1.6607 -0.4050  0.5823
 8505TIP3   OH225478   4.659   3.144   2.655 -0.7401  0.0133  0.3059
 8505TIP3    H125479   4.723   3.179   2.593 -1.2593  0.6551  0.1203
 8505TIP3    H225480   4.587   3.113   2.600 -0.6345 -0.6264  0.5174
 8506TIP3   OH225481   5.375   1.047   1.028 -0.1017  0.4088 -0.1609
 8506TIP3    H125482   5.362   1.079   0.938 -0.6607  0.5309 -0.0390
 8506TIP3    H225483   5.292   1.064   1.072  0.1137  0.1931  0.3371
 8507TIP3   OH225484   4.578   0.922   5.225  0.0713  0.4634  0.3673
 8507TIP3    H125485   4.573   0.936   5.320  1.9812  1.4028  0.3809
 8507TIP3    H225486   4.585   0.827   5.216  0.9056  0.4221  1.2548
 8508TIP3   OH225487   4.692   0.508   5.642 -0.7351  0.2007  0.4137
 8508TIP3    H125488   4.692   0.579   5.707 -1.4482 -0.8021  1.5692
 8508TIP3    H225489   4.606   0.467   5.651 -0.5743 -0.4175 -0.6774
 8509TIP3   OH225490   6.830   4.183   4.019 -0.5639  0.1865  0.0275
 8509TIP3    H125491   6.831   4.239   4.097 -0.4302 -0.5127  0.5316
 8509TIP3    H225492   6.753   4.127   4.031 -0.9392  0.5333 -0.6789
 8510TIP3   OH225493   0.432   3.547   4.668  0.3648 -0.4063  0.0638
 8510TIP3    H125494   0.370   3.576   4.735 -0.7980  0.3547 -1.2807
 8510TIP3    H225495   0.404   3.458   4.646  0.6555 -0.6008  0.4666
 8511TIP3   OH225496   1.991   4.354   4.412  0.1277  0.3309 -0.1040
 8511TIP3    H125497   2.054   4.284   4.430 -0.0089  0.4867  1.0824
 8511TIP3    H225498   1.920   4.310   4.365 -0.1467 -0.4338  0.9901
 8512TIP3   OH225499   3.651   4.669   4.115  0.2260 -0.2935 -0.2887
 8512TIP3    H125500   3.659   4.764   4.105  1.0811 -0.3536 -0.2040
 8512TIP3    H225501   3.707   4.633   4.046 -0.9559 -0.7518 -1.0353
 8513TIP3   OH225502   5.200   0.882   0.692  0.0329  0.8031  0.1677
 8513TIP3    H125503   5.232   0.818   0.755  0.3051  1.3152  0.5575
 8513TIP3    H225504   5.121   0.917   0.731 -1.9446 -1.5149 -1.4476
 8514TIP3   OH225505   5.040   2.829   3.883  0.0813  0.0078  0.0151
 8514TIP3    H125506   5.102   2.840   3.954 -0.4150  0.9535  0.3130
 8514TIP3    H225507   5.093   2.838   3.803  0.3222  0.9214  0.2644
 8515TIP3   OH225508   2.839   1.877   0.699  0.0929  0.0540  0.6272
 8515TIP3    H125509   2.798   1.807   0.750  0.9468 -1.4545 -0.6319
 8515TIP3    H225510   2.931   1.877   0.728  0.1528  0.4837  0.4399
 8516TIP3   OH225511   6.044   6.765   5.035 -0.7762 -0.2589  0.4099
 8516TIP3    H125512   6.069   6.705   5.105  0.2313  1.5409  1.6751
 8516TIP3    H225513   6.046   6.712   4.956 -1.3250 -2.2140  1.6386
 8517TIP3   OH225514   5.276   3.302   3.137 -0.3406 -0.8644  0.0866
 8517TIP3    H125515   5.186   3.316   3.164 -0.6613 -1.5981 -0.5577
 8517TIP3    H225516   5.329   3.319   3.215 -1.0973 -1.2475  0.6850
 8518TIP3   OH225517   2.145   0.233   0.317 -0.0775 -0.7112 -0.2999
 8518TIP3    H125518   2.120   0.166   0.381 -0.5471  0.6642  1.0244
 8518TIP3    H225519   2.235   0.212   0.295  0.7238 -0.2281  2.2087
 8519TIP3   OH225520   5.574   4.389   5.292  0.3554  0.1575  0.5650
 8519TIP3    H125521   5.499   4.446   5.273 -1.1001 -1.8585 -0.0336
 8519TIP3    H225522   5.634   4.404   5.219 -0.5177  0.1095 -0.1755
 8520TIP3   OH225523   2.350   1.258   2.533 -0.4643 -0.2483  0.5703
 8520TIP3    H125524   2.344   1.309   2.452  1.1614 -0.8472  0.0330
 8520TIP3    H225525   2.262   1.223   2.546 -0.6177 -0.7078 -1.3437
 8521TIP3   OH225526   5.617   6.712   3.629  0.4385  0.1376 -0.5006
 8521TIP3    H125527   5.547   6.735   3.568 -2.5877 -0.7988  2.3102
 8521TIP3    H225528   5.602   6.768   3.705  0.6357 -2.3269  1.4889
 8522TIP3   OH225529   2.836   1.622   5.704 -0.4578 -0.3734  0.0993
 8522TIP3    H125530   2.914   1.644   5.755 -1.7098 -1.5466  2.6974
 8522TIP3    H225531   2.859   1.541   5.658  0.1145 -0.2985  0.2483
 8523TIP3   OH225532   7.221   0.034   0.005  0.2849  0.3868  0.0811
 8523TIP3    H125533   7.141  -0.009   0.035 -0.3116  0.1331 -1.7615
 8523TIP3    H225534   7.191   0.116  -0.034  1.2057  1.4996  1.5831
 8524TIP3   OH225535   1.823   3.013   3.869 -0.2346  0.1481 -0.0051
 8524TIP3    H125536   1.768   3.059   3.933 -0.8369  1.1168 -1.1634
 8524TIP3    H225537   1.760   2.982   3.803  0.2973 -1.3913  0.1762
 8525TIP3   OH225538   4.377   6.111   2.417 -0.9440 -0.3006 -0.0274
 8525TIP3    H125539   4.417   6.198   2.415  3.0902 -1.7264  3.5644
 8525TIP3    H225540   4.427   6.059   2.355 -1.8389 -0.6222 -0.5049
 8526TIP3   OH225541   0.564   4.389   3.301  0.2800 -0.0063 -0.4539
 8526TIP3    H125542   0.508   4.313   3.284  0.4551 -0.2863  0.1981
 8526TIP3    H225543   0.653   4.355   3.295  0.3573  0.1230 -0.0448
 8527TIP3   OH225544   1.751   0.345   5.881  0.4769 -0.0224  0.3117
 8527TIP3    H125545   1.778   0.267   5.930  0.8211  0.5153  0.9922
 8527TIP3    H225546   1.831   0.378   5.841  0.4591  0.3909  0.6145
 8528TIP3   OH225547   4.824   2.179   0.072 -0.3308  0.2575 -0.1570
 8528TIP3    H125548   4.767   2.254   0.054  1.0358  1.1053 -1.1642
 8528TIP3    H225549   4.817   2.167   0.166 -1.1708  1.1595 -0.0771
 8529TIP3   OH225550   4.279   6.196   5.288 -0.0799  0.8986 -0.2137
 8529TIP3    H125551   4.325   6.276   5.263  1.6572 -0.3494 -1.1933
 8529TIP3    H225552   4.219   6.179   5.216  0.1500  0.8774 -0.4015
 8530TIP3   OH225553   3.136   4.433   0.768  0.0152 -0.3868 -0.3205
 8530TIP3    H125554   3.138   4.491   0.692  1.8882 -2.1529 -1.7416
 8530TIP3    H225555   3.188   4.478   0.834  2.0661 -0.6545 -1.6535
 8531TIP3   OH225556   1.705   4.472   5.246  0.0507 -0.2420 -0.2296
 8531TIP3    H125557   1.682   4.515   5.164  1.8122  0.7329 -0.2580
 8531TIP3    H225558   1.687   4.379   5.230  0.9638 -0.1573 -1.9604
 8532TIP3   OH225559   2.640   6.340   0.839 -0.5922 -0.1028 -0.0150
 8532TIP3    H125560   2.724   6.347   0.884  0.2769 -0.8339 -1.4313
 8532TIP3    H225561   2.631   6.424   0.792 -0.6759 -0.0126  0.1608
 8533TIP3   OH225562   4.328   5.227   0.476 -0.1845 -0.4778  0.0641
 8533TIP3    H125563   4.412   5.225   0.521 -0.9847  0.5078  1.6719
 8533TIP3    H225564   4.346   5.273   0.394  0.3737  2.1356  1.5349
 8534TIP3   OH225565   1.428   4.602   4.043  0.2280  0.5558  0.9028
 8534TIP3    H125566   1.388   4.542   4.105 -1.6130  1.8897  1.1143
 8534TIP3    H225567   1.442   4.683   4.093 -0.3563  1.3250 -0.1325
 8535TIP3   OH225568   1.132   5.344   4.227 -0.0945 -0.4337  0.0940
 8535TIP3    H125569   1.210   5.322   4.176 -0.6433 -1.7235 -0.2203
 8535TIP3    H225570   1.089   5.412   4.175  0.4921 -0.1693 -0.0530
 8536TIP3   OH225571   5.011   3.602   1.623 -0.5594  0.3247 -0.2533
 8536TIP3    H125572   4.985   3.657   1.696 -1.0350  1.0915 -0.9763
 8536TIP3    H225573   4.952   3.628   1.551  0.7344  0.5203 -1.2819
 8537TIP3   OH225574   3.293   4.404   3.408 -0.2212 -0.7362 -0.4105
 8537TIP3    H125575   3.202   4.412   3.380 -0.4661  0.8527  0.6784
 8537TIP3    H225576   3.315   4.313   3.392 -1.8231 -1.0231 -1.2210
 8538TIP3   OH225577   0.129   0.203   0.181 -0.0157  0.5144 -0.1653
 8538TIP3    H125578   0.053   0.259   0.195 -1.9793 -1.9872  0.0930
 8538TIP3    H225579   0.101   0.143   0.111  1.4517 -0.9105  0.4072
 8539TIP3   OH225580   5.510   3.269   3.354 -0.6607 -0.3207  0.7475
 8539TIP3    H125581   5.485   3.201   3.417 -1.9142 -1.7319 -1.1667
 8539TIP3    H225582   5.561   3.222   3.287 -0.9158  0.7643 -0.2432
 8540TIP3   OH225583   6.657   4.806   2.067  0.3849 -0.1098 -0.1626
 8540TIP3    H125584   6.583   4.770   2.115  1.0071 -0.6363  0.4232
 8540TIP3    H225585   6.657   4.899   2.090  0.1188 -0.1776  0.1187
 8541TIP3   OH225586   3.555   4.556   5.541  0.3533 -0.4056  0.2149
 8541TIP3    H125587   3.469   4.534   5.576  0.0257  1.0336  0.3451
 8541TIP3    H225588   3.617   4.523   5.607 -0.1896  0.6227  1.2660
 8542TIP3   OH225589   3.462   4.948   0.098  0.7813 -0.0985  0.3122
 8542TIP3    H125590   3.506   4.999   0.030 -0.7587 -0.5851 -1.1121
 8542TIP3    H225591   3.488   4.991   0.180  2.2359  0.8551 -0.5893
 8543TIP3   OH225592   1.910   4.823   0.707 -0.0266  0.0153  0.3205
 8543TIP3    H125593   1.954   4.748   0.668 -0.5004 -0.4275  0.6211
 8543TIP3    H225594   1.879   4.874   0.631  0.5557  0.0684  0.1163
 8544TIP3   OH225595   0.676   0.013   4.510  0.0022  0.5386 -0.4643
 8544TIP3    H125596   0.748   0.076   4.512  0.9121 -0.4659  1.5939
 8544TIP3    H225597   0.660  -0.008   4.602 -0.5791 -1.8604 -1.0457
 8545TIP3   OH225598   1.975   6.258   5.707  0.1713 -0.2840  0.0306
 8545TIP3    H125599   2.019   6.332   5.665  0.2514  0.3781  1.2287
 8545TIP3    H225600   2.027   6.182   5.682  1.6883  0.4046  0.9002
 8546TIP3   OH225601   0.433   1.933   2.969 -0.2550  0.4605 -0.0530
 8546TIP3    H125602   0.425   2.022   2.936 -0.1498  0.3522 -0.3783
 8546TIP3    H225603   0.527   1.923   2.989  0.1394 -0.2543 -2.0144
 8547TIP3   OH225604   3.704   3.663   0.304  0.2748 -0.1293 -0.1362
 8547TIP3    H125605   3.776   3.714   0.268  0.8805 -0.8916 -0.0485
 8547TIP3    H225606   3.738   3.573   0.307 -0.5415 -0.4356  0.2712
 8548TIP3   OH225607   0.657   2.944   4.065 -0.1525 -0.5213 -0.0836
 8548TIP3    H125608   0.657   2.975   3.974 -1.2061  1.8336  0.6587
 8548TIP3    H225609   0.595   2.871   4.065 -1.0966  0.2496 -1.0333
 8549TIP3   OH225610   3.943   5.802   0.096  0.1636 -0.0187 -0.2033
 8549TIP3    H125611   4.009   5.758   0.042  1.1486 -0.1956  1.1247
 8549TIP3    H225612   3.934   5.889   0.056  2.4189  0.6221  0.5539
 8550TIP3   OH225613   6.005   2.394   3.985 -0.1664  0.1347 -0.5498
 8550TIP3    H125614   6.053   2.385   3.903  0.0133  0.7044 -0.5113
 8550TIP3    H225615   5.965   2.308   3.999  0.1939 -0.1092 -0.9864
 8551TIP3   OH225616   5.910   3.929   0.835  0.2154  0.2759 -0.1206
 8551TIP3    H125617   5.902   3.993   0.905 -0.3424  1.0384 -0.8533
 8551TIP3    H225618   5.827   3.881   0.837  1.0382 -1.1843  1.1083
 8552TIP3   OH225619   4.604   3.516   4.514  0.6044  0.4099 -0.9574
 8552TIP3    H125620   4.576   3.449   4.452  0.0019 -1.1813  0.9315
 8552TIP3    H225621   4.523   3.557   4.543  0.6097 -0.7054  0.7331
 8553TIP3   OH225622   1.019   2.374   2.065 -0.5842  0.3057 -0.0306
 8553TIP3    H125623   0.956   2.377   1.993  1.0090 -2.1274 -1.6952
 8553TIP3    H225624   0.992   2.298   2.117  0.3686 -0.1604 -0.1953
 8554TIP3   OH225625   2.157   5.366   5.307 -0.0234  0.0995  0.0876
 8554TIP3    H125626   2.193   5.350   5.394 -0.1882  0.8871  0.3136
 8554TIP3    H225627   2.214   5.433   5.270  0.1372 -0.3474 -0.4714
 8555TIP3   OH225628   5.921   0.213   4.046  0.4405  0.3599  0.2956
 8555TIP3    H125629   5.940   0.235   4.138  2.4001 -1.6556  0.4461
 8555TIP3    H225630   6.006   0.213   4.003 -0.3043 -0.0189 -1.2414
 8556TIP3   OH225631   1.104   4.166   0.713 -0.6211 -0.1683  0.1305
 8556TIP3    H125632   1.024   4.116   0.699 -0.6368 -0.0787 -0.0953
 8556TIP3    H225633   1.115   4.217   0.633 -1.3446  1.2210  0.8915
 8557TIP3   OH225634   3.168   5.500   5.388  0.6801 -0.6571  0.1422
 8557TIP3    H125635   3.116   5.488   5.308 -1.0810 -0.0343  1.1302
 8557TIP3    H225636   3.247   5.545   5.359  1.2762 -2.6662 -1.6001
 8558TIP3   OH225637   2.873   6.689   1.540 -0.3729 -0.0713  0.2750
 8558TIP3    H125638   2.901   6.667   1.629  0.2328 -0.5490 -0.0298
 8558TIP3    H225639   2.786   6.729   1.551  0.8502  2.5419  1.3582
 8559TIP3   OH225640   6.768   2.214   3.828 -0.3282 -0.6713 -0.2921
 8559TIP3    H125641   6.818   2.258   3.759  0.0669 -1.3055 -0.4293
 8559TIP3    H225642   6.833   2.196   3.896 -0.8811  0.6671  0.6112
 8560TIP3   OH225643   4.569   2.095   5.169 -0.3501  0.6272  0.2618
 8560TIP3    H125644   4.584   2.035   5.097 -0.3121 -1.3198  1.8166
 8560TIP3    H225645   4.654   2.139   5.181  0.5257 -1.1325  0.8998
 8561TIP3   OH225646   2.482   4.358   5.534 -0.4936 -0.2092 -0.1453
 8561TIP3    H125647   2.446   4.424   5.594 -0.4148 -0.7153  0.4735
 8561TIP3    H225648   2.575   4.356   5.554 -0.7704 -1.8965  1.2635
 8562TIP3   OH225649   0.482   4.139   0.868  0.3369  0.5723 -0.4973
 8562TIP3    H125650   0.428   4.087   0.808 -0.0392  0.1248  0.2064
 8562TIP3    H225651   0.556   4.167   0.816  0.7660 -1.0210 -0.8114
 8563TIP3   OH225652   0.695   6.710   4.588  0.0462  0.2733 -0.6718
 8563TIP3    H125653   0.656   6.751   4.666  0.6702 -4.0529  2.2236
 8563TIP3    H225654   0.758   6.775   4.556  0.0323  2.1280  2.6391
 8564TIP3   OH225655   2.807   4.184   3.263  0.6685  0.0170 -0.0178
 8564TIP3    H125656   2.735   4.185   3.326  1.2326 -0.8306  0.6527
 8564TIP3    H225657   2.766   4.209   3.180 -0.2741  0.1498  0.4730
 8565TIP3   OH225658   3.652   3.745   4.701  0.4839 -0.0379  0.1354
 8565TIP3    H125659   3.600   3.816   4.738 -1.0851 -0.4074 -1.2223
 8565TIP3    H225660   3.676   3.691   4.776 -1.3310  0.0352  0.8269
 8566TIP3   OH225661   5.182   5.920   4.531 -0.5596  0.6301 -0.7189
 8566TIP3    H125662   5.254   5.905   4.592 -1.1391 -0.8611 -0.3375
 8566TIP3    H225663   5.220   5.907   4.445 -0.8184 -2.7759 -0.4591
 8567TIP3   OH225664   7.044   2.134   0.274 -0.2723 -0.1279 -0.0197
 8567TIP3    H125665   7.008   2.052   0.309 -2.9021  1.0446  0.2626
 8567TIP3    H225666   7.073   2.182   0.352  1.5585 -0.8682 -0.2094
 8568TIP3   OH225667   1.956   4.508   4.159 -0.1741 -0.8977  0.1229
 8568TIP3    H125668   1.992   4.517   4.071  0.0574 -1.1451  0.1895
 8568TIP3    H225669   1.901   4.430   4.155  1.1141 -1.8670  0.6007
 8569TIP3   OH225670   6.205   4.674   1.235  0.3872  0.7001  0.2002
 8569TIP3    H125671   6.288   4.628   1.252 -1.0945 -1.6393  1.5816
 8569TIP3    H225672   6.207   4.750   1.293  0.7406 -0.4504  1.7547
 8570TIP3   OH225673   3.325   6.735   2.779 -0.6139 -0.0691 -0.3103
 8570TIP3    H125674   3.292   6.689   2.702 -1.9967 -0.7269  0.6419
 8570TIP3    H225675   3.254   6.792   2.807  0.1095  0.6639  0.0973
 8571TIP3   OH225676   3.112   4.100   0.559 -0.0446  0.0990 -0.0877
 8571TIP3    H125677   3.162   4.019   0.562  0.5020  0.4179 -0.3633
 8571TIP3    H225678   3.126   4.133   0.471  0.4135  0.9029  0.2695
 8572TIP3   OH225679   6.130   3.372   1.431  0.1929 -0.4858 -0.6403
 8572TIP3    H125680   6.097   3.451   1.475 -0.1249  0.0971 -1.8872
 8572TIP3    H225681   6.129   3.305   1.499 -1.2227  0.1391  0.0013
 8573TIP3   OH225682   3.531   2.702   3.642 -0.2583 -0.2564  0.2427
 8573TIP3    H125683   3.461   2.641   3.669 -0.8501  1.4008  2.8185
 8573TIP3    H225684   3.485   2.771   3.594 -0.1637  0.0433  0.5806
 8574TIP3   OH225685   6.532   3.875   3.314  0.0750 -0.1721  0.4174
 8574TIP3    H125686   6.529   3.970   3.324 -0.8736  0.1243 -1.9422
 8574TIP3    H225687   6.446   3.845   3.346  0.2353 -0.2084  0.8216
 8575TIP3   OH225688   2.764   2.048   2.728  0.3358 -0.0745  0.0421
 8575TIP3    H125689   2.724   2.112   2.669 -2.2822 -1.3956  0.2623
 8575TIP3    H225690   2.775   2.095   2.810 -1.0258  0.2838  0.0376
 8576TIP3   OH225691   5.380   4.025   2.508  0.4969  1.0656 -0.0835
 8576TIP3    H125692   5.427   3.976   2.440 -2.2658 -2.2714  0.1523
 8576TIP3    H225693   5.292   4.035   2.474 -0.5632  0.6497  2.3253
 8577TIP3   OH225694   3.286   5.999   0.472  0.3178 -0.3901  0.2788
 8577TIP3    H125695   3.222   5.935   0.441 -0.4799  0.7390 -0.4545
 8577TIP3    H225696   3.353   5.946   0.515  0.5017 -1.8993 -1.6947
 8578TIP3   OH225697   0.732   1.060   5.378  0.4610 -0.1344  0.4033
 8578TIP3    H125698   0.642   1.070   5.409  0.6770  0.8146  0.7524
 8578TIP3    H225699   0.773   1.003   5.443  0.0716 -0.7153  0.1494
 8579TIP3   OH225700   2.532   2.550   2.369  0.7478  0.4394  0.0463
 8579TIP3    H125701   2.516   2.592   2.285  2.1770 -1.7745 -1.4309
 8579TIP3    H225702   2.530   2.456   2.349 -1.2325 -0.2785  2.9535
 8580TIP3   OH225703   1.287   1.014   3.318 -0.1373  0.4802  0.2428
 8580TIP3    H125704   1.368   1.023   3.366 -0.4158  2.1111  0.4476
 8580TIP3    H225705   1.272   1.099   3.277 -1.0333 -0.1949 -0.9454
 8581TIP3   OH225706   3.191   1.516   4.479  0.3063 -0.1288 -0.1027
 8581TIP3    H125707   3.194   1.584   4.412 -1.7905 -0.1887 -0.3532
 8581TIP3    H225708   3.229   1.556   4.557  1.0011  0.6091 -0.8140
 8582TIP3   OH225709   2.540   6.076   1.927 -0.0039  0.3338  0.3989
 8582TIP3    H125710   2.551   6.167   1.955  0.0262 -0.6250  4.0166
 8582TIP3    H225711   2.450   6.073   1.894 -0.8905  1.2400  2.5334
 8583TIP3   OH225712   2.153   5.544   0.322 -0.0920  0.5822 -0.1767
 8583TIP3    H125713   2.076   5.570   0.272  0.0723  2.1636  0.3320
 8583TIP3    H225714   2.130   5.562   0.413  0.9811  1.4210 -0.0479
 8584TIP3   OH225715   2.845   0.146   5.901  0.1161  0.5539 -0.1346
 8584TIP3    H125716   2.908   0.097   5.954  0.4250  2.1778  1.0892
 8584TIP3    H225717   2.871   0.129   5.811  1.2008 -0.2128  0.3034
 8585TIP3   OH225718   4.582   6.614   3.631 -0.6654 -0.1639  0.0321
 8585TIP3    H125719   4.590   6.692   3.686 -0.9884  1.4480 -2.0699
 8585TIP3    H225720   4.647   6.553   3.665  0.1880  1.3579  1.2280
 8586TIP3   OH225721   3.548   1.470   1.913 -0.0671  0.2149  0.1778
 8586TIP3    H125722   3.545   1.375   1.925  1.1824  0.2108  0.5801
 8586TIP3    H225723   3.641   1.490   1.900 -0.4900  1.1834 -1.6845
 8587TIP3   OH225724   4.114   6.387   1.636  0.3013 -0.1761 -0.1691
 8587TIP3    H125725   4.056   6.427   1.701  0.6056 -0.9618  0.6111
 8587TIP3    H225726   4.101   6.293   1.647  0.6735 -0.3351 -0.9734
 8588TIP3   OH225727   2.071   1.276   1.031  0.3427  0.1852  0.1980
 8588TIP3    H125728   2.114   1.284   0.945  0.4295 -1.6913  0.0159
 8588TIP3    H225729   2.144   1.274   1.093  0.7242 -3.5186 -0.1511
 8589TIP3   OH225730   2.326   6.086   4.389 -0.2638 -0.1490  0.1062
 8589TIP3    H125731   2.321   6.074   4.484 -1.9606  0.3999  0.1315
 8589TIP3    H225732   2.327   5.997   4.353 -0.5716 -0.3689  0.6288
 8590TIP3   OH225733   2.503   4.503   3.087 -0.1379  0.7014 -0.7234
 8590TIP3    H125734   2.534   4.477   3.174  0.4406  0.1260 -1.0878
 8590TIP3    H225735   2.491   4.598   3.094 -1.0625  0.5283  0.2671
 8591TIP3   OH225736   5.881   2.168   5.360 -0.3750  0.4699  0.3420
 8591TIP3    H125737   5.866   2.088   5.411  0.4218 -0.1019 -0.2826
 8591TIP3    H225738   5.795   2.190   5.325 -0.5696 -0.2405  0.3496
 8592TIP3   OH225739   0.777   4.209   1.509  0.1698  0.5583 -0.2224
 8592TIP3    H125740   0.740   4.130   1.469  1.2104  0.9411 -2.0493
 8592TIP3    H225741   0.701   4.267   1.520 -0.3502 -0.0678 -0.4355
 8593TIP3   OH225742   5.462   0.731   5.240  0.1497 -0.0041 -0.1743
 8593TIP3    H125743   5.447   0.771   5.325  0.7857  1.0512 -0.5460
 8593TIP3    H225744   5.545   0.766   5.210 -0.8813  1.0616 -2.0181
 8594TIP3   OH225745   4.396   6.410   5.870  0.1998 -0.3884  0.2777
 8594TIP3    H125746   4.420   6.477   5.805 -1.5805 -0.5333 -0.6043
 8594TIP3    H225747   4.347   6.458   5.937  0.5494 -0.5208  0.6334
 8595TIP3   OH225748   0.717   2.682  -0.019 -0.6030 -0.0915 -0.5683
 8595TIP3    H125749   0.632   2.653  -0.051 -0.3578 -2.7354  0.8650
 8595TIP3    H225750   0.702   2.709   0.072 -0.5152  3.1324 -1.3995
 8596TIP3   OH225751   1.841   2.300   3.867  0.0439 -0.1433 -0.0450
 8596TIP3    H125752   1.828   2.383   3.913 -0.3038 -0.4921  0.4998
 8596TIP3    H225753   1.788   2.308   3.788 -0.3608 -0.0299  0.2358
 8597TIP3   OH225754   4.609   1.951   1.407  0.4428 -0.3316 -0.4749
 8597TIP3    H125755   4.580   2.015   1.473 -0.4048 -1.3950  0.2178
 8597TIP3    H225756   4.619   1.869   1.456  0.2649 -1.0289 -1.5761
 8598TIP3   OH225757   2.703   5.451   3.639 -0.0657 -0.2236  0.1103
 8598TIP3    H125758   2.691   5.429   3.547  0.9460 -0.7716  0.0993
 8598TIP3    H225759   2.738   5.540   3.639 -1.5160  0.3780  0.0454
 8599TIP3   OH225760   6.551   3.384   3.416 -0.5398 -0.0575  0.4658
 8599TIP3    H125761   6.524   3.293   3.423 -1.3303 -0.0122 -1.5547
 8599TIP3    H225762   6.486   3.425   3.360  1.1078  1.1823 -0.6358
 8600TIP3   OH225763   4.589   1.761   1.636  0.4042  0.0893  0.2316
 8600TIP3    H125764   4.626   1.756   1.725  0.4920 -1.8578  0.1221
 8600TIP3    H225765   4.613   1.678   1.595 -0.5524  0.5147 -1.2672
 8601TIP3   OH225766   0.792   5.259   3.125 -0.1341 -0.6711 -0.0975
 8601TIP3    H125767   0.760   5.347   3.103 -0.5396 -1.1074 -1.3008
 8601TIP3    H225768   0.859   5.275   3.192  0.6450  0.6569 -1.1456
 8602TIP3   OH225769   4.112   3.184   2.868 -0.1124  0.8311  0.1580
 8602TIP3    H125770   4.205   3.181   2.889 -0.0395 -0.0524 -0.2488
 8602TIP3    H225771   4.100   3.267   2.822  0.4604  0.9630  0.2449
 8603TIP3   OH225772   0.721   6.161   5.880 -0.0526 -0.0815  1.1653
 8603TIP3    H125773   0.686   6.249   5.869 -2.1199 -1.0357 -0.6123
 8603TIP3    H225774   0.644   6.104   5.880  1.2611 -1.9597  1.4383
 8604TIP3   OH225775   7.020   2.437   4.258  0.2394  0.2487 -0.1711
 8604TIP3    H125776   7.032   2.345   4.235  0.9008  0.4421 -0.6338
 8604TIP3    H225777   7.030   2.484   4.176 -0.4543  0.7156 -0.0004
 8605TIP3   OH225778   4.452   2.089   1.610 -0.2377 -0.2697  0.4550
 8605TIP3    H125779   4.463   2.184   1.609  1.4197 -0.4031  1.4620
 8605TIP3    H225780   4.516   2.059   1.675 -1.8283 -1.9397  1.3197
 8606TIP3   OH225781   3.846   5.420   2.995  0.0023 -0.0249 -0.5540
 8606TIP3    H125782   3.852   5.353   2.926  1.0798  1.4830 -2.0162
 8606TIP3    H225783   3.914   5.483   2.973  0.1446  0.7175  1.7440
 8607TIP3   OH225784   0.310   6.423   3.074 -0.5262 -0.7331 -0.2875
 8607TIP3    H125785   0.272   6.385   2.995 -1.0994  2.4896 -1.7213
 8607TIP3    H225786   0.405   6.412   3.063 -0.3510  2.1365 -3.0048
 8608TIP3   OH225787   5.024   3.257   4.803 -0.5743 -0.0543 -0.4670
 8608TIP3    H125788   5.119   3.270   4.803 -0.2780 -1.0427  3.2252
 8608TIP3    H225789   4.990   3.335   4.847 -1.2596 -0.5881 -0.0419
 8609TIP3   OH225790   0.158   3.759   2.091  0.0960 -0.1217  0.6777
 8609TIP3    H125791   0.147   3.664   2.097 -0.4997 -0.1837 -0.9458
 8609TIP3    H225792   0.200   3.783   2.174 -0.2271 -1.7181  1.3520
 8610TIP3   OH225793   4.078   0.214   1.236  0.6086  0.4456 -0.0177
 8610TIP3    H125794   4.137   0.148   1.273 -0.1005 -0.1905 -0.0110
 8610TIP3    H225795   4.005   0.164   1.200 -0.9131  1.2954  1.7195
 8611TIP3   OH225796   1.619   1.002   1.355  0.2934 -0.1625 -0.1620
 8611TIP3    H125797   1.692   0.941   1.366  1.0533  0.7659  0.0633
 8611TIP3    H225798   1.658   1.089   1.367 -0.6691  0.4022 -0.9977
 8612TIP3   OH225799   1.062   4.284   3.765  0.6363  0.4546  0.0109
 8612TIP3    H125800   1.106   4.260   3.847 -0.2998  0.0611  0.4146
 8612TIP3    H225801   0.989   4.338   3.793  0.2033  0.1655 -0.5550
 8613TIP3   OH225802   5.561   3.363   1.546 -0.2219  0.4955  0.4117
 8613TIP3    H125803   5.492   3.411   1.500 -1.5624 -1.9522 -0.2936
 8613TIP3    H225804   5.579   3.416   1.624 -0.9207  2.5759 -0.7585
 8614TIP3   OH225805   4.789   2.068   5.657  0.4269  0.6775 -0.1398
 8614TIP3    H125806   4.731   2.009   5.608  0.6390 -0.4534  0.9256
 8614TIP3    H225807   4.833   2.119   5.589 -0.0718 -0.0866 -1.0783
 8615TIP3   OH225808   5.665   6.382   2.991  0.5868 -0.2073 -0.0916
 8615TIP3    H125809   5.633   6.453   2.936  1.4357 -1.1747 -1.9437
 8615TIP3    H225810   5.589   6.325   3.004 -0.0978  0.9882  1.4096
 8616TIP3   OH225811   4.991   3.945   0.582  0.0547  0.1395 -0.5780
 8616TIP3    H125812   5.015   3.990   0.501 -1.2311 -0.1092 -1.1217
 8616TIP3    H225813   4.909   3.986   0.610 -2.5318 -3.2268 -2.3611
 8617TIP3   OH225814   1.317   1.409   2.931  0.0105  0.3346 -0.2238
 8617TIP3    H125815   1.259   1.408   2.855  0.2075  2.0710 -0.4429
 8617TIP3    H225816   1.262   1.440   3.003  0.2112  0.2143 -0.0148
 8618TIP3   OH225817   2.082   5.010   1.675 -0.4023 -0.0678  0.0236
 8618TIP3    H125818   2.091   5.005   1.580 -2.0870 -0.4883 -0.1565
 8618TIP3    H225819   2.082   4.919   1.704  0.8359  0.0772  0.5391
 8619TIP3   OH225820   3.591   1.217   3.502  0.4756  0.0159  0.3556
 8619TIP3    H125821   3.596   1.122   3.492 -1.0410 -0.1364  0.7650
 8619TIP3    H225822   3.502   1.240   3.474  0.6719  1.2557  0.6579
 8620TIP3   OH225823   2.239   0.278   1.233  0.1636 -0.2453 -0.2781
 8620TIP3    H125824   2.192   0.200   1.262 -1.5175  0.6022 -0.6359
 8620TIP3    H225825   2.310   0.244   1.178 -0.1088 -1.5399  0.1397
 8621TIP3   OH225826   5.147   6.000   2.286 -0.1117  0.2657  0.4475
 8621TIP3    H125827   5.096   6.081   2.281  0.7366  0.8155  0.5091
 8621TIP3    H225828   5.108   5.943   2.219 -0.4316  0.8885  0.0993
 8622TIP3   OH225829   0.229   1.289   0.759  0.1981  0.3897 -0.5275
 8622TIP3    H125830   0.200   1.288   0.851 -0.3908  0.0626 -0.7108
 8622TIP3    H225831   0.161   1.240   0.712  0.6346  0.3210 -1.0990
 8623TIP3   OH225832   6.600   3.223   3.834 -0.1454 -0.7768  0.6070
 8623TIP3    H125833   6.574   3.131   3.825 -0.4214 -0.4852 -3.0988
 8623TIP3    H225834   6.688   3.227   3.797 -0.1896  0.4782  0.6061
 8624TIP3   OH225835   1.268   5.325   3.504  0.7336  0.3939 -0.7284
 8624TIP3    H125836   1.259   5.266   3.429 -2.8738 -0.5683  0.2429
 8624TIP3    H225837   1.286   5.266   3.578 -0.1214  0.8154 -0.1764
 8625TIP3   OH225838   2.798   5.688   5.158 -0.0791 -0.2458 -0.0646
 8625TIP3    H125839   2.719   5.702   5.105 -0.4240  0.6657  0.6457
 8625TIP3    H225840   2.839   5.775   5.162  0.0909 -0.3631  0.9053
 8626TIP3   OH225841   0.736   2.871   1.540  0.0094 -0.2092 -0.3876
 8626TIP3    H125842   0.708   2.780   1.543 -0.4108 -0.0752 -0.1669
 8626TIP3    H225843   0.672   2.918   1.595 -0.1067  0.2995 -0.9472
 8627TIP3   OH225844   5.729   2.146   1.489 -0.2207 -0.3763 -0.2988
 8627TIP3    H125845   5.659   2.191   1.536  0.1955  0.6232 -0.6033
 8627TIP3    H225846   5.684   2.090   1.426 -0.7551  0.5663 -0.7774
 8628TIP3   OH225847   3.802   0.424   1.141 -0.5535  0.1698 -0.1164
 8628TIP3    H125848   3.779   0.334   1.119 -1.5777 -0.1708  2.1006
 8628TIP3    H225849   3.897   0.422   1.156 -0.6386 -0.6623  0.3760
 8629TIP3   OH225850   5.478   5.617   1.645 -0.1048 -0.0149  0.2130
 8629TIP3    H125851   5.460   5.543   1.703 -0.1132  0.8322  1.3182
 8629TIP3    H225852   5.563   5.596   1.606  1.1057  0.4872  2.4027
 8630TIP3   OH225853   6.206   1.468   2.498  0.4277 -0.3832  0.0235
 8630TIP3    H125854   6.225   1.506   2.584  0.1392  0.2174 -0.1702
 8630TIP3    H225855   6.113   1.446   2.502  0.1737  0.5512 -0.4631
 8631TIP3   OH225856   2.362   0.954   5.090 -0.2429 -0.2388  0.3173
 8631TIP3    H125857   2.398   0.951   5.179  1.4588 -0.4046 -0.3586
 8631TIP3    H225858   2.365   1.047   5.066 -0.1200 -0.2749  0.1953
 8632TIP3   OH225859   4.290   5.392   2.926  0.8210 -0.3938 -0.3219
 8632TIP3    H125860   4.276   5.462   2.862 -2.3943  0.9597  1.6053
 8632TIP3    H225861   4.205   5.348   2.932  1.4790 -1.5099  1.7648
 8633TIP3   OH225862   5.613   2.728   3.860  0.4127 -0.0297 -0.0270
 8633TIP3    H125863   5.561   2.690   3.931  0.6819  2.0962  1.3866
 8633TIP3    H225864   5.683   2.664   3.845 -0.1790 -0.9450  0.9607
 8634TIP3   OH225865   6.719   0.603   3.759  0.0236 -0.7427 -0.3754
 8634TIP3    H125866   6.758   0.619   3.673  1.7148  0.9385  0.6181
 8634TIP3    H225867   6.778   0.540   3.800  0.4567  0.0904  0.3088
 8635TIP3   OH225868   6.898   3.677   0.140 -0.5231 -0.6996  0.3344
 8635TIP3    H125869   6.889   3.697   0.047  0.0777  0.0471  0.4261
 8635TIP3    H225870   6.815   3.636   0.164 -0.3386 -1.7257 -0.7297
 8636TIP3   OH225871   2.773   2.381   5.800 -0.0494  0.4090  0.3260
 8636TIP3    H125872   2.855   2.403   5.756 -0.2510  2.7077  1.0088
 8636TIP3    H225873   2.709   2.442   5.764 -0.2895  2.2552  3.4976
 8637TIP3   OH225874   2.176   5.561   3.263 -0.0968  0.1692 -0.8981
 8637TIP3    H125875   2.154   5.613   3.340  0.8121 -0.8687  0.0959
 8637TIP3    H225876   2.272   5.567   3.257 -0.1677  0.3955 -2.0834
 8638TIP3   OH225877   4.354   6.560   4.826 -0.4085 -0.2527  0.5666
 8638TIP3    H125878   4.260   6.571   4.842 -0.4004  0.5065  0.1343
 8638TIP3    H225879   4.358   6.511   4.744 -0.4437  0.8947 -0.1514
 8639TIP3   OH225880   1.456   3.322   5.080  0.2848  0.2598 -0.1122
 8639TIP3    H125881   1.510   3.362   5.149  0.4063  0.6124 -0.4123
 8639TIP3    H225882   1.367   3.327   5.114  0.3562  0.3223  0.0709
 8640TIP3   OH225883   0.385   5.266   3.605 -0.0816 -0.0606  0.1407
 8640TIP3    H125884   0.431   5.334   3.555 -0.9681 -1.3609 -2.5819
 8640TIP3    H225885   0.366   5.198   3.542 -1.6369 -1.6801  2.2156
 8641TIP3   OH225886   0.513   0.480   2.059  0.0230  0.3740  0.0617
 8641TIP3    H125887   0.532   0.476   1.965  0.0857  1.4931  0.0173
 8641TIP3    H225888   0.458   0.403   2.075  0.1298  0.0935 -0.8672
 8642TIP3   OH225889   4.700   6.489   5.138  0.5572  0.3838  0.0962
 8642TIP3    H125890   4.665   6.524   5.056  0.0816  0.3929  0.3021
 8642TIP3    H225891   4.737   6.565   5.182  0.1840  0.5040  0.2076
 8643TIP3   OH225892   0.108   6.351   1.206  0.4205 -0.1390 -0.0250
 8643TIP3    H125893   0.029   6.391   1.167 -0.2563  0.6417  2.0115
 8643TIP3    H225894   0.150   6.423   1.253  1.5891 -0.8759  0.0911
 8644TIP3   OH225895   4.822   0.685   1.965  0.0966 -0.7700 -0.6583
 8644TIP3    H125896   4.784   0.598   1.953  1.6070 -1.5022 -0.4444
 8644TIP3    H225897   4.890   0.691   1.898  1.3131 -0.5668  0.5250
 8645TIP3   OH225898   2.902   4.189   4.935  0.2999  0.1992 -0.0700
 8645TIP3    H125899   2.965   4.226   4.872  0.8662  0.4069  0.5997
 8645TIP3    H225900   2.957   4.147   5.002 -0.2880  0.0644  0.3373
 8646TIP3   OH225901   7.070   0.406   1.183  0.5198 -0.1195 -0.1660
 8646TIP3    H125902   7.014   0.383   1.257 -1.0944 -0.0736 -1.3214
 8646TIP3    H225903   7.016   0.464   1.129  1.6134 -0.2151 -1.4155
 8647TIP3   OH225904   2.944   0.171   3.151 -0.3860  0.3899  0.1807
 8647TIP3    H125905   2.998   0.114   3.206  1.0219 -0.6198 -2.1308
 8647TIP3    H225906   2.997   0.250   3.138 -1.9374  1.9608  2.5785
 8648TIP3   OH225907   6.201   5.265   5.395 -0.6661  0.0650 -0.3628
 8648TIP3    H125908   6.194   5.241   5.303 -1.6535  0.5090 -0.4187
 8648TIP3    H225909   6.250   5.347   5.395 -2.7709  1.3936 -0.7417
 8649TIP3   OH225910   3.353   4.845   3.438  0.0394  0.2811 -0.8324
 8649TIP3    H125911   3.410   4.781   3.481  1.6116  0.9096 -1.8542
 8649TIP3    H225912   3.334   4.909   3.506  0.6149  0.0841 -0.4699
 8650TIP3   OH225913   0.738   2.958   0.284 -0.4466 -0.5023 -0.8897
 8650TIP3    H125914   0.828   2.988   0.268 -0.2173 -1.0589 -0.6502
 8650TIP3    H225915   0.687   2.995   0.212 -0.0733  0.0293 -0.8853
 8651TIP3   OH225916   0.729   2.785   3.307  0.4880  0.1881 -0.0332
 8651TIP3    H125917   0.712   2.878   3.326 -1.5485  0.2706 -1.7822
 8651TIP3    H225918   0.667   2.738   3.363  1.1111 -0.0870  0.4267
 8652TIP3   OH225919   0.313   3.387   4.241 -0.4848  0.0196 -0.4214
 8652TIP3    H125920   0.286   3.309   4.289 -0.1604 -0.2607 -0.6854
 8652TIP3    H225921   0.291   3.368   4.149 -1.3385  0.6545 -0.3636
 8653TIP3   OH225922   4.670   1.584   2.510  0.0741 -0.5934  0.3633
 8653TIP3    H125923   4.684   1.674   2.480  1.7243 -1.0719 -0.4497
 8653TIP3    H225924   4.723   1.531   2.451  2.1126 -1.7715  3.0348
 8654TIP3   OH225925   5.045   3.980   1.833  0.0485 -0.2895  0.0137
 8654TIP3    H125926   4.964   4.016   1.797 -1.0309 -1.6354  1.0302
 8654TIP3    H225927   5.051   4.018   1.921  1.2943  0.9131 -0.5533
 8655TIP3   OH225928   4.446   6.384   2.410  0.0342  0.0167  0.5582
 8655TIP3    H125929   4.452   6.478   2.393  1.6157 -0.0826  0.4269
 8655TIP3    H225930   4.489   6.372   2.495  0.3145 -0.6510  0.3290
 8656TIP3   OH225931   6.252   1.684   3.506 -0.3008 -0.1192  0.2443
 8656TIP3    H125932   6.239   1.692   3.600 -0.4307  1.9447  0.0978
 8656TIP3    H225933   6.329   1.737   3.487  0.9407 -2.1081 -0.5956
 8657TIP3   OH225934   4.183   4.965   1.850  0.2320  0.2299 -0.0121
 8657TIP3    H125935   4.247   4.986   1.782  1.0579  0.0320  0.6899
 8657TIP3    H225936   4.103   5.010   1.822  1.2486  2.2629  0.1731
 8658TIP3   OH225937   1.630   0.613   5.779  0.9464  0.5002  0.4641
 8658TIP3    H125938   1.643   0.532   5.828 -1.1100  0.0754  0.3936
 8658TIP3    H225939   1.586   0.586   5.698  0.2506  1.6529  0.4290
 8659TIP3   OH225940   3.896   5.817   2.697  0.0548  0.1133  0.4226
 8659TIP3    H125941   3.865   5.779   2.779 -0.7371  2.3722  1.2745
 8659TIP3    H225942   3.816   5.842   2.651  0.4485  2.4630  0.8509
 8660TIP3   OH225943   0.649   3.405   1.748  0.4173 -0.1776 -0.4644
 8660TIP3    H125944   0.641   3.422   1.842  0.6960  0.2431 -0.5152
 8660TIP3    H225945   0.737   3.367   1.739  0.7783  0.7009 -0.6844
 8661TIP3   OH225946   5.735   4.976   4.641 -0.0443  0.5961  0.3147
 8661TIP3    H125947   5.719   4.978   4.547 -0.3433  0.7978  0.3709
 8661TIP3    H225948   5.798   5.048   4.655 -1.1873  1.5980  0.4904
 8662TIP3   OH225949   5.941   0.911   1.378  0.2457  0.0541  0.1919
 8662TIP3    H125950   6.015   0.853   1.397 -0.7527 -0.9732  1.1567
 8662TIP3    H225951   5.879   0.855   1.332 -0.8191  0.2666  1.3082
 8663TIP3   OH225952   1.729   5.226   2.046 -0.3278 -0.2234  0.5183
 8663TIP3    H125953   1.780   5.196   1.970  0.4892  1.0448  0.5424
 8663TIP3    H225954   1.793   5.235   2.116 -1.0424 -1.1477  1.3160
 8664TIP3   OH225955   0.967   0.643   0.946 -0.0372 -0.1281 -0.5634
 8664TIP3    H125956   1.046   0.589   0.949 -1.2762 -2.0250  2.3709
 8664TIP3    H225957   0.897   0.582   0.924 -1.4433  0.1691  2.5605
 8665TIP3   OH225958   4.330   2.136   2.885  0.2697 -0.0404  0.0445
 8665TIP3    H125959   4.388   2.206   2.856 -0.8727  1.1421  0.5452
 8665TIP3    H225960   4.304   2.161   2.974 -3.3103  1.0571 -1.1556
 8666TIP3   OH225961   2.531   2.138   4.239 -0.0417  0.0804  0.4602
 8666TIP3    H125962   2.494   2.147   4.151  0.9594  1.2024  0.1170
 8666TIP3    H225963   2.562   2.048   4.244 -0.8037 -0.2157 -0.0506
 8667TIP3   OH225964   0.116   1.091   5.338 -0.3032  0.1854 -0.2804
 8667TIP3    H125965   0.151   1.140   5.263  0.4677  0.1036  0.0130
 8667TIP3    H225966   0.145   1.001   5.323  1.5579  0.4964  1.0645
 8668TIP3   OH225967   5.980   2.411   5.489  0.0186 -0.6547  0.0168
 8668TIP3    H125968   5.979   2.474   5.417  0.2613 -0.9559 -0.2537
 8668TIP3    H225969   5.985   2.326   5.446 -0.8574 -0.8918  0.3620
 8669TIP3   OH225970   7.181   1.151   1.194  0.4563 -0.3805 -0.3027
 8669TIP3    H125971   7.112   1.086   1.205 -0.2303  0.1471 -1.3459
 8669TIP3    H225972   7.166   1.214   1.265 -0.1027 -0.3008 -0.4842
 8670TIP3   OH225973   1.115   4.082   1.037 -0.0788 -0.0716  0.0632
 8670TIP3    H125974   1.106   4.022   0.963  0.6729  0.5981 -0.5954
 8670TIP3    H225975   1.179   4.147   1.008 -1.6537  1.7134  0.3051
 8671TIP3   OH225976   6.822   1.327   3.031 -0.3743  0.1963  0.5273
 8671TIP3    H125977   6.800   1.413   2.995  0.5113 -0.2641 -1.2086
 8671TIP3    H225978   6.900   1.299   2.983 -0.3413 -1.3755  1.4066
 8672TIP3   OH225979   1.445   1.201   0.212 -0.0940 -0.2867  0.0044
 8672TIP3    H125980   1.475   1.232   0.127  0.6764 -0.8020  0.0788
 8672TIP3    H225981   1.351   1.187   0.201  0.0134 -0.4405 -0.7843
 8673TIP3   OH225982   4.133   5.429   4.797  0.6019  0.3265 -0.2205
 8673TIP3    H125983   4.212   5.377   4.810 -0.1809 -1.5022 -2.2613
 8673TIP3    H225984   4.067   5.388   4.853  0.2923 -0.1078 -0.9043
 8674TIP3   OH225985   6.097   6.634   4.778 -0.3037 -0.6958  0.4114
 8674TIP3    H125986   6.150   6.697   4.730  0.4091 -1.8519 -0.3638
 8674TIP3    H225987   6.017   6.625   4.726 -1.0226  0.5771  1.2522
 8675TIP3   OH225988   5.672   4.375   5.769 -0.5599  0.2409 -0.2855
 8675TIP3    H125989   5.612   4.432   5.720 -0.0683  0.5908 -0.4851
 8675TIP3    H225990   5.747   4.363   5.711 -1.1625 -1.5896 -0.7425
 8676TIP3   OH225991   2.575   4.687   1.854  0.6143 -0.1678  0.5149
 8676TIP3    H125992   2.636   4.709   1.924  1.0301 -2.1048  0.8116
 8676TIP3    H225993   2.591   4.594   1.836 -0.7769 -0.1829 -0.8690
 8677TIP3   OH225994   4.699   4.108   5.695 -0.3520 -0.3128  0.0943
 8677TIP3    H125995   4.660   4.083   5.779  0.2188  0.1034  0.4920
 8677TIP3    H225996   4.676   4.201   5.685  1.7992  0.3930  1.0918
 8678TIP3   OH225997   7.179   5.482   1.829 -0.2731  0.4896 -0.5249
 8678TIP3    H125998   7.137   5.498   1.914 -1.7844 -2.6719 -0.5549
 8678TIP3    H225999   7.238   5.408   1.845  0.9449  1.1244 -1.8336
 8679TIP3   OH226000   2.017   3.450   0.642 -0.5098 -0.2635 -0.3523
 8679TIP3    H126001   1.931   3.429   0.605 -0.1294 -0.0406 -1.3979
 8679TIP3    H226002   2.077   3.393   0.595  0.0261  0.2182 -0.2533
 8680TIP3   OH226003   2.379   1.240   4.728  0.2238 -0.5712 -0.6646
 8680TIP3    H126004   2.399   1.314   4.671 -1.1099  0.5482  0.2847
 8680TIP3    H226005   2.333   1.178   4.671 -1.9546  0.9463 -0.6278
 8681TIP3   OH226006   4.363   1.901   0.349 -0.3592  0.2492  0.7809
 8681TIP3    H126007   4.384   1.921   0.440 -3.5860 -2.6455  2.4233
 8681TIP3    H226008   4.268   1.912   0.343 -0.3433 -0.3100 -2.0681
 8682TIP3   OH226009   5.379   0.124   3.226  0.3525 -0.2643  0.7016
 8682TIP3    H126010   5.383   0.052   3.290  1.2068  0.4916  1.5297
 8682TIP3    H226011   5.314   0.095   3.162  0.8298 -1.8765  0.8916
 8683TIP3   OH226012   4.865   0.534   5.348 -0.1525  0.0227  0.4397
 8683TIP3    H126013   4.887   0.446   5.319 -0.8706  0.2453 -0.8463
 8683TIP3    H226014   4.947   0.583   5.338 -0.0189 -0.2519  0.1716
 8684TIP3   OH226015   0.269   2.166   2.210 -0.0198  0.3364 -0.5472
 8684TIP3    H126016   0.341   2.104   2.218 -0.5770 -0.3469 -0.7331
 8684TIP3    H226017   0.242   2.184   2.300 -0.2046 -0.1175 -0.5076
 8685TIP3   OH226018   5.447   5.211   3.177  0.1131 -0.0446  0.2990
 8685TIP3    H126019   5.502   5.239   3.103 -1.9112 -0.5539 -1.5094
 8685TIP3    H226020   5.367   5.264   3.168  0.3287  0.8704  3.0027
 8686TIP3   OH226021   1.586   1.037   4.365 -0.4444  0.0937  0.7463
 8686TIP3    H126022   1.623   1.081   4.442 -0.6649 -0.0281  0.9234
 8686TIP3    H226023   1.573   1.107   4.302 -1.0505  0.3269  1.1275
 8687TIP3   OH226024   6.552   1.834   2.073  0.1401  0.6933  0.0989
 8687TIP3    H126025   6.472   1.879   2.098 -1.1719 -0.4837 -1.7640
 8687TIP3    H226026   6.524   1.764   2.015  2.4124 -0.5613  0.3688
 8688TIP3   OH226027   0.872   4.488   3.179 -0.0389  0.4400 -0.4287
 8688TIP3    H126028   0.806   4.458   3.115  0.3051  0.2455 -0.6947
 8688TIP3    H226029   0.956   4.469   3.137  0.2264 -1.3026  0.8148
 8689TIP3   OH226030   6.211   1.229   4.227 -0.4757  0.3312  0.0744
 8689TIP3    H126031   6.145   1.165   4.254  0.3995 -1.5704 -1.9800
 8689TIP3    H226032   6.179   1.262   4.143  1.2087 -0.7957 -1.0696
 8690TIP3   OH226033   6.870   4.958   5.682  0.1454  0.2900  0.1447
 8690TIP3    H126034   6.964   4.945   5.670  0.7878  0.1886  4.0232
 8690TIP3    H226035   6.858   5.053   5.682  0.8652  0.4394  2.6630
 8691TIP3   OH226036   6.908   3.125   4.068 -0.2055  0.2716  0.4437
 8691TIP3    H126037   6.919   3.218   4.087 -0.1511  0.3391  0.0909
 8691TIP3    H226038   6.986   3.084   4.104  1.3851  0.7587 -2.1421
 8692TIP3   OH226039   2.106   1.245   4.176  0.6151  0.9098  0.1282
 8692TIP3    H126040   2.022   1.199   4.174  1.1516 -0.1515 -2.4776
 8692TIP3    H226041   2.158   1.199   4.241 -0.0444  0.0847  0.0862
 8693TIP3   OH226042   6.228   6.466   1.113  0.2044  0.1809 -0.5334
 8693TIP3    H126043   6.311   6.460   1.066  1.1441 -2.5593  1.2687
 8693TIP3    H226044   6.250   6.444   1.203 -2.5339 -0.9287 -0.0487
 8694TIP3   OH226045   3.589   1.847   2.617  0.0444  0.0713  0.0293
 8694TIP3    H126046   3.622   1.818   2.531  1.5285  1.2526  0.1474
 8694TIP3    H226047   3.613   1.776   2.677 -1.4285 -0.9866 -0.5596
 8695TIP3   OH226048   1.501   1.570   1.703  0.5163  0.3260  0.1347
 8695TIP3    H126049   1.520   1.478   1.717 -1.3859  0.0670  1.4809
 8695TIP3    H226050   1.443   1.571   1.627  1.9459  0.6268 -0.9887
 8696TIP3   OH226051   1.490   3.026   1.754  0.5306  0.0510  0.2282
 8696TIP3    H126052   1.426   3.017   1.683  0.6064  0.6978  0.0686
 8696TIP3    H226053   1.503   3.121   1.762  0.8871 -0.0412  0.7814
 8697TIP3   OH226054   2.094   6.768   5.025  0.9112  0.0723 -0.1663
 8697TIP3    H126055   2.164   6.833   5.034  1.1480 -0.1490 -0.3829
 8697TIP3    H226056   2.043   6.799   4.950 -0.2736  1.1917  1.0591
 8698TIP3   OH226057   0.690   5.354   2.186  0.9178  0.1081 -0.3187
 8698TIP3    H126058   0.646   5.435   2.210 -0.0831  0.2198 -2.2970
 8698TIP3    H226059   0.625   5.285   2.202  1.5539 -0.2537  0.7911
 8699TIP3   OH226060   5.150   1.086   1.181  0.2493 -0.2235  0.2197
 8699TIP3    H126061   5.127   0.996   1.158  0.1153  0.1385 -1.1564
 8699TIP3    H226062   5.072   1.120   1.226  0.8294 -1.2130  2.0694
 8700TIP3   OH226063   5.962   1.139   0.933  0.6714 -0.5411  0.0823
 8700TIP3    H126064   5.888   1.117   0.875 -0.7906  0.1386  1.5940
 8700TIP3    H226065   5.996   1.221   0.897 -0.1250 -0.2085  0.0466
 8701TIP3   OH226066   1.838   1.351   5.652 -0.0069  0.4192  0.4488
 8701TIP3    H126067   1.757   1.386   5.690  0.8426  0.5143  2.2582
 8701TIP3    H226068   1.826   1.256   5.654  0.5700  0.3477  2.3346
 8702TIP3   OH226069   0.377   1.214   1.343 -0.3459 -0.1735  0.4506
 8702TIP3    H126070   0.292   1.205   1.387  0.2545  0.9222  1.9055
 8702TIP3    H226071   0.434   1.153   1.389  0.5896  1.8202  2.1012
 8703TIP3   OH226072   3.649   6.547   4.918 -0.0231  0.2396 -0.1172
 8703TIP3    H126073   3.723   6.585   4.965 -1.2030  2.4229  0.0879
 8703TIP3    H226074   3.631   6.609   4.847 -1.3478 -0.4972 -0.4553
 8704TIP3   OH226075   3.753   4.314   4.906 -0.3614 -0.3037 -0.5076
 8704TIP3    H126076   3.830   4.292   4.854 -1.2393 -1.8051 -1.2543
 8704TIP3    H226077   3.696   4.362   4.845 -0.0903  0.6837  0.0006
 8705TIP3   OH226078   6.391   3.758   5.013  0.1443 -0.4085  0.1997
 8705TIP3    H126079   6.364   3.670   4.987  1.0834 -0.2519 -1.4592
 8705TIP3    H226080   6.442   3.745   5.093  0.3752 -1.3864 -0.0931
 8706TIP3   OH226081   6.613   0.495   1.575  0.7006  0.0490 -0.2221
 8706TIP3    H126082   6.599   0.572   1.520 -0.2611 -0.2434 -0.4037
 8706TIP3    H226083   6.544   0.434   1.549  0.6836 -0.3872  0.8002
 8707TIP3   OH226084   1.353   5.549   2.363  0.6186 -0.0586  0.5198
 8707TIP3    H126085   1.323   5.573   2.450  0.6755 -0.8978  0.7775
 8707TIP3    H226086   1.398   5.466   2.375  1.0800  0.0715 -0.2284
 8708TIP3   OH226087   6.295   6.123   5.126  0.2606 -0.4750  0.4407
 8708TIP3    H126088   6.281   6.035   5.089 -1.4751 -0.6798  1.4728
 8708TIP3    H226089   6.265   6.116   5.216  3.1961  0.3441  1.6060
 8709TIP3   OH226090   1.418   6.472   5.562 -0.1747  0.3719  0.7725
 8709TIP3    H126091   1.479   6.405   5.595  0.3029  1.5479  2.3842
 8709TIP3    H226092   1.452   6.495   5.476  0.3500 -0.5733  0.7064
 8710TIP3   OH226093   6.845   4.653   4.286  0.1493 -0.2594  0.7335
 8710TIP3    H126094   6.781   4.583   4.270 -1.4649  1.3638 -0.3677
 8710TIP3    H226095   6.830   4.678   4.377 -1.3357  0.5391  0.3166
 8711TIP3   OH226096   1.862   4.807   3.137 -0.1420  0.2725 -0.4509
 8711TIP3    H126097   1.909   4.751   3.075 -2.2660  0.3251 -2.2328
 8711TIP3    H226098   1.892   4.896   3.116  1.4645  0.0952  0.8028
 8712TIP3   OH226099   2.001   0.817   2.280  0.1013 -0.1063  0.1787
 8712TIP3    H126100   2.080   0.869   2.291 -0.0121  0.5777 -1.6953
 8712TIP3    H226101   2.032   0.727   2.271  0.5260 -0.0378  0.8743
 8713TIP3   OH226102   1.852   3.910   1.526  0.2825  0.7953 -0.5415
 8713TIP3    H126103   1.828   4.003   1.519  0.6464  0.9428  0.1288
 8713TIP3    H226104   1.899   3.903   1.609 -1.2253 -0.3158  0.2583
 8714TIP3   OH226105   0.285   0.763   4.411  0.1452 -0.2984  0.0497
 8714TIP3    H126106   0.196   0.787   4.435  0.6723  1.3621  0.4573
 8714TIP3    H226107   0.291   0.670   4.434 -0.6166  0.2064  2.6985
 8715TIP3   OH226108   0.632   4.355   4.053  0.1956 -0.0835 -0.8222
 8715TIP3    H126109   0.675   4.274   4.079 -2.1712 -1.6052 -1.3943
 8715TIP3    H226110   0.652   4.416   4.124  2.8482 -0.7902 -0.8597
 8716TIP3   OH226111   2.882   4.002   1.232 -0.1029 -0.1318  0.5131
 8716TIP3    H126112   2.940   4.062   1.185 -1.6865  1.4602  0.4790
 8716TIP3    H226113   2.860   4.048   1.313 -0.4696 -1.1734  1.0170
 8717TIP3   OH226114   4.205   2.999   2.417 -0.4880 -0.1079 -0.1249
 8717TIP3    H126115   4.120   2.967   2.449 -0.4882  0.2000  0.1834
 8717TIP3    H226116   4.184   3.074   2.362 -0.2870  1.4089  1.7708
 8718TIP3   OH226117   6.774   4.699   5.411  0.6280  0.0470 -0.1737
 8718TIP3    H126118   6.827   4.767   5.368 -0.6066  0.9127 -0.3903
 8718TIP3    H226119   6.685   4.716   5.380 -0.5968  1.5648  3.6687
 8719TIP3   OH226120   2.544   0.977   1.101 -0.2850 -0.0844  0.4822
 8719TIP3    H126121   2.552   0.905   1.038  0.3039  0.6052 -0.2468
 8719TIP3    H226122   2.555   1.056   1.048  0.4589  0.5009  1.4875
 8720TIP3   OH226123   1.394   4.122   2.875 -0.3484  0.1660  0.9144
 8720TIP3    H126124   1.329   4.052   2.884 -2.1360  1.4526 -1.1342
 8720TIP3    H226125   1.478   4.077   2.879 -1.3741 -1.7634  2.0837
 8721TIP3   OH226126   3.225   6.564   3.641  0.2295  0.4541 -0.1711
 8721TIP3    H126127   3.243   6.493   3.703 -0.3759  0.5350  0.1106
 8721TIP3    H226128   3.162   6.619   3.687 -2.1672 -0.7715 -1.7509
 8722TIP3   OH226129   5.350   6.127   2.838  0.4217  0.0461 -0.3286
 8722TIP3    H126130   5.404   6.048   2.842  0.3040 -0.0261 -0.1777
 8722TIP3    H226131   5.373   6.176   2.917 -0.7660 -0.6526  0.4739
 8723TIP3   OH226132   0.333   6.178   2.219 -0.6745  0.0714 -0.3048
 8723TIP3    H126133   0.272   6.237   2.263 -0.2155 -0.2014  0.7484
 8723TIP3    H226134   0.340   6.103   2.279  0.8739  0.2115 -0.2671
 8724TIP3   OH226135   7.156   4.297   3.622 -0.4947  0.3557  0.5789
 8724TIP3    H126136   7.103   4.248   3.559 -1.4965  2.0192  0.0632
 8724TIP3    H226137   7.101   4.302   3.700 -0.6443  1.1332  0.4295
 8725TIP3   OH226138   1.891   5.910   1.628  0.3211  0.4782 -0.3250
 8725TIP3    H126139   1.883   5.835   1.569  1.8926  0.5175 -0.6333
 8725TIP3    H226140   1.984   5.929   1.630  0.0608  1.8082  0.5430
 8726TIP3   OH226141   1.982   0.637   3.966  0.1037 -0.3039  1.1332
 8726TIP3    H126142   1.990   0.732   3.958  0.0291 -0.4257 -0.6985
 8726TIP3    H226143   1.892   0.618   3.942  0.5490 -0.9711 -0.0868
 8727TIP3   OH226144   3.890   0.163   3.951  0.1647  0.7003  0.6100
 8727TIP3    H126145   3.832   0.164   4.027  0.1310  0.2064  0.5887
 8727TIP3    H226146   3.903   0.071   3.931  0.4215  0.8214  0.2034
 8728TIP3   OH226147   0.696   2.703   0.566  0.3843  0.2049  0.1385
 8728TIP3    H126148   0.781   2.666   0.541  0.1725 -0.8197  0.8639
 8728TIP3    H226149   0.641   2.688   0.489  0.6047  0.0159  0.0136
 8729TIP3   OH226150   5.467   4.216   5.043 -0.2257 -0.0496  0.0944
 8729TIP3    H126151   5.377   4.213   5.075 -0.2195 -0.6785  0.0670
 8729TIP3    H226152   5.521   4.218   5.122 -0.2555  0.0195  0.1129
 8730TIP3   OH226153   3.264   2.676   0.811  0.6351  0.0740 -0.1919
 8730TIP3    H126154   3.330   2.688   0.880  1.1655  1.4054 -0.9104
 8730TIP3    H226155   3.304   2.714   0.733 -0.3815 -0.4981 -1.0075
 8731TIP3   OH226156   6.591   1.458   4.615  0.1688 -0.0195  0.3892
 8731TIP3    H126157   6.548   1.385   4.571  0.3497  0.5048 -0.6902
 8731TIP3    H226158   6.675   1.423   4.643 -0.5154 -0.7611  1.6094
 8732TIP3   OH226159   4.094   0.463   5.643  0.0012 -0.3522  0.1443
 8732TIP3    H126160   4.157   0.503   5.704  1.2325 -0.8800 -0.7363
 8732TIP3    H226161   4.051   0.395   5.695 -0.7799  0.8483  1.1239
 8733TIP3   OH226162   6.878   0.790   5.349 -0.0870  0.4993 -0.4578
 8733TIP3    H126163   6.949   0.804   5.285  1.0671  2.0713  1.0782
 8733TIP3    H226164   6.923   0.763   5.429 -0.9687  3.3065  1.1024
 8734TIP3   OH226165   1.069   2.857   0.440 -0.0191 -0.6506 -0.3799
 8734TIP3    H126166   1.024   2.773   0.430  0.9331 -1.2107 -0.1181
 8734TIP3    H226167   1.097   2.859   0.531  1.9966 -1.1431 -0.9227
 8735TIP3   OH226168   3.193   5.400   3.060 -0.0210  0.8865 -0.0753
 8735TIP3    H126169   3.210   5.320   3.110 -1.4718 -0.0126 -0.9414
 8735TIP3    H226170   3.140   5.455   3.118 -0.7875  0.3109 -0.2200
 8736TIP3   OH226171   1.580   0.581   2.036 -0.3323  0.6956  0.3001
 8736TIP3    H126172   1.556   0.540   1.953 -0.1004 -1.8575  1.3860
 8736TIP3    H226173   1.563   0.674   2.024  0.2104  0.4758 -2.7616
 8737TIP3   OH226174   3.696   2.975   3.655  0.6179  0.4677  0.7364
 8737TIP3    H126175   3.603   2.998   3.651  0.6113  0.2836 -0.7209
 8737TIP3    H226176   3.738   3.032   3.591  1.0948 -1.2599 -0.5758
 8738TIP3   OH226177   0.256   1.775   4.434  0.3006  0.2968  0.7492
 8738TIP3    H126178   0.230   1.686   4.412  1.1715  0.2409 -0.0696
 8738TIP3    H226179   0.323   1.798   4.371  1.0840  1.0419  1.8099
 8739TIP3   OH226180   0.287   1.434   0.524  1.1949 -0.2779  0.2481
 8739TIP3    H126181   0.275   1.527   0.545  2.5482 -0.1108  0.3285
 8739TIP3    H226182   0.276   1.389   0.607 -2.7659 -0.6002 -0.2421
 8740TIP3   OH226183   2.780   4.300   2.268  0.2415 -0.2015 -0.3154
 8740TIP3    H126184   2.772   4.236   2.196 -0.0933  0.4245 -0.8469
 8740TIP3    H226185   2.871   4.329   2.263  1.0121 -2.1058  1.2279
 8741TIP3   OH226186   2.667   0.211   3.154 -0.1872 -0.0281  0.3209
 8741TIP3    H126187   2.760   0.193   3.142  0.3201  2.4951 -0.0811
 8741TIP3    H226188   2.650   0.191   3.246  0.7654 -0.5035  0.4032
 8742TIP3   OH226189   1.447   6.242   2.040  0.3694 -0.0887  0.2323
 8742TIP3    H126190   1.476   6.240   2.131  2.8212 -1.1162 -0.4798
 8742TIP3    H226191   1.483   6.162   2.001  0.7877  1.0941 -1.9923
 8743TIP3   OH226192   6.620   2.008   3.268 -0.0229 -0.0223 -0.2776
 8743TIP3    H126193   6.671   2.057   3.332  2.2566 -0.1892 -1.8647
 8743TIP3    H226194   6.685   1.962   3.214 -1.9415 -2.2819 -0.8507
 8744TIP3   OH226195   3.766   3.161   0.886 -0.0359  0.8092 -0.1379
 8744TIP3    H126196   3.720   3.102   0.945  0.8581 -0.9026 -1.0855
 8744TIP3    H226197   3.698   3.197   0.829 -0.6643  1.1443  0.8090
 8745TIP3   OH226198   0.935   5.058   3.732 -0.5067  0.8643  0.2574
 8745TIP3    H126199   0.993   5.110   3.787  1.7348 -1.8020  0.6382
 8745TIP3    H226200   0.889   5.000   3.793  1.4420 -1.5953 -0.4188
 8746TIP3   OH226201   3.660   1.537   4.171 -0.0978  0.0497  0.1541
 8746TIP3    H126202   3.572   1.502   4.177 -0.5619  0.8499 -1.4757
 8746TIP3    H226203   3.699   1.493   4.095  0.1790  1.1768 -0.3784
 8747TIP3   OH226204   0.951   6.635   0.553  0.0056 -0.2564  0.0978
 8747TIP3    H126205   0.860   6.607   0.560  0.3995 -1.5935  0.0636
 8747TIP3    H226206   0.999   6.557   0.524  1.3571  0.0618  1.3348
 8748TIP3   OH226207   2.642   6.670   5.645 -0.0223  0.0197 -0.6035
 8748TIP3    H126208   2.617   6.581   5.622  2.2490 -0.0041 -3.5402
 8748TIP3    H226209   2.713   6.660   5.707  0.4041 -0.2596 -1.1264
 8749TIP3   OH226210   4.782   1.517   0.801  0.2391 -0.6128  0.1302
 8749TIP3    H126211   4.743   1.467   0.729 -0.5452 -0.6314  0.5610
 8749TIP3    H226212   4.875   1.523   0.778 -0.0645 -0.2853 -1.0770
 8750TIP3   OH226213   0.011   0.243   4.749 -0.2725  0.2283 -0.4864
 8750TIP3    H126214   0.005   0.161   4.699 -0.0572 -0.1173  0.0383
 8750TIP3    H226215   0.105   0.252   4.768 -0.3238  0.4792 -0.3571
 8751TIP3   OH226216   6.973   6.768   1.892  0.5388  0.0110 -0.5379
 8751TIP3    H126217   6.911   6.840   1.903  0.0711 -0.2861 -1.1701
 8751TIP3    H226218   6.922   6.698   1.852  0.8443 -0.8925  0.5927
 8752TIP3   OH226219   6.570   1.456   3.293 -0.3250  0.6355  0.2140
 8752TIP3    H126220   6.492   1.411   3.326 -0.3154  0.0551 -0.5064
 8752TIP3    H226221   6.615   1.487   3.371 -0.9717  0.4504  0.6700
 8753TIP3   OH226222   1.048   6.010   1.362  0.0525 -0.0413  0.0498
 8753TIP3    H126223   0.984   6.079   1.381 -0.7031 -0.4525 -0.9043
 8753TIP3    H226224   1.070   5.974   1.447 -1.0988  0.0206  0.3942
 8754TIP3   OH226225   0.647   4.552   4.710 -0.1091  0.2624 -0.1043
 8754TIP3    H126226   0.591   4.613   4.757 -0.5954  1.2433 -1.8908
 8754TIP3    H226227   0.722   4.605   4.681 -0.2273 -0.1130 -1.1379
 8755TIP3   OH226228   0.081   4.230   4.579  0.5535 -0.4002  0.3752
 8755TIP3    H126229   0.146   4.198   4.517  0.3397 -2.4167  1.1278
 8755TIP3    H226230   0.103   4.188   4.662 -0.3525  0.6861  1.2146
 8756TIP3   OH226231   1.380   5.336   1.267 -0.0992  0.2697  0.9862
 8756TIP3    H126232   1.314   5.311   1.332  0.0354 -0.4263  0.8672
 8756TIP3    H226233   1.366   5.430   1.253 -1.4054  0.0394  0.5800
 8757TIP3   OH226234   3.817   0.884   5.593  0.4718 -0.9500 -0.1137
 8757TIP3    H126235   3.881   0.828   5.550  0.2493 -1.8830  0.7432
 8757TIP3    H226236   3.733   0.859   5.555  0.5726  0.2929 -1.2584
 8758TIP3   OH226237   2.397   4.143   5.677 -0.6817 -0.2958  0.1598
 8758TIP3    H126238   2.421   4.206   5.609  0.6188 -0.7470  0.1789
 8758TIP3    H226239   2.435   4.179   5.757  1.4951 -1.8630 -0.0955
 8759TIP3   OH226240   1.045   5.715   0.538  0.2857 -0.1786 -1.2578
 8759TIP3    H126241   1.120   5.655   0.543  0.8772  0.6498  0.6375
 8759TIP3    H226242   1.083   5.802   0.540 -0.6439  0.3108 -2.7427
 8760TIP3   OH226243   6.757   1.722   5.481  0.2081  0.4621  0.0119
 8760TIP3    H126244   6.708   1.795   5.443 -0.4474 -0.2173 -0.4718
 8760TIP3    H226245   6.847   1.753   5.483  0.0749  0.9627 -0.9957
 8761TIP3   OH226246   0.864   1.896   2.667  1.3439  0.0965 -0.3745
 8761TIP3    H126247   0.805   1.966   2.640  2.2378  0.2226 -2.0902
 8761TIP3    H226248   0.938   1.901   2.607  2.0331 -1.5161  0.2708
 8762TIP3   OH226249   4.470   0.726   5.528 -0.5770 -0.6105  0.3948
 8762TIP3    H126250   4.479   0.634   5.555  1.5160 -1.2079 -1.9591
 8762TIP3    H226251   4.382   0.732   5.492 -0.8205 -1.6312  0.7740
 8763TIP3   OH226252   4.477   1.533   1.949  0.2328 -0.1381 -0.1166
 8763TIP3    H126253   4.510   1.592   2.017 -1.2863  0.6534 -0.0140
 8763TIP3    H226254   4.413   1.478   1.994  2.5252 -2.8271  0.0842
 8764TIP3   OH226255   0.714   1.677   4.322 -0.1549 -0.5314  0.3027
 8764TIP3    H126256   0.732   1.757   4.371 -2.1749  0.9709 -1.2285
 8764TIP3    H226257   0.755   1.691   4.237 -2.8920  0.2141 -0.9865
 8765TIP3   OH226258   6.415   3.263   1.593 -0.2564  0.0239 -0.5242
 8765TIP3    H126259   6.410   3.344   1.644 -0.4702 -0.4800  0.2745
 8765TIP3    H226260   6.340   3.211   1.623  0.1825 -0.6851 -0.6338
 8766TIP3   OH226261   6.825   1.572   1.668  0.1269  0.4026  0.1873
 8766TIP3    H126262   6.866   1.494   1.705 -0.8186 -0.1658  0.0656
 8766TIP3    H226263   6.731   1.558   1.681 -0.0260  2.0247  1.1767
 8767TIP3   OH226264   5.891   0.286   2.779  0.1689  0.1135 -0.3111
 8767TIP3    H126265   5.895   0.196   2.810  0.3603 -0.3725 -1.6910
 8767TIP3    H226266   5.939   0.286   2.696  1.7109  1.8635  0.4959
 8768TIP3   OH226267   0.434   3.429   2.816  0.0523  0.1138  0.8878
 8768TIP3    H126268   0.500   3.498   2.822 -0.0365  0.4827 -1.3492
 8768TIP3    H226269   0.483   3.352   2.786 -0.5365  0.5382 -1.3381
 8769TIP3   OH226270   6.688   0.823   4.316 -0.4613 -0.7507 -0.2099
 8769TIP3    H126271   6.693   0.733   4.348 -0.1061 -0.0415  1.8793
 8769TIP3    H226272   6.745   0.872   4.374 -0.2792  0.7726 -1.6107
 8770TIP3   OH226273   1.885   0.958   1.494 -0.4283 -0.2981 -0.1495
 8770TIP3    H126274   1.945   0.992   1.428  0.9286 -2.4536 -0.1289
 8770TIP3    H226275   1.884   0.863   1.479 -1.7495 -0.6108  1.5865
 8771TIP3   OH226276   0.167   1.666   0.545  0.5483 -0.4638 -0.3161
 8771TIP3    H126277   0.136   1.678   0.634 -0.4813 -0.6561 -0.6377
 8771TIP3    H226278   0.091   1.682   0.490  0.7584 -1.8856 -1.0785
 8772TIP3   OH226279   2.391   3.826   2.787  0.0728  0.3757  0.3113
 8772TIP3    H126280   2.443   3.765   2.734 -0.6773  0.7625 -0.8972
 8772TIP3    H226281   2.305   3.827   2.745 -0.6708  0.3968  1.7807
 8773TIP3   OH226282   2.213   5.222   4.019  0.3128  0.1304 -0.4231
 8773TIP3    H126283   2.187   5.167   4.093  1.5839  0.3102  0.1790
 8773TIP3    H226284   2.150   5.200   3.950 -1.0606  0.1455  0.7691
 8774TIP3   OH226285   4.111   5.596   0.470 -0.3535 -0.0194  0.3387
 8774TIP3    H126286   4.147   5.525   0.524 -0.8153  0.4509  1.2948
 8774TIP3    H226287   4.146   5.676   0.511 -1.3196  0.3776  0.4064
 8775TIP3   OH226288   6.112   5.482   0.101  0.2695 -0.2140  0.3321
 8775TIP3    H126289   6.119   5.387   0.090 -1.3824 -0.4058  0.7044
 8775TIP3    H226290   6.196   5.516   0.068  0.4843 -1.7098 -0.7917
 8776TIP3   OH226291   3.180   0.280   4.890  0.3090  0.0314  0.1213
 8776TIP3    H126292   3.258   0.257   4.840  0.9638  2.2770 -0.0302
 8776TIP3    H226293   3.173   0.375   4.880 -3.0867 -0.1767 -0.7607
 8777TIP3   OH226294   7.187   1.643   3.494  0.2348  0.0603  0.0416
 8777TIP3    H126295   7.217   1.678   3.578  0.4748 -2.8467  1.2620
 8777TIP3    H226296   7.094   1.666   3.492  0.6292  1.8369  0.1449
 8778TIP3   OH226297   6.262   4.840   5.830 -0.0825  0.2303  0.7500
 8778TIP3    H126298   6.183   4.831   5.776 -0.5505  1.3333  1.2120
 8778TIP3    H226299   6.257   4.769   5.893  0.5271 -1.1533 -0.6861
 8779TIP3   OH226300   5.401   5.888   4.703 -0.1216 -0.3654 -0.1247
 8779TIP3    H126301   5.468   5.842   4.653  1.0879  0.4151  0.7180
 8779TIP3    H226302   5.372   5.824   4.768  0.0067 -0.6234 -0.3172
 8780TIP3   OH226303   5.016   0.109   1.021 -0.3575  0.2810  0.2267
 8780TIP3    H126304   5.010   0.016   1.000 -0.5534  0.0532  1.2328
 8780TIP3    H226305   4.925   0.138   1.028 -0.3093  0.2352  1.1761
 8781TIP3   OH226306   3.350   1.915   5.719  0.2218 -0.7483 -0.1015
 8781TIP3    H126307   3.440   1.925   5.690  0.0348 -0.8968 -0.7384
 8781TIP3    H226308   3.354   1.844   5.784  0.7004 -0.1455  0.5447
 8782TIP3   OH226309   4.784   0.285   2.359 -0.2126 -0.4609  0.3773
 8782TIP3    H126310   4.831   0.352   2.408 -2.3138 -0.5351  2.6794
 8782TIP3    H226311   4.764   0.326   2.275  0.3772  1.0163  0.9184
 8783TIP3   OH226312   2.776   6.267   5.338  0.1393 -0.0678 -0.4413
 8783TIP3    H126313   2.853   6.318   5.363  0.3105 -0.9704  1.0220
 8783TIP3    H226314   2.751   6.221   5.418 -1.4891 -0.3678 -1.0837
 8784TIP3   OH226315   5.890   5.065   3.960  0.1864  0.3812  0.4496
 8784TIP3    H126316   5.878   4.972   3.978 -0.3024  0.2430 -0.5184
 8784TIP3    H226317   5.813   5.107   3.996 -0.0879  0.2779 -0.0021
 8785TIP3   OH226318   4.563   4.510   3.066  0.1101  0.6375 -0.3026
 8785TIP3    H126319   4.480   4.462   3.069 -0.7401  1.7157 -3.3044
 8785TIP3    H226320   4.545   4.593   3.110 -0.6877  1.1884 -1.6219
 8786TIP3   OH226321   1.553   0.132   2.285  0.0495 -0.1502 -0.4454
 8786TIP3    H126322   1.607   0.180   2.348  0.6205  0.4327 -1.3580
 8786TIP3    H226323   1.483   0.094   2.338 -0.4605  1.7334  0.3124
 8787TIP3   OH226324   7.033   0.922   5.760  0.5161  0.2528 -0.2217
 8787TIP3    H126325   7.027   0.986   5.830  1.4187 -0.2893  0.3672
 8787TIP3    H226326   6.944   0.888   5.751  0.3696  0.4034  0.5835
 8788TIP3   OH226327   0.670   0.181   2.466 -0.3652 -0.3045 -0.5025
 8788TIP3    H126328   0.646   0.088   2.463 -1.7455  0.0421 -0.7427
 8788TIP3    H226329   0.644   0.215   2.381  2.2234 -0.1357 -1.3263
 8789TIP3   OH226330   6.716   0.560   2.100  0.1223 -0.3787 -0.0126
 8789TIP3    H126331   6.709   0.539   2.007  1.9951  0.9258 -0.5047
 8789TIP3    H226332   6.706   0.476   2.145  0.8431 -1.2855 -1.4861
 8790TIP3   OH226333   0.882  -0.030   1.128 -0.2450 -0.3908 -0.3603
 8790TIP3    H126334   0.789  -0.016   1.110  0.4215  1.2444 -3.2342
 8790TIP3    H226335   0.919   0.058   1.130  1.4046 -1.0523 -0.5016
 8791TIP3   OH226336   3.536   4.260   1.695 -0.4532 -0.0819  0.6418
 8791TIP3    H126337   3.524   4.189   1.631  2.0067 -0.4357  0.4744
 8791TIP3    H226338   3.474   4.239   1.765 -3.0743  0.1677 -1.4134
 8792TIP3   OH226339   2.709   5.365   4.440  0.1484  0.0318  0.1019
 8792TIP3    H126340   2.622   5.325   4.433  0.0130  0.5605 -1.7196
 8792TIP3    H226341   2.755   5.312   4.505 -0.6982 -1.8404 -0.7643
 8793TIP3   OH226342   3.523   1.555   5.353 -0.0877  0.0729 -0.0424
 8793TIP3    H126343   3.524   1.521   5.442 -2.4709 -1.2352 -0.4034
 8793TIP3    H226344   3.460   1.627   5.356  2.5299  2.4966  0.0207
 8794TIP3   OH226345   0.475   0.090   1.772 -0.5748 -0.0069  0.4068
 8794TIP3    H126346   0.475   0.036   1.692 -0.0390  1.1385 -0.3922
 8794TIP3    H226347   0.421   0.041   1.833 -1.8259 -0.4432 -0.9847
 8795TIP3   OH226348   3.195   1.875   2.956 -0.0401  1.0470 -0.4187
 8795TIP3    H126349   3.160   1.829   2.880 -0.8823  1.7359 -0.4582
 8795TIP3    H226350   3.208   1.965   2.926  2.3451  0.7201 -0.5834
 8796TIP3   OH226351   1.163   4.071   5.490  0.4480  0.0254 -0.1477
 8796TIP3    H126352   1.082   4.022   5.475  0.4204  0.0678 -0.1353
 8796TIP3    H226353   1.135   4.162   5.493  0.3293 -0.0344  1.0730
 8797TIP3   OH226354   1.386   4.752   0.487  0.4582 -0.7401  0.1272
 8797TIP3    H126355   1.438   4.743   0.566  2.4368  2.9912 -0.5146
 8797TIP3    H226356   1.297   4.730   0.514  1.3320 -1.2630  2.9028
 8798TIP3   OH226357   4.067   4.278   0.188 -0.3122  0.2215 -0.2817
 8798TIP3    H126358   4.113   4.195   0.180  0.5091  0.6161  0.2779
 8798TIP3    H226359   4.026   4.275   0.274 -1.3476 -0.1173 -0.7628
 8799TIP3   OH226360   0.591   4.009   4.015  0.5183 -0.0003 -0.7515
 8799TIP3    H126361   0.662   4.046   3.963  1.3439  0.4417  0.6311
 8799TIP3    H226362   0.532   3.968   3.951 -0.6159  3.8594 -2.4604
 8800TIP3   OH226363   2.659   0.095   4.624  0.8593 -0.7656  0.1342
 8800TIP3    H126364   2.573   0.066   4.593  1.1434 -1.1746 -0.2853
 8800TIP3    H226365   2.715   0.018   4.615  0.9685 -0.8964  1.6478
 8801TIP3   OH226366   2.288   0.415   2.816  0.0476 -0.1593 -0.2387
 8801TIP3    H126367   2.339   0.335   2.806  0.4081  0.0665 -0.2385
 8801TIP3    H226368   2.275   0.425   2.910  0.1567 -0.1219 -0.2279
 8802TIP3   OH226369   5.738   5.462   5.506  0.4418 -0.1134  0.2150
 8802TIP3    H126370   5.717   5.529   5.441  0.5519  1.2405  1.5222
 8802TIP3    H226371   5.825   5.430   5.480  0.3171  0.1255 -0.5192
 8803TIP3   OH226372   3.241   6.648   3.054 -0.2987 -0.1922  0.3699
 8803TIP3    H126373   3.326   6.609   3.035 -0.4507  0.5333 -2.1456
 8803TIP3    H226374   3.260   6.741   3.070 -0.4458 -0.3775  1.7778
 8804TIP3   OH226375   1.679   2.104   0.853  0.2762  0.5603 -0.0083
 8804TIP3    H126376   1.722   2.042   0.912  0.3424  2.5175  2.1619
 8804TIP3    H226377   1.587   2.077   0.852  0.3642  0.2141  0.6603
 8805TIP3   OH226378   1.466   6.280   2.665  0.7219  0.2213 -0.4654
 8805TIP3    H126379   1.510   6.355   2.706  0.3071  0.3162 -0.1881
 8805TIP3    H226380   1.524   6.206   2.684  1.2358  0.4995 -0.9131
 8806TIP3   OH226381   0.953   4.492   0.237 -0.3847  0.4557 -0.1686
 8806TIP3    H126382   0.871   4.447   0.255 -0.2612 -0.2709 -1.3208
 8806TIP3    H226383   0.933   4.552   0.166  0.3529 -0.7069 -1.4172
 8807TIP3   OH226384   6.280   3.654   5.615 -0.0220 -0.2088 -0.1542
 8807TIP3    H126385   6.361   3.616   5.650  0.5483  1.0931 -0.0009
 8807TIP3    H226386   6.288   3.747   5.633 -1.8613 -0.1241  0.4370
 8808TIP3   OH226387   3.018   5.385   1.619  0.1396  0.1418  0.2575
 8808TIP3    H126388   3.048   5.433   1.542  0.0546  0.5890  0.5026
 8808TIP3    H226389   3.076   5.309   1.624  1.5012  1.1968  0.9477
 8809TIP3   OH226390   5.753   5.753   4.741  0.0150 -0.5869  0.3548
 8809TIP3    H126391   5.671   5.708   4.760 -0.0934 -0.0776  1.1058
 8809TIP3    H226392   5.793   5.769   4.826 -1.6767  3.9708  0.5957
 8810TIP3   OH226393   6.913   4.831   2.982  0.3921  0.0200  0.3187
 8810TIP3    H126394   6.975   4.798   2.917 -0.3775  0.3767 -0.6198
 8810TIP3    H226395   6.963   4.895   3.032  0.6143  0.8499 -0.8995
 8811TIP3   OH226396   2.169   4.678   2.773  0.4944  0.1206  0.0946
 8811TIP3    H126397   2.224   4.755   2.762  0.7515 -0.1621 -0.6780
 8811TIP3    H226398   2.228   4.604   2.759  0.4639 -0.2655  1.7340
 8812TIP3   OH226399   0.257   4.723   2.051 -0.1066  0.4932 -0.0752
 8812TIP3    H126400   0.274   4.812   2.080  2.3020 -0.4040  1.5139
 8812TIP3    H226401   0.165   4.708   2.073  0.0889  1.8072  1.8532
 8813TIP3   OH226402   1.709   5.077   3.431 -0.2394 -0.5998  0.4917
 8813TIP3    H126403   1.671   5.108   3.513  0.6526 -0.1697  0.7551
 8813TIP3    H226404   1.734   4.986   3.449 -1.2739 -0.9357  0.2656
 8814TIP3   OH226405   6.676   3.750   5.665  0.1929  0.6832 -0.0396
 8814TIP3    H126406   6.641   3.689   5.600 -1.1752  0.5927  0.7533
 8814TIP3    H226407   6.702   3.694   5.739  0.2312  0.9316  0.1368
 8815TIP3   OH226408   4.990   5.231   0.560 -0.0501  0.1175 -0.0452
 8815TIP3    H126409   4.954   5.234   0.472 -1.7967  1.9983  0.6578
 8815TIP3    H226410   5.051   5.304   0.564  0.2764 -0.1644  0.2173
 8816TIP3   OH226411   2.802   6.675   1.245  0.0966  0.3512 -0.2194
 8816TIP3    H126412   2.810   6.742   1.312 -0.7932  1.0593 -0.7961
 8816TIP3    H226413   2.891   6.662   1.212  0.3307  0.9654  0.1657
 8817TIP3   OH226414   0.660   5.125   3.391  0.2763 -0.0058  0.1974
 8817TIP3    H126415   0.567   5.148   3.395 -0.3341 -1.9616 -1.1959
 8817TIP3    H226416   0.680   5.121   3.297  0.7008 -3.2425  0.3053
 8818TIP3   OH226417   2.854   5.769   5.692  0.2825  0.6154 -0.1202
 8818TIP3    H126418   2.877   5.800   5.604  1.4238  0.5794  0.1466
 8818TIP3    H226419   2.860   5.674   5.687 -1.9404  0.4499 -0.5916
 8819TIP3   OH226420   5.994   3.226   3.416  0.4348 -0.5883 -0.2565
 8819TIP3    H126421   6.043   3.281   3.354  2.3155 -1.0269  0.7445
 8819TIP3    H226422   5.930   3.286   3.455 -1.2351 -0.4486 -2.9647
 8820TIP3   OH226423   4.252   3.238   0.758  0.2356 -0.2035  0.2515
 8820TIP3    H126424   4.282   3.211   0.671  1.6830  1.3797  0.2213
 8820TIP3    H226425   4.196   3.166   0.787  0.0504 -0.9493 -1.8086
 8821TIP3   OH226426   1.776   1.804   5.576 -0.2273 -0.1365 -0.1737
 8821TIP3    H126427   1.740   1.739   5.516  1.1662 -0.2151 -0.9976
 8821TIP3    H226428   1.766   1.887   5.529  1.6589 -0.3002 -0.9936
 8822TIP3   OH226429   3.914   4.817   4.684 -0.2389  0.5955 -0.0692
 8822TIP3    H126430   3.918   4.858   4.598  1.5800 -0.5776 -0.6077
 8822TIP3    H226431   3.878   4.730   4.668  0.8057  0.0941  0.1992
 8823TIP3   OH226432   1.659   4.571   4.750 -0.1893  0.2885  0.2148
 8823TIP3    H126433   1.690   4.481   4.743 -1.6101 -0.5303  3.0557
 8823TIP3    H226434   1.571   4.569   4.714  0.5536  1.1605 -1.8445
 8824TIP3   OH226435   3.328   6.757   1.658 -0.1993 -0.9875  0.5408
 8824TIP3    H126436   3.281   6.727   1.736 -1.2092 -0.3895  0.1885
 8824TIP3    H226437   3.260   6.800   1.605  0.7643 -0.0855  0.0143
 8825TIP3   OH226438   6.227   4.029   5.836 -0.0095 -0.0490 -0.0809
 8825TIP3    H126439   6.281   3.966   5.787  0.9928  0.1007  0.7766
 8825TIP3    H226440   6.142   3.987   5.843  0.2139 -0.6528 -0.8057
 8826TIP3   OH226441   0.812   2.192   0.964  0.0067 -0.8526  0.0800
 8826TIP3    H126442   0.840   2.139   1.038  1.1546 -1.5533 -0.8191
 8826TIP3    H226443   0.893   2.225   0.926 -0.4615 -1.4386 -1.5340
 8827TIP3   OH226444   6.218   4.304   4.572 -0.6307  0.2193 -0.0936
 8827TIP3    H126445   6.197   4.211   4.565 -0.1857  0.0703  0.5395
 8827TIP3    H226446   6.143   4.348   4.530 -0.6576 -0.4293 -0.7565
 8828TIP3   OH226447   2.867   3.723   4.397 -0.1056  0.5203  0.1313
 8828TIP3    H126448   2.880   3.681   4.482  0.4067 -1.3936 -0.8252
 8828TIP3    H226449   2.783   3.768   4.405 -0.4135 -0.2286  1.4229
 8829TIP3   OH226450   2.513   2.005   2.406 -0.4208 -0.4900  0.3576
 8829TIP3    H126451   2.469   2.013   2.321  0.0346  1.5825  0.2705
 8829TIP3    H226452   2.442   2.004   2.469 -0.7268  1.9627  0.1592
 8830TIP3   OH226453   3.408   4.543   4.129  0.3680 -0.0838  0.2622
 8830TIP3    H126454   3.382   4.535   4.038 -0.2593  1.4077  0.2798
 8830TIP3    H226455   3.498   4.576   4.125  0.1589  0.4886  0.1659
 8831TIP3   OH226456   3.017   1.730   4.508  0.2740  0.2768 -0.2364
 8831TIP3    H126457   2.966   1.787   4.565 -1.8971 -0.7773 -1.0218
 8831TIP3    H226458   3.035   1.653   4.562 -1.1880 -0.4266 -0.7178
 8832TIP3   OH226459   4.813   6.731   0.597 -0.9961 -0.0790 -0.3229
 8832TIP3    H126460   4.849   6.676   0.527 -1.3381 -2.5736  1.3005
 8832TIP3    H226461   4.871   6.807   0.601  0.8741 -1.3698 -1.2760
 8833TIP3   OH226462   4.841   1.595   5.294  0.1016 -0.5045 -0.7061
 8833TIP3    H126463   4.793   1.513   5.284  1.7769 -1.4021 -2.0593
 8833TIP3    H226464   4.933   1.568   5.302  0.7994  1.2441 -2.0357
 8834TIP3   OH226465   0.993   2.533   2.991 -0.3494 -0.3961 -0.3911
 8834TIP3    H126466   1.006   2.570   3.079 -0.6992  0.7799 -0.8066
 8834TIP3    H226467   0.961   2.444   3.007 -2.1200  0.3849  0.7191
 8835TIP3   OH226468   2.327   6.286   5.704 -0.4876 -0.3421 -0.0905
 8835TIP3    H126469   2.301   6.223   5.771  1.1649 -1.2117 -0.1971
 8835TIP3    H226470   2.290   6.251   5.623 -1.2060 -0.1072  0.1283
 8836TIP3   OH226471   1.316   2.919   5.852 -0.3626  0.7145  0.5614
 8836TIP3    H126472   1.353   3.000   5.819  0.1254  0.7517  1.1758
 8836TIP3    H226473   1.363   2.903   5.934 -0.5761 -0.0908  0.5371
 8837TIP3   OH226474   4.307   2.763   0.484 -0.8580  0.4746  0.0192
 8837TIP3    H126475   4.305   2.670   0.460 -0.8669  0.3829  0.3813
 8837TIP3    H226476   4.215   2.787   0.495 -0.7714 -0.0619  2.2117
 8838TIP3   OH226477   6.102   0.194   2.025 -0.1503  0.1464  0.1900
 8838TIP3    H126478   6.143   0.177   1.941  2.0400  2.4403  0.6796
 8838TIP3    H226479   6.162   0.254   2.070 -2.1895  0.5633  2.6024
 8839TIP3   OH226480   4.071   5.073   4.134  0.1670 -0.0494  0.0103
 8839TIP3    H126481   4.147   5.089   4.078 -1.0197  0.3744 -1.5505
 8839TIP3    H226482   4.081   4.982   4.162  0.0862 -0.7786 -2.1127
 8840TIP3   OH226483   6.260   1.284   4.610  0.2956 -0.1470  0.4761
 8840TIP3    H126484   6.284   1.228   4.536 -0.8615  1.6695 -1.3927
 8840TIP3    H226485   6.334   1.277   4.670  0.3849 -3.2941  0.1899
 8841TIP3   OH226486   7.209   2.379   2.785  0.5532  0.5023 -0.9881
 8841TIP3    H126487   7.185   2.379   2.693  1.2608 -2.0227 -1.2500
 8841TIP3    H226488   7.210   2.286   2.810  0.8352  1.0807  1.4376
 8842TIP3   OH226489   6.578   6.270   3.574  0.0402  0.0884  0.0151
 8842TIP3    H126490   6.510   6.227   3.521 -0.0013 -0.1353  0.2454
 8842TIP3    H226491   6.575   6.224   3.657  1.3923 -0.8295 -0.4165
 8843TIP3   OH226492   1.229   2.240   1.573  0.1141 -0.2097 -0.1713
 8843TIP3    H126493   1.266   2.179   1.509 -0.4268  2.1727 -2.9697
 8843TIP3    H226494   1.135   2.237   1.557  0.0944  1.4748 -0.5971
 8844TIP3   OH226495   7.114   3.737   5.645  0.0722 -0.2970 -0.4817
 8844TIP3    H126496   7.177   3.759   5.576 -0.8809  0.1353 -1.2447
 8844TIP3    H226497   7.046   3.688   5.599 -0.5045 -0.1243  0.1826
 8845TIP3   OH226498   4.651   5.189   2.338  0.2751  0.2203 -0.2480
 8845TIP3    H126499   4.643   5.275   2.380  0.8359  0.8920 -1.4498
 8845TIP3    H226500   4.594   5.132   2.389 -1.3837  1.6704 -0.3631
 8846TIP3   OH226501   5.321   1.381   5.833  0.3165 -0.0671 -0.1535
 8846TIP3    H126502   5.407   1.403   5.871 -0.4813  0.8968  1.1850
 8846TIP3    H226503   5.315   1.437   5.755  0.4962  0.6194  0.3127
 8847TIP3   OH226504   0.160   3.873   3.701 -0.4053 -0.4533  0.0694
 8847TIP3    H126505   0.231   3.818   3.669  0.1566 -0.0932  0.6743
 8847TIP3    H226506   0.170   3.955   3.654 -0.0034 -0.1674  0.6447
 8848TIP3   OH226507   6.417   1.000   2.673 -0.5228  0.3198  0.6522
 8848TIP3    H126508   6.460   0.946   2.739 -0.7586  1.0000  1.3685
 8848TIP3    H226509   6.478   1.001   2.600  1.1725  2.0686  2.0030
 8849TIP3   OH226510   5.437   3.913   1.959  0.0350  0.0534  0.7898
 8849TIP3    H126511   5.421   3.991   1.905  0.8687 -0.6042 -0.4284
 8849TIP3    H226512   5.353   3.868   1.961  0.2709 -0.5154 -0.9589
 8850TIP3   OH226513   0.117   3.745   0.328 -0.3049 -0.2029  0.5798
 8850TIP3    H126514   0.058   3.676   0.358 -1.5786  0.5980  0.0012
 8850TIP3    H226515   0.076   3.779   0.248  0.0680  1.5033  1.0756
 8851TIP3   OH226516   6.168   0.147   1.728  0.6248 -0.0638 -0.0606
 8851TIP3    H126517   6.091   0.203   1.722  0.5685 -0.0637  0.6377
 8851TIP3    H226518   6.145   0.070   1.677  0.4446  0.2498 -0.4651
 8852TIP3   OH226519   5.883   1.143   1.528  0.1753  0.3724 -0.1169
 8852TIP3    H126520   5.913   1.063   1.486 -0.4190  1.1661 -2.1671
 8852TIP3    H226521   5.792   1.126   1.550  0.0941  0.4195 -0.4113
 8853TIP3   OH226522   4.598   2.868   3.315 -0.3762  0.0706 -0.7432
 8853TIP3    H126523   4.628   2.777   3.308  0.9928  0.5386 -1.2316
 8853TIP3    H226524   4.628   2.896   3.402 -0.2820  0.2308 -0.8275
 8854TIP3   OH226525   3.824   4.283   0.093 -0.2065  0.2005 -0.1831
 8854TIP3    H126526   3.799   4.296   0.184  0.7228  0.5520  0.0266
 8854TIP3    H226527   3.917   4.262   0.096 -0.1140  0.4495 -1.0714
 8855TIP3   OH226528   7.086   5.259   3.318  0.2694 -0.1197 -0.1610
 8855TIP3    H126529   7.175   5.291   3.332 -0.2831  1.3476  0.2200
 8855TIP3    H226530   7.034   5.339   3.304 -1.5238 -0.6623  2.6196
 8856TIP3   OH226531   3.845   0.337   1.848 -0.3631 -0.6950  0.0079
 8856TIP3    H126532   3.872   0.318   1.759  0.3788 -1.4732  0.3813
 8856TIP3    H226533   3.790   0.263   1.873  1.9092 -2.0807  1.2074
 8857TIP3   OH226534   2.628   0.330   2.393 -0.1360  0.2564 -0.0525
 8857TIP3    H126535   2.656   0.241   2.414  2.0809  0.5759 -1.2868
 8857TIP3    H226536   2.664   0.384   2.463 -0.9815  0.2492  0.3890
 8858TIP3   OH226537   4.919   4.671   2.406 -0.1399  0.1894 -0.4847
 8858TIP3    H126538   4.854   4.642   2.469  0.0068  2.2100  0.6690
 8858TIP3    H226539   5.000   4.678   2.457  0.4564 -0.0552 -1.3686
 8859TIP3   OH226540   5.339   6.142   1.216  0.8017 -0.1710 -0.2009
 8859TIP3    H126541   5.252   6.109   1.239  1.2239 -1.3367 -0.2318
 8859TIP3    H226542   5.394   6.120   1.291  1.2597 -0.1916 -0.5390
 8860TIP3   OH226543   4.841   2.283   3.095  0.9166  0.0089 -0.2262
 8860TIP3    H126544   4.753   2.285   3.133  0.2682 -0.8955 -1.6007
 8860TIP3    H226545   4.890   2.224   3.152  0.6927  0.6683  0.6626
 8861TIP3   OH226546   0.031   0.114   5.038 -0.1490  0.5377 -0.4231
 8861TIP3    H126547   0.055   0.196   5.081  0.1155  0.0330  0.4191
 8861TIP3    H226548  -0.034   0.139   4.972 -1.1231  1.2398  0.7720
 8862TIP3   OH226549   2.312   1.216   1.930 -0.3913  0.0549  0.0216
 8862TIP3    H126550   2.335   1.309   1.931  0.9449 -0.2338  2.1469
 8862TIP3    H226551   2.396   1.171   1.914 -0.8834 -0.8182 -0.1637
 8863TIP3   OH226552   3.789   6.510   0.573 -0.6705  0.0202 -0.6566
 8863TIP3    H126553   3.760   6.472   0.489 -1.0867 -0.7039 -0.1943
 8863TIP3    H226554   3.862   6.567   0.549 -0.2667 -0.7963 -1.4212
 8864TIP3   OH226555   5.511   3.485   2.562  0.6751  0.2603  0.4456
 8864TIP3    H126556   5.589   3.499   2.615  0.3921  0.4484  0.8094
 8864TIP3    H226557   5.445   3.454   2.623  0.4312  0.2035  0.1556
 8865TIP3   OH226558   6.919   2.548   4.756  0.4347  0.1213  0.4528
 8865TIP3    H126559   6.970   2.487   4.703  0.0038 -0.8290  1.1086
 8865TIP3    H226560   6.838   2.501   4.776 -0.2676  1.2092  0.3021
 8866TIP3   OH226561   2.396   5.406   2.362  0.0030  0.2662 -0.2316
 8866TIP3    H126562   2.398   5.447   2.448  0.4518  0.3843 -0.2924
 8866TIP3    H226563   2.341   5.329   2.373  2.6270 -1.5846  1.0345
 8867TIP3   OH226564   1.217   3.402   3.692  0.0141 -0.5058  0.4820
 8867TIP3    H126565   1.253   3.351   3.765  0.6500 -2.0672 -0.8594
 8867TIP3    H226566   1.158   3.340   3.647 -1.2206  0.7651  0.2793
 8868TIP3   OH226567   2.827   5.347   3.002  0.3450 -0.0594 -0.2370
 8868TIP3    H126568   2.839   5.255   3.027 -0.5162 -0.3292 -0.7846
 8868TIP3    H226569   2.890   5.362   2.933  0.0193 -0.4408 -0.6214
 8869TIP3   OH226570   6.978   0.961   4.967 -0.3797 -0.4308  0.6317
 8869TIP3    H126571   6.901   0.904   4.969 -0.9684  0.2608 -0.7059
 8869TIP3    H226572   6.990   0.981   4.874 -0.2770  1.6982  1.0395
 8870TIP3   OH226573   5.063   2.231   5.628 -0.3862 -0.0864  0.5950
 8870TIP3    H126574   5.004   2.306   5.642 -1.1770 -0.1051 -2.1343
 8870TIP3    H226575   5.146   2.270   5.603 -1.2444  0.0239 -2.5054
 8871TIP3   OH226576   6.196   4.918   1.434 -0.0931 -0.0351  0.0809
 8871TIP3    H126577   6.281   4.947   1.400  1.1058 -3.7307 -0.4534
 8871TIP3    H226578   6.217   4.867   1.512 -1.7174 -1.6534 -0.4694
 8872TIP3   OH226579   1.649   6.534   1.674  0.6666 -0.2181  0.1433
 8872TIP3    H126580   1.556   6.554   1.661  0.2663 -2.5760 -1.2451
 8872TIP3    H226581   1.663   6.546   1.768 -1.4919 -1.3169  0.6734
 8873TIP3   OH226582   1.871   4.966   1.208  0.0102  0.5687  0.3936
 8873TIP3    H126583   1.925   4.942   1.133 -0.5170  2.0530 -0.5049
 8873TIP3    H226584   1.791   5.001   1.170 -1.1278 -0.5029  1.6831
 8874TIP3   OH226585   6.549   3.182   4.817  0.1507  0.0096  0.4581
 8874TIP3    H126586   6.464   3.147   4.790  0.0751  0.4694  0.0935
 8874TIP3    H226587   6.591   3.210   4.736  0.4545  0.2190  0.6836
 8875TIP3   OH226588   3.119   1.236   4.236 -0.2266  0.1318  0.0513
 8875TIP3    H126589   3.145   1.167   4.298 -0.1000 -0.5290 -0.7202
 8875TIP3    H226590   3.042   1.276   4.276  0.3260  0.2521  1.0209
 8876TIP3   OH226591   5.416   1.453   0.678 -0.5991 -0.2004  0.6790
 8876TIP3    H126592   5.430   1.503   0.759  1.9738 -1.6800  1.2765
 8876TIP3    H226593   5.321   1.443   0.672 -0.9412  1.0987  2.7953
 8877TIP3   OH226594   5.503   4.049   1.264  0.0702 -0.2300 -0.0409
 8877TIP3    H126595   5.571   4.076   1.327  0.9897 -0.9367 -0.7136
 8877TIP3    H226596   5.431   4.018   1.319  0.6190 -0.2635  0.6798
 8878TIP3   OH226597   7.066   3.474   2.757  0.0473  0.6006  0.1519
 8878TIP3    H126598   7.027   3.401   2.708 -2.7743  1.2215  1.2905
 8878TIP3    H226599   7.132   3.432   2.812  0.4551 -0.6698 -1.2401
 8879TIP3   OH226600   2.459   5.214   1.763  0.0584  0.2968  0.1635
 8879TIP3    H126601   2.528   5.148   1.756  0.3363 -0.3019  5.0139
 8879TIP3    H226602   2.378   5.163   1.766  0.2031  0.1023  2.9666
 8880TIP3   OH226603   5.167   2.130   5.917  0.1178  0.7444 -0.3398
 8880TIP3    H126604   5.179   2.040   5.885  0.5843  0.1638  1.3432
 8880TIP3    H226605   5.148   2.181   5.839 -0.3531 -0.8559 -1.3141
 8881TIP3   OH226606   5.508   1.538   1.071 -0.5660 -0.0043  0.4312
 8881TIP3    H126607   5.564   1.472   1.030  0.0976 -0.3312  1.7963
 8881TIP3    H226608   5.454   1.488   1.133 -0.6329  0.6314  0.8956
 8882TIP3   OH226609   4.933   4.448   3.484  0.1665  0.4291 -0.2779
 8882TIP3    H126610   4.966   4.537   3.494 -1.2035  1.0421 -1.0020
 8882TIP3    H226611   4.855   4.457   3.429 -0.0664 -1.2018 -0.2582
 8883TIP3   OH226612   4.226   1.436   1.216  0.3125  0.0224  0.4033
 8883TIP3    H126613   4.149   1.485   1.187 -0.4913 -1.6894 -0.4472
 8883TIP3    H226614   4.249   1.476   1.300 -1.2473  0.8431  0.4746
 8884TIP3   OH226615   6.402   2.821   5.225  0.8481 -0.1170 -0.0304
 8884TIP3    H126616   6.322   2.783   5.261  0.5979  0.5289  0.1263
 8884TIP3    H226617   6.392   2.812   5.130 -1.2330  3.2649 -0.3283
 8885TIP3   OH226618   6.335   0.118   0.397  0.1737  0.5652  0.1363
 8885TIP3    H126619   6.279   0.136   0.472 -1.3673 -1.0994 -0.5280
 8885TIP3    H226620   6.424   0.119   0.432 -0.4786  0.2603  1.8942
 8886TIP3   OH226621   5.792   4.817   3.183 -0.5190  0.0472 -0.5131
 8886TIP3    H126622   5.754   4.735   3.152  0.8386 -1.0385  0.5802
 8886TIP3    H226623   5.741   4.885   3.139 -2.3649 -1.3494 -0.6341
 8887TIP3   OH226624   1.741   4.650   5.439 -0.4804  0.2028 -0.3060
 8887TIP3    H126625   1.732   4.581   5.373  0.4208 -0.7963  0.5925
 8887TIP3    H226626   1.836   4.659   5.452 -0.5895 -1.9757  3.2294
 8888TIP3   OH226627   0.933   0.992   4.834  0.3457 -0.3988 -0.1225
 8888TIP3    H126628   0.943   0.967   4.742 -0.7773 -0.5164 -0.2274
 8888TIP3    H226629   0.862   0.937   4.866 -0.0818  0.4825  0.4843
 8889TIP3   OH226630   0.728   0.029   3.041 -0.6647  0.2343  0.1357
 8889TIP3    H126631   0.657  -0.014   3.089 -1.1183  0.0171 -0.7019
 8889TIP3    H226632   0.708   0.123   3.047 -1.5550  0.1272 -0.8753
 8890TIP3   OH226633   1.382   1.613   2.367  0.2013  0.1776 -0.3859
 8890TIP3    H126634   1.412   1.700   2.338  1.9052 -0.1885  0.1640
 8890TIP3    H226635   1.409   1.554   2.297  1.2970 -0.2374  0.3631
 8891TIP3   OH226636   4.236   3.101   3.265 -0.4830  0.0245  0.2949
 8891TIP3    H126637   4.250   3.153   3.345 -0.0719 -0.8944  0.8372
 8891TIP3    H226638   4.164   3.146   3.220 -0.5392  0.7185  1.0429
 8892TIP3   OH226639   2.228   0.525   2.570  0.4803 -0.3264 -0.1898
 8892TIP3    H126640   2.210   0.617   2.588 -1.5210 -0.9034  1.0835
 8892TIP3    H226641   2.237   0.484   2.656 -0.9824 -1.7086 -0.6455
 8893TIP3   OH226642   1.597   5.814   1.367 -0.2988 -0.1040  0.1352
 8893TIP3    H126643   1.682   5.791   1.405 -0.8665 -1.1905  0.7953
 8893TIP3    H226644   1.599   5.909   1.360 -0.0568  0.1321  2.6673
 8894TIP3   OH226645   5.178   1.853   5.308  0.0928 -0.0328  0.1168
 8894TIP3    H126646   5.178   1.789   5.237  1.3232 -0.2000  0.2518
 8894TIP3    H226647   5.188   1.938   5.264 -1.4475  0.0970 -0.0554
 8895TIP3   OH226648   1.996   4.599   0.515  0.6110 -0.8438  0.5457
 8895TIP3    H126649   2.032   4.535   0.577  1.7741 -1.1823 -0.4420
 8895TIP3    H226650   2.072   4.637   0.472 -0.0440  1.4598  1.2889
 8896TIP3   OH226651   3.271   4.941   2.650  0.3478  0.6341  0.2912
 8896TIP3    H126652   3.186   4.955   2.608  1.2396  2.4231 -1.0212
 8896TIP3    H226653   3.333   4.935   2.578  1.3004 -1.3667  1.2097
 8897TIP3   OH226654   1.940   5.789   3.326  0.1994 -0.4815 -0.0818
 8897TIP3    H126655   1.919   5.768   3.417  0.9025  0.9043  0.4374
 8897TIP3    H226656   1.971   5.880   3.330 -1.8280  0.3871 -2.0045
 8898TIP3   OH226657   1.872   3.085   4.400  0.5337  0.0422  0.2196
 8898TIP3    H126658   1.846   3.177   4.400 -0.7312 -0.2962 -0.4416
 8898TIP3    H226659   1.904   3.069   4.489  2.4423  1.5404 -0.1419
 8899TIP3   OH226660   1.298   0.077   2.442  0.0598 -0.7203  0.4309
 8899TIP3    H126661   1.266   0.131   2.370 -0.8856 -1.6514  0.1255
 8899TIP3    H226662   1.302   0.137   2.516  0.3196  0.0798 -0.2100
 8900TIP3   OH226663   4.816   2.979   3.835  0.4595 -0.2464  0.1175
 8900TIP3    H126664   4.843   3.067   3.860  0.4070 -0.6786  1.8333
 8900TIP3    H226665   4.891   2.924   3.857  0.6302 -0.6001 -1.2831
 8901TIP3   OH226666   5.437   4.465   3.329 -1.2257  0.3220 -0.6092
 8901TIP3    H126667   5.448   4.559   3.323 -0.8807  0.4935  1.7759
 8901TIP3    H226668   5.395   4.451   3.414  1.3064 -1.8331  0.4127
 8902TIP3   OH226669   0.423   2.838   5.768  0.0805  0.4009  0.5854
 8902TIP3    H126670   0.480   2.781   5.820  1.2170 -0.4349 -1.4341
 8902TIP3    H226671   0.477   2.861   5.692 -1.9492  0.3809 -0.9421
 8903TIP3   OH226672   3.735   4.891   1.090  0.0755 -0.3059 -0.0165
 8903TIP3    H126673   3.714   4.810   1.042 -1.6599 -0.2487  0.5670
 8903TIP3    H226674   3.660   4.904   1.147  0.0264  2.0661 -0.5281
 8904TIP3   OH226675   0.727   2.333   3.916  0.0038  0.1395  0.2355
 8904TIP3    H126676   0.748   2.268   3.849 -0.5330  1.4438 -1.2515
 8904TIP3    H226677   0.649   2.377   3.883  0.1091  1.2790  1.4096
 8905TIP3   OH226678   3.661   1.294   5.797 -0.0066  0.0837 -0.1760
 8905TIP3    H126679   3.637   1.307   5.889 -0.3514  0.2989 -0.2945
 8905TIP3    H226680   3.616   1.213   5.773  0.5486 -0.2841  0.0048
 8906TIP3   OH226681   1.401   4.636   1.698  0.1189  0.9220 -0.2149
 8906TIP3    H126682   1.385   4.635   1.604  0.4275  1.9618 -0.2906
 8906TIP3    H226683   1.407   4.544   1.722 -2.3558  0.5359 -0.7765
 8907TIP3   OH226684   2.659   1.444   2.486  0.2577 -0.7669  0.0109
 8907TIP3    H126685   2.646   1.409   2.398 -0.5879 -1.8260  0.5466
 8907TIP3    H226686   2.581   1.496   2.503  0.5570 -0.3170  0.0331
 8908TIP3   OH226687   3.307   0.790   5.491  0.0204  0.6582 -0.4703
 8908TIP3    H126688   3.249   0.865   5.499  0.6988  1.1818 -0.3564
 8908TIP3    H226689   3.273   0.727   5.554  0.8520  1.8259  1.2547
 8909TIP3   OH226690   1.691   1.030   3.189  0.3961  0.5489 -0.2076
 8909TIP3    H126691   1.698   0.996   3.278  0.9430  1.0454 -0.0572
 8909TIP3    H226692   1.641   1.111   3.198  0.2153  0.4568 -0.3893
 8910TIP3   OH226693   1.388   0.412   5.792 -1.1204 -0.4829 -0.0845
 8910TIP3    H126694   1.365   0.491   5.840  1.7310 -1.0287  2.4672
 8910TIP3    H226695   1.305   0.380   5.756 -2.8666  1.8069  1.6665
 8911TIP3   OH226696   2.648   4.422   1.527 -0.4270  0.5320  0.0056
 8911TIP3    H126697   2.682   4.503   1.488 -0.2393  0.0326 -0.9030
 8911TIP3    H226698   2.655   4.436   1.621 -0.1685  1.4809 -0.1426
 8912TIP3   OH226699   1.320   5.209   1.702 -0.0643  0.1718  0.1840
 8912TIP3    H126700   1.262   5.143   1.740  0.0712  0.8284  1.5971
 8912TIP3    H226701   1.324   5.278   1.768  0.9607  0.9277 -0.6364
 8913TIP3   OH226702   1.186   5.006   0.779 -0.4128 -0.0074  0.1761
 8913TIP3    H126703   1.145   5.092   0.790  1.3479  1.2732 -2.2219
 8913TIP3    H226704   1.268   5.025   0.734 -0.1550 -3.0111 -0.8267
 8914TIP3   OH226705   2.788   4.957   5.317  0.4423 -0.1546 -0.4609
 8914TIP3    H126706   2.801   4.888   5.252 -0.7226 -1.4498  0.6174
 8914TIP3    H226707   2.730   4.918   5.383  0.6207  1.4975  0.7534
 8915TIP3   OH226708   6.602   0.613   0.189  0.4351 -0.1365 -0.0243
 8915TIP3    H126709   6.688   0.647   0.164  0.4170 -1.7065 -2.5544
 8915TIP3    H226710   6.555   0.689   0.223  2.7582  0.7726  1.4126
 8916TIP3   OH226711   2.448   5.659   2.205 -0.2501 -0.2810  0.0845
 8916TIP3    H126712   2.413   5.727   2.263 -0.4385  0.2007 -0.5714
 8916TIP3    H226713   2.405   5.578   2.233  0.8561 -0.3702  1.6488
 8917TIP3   OH226714   1.044   5.800   4.413 -0.1726  0.9535 -0.4984
 8917TIP3    H126715   1.069   5.881   4.458 -0.4651  0.5214  0.4761
 8917TIP3    H226716   0.975   5.826   4.352 -0.0865  1.4796 -0.3755
 8918TIP3   OH226717   3.553   3.803   3.376 -0.0370  0.2496  0.0152
 8918TIP3    H126718   3.540   3.731   3.438 -4.0866  2.6177  2.4422
 8918TIP3    H226719   3.610   3.864   3.423  0.7178  0.0937 -0.6694
 8919TIP3   OH226720   5.483   1.120   0.488 -0.2283 -0.0301 -0.5114
 8919TIP3    H126721   5.508   1.041   0.535  1.0381  0.1885 -0.7773
 8919TIP3    H226722   5.390   1.130   0.505 -0.0989 -0.7572  0.7511
 8920TIP3   OH226723   5.801   4.869   2.690 -0.2760 -0.3240  0.1202
 8920TIP3    H126724   5.743   4.798   2.716  0.8858 -1.0517  0.8450
 8920TIP3    H226725   5.888   4.829   2.688  0.6189  1.3754  1.9544
 8921TIP3   OH226726   6.546   2.746   4.297  0.6063 -0.3170 -0.0979
 8921TIP3    H126727   6.575   2.777   4.383 -0.0165  0.2167 -0.0735
 8921TIP3    H226728   6.599   2.668   4.280  1.2134 -0.0324  0.4656
 8922TIP3   OH226729   2.023   3.547   3.678 -0.0397  0.0403  0.0363
 8922TIP3    H126730   2.052   3.598   3.602  0.3807 -0.0715  0.1157
 8922TIP3    H226731   2.074   3.466   3.673 -0.8608 -0.4659 -0.2069
 8923TIP3   OH226732   3.463   6.487   5.328 -0.4382 -0.1283  0.3750
 8923TIP3    H126733   3.426   6.466   5.414 -0.8812  0.1552  0.2555
 8923TIP3    H226734   3.541   6.432   5.322 -0.0208  0.3452  1.2532
 8924TIP3   OH226735   3.059   4.187   4.329 -0.2097  0.2102 -0.5949
 8924TIP3    H126736   3.073   4.249   4.258 -0.9631  0.9004 -0.1516
 8924TIP3    H226737   3.072   4.238   4.409  0.6080 -0.5467 -0.2199
 8925TIP3   OH226738   1.278   1.882   3.920 -0.1868  0.1904  0.0086
 8925TIP3    H126739   1.301   1.933   3.998  2.1187  0.0711 -0.5462
 8925TIP3    H226740   1.295   1.941   3.847 -0.8174 -0.2452 -0.5052
 8926TIP3   OH226741   4.303   1.725   1.901  0.2005  0.4157 -0.4471
 8926TIP3    H126742   4.368   1.660   1.928  0.3386  0.4940 -0.5920
 8926TIP3    H226743   4.250   1.680   1.835 -0.6409 -0.0484  0.5026
 8927TIP3   OH226744   1.706   1.454   3.222  0.5364  0.1855  0.3603
 8927TIP3    H126745   1.631   1.395   3.211  0.3653  0.5845 -0.7501
 8927TIP3    H226746   1.671   1.528   3.271  0.4198 -0.0306  0.6029
 8928TIP3   OH226747   3.607   2.407   5.541 -0.2834  0.1962 -0.4896
 8928TIP3    H126748   3.566   2.481   5.586 -0.4553  0.6014 -1.2963
 8928TIP3    H226749   3.638   2.350   5.612  1.0661  1.6811  0.1996
 8929TIP3   OH226750   5.678   3.994   2.164  0.0532  0.4398 -0.3641
 8929TIP3    H126751   5.637   4.067   2.211  0.3573  1.0170 -0.9662
 8929TIP3    H226752   5.665   4.016   2.072  2.4133  1.0890 -0.6168
 8930TIP3   OH226753   1.124   6.263   2.399 -0.3520  0.3251 -0.2676
 8930TIP3    H126754   1.164   6.241   2.314  0.2548  1.4047 -0.2866
 8930TIP3    H226755   1.031   6.267   2.381 -0.7165 -3.2815 -0.0015
 8931TIP3   OH226756   1.253   0.864   0.289 -0.7573  0.1010  0.7390
 8931TIP3    H126757   1.343   0.890   0.269  0.5999 -3.2162  1.8930
 8931TIP3    H226758   1.208   0.870   0.205  1.4851 -1.4012 -0.6947
 8932TIP3   OH226759   2.968   4.671   3.366  0.1958  0.3122  0.3888
 8932TIP3    H126760   2.919   4.644   3.289 -0.5622  0.7183  0.7157
 8932TIP3    H226761   2.967   4.594   3.424  0.0882  0.2676  0.3264
 8933TIP3   OH226762   6.013   3.753   4.960  0.6432 -0.6318 -0.3793
 8933TIP3    H126763   6.002   3.841   4.924 -1.5918 -0.9520 -0.6176
 8933TIP3    H226764   6.047   3.702   4.886  0.4801 -0.2922 -0.6960
 8934TIP3   OH226765   1.836   5.215   0.231 -0.0767 -0.0018  0.2293
 8934TIP3    H126766   1.873   5.255   0.309  0.7480  0.0336 -0.1740
 8934TIP3    H226767   1.871   5.126   0.230 -0.9251 -0.3478  0.4634
 8935TIP3   OH226768   1.938   5.220   2.253  0.4283  0.4102 -0.1755
 8935TIP3    H126769   1.963   5.191   2.341  2.9198 -1.0295 -1.2319
 8935TIP3    H226770   1.984   5.303   2.242  0.8787  0.1383 -0.4042
 8936TIP3   OH226771   4.152   6.503   2.395 -0.2551 -0.3636  0.6097
 8936TIP3    H126772   4.229   6.449   2.375 -1.3931 -1.5459 -0.8762
 8936TIP3    H226773   4.174   6.589   2.360  0.1197 -0.8918 -0.5482
 8937TIP3   OH226774   3.352   3.825   2.769 -0.3168  0.3049  0.6494
 8937TIP3    H126775   3.405   3.899   2.801  0.2031  0.4515 -0.5082
 8937TIP3    H226776   3.330   3.776   2.848  0.8837  0.6805  1.2460
 8938TIP3   OH226777   0.887   0.004   1.572  0.1868 -0.5886  0.4307
 8938TIP3    H126778   0.958   0.024   1.633  0.5177  1.4177 -0.5110
 8938TIP3    H226779   0.815  -0.024   1.628  1.1490 -0.8927  1.5596
 8939TIP3   OH226780   3.690   1.388   3.750  0.0896 -0.0264 -0.7453
 8939TIP3    H126781   3.688   1.311   3.693  1.3172  0.8269 -2.0029
 8939TIP3    H226782   3.782   1.399   3.773  0.2118  2.0110 -1.9859
 8940TIP3   OH226783   3.201   5.015   1.325  0.1600  0.1835 -0.0127
 8940TIP3    H126784   3.181   5.090   1.270 -0.9419 -0.2494 -0.2155
 8940TIP3    H226785   3.245   4.953   1.266 -1.9643 -0.7260 -0.7306
 8941TIP3   OH226786   0.480   4.846   3.093  0.1136 -0.8129  0.1565
 8941TIP3    H126787   0.512   4.804   3.013 -1.5023 -1.3032 -0.2722
 8941TIP3    H226788   0.461   4.773   3.152  0.2230 -0.5092  0.5710
 8942TIP3   OH226789   6.794   3.537   5.814 -0.2352 -0.1098  0.4394
 8942TIP3    H126790   6.884   3.550   5.843  0.3547  0.3270 -1.4900
 8942TIP3    H226791   6.788   3.443   5.795  0.5705  0.2278 -1.7043
 8943TIP3   OH226792   2.613   4.584   5.784  0.3743 -0.0355  0.6717
 8943TIP3    H126793   2.632   4.570   5.691  1.1380  2.3646  0.3912
 8943TIP3    H226794   2.689   4.549   5.830  0.7125  0.1437  0.2602
 8944TIP3   OH226795   4.863   6.815   3.233  0.0642  0.6455 -0.3604
 8944TIP3    H126796   4.881   6.728   3.268 -1.1798  0.7187  0.5509
 8944TIP3    H226797   4.939   6.836   3.179 -0.5165 -1.8869 -2.3818
 8945TIP3   OH226798   0.713   6.310   5.541 -0.3668 -0.4169 -0.0583
 8945TIP3    H126799   0.777   6.239   5.532 -1.3793 -1.4714  0.8420
 8945TIP3    H226800   0.630   6.266   5.557 -1.0864  0.9753  0.1762
 8946TIP3   OH226801   1.328   1.902   5.484 -0.1393  0.0177  0.2747
 8946TIP3    H126802   1.269   1.941   5.420 -1.0247 -0.9160  0.5079
 8946TIP3    H226803   1.380   1.976   5.516  0.9861  0.3832 -2.1645
 8947TIP3   OH226804   6.682   1.292   0.504  0.8710  0.2022 -0.2315
 8947TIP3    H126805   6.714   1.243   0.580  3.2023 -0.4187 -1.5181
 8947TIP3    H226806   6.586   1.288   0.512  0.9994 -2.2347  1.1696
 8948TIP3   OH226807   2.307   2.881   2.403  0.5401 -0.5020  0.0231
 8948TIP3    H126808   2.232   2.876   2.344  0.0762  2.6314  0.1393
 8948TIP3    H226809   2.270   2.912   2.486  1.6994 -1.0267  0.7700
 8949TIP3   OH226810   1.284   5.589   0.537  0.2008 -0.2573 -0.2661
 8949TIP3    H126811   1.341   5.599   0.461 -0.3649 -0.7010 -0.7585
 8949TIP3    H226812   1.295   5.498   0.564  0.8203  0.0396  0.5407
 8950TIP3   OH226813   3.928   1.711   1.460 -0.0219 -0.9884 -0.5503
 8950TIP3    H126814   3.838   1.717   1.491  0.0601 -1.9773 -0.0805
 8950TIP3    H226815   3.952   1.619   1.474  1.3850 -0.5297  0.2300
 8951TIP3   OH226816   4.493   3.762   2.723 -0.0929 -0.1861  0.0553
 8951TIP3    H126817   4.431   3.818   2.676 -0.5907 -0.9851 -0.2684
 8951TIP3    H226818   4.538   3.821   2.783  2.7897  1.5803 -3.4331
 8952TIP3   OH226819   1.546   2.617   5.849 -0.4044  0.6090 -0.3680
 8952TIP3    H126820   1.596   2.662   5.781 -0.6296  0.8469 -0.3774
 8952TIP3    H226821   1.456   2.614   5.815 -0.4459  0.4027 -0.2428
 8953TIP3   OH226822   5.932   1.579   3.719  0.0918  0.1410 -0.1542
 8953TIP3    H126823   6.027   1.570   3.722  0.0185 -0.9919 -0.5944
 8953TIP3    H226824   5.916   1.672   3.702  1.0848  0.5770  1.1787
 8954TIP3   OH226825   5.874   6.132   2.449  0.1878  0.5568 -0.1101
 8954TIP3    H126826   5.844   6.183   2.374 -4.5748 -1.2775  0.1978
 8954TIP3    H226827   5.874   6.042   2.418  1.1275  0.0376  1.2949
 8955TIP3   OH226828   2.116   1.854   0.198 -0.5262  0.0671  0.2669
 8955TIP3    H126829   2.098   1.765   0.167 -0.4091 -0.7942  2.5132
 8955TIP3    H226830   2.141   1.902   0.119 -1.7411 -1.5655 -1.1939
 8956TIP3   OH226831   2.934   6.298   2.872 -0.0865 -0.1223  0.2785
 8956TIP3    H126832   3.001   6.360   2.900 -0.7981  1.1125 -0.6263
 8956TIP3    H226833   2.983   6.224   2.836  0.8156 -1.0027  3.0909
 8957TIP3   OH226834   4.369   5.371   2.085 -0.1526  0.1029 -0.0333
 8957TIP3    H126835   4.289   5.418   2.065 -1.2633 -0.8787  1.7735
 8957TIP3    H226836   4.363   5.290   2.034  1.4411  1.5246 -2.6274
 8958TIP3   OH226837   4.663   2.800   2.917 -0.2259  0.1423 -0.3016
 8958TIP3    H126838   4.609   2.725   2.891  0.8147 -1.7066  2.4579
 8958TIP3    H226839   4.604   2.857   2.964 -0.1511 -1.2702  1.6153
 8959TIP3   OH226840   2.227   1.490   1.433  0.1714  0.1446  0.0581
 8959TIP3    H126841   2.302   1.459   1.381 -0.1143  1.2898 -1.0752
 8959TIP3    H226842   2.248   1.462   1.523  1.1098 -1.0900 -0.5047
 8960TIP3   OH226843   2.066   0.179   0.841  0.0094  0.1632 -0.4394
 8960TIP3    H126844   1.972   0.198   0.847  0.4941  2.5727  0.3588
 8960TIP3    H226845   2.080   0.156   0.749 -1.1694  0.9503 -0.8376
 8961TIP3   OH226846   4.152   3.349   5.701 -0.3707 -0.0446  0.1791
 8961TIP3    H126847   4.072   3.399   5.713  0.0607  0.7012 -0.0080
 8961TIP3    H226848   4.221   3.401   5.743  0.0183 -0.6889  0.3692
 8962TIP3   OH226849   5.634   1.802   1.586  0.5116  0.0161 -0.1158
 8962TIP3    H126850   5.635   1.855   1.666  0.3241  0.5023 -0.4291
 8962TIP3    H226851   5.627   1.866   1.515  0.1810 -0.4339 -0.4967
 8963TIP3   OH226852   4.458   5.147   2.871  0.3808 -0.2416  0.1535
 8963TIP3    H126853   4.398   5.221   2.878  1.6973  0.8365  0.5375
 8963TIP3    H226854   4.462   5.111   2.960 -1.0780 -1.4758 -0.2528
 8964TIP3   OH226855   0.905   1.687   2.924 -0.1530  0.1940  0.4346
 8964TIP3    H126856   0.854   1.643   2.856 -0.1020 -1.6521  1.5266
 8964TIP3    H226857   0.987   1.710   2.881 -0.6837  0.4105 -0.5094
 8965TIP3   OH226858   1.774   4.342   0.657  0.9305  0.0793 -0.2133
 8965TIP3    H126859   1.703   4.292   0.698  1.6519 -0.5678  0.2906
 8965TIP3    H226860   1.799   4.291   0.581  1.3626 -0.1046  0.0451
 8966TIP3   OH226861   2.250   4.261   4.996  0.0760  0.4544 -0.1090
 8966TIP3    H126862   2.338   4.248   5.031 -0.0037 -0.1315 -0.1221
 8966TIP3    H226863   2.260   4.334   4.935  0.2555  1.3588  0.9695
 8967TIP3   OH226864   1.098   3.291   4.025  0.3412 -0.5116  0.0062
 8967TIP3    H126865   1.107   3.383   4.002 -1.8532 -0.5925 -1.4885
 8967TIP3    H226866   1.114   3.288   4.120  0.4922  1.3854  0.0752
 8968TIP3   OH226867   5.190   1.412   4.071  0.1126  0.0347 -0.7940
 8968TIP3    H126868   5.267   1.469   4.068 -0.5605  1.2385  1.6729
 8968TIP3    H226869   5.219   1.335   4.119 -0.3260  0.8838  0.9638
 8969TIP3   OH226870   2.117   2.846   4.766 -0.1084 -0.3878  0.1365
 8969TIP3    H126871   2.133   2.891   4.849 -1.8331  0.4614  0.0684
 8969TIP3    H226872   2.164   2.897   4.701  0.9513 -0.8462  0.5174
 8970TIP3   OH226873   5.444   1.342   3.462 -0.8287  0.0555 -0.1061
 8970TIP3    H126874   5.514   1.278   3.449  0.7277  1.6643 -0.0526
 8970TIP3    H226875   5.432   1.347   3.556  0.3764  1.1472  0.0162
 8971TIP3   OH226876   3.601   5.903   4.757  0.5841 -0.1905  0.0147
 8971TIP3    H126877   3.666   5.834   4.742  0.8479  0.2745 -1.0009
 8971TIP3    H226878   3.523   5.873   4.710 -0.7407 -1.7835  2.8866
 8972TIP3   OH226879   3.697   4.588   1.073  0.2998  0.3128 -0.1732
 8972TIP3    H126880   3.693   4.513   1.013  0.3957  0.8422 -0.8595
 8972TIP3    H226881   3.745   4.556   1.149  0.9334 -0.1281 -0.7494
 8973TIP3   OH226882   2.021   3.696   5.316  0.9151  0.1158  0.4105
 8973TIP3    H126883   2.109   3.725   5.291  0.6707 -0.0961 -0.7600
 8973TIP3    H226884   1.976   3.681   5.232 -0.0676 -0.2836  0.9940
 8974TIP3   OH226885   0.537   5.323   4.157 -0.1430 -0.4083 -0.4193
 8974TIP3    H126886   0.628   5.341   4.132 -0.2335 -0.3754 -0.7340
 8974TIP3    H226887   0.543   5.283   4.243  0.0929  0.7444  0.1223
 8975TIP3   OH226888   1.270   4.495   1.089  0.3132  0.2466  0.1795
 8975TIP3    H126889   1.310   4.425   1.037  0.7291  1.4359 -1.1774
 8975TIP3    H226890   1.224   4.450   1.160 -2.1799 -1.6616 -2.4360
 8976TIP3   OH226891   1.989   5.381   2.799 -0.3980 -0.1999  0.2163
 8976TIP3    H126892   1.978   5.294   2.762 -2.4659 -0.2894  0.9070
 8976TIP3    H226893   2.047   5.426   2.738 -1.6824 -1.1157 -1.7681
 8977TIP3   OH226894   4.832   0.881   0.907 -0.3511  0.3397  0.4858
 8977TIP3    H126895   4.823   0.875   1.002  0.3421 -1.5747  0.4788
 8977TIP3    H226896   4.743   0.870   0.874 -0.9593  3.1948  0.9021
 8978TIP3   OH226897   1.423   6.347   3.217  0.4616 -0.0276  0.2797
 8978TIP3    H126898   1.423   6.261   3.175  0.2485  0.1225 -0.0303
 8978TIP3    H226899   1.401   6.329   3.309  0.4286 -0.3048  0.2183
 8979TIP3   OH226900   0.542   4.844   5.879  0.3882  0.8049 -0.1509
 8979TIP3    H126901   0.469   4.888   5.922 -0.2186  0.0596 -0.3884
 8979TIP3    H226902   0.501   4.798   5.804  0.8218 -0.8728  0.5872
 8980TIP3   OH226903   2.962   2.071   2.517  0.0442 -0.0628 -0.3204
 8980TIP3    H126904   3.027   2.005   2.489  0.3296  0.0153  0.1465
 8980TIP3    H226905   2.911   2.027   2.585 -0.4693 -0.1574 -0.7571
 8981TIP3   OH226906   0.219   2.344   5.244  0.2895 -0.9050 -0.2461
 8981TIP3    H126907   0.179   2.258   5.235 -1.1898 -0.3628  0.7458
 8981TIP3    H226908   0.149   2.406   5.224  1.1156  0.0876 -0.1873
 8982TIP3   OH226909   5.072   4.546   4.972 -0.5338  0.0583 -0.1470
 8982TIP3    H126910   5.140   4.594   5.019  0.5947 -0.7442 -0.9012
 8982TIP3    H226911   5.070   4.460   5.013  0.4714 -0.6512 -1.5114
 8983TIP3   OH226912   4.103   5.360   2.432  0.6768 -0.1091  0.6054
 8983TIP3    H126913   4.190   5.398   2.417  0.7581 -0.8514 -0.9947
 8983TIP3    H226914   4.087   5.306   2.354 -1.5033  0.5489  0.5402
 8984TIP3   OH226915   3.916   4.715   3.333 -0.1211 -0.7447 -0.3043
 8984TIP3    H126916   3.830   4.756   3.332 -0.0387 -0.5642 -1.2118
 8984TIP3    H226917   3.910   4.646   3.398 -0.8862 -0.5953 -0.2136
 8985TIP3   OH226918   4.261   2.098   5.712  1.0837  0.0374 -0.2465
 8985TIP3    H126919   4.320   2.080   5.639  0.2229 -1.6941 -0.5656
 8985TIP3    H226920   4.316   2.139   5.778  2.0619  0.8727 -1.5373
 8986TIP3   OH226921   3.299   0.086   3.874  0.3452 -0.2097 -0.1726
 8986TIP3    H126922   3.249   0.006   3.859  1.1247 -0.4784 -1.3805
 8986TIP3    H226923   3.349   0.069   3.954 -0.9846 -0.1548  0.7239
 8987TIP3   OH226924   3.161   2.533   1.633  0.5562  0.1048 -0.5791
 8987TIP3    H126925   3.108   2.551   1.711  0.7633  0.5493 -0.5384
 8987TIP3    H226926   3.217   2.610   1.624  1.7709 -0.7039 -0.1412
 8988TIP3   OH226927   2.899   4.826   4.858  0.1286  0.1108  0.1293
 8988TIP3    H126928   2.971   4.863   4.808 -0.3711 -1.0956 -1.5841
 8988TIP3    H226929   2.867   4.753   4.804 -2.9633  1.1518  0.3394
 8989TIP3   OH226930   4.261   0.232   0.981 -0.3196 -0.1160 -0.8576
 8989TIP3    H126931   4.257   0.149   0.935  0.2650 -2.3204  2.6730
 8989TIP3    H226932   4.349   0.235   1.019 -0.6026  1.7392 -0.2306
 8990TIP3   OH226933   6.969   5.905   0.701  0.0723  0.2777 -0.2671
 8990TIP3    H126934   7.010   5.829   0.742  0.2538  0.4880 -0.0574
 8990TIP3    H226935   7.002   5.980   0.751 -2.7870  0.2984  1.8724
 8991TIP3   OH226936   5.821   2.999   4.212 -0.3148  0.1208  0.1641
 8991TIP3    H126937   5.746   2.994   4.153  0.1214 -1.0837 -0.3088
 8991TIP3    H226938   5.831   2.911   4.247  1.3261  0.0689 -0.3402
 8992TIP3   OH226939   3.831   2.812   2.693 -0.0604  0.0330  0.1083
 8992TIP3    H126940   3.887   2.834   2.768 -0.3059 -0.2087  0.3701
 8992TIP3    H226941   3.866   2.863   2.620 -0.7616  1.4737  0.7358
 8993TIP3   OH226942   3.678   6.163   1.545  0.7555 -0.9406 -0.2056
 8993TIP3    H126943   3.753   6.122   1.502  0.5242 -0.0921 -1.4597
 8993TIP3    H226944   3.620   6.090   1.566 -0.0322 -1.2731 -3.1477
 8994TIP3   OH226945   3.093   3.106   0.979 -0.1786  0.1496  0.4082
 8994TIP3    H126946   3.081   3.012   0.981 -2.0842  0.3304 -0.2876
 8994TIP3    H226947   3.048   3.138   1.057 -0.1045  0.5288  0.2981
 8995TIP3   OH226948   0.845   4.776   5.792 -0.1001 -0.6347 -0.2032
 8995TIP3    H126949   0.835   4.693   5.840  2.0357 -0.6262  0.3483
 8995TIP3    H226950   0.871   4.839   5.858  0.7942 -0.1166 -1.0369
 8996TIP3   OH226951   0.827   3.876   0.694  0.3674 -0.0216  0.6737
 8996TIP3    H126952   0.820   3.970   0.677  1.4481 -0.0803 -0.1923
 8996TIP3    H226953   0.781   3.863   0.777  0.6017  1.3388  1.0341
 8997TIP3   OH226954   3.251   2.104   4.800 -0.1433 -0.5057  0.1736
 8997TIP3    H126955   3.247   2.199   4.789 -1.0178 -0.7105 -1.6504
 8997TIP3    H226956   3.172   2.082   4.850 -0.2008 -0.3325  0.1589
 8998TIP3   OH226957   0.960   6.107   2.722 -0.1162 -0.3631 -0.3433
 8998TIP3    H126958   0.948   6.094   2.628  1.8695  2.4647 -1.0993
 8998TIP3    H226959   1.042   6.156   2.730 -1.6668  2.0959  2.6065
 8999TIP3   OH226960   5.093   3.957   2.736 -0.2433  0.0956 -0.2678
 8999TIP3    H126961   5.105   3.977   2.828  0.6180 -0.7587 -0.1784
 8999TIP3    H226962   5.173   3.911   2.711 -0.3177  0.6051 -1.5243
 9000TIP3   OH226963   1.076   4.462   4.623  0.1433  0.2868 -0.1885
 9000TIP3    H126964   1.096   4.552   4.600 -0.6115  0.2995 -0.8327
 9000TIP3    H226965   1.092   4.457   4.717 -1.6503  1.6399  0.2577
 9001TIP3   OH226966   4.436   6.662   2.315 -0.0015 -0.5298 -0.6883
 9001TIP3    H126967   4.479   6.695   2.237 -0.0586 -1.0221 -0.9367
 9001TIP3    H226968   4.353   6.709   2.319  0.1511 -0.2561 -0.7328
 9002TIP3   OH226969   2.440   3.915   1.113 -0.2873 -0.1272  0.2652
 9002TIP3    H126970   2.483   3.958   1.187 -1.8316  2.0641 -0.0149
 9002TIP3    H226971   2.511   3.898   1.051  0.5814  0.9547  0.9117
 9003TIP3   OH226972   1.220   6.212   4.186 -0.0642  0.0013  0.5767
 9003TIP3    H126973   1.158   6.171   4.126  0.0047 -1.1078  1.2306
 9003TIP3    H226974   1.253   6.288   4.138 -0.2616 -0.6547 -0.6537
 9004TIP3   OH226975   0.849   4.022   1.090 -0.6447  0.2160 -0.4851
 9004TIP3    H126976   0.943   4.040   1.089 -0.3252 -1.2041  0.3839
 9004TIP3    H226977   0.835   3.962   1.017 -1.1052  1.3478 -1.3477
 9005TIP3   OH226978   6.680   0.057   1.743 -0.5852 -0.3725  0.6657
 9005TIP3    H126979   6.601   0.042   1.691 -0.2219 -1.2078  0.3349
 9005TIP3    H226980   6.729  -0.025   1.736  0.2487  0.0877  0.9707
 9006TIP3   OH226981   6.131   1.732   2.990 -0.2479  0.3804  0.5365
 9006TIP3    H126982   6.086   1.770   3.066  1.5115  0.8973  1.3517
 9006TIP3    H226983   6.157   1.645   3.019  0.8490  0.7576  0.7024
 9007TIP3   OH226984   2.485   6.054   2.988 -0.1516  0.2280  0.0701
 9007TIP3    H126985   2.407   6.076   3.038  0.7510  0.3342  1.4884
 9007TIP3    H226986   2.519   5.975   3.029 -0.4659 -0.8708 -1.6674
 9008TIP3   OH226987   6.686   0.958   3.408 -0.0261  0.2118 -0.1749
 9008TIP3    H126988   6.625   0.932   3.477  0.9087 -1.6617  0.0310
 9008TIP3    H226989   6.646   0.924   3.327 -1.5015  3.0689 -0.7572
 9009TIP3   OH226990   0.859   4.827   0.343 -0.4917 -0.2408  0.6187
 9009TIP3    H126991   0.807   4.857   0.269  1.3424 -0.3950 -0.7927
 9009TIP3    H226992   0.802   4.838   0.419 -2.3265  0.1677 -0.7723
 9010TIP3   OH226993   4.418   5.084   5.852 -0.3926  0.4234 -0.3098
 9010TIP3    H126994   4.478   5.019   5.888  1.0052  2.2211  0.7652
 9010TIP3    H226995   4.424   5.072   5.757 -0.0400 -0.8703 -0.1429
 9011TIP3   OH226996   2.381   5.096   0.131 -0.1086  0.3649  0.6224
 9011TIP3    H126997   2.374   5.184   0.167 -1.5212  0.5050  0.0304
 9011TIP3    H226998   2.298   5.081   0.086  1.1673 -0.2015 -1.7105
 9012TIP3   OH226999   2.755   5.408   2.127 -0.1631 -0.1543 -0.3347
 9012TIP3    H127000   2.724   5.491   2.089  1.4135  2.2572  3.0556
 9012TIP3    H227001   2.850   5.412   2.118  0.0123 -1.0112  0.9295
 9013TIP3   OH227002   4.717   4.956   2.560 -0.6580 -0.1900  0.5057
 9013TIP3    H127003   4.700   4.862   2.563 -1.8653  0.0285  1.0072
 9013TIP3    H227004   4.635   4.996   2.588 -0.4098  1.0361 -0.4423
 9014TIP3   OH227005   2.765   1.429   2.773 -0.7877  0.3907 -0.4105
 9014TIP3    H127006   2.712   1.400   2.699 -0.2025 -1.5891 -0.1101
 9014TIP3    H227007   2.755   1.360   2.838  0.4283  1.0438  0.5126
 9015TIP3   OH227008   2.956   2.085   1.215 -0.5868 -0.1936  0.5246
 9015TIP3    H127009   2.928   2.123   1.132 -0.8468 -0.6390  0.4030
 9015TIP3    H227010   2.875   2.065   1.262 -0.4526 -0.4114  0.6704
 9016TIP3   OH227011   0.885   5.171   5.181 -0.1457  0.4410 -0.3420
 9016TIP3    H127012   0.918   5.118   5.253  1.2917  0.0088 -1.2601
 9016TIP3    H227013   0.790   5.156   5.180 -0.0218 -0.4753  0.6954
 9017TIP3   OH227014   5.112   3.883   5.555  0.1981  0.4813 -0.7220
 9017TIP3    H127015   5.036   3.826   5.564  0.7990 -0.8631 -3.2266
 9017TIP3    H227016   5.082   3.956   5.502 -0.4701  2.5102  2.1743
 9018TIP3   OH227017   4.497   3.617   3.067  0.1100  0.4171 -0.3680
 9018TIP3    H127018   4.507   3.701   3.023 -0.8931 -0.1018 -1.6409
 9018TIP3    H227019   4.581   3.602   3.110  0.9058  1.2527 -1.5769
 9019TIP3   OH227020   0.120   2.493   3.070 -0.1355 -0.3151 -1.0598
 9019TIP3    H127021   0.104   2.411   3.117 -0.8002 -0.2560 -1.1698
 9019TIP3    H227022   0.073   2.483   2.987 -0.8432  0.4486 -0.7727
 9020TIP3   OH227023   1.846   3.392   4.109  0.3869 -0.3213 -0.3685
 9020TIP3    H127024   1.830   3.384   4.203 -1.5799 -1.8082 -0.7513
 9020TIP3    H227025   1.924   3.339   4.094  1.6341  1.1596  0.5917
 9021TIP3   OH227026   4.539   5.664   2.268  0.2611 -0.1756 -0.1072
 9021TIP3    H127027   4.503   5.646   2.181  0.8480 -0.6002 -0.2622
 9021TIP3    H227028   4.539   5.760   2.274  0.2318 -0.1418 -0.5813
 9022TIP3   OH227029   4.235   2.142   4.709  0.0960 -0.3867 -0.1189
 9022TIP3    H127030   4.179   2.211   4.742 -0.0428 -0.1346 -0.8523
 9022TIP3    H227031   4.324   2.174   4.724  0.0330 -0.1316 -0.2913
 9023TIP3   OH227032   4.600   2.021   4.520 -0.3927 -0.8130 -0.2196
 9023TIP3    H127033   4.521   1.981   4.557 -0.2043  0.4927  1.7713
 9023TIP3    H227034   4.661   1.948   4.508 -0.8698 -1.4643  1.0959
 9024TIP3   OH227035   0.300   1.697   2.928 -0.5032 -0.5073  0.8579
 9024TIP3    H127036   0.366   1.758   2.961 -0.3959 -0.1590  0.0244
 9024TIP3    H227037   0.223   1.751   2.914 -0.1168 -0.3439 -0.8006
 9025TIP3   OH227038   4.016   4.250   2.287  0.2186 -0.1589  0.8579
 9025TIP3    H127039   3.962   4.279   2.214  2.9337 -0.0827 -1.2892
 9025TIP3    H227040   3.965   4.272   2.366 -1.9639  1.5930 -0.9161
 9026TIP3   OH227041   3.291   4.353   1.925 -0.0766  0.4543  0.4665
 9026TIP3    H127042   3.314   4.397   2.007 -0.1208 -0.2054  0.8400
 9026TIP3    H227043   3.298   4.260   1.945 -0.1557  0.2858 -0.2644
 9027TIP3   OH227044   5.142   5.630   4.618 -0.1135  0.5932  0.0220
 9027TIP3    H127045   5.109   5.549   4.579 -2.3050  1.1185  0.6331
 9027TIP3    H227046   5.136   5.695   4.547  0.2287  0.5684 -0.0343
 9028TIP3   OH227047   1.866   2.534   4.006  0.3023  0.1199 -0.8007
 9028TIP3    H127048   1.773   2.555   4.019  0.2628 -0.4283 -0.1406
 9028TIP3    H227049   1.905   2.615   3.974 -0.1356  0.7497  0.2391
 9029TIP3   OH227050   2.047   6.026   4.527 -0.0765  0.2125  0.3247
 9029TIP3    H127051   2.094   6.022   4.610  0.1667 -0.9213  0.1532
 9029TIP3    H227052   1.954   6.018   4.551  0.1009 -3.2572  0.3765
 9030TIP3   OH227053   5.684   4.163   1.429 -0.1794 -0.8070 -0.1840
 9030TIP3    H127054   5.771   4.149   1.392 -0.3190 -1.0810 -0.4121
 9030TIP3    H227055   5.700   4.197   1.517  0.1543 -1.3912 -0.0159
 9031TIP3   OH227056   4.894   3.102   5.148 -0.5444  0.6591 -0.4686
 9031TIP3    H127057   4.852   3.184   5.172  0.3139  1.5105 -1.7416
 9031TIP3    H227058   4.867   3.040   5.216 -0.2105  2.2943  1.2430
 9032TIP3   OH227059   0.668   1.577   2.482  0.4314  0.7519  0.8499
 9032TIP3    H127060   0.582   1.617   2.467  0.7466  0.8599 -0.8209
 9032TIP3    H227061   0.673   1.568   2.577 -1.9727 -0.4752  0.9486
 9033TIP3   OH227062   3.691   2.749   5.626  0.8545  0.0888  0.1568
 9033TIP3    H127063   3.623   2.683   5.637 -0.3530  1.5499  2.1898
 9033TIP3    H227064   3.772   2.704   5.651 -0.0730 -0.4263  2.4987
 9034TIP3   OH227065   2.613   1.235   4.431 -0.0720  0.1794 -0.6139
 9034TIP3    H127066   2.675   1.247   4.503 -0.4666  0.2774 -0.2866
 9034TIP3    H227067   2.622   1.143   4.407  2.0532  0.7302 -2.2861
 9035TIP3   OH227068   3.923   3.603   2.561 -0.2004 -0.2731  0.2849
 9035TIP3    H127069   3.889   3.534   2.505 -0.8508  0.0618  0.2660
 9035TIP3    H227070   3.858   3.613   2.631 -1.0011  1.5025 -0.6477
 9036TIP3   OH227071   6.067   6.540   5.185 -0.2436 -0.5789 -0.8312
 9036TIP3    H127072   6.113   6.503   5.110 -2.0350 -2.9109 -0.9146
 9036TIP3    H227073   6.134   6.553   5.251  0.9060 -1.3917 -1.8009
 9037TIP3   OH227074   6.423   4.462   4.667 -0.0302  0.0783 -0.5240
 9037TIP3    H127075   6.367   4.498   4.736  0.0673 -0.6308 -0.0586
 9037TIP3    H227076   6.365   4.404   4.617  0.4353 -1.3202  0.4699
 9038TIP3   OH227077   4.052   1.294   5.125  0.7104 -0.0439 -0.0825
 9038TIP3    H127078   4.063   1.384   5.094  0.3912  0.5351  1.3910
 9038TIP3    H227079   3.965   1.269   5.093 -0.1916  1.0273  1.4013
 9039TIP3   OH227080   1.808   0.566   2.250  0.0872  0.2164 -0.1490
 9039TIP3    H127081   1.788   0.478   2.218  0.7472 -0.5107  1.3482
 9039TIP3    H227082   1.899   0.562   2.279  0.3849  1.6349 -0.7797
 9040TIP3   OH227083   3.869   0.396   3.146  0.1625  0.1809  0.3591
 9040TIP3    H127084   3.877   0.328   3.079 -2.2904  0.4043 -0.2482
 9040TIP3    H227085   3.951   0.391   3.195  1.1331 -1.4351 -1.3073
 9041TIP3   OH227086   0.433   1.903   2.685 -0.3355  0.2171 -0.1389
 9041TIP3    H127087   0.431   1.892   2.780  1.0388  0.9067 -0.0125
 9041TIP3    H227088   0.353   1.953   2.665 -1.8900 -1.9066  0.3249
 9042TIP3   OH227089   3.582   0.522   3.701  0.1072 -0.5777  0.4271
 9042TIP3    H127090   3.617   0.549   3.617 -0.7931 -0.2003  0.1559
 9042TIP3    H227091   3.644   0.555   3.765 -0.0500  0.5984 -0.0036
 9043TIP3   OH227092   7.085   4.011   2.471  0.5325  0.7755  0.6547
 9043TIP3    H127093   7.060   4.102   2.488 -1.1104  0.5316 -0.3414
 9043TIP3    H227094   7.084   3.970   2.558 -2.5425  0.8097  0.7207
 9044TIP3   OH227095   6.739   4.632   4.942 -0.3114  0.4029 -0.1050
 9044TIP3    H127096   6.712   4.655   4.853 -1.5239 -0.9679 -0.1185
 9044TIP3    H227097   6.810   4.570   4.931 -1.8952 -1.4825 -0.2049
 9045TIP3   OH227098   1.557   0.650   1.274 -0.3402  0.0397 -0.1099
 9045TIP3    H127099   1.554   0.739   1.309  1.0612  0.6239 -1.3957
 9045TIP3    H227100   1.562   0.594   1.352  1.0623  1.2164  0.6875
 9046TIP3   OH227101   0.921   4.733   5.237 -0.0435 -0.3823  0.0241
 9046TIP3    H127102   0.902   4.760   5.147  0.4776 -1.4422 -0.4238
 9046TIP3    H227103   0.931   4.815   5.285  1.2319  0.2385 -1.2136
 9047TIP3   OH227104   2.811   0.979   5.039 -0.2112 -0.1376  0.0274
 9047TIP3    H127105   2.890   0.940   5.004 -0.3313 -0.9757  0.6535
 9047TIP3    H227106   2.775   1.030   4.967  0.8790  0.2395 -0.2649
 9048TIP3   OH227107   6.142   3.013   2.950 -0.8408 -0.0380  0.1267
 9048TIP3    H127108   6.172   3.027   2.860 -1.4215 -1.4934 -0.3396
 9048TIP3    H227109   6.047   3.001   2.941 -0.8133 -0.8924  0.8163
 9049TIP3   OH227110   3.994   1.874   0.816 -0.5919  0.2682  0.2990
 9049TIP3    H127111   4.020   1.919   0.897  0.9948 -0.1897  0.0795
 9049TIP3    H227112   3.987   1.944   0.751 -0.0741  0.4334  0.4147
 9050TIP3   OH227113   1.957   5.653   0.163  0.2036 -0.3396 -0.0602
 9050TIP3    H127114   1.914   5.733   0.135  0.9437 -0.2246 -0.9146
 9050TIP3    H227115   1.955   5.596   0.086  0.6579 -0.7144  0.1976
 9051TIP3   OH227116   2.100   3.866   3.022 -0.4402 -0.1041 -0.2004
 9051TIP3    H127117   2.082   3.881   2.929  0.0486 -0.2546 -0.3248
 9051TIP3    H227118   2.152   3.942   3.048  0.3809 -0.6121 -0.3385
 9052TIP3   OH227119   2.851   4.213   0.637 -0.1077  1.0562 -0.1222
 9052TIP3    H127120   2.938   4.176   0.624 -0.3016  0.4724  0.2346
 9052TIP3    H227121   2.797   4.139   0.663 -0.7079  1.4223 -0.3119
 9053TIP3   OH227122   5.261   2.117   2.772 -0.2974  0.3053  0.4043
 9053TIP3    H127123   5.260   2.212   2.772 -1.3830  0.3228  1.7408
 9053TIP3    H227124   5.244   2.093   2.681 -0.1367  1.3835  0.0755
 9054TIP3   OH227125   3.560   6.404   3.224  0.4029 -1.0437  0.4646
 9054TIP3    H127126   3.521   6.345   3.160  0.0920  1.1648 -1.5030
 9054TIP3    H227127   3.650   6.417   3.194 -0.2006  1.2486 -0.5468
 9055TIP3   OH227128   1.871   0.941   4.450  0.2079  0.4997  0.0925
 9055TIP3    H127129   1.909   0.996   4.382 -0.2188 -0.0583 -0.6170
 9055TIP3    H227130   1.779   0.931   4.425  0.4063 -1.0232 -0.1444
 9056TIP3   OH227131   5.651   2.811   5.629  0.2556 -0.0687  0.1996
 9056TIP3    H127132   5.693   2.888   5.590 -0.0468  0.0886  0.1776
 9056TIP3    H227133   5.560   2.817   5.601 -0.3174  0.8422  2.0904
 9057TIP3   OH227134   2.547   2.141   1.234  0.7330  0.1959 -0.3945
 9057TIP3    H127135   2.453   2.137   1.249  0.5392 -2.3691 -1.8055
 9057TIP3    H227136   2.559   2.221   1.183 -0.7824  0.2358 -0.7428
 9058TIP3   OH227137   0.287   5.841   5.673 -0.5656 -0.2777  0.2105
 9058TIP3    H127138   0.319   5.762   5.716  0.6850 -0.3859 -0.8306
 9058TIP3    H227139   0.249   5.810   5.591  1.0148  0.2599 -0.7699
 9059TIP3   OH227140   4.746   4.390   4.156  0.5599  0.7973  0.0142
 9059TIP3    H127141   4.738   4.345   4.239  0.5996 -0.4274 -0.6227
 9059TIP3    H227142   4.657   4.417   4.133  0.0683 -1.3634 -0.8671
 9060TIP3   OH227143   3.771   3.710   2.789 -0.1830 -0.5552  0.3402
 9060TIP3    H127144   3.861   3.714   2.821  0.4222 -2.4452 -0.8992
 9060TIP3    H227145   3.738   3.799   2.797  2.0548  0.3595  0.1231
 9061TIP3   OH227146   1.582   5.305   4.243  0.0037 -0.5039  0.1090
 9061TIP3    H127147   1.638   5.338   4.174  0.4855 -0.3254  0.5779
 9061TIP3    H227148   1.546   5.223   4.208  1.4781 -1.2428  0.2250
 9062TIP3   OH227149   1.100   4.216   0.365  0.0905 -0.6941  0.2853
 9062TIP3    H127150   1.163   4.181   0.302  0.1260 -0.1281  0.0028
 9062TIP3    H227151   1.119   4.309   0.369  0.0704 -0.7178  1.1196
 9063TIP3   OH227152   6.768   3.863   4.878  0.2690  0.2354  0.1678
 9063TIP3    H127153   6.707   3.854   4.951 -0.2693  0.0694 -0.2987
 9063TIP3    H227154   6.847   3.901   4.918  0.1608 -0.3068  0.9256
 9064TIP3   OH227155   0.197   0.960   0.910  0.2870 -0.0369  0.2891
 9064TIP3    H127156   0.229   1.035   0.960  1.0911 -1.1689  1.5484
 9064TIP3    H227157   0.112   0.939   0.949 -0.1777  0.5397 -0.4118
 9065TIP3   OH227158   4.965   4.856   4.149 -0.1532  0.2887  0.2531
 9065TIP3    H127159   4.937   4.940   4.185  0.4661  1.0163 -0.8738
 9065TIP3    H227160   4.895   4.832   4.088  0.6711  1.1080 -1.0629
 9066TIP3   OH227161   2.343   6.694   5.436 -0.7277 -0.0142  0.0596
 9066TIP3    H127162   2.365   6.604   5.411 -0.5698  0.3770 -1.3026
 9066TIP3    H227163   2.409   6.748   5.392 -0.8282  0.7787  0.8537
 9067TIP3   OH227164   0.690   2.022   4.786 -0.2627 -0.1096  0.5071
 9067TIP3    H127165   0.653   2.109   4.799 -0.6268 -0.3149  0.8779
 9067TIP3    H227166   0.748   2.031   4.710 -2.6147 -0.2301 -1.4268
 9068TIP3   OH227167   2.575   2.403   3.000 -0.3492 -0.7371  0.1970
 9068TIP3    H127168   2.598   2.321   2.956 -0.3872  0.5409 -2.4189
 9068TIP3    H227169   2.659   2.444   3.020 -0.2712 -0.0238 -1.4187
 9069TIP3   OH227170   6.724   0.900   4.742  0.1027  0.6241 -0.0687
 9069TIP3    H127171   6.727   0.995   4.751  1.1743  0.5361  0.6078
 9069TIP3    H227172   6.675   0.870   4.818 -0.4213  0.6433 -0.3946
 9070TIP3   OH227173   3.563   2.824   2.604  0.5257 -0.3436 -0.3623
 9070TIP3    H127174   3.548   2.735   2.634 -0.7589  0.0834  0.3506
 9070TIP3    H227175   3.652   2.845   2.633  0.0926 -0.6874  1.3314
 9071TIP3   OH227176   1.986   5.304   3.855 -0.4089  0.1389  0.0097
 9071TIP3    H127177   1.907   5.310   3.801  0.7974 -0.1955 -1.8973
 9071TIP3    H227178   2.034   5.385   3.838 -0.7266  0.7493  1.8499
 9072TIP3   OH227179   6.446   4.082   1.049 -0.0084  0.1449  0.3986
 9072TIP3    H127180   6.534   4.076   1.013 -0.5868 -2.8258 -0.8550
 9072TIP3    H227181   6.458   4.072   1.143  1.0045 -0.0451  0.2630
 9073TIP3   OH227182   6.009   1.372   4.702  0.2911  0.2473 -0.1032
 9073TIP3    H127183   5.965   1.454   4.680 -0.4038  0.4618  1.8257
 9073TIP3    H227184   6.097   1.382   4.666 -0.3673  1.0070 -1.5751
 9074TIP3   OH227185   3.283   3.235   0.815 -0.3830  0.0631 -0.4458
 9074TIP3    H127186   3.269   3.323   0.851 -1.8911  0.9803 -3.0051
 9074TIP3    H227187   3.201   3.189   0.834  0.4065 -0.8513  0.8969
 9075TIP3   OH227188   4.588   1.709   0.727  0.0194  0.2454  0.2088
 9075TIP3    H127189   4.653   1.662   0.779 -0.1633 -0.0946  0.1326
 9075TIP3    H227190   4.521   1.644   0.708  0.3414  0.2129 -0.9074
 9076TIP3   OH227191   5.774   0.174   1.218  0.1879  0.2736 -0.1581
 9076TIP3    H127192   5.707   0.106   1.232  1.2530 -0.6939  0.4649
 9076TIP3    H227193   5.806   0.158   1.129 -0.1511  0.5009 -0.3214
 9077TIP3   OH227194   1.362   3.585   5.743  0.3896  0.0200 -0.4853
 9077TIP3    H127195   1.325   3.555   5.660  0.9306  2.0247 -1.5117
 9077TIP3    H227196   1.286   3.600   5.799 -0.1745  0.8618 -1.4310
 9078TIP3   OH227197   4.040   1.498   3.785  0.0170 -0.0669 -0.1833
 9078TIP3    H127198   4.073   1.509   3.696  2.5846 -0.9677  0.5832
 9078TIP3    H227199   4.014   1.406   3.790 -0.4293  0.0610 -0.0693
 9079TIP3   OH227200   4.020   4.070   1.430  0.3303  0.3437 -0.3768
 9079TIP3    H127201   3.930   4.036   1.434  0.3607  0.3220  0.2924
 9079TIP3    H227202   4.074   3.993   1.411  0.3115  0.1449  0.3189
 9080TIP3   OH227203   2.403   6.443   3.968  0.4579  0.1465 -0.3725
 9080TIP3    H127204   2.441   6.358   3.989  1.3585  0.5467 -0.3463
 9080TIP3    H227205   2.477   6.496   3.936  0.2964  1.4799  1.2773
 9081TIP3   OH227206   6.472   6.558   0.919 -0.0881  0.1299  0.6858
 9081TIP3    H127207   6.544   6.519   0.968  0.9818 -0.0480 -0.9606
 9081TIP3    H227208   6.515   6.614   0.854 -1.4270 -0.2097 -0.5269
 9082TIP3   OH227209   5.651   3.851   0.800 -0.8098 -0.0020  0.3650
 9082TIP3    H127210   5.594   3.798   0.743 -0.9948  0.2302  0.3324
 9082TIP3    H227211   5.590   3.899   0.856 -0.6455  0.2792  0.3032
 9083TIP3   OH227212   3.605   3.383   4.786  0.0512 -0.5711  0.3242
 9083TIP3    H127213   3.592   3.293   4.818  1.0254 -1.4972 -1.7090
 9083TIP3    H227214   3.698   3.387   4.764 -0.1113  0.7577 -0.1912
 9084TIP3   OH227215   6.387   4.854   4.185 -0.2730 -0.6028 -0.6056
 9084TIP3    H127216   6.338   4.773   4.175 -0.0570 -0.8187  0.0281
 9084TIP3    H227217   6.341   4.917   4.130 -0.6419 -1.0675 -0.8330
 9085TIP3   OH227218   0.212   1.050   4.826 -0.6016 -0.5325  0.0571
 9085TIP3    H127219   0.237   1.101   4.748  2.7818 -1.4390  0.4152
 9085TIP3    H227220   0.196   1.116   4.893  0.0171  0.1710 -0.4667
 9086TIP3   OH227221   5.171   6.424   1.234  0.2165 -0.8559  0.2730
 9086TIP3    H127222   5.125   6.487   1.178  1.4777  0.2738  0.4594
 9086TIP3    H227223   5.159   6.340   1.189 -0.7155 -0.3496 -0.4768
 9087TIP3   OH227224   2.836   2.672   2.080  0.6897  0.0325 -0.2208
 9087TIP3    H127225   2.771   2.668   2.151  0.6740  1.6669 -0.1031
 9087TIP3    H227226   2.803   2.740   2.021  0.2824 -1.8334 -2.2787
 9088TIP3   OH227227   3.257   1.377   1.783  0.0317 -0.4289  0.6668
 9088TIP3    H127228   3.273   1.468   1.759 -1.4351  0.0219  1.2777
 9088TIP3    H227229   3.318   1.359   1.855 -0.7007  0.5617  1.5608
 9089TIP3   OH227230   4.495   2.832   4.961 -0.5095  0.3535  0.1490
 9089TIP3    H127231   4.576   2.837   5.011 -1.0139  1.6971  0.8791
 9089TIP3    H227232   4.463   2.743   4.975  0.5140  0.0058  0.3531
 9090TIP3   OH227233   6.252   4.877   4.962 -0.0249  0.3157 -0.0489
 9090TIP3    H127234   6.250   4.850   4.870 -0.1580  0.8656 -0.2161
 9090TIP3    H227235   6.185   4.824   5.005  1.0846 -1.0639  0.0613
 9091TIP3   OH227236   0.156   6.232   2.836  0.3118  0.0648 -0.3980
 9091TIP3    H127237   0.139   6.145   2.799  1.5392 -0.0135 -0.8175
 9091TIP3    H227238   0.247   6.229   2.865 -0.6300  0.0359  2.9686
 9092TIP3   OH227239   4.050   1.849   3.019 -0.4782 -0.3357 -0.2119
 9092TIP3    H127240   4.088   1.893   3.095 -2.5244  0.6385  0.3248
 9092TIP3    H227241   4.019   1.765   3.053  1.5885 -1.3936 -0.7805
 9093TIP3   OH227242   6.337   2.335   2.598 -0.0217  0.1981 -0.5919
 9093TIP3    H127243   6.332   2.240   2.608  1.5556  0.0197 -1.2130
 9093TIP3    H227244   6.339   2.349   2.503 -0.0615  0.8460 -0.5010
 9094TIP3   OH227245   6.418   5.010   3.905 -0.1938  0.4223  0.5431
 9094TIP3    H127246   6.337   4.962   3.887  0.1675  0.2573 -0.7183
 9094TIP3    H227247   6.479   4.981   3.838  0.9943  0.3890  1.6021
 9095TIP3   OH227248   0.285   5.202   0.184 -0.3485 -0.2610 -0.5006
 9095TIP3    H127249   0.323   5.217   0.098  0.3380  1.0333  0.0072
 9095TIP3    H227250   0.210   5.262   0.188 -0.6064 -0.5864 -0.3276
 9096TIP3   OH227251   1.727   1.156   3.620 -0.4214  0.0935  0.1330
 9096TIP3    H127252   1.814   1.194   3.638  0.0867 -0.7263 -0.5312
 9096TIP3    H227253   1.743   1.092   3.550 -1.3429 -0.9599  0.8565
 9097TIP3   OH227254   2.623   3.677   3.688 -0.2130  0.1033  0.2086
 9097TIP3    H127255   2.635   3.593   3.643 -0.6724 -0.1601  0.5680
 9097TIP3    H227256   2.529   3.681   3.706  0.0166  0.0315  1.4650
 9098TIP3   OH227257   5.299   2.902   3.129  0.1210  0.0614  0.3343
 9098TIP3    H127258   5.292   2.811   3.158  0.1016 -0.4654 -1.2069
 9098TIP3    H227259   5.386   2.930   3.157  0.7576 -0.9742 -0.5251
 9099TIP3   OH227260   4.100   3.837   0.683  0.2210  0.4780 -0.6126
 9099TIP3    H127261   4.177   3.872   0.728  0.6613  1.7582 -2.2647
 9099TIP3    H227262   4.033   3.904   0.695 -1.2531 -1.2686  2.1182
 9100TIP3   OH227263   3.561   1.615   0.799  0.6338  0.6442 -0.0009
 9100TIP3    H127264   3.540   1.629   0.706  0.7139  0.9516  0.0269
 9100TIP3    H227265   3.544   1.699   0.840 -0.4565  0.2148  0.4592
 9101TIP3   OH227266   5.427   2.302   4.853 -0.0431 -0.1294  0.8809
 9101TIP3    H127267   5.371   2.227   4.876  1.4479 -1.0956  1.4708
 9101TIP3    H227268   5.374   2.353   4.792 -1.7868 -0.7214  1.8230
 9102TIP3   OH227269   5.208   4.187   1.625  0.3913  0.2565 -0.0036
 9102TIP3    H127270   5.230   4.250   1.557  2.3348 -0.1910  0.1684
 9102TIP3    H227271   5.129   4.223   1.666  0.5906  1.7792 -0.8783
 9103TIP3   OH227272   2.062   0.788   0.506  0.2909  0.1813  0.3070
 9103TIP3    H127273   2.051   0.693   0.507  0.4656  0.1647  0.5533
 9103TIP3    H227274   2.042   0.816   0.595 -1.4379  0.5671 -0.1606
 9104TIP3   OH227275   5.770   1.842   2.131 -0.1714 -0.1180  0.0188
 9104TIP3    H127276   5.700   1.883   2.182  1.3261  0.1328  1.9592
 9104TIP3    H227277   5.744   1.750   2.124  0.2841 -0.5061  2.5839
 9105TIP3   OH227278   2.247   1.364   1.668 -0.6073 -0.5510  0.1856
 9105TIP3    H127279   2.307   1.313   1.723 -0.3871 -1.0823 -0.5355
 9105TIP3    H227280   2.208   1.427   1.728  1.2311  0.3140  0.5526
 9106TIP3   OH227281   2.910   4.758   5.549 -0.0159  0.0880 -0.9639
 9106TIP3    H127282   2.893   4.801   5.633 -5.2130  1.3208 -2.3110
 9106TIP3    H227283   2.975   4.814   5.506  1.6765  0.2076  1.5690
 9107TIP3   OH227284   4.987   2.419   0.629  0.4275  0.1342  0.1783
 9107TIP3    H127285   4.907   2.401   0.579 -0.7293  2.3148  1.0834
 9107TIP3    H227286   5.056   2.423   0.564 -0.5795  0.2985 -0.9120
 9108TIP3   OH227287   5.468   4.544   2.720  0.8418 -0.1413 -0.2225
 9108TIP3    H127288   5.415   4.465   2.731  0.8453  0.0717  1.7786
 9108TIP3    H227289   5.421   4.611   2.771  2.0490  0.5401  0.0270
 9109TIP3   OH227290   0.914   4.270   4.515  0.2693  0.1206 -0.1505
 9109TIP3    H127291   0.969   4.193   4.499 -0.9753 -1.3782  2.2866
 9109TIP3    H227292   0.977   4.340   4.535  1.3885 -0.4942 -1.3421
 9110TIP3   OH227293   3.349   5.627   4.806 -0.3040 -0.1831  0.0820
 9110TIP3    H127294   3.386   5.555   4.755  2.8485  0.8676  0.6820
 9110TIP3    H227295   3.327   5.588   4.890  1.1019 -0.5497  0.2997
 9111TIP3   OH227296   4.540   6.446   1.046  0.0268 -0.4367  0.0699
 9111TIP3    H127297   4.541   6.448   0.950 -2.3308  0.8242  0.0162
 9111TIP3    H227298   4.627   6.477   1.071 -0.0181  1.3111 -1.6780
 9112TIP3   OH227299  -0.026   5.820   1.246  0.3424 -0.6266 -0.0210
 9112TIP3    H127300   0.040   5.843   1.311 -1.5026  0.0035  1.7185
 9112TIP3    H227301   0.016   5.752   1.192  2.0560 -0.9350  1.6082
 9113TIP3   OH227302   4.455   4.915   4.363 -0.2504 -0.4518 -0.8803
 9113TIP3    H127303   4.472   5.005   4.337 -2.1505  0.6112  1.1897
 9113TIP3    H227304   4.536   4.887   4.407  0.0209  0.5859 -0.6971
 9114TIP3   OH227305   6.433   3.270   5.039  0.4761 -0.1375 -0.2650
 9114TIP3    H127306   6.372   3.197   5.052  0.2442 -0.0002 -0.5517
 9114TIP3    H227307   6.482   3.246   4.960 -0.3240  0.4873 -0.9811
 9115TIP3   OH227308   5.700   4.645   2.820 -1.0442  0.0788  0.2892
 9115TIP3    H127309   5.675   4.634   2.911 -0.6165 -1.1603  0.2795
 9115TIP3    H227310   5.623   4.617   2.770 -1.5432  1.4639  0.2597
 9116TIP3   OH227311   4.300   1.595   3.167 -0.0108  0.7376 -0.1987
 9116TIP3    H127312   4.367   1.629   3.226  0.8554  0.0860 -0.7823
 9116TIP3    H227313   4.218   1.605   3.215  0.8497 -1.5972  1.9673
 9117TIP3   OH227314   6.621   1.361   2.308  0.2633  0.0731  0.5537
 9117TIP3    H127315   6.537   1.330   2.343 -0.7448  2.3925  0.4064
 9117TIP3    H227316   6.604   1.373   2.215  0.8967  0.1355  0.4467
 9118TIP3   OH227317   5.155   4.492   3.168 -0.2806 -0.4475 -0.4658
 9118TIP3    H127318   5.228   4.553   3.160 -0.3662  0.0274  1.6492
 9118TIP3    H227319   5.151   4.447   3.084  2.6324 -0.6960 -0.5608
 9119TIP3   OH227320   1.619   1.859   3.082 -0.6600  0.6290  0.0828
 9119TIP3    H127321   1.567   1.780   3.065  0.8260 -0.7259  1.4550
 9119TIP3    H227322   1.611   1.911   3.002 -3.5053  0.1746 -0.0184
 9120TIP3   OH227323   2.289   5.650   3.979 -0.0990 -0.3336  0.2383
 9120TIP3    H127324   2.243   5.689   3.904 -1.3932 -0.3609  0.9736
 9120TIP3    H227325   2.258   5.700   4.054 -0.5949 -1.7422  1.0211
 9121TIP3   OH227326   5.184   0.044   4.819 -0.1091  0.1947 -0.1049
 9121TIP3    H127327   5.140  -0.041   4.815 -1.6967  0.9617  0.2790
 9121TIP3    H227328   5.211   0.053   4.911  0.6469 -0.1710 -0.2879
 9122TIP3   OH227329   3.653   4.773   3.334  0.3595 -0.4288  0.6361
 9122TIP3    H127330   3.599   4.694   3.339 -0.8881  0.4276  1.2109
 9122TIP3    H227331   3.640   4.805   3.245 -1.0617  0.4236  1.1313
 9123TIP3   OH227332   2.782   4.087   4.497 -0.1068  0.0675 -0.2936
 9123TIP3    H127333   2.711   4.129   4.448  1.2114  3.0203  0.1077
 9123TIP3    H227334   2.846   4.062   4.430 -0.3588 -0.1317 -0.4576
 9124TIP3   OH227335   1.392   4.499   2.420  0.5111  0.2977  0.4001
 9124TIP3    H127336   1.333   4.429   2.390  2.2585 -2.1562  2.2878
 9124TIP3    H227337   1.346   4.580   2.397 -1.1004 -1.3476 -3.0086
 9125TIP3   OH227338   6.331   2.232   3.426 -0.1519 -0.2875 -0.0941
 9125TIP3    H127339   6.238   2.214   3.438  0.0638 -1.2577  0.2222
 9125TIP3    H227340   6.351   2.196   3.339 -0.0991  0.0321 -0.2150
 9126TIP3   OH227341   4.356   2.662   5.546 -0.1845 -0.0300  0.1028
 9126TIP3    H127342   4.331   2.570   5.546 -0.4193  0.0302  0.4766
 9126TIP3    H227343   4.287   2.705   5.495 -0.0808 -0.0586 -0.0623
 9127TIP3   OH227344   6.118   3.742   4.378  0.0763  0.4876 -0.3429
 9127TIP3    H127345   6.098   3.738   4.285  1.2346 -1.5728 -0.5715
 9127TIP3    H227346   6.213   3.735   4.383  0.2122  2.3839  0.9668
 9128TIP3   OH227347   5.454   1.858   4.258  0.1557 -0.1049  0.4926
 9128TIP3    H127348   5.406   1.938   4.235  0.5930  0.7511  2.3752
 9128TIP3    H227349   5.400   1.787   4.226 -1.5165  0.8872  1.0159
 9129TIP3   OH227350   6.322   1.639   1.735 -0.4720  0.3882 -0.4362
 9129TIP3    H127351   6.230   1.618   1.717 -0.5344 -1.8316  1.9562
 9129TIP3    H227352   6.318   1.713   1.795 -1.0499 -2.0869  2.8676
 9130TIP3   OH227353   6.380   0.532   4.647  0.2269 -0.8805 -0.1484
 9130TIP3    H127354   6.357   0.570   4.562  0.1436 -0.5671  0.0093
 9130TIP3    H227355   6.306   0.554   4.703  1.4558  1.3964  0.7509
 9131TIP3   OH227356   6.246   4.063   2.811 -0.3742  0.6041 -0.8300
 9131TIP3    H127357   6.332   4.104   2.820 -0.3236  0.3769 -0.2110
 9131TIP3    H227358   6.187   4.119   2.861 -0.3892  0.1747 -0.3623
 9132TIP3   OH227359   0.851   3.667   2.288  0.2678  0.3518  0.0357
 9132TIP3    H127360   0.862   3.702   2.200  0.9288 -1.4977 -0.6819
 9132TIP3    H227361   0.759   3.680   2.308  0.0105  0.4100 -1.1153
 9133TIP3   OH227362   4.338   3.818   2.455 -0.0390  0.0623  0.2766
 9133TIP3    H127363   4.431   3.835   2.441 -0.3850  1.5931 -0.3437
 9133TIP3    H227364   4.294   3.868   2.386 -1.4832  1.9406  2.4517
 9134TIP3   OH227365   6.364   5.450   4.058 -0.1536  0.1646 -0.5204
 9134TIP3    H127366   6.387   5.478   3.969  0.4591  1.5131  0.0357
 9134TIP3    H227367   6.420   5.374   4.074 -0.1997 -0.0342 -1.2437
 9135TIP3   OH227368   2.074   6.245   5.087 -0.4215 -0.3464 -0.8646
 9135TIP3    H127369   2.004   6.287   5.038 -1.8076  0.7296  1.8101
 9135TIP3    H227370   2.031   6.179   5.140  0.6083  0.0383  0.5249
 9136TIP3   OH227371   3.924   2.263   3.120  0.0427  0.0152  0.0226
 9136TIP3    H127372   3.932   2.320   3.043  0.5664 -0.1356 -0.0411
 9136TIP3    H227373   3.967   2.182   3.095  1.3751  0.4167  0.8990
 9137TIP3   OH227374   5.252   3.761   1.764 -0.2466  0.1084  0.2360
 9137TIP3    H127375   5.208   3.846   1.765 -0.2594  0.0955  1.5058
 9137TIP3    H227376   5.191   3.703   1.717 -1.0811  0.3614  0.9883
 9138TIP3   OH227377   0.878   4.388   1.977  0.4975 -0.1379 -0.3956
 9138TIP3    H127378   0.861   4.309   1.925 -0.5863  0.8297 -1.5528
 9138TIP3    H227379   0.966   4.415   1.949  0.6357 -0.5963 -0.4262
 9139TIP3   OH227380   2.232   3.675  -0.003  0.0293  0.1148  0.1613
 9139TIP3    H127381   2.231   3.762  -0.042 -0.6114 -0.4297 -1.0939
 9139TIP3    H227382   2.307   3.676   0.057  0.0520  1.5015  0.1331
 9140TIP3   OH227383   7.080   5.679   2.019  0.4163  0.3926  0.0758
 9140TIP3    H127384   6.996   5.723   2.004 -0.6275 -0.4199  2.9480
 9140TIP3    H227385   7.146   5.741   1.986 -1.1534  2.5777  0.8505
 9141TIP3   OH227386   6.272   1.929   4.266 -0.3331  0.5472  0.1433
 9141TIP3    H127387   6.279   2.022   4.287  0.0994  0.1589  1.8249
 9141TIP3    H227388   6.245   1.887   4.348 -0.7761 -0.7840 -0.6443
 9142TIP3   OH227389   6.775   0.706   1.451 -0.0512 -0.5731  0.4750
 9142TIP3    H127390   6.766   0.709   1.356 -0.3577  0.0788  0.5213
 9142TIP3    H227391   6.691   0.738   1.485  0.4693  0.3315  0.9514
 9143TIP3   OH227392   0.941   1.804   4.224 -0.0356 -0.2167 -0.5528
 9143TIP3    H127393   0.980   1.890   4.208 -3.0450  1.5199  0.5539
 9143TIP3    H227394   0.909   1.808   4.314 -1.2878 -2.0230 -0.8577
 9144TIP3   OH227395   2.200   3.393   2.655 -0.2448 -0.1509 -0.3203
 9144TIP3    H127396   2.236   3.469   2.611 -1.0669  0.7469  0.5079
 9144TIP3    H227397   2.153   3.345   2.586  2.3740 -1.3336 -1.4113
 9145TIP3   OH227398   4.990   1.917   3.600 -0.3445 -0.3058 -0.0475
 9145TIP3    H127399   4.996   1.823   3.583  1.2108 -0.0641 -0.8918
 9145TIP3    H227400   5.080   1.949   3.595 -0.7009  1.0413  1.4146
 9146TIP3   OH227401   5.594   2.822   4.794 -0.2263  0.1323  0.1629
 9146TIP3    H127402   5.550   2.738   4.805  0.3433 -0.0358  1.2691
 9146TIP3    H227403   5.665   2.821   4.859 -1.1905  2.1045  1.3406
 9147TIP3   OH227404   3.554   1.780   0.196 -0.0639  0.5898 -0.0861
 9147TIP3    H127405   3.481   1.841   0.188 -0.2861  0.3948  0.4271
 9147TIP3    H227406   3.630   1.830   0.169 -0.0618  1.4610  1.4403
 9148TIP3   OH227407   6.918   4.000   0.698  0.4839  0.3262 -0.5974
 9148TIP3    H127408   6.933   3.965   0.786  0.7005  1.7208 -0.0569
 9148TIP3    H227409   6.848   4.065   0.710 -0.2178 -0.2075 -1.6481
 9149TIP3   OH227410   0.919   1.102   0.047  0.1401  0.0637  0.4419
 9149TIP3    H127411   0.875   1.028   0.088  1.1866 -0.0083  1.5013
 9149TIP3    H227412   0.914   1.085  -0.047  0.5990 -1.4929  0.6779
 9150TIP3   OH227413   6.468   5.322   0.769  0.5929 -0.1439 -0.6847
 9150TIP3    H127414   6.435   5.241   0.807 -1.8174  0.6126 -1.0149
 9150TIP3    H227415   6.542   5.295   0.714 -0.9862 -2.3245 -1.8703
 9151TIP3   OH227416   2.165   2.770   0.509 -0.7790  0.1527 -0.0682
 9151TIP3    H127417   2.113   2.786   0.430  0.6157  0.0729 -1.0400
 9151TIP3    H227418   2.197   2.680   0.500 -1.5833 -0.2870  1.1983
 9152TIP3   OH227419   0.835   3.718   2.000  0.1399  0.2393 -0.1185
 9152TIP3    H127420   0.883   3.637   1.984 -0.3046 -0.1570  0.4857
 9152TIP3    H227421   0.886   3.786   1.955 -0.2464 -0.5743 -1.8470
 9153TIP3   OH227422   6.110   5.876   1.036 -0.3953  0.3127 -0.1491
 9153TIP3    H127423   6.075   5.883   1.125 -1.1245  0.8520 -0.4669
 9153TIP3    H227424   6.033   5.861   0.981  0.1352 -0.8495 -0.6058
 9154TIP3   OH227425   1.517   2.277   1.349  0.1946  0.3029  0.5819
 9154TIP3    H127426   1.485   2.187   1.358 -0.5310  0.5811  0.8310
 9154TIP3    H227427   1.449   2.322   1.299  2.4444 -0.2923 -3.4134
 9155TIP3   OH227428   5.235   5.039   3.348 -0.3158 -0.1126  0.0166
 9155TIP3    H127429   5.229   4.988   3.267  1.1453 -0.1608 -0.0966
 9155TIP3    H227430   5.302   5.105   3.330 -0.8723  0.6923  0.7759
 9156TIP3   OH227431   4.371   6.420   4.614 -0.3789 -0.2753 -0.0858
 9156TIP3    H127432   4.312   6.403   4.541  1.8479 -2.6554 -1.4992
 9156TIP3    H227433   4.454   6.443   4.574  1.1486 -2.4705  1.5659
 9157TIP3   OH227434   7.080   4.818   4.375  1.1228 -0.2439 -0.1535
 9157TIP3    H127435   7.002   4.766   4.358  0.9773  0.2511 -1.0824
 9157TIP3    H227436   7.056   4.875   4.448  0.7539 -0.3848 -0.1638
 9158TIP3   OH227437   0.962   1.867   0.359  0.1947  0.8795 -0.3912
 9158TIP3    H127438   1.036   1.806   0.358  0.8199  1.6198 -0.4271
 9158TIP3    H227439   0.942   1.879   0.451 -0.6607 -0.2380 -0.4238
 9159TIP3   OH227440   5.287   2.652   4.465  0.0930 -0.2720 -0.8049
 9159TIP3    H127441   5.269   2.672   4.557  1.0911 -0.5009 -0.5565
 9159TIP3    H227442   5.377   2.680   4.450 -0.1310 -0.0148 -1.7846
 9160TIP3   OH227443   2.296   6.473   5.918  0.4520 -0.4422  0.7289
 9160TIP3    H127444   2.265   6.551   5.872  2.1213 -0.6735 -0.9437
 9160TIP3    H227445   2.292   6.404   5.852  1.0181 -1.2771  1.5495
 9161TIP3   OH227446   4.595   6.811   2.535 -0.5529 -0.0718 -0.2164
 9161TIP3    H127447   4.673   6.797   2.481  0.0733  0.7480  0.4780
 9161TIP3    H227448   4.545   6.730   2.524 -0.6704  0.2283 -2.3934
 9162TIP3   OH227449   0.425   0.291   5.542  0.2563  0.1786 -0.3393
 9162TIP3    H127450   0.460   0.370   5.583 -0.1405 -0.1714  0.7210
 9162TIP3    H227451   0.423   0.226   5.613  0.8198 -0.8676 -1.2457
 9163TIP3   OH227452   4.952   2.565   0.863 -0.2802  0.2548 -0.1965
 9163TIP3    H127453   4.894   2.510   0.915  0.1523 -0.1291 -0.1131
 9163TIP3    H227454   4.955   2.524   0.777 -1.1800  1.0213 -0.6118
 9164TIP3   OH227455   5.149   0.946   4.896  0.2968  0.3428  0.3719
 9164TIP3    H127456   5.171   1.039   4.890 -0.6910  0.5475 -0.3186
 9164TIP3    H227457   5.231   0.901   4.881  0.2654  1.0693 -2.3827
 9165TIP3   OH227458   0.301   1.541   2.191 -0.3028 -0.4636 -0.0667
 9165TIP3    H127459   0.252   1.613   2.152 -2.1780 -1.2182  0.7944
 9165TIP3    H227460   0.343   1.580   2.268  0.6003  0.2185 -0.8780
 9166TIP3   OH227461   1.840   2.675   1.408  0.3587 -0.2422  0.2342
 9166TIP3    H127462   1.747   2.657   1.397  0.0034 -0.5514  2.9786
 9166TIP3    H227463   1.862   2.636   1.493  2.5990  1.1674  0.3893
 9167TIP3   OH227464   6.068   5.966   0.584 -0.1880 -0.3325 -0.1581
 9167TIP3    H127465   6.059   5.870   0.584 -0.2452 -0.3322 -1.0783
 9167TIP3    H227466   6.154   5.981   0.623  0.3485 -0.8208 -1.1145
 9168TIP3   OH227467   4.960   5.070   3.420 -0.1075 -0.8084  0.2880
 9168TIP3    H127468   5.047   5.056   3.383  0.4182  1.5897  0.4133
 9168TIP3    H227469   4.932   4.984   3.450  1.5647 -1.9171 -1.1234
 9169TIP3   OH227470   2.687   6.399   2.429 -0.2647  0.0871  0.4756
 9169TIP3    H127471   2.651   6.417   2.343  0.7120 -0.1104  0.0126
 9169TIP3    H227472   2.639   6.323   2.461 -0.2806 -0.1512 -0.1160
 9170TIP3   OH227473   4.349   5.425   3.511  0.1058  0.2097 -0.1615
 9170TIP3    H127474   4.304   5.371   3.576  0.8585  0.5928  0.7052
 9170TIP3    H227475   4.280   5.459   3.455 -0.6426  0.4070  0.8558
 9171TIP3   OH227476   3.162   4.658   1.998 -0.3134  0.2982  0.5280
 9171TIP3    H127477   3.155   4.563   2.002 -0.9666  0.3179  0.0239
 9171TIP3    H227478   3.218   4.675   1.922 -2.6573  0.3718 -1.2690
 9172TIP3   OH227479   6.599   4.020   4.070  0.3710 -0.2415  0.4235
 9172TIP3    H127480   6.640   3.953   4.125  0.0688 -0.8855 -0.1197
 9172TIP3    H227481   6.505   4.006   4.081  0.3011  0.4615  0.7432
 9173TIP3   OH227482   4.184   0.550   2.531 -0.2486  0.7737  0.4383
 9173TIP3    H127483   4.194   0.640   2.501  0.7371  0.0586 -1.5471
 9173TIP3    H227484   4.190   0.497   2.451  0.4165 -1.1367  1.6849
 9174TIP3   OH227485   5.404   0.550   5.864  0.3822  0.8822  0.1458
 9174TIP3    H127486   5.336   0.518   5.804  1.4561  1.3481 -1.3605
 9174TIP3    H227487   5.482   0.501   5.840  1.2251  2.2314  0.0501
 9175TIP3   OH227488   7.198   6.567   3.827  0.3983 -0.2487 -0.4947
 9175TIP3    H127489   7.140   6.632   3.788 -0.0056 -0.2537  0.0855
 9175TIP3    H227490   7.162   6.483   3.796 -0.0831 -0.2644  0.0951
 9176TIP3   OH227491   0.069   1.815   1.562  0.1517  0.2341 -0.2568
 9176TIP3    H127492   0.082   1.723   1.586 -0.7069  0.1498 -0.0725
 9176TIP3    H227493   0.154   1.844   1.531  0.6985 -0.3356  0.6547
 9177TIP3   OH227494   5.770   1.911   1.846  0.4261 -0.7775 -0.1101
 9177TIP3    H127495   5.781   2.006   1.856  0.0061 -0.7012 -0.3718
 9177TIP3    H227496   5.771   1.878   1.936 -0.0228 -0.4547  0.0184
 9178TIP3   OH227497   4.046   1.400   2.866 -0.2891 -0.0963 -0.0311
 9178TIP3    H127498   4.058   1.481   2.816 -1.3804 -0.4194 -0.8778
 9178TIP3    H227499   3.956   1.406   2.899 -0.6621 -1.3137 -0.7806
 9179TIP3   OH227500   5.315   0.084   5.069  0.0732 -0.5789  0.0457
 9179TIP3    H127501   5.379   0.072   5.139  0.4316  0.2480 -0.1279
 9179TIP3    H227502   5.276   0.170   5.086  0.1502 -0.3728 -0.7582
 9180TIP3   OH227503   6.355   6.218   4.265  0.3906 -0.2090  0.0536
 9180TIP3    H127504   6.276   6.169   4.240 -0.0111  0.8999 -0.9911
 9180TIP3    H227505   6.403   6.228   4.182  1.0079  0.2033  0.4582
 9181TIP3   OH227506   1.274   4.942   3.434  0.6544 -0.0946  1.1387
 9181TIP3    H127507   1.315   5.011   3.487  1.7391  1.2038 -1.2376
 9181TIP3    H227508   1.182   4.942   3.463  0.8379  1.6926  1.8918
 9182TIP3   OH227509   3.730   1.260   0.580  0.0565  0.0892 -0.7893
 9182TIP3    H127510   3.755   1.168   0.571 -2.0650 -0.5989 -0.2665
 9182TIP3    H227511   3.734   1.276   0.675 -1.1596  0.0127 -0.7070
 9183TIP3   OH227512   0.686   5.751   4.649 -0.1764 -0.5665  0.0627
 9183TIP3    H127513   0.661   5.805   4.724  0.2043 -0.0788 -0.1575
 9183TIP3    H227514   0.631   5.784   4.577  2.1844  1.6835 -0.8685
 9184TIP3   OH227515   4.178   1.667   0.882  0.2259  0.4219  0.4148
 9184TIP3    H127516   4.202   1.695   0.971  1.6525  1.9325 -0.3870
 9184TIP3    H227517   4.109   1.728   0.856  0.5285  0.6379  0.1165
 9185TIP3   OH227518   5.970   3.371   0.071  0.2378 -0.6414 -0.1769
 9185TIP3    H127519   6.051   3.396   0.027  0.5252  0.3113  0.8422
 9185TIP3    H227520   5.961   3.434   0.143 -0.5601 -1.7198  0.7194
 9186TIP3   OH227521   2.631   3.882   1.338 -0.1401 -0.0523  0.4909
 9186TIP3    H127522   2.703   3.932   1.301 -1.5648  1.0495 -0.9387
 9186TIP3    H227523   2.651   3.877   1.432  1.4601  0.7483  0.2261
 9187TIP3   OH227524   0.392   2.483   4.245 -0.2378 -0.1481 -0.1464
 9187TIP3    H127525   0.418   2.442   4.328  0.7639  1.3658  0.3362
 9187TIP3    H227526   0.297   2.472   4.242 -0.1012 -1.7135  0.3554
 9188TIP3   OH227527   4.270   3.349   4.236 -0.2114  0.1893  0.1994
 9188TIP3    H127528   4.188   3.334   4.283 -0.6828  0.9732 -0.3461
 9188TIP3    H227529   4.254   3.428   4.185  1.5863  1.6213  1.7113
 9189TIP3   OH227530   5.319   3.834   5.077  0.3119 -0.7034 -0.4456
 9189TIP3    H127531   5.348   3.896   5.144  1.9131 -0.7507 -1.0706
 9189TIP3    H227532   5.275   3.888   5.012 -0.0938 -0.4955 -0.0082
 9190TIP3   OH227533   5.402   3.715   1.526 -0.5412  0.2296  0.3392
 9190TIP3    H127534   5.370   3.753   1.608 -1.3050  0.0019  0.1562
 9190TIP3    H227535   5.399   3.788   1.464 -1.0667  0.1314  0.2365
 9191TIP3   OH227536   1.512   4.151   2.130  0.1049 -0.1064 -0.1681
 9191TIP3    H127537   1.493   4.089   2.200  1.4552 -0.7019 -0.2989
 9191TIP3    H227538   1.542   4.230   2.176 -1.6583  0.4973 -0.0009
 9192TIP3   OH227539   4.242   6.476   3.298 -0.3252 -0.1251  0.2722
 9192TIP3    H127540   4.303   6.453   3.227  0.1401  0.3183  0.5243
 9192TIP3    H227541   4.295   6.471   3.377 -0.1818  1.8174  0.3420
 9193TIP3   OH227542   3.187   3.093   1.556 -0.1935 -0.3715 -0.1729
 9193TIP3    H127543   3.224   3.006   1.544  0.2892 -0.1455 -0.3520
 9193TIP3    H227544   3.259   3.153   1.536 -0.2282  0.0525  0.9021
 9194TIP3   OH227545   3.903   3.029   2.945  0.7466  0.1017 -0.2811
 9194TIP3    H127546   3.850   3.107   2.929 -0.8500 -1.1321 -1.3264
 9194TIP3    H227547   3.989   3.052   2.911  0.4892  1.6049 -0.0166
 9195TIP3   OH227548   5.584   3.514   2.273 -0.5127  0.2548 -0.8582
 9195TIP3    H127549   5.672   3.552   2.284 -0.2489 -0.5433 -0.1376
 9195TIP3    H227550   5.544   3.519   2.359 -0.2926 -1.5081 -0.6132
 9196TIP3   OH227551   5.243   1.043   0.282 -0.3423  0.3709  0.2266
 9196TIP3    H127552   5.305   1.062   0.212 -2.1997  0.4931 -1.4676
 9196TIP3    H227553   5.204   1.128   0.303 -0.9839  0.0753  0.2378
 9197TIP3   OH227554   4.780   1.980   3.861  0.3398 -0.0886 -0.2995
 9197TIP3    H127555   4.863   1.985   3.813  0.6750 -0.1623  0.2511
 9197TIP3    H227556   4.741   1.898   3.833  1.2106 -0.8366  0.5960
 9198TIP3   OH227557   4.699   5.487   5.415 -0.8091 -0.4989 -0.2005
 9198TIP3    H127558   4.642   5.553   5.374 -0.4406 -0.0777 -0.0497
 9198TIP3    H227559   4.783   5.531   5.424 -0.6123 -0.9293  0.0871
 9199TIP3   OH227560   2.319   2.627   1.887 -0.1602 -0.2998  0.0985
 9199TIP3    H127561   2.258   2.554   1.893  1.2337 -1.4940  0.2562
 9199TIP3    H227562   2.326   2.645   1.793 -1.6847  0.7054  0.1386
 9200TIP3   OH227563   3.620   1.999   3.342 -0.1309 -0.0664 -0.1981
 9200TIP3    H127564   3.600   2.071   3.282  0.0625 -0.6204 -0.9427
 9200TIP3    H227565   3.540   1.947   3.345 -0.6343  0.7228  1.1605
 9201TIP3   OH227566   4.382   4.649   1.643 -0.3579  0.3302  0.0245
 9201TIP3    H127567   4.307   4.645   1.583  0.6460  0.4759 -1.2932
 9201TIP3    H227568   4.440   4.715   1.605  1.3808 -1.2013 -0.1503
 9202TIP3   OH227569   1.378   3.323   0.512  0.1208 -0.1047  0.1743
 9202TIP3    H127570   1.300   3.268   0.508  0.0771 -0.1869  1.4950
 9202TIP3    H227571   1.445   3.273   0.467 -0.3406 -0.4804 -0.1044
 9203TIP3   OH227572   2.833   4.394   0.991  0.1140 -0.0812  0.2151
 9203TIP3    H127573   2.869   4.305   0.982 -0.6604 -0.2626 -1.6512
 9203TIP3    H227574   2.752   4.382   1.040  0.2944 -0.3257  0.4554
 9204TIP3   OH227575   6.057   6.647   2.684 -0.6628 -0.0525 -0.3767
 9204TIP3    H127576   6.006   6.728   2.684 -1.5282 -0.5850 -0.1931
 9204TIP3    H227577   6.002   6.584   2.731 -1.0125 -1.3469 -2.3844
 9205TIP3   OH227578   3.072   4.245   5.750 -0.6506 -0.1016 -0.0153
 9205TIP3    H127579   2.987   4.218   5.781 -0.0587 -1.8167  0.1851
 9205TIP3    H227580   3.088   4.191   5.672  0.6825 -0.5734  0.5538
 9206TIP3   OH227581   3.915   5.294   3.457 -0.0693  0.3066 -0.0012
 9206TIP3    H127582   3.836   5.286   3.510  1.2745 -0.9766  1.9892
 9206TIP3    H227583   3.890   5.263   3.370 -1.6438 -0.5074  0.7042
 9207TIP3   OH227584   2.917   4.994   0.292 -0.7926 -0.1617 -0.1838
 9207TIP3    H127585   2.970   5.049   0.350 -0.2851 -0.4245 -0.3991
 9207TIP3    H227586   2.838   5.046   0.277  0.0369  0.8938 -1.0552
 9208TIP3   OH227587   2.609   5.536   1.304  0.5702  0.3422 -0.0084
 9208TIP3    H127588   2.665   5.510   1.231 -1.0491  1.1248 -1.5898
 9208TIP3    H227589   2.654   5.613   1.342  0.0025  1.7747 -2.0694
 9209TIP3   OH227590   4.530   3.819   4.832  0.1381 -0.1099 -0.1836
 9209TIP3    H127591   4.535   3.847   4.740  2.9133 -2.1957 -0.8111
 9209TIP3    H227592   4.442   3.783   4.841 -0.9202  1.9769 -1.3830
 9210TIP3   OH227593   6.117   3.366   2.288 -0.2178 -0.1088 -0.6176
 9210TIP3    H127594   6.106   3.417   2.369  1.8476 -0.5690  0.0190
 9210TIP3    H227595   6.109   3.430   2.218  0.8466  0.8474  0.1008
 9211TIP3   OH227596   3.279   6.255   4.330 -0.3304 -0.1698  0.4209
 9211TIP3    H127597   3.214   6.257   4.400 -1.5510  0.3603 -0.6725
 9211TIP3    H227598   3.330   6.336   4.341 -2.1622  1.2200 -0.7385
 9212TIP3   OH227599   3.191   6.155   0.140  0.3393 -0.5358 -0.0433
 9212TIP3    H127600   3.120   6.103   0.102 -0.3215  0.4120 -0.1199
 9212TIP3    H227601   3.202   6.228   0.080 -1.0842  1.2808  1.7701
 9213TIP3   OH227602   4.805   2.096   3.479 -0.0249 -0.3463  0.2726
 9213TIP3    H127603   4.873   2.033   3.504  0.9645  1.4188  2.4511
 9213TIP3    H227604   4.850   2.158   3.421 -0.2719 -0.2050  0.2299
 9214TIP3   OH227605   1.792   4.331   1.602  0.1397  0.2802 -0.3953
 9214TIP3    H127606   1.776   4.415   1.561  1.9385  0.5890 -0.5279
 9214TIP3    H227607   1.828   4.276   1.533  1.3138  0.1907  0.2576
 9215TIP3   OH227608   5.047   6.334   3.367  0.1069  0.1827 -0.4321
 9215TIP3    H127609   4.994   6.318   3.289 -1.5400  0.4555  0.5874
 9215TIP3    H227610   5.056   6.429   3.371  1.1138  0.1187 -0.8535
 9216TIP3   OH227611   0.090   6.762   4.018  0.0565 -0.0338 -0.1868
 9216TIP3    H127612   0.119   6.835   3.963 -0.8948 -0.0841 -0.7698
 9216TIP3    H227613   0.066   6.693   3.957  0.9594 -0.8603  0.3634
 9217TIP3   OH227614   6.961   0.646   4.484  0.1459 -0.3215 -0.3838
 9217TIP3    H127615   7.013   0.590   4.542 -0.3945 -0.0252  0.4028
 9217TIP3    H227616   6.874   0.607   4.484  0.2903 -0.6677 -1.4955
 9218TIP3   OH227617   3.058   1.727   3.330  0.3644  0.2095  0.3979
 9218TIP3    H127618   3.113   1.800   3.302  1.1325  0.0230  1.3472
 9218TIP3    H227619   3.037   1.748   3.421 -0.3356 -0.2082  0.3363
 9219TIP3   OH227620   5.944   4.843   4.838  0.1959 -0.0760 -0.4307
 9219TIP3    H127621   5.859   4.858   4.797 -1.0410 -0.2841  1.9019
 9219TIP3    H227622   5.990   4.926   4.828 -1.4047  1.0024  0.7136
 9220TIP3   OH227623   6.712   5.062   0.862 -0.2062 -0.6555 -0.0620
 9220TIP3    H127624   6.686   5.025   0.778  0.6061 -0.7451 -0.2854
 9220TIP3    H227625   6.803   5.090   0.848 -1.0391  2.3998 -0.2653
 9221TIP3   OH227626   2.150   4.116   4.445  0.8592  0.3686 -0.1479
 9221TIP3    H127627   2.245   4.116   4.438  0.8880  1.4906  0.1298
 9221TIP3    H227628   2.125   4.025   4.428  1.9556  0.1117 -0.4481
 9222TIP3   OH227629   5.640   1.931   5.010 -0.2319  0.2436 -0.2478
 9222TIP3    H127630   5.677   1.916   4.923 -0.9369  0.5763 -0.6116
 9222TIP3    H227631   5.652   2.025   5.025  0.1966  0.1264  0.1613
 9223TIP3   OH227632   1.846   5.784   5.488 -0.5547  0.7963  0.0550
 9223TIP3    H127633   1.912   5.716   5.502 -1.0036 -0.1158 -1.8550
 9223TIP3    H227634   1.793   5.784   5.567  0.0199 -0.4467  0.4601
 9224TIP3   OH227635   0.176   6.502   0.427  0.0446 -0.0122  0.0408
 9224TIP3    H127636   0.098   6.526   0.477 -0.1651  1.7499 -1.0523
 9224TIP3    H227637   0.148   6.426   0.375 -0.1276 -1.0188  1.5282
 9225TIP3   OH227638   3.677   2.538   4.861  0.0342 -0.2326 -0.1846
 9225TIP3    H127639   3.591   2.537   4.905 -0.0628 -0.2811 -0.3760
 9225TIP3    H227640   3.709   2.448   4.869  0.6106  0.0458  0.9475
 9226TIP3   OH227641   3.439   2.531   5.328  0.0364 -0.6489 -0.0693
 9226TIP3    H127642   3.435   2.623   5.356  1.4136 -0.3523 -0.7443
 9226TIP3    H227643   3.489   2.488   5.397 -0.6805 -0.9321  0.2883
 9227TIP3   OH227644   0.673   1.445   3.630  0.1999  1.0228 -0.4294
 9227TIP3    H127645   0.651   1.383   3.561  1.4780 -1.2420  1.0518
 9227TIP3    H227646   0.765   1.466   3.614  0.0591  1.7451 -0.3224
 9228TIP3   OH227647   0.040   6.376   0.868  0.1827 -0.3110 -0.2492
 9228TIP3    H127648  -0.009   6.390   0.949  0.2135 -0.1586 -0.2555
 9228TIP3    H227649   0.123   6.338   0.896  0.6746  0.8185 -0.0897
 9229TIP3   OH227650   5.308   2.309   5.595 -0.1939  0.1515  0.2329
 9229TIP3    H127651   5.319   2.356   5.512 -0.7576  1.4200  0.8384
 9229TIP3    H227652   5.393   2.315   5.637 -0.0184 -0.1405 -0.0776
 9230TIP3   OH227653   6.000   4.843   5.742  0.5753  0.0296  0.3902
 9230TIP3    H127654   5.981   4.856   5.835  0.5263  1.5593  0.1908
 9230TIP3    H227655   5.990   4.930   5.703  0.9207 -0.5239 -0.9951
 9231TIP3   OH227656   6.883   5.182   4.776  0.2551 -0.1434  0.4370
 9231TIP3    H127657   6.795   5.169   4.739  0.2484 -0.7651  0.6569
 9231TIP3    H227658   6.875   5.262   4.829  0.1293  0.4498 -0.4651
 9232TIP3   OH227659   2.796   3.554   1.109  0.1120  0.1161 -0.4806
 9232TIP3    H127660   2.875   3.595   1.144  0.7126 -0.2583 -1.3681
 9232TIP3    H227661   2.740   3.627   1.083 -0.3100  0.4031  1.1321
 9233TIP3   OH227662   1.295   0.836   1.045 -0.0410 -0.4286  0.0595
 9233TIP3    H127663   1.293   0.741   1.054  0.2124 -0.3396  1.2326
 9233TIP3    H227664   1.312   0.868   1.133 -1.9774  0.7908  0.0503
 9234TIP3   OH227665   4.087   1.248   0.235 -0.2117 -0.1053 -0.2927
 9234TIP3    H127666   4.087   1.165   0.282 -0.4723 -0.7842 -1.4645
 9234TIP3    H227667   4.039   1.230   0.154 -0.2486  1.1784 -0.5723
 9235TIP3   OH227668   2.958   1.798   5.389 -0.1380  0.1482  0.1104
 9235TIP3    H127669   3.026   1.756   5.441  0.3626 -0.8773 -1.3136
 9235TIP3    H227670   2.894   1.728   5.373 -0.6139  0.6241 -0.0853
 9236TIP3   OH227671   5.384   0.617   4.777  1.0893 -0.2311 -0.2485
 9236TIP3    H127672   5.387   0.685   4.844 -0.8663 -1.4312  1.1929
 9236TIP3    H227673   5.378   0.535   4.827  2.6539 -1.4493 -1.9191
 9237TIP3   OH227674   5.942   4.960   1.963 -0.6688  0.0205 -0.0667
 9237TIP3    H127675   5.903   5.026   1.906 -0.8925  0.0301  0.0937
 9237TIP3    H227676   6.036   4.966   1.946 -0.5809  1.0693  0.6671
 9238TIP3   OH227677   5.724   3.078   1.635  0.2318 -0.3199  0.0310
 9238TIP3    H127678   5.678   3.010   1.684 -0.5428  0.9199  1.1089
 9238TIP3    H227679   5.802   3.097   1.687  0.0275  0.1581  0.1744
 9239TIP3   OH227680   2.405   4.943   0.559  0.6838  0.0158  0.2808
 9239TIP3    H127681   2.440   4.934   0.648 -0.3531 -1.0598  0.5983
 9239TIP3    H227682   2.418   5.036   0.538  0.7910  0.3306  1.6288
 9240TIP3   OH227683   2.248   5.340   4.791 -0.0156  0.0306 -0.1847
 9240TIP3    H127684   2.323   5.281   4.800 -0.3704 -0.3177  0.4891
 9240TIP3    H227685   2.274   5.399   4.720  1.7622  1.2105  1.3511
 9241TIP3   OH227686   0.852   2.102   4.587  0.4124  0.3449 -0.2340
 9241TIP3    H127687   0.847   2.190   4.548  0.1978 -0.3865 -1.9733
 9241TIP3    H227688   0.943   2.076   4.576  0.3142  0.0649 -0.3824
 9242TIP3   OH227689   3.283   6.239   5.149  0.4972  0.3715  0.2726
 9242TIP3    H127690   3.377   6.251   5.132  0.3251  2.6006  0.5673
 9242TIP3    H227691   3.244   6.325   5.130 -1.9254 -1.1168 -2.3037
 9243TIP3   OH227692   5.911   4.060   4.293 -0.3705 -0.1439  0.0128
 9243TIP3    H127693   5.835   4.066   4.235 -1.7148 -0.7743  1.6143
 9243TIP3    H227694   5.915   4.144   4.338  1.0774  0.5967 -1.4025
 9244TIP3   OH227695   5.341   3.230   1.865  0.2754 -0.1370  0.9076
 9244TIP3    H127696   5.290   3.291   1.812  0.0602  1.0591  2.4182
 9244TIP3    H227697   5.330   3.145   1.821 -3.4068 -0.0784  1.3754
 9245TIP3   OH227698   0.768   6.315   0.282  0.9525  0.1226  0.1208
 9245TIP3    H127699   0.698   6.334   0.345  1.5182  1.2338  0.4314
 9245TIP3    H227700   0.771   6.392   0.225  0.1783 -1.0261 -1.5560
 9246TIP3   OH227701   2.794   3.840   2.664  0.5550  0.1111  0.3478
 9246TIP3    H127702   2.877   3.835   2.710  0.2975 -0.8514  0.7247
 9246TIP3    H227703   2.739   3.774   2.705 -0.5702  1.0627  0.4389
 9247TIP3   OH227704   1.859   1.127   4.196 -0.0793 -0.0781 -0.2664
 9247TIP3    H127705   1.833   1.210   4.157  2.6230  1.3004  0.5958
 9247TIP3    H227706   1.828   1.061   4.135 -3.2159  1.4262 -0.4963
 9248TIP3   OH227707   6.144   0.568   0.591  0.0209  0.4803 -0.5375
 9248TIP3    H127708   6.189   0.547   0.508  0.2223  1.3057 -0.6483
 9248TIP3    H227709   6.152   0.663   0.598  0.3811  0.3712  0.6476
 9249TIP3   OH227710   4.775   3.150   4.891  0.0721  0.1045 -0.0895
 9249TIP3    H127711   4.804   3.124   4.978  0.6810  1.8269  0.2632
 9249TIP3    H227712   4.855   3.177   4.846 -0.3614  0.1994 -0.8259
 9250TIP3   OH227713   4.862   6.442   2.128  0.5741 -0.1997 -0.1853
 9250TIP3    H127714   4.863   6.353   2.164  0.6297 -0.1908 -0.1663
 9250TIP3    H227715   4.848   6.429   2.034  1.7850 -0.2813 -0.3695
 9251TIP3   OH227716   5.557   1.797   5.471 -0.0132 -0.5263  0.1474
 9251TIP3    H127717   5.528   1.766   5.385 -0.1903  1.4222 -0.5654
 9251TIP3    H227718   5.644   1.760   5.482  0.5113  0.1280 -1.4511
 9252TIP3   OH227719   2.343   2.530   3.097 -0.4754 -0.1714 -0.4754
 9252TIP3    H127720   2.375   2.553   3.185  0.1207 -1.2972 -0.3660
 9252TIP3    H227721   2.421   2.497   3.052 -0.8981 -0.1393 -1.2404
 9253TIP3   OH227722   0.416   2.548   0.197  0.2201  0.5107 -0.2316
 9253TIP3    H127723   0.348   2.612   0.218 -1.4099 -0.6510 -1.6171
 9253TIP3    H227724   0.384   2.467   0.237  0.3693 -0.2262 -1.5754
 9254TIP3   OH227725   6.763   6.044   3.715 -0.2800 -0.2044 -0.2039
 9254TIP3    H127726   6.755   5.949   3.726  1.9345 -0.2260  2.6131
 9254TIP3    H227727   6.688   6.080   3.762 -0.6776 -0.5326 -0.5789
 9255TIP3   OH227728   4.502   5.942   2.239 -0.3568 -0.3233  0.0260
 9255TIP3    H127729   4.597   5.945   2.230 -0.2609  0.7235  1.2543
 9255TIP3    H227730   4.469   5.960   2.151  0.5726  3.0998  0.2553
 9256TIP3   OH227731   4.052   1.227   3.803 -0.1889  0.2536 -0.2296
 9256TIP3    H127732   3.988   1.166   3.840 -0.2046  0.9911  1.0114
 9256TIP3    H227733   4.125   1.225   3.864 -0.2202  1.5233 -0.1153
 9257TIP3   OH227734   2.045   2.288   4.908  0.6075  0.6913 -0.4116
 9257TIP3    H127735   2.057   2.382   4.923 -0.5576  0.9419 -0.8542
 9257TIP3    H227736   1.978   2.262   4.971  0.5407  0.2854 -0.6444
 9258TIP3   OH227737   4.524   1.918   2.281 -0.1319  0.2325 -0.0494
 9258TIP3    H127738   4.519   1.853   2.211  0.1376 -0.8827  0.9484
 9258TIP3    H227739   4.492   1.873   2.359  1.0563  0.9582  0.8969
 9259TIP3   OH227740   6.554   6.529   3.666  0.1734 -0.2000  0.2363
 9259TIP3    H127741   6.556   6.437   3.638  0.0087  0.4650 -2.1525
 9259TIP3    H227742   6.521   6.577   3.590  0.0999  1.8389  1.4804
 9260TIP3   OH227743   1.836   5.844   0.633 -0.1792 -0.0384 -0.3365
 9260TIP3    H127744   1.917   5.822   0.586  0.9930  0.2262  1.4389
 9260TIP3    H227745   1.811   5.930   0.598 -1.3601 -1.3465 -2.9408
 9261TIP3   OH227746   4.052   2.459   2.013 -0.0541 -0.6919  0.4661
 9261TIP3    H127747   4.018   2.388   1.959 -0.8278 -0.2710  0.3829
 9261TIP3    H227748   4.114   2.505   1.957  0.7447 -1.5244  0.6467
 9262TIP3   OH227749   5.195   5.710   0.988  0.4750  0.0445  0.5885
 9262TIP3    H127750   5.156   5.672   0.909  0.3479  0.7986  0.2714
 9262TIP3    H227751   5.120   5.750   1.034  0.6129 -0.0180  0.8671
 9263TIP3   OH227752   4.186   0.119   5.713 -0.1580  0.3852 -0.0302
 9263TIP3    H127753   4.219   0.192   5.661 -2.2469  0.5612 -1.2424
 9263TIP3    H227754   4.123   0.158   5.773  0.0953 -0.1955  0.6331
 9264TIP3   OH227755   6.063   4.366   4.183 -0.2461  0.1954 -0.1825
 9264TIP3    H127756   5.988   4.409   4.143 -0.1370  0.7138  0.1610
 9264TIP3    H227757   6.036   4.349   4.273 -1.0367 -2.2830 -0.8023
 9265TIP3   OH227758   2.826   0.945   2.728 -0.1363  0.5859 -0.0229
 9265TIP3    H127759   2.839   1.006   2.655  0.4634 -0.8642 -1.1775
 9265TIP3    H227760   2.745   0.900   2.708 -0.5242  0.9216  0.7733
 9266TIP3   OH227761   1.704   4.485   1.973  0.6119 -0.1149  0.2793
 9266TIP3    H127762   1.771   4.542   1.936 -0.3452 -0.0594 -1.4965
 9266TIP3    H227763   1.636   4.546   2.003  0.9820 -0.2041  1.3161
 9267TIP3   OH227764   0.865   1.253   3.128  0.0534 -0.8642 -0.1511
 9267TIP3    H127765   0.769   1.258   3.123  0.1668  1.2106 -0.8608
 9267TIP3    H227766   0.893   1.240   3.038  0.5155  0.6336 -0.2443
 9268TIP3   OH227767   1.927   3.599   2.039  0.3839 -0.0714 -0.2229
 9268TIP3    H127768   1.929   3.559   2.126 -0.6648  0.6342  0.1464
 9268TIP3    H227769   1.840   3.578   2.005  1.0054 -0.8670 -1.3722
 9269TIP3   OH227770   5.005   1.003   3.662  0.0466 -0.3958 -0.4676
 9269TIP3    H127771   5.072   0.956   3.711  0.8049  0.6416 -0.4609
 9269TIP3    H227772   4.993   0.951   3.582  0.8989 -0.5780 -0.4882
 9270TIP3   OH227773   1.655   2.615   2.039  0.3897  0.1133 -0.0565
 9270TIP3    H127774   1.592   2.592   1.971 -0.9674  1.7985  0.5267
 9270TIP3    H227775   1.721   2.668   1.995 -0.9950  2.0142  0.0087
 9271TIP3   OH227776   0.155   4.120   1.994 -0.1178 -0.4159 -0.6287
 9271TIP3    H127777   0.138   4.213   1.982 -1.7409 -0.7525 -1.1797
 9271TIP3    H227778   0.126   4.102   2.083  0.6130 -0.3185 -0.3650
 9272TIP3   OH227779   4.617   5.459   2.958  0.0487  0.5377 -0.4125
 9272TIP3    H127780   4.601   5.437   2.867 -0.6297 -0.9313  0.0223
 9272TIP3    H227781   4.611   5.375   3.004 -2.3771  1.5465  1.3434
 9273TIP3   OH227782   3.421   3.507   4.936  0.1272 -0.1385 -0.2211
 9273TIP3    H127783   3.355   3.437   4.937  0.8567 -0.8444  0.6471
 9273TIP3    H227784   3.484   3.479   4.869 -0.3216  0.4256 -0.8946
 9274TIP3   OH227785   4.018   0.264   5.871  0.3929  0.1259 -0.1326
 9274TIP3    H127786   4.047   0.324   5.940  0.4667 -0.0635  0.0016
 9274TIP3    H227787   3.925   0.283   5.861 -0.0878 -1.2082  1.4059
 9275TIP3   OH227788   4.754   5.963   1.191 -0.2344 -0.3524  0.0227
 9275TIP3    H127789   4.756   5.897   1.260 -0.4137 -0.0421  0.3291
 9275TIP3    H227790   4.740   6.045   1.238  0.9240  0.0256 -0.2573
 9276TIP3   OH227791   4.131   4.368   0.877  0.0636  0.5988 -0.2711
 9276TIP3    H127792   4.084   4.445   0.909  1.9552  1.4318  0.6670
 9276TIP3    H227793   4.101   4.357   0.787 -1.0327  1.7876 -0.0801
 9277TIP3   OH227794   6.252   3.458   3.476  0.0388 -0.0144 -0.2861
 9277TIP3    H127795   6.257   3.364   3.463  1.1766  0.0873 -0.7355
 9277TIP3    H227796   6.206   3.491   3.399  0.6943 -0.0927 -0.7182
 9278TIP3   OH227797   4.688   4.377   1.219 -0.7226 -0.0851 -0.2749
 9278TIP3    H127798   4.603   4.394   1.260 -0.5377  0.5416 -0.1329
 9278TIP3    H227799   4.674   4.397   1.127 -0.5468  0.7398 -0.1336
 9279TIP3   OH227800   1.920   2.459   5.612  0.1090 -0.2564  0.1122
 9279TIP3    H127801   1.937   2.365   5.613 -0.4821 -0.3697  1.2528
 9279TIP3    H227802   1.844   2.469   5.555 -0.0938 -0.5222  0.3359
 9280TIP3   OH227803   4.106   2.417   3.513 -0.2423  0.2996 -0.5057
 9280TIP3    H127804   4.017   2.435   3.481  0.4399 -1.1542 -3.5481
 9280TIP3    H227805   4.095   2.343   3.573 -1.0733 -0.0896 -1.1170
 9281TIP3   OH227806   6.387   4.648   0.865 -0.4285 -0.6609  0.1662
 9281TIP3    H127807   6.384   4.597   0.784 -1.5730  0.0293 -0.2461
 9281TIP3    H227808   6.395   4.582   0.935  0.3178 -1.2704 -0.4766
 9282TIP3   OH227809   5.405   3.118   3.632  0.1805  0.6162 -0.6062
 9282TIP3    H127810   5.428   3.025   3.635  1.7754  0.9998 -0.3002
 9282TIP3    H227811   5.485   3.164   3.657 -1.0010  2.0347  0.7628
 9283TIP3   OH227812   3.226   4.740   3.233  0.0627 -0.2833 -0.2789
 9283TIP3    H127813   3.271   4.746   3.317 -2.1063 -1.1501  1.0094
 9283TIP3    H227814   3.133   4.734   3.255 -0.8076  1.7497 -2.8211
 9284TIP3   OH227815   6.704   4.393   2.796  0.3518 -0.2950  0.1908
 9284TIP3    H127816   6.725   4.451   2.723  1.6255 -1.6545 -0.5797
 9284TIP3    H227817   6.650   4.447   2.855  2.0647  1.8872 -0.1146
 9285TIP3   OH227818   4.522   5.526   2.694 -0.4932  0.1830 -0.0550
 9285TIP3    H127819   4.533   5.608   2.741  0.7070  0.0242 -0.0267
 9285TIP3    H227820   4.428   5.519   2.679 -0.7852  0.7723  1.3639
 9286TIP3   OH227821   5.408   3.079   1.537  0.0286  0.5196 -0.4896
 9286TIP3    H127822   5.392   3.048   1.448 -0.4362 -2.7757  0.6077
 9286TIP3    H227823   5.329   3.054   1.585  0.7746  1.1175  1.1124
 9287TIP3   OH227824   2.886   5.658   3.961  0.1179 -0.1175 -0.1519
 9287TIP3    H127825   2.791   5.646   3.955 -0.2543  1.9019  0.7520
 9287TIP3    H227826   2.922   5.569   3.964 -1.7924 -0.9146  0.2879
 9288TIP3   OH227827   1.002   5.293   0.393 -0.1560  0.0279 -0.4860
 9288TIP3    H127828   1.085   5.326   0.357  1.4519  2.4449  4.5728
 9288TIP3    H227829   0.939   5.362   0.373 -0.0021  0.0090 -1.0598
 9289TIP3   OH227830   6.496   4.187   2.856  0.1826  0.0339 -0.1524
 9289TIP3    H127831   6.556   4.261   2.849  0.5401 -0.2194  0.2072
 9289TIP3    H227832   6.552   4.112   2.876 -0.1365 -0.4077 -0.8888
 9290TIP3   OH227833   7.060   4.978   0.259  0.5199  0.5041 -0.4220
 9290TIP3    H127834   7.005   4.975   0.181 -1.0641  3.1638  0.4688
 9290TIP3    H227835   7.110   5.060   0.250  1.0887  0.3269  0.8638
 9291TIP3   OH227836   4.753   0.369   0.764 -0.1061 -0.2531 -0.2328
 9291TIP3    H127837   4.745   0.286   0.812 -2.1331  0.0268  0.0204
 9291TIP3    H227838   4.786   0.344   0.678 -3.0928 -1.7492 -1.0716
 9292TIP3   OH227839   1.449   6.230   2.373 -0.3424 -0.2197  0.4675
 9292TIP3    H127840   1.486   6.262   2.455  0.4315 -1.8933  0.8212
 9292TIP3    H227841   1.376   6.174   2.401  0.0993 -1.0230  0.0566
 9293TIP3   OH227842   0.774   2.948   1.869  0.4047 -0.2548  0.1065
 9293TIP3    H127843   0.772   2.972   1.961 -0.6604  0.1876 -0.0250
 9293TIP3    H227844   0.845   2.884   1.863  1.3004  0.6002  1.0059
 9294TIP3   OH227845   6.014   1.942   2.149  0.0330 -0.4695  0.1122
 9294TIP3    H127846   5.919   1.925   2.150 -0.1220  0.1312  2.5024
 9294TIP3    H227847   6.023   2.028   2.108 -0.3002 -1.0557 -1.2574
 9295TIP3   OH227848   5.157   5.540   3.813  0.0990 -0.2732  0.5930
 9295TIP3    H127849   5.247   5.550   3.782 -0.5617 -0.0763 -1.3698
 9295TIP3    H227850   5.122   5.468   3.761 -1.1020  0.1407  0.8102
 9296TIP3   OH227851   4.299   1.436   0.956 -0.2489 -0.3946 -0.4593
 9296TIP3    H127852   4.271   1.428   1.047  2.0970 -0.7718  0.2792
 9296TIP3    H227853   4.253   1.514   0.924 -0.8533 -0.0602  1.1271
 9297TIP3   OH227854   4.580   0.452   1.708 -0.1891  0.2210 -0.3444
 9297TIP3    H127855   4.573   0.500   1.790 -1.8735 -1.7059  0.7412
 9297TIP3    H227856   4.553   0.514   1.641 -1.9707  0.9163  0.9519
 9298TIP3   OH227857   3.554   1.223   4.915  0.0568 -0.1284 -0.0245
 9298TIP3    H127858   3.488   1.275   4.869 -0.9504 -2.1445 -1.0088
 9298TIP3    H227859   3.505   1.173   4.980  0.9627 -0.0006  0.7890
 9299TIP3   OH227860   4.258   1.869   2.796  0.0656  0.3222 -0.5018
 9299TIP3    H127861   4.237   1.855   2.888  1.0177 -1.5887 -0.5121
 9299TIP3    H227862   4.293   1.957   2.791  1.9989 -0.2641  1.3814
 9300TIP3   OH227863   0.996   4.302   0.000  0.0424  0.1435  0.0320
 9300TIP3    H127864   0.980   4.209   0.018  2.1472 -0.3732 -0.4781
 9300TIP3    H227865   0.987   4.344   0.086 -0.5033 -0.5960  0.3522
 9301TIP3   OH227866   0.805   5.747   5.258 -0.5730 -0.4773  0.3301
 9301TIP3    H127867   0.833   5.657   5.276  0.7477  0.0051  0.7899
 9301TIP3    H227868   0.841   5.798   5.331  0.5055  0.7469 -1.0094
 9302TIP3   OH227869   6.453   2.114   0.433  0.1725  0.3701  0.4502
 9302TIP3    H127870   6.400   2.181   0.477 -0.8885  0.0021 -0.2218
 9302TIP3    H227871   6.389   2.060   0.387  1.1599  0.0185 -0.5507
 9303TIP3   OH227872   1.268   5.083   3.005  0.5679 -0.8232  1.1690
 9303TIP3    H127873   1.198   5.027   2.973 -0.6223  0.8386  0.7398
 9303TIP3    H227874   1.348   5.039   2.978 -0.3169 -2.1948  0.6674
 9304TIP3   OH227875   6.001   1.683   3.408 -0.2936  0.1967  0.3641
 9304TIP3    H127876   5.998   1.769   3.367 -0.2142 -0.6880 -1.6362
 9304TIP3    H227877   6.090   1.675   3.442  0.6147 -0.0987 -1.9116
 9305TIP3   OH227878   5.959   3.311   1.023  0.4205  0.2836  0.0710
 9305TIP3    H127879   6.027   3.284   1.084 -0.5000 -1.9164  0.2129
 9305TIP3    H227880   5.986   3.274   0.939  1.0222  2.2121 -0.6534
 9306TIP3   OH227881   2.509   5.511   1.765  0.9822  0.1585  0.1848
 9306TIP3    H127882   2.475   5.424   1.788  0.8670 -0.1231 -0.9962
 9306TIP3    H227883   2.599   5.494   1.736  0.3766  0.1594 -1.8006
 9307TIP3   OH227884   0.104   1.262   3.697 -0.1225  0.3350  0.2974
 9307TIP3    H127885   0.046   1.293   3.627  0.5148  2.1952  0.5207
 9307TIP3    H227886   0.063   1.293   3.777  0.4986  0.5509  0.5433
 9308TIP3   OH227887   4.679   3.274   5.176 -0.0311 -0.3396  0.0409
 9308TIP3    H127888   4.675   3.355   5.228 -0.1997  0.2377 -0.8523
 9308TIP3    H227889   4.598   3.228   5.197 -0.3012  0.0934 -0.0360
 9309TIP3   OH227890   5.500   3.308   1.211 -0.2923  0.1719  0.6292
 9309TIP3    H127891   5.496   3.342   1.122  1.6769 -0.9758  0.0382
 9309TIP3    H227892   5.479   3.383   1.266 -1.3791  0.9508 -0.7640
 9310TIP3   OH227893   5.177   5.912   1.591  0.1443  0.1468  0.9056
 9310TIP3    H127894   5.227   5.858   1.530  1.4247 -0.7338  2.6343
 9310TIP3    H227895   5.146   5.850   1.657 -1.6791  0.9780  0.9094
 9311TIP3   OH227896   2.575   0.940   3.010  0.2720  0.0698 -0.7691
 9311TIP3    H127897   2.598   0.848   2.997 -0.0760 -0.0588 -0.4739
 9311TIP3    H227898   2.650   0.988   2.974  0.6707 -0.3327 -0.4871
 9312TIP3   OH227899   5.927   5.747   2.080  0.1978  0.2537 -0.6472
 9312TIP3    H127900   6.014   5.724   2.112  0.2027  0.1945 -0.7028
 9312TIP3    H227901   5.902   5.673   2.025 -0.0026  0.1449 -0.4112
 9313TIP3   OH227902   2.562   2.423   1.085  0.0802 -0.2557 -0.0723
 9313TIP3    H127903   2.495   2.479   1.123  1.4017  0.0851  1.9391
 9313TIP3    H227904   2.614   2.481   1.030  0.9350  0.3770  1.3402
 9314TIP3   OH227905   5.927   0.687   5.218  0.2124  0.1196 -0.4030
 9314TIP3    H127906   5.916   0.595   5.241  1.0316 -0.1404 -0.9802
 9314TIP3    H227907   6.019   0.705   5.236  0.3106  0.5283 -1.2706
 9315TIP3   OH227908   6.277   4.727   3.008 -0.2588 -0.3517 -0.3150
 9315TIP3    H127909   6.316   4.717   3.095 -0.0884  0.2972 -0.3105
 9315TIP3    H227910   6.200   4.783   3.023 -0.0029  0.0905 -0.6392
 9316TIP3   OH227911   2.282   0.163   3.571 -0.2527 -0.1715 -0.2917
 9316TIP3    H127912   2.218   0.221   3.613 -0.8306 -0.1653 -1.1449
 9316TIP3    H227913   2.231   0.117   3.503  0.4730 -0.7627 -0.4491
 9317TIP3   OH227914   6.008   2.994   2.066  0.2627  0.0356  0.0415
 9317TIP3    H127915   5.994   2.899   2.059  0.5021  0.0741 -1.3393
 9317TIP3    H227916   5.926   3.032   2.034  0.3129  0.2943  0.2216
 9318TIP3   OH227917   4.892   1.991   2.802 -0.3344  0.0058 -0.3120
 9318TIP3    H127918   4.964   2.022   2.855 -1.4478  0.1018  1.1969
 9318TIP3    H227919   4.850   2.071   2.768 -1.0408  0.0514  0.6314
 9319TIP3   OH227920   1.642   2.978   0.477  0.0340 -0.1502  0.1236
 9319TIP3    H127921   1.645   3.026   0.560  1.0192 -1.5459  0.9395
 9319TIP3    H227922   1.717   2.918   0.481 -0.9981 -1.5923 -0.9437
 9320TIP3   OH227923   2.878   4.437   3.592 -0.2871  0.8745 -0.6202
 9320TIP3    H127924   2.906   4.474   3.676  0.1801 -2.4812  0.8570
 9320TIP3    H227925   2.793   4.398   3.610 -0.8320  1.2936 -2.1311
 9321TIP3   OH227926   6.331   4.231   3.855 -0.0336 -0.1693  0.2536
 9321TIP3    H127927   6.354   4.173   3.782  1.8677  0.9126 -0.0775
 9321TIP3    H227928   6.323   4.173   3.930  3.4628 -0.7986  0.2932
 9322TIP3   OH227929   4.975   2.337   3.929  0.8302  0.2425 -0.1783
 9322TIP3    H127930   5.037   2.386   3.874  0.2576  0.8305 -0.3122
 9322TIP3    H227931   4.889   2.354   3.890  0.6633 -1.4238 -0.6461
 9323TIP3   OH227932   3.150   5.181   5.344 -0.3148  0.4307  0.0873
 9323TIP3    H127933   3.143   5.124   5.420  1.8234  0.1349  0.1138
 9323TIP3    H227934   3.107   5.262   5.370  1.3371  0.7366  2.0465
 9324TIP3   OH227935   4.522   0.223   5.720  0.1334 -0.1001 -0.3788
 9324TIP3    H127936   4.576   0.204   5.643 -0.5092  1.2177 -1.1908
 9324TIP3    H227937   4.439   0.255   5.684 -0.2785  0.2908  0.8563
 9325TIP3   OH227938   5.853   0.535   5.598  0.2782  0.6265  0.3573
 9325TIP3    H127939   5.916   0.590   5.551 -0.4207  1.8700  0.8137
 9325TIP3    H227940   5.894   0.519   5.683  2.1145 -2.6773 -0.9595
 9326TIP3   OH227941   5.807   6.306   2.241  0.5835  0.5764 -0.0439
 9326TIP3    H127942   5.715   6.278   2.239  0.8679 -0.3748 -1.6848
 9326TIP3    H227943   5.806   6.393   2.201  0.4343  0.4081 -0.4153
 9327TIP3   OH227944   6.766   4.536   0.087 -0.1411 -0.0652  0.1964
 9327TIP3    H127945   6.723   4.452   0.104  0.6631 -0.7774 -1.1315
 9327TIP3    H227946   6.725   4.569   0.007 -1.1474  1.3166  1.2434
 9328TIP3   OH227947   2.557   1.133   1.896  0.1573  0.1502 -0.4500
 9328TIP3    H127948   2.592   1.111   1.810 -0.1220 -0.4966 -0.4024
 9328TIP3    H227949   2.633   1.162   1.947  0.5304 -0.7162 -0.5095
 9329TIP3   OH227950   5.657   3.004   3.218 -0.0248 -0.2813 -0.0039
 9329TIP3    H127951   5.741   3.006   3.264 -0.0891 -2.6454  0.3280
 9329TIP3    H227952   5.600   2.949   3.273 -1.6189  0.7364 -0.5456
 9330TIP3   OH227953   2.094   1.630   3.008 -0.9690  0.3012  0.1527
 9330TIP3    H127954   2.178   1.655   3.047 -0.7897  0.0582 -0.0733
 9330TIP3    H227955   2.088   1.684   2.929 -0.7574 -0.0919 -0.1348
 9331TIP3   OH227956   5.635   4.595   2.453 -0.4842 -0.3573 -0.1368
 9331TIP3    H127957   5.729   4.613   2.445 -0.9059  1.9048 -0.7291
 9331TIP3    H227958   5.599   4.675   2.493 -2.0059 -1.7021  1.3408
 9332TIP3   OH227959   3.372   6.670   4.043 -0.3751 -0.5080  0.3970
 9332TIP3    H127960   3.310   6.612   3.999  0.6453  0.0935 -1.9839
 9332TIP3    H227961   3.385   6.742   3.981  1.2940  0.3042  1.6295
 9333TIP3   OH227962   7.004   2.797   3.808 -0.4362  0.4320 -0.2062
 9333TIP3    H127963   6.937   2.752   3.859  0.5145  0.6698  1.3027
 9333TIP3    H227964   6.974   2.888   3.802 -0.3413  0.5011  0.3305
 9334TIP3   OH227965   6.637   2.473   4.787  0.4254  0.1044 -0.7807
 9334TIP3    H127966   6.622   2.420   4.708  0.3217 -0.0624 -0.6508
 9334TIP3    H227967   6.549   2.490   4.821  0.5235 -1.8198  0.6101
 9335TIP3   OH227968   0.887   0.177   4.537  0.2732  0.5552 -0.1811
 9335TIP3    H127969   0.923   0.195   4.624  0.7435 -2.3219  0.3301
 9335TIP3    H227970   0.950   0.216   4.476  0.2612  2.0674  0.7157
 9336TIP3   OH227971   6.023   0.848   4.959 -0.3543 -0.2857  0.5671
 9336TIP3    H127972   6.006   0.842   4.865 -0.0371 -1.7131  0.5730
 9336TIP3    H227973   6.030   0.757   4.988 -0.0680  0.1348  1.9080
 9337TIP3   OH227974   4.410   5.958   1.990 -0.0086  0.6782 -0.2005
 9337TIP3    H127975   4.385   6.050   1.982  0.7692  0.8254 -1.0852
 9337TIP3    H227976   4.457   5.938   1.909 -0.9779 -0.7691 -0.4582
 9338TIP3   OH227977   7.157   4.468   4.653  0.2511 -0.2122 -0.0084
 9338TIP3    H127978   7.181   4.377   4.633  1.5123  0.2448 -0.6583
 9338TIP3    H227979   7.086   4.460   4.717  1.1603 -1.6472  0.8876
 9339TIP3   OH227980  -0.030   3.888   5.351 -0.3442  0.2585  0.6334
 9339TIP3    H127981   0.020   3.869   5.430  1.4799  0.7553 -0.3654
 9339TIP3    H227982   0.033   3.924   5.290 -2.0808  1.6475 -0.4375
 9340TIP3   OH227983   0.894   4.630   0.944 -0.5496 -0.3146  0.0607
 9340TIP3    H127984   0.925   4.683   1.017  0.1836 -1.1115  0.3418
 9340TIP3    H227985   0.943   4.662   0.868 -0.2103 -0.4971  0.2024
 9341TIP3   OH227986   5.410   3.431   5.156 -0.5287  1.2410  0.1237
 9341TIP3    H127987   5.403   3.471   5.069  0.4787  2.1198  0.4220
 9341TIP3    H227988   5.376   3.498   5.215  0.0973  1.2118  0.5264
 9342TIP3   OH227989   3.434   0.690   0.524  0.2664 -0.3064 -0.8860
 9342TIP3    H127990   3.511   0.680   0.579  0.4985  0.1681 -1.1162
 9342TIP3    H227991   3.411   0.783   0.532 -1.5472 -0.8212  0.8674
 9343TIP3   OH227992   2.430   4.019   3.524  0.1769 -0.4629 -0.3538
 9343TIP3    H127993   2.359   4.051   3.468 -0.5056  0.1606  0.8412
 9343TIP3    H227994   2.413   3.925   3.532 -0.0868 -0.4456 -0.6678
 9344TIP3   OH227995   3.783   6.259   5.485 -0.1190 -0.2666  0.0160
 9344TIP3    H127996   3.741   6.186   5.441 -1.4999 -0.1673  1.1062
 9344TIP3    H227997   3.816   6.222   5.567  0.3086  0.0658 -0.0008
 9345TIP3   OH227998   0.566   3.092   4.598 -0.1892  0.6361  0.1092
 9345TIP3    H127999   0.636   3.088   4.532  0.6708  0.8808  0.9849
 9345TIP3    H228000   0.595   3.033   4.667  0.8990  3.3319  2.0904
 9346TIP3   OH228001   6.065   3.682   0.814 -0.1433  0.3025  0.4411
 9346TIP3    H128002   6.091   3.774   0.807 -0.4382  0.3313 -0.3687
 9346TIP3    H228003   6.136   3.633   0.772 -0.5736  0.2611 -0.2615
 9347TIP3   OH228004   5.442   5.510   0.215 -0.6931 -0.3402  0.1573
 9347TIP3    H128005   5.455   5.552   0.300  0.6351 -0.4313  0.0183
 9347TIP3    H228006   5.380   5.439   0.233  0.3524 -1.0052  1.2748
 9348TIP3   OH228007   4.246   3.979   4.283  0.3249 -0.1161 -0.3991
 9348TIP3    H128008   4.165   4.011   4.244 -0.3522  0.7113  1.5275
 9348TIP3    H228009   4.257   4.033   4.362  2.7123 -0.2581 -0.5500
 9349TIP3   OH228010   5.944   0.714   2.350  0.3092  0.4877  0.0287
 9349TIP3    H128011   5.955   0.809   2.358 -0.5957  0.6967 -0.9124
 9349TIP3    H228012   5.863   0.704   2.299 -1.0261 -0.8180  2.2454
 9350TIP3   OH228013   6.298   2.229   2.184  0.6134 -0.5715 -0.1351
 9350TIP3    H128014   6.354   2.218   2.108 -0.2518  0.1569 -0.9017
 9350TIP3    H228015   6.261   2.143   2.200  0.6368 -0.6827 -0.6737
 9351TIP3   OH228016   1.227   1.299   0.758  0.4181 -0.5397 -0.5505
 9351TIP3    H128017   1.169   1.271   0.687 -1.6505 -1.5987  1.4153
 9351TIP3    H228018   1.261   1.217   0.794 -0.1709 -0.1733  0.9108
 9352TIP3   OH228019   1.645   0.833   5.400 -0.3959  0.2400 -0.3411
 9352TIP3    H128020   1.571   0.836   5.339 -0.2262 -1.5354 -0.6651
 9352TIP3    H228021   1.604   0.815   5.485 -0.2935 -1.7278 -0.6771
 9353TIP3   OH228022   0.299   4.334   0.963  0.7180  0.4656 -0.7835
 9353TIP3    H128023   0.214   4.338   0.919  0.7888 -0.3098 -1.0179
 9353TIP3    H228024   0.350   4.272   0.910  1.4380  0.9399 -0.6563
 9354TIP3   OH228025   4.377   5.827   3.282 -0.2581 -0.0667  0.6328
 9354TIP3    H128026   4.330   5.746   3.260 -0.1629 -0.6023  2.2446
 9354TIP3    H228027   4.310   5.883   3.322 -0.5768  1.1389 -1.4689
 9355TIP3   OH228028   5.458   0.699   1.543  0.3049 -0.0310 -0.0876
 9355TIP3    H128029   5.446   0.646   1.464 -0.6352 -1.0617  0.7005
 9355TIP3    H228030   5.391   0.666   1.604  1.4433  0.2424  1.3762
 9356TIP3   OH228031   0.452   1.429   5.520  0.3775 -0.3226 -0.1477
 9356TIP3    H128032   0.507   1.462   5.591  0.6656 -1.9534  0.4305
 9356TIP3    H228033   0.408   1.507   5.486  0.9702  0.6332  1.1752
 9357TIP3   OH228034   1.575   3.095   3.766 -0.1312  0.2437 -0.4687
 9357TIP3    H128035   1.635   3.169   3.768  0.2199 -0.0558  0.5949
 9357TIP3    H228036   1.488   3.134   3.780 -0.0399  0.5369 -0.7190
 9358TIP3   OH228037   4.677   5.999   0.935 -0.7439  0.0150  0.2986
 9358TIP3    H128038   4.609   6.066   0.925  1.4741  2.2429 -1.1996
 9358TIP3    H228039   4.690   5.991   1.029 -2.2012  0.4519  0.5550
 9359TIP3   OH228040   1.157   2.024   5.287  0.0947 -0.0421 -0.1992
 9359TIP3    H128041   1.224   2.008   5.221  2.4070  2.4591  1.3403
 9359TIP3    H228042   1.114   2.105   5.259 -0.3510 -0.1001  0.2903
 9360TIP3   OH228043   1.535   2.293   3.832 -0.1500 -0.0600  0.2804
 9360TIP3    H128044   1.549   2.209   3.876 -2.3647 -0.7771 -0.2557
 9360TIP3    H228045   1.569   2.279   3.744 -1.8515 -0.9669 -0.2814
 9361TIP3   OH228046   4.904   4.121   4.308 -0.2367 -0.3343  0.1379
 9361TIP3    H128047   4.962   4.070   4.251 -1.0740 -1.8132  0.5583
 9361TIP3    H228048   4.815   4.098   4.279 -0.6605  1.6138 -0.2625
 9362TIP3   OH228049   5.948   2.194   4.530 -0.0585 -0.1538  0.3140
 9362TIP3    H128050   5.963   2.279   4.573  1.0326  0.1519 -0.6183
 9362TIP3    H228051   5.946   2.215   4.436  0.8063 -1.2269  0.0337
 9363TIP3   OH228052   3.471   4.765   5.815 -0.5299  1.0375 -0.4198
 9363TIP3    H128053   3.397   4.708   5.794 -0.6674  1.0550  0.0071
 9363TIP3    H228054   3.456   4.792   5.906  0.1069  0.8779 -0.2587
 9364TIP3   OH228055   4.775   4.306   0.674 -0.0351 -0.3982 -0.0247
 9364TIP3    H128056   4.818   4.387   0.700 -0.7937 -0.5572  1.9143
 9364TIP3    H228057   4.681   4.324   0.685 -0.2981 -1.0225 -1.1407
 9365TIP3   OH228058   2.784   3.441   3.641 -0.0562 -0.3592  0.6600
 9365TIP3    H128059   2.755   3.353   3.664 -2.8406  0.2690 -0.0628
 9365TIP3    H228060   2.819   3.432   3.552 -1.4026 -0.5853  0.1308
 9366TIP3   OH228061   0.157   5.867   0.439 -0.5186  0.0375  0.2842
 9366TIP3    H128062   0.252   5.865   0.442 -0.3209  2.9782 -0.8371
 9366TIP3    H228063   0.134   5.843   0.349 -0.5180  2.7256 -0.5262
 9367TIP3   OH228064   5.629   1.779   0.228  0.3477 -0.2380  0.1573
 9367TIP3    H128065   5.718   1.745   0.218  0.6083  0.1873  0.9720
 9367TIP3    H228066   5.610   1.768   0.321 -0.0306  0.7169  0.1981
 9368TIP3   OH228067   4.532   0.654   5.208  0.2787  0.8182 -0.2177
 9368TIP3    H128068   4.439   0.661   5.186 -0.2923 -0.0127  1.7229
 9368TIP3    H228069   4.535   0.591   5.280  2.4169  0.4495 -0.5642
 9369TIP3   OH228070   3.621   6.772   4.396 -0.0099 -0.0340 -0.5201
 9369TIP3    H128071   3.651   6.691   4.355 -0.2195  0.1356 -1.0150
 9369TIP3    H228072   3.525   6.767   4.391 -0.0104  0.6088 -1.2809
 9370TIP3   OH228073   0.330   1.344   3.575 -0.7351 -0.1148 -0.0231
 9370TIP3    H128074   0.248   1.314   3.614 -0.9972 -0.1920 -0.6233
 9370TIP3    H228075   0.303   1.386   3.493 -0.0303 -1.7242 -1.1239
 9371TIP3   OH228076   0.536   0.357   0.492  0.2662  0.1675 -0.1109
 9371TIP3    H128077   0.593   0.301   0.439 -0.7292 -0.3019 -0.7061
 9371TIP3    H228078   0.454   0.361   0.444 -0.0020  1.3880  0.3946
 9372TIP3   OH228079   2.172   5.926   2.451 -0.0701  0.3242  0.1176
 9372TIP3    H128080   2.209   6.011   2.474  0.2152  0.9719 -2.4615
 9372TIP3    H228081   2.222   5.863   2.503  0.0708  1.6611  1.6773
 9373TIP3   OH228082   6.196   1.628   2.031 -0.1714  0.8061  0.7459
 9373TIP3    H128083   6.111   1.661   2.001 -0.2231  0.1433  0.1497
 9373TIP3    H228084   6.256   1.701   2.018 -0.4898  1.0105  0.4113
 9374TIP3   OH228085   0.304   1.544   3.772 -0.0688  0.2414 -0.4670
 9374TIP3    H128086   0.313   1.631   3.733  0.2255  0.4194 -0.0124
 9374TIP3    H228087   0.341   1.485   3.706 -0.3568  0.4438 -0.8198
 9375TIP3   OH228088   4.451   2.772   1.314  0.3536  0.3313  0.0919
 9375TIP3    H128089   4.427   2.694   1.364  1.4771 -0.8135 -1.1073
 9375TIP3    H228090   4.420   2.756   1.226  2.2544  0.3683 -0.6398
 9376TIP3   OH228091   2.634   1.570   3.935  0.6517 -0.5770 -0.2426
 9376TIP3    H128092   2.560   1.550   3.879 -0.1660 -1.4261  1.0847
 9376TIP3    H228093   2.680   1.487   3.946  0.6632 -0.4753  0.5282
 9377TIP3   OH228094   2.594   2.915   4.193 -0.4241  0.0169  0.0053
 9377TIP3    H128095   2.537   2.905   4.117  0.9252 -0.3175 -0.9878
 9377TIP3    H228096   2.601   2.826   4.229 -1.0903  0.1805  0.5623
 9378TIP3   OH228097   1.509   5.237   5.477  0.4647  0.2496 -0.2322
 9378TIP3    H128098   1.550   5.166   5.426 -0.4636 -0.9108  0.5723
 9378TIP3    H228099   1.416   5.233   5.454 -0.2136 -1.1140  2.3586
 9379TIP3   OH228100   5.132   6.338   2.008  0.2810 -0.0959  0.3013
 9379TIP3    H128101   5.129   6.261   1.951  0.1292 -0.4408  0.7688
 9379TIP3    H228102   5.071   6.317   2.079  0.2475  0.4537  0.4339
 9380TIP3   OH228103   4.508   5.646   5.282  0.1804 -0.2007 -0.2551
 9380TIP3    H128104   4.451   5.673   5.354 -0.8109 -0.3937 -0.9410
 9380TIP3    H228105   4.450   5.597   5.223  1.4130 -1.8490 -0.1707
 9381TIP3   OH228106   1.644   1.297   2.017 -0.8629  0.4801 -0.3821
 9381TIP3    H128107   1.602   1.287   1.932  0.0124 -1.9901 -0.6046
 9381TIP3    H228108   1.738   1.290   1.999 -0.6769 -0.5412  0.7848
 9382TIP3   OH228109   1.566   0.784   4.580  0.2372 -0.3997 -0.2510
 9382TIP3    H128110   1.574   0.835   4.661  0.1200  0.3455 -0.6970
 9382TIP3    H228111   1.472   0.783   4.562  0.3589  0.4715 -1.0093
 9383TIP3   OH228112   4.017   1.459   0.417  0.4811 -0.0654 -0.1047
 9383TIP3    H128113   4.096   1.467   0.471  1.4072 -0.1404 -1.3975
 9383TIP3    H228114   4.037   1.389   0.356 -0.4806  0.1241 -0.6498
 9384TIP3   OH228115   2.855   1.722   4.055 -0.4109 -0.5348 -0.2413
 9384TIP3    H128116   2.778   1.723   3.998 -0.2592 -1.9332 -0.5054
 9384TIP3    H228117   2.858   1.632   4.089 -0.6502  0.2871  2.1856
 9385TIP3   OH228118   1.194   2.613   3.539  0.4482 -0.6708  0.1604
 9385TIP3    H128119   1.100   2.629   3.551  0.2210  0.0321 -2.0423
 9385TIP3    H228120   1.198   2.539   3.478  1.2923 -0.1570 -0.4354
 9386TIP3   OH228121   3.162   3.580   3.598 -0.3099  0.3065  0.1523
 9386TIP3    H128122   3.236   3.519   3.598 -0.2835  0.3320  0.6653
 9386TIP3    H228123   3.190   3.651   3.655 -0.4452  0.6743 -0.2394
 9387TIP3   OH228124   1.093   2.469   2.609  0.9632 -0.0725 -0.1584
 9387TIP3    H128125   1.164   2.420   2.568  2.7288  0.1073  2.4506
 9387TIP3    H228126   1.044   2.403   2.659 -0.6972 -0.1640 -1.7884
 9388TIP3   OH228127   4.005   2.038   4.360  0.1133  0.0516  0.6038
 9388TIP3    H128128   4.060   1.960   4.367 -0.2817 -0.6983 -2.7921
 9388TIP3    H228129   3.948   2.035   4.437  1.7974 -1.5970  1.8637
 9389TIP3   OH228130   0.492   5.966   5.845  0.3680  0.0425  0.2117
 9389TIP3    H128131   0.410   5.917   5.849  0.7172 -0.5973  4.1037
 9389TIP3    H228132   0.548   5.915   5.787 -1.3697 -0.5485 -1.0105
 9390TIP3   OH228133   1.219   6.781   3.856 -0.6296 -0.6799 -0.1105
 9390TIP3    H128134   1.280   6.710   3.877 -1.5703 -1.8360 -1.1554
 9390TIP3    H228135   1.168   6.794   3.936 -0.0547 -0.7570  0.2767
 9391TIP3   OH228136   2.598   3.301   4.675  0.6322 -0.1552 -0.1305
 9391TIP3    H128137   2.536   3.361   4.715  0.2569  0.0583 -1.0096
 9391TIP3    H228138   2.554   3.216   4.679 -0.1963  0.1651 -1.6827
 9392TIP3   OH228139   3.956   5.635   5.821 -0.2851  0.1836  0.1663
 9392TIP3    H128140   4.021   5.584   5.869 -2.2068 -2.5661  0.0154
 9392TIP3    H228141   4.006   5.677   5.751  1.7174  0.3311  1.5734
 9393TIP3   OH228142   3.775   1.560   5.227 -0.1090 -0.0822 -0.3062
 9393TIP3    H128143   3.799   1.486   5.172 -2.1425 -0.8942 -0.1770
 9393TIP3    H228144   3.682   1.548   5.245 -0.1614  1.7269  0.9331
 9394TIP3   OH228145   5.249   2.690   0.431 -0.5946 -0.5558  0.3978
 9394TIP3    H128146   5.178   2.715   0.490 -2.8477 -0.1398 -2.2793
 9394TIP3    H228147   5.243   2.595   0.424 -0.6881 -0.5493  0.3926
 9395TIP3   OH228148   4.384   4.439   0.072 -0.5346 -0.0742  0.4868
 9395TIP3    H128149   4.399   4.372   0.004  1.1017  1.7654 -1.1084
 9395TIP3    H228150   4.395   4.392   0.154 -0.0617 -1.8970 -0.5483
 9396TIP3   OH228151   1.941   4.359   1.015  0.0282 -0.3640 -0.5600
 9396TIP3    H128152   1.957   4.451   1.037  1.9496 -0.5739 -0.8851
 9396TIP3    H228153   2.027   4.325   0.992 -0.7929 -2.0179 -1.3648
 9397TIP3   OH228154   0.047   5.267   1.286 -0.2911  0.5090 -0.0314
 9397TIP3    H128155  -0.006   5.347   1.279 -1.3557 -0.1949 -0.1668
 9397TIP3    H228156   0.030   5.220   1.204 -0.0767 -0.1129  0.2812
 9398TIP3   OH228157   0.564   5.871   4.892  0.0579 -0.1509 -0.0424
 9398TIP3    H128158   0.556   5.943   4.955  0.7817  1.4163 -1.6555
 9398TIP3    H228159   0.514   5.900   4.816  0.2457 -1.4406 -0.6831
 9399TIP3   OH228160   2.991   2.822   4.062 -0.1133  0.4822  0.0432
 9399TIP3    H128161   2.931   2.885   4.102 -0.6133 -0.5084  0.9030
 9399TIP3    H228162   3.077   2.848   4.093 -0.2897  0.8907  0.1976
 9400TIP3   OH228163   7.150   0.215   2.274  0.5999  0.1755 -0.2615
 9400TIP3    H128164   7.099   0.163   2.211  0.3668  1.0056 -0.7689
 9400TIP3    H228165   7.086   0.272   2.316  0.4813 -1.3960  1.8525
 9401TIP3   OH228166   3.119   3.201   3.912 -0.3465 -0.3400 -0.3964
 9401TIP3    H128167   3.081   3.163   3.834  0.7917  0.7528 -1.5295
 9401TIP3    H228168   3.212   3.214   3.891 -0.1724  0.6963  0.8263
 9402TIP3   OH228169   6.889   6.378   5.491 -0.2980 -0.1519 -0.3310
 9402TIP3    H128170   6.916   6.292   5.459  0.3823  0.2154 -0.7503
 9402TIP3    H228171   6.821   6.358   5.557  1.5549 -1.1354  1.3949
 9403TIP3   OH228172   4.565   3.028   4.082  0.0193 -0.1410  0.1729
 9403TIP3    H128173   4.477   3.065   4.091  0.3200  0.7099 -0.3392
 9403TIP3    H228174   4.568   2.995   3.993  0.6556  1.0331 -0.2617
 9404TIP3   OH228175   1.456   4.371   1.671 -0.7898  0.3069 -0.5667
 9404TIP3    H128176   1.513   4.349   1.745 -2.3142 -0.3036  0.4817
 9404TIP3    H228177   1.484   4.311   1.602 -0.3299 -0.1742  0.0149
 9405TIP3   OH228178   3.809   3.024   4.703 -0.2234  0.4851 -0.4314
 9405TIP3    H128179   3.801   3.097   4.642 -1.9743 -0.5818 -1.5913
 9405TIP3    H228180   3.786   2.947   4.651  1.9698 -0.9874  0.6253
 9406TIP3   OH228181   1.177   0.881   0.566  0.2312 -0.7703 -0.3407
 9406TIP3    H128182   1.155   0.789   0.585 -0.6138 -0.9819 -2.1178
 9406TIP3    H228183   1.196   0.882   0.472  3.1364  0.3730  0.1700
 9407TIP3   OH228184   3.728   1.548   1.289 -0.0422 -0.0161 -0.2930
 9407TIP3    H128185   3.654   1.575   1.344  1.1271 -1.3279  2.0949
 9407TIP3    H228186   3.702   1.463   1.254 -0.5509  0.5530 -1.3217
 9408TIP3   OH228187   1.118   1.080   1.963  0.4749 -0.0558 -0.3768
 9408TIP3    H128188   1.102   1.174   1.956 -0.0457  0.0133  1.3307
 9408TIP3    H228189   1.048   1.040   1.910  0.5353  0.4978 -0.8860
 9409TIP3   OH228190   5.204   0.041   5.380 -0.2469 -0.0361  0.1210
 9409TIP3    H128191   5.295   0.064   5.360 -0.1623  0.4967  1.0523
 9409TIP3    H228192   5.189   0.078   5.467 -1.1071 -0.8200  0.3175
 9410TIP3   OH228193   1.549   5.329   2.419  0.8055  0.0142  0.7130
 9410TIP3    H128194   1.634   5.372   2.412  0.8423  0.6136  3.6196
 9410TIP3    H228195   1.541   5.306   2.512 -1.0957 -2.4009  0.0602
 9411TIP3   OH228196   0.461   5.971   1.657  0.5536  0.5688  0.3771
 9411TIP3    H128197   0.377   5.944   1.693  0.5630  0.3149  0.2162
 9411TIP3    H228198   0.518   5.895   1.672  0.5907  0.5107 -0.0504
 9412TIP3   OH228199   3.063   1.067   4.931 -0.1021  0.1191 -0.7643
 9412TIP3    H128200   3.031   1.089   4.844 -0.3704 -0.0167 -0.7024
 9412TIP3    H228201   3.150   1.030   4.916  0.4294  1.3751 -0.8489
 9413TIP3   OH228202   3.162   2.805   4.815  0.2629  0.0658  0.5427
 9413TIP3    H128203   3.144   2.856   4.737  0.5585 -0.5626  0.0495
 9413TIP3    H228204   3.093   2.738   4.816  0.3955 -0.0700  0.6821
 9414TIP3   OH228205   4.189   0.237   4.511 -0.3290  0.1477  0.8045
 9414TIP3    H128206   4.110   0.273   4.471  0.4495  0.4662 -0.4827
 9414TIP3    H228207   4.224   0.176   4.446  1.2187  1.0322  0.7546
 9415TIP3   OH228208   0.700   0.584   3.907 -0.0001  0.1317  0.5561
 9415TIP3    H128209   0.604   0.587   3.903  0.0523  1.1689 -1.1739
 9415TIP3    H228210   0.728   0.603   3.818  1.8381  0.1734  1.1001
 9416TIP3   OH228211   4.037   3.070   0.336 -0.3064 -0.9230  0.0014
 9416TIP3    H128212   4.021   3.042   0.246  1.1541 -0.5225 -0.3969
 9416TIP3    H228213   3.991   3.153   0.343  0.3391 -0.4968 -0.6772
 9417TIP3   OH228214   6.761   5.656   0.482 -0.6109  0.8123 -0.1483
 9417TIP3    H128215   6.850   5.670   0.451 -0.6220 -0.2310 -0.7014
 9417TIP3    H228216   6.706   5.695   0.415 -0.6160 -0.8885 -1.1991
 9418TIP3   OH228217   2.995   2.696   5.711  0.4324  0.2127  0.4419
 9418TIP3    H128218   3.081   2.727   5.683  0.5311 -1.5989 -1.4940
 9418TIP3    H228219   3.003   2.601   5.714 -1.0404  0.0895  1.9334
 9419TIP3   OH228220   2.621   1.356   5.714  1.0011 -0.6669  0.0397
 9419TIP3    H128221   2.714   1.377   5.707  1.0879 -0.7847  0.7528
 9419TIP3    H228222   2.602   1.365   5.807  0.4321 -1.2311 -0.0204
 9420TIP3   OH228223   4.639   0.978   2.590 -0.2862 -0.5224  0.3919
 9420TIP3    H128224   4.642   0.883   2.593 -0.8763 -0.5464  0.3304
 9420TIP3    H228225   4.693   1.006   2.665  0.1071 -0.8945  0.2502
 9421TIP3   OH228226   0.405   0.117   5.759  0.7161  0.0285 -0.1568
 9421TIP3    H128227   0.481   0.065   5.731 -0.1206 -0.7579 -1.0837
 9421TIP3    H228228   0.331   0.057   5.750 -0.2301  1.2443 -0.8245
 9422TIP3   OH228229   4.742   6.426   4.282  0.1574 -0.2997 -0.8734
 9422TIP3    H128230   4.780   6.471   4.207  1.8492  0.3295  0.3127
 9422TIP3    H228231   4.797   6.349   4.295 -0.1782 -0.4598 -0.3377
 9423TIP3   OH228232   2.341   6.424   2.772  0.2126 -0.4862 -0.3833
 9423TIP3    H128233   2.395   6.503   2.764 -0.3067  0.3352  2.7696
 9423TIP3    H228234   2.267   6.440   2.714  0.3420  1.1683 -0.1520
 9424TIP3   OH228235   4.402   6.600   1.703 -0.3145  0.2879  0.4635
 9424TIP3    H128236   4.396   6.554   1.619  1.0698 -0.6551  0.8392
 9424TIP3    H228237   4.492   6.634   1.706 -0.3578  0.3597  1.5283
 9425TIP3   OH228238   5.750   0.083   5.396  0.3115  0.1074  0.4464
 9425TIP3    H128239   5.801   0.140   5.454  0.5957 -1.2589  1.5992
 9425TIP3    H228240   5.764  -0.005   5.431 -2.5983 -0.3813  0.6505
 9426TIP3   OH228241   4.054   3.217   2.530 -0.5064 -0.6632  0.1446
 9426TIP3    H128242   4.130   3.250   2.483 -0.9469 -1.2765 -1.0331
 9426TIP3    H228243   4.079   3.223   2.623  0.0115  1.4614 -0.0841
 9427TIP3   OH228244   4.846   0.171   4.285 -0.4412  0.2307 -0.5945
 9427TIP3    H128245   4.879   0.106   4.224 -0.0494  1.4541 -1.7389
 9427TIP3    H228246   4.870   0.138   4.371 -1.3014 -1.7040 -1.0391
 9428TIP3   OH228247   1.062   0.816   4.167  0.3679  0.0453 -0.1632
 9428TIP3    H128248   1.002   0.849   4.099  0.1239  0.3871  0.2118
 9428TIP3    H228249   1.100   0.895   4.205 -0.2364 -0.0865  0.7611
 9429TIP3   OH228250   4.536   1.203   5.118  0.0189  0.0702  0.2100
 9429TIP3    H128251   4.443   1.212   5.137  0.2438  0.4534  1.1868
 9429TIP3    H228252   4.559   1.115   5.147 -0.4389 -0.7865 -1.8581
 9430TIP3   OH228253   4.420   3.951   5.899 -0.5179 -0.3136  0.3604
 9430TIP3    H128254   4.396   3.955   5.807 -0.0960 -1.0126  0.2069
 9430TIP3    H228255   4.509   3.984   5.903 -1.9480  4.1004  1.1917
 9431TIP3   OH228256   2.444   3.750   3.064 -0.8749  0.8920 -0.5498
 9431TIP3    H128257   2.474   3.735   2.975 -0.0408  1.5210 -0.3907
 9431TIP3    H228258   2.349   3.754   3.057 -0.7957  1.4400 -1.4959
 9432TIP3   OH228259   2.665   5.223   1.272  0.3193  0.2456  0.2966
 9432TIP3    H128260   2.759   5.213   1.262  0.4358  1.3342  0.1297
 9432TIP3    H228261   2.654   5.256   1.361  0.2056  1.2413 -0.0728
 9433TIP3   OH228262   1.004   4.869   4.660  0.3892 -1.2021 -0.1262
 9433TIP3    H128263   0.999   4.963   4.640  0.4294 -0.7832  1.6829
 9433TIP3    H228264   0.912   4.840   4.661  0.3323 -1.0135  0.0723
 9434TIP3   OH228265   2.971   6.153   0.461 -0.6479 -0.0346 -0.4300
 9434TIP3    H128266   2.901   6.208   0.498  0.4205  0.0042  1.6931
 9434TIP3    H228267   3.051   6.203   0.476 -0.0246 -0.5333 -1.9143
 9435TIP3   OH228268   5.474   2.594   4.807 -0.0472  0.3183  0.4397
 9435TIP3    H128269   5.482   2.506   4.843 -0.6116  0.5499  1.1644
 9435TIP3    H228270   5.384   2.620   4.826 -0.3708  0.4683 -1.1518
 9436TIP3   OH228271   3.513   1.004   3.302  0.1443  0.2536  0.1544
 9436TIP3    H128272   3.464   1.036   3.226 -1.5528  0.1225  1.1189
 9436TIP3    H228273   3.479   0.916   3.316  1.1404 -0.0808  0.4839
 9437TIP3   OH228274   5.636   1.067   1.618  0.0478  0.0916  0.4906
 9437TIP3    H128275   5.550   1.066   1.661  0.0461 -0.7499  0.4908
 9437TIP3    H228276   5.625   1.011   1.541  0.9291 -1.1125  1.1997
 9438TIP3   OH228277   5.182   6.132   0.522  0.3414 -0.4466  0.4506
 9438TIP3    H128278   5.276   6.147   0.511  0.6701 -2.9176 -0.9112
 9438TIP3    H228279   5.146   6.218   0.544  2.7260  0.8135 -0.2100
 9439TIP3   OH228280   0.208   2.691   1.899  0.0173 -0.1337  0.1246
 9439TIP3    H128281   0.189   2.603   1.868  0.1642 -0.7615  1.6903
 9439TIP3    H228282   0.122   2.726   1.925 -0.0932  0.3518 -0.8401
 9440TIP3   OH228283   0.492   6.156   5.571 -0.1794  0.2048 -0.4525
 9440TIP3    H128284   0.432   6.173   5.643  0.2927  0.8557 -0.2025
 9440TIP3    H228285   0.508   6.062   5.574 -0.7599  0.1122 -0.1877
 9441TIP3   OH228286   3.204   1.993   5.499 -0.2828  0.1477 -0.3646
 9441TIP3    H128287   3.267   1.968   5.567  0.5068 -1.7650 -1.7266
 9441TIP3    H228288   3.144   1.919   5.494 -1.3877  1.0343 -0.5732
 9442TIP3   OH228289   1.411   6.656   1.607 -0.2264  0.0558 -0.0453
 9442TIP3    H128290   1.379   6.666   1.518 -1.9780  2.3952  0.7443
 9442TIP3    H228291   1.350   6.595   1.648 -0.4938  0.3470 -0.0012
 9443TIP3   OH228292   6.311   0.323   0.060 -0.1443  0.8222 -0.2039
 9443TIP3    H128293   6.263   0.282  -0.012  0.6541  1.1443 -0.9470
 9443TIP3    H228294   6.390   0.357   0.019  1.5517 -1.1266  1.2520
 9444TIP3   OH228295   6.132   2.877   5.884  0.1015  0.0179  0.2778
 9444TIP3    H128296   6.072   2.894   5.956 -0.5204  1.5305 -0.5435
 9444TIP3    H228297   6.119   2.951   5.824  0.0853 -1.5069 -1.7223
 9445TIP3   OH228298   1.112   1.902   0.929  0.2297 -0.3605 -0.1608
 9445TIP3    H128299   1.136   1.840   0.860  2.4318  1.4928 -1.1857
 9445TIP3    H228300   1.085   1.981   0.881 -2.0443 -0.2688  1.1118
 9446TIP3   OH228301   2.961   0.044   3.717  0.1469  0.1154  0.7691
 9446TIP3    H128302   2.894  -0.011   3.676  0.5977 -0.2052  0.4469
 9446TIP3    H228303   3.017  -0.018   3.764 -0.2861  0.4723  1.7637
 9447TIP3   OH228304   1.093   5.837   1.578  0.1346  0.8898  0.2008
 9447TIP3    H128305   1.127   5.750   1.601 -1.0260  0.3372 -0.0951
 9447TIP3    H228306   1.101   5.888   1.659  0.5857  0.4357  0.4516
 9448TIP3   OH228307   6.345   3.610   4.001 -0.2598 -0.4053 -0.3297
 9448TIP3    H128308   6.389   3.639   3.921  0.2926  0.4570  0.2634
 9448TIP3    H228309   6.379   3.522   4.016 -0.1812 -0.4775 -0.9045
 9449TIP3   OH228310   1.970   1.596   0.509  0.7644  0.1147  0.1250
 9449TIP3    H128311   1.926   1.522   0.467 -0.8408 -0.4654  2.5927
 9449TIP3    H228312   2.050   1.560   0.545 -0.1197 -0.5508  1.5119
 9450TIP3   OH228313   1.836   3.740   4.173  0.0082 -0.4002 -0.1589
 9450TIP3    H128314   1.752   3.755   4.130 -0.4537 -1.9483  0.1247
 9450TIP3    H228315   1.880   3.677   4.116 -0.0747 -1.4864  0.9290
 9451TIP3   OH228316   6.310   6.794   4.674 -0.8407  0.1825  0.0388
 9451TIP3    H128317   6.347   6.708   4.690 -0.5373  0.8211  3.6994
 9451TIP3    H228318   6.385   6.848   4.647 -0.7226 -0.3072 -0.6318
 9452TIP3   OH228319   7.155   2.385   5.221 -0.0504  0.0139 -0.0624
 9452TIP3    H128320   7.106   2.431   5.153  1.8127  1.3819 -0.5517
 9452TIP3    H228321   7.128   2.294   5.211 -4.3591  0.8823  1.3340
 9453TIP3   OH228322   4.491   3.111   0.561  0.1867 -0.0331  0.4438
 9453TIP3    H128323   4.411   3.127   0.512  1.6328 -1.4264 -2.6747
 9453TIP3    H228324   4.541   3.192   0.553  0.4576 -0.2888 -0.5276
 9454TIP3   OH228325   3.151   4.845   4.002 -0.0462  0.4686 -0.3661
 9454TIP3    H128326   3.083   4.912   4.009  0.3718  0.9304 -0.6210
 9454TIP3    H228327   3.103   4.763   3.992 -0.5757  0.6620  0.4705
 9455TIP3   OH228328   4.302   3.633   4.500 -0.1373  0.4913  0.5161
 9455TIP3    H128329   4.237   3.699   4.473  0.5150 -0.2139 -3.4296
 9455TIP3    H228330   4.262   3.550   4.475  0.1940 -0.4599  2.9309
 9456TIP3   OH228331   2.745   4.150   2.992  0.4159 -0.2158 -0.2319
 9456TIP3    H128332   2.713   4.086   3.057  1.7157 -1.3795 -0.6978
 9456TIP3    H228333   2.724   4.110   2.908 -1.4081  1.3637 -0.5973
 9457TIP3   OH228334   3.647   1.227   4.214  1.0185  0.6137 -1.2875
 9457TIP3    H128335   3.595   1.262   4.287  2.2000  2.6467 -1.3293
 9457TIP3    H228336   3.736   1.222   4.249  0.7450 -4.5403 -0.6170
 9458TIP3   OH228337   7.036   3.223   5.657  0.1282  0.2626  0.1128
 9458TIP3    H128338   7.086   3.153   5.700  0.9903  0.7499 -0.0785
 9458TIP3    H228339   7.061   3.218   5.565  0.5492  1.1018  0.1692
 9459TIP3   OH228340   0.407   4.739   5.663 -0.1256  0.8576  0.4258
 9459TIP3    H128341   0.465   4.663   5.663  0.7024  1.4558 -0.6210
 9459TIP3    H228342   0.345   4.722   5.592  0.4641  1.4167 -0.2509
 9460TIP3   OH228343   3.360   1.586   4.082  0.0021  0.8804 -0.2193
 9460TIP3    H128344   3.296   1.520   4.059  1.3520 -0.3992 -0.4741
 9460TIP3    H228345   3.423   1.585   4.009  1.0804  1.0718  0.6763
 9461TIP3   OH228346   2.292   1.206   1.189 -0.3655  0.2136  0.1799
 9461TIP3    H128347   2.364   1.254   1.230  1.0565  0.1305 -2.0562
 9461TIP3    H228348   2.259   1.149   1.258  2.0670 -0.1232  1.1564
 9462TIP3   OH228349   1.550   1.039   0.725  0.2788 -0.5312  0.6018
 9462TIP3    H128350   1.564   1.093   0.647  0.9612 -0.5079  0.7352
 9462TIP3    H228351   1.637   1.029   0.763 -0.1087 -0.1882  1.5985
 9463TIP3   OH228352   6.570   2.904   4.531  0.6346 -0.3074  0.1570
 9463TIP3    H128353   6.500   2.964   4.555 -0.5562 -0.8044 -1.8030
 9463TIP3    H228354   6.578   2.844   4.605  0.1741  0.7938  1.1090
 9464TIP3   OH228355   1.714   5.356   1.028 -0.2153 -0.1783  0.2051
 9464TIP3    H128356   1.671   5.368   0.943 -1.9614 -2.3606  0.6857
 9464TIP3    H228357   1.741   5.264   1.028 -1.4242 -0.6052  2.4872
 9465TIP3   OH228358   4.915   1.277   0.196  0.6879  0.3670 -0.4916
 9465TIP3    H128359   4.925   1.218   0.122  1.0580 -1.3928  0.8803
 9465TIP3    H228360   4.826   1.310   0.190 -0.7525 -3.0129  0.4875
 9466TIP3   OH228361   5.694   3.913   4.836 -0.4936  0.1230  0.4567
 9466TIP3    H128362   5.657   3.866   4.910 -1.2072  0.2493  0.1835
 9466TIP3    H228363   5.737   3.990   4.875 -2.0852  0.9609  0.6414
 9467TIP3   OH228364   5.971   3.829   2.737 -0.1166 -0.1230 -0.0248
 9467TIP3    H128365   5.891   3.881   2.730  0.2629  0.3090 -1.4148
 9467TIP3    H228366   6.040   3.886   2.702  0.3403 -1.4512 -1.4111
 9468TIP3   OH228367   5.429   6.209   1.803  0.1751  0.2831 -0.6553
 9468TIP3    H128368   5.371   6.202   1.727 -1.1191  0.5568  0.2769
 9468TIP3    H228369   5.419   6.126   1.849  1.8303 -0.3532 -1.3270
 9469TIP3   OH228370   5.737   2.758   1.348 -0.7107 -0.3391  0.2687
 9469TIP3    H128371   5.773   2.695   1.410  0.5381 -0.0459 -0.1338
 9469TIP3    H228372   5.806   2.823   1.337 -0.5553 -0.8101 -2.0325
 9470TIP3   OH228373   0.351   3.637   1.130 -0.6547  0.4759 -0.4705
 9470TIP3    H128374   0.431   3.687   1.112 -0.9535  1.7602  1.3621
 9470TIP3    H228375   0.363   3.554   1.085  0.8354  1.3826 -1.8649
 9471TIP3   OH228376   6.091   4.926   3.110  0.3307 -0.0208 -0.1096
 9471TIP3    H128377   6.100   5.006   3.162  0.8560  0.2619 -0.6264
 9471TIP3    H228378   6.042   4.866   3.167  1.8824 -0.1328  1.1924
 9472TIP3   OH228379   6.547   0.826   2.479  0.4560  0.1775 -0.2226
 9472TIP3    H128380   6.602   0.808   2.403  0.8502 -0.2251  0.1561
 9472TIP3    H228381   6.531   0.740   2.519  0.9719  0.4740  0.6426
 9473TIP3   OH228382   2.434   3.224   2.646  0.4434  0.3488  0.4331
 9473TIP3    H128383   2.361   3.284   2.658  0.4084  0.1560  1.2413
 9473TIP3    H228384   2.396   3.137   2.659  0.2212  0.0230 -1.9596
 9474TIP3   OH228385   1.717   1.117   4.998 -0.3357 -0.1269  0.0590
 9474TIP3    H128386   1.698   1.120   5.092 -0.8623  0.3151 -0.0523
 9474TIP3    H228387   1.679   1.198   4.964 -0.6636 -0.5586 -0.6260
 9475TIP3   OH228388   4.582   0.613   4.770  0.3168 -0.0920 -0.3530
 9475TIP3    H128389   4.615   0.571   4.849  1.1821  0.3007 -0.4865
 9475TIP3    H228390   4.642   0.584   4.701  2.3520  3.0218 -0.0882
 9476TIP3   OH228391   3.795   0.041   5.850  0.2089  0.3717 -1.0376
 9476TIP3    H128392   3.758   0.129   5.845  1.6143  1.0259 -0.4512
 9476TIP3    H228393   3.878   0.047   5.803  1.2575 -0.1088  0.6731
 9477TIP3   OH228394   6.100   2.375   5.103 -0.2596  0.2869  0.0248
 9477TIP3    H128395   6.183   2.330   5.116  0.3139  0.6151 -2.1964
 9477TIP3    H228396   6.111   2.458   5.150  0.2007 -0.1425  0.7072
 9478TIP3   OH228397   2.629   4.228   4.865 -0.1289 -0.1039 -0.2162
 9478TIP3    H128398   2.603   4.171   4.793 -0.6985  2.8581 -2.5183
 9478TIP3    H228399   2.724   4.219   4.870  0.0123  0.2409 -1.8892
 9479TIP3   OH228400   5.111   5.894   0.688 -0.1470 -0.5650  0.4452
 9479TIP3    H128401   5.052   5.924   0.757 -1.7584 -0.5306 -0.8942
 9479TIP3    H228402   5.135   5.974   0.641  0.6333 -0.6343  0.7074
 9480TIP3   OH228403   6.666   0.558   4.448  0.4162 -0.5041 -0.8571
 9480TIP3    H128404   6.680   0.482   4.391  2.4586 -0.5168 -0.4021
 9480TIP3    H228405   6.626   0.521   4.527  0.2143 -0.9043 -1.1423
 9481TIP3   OH228406   0.446   0.853   5.505 -0.1062  0.2073 -0.6657
 9481TIP3    H128407   0.464   0.947   5.495  0.9299 -0.0832 -1.8296
 9481TIP3    H228408   0.412   0.845   5.594  1.9706  1.3959  0.3158
 9482TIP3   OH228409   3.273   1.133   2.140 -0.2146  0.2680  0.5135
 9482TIP3    H128410   3.217   1.095   2.072  0.9030 -0.1123 -0.2301
 9482TIP3    H228411   3.212   1.165   2.206 -1.3270  0.4696 -0.5737
 9483TIP3   OH228412   2.504   1.465   1.913 -0.1259  0.0650 -0.2363
 9483TIP3    H128413   2.546   1.399   1.968  1.5531  2.0259  1.0366
 9483TIP3    H228414   2.568   1.483   1.844 -0.2017  0.8816 -0.1103
 9484TIP3   OH228415   2.392   4.828   5.544 -0.6872  0.3297 -0.2821
 9484TIP3    H128416   2.429   4.822   5.455  2.1536  1.0127  0.7533
 9484TIP3    H228417   2.306   4.869   5.531  0.0355  1.2925 -2.6577
 9485TIP3   OH228418   6.820   1.137   5.669 -0.1055  0.0199  0.1825
 9485TIP3    H128419   6.881   1.156   5.740  1.0382  2.0503 -1.2292
 9485TIP3    H228420   6.829   1.043   5.654  1.7042  0.0312  0.8942
 9486TIP3   OH228421   2.796   6.186   4.954  0.3924  0.0946  0.0267
 9486TIP3    H128422   2.853   6.121   4.912  1.5175  1.3244 -0.3885
 9486TIP3    H228423   2.855   6.258   4.978 -0.9101  1.1995  0.0011
 9487TIP3   OH228424   1.764   3.953   4.858 -0.4133  0.2475 -0.2309
 9487TIP3    H128425   1.695   3.963   4.793 -0.6038  0.9282  0.0661
 9487TIP3    H228426   1.718   3.960   4.942 -0.1481 -0.4645 -0.0200
 9488TIP3   OH228427   6.981   6.778   2.795 -0.2351 -0.0877 -0.2043
 9488TIP3    H128428   6.891   6.752   2.816 -0.2554  0.2872  0.1892
 9488TIP3    H228429   6.979   6.874   2.798 -0.3017  0.0220 -2.1684
 9489TIP3   OH228430   5.564   1.125   5.427 -0.3208  0.1019  0.3370
 9489TIP3    H128431   5.623   1.069   5.477  0.3266  0.5644  0.1028
 9489TIP3    H228432   5.476   1.102   5.458  0.0924  0.7039  2.0221
 9490TIP3   OH228433   5.758   6.145   4.817 -0.0829 -0.0578  0.9020
 9490TIP3    H128434   5.777   6.120   4.726  0.5389  1.7046  0.4990
 9490TIP3    H228435   5.662   6.142   4.823 -0.1613  0.3036  0.0203
 9491TIP3   OH228436   3.964   1.498   1.129 -0.2326  0.5322 -0.1616
 9491TIP3    H128437   3.890   1.508   1.190  1.0020  1.6555  1.2131
 9491TIP3    H228438   3.963   1.578   1.077 -0.8245 -0.0948 -1.1598
 9492TIP3   OH228439   3.527   2.771   1.723 -0.4066  0.2063  0.2209
 9492TIP3    H128440   3.493   2.838   1.664 -0.9826 -0.7026 -0.5107
 9492TIP3    H228441   3.449   2.738   1.768 -0.0637  0.3846  0.9537
 9493TIP3   OH228442   1.393   2.018   4.123 -0.3891 -0.7062 -0.4742
 9493TIP3    H128443   1.488   2.025   4.115 -0.5954  1.5374 -2.2916
 9493TIP3    H228444   1.369   2.085   4.187 -0.7820 -1.0571 -0.2448
 9494TIP3   OH228445   6.721   5.892   3.491 -0.3981 -0.1592  0.1497
 9494TIP3    H128446   6.752   5.976   3.524 -2.2152  0.3782  0.6047
 9494TIP3    H228447   6.742   5.893   3.397  2.8546 -0.7869  0.7277
 9495TIP3   OH228448   5.115   2.529   3.732  0.1688 -0.3204  0.2323
 9495TIP3    H128449   5.103   2.624   3.740 -0.4976 -0.5144  2.1069
 9495TIP3    H228450   5.191   2.519   3.675  0.9389  1.3772  0.8837
 9496TIP3   OH228451   5.394   0.506   3.572 -0.1455  0.0707 -0.2044
 9496TIP3    H128452   5.303   0.488   3.598 -0.0325  0.4679  0.4801
 9496TIP3    H228453   5.432   0.551   3.647  0.4290  0.5072 -0.7481
 9497TIP3   OH228454   0.012   3.708   4.125 -0.3307 -0.2180  0.1994
 9497TIP3    H128455   0.030   3.765   4.050 -1.0989 -0.3756 -0.1199
 9497TIP3    H228456   0.090   3.714   4.180  0.7628 -1.0161 -1.1982
 9498TIP3   OH228457   1.939   5.419   3.532 -0.0899 -0.6365 -0.0083
 9498TIP3    H128458   1.917   5.461   3.448 -0.8860 -0.0318  0.4837
 9498TIP3    H228459   1.969   5.332   3.508  0.8017 -0.0804 -1.0072
 9499TIP3   OH228460   3.337   4.281   0.964 -0.0417  0.1400 -0.4003
 9499TIP3    H128461   3.270   4.262   0.898 -0.8239  0.0904  0.3956
 9499TIP3    H228462   3.377   4.196   0.982  0.4038  0.2074 -1.0475
 9500TIP3   OH228463   5.238   2.086   0.987 -0.0664 -0.0772 -0.1913
 9500TIP3    H128464   5.206   2.165   0.944  2.7299  0.8734 -0.7778
 9500TIP3    H228465   5.241   2.020   0.918  0.8286  0.3552 -0.5924
 9501TIP3   OH228466   7.141   3.252   2.453 -0.4898 -0.2817 -0.1647
 9501TIP3    H128467   7.187   3.334   2.439 -0.0846 -0.6564 -1.1427
 9501TIP3    H228468   7.056   3.277   2.489 -0.0002  0.4921  0.4640
 9502TIP3   OH228469   0.652   0.784   4.619 -0.1579 -0.8823 -0.0656
 9502TIP3    H128470   0.715   0.855   4.610 -0.3227 -0.2926  2.6325
 9502TIP3    H228471   0.584   0.803   4.555  1.7565 -0.9036 -2.2324
 9503TIP3   OH228472   0.935   3.857   1.368 -0.0232  0.3684  0.2219
 9503TIP3    H128473   0.912   3.935   1.318  0.3988  0.6149  0.3982
 9503TIP3    H228474   1.030   3.866   1.383  0.4107 -1.1467 -1.4109
 9504TIP3   OH228475   3.452   1.932   4.824  0.6974  0.5756 -0.0442
 9504TIP3    H128476   3.377   1.986   4.800 -0.5187 -0.5797  0.9397
 9504TIP3    H228477   3.510   1.990   4.872 -1.2373  0.7598  2.2327
 9505TIP3   OH228478   4.251   0.328   2.334  0.4505  0.1914  0.1279
 9505TIP3    H128479   4.302   0.270   2.277 -1.3265 -1.8448  0.5003
 9505TIP3    H228480   4.252   0.286   2.420 -2.1932 -0.2599  0.0405
 9506TIP3   OH228481   4.956   3.521   1.003  0.3622  0.1887 -0.2849
 9506TIP3    H128482   5.001   3.525   0.919  2.7550 -0.2611  0.8931
 9506TIP3    H228483   5.012   3.570   1.063 -1.2634  0.4667  1.1061
 9507TIP3   OH228484   5.250   0.541   1.533 -0.3202 -0.0092  0.4092
 9507TIP3    H128485   5.184   0.587   1.482 -0.2047 -1.5564 -1.2149
 9507TIP3    H228486   5.219   0.451   1.538  2.1775 -1.1131 -1.5141
 9508TIP3   OH228487   0.985   0.861   2.115  0.5642  0.3463 -0.2744
 9508TIP3    H128488   1.067   0.892   2.153 -0.8682  3.9581  0.3568
 9508TIP3    H228489   0.970   0.920   2.041 -1.6491  0.1037 -0.0828
 9509TIP3   OH228490   0.351   1.921   5.413  0.3871  0.0028 -0.3725
 9509TIP3    H128491   0.370   1.976   5.337  2.4172 -1.2331 -0.8244
 9509TIP3    H228492   0.434   1.881   5.435 -0.6785 -1.5938  0.9909
 9510TIP3   OH228493   2.395   3.914   3.880 -0.2286 -0.0641 -0.9584
 9510TIP3    H128494   2.434   3.836   3.920  0.7599  0.8679 -0.0658
 9510TIP3    H228495   2.460   3.944   3.817 -0.9047 -0.3317 -1.8065
 9511TIP3   OH228496   3.741   2.674   1.962  0.8449  0.0197 -0.0856
 9511TIP3    H128497   3.811   2.639   1.907  0.7602 -1.3410  0.6288
 9511TIP3    H228498   3.685   2.598   1.981  0.6047  0.5367  1.4550
 9512TIP3   OH228499   0.919   2.556   3.528  0.2919  0.3883  0.4511
 9512TIP3    H128500   0.869   2.476   3.513 -0.8048  1.2601 -0.8495
 9512TIP3    H228501   0.877   2.596   3.604  0.4726  0.0207  0.7483
 9513TIP3   OH228502   4.362   1.639   3.452 -0.6617 -0.2798  0.0258
 9513TIP3    H128503   4.376   1.548   3.478 -0.1525  0.0740  1.0512
 9513TIP3    H228504   4.301   1.674   3.518  1.1487  0.8099  1.2205
 9514TIP3   OH228505   2.438   3.705   1.306  0.0400  0.2699 -0.9850
 9514TIP3    H128506   2.522   3.748   1.323  0.9763 -1.5063 -0.9841
 9514TIP3    H228507   2.423   3.719   1.212 -0.0908  1.2743 -0.8315
 9515TIP3   OH228508   5.790   1.169   3.780  0.2824  0.3242  0.2084
 9515TIP3    H128509   5.866   1.140   3.729 -0.7440  0.4932 -1.5236
 9515TIP3    H228510   5.758   1.245   3.732 -0.7031  0.5356  1.1762
 9516TIP3   OH228511   3.239   6.348   4.707  0.1340  0.0957  0.3416
 9516TIP3    H128512   3.290   6.278   4.748 -0.7082 -0.4395  0.5030
 9516TIP3    H228513   3.250   6.423   4.765  0.5560 -0.0738  0.4839
 9517TIP3   OH228514   4.370   2.342   2.454  0.3826 -0.6682 -0.5077
 9517TIP3    H128515   4.351   2.281   2.383  1.7663 -2.8364  0.8644
 9517TIP3    H228516   4.427   2.408   2.415 -1.2634 -0.1018 -2.0719
 9518TIP3   OH228517   5.528   5.268   1.052 -0.3130 -0.9059 -0.1809
 9518TIP3    H128518   5.604   5.291   1.105  0.9524 -1.2593 -1.7768
 9518TIP3    H228519   5.456   5.261   1.115  0.5529  1.2360  1.1393
 9519TIP3   OH228520   6.074   1.137   1.266  0.3032  0.6537  0.4054
 9519TIP3    H128521   6.005   1.086   1.308 -1.6954  0.2933 -2.9445
 9519TIP3    H228522   6.030   1.217   1.236  1.9274  1.5272  0.2239
 9520TIP3   OH228523   7.073   3.136   2.912 -0.4233 -0.0789  0.1978
 9520TIP3    H128524   7.158   3.177   2.902 -0.3580 -0.6170 -1.8724
 9520TIP3    H228525   7.012   3.209   2.922 -0.0651  0.4739 -1.3777
 9521TIP3   OH228526   2.869   1.895   0.420 -0.0266  0.0777  0.7361
 9521TIP3    H128527   2.784   1.880   0.378  0.1670  1.2743 -0.1302
 9521TIP3    H228528   2.851   1.887   0.513 -1.1062  0.3172  0.5638
 9522TIP3   OH228529   4.601   1.850   5.634 -0.3179 -0.0194  0.3699
 9522TIP3    H128530   4.559   1.767   5.658  1.4035 -0.7109  1.2193
 9522TIP3    H228531   4.649   1.829   5.554  2.2272 -0.6870  1.9339
 9523TIP3   OH228532   0.863   4.291   2.692  0.2756  0.1086  0.0263
 9523TIP3    H128533   0.933   4.347   2.726  0.4721  0.5156 -1.0218
 9523TIP3    H228534   0.895   4.262   2.607 -0.8252  0.2901 -0.4629
 9524TIP3   OH228535   2.065   0.111   2.471  0.5022 -0.3940 -0.2096
 9524TIP3    H128536   2.151   0.122   2.510  0.1145 -0.0013  0.5495
 9524TIP3    H228537   2.021   0.195   2.484 -0.5319 -1.0606  0.7605
 9525TIP3   OH228538   4.664   3.828   1.011  0.6050  0.5307  0.6135
 9525TIP3    H128539   4.598   3.797   0.949  0.6938  0.7341  0.4166
 9525TIP3    H228540   4.684   3.751   1.065  0.0421  0.5269  0.8225
 9526TIP3   OH228541   5.508   2.924   1.968  0.6450 -0.2235 -0.2445
 9526TIP3    H128542   5.514   2.871   1.888  1.9155 -0.3137 -0.1096
 9526TIP3    H228543   5.427   2.897   2.009  1.6547 -2.7130  0.2490
 9527TIP3   OH228544   1.688   0.871   5.789  0.4193 -0.3930  0.3258
 9527TIP3    H128545   1.674   0.776   5.797  0.8975 -0.3091  3.6030
 9527TIP3    H228546   1.694   0.902   5.879  0.5036  2.7726 -0.6369
 9528TIP3   OH228547   3.233   2.081   4.174  0.3915 -0.2108  0.3234
 9528TIP3    H128548   3.160   2.022   4.195  0.9022 -0.9001  0.1637
 9528TIP3    H228549   3.294   2.028   4.123  0.5322  0.6471 -0.4400
 9529TIP3   OH228550  -0.001   6.260   5.364 -0.4490 -0.2341 -0.8446
 9529TIP3    H128551   0.078   6.209   5.382 -0.1706 -0.5506 -2.8188
 9529TIP3    H228552  -0.056   6.200   5.313 -0.9331  0.7993 -1.5548
 9530TIP3   OH228553   0.850   0.400   1.460 -0.1330 -0.2581  0.2544
 9530TIP3    H128554   0.910   0.347   1.512  0.2250  0.3379  0.4681
 9530TIP3    H228555   0.878   0.490   1.477 -0.4025 -0.0297 -0.5046
 9531TIP3   OH228556   4.278   1.339   4.198  0.1240 -1.1637  0.1355
 9531TIP3    H128557   4.366   1.346   4.235 -0.1833 -2.3347  1.1425
 9531TIP3    H228558   4.224   1.395   4.255 -0.0030 -1.4415  0.2889
 9532TIP3   OH228559   3.817   3.836   3.754 -0.6704 -0.3657  0.5042
 9532TIP3    H128560   3.835   3.912   3.809  0.0470  0.3047 -0.6058
 9532TIP3    H228561   3.725   3.845   3.729 -0.2936  0.8175 -0.5772
 9533TIP3   OH228562   4.980   4.900   2.727  0.0509  0.0517 -0.3207
 9533TIP3    H128563   4.991   4.831   2.792  0.5645  0.6795  0.2660
 9533TIP3    H228564   4.889   4.891   2.698 -0.2009 -0.1924  0.5279
 9534TIP3   OH228565   5.397   0.575   0.518 -0.0380  0.1159 -0.1420
 9534TIP3    H128566   5.352   0.659   0.510 -0.6608 -0.2687 -0.7876
 9534TIP3    H228567   5.432   0.558   0.431 -1.3300 -1.0629 -0.4607
 9535TIP3   OH228568   2.353   1.917   4.747 -0.1695 -0.3010 -0.2377
 9535TIP3    H128569   2.288   1.847   4.758  0.0042 -0.4680 -0.2569
 9535TIP3    H228570   2.302   1.996   4.736 -0.3718 -0.4505 -0.3759
 9536TIP3   OH228571   5.739   4.161   4.973  0.1355 -0.1053 -0.4956
 9536TIP3    H128572   5.800   4.207   4.915  1.6099  1.6985  2.2510
 9536TIP3    H228573   5.657   4.209   4.966  0.5646  0.6441 -0.4352
 9537TIP3   OH228574   1.375   1.003   1.891  0.2876  0.2495 -0.0977
 9537TIP3    H128575   1.361   0.919   1.847  1.2268 -0.6148  1.1755
 9537TIP3    H228576   1.287   1.031   1.917  0.0890 -1.0422  0.6955
 9538TIP3   OH228577   4.071   5.553   1.296  0.4066  0.6889 -0.3011
 9538TIP3    H128578   4.166   5.544   1.292  0.2105 -1.3898 -1.7070
 9538TIP3    H228579   4.042   5.546   1.205 -1.1605  0.2494  0.1964
 9539TIP3   OH228580   0.634   5.114   5.206 -0.1352 -0.1596  0.0095
 9539TIP3    H128581   0.576   5.165   5.150 -1.3176 -2.0511 -0.5761
 9539TIP3    H228582   0.611   5.141   5.295 -1.4923 -0.4311 -0.2415
 9540TIP3   OH228583   4.345   4.712   5.115  0.1917  0.3129 -0.1332
 9540TIP3    H128584   4.262   4.673   5.088  0.9390 -1.2789 -0.2638
 9540TIP3    H228585   4.339   4.718   5.211 -0.4448  1.1668 -0.2088
 9541TIP3   OH228586   1.968   1.985   2.956  0.2744 -0.2243 -0.6711
 9541TIP3    H128587   1.993   1.911   2.900 -0.5528 -0.4908 -0.6942
 9541TIP3    H228588   1.949   1.946   3.041  2.4820  0.2884  0.1289
 9542TIP3   OH228589   1.938   4.134   5.367  0.1468  0.0744  0.3718
 9542TIP3    H128590   1.933   4.229   5.372 -1.9773 -0.0381  1.4270
 9542TIP3    H228591   1.948   4.106   5.457  1.6180 -0.7047 -0.0059
 9543TIP3   OH228592   4.617   2.160   3.245 -0.3239 -0.3856  0.1317
 9543TIP3    H128593   4.650   2.159   3.335 -0.6632 -0.9188  0.2497
 9543TIP3    H228594   4.523   2.149   3.253 -0.6391  1.5890 -0.1804
 9544TIP3   OH228595   1.730   1.752   2.763 -0.2374 -0.1804 -0.4281
 9544TIP3    H128596   1.702   1.785   2.678  2.6203  0.9568 -1.0438
 9544TIP3    H228597   1.685   1.808   2.827 -1.1731 -0.0136 -1.2143
 9545TIP3   OH228598   5.932   2.793   4.697  0.6082  0.0370 -0.2504
 9545TIP3    H128599   5.880   2.713   4.689  1.8877 -0.6146 -2.6831
 9545TIP3    H228600   6.022   2.766   4.681  1.0773  1.9334 -1.1186
 9546TIP3   OH228601   5.750   0.264   4.882 -0.2458 -0.2917 -0.1015
 9546TIP3    H128602   5.742   0.271   4.977  0.5228 -1.1171  0.0346
 9546TIP3    H228603   5.836   0.302   4.862 -1.1110  1.4971 -0.6905
 9547TIP3   OH228604   2.573   6.682   1.520  0.4272 -0.3472 -0.2840
 9547TIP3    H128605   2.576   6.589   1.497 -2.0908 -0.5693  0.0615
 9547TIP3    H228606   2.506   6.718   1.463  0.2400  0.9329  0.7124
 9548TIP3   OH228607   6.000   1.630   0.449  0.4502  0.1041 -0.4423
 9548TIP3    H128608   5.905   1.624   0.438  0.3217 -0.4728  0.8981
 9548TIP3    H228609   6.025   1.550   0.495  1.7283 -0.1775 -1.5289
 9549TIP3   OH228610   6.957   1.023   3.164  0.3235  0.2593  0.1568
 9549TIP3    H128611   6.960   1.100   3.222 -1.6757  0.5853 -0.0879
 9549TIP3    H228612   7.038   0.976   3.183  1.5412  2.3277  0.4339
 9550TIP3   OH228613   4.426   3.961   0.864  0.1118 -0.0800  0.2021
 9550TIP3    H128614   4.433   3.900   0.791 -0.7413  0.4402 -0.3330
 9550TIP3    H228615   4.434   4.048   0.823  2.7316  0.1920  1.1095
 9551TIP3   OH228616   2.401   5.214   2.693  0.2155  0.0948  0.5344
 9551TIP3    H128617   2.490   5.239   2.667 -0.8561  1.1701 -2.4743
 9551TIP3    H228618   2.375   5.282   2.756  0.6399  1.2927 -0.5366
 9552TIP3   OH228619   1.454   4.398   5.067  0.2475  0.0200 -0.0183
 9552TIP3    H128620   1.430   4.469   5.008 -1.4214 -0.8632 -0.4869
 9552TIP3    H228621   1.401   4.413   5.146 -1.1030 -1.3186 -0.6017
 9553TIP3   OH228622   2.506   0.276   0.758  0.3207  0.3409  0.4117
 9553TIP3    H128623   2.567   0.203   0.746  2.3635  1.8108  1.3199
 9553TIP3    H228624   2.549   0.351   0.718 -0.7707  1.4978  1.2991
 9554TIP3   OH228625   1.594   5.220   3.000 -0.3644  0.3575 -0.0998
 9554TIP3    H128626   1.668   5.230   3.060  0.8682  3.5062 -1.8709
 9554TIP3    H228627   1.531   5.286   3.028 -1.5726 -0.7983  0.0255
 9555TIP3   OH228628   5.230   4.212   5.625  0.0707  0.3380 -0.4917
 9555TIP3    H128629   5.249   4.131   5.674  1.2130  0.0481 -1.3770
 9555TIP3    H228630   5.137   4.204   5.602  0.1663 -0.7298 -0.5730
 9556TIP3   OH228631   7.076   1.499   1.986 -0.0711 -0.3987  0.4052
 9556TIP3    H128632   7.059   1.567   1.922 -1.1225 -0.3026  0.7672
 9556TIP3    H228633   6.993   1.490   2.034  0.4456 -1.0280  1.2052
 9557TIP3   OH228634   6.326   2.698   0.381  0.7136  0.5933  0.0358
 9557TIP3    H128635   6.336   2.750   0.301  0.1035 -1.8543 -1.7351
 9557TIP3    H228636   6.412   2.703   0.423  0.9292  2.2427 -0.5299
 9558TIP3   OH228637   3.696   5.468   2.122  0.1399 -0.1326 -0.1322
 9558TIP3    H128638   3.712   5.417   2.043 -0.7417 -0.7699  0.0905
 9558TIP3    H228639   3.632   5.417   2.172  0.1395  0.6098  0.6569
 9559TIP3   OH228640   3.415   4.550   1.425  0.4797 -0.4412  0.3550
 9559TIP3    H128641   3.435   4.536   1.332 -0.9658 -1.3685  0.1558
 9559TIP3    H228642   3.360   4.628   1.426  1.7153  0.4688  0.6236
 9560TIP3   OH228643   4.122   0.588   0.510 -0.0253  0.1077  0.0808
 9560TIP3    H128644   4.061   0.661   0.500 -0.1678 -0.3304 -3.1364
 9560TIP3    H228645   4.172   0.587   0.429  1.7892 -1.8039  1.1318
 9561TIP3   OH228646   2.110   0.929   5.214  0.4354  0.2514  0.2924
 9561TIP3    H128647   2.107   1.025   5.210 -0.5861  0.2134 -0.7654
 9561TIP3    H228648   2.172   0.904   5.146  0.6215  0.1587  0.4961
 9562TIP3   OH228649   2.482   4.828   5.134  0.4956  0.3322 -0.2120
 9562TIP3    H128650   2.442   4.852   5.051  0.4422 -0.9820 -0.5790
 9562TIP3    H228651   2.433   4.878   5.200 -0.4007  0.3016 -0.8424
 9563TIP3   OH228652   3.497   1.063   4.509 -0.4327 -0.2876 -0.5447
 9563TIP3    H128653   3.498   0.999   4.580 -1.2411 -0.9176 -1.0710
 9563TIP3    H228654   3.567   1.036   4.451  0.0225  0.0413 -0.1604
 9564TIP3   OH228655   5.807   2.245   2.835  0.5397  0.2335  0.0339
 9564TIP3    H128656   5.759   2.256   2.753  0.8607 -0.2020 -0.2173
 9564TIP3    H228657   5.898   2.237   2.809  0.8406  1.7135  0.5545
 9565TIP3   OH228658   5.923   3.922   5.381  0.1073 -0.0383  0.0258
 9565TIP3    H128659   5.833   3.897   5.402  0.3767 -0.1802  1.0932
 9565TIP3    H228660   5.918   3.963   5.295 -0.7498 -1.3707 -0.5851
 9566TIP3   OH228661   3.532   2.937   3.368  0.0129  0.3182  0.6002
 9566TIP3    H128662   3.481   3.014   3.394  1.3160  1.5703 -0.3986
 9566TIP3    H228663   3.511   2.925   3.275  1.5117  0.8690  0.1708
 9567TIP3   OH228664   7.127   0.746   1.430  0.3591 -0.4836 -0.5049
 9567TIP3    H128665   7.152   0.654   1.416  1.9099  0.0027 -1.1213
 9567TIP3    H228666   7.179   0.774   1.505 -0.7512 -0.3392  0.2208
 9568TIP3   OH228667   3.106   0.177   2.485 -0.2542 -0.3767 -1.3593
 9568TIP3    H128668   3.155   0.237   2.542 -1.3473  0.2064 -1.0140
 9568TIP3    H228669   3.019   0.174   2.522 -0.4743 -1.4713 -1.9280
 9569TIP3   OH228670   4.298   6.135   4.994 -0.1014  0.2725  0.0973
 9569TIP3    H128671   4.255   6.050   5.004 -0.0626  0.3314  0.7890
 9569TIP3    H228672   4.230   6.199   5.017  0.4509  0.3535  1.6053
 9570TIP3   OH228673   0.973   0.908   0.889 -0.1155  0.7518  0.3776
 9570TIP3    H128674   1.014   0.924   0.974 -0.7083 -0.8443  1.0000
 9570TIP3    H228675   0.987   0.815   0.873 -0.4391  0.9309 -1.0566
 9571TIP3   OH228676   2.838   1.084   2.215  0.3335 -0.7263  0.4205
 9571TIP3    H128677   2.752   1.071   2.175  0.9483 -1.3850 -0.7353
 9571TIP3    H228678   2.900   1.050   2.150  1.3925 -1.5161  1.7883
 9572TIP3   OH228679   0.571   3.132   0.681 -0.1155 -0.7371 -0.3641
 9572TIP3    H128680   0.538   3.142   0.771  0.3750 -1.7073 -0.0627
 9572TIP3    H228681   0.628   3.055   0.685  1.3350  0.2562 -1.1208
 9573TIP3   OH228682   0.759   2.168   5.753  0.1676  0.3234  0.0736
 9573TIP3    H128683   0.753   2.253   5.797  0.8613  1.1368 -1.3279
 9573TIP3    H228684   0.668   2.140   5.742 -0.1730  1.7010 -0.9187
 9574TIP3   OH228685   0.208   1.558   4.262 -0.1005  0.4584  0.1615
 9574TIP3    H128686   0.244   1.537   4.175 -0.1039 -0.5397  0.3929
 9574TIP3    H228687   0.116   1.577   4.245  0.1320  1.3536 -0.1950
 9575TIP3   OH228688   4.747   5.961   4.543 -0.6250  0.1184  0.0059
 9575TIP3    H128689   4.724   6.005   4.625 -2.3229  1.7343 -1.2370
 9575TIP3    H228690   4.834   5.994   4.521 -0.8344  0.9320  0.3649
 9576TIP3   OH228691   3.596   3.613   2.567 -0.2966 -0.1843 -0.5105
 9576TIP3    H128692   3.621   3.642   2.655  1.6819 -0.4667 -0.9246
 9576TIP3    H228693   3.549   3.687   2.530  2.4394  1.6538 -0.6422
 9577TIP3   OH228694   4.195   0.048   4.303  0.1293 -0.2775  0.6892
 9577TIP3    H128695   4.191   0.075   4.211  1.0769 -1.1583  0.3649
 9577TIP3    H228696   4.267  -0.015   4.306 -0.3625 -0.8105  1.9003
 9578TIP3   OH228697   0.466   0.748   3.649  0.0056 -0.0749  0.2056
 9578TIP3    H128698   0.427   0.807   3.585  0.2920  0.0573  0.1513
 9578TIP3    H228699   0.438   0.661   3.623 -0.8514  0.0817  0.5890
 9579TIP3   OH228700   3.848   3.921   0.798  0.1738  0.0974 -0.0977
 9579TIP3    H128701   3.891   3.883   0.874  0.7050 -1.3741 -1.0956
 9579TIP3    H228702   3.771   3.866   0.783  0.7213 -0.3816 -1.3096
 9580TIP3   OH228703   4.218   4.979   1.414  0.3022 -0.6104 -0.0661
 9580TIP3    H128704   4.126   4.954   1.418  0.3330 -0.8046 -0.5272
 9580TIP3    H228705   4.259   4.909   1.364  0.4513  0.1977 -1.0899
 9581TIP3   OH228706   1.228   3.923   1.730  0.6996  0.2888  0.3312
 9581TIP3    H128707   1.256   3.901   1.819 -0.5209 -0.8010  0.4769
 9581TIP3    H228708   1.193   3.841   1.695 -0.4967  1.1301 -0.4991
 9582TIP3   OH228709   6.605   5.217   0.077  0.1773 -0.1070 -0.4232
 9582TIP3    H128710   6.546   5.254   0.011 -1.0527  2.0943  1.7646
 9582TIP3    H228711   6.693   5.233   0.043 -0.3962 -1.0078 -2.4840
 9583TIP3   OH228712   2.023   3.963   1.989 -0.2664  0.6846 -0.3733
 9583TIP3    H128713   2.094   3.978   1.926 -0.2379 -1.3947 -0.9012
 9583TIP3    H228714   2.065   3.917   2.062 -0.0600  4.0128  1.8144
 9584TIP3   OH228715   0.918   2.987   5.419 -0.3271  0.1736 -0.0366
 9584TIP3    H128716   0.976   2.981   5.343  0.4316 -1.2468  0.6015
 9584TIP3    H228717   0.835   3.018   5.383  0.7512  2.1229 -1.0002
 9585TIP3   OH228718   4.181   4.827   3.268 -0.0979  0.3650  0.6313
 9585TIP3    H128719   4.195   4.794   3.357  0.7622 -0.8005  0.0937
 9585TIP3    H228720   4.093   4.799   3.245 -0.0046 -0.0960  0.8177
 9586TIP3   OH228721   2.636   0.061   3.802 -0.1607 -0.1632  0.1802
 9586TIP3    H128722   2.590   0.049   3.719 -0.6759  0.4471  0.3756
 9586TIP3    H228723   2.675  -0.025   3.820 -0.4996 -0.4465 -0.4182
 9587TIP3   OH228724   4.496   2.937   4.711  0.5795 -0.4941  0.0775
 9587TIP3    H128725   4.481   2.938   4.806  1.9996 -1.0793  0.3321
 9587TIP3    H228726   4.524   3.026   4.690  3.3342 -1.0886  0.8018
 9588TIP3   OH228727   6.384   6.608   0.342  0.3020 -0.0508  0.6081
 9588TIP3    H128728   6.426   6.577   0.422 -0.0282 -1.8593  0.1078
 9588TIP3    H228729   6.330   6.682   0.370  0.2645 -0.6039  2.0210
 9589TIP3   OH228730   6.934   0.313   5.320 -0.1748  0.4208  0.1480
 9589TIP3    H128731   6.971   0.394   5.285  0.6676 -0.0986 -0.1926
 9589TIP3    H228732   6.912   0.262   5.243  1.2862 -0.5533  0.3499
 9590TIP3   OH228733   0.763   6.596   5.846  0.7099  0.0885  0.3285
 9590TIP3    H128734   0.806   6.583   5.761  0.5278 -0.6029  0.3327
 9590TIP3    H228735   0.771   6.689   5.863  3.6268 -0.2194  1.1039
 9591TIP3   OH228736   3.451   3.198   0.465  0.7771  0.1624 -0.1016
 9591TIP3    H128737   3.468   3.134   0.534  0.1685  0.7969  0.6441
 9591TIP3    H228738   3.532   3.248   0.458  1.2105 -0.5748 -0.5933
 9592TIP3   OH228739   1.699   0.083   3.076 -0.0548 -0.0463  0.0440
 9592TIP3    H128740   1.698   0.093   2.981  1.3993 -1.7483 -0.1907
 9592TIP3    H228741   1.634   0.015   3.094  0.0768 -0.1249  0.2284
 9593TIP3   OH228742   4.758   3.147   2.907 -0.8263 -0.2040 -0.1151
 9593TIP3    H128743   4.671   3.147   2.867 -1.0144 -0.7170  0.2926
 9593TIP3    H228744   4.817   3.129   2.835 -1.1095 -0.4832 -0.2792
 9594TIP3   OH228745   3.888   5.802   4.055  0.1625 -0.5739 -0.7423
 9594TIP3    H128746   3.898   5.867   4.125 -0.2941 -0.3054 -0.9214
 9594TIP3    H228747   3.802   5.820   4.018  0.3844 -0.7352 -1.3542
 9595TIP3   OH228748   4.248   4.171   3.296 -0.2875  0.8005 -0.8082
 9595TIP3    H128749   4.206   4.167   3.382  1.8350 -0.4526  0.2518
 9595TIP3    H228750   4.185   4.132   3.237 -1.2414  0.4090  0.4263
 9596TIP3   OH228751   2.289   0.350   3.354 -0.0952  0.0380  0.0505
 9596TIP3    H128752   2.383   0.371   3.359 -0.3751  1.1284  1.4326
 9596TIP3    H228753   2.276   0.283   3.422 -0.4781  0.5711  0.5066
 9597TIP3   OH228754   4.255   0.533   3.899  0.1705 -0.5023 -0.3703
 9597TIP3    H128755   4.311   0.584   3.958 -0.6416  0.8796 -0.7336
 9597TIP3    H228756   4.311   0.463   3.867  1.4486  0.3587 -0.0902
 9598TIP3   OH228757   4.154   5.348   3.941  0.0840  0.0561 -0.1698
 9598TIP3    H128758   4.101   5.271   3.964  2.1163 -1.3256  0.1861
 9598TIP3    H228759   4.143   5.407   4.016 -0.5375 -0.4136  0.1232
 9599TIP3   OH228760   3.114   2.497   3.206  0.4843 -0.4906 -0.3124
 9599TIP3    H128761   3.168   2.450   3.269  0.1934  0.0804  0.3718
 9599TIP3    H228762   3.170   2.507   3.129  1.9197  1.4082  0.8953
 9600TIP3   OH228763   5.139   1.608   1.005 -0.6364  0.0911 -0.1827
 9600TIP3    H128764   5.215   1.657   0.974 -1.2630  1.0980 -0.1825
 9600TIP3    H228765   5.125   1.639   1.095  0.1539 -1.5707  0.5577
 9601TIP3   OH228766   3.145   1.397   1.358  0.1399 -0.1919  0.6191
 9601TIP3    H128767   3.189   1.362   1.436  1.4527  2.3811  1.1427
 9601TIP3    H228768   3.187   1.353   1.285  0.6930 -0.7849  1.2801
 9602TIP3   OH228769   4.052   2.301   4.180  0.3949  0.6682 -0.0606
 9602TIP3    H128770   4.008   2.271   4.100  1.5171 -0.8556 -0.1693
 9602TIP3    H228771   4.072   2.220   4.227  0.4174  1.5048  1.4169
 9603TIP3   OH228772   1.588   5.690   3.525 -0.3019 -0.5284 -0.5486
 9603TIP3    H128773   1.599   5.618   3.587  0.9345  0.5068  0.4861
 9603TIP3    H228774   1.564   5.647   3.442  0.3580 -2.1114  0.0456
 9604TIP3   OH228775   2.621   5.851   4.608 -0.0378 -0.5898  0.0034
 9604TIP3    H128776   2.647   5.764   4.578 -1.1530 -0.3329 -1.8694
 9604TIP3    H228777   2.678   5.911   4.560 -0.6917 -0.2230 -0.3279
 9605TIP3   OH228778   5.395   3.472   3.900 -0.6397  0.1858 -0.3778
 9605TIP3    H128779   5.461   3.411   3.932  0.2215  2.1968  2.0132
 9605TIP3    H228780   5.322   3.416   3.873  1.0370 -1.9770 -0.7074
 9606TIP3   OH228781   1.324   0.169   2.988 -0.5971 -0.0471  0.1778
 9606TIP3    H128782   1.288   0.137   3.071 -1.1408  1.1177  0.4096
 9606TIP3    H228783   1.247   0.198   2.938 -0.2751 -0.7282 -0.7367
 9607TIP3   OH228784   5.437   6.771   5.676 -0.2689 -0.0140  0.0032
 9607TIP3    H128785   5.445   6.741   5.585  0.1730  1.6919 -0.5645
 9607TIP3    H228786   5.441   6.691   5.728 -1.8314 -1.1719 -1.5279
 9608TIP3   OH228787   5.284   2.402   1.822  0.4195  0.4804  0.0141
 9608TIP3    H128788   5.261   2.451   1.901 -1.4356 -0.2304 -0.0354
 9608TIP3    H228789   5.298   2.312   1.852 -0.4456  0.1767 -0.4734
 9609TIP3   OH228790   4.106   0.956   1.989  0.6296 -0.1715  0.0627
 9609TIP3    H128791   4.022   1.002   1.978  0.3378 -0.8656 -0.6815
 9609TIP3    H228792   4.082   0.865   2.004  1.2578 -0.5527 -1.1186
 9610TIP3   OH228793   1.675   3.272   2.502  0.6744 -0.4858 -0.4850
 9610TIP3    H128794   1.683   3.309   2.415  1.1044  0.0065 -0.2413
 9610TIP3    H228795   1.589   3.300   2.533  1.3078  1.0568  0.0194
 9611TIP3   OH228796   4.187   3.406   4.991  0.3207 -0.7949 -0.2639
 9611TIP3    H128797   4.279   3.398   5.015 -0.3437 -1.1552  2.4852
 9611TIP3    H228798   4.156   3.316   4.982 -0.2594 -0.7538  1.0916
 9612TIP3   OH228799   1.356   0.273   3.440  0.3831  0.5224  0.1620
 9612TIP3    H128800   1.375   0.190   3.397 -1.0472  0.1142  0.2502
 9612TIP3    H228801   1.340   0.334   3.368 -0.4838  0.2222  0.0866
 9613TIP3   OH228802   5.380   4.712   2.041 -0.2272 -0.7948 -0.5844
 9613TIP3    H128803   5.337   4.780   1.988 -0.2384  0.3118  0.7934
 9613TIP3    H228804   5.311   4.680   2.100 -0.7043 -3.2866 -2.3293
 9614TIP3   OH228805   1.929   1.093   3.041  0.3106  0.6921  0.4821
 9614TIP3    H128806   1.950   1.158   2.974  0.2885  0.5000  0.2892
 9614TIP3    H228807   1.916   1.144   3.121  0.3478  0.9195  0.3423
 9615TIP3   OH228808   7.070   1.050   2.606  0.2900  0.1863  0.2184
 9615TIP3    H128809   7.161   1.075   2.624 -0.0418  0.3472  1.8316
 9615TIP3    H228810   7.060   1.063   2.512  1.9059  0.2590  0.0201
 9616TIP3   OH228811   6.038   5.431   5.551  0.3630  0.3967 -0.1241
 9616TIP3    H128812   6.083   5.361   5.505  0.0606 -0.8672  1.4272
 9616TIP3    H228813   6.080   5.434   5.637 -0.4415  1.3091  0.2591
 9617TIP3   OH228814   3.867   0.064   0.021  0.4997 -0.0177  0.8520
 9617TIP3    H128815   3.870   0.133   0.087 -0.1456  1.6999 -0.8131
 9617TIP3    H228816   3.955   0.063  -0.017  0.1045  1.0544 -0.1789
 9618TIP3   OH228817   1.385   6.472   4.397 -0.1779 -0.0144 -0.1043
 9618TIP3    H128818   1.331   6.453   4.320 -0.6396  1.1930 -0.0963
 9618TIP3    H228819   1.347   6.551   4.434 -0.0423 -0.6515  1.4613
 9619TIP3   OH228820   0.356   4.343   3.067  0.0282 -0.1515 -0.2493
 9619TIP3    H128821   0.304   4.278   3.021 -1.8524  1.6369 -0.7812
 9619TIP3    H228822   0.357   4.314   3.158 -1.5489 -0.4707 -0.3192
 9620TIP3   OH228823   5.602   3.073   2.948  0.1929 -0.1503  0.3367
 9620TIP3    H128824   5.684   3.052   2.903  0.3001  2.4063 -0.8611
 9620TIP3    H228825   5.611   3.034   3.035  3.0824  0.7388  0.5491
 9621TIP3   OH228826   3.667   6.448   5.751 -0.0495  0.1666 -0.1773
 9621TIP3    H128827   3.738   6.473   5.810 -0.9916  0.2437  0.9794
 9621TIP3    H228828   3.661   6.519   5.688  0.4165  0.5158  0.1651
 9622TIP3   OH228829   7.147   5.863   2.809 -0.1293  0.1660  0.4788
 9622TIP3    H128830   7.105   5.790   2.765  1.3348 -1.9616  2.3873
 9622TIP3    H228831   7.076   5.911   2.851 -0.9820 -1.1506  0.5672
 9623TIP3   OH228832   3.667   2.744   1.189  0.0283  1.0021  0.2570
 9623TIP3    H128833   3.704   2.672   1.239  2.9428  1.6564 -0.7754
 9623TIP3    H228834   3.627   2.801   1.254  0.9116  0.2775  1.4632
 9624TIP3   OH228835   6.452   1.271   4.384  0.0664 -0.1100 -0.4422
 9624TIP3    H128836   6.379   1.273   4.322  1.2469 -0.4343 -1.9072
 9624TIP3    H228837   6.491   1.184   4.371  0.6572  0.0214  0.3945
 9625TIP3   OH228838   0.633   1.449   2.761  0.7480  0.2161  0.4451
 9625TIP3    H128839   0.553   1.411   2.727  1.3967 -2.0403  1.2530
 9625TIP3    H228840   0.620   1.544   2.754 -2.0696 -0.0695  0.7943
 9626TIP3   OH228841   3.601   2.790   0.034  0.1886 -0.5003 -0.2050
 9626TIP3    H128842   3.595   2.789   0.130 -0.1189  0.1938 -0.2071
 9626TIP3    H228843   3.662   2.861   0.015 -1.0027  0.4642 -0.5625
 9627TIP3   OH228844   3.940   6.286   5.779  0.0229  0.6904  0.4370
 9627TIP3    H128845   3.936   6.374   5.817 -0.0955  0.6631  0.4882
 9627TIP3    H228846   4.017   6.288   5.722  0.4025  0.6215  0.9429
 9628TIP3   OH228847   3.356   5.362   1.408 -0.0120 -0.9699 -0.1813
 9628TIP3    H128848   3.450   5.369   1.425  0.4287 -0.4544 -2.4646
 9628TIP3    H228849   3.320   5.443   1.442  0.5258 -0.7375 -0.1455
 9629TIP3   OH228850   6.752   2.414   2.420 -0.2676  0.2395  0.3706
 9629TIP3    H128851   6.691   2.472   2.465  0.8550  1.7397  0.0545
 9629TIP3    H228852   6.794   2.364   2.490  0.2938  1.3887  0.8809
 9630TIP3   OH228853   3.810   2.194   5.373  0.3513 -0.2691 -0.2659
 9630TIP3    H128854   3.810   2.223   5.282 -1.1099 -3.3066 -1.3774
 9630TIP3    H228855   3.722   2.212   5.404  0.9095  0.9671  0.6737
 9631TIP3   OH228856   2.843   1.117   2.518 -0.0073  0.6939  0.1829
 9631TIP3    H128857   2.849   1.107   2.423  0.8035 -0.0786  0.2987
 9631TIP3    H228858   2.753   1.143   2.535  0.0478  1.6499 -0.8641
 9632TIP3   OH228859   1.484   2.199   1.738 -0.2747  0.7271 -0.0434
 9632TIP3    H128860   1.559   2.162   1.693 -0.0339  0.4700  0.5542
 9632TIP3    H228861   1.467   2.138   1.810 -0.1282  1.5506  0.7033
 9633TIP3   OH228862   4.223   3.441   1.631 -0.3358  0.8640 -0.1821
 9633TIP3    H128863   4.173   3.385   1.691 -1.0553  1.6907  0.0124
 9633TIP3    H228864   4.279   3.380   1.583  0.0230  0.1350  1.0884
 9634TIP3   OH228865   0.741   1.492   1.237  0.3402 -0.4407 -0.5291
 9634TIP3    H128866   0.808   1.532   1.181  1.9534 -0.5775  1.2025
 9634TIP3    H228867   0.761   1.523   1.325 -3.5176  1.6337 -0.1635
 9635TIP3   OH228868   1.084   0.500   1.842  0.2070  0.6829  0.1703
 9635TIP3    H128869   0.997   0.531   1.865  0.7638  1.3978  1.4277
 9635TIP3    H228870   1.082   0.492   1.746 -0.9920  1.4029  0.1149
 9636TIP3   OH228871   6.343   1.022   2.001 -0.0161 -0.4030  0.3193
 9636TIP3    H128872   6.328   0.981   2.087 -0.2466 -0.6030  0.1841
 9636TIP3    H228873   6.428   0.987   1.973  0.6202  0.5692  0.9913
 9637TIP3   OH228874   0.312   4.987   2.127  0.3502 -0.2319  0.0521
 9637TIP3    H128875   0.317   5.060   2.065 -1.5564  1.3364  1.6139
 9637TIP3    H228876   0.378   5.009   2.194  0.0251 -0.1061  0.3349
 9638TIP3   OH228877   5.487   5.717   3.070 -0.1867 -0.5143  0.1830
 9638TIP3    H128878   5.441   5.633   3.070  1.5433 -1.6570 -3.0536
 9638TIP3    H228879   5.444   5.767   3.000 -0.3382  0.8061  1.1910
 9639TIP3   OH228880   4.149   0.348   1.815  0.0175 -0.6649  0.1500
 9639TIP3    H128881   4.080   0.283   1.827 -1.0578  0.6239  1.2222
 9639TIP3    H228882   4.218   0.302   1.767 -2.0149 -1.6927 -1.9624
 9640TIP3   OH228883   7.141   3.675   3.495  0.0189 -0.1319 -0.1545
 9640TIP3    H128884   7.212   3.738   3.484 -0.2975  0.5262  1.3016
 9640TIP3    H228885   7.184   3.590   3.502  0.8442  0.4384  2.4200
 9641TIP3   OH228886   6.329   3.306   0.530 -0.1575 -0.2329  0.6708
 9641TIP3    H128887   6.375   3.389   0.516  0.2142 -0.1440  2.2957
 9641TIP3    H228888   6.388   3.254   0.583 -0.3646 -1.5918 -0.3755
 9642TIP3   OH228889   1.725   0.550   3.145 -0.2398  0.4259 -0.0545
 9642TIP3    H128890   1.631   0.532   3.144 -0.7552  2.7246  0.9915
 9642TIP3    H228891   1.749   0.548   3.237  0.1539  2.3280 -0.0725
 9643TIP3   OH228892   0.493   1.607   0.305  0.3223 -0.1979  0.3608
 9643TIP3    H128893   0.587   1.617   0.290  0.1285  1.5654  0.1037
 9643TIP3    H228894   0.452   1.678   0.253 -1.1578 -1.0223  0.3334
 9644TIP3   OH228895   3.317   5.322   0.417  0.3749  0.6276  0.2462
 9644TIP3    H128896   3.338   5.264   0.344  3.5198 -0.7204  1.9987
 9644TIP3    H228897   3.255   5.273   0.470 -0.5890  0.8885 -0.6172
 9645TIP3   OH228898   2.827   2.540   3.774 -0.5653 -0.5247  0.0333
 9645TIP3    H128899   2.908   2.503   3.809 -0.8151 -0.8924  0.2301
 9645TIP3    H228900   2.767   2.465   3.770 -1.0572 -0.1468  0.3714
 9646TIP3   OH228901   0.224   1.304   3.043  0.7745 -0.5669  0.0492
 9646TIP3    H128902   0.249   1.228   2.990 -0.3046 -0.5310 -0.5273
 9646TIP3    H228903   0.129   1.307   3.038  0.5486 -1.1197  2.7721
 9647TIP3   OH228904   1.125   1.321   2.365  0.1749 -0.1000  0.4503
 9647TIP3    H128905   1.208   1.272   2.365 -0.5729 -1.4262 -0.3634
 9647TIP3    H228906   1.138   1.389   2.299  1.5350  1.4549  2.1857
 9648TIP3   OH228907   0.363   0.507   4.491  0.6045  0.0446  0.1707
 9648TIP3    H128908   0.353   0.412   4.495  0.5204  0.0243 -0.3938
 9648TIP3    H228909   0.451   0.524   4.525  1.5700 -0.4559 -1.9320
 9649TIP3   OH228910   4.023   4.570   3.129  0.1824 -0.0491 -0.5683
 9649TIP3    H128911   4.105   4.545   3.171 -0.3593 -0.2033  0.4276
 9649TIP3    H228912   3.988   4.640   3.184 -1.2024 -1.1706  0.0429
 9650TIP3   OH228913   3.874   4.887   1.686  0.1440 -0.3252 -0.1965
 9650TIP3    H128914   3.926   4.967   1.674 -0.2415 -0.4538 -3.6556
 9650TIP3    H228915   3.797   4.917   1.734  0.5019  1.1550 -0.4744
 9651TIP3   OH228916   5.946   3.966   3.755  0.4187 -0.0972 -0.0387
 9651TIP3    H128917   5.981   4.015   3.681 -1.5747  1.2317 -0.1789
 9651TIP3    H228918   5.928   4.033   3.821 -1.7446 -0.6721  0.0172
 9652TIP3   OH228919   5.100   6.665   0.499  0.1406  0.0792 -0.0408
 9652TIP3    H128920   5.044   6.646   0.423 -0.6261 -0.8902  0.7399
 9652TIP3    H228921   5.182   6.697   0.460  0.1626 -1.3965 -1.3529
 9653TIP3   OH228922   2.733   4.886   1.104  0.0757  0.2791  0.1851
 9653TIP3    H128923   2.786   4.815   1.140  0.4862  0.1918 -0.5799
 9653TIP3    H228924   2.789   4.927   1.037 -1.2298 -0.5773 -1.5020
 9654TIP3   OH228925   0.159   4.860   5.013  0.1698 -0.1029 -0.1783
 9654TIP3    H128926   0.107   4.886   4.937 -2.0670  0.8877  1.5940
 9654TIP3    H228927   0.209   4.939   5.036  2.6163 -1.0319 -1.8438
 9655TIP3   OH228928   5.450   3.447   0.562 -0.6037  0.3566 -1.0541
 9655TIP3    H128929   5.408   3.366   0.592 -1.0995  1.5717  1.8891
 9655TIP3    H228930   5.544   3.430   0.572 -0.6801 -0.0369 -0.9949
 9656TIP3   OH228931   6.636   1.597   2.715  0.7741 -0.0291  0.0882
 9656TIP3    H128932   6.564   1.596   2.779  0.5817 -0.0136 -0.1252
 9656TIP3    H228933   6.592   1.611   2.631  0.9924 -0.4200 -0.0915
 9657TIP3   OH228934   2.006   0.425   5.827  0.5295  0.0468  0.2498
 9657TIP3    H128935   2.012   0.520   5.832 -1.4323  0.2886 -1.0128
 9657TIP3    H228936   2.052   0.402   5.747  1.6554 -0.1775  0.9391
 9658TIP3   OH228937   3.787   1.036   3.337 -0.1181 -0.9890 -0.0129
 9658TIP3    H128938   3.691   1.034   3.339 -0.1320 -0.5405  0.0568
 9658TIP3    H228939   3.807   1.114   3.285  0.2128 -2.2418 -1.8544
 9659TIP3   OH228940   5.490   0.179   1.531 -0.4453 -0.1771  0.0466
 9659TIP3    H128941   5.409   0.180   1.582 -1.6257  1.3378 -1.7536
 9659TIP3    H228942   5.546   0.242   1.576 -0.9444  0.1250  0.2595
 9660TIP3   OH228943   1.747   3.353   1.321  0.2629  0.2119  0.6172
 9660TIP3    H128944   1.706   3.437   1.299  0.8169  0.2902 -0.1766
 9660TIP3    H228945   1.716   3.333   1.409 -2.2123 -0.1877 -0.2730
 9661TIP3   OH228946   5.036   3.511   4.467  0.1846 -0.3874  0.2985
 9661TIP3    H128947   5.125   3.480   4.485  1.5886  2.4155 -1.1317
 9661TIP3    H228948   5.032   3.518   4.371 -0.4218  2.4404  0.4601
 9662TIP3   OH228949   0.903   4.237   5.010 -0.0720  0.3015  0.0660
 9662TIP3    H128950   0.863   4.316   4.974 -0.5039  0.2815  0.4858
 9662TIP3    H228951   0.921   4.258   5.101  0.3164  0.1006  0.0357
 9663TIP3   OH228952   0.541   6.349   0.734  0.2679  0.3551  0.1082
 9663TIP3    H128953   0.478   6.323   0.801  1.1552  0.8030  1.1514
 9663TIP3    H228954   0.624   6.360   0.781  0.8461  1.0198 -0.9987
 9664TIP3   OH228955   5.035   1.762   2.869 -0.5895  0.3761 -0.6488
 9664TIP3    H128956   5.011   1.745   2.960  1.4347  1.2181  0.1022
 9664TIP3    H228957   4.977   1.833   2.841 -1.3775 -0.0464 -0.1282
 9665TIP3   OH228958   4.759   5.698   5.155 -0.0262 -0.0482 -0.0020
 9665TIP3    H128959   4.696   5.751   5.204 -0.7566 -2.6116  2.0423
 9665TIP3    H228960   4.717   5.613   5.145  1.2827 -0.4673 -2.7288
 9666TIP3   OH228961   1.904   3.117   3.038 -0.1994  0.3269  0.4105
 9666TIP3    H128962   1.931   3.131   3.129 -0.2631  1.9858  0.2045
 9666TIP3    H228963   1.952   3.183   2.988 -1.7431  0.8389 -0.4669
 9667TIP3   OH228964   4.432   0.570   3.202 -0.3759  0.5640 -0.3004
 9667TIP3    H128965   4.348   0.559   3.158 -0.3563  0.5373 -0.3316
 9667TIP3    H228966   4.489   0.607   3.135 -0.4404  0.8570 -0.1976
 9668TIP3   OH228967   7.038   2.571   2.934 -0.3967  0.0437 -0.3104
 9668TIP3    H128968   7.091   2.494   2.910  0.1292 -0.0931  1.1773
 9668TIP3    H228969   6.966   2.535   2.985  1.0410  0.6523  2.3286
 9669TIP3   OH228970   3.417   4.067   2.934  0.5792 -0.7396  0.5052
 9669TIP3    H128971   3.388   4.140   2.879  0.1703 -2.0816 -1.1660
 9669TIP3    H228972   3.366   4.076   3.014  1.2303  1.3173  0.7547
 9670TIP3   OH228973   3.302   4.157   3.202 -0.0934  0.0892 -0.3999
 9670TIP3    H128974   3.317   4.241   3.158  0.1350  1.2326  1.7643
 9670TIP3    H228975   3.384   4.137   3.247 -0.8415 -0.1736  0.9052
 9671TIP3   OH228976   1.150   4.264   4.276 -0.2483 -0.3214 -0.2902
 9671TIP3    H128977   1.188   4.349   4.254 -0.5961 -0.3617 -1.0885
 9671TIP3    H228978   1.186   4.243   4.362  1.7335 -0.4807 -1.1089
 9672TIP3   OH228979   5.045   3.553   5.722  0.1526 -0.3502  0.5650
 9672TIP3    H128980   5.033   3.552   5.627  1.5474  1.1892  0.3359
 9672TIP3    H228981   5.072   3.464   5.743  0.7372 -0.4710 -0.6155
 9673TIP3   OH228982   5.215   1.162   0.553  0.0640 -0.4428  0.2825
 9673TIP3    H128983   5.139   1.117   0.589  0.3489 -1.6447 -0.5411
 9673TIP3    H228984   5.182   1.201   0.471 -0.2113  0.9961  1.0487
 9674TIP3   OH228985   5.032   1.294   3.122  0.0937 -0.2404 -0.6353
 9674TIP3    H128986   5.035   1.206   3.083 -2.4636  0.5220 -2.9049
 9674TIP3    H228987   5.002   1.350   3.050 -0.6041  2.0978  1.3553
 9675TIP3   OH228988   4.828   2.213   5.208  0.1314 -0.1153 -0.5763
 9675TIP3    H128989   4.854   2.248   5.293  1.2089  1.7012 -1.5986
 9675TIP3    H228990   4.855   2.122   5.210 -1.4827 -0.6212  1.6649
 9676TIP3   OH228991   3.256   2.283   5.580 -0.6778 -0.3420  0.0210
 9676TIP3    H128992   3.242   2.277   5.674 -1.8856  0.0399 -0.1070
 9676TIP3    H228993   3.264   2.193   5.551 -0.2532 -0.4600  0.4909
 9677TIP3   OH228994   3.865   3.090   3.476  0.6465  0.0767  0.2043
 9677TIP3    H128995   3.942   3.036   3.491  0.0874 -0.5793  0.7379
 9677TIP3    H228996   3.831   3.060   3.391  0.8881  0.2691  0.0364
 9678TIP3   OH228997   6.127   1.391   0.465  0.1964 -0.1219  0.0641
 9678TIP3    H128998   6.105   1.298   0.457  1.3482 -0.3841 -0.3323
 9678TIP3    H228999   6.129   1.423   0.375 -0.2517  0.3035  0.2033
 9679TIP3   OH229000   6.607   1.213   5.513 -0.1067 -0.0304  0.2419
 9679TIP3    H129001   6.678   1.198   5.575 -0.8392  1.0027  1.3656
 9679TIP3    H229002   6.635   1.168   5.433  1.8522  0.4522  0.6164
 9680TIP3   OH229003   4.674   4.659   0.130  0.4137 -0.5419  0.2470
 9680TIP3    H129004   4.720   4.738   0.161  0.6331  0.2792 -1.9643
 9680TIP3    H229005   4.611   4.692   0.066 -0.3913 -2.0685  0.2110
 9681TIP3   OH229006   5.751   3.525   0.354 -0.1900 -0.1170 -0.0489
 9681TIP3    H129007   5.744   3.490   0.443  0.1660 -0.1367 -0.0260
 9681TIP3    H229008   5.738   3.450   0.297 -0.9045 -0.0186 -0.0226
 9682TIP3   OH229009   5.990   4.596   1.065  0.1693 -0.3144  0.2919
 9682TIP3    H129010   6.075   4.610   1.106  0.2453  1.2376 -0.3343
 9682TIP3    H229011   6.010   4.554   0.981  0.6851  2.9758 -1.3700
 9683TIP3   OH229012   0.044   2.995   2.436 -0.1076  0.5906 -0.0776
 9683TIP3    H129013  -0.023   3.063   2.421  1.2292  1.5812 -1.9685
 9683TIP3    H229014   0.059   2.957   2.349  1.8081  0.4168  0.2991
 9684TIP3   OH229015   0.425   3.562   5.322 -0.4887 -0.5385  0.8813
 9684TIP3    H129016   0.441   3.502   5.394 -0.8205 -0.4498  1.0293
 9684TIP3    H229017   0.389   3.507   5.252  1.3094 -0.9198  0.1946
 9685TIP3   OH229018   4.122   6.085   1.696  0.4289 -0.3343  0.2199
 9685TIP3    H129019   4.193   6.028   1.667 -0.8867 -0.7439 -2.5114
 9685TIP3    H229020   4.060   6.026   1.740 -0.9701 -1.2275 -2.6738
 9686TIP3   OH229021   0.868   1.832   0.117  0.0613  0.3100  0.3487
 9686TIP3    H129022   0.947   1.838   0.064 -1.4469  0.9775 -2.0053
 9686TIP3    H229023   0.890   1.876   0.200  2.0401  0.6990 -0.3499
 9687TIP3   OH229024   1.979   3.240   5.342 -0.0633 -0.7724 -0.0707
 9687TIP3    H129025   1.942   3.294   5.271  1.3957  0.6751  0.2135
 9687TIP3    H229026   1.985   3.152   5.304  0.1950 -0.1407 -1.5821
 9688TIP3   OH229027   3.127   2.292   5.834  0.4249  0.0785 -0.3866
 9688TIP3    H129028   3.058   2.256   5.890  1.0120  0.4081  0.5853
 9688TIP3    H229029   3.194   2.322   5.896  0.8875  0.8841 -1.2621
 9689TIP3   OH229030   3.655   2.548   3.276  0.0510 -0.5501  0.0217
 9689TIP3    H129031   3.585   2.591   3.228  2.2247  1.0028 -2.0064
 9689TIP3    H229032   3.669   2.466   3.229  1.6804  0.6327 -1.6897
 9690TIP3   OH229033   3.028   0.467   3.454  0.2536  0.0351  0.4827
 9690TIP3    H129034   3.084   0.433   3.384  0.1120  0.2326  0.2731
 9690TIP3    H229035   2.996   0.551   3.421  0.2245  0.1535  0.8036
 9691TIP3   OH229036   1.818   3.371   4.405  0.3380  0.3410 -0.7483
 9691TIP3    H129037   1.780   3.459   4.401 -0.6669 -0.1041 -1.5715
 9691TIP3    H229038   1.753   3.319   4.452  0.7119 -0.0616 -0.6791
 9692TIP3   OH229039   7.046   1.169   5.147  0.0387  0.0051 -0.0026
 9692TIP3    H129040   7.033   1.097   5.086  2.4849  0.2028 -0.9089
 9692TIP3    H229041   7.127   1.146   5.194 -1.1636  0.4013  2.4147
 9693TIP3   OH229042   3.380   3.052   2.884 -0.6421  0.2271 -0.5568
 9693TIP3    H129043   3.422   3.138   2.881 -2.5457  1.1874 -1.9968
 9693TIP3    H229044   3.383   3.027   2.976  0.8285  1.3620 -0.2582
 9694TIP3   OH229045   5.623   4.154   0.286 -0.0842 -0.3826  0.0329
 9694TIP3    H129046   5.633   4.249   0.287  1.6772 -0.5285  0.6783
 9694TIP3    H229047   5.662   4.125   0.369 -1.0583 -1.6434  0.0923
 9695TIP3   OH229048   5.470   2.849   3.659 -0.2916  0.4571  0.5238
 9695TIP3    H129049   5.513   2.800   3.729  1.6493  2.6688  1.0149
 9695TIP3    H229050   5.528   2.840   3.583 -0.8207  0.5432  0.0962
 9696TIP3   OH229051   1.633   2.309   4.565 -0.2314 -0.4415 -0.4104
 9696TIP3    H129052   1.717   2.353   4.579  0.1077 -0.3528 -2.4345
 9696TIP3    H229053   1.568   2.378   4.577  0.2544  0.5242 -2.7775
 9697TIP3   OH229054   0.486   2.883   1.848 -0.5883 -0.0633 -0.2813
 9697TIP3    H129055   0.563   2.939   1.838  0.0431 -0.9545 -0.4362
 9697TIP3    H229056   0.495   2.845   1.935  0.2345 -1.7550 -1.0580
 9698TIP3   OH229057   5.122   1.604   0.030 -0.0849 -0.1832 -0.2599
 9698TIP3    H129058   5.027   1.603   0.026 -0.0476 -1.1576 -1.1373
 9698TIP3    H229059   5.142   1.614   0.123 -1.0314  0.9780 -0.1632
 9699TIP3   OH229060   6.888   0.253   3.491  0.1517  0.1068  0.1501
 9699TIP3    H129061   6.806   0.294   3.516  0.0090 -0.3236  0.3895
 9699TIP3    H229062   6.873   0.159   3.501  0.1254 -0.0777 -1.4445
 9700TIP3   OH229063   6.725   2.555   0.531 -0.2731 -0.4202 -0.3962
 9700TIP3    H129064   6.646   2.554   0.586  0.2583 -0.6860  0.3716
 9700TIP3    H229065   6.706   2.492   0.462 -1.0695  0.1407 -0.7100
 9701TIP3   OH229066   0.649   3.492   0.341 -0.1027 -0.4897 -0.0545
 9701TIP3    H129067   0.610   3.525   0.260 -0.7500  0.6837  0.7104
 9701TIP3    H229068   0.598   3.412   0.360 -0.0093 -0.7211 -0.7411
 9702TIP3   OH229069   0.195   4.433   0.060 -0.7056  0.2405 -0.1649
 9702TIP3    H129070   0.153   4.507   0.104 -2.0591 -0.4224 -0.2819
 9702TIP3    H229071   0.239   4.472  -0.016  1.5332  1.3841  1.5956
 9703TIP3   OH229072   7.020   4.314   3.201  0.0052 -0.5801 -0.1607
 9703TIP3    H129073   6.967   4.324   3.122  1.4235  1.3331 -0.9530
 9703TIP3    H229074   7.051   4.403   3.221 -1.5991 -0.6762  3.5256
 9704TIP3   OH229075   2.721   1.636   5.438 -0.1708 -0.4724 -0.2594
 9704TIP3    H129076   2.716   1.731   5.425  0.9731 -0.3583 -0.0434
 9704TIP3    H229077   2.745   1.626   5.530  0.0772 -0.9526 -0.3747
 9705TIP3   OH229078   6.263   2.609   1.890 -0.8917  0.3285 -0.3300
 9705TIP3    H129079   6.358   2.616   1.881 -0.7673 -0.5383  0.2515
 9705TIP3    H229080   6.244   2.660   1.969 -1.2606  2.7523 -1.8594
 9706TIP3   OH229081   3.883   5.453   5.074  0.4851  0.1581 -0.3000
 9706TIP3    H129082   3.910   5.380   5.017  0.9827 -0.1344  0.2999
 9706TIP3    H229083   3.789   5.439   5.088 -0.0118  1.1276 -2.3287
 9707TIP3   OH229084   3.377   4.104   1.904 -0.4049  0.2694 -0.0226
 9707TIP3    H129085   3.451   4.147   1.948 -0.9145  0.4399  0.6900
 9707TIP3    H229086   3.411   4.019   1.877  0.5804  1.0208 -1.3112
 9708TIP3   OH229087   2.651   1.266   5.147  0.3823 -0.1676  0.4392
 9708TIP3    H129088   2.576   1.219   5.108 -0.0910  1.3521 -0.5726
 9708TIP3    H229089   2.684   1.207   5.214  0.5343 -2.4781 -1.5211
 9709TIP3   OH229090   5.080   3.420   2.434 -0.2317  0.8502  0.7430
 9709TIP3    H129091   5.094   3.501   2.482  3.0726  0.7092  0.2715
 9709TIP3    H229092   5.124   3.434   2.350 -1.7789 -0.5676 -0.3732
 9710TIP3   OH229093   4.295   2.847   3.398 -0.1299  0.1253  0.5413
 9710TIP3    H129094   4.254   2.904   3.333  0.3930 -0.0584  0.0404
 9710TIP3    H229095   4.389   2.856   3.382  0.0427  0.5516  1.6804
 9711TIP3   OH229096   4.650   2.456   2.503 -0.3479 -0.0244 -0.1296
 9711TIP3    H129097   4.675   2.542   2.469  0.0138 -0.1613 -0.2166
 9711TIP3    H229098   4.719   2.397   2.472 -0.9602 -0.4724 -0.6586
 9712TIP3   OH229099   5.895   5.935   4.091  0.4589 -0.4263  0.0636
 9712TIP3    H129100   5.905   5.871   4.161  2.4684 -0.6210 -0.3527
 9712TIP3    H229101   5.981   5.975   4.081 -1.0481  3.7609  1.5420
 9713TIP3   OH229102   1.260   1.720   0.763 -0.3287 -0.0083  0.1966
 9713TIP3    H129103   1.321   1.660   0.806 -0.3769  1.1146  1.9161
 9713TIP3    H229104   1.313   1.767   0.699  0.3286  0.0598  0.7823
 9714TIP3   OH229105   1.110   0.452   1.560  0.0419 -0.1155 -0.4905
 9714TIP3    H129106   1.188   0.413   1.521 -0.2902 -0.7871 -0.4893
 9714TIP3    H229107   1.099   0.535   1.512  0.9577  0.1663 -0.2382
 9715TIP3   OH229108   4.237   5.501   2.659 -0.1001 -0.0361  0.2052
 9715TIP3    H129109   4.181   5.441   2.611 -0.6639  1.1521 -0.6602
 9715TIP3    H229110   4.206   5.588   2.635  0.0907  0.6092  2.1485
 9716TIP3   OH229111   6.305   4.293   1.263  0.0614  0.2929 -0.3868
 9716TIP3    H129112   6.323   4.263   1.352 -2.2306  0.0154  0.0351
 9716TIP3    H229113   6.259   4.220   1.221  0.9116  0.4954 -1.7718
 9717TIP3   OH229114   4.478   0.376   2.832 -0.2148 -0.8018  0.2553
 9717TIP3    H129115   4.527   0.314   2.777 -1.5648  0.2387 -2.3041
 9717TIP3    H229116   4.454   0.325   2.910  1.7543 -2.3824 -0.0792
 9718TIP3   OH229117   0.736   1.502   5.559  0.1503  0.2757  0.6123
 9718TIP3    H129118   0.760   1.594   5.553 -0.6236  0.4437 -0.1634
 9718TIP3    H229119   0.793   1.466   5.628  3.8516  0.2496 -2.0995
 9719TIP3   OH229120   4.900   2.718   1.265 -0.4759 -0.1868 -0.2662
 9719TIP3    H129121   4.913   2.746   1.174 -1.8560 -1.4911 -0.9149
 9719TIP3    H229122   4.819   2.761   1.292  0.7110  1.4023  0.9067
 9720TIP3   OH229123   5.455   2.019   4.623  0.0841  0.0760  1.0878
 9720TIP3    H129124   5.516   2.002   4.551 -0.1086  1.4366  0.5761
 9720TIP3    H229125   5.497   2.086   4.676  0.3254 -1.0679  2.4183
 9721TIP3   OH229126   1.397   6.045   0.375 -0.1409  0.1919  0.4445
 9721TIP3    H129127   1.316   6.055   0.325  1.5514 -0.3038 -2.6187
 9721TIP3    H229128   1.435   6.132   0.378  2.1351 -0.3953 -3.7571
 9722TIP3   OH229129   4.130   3.767   2.645  0.0294 -0.1560  0.6369
 9722TIP3    H129130   4.200   3.752   2.581 -0.3078  2.0610 -0.3521
 9722TIP3    H229131   4.056   3.715   2.613  0.4849 -0.6458  0.3676
 9723TIP3   OH229132   7.010   3.895   3.307  0.3670  0.2144 -0.2166
 9723TIP3    H129133   6.997   3.813   3.354 -1.3167 -0.3026 -1.4666
 9723TIP3    H229134   6.933   3.902   3.251  0.4738  2.6562 -0.1553
 9724TIP3   OH229135   2.665   3.874   5.580 -0.5804 -0.1205 -0.2978
 9724TIP3    H129136   2.700   3.878   5.491 -1.9643  1.4396 -0.8250
 9724TIP3    H229137   2.720   3.935   5.630  1.0701 -2.0028  0.3065
 9725TIP3   OH229138   0.923   2.758   5.135  0.2781  0.2980 -0.3937
 9725TIP3    H129139   0.944   2.850   5.118 -0.1222  0.1666 -1.7236
 9725TIP3    H229140   0.979   2.710   5.073 -0.1751 -0.3030 -0.3393
 9726TIP3   OH229141   2.770   5.806   0.691 -0.3024  0.3752  0.0299
 9726TIP3    H129142   2.849   5.850   0.660 -0.3670  1.7289  1.6344
 9726TIP3    H229143   2.794   5.714   0.694  1.0464  0.6947 -0.0166
 9727TIP3   OH229144   2.350   0.200   4.324  0.1087  0.0809  0.5173
 9727TIP3    H129145   2.445   0.207   4.336  0.4439 -2.4565 -0.2412
 9727TIP3    H229146   2.330   0.263   4.255  1.3710  0.1073  0.1490
 9728TIP3   OH229147   3.690   4.012   2.305 -0.2467  0.0430 -0.3890
 9728TIP3    H129148   3.740   3.933   2.324  1.4744  0.7844 -1.5775
 9728TIP3    H229149   3.720   4.040   2.219 -1.5329  1.4645 -0.4318
 9729TIP3   OH229150   2.436   5.132   4.395 -0.3687 -0.4230 -0.1444
 9729TIP3    H129151   2.509   5.076   4.367 -0.3878 -0.0915 -0.8925
 9729TIP3    H229152   2.388   5.079   4.458  1.1819 -0.2210  1.2854
 9730TIP3   OH229153   5.355   1.165   0.796 -0.5883  0.2617  0.1414
 9730TIP3    H129154   5.292   1.185   0.727  0.1026  1.2273 -0.2445
 9730TIP3    H229155   5.397   1.250   0.815 -0.7049  0.0060  1.6895
 9731TIP3   OH229156   1.433   1.516   0.853 -0.1391 -0.0554 -0.0806
 9731TIP3    H129157   1.385   1.434   0.868  0.6124 -0.3826  0.6317
 9731TIP3    H229158   1.521   1.487   0.827 -0.1286  0.5342 -0.7205
 9732TIP3   OH229159   4.000   1.407   2.086 -0.3748  0.5193 -0.5579
 9732TIP3    H129160   4.002   1.354   2.006  0.7842  1.3137 -1.0878
 9732TIP3    H229161   3.938   1.362   2.143 -1.1895 -0.0902 -1.8792
 9733TIP3   OH229162   3.484   1.682   3.049 -0.1036 -0.1514 -0.2661
 9733TIP3    H129163   3.483   1.632   2.967  0.4772  0.5230 -0.6938
 9733TIP3    H229164   3.399   1.724   3.052  0.3967  0.9726 -1.2591
 9734TIP3   OH229165   5.179   3.052   1.671 -0.5408  0.1708  0.9292
 9734TIP3    H129166   5.114   3.062   1.601 -1.1691  0.5848  1.5628
 9734TIP3    H229167   5.132   3.006   1.740  0.5647 -1.8120  0.4393
 9735TIP3   OH229168   2.355   0.404   2.340 -0.4447 -0.2788 -0.1062
 9735TIP3    H129169   2.297   0.414   2.416 -2.3536 -1.4757 -1.3461
 9735TIP3    H229170   2.436   0.367   2.377 -1.2328 -0.6129  1.3754
 9736TIP3   OH229171   1.326   6.239   0.640  0.5688 -0.0415 -0.5558
 9736TIP3    H129172   1.405   6.229   0.693  0.7076  2.7078 -0.1054
 9736TIP3    H229173   1.359   6.265   0.553  0.2154 -1.5809 -1.1861
 9737TIP3   OH229174   1.627   2.454   3.132 -0.4121  0.1477 -0.6803
 9737TIP3    H129175   1.646   2.458   3.226 -1.9048  1.2847 -0.3734
 9737TIP3    H229176   1.659   2.369   3.104 -0.4150 -0.4335  0.9815
 9738TIP3   OH229177   4.665   4.669   5.786  0.1905  0.3896 -0.3355
 9738TIP3    H129178   4.617   4.629   5.859  1.2923  0.0584  0.2291
 9738TIP3    H229179   4.756   4.673   5.816  0.8255 -0.4617 -1.9813
 9739TIP3   OH229180   6.642   2.762   0.349 -0.3787 -0.3486  0.0044
 9739TIP3    H129181   6.715   2.782   0.291 -0.4618 -1.5156 -0.5311
 9739TIP3    H229182   6.680   2.708   0.418 -0.8187 -1.5021 -0.6208
 9740TIP3   OH229183   0.387   4.110   2.696 -0.1384 -0.0084  0.5195
 9740TIP3    H129184   0.345   4.118   2.782 -1.2173  1.1305 -0.0743
 9740TIP3    H229185   0.463   4.168   2.701  0.8315 -1.2968  1.2621
 9741TIP3   OH229186   3.966   2.316   2.807 -0.5125 -0.3812  0.0247
 9741TIP3    H129187   3.999   2.231   2.777  0.4767 -0.0756  0.2262
 9741TIP3    H229188   4.009   2.380   2.751 -1.6038 -0.0140 -0.4343
 9742TIP3   OH229189   6.224   3.861   3.412  0.3357 -0.1368  0.2819
 9742TIP3    H129190   6.175   3.805   3.472  0.0414  0.8931  1.0363
 9742TIP3    H229191   6.188   3.949   3.425  1.2933  0.3744 -0.3108
 9743TIP3   OH229192   5.678   1.336   0.223  0.1181  0.4406 -0.2557
 9743TIP3    H129193   5.637   1.386   0.153 -0.6153  0.2071 -0.0049
 9743TIP3    H229194   5.612   1.334   0.293  0.7893  0.5748  0.3981
 9744TIP3   OH229195   5.009   3.192   5.402  0.0707 -0.4765  0.3978
 9744TIP3    H129196   5.071   3.233   5.462  0.0050 -0.9650  0.8162
 9744TIP3    H229197   5.057   3.117   5.366 -0.3425 -1.0209  0.9339
 9745TIP3   OH229198   1.904   0.566   1.666 -0.8337 -0.3171 -0.0963
 9745TIP3    H129199   1.928   0.528   1.750  1.5427 -0.9216 -0.9691
 9745TIP3    H229200   1.960   0.644   1.658 -2.0804  0.5654 -0.4963
 9746TIP3   OH229201   5.309   6.769   2.720  0.2226 -0.0644 -0.0025
 9746TIP3    H129202   5.313   6.742   2.628  2.1605 -1.5017  0.4378
 9746TIP3    H229203   5.296   6.863   2.717  2.0961  0.2134 -1.8152
 9747TIP3   OH229204   1.067   1.922   2.472 -0.0353 -0.1289 -0.3754
 9747TIP3    H129205   1.020   1.846   2.440  0.8032 -0.7414 -0.2043
 9747TIP3    H229206   1.149   1.886   2.506  0.6737  0.9219 -0.9144
 9748TIP3   OH229207   5.685   1.219   5.909 -0.7006  0.2116 -0.1589
 9748TIP3    H129208   5.608   1.163   5.901 -1.4956  1.2388  0.0001
 9748TIP3    H229209   5.732   1.208   5.827 -0.2760 -1.4521  0.2680
 9749TIP3   OH229210   3.357   2.882   1.523 -0.8410  0.3004  0.3633
 9749TIP3    H129211   3.355   2.787   1.512 -0.0092  0.0977  1.7651
 9749TIP3    H229212   3.429   2.911   1.467 -1.3115  0.1626 -0.3303
   7.22152   6.80852   5.89634   0.00000   0.00000  -2.40718   0.00000  -2.40718  -3.40425
