Title
19927
    1ASP      N    1   4.286   3.549   2.908
    1ASP    HT1    2   4.368   3.519   2.852
    1ASP    HT2    3   4.309   3.640   2.952
    1ASP    HT3    4   4.205   3.563   2.844
    1ASP     CA    5   4.250   3.452   3.013
    1ASP     HA    6   4.341   3.410   3.052
    1ASP     CB    7   4.169   3.533   3.118
    1ASP    HB1    8   4.062   3.545   3.092
    1ASP    HB2    9   4.212   3.634   3.134
    1ASP     CG   10   4.183   3.466   3.253
    1ASP    OD1   11   4.295   3.415   3.278
    1ASP    OD2   12   4.090   3.472   3.335
    1ASP      C   13   4.169   3.340   2.947
    1ASP      O   14   4.073   3.369   2.876
    2ALA      N   15   4.209   3.211   2.955
    2ALA     HN   16   4.283   3.179   3.015
    2ALA     CA   17   4.144   3.109   2.874
    2ALA     HA   18   4.128   3.149   2.775
    2ALA     CB   19   4.232   2.984   2.858
    2ALA    HB1   20   4.244   2.931   2.955
    2ALA    HB2   21   4.332   3.014   2.819
    2ALA    HB3   22   4.186   2.914   2.785
    2ALA      C   23   4.005   3.072   2.923
    2ALA      O   24   3.913   3.050   2.844
    3ASP      N   25   3.986   3.076   3.055
    3ASP     HN   26   4.062   3.088   3.119
    3ASP     CA   27   3.855   3.084   3.113
    3ASP     HA   28   3.782   3.039   3.048
    3ASP     CB   29   3.845   3.019   3.253
    3ASP    HB1   30   3.739   3.012   3.284
    3ASP    HB2   31   3.899   3.084   3.326
    3ASP     CG   32   3.907   2.881   3.266
    3ASP    OD1   33   3.902   2.799   3.172
    3ASP    OD2   34   3.955   2.855   3.380
    3ASP      C   35   3.825   3.233   3.127
    3ASP      O   36   3.831   3.290   3.236
    4GLY      N   37   3.792   3.300   3.014
    4GLY     HN   38   3.807   3.254   2.927
    4GLY     CA   39   3.727   3.431   3.013
    4GLY    HA1   40   3.692   3.448   2.913
    4GLY    HA2   41   3.798   3.504   3.049
    4GLY      C   42   3.606   3.436   3.105
    4GLY      O   43   3.562   3.330   3.150
    5PRO      N   44   3.552   3.554   3.135
    5PRO     CD   45   3.548   3.663   3.037
    5PRO    HD1   46   3.543   3.623   2.933
    5PRO    HD2   47   3.638   3.727   3.049
    5PRO     CA   48   3.457   3.576   3.244
    5PRO     HA   49   3.512   3.573   3.337
    5PRO     CB   50   3.399   3.717   3.218
    5PRO    HB1   51   3.458   3.791   3.276
    5PRO    HB2   52   3.292   3.725   3.247
    5PRO     CG   53   3.419   3.740   3.068
    5PRO    HG1   54   3.335   3.694   3.013
    5PRO    HG2   55   3.427   3.847   3.041
    5PRO      C   56   3.353   3.466   3.256
    5PRO      O   57   3.282   3.441   3.158
    6GLY      N   58   3.348   3.396   3.372
    6GLY     HN   59   3.409   3.422   3.447
    6GLY     CA   60   3.265   3.278   3.395
    6GLY    HA1   61   3.265   3.259   3.501
    6GLY    HA2   62   3.306   3.197   3.337
    6GLY      C   63   3.122   3.296   3.354
    6GLY      O   64   3.069   3.406   3.372
    7ASP      N   65   3.057   3.190   3.302
    7ASP     HN   66   3.102   3.102   3.290
    7ASP     CA   67   2.920   3.197   3.253
    7ASP     HA   68   2.922   3.262   3.166
    7ASP     CB   69   2.872   3.058   3.199
    7ASP    HB1   70   2.873   2.985   3.283
    7ASP    HB2   71   2.944   3.023   3.122
    7ASP     CG   72   2.733   3.055   3.137
    7ASP    OD1   73   2.661   3.159   3.131
    7ASP    OD2   74   2.695   2.944   3.092
    7ASP      C   75   2.825   3.253   3.361
    7ASP      O   76   2.812   3.190   3.466
    8PRO      N   77   2.761   3.369   3.344
    8PRO     CD   78   2.784   3.460   3.231
    8PRO    HD1   79   2.731   3.420   3.142
    8PRO    HD2   80   2.892   3.468   3.208
    8PRO     CA   81   2.685   3.432   3.451
    8PRO     HA   82   2.748   3.435   3.539
    8PRO     CB   83   2.645   3.571   3.399
    8PRO    HB1   84   2.666   3.648   3.476
    8PRO    HB2   85   2.538   3.576   3.371
    8PRO     CG   86   2.731   3.597   3.274
    8PRO    HG1   87   2.669   3.642   3.194
    8PRO    HG2   88   2.816   3.664   3.298
    8PRO      C   89   2.563   3.350   3.482
    8PRO      O   90   2.508   3.360   3.593
    9ASP      N   91   2.519   3.270   3.384
    9ASP     HN   92   2.569   3.262   3.299
    9ASP     CA   93   2.400   3.189   3.393
    9ASP     HA   94   2.334   3.231   3.468
    9ASP     CB   95   2.330   3.186   3.255
    9ASP    HB1   96   2.238   3.125   3.261
    9ASP    HB2   97   2.400   3.141   3.181
    9ASP     CG   98   2.286   3.322   3.203
    9ASP    OD1   99   2.255   3.414   3.282
    9ASP    OD2  100   2.267   3.328   3.078
    9ASP      C  101   2.435   3.047   3.436
    9ASP      O  102   2.346   2.960   3.438
   10ALA      N  103   2.561   3.015   3.473
   10ALA     HN  104   2.635   3.081   3.466
   10ALA     CA  105   2.597   2.885   3.527
   10ALA     HA  106   2.548   2.809   3.467
   10ALA     CB  107   2.748   2.858   3.517
   10ALA    HB1  108   2.806   2.941   3.565
   10ALA    HB2  109   2.778   2.851   3.411
   10ALA    HB3  110   2.776   2.763   3.568
   10ALA      C  111   2.546   2.863   3.670
   10ALA      O  112   2.620   2.869   3.769
   11GLY      N  113   2.415   2.835   3.682
   11GLY     HN  114   2.357   2.839   3.601
   11GLY     CA  115   2.346   2.796   3.803
   11GLY    HA1  116   2.350   2.877   3.873
   11GLY    HA2  117   2.391   2.705   3.839
   11GLY      C  118   2.199   2.767   3.769
   11GLY    OT1  119   2.154   2.797   3.655
   11GLY    OT2  120   2.127   2.717   3.860
   12SOD    SOD  121   6.475   4.250   4.385
   13SOD    SOD  122   0.986   1.611   2.365
   14SOD    SOD  123   4.172   5.004   4.418
   15SOD    SOD  124   6.239   0.483   0.960
   16SOD    SOD  125   5.989   2.331   1.701
   17SOD    SOD  126   3.599   3.843   0.796
   18SOD    SOD  127   2.964   5.893   0.577
   19SOD    SOD  128   1.969   2.902   3.316
   20SOD    SOD  129   5.955   0.191   2.384
   21SOD    SOD  130   3.740   2.886   0.151
   22SOD    SOD  131   1.191   3.899   3.042
   23SOD    SOD  132   1.244   3.828   1.082
   24SOD    SOD  133   4.471   3.135   3.440
   25SOD    SOD  134   5.667   4.860   3.526
   26SOD    SOD  135   4.544   4.833   1.131
   27SOD    SOD  136   0.546   2.832   0.028
   28SOD    SOD  137   6.026   1.266   3.816
   29SOD    SOD  138   0.989   0.460   4.089
   30SOD    SOD  139   2.194   4.926   5.203
   31SOD    SOD  140   3.574   5.843   3.630
   32SOD    SOD  141   2.175   2.780   4.863
   33SOD    SOD  142   0.797   3.584   1.503
   34CLA    CLA  143   0.646   2.560   1.086
   35CLA    CLA  144   0.035   4.519   1.857
   36CLA    CLA  145   0.303   1.885   2.380
   37CLA    CLA  146   3.646   4.325   1.359
   38CLA    CLA  147   4.666   4.804   4.011
   39CLA    CLA  148   1.267   1.450   0.819
   40CLA    CLA  149   4.839   0.339   2.282
   41CLA    CLA  150   4.761   4.083   1.000
   42CLA    CLA  151   0.174   0.071   0.006
   43CLA    CLA  152   4.695   4.354   2.612
   44CLA    CLA  153   1.655   2.217   4.780
   45CLA    CLA  154   5.816   5.127   1.735
   46CLA    CLA  155   2.445   1.445   1.225
   47CLA    CLA  156   1.634   4.816   4.508
   48CLA    CLA  157   5.533   5.993   5.242
   49CLA    CLA  158   3.499   2.722   5.190
   50CLA    CLA  159   4.025   2.264   0.008
   51CLA    CLA  160   2.087   1.934   0.581
   52TIP3   OH2  161   1.565   0.587   2.291
   52TIP3    H1  162   1.550   0.495   2.267
   52TIP3    H2  163   1.489   0.611   2.343
   53TIP3   OH2  164   1.284   0.917   2.383
   53TIP3    H1  165   1.281   0.946   2.292
   53TIP3    H2  166   1.360   0.963   2.420
   54TIP3   OH2  167   1.410   0.694   2.074
   54TIP3    H1  168   1.422   0.638   1.998
   54TIP3    H2  169   1.487   0.678   2.128
   55TIP3   OH2  170   1.448   0.378   2.625
   55TIP3    H1  171   1.380   0.392   2.691
   55TIP3    H2  172   1.497   0.460   2.623
   56TIP3   OH2  173   1.313   0.645   2.395
   56TIP3    H1  174   1.237   0.616   2.344
   56TIP3    H2  175   1.306   0.740   2.396
   57TIP3   OH2  176   2.861   0.310   1.221
   57TIP3    H1  177   2.844   0.264   1.304
   57TIP3    H2  178   2.900   0.394   1.247
   58TIP3   OH2  179   2.498   0.878   1.285
   58TIP3    H1  180   2.481   0.795   1.241
   58TIP3    H2  181   2.441   0.877   1.362
   59TIP3   OH2  182   2.427   0.213   1.629
   59TIP3    H1  183   2.397   0.240   1.543
   59TIP3    H2  184   2.513   0.253   1.638
   60TIP3   OH2  185   1.201   5.756   1.595
   60TIP3    H1  186   1.254   5.831   1.622
   60TIP3    H2  187   1.233   5.734   1.507
   61TIP3   OH2  188   1.306   5.970   1.734
   61TIP3    H1  189   1.216   6.001   1.739
   61TIP3    H2  190   1.345   5.997   1.817
   62TIP3   OH2  191   2.239   0.181   1.828
   62TIP3    H1  192   2.177   0.254   1.835
   62TIP3    H2  193   2.294   0.204   1.753
   63TIP3   OH2  194   2.071   0.399   1.879
   63TIP3    H1  195   2.052   0.489   1.853
   63TIP3    H2  196   1.996   0.372   1.932
   64TIP3   OH2  197   2.902   0.583   1.356
   64TIP3    H1  198   2.816   0.572   1.396
   64TIP3    H2  199   2.896   0.665   1.308
   65TIP3   OH2  200   2.597   0.496   0.997
   65TIP3    H1  201   2.621   0.516   1.088
   65TIP3    H2  202   2.587   0.581   0.955
   66TIP3   OH2  203   3.130   0.494   1.710
   66TIP3    H1  204   3.120   0.417   1.653
   66TIP3    H2  205   3.110   0.568   1.654
   67TIP3   OH2  206   3.323   0.139   1.556
   67TIP3    H1  207   3.243   0.190   1.561
   67TIP3    H2  208   3.359   0.158   1.469
   68TIP3   OH2  209   3.009   0.038   1.879
   68TIP3    H1  210   2.997   0.121   1.926
   68TIP3    H2  211   2.930   0.027   1.828
   69TIP3   OH2  212   2.666   0.564   1.499
   69TIP3    H1  213   2.662   0.648   1.545
   69TIP3    H2  214   2.664   0.498   1.569
   70TIP3   OH2  215   2.279   0.487   2.041
   70TIP3    H1  216   2.219   0.543   2.091
   70TIP3    H2  217   2.222   0.438   1.982
   71TIP3   OH2  218   2.019   0.057   2.154
   71TIP3    H1  219   2.026   0.146   2.189
   71TIP3    H2  220   1.944   0.019   2.200
   72TIP3   OH2  221   2.073   0.638   2.148
   72TIP3    H1  222   2.055   0.662   2.057
   72TIP3    H2  223   1.987   0.626   2.188
   73TIP3   OH2  224   3.363   0.849   1.774
   73TIP3    H1  225   3.369   0.754   1.787
   73TIP3    H2  226   3.283   0.874   1.819
   74TIP3   OH2  227   2.469   0.624   1.898
   74TIP3    H1  228   2.463   0.716   1.924
   74TIP3    H2  229   2.401   0.580   1.950
   75TIP3   OH2  230   1.079   6.120   2.073
   75TIP3    H1  231   0.995   6.136   2.029
   75TIP3    H2  232   1.098   6.028   2.056
   76TIP3   OH2  233   1.862   0.366   2.060
   76TIP3    H1  234   1.920   0.360   2.136
   76TIP3    H2  235   1.793   0.302   2.078
   77TIP3   OH2  236   0.829   5.915   1.980
   77TIP3    H1  237   0.799   5.911   2.070
   77TIP3    H2  238   0.824   6.008   1.957
   78TIP3   OH2  239   0.574   6.113   2.198
   78TIP3    H1  240   0.549   6.040   2.255
   78TIP3    H2  241   0.669   6.123   2.212
   79TIP3   OH2  242   0.615   6.084   1.752
   79TIP3    H1  243   0.596   6.029   1.677
   79TIP3    H2  244   0.561   6.049   1.823
   80TIP3   OH2  245   3.075   1.188   1.867
   80TIP3    H1  246   3.068   1.209   1.774
   80TIP3    H2  247   3.153   1.235   1.897
   81TIP3   OH2  248   2.007   0.303   2.290
   81TIP3    H1  249   2.092   0.319   2.332
   81TIP3    H2  250   1.943   0.312   2.361
   82TIP3   OH2  251   3.094   0.286   1.534
   82TIP3    H1  252   3.122   0.339   1.459
   82TIP3    H2  253   3.012   0.246   1.506
   83TIP3   OH2  254   2.592   0.364   1.935
   83TIP3    H1  255   2.624   0.354   2.024
   83TIP3    H2  256   2.550   0.450   1.934
   84TIP3   OH2  257   2.502   0.115   2.219
   84TIP3    H1  258   2.456   0.089   2.139
   84TIP3    H2  259   2.591   0.084   2.207
   85TIP3   OH2  260   2.742   0.628   1.825
   85TIP3    H1  261   2.646   0.623   1.832
   85TIP3    H2  262   2.769   0.678   1.901
   86TIP3   OH2  263   3.376   0.567   1.798
   86TIP3    H1  264   3.281   0.560   1.790
   86TIP3    H2  265   3.410   0.536   1.714
   87TIP3   OH2  266   2.864   0.155   1.462
   87TIP3    H1  267   2.783   0.162   1.513
   87TIP3    H2  268   2.873   0.061   1.445
   88TIP3   OH2  269   2.264   0.686   1.701
   88TIP3    H1  270   2.298   0.759   1.648
   88TIP3    H2  271   2.342   0.650   1.744
   89TIP3   OH2  272   2.677   0.333   1.677
   89TIP3    H1  273   2.641   0.337   1.766
   89TIP3    H2  274   2.772   0.331   1.689
   90TIP3   OH2  275   2.890   0.873   1.701
   90TIP3    H1  276   2.810   0.820   1.699
   90TIP3    H2  277   2.877   0.938   1.632
   91TIP3   OH2  278   1.710   0.565   1.931
   91TIP3    H1  279   1.772   0.501   1.966
   91TIP3    H2  280   1.765   0.625   1.880
   92TIP3   OH2  281   1.634   5.809   0.719
   92TIP3    H1  282   1.612   5.853   0.637
   92TIP3    H2  283   1.632   5.715   0.697
   93TIP3   OH2  284   0.496   5.977   1.972
   93TIP3    H1  285   0.512   6.031   2.049
   93TIP3    H2  286   0.540   5.894   1.991
   94TIP3   OH2  287   1.096   5.869   1.972
   94TIP3    H1  288   1.002   5.859   1.960
   94TIP3    H2  289   1.135   5.804   1.914
   95TIP3   OH2  290   0.722   6.008   1.424
   95TIP3    H1  291   0.690   5.968   1.343
   95TIP3    H2  292   0.814   5.983   1.428
   96TIP3   OH2  293   2.925   0.859   1.297
   96TIP3    H1  294   2.875   0.894   1.224
   96TIP3    H2  295   3.017   0.872   1.272
   97TIP3   OH2  296   1.704   0.901   2.276
   97TIP3    H1  297   1.785   0.909   2.326
   97TIP3    H2  298   1.699   0.808   2.254
   98TIP3   OH2  299   2.167   0.823   2.327
   98TIP3    H1  300   2.262   0.816   2.331
   98TIP3    H2  301   2.141   0.758   2.262
   99TIP3   OH2  302   2.797   0.753   2.064
   99TIP3    H1  303   2.804   0.684   2.129
   99TIP3    H2  304   2.871   0.811   2.081
  100TIP3   OH2  305   1.813   0.268   2.497
  100TIP3    H1  306   1.857   0.185   2.475
  100TIP3    H2  307   1.737   0.242   2.549
  101TIP3   OH2  308   2.423   0.381   2.248
  101TIP3    H1  309   2.381   0.402   2.165
  101TIP3    H2  310   2.458   0.293   2.236
  102TIP3   OH2  311   2.906   0.405   1.842
  102TIP3    H1  312   2.985   0.441   1.804
  102TIP3    H2  313   2.843   0.477   1.840
  103TIP3   OH2  314   1.943   0.025   2.465
  103TIP3    H1  315   2.017  -0.024   2.431
  103TIP3    H2  316   1.968   0.048   2.554
  104TIP3   OH2  317   0.074   6.030   2.108
  104TIP3    H1  318  -0.003   6.086   2.110
  104TIP3    H2  319   0.134   6.074   2.047
  105TIP3   OH2  320   2.787   0.305   2.235
  105TIP3    H1  321   2.856   0.265   2.182
  105TIP3    H2  322   2.780   0.249   2.312
  106TIP3   OH2  323   0.202   5.861   2.268
  106TIP3    H1  324   0.154   5.783   2.241
  106TIP3    H2  325   0.169   5.930   2.211
  107TIP3   OH2  326   2.425   0.042   1.965
  107TIP3    H1  327   2.493   0.017   1.903
  107TIP3    H2  328   2.363   0.094   1.913
  108TIP3   OH2  329   0.836   6.136   2.280
  108TIP3    H1  330   0.851   6.062   2.340
  108TIP3    H2  331   0.924   6.168   2.260
  109TIP3   OH2  332   3.027   0.264   2.039
  109TIP3    H1  333   2.969   0.317   1.984
  109TIP3    H2  334   3.115   0.283   2.007
  110TIP3   OH2  335   0.093   5.974   2.501
  110TIP3    H1  336   0.037   5.899   2.518
  110TIP3    H2  337   0.131   5.957   2.415
  111TIP3   OH2  338   0.473   5.890   2.329
  111TIP3    H1  339   0.461   5.901   2.424
  111TIP3    H2  340   0.384   5.891   2.294
  112TIP3   OH2  341   0.727   5.859   2.227
  112TIP3    H1  342   0.642   5.855   2.271
  112TIP3    H2  343   0.786   5.811   2.285
  113TIP3   OH2  344   6.423   5.764   2.548
  113TIP3    H1  345   6.392   5.696   2.489
  113TIP3    H2  346   6.442   5.718   2.630
  114TIP3   OH2  347   3.193   0.920   1.274
  114TIP3    H1  348   3.205   0.944   1.366
  114TIP3    H2  349   3.225   0.996   1.225
  115TIP3   OH2  350   3.202   0.944   1.552
  115TIP3    H1  351   3.152   0.862   1.545
  115TIP3    H2  352   3.271   0.925   1.615
  116TIP3   OH2  353   3.253   0.640   2.122
  116TIP3    H1  354   3.180   0.648   2.183
  116TIP3    H2  355   3.297   0.725   2.124
  117TIP3   OH2  356   1.103   6.096   0.899
  117TIP3    H1  357   1.013   6.082   0.927
  117TIP3    H2  358   1.145   6.139   0.973
  118TIP3   OH2  359   3.260   0.420   1.360
  118TIP3    H1  360   3.315   0.360   1.310
  118TIP3    H2  361   3.237   0.490   1.299
  119TIP3   OH2  362   3.060   0.705   1.553
  119TIP3    H1  363   2.990   0.750   1.599
  119TIP3    H2  364   3.017   0.666   1.476
  120TIP3   OH2  365   3.273   0.323   1.935
  120TIP3    H1  366   3.332   0.253   1.909
  120TIP3    H2  367   3.293   0.395   1.875
  121TIP3   OH2  368   3.428   0.109   1.910
  121TIP3    H1  369   3.362   0.069   1.967
  121TIP3    H2  370   3.508   0.061   1.929
  122TIP3   OH2  371   0.994   5.948   1.459
  122TIP3    H1  372   1.075   5.974   1.416
  122TIP3    H2  373   1.000   5.987   1.546
  123TIP3   OH2  374   1.039   6.068   1.707
  123TIP3    H1  375   0.974   6.107   1.766
  123TIP3    H2  376   1.080   6.144   1.665
  124TIP3   OH2  377   2.874   0.746   0.915
  124TIP3    H1  378   2.830   0.805   0.854
  124TIP3    H2  379   2.826   0.756   0.997
  125TIP3   OH2  380   1.839   0.619   2.298
  125TIP3    H1  381   1.746   0.599   2.292
  125TIP3    H2  382   1.859   0.617   2.391
  126TIP3   OH2  383   2.056   0.685   1.882
  126TIP3    H1  384   2.001   0.748   1.836
  126TIP3    H2  385   2.137   0.683   1.832
  127TIP3   OH2  386   2.458   0.890   1.980
  127TIP3    H1  387   2.497   0.883   2.067
  127TIP3    H2  388   2.519   0.944   1.930
  128TIP3   OH2  389   2.652   1.047   1.862
  128TIP3    H1  390   2.716   1.002   1.806
  128TIP3    H2  391   2.705   1.106   1.915
  129TIP3   OH2  392   1.713   0.932   1.877
  129TIP3    H1  393   1.621   0.948   1.853
  129TIP3    H2  394   1.729   0.992   1.950
  130TIP3   OH2  395   1.953   0.909   1.752
  130TIP3    H1  396   1.867   0.914   1.794
  130TIP3    H2  397   1.934   0.914   1.659
  131TIP3   OH2  398   2.364   0.881   1.526
  131TIP3    H1  399   2.282   0.906   1.483
  131TIP3    H2  400   2.389   0.958   1.577
  132TIP3   OH2  401   2.640   0.833   1.576
  132TIP3    H1  402   2.546   0.846   1.563
  132TIP3    H2  403   2.680   0.903   1.523
  133TIP3   OH2  404   2.843   1.039   1.487
  133TIP3    H1  405   2.822   1.123   1.445
  133TIP3    H2  406   2.867   0.981   1.415
  134TIP3   OH2  407   2.210   0.564   1.412
  134TIP3    H1  408   2.116   0.564   1.393
  134TIP3    H2  409   2.231   0.655   1.432
  135TIP3   OH2  410   3.112   0.914   1.868
  135TIP3    H1  411   3.037   0.884   1.816
  135TIP3    H2  412   3.099   1.008   1.877
  136TIP3   OH2  413   3.685   0.182   1.396
  136TIP3    H1  414   3.710   0.117   1.461
  136TIP3    H2  415   3.741   0.257   1.414
  137TIP3   OH2  416   3.660   0.589   1.092
  137TIP3    H1  417   3.642   0.495   1.101
  137TIP3    H2  418   3.754   0.593   1.075
  138TIP3   OH2  419   3.480   0.087   1.063
  138TIP3    H1  420   3.546   0.019   1.050
  138TIP3    H2  421   3.525   0.169   1.043
  139TIP3   OH2  422   4.295   1.032   0.733
  139TIP3    H1  423   4.367   0.975   0.760
  139TIP3    H2  424   4.256   1.061   0.815
  140TIP3   OH2  425   4.183   0.549   1.043
  140TIP3    H1  426   4.209   0.532   0.952
  140TIP3    H2  427   4.264   0.572   1.087
  141TIP3   OH2  428   4.054   0.449   1.273
  141TIP3    H1  429   3.993   0.513   1.308
  141TIP3    H2  430   4.094   0.492   1.197
  142TIP3   OH2  431   3.876   0.641   1.366
  142TIP3    H1  432   3.859   0.728   1.332
  142TIP3    H2  433   3.798   0.620   1.419
  143TIP3   OH2  434   3.322   0.341   0.665
  143TIP3    H1  435   3.234   0.336   0.630
  143TIP3    H2  436   3.310   0.348   0.760
  144TIP3   OH2  437   4.705   0.874   0.855
  144TIP3    H1  438   4.622   0.838   0.885
  144TIP3    H2  439   4.683   0.960   0.819
  145TIP3   OH2  440   4.927   0.739   1.186
  145TIP3    H1  441   4.915   0.680   1.111
  145TIP3    H2  442   4.910   0.826   1.152
  146TIP3   OH2  443   4.758   0.231   1.381
  146TIP3    H1  444   4.786   0.295   1.445
  146TIP3    H2  445   4.694   0.277   1.326
  147TIP3   OH2  446   3.916   0.635   0.987
  147TIP3    H1  447   3.898   0.622   0.894
  147TIP3    H2  448   4.007   0.607   0.998
  148TIP3   OH2  449   3.916   0.228   1.187
  148TIP3    H1  450   3.987   0.179   1.146
  148TIP3    H2  451   3.959   0.305   1.225
  149TIP3   OH2  452   4.462   0.828   0.974
  149TIP3    H1  453   4.448   0.910   1.020
  149TIP3    H2  454   4.443   0.760   1.039
  150TIP3   OH2  455   4.074   0.747   1.527
  150TIP3    H1  456   4.015   0.806   1.574
  150TIP3    H2  457   4.016   0.694   1.472
  151TIP3   OH2  458   3.815   0.332   1.624
  151TIP3    H1  459   3.819   0.417   1.668
  151TIP3    H2  460   3.727   0.298   1.645
  152TIP3   OH2  461   4.142   0.818   0.622
  152TIP3    H1  462   4.183   0.898   0.656
  152TIP3    H2  463   4.113   0.841   0.534
  153TIP3   OH2  464   3.863   0.903   1.613
  153TIP3    H1  465   3.836   0.912   1.521
  153TIP3    H2  466   3.783   0.885   1.660
  154TIP3   OH2  467   3.451   0.458   1.561
  154TIP3    H1  468   3.383   0.444   1.495
  154TIP3    H2  469   3.480   0.369   1.584
  155TIP3   OH2  470   3.299   0.664   1.218
  155TIP3    H1  471   3.393   0.679   1.230
  155TIP3    H2  472   3.257   0.741   1.256
  156TIP3   OH2  473   5.155   1.062   1.304
  156TIP3    H1  474   5.136   1.013   1.384
  156TIP3    H2  475   5.076   1.114   1.289
  157TIP3   OH2  476   4.260   0.884   1.381
  157TIP3    H1  477   4.258   0.975   1.412
  157TIP3    H2  478   4.193   0.840   1.432
  158TIP3   OH2  479   4.077   1.042   0.330
  158TIP3    H1  480   4.012   0.998   0.274
  158TIP3    H2  481   4.034   1.123   0.356
  159TIP3   OH2  482   3.487   0.906   0.747
  159TIP3    H1  483   3.537   0.891   0.827
  159TIP3    H2  484   3.460   0.819   0.718
  160TIP3   OH2  485   3.656   0.639   1.532
  160TIP3    H1  486   3.700   0.633   1.616
  160TIP3    H2  487   3.582   0.578   1.539
  161TIP3   OH2  488   3.949  -0.012   1.333
  161TIP3    H1  489   3.891  -0.033   1.406
  161TIP3    H2  490   3.911   0.067   1.293
  162TIP3   OH2  491   4.528   0.236   1.681
  162TIP3    H1  492   4.507   0.157   1.731
  162TIP3    H2  493   4.615   0.262   1.711
  163TIP3   OH2  494   3.805   0.013   1.586
  163TIP3    H1  495   3.881   0.071   1.595
  163TIP3    H2  496   3.810  -0.045   1.662
  164TIP3   OH2  497   4.870   1.444   1.364
  164TIP3    H1  498   4.856   1.469   1.272
  164TIP3    H2  499   4.950   1.491   1.389
  165TIP3   OH2  500   3.812   0.564   1.771
  165TIP3    H1  501   3.893   0.582   1.820
  165TIP3    H2  502   3.743   0.568   1.838
  166TIP3   OH2  503   4.383   0.619   1.422
  166TIP3    H1  504   4.422   0.603   1.508
  166TIP3    H2  505   4.342   0.705   1.430
  167TIP3   OH2  506   3.665   0.296   1.081
  167TIP3    H1  507   3.725   0.309   1.007
  167TIP3    H2  508   3.720   0.263   1.152
  168TIP3   OH2  509   3.566   0.240   1.698
  168TIP3    H1  510   3.588   0.238   1.791
  168TIP3    H2  511   3.495   0.177   1.689
  169TIP3   OH2  512   4.293   0.376   1.703
  169TIP3    H1  513   4.246   0.347   1.625
  169TIP3    H2  514   4.380   0.338   1.694
  170TIP3   OH2  515   4.531   0.878   1.303
  170TIP3    H1  516   4.436   0.876   1.314
  170TIP3    H2  517   4.563   0.927   1.379
  171TIP3   OH2  518   5.181   0.768   1.285
  171TIP3    H1  519   5.088   0.764   1.261
  171TIP3    H2  520   5.211   0.852   1.251
  172TIP3   OH2  521   3.816   0.625   0.730
  172TIP3    H1  522   3.812   0.708   0.682
  172TIP3    H2  523   3.740   0.576   0.698
  173TIP3   OH2  524   4.075   0.964   1.178
  173TIP3    H1  525   4.114   1.035   1.127
  173TIP3    H2  526   4.147   0.930   1.231
  174TIP3   OH2  527   3.717   0.850   0.594
  174TIP3    H1  528   3.634   0.874   0.635
  174TIP3    H2  529   3.757   0.933   0.570
  175TIP3   OH2  530   4.433   0.602   1.154
  175TIP3    H1  531   4.409   0.604   1.247
  175TIP3    H2  532   4.527   0.585   1.154
  176TIP3   OH2  533   4.671   1.119   1.198
  176TIP3    H1  534   4.594   1.064   1.189
  176TIP3    H2  535   4.659   1.188   1.133
  177TIP3   OH2  536   1.627   5.925   1.793
  177TIP3    H1  537   1.545   5.877   1.783
  177TIP3    H2  538   1.694   5.867   1.755
  178TIP3   OH2  539   3.506   0.836   1.342
  178TIP3    H1  540   3.558   0.774   1.393
  178TIP3    H2  541   3.516   0.919   1.388
  179TIP3   OH2  542   4.446   0.119   1.444
  179TIP3    H1  543   4.475   0.169   1.520
  179TIP3    H2  544   4.517   0.059   1.426
  180TIP3   OH2  545   4.664   1.136   0.787
  180TIP3    H1  546   4.619   1.186   0.719
  180TIP3    H2  547   4.757   1.153   0.771
  181TIP3   OH2  548   3.393   0.674   0.662
  181TIP3    H1  549   3.420   0.587   0.691
  181TIP3    H2  550   3.336   0.657   0.587
  182TIP3   OH2  551   3.493   1.154   1.761
  182TIP3    H1  552   3.575   1.156   1.809
  182TIP3    H2  553   3.472   1.061   1.753
  183TIP3   OH2  554   3.960   1.077   1.803
  183TIP3    H1  555   4.053   1.055   1.815
  183TIP3    H2  556   3.930   1.019   1.733
  184TIP3   OH2  557   4.599   1.003   1.537
  184TIP3    H1  558   4.599   0.935   1.605
  184TIP3    H2  559   4.669   1.063   1.563
  185TIP3   OH2  560   3.605   0.553   1.956
  185TIP3    H1  561   3.620   0.459   1.968
  185TIP3    H2  562   3.519   0.558   1.914
  186TIP3   OH2  563   4.222   0.643   1.733
  186TIP3    H1  564   4.176   0.664   1.652
  186TIP3    H2  565   4.253   0.553   1.721
  187TIP3   OH2  566   4.697   0.650   1.320
  187TIP3    H1  567   4.776   0.692   1.285
  187TIP3    H2  568   4.632   0.720   1.321
  188TIP3   OH2  569   3.727   0.290   1.945
  188TIP3    H1  570   3.808   0.257   1.905
  188TIP3    H2  571   3.755   0.325   2.030
  189TIP3   OH2  572   4.029   0.171   1.606
  189TIP3    H1  573   3.964   0.240   1.617
  189TIP3    H2  574   4.091   0.207   1.541
  190TIP3   OH2  575   4.593   0.561   1.743
  190TIP3    H1  576   4.660   0.508   1.699
  190TIP3    H2  577   4.581   0.517   1.828
  191TIP3   OH2  578   2.023   6.113   1.713
  191TIP3    H1  579   2.045   6.052   1.643
  191TIP3    H2  580   1.970   6.181   1.671
  192TIP3   OH2  581   4.213   0.291   1.450
  192TIP3    H1  582   4.286   0.244   1.409
  192TIP3    H2  583   4.178   0.346   1.379
  193TIP3   OH2  584   4.776   0.284   1.786
  193TIP3    H1  585   4.798   0.191   1.789
  193TIP3    H2  586   4.860   0.329   1.779
  194TIP3   OH2  587   4.832   0.494   1.507
  194TIP3    H1  588   4.773   0.547   1.454
  194TIP3    H2  589   4.919   0.511   1.471
  195TIP3   OH2  590   4.102   0.104   1.959
  195TIP3    H1  591   4.026   0.050   1.977
  195TIP3    H2  592   4.128   0.083   1.870
  196TIP3   OH2  593   4.456   0.002   1.804
  196TIP3    H1  594   4.438   0.025   1.896
  196TIP3    H2  595   4.369  -0.015   1.767
  197TIP3   OH2  596   2.566   6.142   1.826
  197TIP3    H1  597   2.475   6.115   1.811
  197TIP3    H2  598   2.618   6.066   1.799
  198TIP3   OH2  599   1.734   6.060   2.009
  198TIP3    H1  600   1.717   5.986   1.951
  198TIP3    H2  601   1.730   6.024   2.098
  199TIP3   OH2  602   3.077   0.950   0.829
  199TIP3    H1  603   3.111   0.925   0.743
  199TIP3    H2  604   3.113   0.886   0.889
  200TIP3   OH2  605   3.237   0.792   0.982
  200TIP3    H1  606   3.228   0.734   1.058
  200TIP3    H2  607   3.297   0.861   1.012
  201TIP3   OH2  608   4.917   1.216   0.740
  201TIP3    H1  609   4.984   1.210   0.808
  201TIP3    H2  610   4.923   1.306   0.708
  202TIP3   OH2  611   4.920   1.235   1.103
  202TIP3    H1  612   4.893   1.143   1.102
  202TIP3    H2  613   4.996   1.239   1.044
  203TIP3   OH2  614   5.049   0.897   1.593
  203TIP3    H1  615   4.975   0.895   1.654
  203TIP3    H2  616   5.092   0.981   1.609
  204TIP3   OH2  617   4.858   0.966   1.060
  204TIP3    H1  618   4.781   1.000   1.106
  204TIP3    H2  619   4.824   0.931   0.978
  205TIP3   OH2  620   3.430   0.202   1.309
  205TIP3    H1  621   3.438   0.171   1.219
  205TIP3    H2  622   3.519   0.206   1.342
  206TIP3   OH2  623   5.091   0.537   1.412
  206TIP3    H1  624   5.122   0.463   1.359
  206TIP3    H2  625   5.124   0.614   1.367
  207TIP3   OH2  626   1.448   6.061   1.967
  207TIP3    H1  627   1.540   6.049   1.943
  207TIP3    H2  628   1.424   5.979   2.010
  208TIP3   OH2  629   1.253   6.005   1.394
  208TIP3    H1  630   1.338   5.971   1.366
  208TIP3    H2  631   1.274   6.076   1.456
  209TIP3   OH2  632   3.641   0.867   1.777
  209TIP3    H1  633   3.547   0.854   1.767
  209TIP3    H2  634   3.657   0.861   1.871
  210TIP3   OH2  635   3.846   0.916   1.328
  210TIP3    H1  636   3.790   0.986   1.296
  210TIP3    H2  637   3.929   0.930   1.284
  211TIP3   OH2  638   4.259   1.148   1.464
  211TIP3    H1  639   4.296   1.139   1.552
  211TIP3    H2  640   4.322   1.202   1.417
  212TIP3   OH2  641   4.447   1.304   1.337
  212TIP3    H1  642   4.515   1.250   1.297
  212TIP3    H2  643   4.495   1.365   1.394
  213TIP3   OH2  644   3.505   1.161   1.372
  213TIP3    H1  645   3.414   1.176   1.346
  213TIP3    H2  646   3.523   1.229   1.437
  214TIP3   OH2  647   3.735   1.145   1.221
  214TIP3    H1  648   3.651   1.151   1.268
  214TIP3    H2  649   3.715   1.175   1.133
  215TIP3   OH2  650   4.165   1.164   0.992
  215TIP3    H1  651   4.082   1.175   0.945
  215TIP3    H2  652   4.176   1.247   1.040
  216TIP3   OH2  653   4.424   1.094   1.055
  216TIP3    H1  654   4.332   1.115   1.039
  216TIP3    H2  655   4.472   1.173   1.028
  217TIP3   OH2  656   4.607   1.302   0.995
  217TIP3    H1  657   4.598   1.389   0.956
  217TIP3    H2  658   4.633   1.246   0.922
  218TIP3   OH2  659   3.429   0.955   1.100
  218TIP3    H1  660   3.441   0.923   1.189
  218TIP3    H2  661   3.501   0.916   1.050
  219TIP3   OH2  662   3.627   0.831   0.967
  219TIP3    H1  663   3.632   0.745   1.009
  219TIP3    H2  664   3.717   0.864   0.969
  220TIP3   OH2  665   3.892   0.916   0.974
  220TIP3    H1  666   3.906   0.822   0.961
  220TIP3    H2  667   3.944   0.937   1.052
  221TIP3   OH2  668   3.182   0.659   0.497
  221TIP3    H1  669   3.203   0.613   0.415
  221TIP3    H2  670   3.112   0.720   0.473
  222TIP3   OH2  671   3.222   0.676   0.225
  222TIP3    H1  672   3.189   0.756   0.265
  222TIP3    H2  673   3.149   0.643   0.174
  223TIP3   OH2  674   4.896   1.165   1.378
  223TIP3    H1  675   4.825   1.137   1.319
  223TIP3    H2  676   4.895   1.260   1.373
  224TIP3   OH2  677   5.549   1.348   1.141
  224TIP3    H1  678   5.579   1.321   1.053
  224TIP3    H2  679   5.499   1.272   1.173
  225TIP3   OH2  680   5.625   0.833   1.333
  225TIP3    H1  681   5.675   0.770   1.385
  225TIP3    H2  682   5.536   0.828   1.367
  226TIP3   OH2  683   5.114   1.208   0.934
  226TIP3    H1  684   5.154   1.120   0.934
  226TIP3    H2  685   5.187   1.267   0.917
  227TIP3   OH2  686   5.273   1.407   1.244
  227TIP3    H1  687   5.350   1.409   1.301
  227TIP3    H2  688   5.255   1.314   1.231
  228TIP3   OH2  689   5.735   1.324   1.367
  228TIP3    H1  690   5.827   1.352   1.362
  228TIP3    H2  691   5.704   1.329   1.277
  229TIP3   OH2  692   5.389   0.813   1.474
  229TIP3    H1  693   5.408   0.746   1.539
  229TIP3    H2  694   5.308   0.783   1.431
  230TIP3   OH2  695   5.421   1.132   1.265
  230TIP3    H1  696   5.330   1.101   1.267
  230TIP3    H2  697   5.457   1.106   1.350
  231TIP3   OH2  698   5.326   1.369   0.906
  231TIP3    H1  699   5.290   1.448   0.867
  231TIP3    H2  700   5.368   1.398   0.987
  232TIP3   OH2  701   5.513   1.333   0.714
  232TIP3    H1  702   5.435   1.330   0.769
  232TIP3    H2  703   5.484   1.373   0.632
  233TIP3   OH2  704   1.337   1.319   1.902
  233TIP3    H1  705   1.273   1.365   1.848
  233TIP3    H2  706   1.365   1.383   1.967
  234TIP3   OH2  707   0.769   2.201   1.532
  234TIP3    H1  708   0.686   2.169   1.568
  234TIP3    H2  709   0.743   2.268   1.469
  235TIP3   OH2  710   0.964   2.037   1.882
  235TIP3    H1  711   0.950   1.970   1.815
  235TIP3    H2  712   0.951   2.120   1.836
  236TIP3   OH2  713   1.157   1.708   1.730
  236TIP3    H1  714   1.073   1.753   1.724
  236TIP3    H2  715   1.191   1.708   1.640
  237TIP3   OH2  716   0.844   1.566   1.996
  237TIP3    H1  717   0.864   1.655   2.026
  237TIP3    H2  718   0.754   1.571   1.964
  238TIP3   OH2  719   0.544   2.139   1.673
  238TIP3    H1  720   0.522   2.216   1.726
  238TIP3    H2  721   0.532   2.065   1.733
  239TIP3   OH2  722   0.106   2.053   2.167
  239TIP3    H1  723   0.055   2.117   2.217
  239TIP3    H2  724   0.144   1.996   2.233
  240TIP3   OH2  725   6.435   2.256   2.261
  240TIP3    H1  726   6.375   2.252   2.187
  240TIP3    H2  727   6.385   2.219   2.334
  241TIP3   OH2  728   1.206   2.407   1.925
  241TIP3    H1  729   1.210   2.312   1.933
  241TIP3    H2  730   1.124   2.432   1.969
  242TIP3   OH2  731   0.309   2.183   2.044
  242TIP3    H1  732   0.302   2.272   2.079
  242TIP3    H2  733   0.234   2.136   2.081
  243TIP3   OH2  734   1.073   1.505   2.180
  243TIP3    H1  735   1.034   1.516   2.094
  243TIP3    H2  736   1.107   1.415   2.180
  244TIP3   OH2  737   0.871   1.284   2.091
  244TIP3    H1  738   0.831   1.291   2.178
  244TIP3    H2  739   0.843   1.363   2.045
  245TIP3   OH2  740   0.642   1.555   2.386
  245TIP3    H1  741   0.559   1.554   2.340
  245TIP3    H2  742   0.680   1.469   2.371
  246TIP3   OH2  743   0.913   2.749   2.017
  246TIP3    H1  744   0.910   2.761   1.922
  246TIP3    H2  745   0.993   2.795   2.044
  247TIP3   OH2  746   6.369   1.759   2.480
  247TIP3    H1  747   6.402   1.791   2.396
  247TIP3    H2  748   6.421   1.805   2.546
  248TIP3   OH2  749   0.925   1.855   1.676
  248TIP3    H1  750   0.978   1.903   1.612
  248TIP3    H2  751   0.839   1.847   1.636
  249TIP3   OH2  752   0.428   1.928   2.092
  249TIP3    H1  753   0.391   1.896   2.175
  249TIP3    H2  754   0.392   2.016   2.082
  250TIP3   OH2  755   0.579   2.217   1.969
  250TIP3    H1  756   0.486   2.198   1.978
  250TIP3    H2  757   0.606   2.249   2.055
  251TIP3   OH2  758   1.218   2.128   1.952
  251TIP3    H1  759   1.124   2.111   1.954
  251TIP3    H2  760   1.247   2.094   1.867
  252TIP3   OH2  761   0.110   2.271   1.852
  252TIP3    H1  762   0.158   2.331   1.794
  252TIP3    H2  763   0.178   2.226   1.902
  253TIP3   OH2  764   0.517   1.910   1.834
  253TIP3    H1  765   0.475   1.919   1.920
  253TIP3    H2  766   0.553   1.821   1.835
  254TIP3   OH2  767   0.738   2.430   1.858
  254TIP3    H1  768   0.669   2.366   1.873
  254TIP3    H2  769   0.708   2.480   1.782
  255TIP3   OH2  770   1.141   1.249   2.108
  255TIP3    H1  771   1.047   1.238   2.096
  255TIP3    H2  772   1.175   1.259   2.019
  256TIP3   OH2  773   0.731   2.449   1.387
  256TIP3    H1  774   0.697   2.475   1.301
  256TIP3    H2  775   0.826   2.458   1.380
  257TIP3   OH2  776   6.084   2.387   2.405
  257TIP3    H1  777   6.169   2.419   2.437
  257TIP3    H2  778   6.032   2.466   2.393
  258TIP3   OH2  779   0.052   2.401   2.464
  258TIP3    H1  780   0.135   2.358   2.483
  258TIP3    H2  781   0.023   2.360   2.382
  259TIP3   OH2  782   0.637   2.315   2.218
  259TIP3    H1  783   0.645   2.244   2.282
  259TIP3    H2  784   0.713   2.371   2.234
  260TIP3   OH2  785   0.762   1.914   2.042
  260TIP3    H1  786   0.829   1.966   1.997
  260TIP3    H2  787   0.680   1.962   2.026
  261TIP3   OH2  788   0.667   1.870   2.417
  261TIP3    H1  789   0.658   1.841   2.326
  261TIP3    H2  790   0.587   1.839   2.460
  262TIP3   OH2  791   0.908   1.771   2.223
  262TIP3    H1  792   0.838   1.823   2.185
  262TIP3    H2  793   0.988   1.805   2.182
  263TIP3   OH2  794   0.499   1.277   2.509
  263TIP3    H1  795   0.495   1.347   2.575
  263TIP3    H2  796   0.411   1.273   2.472
  264TIP3   OH2  797   0.776   1.315   2.355
  264TIP3    H1  798   0.704   1.262   2.391
  264TIP3    H2  799   0.855   1.281   2.397
  265TIP3   OH2  800   0.993   1.216   2.492
  265TIP3    H1  801   1.005   1.122   2.505
  265TIP3    H2  802   0.987   1.252   2.580
  266TIP3   OH2  803   0.544   1.035   2.677
  266TIP3    H1  804   0.486   0.968   2.641
  266TIP3    H2  805   0.507   1.118   2.646
  267TIP3   OH2  806   1.008   2.486   1.421
  267TIP3    H1  807   1.036   2.507   1.510
  267TIP3    H2  808   1.072   2.530   1.365
  268TIP3   OH2  809   1.060   2.512   1.700
  268TIP3    H1  810   1.012   2.429   1.701
  268TIP3    H2  811   1.134   2.497   1.758
  269TIP3   OH2  812   1.091   2.198   2.273
  269TIP3    H1  813   1.021   2.208   2.338
  269TIP3    H2  814   1.137   2.282   2.274
  270TIP3   OH2  815   1.105   1.972   1.509
  270TIP3    H1  816   1.160   1.905   1.468
  270TIP3    H2  817   1.089   2.036   1.439
  271TIP3   OH2  818   0.928   2.270   1.738
  271TIP3    H1  819   0.859   2.317   1.784
  271TIP3    H2  820   0.885   2.239   1.658
  272TIP3   OH2  821   1.127   1.849   2.087
  272TIP3    H1  822   1.199   1.788   2.071
  272TIP3    H2  823   1.130   1.909   2.012
  273TIP3   OH2  824   1.305   1.644   2.096
  273TIP3    H1  825   1.230   1.589   2.119
  273TIP3    H2  826   1.382   1.589   2.114
  274TIP3   OH2  827   1.100   1.486   1.887
  274TIP3    H1  828   1.004   1.495   1.885
  274TIP3    H2  829   1.131   1.550   1.823
  275TIP3   OH2  830   1.527   1.064   2.404
  275TIP3    H1  831   1.591   1.008   2.361
  275TIP3    H2  832   1.490   1.117   2.333
  276TIP3   OH2  833   1.388   1.185   2.204
  276TIP3    H1  834   1.300   1.221   2.202
  276TIP3    H2  835   1.383   1.107   2.149
  277TIP3   OH2  836   6.294   2.145   2.459
  277TIP3    H1  837   6.258   2.057   2.470
  277TIP3    H2  838   6.277   2.188   2.543
  278TIP3   OH2  839   0.306   2.448   2.129
  278TIP3    H1  840   0.343   2.440   2.217
  278TIP3    H2  841   0.370   2.500   2.081
  279TIP3   OH2  842   0.490   2.608   1.999
  279TIP3    H1  843   0.548   2.549   1.952
  279TIP3    H2  844   0.547   2.660   2.054
  280TIP3   OH2  845   1.309   0.946   2.088
  280TIP3    H1  846   1.220   0.933   2.055
  280TIP3    H2  847   1.349   0.859   2.085
  281TIP3   OH2  848   0.216   2.464   1.682
  281TIP3    H1  849   0.201   2.453   1.588
  281TIP3    H2  850   0.225   2.558   1.695
  282TIP3   OH2  851   0.481   2.413   1.746
  282TIP3    H1  852   0.386   2.423   1.733
  282TIP3    H2  853   0.520   2.472   1.681
  283TIP3   OH2  854   0.680   2.589   1.622
  283TIP3    H1  855   0.667   2.677   1.586
  283TIP3    H2  856   0.699   2.535   1.545
  284TIP3   OH2  857   1.048   0.953   2.539
  284TIP3    H1  858   1.056   0.912   2.625
  284TIP3    H2  859   1.125   0.924   2.491
  285TIP3   OH2  860   0.956   2.476   2.024
  285TIP3    H1  861   0.882   2.446   1.972
  285TIP3    H2  862   0.943   2.570   2.033
  286TIP3   OH2  863   2.285   1.881   0.830
  286TIP3    H1  864   2.272   1.975   0.836
  286TIP3    H2  865   2.200   1.846   0.804
  287TIP3   OH2  866   2.247   1.861   1.177
  287TIP3    H1  867   2.285   1.814   1.252
  287TIP3    H2  868   2.223   1.792   1.115
  288TIP3   OH2  869   1.524   1.726   1.554
  288TIP3    H1  870   1.556   1.658   1.613
  288TIP3    H2  871   1.593   1.793   1.554
  289TIP3   OH2  872   2.492   2.153   0.866
  289TIP3    H1  873   2.483   2.088   0.935
  289TIP3    H2  874   2.512   2.235   0.911
  290TIP3   OH2  875   1.527   2.170   1.255
  290TIP3    H1  876   1.526   2.078   1.280
  290TIP3    H2  877   1.617   2.187   1.228
  291TIP3   OH2  878   2.142   2.607   0.880
  291TIP3    H1  879   2.176   2.547   0.814
  291TIP3    H2  880   2.133   2.554   0.959
  292TIP3   OH2  881   2.036   2.074   1.217
  292TIP3    H1  882   2.065   1.996   1.171
  292TIP3    H2  883   2.116   2.124   1.233
  293TIP3   OH2  884   3.060   1.392   1.208
  293TIP3    H1  885   3.080   1.478   1.246
  293TIP3    H2  886   3.069   1.405   1.114
  294TIP3   OH2  887   1.692   1.340   1.192
  294TIP3    H1  888   1.659   1.388   1.116
  294TIP3    H2  889   1.668   1.249   1.174
  295TIP3   OH2  890   2.598   1.440   0.907
  295TIP3    H1  891   2.634   1.387   0.978
  295TIP3    H2  892   2.667   1.441   0.841
  296TIP3   OH2  893   1.436   1.362   1.308
  296TIP3    H1  894   1.489   1.361   1.388
  296TIP3    H2  895   1.500   1.369   1.237
  297TIP3   OH2  896   1.887   1.587   1.210
  297TIP3    H1  897   1.982   1.578   1.220
  297TIP3    H2  898   1.855   1.497   1.204
  298TIP3   OH2  899   3.122   1.614   1.372
  298TIP3    H1  900   3.036   1.651   1.351
  298TIP3    H2  901   3.128   1.620   1.467
  299TIP3   OH2  902   1.768   1.201   1.651
  299TIP3    H1  903   1.721   1.248   1.583
  299TIP3    H2  904   1.720   1.219   1.732
  300TIP3   OH2  905   2.158   2.179   0.743
  300TIP3    H1  906   2.136   2.100   0.694
  300TIP3    H2  907   2.074   2.221   0.760
  301TIP3   OH2  908   1.886   2.007   1.432
  301TIP3    H1  909   1.826   2.078   1.456
  301TIP3    H2  910   1.936   2.042   1.358
  302TIP3   OH2  911   2.717   1.313   1.119
  302TIP3    H1  912   2.630   1.323   1.158
  302TIP3    H2  913   2.752   1.401   1.115
  303TIP3   OH2  914   1.660   1.356   1.461
  303TIP3    H1  915   1.719   1.427   1.487
  303TIP3    H2  916   1.673   1.347   1.367
  304TIP3   OH2  917   1.714   2.203   1.521
  304TIP3    H1  918   1.697   2.289   1.483
  304TIP3    H2  919   1.635   2.183   1.571
  305TIP3   OH2  920   2.534   2.406   1.003
  305TIP3    H1  921   2.446   2.397   1.040
  305TIP3    H2  922   2.531   2.488   0.954
  306TIP3   OH2  923   2.851   1.305   1.385
  306TIP3    H1  924   2.762   1.324   1.354
  306TIP3    H2  925   2.907   1.324   1.309
  307TIP3   OH2  926   2.124   0.913   1.406
  307TIP3    H1  927   2.076   0.842   1.363
  307TIP3    H2  928   2.057   0.964   1.450
  308TIP3   OH2  929   2.238   2.454   0.678
  308TIP3    H1  930   2.279   2.368   0.673
  308TIP3    H2  931   2.296   2.511   0.627
  309TIP3   OH2  932   2.430   2.251   0.615
  309TIP3    H1  933   2.401   2.174   0.565
  309TIP3    H2  934   2.455   2.215   0.701
  310TIP3   OH2  935   2.767   2.300   1.346
  310TIP3    H1  936   2.752   2.224   1.289
  310TIP3    H2  937   2.752   2.376   1.289
  311TIP3   OH2  938   2.011   1.637   0.595
  311TIP3    H1  939   1.989   1.727   0.571
  311TIP3    H2  940   2.106   1.632   0.581
  312TIP3   OH2  941   2.958   1.959   1.206
  312TIP3    H1  942   2.872   2.002   1.208
  312TIP3    H2  943   2.989   1.972   1.117
  313TIP3   OH2  944   2.485   1.844   0.646
  313TIP3    H1  945   2.435   1.867   0.724
  313TIP3    H2  946   2.563   1.799   0.679
  314TIP3   OH2  947   2.642   1.824   1.478
  314TIP3    H1  948   2.628   1.904   1.529
  314TIP3    H2  949   2.558   1.811   1.432
  315TIP3   OH2  950   1.623   1.611   1.103
  315TIP3    H1  951   1.608   1.660   1.022
  315TIP3    H2  952   1.711   1.637   1.130
  316TIP3   OH2  953   1.790   2.195   1.169
  316TIP3    H1  954   1.790   2.177   1.075
  316TIP3    H2  955   1.875   2.162   1.200
  317TIP3   OH2  956   1.772   1.771   1.375
  317TIP3    H1  957   1.823   1.723   1.310
  317TIP3    H2  958   1.822   1.851   1.390
  318TIP3   OH2  959   2.295   2.399   1.132
  318TIP3    H1  960   2.286   2.475   1.190
  318TIP3    H2  961   2.285   2.323   1.190
  319TIP3   OH2  962   1.917   2.305   1.678
  319TIP3    H1  963   1.857   2.364   1.724
  319TIP3    H2  964   1.860   2.252   1.622
  320TIP3   OH2  965   2.256   1.754   0.328
  320TIP3    H1  966   2.288   1.798   0.407
  320TIP3    H2  967   2.205   1.680   0.360
  321TIP3   OH2  968   1.666   1.866   1.792
  321TIP3    H1  969   1.669   1.956   1.823
  321TIP3    H2  970   1.574   1.840   1.803
  322TIP3   OH2  971   1.967   2.390   0.707
  322TIP3    H1  972   2.062   2.403   0.702
  322TIP3    H2  973   1.933   2.440   0.633
  323TIP3   OH2  974   1.704   2.462   1.761
  323TIP3    H1  975   1.680   2.469   1.668
  323TIP3    H2  976   1.621   2.446   1.806
  324TIP3   OH2  977   2.562   2.265   0.025
  324TIP3    H1  978   2.574   2.352  -0.012
  324TIP3    H2  979   2.644   2.219   0.009
  325TIP3   OH2  980   1.290   2.011   1.717
  325TIP3    H1  981   1.227   1.993   1.648
  325TIP3    H2  982   1.324   1.925   1.741
  326TIP3   OH2  983   1.148   2.205   1.339
  326TIP3    H1  984   1.243   2.213   1.339
  326TIP3    H2  985   1.119   2.269   1.404
  327TIP3   OH2  986   2.999   2.661   1.407
  327TIP3    H1  987   3.006   2.566   1.419
  327TIP3    H2  988   2.920   2.685   1.454
  328TIP3   OH2  989   2.108   2.440   1.536
  328TIP3    H1  990   2.102   2.532   1.564
  328TIP3    H2  991   2.041   2.395   1.587
  329TIP3   OH2  992   1.873   2.545   0.504
  329TIP3    H1  993   1.852   2.524   0.413
  329TIP3    H2  994   1.853   2.639   0.512
  330TIP3   OH2  995   1.375   2.503   0.926
  330TIP3    H1  996   1.425   2.485   1.005
  330TIP3    H2  997   1.352   2.417   0.892
  331TIP3   OH2  998   2.092   2.499   0.150
  331TIP3    H1  999   2.146   2.421   0.133
  331TIP3    H2 1000   2.116   2.526   0.238
  332TIP3   OH2 1001   2.133   2.549   0.412
  332TIP3    H1 1002   2.057   2.542   0.469
  332TIP3    H2 1003   2.182   2.468   0.427
  333TIP3   OH2 1004   2.895   1.779   1.687
  333TIP3    H1 1005   2.811   1.773   1.641
  333TIP3    H2 1006   2.919   1.688   1.705
  334TIP3   OH2 1007   1.493   2.194   1.684
  334TIP3    H1 1008   1.544   2.184   1.764
  334TIP3    H2 1009   1.421   2.132   1.694
  335TIP3   OH2 1010   1.882   1.002   1.500
  335TIP3    H1 1011   1.803   0.967   1.459
  335TIP3    H2 1012   1.850   1.076   1.553
  336TIP3   OH2 1013   2.432   1.082   1.689
  336TIP3    H1 1014   2.501   1.093   1.754
  336TIP3    H2 1015   2.351   1.099   1.737
  337TIP3   OH2 1016   2.682   1.589   1.630
  337TIP3    H1 1017   2.614   1.555   1.689
  337TIP3    H2 1018   2.633   1.641   1.566
  338TIP3   OH2 1019   2.439   1.632   0.088
  338TIP3    H1 1020   2.345   1.642   0.074
  338TIP3    H2 1021   2.465   1.710   0.137
  339TIP3   OH2 1022   1.834   1.553   1.525
  339TIP3    H1 1023   1.787   1.566   1.608
  339TIP3    H2 1024   1.814   1.632   1.474
  340TIP3   OH2 1025   2.157   1.493   0.790
  340TIP3    H1 1026   2.128   1.577   0.754
  340TIP3    H2 1027   2.214   1.456   0.723
  341TIP3   OH2 1028   2.366   1.772   1.832
  341TIP3    H1 1029   2.341   1.700   1.890
  341TIP3    H2 1030   2.459   1.785   1.849
  342TIP3   OH2 1031   2.313   1.600   1.000
  342TIP3    H1 1032   2.261   1.546   0.940
  342TIP3    H2 1033   2.365   1.537   1.050
  343TIP3   OH2 1034   1.647   1.551   1.732
  343TIP3    H1 1035   1.690   1.600   1.802
  343TIP3    H2 1036   1.633   1.464   1.768
  344TIP3   OH2 1037   2.394   1.719   1.377
  344TIP3    H1 1038   2.420   1.643   1.325
  344TIP3    H2 1039   2.354   1.681   1.456
  345TIP3   OH2 1040   2.187   1.192   1.161
  345TIP3    H1 1041   2.101   1.217   1.193
  345TIP3    H2 1042   2.247   1.251   1.206
  346TIP3   OH2 1043   2.709   3.004   1.506
  346TIP3    H1 1044   2.707   3.019   1.412
  346TIP3    H2 1045   2.788   3.048   1.537
  347TIP3   OH2 1046   1.651   2.115   1.917
  347TIP3    H1 1047   1.733   2.136   1.962
  347TIP3    H2 1048   1.584   2.118   1.986
  348TIP3   OH2 1049   2.153   1.575   1.231
  348TIP3    H1 1050   2.220   1.572   1.163
  348TIP3    H2 1051   2.185   1.516   1.299
  349TIP3   OH2 1052   2.096   1.464   1.491
  349TIP3    H1 1053   2.011   1.507   1.488
  349TIP3    H2 1054   2.156   1.530   1.526
  350TIP3   OH2 1055   1.708   1.824   0.488
  350TIP3    H1 1056   1.769   1.751   0.475
  350TIP3    H2 1057   1.724   1.852   0.578
  351TIP3   OH2 1058   2.719   2.093   1.171
  351TIP3    H1 1059   2.750   2.141   1.094
  351TIP3    H2 1060   2.637   2.052   1.143
  352TIP3   OH2 1061   2.228   2.172   1.567
  352TIP3    H1 1062   2.281   2.164   1.646
  352TIP3    H2 1063   2.189   2.259   1.572
  353TIP3   OH2 1064   2.273   1.429   0.551
  353TIP3    H1 1065   2.337   1.496   0.574
  353TIP3    H2 1066   2.289   1.410   0.459
  354TIP3   OH2 1067   1.555   1.902   1.279
  354TIP3    H1 1068   1.559   1.856   1.195
  354TIP3    H2 1069   1.623   1.862   1.332
  355TIP3   OH2 1070   2.007   2.098   0.337
  355TIP3    H1 1071   1.945   2.165   0.365
  355TIP3    H2 1072   2.031   2.051   0.417
  356TIP3   OH2 1073   1.402   1.793   1.856
  356TIP3    H1 1074   1.421   1.772   1.947
  356TIP3    H2 1075   1.330   1.733   1.833
  357TIP3   OH2 1076   2.133   1.920   1.867
  357TIP3    H1 1077   2.069   1.864   1.823
  357TIP3    H2 1078   2.218   1.884   1.842
  358TIP3   OH2 1079   2.378   2.454   1.454
  358TIP3    H1 1080   2.283   2.441   1.462
  358TIP3    H2 1081   2.403   2.495   1.536
  359TIP3   OH2 1082   2.821   1.544   0.423
  359TIP3    H1 1083   2.741   1.500   0.396
  359TIP3    H2 1084   2.807   1.636   0.402
  360TIP3   OH2 1085   3.014   2.380   1.434
  360TIP3    H1 1086   2.920   2.365   1.432
  360TIP3    H2 1087   3.046   2.346   1.350
  361TIP3   OH2 1088   2.538   2.326   0.293
  361TIP3    H1 1089   2.480   2.274   0.349
  361TIP3    H2 1090   2.546   2.275   0.212
  362TIP3   OH2 1091   2.486   1.968   1.079
  362TIP3    H1 1092   2.397   1.944   1.104
  362TIP3    H2 1093   2.527   1.886   1.051
  363TIP3   OH2 1094   1.609   2.306   0.939
  363TIP3    H1 1095   1.632   2.319   0.847
  363TIP3    H2 1096   1.542   2.238   0.937
  364TIP3   OH2 1097   1.728   1.921   0.737
  364TIP3    H1 1098   1.664   1.992   0.721
  364TIP3    H2 1099   1.706   1.889   0.824
  365TIP3   OH2 1100   1.917   2.515   1.338
  365TIP3    H1 1101   1.954   2.587   1.286
  365TIP3    H2 1102   1.992   2.478   1.385
  366TIP3   OH2 1103   1.503   2.508   0.685
  366TIP3    H1 1104   1.466   2.487   0.771
  366TIP3    H2 1105   1.579   2.563   0.704
  367TIP3   OH2 1106   2.279   2.174   1.296
  367TIP3    H1 1107   2.267   2.167   1.390
  367TIP3    H2 1108   2.345   2.107   1.275
  368TIP3   OH2 1109   2.268   2.058   0.253
  368TIP3    H1 1110   2.318   2.041   0.333
  368TIP3    H2 1111   2.179   2.031   0.274
  369TIP3   OH2 1112   2.527   2.683   1.343
  369TIP3    H1 1113   2.454   2.621   1.351
  369TIP3    H2 1114   2.502   2.741   1.271
  370TIP3   OH2 1115   4.753   5.601   5.286
  370TIP3    H1 1116   4.802   5.682   5.277
  370TIP3    H2 1117   4.665   5.628   5.311
  371TIP3   OH2 1118   1.614   1.299   1.862
  371TIP3    H1 1119   1.519   1.292   1.864
  371TIP3    H2 1120   1.644   1.243   1.934
  372TIP3   OH2 1121   2.444   2.018   0.451
  372TIP3    H1 1122   2.444   1.954   0.522
  372TIP3    H2 1123   2.536   2.033   0.432
  373TIP3   OH2 1124   1.334   2.388   1.503
  373TIP3    H1 1125   1.389   2.319   1.540
  373TIP3    H2 1126   1.366   2.469   1.544
  374TIP3   OH2 1127   1.561   2.059   0.521
  374TIP3    H1 1128   1.598   1.975   0.493
  374TIP3    H2 1129   1.579   2.119   0.448
  375TIP3   OH2 1130   2.404   1.073   0.657
  375TIP3    H1 1131   2.331   1.126   0.623
  375TIP3    H2 1132   2.455   1.134   0.710
  376TIP3   OH2 1133   1.761   2.235   0.360
  376TIP3    H1 1134   1.680   2.277   0.390
  376TIP3    H2 1135   1.804   2.301   0.305
  377TIP3   OH2 1136   2.027   1.230   0.814
  377TIP3    H1 1137   2.058   1.293   0.749
  377TIP3    H2 1138   2.027   1.278   0.896
  378TIP3   OH2 1139   2.303   1.608   1.615
  378TIP3    H1 1140   2.320   1.670   1.686
  378TIP3    H2 1141   2.349   1.529   1.641
  379TIP3   OH2 1142   2.280   1.040   0.952
  379TIP3    H1 1143   2.240   1.100   1.016
  379TIP3    H2 1144   2.328   1.097   0.893
  380TIP3   OH2 1145   1.534   2.365   0.433
  380TIP3    H1 1146   1.449   2.321   0.434
  380TIP3    H2 1147   1.552   2.384   0.526
  381TIP3   OH2 1148   2.928   1.491   1.587
  381TIP3    H1 1149   2.840   1.522   1.607
  381TIP3    H2 1150   2.916   1.430   1.514
  382TIP3   OH2 1151   2.576   1.716   1.017
  382TIP3    H1 1152   2.491   1.672   1.024
  382TIP3    H2 1153   2.639   1.652   1.050
  383TIP3   OH2 1154   2.553   2.677   0.920
  383TIP3    H1 1155   2.510   2.728   0.852
  383TIP3    H2 1156   2.646   2.691   0.906
  384TIP3   OH2 1157   1.312   2.261   0.847
  384TIP3    H1 1158   1.233   2.258   0.901
  384TIP3    H2 1159   1.309   2.181   0.795
  385TIP3   OH2 1160   1.336   2.714   1.914
  385TIP3    H1 1161   1.418   2.720   1.962
  385TIP3    H2 1162   1.319   2.620   1.906
  386TIP3   OH2 1163   1.800   2.637   1.950
  386TIP3    H1 1164   1.893   2.618   1.962
  386TIP3    H2 1165   1.773   2.577   1.880
  387TIP3   OH2 1166   2.432   2.568   1.697
  387TIP3    H1 1167   2.436   2.497   1.761
  387TIP3    H2 1168   2.509   2.622   1.717
  388TIP3   OH2 1169   2.287   2.321   0.127
  388TIP3    H1 1170   2.260   2.230   0.115
  388TIP3    H2 1171   2.381   2.321   0.108
  389TIP3   OH2 1172   1.448   2.107   2.108
  389TIP3    H1 1173   1.460   2.014   2.124
  389TIP3    H2 1174   1.363   2.114   2.065
  390TIP3   OH2 1175   2.062   2.195   1.885
  390TIP3    H1 1176   2.022   2.218   1.801
  390TIP3    H2 1177   2.100   2.108   1.871
  391TIP3   OH2 1178   2.546   2.229   1.498
  391TIP3    H1 1179   2.624   2.257   1.450
  391TIP3    H2 1180   2.480   2.294   1.476
  392TIP3   OH2 1181   1.576   1.836   2.102
  392TIP3    H1 1182   1.657   1.829   2.052
  392TIP3    H2 1183   1.603   1.867   2.188
  393TIP3   OH2 1184   1.903   1.727   1.765
  393TIP3    H1 1185   1.827   1.784   1.769
  393TIP3    H2 1186   1.950   1.755   1.686
  394TIP3   OH2 1187   2.426   2.116   1.868
  394TIP3    H1 1188   2.499   2.081   1.816
  394TIP3    H2 1189   2.423   2.060   1.945
  395TIP3   OH2 1190   4.685   4.909   5.228
  395TIP3    H1 1191   4.595   4.885   5.251
  395TIP3    H2 1192   4.710   4.973   5.296
  396TIP3   OH2 1193   2.025   1.510   1.880
  396TIP3    H1 1194   2.026   1.434   1.821
  396TIP3    H2 1195   1.987   1.580   1.826
  397TIP3   OH2 1196   2.023   1.300   1.695
  397TIP3    H1 1197   2.054   1.342   1.615
  397TIP3    H2 1198   1.936   1.266   1.673
  398TIP3   OH2 1199   2.049   1.830   1.562
  398TIP3    H1 1200   2.137   1.837   1.525
  398TIP3    H2 1201   1.999   1.900   1.519
  399TIP3   OH2 1202   2.633   1.792   1.925
  399TIP3    H1 1203   2.669   1.703   1.924
  399TIP3    H2 1204   2.705   1.847   1.894
  400TIP3   OH2 1205   2.669   2.058   1.670
  400TIP3    H1 1206   2.617   2.119   1.617
  400TIP3    H2 1207   2.759   2.068   1.636
  401TIP3   OH2 1208   1.906   1.602   2.116
  401TIP3    H1 1209   1.844   1.531   2.134
  401TIP3    H2 1210   1.941   1.581   2.029
  402TIP3   OH2 1211   2.165   1.082   1.783
  402TIP3    H1 1212   2.122   1.162   1.752
  402TIP3    H2 1213   2.100   1.014   1.772
  403TIP3   OH2 1214   2.283   1.552   1.975
  403TIP3    H1 1215   2.273   1.538   2.069
  403TIP3    H2 1216   2.197   1.531   1.937
  404TIP3   OH2 1217   2.520   1.503   1.833
  404TIP3    H1 1218   2.446   1.504   1.894
  404TIP3    H2 1219   2.595   1.476   1.887
  405TIP3   OH2 1220   2.760   1.468   1.987
  405TIP3    H1 1221   2.777   1.374   1.994
  405TIP3    H2 1222   2.757   1.498   2.078
  406TIP3   OH2 1223   1.746   1.383   2.186
  406TIP3    H1 1224   1.749   1.297   2.146
  406TIP3    H2 1225   1.789   1.371   2.271
  407TIP3   OH2 1226   2.236   1.055   2.044
  407TIP3    H1 1227   2.304   0.989   2.036
  407TIP3    H2 1228   2.205   1.069   1.954
  408TIP3   OH2 1229   2.320   1.275   2.184
  408TIP3    H1 1230   2.295   1.202   2.128
  408TIP3    H2 1231   2.246   1.336   2.179
  409TIP3   OH2 1232   1.526   2.496   0.166
  409TIP3    H1 1233   1.600   2.489   0.227
  409TIP3    H2 1234   1.451   2.463   0.215
  410TIP3   OH2 1235   0.912   2.521   0.930
  410TIP3    H1 1236   0.824   2.542   0.960
  410TIP3    H2 1237   0.949   2.466   0.999
  411TIP3   OH2 1238   1.058   2.388   1.130
  411TIP3    H1 1239   1.036   2.327   1.201
  411TIP3    H2 1240   1.128   2.443   1.166
  412TIP3   OH2 1241   2.817   2.749   0.903
  412TIP3    H1 1242   2.844   2.771   0.992
  412TIP3    H2 1243   2.886   2.785   0.847
  413TIP3   OH2 1244   2.845   2.762   1.186
  413TIP3    H1 1245   2.795   2.681   1.178
  413TIP3    H2 1246   2.913   2.741   1.250
  414TIP3   OH2 1247   2.884   2.457   1.757
  414TIP3    H1 1248   2.814   2.464   1.822
  414TIP3    H2 1249   2.930   2.541   1.761
  415TIP3   OH2 1250   2.705   1.997   0.386
  415TIP3    H1 1251   2.774   2.055   0.354
  415TIP3    H2 1252   2.746   1.946   0.456
  416TIP3   OH2 1253   2.834   1.853   0.579
  416TIP3    H1 1254   2.778   1.809   0.643
  416TIP3    H2 1255   2.903   1.894   0.631
  417TIP3   OH2 1256   2.890   2.230   0.999
  417TIP3    H1 1257   2.942   2.160   0.961
  417TIP3    H2 1258   2.888   2.298   0.931
  418TIP3   OH2 1259   2.702   2.522   1.193
  418TIP3    H1 1260   2.634   2.563   1.246
  418TIP3    H2 1261   2.655   2.479   1.122
  419TIP3   OH2 1262   2.790   1.859   0.162
  419TIP3    H1 1263   2.718   1.842   0.101
  419TIP3    H2 1264   2.748   1.885   0.244
  420TIP3   OH2 1265   2.563   1.404   0.137
  420TIP3    H1 1266   2.510   1.480   0.115
  420TIP3    H2 1267   2.632   1.403   0.070
  421TIP3   OH2 1268   2.694   1.726   0.769
  421TIP3    H1 1269   2.709   1.634   0.746
  421TIP3    H2 1270   2.659   1.723   0.858
  422TIP3   OH2 1271   1.267   1.749   1.476
  422TIP3    H1 1272   1.279   1.716   1.387
  422TIP3    H2 1273   1.355   1.758   1.511
  423TIP3   OH2 1274   2.927   2.109   1.572
  423TIP3    H1 1275   2.992   2.041   1.557
  423TIP3    H2 1276   2.941   2.172   1.501
  424TIP3   OH2 1277   3.106   1.901   1.563
  424TIP3    H1 1278   3.030   1.858   1.603
  424TIP3    H2 1279   3.179   1.843   1.586
  425TIP3   OH2 1280   2.747   1.479   0.676
  425TIP3    H1 1281   2.751   1.384   0.681
  425TIP3    H2 1282   2.780   1.501   0.589
  426TIP3   OH2 1283   2.803   1.572   1.107
  426TIP3    H1 1284   2.884   1.596   1.060
  426TIP3    H2 1285   2.812   1.614   1.192
  427TIP3   OH2 1286   2.868   1.727   1.331
  427TIP3    H1 1287   2.792   1.753   1.383
  427TIP3    H2 1288   2.899   1.808   1.290
  428TIP3   OH2 1289   1.480   1.439   2.142
  428TIP3    H1 1290   1.575   1.437   2.152
  428TIP3    H2 1291   1.450   1.355   2.176
  429TIP3   OH2 1292   3.322   1.329   1.883
  429TIP3    H1 1293   3.384   1.268   1.842
  429TIP3    H2 1294   3.285   1.378   1.811
  430TIP3   OH2 1295   2.748   1.215   0.703
  430TIP3    H1 1296   2.814   1.168   0.755
  430TIP3    H2 1297   2.690   1.146   0.671
  431TIP3   OH2 1298   1.267   1.442   1.566
  431TIP3    H1 1299   1.230   1.421   1.480
  431TIP3    H2 1300   1.309   1.528   1.554
  432TIP3   OH2 1301   3.183   1.444   1.679
  432TIP3    H1 1302   3.096   1.483   1.692
  432TIP3    H2 1303   3.166   1.366   1.626
  433TIP3   OH2 1304   2.928   1.089   0.285
  433TIP3    H1 1305   2.892   1.025   0.224
  433TIP3    H2 1306   2.890   1.173   0.258
  434TIP3   OH2 1307   2.392   2.641   0.549
  434TIP3    H1 1308   2.444   2.618   0.472
  434TIP3    H2 1309   2.452   2.691   0.605
  435TIP3   OH2 1310   1.453   1.023   1.855
  435TIP3    H1 1311   1.402   1.003   1.933
  435TIP3    H2 1312   1.401   1.087   1.807
  436TIP3   OH2 1313   1.480   2.433   1.923
  436TIP3    H1 1314   1.386   2.414   1.918
  436TIP3    H2 1315   1.503   2.416   2.015
  437TIP3   OH2 1316   1.683   2.477   1.480
  437TIP3    H1 1317   1.634   2.550   1.444
  437TIP3    H2 1318   1.769   2.483   1.438
  438TIP3   OH2 1319   2.097   2.709   1.613
  438TIP3    H1 1320   2.135   2.699   1.700
  438TIP3    H2 1321   2.160   2.761   1.564
  439TIP3   OH2 1322   2.284   2.865   1.483
  439TIP3    H1 1323   2.346   2.807   1.438
  439TIP3    H2 1324   2.338   2.919   1.540
  440TIP3   OH2 1325   3.090   1.198   1.575
  440TIP3    H1 1326   3.001   1.194   1.541
  440TIP3    H2 1327   3.122   1.108   1.569
  441TIP3   OH2 1328   1.342   2.727   1.517
  441TIP3    H1 1329   1.251   2.748   1.496
  441TIP3    H2 1330   1.365   2.787   1.588
  442TIP3   OH2 1331   1.578   2.707   1.374
  442TIP3    H1 1332   1.492   2.713   1.416
  442TIP3    H2 1333   1.561   2.726   1.281
  443TIP3   OH2 1334   2.001   2.721   1.168
  443TIP3    H1 1335   1.930   2.731   1.104
  443TIP3    H2 1336   2.011   2.808   1.206
  444TIP3   OH2 1337   2.266   2.664   1.222
  444TIP3    H1 1338   2.174   2.677   1.199
  444TIP3    H2 1339   2.313   2.727   1.168
  445TIP3   OH2 1340   2.471   2.846   1.121
  445TIP3    H1 1341   2.462   2.931   1.078
  445TIP3    H2 1342   2.499   2.786   1.052
  446TIP3   OH2 1343   1.254   2.519   1.273
  446TIP3    H1 1344   1.270   2.484   1.360
  446TIP3    H2 1345   1.330   2.492   1.221
  447TIP3   OH2 1346   1.475   2.421   1.164
  447TIP3    H1 1347   1.479   2.329   1.192
  447TIP3    H2 1348   1.565   2.442   1.140
  448TIP3   OH2 1349   1.742   2.489   1.123
  448TIP3    H1 1350   1.746   2.402   1.086
  448TIP3    H2 1351   1.798   2.485   1.201
  449TIP3   OH2 1352   2.806   1.040   1.120
  449TIP3    H1 1353   2.859   1.118   1.100
  449TIP3    H2 1354   2.717   1.074   1.130
  450TIP3   OH2 1355   2.993   1.192   0.934
  450TIP3    H1 1356   3.043   1.124   0.890
  450TIP3    H2 1357   3.008   1.271   0.881
  451TIP3   OH2 1358   2.487   1.103   1.146
  451TIP3    H1 1359   2.419   1.076   1.084
  451TIP3    H2 1360   2.497   1.028   1.204
  452TIP3   OH2 1361   1.840   2.454   0.226
  452TIP3    H1 1362   1.932   2.469   0.207
  452TIP3    H2 1363   1.798   2.447   0.140
  453TIP3   OH2 1364   2.544   2.594   0.323
  453TIP3    H1 1365   2.543   2.499   0.312
  453TIP3    H2 1366   2.504   2.627   0.242
  454TIP3   OH2 1367   1.751   1.114   2.098
  454TIP3    H1 1368   1.718   1.044   2.154
  454TIP3    H2 1369   1.845   1.118   2.118
  455TIP3   OH2 1370   2.005   1.109   2.214
  455TIP3    H1 1371   2.084   1.090   2.163
  455TIP3    H2 1372   2.001   1.039   2.279
  456TIP3   OH2 1373   2.834   1.200   2.009
  456TIP3    H1 1374   2.849   1.169   2.098
  456TIP3    H2 1375   2.919   1.192   1.966
  457TIP3   OH2 1376   2.750   2.729   1.505
  457TIP3    H1 1377   2.675   2.699   1.455
  457TIP3    H2 1378   2.735   2.823   1.517
  458TIP3   OH2 1379   4.007   2.131   0.292
  458TIP3    H1 1380   4.019   2.197   0.223
  458TIP3    H2 1381   3.947   2.067   0.253
  459TIP3   OH2 1382   4.014   2.115   0.673
  459TIP3    H1 1383   4.056   2.084   0.753
  459TIP3    H2 1384   3.975   2.037   0.634
  460TIP3   OH2 1385   3.321   1.985   1.020
  460TIP3    H1 1386   3.351   1.922   1.085
  460TIP3    H2 1387   3.401   2.018   0.979
  461TIP3   OH2 1388   4.379   2.397   0.393
  461TIP3    H1 1389   4.292   2.358   0.379
  461TIP3    H2 1390   4.361   2.485   0.426
  462TIP3   OH2 1391   3.307   2.409   0.722
  462TIP3    H1 1392   3.294   2.314   0.726
  462TIP3    H2 1393   3.402   2.419   0.711
  463TIP3   OH2 1394   3.038   1.671   0.530
  463TIP3    H1 1395   2.992   1.751   0.557
  463TIP3    H2 1396   2.968   1.608   0.514
  464TIP3   OH2 1397   3.070   1.909   0.706
  464TIP3    H1 1398   3.116   1.831   0.736
  464TIP3    H2 1399   3.139   1.962   0.665
  465TIP3   OH2 1400   3.901   2.843   0.334
  465TIP3    H1 1401   3.951   2.769   0.300
  465TIP3    H2 1402   3.901   2.831   0.429
  466TIP3   OH2 1403   3.824   2.337   0.683
  466TIP3    H1 1404   3.865   2.257   0.650
  466TIP3    H2 1405   3.898   2.391   0.711
  467TIP3   OH2 1406   4.830   1.658   0.712
  467TIP3    H1 1407   4.851   1.747   0.740
  467TIP3    H2 1408   4.841   1.661   0.617
  468TIP3   OH2 1409   4.246   1.817   0.722
  468TIP3    H1 1410   4.283   1.732   0.744
  468TIP3    H2 1411   4.202   1.804   0.638
  469TIP3   OH2 1412   3.595   1.490   0.677
  469TIP3    H1 1413   3.572   1.567   0.624
  469TIP3    H2 1414   3.546   1.418   0.637
  470TIP3   OH2 1415   4.272   1.601   0.323
  470TIP3    H1 1416   4.342   1.590   0.388
  470TIP3    H2 1417   4.316   1.638   0.246
  471TIP3   OH2 1418   3.217   1.697   0.805
  471TIP3    H1 1419   3.301   1.674   0.846
  471TIP3    H2 1420   3.213   1.641   0.727
  472TIP3   OH2 1421   3.646   1.895   0.614
  472TIP3    H1 1422   3.739   1.874   0.621
  472TIP3    H2 1423   3.606   1.816   0.579
  473TIP3   OH2 1424   4.893   1.880   0.871
  473TIP3    H1 1425   4.807   1.917   0.853
  473TIP3    H2 1426   4.910   1.901   0.962
  474TIP3   OH2 1427   3.573   1.483   1.131
  474TIP3    H1 1428   3.522   1.513   1.056
  474TIP3    H2 1429   3.516   1.497   1.207
  475TIP3   OH2 1430   3.674   2.256   0.901
  475TIP3    H1 1431   3.617   2.325   0.935
  475TIP3    H2 1432   3.720   2.297   0.827
  476TIP3   OH2 1433   4.459   1.604   0.518
  476TIP3    H1 1434   4.435   1.561   0.600
  476TIP3    H2 1435   4.506   1.682   0.545
  477TIP3   OH2 1436   3.462   1.588   0.900
  477TIP3    H1 1437   3.517   1.662   0.923
  477TIP3    H2 1438   3.506   1.547   0.826
  478TIP3   OH2 1439   3.512   2.456   1.004
  478TIP3    H1 1440   3.495   2.545   0.972
  478TIP3    H2 1441   3.435   2.434   1.056
  479TIP3   OH2 1442   2.895   2.155   0.267
  479TIP3    H1 1443   2.857   2.164   0.180
  479TIP3    H2 1444   2.921   2.243   0.292
  480TIP3   OH2 1445   4.330   2.644   0.503
  480TIP3    H1 1446   4.241   2.637   0.538
  480TIP3    H2 1447   4.332   2.730   0.460
  481TIP3   OH2 1448   4.628   1.553   0.873
  481TIP3    H1 1449   4.541   1.567   0.835
  481TIP3    H2 1450   4.689   1.581   0.805
  482TIP3   OH2 1451   3.918   1.175   0.853
  482TIP3    H1 1452   3.903   1.083   0.875
  482TIP3    H2 1453   3.844   1.221   0.893
  483TIP3   OH2 1454   4.029   2.649   0.182
  483TIP3    H1 1455   4.070   2.567   0.152
  483TIP3    H2 1456   4.079   2.718   0.138
  484TIP3   OH2 1457   4.567   2.547   0.834
  484TIP3    H1 1458   4.549   2.474   0.776
  484TIP3    H2 1459   4.550   2.625   0.782
  485TIP3   OH2 1460   3.858   1.967   0.112
  485TIP3    H1 1461   3.773   2.010   0.101
  485TIP3    H2 1462   3.912   2.001   0.041
  486TIP3   OH2 1463   5.983   4.771   5.147
  486TIP3    H1 1464   6.057   4.829   5.163
  486TIP3    H2 1465   6.019   4.683   5.157
  487TIP3   OH2 1466   4.751   2.217   0.691
  487TIP3    H1 1467   4.667   2.262   0.692
  487TIP3    H2 1468   4.782   2.228   0.601
  488TIP3   OH2 1469   4.201   2.008   0.055
  488TIP3    H1 1470   4.157   2.093   0.051
  488TIP3    H2 1471   4.271   2.020   0.119
  489TIP3   OH2 1472   4.433   2.078   0.994
  489TIP3    H1 1473   4.429   2.159   1.044
  489TIP3    H2 1474   4.351   2.076   0.945
  490TIP3   OH2 1475   3.435   2.025   0.481
  490TIP3    H1 1476   3.401   1.966   0.414
  490TIP3    H2 1477   3.511   1.978   0.517
  491TIP3   OH2 1478   3.569   2.452   0.616
  491TIP3    H1 1479   3.544   2.430   0.526
  491TIP3    H2 1480   3.655   2.412   0.627
  492TIP3   OH2 1481   3.550   2.018   0.844
  492TIP3    H1 1482   3.586   1.983   0.762
  492TIP3    H2 1483   3.599   2.099   0.859
  493TIP3   OH2 1484   4.085   2.647   0.616
  493TIP3    H1 1485   4.074   2.725   0.671
  493TIP3    H2 1486   4.075   2.574   0.677
  494TIP3   OH2 1487   3.711   2.560   1.166
  494TIP3    H1 1488   3.651   2.618   1.213
  494TIP3    H2 1489   3.654   2.507   1.110
  495TIP3   OH2 1490   6.205   4.952   5.185
  495TIP3    H1 1491   6.262   4.995   5.249
  495TIP3    H2 1492   6.184   5.019   5.121
  496TIP3   OH2 1493   3.466   2.107   1.294
  496TIP3    H1 1494   3.471   2.199   1.319
  496TIP3    H2 1495   3.373   2.087   1.292
  497TIP3   OH2 1496   3.753   2.655   0.154
  497TIP3    H1 1497   3.842   2.625   0.173
  497TIP3    H2 1498   3.715   2.585   0.101
  498TIP3   OH2 1499   3.500   2.718   1.250
  498TIP3    H1 1500   3.473   2.725   1.158
  498TIP3    H2 1501   3.418   2.701   1.297
  499TIP3   OH2 1502   3.317   1.875   0.275
  499TIP3    H1 1503   3.247   1.931   0.241
  499TIP3    H2 1504   3.273   1.793   0.298
  500TIP3   OH2 1505   3.088   2.267   1.198
  500TIP3    H1 1506   3.019   2.250   1.134
  500TIP3    H2 1507   3.122   2.180   1.219
  501TIP3   OH2 1508   2.951   2.451   0.829
  501TIP3    H1 1509   3.046   2.445   0.814
  501TIP3    H2 1510   2.941   2.524   0.889
  502TIP3   OH2 1511   4.801   2.920   0.902
  502TIP3    H1 1512   4.804   2.825   0.912
  502TIP3    H2 1513   4.719   2.946   0.945
  503TIP3   OH2 1514   3.900   2.694   1.020
  503TIP3    H1 1515   3.896   2.786   1.047
  503TIP3    H2 1516   3.833   2.651   1.073
  504TIP3   OH2 1517   5.828   5.898   5.239
  504TIP3    H1 1518   5.819   5.804   5.222
  504TIP3    H2 1519   5.740   5.933   5.229
  505TIP3   OH2 1520   3.106   2.659   0.362
  505TIP3    H1 1521   3.154   2.652   0.445
  505TIP3    H2 1522   3.059   2.576   0.355
  506TIP3   OH2 1523   6.100   5.837   5.189
  506TIP3    H1 1524   6.007   5.862   5.188
  506TIP3    H2 1525   6.099   5.741   5.192
  507TIP3   OH2 1526   4.685   2.036   1.166
  507TIP3    H1 1527   4.602   2.049   1.120
  507TIP3    H2 1528   4.701   1.941   1.159
  508TIP3   OH2 1529   3.292   2.449   1.169
  508TIP3    H1 1530   3.341   2.437   1.250
  508TIP3    H2 1531   3.219   2.387   1.176
  509TIP3   OH2 1532   3.691   1.276   0.982
  509TIP3    H1 1533   3.606   1.241   0.956
  509TIP3    H2 1534   3.670   1.356   1.030
  510TIP3   OH2 1535   4.224   1.370   1.172
  510TIP3    H1 1536   4.292   1.351   1.237
  510TIP3    H2 1537   4.142   1.357   1.219
  511TIP3   OH2 1538   4.444   1.816   1.094
  511TIP3    H1 1539   4.399   1.813   1.178
  511TIP3    H2 1540   4.422   1.902   1.057
  512TIP3   OH2 1541   5.980   4.449   5.252
  512TIP3    H1 1542   5.962   4.419   5.341
  512TIP3    H2 1543   5.900   4.430   5.203
  513TIP3   OH2 1544   3.620   1.795   0.991
  513TIP3    H1 1545   3.570   1.802   1.072
  513TIP3    H2 1546   3.599   1.875   0.942
  514TIP3   OH2 1547   3.502   1.688   0.513
  514TIP3    H1 1548   3.416   1.658   0.540
  514TIP3    H2 1549   3.514   1.650   0.426
  515TIP3   OH2 1550   3.981   1.762   0.242
  515TIP3    H1 1551   3.934   1.835   0.202
  515TIP3    H2 1552   4.036   1.727   0.173
  516TIP3   OH2 1553   4.164   2.021   1.314
  516TIP3    H1 1554   4.136   1.953   1.375
  516TIP3    H2 1555   4.257   2.036   1.335
  517TIP3   OH2 1556   4.132   1.782   0.476
  517TIP3    H1 1557   4.068   1.813   0.413
  517TIP3    H2 1558   4.175   1.708   0.433
  518TIP3   OH2 1559   3.446   1.811   1.203
  518TIP3    H1 1560   3.457   1.875   1.273
  518TIP3    H2 1561   3.426   1.729   1.249
  519TIP3   OH2 1562   5.672   4.432   5.258
  519TIP3    H1 1563   5.685   4.424   5.352
  519TIP3    H2 1564   5.616   4.358   5.235
  520TIP3   OH2 1565   3.054   1.420   0.779
  520TIP3    H1 1566   3.132   1.418   0.835
  520TIP3    H2 1567   3.072   1.355   0.711
  521TIP3   OH2 1568   3.061   1.423   0.378
  521TIP3    H1 1569   3.077   1.460   0.291
  521TIP3    H2 1570   2.981   1.466   0.408
  522TIP3   OH2 1571   4.167   2.016   0.889
  522TIP3    H1 1572   4.200   1.950   0.827
  522TIP3    H2 1573   4.130   1.965   0.960
  523TIP3   OH2 1574   3.854   1.482   0.571
  523TIP3    H1 1575   3.772   1.483   0.619
  523TIP3    H2 1576   3.921   1.489   0.639
  524TIP3   OH2 1577   3.277   1.553   0.575
  524TIP3    H1 1578   3.189   1.573   0.542
  524TIP3    H2 1579   3.296   1.466   0.539
  525TIP3   OH2 1580   3.527   1.561   0.275
  525TIP3    H1 1581   3.620   1.576   0.258
  525TIP3    H2 1582   3.483   1.590   0.195
  526TIP3   OH2 1583   4.327   1.556   0.781
  526TIP3    H1 1584   4.302   1.577   0.871
  526TIP3    H2 1585   4.257   1.500   0.748
  527TIP3   OH2 1586   3.386   1.622   0.054
  527TIP3    H1 1587   3.301   1.602   0.014
  527TIP3    H2 1588   3.444   1.636  -0.021
  528TIP3   OH2 1589   4.509   3.257   1.016
  528TIP3    H1 1590   4.497   3.273   0.922
  528TIP3    H2 1591   4.589   3.304   1.038
  529TIP3   OH2 1592   3.451   2.370   1.402
  529TIP3    H1 1593   3.531   2.391   1.450
  529TIP3    H2 1594   3.382   2.372   1.467
  530TIP3   OH2 1595   3.911   1.827   0.667
  530TIP3    H1 1596   3.983   1.787   0.618
  530TIP3    H2 1597   3.914   1.784   0.752
  531TIP3   OH2 1598   3.434   1.321   0.530
  531TIP3    H1 1599   3.400   1.258   0.593
  531TIP3    H2 1600   3.432   1.275   0.446
  532TIP3   OH2 1601   3.885   1.731   0.939
  532TIP3    H1 1602   3.797   1.763   0.958
  532TIP3    H2 1603   3.943   1.787   0.993
  533TIP3   OH2 1604   3.620   2.099   0.056
  533TIP3    H1 1605   3.549   2.039   0.036
  533TIP3    H2 1606   3.597   2.137   0.141
  534TIP3   OH2 1607   4.508   2.341   0.661
  534TIP3    H1 1608   4.519   2.384   0.576
  534TIP3    H2 1609   4.426   2.293   0.653
  535TIP3   OH2 1610   6.226   4.530   5.159
  535TIP3    H1 1611   6.143   4.493   5.191
  535TIP3    H2 1612   6.249   4.596   5.224
  536TIP3   OH2 1613   4.024   2.429   1.052
  536TIP3    H1 1614   4.069   2.424   1.136
  536TIP3    H2 1615   3.981   2.515   1.053
  537TIP3   OH2 1616   4.134   1.669   0.026
  537TIP3    H1 1617   4.227   1.687   0.044
  537TIP3    H2 1618   4.107   1.742  -0.031
  538TIP3   OH2 1619   3.319   2.128   0.709
  538TIP3    H1 1620   3.353   2.102   0.624
  538TIP3    H2 1621   3.376   2.084   0.772
  539TIP3   OH2 1622   5.894   5.368   5.210
  539TIP3    H1 1623   5.988   5.366   5.230
  539TIP3    H2 1624   5.859   5.291   5.254
  540TIP3   OH2 1625   3.197   2.039   1.332
  540TIP3    H1 1626   3.199   2.016   1.425
  540TIP3    H2 1627   3.123   1.989   1.297
  541TIP3   OH2 1628   3.929   2.173   1.352
  541TIP3    H1 1629   3.860   2.115   1.320
  541TIP3    H2 1630   4.010   2.133   1.322
  542TIP3   OH2 1631   4.174   2.705   0.946
  542TIP3    H1 1632   4.079   2.695   0.948
  542TIP3    H2 1633   4.196   2.747   1.029
  543TIP3   OH2 1634   4.811   2.639   0.924
  543TIP3    H1 1635   4.716   2.625   0.924
  543TIP3    H2 1636   4.840   2.603   0.840
  544TIP3   OH2 1637   4.282   2.190   0.618
  544TIP3    H1 1638   4.187   2.175   0.619
  544TIP3    H2 1639   4.315   2.124   0.557
  545TIP3   OH2 1640   3.427   2.442   0.368
  545TIP3    H1 1641   3.420   2.520   0.314
  545TIP3    H2 1642   3.337   2.413   0.379
  546TIP3   OH2 1643   3.033   1.762   0.127
  546TIP3    H1 1644   3.076   1.846   0.137
  546TIP3    H2 1645   2.939   1.781   0.133
  547TIP3   OH2 1646   3.533   2.201   0.290
  547TIP3    H1 1647   3.508   2.290   0.314
  547TIP3    H2 1648   3.501   2.146   0.362
  548TIP3   OH2 1649   3.710   2.774   0.817
  548TIP3    H1 1650   3.750   2.844   0.765
  548TIP3    H2 1651   3.783   2.735   0.866
  549TIP3   OH2 1652   3.342   2.660   0.220
  549TIP3    H1 1653   3.253   2.667   0.255
  549TIP3    H2 1654   3.378   2.749   0.227
  550TIP3   OH2 1655   4.072   2.425   0.781
  550TIP3    H1 1656   4.062   2.419   0.876
  550TIP3    H2 1657   4.136   2.357   0.759
  551TIP3   OH2 1658   4.326   2.925   0.845
  551TIP3    H1 1659   4.255   2.862   0.856
  551TIP3    H2 1660   4.299   2.979   0.771
  552TIP3   OH2 1661   3.396   1.563   1.333
  552TIP3    H1 1662   3.301   1.575   1.338
  552TIP3    H2 1663   3.417   1.512   1.411
  553TIP3   OH2 1664   3.132   2.646   0.979
  553TIP3    H1 1665   3.184   2.576   1.019
  553TIP3    H2 1666   3.151   2.724   1.031
  554TIP3   OH2 1667   5.505   5.380   5.265
  554TIP3    H1 1668   5.592   5.351   5.293
  554TIP3    H2 1669   5.513   5.476   5.257
  555TIP3   OH2 1670   3.110   2.017   0.164
  555TIP3    H1 1671   3.035   2.048   0.214
  555TIP3    H2 1672   3.113   2.075   0.088
  556TIP3   OH2 1673   4.254   1.614   1.040
  556TIP3    H1 1674   4.330   1.658   1.077
  556TIP3    H2 1675   4.244   1.534   1.091
  557TIP3   OH2 1676   4.110   1.401   0.228
  557TIP3    H1 1677   4.091   1.429   0.138
  557TIP3    H2 1678   4.166   1.471   0.263
  558TIP3   OH2 1679   5.811   5.629   5.196
  558TIP3    H1 1680   5.716   5.623   5.205
  558TIP3    H2 1681   5.840   5.539   5.184
  559TIP3   OH2 1682   3.803   1.566   0.310
  559TIP3    H1 1683   3.863   1.636   0.285
  559TIP3    H2 1684   3.819   1.551   0.403
  560TIP3   OH2 1685   4.088   1.852   1.093
  560TIP3    H1 1686   4.113   1.900   1.173
  560TIP3    H2 1687   4.139   1.771   1.097
  561TIP3   OH2 1688   3.953   1.280   0.411
  561TIP3    H1 1689   3.921   1.352   0.465
  561TIP3    H2 1690   4.011   1.321   0.347
  562TIP3   OH2 1691   5.543   5.660   5.261
  562TIP3    H1 1692   5.525   5.746   5.222
  562TIP3    H2 1693   5.530   5.674   5.355
  563TIP3   OH2 1694   3.493   1.293   0.236
  563TIP3    H1 1695   3.481   1.384   0.260
  563TIP3    H2 1696   3.588   1.282   0.228
  564TIP3   OH2 1697   4.707   1.768   1.081
  564TIP3    H1 1698   4.612   1.774   1.091
  564TIP3    H2 1699   4.720   1.708   1.007
  565TIP3   OH2 1700   4.367   1.958   0.472
  565TIP3    H1 1701   4.286   1.908   0.484
  565TIP3    H2 1702   4.431   1.914   0.528
  566TIP3   OH2 1703   5.263   5.248   5.248
  566TIP3    H1 1704   5.335   5.310   5.263
  566TIP3    H2 1705   5.300   5.183   5.189
  567TIP3   OH2 1706   3.005   1.493   0.117
  567TIP3    H1 1707   3.018   1.588   0.123
  567TIP3    H2 1708   2.989   1.477   0.024
  568TIP3   OH2 1709   4.344   2.900   0.425
  568TIP3    H1 1710   4.292   2.946   0.360
  568TIP3    H2 1711   4.433   2.935   0.413
  569TIP3   OH2 1712   3.432   1.194   0.965
  569TIP3    H1 1713   3.395   1.173   0.879
  569TIP3    H2 1714   3.419   1.114   1.016
  570TIP3   OH2 1715   2.954   2.424   0.337
  570TIP3    H1 1716   2.894   2.446   0.407
  570TIP3    H2 1717   2.913   2.459   0.258
  571TIP3   OH2 1718   3.131   2.970   1.397
  571TIP3    H1 1719   3.213   2.974   1.447
  571TIP3    H2 1720   3.112   2.877   1.390
  572TIP3   OH2 1721   3.597   2.893   1.440
  572TIP3    H1 1722   3.691   2.874   1.449
  572TIP3    H2 1723   3.567   2.834   1.371
  573TIP3   OH2 1724   4.227   2.822   1.188
  573TIP3    H1 1725   4.235   2.753   1.253
  573TIP3    H2 1726   4.301   2.880   1.204
  574TIP3   OH2 1727   3.244   2.366   1.590
  574TIP3    H1 1728   3.265   2.272   1.600
  574TIP3    H2 1729   3.158   2.367   1.549
  575TIP3   OH2 1730   5.423   5.071   5.107
  575TIP3    H1 1731   5.479   5.049   5.181
  575TIP3    H2 1732   5.474   5.135   5.056
  576TIP3   OH2 1733   3.862   2.450   1.369
  576TIP3    H1 1734   3.817   2.472   1.288
  576TIP3    H2 1735   3.894   2.361   1.356
  577TIP3   OH2 1736   4.345   2.484   0.990
  577TIP3    H1 1737   4.421   2.512   0.938
  577TIP3    H2 1738   4.277   2.547   0.969
  578TIP3   OH2 1739   3.367   2.114   1.594
  578TIP3    H1 1740   3.442   2.079   1.546
  578TIP3    H2 1741   3.400   2.132   1.681
  579TIP3   OH2 1742   3.420   1.917   0.003
  579TIP3    H1 1743   3.395   1.884   0.089
  579TIP3    H2 1744   3.465   1.844  -0.039
  580TIP3   OH2 1745   3.719   1.992   1.253
  580TIP3    H1 1746   3.634   2.035   1.259
  580TIP3    H2 1747   3.754   2.020   1.168
  581TIP3   OH2 1748   5.711   4.783   5.156
  581TIP3    H1 1749   5.694   4.736   5.074
  581TIP3    H2 1750   5.806   4.785   5.163
  582TIP3   OH2 1751   4.222   2.375   1.358
  582TIP3    H1 1752   4.286   2.330   1.302
  582TIP3    H2 1753   4.214   2.318   1.434
  583TIP3   OH2 1754   3.828   1.766   1.361
  583TIP3    H1 1755   3.828   1.692   1.300
  583TIP3    H2 1756   3.790   1.838   1.312
  584TIP3   OH2 1757   3.834   1.558   1.167
  584TIP3    H1 1758   3.859   1.597   1.083
  584TIP3    H2 1759   3.742   1.535   1.156
  585TIP3   OH2 1760   3.848   2.092   1.035
  585TIP3    H1 1761   3.936   2.121   1.013
  585TIP3    H2 1762   3.790   2.153   0.990
  586TIP3   OH2 1763   4.431   2.051   1.412
  586TIP3    H1 1764   4.474   1.966   1.425
  586TIP3    H2 1765   4.501   2.109   1.383
  587TIP3   OH2 1766   4.468   2.310   1.156
  587TIP3    H1 1767   4.413   2.371   1.107
  587TIP3    H2 1768   4.557   2.326   1.125
  588TIP3   OH2 1769   3.710   1.856   1.603
  588TIP3    H1 1770   3.641   1.793   1.623
  588TIP3    H2 1771   3.737   1.833   1.514
  589TIP3   OH2 1772   3.957   1.320   1.252
  589TIP3    H1 1773   3.916   1.402   1.225
  589TIP3    H2 1774   3.889   1.254   1.243
  590TIP3   OH2 1775   4.083   1.805   1.461
  590TIP3    H1 1776   4.069   1.793   1.555
  590TIP3    H2 1777   3.998   1.786   1.421
  591TIP3   OH2 1778   4.325   1.760   1.328
  591TIP3    H1 1779   4.246   1.761   1.383
  591TIP3    H2 1780   4.395   1.735   1.387
  592TIP3   OH2 1781   4.563   1.722   1.476
  592TIP3    H1 1782   4.576   1.628   1.484
  592TIP3    H2 1783   4.556   1.753   1.567
  593TIP3   OH2 1784   3.548   1.635   1.666
  593TIP3    H1 1785   3.548   1.546   1.630
  593TIP3    H2 1786   3.585   1.625   1.753
  594TIP3   OH2 1787   4.037   1.316   1.516
  594TIP3    H1 1788   4.105   1.249   1.510
  594TIP3    H2 1789   4.001   1.321   1.428
  595TIP3   OH2 1790   4.117   1.530   1.668
  595TIP3    H1 1791   4.090   1.459   1.609
  595TIP3    H2 1792   4.044   1.592   1.665
  596TIP3   OH2 1793   4.991   5.228   5.305
  596TIP3    H1 1794   5.082   5.245   5.280
  596TIP3    H2 1795   4.962   5.158   5.246
  597TIP3   OH2 1796   2.742   2.754   0.410
  597TIP3    H1 1797   2.677   2.698   0.369
  597TIP3    H2 1798   2.788   2.696   0.472
  598TIP3   OH2 1799   2.875   2.593   0.589
  598TIP3    H1 1800   2.863   2.522   0.652
  598TIP3    H2 1801   2.928   2.658   0.636
  599TIP3   OH2 1802   4.580   3.026   0.404
  599TIP3    H1 1803   4.614   3.048   0.490
  599TIP3    H2 1804   4.657   3.025   0.347
  600TIP3   OH2 1805   4.623   3.014   0.689
  600TIP3    H1 1806   4.583   2.928   0.679
  600TIP3    H2 1807   4.700   2.998   0.743
  601TIP3   OH2 1808   4.685   2.710   1.245
  601TIP3    H1 1809   4.612   2.718   1.307
  601TIP3    H2 1810   4.728   2.795   1.247
  602TIP3   OH2 1811   4.654   2.070   0.071
  602TIP3    H1 1812   4.592   2.028   0.131
  602TIP3    H2 1813   4.605   2.143   0.033
  603TIP3   OH2 1814   4.701   2.480   0.493
  603TIP3    H1 1815   4.733   2.403   0.446
  603TIP3    H2 1816   4.690   2.546   0.424
  604TIP3   OH2 1817   4.498   2.769   0.689
  604TIP3    H1 1818   4.431   2.812   0.742
  604TIP3    H2 1819   4.449   2.727   0.619
  605TIP3   OH2 1820   4.446   1.955   0.209
  605TIP3    H1 1821   4.418   1.865   0.192
  605TIP3    H2 1822   4.420   1.971   0.300
  606TIP3   OH2 1823   3.058   2.016   0.958
  606TIP3    H1 1824   3.048   1.979   0.870
  606TIP3    H2 1825   3.152   2.014   0.974
  607TIP3   OH2 1826   4.722   2.366   1.059
  607TIP3    H1 1827   4.789   2.301   1.039
  607TIP3    H2 1828   4.726   2.428   0.986
  608TIP3   OH2 1829   4.901   2.157   1.050
  608TIP3    H1 1830   4.825   2.117   1.093
  608TIP3    H2 1831   4.975   2.100   1.074
  609TIP3   OH2 1832   4.409   1.693   0.098
  609TIP3    H1 1833   4.438   1.602   0.106
  609TIP3    H2 1834   4.467   1.731   0.032
  610TIP3   OH2 1835   4.579   1.832   0.610
  610TIP3    H1 1836   4.660   1.857   0.565
  610TIP3    H2 1837   4.586   1.873   0.696
  611TIP3   OH2 1838   4.650   1.994   0.826
  611TIP3    H1 1839   4.575   2.024   0.878
  611TIP3    H2 1840   4.681   2.073   0.782
  612TIP3   OH2 1841   3.283   1.702   1.635
  612TIP3    H1 1842   3.378   1.695   1.642
  612TIP3    H2 1843   3.251   1.617   1.664
  613TIP3   OH2 1844   5.116   1.588   1.372
  613TIP3    H1 1845   5.173   1.526   1.327
  613TIP3    H2 1846   5.077   1.640   1.301
  614TIP3   OH2 1847   4.476   1.434   0.135
  614TIP3    H1 1848   4.521   1.412   0.217
  614TIP3    H2 1849   4.436   1.352   0.107
  615TIP3   OH2 1850   3.258   1.406   0.958
  615TIP3    H1 1851   3.311   1.329   0.977
  615TIP3    H2 1852   3.321   1.477   0.944
  616TIP3   OH2 1853   3.048   1.667   1.028
  616TIP3    H1 1854   3.091   1.658   0.943
  616TIP3    H2 1855   3.075   1.754   1.059
  617TIP3   OH2 1856   4.970   1.714   1.180
  617TIP3    H1 1857   4.891   1.756   1.215
  617TIP3    H2 1858   4.937   1.641   1.128
  618TIP3   OH2 1859   2.993   1.224   0.595
  618TIP3    H1 1860   2.899   1.209   0.591
  618TIP3    H2 1861   3.013   1.279   0.519
  619TIP3   OH2 1862   4.140   2.875   0.063
  619TIP3    H1 1863   4.107   2.861  -0.025
  619TIP3    H2 1864   4.233   2.896   0.051
  620TIP3   OH2 1865   3.240   1.225   1.334
  620TIP3    H1 1866   3.192   1.227   1.417
  620TIP3    H2 1867   3.186   1.277   1.275
  621TIP3   OH2 1868   3.276   2.687   1.414
  621TIP3    H1 1869   3.183   2.669   1.403
  621TIP3    H2 1870   3.294   2.670   1.506
  622TIP3   OH2 1871   3.481   2.731   0.966
  622TIP3    H1 1872   3.428   2.803   0.933
  622TIP3    H2 1873   3.565   2.740   0.922
  623TIP3   OH2 1874   3.894   2.962   1.099
  623TIP3    H1 1875   3.931   2.955   1.187
  623TIP3    H2 1876   3.958   3.014   1.050
  624TIP3   OH2 1877   4.082   3.119   0.973
  624TIP3    H1 1878   4.147   3.066   0.927
  624TIP3    H2 1879   4.134   3.178   1.028
  625TIP3   OH2 1880   4.844   1.488   1.083
  625TIP3    H1 1881   4.757   1.487   1.043
  625TIP3    H2 1882   4.867   1.396   1.092
  626TIP3   OH2 1883   3.143   2.987   1.004
  626TIP3    H1 1884   3.051   3.006   0.983
  626TIP3    H2 1885   3.164   3.047   1.075
  627TIP3   OH2 1886   3.373   2.959   0.856
  627TIP3    H1 1887   3.289   2.968   0.902
  627TIP3    H2 1888   3.354   2.984   0.766
  628TIP3   OH2 1889   3.801   2.978   0.646
  628TIP3    H1 1890   3.722   2.991   0.594
  628TIP3    H2 1891   3.813   3.060   0.693
  629TIP3   OH2 1892   4.056   2.904   0.716
  629TIP3    H1 1893   3.968   2.929   0.689
  629TIP3    H2 1894   4.113   2.969   0.675
  630TIP3   OH2 1895   4.258   3.070   0.627
  630TIP3    H1 1896   4.236   3.157   0.596
  630TIP3    H2 1897   4.289   3.023   0.550
  631TIP3   OH2 1898   3.055   2.760   0.736
  631TIP3    H1 1899   3.079   2.729   0.823
  631TIP3    H2 1900   3.125   2.727   0.679
  632TIP3   OH2 1901   3.256   2.646   0.594
  632TIP3    H1 1902   3.267   2.562   0.638
  632TIP3    H2 1903   3.344   2.684   0.592
  633TIP3   OH2 1904   3.526   2.727   0.608
  633TIP3    H1 1905   3.544   2.634   0.597
  633TIP3    H2 1906   3.578   2.753   0.685
  634TIP3   OH2 1907   4.110   1.387   0.702
  634TIP3    H1 1908   4.057   1.319   0.743
  634TIP3    H2 1909   4.166   1.341   0.641
  635TIP3   OH2 1910   4.560   1.301   0.599
  635TIP3    H1 1911   4.596   1.336   0.517
  635TIP3    H2 1912   4.466   1.293   0.583
  636TIP3   OH2 1913   4.649   1.374   0.346
  636TIP3    H1 1914   4.713   1.315   0.307
  636TIP3    H2 1915   4.686   1.462   0.332
  637TIP3   OH2 1916   3.348   1.140   0.711
  637TIP3    H1 1917   3.270   1.098   0.673
  637TIP3    H2 1918   3.413   1.070   0.713
  638TIP3   OH2 1919   3.144   0.895   0.355
  638TIP3    H1 1920   3.206   0.953   0.313
  638TIP3    H2 1921   3.126   0.936   0.440
  639TIP3   OH2 1922   3.805   1.111   0.581
  639TIP3    H1 1923   3.851   1.165   0.515
  639TIP3    H2 1924   3.833   1.148   0.665
  640TIP3   OH2 1925   4.292   1.240   0.548
  640TIP3    H1 1926   4.266   1.211   0.460
  640TIP3    H2 1927   4.295   1.160   0.600
  641TIP3   OH2 1928   2.831   2.534   0.123
  641TIP3    H1 1929   2.750   2.494   0.092
  641TIP3    H2 1930   2.820   2.627   0.102
  642TIP3   OH2 1931   3.342   1.070   0.224
  642TIP3    H1 1932   3.266   1.129   0.225
  642TIP3    H2 1933   3.416   1.127   0.247
  643TIP3   OH2 1934   3.761   1.317   0.208
  643TIP3    H1 1935   3.815   1.264   0.267
  643TIP3    H2 1936   3.773   1.407   0.239
  644TIP3   OH2 1937   3.548   1.362   1.581
  644TIP3    H1 1938   3.511   1.295   1.639
  644TIP3    H2 1939   3.640   1.368   1.607
  645TIP3   OH2 1940   3.798   1.366   1.706
  645TIP3    H1 1941   3.879   1.342   1.660
  645TIP3    H2 1942   3.786   1.297   1.771
  646TIP3   OH2 1943   5.067   5.658   5.120
  646TIP3    H1 1944   5.023   5.703   5.192
  646TIP3    H2 1945   5.104   5.580   5.160
  647TIP3   OH2 1946   4.625   1.452   1.494
  647TIP3    H1 1947   4.639   1.422   1.584
  647TIP3    H2 1948   4.712   1.444   1.453
  648TIP3   OH2 1949   4.551   2.985   0.998
  648TIP3    H1 1950   4.475   2.954   0.949
  648TIP3    H2 1951   4.535   3.078   1.012
  649TIP3   OH2 1952   5.120   2.250   0.504
  649TIP3    H1 1953   5.147   2.184   0.568
  649TIP3    H2 1954   5.197   2.307   0.495
  650TIP3   OH2 1955   5.028   2.646   0.290
  650TIP3    H1 1956   5.073   2.564   0.272
  650TIP3    H2 1957   5.065   2.708   0.228
  651TIP3   OH2 1958   0.476   4.934   5.269
  651TIP3    H1 1959   0.432   5.010   5.307
  651TIP3    H2 1960   0.409   4.893   5.214
  652TIP3   OH2 1961   4.905   2.231   0.167
  652TIP3    H1 1962   4.943   2.144   0.180
  652TIP3    H2 1963   4.826   2.216   0.116
  653TIP3   OH2 1964   4.995   1.982   0.218
  653TIP3    H1 1965   5.008   1.929   0.297
  653TIP3    H2 1966   4.962   1.920   0.153
  654TIP3   OH2 1967   5.237   1.748   0.584
  654TIP3    H1 1968   5.260   1.801   0.507
  654TIP3    H2 1969   5.224   1.813   0.653
  655TIP3   OH2 1970   5.519   2.540   0.422
  655TIP3    H1 1971   5.437   2.579   0.451
  655TIP3    H2 1972   5.584   2.609   0.433
  656TIP3   OH2 1973   5.294   1.853   0.340
  656TIP3    H1 1974   5.354   1.926   0.355
  656TIP3    H2 1975   5.334   1.804   0.268
  657TIP3   OH2 1976   5.307   2.681   0.513
  657TIP3    H1 1977   5.297   2.771   0.481
  657TIP3    H2 1978   5.225   2.663   0.559
  658TIP3   OH2 1979   5.372   2.305   0.378
  658TIP3    H1 1980   5.349   2.272   0.291
  658TIP3    H2 1981   5.427   2.382   0.359
  659TIP3   OH2 1982   5.507   2.807   0.661
  659TIP3    H1 1983   5.453   2.872   0.706
  659TIP3    H2 1984   5.445   2.752   0.614
  660TIP3   OH2 1985   5.251   2.369   0.769
  660TIP3    H1 1986   5.258   2.460   0.799
  660TIP3    H2 1987   5.158   2.348   0.776
  661TIP3   OH2 1988   5.302   2.971   0.748
  661TIP3    H1 1989   5.281   2.966   0.654
  661TIP3    H2 1990   5.219   2.951   0.792
  662TIP3   OH2 1991   4.884   2.518   0.692
  662TIP3    H1 1992   4.816   2.509   0.626
  662TIP3    H2 1993   4.913   2.428   0.709
  663TIP3   OH2 1994   4.758   2.687   0.311
  663TIP3    H1 1995   4.850   2.659   0.303
  663TIP3    H2 1996   4.761   2.762   0.370
  664TIP3   OH2 1997   5.690   2.942   0.503
  664TIP3    H1 1998   5.687   3.031   0.538
  664TIP3    H2 1999   5.631   2.892   0.559
  665TIP3   OH2 2000   5.083   2.701   0.669
  665TIP3    H1 2001   5.131   2.692   0.751
  665TIP3    H2 2002   5.011   2.639   0.675
  666TIP3   OH2 2003   5.437   1.535   0.533
  666TIP3    H1 2004   5.448   1.521   0.439
  666TIP3    H2 2005   5.351   1.575   0.542
  667TIP3   OH2 2006   5.414   2.064   0.492
  667TIP3    H1 2007   5.355   2.074   0.566
  667TIP3    H2 2008   5.402   2.143   0.440
  668TIP3   OH2 2009   5.234   2.080   0.693
  668TIP3    H1 2010   5.242   2.154   0.753
  668TIP3    H2 2011   5.215   2.006   0.750
  669TIP3   OH2 2012   4.817   1.565   0.249
  669TIP3    H1 2013   4.868   1.557   0.329
  669TIP3    H2 2014   4.871   1.620   0.192
  670TIP3   OH2 2015   4.988   1.711   0.089
  670TIP3    H1 2016   4.920   1.757   0.039
  670TIP3    H2 2017   5.070   1.735   0.045
  671TIP3   OH2 2018   5.249   2.622   0.893
  671TIP3    H1 2019   5.328   2.648   0.939
  671TIP3    H2 2020   5.180   2.626   0.959
  672TIP3   OH2 2021   5.666   2.009   0.214
  672TIP3    H1 2022   5.714   1.938   0.171
  672TIP3    H2 2023   5.682   1.996   0.307
  673TIP3   OH2 2024   5.690   2.037   0.504
  673TIP3    H1 2025   5.596   2.053   0.496
  673TIP3    H2 2026   5.728   2.124   0.514
  674TIP3   OH2 2027   5.771   2.668   0.534
  674TIP3    H1 2028   5.840   2.653   0.599
  674TIP3    H2 2029   5.779   2.760   0.511
  675TIP3   OH2 2030   5.137   2.404   0.215
  675TIP3    H1 2031   5.064   2.371   0.162
  675TIP3    H2 2032   5.150   2.338   0.283
  676TIP3   OH2 2033   4.992   2.282   0.816
  676TIP3    H1 2034   4.990   2.259   0.909
  676TIP3    H2 2035   4.915   2.239   0.779
  677TIP3   OH2 2036   5.702   2.409   0.852
  677TIP3    H1 2037   5.631   2.358   0.814
  677TIP3    H2 2038   5.774   2.348   0.861
  678TIP3   OH2 2039   5.962   2.921   0.441
  678TIP3    H1 2040   5.869   2.934   0.424
  678TIP3    H2 2041   5.980   2.977   0.517
  679TIP3   OH2 2042   5.504   3.010   0.311
  679TIP3    H1 2043   5.533   3.088   0.264
  679TIP3    H2 2044   5.581   2.982   0.360
  680TIP3   OH2 2045   5.156   1.859   0.832
  680TIP3    H1 2046   5.061   1.862   0.837
  680TIP3    H2 2047   5.185   1.857   0.924
  681TIP3   OH2 2048   4.937   2.883   0.496
  681TIP3    H1 2049   4.982   2.806   0.529
  681TIP3    H2 2050   4.973   2.956   0.547
  682TIP3   OH2 2051   4.923   3.205   0.893
  682TIP3    H1 2052   5.008   3.207   0.936
  682TIP3    H2 2053   4.898   3.113   0.892
  683TIP3   OH2 2054   5.401   3.145   0.934
  683TIP3    H1 2055   5.493   3.122   0.940
  683TIP3    H2 2056   5.366   3.086   0.866
  684TIP3   OH2 2057   5.989   3.066   0.680
  684TIP3    H1 2058   5.986   2.999   0.747
  684TIP3    H2 2059   6.081   3.093   0.677
  685TIP3   OH2 2060   5.041   2.619   1.078
  685TIP3    H1 2061   5.057   2.525   1.087
  685TIP3    H2 2062   4.954   2.625   1.038
  686TIP3   OH2 2063   5.662   2.690   0.856
  686TIP3    H1 2064   5.619   2.719   0.776
  686TIP3    H2 2065   5.681   2.598   0.841
  687TIP3   OH2 2066   5.166   2.365   1.084
  687TIP3    H1 2067   5.244   2.336   1.037
  687TIP3    H2 2068   5.197   2.390   1.171
  688TIP3   OH2 2069   5.500   2.255   0.733
  688TIP3    H1 2070   5.415   2.298   0.736
  688TIP3    H2 2071   5.535   2.278   0.646
  689TIP3   OH2 2072   5.643   2.070   0.873
  689TIP3    H1 2073   5.697   2.014   0.818
  689TIP3    H2 2074   5.594   2.124   0.811
  690TIP3   OH2 2075   5.709   1.823   0.715
  690TIP3    H1 2076   5.729   1.873   0.635
  690TIP3    H2 2077   5.634   1.769   0.691
  691TIP3   OH2 2078   5.667   2.329   0.525
  691TIP3    H1 2079   5.756   2.365   0.537
  691TIP3    H2 2080   5.616   2.404   0.495
  692TIP3   OH2 2081   5.507   2.128   1.109
  692TIP3    H1 2082   5.438   2.062   1.122
  692TIP3    H2 2083   5.537   2.114   1.020
  693TIP3   OH2 2084   5.809   1.561   0.745
  693TIP3    H1 2085   5.772   1.649   0.741
  693TIP3    H2 2086   5.761   1.518   0.816
  694TIP3   OH2 2087   5.871   2.206   0.948
  694TIP3    H1 2088   5.935   2.153   0.899
  694TIP3    H2 2089   5.792   2.151   0.949
  695TIP3   OH2 2090   5.345   1.907   1.159
  695TIP3    H1 2091   5.338   1.816   1.128
  695TIP3    H2 2092   5.380   1.899   1.248
  696TIP3   OH2 2093   5.922   1.803   1.101
  696TIP3    H1 2094   5.907   1.712   1.127
  696TIP3    H2 2095   5.846   1.850   1.136
  697TIP3   OH2 2096   4.631   2.844   0.115
  697TIP3    H1 2097   4.633   2.777   0.183
  697TIP3    H2 2098   4.692   2.912   0.146
  698TIP3   OH2 2099   4.858   2.247   0.439
  698TIP3    H1 2100   4.859   2.248   0.344
  698TIP3    H2 2101   4.950   2.256   0.464
  699TIP3   OH2 2102   5.080   1.955   1.110
  699TIP3    H1 2103   5.173   1.953   1.131
  699TIP3    H2 2104   5.045   1.873   1.144
  700TIP3   OH2 2105   4.965   1.547   0.473
  700TIP3    H1 2106   5.033   1.508   0.528
  700TIP3    H2 2107   5.004   1.628   0.441
  701TIP3   OH2 2108   4.819   1.929   0.527
  701TIP3    H1 2109   4.875   1.900   0.455
  701TIP3    H2 2110   4.830   2.024   0.530
  702TIP3   OH2 2111   4.992   1.487   0.848
  702TIP3    H1 2112   4.957   1.491   0.937
  702TIP3    H2 2113   4.939   1.550   0.798
  703TIP3   OH2 2114   5.077   2.935   0.904
  703TIP3    H1 2115   4.983   2.920   0.892
  703TIP3    H2 2116   5.090   2.928   0.999
  704TIP3   OH2 2117   5.294   2.947   0.471
  704TIP3    H1 2118   5.222   2.996   0.432
  704TIP3    H2 2119   5.369   2.968   0.415
  705TIP3   OH2 2120   5.668   3.202   0.597
  705TIP3    H1 2121   5.697   3.202   0.688
  705TIP3    H2 2122   5.738   3.246   0.549
  706TIP3   OH2 2123   5.889   3.327   0.504
  706TIP3    H1 2124   5.947   3.320   0.428
  706TIP3    H2 2125   5.925   3.399   0.555
  707TIP3   OH2 2126   4.926   3.233   0.512
  707TIP3    H1 2127   4.830   3.227   0.511
  707TIP3    H2 2128   4.946   3.274   0.596
  708TIP3   OH2 2129   5.111   3.110   0.366
  708TIP3    H1 2130   5.041   3.146   0.420
  708TIP3    H2 2131   5.120   3.171   0.293
  709TIP3   OH2 2132   4.820   2.993   0.271
  709TIP3    H1 2133   4.869   2.951   0.341
  709TIP3    H2 2134   4.874   3.069   0.246
  710TIP3   OH2 2135   5.335   1.642   1.108
  710TIP3    H1 2136   5.291   1.563   1.137
  710TIP3    H2 2137   5.424   1.634   1.141
  711TIP3   OH2 2138   5.575   1.621   1.237
  711TIP3    H1 2139   5.635   1.611   1.163
  711TIP3    H2 2140   5.558   1.532   1.268
  712TIP3   OH2 2141   0.089   3.393   1.320
  712TIP3    H1 2142   0.127   3.388   1.408
  712TIP3    H2 2143   0.041   3.311   1.310
  713TIP3   OH2 2144   0.361   3.687   1.033
  713TIP3    H1 2145   0.340   3.637   1.112
  713TIP3    H2 2146   0.374   3.777   1.064
  714TIP3   OH2 2147   6.378   3.624   1.389
  714TIP3    H1 2148   6.380   3.596   1.298
  714TIP3    H2 2149   6.469   3.646   1.409
  715TIP3   OH2 2150   0.884   2.956   1.347
  715TIP3    H1 2151   0.916   3.034   1.392
  715TIP3    H2 2152   0.931   2.955   1.264
  716TIP3   OH2 2153   0.301   3.130   1.390
  716TIP3    H1 2154   0.343   3.046   1.408
  716TIP3    H2 2155   0.253   3.117   1.308
  717TIP3   OH2 2156   0.340   2.881   1.063
  717TIP3    H1 2157   0.429   2.850   1.078
  717TIP3    H2 2158   0.303   2.820   0.999
  718TIP3   OH2 2159   0.961   3.160   1.523
  718TIP3    H1 2160   0.909   3.237   1.500
  718TIP3    H2 2161   0.922   3.129   1.604
  719TIP3   OH2 2162   6.102   2.770   1.747
  719TIP3    H1 2163   6.053   2.748   1.667
  719TIP3    H2 2164   6.055   2.845   1.783
  720TIP3   OH2 2165   6.297   3.676   1.645
  720TIP3    H1 2166   6.233   3.746   1.628
  720TIP3    H2 2167   6.331   3.653   1.559
  721TIP3   OH2 2168   0.398   3.936   1.180
  721TIP3    H1 2169   0.309   3.929   1.214
  721TIP3    H2 2170   0.402   4.024   1.142
  722TIP3   OH2 2171   0.676   2.853   1.521
  722TIP3    H1 2172   0.588   2.865   1.487
  722TIP3    H2 2173   0.734   2.872   1.447
  723TIP3   OH2 2174   0.622   3.806   1.445
  723TIP3    H1 2175   0.593   3.771   1.361
  723TIP3    H2 2176   0.611   3.901   1.438
  724TIP3   OH2 2177   0.205   3.304   0.891
  724TIP3    H1 2178   0.195   3.399   0.886
  724TIP3    H2 2179   0.296   3.288   0.865
  725TIP3   OH2 2180   0.467   3.398   1.656
  725TIP3    H1 2181   0.453   3.468   1.720
  725TIP3    H2 2182   0.384   3.389   1.610
  726TIP3   OH2 2183   6.296   3.309   1.504
  726TIP3    H1 2184   6.351   3.263   1.441
  726TIP3    H2 2185   6.209   3.313   1.463
  727TIP3   OH2 2186   0.146   3.950   1.282
  727TIP3    H1 2187   0.134   4.033   1.330
  727TIP3    H2 2188   0.133   3.882   1.349
  728TIP3   OH2 2189   0.844   4.206   1.568
  728TIP3    H1 2190   0.848   4.112   1.584
  728TIP3    H2 2191   0.764   4.235   1.612
  729TIP3   OH2 2192   6.455   4.008   1.690
  729TIP3    H1 2193   6.475   4.078   1.753
  729TIP3    H2 2194   6.361   4.017   1.675
  730TIP3   OH2 2195   0.728   3.340   1.831
  730TIP3    H1 2196   0.642   3.325   1.791
  730TIP3    H2 2197   0.763   3.253   1.847
  731TIP3   OH2 2198   0.274   2.699   1.846
  731TIP3    H1 2199   0.348   2.672   1.900
  731TIP3    H2 2200   0.197   2.678   1.899
  732TIP3   OH2 2201   0.507   3.142   1.768
  732TIP3    H1 2202   0.458   3.124   1.848
  732TIP3    H2 2203   0.462   3.216   1.728
  733TIP3   OH2 2204   6.193   3.074   1.658
  733TIP3    H1 2205   6.117   3.109   1.705
  733TIP3    H2 2206   6.180   3.102   1.567
  734TIP3   OH2 2207   0.244   3.305   1.976
  734TIP3    H1 2208   0.208   3.241   2.038
  734TIP3    H2 2209   0.335   3.317   2.005
  735TIP3   OH2 2210   0.198   3.107   1.136
  735TIP3    H1 2211   0.177   3.158   1.057
  735TIP3    H2 2212   0.241   3.029   1.102
  736TIP3   OH2 2213   0.219   3.326   1.556
  736TIP3    H1 2214   0.251   3.259   1.496
  736TIP3    H2 2215   0.181   3.277   1.629
  737TIP3   OH2 2216   0.392   2.877   1.460
  737TIP3    H1 2217   0.349   2.892   1.544
  737TIP3    H2 2218   0.340   2.807   1.419
  738TIP3   OH2 2219   0.589   4.533   1.657
  738TIP3    H1 2220   0.540   4.579   1.588
  738TIP3    H2 2221   0.647   4.600   1.694
  739TIP3   OH2 2222   6.465   3.147   1.344
  739TIP3    H1 2223   6.510   3.097   1.276
  739TIP3    H2 2224   6.454   3.085   1.416
  740TIP3   OH2 2225   6.453   3.022   1.599
  740TIP3    H1 2226   6.363   3.048   1.617
  740TIP3    H2 2227   6.506   3.084   1.649
  741TIP3   OH2 2228   0.095   3.761   1.722
  741TIP3    H1 2229   0.100   3.740   1.815
  741TIP3    H2 2230   0.035   3.836   1.717
  742TIP3   OH2 2231   0.064   3.503   1.969
  742TIP3    H1 2232   0.018   3.494   1.886
  742TIP3    H2 2233   0.128   3.432   1.969
  743TIP3   OH2 2234   0.230   4.003   1.588
  743TIP3    H1 2235   0.137   3.991   1.603
  743TIP3    H2 2236   0.263   4.041   1.670
  744TIP3   OH2 2237   0.627   3.020   0.537
  744TIP3    H1 2238   0.555   2.961   0.516
  744TIP3    H2 2239   0.601   3.104   0.500
  745TIP3   OH2 2240   0.866   3.895   1.585
  745TIP3    H1 2241   0.772   3.899   1.603
  745TIP3    H2 2242   0.872   3.861   1.496
  746TIP3   OH2 2243   0.323   3.516   1.249
  746TIP3    H1 2244   0.234   3.483   1.262
  746TIP3    H2 2245   0.370   3.443   1.209
  747TIP3   OH2 2246   0.134   3.708   1.452
  747TIP3    H1 2247   0.131   3.718   1.547
  747TIP3    H2 2248   0.213   3.657   1.436
  748TIP3   OH2 2249   0.381   4.224   1.493
  748TIP3    H1 2250   0.317   4.155   1.511
  748TIP3    H2 2251   0.331   4.306   1.500
  749TIP3   OH2 2252   0.299   2.937   1.714
  749TIP3    H1 2253   0.378   2.976   1.749
  749TIP3    H2 2254   0.285   2.858   1.766
  750TIP3   OH2 2255   0.134   3.162   1.756
  750TIP3    H1 2256   0.161   3.207   1.836
  750TIP3    H2 2257   0.187   3.082   1.755
  751TIP3   OH2 2258   0.758   3.056   1.704
  751TIP3    H1 2259   0.670   3.083   1.731
  751TIP3    H2 2260   0.744   2.979   1.650
  752TIP3   OH2 2261   0.436   3.274   1.151
  752TIP3    H1 2262   0.358   3.221   1.169
  752TIP3    H2 2263   0.502   3.240   1.211
  753TIP3   OH2 2264   0.431   4.208   1.139
  753TIP3    H1 2265   0.384   4.207   1.055
  753TIP3    H2 2266   0.519   4.237   1.116
  754TIP3   OH2 2267   0.304   4.114   1.820
  754TIP3    H1 2268   0.284   4.056   1.894
  754TIP3    H2 2269   0.354   4.186   1.859
  755TIP3   OH2 2270   6.505   3.763   2.036
  755TIP3    H1 2271   6.423   3.740   1.993
  755TIP3    H2 2272   6.558   3.683   2.032
  756TIP3   OH2 2273   0.405   3.767   1.638
  756TIP3    H1 2274   0.460   3.797   1.566
  756TIP3    H2 2275   0.330   3.827   1.637
  757TIP3   OH2 2276   6.192   3.177   1.923
  757TIP3    H1 2277   6.176   3.244   1.989
  757TIP3    H2 2278   6.222   3.225   1.846
  758TIP3   OH2 2279   0.297   3.677   2.042
  758TIP3    H1 2280   0.342   3.632   1.970
  758TIP3    H2 2281   0.293   3.613   2.112
  759TIP3   OH2 2282   6.410   3.031   2.000
  759TIP3    H1 2283   6.411   2.959   1.937
  759TIP3    H2 2284   6.339   3.088   1.970
  760TIP3   OH2 2285   6.374   2.841   1.792
  760TIP3    H1 2286   6.420   2.893   1.726
  760TIP3    H2 2287   6.284   2.835   1.760
  761TIP3   OH2 2288   6.467   3.447   1.720
  761TIP3    H1 2289   6.499   3.398   1.644
  761TIP3    H2 2290   6.413   3.517   1.682
  762TIP3   OH2 2291   0.505   3.330   2.076
  762TIP3    H1 2292   0.543   3.244   2.092
  762TIP3    H2 2293   0.579   3.383   2.046
  763TIP3   OH2 2294   0.492   3.611   1.840
  763TIP3    H1 2295   0.449   3.672   1.780
  763TIP3    H2 2296   0.585   3.618   1.819
  764TIP3   OH2 2297   6.212   3.142   2.207
  764TIP3    H1 2298   6.197   3.049   2.187
  764TIP3    H2 2299   6.288   3.165   2.155
  765TIP3   OH2 2300   6.506   2.636   1.918
  765TIP3    H1 2301   6.466   2.707   1.868
  765TIP3    H2 2302   6.499   2.559   1.860
  766TIP3   OH2 2303   0.144   3.100   2.124
  766TIP3    H1 2304   0.125   3.094   2.218
  766TIP3    H2 2305   0.062   3.077   2.081
  767TIP3   OH2 2306   0.382   3.047   1.989
  767TIP3    H1 2307   0.304   3.053   2.044
  767TIP3    H2 2308   0.453   3.026   2.050
  768TIP3   OH2 2309   0.615   3.023   2.142
  768TIP3    H1 2310   0.627   2.929   2.148
  768TIP3    H2 2311   0.608   3.053   2.233
  769TIP3   OH2 2312   0.094   2.618   2.174
  769TIP3    H1 2313   0.160   2.548   2.171
  769TIP3    H2 2314   0.059   2.621   2.085
  770TIP3   OH2 2315   0.171   2.828   2.331
  770TIP3    H1 2316   0.147   2.756   2.273
  770TIP3    H2 2317   0.099   2.891   2.322
  771TIP3   OH2 2318   0.679   4.294   1.059
  771TIP3    H1 2319   0.705   4.333   1.143
  771TIP3    H2 2320   0.735   4.336   0.994
  772TIP3   OH2 2321   0.697   4.319   1.342
  772TIP3    H1 2322   0.642   4.240   1.338
  772TIP3    H2 2323   0.761   4.300   1.411
  773TIP3   OH2 2324   0.732   4.004   1.892
  773TIP3    H1 2325   0.659   4.011   1.954
  773TIP3    H2 2326   0.776   4.089   1.897
  774TIP3   OH2 2327   0.599   3.523   0.495
  774TIP3    H1 2328   0.661   3.591   0.469
  774TIP3    H2 2329   0.616   3.510   0.588
  775TIP3   OH2 2330   0.655   3.417   0.744
  775TIP3    H1 2331   0.585   3.369   0.787
  775TIP3    H2 2332   0.716   3.439   0.814
  776TIP3   OH2 2333   0.720   3.808   1.158
  776TIP3    H1 2334   0.676   3.748   1.097
  776TIP3    H2 2335   0.727   3.891   1.110
  777TIP3   OH2 2336   0.565   4.064   1.371
  777TIP3    H1 2337   0.501   4.121   1.415
  777TIP3    H2 2338   0.518   4.028   1.296
  778TIP3   OH2 2339   0.554   3.264   0.433
  778TIP3    H1 2340   0.459   3.263   0.419
  778TIP3    H2 2341   0.573   3.355   0.459
  779TIP3   OH2 2342   0.479   3.252   0.876
  779TIP3    H1 2343   0.504   3.161   0.861
  779TIP3    H2 2344   0.473   3.260   0.972
  780TIP3   OH2 2345   0.905   3.497   1.688
  780TIP3    H1 2346   0.849   3.442   1.743
  780TIP3    H2 2347   0.994   3.474   1.715
  781TIP3   OH2 2348   0.572   2.998   0.811
  781TIP3    H1 2349   0.649   2.965   0.857
  781TIP3    H2 2350   0.596   2.996   0.718
  782TIP3   OH2 2351   0.655   3.174   1.296
  782TIP3    H1 2352   0.732   3.202   1.245
  782TIP3    H2 2353   0.659   3.079   1.295
  783TIP3   OH2 2354   0.685   3.385   1.478
  783TIP3    H1 2355   0.609   3.377   1.537
  783TIP3    H2 2356   0.673   3.314   1.414
  784TIP3   OH2 2357   1.155   2.890   2.023
  784TIP3    H1 2358   1.221   2.828   1.991
  784TIP3    H2 2359   1.130   2.941   1.946
  785TIP3   OH2 2360   1.020   3.017   1.819
  785TIP3    H1 2361   0.937   3.049   1.856
  785TIP3    H2 2362   0.995   2.938   1.770
  786TIP3   OH2 2363   0.173   4.394   1.586
  786TIP3    H1 2364   0.174   4.353   1.672
  786TIP3    H2 2365   0.128   4.478   1.599
  787TIP3   OH2 2366   0.926   2.751   1.730
  787TIP3    H1 2367   0.838   2.727   1.700
  787TIP3    H2 2368   0.976   2.670   1.725
  788TIP3   OH2 2369   0.092   4.239   1.368
  788TIP3    H1 2370  -0.003   4.248   1.377
  788TIP3    H2 2371   0.128   4.297   1.436
  789TIP3   OH2 2372   0.343   4.443   1.272
  789TIP3    H1 2373   0.250   4.466   1.269
  789TIP3    H2 2374   0.345   4.349   1.257
  790TIP3   OH2 2375   6.109   0.319   5.004
  790TIP3    H1 2376   6.032   0.365   5.039
  790TIP3    H2 2377   6.104   0.232   5.042
  791TIP3   OH2 2378   6.075   2.664   2.352
  791TIP3    H1 2379   6.052   2.638   2.263
  791TIP3    H2 2380   6.167   2.690   2.347
  792TIP3   OH2 2381   6.348   2.636   2.293
  792TIP3    H1 2382   6.436   2.636   2.258
  792TIP3    H2 2383   6.357   2.601   2.382
  793TIP3   OH2 2384   0.672   2.751   2.155
  793TIP3    H1 2385   0.687   2.721   2.245
  793TIP3    H2 2386   0.758   2.745   2.113
  794TIP3   OH2 2387   0.597   4.266   1.663
  794TIP3    H1 2388   0.519   4.243   1.612
  794TIP3    H2 2389   0.594   4.362   1.667
  795TIP3   OH2 2390   1.866   3.675   0.405
  795TIP3    H1 2391   1.833   3.761   0.380
  795TIP3    H2 2392   1.795   3.615   0.383
  796TIP3   OH2 2393   1.860   3.662   0.818
  796TIP3    H1 2394   1.911   3.645   0.897
  796TIP3    H2 2395   1.822   3.576   0.796
  797TIP3   OH2 2396   2.127   3.975   0.491
  797TIP3    H1 2397   2.115   3.909   0.560
  797TIP3    H2 2398   2.151   4.055   0.538
  798TIP3   OH2 2399   1.184   3.955   0.899
  798TIP3    H1 2400   1.131   3.904   0.837
  798TIP3    H2 2401   1.265   3.973   0.853
  799TIP3   OH2 2402   0.852   3.239   0.677
  799TIP3    H1 2403   0.773   3.292   0.683
  799TIP3    H2 2404   0.820   3.149   0.669
  800TIP3   OH2 2405   0.909   3.457   0.867
  800TIP3    H1 2406   0.955   3.381   0.903
  800TIP3    H2 2407   0.919   3.448   0.772
  801TIP3   OH2 2408   1.772   4.412   0.498
  801TIP3    H1 2409   1.809   4.340   0.446
  801TIP3    H2 2410   1.768   4.378   0.587
  802TIP3   OH2 2411   1.665   3.872   0.831
  802TIP3    H1 2412   1.713   3.794   0.805
  802TIP3    H2 2413   1.733   3.932   0.864
  803TIP3   OH2 2414   2.690   3.211   0.841
  803TIP3    H1 2415   2.715   3.292   0.884
  803TIP3    H2 2416   2.715   3.223   0.750
  804TIP3   OH2 2417   2.080   3.381   0.869
  804TIP3    H1 2418   2.124   3.299   0.894
  804TIP3    H2 2419   2.042   3.363   0.783
  805TIP3   OH2 2420   1.454   3.058   0.841
  805TIP3    H1 2421   1.430   3.131   0.784
  805TIP3    H2 2422   1.399   2.985   0.811
  806TIP3   OH2 2423   2.123   3.137   0.460
  806TIP3    H1 2424   2.188   3.129   0.530
  806TIP3    H2 2425   2.171   3.172   0.385
  807TIP3   OH2 2426   1.063   3.246   0.956
  807TIP3    H1 2427   1.146   3.220   0.996
  807TIP3    H2 2428   1.063   3.203   0.871
  808TIP3   OH2 2429   1.486   3.458   0.783
  808TIP3    H1 2430   1.579   3.436   0.781
  808TIP3    H2 2431   1.442   3.380   0.748
  809TIP3   OH2 2432   2.761   3.426   1.009
  809TIP3    H1 2433   2.672   3.461   1.002
  809TIP3    H2 2434   2.791   3.456   1.095
  810TIP3   OH2 2435   1.415   3.035   1.282
  810TIP3    H1 2436   1.361   3.062   1.207
  810TIP3    H2 2437   1.358   3.045   1.358
  811TIP3   OH2 2438   1.749   3.886   0.270
  811TIP3    H1 2439   1.718   3.872   0.180
  811TIP3    H2 2440   1.699   3.962   0.300
  812TIP3   OH2 2441   2.296   3.160   0.665
  812TIP3    H1 2442   2.275   3.123   0.751
  812TIP3    H2 2443   2.354   3.234   0.685
  813TIP3   OH2 2444   1.299   3.142   1.054
  813TIP3    H1 2445   1.353   3.217   1.080
  813TIP3    H2 2446   1.349   3.100   0.984
  814TIP3   OH2 2447   0.774   3.716   0.388
  814TIP3    H1 2448   0.782   3.773   0.311
  814TIP3    H2 2449   0.771   3.777   0.462
  815TIP3   OH2 2450   2.171   4.216   0.638
  815TIP3    H1 2451   2.084   4.207   0.678
  815TIP3    H2 2452   2.168   4.301   0.593
  816TIP3   OH2 2453   2.488   3.109   1.013
  816TIP3    H1 2454   2.401   3.128   0.978
  816TIP3    H2 2455   2.549   3.133   0.944
  817TIP3   OH2 2456   1.762   2.737   1.002
  817TIP3    H1 2457   1.758   2.646   1.031
  817TIP3    H2 2458   1.685   2.778   1.042
  818TIP3   OH2 2459   1.875   4.240   0.303
  818TIP3    H1 2460   1.925   4.159   0.290
  818TIP3    H2 2461   1.936   4.309   0.280
  819TIP3   OH2 2462   2.023   4.022   0.240
  819TIP3    H1 2463   1.973   3.943   0.221
  819TIP3    H2 2464   2.070   4.002   0.320
  820TIP3   OH2 2465   2.400   4.114   0.983
  820TIP3    H1 2466   2.387   4.039   0.925
  820TIP3    H2 2467   2.385   4.190   0.927
  821TIP3   OH2 2468   1.697   3.504   0.243
  821TIP3    H1 2469   1.622   3.562   0.236
  821TIP3    H2 2470   1.745   3.516   0.161
  822TIP3   OH2 2471   6.035   0.220   5.257
  822TIP3    H1 2472   6.105   0.277   5.287
  822TIP3    H2 2473   6.076   0.134   5.246
  823TIP3   OH2 2474   2.595   3.772   0.844
  823TIP3    H1 2475   2.511   3.817   0.846
  823TIP3    H2 2476   2.628   3.784   0.755
  824TIP3   OH2 2477   2.049   3.596   0.221
  824TIP3    H1 2478   1.996   3.627   0.295
  824TIP3    H2 2479   2.132   3.570   0.260
  825TIP3   OH2 2480   2.280   3.633   1.153
  825TIP3    H1 2481   2.282   3.714   1.203
  825TIP3    H2 2482   2.199   3.636   1.103
  826TIP3   OH2 2483   1.276   3.603   0.664
  826TIP3    H1 2484   1.239   3.547   0.595
  826TIP3    H2 2485   1.354   3.556   0.693
  827TIP3   OH2 2486   1.417   3.983   0.771
  827TIP3    H1 2487   1.399   3.970   0.678
  827TIP3    H2 2488   1.504   3.945   0.784
  828TIP3   OH2 2489   1.452   3.607   1.011
  828TIP3    H1 2490   1.471   3.561   0.929
  828TIP3    H2 2491   1.536   3.640   1.040
  829TIP3   OH2 2492   1.934   4.206   0.770
  829TIP3    H1 2493   1.920   4.288   0.819
  829TIP3    H2 2494   1.916   4.137   0.834
  830TIP3   OH2 2495   1.543   4.124   1.311
  830TIP3    H1 2496   1.499   4.180   1.375
  830TIP3    H2 2497   1.478   4.112   1.242
  831TIP3   OH2 2498   1.896   3.464   0.040
  831TIP3    H1 2499   1.947   3.516   0.102
  831TIP3    H2 2500   1.927   3.491  -0.046
  832TIP3   OH2 2501   1.622   4.133   0.319
  832TIP3    H1 2502   1.709   4.171   0.327
  832TIP3    H2 2503   1.565   4.207   0.299
  833TIP3   OH2 2504   1.342   4.286   1.406
  833TIP3    H1 2505   1.316   4.298   1.314
  833TIP3    H2 2506   1.261   4.266   1.452
  834TIP3   OH2 2507   2.426   2.727   0.114
  834TIP3    H1 2508   2.338   2.732   0.152
  834TIP3    H2 2509   2.421   2.781   0.035
  835TIP3   OH2 2510   1.174   3.452   0.459
  835TIP3    H1 2511   1.098   3.488   0.414
  835TIP3    H2 2512   1.155   3.359   0.468
  836TIP3   OH2 2513   0.896   3.721   1.343
  836TIP3    H1 2514   0.830   3.767   1.292
  836TIP3    H2 2515   0.950   3.675   1.278
  837TIP3   OH2 2516   0.781   4.041   1.013
  837TIP3    H1 2517   0.867   4.074   1.041
  837TIP3    H2 2518   0.721   4.114   1.029
  838TIP3   OH2 2519   2.635   4.470   1.048
  838TIP3    H1 2520   2.641   4.375   1.062
  838TIP3    H2 2521   2.555   4.496   1.094
  839TIP3   OH2 2522   1.740   4.252   1.170
  839TIP3    H1 2523   1.740   4.344   1.197
  839TIP3    H2 2524   1.676   4.211   1.227
  840TIP3   OH2 2525   1.498   4.342   0.166
  840TIP3    H1 2526   1.421   4.336   0.109
  840TIP3    H2 2527   1.506   4.435   0.187
  841TIP3   OH2 2528   0.956   4.223   0.538
  841TIP3    H1 2529   1.009   4.223   0.619
  841TIP3    H2 2530   0.870   4.191   0.566
  842TIP3   OH2 2531   6.125   1.210   5.080
  842TIP3    H1 2532   6.169   1.124   5.079
  842TIP3    H2 2533   6.113   1.229   5.173
  843TIP3   OH2 2534   1.751   4.297   0.053
  843TIP3    H1 2535   1.661   4.304   0.084
  843TIP3    H2 2536   1.799   4.259   0.127
  844TIP3   OH2 2537   2.528   3.589   1.318
  844TIP3    H1 2538   2.445   3.596   1.270
  844TIP3    H2 2539   2.548   3.495   1.317
  845TIP3   OH2 2540   1.196   3.893   1.296
  845TIP3    H1 2541   1.248   3.908   1.375
  845TIP3    H2 2542   1.106   3.912   1.324
  846TIP3   OH2 2543   1.527   2.828   1.128
  846TIP3    H1 2544   1.441   2.793   1.104
  846TIP3    H2 2545   1.507   2.906   1.181
  847TIP3   OH2 2546   2.063   2.944   1.325
  847TIP3    H1 2547   2.136   2.918   1.381
  847TIP3    H2 2548   1.985   2.921   1.374
  848TIP3   OH2 2549   2.281   3.368   1.236
  848TIP3    H1 2550   2.243   3.365   1.324
  848TIP3    H2 2551   2.270   3.458   1.208
  849TIP3   OH2 2552   6.322   0.485   5.107
  849TIP3    H1 2553   6.252   0.461   5.046
  849TIP3    H2 2554   6.334   0.579   5.093
  850TIP3   OH2 2555   1.721   2.979   0.138
  850TIP3    H1 2556   1.682   2.977   0.225
  850TIP3    H2 2557   1.682   2.904   0.093
  851TIP3   OH2 2558   1.452   3.356   1.141
  851TIP3    H1 2559   1.404   3.360   1.224
  851TIP3    H2 2560   1.440   3.443   1.103
  852TIP3   OH2 2561   1.349   3.249   0.679
  852TIP3    H1 2562   1.260   3.218   0.694
  852TIP3    H2 2563   1.362   3.237   0.584
  853TIP3   OH2 2564   1.835   3.318   0.387
  853TIP3    H1 2565   1.786   3.387   0.343
  853TIP3    H2 2566   1.894   3.284   0.319
  854TIP3   OH2 2567   2.013   3.579   1.461
  854TIP3    H1 2568   1.986   3.510   1.521
  854TIP3    H2 2569   2.105   3.594   1.482
  855TIP3   OH2 2570   1.987   3.326   0.618
  855TIP3    H1 2571   1.924   3.350   0.550
  855TIP3    H2 2572   2.034   3.251   0.581
  856TIP3   OH2 2573   1.307   3.354   1.373
  856TIP3    H1 2574   1.349   3.392   1.449
  856TIP3    H2 2575   1.275   3.269   1.403
  857TIP3   OH2 2576   1.270   2.871   0.059
  857TIP3    H1 2577   1.323   2.821   0.121
  857TIP3    H2 2578   1.181   2.840   0.074
  858TIP3   OH2 2579   0.849   2.974   0.913
  858TIP3    H1 2580   0.908   2.964   0.987
  858TIP3    H2 2581   0.884   2.916   0.845
  859TIP3   OH2 2582   0.709   2.831   0.325
  859TIP3    H1 2583   0.803   2.815   0.317
  859TIP3    H2 2584   0.697   2.861   0.415
  860TIP3   OH2 2585   2.008   3.577   1.040
  860TIP3    H1 2586   2.040   3.513   0.977
  860TIP3    H2 2587   1.977   3.524   1.114
  861TIP3   OH2 2588   1.707   3.048   0.717
  861TIP3    H1 2589   1.627   3.043   0.770
  861TIP3    H2 2590   1.777   3.022   0.777
  862TIP3   OH2 2591   1.111   3.128   0.714
  862TIP3    H1 2592   1.023   3.133   0.676
  862TIP3    H2 2593   1.141   3.040   0.692
  863TIP3   OH2 2594   1.381   3.203   0.415
  863TIP3    H1 2595   1.473   3.179   0.423
  863TIP3    H2 2596   1.363   3.200   0.321
  864TIP3   OH2 2597   2.165   3.121   0.927
  864TIP3    H1 2598   2.136   3.138   1.017
  864TIP3    H2 2599   2.103   3.057   0.894
  865TIP3   OH2 2600   1.209   3.190   0.171
  865TIP3    H1 2601   1.132   3.147   0.134
  865TIP3    H2 2602   1.266   3.207   0.095
  866TIP3   OH2 2603   2.346   4.816   1.144
  866TIP3    H1 2604   2.341   4.837   1.050
  866TIP3    H2 2605   2.424   4.862   1.175
  867TIP3   OH2 2606   1.304   3.937   1.548
  867TIP3    H1 2607   1.384   3.954   1.598
  867TIP3    H2 2608   1.233   3.945   1.612
  868TIP3   OH2 2609   1.754   3.392   0.817
  868TIP3    H1 2610   1.815   3.339   0.765
  868TIP3    H2 2611   1.750   3.347   0.902
  869TIP3   OH2 2612   1.263   2.887   0.748
  869TIP3    H1 2613   1.253   2.810   0.805
  869TIP3    H2 2614   1.313   2.855   0.674
  870TIP3   OH2 2615   1.719   3.296   1.081
  870TIP3    H1 2616   1.631   3.318   1.110
  870TIP3    H2 2617   1.777   3.341   1.144
  871TIP3   OH2 2618   1.474   3.662   0.206
  871TIP3    H1 2619   1.407   3.594   0.199
  871TIP3    H2 2620   1.453   3.707   0.288
  872TIP3   OH2 2621   2.351   3.903   0.810
  872TIP3    H1 2622   2.388   3.950   0.735
  872TIP3    H2 2623   2.271   3.863   0.777
  873TIP3   OH2 2624   1.988   2.991   0.077
  873TIP3    H1 2625   1.894   2.978   0.078
  873TIP3    H2 2626   2.001   3.083   0.100
  874TIP3   OH2 2627   1.840   3.962   1.210
  874TIP3    H1 2628   1.909   3.959   1.276
  874TIP3    H2 2629   1.815   4.055   1.206
  875TIP3   OH2 2630   2.002   3.244   0.173
  875TIP3    H1 2631   2.096   3.252   0.189
  875TIP3    H2 2632   1.981   3.320   0.119
  876TIP3   OH2 2633   1.195   3.658   0.930
  876TIP3    H1 2634   1.183   3.646   0.836
  876TIP3    H2 2635   1.278   3.614   0.949
  877TIP3   OH2 2636   1.621   3.783   0.013
  877TIP3    H1 2637   1.594   3.875   0.011
  877TIP3    H2 2638   1.568   3.743   0.081
  878TIP3   OH2 2639   1.783   3.730   1.497
  878TIP3    H1 2640   1.728   3.656   1.472
  878TIP3    H2 2641   1.872   3.703   1.477
  879TIP3   OH2 2642   2.010   4.253   1.101
  879TIP3    H1 2643   1.915   4.251   1.108
  879TIP3    H2 2644   2.039   4.303   1.177
  880TIP3   OH2 2645   0.254   0.257   5.331
  880TIP3    H1 2646   0.187   0.213   5.279
  880TIP3    H2 2647   0.261   0.344   5.293
  881TIP3   OH2 2648   2.649   4.182   1.076
  881TIP3    H1 2649   2.554   4.175   1.070
  881TIP3    H2 2650   2.681   4.152   0.991
  882TIP3   OH2 2651   6.485   1.047   5.210
  882TIP3    H1 2652   6.420   0.989   5.248
  882TIP3    H2 2653   6.564   0.994   5.202
  883TIP3   OH2 2654   2.119   3.772   0.709
  883TIP3    H1 2655   2.028   3.749   0.729
  883TIP3    H2 2656   2.157   3.691   0.673
  884TIP3   OH2 2657   1.270   3.990   0.529
  884TIP3    H1 2658   1.276   4.076   0.488
  884TIP3    H2 2659   1.184   3.957   0.502
  885TIP3   OH2 2660   0.790   3.306   0.263
  885TIP3    H1 2661   0.861   3.365   0.291
  885TIP3    H2 2662   0.731   3.303   0.338
  886TIP3   OH2 2663   1.379   3.750   0.442
  886TIP3    H1 2664   1.358   3.842   0.459
  886TIP3    H2 2665   1.346   3.703   0.519
  887TIP3   OH2 2666   1.546   4.328   0.971
  887TIP3    H1 2667   1.577   4.403   0.921
  887TIP3    H2 2668   1.623   4.297   1.019
  888TIP3   OH2 2669   1.206   4.234   0.420
  888TIP3    H1 2670   1.116   4.242   0.452
  888TIP3    H2 2671   1.239   4.324   0.419
  889TIP3   OH2 2672   1.901   3.981   0.937
  889TIP3    H1 2673   1.890   3.969   1.032
  889TIP3    H2 2674   1.984   3.937   0.917
  890TIP3   OH2 2675   6.231   0.831   5.142
  890TIP3    H1 2676   6.284   0.792   5.211
  890TIP3    H2 2677   6.144   0.793   5.153
  891TIP3   OH2 2678   2.159   4.497   0.975
  891TIP3    H1 2679   2.081   4.442   0.976
  891TIP3    H2 2680   2.144   4.560   0.905
  892TIP3   OH2 2681   1.239   3.109   1.489
  892TIP3    H1 2682   1.144   3.120   1.500
  892TIP3    H2 2683   1.265   3.052   1.562
  893TIP3   OH2 2684   2.064   3.783   0.019
  893TIP3    H1 2685   2.051   3.721   0.091
  893TIP3    H2 2686   2.159   3.789   0.010
  894TIP3   OH2 2687   1.009   4.217   1.129
  894TIP3    H1 2688   1.104   4.205   1.133
  894TIP3    H2 2689   0.993   4.299   1.177
  895TIP3   OH2 2690   1.279   3.912   0.153
  895TIP3    H1 2691   1.305   3.822   0.132
  895TIP3    H2 2692   1.187   3.916   0.129
  896TIP3   OH2 2693   0.962   3.529   0.311
  896TIP3    H1 2694   0.895   3.592   0.338
  896TIP3    H2 2695   0.968   3.540   0.216
  897TIP3   OH2 2696   2.078   3.183   1.185
  897TIP3    H1 2697   2.159   3.226   1.214
  897TIP3    H2 2698   2.073   3.103   1.238
  898TIP3   OH2 2699   1.986   2.926   0.352
  898TIP3    H1 2700   1.972   2.953   0.261
  898TIP3    H2 2701   2.028   3.002   0.393
  899TIP3   OH2 2702   1.549   4.039   0.027
  899TIP3    H1 2703   1.520   4.087   0.105
  899TIP3    H2 2704   1.534   4.099  -0.046
  900TIP3   OH2 2705   1.645   3.139   0.466
  900TIP3    H1 2706   1.713   3.200   0.440
  900TIP3    H2 2707   1.667   3.114   0.556
  901TIP3   OH2 2708   1.917   3.415   1.244
  901TIP3    H1 2709   1.952   3.459   1.322
  901TIP3    H2 2710   1.968   3.334   1.237
  902TIP3   OH2 2711   1.841   2.826   0.558
  902TIP3    H1 2712   1.837   2.901   0.618
  902TIP3    H2 2713   1.897   2.855   0.487
  903TIP3   OH2 2714   1.379   2.749   0.320
  903TIP3    H1 2715   1.335   2.820   0.367
  903TIP3    H2 2716   1.471   2.776   0.317
  904TIP3   OH2 2717   2.547   3.315   1.225
  904TIP3    H1 2718   2.452   3.323   1.235
  904TIP3    H2 2719   2.558   3.251   1.155
  905TIP3   OH2 2720   2.210   3.516   0.619
  905TIP3    H1 2721   2.135   3.458   0.632
  905TIP3    H2 2722   2.281   3.475   0.669
  906TIP3   OH2 2723   2.186   4.483   0.559
  906TIP3    H1 2724   2.144   4.532   0.488
  906TIP3    H2 2725   2.280   4.497   0.547
  907TIP3   OH2 2726   1.258   2.759   1.132
  907TIP3    H1 2727   1.227   2.725   1.048
  907TIP3    H2 2728   1.254   2.684   1.191
  908TIP3   OH2 2729   0.767   3.937   0.545
  908TIP3    H1 2730   0.765   3.968   0.636
  908TIP3    H2 2731   0.724   4.006   0.495
  909TIP3   OH2 2732   0.975   4.529   1.541
  909TIP3    H1 2733   1.056   4.534   1.593
  909TIP3    H2 2734   0.953   4.436   1.540
  910TIP3   OH2 2735   1.438   4.456   1.602
  910TIP3    H1 2736   1.533   4.447   1.610
  910TIP3    H2 2737   1.414   4.397   1.530
  911TIP3   OH2 2738   2.069   4.382   1.335
  911TIP3    H1 2739   2.072   4.311   1.400
  911TIP3    H2 2740   2.146   4.436   1.355
  912TIP3   OH2 2741   1.094   3.915   1.739
  912TIP3    H1 2742   1.126   3.824   1.741
  912TIP3    H2 2743   1.012   3.911   1.690
  913TIP3   OH2 2744   5.587   0.588   5.268
  913TIP3    H1 2745   5.608   0.528   5.339
  913TIP3    H2 2746   5.579   0.533   5.191
  914TIP3   OH2 2747   1.699   4.005   1.514
  914TIP3    H1 2748   1.658   4.026   1.430
  914TIP3    H2 2749   1.741   3.921   1.500
  915TIP3   OH2 2750   5.978   0.626   5.066
  915TIP3    H1 2751   5.970   0.656   5.157
  915TIP3    H2 2752   5.908   0.561   5.057
  916TIP3   OH2 2753   2.178   4.034   1.128
  916TIP3    H1 2754   2.257   4.064   1.084
  916TIP3    H2 2755   2.115   4.106   1.116
  917TIP3   OH2 2756   1.203   3.659   1.751
  917TIP3    H1 2757   1.274   3.606   1.716
  917TIP3    H2 2758   1.233   3.686   1.838
  918TIP3   OH2 2759   1.278   3.480   0.172
  918TIP3    H1 2760   1.245   3.460   0.259
  918TIP3    H2 2761   1.283   3.395   0.128
  919TIP3   OH2 2762   1.583   3.558   1.383
  919TIP3    H1 2763   1.522   3.624   1.416
  919TIP3    H2 2764   1.613   3.593   1.299
  920TIP3   OH2 2765   5.683   0.248   5.259
  920TIP3    H1 2766   5.688   0.166   5.210
  920TIP3    H2 2767   5.770   0.259   5.297
  921TIP3   OH2 2768   2.059   3.925   1.505
  921TIP3    H1 2769   2.140   3.899   1.462
  921TIP3    H2 2770   2.057   3.874   1.586
  922TIP3   OH2 2771   1.662   3.323   1.511
  922TIP3    H1 2772   1.670   3.247   1.454
  922TIP3    H2 2773   1.638   3.395   1.452
  923TIP3   OH2 2774   1.674   3.118   1.318
  923TIP3    H1 2775   1.703   3.142   1.230
  923TIP3    H2 2776   1.583   3.090   1.306
  924TIP3   OH2 2777   1.692   3.683   1.158
  924TIP3    H1 2778   1.770   3.631   1.136
  924TIP3    H2 2779   1.725   3.772   1.168
  925TIP3   OH2 2780   2.274   3.607   1.571
  925TIP3    H1 2781   2.312   3.522   1.595
  925TIP3    H2 2782   2.349   3.661   1.546
  926TIP3   OH2 2783   2.312   3.871   1.300
  926TIP3    H1 2784   2.256   3.929   1.248
  926TIP3    H2 2785   2.401   3.889   1.268
  927TIP3   OH2 2786   1.537   3.418   1.743
  927TIP3    H1 2787   1.475   3.351   1.770
  927TIP3    H2 2788   1.576   3.384   1.662
  928TIP3   OH2 2789   1.799   2.881   1.407
  928TIP3    H1 2790   1.755   2.960   1.378
  928TIP3    H2 2791   1.734   2.811   1.396
  929TIP3   OH2 2792   1.923   3.369   1.611
  929TIP3    H1 2793   1.921   3.356   1.706
  929TIP3    H2 2794   1.836   3.342   1.582
  930TIP3   OH2 2795   2.167   3.321   1.475
  930TIP3    H1 2796   2.091   3.318   1.534
  930TIP3    H2 2797   2.240   3.293   1.530
  931TIP3   OH2 2798   2.401   3.275   1.621
  931TIP3    H1 2799   2.416   3.181   1.631
  931TIP3    H2 2800   2.395   3.308   1.711
  932TIP3   OH2 2801   1.379   3.198   1.818
  932TIP3    H1 2802   1.378   3.110   1.782
  932TIP3    H2 2803   1.421   3.189   1.904
  933TIP3   OH2 2804   1.875   2.875   1.671
  933TIP3    H1 2805   1.945   2.809   1.668
  933TIP3    H2 2806   1.842   2.879   1.581
  934TIP3   OH2 2807   1.955   3.093   1.817
  934TIP3    H1 2808   1.932   3.019   1.760
  934TIP3    H2 2809   1.879   3.151   1.813
  935TIP3   OH2 2810   0.757   4.127   0.743
  935TIP3    H1 2811   0.750   4.077   0.824
  935TIP3    H2 2812   0.756   4.218   0.771
  936TIP3   OH2 2813   2.452   4.542   0.548
  936TIP3    H1 2814   2.474   4.585   0.631
  936TIP3    H2 2815   2.517   4.576   0.486
  937TIP3   OH2 2816   2.478   4.577   0.829
  937TIP3    H1 2817   2.431   4.495   0.818
  937TIP3    H2 2818   2.546   4.558   0.894
  938TIP3   OH2 2819   2.519   4.271   1.394
  938TIP3    H1 2820   2.451   4.279   1.460
  938TIP3    H2 2821   2.566   4.354   1.397
  939TIP3   OH2 2822   2.339   3.775   0.009
  939TIP3    H1 2823   2.394   3.848  -0.018
  939TIP3    H2 2824   2.382   3.740   0.087
  940TIP3   OH2 2825   2.467   3.642   0.213
  940TIP3    H1 2826   2.401   3.600   0.268
  940TIP3    H2 2827   2.532   3.675   0.274
  941TIP3   OH2 2828   2.525   4.031   0.642
  941TIP3    H1 2829   2.579   3.965   0.599
  941TIP3    H2 2830   2.526   4.106   0.582
  942TIP3   OH2 2831   2.337   4.335   0.830
  942TIP3    H1 2832   2.269   4.379   0.881
  942TIP3    H2 2833   2.290   4.293   0.758
  943TIP3   OH2 2834   0.248   0.483   5.181
  943TIP3    H1 2835   0.207   0.494   5.096
  943TIP3    H2 2836   0.222   0.560   5.231
  944TIP3   OH2 2837   0.072   0.169   5.155
  944TIP3    H1 2838   0.057   0.212   5.071
  944TIP3    H2 2839   0.044   0.079   5.141
  945TIP3   OH2 2840   2.273   3.499   0.351
  945TIP3    H1 2841   2.282   3.404   0.342
  945TIP3    H2 2842   2.256   3.513   0.444
  946TIP3   OH2 2843   0.979   3.593   1.103
  946TIP3    H1 2844   0.910   3.555   1.050
  946TIP3    H2 2845   1.053   3.604   1.043
  947TIP3   OH2 2846   2.568   3.927   1.208
  947TIP3    H1 2847   2.633   3.858   1.192
  947TIP3    H2 2848   2.592   3.998   1.148
  948TIP3   OH2 2849   2.741   3.714   1.200
  948TIP3    H1 2850   2.667   3.671   1.242
  948TIP3    H2 2851   2.816   3.658   1.219
  949TIP3   OH2 2852   4.349   6.032   5.154
  949TIP3    H1 2853   4.439   6.000   5.164
  949TIP3    H2 2854   4.314   6.032   5.243
  950TIP3   OH2 2855   2.275   3.225   0.242
  950TIP3    H1 2856   2.315   3.140   0.257
  950TIP3    H2 2857   2.329   3.266   0.174
  951TIP3   OH2 2858   2.428   3.392   0.745
  951TIP3    H1 2859   2.510   3.409   0.697
  951TIP3    H2 2860   2.444   3.428   0.832
  952TIP3   OH2 2861   2.504   3.542   0.972
  952TIP3    H1 2862   2.433   3.571   1.028
  952TIP3    H2 2863   2.537   3.622   0.931
  953TIP3   OH2 2864   1.120   3.296   1.799
  953TIP3    H1 2865   1.214   3.277   1.800
  953TIP3    H2 2866   1.078   3.211   1.810
  954TIP3   OH2 2867   2.955   3.144   1.517
  954TIP3    H1 2868   3.018   3.082   1.481
  954TIP3    H2 2869   2.922   3.191   1.441
  955TIP3   OH2 2870   2.383   2.978   0.287
  955TIP3    H1 2871   2.428   2.959   0.370
  955TIP3    H2 2872   2.327   2.901   0.273
  956TIP3   OH2 2873   1.069   2.963   1.129
  956TIP3    H1 2874   1.124   2.886   1.140
  956TIP3    H2 2875   1.130   3.033   1.104
  957TIP3   OH2 2876   0.882   3.255   1.172
  957TIP3    H1 2877   0.911   3.205   1.096
  957TIP3    H2 2878   0.935   3.335   1.169
  958TIP3   OH2 2879   2.813   3.262   1.316
  958TIP3    H1 2880   2.730   3.300   1.346
  958TIP3    H2 2881   2.786   3.185   1.265
  959TIP3   OH2 2882   4.612   5.956   5.195
  959TIP3    H1 2883   4.668   5.903   5.138
  959TIP3    H2 2884   4.666   6.033   5.216
  960TIP3   OH2 2885   0.738   2.743   0.691
  960TIP3    H1 2886   0.735   2.677   0.761
  960TIP3    H2 2887   0.828   2.741   0.660
  961TIP3   OH2 2888   2.045   4.424   0.211
  961TIP3    H1 2889   2.077   4.423   0.121
  961TIP3    H2 2890   2.079   4.506   0.248
  962TIP3   OH2 2891   1.079   2.812   1.497
  962TIP3    H1 2892   1.027   2.795   1.576
  962TIP3    H2 2893   1.016   2.847   1.435
  963TIP3   OH2 2894   1.116   4.236   1.553
  963TIP3    H1 2895   1.021   4.223   1.554
  963TIP3    H2 2896   1.141   4.233   1.646
  964TIP3   OH2 2897   1.313   4.281   1.122
  964TIP3    H1 2898   1.269   4.360   1.090
  964TIP3    H2 2899   1.398   4.282   1.079
  965TIP3   OH2 2900   1.735   4.518   1.248
  965TIP3    H1 2901   1.772   4.512   1.336
  965TIP3    H2 2902   1.798   4.572   1.200
  966TIP3   OH2 2903   1.924   4.676   1.124
  966TIP3    H1 2904   1.991   4.626   1.079
  966TIP3    H2 2905   1.972   4.736   1.181
  967TIP3   OH2 2906   2.723   3.010   1.216
  967TIP3    H1 2907   2.634   2.994   1.184
  967TIP3    H2 2908   2.766   2.924   1.211
  968TIP3   OH2 2909   0.976   4.521   1.164
  968TIP3    H1 2910   0.887   4.548   1.140
  968TIP3    H2 2911   1.005   4.587   1.226
  969TIP3   OH2 2912   1.210   4.508   1.010
  969TIP3    H1 2913   1.125   4.521   1.053
  969TIP3    H2 2914   1.198   4.543   0.922
  970TIP3   OH2 2915   1.633   4.532   0.798
  970TIP3    H1 2916   1.574   4.549   0.725
  970TIP3    H2 2917   1.648   4.618   0.838
  971TIP3   OH2 2918   1.900   4.471   0.851
  971TIP3    H1 2919   1.808   4.491   0.835
  971TIP3    H2 2920   1.948   4.541   0.807
  972TIP3   OH2 2921   2.104   4.657   0.757
  972TIP3    H1 2922   2.093   4.743   0.717
  972TIP3    H2 2923   2.131   4.600   0.685
  973TIP3   OH2 2924   0.907   4.317   0.896
  973TIP3    H1 2925   0.938   4.293   0.983
  973TIP3    H2 2926   0.972   4.278   0.836
  974TIP3   OH2 2927   1.113   4.200   0.762
  974TIP3    H1 2928   1.134   4.122   0.814
  974TIP3    H2 2929   1.197   4.244   0.750
  975TIP3   OH2 2930   1.375   4.285   0.755
  975TIP3    H1 2931   1.411   4.201   0.728
  975TIP3    H2 2932   1.423   4.308   0.834
  976TIP3   OH2 2933   1.926   2.925   0.834
  976TIP3    H1 2934   1.893   2.857   0.893
  976TIP3    H2 2935   2.000   2.885   0.790
  977TIP3   OH2 2936   2.435   2.851   0.745
  977TIP3    H1 2937   2.470   2.891   0.666
  977TIP3    H2 2938   2.340   2.855   0.733
  978TIP3   OH2 2939   2.545   2.925   0.504
  978TIP3    H1 2940   2.614   2.866   0.474
  978TIP3    H2 2941   2.581   3.012   0.490
  979TIP3   OH2 2942   1.161   2.658   0.902
  979TIP3    H1 2943   1.087   2.600   0.915
  979TIP3    H2 2944   1.237   2.600   0.893
  980TIP3   OH2 2945   1.674   2.703   0.739
  980TIP3    H1 2946   1.740   2.744   0.683
  980TIP3    H2 2947   1.705   2.719   0.829
  981TIP3   OH2 2948   2.152   2.817   0.710
  981TIP3    H1 2949   2.174   2.773   0.627
  981TIP3    H2 2950   2.151   2.746   0.775
  982TIP3   OH2 2951   2.201   2.770   0.271
  982TIP3    H1 2952   2.122   2.818   0.296
  982TIP3    H2 2953   2.200   2.691   0.325
  983TIP3   OH2 2954   1.628   2.874   0.397
  983TIP3    H1 2955   1.681   2.852   0.473
  983TIP3    H2 2956   1.601   2.965   0.413
  984TIP3   OH2 2957   6.481   1.317   5.256
  984TIP3    H1 2958   6.483   1.222   5.244
  984TIP3    H2 2959   6.441   1.350   5.175
  985TIP3   OH2 2960   1.387   2.925   1.735
  985TIP3    H1 2961   1.353   2.856   1.792
  985TIP3    H2 2962   1.479   2.931   1.758
  986TIP3   OH2 2963   1.639   2.925   1.853
  986TIP3    H1 2964   1.720   2.904   1.806
  986TIP3    H2 2965   1.632   2.857   1.920
  987TIP3   OH2 2966   2.466   3.006   1.643
  987TIP3    H1 2967   2.481   2.975   1.733
  987TIP3    H2 2968   2.552   3.000   1.602
  988TIP3   OH2 2969   2.385   4.542   1.141
  988TIP3    H1 2970   2.308   4.512   1.091
  988TIP3    H2 2971   2.372   4.636   1.152
  989TIP3   OH2 2972   3.615   3.890   0.152
  989TIP3    H1 2973   3.618   3.883   0.248
  989TIP3    H2 2974   3.595   3.802   0.122
  990TIP3   OH2 2975   2.964   3.806   0.658
  990TIP3    H1 2976   2.992   3.731   0.711
  990TIP3    H2 2977   3.034   3.870   0.669
  991TIP3   OH2 2978   2.944   4.200   0.430
  991TIP3    H1 2979   2.928   4.106   0.426
  991TIP3    H2 2980   3.038   4.208   0.442
  992TIP3   OH2 2981   2.648   3.437   0.133
  992TIP3    H1 2982   2.602   3.517   0.158
  992TIP3    H2 2983   2.578   3.375   0.112
  993TIP3   OH2 2984   2.703   3.711   0.340
  993TIP3    H1 2985   2.755   3.636   0.370
  993TIP3    H2 2986   2.763   3.761   0.286
  994TIP3   OH2 2987   3.464   4.138   0.446
  994TIP3    H1 2988   3.518   4.067   0.410
  994TIP3    H2 2989   3.518   4.216   0.436
  995TIP3   OH2 2990   4.441   3.367   0.413
  995TIP3    H1 2991   4.437   3.463   0.416
  995TIP3    H2 2992   4.497   3.348   0.338
  996TIP3   OH2 2993   3.755   3.582   0.457
  996TIP3    H1 2994   3.819   3.519   0.489
  996TIP3    H2 2995   3.801   3.630   0.388
  997TIP3   OH2 2996   3.222   3.291   0.328
  997TIP3    H1 2997   3.203   3.366   0.272
  997TIP3    H2 2998   3.180   3.217   0.283
  998TIP3   OH2 2999   2.855   3.500   0.429
  998TIP3    H1 3000   2.935   3.482   0.479
  998TIP3    H2 3001   2.866   3.451   0.347
  999TIP3   OH2 3002   3.297   3.718   0.220
  999TIP3    H1 3003   3.383   3.688   0.250
  999TIP3    H2 3004   3.248   3.637   0.204
 1000TIP3   OH2 3005   4.531   3.625   0.605
 1000TIP3    H1 3006   4.503   3.716   0.594
 1000TIP3    H2 3007   4.587   3.626   0.682
 1001TIP3   OH2 3008   3.201   3.283   0.770
 1001TIP3    H1 3009   3.151   3.320   0.697
 1001TIP3    H2 3010   3.148   3.301   0.847
 1002TIP3   OH2 3011   3.303   4.020   0.621
 1002TIP3    H1 3012   3.240   4.090   0.636
 1002TIP3    H2 3013   3.371   4.060   0.567
 1003TIP3   OH2 3014   4.180   3.334   0.230
 1003TIP3    H1 3015   4.089   3.360   0.245
 1003TIP3    H2 3016   4.204   3.378   0.149
 1004TIP3   OH2 3017   3.088   3.396   0.542
 1004TIP3    H1 3018   3.147   3.466   0.570
 1004TIP3    H2 3019   3.135   3.352   0.471
 1005TIP3   OH2 3020   3.141   4.236   0.664
 1005TIP3    H1 3021   3.127   4.324   0.628
 1005TIP3    H2 3022   3.062   4.218   0.715
 1006TIP3   OH2 3023   0.330   0.913   5.222
 1006TIP3    H1 3024   0.390   0.910   5.148
 1006TIP3    H2 3025   0.351   0.995   5.267
 1007TIP3   OH2 3026   4.213   3.320   0.548
 1007TIP3    H1 3027   4.129   3.336   0.504
 1007TIP3    H2 3028   4.279   3.346   0.484
 1008TIP3   OH2 3029   3.566   3.003   0.500
 1008TIP3    H1 3030   3.549   2.909   0.500
 1008TIP3    H2 3031   3.486   3.042   0.535
 1009TIP3   OH2 3032   4.159   4.337   0.443
 1009TIP3    H1 3033   4.174   4.250   0.407
 1009TIP3    H2 3034   4.128   4.389   0.369
 1010TIP3   OH2 3035   4.405   3.987   0.337
 1010TIP3    H1 3036   4.311   4.003   0.327
 1010TIP3    H2 3037   4.441   4.010   0.251
 1011TIP3   OH2 3038   4.014   3.872   0.686
 1011TIP3    H1 3039   4.034   3.942   0.748
 1011TIP3    H2 3040   3.986   3.917   0.607
 1012TIP3   OH2 3041   3.068   3.858   0.159
 1012TIP3    H1 3042   3.020   3.803   0.097
 1012TIP3    H2 3043   3.152   3.813   0.172
 1013TIP3   OH2 3044   3.212   4.165   0.366
 1013TIP3    H1 3045   3.223   4.121   0.282
 1013TIP3    H2 3046   3.300   4.166   0.404
 1014TIP3   OH2 3047   3.216   3.800   0.480
 1014TIP3    H1 3048   3.248   3.791   0.390
 1014TIP3    H2 3049   3.250   3.884   0.509
 1015TIP3   OH2 3050   3.697   4.346   0.195
 1015TIP3    H1 3051   3.638   4.420   0.209
 1015TIP3    H2 3052   3.688   4.293   0.274
 1016TIP3   OH2 3053   3.338   4.370   0.800
 1016TIP3    H1 3054   3.280   4.425   0.852
 1016TIP3    H2 3055   3.279   4.310   0.754
 1017TIP3   OH2 3056   3.111   3.923   0.923
 1017TIP3    H1 3057   3.119   4.013   0.955
 1017TIP3    H2 3058   3.018   3.903   0.932
 1018TIP3   OH2 3059   3.135   4.524   0.902
 1018TIP3    H1 3060   3.101   4.518   0.813
 1018TIP3    H2 3061   3.059   4.512   0.958
 1019TIP3   OH2 3062   0.758   0.627   5.298
 1019TIP3    H1 3063   0.777   0.625   5.204
 1019TIP3    H2 3064   0.689   0.561   5.309
 1020TIP3   OH2 3065   2.722   4.073   0.838
 1020TIP3    H1 3066   2.654   4.056   0.774
 1020TIP3    H2 3067   2.759   3.986   0.857
 1021TIP3   OH2 3068   2.573   4.253   0.489
 1021TIP3    H1 3069   2.668   4.260   0.486
 1021TIP3    H2 3070   2.544   4.334   0.529
 1022TIP3   OH2 3071   4.422   4.728   0.602
 1022TIP3    H1 3072   4.415   4.633   0.589
 1022TIP3    H2 3073   4.331   4.757   0.616
 1023TIP3   OH2 3074   3.538   4.505   0.684
 1023TIP3    H1 3075   3.541   4.595   0.717
 1023TIP3    H2 3076   3.464   4.465   0.730
 1024TIP3   OH2 3077   5.842   0.090   0.935
 1024TIP3    H1 3078   5.909   0.115   0.998
 1024TIP3    H2 3079   5.782   0.165   0.932
 1025TIP3   OH2 3080   4.346   3.832   0.823
 1025TIP3    H1 3081   4.312   3.810   0.737
 1025TIP3    H2 3082   4.361   3.747   0.865
 1026TIP3   OH2 3083   2.915   4.263   0.816
 1026TIP3    H1 3084   2.967   4.253   0.896
 1026TIP3    H2 3085   2.847   4.197   0.824
 1027TIP3   OH2 3086   3.319   3.084   0.614
 1027TIP3    H1 3087   3.238   3.048   0.579
 1027TIP3    H2 3088   3.291   3.158   0.668
 1028TIP3   OH2 3089   3.857   3.185   0.819
 1028TIP3    H1 3090   3.930   3.165   0.878
 1028TIP3    H2 3091   3.779   3.164   0.870
 1029TIP3   OH2 3092   4.065   3.608   0.707
 1029TIP3    H1 3093   4.044   3.595   0.799
 1029TIP3    H2 3094   4.053   3.701   0.692
 1030TIP3   OH2 3095   3.259   3.582   0.641
 1030TIP3    H1 3096   3.207   3.606   0.719
 1030TIP3    H2 3097   3.254   3.659   0.585
 1031TIP3   OH2 3098   3.155   3.494   0.156
 1031TIP3    H1 3099   3.065   3.462   0.146
 1031TIP3    H2 3100   3.202   3.458   0.081
 1032TIP3   OH2 3101   3.790   3.837   0.938
 1032TIP3    H1 3102   3.778   3.762   0.996
 1032TIP3    H2 3103   3.883   3.859   0.945
 1033TIP3   OH2 3104   3.737   3.578   0.112
 1033TIP3    H1 3105   3.766   3.625   0.034
 1033TIP3    H2 3106   3.779   3.493   0.106
 1034TIP3   OH2 3107   3.080   3.625   0.847
 1034TIP3    H1 3108   3.076   3.692   0.915
 1034TIP3    H2 3109   3.066   3.543   0.894
 1035TIP3   OH2 3110   2.672   3.149   0.419
 1035TIP3    H1 3111   2.746   3.176   0.472
 1035TIP3    H2 3112   2.711   3.107   0.342
 1036TIP3   OH2 3113   0.433   0.050   5.245
 1036TIP3    H1 3114   0.507   0.069   5.187
 1036TIP3    H2 3115   0.390   0.135   5.258
 1037TIP3   OH2 3116   3.752   3.773   0.646
 1037TIP3    H1 3117   3.754   3.697   0.589
 1037TIP3    H2 3118   3.844   3.798   0.656
 1038TIP3   OH2 3119   3.482   3.264   0.225
 1038TIP3    H1 3120   3.406   3.277   0.282
 1038TIP3    H2 3121   3.558   3.276   0.282
 1039TIP3   OH2 3122   2.907   3.367   0.185
 1039TIP3    H1 3123   2.815   3.383   0.162
 1039TIP3    H2 3124   2.918   3.272   0.175
 1040TIP3   OH2 3125   3.947   3.330   0.462
 1040TIP3    H1 3126   3.918   3.349   0.551
 1040TIP3    H2 3127   3.875   3.279   0.425
 1041TIP3   OH2 3128   4.072   5.050   0.583
 1041TIP3    H1 3129   4.065   5.080   0.492
 1041TIP3    H2 3130   4.163   5.069   0.607
 1042TIP3   OH2 3131   3.089   4.183   1.037
 1042TIP3    H1 3132   3.170   4.207   1.083
 1042TIP3    H2 3133   3.022   4.184   1.105
 1043TIP3   OH2 3134   3.538   3.619   0.293
 1043TIP3    H1 3135   3.598   3.592   0.224
 1043TIP3    H2 3136   3.585   3.602   0.374
 1044TIP3   OH2 3137   3.100   3.089   0.183
 1044TIP3    H1 3138   3.045   3.027   0.232
 1044TIP3    H2 3139   3.160   3.033   0.133
 1045TIP3   OH2 3140   4.174   4.096   0.262
 1045TIP3    H1 3141   4.195   4.162   0.196
 1045TIP3    H2 3142   4.079   4.100   0.272
 1046TIP3   OH2 3143   3.658   4.237   0.701
 1046TIP3    H1 3144   3.718   4.213   0.772
 1046TIP3    H2 3145   3.612   4.314   0.733
 1047TIP3   OH2 3146   2.945   3.933   0.389
 1047TIP3    H1 3147   2.989   3.911   0.307
 1047TIP3    H2 3148   2.984   3.874   0.453
 1048TIP3   OH2 3149   2.845   3.851   0.970
 1048TIP3    H1 3150   2.856   3.839   1.064
 1048TIP3    H2 3151   2.770   3.797   0.947
 1049TIP3   OH2 3152   3.567   4.000   0.963
 1049TIP3    H1 3153   3.521   3.968   1.041
 1049TIP3    H2 3154   3.659   3.994   0.986
 1050TIP3   OH2 3155   3.807   4.489   0.630
 1050TIP3    H1 3156   3.711   4.490   0.633
 1050TIP3    H2 3157   3.834   4.534   0.710
 1051TIP3   OH2 3158   4.364   4.474   0.563
 1051TIP3    H1 3159   4.299   4.411   0.532
 1051TIP3    H2 3160   4.447   4.441   0.528
 1052TIP3   OH2 3161   3.861   4.043   0.189
 1052TIP3    H1 3162   3.770   4.014   0.177
 1052TIP3    H2 3163   3.911   3.988   0.129
 1053TIP3   OH2 3164   3.334   4.550   0.398
 1053TIP3    H1 3165   3.391   4.627   0.395
 1053TIP3    H2 3166   3.388   4.482   0.438
 1054TIP3   OH2 3167   3.732   4.190   0.431
 1054TIP3    H1 3168   3.691   4.211   0.514
 1054TIP3    H2 3169   3.825   4.182   0.451
 1055TIP3   OH2 3170   4.017   4.836   0.382
 1055TIP3    H1 3171   3.956   4.802   0.446
 1055TIP3    H2 3172   3.966   4.842   0.301
 1056TIP3   OH2 3173   3.039   3.375   0.976
 1056TIP3    H1 3174   2.944   3.378   0.981
 1056TIP3    H2 3175   3.065   3.322   1.052
 1057TIP3   OH2 3176   2.777   4.441   0.636
 1057TIP3    H1 3177   2.829   4.377   0.685
 1057TIP3    H2 3178   2.775   4.519   0.693
 1058TIP3   OH2 3179   3.848   3.426   0.692
 1058TIP3    H1 3180   3.912   3.485   0.732
 1058TIP3    H2 3181   3.848   3.349   0.749
 1059TIP3   OH2 3182   3.359   3.385   0.002
 1059TIP3    H1 3183   3.426   3.388  -0.066
 1059TIP3    H2 3184   3.400   3.340   0.075
 1060TIP3   OH2 3185   3.642   3.089   0.084
 1060TIP3    H1 3186   3.580   3.153   0.120
 1060TIP3    H2 3187   3.624   3.088  -0.010
 1061TIP3   OH2 3188   5.258   6.115   5.173
 1061TIP3    H1 3189   5.278   6.180   5.240
 1061TIP3    H2 3190   5.337   6.061   5.167
 1062TIP3   OH2 3191   4.325   3.542   0.767
 1062TIP3    H1 3192   4.236   3.545   0.734
 1062TIP3    H2 3193   4.380   3.556   0.690
 1063TIP3   OH2 3194   4.770   5.647   1.142
 1063TIP3    H1 3195   4.762   5.633   1.048
 1063TIP3    H2 3196   4.862   5.629   1.161
 1064TIP3   OH2 3197   3.057   2.994   0.575
 1064TIP3    H1 3198   3.028   2.959   0.491
 1064TIP3    H2 3199   3.048   2.920   0.636
 1065TIP3   OH2 3200   2.575   4.223   0.009
 1065TIP3    H1 3201   2.539   4.262   0.088
 1065TIP3    H2 3202   2.592   4.297  -0.049
 1066TIP3   OH2 3203   2.770   4.786   1.037
 1066TIP3    H1 3204   2.850   4.791   1.088
 1066TIP3    H2 3205   2.753   4.692   1.028
 1067TIP3   OH2 3206   3.233   4.714   1.078
 1067TIP3    H1 3207   3.324   4.695   1.097
 1067TIP3    H2 3208   3.208   4.650   1.011
 1068TIP3   OH2 3209   3.863   4.622   0.858
 1068TIP3    H1 3210   3.857   4.545   0.915
 1068TIP3    H2 3211   3.943   4.667   0.887
 1069TIP3   OH2 3212   2.884   4.176   1.227
 1069TIP3    H1 3213   2.902   4.083   1.241
 1069TIP3    H2 3214   2.797   4.177   1.188
 1070TIP3   OH2 3215   3.499   4.271   0.994
 1070TIP3    H1 3216   3.447   4.294   0.917
 1070TIP3    H2 3217   3.533   4.183   0.975
 1071TIP3   OH2 3218   3.944   4.257   0.576
 1071TIP3    H1 3219   4.016   4.297   0.527
 1071TIP3    H2 3220   3.879   4.326   0.585
 1072TIP3   OH2 3221   3.011   3.911   1.225
 1072TIP3    H1 3222   3.091   3.870   1.191
 1072TIP3    H2 3223   3.035   3.940   1.313
 1073TIP3   OH2 3224   3.363   3.834   0.811
 1073TIP3    H1 3225   3.293   3.849   0.875
 1073TIP3    H2 3226   3.340   3.890   0.737
 1074TIP3   OH2 3227   3.848   4.162   0.998
 1074TIP3    H1 3228   3.939   4.156   0.970
 1074TIP3    H2 3229   3.846   4.119   1.083
 1075TIP3   OH2 3230   3.456   3.591   0.980
 1075TIP3    H1 3231   3.469   3.503   0.945
 1075TIP3    H2 3232   3.402   3.636   0.915
 1076TIP3   OH2 3233   3.460   3.363   0.814
 1076TIP3    H1 3234   3.487   3.395   0.728
 1076TIP3    H2 3235   3.369   3.338   0.803
 1077TIP3   OH2 3236   4.070   3.866   1.048
 1077TIP3    H1 3237   4.104   3.777   1.054
 1077TIP3    H2 3238   4.148   3.920   1.030
 1078TIP3   OH2 3239   4.077   4.118   0.818
 1078TIP3    H1 3240   4.042   4.205   0.802
 1078TIP3    H2 3241   4.170   4.125   0.796
 1079TIP3   OH2 3242   3.318   3.688   1.213
 1079TIP3    H1 3243   3.265   3.615   1.247
 1079TIP3    H2 3244   3.366   3.650   1.139
 1080TIP3   OH2 3245   3.592   3.131   0.896
 1080TIP3    H1 3246   3.548   3.212   0.869
 1080TIP3    H2 3247   3.527   3.062   0.883
 1081TIP3   OH2 3248   3.736   3.624   1.098
 1081TIP3    H1 3249   3.755   3.622   1.192
 1081TIP3    H2 3250   3.644   3.598   1.091
 1082TIP3   OH2 3251   3.974   3.570   0.956
 1082TIP3    H1 3252   3.896   3.575   1.010
 1082TIP3    H2 3253   4.045   3.549   1.017
 1083TIP3   OH2 3254   4.201   3.538   1.116
 1083TIP3    H1 3255   4.214   3.443   1.122
 1083TIP3    H2 3256   4.193   3.567   1.207
 1084TIP3   OH2 3257   3.183   3.455   1.304
 1084TIP3    H1 3258   3.185   3.366   1.270
 1084TIP3    H2 3259   3.223   3.449   1.390
 1085TIP3   OH2 3260   3.675   3.130   1.157
 1085TIP3    H1 3261   3.744   3.064   1.151
 1085TIP3    H2 3262   3.638   3.134   1.069
 1086TIP3   OH2 3263   3.743   3.349   1.307
 1086TIP3    H1 3264   3.723   3.275   1.249
 1086TIP3    H2 3265   3.667   3.407   1.300
 1087TIP3   OH2 3266   2.347   4.528   0.063
 1087TIP3    H1 3267   2.278   4.475   0.024
 1087TIP3    H2 3268   2.390   4.469   0.126
 1088TIP3   OH2 3269   2.491   4.365   0.235
 1088TIP3    H1 3270   2.479   4.299   0.304
 1088TIP3    H2 3271   2.547   4.432   0.275
 1089TIP3   OH2 3272   4.291   4.540   0.863
 1089TIP3    H1 3273   4.230   4.525   0.935
 1089TIP3    H2 3274   4.341   4.617   0.889
 1090TIP3   OH2 3275   4.165   4.541   0.261
 1090TIP3    H1 3276   4.161   4.636   0.266
 1090TIP3    H2 3277   4.153   4.521   0.169
 1091TIP3   OH2 3278   2.697   3.821   0.593
 1091TIP3    H1 3279   2.688   3.788   0.503
 1091TIP3    H2 3280   2.792   3.825   0.608
 1092TIP3   OH2 3281   4.324   4.192   0.740
 1092TIP3    H1 3282   4.401   4.145   0.771
 1092TIP3    H2 3283   4.359   4.265   0.688
 1093TIP3   OH2 3284   4.528   4.047   0.814
 1093TIP3    H1 3285   4.484   3.968   0.846
 1093TIP3    H2 3286   4.610   4.051   0.865
 1094TIP3   OH2 3287   4.166   3.754   0.291
 1094TIP3    H1 3288   4.255   3.748   0.255
 1094TIP3    H2 3289   4.168   3.702   0.371
 1095TIP3   OH2 3290   4.263   3.797   0.551
 1095TIP3    H1 3291   4.179   3.835   0.578
 1095TIP3    H2 3292   4.308   3.869   0.507
 1096TIP3   OH2 3293   2.917   3.510   1.252
 1096TIP3    H1 3294   3.011   3.509   1.267
 1096TIP3    H2 3295   2.885   3.427   1.288
 1097TIP3   OH2 3296   4.768   3.386   1.023
 1097TIP3    H1 3297   4.825   3.325   0.975
 1097TIP3    H2 3298   4.726   3.438   0.954
 1098TIP3   OH2 3299   2.882   3.209   0.589
 1098TIP3    H1 3300   2.939   3.132   0.597
 1098TIP3    H2 3301   2.943   3.283   0.579
 1099TIP3   OH2 3302   2.672   3.479   0.649
 1099TIP3    H1 3303   2.724   3.471   0.568
 1099TIP3    H2 3304   2.704   3.560   0.690
 1100TIP3   OH2 3305   4.602   3.502   0.846
 1100TIP3    H1 3306   4.537   3.553   0.893
 1100TIP3    H2 3307   4.551   3.439   0.795
 1101TIP3   OH2 3308   2.653   2.984   0.173
 1101TIP3    H1 3309   2.566   2.970   0.210
 1101TIP3    H2 3310   2.637   3.034   0.093
 1102TIP3   OH2 3311   2.881   3.066   0.984
 1102TIP3    H1 3312   2.829   3.052   1.064
 1102TIP3    H2 3313   2.819   3.104   0.922
 1103TIP3   OH2 3314   2.911   4.499   1.060
 1103TIP3    H1 3315   2.818   4.481   1.049
 1103TIP3    H2 3316   2.927   4.488   1.153
 1104TIP3   OH2 3317   3.077   4.498   0.633
 1104TIP3    H1 3318   2.995   4.525   0.592
 1104TIP3    H2 3319   3.143   4.557   0.597
 1105TIP3   OH2 3320   3.553   4.753   0.779
 1105TIP3    H1 3321   3.588   4.748   0.868
 1105TIP3    H2 3322   3.600   4.826   0.739
 1106TIP3   OH2 3323   3.704   4.949   0.674
 1106TIP3    H1 3324   3.770   4.888   0.642
 1106TIP3    H2 3325   3.748   5.000   0.741
 1107TIP3   OH2 3326   4.481   3.256   0.742
 1107TIP3    H1 3327   4.393   3.261   0.703
 1107TIP3    H2 3328   4.507   3.165   0.730
 1108TIP3   OH2 3329   2.771   4.811   0.661
 1108TIP3    H1 3330   2.679   4.826   0.637
 1108TIP3    H2 3331   2.787   4.873   0.732
 1109TIP3   OH2 3332   2.908   4.671   0.481
 1109TIP3    H1 3333   2.853   4.712   0.548
 1109TIP3    H2 3334   2.880   4.711   0.399
 1110TIP3   OH2 3335   3.471   4.841   0.228
 1110TIP3    H1 3336   3.490   4.894   0.151
 1110TIP3    H2 3337   3.398   4.885   0.271
 1111TIP3   OH2 3338   3.804   4.797   0.210
 1111TIP3    H1 3339   3.745   4.744   0.264
 1111TIP3    H2 3340   3.777   4.888   0.227
 1112TIP3   OH2 3341   2.683   4.500   0.386
 1112TIP3    H1 3342   2.721   4.485   0.472
 1112TIP3    H2 3343   2.740   4.451   0.326
 1113TIP3   OH2 3344   2.869   4.373   0.242
 1113TIP3    H1 3345   2.883   4.306   0.309
 1113TIP3    H2 3346   2.956   4.392   0.209
 1114TIP3   OH2 3347   3.131   4.448   0.209
 1114TIP3    H1 3348   3.220   4.414   0.213
 1114TIP3    H2 3349   3.139   4.540   0.232
 1115TIP3   OH2 3350   3.732   3.201   0.350
 1115TIP3    H1 3351   3.690   3.127   0.395
 1115TIP3    H2 3352   3.778   3.161   0.276
 1116TIP3   OH2 3353   4.225   3.077   0.270
 1116TIP3    H1 3354   4.237   3.169   0.292
 1116TIP3    H2 3355   4.157   3.076   0.203
 1117TIP3   OH2 3356   2.967   2.895   0.332
 1117TIP3    H1 3357   2.877   2.864   0.342
 1117TIP3    H2 3358   3.020   2.815   0.329
 1118TIP3   OH2 3359   2.747   2.774   0.004
 1118TIP3    H1 3360   2.783   2.835  -0.061
 1118TIP3    H2 3361   2.718   2.829   0.076
 1119TIP3   OH2 3362   3.431   2.921   0.233
 1119TIP3    H1 3363   3.410   2.928   0.140
 1119TIP3    H2 3364   3.445   3.012   0.261
 1120TIP3   OH2 3365   3.924   3.067   0.171
 1120TIP3    H1 3366   3.978   3.080   0.093
 1120TIP3    H2 3367   3.968   2.998   0.221
 1121TIP3   OH2 3368   5.015   6.006   5.118
 1121TIP3    H1 3369   5.040   5.943   5.050
 1121TIP3    H2 3370   5.096   6.050   5.141
 1122TIP3   OH2 3371   3.185   3.181   1.220
 1122TIP3    H1 3372   3.148   3.114   1.277
 1122TIP3    H2 3373   3.277   3.186   1.246
 1123TIP3   OH2 3374   3.435   3.181   1.342
 1123TIP3    H1 3375   3.516   3.157   1.298
 1123TIP3    H2 3376   3.422   3.114   1.409
 1124TIP3   OH2 3377   4.259   3.265   1.132
 1124TIP3    H1 3378   4.272   3.235   1.222
 1124TIP3    H2 3379   4.347   3.260   1.093
 1125TIP3   OH2 3380   4.161   4.795   0.651
 1125TIP3    H1 3381   4.133   4.712   0.612
 1125TIP3    H2 3382   4.126   4.862   0.593
 1126TIP3   OH2 3383   4.892   4.169   0.488
 1126TIP3    H1 3384   4.872   4.258   0.517
 1126TIP3    H2 3385   4.806   4.130   0.470
 1127TIP3   OH2 3386   4.856   3.928   0.283
 1127TIP3    H1 3387   4.831   3.940   0.375
 1127TIP3    H2 3388   4.844   3.834   0.267
 1128TIP3   OH2 3389   4.860   4.415   0.584
 1128TIP3    H1 3390   4.949   4.449   0.595
 1128TIP3    H2 3391   4.819   4.427   0.670
 1129TIP3   OH2 3392   4.643   4.092   0.433
 1129TIP3    H1 3393   4.667   4.015   0.485
 1129TIP3    H2 3394   4.550   4.078   0.412
 1130TIP3   OH2 3395   4.911   3.659   0.572
 1130TIP3    H1 3396   4.822   3.628   0.551
 1130TIP3    H2 3397   4.969   3.593   0.534
 1131TIP3   OH2 3398   4.555   4.955   0.476
 1131TIP3    H1 3399   4.650   4.951   0.487
 1131TIP3    H2 3400   4.524   4.869   0.504
 1132TIP3   OH2 3401   4.690   4.426   0.826
 1132TIP3    H1 3402   4.708   4.351   0.882
 1132TIP3    H2 3403   4.642   4.390   0.751
 1133TIP3   OH2 3404   5.115   3.865   0.524
 1133TIP3    H1 3405   5.127   3.781   0.566
 1133TIP3    H2 3406   5.189   3.872   0.462
 1134TIP3   OH2 3407   5.198   3.941   0.771
 1134TIP3    H1 3408   5.116   3.900   0.799
 1134TIP3    H2 3409   5.195   3.939   0.676
 1135TIP3   OH2 3410   5.313   3.356   0.398
 1135TIP3    H1 3411   5.259   3.373   0.321
 1135TIP3    H2 3412   5.268   3.285   0.444
 1136TIP3   OH2 3413   5.485   3.930   0.635
 1136TIP3    H1 3414   5.466   3.894   0.722
 1136TIP3    H2 3415   5.482   3.854   0.577
 1137TIP3   OH2 3416   5.959   3.776   0.655
 1137TIP3    H1 3417   6.010   3.696   0.663
 1137TIP3    H2 3418   5.962   3.815   0.743
 1138TIP3   OH2 3419   4.946   3.659   0.870
 1138TIP3    H1 3420   4.979   3.651   0.780
 1138TIP3    H2 3421   5.023   3.649   0.925
 1139TIP3   OH2 3422   5.453   3.379   0.635
 1139TIP3    H1 3423   5.522   3.314   0.628
 1139TIP3    H2 3424   5.419   3.387   0.546
 1140TIP3   OH2 3425   5.540   3.580   0.792
 1140TIP3    H1 3426   5.503   3.516   0.731
 1140TIP3    H2 3427   5.474   3.648   0.799
 1141TIP3   OH2 3428   4.704   3.762   0.773
 1141TIP3    H1 3429   4.789   3.804   0.785
 1141TIP3    H2 3430   4.710   3.682   0.826
 1142TIP3   OH2 3431   4.667   3.268   0.545
 1142TIP3    H1 3432   4.605   3.268   0.618
 1142TIP3    H2 3433   4.612   3.262   0.467
 1143TIP3   OH2 3434   4.684   4.707   0.637
 1143TIP3    H1 3435   4.590   4.727   0.637
 1143TIP3    H2 3436   4.712   4.727   0.726
 1144TIP3   OH2 3437   4.999   3.399   0.714
 1144TIP3    H1 3438   4.949   3.352   0.781
 1144TIP3    H2 3439   5.075   3.433   0.760
 1145TIP3   OH2 3440   5.252   3.435   0.833
 1145TIP3    H1 3441   5.321   3.398   0.777
 1145TIP3    H2 3442   5.229   3.365   0.893
 1146TIP3   OH2 3443   6.066   3.507   0.637
 1146TIP3    H1 3444   6.066   3.468   0.724
 1146TIP3    H2 3445   6.155   3.538   0.624
 1147TIP3   OH2 3446   0.619   4.926   1.175
 1147TIP3    H1 3447   0.539   4.958   1.134
 1147TIP3    H2 3448   0.645   4.996   1.235
 1148TIP3   OH2 3449   0.390   4.900   1.385
 1148TIP3    H1 3450   0.390   4.924   1.478
 1148TIP3    H2 3451   0.482   4.894   1.362
 1149TIP3   OH2 3452   0.172   5.163   1.779
 1149TIP3    H1 3453   0.183   5.071   1.757
 1149TIP3    H2 3454   0.129   5.201   1.702
 1150TIP3   OH2 3455   0.280   4.871   1.793
 1150TIP3    H1 3456   0.287   4.776   1.789
 1150TIP3    H2 3457   0.241   4.889   1.878
 1151TIP3   OH2 3458   0.529   5.303   1.511
 1151TIP3    H1 3459   0.470   5.294   1.436
 1151TIP3    H2 3460   0.616   5.282   1.476
 1152TIP3   OH2 3461   0.816   4.709   1.670
 1152TIP3    H1 3462   0.873   4.643   1.630
 1152TIP3    H2 3463   0.775   4.754   1.596
 1153TIP3   OH2 3464   0.654   4.815   1.475
 1153TIP3    H1 3465   0.594   4.844   1.544
 1153TIP3    H2 3466   0.611   4.739   1.436
 1154TIP3   OH2 3467   0.565   4.571   1.367
 1154TIP3    H1 3468   0.476   4.547   1.342
 1154TIP3    H2 3469   0.611   4.487   1.375
 1155TIP3   OH2 3470   0.344   4.606   1.794
 1155TIP3    H1 3471   0.269   4.566   1.839
 1155TIP3    H2 3472   0.410   4.537   1.791
 1156TIP3   OH2 3473   2.322   5.022   0.501
 1156TIP3    H1 3474   2.350   5.102   0.546
 1156TIP3    H2 3475   2.327   5.044   0.408
 1157TIP3   OH2 3476   1.760   5.218   0.541
 1157TIP3    H1 3477   1.790   5.131   0.566
 1157TIP3    H2 3478   1.692   5.202   0.475
 1158TIP3   OH2 3479   1.723   4.936   0.137
 1158TIP3    H1 3480   1.797   4.936   0.199
 1158TIP3    H2 3481   1.762   4.911   0.053
 1159TIP3   OH2 3482   2.393   5.237   0.661
 1159TIP3    H1 3483   2.305   5.273   0.652
 1159TIP3    H2 3484   2.429   5.280   0.739
 1160TIP3   OH2 3485   1.045   4.852   0.909
 1160TIP3    H1 3486   0.981   4.844   0.838
 1160TIP3    H2 3487   0.993   4.871   0.986
 1161TIP3   OH2 3488   1.925   4.965   0.318
 1161TIP3    H1 3489   1.892   4.951   0.407
 1161TIP3    H2 3490   1.993   5.031   0.328
 1162TIP3   OH2 3491   2.114   4.915   0.653
 1162TIP3    H1 3492   2.028   4.936   0.616
 1162TIP3    H2 3493   2.176   4.946   0.586
 1163TIP3   OH2 3494   1.388   4.543   0.630
 1163TIP3    H1 3495   1.381   4.454   0.664
 1163TIP3    H2 3496   1.319   4.592   0.674
 1164TIP3   OH2 3497   2.231   5.584   0.500
 1164TIP3    H1 3498   2.152   5.637   0.491
 1164TIP3    H2 3499   2.247   5.549   0.413
 1165TIP3   OH2 3500   1.919   5.445   0.762
 1165TIP3    H1 3501   1.920   5.538   0.786
 1165TIP3    H2 3502   1.831   5.431   0.726
 1166TIP3   OH2 3503   2.169   5.395   0.954
 1166TIP3    H1 3504   2.081   5.416   0.923
 1166TIP3    H2 3505   2.176   5.300   0.943
 1167TIP3   OH2 3506   1.164   4.630   0.769
 1167TIP3    H1 3507   1.083   4.596   0.729
 1167TIP3    H2 3508   1.141   4.719   0.795
 1168TIP3   OH2 3509   1.703   4.747   0.961
 1168TIP3    H1 3510   1.772   4.727   1.024
 1168TIP3    H2 3511   1.622   4.731   1.010
 1169TIP3   OH2 3512   1.931   5.192   0.885
 1169TIP3    H1 3513   1.881   5.187   0.967
 1169TIP3    H2 3514   1.904   5.276   0.846
 1170TIP3   OH2 3515   1.149   5.180   0.852
 1170TIP3    H1 3516   1.081   5.125   0.891
 1170TIP3    H2 3517   1.123   5.191   0.761
 1171TIP3   OH2 3518   1.661   5.380   1.098
 1171TIP3    H1 3519   1.640   5.313   1.162
 1171TIP3    H2 3520   1.748   5.412   1.124
 1172TIP3   OH2 3521   1.617   5.139   0.328
 1172TIP3    H1 3522   1.575   5.177   0.251
 1172TIP3    H2 3523   1.653   5.056   0.297
 1173TIP3   OH2 3524   0.965   5.179   1.116
 1173TIP3    H1 3525   0.951   5.233   1.194
 1173TIP3    H2 3526   0.947   5.090   1.146
 1174TIP3   OH2 3527   1.649   5.420   0.701
 1174TIP3    H1 3528   1.660   5.370   0.619
 1174TIP3    H2 3529   1.627   5.353   0.766
 1175TIP3   OH2 3530   1.814   4.940   0.572
 1175TIP3    H1 3531   1.790   4.958   0.663
 1175TIP3    H2 3532   1.748   4.879   0.541
 1176TIP3   OH2 3533   0.954   5.527   1.129
 1176TIP3    H1 3534   0.966   5.621   1.141
 1176TIP3    H2 3535   0.928   5.495   1.215
 1177TIP3   OH2 3536   1.378   5.174   0.490
 1177TIP3    H1 3537   1.464   5.189   0.450
 1177TIP3    H2 3538   1.397   5.136   0.576
 1178TIP3   OH2 3539   1.393   5.093   0.753
 1178TIP3    H1 3540   1.313   5.137   0.784
 1178TIP3    H2 3541   1.464   5.142   0.795
 1179TIP3   OH2 3542   1.999   5.737   0.494
 1179TIP3    H1 3543   1.981   5.806   0.430
 1179TIP3    H2 3544   1.935   5.669   0.475
 1180TIP3   OH2 3545   1.422   5.501   1.157
 1180TIP3    H1 3546   1.352   5.451   1.116
 1180TIP3    H2 3547   1.503   5.464   1.122
 1181TIP3   OH2 3548   1.814   5.552   0.421
 1181TIP3    H1 3549   1.730   5.524   0.458
 1181TIP3    H2 3550   1.841   5.478   0.366
 1182TIP3   OH2 3551   0.901   4.902   1.151
 1182TIP3    H1 3552   0.806   4.897   1.158
 1182TIP3    H2 3553   0.934   4.845   1.222
 1183TIP3   OH2 3554   1.741   4.988   0.830
 1183TIP3    H1 3555   1.818   5.024   0.874
 1183TIP3    H2 3556   1.724   4.906   0.877
 1184TIP3   OH2 3557   1.594   5.225   0.881
 1184TIP3    H1 3558   1.619   5.270   0.962
 1184TIP3    H2 3559   1.645   5.144   0.882
 1185TIP3   OH2 3560   1.495   4.636   0.234
 1185TIP3    H1 3561   1.437   4.710   0.217
 1185TIP3    H2 3562   1.583   4.670   0.220
 1186TIP3   OH2 3563   2.188   5.122   0.866
 1186TIP3    H1 3564   2.094   5.137   0.878
 1186TIP3    H2 3565   2.193   5.066   0.789
 1187TIP3   OH2 3566   1.881   5.314   0.291
 1187TIP3    H1 3567   1.803   5.280   0.335
 1187TIP3    H2 3568   1.954   5.269   0.334
 1188TIP3   OH2 3569   0.924   4.510   0.705
 1188TIP3    H1 3570   0.835   4.506   0.671
 1188TIP3    H2 3571   0.923   4.453   0.782
 1189TIP3   OH2 3572   1.336   5.760   1.182
 1189TIP3    H1 3573   1.300   5.781   1.096
 1189TIP3    H2 3574   1.374   5.673   1.171
 1190TIP3   OH2 3575   1.886   5.735   0.763
 1190TIP3    H1 3576   1.911   5.758   0.674
 1190TIP3    H2 3577   1.804   5.783   0.777
 1191TIP3   OH2 3578   0.921   5.403   1.378
 1191TIP3    H1 3579   1.011   5.374   1.396
 1191TIP3    H2 3580   0.904   5.471   1.443
 1192TIP3   OH2 3581   1.207   5.384   1.034
 1192TIP3    H1 3582   1.128   5.434   1.052
 1192TIP3    H2 3583   1.185   5.334   0.955
 1193TIP3   OH2 3584   1.745   5.728   1.126
 1193TIP3    H1 3585   1.819   5.767   1.172
 1193TIP3    H2 3586   1.679   5.714   1.193
 1194TIP3   OH2 3587   1.307   5.140   1.146
 1194TIP3    H1 3588   1.306   5.064   1.088
 1194TIP3    H2 3589   1.269   5.210   1.094
 1195TIP3   OH2 3590   1.311   4.915   0.956
 1195TIP3    H1 3591   1.346   4.957   0.877
 1195TIP3    H2 3592   1.219   4.897   0.935
 1196TIP3   OH2 3593   1.361   5.487   0.766
 1196TIP3    H1 3594   1.453   5.460   0.760
 1196TIP3    H2 3595   1.356   5.538   0.847
 1197TIP3   OH2 3596   1.915   5.427   1.205
 1197TIP3    H1 3597   1.973   5.352   1.220
 1197TIP3    H2 3598   1.965   5.484   1.146
 1198TIP3   OH2 3599   1.994   5.626   0.988
 1198TIP3    H1 3600   1.911   5.663   0.957
 1198TIP3    H2 3601   2.060   5.665   0.931
 1199TIP3   OH2 3602   1.176   5.231   1.387
 1199TIP3    H1 3603   1.114   5.160   1.407
 1199TIP3    H2 3604   1.209   5.209   1.300
 1200TIP3   OH2 3605   1.437   4.687   1.045
 1200TIP3    H1 3606   1.397   4.768   1.014
 1200TIP3    H2 3607   1.371   4.620   1.030
 1201TIP3   OH2 3608   1.566   5.173   1.249
 1201TIP3    H1 3609   1.551   5.165   1.343
 1201TIP3    H2 3610   1.480   5.158   1.209
 1202TIP3   OH2 3611   1.804   5.116   1.111
 1202TIP3    H1 3612   1.728   5.120   1.169
 1202TIP3    H2 3613   1.878   5.102   1.170
 1203TIP3   OH2 3614   2.042   5.093   1.262
 1203TIP3    H1 3615   2.055   4.998   1.271
 1203TIP3    H2 3616   2.035   5.124   1.352
 1204TIP3   OH2 3617   1.013   5.012   1.455
 1204TIP3    H1 3618   1.020   4.923   1.420
 1204TIP3    H2 3619   1.051   5.006   1.543
 1205TIP3   OH2 3620   1.512   4.684   1.309
 1205TIP3    H1 3621   1.583   4.620   1.302
 1205TIP3    H2 3622   1.478   4.692   1.220
 1206TIP3   OH2 3623   1.592   4.903   1.456
 1206TIP3    H1 3624   1.567   4.832   1.397
 1206TIP3    H2 3625   1.520   4.965   1.451
 1207TIP3   OH2 3626   1.888   5.194   0.043
 1207TIP3    H1 3627   1.942   5.256  -0.006
 1207TIP3    H2 3628   1.882   5.232   0.131
 1208TIP3   OH2 3629   2.200   5.742   0.835
 1208TIP3    H1 3630   2.261   5.670   0.818
 1208TIP3    H2 3631   2.168   5.766   0.748
 1209TIP3   OH2 3632   2.380   5.529   0.859
 1209TIP3    H1 3633   2.304   5.484   0.897
 1209TIP3    H2 3634   2.454   5.471   0.878
 1210TIP3   OH2 3635   2.088   5.177   0.399
 1210TIP3    H1 3636   2.143   5.232   0.342
 1210TIP3    H2 3637   2.099   5.216   0.486
 1211TIP3   OH2 3638   2.140   5.346   0.614
 1211TIP3    H1 3639   2.062   5.370   0.665
 1211TIP3    H2 3640   2.169   5.429   0.576
 1212TIP3   OH2 3641   0.749   5.064   1.403
 1212TIP3    H1 3642   0.843   5.064   1.420
 1212TIP3    H2 3643   0.718   4.980   1.438
 1213TIP3   OH2 3644   2.592   4.957   1.157
 1213TIP3    H1 3645   2.655   4.896   1.119
 1213TIP3    H2 3646   2.556   5.005   1.082
 1214TIP3   OH2 3647   6.373   1.654   5.225
 1214TIP3    H1 3648   6.427   1.680   5.300
 1214TIP3    H2 3649   6.314   1.587   5.260
 1215TIP3   OH2 3650   2.450   5.071   0.956
 1215TIP3    H1 3651   2.369   5.115   0.982
 1215TIP3    H2 3652   2.422   4.996   0.904
 1216TIP3   OH2 3653   0.712   4.619   1.135
 1216TIP3    H1 3654   0.667   4.605   1.218
 1216TIP3    H2 3655   0.684   4.705   1.105
 1217TIP3   OH2 3656   2.355   4.827   0.854
 1217TIP3    H1 3657   2.267   4.815   0.818
 1217TIP3    H2 3658   2.394   4.740   0.848
 1218TIP3   OH2 3659   1.618   4.760   0.507
 1218TIP3    H1 3660   1.533   4.719   0.521
 1218TIP3    H2 3661   1.660   4.704   0.440
 1219TIP3   OH2 3662   2.071   4.653   0.378
 1219TIP3    H1 3663   2.110   4.705   0.308
 1219TIP3    H2 3664   1.978   4.676   0.375
 1220TIP3   OH2 3665   2.187   4.753   0.152
 1220TIP3    H1 3666   2.262   4.701   0.122
 1220TIP3    H2 3667   2.220   4.843   0.152
 1221TIP3   OH2 3668   1.287   4.501   0.365
 1221TIP3    H1 3669   1.356   4.543   0.315
 1221TIP3    H2 3670   1.299   4.532   0.455
 1222TIP3   OH2 3671   1.788   4.624   0.327
 1222TIP3    H1 3672   1.825   4.586   0.247
 1222TIP3    H2 3673   1.785   4.552   0.389
 1223TIP3   OH2 3674   1.859   4.544   0.016
 1223TIP3    H1 3675   1.785   4.573  -0.038
 1223TIP3    H2 3676   1.841   4.452   0.034
 1224TIP3   OH2 3677   1.022   4.738   1.362
 1224TIP3    H1 3678   0.986   4.673   1.421
 1224TIP3    H2 3679   1.114   4.745   1.387
 1225TIP3   OH2 3680   1.271   4.737   1.487
 1225TIP3    H1 3681   1.354   4.718   1.443
 1225TIP3    H2 3682   1.264   4.670   1.555
 1226TIP3   OH2 3683   2.103   4.822   1.281
 1226TIP3    H1 3684   2.119   4.792   1.371
 1226TIP3    H2 3685   2.189   4.816   1.239
 1227TIP3   OH2 3686   2.458   5.578   0.296
 1227TIP3    H1 3687   2.525   5.553   0.360
 1227TIP3    H2 3688   2.499   5.648   0.245
 1228TIP3   OH2 3689   2.752   5.061   0.383
 1228TIP3    H1 3690   2.788   5.145   0.354
 1228TIP3    H2 3691   2.712   5.081   0.468
 1229TIP3   OH2 3692   2.786   5.793   0.682
 1229TIP3    H1 3693   2.739   5.876   0.685
 1229TIP3    H2 3694   2.721   5.730   0.650
 1230TIP3   OH2 3695   2.405   5.857   0.426
 1230TIP3    H1 3696   2.359   5.805   0.360
 1230TIP3    H2 3697   2.404   5.803   0.505
 1231TIP3   OH2 3698   2.931   4.889   0.241
 1231TIP3    H1 3699   2.859   4.827   0.246
 1231TIP3    H2 3700   2.890   4.971   0.212
 1232TIP3   OH2 3701   3.544   5.027   0.460
 1232TIP3    H1 3702   3.568   4.975   0.537
 1232TIP3    H2 3703   3.455   5.000   0.440
 1233TIP3   OH2 3704   2.872   5.288   0.298
 1233TIP3    H1 3705   2.856   5.340   0.376
 1233TIP3    H2 3706   2.876   5.352   0.226
 1234TIP3   OH2 3707   3.538   5.723   0.524
 1234TIP3    H1 3708   3.473   5.693   0.587
 1234TIP3    H2 3709   3.607   5.656   0.528
 1235TIP3   OH2 3710   2.631   5.396   0.481
 1235TIP3    H1 3711   2.693   5.454   0.527
 1235TIP3    H2 3712   2.642   5.311   0.525
 1236TIP3   OH2 3713   2.310   5.011   0.105
 1236TIP3    H1 3714   2.381   4.989   0.165
 1236TIP3    H2 3715   2.324   4.954   0.029
 1237TIP3   OH2 3716   2.689   6.043   0.724
 1237TIP3    H1 3717   2.765   6.046   0.783
 1237TIP3    H2 3718   2.618   6.007   0.777
 1238TIP3   OH2 3719   2.444   5.675   0.640
 1238TIP3    H1 3720   2.455   5.631   0.724
 1238TIP3    H2 3721   2.375   5.626   0.595
 1239TIP3   OH2 3722   3.108   5.723   0.680
 1239TIP3    H1 3723   3.099   5.713   0.586
 1239TIP3    H2 3724   3.168   5.653   0.706
 1240TIP3   OH2 3725   2.649   5.134   0.629
 1240TIP3    H1 3726   2.557   5.160   0.637
 1240TIP3    H2 3727   2.672   5.100   0.715
 1241TIP3   OH2 3728   3.341   5.353   0.414
 1241TIP3    H1 3729   3.341   5.445   0.386
 1241TIP3    H2 3730   3.433   5.327   0.411
 1242TIP3   OH2 3731   2.688   4.762   0.339
 1242TIP3    H1 3732   2.652   4.762   0.250
 1242TIP3    H2 3733   2.683   4.670   0.366
 1243TIP3   OH2 3734   2.486   5.907   0.849
 1243TIP3    H1 3735   2.520   5.824   0.883
 1243TIP3    H2 3736   2.428   5.882   0.777
 1244TIP3   OH2 3737   3.125   6.019   0.682
 1244TIP3    H1 3738   3.137   6.110   0.654
 1244TIP3    H2 3739   3.198   5.972   0.643
 1245TIP3   OH2 3740   2.652   5.689   0.908
 1245TIP3    H1 3741   2.736   5.678   0.864
 1245TIP3    H2 3742   2.673   5.736   0.989
 1246TIP3   OH2 3743   3.012   5.741   0.415
 1246TIP3    H1 3744   2.959   5.661   0.412
 1246TIP3    H2 3745   3.081   5.727   0.350
 1247TIP3   OH2 3746   3.426   5.934   0.691
 1247TIP3    H1 3747   3.494   5.908   0.628
 1247TIP3    H2 3748   3.460   5.905   0.776
 1248TIP3   OH2 3749   3.099   5.400   0.684
 1248TIP3    H1 3750   3.122   5.309   0.666
 1248TIP3    H2 3751   3.012   5.410   0.645
 1249TIP3   OH2 3752   3.106   5.207   0.463
 1249TIP3    H1 3753   3.159   5.215   0.384
 1249TIP3    H2 3754   3.073   5.117   0.460
 1250TIP3   OH2 3755   3.782   5.705   0.793
 1250TIP3    H1 3756   3.761   5.625   0.744
 1250TIP3    H2 3757   3.874   5.722   0.773
 1251TIP3   OH2 3758   2.957   5.504   0.895
 1251TIP3    H1 3759   2.896   5.434   0.915
 1251TIP3    H2 3760   3.003   5.474   0.816
 1252TIP3   OH2 3761   3.172   4.914   0.690
 1252TIP3    H1 3762   3.188   5.000   0.650
 1252TIP3    H2 3763   3.163   4.854   0.616
 1253TIP3   OH2 3764   3.378   5.417   0.771
 1253TIP3    H1 3765   3.377   5.421   0.867
 1253TIP3    H2 3766   3.288   5.393   0.748
 1254TIP3   OH2 3767   3.548   5.254   0.639
 1254TIP3    H1 3768   3.492   5.312   0.691
 1254TIP3    H2 3769   3.635   5.293   0.644
 1255TIP3   OH2 3770   3.819   5.321   0.791
 1255TIP3    H1 3771   3.836   5.233   0.826
 1255TIP3    H2 3772   3.818   5.377   0.869
 1256TIP3   OH2 3773   2.818   5.266   0.947
 1256TIP3    H1 3774   2.822   5.179   0.909
 1256TIP3    H2 3775   2.856   5.257   1.034
 1257TIP3   OH2 3776   3.374   4.940   0.854
 1257TIP3    H1 3777   3.430   4.865   0.832
 1257TIP3    H2 3778   3.301   4.935   0.793
 1258TIP3   OH2 3779   3.393   5.182   0.960
 1258TIP3    H1 3780   3.387   5.099   0.911
 1258TIP3    H2 3781   3.309   5.225   0.943
 1259TIP3   OH2 3782   2.554   5.319   0.887
 1259TIP3    H1 3783   2.648   5.318   0.905
 1259TIP3    H2 3784   2.522   5.237   0.925
 1260TIP3   OH2 3785   4.489   5.212   0.609
 1260TIP3    H1 3786   4.448   5.125   0.607
 1260TIP3    H2 3787   4.520   5.226   0.520
 1261TIP3   OH2 3788   2.515   4.955   0.271
 1261TIP3    H1 3789   2.583   4.904   0.315
 1261TIP3    H2 3790   2.536   5.046   0.292
 1262TIP3   OH2 3791   2.235   5.380   0.286
 1262TIP3    H1 3792   2.255   5.381   0.193
 1262TIP3    H2 3793   2.313   5.345   0.328
 1263TIP3   OH2 3794   2.506   4.858   0.621
 1263TIP3    H1 3795   2.455   4.860   0.702
 1263TIP3    H2 3796   2.453   4.905   0.558
 1264TIP3   OH2 3797   2.822   4.997   0.863
 1264TIP3    H1 3798   2.787   4.930   0.923
 1264TIP3    H2 3799   2.915   5.001   0.884
 1265TIP3   OH2 3800   3.072   4.996   0.988
 1265TIP3    H1 3801   3.154   4.972   0.945
 1265TIP3    H2 3802   3.057   4.927   1.052
 1266TIP3   OH2 3803   3.900   5.063   0.814
 1266TIP3    H1 3804   3.923   5.027   0.899
 1266TIP3    H2 3805   3.959   5.019   0.753
 1267TIP3   OH2 3806   1.299   0.325   3.380
 1267TIP3    H1 3807   1.276   0.414   3.408
 1267TIP3    H2 3808   1.268   0.269   3.451
 1268TIP3   OH2 3809   1.276   0.233   3.813
 1268TIP3    H1 3810   1.306   0.198   3.897
 1268TIP3    H2 3811   1.252   0.155   3.762
 1269TIP3   OH2 3812   1.494   0.541   3.514
 1269TIP3    H1 3813   1.500   0.471   3.579
 1269TIP3    H2 3814   1.526   0.619   3.560
 1270TIP3   OH2 3815   1.149   0.971   3.523
 1270TIP3    H1 3816   1.185   0.909   3.459
 1270TIP3    H2 3817   1.161   0.928   3.608
 1271TIP3   OH2 3818   1.072   0.422   3.882
 1271TIP3    H1 3819   1.083   0.346   3.825
 1271TIP3    H2 3820   1.157   0.465   3.882
 1272TIP3   OH2 3821   6.388   5.912   3.838
 1272TIP3    H1 3822   6.413   5.986   3.894
 1272TIP3    H2 3823   6.441   5.923   3.759
 1273TIP3   OH2 3824   5.755   6.048   3.911
 1273TIP3    H1 3825   5.793   5.962   3.933
 1273TIP3    H2 3826   5.740   6.044   3.816
 1274TIP3   OH2 3827   5.861   5.870   3.492
 1274TIP3    H1 3828   5.924   5.862   3.564
 1274TIP3    H2 3829   5.913   5.902   3.418
 1275TIP3   OH2 3830   2.111  -0.006   4.017
 1275TIP3    H1 3831   2.027   0.039   4.015
 1275TIP3    H2 3832   2.152   0.025   4.098
 1276TIP3   OH2 3833   1.146   0.548   3.319
 1276TIP3    H1 3834   1.119   0.483   3.254
 1276TIP3    H2 3835   1.066   0.596   3.340
 1277TIP3   OH2 3836   6.023   5.856   3.703
 1277TIP3    H1 3837   6.053   5.785   3.760
 1277TIP3    H2 3838   6.071   5.933   3.734
 1278TIP3   OH2 3839   1.542   0.781   3.659
 1278TIP3    H1 3840   1.452   0.773   3.691
 1278TIP3    H2 3841   1.544   0.864   3.612
 1279TIP3   OH2 3842   1.242   0.816   3.319
 1279TIP3    H1 3843   1.282   0.730   3.308
 1279TIP3    H2 3844   1.308   0.878   3.287
 1280TIP3   OH2 3845   1.423   0.606   3.253
 1280TIP3    H1 3846   1.361   0.535   3.236
 1280TIP3    H2 3847   1.464   0.582   3.336
 1281TIP3   OH2 3848   1.773   0.676   4.004
 1281TIP3    H1 3849   1.766   0.602   3.944
 1281TIP3    H2 3850   1.761   0.753   3.948
 1282TIP3   OH2 3851   1.096   0.045   3.259
 1282TIP3    H1 3852   1.019   0.096   3.232
 1282TIP3    H2 3853   1.141   0.025   3.177
 1283TIP3   OH2 3854   1.969   0.332   3.860
 1283TIP3    H1 3855   1.887   0.381   3.859
 1283TIP3    H2 3856   2.003   0.342   3.771
 1284TIP3   OH2 3857   1.448   0.181   3.208
 1284TIP3    H1 3858   1.403   0.235   3.272
 1284TIP3    H2 3859   1.521   0.142   3.256
 1285TIP3   OH2 3860   1.645   0.217   4.151
 1285TIP3    H1 3861   1.644   0.297   4.203
 1285TIP3    H2 3862   1.560   0.218   4.105
 1286TIP3   OH2 3863   0.828   0.529   3.828
 1286TIP3    H1 3864   0.802   0.561   3.742
 1286TIP3    H2 3865   0.920   0.505   3.818
 1287TIP3   OH2 3866   1.296   0.768   3.780
 1287TIP3    H1 3867   1.292   0.850   3.831
 1287TIP3    H2 3868   1.295   0.699   3.847
 1288TIP3   OH2 3869   0.905   0.662   4.307
 1288TIP3    H1 3870   0.892   0.738   4.364
 1288TIP3    H2 3871   0.816   0.631   4.288
 1289TIP3   OH2 3872   1.299  -0.017   3.074
 1289TIP3    H1 3873   1.350   0.060   3.100
 1289TIP3    H2 3874   1.309  -0.021   2.978
 1290TIP3   OH2 3875   0.956   0.743   3.345
 1290TIP3    H1 3876   1.049   0.766   3.354
 1290TIP3    H2 3877   0.921   0.807   3.284
 1291TIP3   OH2 3878   0.720   0.848   4.401
 1291TIP3    H1 3879   0.706   0.859   4.307
 1291TIP3    H2 3880   0.634   0.829   4.436
 1292TIP3   OH2 3881   1.586   0.613   2.663
 1292TIP3    H1 3882   1.582   0.708   2.649
 1292TIP3    H2 3883   1.676   0.589   2.644
 1293TIP3   OH2 3884   2.011   1.032   4.065
 1293TIP3    H1 3885   2.016   0.938   4.079
 1293TIP3    H2 3886   1.930   1.059   4.109
 1294TIP3   OH2 3887   1.108   0.815   4.181
 1294TIP3    H1 3888   1.110   0.906   4.212
 1294TIP3    H2 3889   1.038   0.774   4.232
 1295TIP3   OH2 3890   0.881   0.931   3.151
 1295TIP3    H1 3891   0.844   0.929   3.063
 1295TIP3    H2 3892   0.859   1.019   3.184
 1296TIP3   OH2 3893   0.215   0.807   3.644
 1296TIP3    H1 3894   0.302   0.773   3.662
 1296TIP3    H2 3895   0.179   0.748   3.578
 1297TIP3   OH2 3896   1.098   0.847   2.792
 1297TIP3    H1 3897   1.149   0.778   2.751
 1297TIP3    H2 3898   1.136   0.856   2.879
 1298TIP3   OH2 3899   1.143   0.897   3.058
 1298TIP3    H1 3900   1.060   0.902   3.106
 1298TIP3    H2 3901   1.207   0.867   3.122
 1299TIP3   OH2 3902   1.922   0.152   4.350
 1299TIP3    H1 3903   1.827   0.159   4.340
 1299TIP3    H2 3904   1.943   0.062   4.324
 1300TIP3   OH2 3905   1.674  -0.024   4.285
 1300TIP3    H1 3906   1.658   0.005   4.375
 1300TIP3    H2 3907   1.651   0.051   4.231
 1301TIP3   OH2 3908   1.317   0.069   2.772
 1301TIP3    H1 3909   1.238   0.117   2.749
 1301TIP3    H2 3910   1.386   0.136   2.778
 1302TIP3   OH2 3911   5.453   5.986   3.449
 1302TIP3    H1 3912   5.411   6.047   3.387
 1302TIP3    H2 3913   5.507   5.929   3.394
 1303TIP3   OH2 3914   1.395   0.146   4.473
 1303TIP3    H1 3915   1.372   0.173   4.562
 1303TIP3    H2 3916   1.487   0.120   4.480
 1304TIP3   OH2 3917   5.711   6.049   3.642
 1304TIP3    H1 3918   5.633   6.069   3.590
 1304TIP3    H2 3919   5.759   5.986   3.588
 1305TIP3   OH2 3920   1.387   0.147   4.054
 1305TIP3    H1 3921   1.410   0.068   4.006
 1305TIP3    H2 3922   1.356   0.116   4.139
 1306TIP3   OH2 3923   1.721   1.375   4.159
 1306TIP3    H1 3924   1.717   1.398   4.066
 1306TIP3    H2 3925   1.798   1.420   4.192
 1307TIP3   OH2 3926   0.846   0.159   3.263
 1307TIP3    H1 3927   0.757   0.168   3.229
 1307TIP3    H2 3928   0.857   0.233   3.323
 1308TIP3   OH2 3929   1.733   0.473   3.825
 1308TIP3    H1 3930   1.771   0.520   3.751
 1308TIP3    H2 3931   1.654   0.431   3.790
 1309TIP3   OH2 3932   1.181   0.536   4.215
 1309TIP3    H1 3933   1.250   0.509   4.276
 1309TIP3    H2 3934   1.185   0.632   4.215
 1310TIP3   OH2 3935   5.583   5.862   3.193
 1310TIP3    H1 3936   5.667   5.817   3.194
 1310TIP3    H2 3937   5.592   5.927   3.123
 1311TIP3   OH2 3938   1.052   0.464   2.959
 1311TIP3    H1 3939   0.997   0.531   2.999
 1311TIP3    H2 3940   1.057   0.395   3.025
 1312TIP3   OH2 3941   1.380   0.810   4.117
 1312TIP3    H1 3942   1.285   0.821   4.121
 1312TIP3    H2 3943   1.413   0.862   4.190
 1313TIP3   OH2 3944   6.140   6.011   3.044
 1313TIP3    H1 3945   6.079   5.957   2.994
 1313TIP3    H2 3946   6.141   6.094   2.997
 1314TIP3   OH2 3947   2.023   0.747   4.092
 1314TIP3    H1 3948   1.928   0.740   4.083
 1314TIP3    H2 3949   2.057   0.719   4.007
 1315TIP3   OH2 3950   1.511   0.696   2.932
 1315TIP3    H1 3951   1.493   0.630   2.999
 1315TIP3    H2 3952   1.527   0.646   2.852
 1316TIP3   OH2 3953   1.508   0.346   3.721
 1316TIP3    H1 3954   1.421   0.320   3.752
 1316TIP3    H2 3955   1.547   0.265   3.688
 1317TIP3   OH2 3956   0.762   0.620   3.583
 1317TIP3    H1 3957   0.794   0.666   3.505
 1317TIP3    H2 3958   0.675   0.589   3.558
 1318TIP3   OH2 3959   0.870   0.345   3.477
 1318TIP3    H1 3960   0.859   0.440   3.479
 1318TIP3    H2 3961   0.784   0.310   3.498
 1319TIP3   OH2 3962   0.928   0.883   3.973
 1319TIP3    H1 3963   0.958   0.958   3.923
 1319TIP3    H2 3964   1.002   0.860   4.030
 1320TIP3   OH2 3965   0.589   0.810   3.364
 1320TIP3    H1 3966   0.494   0.822   3.361
 1320TIP3    H2 3967   0.623   0.899   3.378
 1321TIP3   OH2 3968   1.302   0.544   3.953
 1321TIP3    H1 3969   1.297   0.543   4.049
 1321TIP3    H2 3970   1.388   0.507   3.933
 1322TIP3   OH2 3971   1.288   0.443   2.833
 1322TIP3    H1 3972   1.350   0.422   2.902
 1322TIP3    H2 3973   1.204   0.455   2.878
 1323TIP3   OH2 3974   1.534   1.058   3.992
 1323TIP3    H1 3975   1.454   1.005   3.989
 1323TIP3    H2 3976   1.522   1.122   3.922
 1324TIP3   OH2 3977   1.592   0.890   2.639
 1324TIP3    H1 3978   1.622   0.954   2.574
 1324TIP3    H2 3979   1.519   0.933   2.683
 1325TIP3   OH2 3980   1.463   0.373   3.020
 1325TIP3    H1 3981   1.445   0.306   3.086
 1325TIP3    H2 3982   1.559   0.370   3.009
 1326TIP3   OH2 3983   0.532   0.411   3.121
 1326TIP3    H1 3984   0.618   0.385   3.088
 1326TIP3    H2 3985   0.531   0.506   3.113
 1327TIP3   OH2 3986   0.885   0.649   3.063
 1327TIP3    H1 3987   0.797   0.658   3.101
 1327TIP3    H2 3988   0.900   0.733   3.018
 1328TIP3   OH2 3989   0.581   0.692   3.121
 1328TIP3    H1 3990   0.555   0.747   3.047
 1328TIP3    H2 3991   0.571   0.748   3.197
 1329TIP3   OH2 3992   6.270   6.028   4.243
 1329TIP3    H1 3993   6.174   6.025   4.246
 1329TIP3    H2 3994   6.292   5.996   4.156
 1330TIP3   OH2 3995   1.594   0.095   3.638
 1330TIP3    H1 3996   1.521   0.034   3.647
 1330TIP3    H2 3997   1.666   0.053   3.684
 1331TIP3   OH2 3998   1.564   1.044   3.571
 1331TIP3    H1 3999   1.522   1.093   3.500
 1331TIP3    H2 4000   1.658   1.059   3.559
 1332TIP3   OH2 4001   0.831   1.016   4.592
 1332TIP3    H1 4002   0.920   0.983   4.601
 1332TIP3    H2 4003   0.794   0.966   4.519
 1333TIP3   OH2 4004   0.856   0.624   2.710
 1333TIP3    H1 4005   0.802   0.553   2.745
 1333TIP3    H2 4006   0.946   0.592   2.716
 1334TIP3   OH2 4007   1.445   0.944   4.346
 1334TIP3    H1 4008   1.448   0.875   4.412
 1334TIP3    H2 4009   1.521   0.999   4.365
 1335TIP3   OH2 4010   1.231   0.650   2.664
 1335TIP3    H1 4011   1.266   0.582   2.722
 1335TIP3    H2 4012   1.279   0.637   2.582
 1336TIP3   OH2 4013   1.096   0.606   4.514
 1336TIP3    H1 4014   1.041   0.593   4.437
 1336TIP3    H2 4015   1.136   0.521   4.530
 1337TIP3   OH2 4016   1.546   0.593   4.137
 1337TIP3    H1 4017   1.629   0.620   4.096
 1337TIP3    H2 4018   1.489   0.669   4.129
 1338TIP3   OH2 4019   1.439   0.490   4.498
 1338TIP3    H1 4020   1.513   0.470   4.441
 1338TIP3    H2 4021   1.451   0.434   4.574
 1339TIP3   OH2 4022   1.596   0.155   2.637
 1339TIP3    H1 4023   1.547   0.092   2.584
 1339TIP3    H2 4024   1.545   0.236   2.633
 1340TIP3   OH2 4025   1.665   0.110   4.534
 1340TIP3    H1 4026   1.681   0.067   4.619
 1340TIP3    H2 4027   1.691   0.201   4.548
 1341TIP3   OH2 4028   1.676   0.445   4.324
 1341TIP3    H1 4029   1.625   0.501   4.266
 1341TIP3    H2 4030   1.767   0.457   4.294
 1342TIP3   OH2 4031   0.568   0.889   2.929
 1342TIP3    H1 4032   0.661   0.889   2.903
 1342TIP3    H2 4033   0.527   0.952   2.870
 1343TIP3   OH2 4034   1.828   1.113   3.557
 1343TIP3    H1 4035   1.852   1.147   3.643
 1343TIP3    H2 4036   1.888   1.157   3.497
 1344TIP3   OH2 4037   1.848   1.139   3.842
 1344TIP3    H1 4038   1.806   1.054   3.833
 1344TIP3    H2 4039   1.922   1.124   3.900
 1345TIP3   OH2 4040   1.897   0.829   4.412
 1345TIP3    H1 4041   1.828   0.839   4.478
 1345TIP3    H2 4042   1.943   0.913   4.413
 1346TIP3   OH2 4043   1.733   0.333   3.005
 1346TIP3    H1 4044   1.792   0.404   2.979
 1346TIP3    H2 4045   1.769   0.301   3.088
 1347TIP3   OH2 4046   1.839   0.220   3.229
 1347TIP3    H1 4047   1.776   0.176   3.286
 1347TIP3    H2 4048   1.908   0.250   3.288
 1348TIP3   OH2 4049   1.898   0.604   3.649
 1348TIP3    H1 4050   1.953   0.535   3.612
 1348TIP3    H2 4051   1.904   0.676   3.587
 1349TIP3   OH2 4052   1.713   0.894   3.849
 1349TIP3    H1 4053   1.644   0.940   3.898
 1349TIP3    H2 4054   1.666   0.853   3.776
 1350TIP3   OH2 4055   1.758   0.102   2.858
 1350TIP3    H1 4056   1.701   0.119   2.783
 1350TIP3    H2 4057   1.745   0.179   2.915
 1351TIP3   OH2 4058   5.984   5.927   2.843
 1351TIP3    H1 4059   5.997   6.008   2.794
 1351TIP3    H2 4060   5.965   5.861   2.776
 1352TIP3   OH2 4061   1.654   0.072   3.367
 1352TIP3    H1 4062   1.668  -0.022   3.360
 1352TIP3    H2 4063   1.635   0.087   3.460
 1353TIP3   OH2 4064   1.928   0.496   4.225
 1353TIP3    H1 4065   1.994   0.430   4.204
 1353TIP3    H2 4066   1.948   0.569   4.166
 1354TIP3   OH2 4067   2.108   0.293   4.212
 1354TIP3    H1 4068   2.037   0.249   4.259
 1354TIP3    H2 4069   2.182   0.232   4.217
 1355TIP3   OH2 4070   6.053   5.919   3.295
 1355TIP3    H1 4071   6.087   5.830   3.292
 1355TIP3    H2 4072   6.090   5.961   3.217
 1356TIP3   OH2 4073   6.135   6.097   3.765
 1356TIP3    H1 4074   6.219   6.108   3.721
 1356TIP3    H2 4075   6.150   6.130   3.854
 1357TIP3   OH2 4076   1.860   0.117   3.994
 1357TIP3    H1 4077   1.787   0.151   4.047
 1357TIP3    H2 4078   1.895   0.193   3.949
 1358TIP3   OH2 4079   1.394   1.003   3.201
 1358TIP3    H1 4080   1.452   0.992   3.125
 1358TIP3    H2 4081   1.438   1.069   3.255
 1359TIP3   OH2 4082   0.701   0.849   4.129
 1359TIP3    H1 4083   0.655   0.925   4.094
 1359TIP3    H2 4084   0.782   0.844   4.078
 1360TIP3   OH2 4085   1.110   1.078   4.265
 1360TIP3    H1 4086   1.147   1.077   4.353
 1360TIP3    H2 4087   1.170   1.133   4.214
 1361TIP3   OH2 4088   1.299   1.236   4.140
 1361TIP3    H1 4089   1.368   1.187   4.095
 1361TIP3    H2 4090   1.347   1.295   4.198
 1362TIP3   OH2 4091   0.359   1.109   4.123
 1362TIP3    H1 4092   0.287   1.168   4.100
 1362TIP3    H2 4093   0.316   1.034   4.165
 1363TIP3   OH2 4094   0.610   1.084   4.020
 1363TIP3    H1 4095   0.528   1.103   4.065
 1363TIP3    H2 4096   0.595   1.110   3.930
 1364TIP3   OH2 4097   1.012   1.095   3.818
 1364TIP3    H1 4098   0.948   1.113   3.750
 1364TIP3    H2 4099   1.028   1.180   3.859
 1365TIP3   OH2 4100   1.278   1.029   3.870
 1365TIP3    H1 4101   1.186   1.052   3.852
 1365TIP3    H2 4102   1.328   1.098   3.826
 1366TIP3   OH2 4103   1.472   1.211   3.770
 1366TIP3    H1 4104   1.470   1.299   3.732
 1366TIP3    H2 4105   1.505   1.155   3.700
 1367TIP3   OH2 4106   0.471   0.729   3.719
 1367TIP3    H1 4107   0.479   0.665   3.789
 1367TIP3    H2 4108   0.545   0.788   3.731
 1368TIP3   OH2 4109   0.728   0.850   3.774
 1368TIP3    H1 4110   0.763   0.768   3.738
 1368TIP3    H2 4111   0.781   0.867   3.851
 1369TIP3   OH2 4112   0.837   0.848   2.872
 1369TIP3    H1 4113   0.924   0.880   2.851
 1369TIP3    H2 4114   0.818   0.783   2.804
 1370TIP3   OH2 4115   1.546   0.964   2.972
 1370TIP3    H1 4116   1.541   0.869   2.962
 1370TIP3    H2 4117   1.504   0.999   2.893
 1371TIP3   OH2 4118   1.758   1.101   4.160
 1371TIP3    H1 4119   1.684   1.073   4.107
 1371TIP3    H2 4120   1.749   1.196   4.168
 1372TIP3   OH2 4121   3.037   0.487   2.905
 1372TIP3    H1 4122   3.007   0.575   2.881
 1372TIP3    H2 4123   2.965   0.429   2.881
 1373TIP3   OH2 4124   3.033   0.498   3.306
 1373TIP3    H1 4125   3.081   0.476   3.386
 1373TIP3    H2 4126   2.994   0.416   3.277
 1374TIP3   OH2 4127   2.329   0.365   3.671
 1374TIP3    H1 4128   2.365   0.308   3.739
 1374TIP3    H2 4129   2.406   0.400   3.625
 1375TIP3   OH2 4130   3.296   0.790   2.998
 1375TIP3    H1 4131   3.282   0.726   3.067
 1375TIP3    H2 4132   3.322   0.870   3.044
 1376TIP3   OH2 4133   2.318   0.778   3.375
 1376TIP3    H1 4134   2.305   0.683   3.378
 1376TIP3    H2 4135   2.412   0.788   3.363
 1377TIP3   OH2 4136   2.017   0.021   3.157
 1377TIP3    H1 4137   1.961   0.096   3.175
 1377TIP3    H2 4138   1.958  -0.045   3.122
 1378TIP3   OH2 4139   2.075   0.280   3.360
 1378TIP3    H1 4140   2.123   0.201   3.385
 1378TIP3    H2 4141   2.142   0.337   3.321
 1379TIP3   OH2 4142   2.947   1.229   3.006
 1379TIP3    H1 4143   2.980   1.162   2.947
 1379TIP3    H2 4144   2.940   1.185   3.091
 1380TIP3   OH2 4145   2.836   0.708   3.335
 1380TIP3    H1 4146   2.879   0.629   3.300
 1380TIP3    H2 4147   2.909   0.763   3.366
 1381TIP3   OH2 4148   3.826   0.077   3.334
 1381TIP3    H1 4149   3.863   0.141   3.394
 1381TIP3    H2 4150   3.901   0.045   3.283
 1382TIP3   OH2 4151   3.237   0.171   3.381
 1382TIP3    H1 4152   3.297   0.098   3.369
 1382TIP3    H2 4153   3.197   0.183   3.294
 1383TIP3   OH2 4154   0.420   5.996   3.353
 1383TIP3    H1 4155   0.392   6.053   3.281
 1383TIP3    H2 4156   0.419   5.908   3.315
 1384TIP3   OH2 4157   1.102   6.122   2.944
 1384TIP3    H1 4158   1.187   6.086   2.971
 1384TIP3    H2 4159   1.124   6.188   2.879
 1385TIP3   OH2 4160   2.219   0.062   3.446
 1385TIP3    H1 4161   2.303   0.050   3.491
 1385TIP3    H2 4162   2.228   0.009   3.367
 1386TIP3   OH2 4163   2.642   0.263   3.260
 1386TIP3    H1 4164   2.737   0.258   3.253
 1386TIP3    H2 4165   2.612   0.177   3.230
 1387TIP3   OH2 4166   3.895   0.265   3.526
 1387TIP3    H1 4167   3.816   0.320   3.519
 1387TIP3    H2 4168   3.947   0.307   3.595
 1388TIP3   OH2 4169   0.376   5.966   3.782
 1388TIP3    H1 4170   0.341   6.006   3.702
 1388TIP3    H2 4171   0.332   6.013   3.853
 1389TIP3   OH2 4172   2.931   0.704   2.769
 1389TIP3    H1 4173   2.891   0.680   2.686
 1389TIP3    H2 4174   2.880   0.779   2.800
 1390TIP3   OH2 4175   2.685   0.631   3.552
 1390TIP3    H1 4176   2.630   0.701   3.587
 1390TIP3    H2 4177   2.733   0.671   3.480
 1391TIP3   OH2 4178   3.469   0.022   3.230
 1391TIP3    H1 4179   3.519  -0.036   3.288
 1391TIP3    H2 4180   3.522   0.101   3.223
 1392TIP3   OH2 4181   0.285   6.099   3.561
 1392TIP3    H1 4182   0.340   6.173   3.585
 1392TIP3    H2 4183   0.333   6.055   3.491
 1393TIP3   OH2 4184   2.523   0.830   3.657
 1393TIP3    H1 4185   2.507   0.919   3.626
 1393TIP3    H2 4186   2.445   0.809   3.709
 1394TIP3   OH2 4187   1.900   0.527   2.901
 1394TIP3    H1 4188   1.867   0.549   2.814
 1394TIP3    H2 4189   1.927   0.612   2.938
 1395TIP3   OH2 4190   3.344   1.033   3.140
 1395TIP3    H1 4191   3.258   1.024   3.180
 1395TIP3    H2 4192   3.341   1.117   3.095
 1396TIP3   OH2 4193   3.046   1.066   2.803
 1396TIP3    H1 4194   3.097   0.986   2.789
 1396TIP3    H2 4195   3.103   1.136   2.771
 1397TIP3   OH2 4196   3.191   0.841   2.747
 1397TIP3    H1 4197   3.126   0.771   2.736
 1397TIP3    H2 4198   3.237   0.819   2.827
 1398TIP3   OH2 4199   3.575   0.930   3.487
 1398TIP3    H1 4200   3.558   0.855   3.430
 1398TIP3    H2 4201   3.556   1.006   3.432
 1399TIP3   OH2 4202   2.862   0.329   2.757
 1399TIP3    H1 4203   2.780   0.376   2.740
 1399TIP3    H2 4204   2.908   0.331   2.673
 1400TIP3   OH2 4205   2.824   0.135   2.459
 1400TIP3    H1 4206   2.888   0.188   2.505
 1400TIP3    H2 4207   2.876   0.073   2.408
 1401TIP3   OH2 4208   3.764   0.596   3.346
 1401TIP3    H1 4209   3.680   0.642   3.345
 1401TIP3    H2 4210   3.797   0.604   3.257
 1402TIP3   OH2 4211   3.218   0.416   2.715
 1402TIP3    H1 4212   3.162   0.445   2.787
 1402TIP3    H2 4213   3.303   0.399   2.755
 1403TIP3   OH2 4214   3.431   0.485   3.636
 1403TIP3    H1 4215   3.426   0.564   3.689
 1403TIP3    H2 4216   3.348   0.483   3.588
 1404TIP3   OH2 4217   2.443   0.403   3.129
 1404TIP3    H1 4218   2.404   0.344   3.065
 1404TIP3    H2 4219   2.516   0.353   3.167
 1405TIP3   OH2 4220   2.579   0.821   3.268
 1405TIP3    H1 4221   2.560   0.803   3.176
 1405TIP3    H2 4222   2.667   0.784   3.282
 1406TIP3   OH2 4223   2.553   0.400   3.488
 1406TIP3    H1 4224   2.592   0.362   3.409
 1406TIP3    H2 4225   2.607   0.477   3.507
 1407TIP3   OH2 4226   3.108   1.023   3.273
 1407TIP3    H1 4227   3.093   1.103   3.323
 1407TIP3    H2 4228   3.092   0.952   3.335
 1408TIP3   OH2 4229   2.723   0.932   3.819
 1408TIP3    H1 4230   2.663   0.991   3.865
 1408TIP3    H2 4231   2.666   0.880   3.763
 1409TIP3   OH2 4232   3.040   0.291   2.546
 1409TIP3    H1 4233   3.102   0.347   2.594
 1409TIP3    H2 4234   3.070   0.296   2.455
 1410TIP3   OH2 4235   2.480   0.495   3.943
 1410TIP3    H1 4236   2.481   0.587   3.969
 1410TIP3    H2 4237   2.387   0.472   3.939
 1411TIP3   OH2 4238   2.798   0.946   2.814
 1411TIP3    H1 4239   2.881   0.994   2.818
 1411TIP3    H2 4240   2.740   1.004   2.765
 1412TIP3   OH2 4241   2.513   1.090   3.903
 1412TIP3    H1 4242   2.487   1.100   3.811
 1412TIP3    H2 4243   2.430   1.074   3.949
 1413TIP3   OH2 4244   2.316   0.246   2.935
 1413TIP3    H1 4245   2.242   0.292   2.895
 1413TIP3    H2 4246   2.293   0.153   2.928
 1414TIP3   OH2 4247   3.382   0.879   2.155
 1414TIP3    H1 4248   3.380   0.973   2.137
 1414TIP3    H2 4249   3.472   0.852   2.136
 1415TIP3   OH2 4250   2.096   0.645   3.851
 1415TIP3    H1 4251   2.031   0.625   3.784
 1415TIP3    H2 4252   2.135   0.561   3.873
 1416TIP3   OH2 4253   1.961   0.827   3.489
 1416TIP3    H1 4254   2.056   0.827   3.476
 1416TIP3    H2 4255   1.944   0.906   3.540
 1417TIP3   OH2 4256   3.809   1.297   3.550
 1417TIP3    H1 4257   3.815   1.202   3.561
 1417TIP3    H2 4258   3.728   1.321   3.595
 1418TIP3   OH2 4259   2.912   1.068   3.675
 1418TIP3    H1 4260   2.908   1.160   3.702
 1418TIP3    H2 4261   2.845   1.025   3.727
 1419TIP3   OH2 4262   2.689   1.178   2.632
 1419TIP3    H1 4263   2.643   1.159   2.550
 1419TIP3    H2 4264   2.654   1.263   2.660
 1420TIP3   OH2 4265   2.120   1.031   3.014
 1420TIP3    H1 4266   2.167   1.024   3.097
 1420TIP3    H2 4267   2.074   0.947   3.006
 1421TIP3   OH2 4268   2.889   1.101   2.262
 1421TIP3    H1 4269   2.940   1.028   2.226
 1421TIP3    H2 4270   2.924   1.113   2.350
 1422TIP3   OH2 4271   2.942   1.149   2.530
 1422TIP3    H1 4272   2.857   1.152   2.573
 1422TIP3    H2 4273   3.002   1.118   2.598
 1423TIP3   OH2 4274   3.696   0.434   3.847
 1423TIP3    H1 4275   3.605   0.444   3.819
 1423TIP3    H2 4276   3.714   0.340   3.837
 1424TIP3   OH2 4277   2.302   0.826   3.822
 1424TIP3    H1 4278   2.351   0.817   3.904
 1424TIP3    H2 4279   2.229   0.764   3.830
 1425TIP3   OH2 4280   3.447   0.237   3.744
 1425TIP3    H1 4281   3.414   0.231   3.834
 1425TIP3    H2 4282   3.430   0.328   3.718
 1426TIP3   OH2 4283   3.137   0.286   2.294
 1426TIP3    H1 4284   3.090   0.279   2.211
 1426TIP3    H2 4285   3.220   0.328   2.271
 1427TIP3   OH2 4286   2.616   0.174   3.628
 1427TIP3    H1 4287   2.585   0.185   3.717
 1427TIP3    H2 4288   2.593   0.256   3.584
 1428TIP3   OH2 4289   2.498   0.039   3.163
 1428TIP3    H1 4290   2.408   0.011   3.176
 1428TIP3    H2 4291   2.515   0.023   3.070
 1429TIP3   OH2 4292   3.002   0.138   2.889
 1429TIP3    H1 4293   2.946   0.205   2.850
 1429TIP3    H2 4294   3.049   0.099   2.815
 1430TIP3   OH2 4295   3.179   0.428   3.982
 1430TIP3    H1 4296   3.162   0.355   4.042
 1430TIP3    H2 4297   3.274   0.442   3.990
 1431TIP3   OH2 4298   3.166   0.181   3.115
 1431TIP3    H1 4299   3.088   0.213   3.069
 1431TIP3    H2 4300   3.195   0.105   3.064
 1432TIP3   OH2 4301   2.463   0.209   3.855
 1432TIP3    H1 4302   2.502   0.274   3.914
 1432TIP3    H2 4303   2.457   0.129   3.907
 1433TIP3   OH2 4304   0.362   5.933   2.571
 1433TIP3    H1 4305   0.363   5.887   2.655
 1433TIP3    H2 4306   0.270   5.953   2.555
 1434TIP3   OH2 4307   6.405   5.809   3.400
 1434TIP3    H1 4308   6.431   5.895   3.434
 1434TIP3    H2 4309   6.442   5.747   3.463
 1435TIP3   OH2 4310   6.382   5.861   3.008
 1435TIP3    H1 4311   6.395   5.882   2.915
 1435TIP3    H2 4312   6.293   5.891   3.027
 1436TIP3   OH2 4313   3.190   0.408   3.514
 1436TIP3    H1 4314   3.210   0.327   3.466
 1436TIP3    H2 4315   3.153   0.378   3.597
 1437TIP3   OH2 4316   0.674   6.110   3.263
 1437TIP3    H1 4317   0.600   6.083   3.318
 1437TIP3    H2 4318   0.738   6.039   3.273
 1438TIP3   OH2 4319   0.088   6.041   3.214
 1438TIP3    H1 4320   0.009   6.085   3.184
 1438TIP3    H2 4321   0.072   5.948   3.196
 1439TIP3   OH2 4322   0.361   6.067   2.909
 1439TIP3    H1 4323   0.453   6.089   2.896
 1439TIP3    H2 4324   0.317   6.101   2.832
 1440TIP3   OH2 4325   2.379   0.020   2.694
 1440TIP3    H1 4326   2.312  -0.033   2.649
 1440TIP3    H2 4327   2.444   0.039   2.627
 1441TIP3   OH2 4328   3.518   1.633   3.645
 1441TIP3    H1 4329   3.511   1.657   3.552
 1441TIP3    H2 4330   3.595   1.679   3.676
 1442TIP3   OH2 4331   2.458   0.749   4.059
 1442TIP3    H1 4332   2.540   0.770   4.104
 1442TIP3    H2 4333   2.391   0.752   4.127
 1443TIP3   OH2 4334   2.921   0.245   3.280
 1443TIP3    H1 4335   2.918   0.155   3.247
 1443TIP3    H2 4336   2.912   0.236   3.375
 1444TIP3   OH2 4337   2.875   0.187   3.536
 1444TIP3    H1 4338   2.784   0.177   3.563
 1444TIP3    H2 4339   2.926   0.151   3.609
 1445TIP3   OH2 4340   2.632   0.475   2.702
 1445TIP3    H1 4341   2.558   0.419   2.681
 1445TIP3    H2 4342   2.610   0.513   2.787
 1446TIP3   OH2 4343   3.523   0.723   3.311
 1446TIP3    H1 4344   3.553   0.773   3.235
 1446TIP3    H2 4345   3.440   0.684   3.282
 1447TIP3   OH2 4346   0.839   5.990   2.523
 1447TIP3    H1 4347   0.884   5.906   2.532
 1447TIP3    H2 4348   0.904   6.055   2.549
 1448TIP3   OH2 4349   3.033   0.804   3.710
 1448TIP3    H1 4350   3.080   0.798   3.794
 1448TIP3    H2 4351   2.993   0.891   3.711
 1449TIP3   OH2 4352   3.161   0.076   2.662
 1449TIP3    H1 4353   3.251   0.111   2.664
 1449TIP3    H2 4354   3.111   0.143   2.616
 1450TIP3   OH2 4355   2.323   0.496   3.359
 1450TIP3    H1 4356   2.357   0.476   3.272
 1450TIP3    H2 4357   2.388   0.461   3.419
 1451TIP3   OH2 4358   2.782   0.632   2.538
 1451TIP3    H1 4359   2.734   0.715   2.537
 1451TIP3    H2 4360   2.729   0.574   2.592
 1452TIP3   OH2 4361   2.211   0.427   3.983
 1452TIP3    H1 4362   2.221   0.408   4.077
 1452TIP3    H2 4363   2.140   0.368   3.955
 1453TIP3   OH2 4364   2.933   0.552   4.014
 1453TIP3    H1 4365   2.868   0.496   3.970
 1453TIP3    H2 4366   3.017   0.520   3.983
 1454TIP3   OH2 4367   3.185   1.076   3.600
 1454TIP3    H1 4368   3.090   1.068   3.606
 1454TIP3    H2 4369   3.211   1.122   3.680
 1455TIP3   OH2 4370   3.601   0.145   2.495
 1455TIP3    H1 4371   3.543   0.102   2.432
 1455TIP3    H2 4372   3.610   0.234   2.462
 1456TIP3   OH2 4373   3.821   1.015   3.572
 1456TIP3    H1 4374   3.726   1.005   3.567
 1456TIP3    H2 4375   3.853   0.980   3.489
 1457TIP3   OH2 4376   3.310   0.954   2.421
 1457TIP3    H1 4377   3.278   0.887   2.482
 1457TIP3    H2 4378   3.323   0.907   2.339
 1458TIP3   OH2 4379   3.287   0.597   3.216
 1458TIP3    H1 4380   3.197   0.575   3.236
 1458TIP3    H2 4381   3.323   0.518   3.175
 1459TIP3   OH2 4382   2.439   0.821   3.012
 1459TIP3    H1 4383   2.439   0.898   2.956
 1459TIP3    H2 4384   2.346   0.804   3.030
 1460TIP3   OH2 4385   2.002   0.105   2.721
 1460TIP3    H1 4386   2.046   0.188   2.742
 1460TIP3    H2 4387   1.924   0.105   2.777
 1461TIP3   OH2 4388   2.542   0.577   2.934
 1461TIP3    H1 4389   2.519   0.666   2.959
 1461TIP3    H2 4390   2.511   0.523   3.008
 1462TIP3   OH2 4391   2.720   1.146   3.472
 1462TIP3    H1 4392   2.756   1.218   3.421
 1462TIP3    H2 4393   2.795   1.111   3.520
 1463TIP3   OH2 4394   2.351   1.050   2.862
 1463TIP3    H1 4395   2.266   1.056   2.904
 1463TIP3    H2 4396   2.386   1.139   2.865
 1464TIP3   OH2 4397   3.078   0.801   3.439
 1464TIP3    H1 4398   3.067   0.796   3.534
 1464TIP3    H2 4399   3.153   0.744   3.421
 1465TIP3   OH2 4400   3.067   0.688   2.316
 1465TIP3    H1 4401   3.119   0.662   2.392
 1465TIP3    H2 4402   2.980   0.650   2.333
 1466TIP3   OH2 4403   3.332   1.311   3.480
 1466TIP3    H1 4404   3.256   1.254   3.486
 1466TIP3    H2 4405   3.311   1.372   3.409
 1467TIP3   OH2 4406   3.391   1.153   2.124
 1467TIP3    H1 4407   3.420   1.221   2.062
 1467TIP3    H2 4408   3.316   1.193   2.169
 1468TIP3   OH2 4409   0.273   6.099   3.998
 1468TIP3    H1 4410   0.187   6.064   4.022
 1468TIP3    H2 4411   0.329   6.074   4.071
 1469TIP3   OH2 4412   3.238   0.605   2.512
 1469TIP3    H1 4413   3.225   0.547   2.587
 1469TIP3    H2 4414   3.333   0.613   2.503
 1470TIP3   OH2 4415   2.143   1.030   3.632
 1470TIP3    H1 4416   2.197   0.965   3.677
 1470TIP3    H2 4417   2.166   1.113   3.673
 1471TIP3   OH2 4418   2.426   0.654   2.322
 1471TIP3    H1 4419   2.434   0.562   2.295
 1471TIP3    H2 4420   2.403   0.650   2.415
 1472TIP3   OH2 4421   2.364   0.669   2.593
 1472TIP3    H1 4422   2.437   0.640   2.647
 1472TIP3    H2 4423   2.365   0.765   2.600
 1473TIP3   OH2 4424   2.097   0.357   2.801
 1473TIP3    H1 4425   2.033   0.404   2.854
 1473TIP3    H2 4426   2.120   0.417   2.731
 1474TIP3   OH2 4427   4.102   0.130   2.451
 1474TIP3    H1 4428   4.167   0.185   2.407
 1474TIP3    H2 4429   4.122   0.041   2.421
 1475TIP3   OH2 4430   0.904   5.966   2.860
 1475TIP3    H1 4431   0.944   5.924   2.784
 1475TIP3    H2 4432   0.970   6.028   2.891
 1476TIP3   OH2 4433   2.636   0.859   2.539
 1476TIP3    H1 4434   2.550   0.884   2.574
 1476TIP3    H2 4435   2.659   0.931   2.480
 1477TIP3   OH2 4436   2.791  -0.003   2.993
 1477TIP3    H1 4437   2.870   0.031   2.950
 1477TIP3    H2 4438   2.815  -0.010   3.085
 1478TIP3   OH2 4439   3.111   0.310   3.749
 1478TIP3    H1 4440   3.133   0.352   3.832
 1478TIP3    H2 4441   3.107   0.217   3.770
 1479TIP3   OH2 4442   2.382   0.941   2.611
 1479TIP3    H1 4443   2.361   1.011   2.549
 1479TIP3    H2 4444   2.370   0.981   2.698
 1480TIP3   OH2 4445   0.296   5.799   2.817
 1480TIP3    H1 4446   0.299   5.881   2.868
 1480TIP3    H2 4447   0.287   5.731   2.883
 1481TIP3   OH2 4448   3.709   0.176   3.761
 1481TIP3    H1 4449   3.614   0.173   3.745
 1481TIP3    H2 4450   3.748   0.154   3.676
 1482TIP3   OH2 4451   3.376   0.352   3.118
 1482TIP3    H1 4452   3.300   0.294   3.128
 1482TIP3    H2 4453   3.444   0.312   3.171
 1483TIP3   OH2 4454   2.115   0.546   2.593
 1483TIP3    H1 4455   2.185   0.610   2.602
 1483TIP3    H2 4456   2.148   0.483   2.529
 1484TIP3   OH2 4457   6.370   5.959   2.751
 1484TIP3    H1 4458   6.371   6.054   2.738
 1484TIP3    H2 4459   6.382   5.922   2.664
 1485TIP3   OH2 4460   3.361   1.299   3.057
 1485TIP3    H1 4461   3.319   1.348   2.987
 1485TIP3    H2 4462   3.455   1.313   3.043
 1486TIP3   OH2 4463   1.953   0.796   2.984
 1486TIP3    H1 4464   1.905   0.831   3.059
 1486TIP3    H2 4465   1.914   0.840   2.908
 1487TIP3   OH2 4466   2.144   1.341   4.048
 1487TIP3    H1 4467   2.225   1.348   4.098
 1487TIP3    H2 4468   2.130   1.246   4.038
 1488TIP3   OH2 4469   2.606   1.262   4.098
 1488TIP3    H1 4470   2.701   1.253   4.105
 1488TIP3    H2 4471   2.581   1.204   4.027
 1489TIP3   OH2 4472   2.584   0.853   2.218
 1489TIP3    H1 4473   2.537   0.781   2.259
 1489TIP3    H2 4474   2.658   0.812   2.174
 1490TIP3   OH2 4475   3.240   1.196   3.840
 1490TIP3    H1 4476   3.248   1.128   3.906
 1490TIP3    H2 4477   3.315   1.254   3.857
 1491TIP3   OH2 4478   3.022   0.895   2.140
 1491TIP3    H1 4479   3.054   0.829   2.202
 1491TIP3    H2 4480   3.081   0.887   2.065
 1492TIP3   OH2 4481   2.255   0.732   4.250
 1492TIP3    H1 4482   2.274   0.639   4.258
 1492TIP3    H2 4483   2.170   0.735   4.206
 1493TIP3   OH2 4484   2.240   0.353   2.448
 1493TIP3    H1 4485   2.294   0.333   2.524
 1493TIP3    H2 4486   2.303   0.365   2.376
 1494TIP3   OH2 4487   2.869   0.825   4.025
 1494TIP3    H1 4488   2.828   0.847   3.941
 1494TIP3    H2 4489   2.902   0.735   4.013
 1495TIP3   OH2 4490   2.795   0.578   2.269
 1495TIP3    H1 4491   2.778   0.591   2.363
 1495TIP3    H2 4492   2.784   0.484   2.256
 1496TIP3   OH2 4493   3.350   0.852   3.632
 1496TIP3    H1 4494   3.428   0.884   3.588
 1496TIP3    H2 4495   3.284   0.920   3.617
 1497TIP3   OH2 4496   2.394   0.474   4.248
 1497TIP3    H1 4497   2.475   0.465   4.198
 1497TIP3    H2 4498   2.424   0.502   4.335
 1498TIP3   OH2 4499   2.423   0.305   2.654
 1498TIP3    H1 4500   2.399   0.259   2.735
 1498TIP3    H2 4501   2.469   0.239   2.602
 1499TIP3   OH2 4502   2.725   0.374   3.922
 1499TIP3    H1 4503   2.644   0.425   3.924
 1499TIP3    H2 4504   2.765   0.395   3.838
 1500TIP3   OH2 4505   2.548   0.117   2.497
 1500TIP3    H1 4506   2.521   0.112   2.405
 1500TIP3    H2 4507   2.643   0.114   2.494
 1501TIP3   OH2 4508   3.232   0.749   4.010
 1501TIP3    H1 4509   3.302   0.708   3.960
 1501TIP3    H2 4510   3.222   0.694   4.088
 1502TIP3   OH2 4511   3.363   0.399   2.180
 1502TIP3    H1 4512   3.341   0.360   2.095
 1502TIP3    H2 4513   3.336   0.491   2.172
 1503TIP3   OH2 4514   2.830   0.170   4.069
 1503TIP3    H1 4515   2.791   0.090   4.034
 1503TIP3    H2 4516   2.803   0.238   4.008
 1504TIP3   OH2 4517   2.728   0.028   3.860
 1504TIP3    H1 4518   2.794   0.050   3.795
 1504TIP3    H2 4519   2.679  -0.045   3.822
 1505TIP3   OH2 4520   2.849   0.474   3.708
 1505TIP3    H1 4521   2.937   0.469   3.670
 1505TIP3    H2 4522   2.801   0.534   3.651
 1506TIP3   OH2 4523   3.446   0.457   4.048
 1506TIP3    H1 4524   3.460   0.387   4.111
 1506TIP3    H2 4525   3.531   0.500   4.039
 1507TIP3   OH2 4526   3.471   0.698   3.816
 1507TIP3    H1 4527   3.415   0.755   3.765
 1507TIP3    H2 4528   3.560   0.716   3.784
 1508TIP3   OH2 4529   2.691   0.331   4.261
 1508TIP3    H1 4530   2.623   0.264   4.265
 1508TIP3    H2 4531   2.734   0.318   4.177
 1509TIP3   OH2 4532   3.102   0.198   4.117
 1509TIP3    H1 4533   3.097   0.209   4.212
 1509TIP3    H2 4534   3.011   0.195   4.088
 1510TIP3   OH2 4535   3.347   0.177   3.992
 1510TIP3    H1 4536   3.266   0.173   4.044
 1510TIP3    H2 4537   3.412   0.133   4.046
 1511TIP3   OH2 4538   2.533   0.090   4.302
 1511TIP3    H1 4539   2.605   0.027   4.309
 1511TIP3    H2 4540   2.532   0.135   4.386
 1512TIP3   OH2 4541   2.372   1.145   2.424
 1512TIP3    H1 4542   2.463   1.127   2.401
 1512TIP3    H2 4543   2.337   1.194   2.350
 1513TIP3   OH2 4544   1.843   0.525   2.610
 1513TIP3    H1 4545   1.937   0.544   2.606
 1513TIP3    H2 4546   1.835   0.437   2.573
 1514TIP3   OH2 4547   1.751   1.120   3.065
 1514TIP3    H1 4548   1.688   1.065   3.019
 1514TIP3    H2 4549   1.797   1.061   3.124
 1515TIP3   OH2 4550   1.890   0.955   3.238
 1515TIP3    H1 4551   1.881   0.889   3.306
 1515TIP3    H2 4552   1.942   1.024   3.278
 1516TIP3   OH2 4553   3.631   1.358   3.045
 1516TIP3    H1 4554   3.645   1.391   3.134
 1516TIP3    H2 4555   3.677   1.421   2.990
 1517TIP3   OH2 4556   3.641   1.394   3.325
 1517TIP3    H1 4557   3.596   1.309   3.321
 1517TIP3    H2 4558   3.713   1.380   3.388
 1518TIP3   OH2 4559   3.697   1.083   3.900
 1518TIP3    H1 4560   3.624   1.092   3.961
 1518TIP3    H2 4561   3.741   1.168   3.903
 1519TIP3   OH2 4562   3.514   0.604   2.501
 1519TIP3    H1 4563   3.575   0.672   2.472
 1519TIP3    H2 4564   3.552   0.571   2.582
 1520TIP3   OH2 4565   3.626   0.485   2.717
 1520TIP3    H1 4566   3.563   0.443   2.775
 1520TIP3    H2 4567   3.694   0.519   2.775
 1521TIP3   OH2 4568   3.696   0.863   3.141
 1521TIP3    H1 4569   3.749   0.794   3.100
 1521TIP3    H2 4570   3.696   0.934   3.078
 1522TIP3   OH2 4571   3.508   1.149   3.335
 1522TIP3    H1 4572   3.439   1.192   3.385
 1522TIP3    H2 4573   3.461   1.107   3.262
 1523TIP3   OH2 4574   3.569   0.379   2.357
 1523TIP3    H1 4575   3.497   0.371   2.295
 1523TIP3    H2 4576   3.548   0.456   2.410
 1524TIP3   OH2 4577   3.450   0.054   2.289
 1524TIP3    H1 4578   3.407   0.081   2.208
 1524TIP3    H2 4579   3.389  -0.009   2.328
 1525TIP3   OH2 4580   3.444   0.340   2.854
 1525TIP3    H1 4581   3.446   0.246   2.836
 1525TIP3    H2 4582   3.423   0.345   2.948
 1526TIP3   OH2 4583   2.066   0.391   3.610
 1526TIP3    H1 4584   2.057   0.353   3.523
 1526TIP3    H2 4585   2.160   0.390   3.627
 1527TIP3   OH2 4586   3.715   0.765   3.712
 1527TIP3    H1 4587   3.778   0.698   3.687
 1527TIP3    H2 4588   3.725   0.834   3.647
 1528TIP3   OH2 4589   3.881   0.557   3.691
 1528TIP3    H1 4590   3.814   0.516   3.746
 1528TIP3    H2 4591   3.960   0.506   3.708
 1529TIP3   OH2 4592   1.113   6.008   2.410
 1529TIP3    H1 4593   1.136   5.981   2.499
 1529TIP3    H2 4594   1.143   5.936   2.355
 1530TIP3   OH2 4595   3.432   0.099   2.713
 1530TIP3    H1 4596   3.459   0.009   2.730
 1530TIP3    H2 4597   3.491   0.128   2.643
 1531TIP3   OH2 4598   3.597   0.260   3.251
 1531TIP3    H1 4599   3.674   0.281   3.199
 1531TIP3    H2 4600   3.608   0.311   3.331
 1532TIP3   OH2 4601   3.646   0.391   3.487
 1532TIP3    H1 4602   3.574   0.427   3.538
 1532TIP3    H2 4603   3.687   0.468   3.446
 1533TIP3   OH2 4604   2.261   0.069   4.249
 1533TIP3    H1 4605   2.356   0.078   4.255
 1533TIP3    H2 4606   2.236   0.024   4.330
 1534TIP3   OH2 4607   0.079   5.911   3.611
 1534TIP3    H1 4608   0.144   5.841   3.620
 1534TIP3    H2 4609   0.131   5.991   3.601
 1535TIP3   OH2 4610   2.043   0.050   3.663
 1535TIP3    H1 4611   2.097   0.049   3.584
 1535TIP3    H2 4612   2.086   0.114   3.720
 1536TIP3   OH2 4613   3.191   1.259   2.686
 1536TIP3    H1 4614   3.249   1.251   2.610
 1536TIP3    H2 4615   3.231   1.327   2.740
 1537TIP3   OH2 4616   2.287   1.059   4.064
 1537TIP3    H1 4617   2.193   1.041   4.059
 1537TIP3    H2 4618   2.307   1.054   4.157
 1538TIP3   OH2 4619   2.492   1.105   3.620
 1538TIP3    H1 4620   2.440   1.178   3.587
 1538TIP3    H2 4621   2.577   1.113   3.577
 1539TIP3   OH2 4622   2.903   1.335   3.753
 1539TIP3    H1 4623   2.941   1.329   3.841
 1539TIP3    H2 4624   2.966   1.389   3.704
 1540TIP3   OH2 4625   3.091   1.493   3.628
 1540TIP3    H1 4626   3.157   1.443   3.580
 1540TIP3    H2 4627   3.142   1.552   3.684
 1541TIP3   OH2 4628   2.152   1.350   3.661
 1541TIP3    H1 4629   2.061   1.369   3.638
 1541TIP3    H2 4630   2.175   1.417   3.725
 1542TIP3   OH2 4631   2.383   1.332   3.511
 1542TIP3    H1 4632   2.300   1.341   3.558
 1542TIP3    H2 4633   2.364   1.361   3.422
 1543TIP3   OH2 4634   2.806   1.350   3.304
 1543TIP3    H1 4635   2.737   1.366   3.240
 1543TIP3    H2 4636   2.820   1.435   3.346
 1544TIP3   OH2 4637   3.071   1.286   3.358
 1544TIP3    H1 4638   2.980   1.306   3.338
 1544TIP3    H2 4639   3.121   1.354   3.312
 1545TIP3   OH2 4640   3.269   1.465   3.258
 1545TIP3    H1 4641   3.266   1.552   3.219
 1545TIP3    H2 4642   3.300   1.408   3.187
 1546TIP3   OH2 4643   2.062   1.130   3.384
 1546TIP3    H1 4644   2.086   1.105   3.473
 1546TIP3    H2 4645   2.135   1.100   3.330
 1547TIP3   OH2 4646   2.266   1.015   3.247
 1547TIP3    H1 4647   2.278   0.931   3.293
 1547TIP3    H2 4648   2.353   1.055   3.249
 1548TIP3   OH2 4649   2.534   1.099   3.267
 1548TIP3    H1 4650   2.554   1.006   3.253
 1548TIP3    H2 4651   2.587   1.124   3.342
 1549TIP3   OH2 4652   1.837   0.923   2.771
 1549TIP3    H1 4653   1.753   0.888   2.740
 1549TIP3    H2 4654   1.839   1.013   2.738
 1550TIP3   OH2 4655   2.632   1.080   2.361
 1550TIP3    H1 4656   2.716   1.109   2.325
 1550TIP3    H2 4657   2.605   1.008   2.305
 1551TIP3   OH2 4658   3.347   1.222   2.457
 1551TIP3    H1 4659   3.339   1.127   2.449
 1551TIP3    H2 4660   3.300   1.256   2.381
 1552TIP3   OH2 4661   1.934   0.925   2.422
 1552TIP3    H1 4662   1.941   0.940   2.517
 1552TIP3    H2 4663   2.016   0.881   2.399
 1553TIP3   OH2 4664   3.557   1.360   3.644
 1553TIP3    H1 4665   3.481   1.329   3.593
 1553TIP3    H2 4666   3.543   1.454   3.653
 1554TIP3   OH2 4667   4.829   0.734   2.399
 1554TIP3    H1 4668   4.788   0.815   2.367
 1554TIP3    H2 4669   4.759   0.669   2.394
 1555TIP3   OH2 4670   4.831   0.761   2.793
 1555TIP3    H1 4671   4.877   0.733   2.872
 1555TIP3    H2 4672   4.791   0.681   2.759
 1556TIP3   OH2 4673   4.131   0.616   3.153
 1556TIP3    H1 4674   4.168   0.562   3.223
 1556TIP3    H2 4675   4.207   0.642   3.101
 1557TIP3   OH2 4676   5.096   1.054   2.475
 1557TIP3    H1 4677   5.068   0.986   2.537
 1557TIP3    H2 4678   5.117   1.129   2.530
 1558TIP3   OH2 4679   4.119   1.039   2.863
 1558TIP3    H1 4680   4.102   0.945   2.866
 1558TIP3    H2 4681   4.213   1.046   2.848
 1559TIP3   OH2 4682   3.803   0.293   2.644
 1559TIP3    H1 4683   3.742   0.365   2.661
 1559TIP3    H2 4684   3.748   0.221   2.614
 1560TIP3   OH2 4685   3.860   0.559   2.840
 1560TIP3    H1 4686   3.914   0.486   2.871
 1560TIP3    H2 4687   3.922   0.618   2.798
 1561TIP3   OH2 4688   4.748   1.487   2.492
 1561TIP3    H1 4689   4.778   1.418   2.433
 1561TIP3    H2 4690   4.727   1.441   2.574
 1562TIP3   OH2 4691   4.630   0.965   2.822
 1562TIP3    H1 4692   4.673   0.888   2.785
 1562TIP3    H2 4693   4.703   1.021   2.851
 1563TIP3   OH2 4694   5.603   0.327   2.840
 1563TIP3    H1 4695   5.650   0.397   2.885
 1563TIP3    H2 4696   5.662   0.301   2.769
 1564TIP3   OH2 4697   5.035   0.439   2.849
 1564TIP3    H1 4698   5.059   0.347   2.833
 1564TIP3    H2 4699   4.984   0.464   2.772
 1565TIP3   OH2 4700   4.413   0.164   2.799
 1565TIP3    H1 4701   4.369   0.226   2.741
 1565TIP3    H2 4702   4.351   0.091   2.808
 1566TIP3   OH2 4703   5.090   0.223   2.441
 1566TIP3    H1 4704   5.183   0.229   2.416
 1566TIP3    H2 4705   5.044   0.275   2.376
 1567TIP3   OH2 4706   4.023   0.367   2.936
 1567TIP3    H1 4707   4.101   0.344   2.987
 1567TIP3    H2 4708   4.031   0.317   2.855
 1568TIP3   OH2 4709   4.443   0.526   2.755
 1568TIP3    H1 4710   4.538   0.520   2.745
 1568TIP3    H2 4711   4.410   0.447   2.713
 1569TIP3   OH2 4712   5.696   0.535   2.993
 1569TIP3    H1 4713   5.609   0.575   2.990
 1569TIP3    H2 4714   5.734   0.567   3.075
 1570TIP3   OH2 4715   4.333   0.130   3.233
 1570TIP3    H1 4716   4.311   0.152   3.142
 1570TIP3    H2 4717   4.253   0.149   3.282
 1571TIP3   OH2 4718   4.704   0.943   2.270
 1571TIP3    H1 4719   4.672   0.927   2.181
 1571TIP3    H2 4720   4.662   1.024   2.296
 1572TIP3   OH2 4721   4.482   0.887   3.041
 1572TIP3    H1 4722   4.424   0.956   3.075
 1572TIP3    H2 4723   4.526   0.928   2.966
 1573TIP3   OH2 4724   5.315   0.259   2.703
 1573TIP3    H1 4725   5.335   0.217   2.787
 1573TIP3    H2 4726   5.333   0.352   2.718
 1574TIP3   OH2 4727   4.261   0.264   3.010
 1574TIP3    H1 4728   4.322   0.329   3.046
 1574TIP3    H2 4729   4.311   0.220   2.941
 1575TIP3   OH2 4730   4.320   1.086   3.143
 1575TIP3    H1 4731   4.303   1.175   3.111
 1575TIP3    H2 4732   4.242   1.064   3.194
 1576TIP3   OH2 4733   3.695   0.784   2.389
 1576TIP3    H1 4734   3.658   0.802   2.303
 1576TIP3    H2 4735   3.719   0.870   2.423
 1577TIP3   OH2 4736   5.145   1.292   2.632
 1577TIP3    H1 4737   5.058   1.282   2.672
 1577TIP3    H2 4738   5.140   1.375   2.585
 1578TIP3   OH2 4739   4.840   1.323   2.284
 1578TIP3    H1 4740   4.890   1.242   2.271
 1578TIP3    H2 4741   4.900   1.392   2.255
 1579TIP3   OH2 4742   4.993   1.105   2.223
 1579TIP3    H1 4743   4.969   1.021   2.184
 1579TIP3    H2 4744   5.035   1.083   2.306
 1580TIP3   OH2 4745   5.376   1.182   2.978
 1580TIP3    H1 4746   5.355   1.109   2.919
 1580TIP3    H2 4747   5.358   1.261   2.926
 1581TIP3   OH2 4748   4.618   0.392   1.983
 1581TIP3    H1 4749   4.669   0.412   2.062
 1581TIP3    H2 4750   4.682   0.353   1.923
 1582TIP3   OH2 4751   5.549   0.846   2.825
 1582TIP3    H1 4752   5.467   0.895   2.824
 1582TIP3    H2 4753   5.586   0.860   2.738
 1583TIP3   OH2 4754   5.024   0.713   2.206
 1583TIP3    H1 4755   4.958   0.718   2.275
 1583TIP3    H2 4756   5.089   0.651   2.240
 1584TIP3   OH2 4757   5.225   0.743   3.120
 1584TIP3    H1 4758   5.217   0.823   3.171
 1584TIP3    H2 4759   5.143   0.738   3.071
 1585TIP3   OH2 4760   4.237   0.657   2.618
 1585TIP3    H1 4761   4.198   0.598   2.553
 1585TIP3    H2 4762   4.309   0.607   2.656
 1586TIP3   OH2 4763   4.377   1.079   2.752
 1586TIP3    H1 4764   4.353   1.061   2.661
 1586TIP3    H2 4765   4.463   1.040   2.763
 1587TIP3   OH2 4766   4.349   0.656   2.980
 1587TIP3    H1 4767   4.385   0.620   2.899
 1587TIP3    H2 4768   4.400   0.735   2.995
 1588TIP3   OH2 4769   4.909   1.281   2.762
 1588TIP3    H1 4770   4.890   1.360   2.814
 1588TIP3    H2 4771   4.891   1.209   2.822
 1589TIP3   OH2 4772   4.517   1.188   3.306
 1589TIP3    H1 4773   4.458   1.248   3.352
 1589TIP3    H2 4774   4.460   1.137   3.250
 1590TIP3   OH2 4775   4.271   0.741   3.444
 1590TIP3    H1 4776   4.277   0.834   3.467
 1590TIP3    H2 4777   4.177   0.723   3.440
 1591TIP3   OH2 4778   4.595   1.199   2.305
 1591TIP3    H1 4779   4.678   1.247   2.304
 1591TIP3    H2 4780   4.536   1.250   2.251
 1592TIP3   OH2 4781   4.309   1.347   3.393
 1592TIP3    H1 4782   4.282   1.357   3.301
 1592TIP3    H2 4783   4.228   1.329   3.440
 1593TIP3   OH2 4784   4.110   0.497   2.422
 1593TIP3    H1 4785   4.043   0.553   2.384
 1593TIP3    H2 4786   4.072   0.409   2.421
 1594TIP3   OH2 4787   5.177   1.133   1.639
 1594TIP3    H1 4788   5.171   1.227   1.623
 1594TIP3    H2 4789   5.270   1.113   1.627
 1595TIP3   OH2 4790   3.895   0.900   3.337
 1595TIP3    H1 4791   3.825   0.886   3.273
 1595TIP3    H2 4792   3.930   0.812   3.353
 1596TIP3   OH2 4793   3.744   1.093   2.981
 1596TIP3    H1 4794   3.839   1.107   2.985
 1596TIP3    H2 4795   3.706   1.172   3.019
 1597TIP3   OH2 4796   5.602   1.557   3.035
 1597TIP3    H1 4797   5.609   1.461   3.043
 1597TIP3    H2 4798   5.521   1.579   3.079
 1598TIP3   OH2 4799   4.709   1.322   3.163
 1598TIP3    H1 4800   4.705   1.414   3.189
 1598TIP3    H2 4801   4.640   1.279   3.213
 1599TIP3   OH2 4802   4.487   1.443   2.113
 1599TIP3    H1 4803   4.432   1.421   2.038
 1599TIP3    H2 4804   4.450   1.525   2.147
 1600TIP3   OH2 4805   3.918   1.286   2.498
 1600TIP3    H1 4806   3.962   1.279   2.583
 1600TIP3    H2 4807   3.868   1.204   2.491
 1601TIP3   OH2 4808   4.684   1.360   1.748
 1601TIP3    H1 4809   4.733   1.285   1.714
 1601TIP3    H2 4810   4.716   1.372   1.837
 1602TIP3   OH2 4811   4.739   1.404   2.016
 1602TIP3    H1 4812   4.652   1.412   2.055
 1602TIP3    H2 4813   4.793   1.365   2.086
 1603TIP3   OH2 4814   5.493   0.693   3.331
 1603TIP3    H1 4815   5.410   0.714   3.290
 1603TIP3    H2 4816   5.506   0.600   3.312
 1604TIP3   OH2 4817   4.101   1.080   3.309
 1604TIP3    H1 4818   4.146   1.071   3.393
 1604TIP3    H2 4819   4.026   1.020   3.315
 1605TIP3   OH2 4820   5.249   0.495   3.228
 1605TIP3    H1 4821   5.213   0.486   3.316
 1605TIP3    H2 4822   5.225   0.584   3.201
 1606TIP3   OH2 4823   4.973   0.471   1.751
 1606TIP3    H1 4824   4.920   0.492   1.674
 1606TIP3    H2 4825   4.998   0.556   1.786
 1607TIP3   OH2 4826   4.428   0.441   3.126
 1607TIP3    H1 4827   4.386   0.448   3.212
 1607TIP3    H2 4828   4.403   0.521   3.081
 1608TIP3   OH2 4829   4.295   0.331   2.630
 1608TIP3    H1 4830   4.202   0.311   2.647
 1608TIP3    H2 4831   4.306   0.315   2.537
 1609TIP3   OH2 4832   4.969   0.670   3.487
 1609TIP3    H1 4833   4.954   0.594   3.543
 1609TIP3    H2 4834   5.064   0.684   3.491
 1610TIP3   OH2 4835   4.952   0.436   2.577
 1610TIP3    H1 4836   4.906   0.456   2.496
 1610TIP3    H2 4837   4.976   0.344   2.570
 1611TIP3   OH2 4838   4.275   0.476   3.355
 1611TIP3    H1 4839   4.276   0.560   3.401
 1611TIP3    H2 4840   4.278   0.411   3.425
 1612TIP3   OH2 4841   4.367   0.086   2.047
 1612TIP3    H1 4842   4.365   0.005   2.098
 1612TIP3    H2 4843   4.275   0.105   2.027
 1613TIP3   OH2 4844   1.610   6.003   2.883
 1613TIP3    H1 4845   1.603   6.077   2.943
 1613TIP3    H2 4846   1.698   5.968   2.898
 1614TIP3   OH2 4847   3.853   0.019   2.547
 1614TIP3    H1 4848   3.905   0.056   2.476
 1614TIP3    H2 4849   3.763   0.047   2.528
 1615TIP3   OH2 4850   4.986   0.664   2.999
 1615TIP3    H1 4851   5.007   0.585   2.948
 1615TIP3    H2 4852   4.956   0.632   3.083
 1616TIP3   OH2 4853   4.666   0.246   2.729
 1616TIP3    H1 4854   4.584   0.220   2.771
 1616TIP3    H2 4855   4.720   0.167   2.730
 1617TIP3   OH2 4856   4.052   0.222   2.696
 1617TIP3    H1 4857   3.964   0.255   2.678
 1617TIP3    H2 4858   4.071   0.163   2.623
 1618TIP3   OH2 4859   4.350   0.236   2.383
 1618TIP3    H1 4860   4.445   0.247   2.380
 1618TIP3    H2 4861   4.320   0.251   2.293
 1619TIP3   OH2 4862   4.176   0.270   2.172
 1619TIP3    H1 4863   4.115   0.214   2.124
 1619TIP3    H2 4864   4.236   0.303   2.105
 1620TIP3   OH2 4865   5.315   1.888   3.132
 1620TIP3    H1 4866   5.309   1.909   3.039
 1620TIP3    H2 4867   5.391   1.936   3.163
 1621TIP3   OH2 4868   4.259   0.998   3.547
 1621TIP3    H1 4869   4.338   1.024   3.596
 1621TIP3    H2 4870   4.188   1.005   3.611
 1622TIP3   OH2 4871   4.723   0.510   2.770
 1622TIP3    H1 4872   4.728   0.426   2.724
 1622TIP3    H2 4873   4.712   0.486   2.862
 1623TIP3   OH2 4874   4.678   0.413   3.016
 1623TIP3    H1 4875   4.587   0.420   3.044
 1623TIP3    H2 4876   4.726   0.392   3.096
 1624TIP3   OH2 4877   4.381   0.783   2.170
 1624TIP3    H1 4878   4.328   0.703   2.163
 1624TIP3    H2 4879   4.386   0.799   2.265
 1625TIP3   OH2 4880   5.315   0.982   2.800
 1625TIP3    H1 4881   5.340   1.032   2.723
 1625TIP3    H2 4882   5.232   0.940   2.775
 1626TIP3   OH2 4883   4.855   0.132   2.049
 1626TIP3    H1 4884   4.783   0.118   1.988
 1626TIP3    H2 4885   4.828   0.209   2.100
 1627TIP3   OH2 4886   4.834   1.061   3.194
 1627TIP3    H1 4887   4.870   1.055   3.283
 1627TIP3    H2 4888   4.788   1.145   3.193
 1628TIP3   OH2 4889   4.119   0.758   2.845
 1628TIP3    H1 4890   4.153   0.734   2.759
 1628TIP3    H2 4891   4.180   0.719   2.907
 1629TIP3   OH2 4892   4.575   0.896   2.016
 1629TIP3    H1 4893   4.536   0.983   2.018
 1629TIP3    H2 4894   4.515   0.842   2.068
 1630TIP3   OH2 4895   4.006   0.670   3.466
 1630TIP3    H1 4896   4.004   0.658   3.561
 1630TIP3    H2 4897   3.928   0.626   3.435
 1631TIP3   OH2 4898   4.739   0.821   3.499
 1631TIP3    H1 4899   4.668   0.767   3.465
 1631TIP3    H2 4900   4.819   0.774   3.476
 1632TIP3   OH2 4901   4.983   1.333   3.088
 1632TIP3    H1 4902   4.888   1.323   3.093
 1632TIP3    H2 4903   5.007   1.378   3.169
 1633TIP3   OH2 4904   5.413   0.386   1.973
 1633TIP3    H1 4905   5.345   0.341   1.923
 1633TIP3    H2 4906   5.410   0.477   1.942
 1634TIP3   OH2 4907   5.620   1.277   3.064
 1634TIP3    H1 4908   5.526   1.262   3.069
 1634TIP3    H2 4909   5.646   1.241   2.979
 1635TIP3   OH2 4910   5.111   1.205   1.911
 1635TIP3    H1 4911   5.078   1.141   1.975
 1635TIP3    H2 4912   5.118   1.156   1.830
 1636TIP3   OH2 4913   5.087   0.849   2.713
 1636TIP3    H1 4914   4.994   0.830   2.728
 1636TIP3    H2 4915   5.121   0.771   2.668
 1637TIP3   OH2 4916   4.235   1.074   2.501
 1637TIP3    H1 4917   4.234   1.152   2.444
 1637TIP3    H2 4918   4.143   1.055   2.516
 1638TIP3   OH2 4919   3.786   0.398   2.192
 1638TIP3    H1 4920   3.837   0.474   2.218
 1638TIP3    H2 4921   3.709   0.400   2.249
 1639TIP3   OH2 4922   4.354   0.832   2.436
 1639TIP3    H1 4923   4.324   0.921   2.455
 1639TIP3    H2 4924   4.314   0.778   2.505
 1640TIP3   OH2 4925   4.516   1.402   2.958
 1640TIP3    H1 4926   4.552   1.475   2.908
 1640TIP3    H2 4927   4.591   1.367   3.006
 1641TIP3   OH2 4928   4.149   1.304   2.349
 1641TIP3    H1 4929   4.063   1.308   2.390
 1641TIP3    H2 4930   4.181   1.394   2.352
 1642TIP3   OH2 4931   4.875   1.057   2.923
 1642TIP3    H1 4932   4.868   1.051   3.018
 1642TIP3    H2 4933   4.937   0.988   2.899
 1643TIP3   OH2 4934   4.866   0.930   1.797
 1643TIP3    H1 4935   4.921   0.918   1.874
 1643TIP3    H2 4936   4.779   0.903   1.826
 1644TIP3   OH2 4937   5.130   1.569   2.968
 1644TIP3    H1 4938   5.053   1.511   2.974
 1644TIP3    H2 4939   5.108   1.629   2.897
 1645TIP3   OH2 4940   5.185   1.409   1.610
 1645TIP3    H1 4941   5.205   1.470   1.539
 1645TIP3    H2 4942   5.112   1.450   1.657
 1646TIP3   OH2 4943   4.237   0.260   3.525
 1646TIP3    H1 4944   4.160   0.208   3.550
 1646TIP3    H2 4945   4.310   0.218   3.571
 1647TIP3   OH2 4946   5.041   0.891   2.003
 1647TIP3    H1 4947   5.023   0.827   2.072
 1647TIP3    H2 4948   5.136   0.886   1.991
 1648TIP3   OH2 4949   3.946   1.283   3.112
 1648TIP3    H1 4950   3.998   1.219   3.161
 1648TIP3    H2 4951   3.959   1.365   3.160
 1649TIP3   OH2 4952   4.212   0.915   1.806
 1649TIP3    H1 4953   4.224   0.823   1.780
 1649TIP3    H2 4954   4.193   0.911   1.900
 1650TIP3   OH2 4955   4.160   0.924   2.075
 1650TIP3    H1 4956   4.238   0.886   2.115
 1650TIP3    H2 4957   4.167   1.018   2.091
 1651TIP3   OH2 4958   3.902   0.626   2.295
 1651TIP3    H1 4959   3.833   0.670   2.346
 1651TIP3    H2 4960   3.919   0.687   2.223
 1652TIP3   OH2 4961   5.955   0.375   1.907
 1652TIP3    H1 4962   6.038   0.355   1.864
 1652TIP3    H2 4963   5.944   0.307   1.973
 1653TIP3   OH2 4964   4.897   0.037   2.315
 1653TIP3    H1 4965   4.888   0.018   2.222
 1653TIP3    H2 4966   4.879   0.130   2.323
 1654TIP3   OH2 4967   4.441   1.130   2.025
 1654TIP3    H1 4968   4.354   1.143   2.063
 1654TIP3    H2 4969   4.452   1.203   1.964
 1655TIP3   OH2 4970   4.610   0.243   2.460
 1655TIP3    H1 4971   4.680   0.277   2.405
 1655TIP3    H2 4972   4.644   0.251   2.549
 1656TIP3   OH2 4973   4.925   0.568   3.240
 1656TIP3    H1 4974   4.936   0.606   3.327
 1656TIP3    H2 4975   4.878   0.486   3.255
 1657TIP3   OH2 4976   4.184   1.196   2.099
 1657TIP3    H1 4977   4.159   1.265   2.038
 1657TIP3    H2 4978   4.169   1.234   2.185
 1658TIP3   OH2 4979   2.100   6.081   2.340
 1658TIP3    H1 4980   2.169   6.140   2.368
 1658TIP3    H2 4981   2.125   5.995   2.375
 1659TIP3   OH2 4982   5.513   0.437   3.240
 1659TIP3    H1 4983   5.418   0.437   3.231
 1659TIP3    H2 4984   5.544   0.376   3.172
 1660TIP3   OH2 4985   5.165   0.606   2.606
 1660TIP3    H1 4986   5.089   0.549   2.601
 1660TIP3    H2 4987   5.230   0.556   2.656
 1661TIP3   OH2 4988   3.911   0.802   2.078
 1661TIP3    H1 4989   3.982   0.865   2.087
 1661TIP3    H2 4990   3.943   0.738   2.015
 1662TIP3   OH2 4991   3.802   0.131   2.236
 1662TIP3    H1 4992   3.804   0.226   2.230
 1662TIP3    H2 4993   3.734   0.104   2.174
 1663TIP3   OH2 4994   5.157   1.560   2.548
 1663TIP3    H1 4995   5.112   1.607   2.478
 1663TIP3    H2 4996   5.250   1.573   2.531
 1664TIP3   OH2 4997   3.750   1.053   2.469
 1664TIP3    H1 4998   3.699   1.086   2.543
 1664TIP3    H2 4999   3.711   1.096   2.393
 1665TIP3   OH2 5000   3.936   1.596   3.535
 1665TIP3    H1 5001   4.019   1.598   3.583
 1665TIP3    H2 5002   3.914   1.503   3.531
 1666TIP3   OH2 5003   4.405   1.519   3.587
 1666TIP3    H1 5004   4.500   1.506   3.590
 1666TIP3    H2 5005   4.375   1.461   3.517
 1667TIP3   OH2 5006   4.380   1.105   1.704
 1667TIP3    H1 5007   4.324   1.040   1.747
 1667TIP3    H2 5008   4.456   1.054   1.674
 1668TIP3   OH2 5009   5.037   1.452   3.330
 1668TIP3    H1 5010   5.046   1.383   3.396
 1668TIP3    H2 5011   5.110   1.511   3.346
 1669TIP3   OH2 5012   4.814   1.149   1.639
 1669TIP3    H1 5013   4.849   1.078   1.693
 1669TIP3    H2 5014   4.865   1.145   1.558
 1670TIP3   OH2 5015   4.049   0.994   3.731
 1670TIP3    H1 5016   4.065   0.901   3.744
 1670TIP3    H2 5017   3.963   0.999   3.690
 1671TIP3   OH2 5018   4.041   0.610   1.935
 1671TIP3    H1 5019   4.092   0.592   2.013
 1671TIP3    H2 5020   4.105   0.624   1.866
 1672TIP3   OH2 5021   4.669   1.087   3.511
 1672TIP3    H1 5022   4.622   1.107   3.430
 1672TIP3    H2 5023   4.701   0.998   3.499
 1673TIP3   OH2 5024   4.575   0.836   1.748
 1673TIP3    H1 5025   4.564   0.853   1.842
 1673TIP3    H2 5026   4.573   0.740   1.741
 1674TIP3   OH2 5027   5.153   1.109   3.128
 1674TIP3    H1 5028   5.227   1.143   3.078
 1674TIP3    H2 5029   5.082   1.172   3.111
 1675TIP3   OH2 5030   4.170   0.738   3.733
 1675TIP3    H1 5031   4.247   0.718   3.681
 1675TIP3    H2 5032   4.205   0.768   3.817
 1676TIP3   OH2 5033   4.217   0.564   2.148
 1676TIP3    H1 5034   4.195   0.517   2.229
 1676TIP3    H2 5035   4.265   0.499   2.096
 1677TIP3   OH2 5036   4.533   0.660   3.413
 1677TIP3    H1 5037   4.443   0.693   3.415
 1677TIP3    H2 5038   4.561   0.673   3.323
 1678TIP3   OH2 5039   4.339   0.382   1.983
 1678TIP3    H1 5040   4.315   0.377   1.890
 1678TIP3    H2 5041   4.434   0.376   1.984
 1679TIP3   OH2 5042   5.034   1.007   3.498
 1679TIP3    H1 5043   5.103   0.962   3.448
 1679TIP3    H2 5044   5.018   0.949   3.573
 1680TIP3   OH2 5045   5.182   0.663   1.645
 1680TIP3    H1 5046   5.146   0.604   1.578
 1680TIP3    H2 5047   5.138   0.747   1.629
 1681TIP3   OH2 5048   4.651   0.443   3.516
 1681TIP3    H1 5049   4.617   0.380   3.453
 1681TIP3    H2 5050   4.623   0.528   3.482
 1682TIP3   OH2 5051   4.532   0.281   3.341
 1682TIP3    H1 5052   4.589   0.308   3.270
 1682TIP3    H2 5053   4.459   0.237   3.297
 1683TIP3   OH2 5054   4.648   0.720   3.179
 1683TIP3    H1 5055   4.738   0.736   3.149
 1683TIP3    H2 5056   4.595   0.782   3.130
 1684TIP3   OH2 5057   5.239   0.718   3.543
 1684TIP3    H1 5058   5.261   0.648   3.605
 1684TIP3    H2 5059   5.324   0.752   3.514
 1685TIP3   OH2 5060   5.276   0.953   3.310
 1685TIP3    H1 5061   5.220   1.012   3.259
 1685TIP3    H2 5062   5.364   0.968   3.275
 1686TIP3   OH2 5063   4.511   0.565   3.746
 1686TIP3    H1 5064   4.438   0.505   3.760
 1686TIP3    H2 5065   4.534   0.554   3.654
 1687TIP3   OH2 5066   4.912   0.425   3.606
 1687TIP3    H1 5067   4.888   0.436   3.698
 1687TIP3    H2 5068   4.828   0.416   3.561
 1688TIP3   OH2 5069   5.153   0.438   3.479
 1688TIP3    H1 5070   5.071   0.424   3.527
 1688TIP3    H2 5071   5.222   0.422   3.544
 1689TIP3   OH2 5072   4.343   0.349   3.786
 1689TIP3    H1 5073   4.408   0.280   3.772
 1689TIP3    H2 5074   4.344   0.365   3.880
 1690TIP3   OH2 5075   4.169   1.404   1.913
 1690TIP3    H1 5076   4.259   1.385   1.885
 1690TIP3    H2 5077   4.131   1.452   1.840
 1691TIP3   OH2 5078   3.638   0.786   2.103
 1691TIP3    H1 5079   3.733   0.801   2.096
 1691TIP3    H2 5080   3.625   0.700   2.063
 1692TIP3   OH2 5081   3.550   1.378   2.549
 1692TIP3    H1 5082   3.485   1.324   2.504
 1692TIP3    H2 5083   3.594   1.318   2.609
 1693TIP3   OH2 5084   3.687   1.214   2.723
 1693TIP3    H1 5085   3.676   1.147   2.790
 1693TIP3    H2 5086   3.738   1.282   2.766
 1694TIP3   OH2 5087   5.425   1.620   2.531
 1694TIP3    H1 5088   5.442   1.649   2.620
 1694TIP3    H2 5089   5.475   1.679   2.475
 1695TIP3   OH2 5090   5.443   1.649   2.812
 1695TIP3    H1 5091   5.394   1.566   2.807
 1695TIP3    H2 5092   5.514   1.632   2.874
 1696TIP3   OH2 5093   5.499   1.338   3.384
 1696TIP3    H1 5094   5.424   1.343   3.444
 1696TIP3    H2 5095   5.537   1.426   3.386
 1697TIP3   OH2 5096   5.316   0.862   1.983
 1697TIP3    H1 5097   5.382   0.927   1.957
 1697TIP3    H2 5098   5.350   0.827   2.066
 1698TIP3   OH2 5099   5.431   0.744   2.198
 1698TIP3    H1 5100   5.367   0.699   2.254
 1698TIP3    H2 5101   5.498   0.774   2.259
 1699TIP3   OH2 5102   5.492   1.117   2.626
 1699TIP3    H1 5103   5.539   1.047   2.581
 1699TIP3    H2 5104   5.487   1.189   2.563
 1700TIP3   OH2 5105   5.307   1.404   2.828
 1700TIP3    H1 5106   5.238   1.449   2.877
 1700TIP3    H2 5107   5.261   1.363   2.755
 1701TIP3   OH2 5108   5.361   0.627   1.849
 1701TIP3    H1 5109   5.293   0.626   1.782
 1701TIP3    H2 5110   5.341   0.704   1.902
 1702TIP3   OH2 5111   5.218   0.298   1.802
 1702TIP3    H1 5112   5.140   0.348   1.780
 1702TIP3    H2 5113   5.194   0.207   1.787
 1703TIP3   OH2 5114   5.266   0.595   2.350
 1703TIP3    H1 5115   5.255   0.505   2.319
 1703TIP3    H2 5116   5.225   0.596   2.436
 1704TIP3   OH2 5117   3.866   0.650   3.099
 1704TIP3    H1 5118   3.852   0.616   3.010
 1704TIP3    H2 5119   3.961   0.645   3.111
 1705TIP3   OH2 5120   5.526   1.002   3.205
 1705TIP3    H1 5121   5.593   0.938   3.182
 1705TIP3    H2 5122   5.524   1.063   3.131
 1706TIP3   OH2 5123   5.706   0.791   3.191
 1706TIP3    H1 5124   5.639   0.753   3.247
 1706TIP3    H2 5125   5.789   0.765   3.233
 1707TIP3   OH2 5126   5.256   0.361   2.212
 1707TIP3    H1 5127   5.204   0.283   2.192
 1707TIP3    H2 5128   5.310   0.373   2.134
 1708TIP3   OH2 5129   5.398   0.515   2.729
 1708TIP3    H1 5130   5.476   0.542   2.681
 1708TIP3    H2 5131   5.400   0.566   2.810
 1709TIP3   OH2 5132   5.436   0.645   2.968
 1709TIP3    H1 5133   5.363   0.679   3.019
 1709TIP3    H2 5134   5.474   0.722   2.926
 1710TIP3   OH2 5135   4.069   0.374   3.730
 1710TIP3    H1 5136   4.164   0.372   3.735
 1710TIP3    H2 5137   4.040   0.298   3.781
 1711TIP3   OH2 5138   4.059   0.030   3.156
 1711TIP3    H1 5139   4.060   0.019   3.061
 1711TIP3    H2 5140   4.072   0.124   3.168
 1712TIP3   OH2 5141   3.838   0.339   3.145
 1712TIP3    H1 5142   3.894   0.338   3.067
 1712TIP3    H2 5143   3.888   0.389   3.210
 1713TIP3   OH2 5144   4.993   1.515   2.175
 1713TIP3    H1 5145   5.049   1.505   2.098
 1713TIP3    H2 5146   5.035   1.585   2.226
 1714TIP3   OH2 5147   4.087   1.309   3.556
 1714TIP3    H1 5148   3.993   1.298   3.544
 1714TIP3    H2 5149   4.100   1.305   3.651
 1715TIP3   OH2 5150   4.289   1.361   3.109
 1715TIP3    H1 5151   4.234   1.433   3.077
 1715TIP3    H2 5152   4.372   1.372   3.064
 1716TIP3   OH2 5153   4.700   1.589   3.238
 1716TIP3    H1 5154   4.735   1.585   3.326
 1716TIP3    H2 5155   4.760   1.645   3.190
 1717TIP3   OH2 5156   4.884   1.751   3.114
 1717TIP3    H1 5157   4.947   1.700   3.064
 1717TIP3    H2 5158   4.938   1.808   3.170
 1718TIP3   OH2 5159   3.950   1.610   3.148
 1718TIP3    H1 5160   3.858   1.625   3.124
 1718TIP3    H2 5161   3.968   1.677   3.214
 1719TIP3   OH2 5162   4.180   1.590   2.999
 1719TIP3    H1 5163   4.097   1.598   3.047
 1719TIP3    H2 5164   4.160   1.617   2.910
 1720TIP3   OH2 5165   4.603   1.607   2.790
 1720TIP3    H1 5166   4.530   1.619   2.729
 1720TIP3    H2 5167   4.613   1.693   2.832
 1721TIP3   OH2 5168   4.868   1.547   2.847
 1721TIP3    H1 5169   4.776   1.562   2.828
 1721TIP3    H2 5170   4.915   1.613   2.795
 1722TIP3   OH2 5171   5.077   1.732   2.749
 1722TIP3    H1 5172   5.065   1.817   2.706
 1722TIP3    H2 5173   5.102   1.673   2.678
 1723TIP3   OH2 5174   3.861   1.389   2.867
 1723TIP3    H1 5175   3.881   1.361   2.956
 1723TIP3    H2 5176   3.934   1.356   2.815
 1724TIP3   OH2 5177   4.064   1.272   2.732
 1724TIP3    H1 5178   4.075   1.190   2.780
 1724TIP3    H2 5179   4.151   1.312   2.733
 1725TIP3   OH2 5180   4.333   1.357   2.750
 1725TIP3    H1 5181   4.351   1.264   2.736
 1725TIP3    H2 5182   4.383   1.380   2.828
 1726TIP3   OH2 5183   3.637   1.180   2.253
 1726TIP3    H1 5184   3.552   1.146   2.225
 1726TIP3    H2 5185   3.638   1.271   2.223
 1727TIP3   OH2 5186   4.425   1.338   1.840
 1727TIP3    H1 5187   4.510   1.365   1.805
 1727TIP3    H2 5188   4.400   1.264   1.785
 1728TIP3   OH2 5189   5.144   1.474   1.944
 1728TIP3    H1 5190   5.136   1.379   1.937
 1728TIP3    H2 5191   5.095   1.507   1.868
 1729TIP3   OH2 5192   3.727   1.178   1.904
 1729TIP3    H1 5193   3.729   1.190   1.999
 1729TIP3    H2 5194   3.810   1.134   1.884
 1730TIP3   OH2 5195   5.351   1.614   3.133
 1730TIP3    H1 5196   5.275   1.584   3.082
 1730TIP3    H2 5197   5.338   1.709   3.142
 1731TIP3   OH2 5198   5.946   0.893   2.625
 1731TIP3    H1 5199   5.958   0.822   2.688
 1731TIP3    H2 5200   6.002   0.964   2.658
 1732TIP3   OH2 5201   5.865   1.280   2.362
 1732TIP3    H1 5202   5.844   1.187   2.351
 1732TIP3    H2 5203   5.928   1.281   2.435
 1733TIP3   OH2 5204   5.604   0.533   2.158
 1733TIP3    H1 5205   5.550   0.612   2.160
 1733TIP3    H2 5206   5.548   0.465   2.121
 1734TIP3   OH2 5207   5.664   0.793   2.338
 1734TIP3    H1 5208   5.706   0.707   2.341
 1734TIP3    H2 5209   5.734   0.853   2.312
 1735TIP3   OH2 5210   5.838   0.590   2.425
 1735TIP3    H1 5211   5.930   0.619   2.425
 1735TIP3    H2 5212   5.836   0.515   2.366
 1736TIP3   OH2 5213   6.022   1.309   2.593
 1736TIP3    H1 5214   6.052   1.400   2.588
 1736TIP3    H2 5215   5.973   1.305   2.676
 1737TIP3   OH2 5216   5.506   1.040   1.880
 1737TIP3    H1 5217   5.467   1.057   1.794
 1737TIP3    H2 5218   5.529   1.127   1.914
 1738TIP3   OH2 5219   6.037   0.988   2.939
 1738TIP3    H1 5220   6.057   1.080   2.958
 1738TIP3    H2 5221   5.942   0.981   2.950
 1739TIP3   OH2 5222   6.071   1.662   2.892
 1739TIP3    H1 5223   6.051   1.631   2.804
 1739TIP3    H2 5224   6.001   1.626   2.947
 1740TIP3   OH2 5225   5.682   1.161   2.826
 1740TIP3    H1 5226   5.613   1.146   2.761
 1740TIP3    H2 5227   5.709   1.073   2.852
 1741TIP3   OH2 5228   5.545   1.344   2.463
 1741TIP3    H1 5229   5.639   1.356   2.457
 1741TIP3    H2 5230   5.513   1.422   2.508
 1742TIP3   OH2 5231   5.697   1.551   2.004
 1742TIP3    H1 5232   5.749   1.539   2.084
 1742TIP3    H2 5233   5.644   1.471   1.998
 1743TIP3   OH2 5234   5.874   1.354   2.819
 1743TIP3    H1 5235   5.927   1.337   2.897
 1743TIP3    H2 5236   5.802   1.291   2.824
 1744TIP3   OH2 5237   6.002   0.729   2.859
 1744TIP3    H1 5238   6.030   0.818   2.882
 1744TIP3    H2 5239   6.012   0.679   2.939
 1745TIP3   OH2 5240   5.727   0.180   2.375
 1745TIP3    H1 5241   5.677   0.227   2.442
 1745TIP3    H2 5242   5.676   0.101   2.357
 1746TIP3   OH2 5243   5.677   0.291   2.007
 1746TIP3    H1 5244   5.724   0.309   1.926
 1746TIP3    H2 5245   5.592   0.333   1.994
 1747TIP3   OH2 5246   5.846   0.388   2.233
 1747TIP3    H1 5247   5.804   0.446   2.169
 1747TIP3    H2 5248   5.782   0.319   2.249
 1748TIP3   OH2 5249   6.050   1.254   3.030
 1748TIP3    H1 5250   6.136   1.276   3.064
 1748TIP3    H2 5251   5.991   1.267   3.104
 1749TIP3   OH2 5252   5.890   0.966   2.360
 1749TIP3    H1 5253   5.971   0.984   2.312
 1749TIP3    H2 5254   5.919   0.938   2.447
 1750TIP3   OH2 5255   5.768   0.932   2.964
 1750TIP3    H1 5256   5.770   0.895   3.052
 1750TIP3    H2 5257   5.699   0.885   2.919
 1751TIP3   OH2 5258   5.950   1.317   1.958
 1751TIP3    H1 5259   5.945   1.393   1.900
 1751TIP3    H2 5260   5.859   1.296   1.978
 1752TIP3   OH2 5261   5.554   0.666   1.660
 1752TIP3    H1 5262   5.617   0.732   1.690
 1752TIP3    H2 5263   5.493   0.656   1.734
 1753TIP3   OH2 5264   5.898   1.565   1.821
 1753TIP3    H1 5265   5.825   1.565   1.883
 1753TIP3    H2 5266   5.866   1.613   1.745
 1754TIP3   OH2 5267   6.022   0.523   3.060
 1754TIP3    H1 5268   5.952   0.458   3.061
 1754TIP3    H2 5269   6.099   0.475   3.029
 1755TIP3   OH2 5270   5.732   1.544   2.604
 1755TIP3    H1 5271   5.781   1.483   2.659
 1755TIP3    H2 5272   5.743   1.629   2.648
 1756TIP3   OH2 5273   5.697   0.878   1.754
 1756TIP3    H1 5274   5.644   0.918   1.823
 1756TIP3    H2 5275   5.719   0.951   1.696
 1757TIP3   OH2 5276   5.712   1.082   1.554
 1757TIP3    H1 5277   5.723   1.174   1.532
 1757TIP3    H2 5278   5.762   1.035   1.488
 1758TIP3   OH2 5279   5.603   0.399   1.695
 1758TIP3    H1 5280   5.598   0.494   1.682
 1758TIP3    H2 5281   5.514   0.368   1.682
 1759TIP3   OH2 5282   5.548   1.314   1.957
 1759TIP3    H1 5283   5.486   1.334   2.027
 1759TIP3    H2 5284   5.508   1.353   1.878
 1760TIP3   OH2 5285   5.720   1.848   3.017
 1760TIP3    H1 5286   5.797   1.851   3.075
 1760TIP3    H2 5287   5.697   1.756   3.013
 1761TIP3   OH2 5288   6.169   1.768   3.135
 1761TIP3    H1 5289   6.241   1.829   3.119
 1761TIP3    H2 5290   6.150   1.731   3.049
 1762TIP3   OH2 5291   5.844   1.244   3.224
 1762TIP3    H1 5292   5.863   1.150   3.221
 1762TIP3    H2 5293   5.760   1.252   3.180
 1763TIP3   OH2 5294   5.951   0.991   3.214
 1763TIP3    H1 5295   6.020   0.955   3.159
 1763TIP3    H2 5296   5.990   0.995   3.302
 1764TIP3   OH2 5297   5.440   1.052   1.600
 1764TIP3    H1 5298   5.534   1.062   1.588
 1764TIP3    H2 5299   5.420   0.967   1.562
 1765TIP3   OH2 5300   5.340   1.636   2.037
 1765TIP3    H1 5301   5.276   1.580   1.993
 1765TIP3    H2 5302   5.385   1.577   2.099
 1766TIP3   OH2 5303   5.477   1.474   2.213
 1766TIP3    H1 5304   5.465   1.405   2.279
 1766TIP3    H2 5305   5.530   1.540   2.258
 1767TIP3   OH2 5306   5.666   0.897   2.588
 1767TIP3    H1 5307   5.649   0.860   2.501
 1767TIP3    H2 5308   5.761   0.907   2.592
 1768TIP3   OH2 5309   5.932   0.662   3.281
 1768TIP3    H1 5310   5.984   0.632   3.208
 1768TIP3    H2 5311   5.884   0.585   3.311
 1769TIP3   OH2 5312   5.907   0.316   2.569
 1769TIP3    H1 5313   5.905   0.244   2.632
 1769TIP3    H2 5314   5.924   0.394   2.622
 1770TIP3   OH2 5315   5.658   0.576   2.634
 1770TIP3    H1 5316   5.717   0.586   2.559
 1770TIP3    H2 5317   5.683   0.647   2.694
 1771TIP3   OH2 5318   5.877   1.572   3.072
 1771TIP3    H1 5319   5.785   1.558   3.050
 1771TIP3    H2 5320   5.882   1.556   3.166
 1772TIP3   OH2 5321   6.070   1.587   2.610
 1772TIP3    H1 5322   6.008   1.639   2.558
 1772TIP3    H2 5323   6.156   1.618   2.583
 1773TIP3   OH2 5324   5.737   1.859   2.637
 1773TIP3    H1 5325   5.647   1.881   2.613
 1773TIP3    H2 5326   5.763   1.929   2.696
 1774TIP3   OH2 5327   5.930   1.774   2.461
 1774TIP3    H1 5328   5.859   1.804   2.517
 1774TIP3    H2 5329   5.925   1.828   2.383
 1775TIP3   OH2 5330   5.655   1.645   2.355
 1775TIP3    H1 5331   5.673   1.618   2.445
 1775TIP3    H2 5332   5.731   1.614   2.305
 1776TIP3   OH2 5333   5.858   1.518   2.225
 1776TIP3    H1 5334   5.858   1.432   2.266
 1776TIP3    H2 5335   5.950   1.544   2.222
 1777TIP3   OH2 5336   5.435   1.435   1.736
 1777TIP3    H1 5337   5.349   1.401   1.710
 1777TIP3    H2 5338   5.431   1.528   1.713
 1778TIP3   OH2 5339   5.483   1.425   1.425
 1778TIP3    H1 5340   5.479   1.455   1.516
 1778TIP3    H2 5341   5.569   1.384   1.417
 1779TIP3   OH2 5342   0.877   2.042   3.057
 1779TIP3    H1 5343   0.848   2.131   3.035
 1779TIP3    H2 5344   0.806   1.986   3.024
 1780TIP3   OH2 5345   0.872   2.041   3.472
 1780TIP3    H1 5346   0.919   2.025   3.553
 1780TIP3    H2 5347   0.832   1.957   3.450
 1781TIP3   OH2 5348   0.206   1.914   3.830
 1781TIP3    H1 5349   0.234   1.847   3.892
 1781TIP3    H2 5350   0.283   1.931   3.776
 1782TIP3   OH2 5351   1.134   2.348   3.150
 1782TIP3    H1 5352   1.127   2.281   3.218
 1782TIP3    H2 5353   1.162   2.426   3.197
 1783TIP3   OH2 5354   0.163   2.322   3.497
 1783TIP3    H1 5355   0.175   2.228   3.502
 1783TIP3    H2 5356   0.251   2.359   3.502
 1784TIP3   OH2 5357   6.381   1.547   3.315
 1784TIP3    H1 5358   6.408   1.638   3.328
 1784TIP3    H2 5359   6.341   1.522   3.398
 1785TIP3   OH2 5360   6.473   1.783   3.420
 1785TIP3    H1 5361   6.481   1.747   3.508
 1785TIP3    H2 5362   6.476   1.878   3.432
 1786TIP3   OH2 5363   0.791   2.791   3.158
 1786TIP3    H1 5364   0.820   2.723   3.097
 1786TIP3    H2 5365   0.785   2.746   3.242
 1787TIP3   OH2 5366   0.680   2.264   3.485
 1787TIP3    H1 5367   0.722   2.185   3.453
 1787TIP3    H2 5368   0.752   2.320   3.515
 1788TIP3   OH2 5369   1.705   1.582   3.498
 1788TIP3    H1 5370   1.727   1.664   3.543
 1788TIP3    H2 5371   1.733   1.597   3.407
 1789TIP3   OH2 5372   1.088   1.754   3.521
 1789TIP3    H1 5373   1.131   1.673   3.548
 1789TIP3    H2 5374   1.052   1.735   3.434
 1790TIP3   OH2 5375   0.448   1.420   3.480
 1790TIP3    H1 5376   0.433   1.499   3.428
 1790TIP3    H2 5377   0.398   1.351   3.435
 1791TIP3   OH2 5378   1.137   1.510   3.112
 1791TIP3    H1 5379   1.202   1.502   3.183
 1791TIP3    H2 5380   1.186   1.544   3.038
 1792TIP3   OH2 5381   0.069   1.603   3.620
 1792TIP3    H1 5382   0.151   1.589   3.667
 1792TIP3    H2 5383   0.084   1.565   3.533
 1793TIP3   OH2 5384   0.502   1.827   3.415
 1793TIP3    H1 5385   0.596   1.808   3.423
 1793TIP3    H2 5386   0.464   1.747   3.380
 1794TIP3   OH2 5387   1.769   1.793   3.671
 1794TIP3    H1 5388   1.687   1.840   3.660
 1794TIP3    H2 5389   1.812   1.837   3.745
 1795TIP3   OH2 5390   0.425   1.405   3.934
 1795TIP3    H1 5391   0.374   1.441   3.862
 1795TIP3    H2 5392   0.376   1.428   4.013
 1796TIP3   OH2 5393   0.771   2.261   2.924
 1796TIP3    H1 5394   0.731   2.237   2.840
 1796TIP3    H2 5395   0.720   2.337   2.954
 1797TIP3   OH2 5396   0.536   2.178   3.703
 1797TIP3    H1 5397   0.481   2.247   3.740
 1797TIP3    H2 5398   0.582   2.220   3.630
 1798TIP3   OH2 5399   1.306   1.529   3.325
 1798TIP3    H1 5400   1.270   1.509   3.411
 1798TIP3    H2 5401   1.365   1.603   3.341
 1799TIP3   OH2 5402   0.315   1.510   3.707
 1799TIP3    H1 5403   0.368   1.586   3.729
 1799TIP3    H2 5404   0.359   1.471   3.631
 1800TIP3   OH2 5405   0.382   2.376   3.808
 1800TIP3    H1 5406   0.359   2.463   3.776
 1800TIP3    H2 5407   0.310   2.351   3.865
 1801TIP3   OH2 5408   6.268   2.045   3.093
 1801TIP3    H1 5409   6.177   2.063   3.116
 1801TIP3    H2 5410   6.314   2.128   3.108
 1802TIP3   OH2 5411   1.180   2.596   3.287
 1802TIP3    H1 5412   1.092   2.588   3.326
 1802TIP3    H2 5413   1.179   2.681   3.244
 1803TIP3   OH2 5414   1.502   1.465   3.658
 1803TIP3    H1 5415   1.418   1.500   3.628
 1803TIP3    H2 5416   1.566   1.498   3.595
 1804TIP3   OH2 5417   0.774   1.111   3.651
 1804TIP3    H1 5418   0.762   1.019   3.677
 1804TIP3    H2 5419   0.702   1.158   3.693
 1805TIP3   OH2 5420   0.884   2.631   2.948
 1805TIP3    H1 5421   0.935   2.550   2.938
 1805TIP3    H2 5422   0.942   2.700   2.917
 1806TIP3   OH2 5423   1.029   2.405   2.901
 1806TIP3    H1 5424   0.970   2.331   2.886
 1806TIP3    H2 5425   1.076   2.382   2.981
 1807TIP3   OH2 5426   1.411   2.491   3.635
 1807TIP3    H1 5427   1.401   2.414   3.579
 1807TIP3    H2 5428   1.399   2.565   3.576
 1808TIP3   OH2 5429   0.707   1.887   2.898
 1808TIP3    H1 5430   0.625   1.936   2.887
 1808TIP3    H2 5431   0.743   1.881   2.810
 1809TIP3   OH2 5432   0.638   1.668   2.637
 1809TIP3    H1 5433   0.722   1.710   2.657
 1809TIP3    H2 5434   0.651   1.629   2.550
 1810TIP3   OH2 5435   1.598   2.130   3.492
 1810TIP3    H1 5436   1.518   2.184   3.496
 1810TIP3    H2 5437   1.639   2.154   3.410
 1811TIP3   OH2 5438   1.058   1.964   2.869
 1811TIP3    H1 5439   1.004   1.995   2.941
 1811TIP3    H2 5440   1.143   1.943   2.909
 1812TIP3   OH2 5441   1.291   2.004   3.808
 1812TIP3    H1 5442   1.296   2.087   3.855
 1812TIP3    H2 5443   1.208   2.009   3.760
 1813TIP3   OH2 5444   0.294   1.955   3.278
 1813TIP3    H1 5445   0.255   1.895   3.214
 1813TIP3    H2 5446   0.369   1.907   3.314
 1814TIP3   OH2 5447   0.426   2.389   3.418
 1814TIP3    H1 5448   0.404   2.366   3.328
 1814TIP3    H2 5449   0.511   2.348   3.433
 1815TIP3   OH2 5450   0.413   1.942   3.648
 1815TIP3    H1 5451   0.448   1.911   3.565
 1815TIP3    H2 5452   0.459   2.024   3.665
 1816TIP3   OH2 5453   0.943   2.583   3.421
 1816TIP3    H1 5454   0.934   2.661   3.476
 1816TIP3    H2 5455   0.932   2.510   3.482
 1817TIP3   OH2 5456   0.584   2.479   3.963
 1817TIP3    H1 5457   0.528   2.547   4.000
 1817TIP3    H2 5458   0.525   2.426   3.909
 1818TIP3   OH2 5459   0.902   1.836   2.680
 1818TIP3    H1 5460   0.958   1.886   2.740
 1818TIP3    H2 5461   0.894   1.891   2.603
 1819TIP3   OH2 5462   0.337   2.041   4.091
 1819TIP3    H1 5463   0.337   2.128   4.130
 1819TIP3    H2 5464   0.248   2.030   4.056
 1820TIP3   OH2 5465   0.638   2.504   2.964
 1820TIP3    H1 5466   0.720   2.553   2.967
 1820TIP3    H2 5467   0.580   2.558   2.912
 1821TIP3   OH2 5468   0.397   2.663   4.027
 1821TIP3    H1 5469   0.347   2.656   3.946
 1821TIP3    H2 5470   0.333   2.645   4.096
 1822TIP3   OH2 5471   1.407   1.063   2.753
 1822TIP3    H1 5472   1.328   1.083   2.803
 1822TIP3    H2 5473   1.421   1.140   2.698
 1823TIP3   OH2 5474   0.165   1.802   3.075
 1823TIP3    H1 5475   0.096   1.853   3.034
 1823TIP3    H2 5476   0.120   1.726   3.113
 1824TIP3   OH2 5477   1.224   2.437   2.306
 1824TIP3    H1 5478   1.224   2.530   2.285
 1824TIP3    H2 5479   1.313   2.408   2.287
 1825TIP3   OH2 5480   6.479   2.156   3.953
 1825TIP3    H1 5481   6.479   2.108   3.871
 1825TIP3    H2 5482   6.519   2.097   4.016
 1826TIP3   OH2 5483   6.315   2.400   3.719
 1826TIP3    H1 5484   6.398   2.439   3.691
 1826TIP3    H2 5485   6.316   2.407   3.815
 1827TIP3   OH2 5486   1.642   2.875   3.692
 1827TIP3    H1 5487   1.678   2.789   3.713
 1827TIP3    H2 5488   1.563   2.882   3.745
 1828TIP3   OH2 5489   0.757   2.631   3.818
 1828TIP3    H1 5490   0.752   2.721   3.851
 1828TIP3    H2 5491   0.694   2.582   3.871
 1829TIP3   OH2 5492   0.529   2.737   2.780
 1829TIP3    H1 5493   0.481   2.717   2.700
 1829TIP3    H2 5494   0.493   2.820   2.810
 1830TIP3   OH2 5495   6.483   2.590   3.159
 1830TIP3    H1 5496   6.539   2.590   3.237
 1830TIP3    H2 5497   6.405   2.542   3.186
 1831TIP3   OH2 5498   0.730   2.658   2.410
 1831TIP3    H1 5499   0.781   2.586   2.374
 1831TIP3    H2 5500   0.764   2.671   2.499
 1832TIP3   OH2 5501   0.782   2.705   2.680
 1832TIP3    H1 5502   0.695   2.711   2.720
 1832TIP3    H2 5503   0.837   2.665   2.747
 1833TIP3   OH2 5504   1.535   1.963   3.981
 1833TIP3    H1 5505   1.455   1.971   3.929
 1833TIP3    H2 5506   1.556   1.870   3.979
 1834TIP3   OH2 5507   0.174   2.341   3.973
 1834TIP3    H1 5508   0.154   2.384   4.056
 1834TIP3    H2 5509   0.099   2.285   3.956
 1835TIP3   OH2 5510   0.546   1.203   3.782
 1835TIP3    H1 5511   0.463   1.165   3.753
 1835TIP3    H2 5512   0.520   1.283   3.830
 1836TIP3   OH2 5513   1.083   1.310   3.976
 1836TIP3    H1 5514   1.153   1.291   4.039
 1836TIP3    H2 5515   1.003   1.299   4.026
 1837TIP3   OH2 5516   1.293   1.738   3.886
 1837TIP3    H1 5517   1.255   1.736   3.973
 1837TIP3    H2 5518   1.284   1.828   3.857
 1838TIP3   OH2 5519   0.710   1.242   2.767
 1838TIP3    H1 5520   0.668   1.241   2.853
 1838TIP3    H2 5521   0.677   1.163   2.724
 1839TIP3   OH2 5522   0.473   1.716   3.791
 1839TIP3    H1 5523   0.432   1.731   3.877
 1839TIP3    H2 5524   0.457   1.798   3.743
 1840TIP3   OH2 5525   0.364   1.617   3.310
 1840TIP3    H1 5526   0.276   1.592   3.338
 1840TIP3    H2 5527   0.371   1.584   3.220
 1841TIP3   OH2 5528   0.835   1.689   3.041
 1841TIP3    H1 5529   0.787   1.761   2.999
 1841TIP3    H2 5530   0.896   1.658   2.974
 1842TIP3   OH2 5531   1.022   1.953   4.115
 1842TIP3    H1 5532   0.995   1.885   4.177
 1842TIP3    H2 5533   1.114   1.969   4.135
 1843TIP3   OH2 5534   0.995   1.697   3.271
 1843TIP3    H1 5535   0.930   1.723   3.205
 1843TIP3    H2 5536   1.042   1.624   3.230
 1844TIP3   OH2 5537   0.306   1.732   4.014
 1844TIP3    H1 5538   0.356   1.790   4.072
 1844TIP3    H2 5539   0.293   1.652   4.065
 1845TIP3   OH2 5540   0.301   1.183   2.780
 1845TIP3    H1 5541   0.298   1.166   2.874
 1845TIP3    H2 5542   0.270   1.274   2.771
 1846TIP3   OH2 5543   6.361   1.246   3.635
 1846TIP3    H1 5544   6.444   1.274   3.675
 1846TIP3    H2 5545   6.385   1.224   3.545
 1847TIP3   OH2 5546   6.346   1.291   3.120
 1847TIP3    H1 5547   6.379   1.284   3.030
 1847TIP3    H2 5548   6.362   1.382   3.144
 1848TIP3   OH2 5549   1.020   1.952   3.694
 1848TIP3    H1 5550   1.051   1.886   3.631
 1848TIP3    H2 5551   0.985   1.901   3.767
 1849TIP3   OH2 5552   0.711   1.403   3.365
 1849TIP3    H1 5553   0.633   1.408   3.421
 1849TIP3    H2 5554   0.785   1.399   3.426
 1850TIP3   OH2 5555   0.136   1.488   3.378
 1850TIP3    H1 5556   0.050   1.490   3.337
 1850TIP3    H2 5557   0.172   1.402   3.353
 1851TIP3   OH2 5558   0.377   1.499   3.062
 1851TIP3    H1 5559   0.472   1.509   3.052
 1851TIP3    H2 5560   0.343   1.507   2.972
 1852TIP3   OH2 5561   1.171   1.492   3.571
 1852TIP3    H1 5562   1.150   1.508   3.663
 1852TIP3    H2 5563   1.101   1.433   3.541
 1853TIP3   OH2 5564   0.247   1.486   2.815
 1853TIP3    H1 5565   0.152   1.494   2.810
 1853TIP3    H2 5566   0.280   1.541   2.744
 1854TIP3   OH2 5567   1.357   3.192   3.800
 1854TIP3    H1 5568   1.358   3.201   3.705
 1854TIP3    H2 5569   1.438   3.233   3.829
 1855TIP3   OH2 5570   0.320   2.258   4.253
 1855TIP3    H1 5571   0.399   2.295   4.292
 1855TIP3    H2 5572   0.262   2.333   4.241
 1856TIP3   OH2 5573   0.767   1.760   3.470
 1856TIP3    H1 5574   0.838   1.719   3.421
 1856TIP3    H2 5575   0.770   1.718   3.556
 1857TIP3   OH2 5576   0.281   1.265   3.322
 1857TIP3    H1 5577   0.267   1.183   3.371
 1857TIP3    H2 5578   0.295   1.237   3.232
 1858TIP3   OH2 5579   0.741   1.661   3.744
 1858TIP3    H1 5580   0.653   1.693   3.764
 1858TIP3    H2 5581   0.799   1.715   3.797
 1859TIP3   OH2 5582   0.474   2.033   2.853
 1859TIP3    H1 5583   0.403   1.972   2.833
 1859TIP3    H2 5584   0.451   2.071   2.938
 1860TIP3   OH2 5585   1.364   2.280   3.462
 1860TIP3    H1 5586   1.401   2.327   3.387
 1860TIP3    H2 5587   1.284   2.240   3.428
 1861TIP3   OH2 5588   0.950   1.361   2.726
 1861TIP3    H1 5589   0.859   1.332   2.736
 1861TIP3    H2 5590   0.950   1.451   2.756
 1862TIP3   OH2 5591   0.876   2.357   3.859
 1862TIP3    H1 5592   0.933   2.350   3.935
 1862TIP3    H2 5593   0.835   2.443   3.867
 1863TIP3   OH2 5594   1.001   1.614   2.827
 1863TIP3    H1 5595   1.096   1.615   2.843
 1863TIP3    H2 5596   0.984   1.691   2.774
 1864TIP3   OH2 5597   0.190   2.054   3.510
 1864TIP3    H1 5598   0.219   2.023   3.424
 1864TIP3    H2 5599   0.244   2.007   3.573
 1865TIP3   OH2 5600   0.627   2.191   2.693
 1865TIP3    H1 5601   0.580   2.274   2.691
 1865TIP3    H2 5602   0.571   2.133   2.746
 1866TIP3   OH2 5603   0.068   1.975   4.136
 1866TIP3    H1 5604   0.122   1.978   4.215
 1866TIP3    H2 5605   0.017   1.894   4.146
 1867TIP3   OH2 5606   0.793   2.107   4.151
 1867TIP3    H1 5607   0.733   2.063   4.091
 1867TIP3    H2 5608   0.879   2.070   4.130
 1868TIP3   OH2 5609   1.026   2.643   3.745
 1868TIP3    H1 5610   0.931   2.631   3.754
 1868TIP3    H2 5611   1.052   2.684   3.827
 1869TIP3   OH2 5612   1.407   1.691   2.647
 1869TIP3    H1 5613   1.333   1.654   2.599
 1869TIP3    H2 5614   1.419   1.778   2.608
 1870TIP3   OH2 5615   1.663   2.560   3.727
 1870TIP3    H1 5616   1.568   2.552   3.717
 1870TIP3    H2 5617   1.698   2.535   3.641
 1871TIP3   OH2 5618   1.147   2.510   2.569
 1871TIP3    H1 5619   1.122   2.439   2.628
 1871TIP3    H2 5620   1.166   2.466   2.486
 1872TIP3   OH2 5621   1.130   2.147   3.361
 1872TIP3    H1 5622   1.040   2.124   3.383
 1872TIP3    H2 5623   1.168   2.066   3.326
 1873TIP3   OH2 5624   0.286   2.379   3.162
 1873TIP3    H1 5625   0.294   2.456   3.106
 1873TIP3    H2 5626   0.192   2.360   3.163
 1874TIP3   OH2 5627   6.352   1.675   2.888
 1874TIP3    H1 5628   6.390   1.762   2.896
 1874TIP3    H2 5629   6.259   1.691   2.874
 1875TIP3   OH2 5630   0.385   2.132   3.087
 1875TIP3    H1 5631   0.365   2.222   3.113
 1875TIP3    H2 5632   0.355   2.079   3.160
 1876TIP3   OH2 5633   0.574   2.706   3.618
 1876TIP3    H1 5634   0.610   2.779   3.567
 1876TIP3    H2 5635   0.648   2.673   3.669
 1877TIP3   OH2 5636   0.210   2.606   3.005
 1877TIP3    H1 5637   0.124   2.606   3.047
 1877TIP3    H2 5638   0.238   2.698   3.009
 1878TIP3   OH2 5639   0.922   2.359   3.587
 1878TIP3    H1 5640   0.909   2.354   3.682
 1878TIP3    H2 5641   1.000   2.306   3.571
 1879TIP3   OH2 5642   0.911   2.250   2.472
 1879TIP3    H1 5643   0.960   2.222   2.549
 1879TIP3    H2 5644   0.823   2.215   2.486
 1880TIP3   OH2 5645   1.170   2.873   3.636
 1880TIP3    H1 5646   1.098   2.810   3.641
 1880TIP3    H2 5647   1.148   2.929   3.562
 1881TIP3   OH2 5648   1.235   2.714   2.272
 1881TIP3    H1 5649   1.276   2.786   2.225
 1881TIP3    H2 5650   1.157   2.753   2.312
 1882TIP3   OH2 5651   0.294   1.487   4.163
 1882TIP3    H1 5652   0.221   1.507   4.221
 1882TIP3    H2 5653   0.357   1.441   4.218
 1883TIP3   OH2 5654   1.078   2.159   2.669
 1883TIP3    H1 5655   1.067   2.101   2.745
 1883TIP3    H2 5656   1.172   2.166   2.658
 1884TIP3   OH2 5657   0.080   2.610   3.936
 1884TIP3    H1 5658   0.131   2.541   3.895
 1884TIP3    H2 5659  -0.011   2.590   3.912
 1885TIP3   OH2 5660   0.262   2.203   2.465
 1885TIP3    H1 5661   0.276   2.113   2.433
 1885TIP3    H2 5662   0.244   2.192   2.559
 1886TIP3   OH2 5663   0.208   2.224   2.739
 1886TIP3    H1 5664   0.281   2.197   2.794
 1886TIP3    H2 5665   0.206   2.319   2.745
 1887TIP3   OH2 5666   6.457   1.923   2.940
 1887TIP3    H1 5667   6.391   1.970   2.991
 1887TIP3    H2 5668   6.472   1.979   2.863
 1888TIP3   OH2 5669   1.102   1.546   3.831
 1888TIP3    H1 5670   1.178   1.595   3.862
 1888TIP3    H2 5671   1.099   1.469   3.888
 1889TIP3   OH2 5672   0.990   1.295   3.012
 1889TIP3    H1 5673   0.974   1.318   2.920
 1889TIP3    H2 5674   1.035   1.372   3.048
 1890TIP3   OH2 5675   0.483   2.418   2.686
 1890TIP3    H1 5676   0.395   2.440   2.719
 1890TIP3    H2 5677   0.503   2.489   2.624
 1891TIP3   OH2 5678   0.654   1.494   3.108
 1891TIP3    H1 5679   0.716   1.563   3.084
 1891TIP3    H2 5680   0.672   1.476   3.200
 1892TIP3   OH2 5681   0.940   1.784   3.898
 1892TIP3    H1 5682   0.969   1.833   3.976
 1892TIP3    H2 5683   0.994   1.705   3.898
 1893TIP3   OH2 5684   0.816   1.198   3.203
 1893TIP3    H1 5685   0.795   1.275   3.255
 1893TIP3    H2 5686   0.882   1.228   3.141
 1894TIP3   OH2 5687   0.229   2.497   2.755
 1894TIP3    H1 5688   0.205   2.568   2.694
 1894TIP3    H2 5689   0.222   2.537   2.842
 1895TIP3   OH2 5690   0.336   1.224   3.057
 1895TIP3    H1 5691   0.332   1.320   3.059
 1895TIP3    H2 5692   0.429   1.205   3.041
 1896TIP3   OH2 5693   1.562   1.694   3.893
 1896TIP3    H1 5694   1.466   1.693   3.892
 1896TIP3    H2 5695   1.587   1.666   3.805
 1897TIP3   OH2 5696   1.223   1.891   3.273
 1897TIP3    H1 5697   1.147   1.834   3.289
 1897TIP3    H2 5698   1.294   1.851   3.324
 1898TIP3   OH2 5699   6.460   2.092   2.720
 1898TIP3    H1 5700   6.526   2.161   2.729
 1898TIP3    H2 5701   6.500   2.027   2.662
 1899TIP3   OH2 5702   6.373   1.406   2.867
 1899TIP3    H1 5703   6.378   1.502   2.875
 1899TIP3    H2 5704   6.293   1.390   2.817
 1900TIP3   OH2 5705   1.220   2.868   3.210
 1900TIP3    H1 5706   1.177   2.921   3.142
 1900TIP3    H2 5707   1.313   2.877   3.192
 1901TIP3   OH2 5708   0.296   1.098   3.725
 1901TIP3    H1 5709   0.285   1.094   3.630
 1901TIP3    H2 5710   0.254   1.018   3.758
 1902TIP3   OH2 5711   6.362   2.302   3.120
 1902TIP3    H1 5712   6.277   2.344   3.135
 1902TIP3    H2 5713   6.379   2.314   3.027
 1903TIP3   OH2 5714   0.048   2.845   4.186
 1903TIP3    H1 5715   0.119   2.886   4.236
 1903TIP3    H2 5716  -0.026   2.904   4.196
 1904TIP3   OH2 5717   0.487   2.840   4.227
 1904TIP3    H1 5718   0.573   2.803   4.245
 1904TIP3    H2 5719   0.447   2.780   4.164
 1905TIP3   OH2 5720   0.423   2.409   2.372
 1905TIP3    H1 5721   0.373   2.336   2.410
 1905TIP3    H2 5722   0.498   2.367   2.330
 1906TIP3   OH2 5723   1.077   2.755   3.990
 1906TIP3    H1 5724   1.080   2.683   4.053
 1906TIP3    H2 5725   1.155   2.808   4.010
 1907TIP3   OH2 5726   0.865   2.453   2.291
 1907TIP3    H1 5727   0.898   2.388   2.354
 1907TIP3    H2 5728   0.924   2.445   2.217
 1908TIP3   OH2 5729   0.091   2.256   4.449
 1908TIP3    H1 5730   0.163   2.209   4.408
 1908TIP3    H2 5731   0.016   2.240   4.391
 1909TIP3   OH2 5732   0.097   1.892   2.605
 1909TIP3    H1 5733   0.160   1.884   2.677
 1909TIP3    H2 5734   0.150   1.888   2.526
 1910TIP3   OH2 5735   0.726   2.382   4.174
 1910TIP3    H1 5736   0.684   2.403   4.090
 1910TIP3    H2 5737   0.764   2.295   4.160
 1911TIP3   OH2 5738   0.645   2.144   2.426
 1911TIP3    H1 5739   0.623   2.158   2.518
 1911TIP3    H2 5740   0.645   2.048   2.415
 1912TIP3   OH2 5741   1.192   2.417   3.786
 1912TIP3    H1 5742   1.272   2.445   3.741
 1912TIP3    H2 5743   1.128   2.486   3.768
 1913TIP3   OH2 5744   0.228   2.009   4.376
 1913TIP3    H1 5745   0.302   2.027   4.318
 1913TIP3    H2 5746   0.258   2.035   4.463
 1914TIP3   OH2 5747   0.278   1.846   2.817
 1914TIP3    H1 5748   0.252   1.816   2.904
 1914TIP3    H2 5749   0.308   1.766   2.773
 1915TIP3   OH2 5750   0.553   1.891   4.036
 1915TIP3    H1 5751   0.484   1.954   4.056
 1915TIP3    H2 5752   0.605   1.933   3.968
 1916TIP3   OH2 5753   0.361   1.656   2.629
 1916TIP3    H1 5754   0.339   1.708   2.552
 1916TIP3    H2 5755   0.456   1.662   2.635
 1917TIP3   OH2 5756   1.072   2.301   4.159
 1917TIP3    H1 5757   1.151   2.273   4.112
 1917TIP3    H2 5758   1.071   2.247   4.238
 1918TIP3   OH2 5759   1.214   1.960   2.321
 1918TIP3    H1 5760   1.186   1.917   2.240
 1918TIP3    H2 5761   1.179   2.049   2.314
 1919TIP3   OH2 5762   0.677   1.693   4.173
 1919TIP3    H1 5763   0.684   1.618   4.114
 1919TIP3    H2 5764   0.638   1.762   4.118
 1920TIP3   OH2 5765   0.685   1.490   3.973
 1920TIP3    H1 5766   0.714   1.530   3.891
 1920TIP3    H2 5767   0.594   1.465   3.957
 1921TIP3   OH2 5768   0.704   2.029   3.861
 1921TIP3    H1 5769   0.793   2.049   3.832
 1921TIP3    H2 5770   0.648   2.086   3.808
 1922TIP3   OH2 5771   1.287   1.980   4.218
 1922TIP3    H1 5772   1.332   1.898   4.240
 1922TIP3    H2 5773   1.357   2.041   4.194
 1923TIP3   OH2 5774   1.325   2.245   3.949
 1923TIP3    H1 5775   1.270   2.305   3.900
 1923TIP3    H2 5776   1.415   2.264   3.921
 1924TIP3   OH2 5777   0.563   1.803   4.407
 1924TIP3    H1 5778   0.496   1.739   4.429
 1924TIP3    H2 5779   0.595   1.776   4.320
 1925TIP3   OH2 5780   0.820   1.262   4.060
 1925TIP3    H1 5781   0.777   1.342   4.032
 1925TIP3    H2 5782   0.755   1.193   4.047
 1926TIP3   OH2 5783   0.937   1.740   4.265
 1926TIP3    H1 5784   0.932   1.729   4.360
 1926TIP3    H2 5785   0.849   1.719   4.234
 1927TIP3   OH2 5786   1.174   1.688   4.123
 1927TIP3    H1 5787   1.099   1.693   4.182
 1927TIP3    H2 5788   1.248   1.668   4.181
 1928TIP3   OH2 5789   1.403   1.650   4.279
 1928TIP3    H1 5790   1.422   1.557   4.289
 1928TIP3    H2 5791   1.402   1.684   4.368
 1929TIP3   OH2 5792   0.393   1.603   4.490
 1929TIP3    H1 5793   0.407   1.522   4.440
 1929TIP3    H2 5794   0.433   1.586   4.575
 1930TIP3   OH2 5795   0.888   1.247   4.325
 1930TIP3    H1 5796   0.957   1.181   4.320
 1930TIP3    H2 5797   0.859   1.257   4.234
 1931TIP3   OH2 5798   0.970   1.466   4.471
 1931TIP3    H1 5799   0.944   1.393   4.415
 1931TIP3    H2 5800   0.896   1.526   4.470
 1932TIP3   OH2 5801   0.218   2.714   2.581
 1932TIP3    H1 5802   0.308   2.693   2.555
 1932TIP3    H2 5803   0.180   2.755   2.504
 1933TIP3   OH2 5804   6.197   2.060   2.784
 1933TIP3    H1 5805   6.288   2.062   2.755
 1933TIP3    H2 5806   6.152   2.010   2.716
 1934TIP3   OH2 5807   1.498   2.925   3.192
 1934TIP3    H1 5808   1.505   2.922   3.287
 1934TIP3    H2 5809   1.497   3.019   3.171
 1935TIP3   OH2 5810   1.490   2.943   3.471
 1935TIP3    H1 5811   1.439   2.862   3.473
 1935TIP3    H2 5812   1.556   2.931   3.539
 1936TIP3   OH2 5813   1.531   2.652   4.047
 1936TIP3    H1 5814   1.469   2.662   4.120
 1936TIP3    H2 5815   1.587   2.730   4.053
 1937TIP3   OH2 5816   1.358   2.154   2.659
 1937TIP3    H1 5817   1.416   2.222   2.628
 1937TIP3    H2 5818   1.402   2.117   2.736
 1938TIP3   OH2 5819   1.486   2.013   2.861
 1938TIP3    H1 5820   1.420   1.977   2.921
 1938TIP3    H2 5821   1.553   2.049   2.919
 1939TIP3   OH2 5822   1.529   2.413   3.286
 1939TIP3    H1 5823   1.587   2.344   3.254
 1939TIP3    H2 5824   1.532   2.480   3.218
 1940TIP3   OH2 5825   1.344   2.709   3.481
 1940TIP3    H1 5826   1.276   2.747   3.537
 1940TIP3    H2 5827   1.297   2.665   3.411
 1941TIP3   OH2 5828   1.406   1.928   2.509
 1941TIP3    H1 5829   1.339   1.935   2.440
 1941TIP3    H2 5830   1.391   2.004   2.564
 1942TIP3   OH2 5831   1.207   1.620   2.437
 1942TIP3    H1 5832   1.274   1.660   2.381
 1942TIP3    H2 5833   1.228   1.526   2.436
 1943TIP3   OH2 5834   1.286   1.878   3.004
 1943TIP3    H1 5835   1.299   1.783   2.997
 1943TIP3    H2 5836   1.269   1.893   3.097
 1944TIP3   OH2 5837   6.444   1.940   3.783
 1944TIP3    H1 5838   6.439   1.997   3.706
 1944TIP3    H2 5839   6.537   1.921   3.793
 1945TIP3   OH2 5840   1.583   2.303   3.861
 1945TIP3    H1 5841   1.647   2.235   3.844
 1945TIP3    H2 5842   1.614   2.379   3.812
 1946TIP3   OH2 5843   1.743   2.081   3.846
 1946TIP3    H1 5844   1.674   2.041   3.898
 1946TIP3    H2 5845   1.821   2.030   3.867
 1947TIP3   OH2 5846   1.231   1.353   2.435
 1947TIP3    H1 5847   1.303   1.314   2.484
 1947TIP3    H2 5848   1.159   1.291   2.447
 1948TIP3   OH2 5849   1.284   1.597   2.887
 1948TIP3    H1 5850   1.328   1.513   2.901
 1948TIP3    H2 5851   1.334   1.638   2.817
 1949TIP3   OH2 5852   1.439   1.764   3.401
 1949TIP3    H1 5853   1.520   1.783   3.353
 1949TIP3    H2 5854   1.453   1.802   3.487
 1950TIP3   OH2 5855   1.513   1.910   3.630
 1950TIP3    H1 5856   1.442   1.945   3.685
 1950TIP3    H2 5857   1.547   1.986   3.585
 1951TIP3   OH2 5858   0.143   1.534   4.384
 1951TIP3    H1 5859   0.216   1.564   4.439
 1951TIP3    H2 5860   0.073   1.597   4.401
 1952TIP3   OH2 5861   1.970   1.510   4.174
 1952TIP3    H1 5862   2.033   1.451   4.131
 1952TIP3    H2 5863   1.934   1.562   4.102
 1953TIP3   OH2 5864   1.395   1.348   2.936
 1953TIP3    H1 5865   1.443   1.331   3.017
 1953TIP3    H2 5866   1.335   1.273   2.928
 1954TIP3   OH2 5867   0.108   1.303   3.748
 1954TIP3    H1 5868   0.182   1.243   3.751
 1954TIP3    H2 5869   0.147   1.390   3.747
 1955TIP3   OH2 5870   6.419   1.562   3.892
 1955TIP3    H1 5871   6.432   1.567   3.798
 1955TIP3    H2 5872   6.419   1.653   3.922
 1956TIP3   OH2 5873   1.824   1.633   3.980
 1956TIP3    H1 5874   1.745   1.676   4.011
 1956TIP3    H2 5875   1.793   1.560   3.926
 1957TIP3   OH2 5876   1.456   1.268   2.573
 1957TIP3    H1 5877   1.501   1.202   2.520
 1957TIP3    H2 5878   1.517   1.341   2.578
 1958TIP3   OH2 5879   6.379   1.147   3.358
 1958TIP3    H1 5880   6.291   1.110   3.361
 1958TIP3    H2 5881   6.384   1.189   3.272
 1959TIP3   OH2 5882   1.037   2.824   2.839
 1959TIP3    H1 5883   1.085   2.807   2.758
 1959TIP3    H2 5884   1.097   2.876   2.892
 1960TIP3   OH2 5885   0.251   2.649   4.249
 1960TIP3    H1 5886   0.162   2.670   4.220
 1960TIP3    H2 5887   0.238   2.586   4.319
 1961TIP3   OH2 5888   0.342   2.642   3.754
 1961TIP3    H1 5889   0.294   2.722   3.734
 1961TIP3    H2 5890   0.428   2.654   3.714
 1962TIP3   OH2 5891   0.752   2.892   3.903
 1962TIP3    H1 5892   0.787   2.885   3.992
 1962TIP3    H2 5893   0.816   2.945   3.856
 1963TIP3   OH2 5894   0.940   3.048   3.777
 1963TIP3    H1 5895   1.006   2.992   3.735
 1963TIP3    H2 5896   0.990   3.106   3.834
 1964TIP3   OH2 5897   1.731   1.392   3.867
 1964TIP3    H1 5898   1.646   1.387   3.824
 1964TIP3    H2 5899   1.767   1.304   3.860
 1965TIP3   OH2 5900   6.436   3.061   3.821
 1965TIP3    H1 5901   6.466   3.115   3.747
 1965TIP3    H2 5902   6.512   3.055   3.878
 1966TIP3   OH2 5903   0.296   2.891   3.639
 1966TIP3    H1 5904   0.214   2.890   3.689
 1966TIP3    H2 5905   0.270   2.915   3.550
 1967TIP3   OH2 5906   0.653   2.913   3.451
 1967TIP3    H1 5907   0.587   2.926   3.383
 1967TIP3    H2 5908   0.667   3.000   3.488
 1968TIP3   OH2 5909   0.917   2.850   3.504
 1968TIP3    H1 5910   0.825   2.868   3.484
 1968TIP3    H2 5911   0.965   2.919   3.458
 1969TIP3   OH2 5912   1.121   3.033   3.410
 1969TIP3    H1 5913   1.113   3.118   3.367
 1969TIP3    H2 5914   1.157   2.975   3.342
 1970TIP3   OH2 5915   6.381   2.667   3.487
 1970TIP3    H1 5916   6.421   2.729   3.547
 1970TIP3    H2 5917   6.453   2.636   3.432
 1971TIP3   OH2 5918   0.128   2.594   3.388
 1971TIP3    H1 5919   0.133   2.516   3.443
 1971TIP3    H2 5920   0.216   2.632   3.392
 1972TIP3   OH2 5921   0.393   2.665   3.412
 1972TIP3    H1 5922   0.410   2.572   3.402
 1972TIP3    H2 5923   0.443   2.691   3.489
 1973TIP3   OH2 5924   0.942   1.313   3.496
 1973TIP3    H1 5925   0.905   1.240   3.546
 1973TIP3    H2 5926   1.011   1.273   3.444
 1974TIP3   OH2 5927   1.445   1.208   3.387
 1974TIP3    H1 5928   1.487   1.257   3.316
 1974TIP3    H2 5929   1.356   1.245   3.392
 1975TIP3   OH2 5930   1.557   1.294   3.154
 1975TIP3    H1 5931   1.626   1.235   3.125
 1975TIP3    H2 5932   1.594   1.382   3.141
 1976TIP3   OH2 5933   0.227   1.043   3.463
 1976TIP3    H1 5934   0.131   1.036   3.458
 1976TIP3    H2 5935   0.258   0.961   3.426
 1977TIP3   OH2 5936   0.657   1.068   3.396
 1977TIP3    H1 5937   0.702   1.117   3.328
 1977TIP3    H2 5938   0.697   1.098   3.478
 1978TIP3   OH2 5939   1.153   1.195   3.366
 1978TIP3    H1 5940   1.183   1.161   3.282
 1978TIP3    H2 5941   1.157   1.119   3.425
 1979TIP3   OH2 5942   1.211   1.137   2.936
 1979TIP3    H1 5943   1.130   1.184   2.957
 1979TIP3    H2 5944   1.201   1.052   2.978
 1980TIP3   OH2 5945   0.608   1.239   3.023
 1980TIP3    H1 5946   0.669   1.195   3.081
 1980TIP3    H2 5947   0.619   1.332   3.042
 1981TIP3   OH2 5948   0.473   2.639   2.509
 1981TIP3    H1 5949   0.557   2.666   2.472
 1981TIP3    H2 5950   0.443   2.567   2.454
 1982TIP3   OH2 5951   1.178   2.777   2.606
 1982TIP3    H1 5952   1.173   2.682   2.598
 1982TIP3    H2 5953   1.137   2.810   2.527
 1983TIP3   OH2 5954   0.428   1.357   4.367
 1983TIP3    H1 5955   0.379   1.282   4.400
 1983TIP3    H2 5956   0.517   1.346   4.400
 1984TIP3   OH2 5957   0.664   1.312   4.490
 1984TIP3    H1 5958   0.744   1.285   4.443
 1984TIP3    H2 5959   0.663   1.257   4.569
 1985TIP3   OH2 5960   6.305   2.489   2.529
 1985TIP3    H1 5961   6.321   2.574   2.572
 1985TIP3    H2 5962   6.392   2.449   2.524
 1986TIP3   OH2 5963   1.478   1.380   4.297
 1986TIP3    H1 5964   1.494   1.352   4.387
 1986TIP3    H2 5965   1.564   1.378   4.255
 1987TIP3   OH2 5966   1.390   2.916   3.803
 1987TIP3    H1 5967   1.316   2.888   3.750
 1987TIP3    H2 5968   1.379   3.011   3.813
 1988TIP3   OH2 5969   2.676   2.301   2.538
 1988TIP3    H1 5970   2.646   2.390   2.517
 1988TIP3    H2 5971   2.603   2.244   2.516
 1989TIP3   OH2 5972   2.662   2.280   2.948
 1989TIP3    H1 5973   2.710   2.281   3.031
 1989TIP3    H2 5974   2.624   2.193   2.943
 1990TIP3   OH2 5975   1.963   2.170   3.317
 1990TIP3    H1 5976   1.993   2.107   3.383
 1990TIP3    H2 5977   2.042   2.214   3.288
 1991TIP3   OH2 5978   2.928   2.608   2.640
 1991TIP3    H1 5979   2.922   2.538   2.705
 1991TIP3    H2 5980   2.939   2.688   2.691
 1992TIP3   OH2 5981   1.935   2.596   3.034
 1992TIP3    H1 5982   1.925   2.501   3.025
 1992TIP3    H2 5983   2.029   2.610   3.044
 1993TIP3   OH2 5984   1.643   1.788   2.784
 1993TIP3    H1 5985   1.606   1.873   2.810
 1993TIP3    H2 5986   1.570   1.741   2.744
 1994TIP3   OH2 5987   1.717   2.092   2.997
 1994TIP3    H1 5988   1.766   2.015   3.028
 1994TIP3    H2 5989   1.784   2.152   2.965
 1995TIP3   OH2 5990   2.553   3.077   2.655
 1995TIP3    H1 5991   2.586   2.988   2.639
 1995TIP3    H2 5992   2.534   3.079   2.749
 1996TIP3   OH2 5993   2.474   2.513   2.970
 1996TIP3    H1 5994   2.512   2.433   2.935
 1996TIP3    H2 5995   2.550   2.566   2.997
 1997TIP3   OH2 5996   3.502   1.842   2.988
 1997TIP3    H1 5997   3.523   1.923   3.035
 1997TIP3    H2 5998   3.515   1.864   2.895
 1998TIP3   OH2 5999   2.885   2.008   3.006
 1998TIP3    H1 6000   2.926   1.926   3.032
 1998TIP3    H2 6001   2.848   1.990   2.919
 1999TIP3   OH2 6002   2.238   1.671   2.972
 1999TIP3    H1 6003   2.220   1.744   2.913
 1999TIP3    H2 6004   2.183   1.600   2.938
 2000TIP3   OH2 6005   2.933   1.768   2.597
 2000TIP3    H1 6006   2.998   1.760   2.667
 2000TIP3    H2 6007   2.982   1.803   2.522
 2001TIP3   OH2 6008   1.860   1.876   3.092
 2001TIP3    H1 6009   1.943   1.862   3.138
 2001TIP3    H2 6010   1.869   1.826   3.011
 2002TIP3   OH2 6011   2.292   2.077   2.897
 2002TIP3    H1 6012   2.386   2.059   2.907
 2002TIP3    H2 6013   2.256   1.995   2.863
 2003TIP3   OH2 6014   3.566   2.056   3.154
 2003TIP3    H1 6015   3.482   2.101   3.144
 2003TIP3    H2 6016   3.605   2.097   3.231
 2004TIP3   OH2 6017   2.221   1.667   3.418
 2004TIP3    H1 6018   2.170   1.704   3.345
 2004TIP3    H2 6019   2.168   1.682   3.495
 2005TIP3   OH2 6020   2.570   2.522   2.403
 2005TIP3    H1 6021   2.530   2.498   2.320
 2005TIP3    H2 6022   2.519   2.596   2.435
 2006TIP3   OH2 6023   2.334   2.429   3.193
 2006TIP3    H1 6024   2.270   2.494   3.222
 2006TIP3    H2 6025   2.381   2.471   3.121
 2007TIP3   OH2 6026   3.103   1.783   2.810
 2007TIP3    H1 6027   3.062   1.761   2.894
 2007TIP3    H2 6028   3.158   1.858   2.829
 2008TIP3   OH2 6029   2.102   1.774   3.191
 2008TIP3    H1 6030   2.154   1.851   3.216
 2008TIP3    H2 6031   2.151   1.734   3.120
 2009TIP3   OH2 6032   2.145   2.610   3.274
 2009TIP3    H1 6033   2.176   2.699   3.259
 2009TIP3    H2 6034   2.092   2.616   3.353
 2010TIP3   OH2 6035   1.533   2.337   2.540
 2010TIP3    H1 6036   1.501   2.354   2.452
 2010TIP3    H2 6037   1.562   2.422   2.572
 2011TIP3   OH2 6038   2.938   2.848   2.795
 2011TIP3    H1 6039   2.862   2.856   2.854
 2011TIP3    H2 6040   2.941   2.932   2.749
 2012TIP3   OH2 6041   3.299   1.719   3.145
 2012TIP3    H1 6042   3.213   1.750   3.115
 2012TIP3    H2 6043   3.361   1.755   3.081
 2013TIP3   OH2 6044   2.562   1.362   3.140
 2013TIP3    H1 6045   2.553   1.270   3.165
 2013TIP3    H2 6046   2.488   1.406   3.181
 2014TIP3   OH2 6047   2.682   2.878   2.442
 2014TIP3    H1 6048   2.737   2.800   2.430
 2014TIP3    H2 6049   2.738   2.951   2.415
 2015TIP3   OH2 6050   2.830   2.653   2.384
 2015TIP3    H1 6051   2.762   2.587   2.379
 2015TIP3    H2 6052   2.877   2.633   2.466
 2016TIP3   OH2 6053   3.190   2.764   3.120
 2016TIP3    H1 6054   3.187   2.689   3.061
 2016TIP3    H2 6055   3.179   2.840   3.062
 2017TIP3   OH2 6056   2.499   2.142   2.391
 2017TIP3    H1 6057   2.419   2.191   2.370
 2017TIP3    H2 6058   2.548   2.140   2.309
 2018TIP3   OH2 6059   2.468   1.944   2.091
 2018TIP3    H1 6060   2.534   1.993   2.140
 2018TIP3    H2 6061   2.518   1.878   2.043
 2019TIP3   OH2 6062   3.379   2.368   2.957
 2019TIP3    H1 6063   3.305   2.427   2.971
 2019TIP3    H2 6064   3.424   2.406   2.881
 2020TIP3   OH2 6065   2.859   2.229   2.351
 2020TIP3    H1 6066   2.804   2.259   2.424
 2020TIP3    H2 6067   2.942   2.204   2.392
 2021TIP3   OH2 6068   3.085   2.256   3.287
 2021TIP3    H1 6069   3.092   2.338   3.336
 2021TIP3    H2 6070   3.000   2.262   3.243
 2022TIP3   OH2 6071   2.084   2.216   2.769
 2022TIP3    H1 6072   2.050   2.157   2.702
 2022TIP3    H2 6073   2.159   2.169   2.806
 2023TIP3   OH2 6074   2.220   2.632   2.914
 2023TIP3    H1 6075   2.201   2.612   2.823
 2023TIP3    H2 6076   2.307   2.594   2.929
 2024TIP3   OH2 6077   2.193   2.206   3.123
 2024TIP3    H1 6078   2.232   2.172   3.042
 2024TIP3    H2 6079   2.247   2.282   3.145
 2025TIP3   OH2 6080   2.687   2.092   2.187
 2025TIP3    H1 6081   2.748   2.148   2.236
 2025TIP3    H2 6082   2.713   2.102   2.096
 2026TIP3   OH2 6083   2.127   2.305   3.566
 2026TIP3    H1 6084   2.140   2.392   3.603
 2026TIP3    H2 6085   2.033   2.288   3.577
 2027TIP3   OH2 6086   2.435   2.763   2.450
 2027TIP3    H1 6087   2.519   2.807   2.458
 2027TIP3    H2 6088   2.379   2.827   2.406
 2028TIP3   OH2 6089   3.203   1.320   2.242
 2028TIP3    H1 6090   3.125   1.340   2.293
 2028TIP3    H2 6091   3.216   1.397   2.186
 2029TIP3   OH2 6092   1.961   2.061   2.562
 2029TIP3    H1 6093   1.885   2.105   2.526
 2029TIP3    H2 6094   1.931   1.972   2.582
 2030TIP3   OH2 6095   3.017   2.695   1.792
 2030TIP3    H1 6096   3.018   2.789   1.775
 2030TIP3    H2 6097   3.106   2.666   1.772
 2031TIP3   OH2 6098   1.751   2.469   3.485
 2031TIP3    H1 6099   1.686   2.440   3.421
 2031TIP3    H2 6100   1.791   2.389   3.518
 2032TIP3   OH2 6101   1.588   2.631   3.111
 2032TIP3    H1 6102   1.683   2.627   3.102
 2032TIP3    H2 6103   1.572   2.713   3.157
 2033TIP3   OH2 6104   3.431   3.078   3.147
 2033TIP3    H1 6105   3.462   2.997   3.189
 2033TIP3    H2 6106   3.494   3.145   3.174
 2034TIP3   OH2 6107   2.324   2.986   2.268
 2034TIP3    H1 6108   2.278   2.972   2.185
 2034TIP3    H2 6109   2.293   3.072   2.297
 2035TIP3   OH2 6110   1.755   2.846   2.655
 2035TIP3    H1 6111   1.794   2.844   2.743
 2035TIP3    H2 6112   1.713   2.760   2.646
 2036TIP3   OH2 6113   2.524   2.913   1.899
 2036TIP3    H1 6114   2.576   2.841   1.863
 2036TIP3    H2 6115   2.559   2.927   1.987
 2037TIP3   OH2 6116   2.579   2.962   2.167
 2037TIP3    H1 6117   2.494   2.962   2.212
 2037TIP3    H2 6118   2.641   2.934   2.235
 2038TIP3   OH2 6119   3.342   2.220   3.467
 2038TIP3    H1 6120   3.257   2.234   3.425
 2038TIP3    H2 6121   3.357   2.125   3.460
 2039TIP3   OH2 6122   1.968   2.732   3.473
 2039TIP3    H1 6123   2.029   2.748   3.544
 2039TIP3    H2 6124   1.913   2.660   3.505
 2040TIP3   OH2 6125   2.327   1.454   3.270
 2040TIP3    H1 6126   2.242   1.424   3.238
 2040TIP3    H2 6127   2.307   1.535   3.317
 2041TIP3   OH2 6128   2.871   1.564   3.467
 2041TIP3    H1 6129   2.941   1.545   3.530
 2041TIP3    H2 6130   2.790   1.550   3.516
 2042TIP3   OH2 6131   3.092   1.995   3.377
 2042TIP3    H1 6132   3.049   1.991   3.463
 2042TIP3    H2 6133   3.077   2.084   3.346
 2043TIP3   OH2 6134   2.766   2.101   1.928
 2043TIP3    H1 6135   2.726   2.091   1.841
 2043TIP3    H2 6136   2.850   2.145   1.911
 2044TIP3   OH2 6137   2.476   1.498   2.238
 2044TIP3    H1 6138   2.442   1.503   2.328
 2044TIP3    H2 6139   2.440   1.417   2.203
 2045TIP3   OH2 6140   2.261   1.983   3.268
 2045TIP3    H1 6141   2.246   2.008   3.359
 2045TIP3    H2 6142   2.237   2.060   3.217
 2046TIP3   OH2 6143   2.147   1.862   2.797
 2046TIP3    H1 6144   2.058   1.839   2.822
 2046TIP3    H2 6145   2.158   1.825   2.709
 2047TIP3   OH2 6146   2.627   1.938   2.526
 2047TIP3    H1 6147   2.581   2.011   2.485
 2047TIP3    H2 6148   2.687   1.907   2.458
 2048TIP3   OH2 6149   2.824   2.199   3.589
 2048TIP3    H1 6150   2.803   2.135   3.657
 2048TIP3    H2 6151   2.909   2.234   3.614
 2049TIP3   OH2 6152   2.789   1.952   2.756
 2049TIP3    H1 6153   2.723   1.979   2.692
 2049TIP3    H2 6154   2.836   1.880   2.714
 2050TIP3   OH2 6155   2.075   1.992   3.499
 2050TIP3    H1 6156   2.141   2.043   3.547
 2050TIP3    H2 6157   2.071   1.909   3.547
 2051TIP3   OH2 6158   2.138   1.478   2.207
 2051TIP3    H1 6159   2.131   1.480   2.303
 2051TIP3    H2 6160   2.061   1.526   2.176
 2052TIP3   OH2 6161   1.686   1.518   3.078
 2052TIP3    H1 6162   1.755   1.554   3.134
 2052TIP3    H2 6163   1.731   1.498   2.996
 2053TIP3   OH2 6164   1.608   1.501   2.590
 2053TIP3    H1 6165   1.652   1.536   2.512
 2053TIP3    H2 6166   1.544   1.568   2.614
 2054TIP3   OH2 6167   2.819   2.208   3.177
 2054TIP3    H1 6168   2.848   2.142   3.114
 2054TIP3    H2 6169   2.781   2.157   3.249
 2055TIP3   OH2 6170   2.503   1.658   2.851
 2055TIP3    H1 6171   2.427   1.662   2.910
 2055TIP3    H2 6172   2.578   1.652   2.910
 2056TIP3   OH2 6173   1.907   1.740   2.858
 2056TIP3    H1 6174   1.818   1.742   2.822
 2056TIP3    H2 6175   1.938   1.651   2.842
 2057TIP3   OH2 6176   2.161   1.735   2.554
 2057TIP3    H1 6177   2.255   1.748   2.543
 2057TIP3    H2 6178   2.124   1.755   2.468
 2058TIP3   OH2 6179   2.968   1.745   3.052
 2058TIP3    H1 6180   2.951   1.760   3.145
 2058TIP3    H2 6181   2.897   1.687   3.024
 2059TIP3   OH2 6182   2.038   1.766   2.310
 2059TIP3    H1 6183   1.976   1.719   2.255
 2059TIP3    H2 6184   2.095   1.812   2.248
 2060TIP3   OH2 6185   2.559   2.011   2.959
 2060TIP3    H1 6186   2.631   1.970   2.911
 2060TIP3    H2 6187   2.561   1.970   3.045
 2061TIP3   OH2 6188   2.055   1.495   2.848
 2061TIP3    H1 6189   2.025   1.418   2.898
 2061TIP3    H2 6190   2.094   1.457   2.769
 2062TIP3   OH2 6191   2.532   1.917   3.230
 2062TIP3    H1 6192   2.444   1.953   3.247
 2062TIP3    H2 6193   2.591   1.972   3.282
 2063TIP3   OH2 6194   2.266   2.288   2.332
 2063TIP3    H1 6195   2.193   2.230   2.311
 2063TIP3    H2 6196   2.244   2.325   2.417
 2064TIP3   OH2 6197   3.160   2.542   2.949
 2064TIP3    H1 6198   3.195   2.589   2.874
 2064TIP3    H2 6199   3.080   2.501   2.916
 2065TIP3   OH2 6200   2.731   1.596   2.233
 2065TIP3    H1 6201   2.637   1.576   2.231
 2065TIP3    H2 6202   2.735   1.691   2.245
 2066TIP3   OH2 6203   2.692   2.577   3.333
 2066TIP3    H1 6204   2.738   2.561   3.416
 2066TIP3    H2 6205   2.658   2.666   3.342
 2067TIP3   OH2 6206   2.792   1.860   2.309
 2067TIP3    H1 6207   2.887   1.865   2.319
 2067TIP3    H2 6208   2.769   1.938   2.257
 2068TIP3   OH2 6209   1.958   2.312   2.998
 2068TIP3    H1 6210   1.996   2.293   2.912
 2068TIP3    H2 6211   2.022   2.278   3.061
 2069TIP3   OH2 6212   2.420   2.446   2.170
 2069TIP3    H1 6213   2.372   2.529   2.170
 2069TIP3    H2 6214   2.368   2.387   2.224
 2070TIP3   OH2 6215   1.858   2.259   3.640
 2070TIP3    H1 6216   1.902   2.258   3.725
 2070TIP3    H2 6217   1.798   2.184   3.643
 2071TIP3   OH2 6218   2.582   2.320   3.648
 2071TIP3    H1 6219   2.534   2.328   3.565
 2071TIP3    H2 6220   2.671   2.297   3.622
 2072TIP3   OH2 6221   3.219   1.952   2.133
 2072TIP3    H1 6222   3.163   1.905   2.071
 2072TIP3    H2 6223   3.222   2.042   2.100
 2073TIP3   OH2 6224   3.445   2.807   3.220
 2073TIP3    H1 6225   3.352   2.807   3.198
 2073TIP3    H2 6226   3.489   2.775   3.140
 2074TIP3   OH2 6227   2.944   2.769   2.061
 2074TIP3    H1 6228   2.916   2.704   2.125
 2074TIP3    H2 6229   2.957   2.720   1.981
 2075TIP3   OH2 6230   2.928   2.404   2.848
 2075TIP3    H1 6231   2.837   2.386   2.870
 2075TIP3    H2 6232   2.962   2.322   2.813
 2076TIP3   OH2 6233   2.075   2.633   2.643
 2076TIP3    H1 6234   2.077   2.713   2.589
 2076TIP3    H2 6235   1.982   2.621   2.664
 2077TIP3   OH2 6236   1.637   1.926   2.355
 2077TIP3    H1 6237   1.683   2.007   2.376
 2077TIP3    H2 6238   1.560   1.927   2.412
 2078TIP3   OH2 6239   2.175   2.387   2.567
 2078TIP3    H1 6240   2.155   2.477   2.591
 2078TIP3    H2 6241   2.149   2.336   2.643
 2079TIP3   OH2 6242   1.983   2.867   2.497
 2079TIP3    H1 6243   1.900   2.871   2.545
 2079TIP3    H2 6244   2.015   2.957   2.498
 2080TIP3   OH2 6245   2.732   2.561   3.060
 2080TIP3    H1 6246   2.722   2.562   3.155
 2080TIP3    H2 6247   2.826   2.549   3.047
 2081TIP3   OH2 6248   2.703   2.503   1.959
 2081TIP3    H1 6249   2.762   2.477   2.029
 2081TIP3    H2 6250   2.617   2.468   1.984
 2082TIP3   OH2 6251   3.033   2.972   1.763
 2082TIP3    H1 6252   3.074   3.046   1.718
 2082TIP3    H2 6253   2.955   3.009   1.803
 2083TIP3   OH2 6254   2.055   1.738   3.629
 2083TIP3    H1 6255   1.960   1.744   3.639
 2083TIP3    H2 6256   2.085   1.695   3.709
 2084TIP3   OH2 6257   2.880   2.417   2.146
 2084TIP3    H1 6258   2.865   2.360   2.221
 2084TIP3    H2 6259   2.976   2.423   2.140
 2085TIP3   OH2 6260   2.053   2.471   1.958
 2085TIP3    H1 6261   2.066   2.380   1.932
 2085TIP3    H2 6262   2.037   2.467   2.053
 2086TIP3   OH2 6263   2.000   2.484   2.232
 2086TIP3    H1 6264   2.075   2.455   2.285
 2086TIP3    H2 6265   2.001   2.580   2.239
 2087TIP3   OH2 6266   1.735   2.171   2.441
 2087TIP3    H1 6267   1.670   2.217   2.493
 2087TIP3    H2 6268   1.756   2.233   2.370
 2088TIP3   OH2 6269   2.910   1.793   3.314
 2088TIP3    H1 6270   2.981   1.844   3.351
 2088TIP3    H2 6271   2.900   1.719   3.374
 2089TIP3   OH2 6272   2.787   1.549   2.504
 2089TIP3    H1 6273   2.768   1.567   2.412
 2089TIP3    H2 6274   2.830   1.629   2.535
 2090TIP3   OH2 6275   2.269   2.671   2.172
 2090TIP3    H1 6276   2.185   2.696   2.210
 2090TIP3    H2 6277   2.298   2.748   2.123
 2091TIP3   OH2 6278   2.440   1.749   2.596
 2091TIP3    H1 6279   2.503   1.816   2.570
 2091TIP3    H2 6280   2.461   1.730   2.687
 2092TIP3   OH2 6281   2.733   2.040   3.380
 2092TIP3    H1 6282   2.759   2.094   3.454
 2092TIP3    H2 6283   2.788   1.962   3.387
 2093TIP3   OH2 6284   2.603   1.448   2.685
 2093TIP3    H1 6285   2.582   1.525   2.739
 2093TIP3    H2 6286   2.671   1.479   2.626
 2094TIP3   OH2 6287   2.018   2.757   2.248
 2094TIP3    H1 6288   1.997   2.827   2.186
 2094TIP3    H2 6289   2.005   2.797   2.334
 2095TIP3   OH2 6290   2.118   1.465   2.485
 2095TIP3    H1 6291   2.108   1.554   2.518
 2095TIP3    H2 6292   2.212   1.448   2.491
 2096TIP3   OH2 6293   3.359   1.951   3.377
 2096TIP3    H1 6294   3.264   1.950   3.381
 2096TIP3    H2 6295   3.379   1.932   3.285
 2097TIP3   OH2 6296   3.018   2.145   2.757
 2097TIP3    H1 6297   2.940   2.093   2.774
 2097TIP3    H2 6298   3.086   2.104   2.811
 2098TIP3   OH2 6299   1.752   2.358   2.230
 2098TIP3    H1 6300   1.823   2.421   2.240
 2098TIP3    H2 6301   1.786   2.294   2.167
 2099TIP3   OH2 6302   1.660   1.649   2.366
 2099TIP3    H1 6303   1.673   1.744   2.371
 2099TIP3    H2 6304   1.644   1.631   2.274
 2100TIP3   OH2 6305   2.987   3.103   2.694
 2100TIP3    H1 6306   2.945   3.157   2.627
 2100TIP3    H2 6307   3.081   3.118   2.682
 2101TIP3   OH2 6308   2.064   1.369   3.231
 2101TIP3    H1 6309   2.036   1.337   3.145
 2101TIP3    H2 6310   2.055   1.294   3.289
 2102TIP3   OH2 6311   1.592   2.608   2.615
 2102TIP3    H1 6312   1.536   2.639   2.686
 2102TIP3    H2 6313   1.558   2.652   2.537
 2103TIP3   OH2 6314   1.767   3.143   3.679
 2103TIP3    H1 6315   1.847   3.148   3.732
 2103TIP3    H2 6316   1.740   3.052   3.685
 2104TIP3   OH2 6317   2.220   3.092   3.717
 2104TIP3    H1 6318   2.308   3.098   3.753
 2104TIP3    H2 6319   2.212   3.000   3.688
 2105TIP3   OH2 6320   2.218   2.667   1.853
 2105TIP3    H1 6321   2.169   2.597   1.897
 2105TIP3    H2 6322   2.293   2.623   1.815
 2106TIP3   OH2 6323   2.659   2.706   1.778
 2106TIP3    H1 6324   2.688   2.642   1.843
 2106TIP3    H2 6325   2.721   2.698   1.706
 2107TIP3   OH2 6326   1.850   2.533   3.929
 2107TIP3    H1 6327   1.931   2.515   3.881
 2107TIP3    H2 6328   1.784   2.547   3.861
 2108TIP3   OH2 6329   1.880   2.165   2.085
 2108TIP3    H1 6330   1.933   2.142   2.161
 2108TIP3    H2 6331   1.943   2.179   2.014
 2109TIP3   OH2 6332   2.414   2.390   1.899
 2109TIP3    H1 6333   2.407   2.403   1.994
 2109TIP3    H2 6334   2.411   2.295   1.888
 2110TIP3   OH2 6335   2.994   2.648   3.276
 2110TIP3    H1 6336   3.063   2.694   3.229
 2110TIP3    H2 6337   2.913   2.692   3.249
 2111TIP3   OH2 6338   2.032   2.271   3.861
 2111TIP3    H1 6339   2.123   2.249   3.841
 2111TIP3    H2 6340   2.035   2.308   3.949
 2112TIP3   OH2 6341   2.060   2.105   2.292
 2112TIP3    H1 6342   2.043   2.075   2.381
 2112TIP3    H2 6343   2.107   2.033   2.251
 2113TIP3   OH2 6344   2.329   2.134   3.504
 2113TIP3    H1 6345   2.267   2.202   3.530
 2113TIP3    H2 6346   2.397   2.181   3.455
 2114TIP3   OH2 6347   2.194   1.914   2.140
 2114TIP3    H1 6348   2.165   1.918   2.049
 2114TIP3    H2 6349   2.290   1.919   2.135
 2115TIP3   OH2 6350   2.858   2.520   3.623
 2115TIP3    H1 6351   2.941   2.566   3.629
 2115TIP3    H2 6352   2.845   2.483   3.711
 2116TIP3   OH2 6353   2.994   2.216   1.816
 2116TIP3    H1 6354   2.979   2.172   1.732
 2116TIP3    H2 6355   2.965   2.306   1.801
 2117TIP3   OH2 6356   2.474   1.952   3.654
 2117TIP3    H1 6357   2.483   1.876   3.597
 2117TIP3    H2 6358   2.432   2.019   3.599
 2118TIP3   OH2 6359   2.482   1.746   3.457
 2118TIP3    H1 6360   2.511   1.786   3.375
 2118TIP3    H2 6361   2.391   1.722   3.442
 2119TIP3   OH2 6362   2.503   2.295   3.364
 2119TIP3    H1 6363   2.590   2.316   3.333
 2119TIP3    H2 6364   2.444   2.345   3.308
 2120TIP3   OH2 6365   3.083   2.243   3.705
 2120TIP3    H1 6366   3.138   2.165   3.715
 2120TIP3    H2 6367   3.143   2.312   3.677
 2121TIP3   OH2 6368   3.141   2.484   3.435
 2121TIP3    H1 6369   3.078   2.541   3.391
 2121TIP3    H2 6370   3.226   2.514   3.403
 2122TIP3   OH2 6371   2.355   2.046   3.893
 2122TIP3    H1 6372   2.285   1.982   3.911
 2122TIP3    H2 6373   2.387   2.022   3.806
 2123TIP3   OH2 6374   2.604   1.511   3.549
 2123TIP3    H1 6375   2.563   1.592   3.518
 2123TIP3    H2 6376   2.537   1.444   3.535
 2124TIP3   OH2 6377   2.736   1.993   3.750
 2124TIP3    H1 6378   2.725   1.986   3.845
 2124TIP3    H2 6379   2.649   1.981   3.714
 2125TIP3   OH2 6380   2.973   1.932   3.611
 2125TIP3    H1 6381   2.896   1.942   3.668
 2125TIP3    H2 6382   3.046   1.919   3.672
 2126TIP3   OH2 6383   3.210   1.911   3.766
 2126TIP3    H1 6384   3.223   1.816   3.774
 2126TIP3    H2 6385   3.203   1.942   3.857
 2127TIP3   OH2 6386   2.188   1.823   3.956
 2127TIP3    H1 6387   2.195   1.733   3.924
 2127TIP3    H2 6388   2.226   1.821   4.044
 2128TIP3   OH2 6389   2.680   1.500   3.812
 2128TIP3    H1 6390   2.750   1.436   3.805
 2128TIP3    H2 6391   2.646   1.509   3.722
 2129TIP3   OH2 6392   2.762   1.717   3.961
 2129TIP3    H1 6393   2.735   1.647   3.901
 2129TIP3    H2 6394   2.691   1.781   3.956
 2130TIP3   OH2 6395   2.007   2.961   2.058
 2130TIP3    H1 6396   2.098   2.941   2.036
 2130TIP3    H2 6397   1.974   3.011   1.984
 2131TIP3   OH2 6398   1.480   2.341   2.256
 2131TIP3    H1 6399   1.574   2.358   2.248
 2131TIP3    H2 6400   1.467   2.256   2.215
 2132TIP3   OH2 6401   1.382   2.936   2.697
 2132TIP3    H1 6402   1.320   2.879   2.651
 2132TIP3    H2 6403   1.429   2.877   2.756
 2133TIP3   OH2 6404   1.506   2.776   2.882
 2133TIP3    H1 6405   1.515   2.698   2.937
 2133TIP3    H2 6406   1.533   2.849   2.938
 2134TIP3   OH2 6407   3.256   3.168   2.664
 2134TIP3    H1 6408   3.273   3.193   2.754
 2134TIP3    H2 6409   3.317   3.222   2.612
 2135TIP3   OH2 6410   3.330   3.214   2.922
 2135TIP3    H1 6411   3.311   3.129   2.961
 2135TIP3    H2 6412   3.334   3.274   2.996
 2136TIP3   OH2 6413   3.314   2.910   3.566
 2136TIP3    H1 6414   3.237   2.917   3.623
 2136TIP3    H2 6415   3.330   2.999   3.537
 2137TIP3   OH2 6416   3.158   2.412   2.145
 2137TIP3    H1 6417   3.218   2.481   2.117
 2137TIP3    H2 6418   3.199   2.374   2.222
 2138TIP3   OH2 6419   3.278   2.270   2.349
 2138TIP3    H1 6420   3.210   2.231   2.404
 2138TIP3    H2 6421   3.342   2.305   2.411
 2139TIP3   OH2 6422   3.318   2.668   2.763
 2139TIP3    H1 6423   3.378   2.603   2.727
 2139TIP3    H2 6424   3.324   2.742   2.703
 2140TIP3   OH2 6425   3.138   2.977   2.949
 2140TIP3    H1 6426   3.091   3.060   2.956
 2140TIP3    H2 6427   3.085   2.925   2.888
 2141TIP3   OH2 6428   3.202   2.189   1.992
 2141TIP3    H1 6429   3.131   2.188   1.928
 2141TIP3    H2 6430   3.184   2.266   2.047
 2142TIP3   OH2 6431   3.068   1.846   1.933
 2142TIP3    H1 6432   3.022   1.884   1.858
 2142TIP3    H2 6433   3.053   1.751   1.925
 2143TIP3   OH2 6434   3.081   2.133   2.488
 2143TIP3    H1 6435   3.087   2.038   2.478
 2143TIP3    H2 6436   3.063   2.146   2.581
 2144TIP3   OH2 6437   1.703   2.206   3.248
 2144TIP3    H1 6438   1.697   2.168   3.160
 2144TIP3    H2 6439   1.797   2.202   3.269
 2145TIP3   OH2 6440   3.387   2.569   3.351
 2145TIP3    H1 6441   3.450   2.502   3.323
 2145TIP3    H2 6442   3.413   2.648   3.303
 2146TIP3   OH2 6443   3.541   2.342   3.318
 2146TIP3    H1 6444   3.470   2.305   3.372
 2146TIP3    H2 6445   3.619   2.295   3.345
 2147TIP3   OH2 6446   3.013   1.578   1.908
 2147TIP3    H1 6447   3.078   1.547   1.972
 2147TIP3    H2 6448   2.932   1.534   1.933
 2148TIP3   OH2 6449   3.081   1.856   2.370
 2148TIP3    H1 6450   3.125   1.772   2.383
 2148TIP3    H2 6451   3.128   1.896   2.297
 2149TIP3   OH2 6452   3.232   2.015   2.891
 2149TIP3    H1 6453   3.314   2.034   2.845
 2149TIP3    H2 6454   3.243   2.053   2.978
 2150TIP3   OH2 6455   3.305   2.161   3.120
 2150TIP3    H1 6456   3.233   2.194   3.174
 2150TIP3    H2 6457   3.333   2.237   3.069
 2151TIP3   OH2 6458   1.924   1.877   3.895
 2151TIP3    H1 6459   2.018   1.879   3.911
 2151TIP3    H2 6460   1.894   1.797   3.937
 2152TIP3   OH2 6461   3.770   1.769   3.665
 2152TIP3    H1 6462   3.830   1.710   3.619
 2152TIP3    H2 6463   3.730   1.821   3.595
 2153TIP3   OH2 6464   3.194   1.604   2.419
 2153TIP3    H1 6465   3.238   1.589   2.503
 2153TIP3    H2 6466   3.131   1.533   2.412
 2154TIP3   OH2 6467   1.892   1.588   3.252
 2154TIP3    H1 6468   1.950   1.511   3.256
 2154TIP3    H2 6469   1.952   1.662   3.237
 2155TIP3   OH2 6470   1.682   1.853   3.310
 2155TIP3    H1 6471   1.735   1.850   3.230
 2155TIP3    H2 6472   1.715   1.929   3.357
 2156TIP3   OH2 6473   3.621   1.891   3.474
 2156TIP3    H1 6474   3.545   1.934   3.513
 2156TIP3    H2 6475   3.584   1.825   3.415
 2157TIP3   OH2 6476   3.247   1.524   2.062
 2157TIP3    H1 6477   3.290   1.462   2.003
 2157TIP3    H2 6478   3.305   1.600   2.063
 2158TIP3   OH2 6479   1.671   1.356   2.813
 2158TIP3    H1 6480   1.585   1.348   2.852
 2158TIP3    H2 6481   1.659   1.416   2.739
 2159TIP3   OH2 6482   2.822   3.075   2.320
 2159TIP3    H1 6483   2.882   3.065   2.247
 2159TIP3    H2 6484   2.866   3.135   2.380
 2160TIP3   OH2 6485   1.889   1.421   3.631
 2160TIP3    H1 6486   1.844   1.426   3.716
 2160TIP3    H2 6487   1.833   1.469   3.571
 2161TIP3   OH2 6488   2.183   2.878   3.250
 2161TIP3    H1 6489   2.215   2.916   3.168
 2161TIP3    H2 6490   2.249   2.903   3.315
 2162TIP3   OH2 6491   3.526   1.651   3.351
 2162TIP3    H1 6492   3.440   1.652   3.309
 2162TIP3    H2 6493   3.555   1.560   3.344
 2163TIP3   OH2 6494   1.967   3.093   3.184
 2163TIP3    H1 6495   2.000   3.177   3.215
 2163TIP3    H2 6496   1.968   3.100   3.089
 2164TIP3   OH2 6497   2.443   3.175   2.932
 2164TIP3    H1 6498   2.388   3.232   2.986
 2164TIP3    H2 6499   2.518   3.155   2.987
 2165TIP3   OH2 6500   2.980   3.310   2.902
 2165TIP3    H1 6501   2.952   3.394   2.865
 2165TIP3    H2 6502   2.952   3.245   2.836
 2166TIP3   OH2 6503   1.883   2.833   2.898
 2166TIP3    H1 6504   1.892   2.748   2.942
 2166TIP3    H2 6505   1.970   2.873   2.905
 2167TIP3   OH2 6506   2.153   2.896   2.948
 2167TIP3    H1 6507   2.182   2.806   2.937
 2167TIP3    H2 6508   2.225   2.949   2.914
 2168TIP3   OH2 6509   2.736   1.570   2.982
 2168TIP3    H1 6510   2.699   1.498   3.033
 2168TIP3    H2 6511   2.806   1.530   2.931
 2169TIP3   OH2 6512   3.242   1.463   2.873
 2169TIP3    H1 6513   3.280   1.514   2.801
 2169TIP3    H2 6514   3.152   1.495   2.879
 2170TIP3   OH2 6515   3.353   1.551   2.640
 2170TIP3    H1 6516   3.424   1.493   2.610
 2170TIP3    H2 6517   3.388   1.639   2.627
 2171TIP3   OH2 6518   1.978   1.267   2.988
 2171TIP3    H1 6519   1.888   1.235   2.996
 2171TIP3    H2 6520   2.031   1.188   2.982
 2172TIP3   OH2 6521   1.787   1.162   2.639
 2172TIP3    H1 6522   1.819   1.214   2.564
 2172TIP3    H2 6523   1.756   1.228   2.702
 2173TIP3   OH2 6524   2.444   1.309   2.878
 2173TIP3    H1 6525   2.493   1.354   2.809
 2173TIP3    H2 6526   2.485   1.337   2.960
 2174TIP3   OH2 6527   2.953   1.455   2.856
 2174TIP3    H1 6528   2.967   1.421   2.768
 2174TIP3    H2 6529   2.954   1.378   2.912
 2175TIP3   OH2 6530   3.007   1.395   2.423
 2175TIP3    H1 6531   2.927   1.442   2.445
 2175TIP3    H2 6532   2.996   1.308   2.461
 2176TIP3   OH2 6533   1.480   2.739   2.402
 2176TIP3    H1 6534   1.396   2.703   2.374
 2176TIP3    H2 6535   1.479   2.830   2.372
 2177TIP3   OH2 6536   1.904   1.301   2.404
 2177TIP3    H1 6537   1.948   1.239   2.345
 2177TIP3    H2 6538   1.974   1.356   2.438
 2178TIP3   OH2 6539   2.393   1.496   2.502
 2178TIP3    H1 6540   2.454   1.446   2.556
 2178TIP3    H2 6541   2.407   1.587   2.528
 2179TIP3   OH2 6542   2.267   2.895   1.996
 2179TIP3    H1 6543   2.352   2.921   1.961
 2179TIP3    H2 6544   2.240   2.820   1.942
 2180TIP3   OH2 6545   2.983   3.037   2.095
 2180TIP3    H1 6546   2.975   2.942   2.088
 2180TIP3    H2 6547   2.937   3.070   2.017
 2181TIP3   OH2 6548   2.195   1.550   3.868
 2181TIP3    H1 6549   2.160   1.483   3.927
 2181TIP3    H2 6550   2.288   1.557   3.893
 2182TIP3   OH2 6551   2.445   1.554   3.990
 2182TIP3    H1 6552   2.527   1.535   3.944
 2182TIP3    H2 6553   2.438   1.485   4.057
 2183TIP3   OH2 6554   1.571   2.738   2.056
 2183TIP3    H1 6555   1.578   2.744   2.151
 2183TIP3    H2 6556   1.652   2.694   2.028
 2184TIP3   OH2 6557   3.273   1.639   3.783
 2184TIP3    H1 6558   3.289   1.610   3.873
 2184TIP3    H2 6559   3.359   1.634   3.741
 2185TIP3   OH2 6560   4.472   2.560   2.031
 2185TIP3    H1 6561   4.441   2.646   2.005
 2185TIP3    H2 6562   4.402   2.500   2.005
 2186TIP3   OH2 6563   4.472   2.556   2.448
 2186TIP3    H1 6564   4.519   2.532   2.528
 2186TIP3    H2 6565   4.427   2.476   2.422
 2187TIP3   OH2 6566   3.767   2.441   2.788
 2187TIP3    H1 6567   3.792   2.369   2.846
 2187TIP3    H2 6568   3.802   2.519   2.830
 2188TIP3   OH2 6569   4.733   2.856   2.121
 2188TIP3    H1 6570   4.718   2.792   2.190
 2188TIP3    H2 6571   4.756   2.937   2.167
 2189TIP3   OH2 6572   3.755   2.852   2.492
 2189TIP3    H1 6573   3.740   2.758   2.503
 2189TIP3    H2 6574   3.849   2.859   2.475
 2190TIP3   OH2 6575   3.445   2.053   2.274
 2190TIP3    H1 6576   3.402   2.134   2.301
 2190TIP3    H2 6577   3.377   2.001   2.232
 2191TIP3   OH2 6578   3.508   2.343   2.485
 2191TIP3    H1 6579   3.559   2.269   2.517
 2191TIP3    H2 6580   3.571   2.394   2.433
 2192TIP3   OH2 6581   4.378   3.300   2.125
 2192TIP3    H1 6582   4.415   3.233   2.067
 2192TIP3    H2 6583   4.348   3.251   2.201
 2193TIP3   OH2 6584   4.271   2.777   2.467
 2193TIP3    H1 6585   4.315   2.700   2.431
 2193TIP3    H2 6586   4.342   2.832   2.500
 2194TIP3   OH2 6587   5.298   2.098   2.469
 2194TIP3    H1 6588   5.317   2.181   2.512
 2194TIP3    H2 6589   5.315   2.115   2.376
 2195TIP3   OH2 6590   4.688   2.266   2.492
 2195TIP3    H1 6591   4.723   2.181   2.518
 2195TIP3    H2 6592   4.649   2.250   2.406
 2196TIP3   OH2 6593   4.039   1.929   2.455
 2196TIP3    H1 6594   4.015   2.001   2.397
 2196TIP3    H2 6595   3.984   1.856   2.426
 2197TIP3   OH2 6596   4.730   2.024   2.082
 2197TIP3    H1 6597   4.795   2.015   2.152
 2197TIP3    H2 6598   4.780   2.059   2.008
 2198TIP3   OH2 6599   3.658   2.136   2.585
 2198TIP3    H1 6600   3.741   2.119   2.630
 2198TIP3    H2 6601   3.663   2.083   2.505
 2199TIP3   OH2 6602   4.097   2.335   2.363
 2199TIP3    H1 6603   4.188   2.312   2.379
 2199TIP3    H2 6604   4.056   2.252   2.336
 2200TIP3   OH2 6605   5.358   2.314   2.641
 2200TIP3    H1 6606   5.270   2.350   2.629
 2200TIP3    H2 6607   5.384   2.346   2.727
 2201TIP3   OH2 6608   4.015   1.919   2.906
 2201TIP3    H1 6609   3.964   1.955   2.834
 2201TIP3    H2 6610   3.961   1.936   2.984
 2202TIP3   OH2 6611   4.364   2.775   1.893
 2202TIP3    H1 6612   4.322   2.750   1.811
 2202TIP3    H2 6613   4.314   2.849   1.925
 2203TIP3   OH2 6614   4.106   2.693   2.672
 2203TIP3    H1 6615   4.040   2.757   2.699
 2203TIP3    H2 6616   4.151   2.735   2.598
 2204TIP3   OH2 6617   4.900   2.040   2.297
 2204TIP3    H1 6618   4.860   2.015   2.380
 2204TIP3    H2 6619   4.954   2.116   2.318
 2205TIP3   OH2 6620   3.904   2.032   2.678
 2205TIP3    H1 6621   3.958   2.106   2.708
 2205TIP3    H2 6622   3.953   1.994   2.606
 2206TIP3   OH2 6623   3.334   2.596   2.027
 2206TIP3    H1 6624   3.294   2.614   1.942
 2206TIP3    H2 6625   3.359   2.681   2.062
 2207TIP3   OH2 6626   4.780   3.101   2.262
 2207TIP3    H1 6627   4.694   3.094   2.305
 2207TIP3    H2 6628   4.776   3.185   2.216
 2208TIP3   OH2 6629   5.093   1.993   2.638
 2208TIP3    H1 6630   5.005   2.013   2.604
 2208TIP3    H2 6631   5.152   2.020   2.568
 2209TIP3   OH2 6632   4.361   1.621   2.629
 2209TIP3    H1 6633   4.350   1.528   2.651
 2209TIP3    H2 6634   4.287   1.664   2.670
 2210TIP3   OH2 6635   4.481   3.137   1.925
 2210TIP3    H1 6636   4.532   3.056   1.911
 2210TIP3    H2 6637   4.539   3.207   1.893
 2211TIP3   OH2 6638   4.627   2.912   1.870
 2211TIP3    H1 6639   4.564   2.842   1.855
 2211TIP3    H2 6640   4.672   2.888   1.951
 2212TIP3   OH2 6641   5.013   2.996   2.608
 2212TIP3    H1 6642   4.995   2.922   2.550
 2212TIP3    H2 6643   4.994   3.074   2.556
 2213TIP3   OH2 6644   4.299   2.401   1.881
 2213TIP3    H1 6645   4.217   2.448   1.864
 2213TIP3    H2 6646   4.342   2.398   1.795
 2214TIP3   OH2 6647   4.263   2.199   1.578
 2214TIP3    H1 6648   4.329   2.248   1.627
 2214TIP3    H2 6649   4.313   2.134   1.529
 2215TIP3   OH2 6650   5.195   2.657   2.472
 2215TIP3    H1 6651   5.110   2.702   2.473
 2215TIP3    H2 6652   5.229   2.673   2.384
 2216TIP3   OH2 6653   4.653   2.487   1.840
 2216TIP3    H1 6654   4.598   2.516   1.913
 2216TIP3    H2 6655   4.735   2.461   1.882
 2217TIP3   OH2 6656   4.882   2.521   2.774
 2217TIP3    H1 6657   4.878   2.602   2.824
 2217TIP3    H2 6658   4.798   2.517   2.728
 2218TIP3   OH2 6659   3.878   2.470   2.259
 2218TIP3    H1 6660   3.839   2.414   2.192
 2218TIP3    H2 6661   3.956   2.423   2.288
 2219TIP3   OH2 6662   4.014   2.885   2.388
 2219TIP3    H1 6663   3.992   2.864   2.297
 2219TIP3    H2 6664   4.103   2.851   2.400
 2220TIP3   OH2 6665   4.029   2.434   2.612
 2220TIP3    H1 6666   4.055   2.414   2.522
 2220TIP3    H2 6667   4.056   2.525   2.625
 2221TIP3   OH2 6668   4.548   3.095   2.403
 2221TIP3    H1 6669   4.522   3.175   2.447
 2221TIP3    H2 6670   4.526   3.025   2.465
 2222TIP3   OH2 6671   4.485   2.346   1.674
 2222TIP3    H1 6672   4.544   2.404   1.722
 2222TIP3    H2 6673   4.512   2.356   1.582
 2223TIP3   OH2 6674   4.234   3.016   1.941
 2223TIP3    H1 6675   4.316   3.065   1.941
 2223TIP3    H2 6676   4.173   3.071   1.891
 2224TIP3   OH2 6677   5.000   1.576   1.731
 2224TIP3    H1 6678   4.921   1.594   1.781
 2224TIP3    H2 6679   5.012   1.654   1.677
 2225TIP3   OH2 6680   3.754   2.319   2.051
 2225TIP3    H1 6681   3.679   2.365   2.013
 2225TIP3    H2 6682   3.720   2.231   2.070
 2226TIP3   OH2 6683   4.813   2.949   1.280
 2226TIP3    H1 6684   4.812   3.043   1.263
 2226TIP3    H2 6685   4.903   2.922   1.261
 2227TIP3   OH2 6686   3.522   2.682   2.990
 2227TIP3    H1 6687   3.466   2.663   2.915
 2227TIP3    H2 6688   3.581   2.607   2.997
 2228TIP3   OH2 6689   3.380   2.903   2.612
 2228TIP3    H1 6690   3.473   2.918   2.629
 2228TIP3    H2 6691   3.335   2.977   2.654
 2229TIP3   OH2 6692   5.238   3.363   2.676
 2229TIP3    H1 6693   5.243   3.268   2.688
 2229TIP3    H2 6694   5.157   3.389   2.719
 2230TIP3   OH2 6695   4.124   3.253   1.755
 2230TIP3    H1 6696   4.074   3.232   1.676
 2230TIP3    H2 6697   4.089   3.336   1.785
 2231TIP3   OH2 6698   3.554   3.100   2.133
 2231TIP3    H1 6699   3.594   3.095   2.220
 2231TIP3    H2 6700   3.504   3.019   2.126
 2232TIP3   OH2 6701   4.320   3.171   1.384
 2232TIP3    H1 6702   4.371   3.099   1.348
 2232TIP3    H2 6703   4.356   3.185   1.472
 2233TIP3   OH2 6704   4.377   3.220   1.652
 2233TIP3    H1 6705   4.291   3.225   1.694
 2233TIP3    H2 6706   4.435   3.189   1.721
 2234TIP3   OH2 6707   5.129   2.476   2.942
 2234TIP3    H1 6708   5.045   2.485   2.897
 2234TIP3    H2 6709   5.147   2.382   2.940
 2235TIP3   OH2 6710   4.127   1.712   2.757
 2235TIP3    H1 6711   4.044   1.678   2.724
 2235TIP3    H2 6712   4.103   1.790   2.807
 2236TIP3   OH2 6713   4.664   1.825   2.953
 2236TIP3    H1 6714   4.731   1.803   3.016
 2236TIP3    H2 6715   4.581   1.809   2.999
 2237TIP3   OH2 6716   4.894   2.260   2.874
 2237TIP3    H1 6717   4.846   2.254   2.957
 2237TIP3    H2 6718   4.869   2.346   2.839
 2238TIP3   OH2 6719   4.568   2.351   1.414
 2238TIP3    H1 6720   4.522   2.347   1.331
 2238TIP3    H2 6721   4.649   2.398   1.395
 2239TIP3   OH2 6722   4.278   1.750   1.725
 2239TIP3    H1 6723   4.241   1.757   1.813
 2239TIP3    H2 6724   4.238   1.670   1.689
 2240TIP3   OH2 6725   4.059   2.233   2.790
 2240TIP3    H1 6726   4.005   2.250   2.866
 2240TIP3    H2 6727   4.045   2.308   2.732
 2241TIP3   OH2 6728   3.944   2.118   2.283
 2241TIP3    H1 6729   3.855   2.096   2.310
 2241TIP3    H2 6730   3.952   2.081   2.195
 2242TIP3   OH2 6731   4.427   2.199   2.016
 2242TIP3    H1 6732   4.378   2.270   1.975
 2242TIP3    H2 6733   4.483   2.165   1.947
 2243TIP3   OH2 6734   4.617   2.458   3.086
 2243TIP3    H1 6735   4.589   2.391   3.148
 2243TIP3    H2 6736   4.708   2.477   3.111
 2244TIP3   OH2 6737   4.595   2.215   2.239
 2244TIP3    H1 6738   4.524   2.239   2.179
 2244TIP3    H2 6739   4.638   2.140   2.198
 2245TIP3   OH2 6740   3.869   2.265   2.990
 2245TIP3    H1 6741   3.812   2.323   3.040
 2245TIP3    H2 6742   3.865   2.181   3.036
 2246TIP3   OH2 6743   3.941   1.737   1.694
 2246TIP3    H1 6744   3.930   1.738   1.789
 2246TIP3    H2 6745   3.863   1.782   1.661
 2247TIP3   OH2 6746   3.481   1.774   2.562
 2247TIP3    H1 6747   3.553   1.809   2.615
 2247TIP3    H2 6748   3.521   1.751   2.478
 2248TIP3   OH2 6749   3.408   1.754   2.073
 2248TIP3    H1 6750   3.452   1.789   1.995
 2248TIP3    H2 6751   3.346   1.823   2.098
 2249TIP3   OH2 6752   4.624   2.463   2.665
 2249TIP3    H1 6753   4.651   2.396   2.603
 2249TIP3    H2 6754   4.582   2.414   2.736
 2250TIP3   OH2 6755   4.302   1.918   2.341
 2250TIP3    H1 6756   4.222   1.919   2.394
 2250TIP3    H2 6757   4.373   1.911   2.404
 2251TIP3   OH2 6758   3.705   1.999   2.349
 2251TIP3    H1 6759   3.616   2.005   2.314
 2251TIP3    H2 6760   3.731   1.908   2.332
 2252TIP3   OH2 6761   3.961   1.992   2.041
 2252TIP3    H1 6762   4.054   2.006   2.026
 2252TIP3    H2 6763   3.919   2.012   1.957
 2253TIP3   OH2 6764   4.765   2.003   2.545
 2253TIP3    H1 6765   4.745   2.020   2.638
 2253TIP3    H2 6766   4.695   1.944   2.517
 2254TIP3   OH2 6767   3.835   2.023   1.800
 2254TIP3    H1 6768   3.770   1.975   1.750
 2254TIP3    H2 6769   3.889   2.067   1.734
 2255TIP3   OH2 6770   4.946   3.708   2.767
 2255TIP3    H1 6771   4.938   3.733   2.675
 2255TIP3    H2 6772   5.023   3.755   2.799
 2256TIP3   OH2 6773   4.358   2.277   2.447
 2256TIP3    H1 6774   4.424   2.222   2.406
 2256TIP3    H2 6775   4.349   2.241   2.535
 2257TIP3   OH2 6776   3.857   1.750   2.337
 2257TIP3    H1 6777   3.825   1.675   2.388
 2257TIP3    H2 6778   3.885   1.711   2.254
 2258TIP3   OH2 6779   4.324   2.186   2.714
 2258TIP3    H1 6780   4.236   2.213   2.742
 2258TIP3    H2 6781   4.383   2.238   2.769
 2259TIP3   OH2 6782   4.064   2.543   1.827
 2259TIP3    H1 6783   3.991   2.485   1.805
 2259TIP3    H2 6784   4.040   2.581   1.912
 2260TIP3   OH2 6785   4.957   2.791   2.433
 2260TIP3    H1 6786   4.987   2.841   2.358
 2260TIP3    H2 6787   4.875   2.751   2.405
 2261TIP3   OH2 6788   4.528   1.855   1.717
 2261TIP3    H1 6789   4.435   1.831   1.718
 2261TIP3    H2 6790   4.528   1.949   1.734
 2262TIP3   OH2 6791   4.503   2.821   2.854
 2262TIP3    H1 6792   4.576   2.802   2.914
 2262TIP3    H2 6793   4.429   2.839   2.912
 2263TIP3   OH2 6794   4.586   2.117   1.798
 2263TIP3    H1 6795   4.681   2.123   1.806
 2263TIP3    H2 6796   4.561   2.194   1.747
 2264TIP3   OH2 6797   3.772   2.572   2.501
 2264TIP3    H1 6798   3.810   2.539   2.419
 2264TIP3    H2 6799   3.806   2.513   2.568
 2265TIP3   OH2 6800   4.214   2.703   1.663
 2265TIP3    H1 6801   4.167   2.786   1.662
 2265TIP3    H2 6802   4.159   2.645   1.717
 2266TIP3   OH2 6803   3.691   2.449   3.102
 2266TIP3    H1 6804   3.745   2.490   3.169
 2266TIP3    H2 6805   3.616   2.413   3.150
 2267TIP3   OH2 6806   4.386   2.604   3.138
 2267TIP3    H1 6807   4.313   2.548   3.110
 2267TIP3    H2 6808   4.464   2.560   3.106
 2268TIP3   OH2 6809   4.644   3.148   2.714
 2268TIP3    H1 6810   4.550   3.130   2.711
 2268TIP3    H2 6811   4.658   3.190   2.798
 2269TIP3   OH2 6812   5.019   2.209   1.621
 2269TIP3    H1 6813   4.963   2.162   1.559
 2269TIP3    H2 6814   5.021   2.299   1.588
 2270TIP3   OH2 6815   5.256   3.080   2.700
 2270TIP3    H1 6816   5.162   3.065   2.694
 2270TIP3    H2 6817   5.291   3.049   2.616
 2271TIP3   OH2 6818   4.745   3.024   1.546
 2271TIP3    H1 6819   4.710   2.958   1.605
 2271TIP3    H2 6820   4.755   2.978   1.462
 2272TIP3   OH2 6821   4.724   2.657   2.338
 2272TIP3    H1 6822   4.635   2.634   2.362
 2272TIP3    H2 6823   4.761   2.578   2.300
 2273TIP3   OH2 6824   3.869   2.890   2.137
 2273TIP3    H1 6825   3.866   2.967   2.081
 2273TIP3    H2 6826   3.778   2.874   2.162
 2274TIP3   OH2 6827   3.438   2.179   1.851
 2274TIP3    H1 6828   3.481   2.263   1.871
 2274TIP3    H2 6829   3.357   2.181   1.902
 2275TIP3   OH2 6830   3.975   2.645   2.061
 2275TIP3    H1 6831   3.948   2.735   2.083
 2275TIP3    H2 6832   3.943   2.592   2.134
 2276TIP3   OH2 6833   4.157   3.239   2.551
 2276TIP3    H1 6834   4.201   3.306   2.499
 2276TIP3    H2 6835   4.103   3.289   2.613
 2277TIP3   OH2 6836   3.786   3.118   1.985
 2277TIP3    H1 6837   3.700   3.122   2.027
 2277TIP3    H2 6838   3.818   3.208   1.988
 2278TIP3   OH2 6839   4.511   2.874   2.580
 2278TIP3    H1 6840   4.511   2.856   2.674
 2278TIP3    H2 6841   4.577   2.815   2.544
 2279TIP3   OH2 6842   4.500   2.759   1.441
 2279TIP3    H1 6843   4.552   2.733   1.518
 2279TIP3    H2 6844   4.414   2.721   1.456
 2280TIP3   OH2 6845   4.773   3.385   2.597
 2280TIP3    H1 6846   4.700   3.324   2.604
 2280TIP3    H2 6847   4.749   3.445   2.526
 2281TIP3   OH2 6848   4.822   3.223   1.250
 2281TIP3    H1 6849   4.836   3.283   1.177
 2281TIP3    H2 6850   4.750   3.262   1.300
 2282TIP3   OH2 6851   3.845   2.000   3.111
 2282TIP3    H1 6852   3.750   2.008   3.117
 2282TIP3    H2 6853   3.871   1.959   3.193
 2283TIP3   OH2 6854   4.672   2.679   1.639
 2283TIP3    H1 6855   4.657   2.619   1.713
 2283TIP3    H2 6856   4.767   2.684   1.632
 2284TIP3   OH2 6857   3.575   3.105   2.757
 2284TIP3    H1 6858   3.650   3.055   2.790
 2284TIP3    H2 6859   3.521   3.121   2.834
 2285TIP3   OH2 6860   3.856   2.726   1.443
 2285TIP3    H1 6861   3.865   2.634   1.418
 2285TIP3    H2 6862   3.835   2.722   1.537
 2286TIP3   OH2 6863   3.796   2.740   1.714
 2286TIP3    H1 6864   3.865   2.710   1.774
 2286TIP3    H2 6865   3.797   2.836   1.723
 2287TIP3   OH2 6866   3.533   2.431   1.927
 2287TIP3    H1 6867   3.466   2.475   1.979
 2287TIP3    H2 6868   3.549   2.491   1.854
 2288TIP3   OH2 6869   4.705   2.057   2.808
 2288TIP3    H1 6870   4.778   2.102   2.851
 2288TIP3    H2 6871   4.689   1.980   2.862
 2289TIP3   OH2 6872   4.583   1.806   1.990
 2289TIP3    H1 6873   4.562   1.824   1.898
 2289TIP3    H2 6874   4.625   1.886   2.021
 2290TIP3   OH2 6875   4.072   2.933   1.663
 2290TIP3    H1 6876   3.985   2.954   1.698
 2290TIP3    H2 6877   4.092   3.006   1.605
 2291TIP3   OH2 6878   4.243   2.004   2.082
 2291TIP3    H1 6879   4.304   2.073   2.059
 2291TIP3    H2 6880   4.260   1.987   2.174
 2292TIP3   OH2 6881   4.534   2.298   2.866
 2292TIP3    H1 6882   4.558   2.345   2.946
 2292TIP3    H2 6883   4.583   2.216   2.871
 2293TIP3   OH2 6884   4.398   1.709   2.174
 2293TIP3    H1 6885   4.375   1.786   2.226
 2293TIP3    H2 6886   4.465   1.739   2.113
 2294TIP3   OH2 6887   3.818   3.012   1.734
 2294TIP3    H1 6888   3.794   3.082   1.673
 2294TIP3    H2 6889   3.804   3.051   1.821
 2295TIP3   OH2 6890   3.914   1.722   1.971
 2295TIP3    H1 6891   3.902   1.811   2.004
 2295TIP3    H2 6892   4.009   1.707   1.978
 2296TIP3   OH2 6893   5.155   2.199   2.855
 2296TIP3    H1 6894   5.061   2.212   2.869
 2296TIP3    H2 6895   5.161   2.141   2.779
 2297TIP3   OH2 6896   4.816   2.403   2.244
 2297TIP3    H1 6897   4.738   2.348   2.253
 2297TIP3    H2 6898   4.882   2.359   2.297
 2298TIP3   OH2 6899   3.546   2.615   1.714
 2298TIP3    H1 6900   3.616   2.679   1.723
 2298TIP3    H2 6901   3.580   2.551   1.652
 2299TIP3   OH2 6902   3.464   1.902   1.848
 2299TIP3    H1 6903   3.473   1.997   1.854
 2299TIP3    H2 6904   3.391   1.889   1.788
 2300TIP3   OH2 6905   4.795   3.369   2.181
 2300TIP3    H1 6906   4.751   3.417   2.111
 2300TIP3    H2 6907   4.888   3.384   2.166
 2301TIP3   OH2 6908   3.868   1.624   2.714
 2301TIP3    H1 6909   3.836   1.592   2.629
 2301TIP3    H2 6910   3.855   1.551   2.774
 2302TIP3   OH2 6911   3.389   2.865   2.108
 2302TIP3    H1 6912   3.339   2.897   2.184
 2302TIP3    H2 6913   3.349   2.909   2.033
 2303TIP3   OH2 6914   4.014   2.925   1.340
 2303TIP3    H1 6915   3.966   2.854   1.382
 2303TIP3    H2 6916   4.089   2.881   1.298
 2304TIP3   OH2 6917   4.689   3.257   2.963
 2304TIP3    H1 6918   4.697   3.186   3.026
 2304TIP3    H2 6919   4.757   3.319   2.988
 2305TIP3   OH2 6920   4.453   2.964   1.264
 2305TIP3    H1 6921   4.485   2.898   1.326
 2305TIP3    H2 6922   4.513   2.958   1.190
 2306TIP3   OH2 6923   3.680   2.425   1.571
 2306TIP3    H1 6924   3.732   2.402   1.648
 2306TIP3    H2 6925   3.744   2.436   1.501
 2307TIP3   OH2 6926   4.328   2.875   3.182
 2307TIP3    H1 6927   4.242   2.862   3.222
 2307TIP3    H2 6928   4.361   2.786   3.167
 2308TIP3   OH2 6929   4.230   2.648   1.394
 2308TIP3    H1 6930   4.211   2.661   1.487
 2308TIP3    H2 6931   4.218   2.554   1.380
 2309TIP3   OH2 6932   4.800   2.919   2.765
 2309TIP3    H1 6933   4.877   2.946   2.715
 2309TIP3    H2 6934   4.733   2.985   2.745
 2310TIP3   OH2 6935   3.851   2.495   3.336
 2310TIP3    H1 6936   3.946   2.507   3.332
 2310TIP3    H2 6937   3.818   2.578   3.372
 2311TIP3   OH2 6938   3.859   2.362   1.781
 2311TIP3    H1 6939   3.835   2.330   1.868
 2311TIP3    H2 6940   3.902   2.287   1.739
 2312TIP3   OH2 6941   4.180   2.439   3.036
 2312TIP3    H1 6942   4.093   2.476   3.043
 2312TIP3    H2 6943   4.212   2.468   2.950
 2313TIP3   OH2 6944   3.988   2.169   1.625
 2313TIP3    H1 6945   3.959   2.173   1.534
 2313TIP3    H2 6946   4.084   2.174   1.619
 2314TIP3   OH2 6947   4.683   2.842   3.146
 2314TIP3    H1 6948   4.765   2.806   3.111
 2314TIP3    H2 6949   4.665   2.789   3.223
 2315TIP3   OH2 6950   4.794   2.469   1.302
 2315TIP3    H1 6951   4.776   2.427   1.218
 2315TIP3    H2 6952   4.765   2.560   1.289
 2316TIP3   OH2 6953   4.278   2.204   3.136
 2316TIP3    H1 6954   4.273   2.132   3.073
 2316TIP3    H2 6955   4.241   2.279   3.090
 2317TIP3   OH2 6956   4.276   2.000   2.937
 2317TIP3    H1 6957   4.299   2.041   2.853
 2317TIP3    H2 6958   4.184   1.977   2.928
 2318TIP3   OH2 6959   4.290   2.540   2.810
 2318TIP3    H1 6960   4.375   2.569   2.777
 2318TIP3    H2 6961   4.227   2.594   2.762
 2319TIP3   OH2 6962   4.878   2.491   3.194
 2319TIP3    H1 6963   4.920   2.408   3.213
 2319TIP3    H2 6964   4.950   2.548   3.164
 2320TIP3   OH2 6965   4.921   2.752   2.939
 2320TIP3    H1 6966   4.865   2.811   2.888
 2320TIP3    H2 6967   5.009   2.767   2.905
 2321TIP3   OH2 6968   4.154   2.296   3.377
 2321TIP3    H1 6969   4.081   2.238   3.398
 2321TIP3    H2 6970   4.180   2.271   3.288
 2322TIP3   OH2 6971   4.400   1.768   3.032
 2322TIP3    H1 6972   4.357   1.848   3.002
 2322TIP3    H2 6973   4.333   1.700   3.022
 2323TIP3   OH2 6974   4.530   2.249   3.239
 2323TIP3    H1 6975   4.515   2.241   3.333
 2323TIP3    H2 6976   4.445   2.228   3.199
 2324TIP3   OH2 6977   4.769   2.196   3.104
 2324TIP3    H1 6978   4.691   2.199   3.159
 2324TIP3    H2 6979   4.840   2.174   3.164
 2325TIP3   OH2 6980   5.008   2.166   3.254
 2325TIP3    H1 6981   5.020   2.072   3.261
 2325TIP3    H2 6982   5.000   2.197   3.344
 2326TIP3   OH2 6983   3.981   2.082   3.445
 2326TIP3    H1 6984   3.984   1.992   3.413
 2326TIP3    H2 6985   4.017   2.078   3.533
 2327TIP3   OH2 6986   4.480   1.759   3.295
 2327TIP3    H1 6987   4.547   1.691   3.287
 2327TIP3    H2 6988   4.443   1.767   3.208
 2328TIP3   OH2 6989   4.561   1.975   3.445
 2328TIP3    H1 6990   4.533   1.904   3.387
 2328TIP3    H2 6991   4.489   2.038   3.443
 2329TIP3   OH2 6992   3.804   3.218   1.548
 2329TIP3    H1 6993   3.895   3.200   1.522
 2329TIP3    H2 6994   3.767   3.267   1.474
 2330TIP3   OH2 6995   3.273   2.599   1.739
 2330TIP3    H1 6996   3.367   2.614   1.733
 2330TIP3    H2 6997   3.259   2.513   1.699
 2331TIP3   OH2 6998   3.187   3.193   2.188
 2331TIP3    H1 6999   3.121   3.138   2.144
 2331TIP3    H2 7000   3.231   3.133   2.249
 2332TIP3   OH2 7001   3.328   3.031   2.362
 2332TIP3    H1 7002   3.318   2.962   2.427
 2332TIP3    H2 7003   3.372   3.102   2.408
 2333TIP3   OH2 7004   5.064   3.428   2.167
 2333TIP3    H1 7005   5.077   3.463   2.255
 2333TIP3    H2 7006   5.110   3.489   2.109
 2334TIP3   OH2 7007   5.073   3.463   2.447
 2334TIP3    H1 7008   5.031   3.377   2.442
 2334TIP3    H2 7009   5.147   3.451   2.507
 2335TIP3   OH2 7010   5.124   3.156   3.026
 2335TIP3    H1 7011   5.034   3.182   3.045
 2335TIP3    H2 7012   5.174   3.237   3.029
 2336TIP3   OH2 7013   4.951   2.667   1.633
 2336TIP3    H1 7014   5.010   2.737   1.605
 2336TIP3    H2 7015   4.994   2.630   1.710
 2337TIP3   OH2 7016   5.075   2.524   1.836
 2337TIP3    H1 7017   5.005   2.485   1.888
 2337TIP3    H2 7018   5.134   2.563   1.899
 2338TIP3   OH2 7019   5.133   2.933   2.266
 2338TIP3    H1 7020   5.184   2.865   2.221
 2338TIP3    H2 7021   5.131   3.006   2.205
 2339TIP3   OH2 7022   4.945   3.215   2.457
 2339TIP3    H1 7023   4.876   3.261   2.506
 2339TIP3    H2 7024   4.899   3.174   2.384
 2340TIP3   OH2 7025   5.001   2.446   1.479
 2340TIP3    H1 7026   4.930   2.443   1.415
 2340TIP3    H2 7027   4.980   2.522   1.534
 2341TIP3   OH2 7028   4.869   2.099   1.421
 2341TIP3    H1 7029   4.816   2.141   1.353
 2341TIP3    H2 7030   4.852   2.006   1.411
 2342TIP3   OH2 7031   4.878   2.389   1.974
 2342TIP3    H1 7032   4.880   2.294   1.963
 2342TIP3    H2 7033   4.859   2.401   2.068
 2343TIP3   OH2 7034   3.502   2.466   2.729
 2343TIP3    H1 7035   3.490   2.428   2.642
 2343TIP3    H2 7036   3.596   2.463   2.744
 2344TIP3   OH2 7037   5.170   2.812   2.835
 2344TIP3    H1 7038   5.236   2.744   2.818
 2344TIP3    H2 7039   5.182   2.875   2.764
 2345TIP3   OH2 7040   5.344   2.600   2.828
 2345TIP3    H1 7041   5.268   2.559   2.870
 2345TIP3    H2 7042   5.417   2.543   2.850
 2346TIP3   OH2 7043   4.814   1.830   1.398
 2346TIP3    H1 7044   4.874   1.802   1.467
 2346TIP3    H2 7045   4.730   1.791   1.422
 2347TIP3   OH2 7046   4.879   2.114   1.858
 2347TIP3    H1 7047   4.922   2.029   1.870
 2347TIP3    H2 7048   4.926   2.153   1.784
 2348TIP3   OH2 7049   5.031   2.273   2.376
 2348TIP3    H1 7050   5.113   2.292   2.329
 2348TIP3    H2 7051   5.043   2.313   2.462
 2349TIP3   OH2 7052   5.104   2.428   2.600
 2349TIP3    H1 7053   5.030   2.456   2.654
 2349TIP3    H2 7054   5.135   2.509   2.559
 2350TIP3   OH2 7055   3.717   2.133   3.377
 2350TIP3    H1 7056   3.810   2.138   3.398
 2350TIP3    H2 7057   3.686   2.054   3.422
 2351TIP3   OH2 7058   5.563   2.030   3.147
 2351TIP3    H1 7059   5.620   1.967   3.103
 2351TIP3    H2 7060   5.523   2.080   3.076
 2352TIP3   OH2 7061   4.989   1.860   1.906
 2352TIP3    H1 7062   5.031   1.845   1.990
 2352TIP3    H2 7063   4.925   1.790   1.897
 2353TIP3   OH2 7064   3.695   1.842   2.723
 2353TIP3    H1 7065   3.753   1.766   2.733
 2353TIP3    H2 7066   3.755   1.916   2.715
 2354TIP3   OH2 7067   3.478   2.105   2.806
 2354TIP3    H1 7068   3.533   2.113   2.728
 2354TIP3    H2 7069   3.479   2.193   2.845
 2355TIP3   OH2 7070   5.415   2.144   2.950
 2355TIP3    H1 7071   5.332   2.186   2.974
 2355TIP3    H2 7072   5.390   2.070   2.895
 2356TIP3   OH2 7073   5.047   1.782   1.553
 2356TIP3    H1 7074   5.087   1.719   1.493
 2356TIP3    H2 7075   5.105   1.858   1.551
 2357TIP3   OH2 7076   3.467   1.615   2.300
 2357TIP3    H1 7077   3.380   1.605   2.339
 2357TIP3    H2 7078   3.453   1.671   2.224
 2358TIP3   OH2 7079   4.627   3.330   1.810
 2358TIP3    H1 7080   4.684   3.323   1.734
 2358TIP3    H2 7081   4.665   3.401   1.862
 2359TIP3   OH2 7082   3.684   1.673   3.114
 2359TIP3    H1 7083   3.640   1.677   3.198
 2359TIP3    H2 7084   3.629   1.725   3.055
 2360TIP3   OH2 7085   4.514   3.546   2.753
 2360TIP3    H1 7086   4.561   3.493   2.689
 2360TIP3    H2 7087   4.582   3.597   2.797
 2361TIP3   OH2 7088   5.325   1.900   2.840
 2361TIP3    H1 7089   5.236   1.891   2.806
 2361TIP3    H2 7090   5.362   1.812   2.834
 2362TIP3   OH2 7091   3.887   3.421   2.625
 2362TIP3    H1 7092   3.822   3.359   2.659
 2362TIP3    H2 7093   3.847   3.456   2.546
 2363TIP3   OH2 7094   4.250   3.448   2.403
 2363TIP3    H1 7095   4.175   3.456   2.345
 2363TIP3    H2 7096   4.268   3.537   2.433
 2364TIP3   OH2 7097   4.503   3.366   2.489
 2364TIP3    H1 7098   4.414   3.384   2.458
 2364TIP3    H2 7099   4.559   3.423   2.437
 2365TIP3   OH2 7100   4.699   3.536   2.379
 2365TIP3    H1 7101   4.697   3.624   2.343
 2365TIP3    H2 7102   4.730   3.481   2.307
 2366TIP3   OH2 7103   3.499   3.213   2.513
 2366TIP3    H1 7104   3.521   3.186   2.602
 2366TIP3    H2 7105   3.567   3.174   2.458
 2367TIP3   OH2 7106   3.694   3.088   2.371
 2367TIP3    H1 7107   3.704   3.004   2.416
 2367TIP3    H2 7108   3.782   3.125   2.367
 2368TIP3   OH2 7109   3.964   3.161   2.371
 2368TIP3    H1 7110   3.978   3.067   2.360
 2368TIP3    H2 7111   4.027   3.187   2.438
 2369TIP3   OH2 7112   4.538   1.827   2.476
 2369TIP3    H1 7113   4.496   1.756   2.524
 2369TIP3    H2 7114   4.605   1.785   2.423
 2370TIP3   OH2 7115   5.038   1.725   2.364
 2370TIP3    H1 7116   5.073   1.774   2.290
 2370TIP3    H2 7117   4.944   1.744   2.364
 2371TIP3   OH2 7118   5.146   1.809   2.128
 2371TIP3    H1 7119   5.216   1.751   2.099
 2371TIP3    H2 7120   5.180   1.897   2.114
 2372TIP3   OH2 7121   3.776   1.523   2.474
 2372TIP3    H1 7122   3.686   1.493   2.482
 2372TIP3    H2 7123   3.828   1.443   2.468
 2373TIP3   OH2 7124   3.585   1.421   2.127
 2373TIP3    H1 7125   3.611   1.474   2.052
 2373TIP3    H2 7126   3.550   1.485   2.190
 2374TIP3   OH2 7127   4.241   1.564   2.364
 2374TIP3    H1 7128   4.290   1.612   2.296
 2374TIP3    H2 7129   4.277   1.596   2.446
 2375TIP3   OH2 7130   4.754   1.712   2.342
 2375TIP3    H1 7131   4.756   1.676   2.253
 2375TIP3    H2 7132   4.754   1.635   2.399
 2376TIP3   OH2 7133   4.803   1.651   1.910
 2376TIP3    H1 7134   4.723   1.697   1.933
 2376TIP3    H2 7135   4.792   1.564   1.949
 2377TIP3   OH2 7136   3.278   2.994   1.894
 2377TIP3    H1 7137   3.193   2.958   1.868
 2377TIP3    H2 7138   3.276   3.085   1.864
 2378TIP3   OH2 7139   3.697   1.559   1.893
 2378TIP3    H1 7140   3.742   1.497   1.834
 2378TIP3    H2 7141   3.768   1.615   1.926
 2379TIP3   OH2 7142   4.189   1.753   1.986
 2379TIP3    H1 7143   4.246   1.701   2.044
 2379TIP3    H2 7144   4.204   1.843   2.014
 2380TIP3   OH2 7145   4.063   3.151   1.483
 2380TIP3    H1 7146   4.148   3.179   1.447
 2380TIP3    H2 7147   4.036   3.078   1.427
 2381TIP3   OH2 7148   4.780   3.292   1.581
 2381TIP3    H1 7149   4.772   3.197   1.572
 2381TIP3    H2 7150   4.733   3.327   1.505
 2382TIP3   OH2 7151   3.990   1.809   3.359
 2382TIP3    H1 7152   3.953   1.741   3.416
 2382TIP3    H2 7153   4.082   1.815   3.385
 2383TIP3   OH2 7154   4.240   1.811   3.481
 2383TIP3    H1 7155   4.321   1.787   3.436
 2383TIP3    H2 7156   4.228   1.742   3.547
 2384TIP3   OH2 7157   3.365   2.996   1.541
 2384TIP3    H1 7158   3.366   3.001   1.637
 2384TIP3    H2 7159   3.447   2.951   1.519
 2385TIP3   OH2 7160   5.070   1.894   3.268
 2385TIP3    H1 7161   5.084   1.866   3.359
 2385TIP3    H2 7162   5.156   1.888   3.227
 2386TIP3   OH2 7163   4.985   3.436   2.768
 2386TIP3    H1 7164   4.915   3.406   2.710
 2386TIP3    H2 7165   4.976   3.531   2.769
 2387TIP3   OH2 7166   6.196   2.721   1.999
 2387TIP3    H1 7167   6.289   2.742   2.007
 2387TIP3    H2 7168   6.179   2.728   1.905
 2388TIP3   OH2 7169   5.569   2.691   2.283
 2388TIP3    H1 7170   5.590   2.620   2.343
 2388TIP3    H2 7171   5.617   2.766   2.317
 2389TIP3   OH2 7172   5.546   3.111   1.989
 2389TIP3    H1 7173   5.533   3.017   1.998
 2389TIP3    H2 7174   5.641   3.121   1.980
 2390TIP3   OH2 7175   5.249   2.316   1.760
 2390TIP3    H1 7176   5.201   2.394   1.787
 2390TIP3    H2 7177   5.182   2.259   1.720
 2391TIP3   OH2 7178   5.300   2.607   1.974
 2391TIP3    H1 7179   5.352   2.531   2.000
 2391TIP3    H2 7180   5.361   2.662   1.925
 2392TIP3   OH2 7181   6.078   3.468   1.616
 2392TIP3    H1 7182   6.162   3.425   1.633
 2392TIP3    H2 7183   6.063   3.522   1.694
 2393TIP3   OH2 7184   6.024   2.971   1.931
 2393TIP3    H1 7185   6.069   2.910   1.989
 2393TIP3    H2 7186   6.081   3.048   1.927
 2394TIP3   OH2 7187   5.796   2.170   1.957
 2394TIP3    H1 7188   5.776   2.241   1.896
 2394TIP3    H2 7189   5.748   2.095   1.923
 2395TIP3   OH2 7190   5.448   2.393   2.058
 2395TIP3    H1 7191   5.526   2.373   2.109
 2395TIP3    H2 7192   5.454   2.336   1.981
 2396TIP3   OH2 7193   5.866   2.597   1.847
 2396TIP3    H1 7194   5.957   2.574   1.867
 2396TIP3    H2 7195   5.820   2.513   1.844
 2397TIP3   OH2 7196   5.758   2.162   2.393
 2397TIP3    H1 7197   5.722   2.212   2.320
 2397TIP3    H2 7198   5.707   2.192   2.469
 2398TIP3   OH2 7199   6.149   3.051   1.372
 2398TIP3    H1 7200   6.122   3.007   1.292
 2398TIP3    H2 7201   6.100   3.133   1.374
 2399TIP3   OH2 7202   5.874   2.961   2.175
 2399TIP3    H1 7203   5.824   3.029   2.220
 2399TIP3    H2 7204   5.919   3.007   2.104
 2400TIP3   OH2 7205   5.680   2.294   2.168
 2400TIP3    H1 7206   5.740   2.364   2.193
 2400TIP3    H2 7207   5.728   2.244   2.102
 2401TIP3   OH2 7208   5.743   3.170   2.277
 2401TIP3    H1 7209   5.731   3.260   2.246
 2401TIP3    H2 7210   5.664   3.152   2.328
 2402TIP3   OH2 7211   5.129   2.850   1.515
 2402TIP3    H1 7212   5.087   2.866   1.430
 2402TIP3    H2 7213   5.150   2.937   1.548
 2403TIP3   OH2 7214   6.045   2.610   1.402
 2403TIP3    H1 7215   5.986   2.682   1.378
 2403TIP3    H2 7216   6.106   2.603   1.329
 2404TIP3   OH2 7217   5.654   2.732   1.743
 2404TIP3    H1 7218   5.615   2.675   1.677
 2404TIP3    H2 7219   5.733   2.686   1.771
 2405TIP3   OH2 7220   5.803   3.147   1.873
 2405TIP3    H1 7221   5.773   3.134   1.784
 2405TIP3    H2 7222   5.873   3.083   1.885
 2406TIP3   OH2 7223   5.822   2.708   2.101
 2406TIP3    H1 7224   5.845   2.705   2.007
 2406TIP3    H2 7225   5.835   2.800   2.125
 2407TIP3   OH2 7226   6.237   3.430   1.859
 2407TIP3    H1 7227   6.242   3.508   1.914
 2407TIP3    H2 7228   6.326   3.416   1.829
 2408TIP3   OH2 7229   5.944   3.252   2.450
 2408TIP3    H1 7230   5.884   3.314   2.491
 2408TIP3    H2 7231   5.890   3.204   2.388
 2409TIP3   OH2 7232   5.676   2.838   2.518
 2409TIP3    H1 7233   5.687   2.923   2.562
 2409TIP3    H2 7234   5.590   2.807   2.547
 2410TIP3   OH2 7235   6.035   3.298   1.401
 2410TIP3    H1 7236   6.016   3.362   1.470
 2410TIP3    H2 7237   5.963   3.309   1.339
 2411TIP3   OH2 7238   5.736   3.419   2.513
 2411TIP3    H1 7239   5.712   3.431   2.421
 2411TIP3    H2 7240   5.654   3.401   2.558
 2412TIP3   OH2 7241   5.538   2.567   1.544
 2412TIP3    H1 7242   5.473   2.623   1.502
 2412TIP3    H2 7243   5.491   2.485   1.561
 2413TIP3   OH2 7244   5.329   2.966   2.463
 2413TIP3    H1 7245   5.259   2.954   2.400
 2413TIP3    H2 7246   5.358   2.877   2.485
 2414TIP3   OH2 7247   5.178   3.165   2.107
 2414TIP3    H1 7248   5.272   3.182   2.112
 2414TIP3    H2 7249   5.137   3.244   2.143
 2415TIP3   OH2 7250   6.109   3.412   2.297
 2415TIP3    H1 7251   6.095   3.499   2.334
 2415TIP3    H2 7252   6.053   3.354   2.350
 2416TIP3   OH2 7253   5.903   3.516   1.243
 2416TIP3    H1 7254   5.855   3.502   1.161
 2416TIP3    H2 7255   5.868   3.598   1.278
 2417TIP3   OH2 7256   5.350   3.355   1.620
 2417TIP3    H1 7257   5.393   3.352   1.706
 2417TIP3    H2 7258   5.297   3.276   1.616
 2418TIP3   OH2 7259   6.123   3.397   0.888
 2418TIP3    H1 7260   6.186   3.328   0.868
 2418TIP3    H2 7261   6.143   3.423   0.978
 2419TIP3   OH2 7262   6.152   3.450   1.160
 2419TIP3    H1 7263   6.066   3.471   1.195
 2419TIP3    H2 7264   6.192   3.393   1.225
 2420TIP3   OH2 7265   5.526   3.154   2.438
 2420TIP3    H1 7266   5.574   3.145   2.521
 2420TIP3    H2 7267   5.456   3.090   2.444
 2421TIP3   OH2 7268   5.896   1.957   2.257
 2421TIP3    H1 7269   5.810   1.931   2.226
 2421TIP3    H2 7270   5.880   2.038   2.307
 2422TIP3   OH2 7271   5.843   2.491   2.257
 2422TIP3    H1 7272   5.788   2.505   2.334
 2422TIP3    H2 7273   5.831   2.570   2.204
 2423TIP3   OH2 7274   5.750   2.360   1.760
 2423TIP3    H1 7275   5.660   2.341   1.787
 2423TIP3    H2 7276   5.748   2.352   1.664
 2424TIP3   OH2 7277   5.676   2.510   2.473
 2424TIP3    H1 7278   5.705   2.571   2.540
 2424TIP3    H2 7279   5.658   2.428   2.520
 2425TIP3   OH2 7280   5.713   1.956   1.184
 2425TIP3    H1 7281   5.708   1.963   1.279
 2425TIP3    H2 7282   5.654   2.024   1.151
 2426TIP3   OH2 7283   5.269   2.034   2.045
 2426TIP3    H1 7284   5.343   2.065   2.098
 2426TIP3    H2 7285   5.309   2.002   1.964
 2427TIP3   OH2 7286   5.208   2.013   1.562
 2427TIP3    H1 7287   5.252   2.048   1.485
 2427TIP3    H2 7288   5.143   2.079   1.585
 2428TIP3   OH2 7289   6.049   2.164   1.846
 2428TIP3    H1 7290   5.973   2.134   1.896
 2428TIP3    H2 7291   6.124   2.144   1.903
 2429TIP3   OH2 7292   5.507   2.249   1.821
 2429TIP3    H1 7293   5.417   2.267   1.794
 2429TIP3    H2 7294   5.519   2.155   1.807
 2430TIP3   OH2 7295   5.842   2.287   1.511
 2430TIP3    H1 7296   5.891   2.216   1.469
 2430TIP3    H2 7297   5.768   2.302   1.453
 2431TIP3   OH2 7298   5.635   2.274   1.323
 2431TIP3    H1 7299   5.565   2.223   1.283
 2431TIP3    H2 7300   5.676   2.320   1.250
 2432TIP3   OH2 7301   5.690   3.072   2.669
 2432TIP3    H1 7302   5.772   3.093   2.715
 2432TIP3    H2 7303   5.623   3.076   2.737
 2433TIP3   OH2 7304   6.105   2.454   1.866
 2433TIP3    H1 7305   6.195   2.483   1.851
 2433TIP3    H2 7306   6.097   2.452   1.962
 2434TIP3   OH2 7307   5.669   1.984   1.806
 2434TIP3    H1 7308   5.616   1.917   1.849
 2434TIP3    H2 7309   5.751   1.939   1.785
 2435TIP3   OH2 7310   6.118   2.463   2.136
 2435TIP3    H1 7311   6.064   2.424   2.205
 2435TIP3    H2 7312   6.193   2.500   2.182
 2436TIP3   OH2 7313   5.855   2.806   1.324
 2436TIP3    H1 7314   5.782   2.748   1.303
 2436TIP3    H2 7315   5.833   2.842   1.410
 2437TIP3   OH2 7316   6.229   3.009   2.448
 2437TIP3    H1 7317   6.259   3.083   2.502
 2437TIP3    H2 7318   6.204   3.049   2.364
 2438TIP3   OH2 7319   5.558   2.830   1.988
 2438TIP3    H1 7320   5.592   2.801   1.903
 2438TIP3    H2 7321   5.604   2.776   2.052
 2439TIP3   OH2 7322   5.994   2.966   1.151
 2439TIP3    H1 7323   5.950   3.050   1.157
 2439TIP3    H2 7324   5.945   2.909   1.210
 2440TIP3   OH2 7325   5.432   2.737   2.598
 2440TIP3    H1 7326   5.439   2.713   2.690
 2440TIP3    H2 7327   5.357   2.686   2.566
 2441TIP3   OH2 7328   6.092   2.864   2.666
 2441TIP3    H1 7329   6.022   2.806   2.637
 2441TIP3    H2 7330   6.170   2.831   2.621
 2442TIP3   OH2 7331   6.339   3.389   2.152
 2442TIP3    H1 7332   6.256   3.400   2.197
 2442TIP3    H2 7333   6.402   3.439   2.204
 2443TIP3   OH2 7334   5.662   3.149   1.622
 2443TIP3    H1 7335   5.658   3.227   1.566
 2443TIP3    H2 7336   5.572   3.137   1.653
 2444TIP3   OH2 7337   5.237   2.440   1.339
 2444TIP3    H1 7338   5.276   2.526   1.356
 2444TIP3    H2 7339   5.155   2.441   1.388
 2445TIP3   OH2 7340   5.776   2.906   1.564
 2445TIP3    H1 7341   5.745   2.996   1.575
 2445TIP3    H2 7342   5.728   2.855   1.629
 2446TIP3   OH2 7343   5.947   3.472   2.077
 2446TIP3    H1 7344   5.983   3.546   2.027
 2446TIP3    H2 7345   6.017   3.448   2.137
 2447TIP3   OH2 7346   5.582   3.373   1.473
 2447TIP3    H1 7347   5.495   3.378   1.513
 2447TIP3    H2 7348   5.615   3.462   1.476
 2448TIP3   OH2 7349   5.631   2.266   2.609
 2448TIP3    H1 7350   5.536   2.274   2.619
 2448TIP3    H2 7351   5.657   2.212   2.684
 2449TIP3   OH2 7352   5.380   3.358   2.236
 2449TIP3    H1 7353   5.429   3.295   2.289
 2449TIP3    H2 7354   5.395   3.443   2.278
 2450TIP3   OH2 7355   5.650   2.986   0.934
 2450TIP3    H1 7356   5.673   2.897   0.906
 2450TIP3    H2 7357   5.627   2.976   1.027
 2451TIP3   OH2 7358   5.592   2.996   1.205
 2451TIP3    H1 7359   5.662   2.971   1.265
 2451TIP3    H2 7360   5.589   3.092   1.211
 2452TIP3   OH2 7361   5.332   2.693   1.413
 2452TIP3    H1 7362   5.264   2.735   1.465
 2452TIP3    H2 7363   5.345   2.752   1.339
 2453TIP3   OH2 7364   5.869   3.208   1.168
 2453TIP3    H1 7365   5.778   3.222   1.194
 2453TIP3    H2 7366   5.885   3.271   1.098
 2454TIP3   OH2 7367   5.607   3.267   1.222
 2454TIP3    H1 7368   5.584   3.336   1.160
 2454TIP3    H2 7369   5.593   3.307   1.308
 2455TIP3   OH2 7370   5.707   1.979   1.457
 2455TIP3    H1 7371   5.666   2.052   1.505
 2455TIP3    H2 7372   5.801   1.990   1.473
 2456TIP3   OH2 7373   5.340   2.873   1.200
 2456TIP3    H1 7374   5.407   2.940   1.210
 2456TIP3    H2 7375   5.375   2.812   1.135
 2457TIP3   OH2 7376   5.269   2.165   1.341
 2457TIP3    H1 7377   5.273   2.260   1.346
 2457TIP3    H2 7378   5.199   2.147   1.277
 2458TIP3   OH2 7379   5.640   1.879   2.202
 2458TIP3    H1 7380   5.610   1.846   2.117
 2458TIP3    H2 7381   5.634   1.804   2.260
 2459TIP3   OH2 7382   5.180   3.121   1.592
 2459TIP3    H1 7383   5.131   3.155   1.666
 2459TIP3    H2 7384   5.142   3.165   1.515
 2460TIP3   OH2 7385   5.371   3.670   2.663
 2460TIP3    H1 7386   5.453   3.675   2.712
 2460TIP3    H2 7387   5.355   3.576   2.653
 2461TIP3   OH2 7388   5.827   3.597   2.700
 2461TIP3    H1 7389   5.917   3.566   2.715
 2461TIP3    H2 7390   5.795   3.541   2.629
 2462TIP3   OH2 7391   5.799   3.194   0.838
 2462TIP3    H1 7392   5.753   3.120   0.877
 2462TIP3    H2 7393   5.866   3.153   0.783
 2463TIP3   OH2 7394   6.463   3.493   2.489
 2463TIP3    H1 7395   6.507   3.465   2.569
 2463TIP3    H2 7396   6.530   3.490   2.422
 2464TIP3   OH2 7397   5.485   3.064   2.857
 2464TIP3    H1 7398   5.505   2.970   2.865
 2464TIP3    H2 7399   5.400   3.067   2.815
 2465TIP3   OH2 7400   5.479   2.686   1.059
 2465TIP3    H1 7401   5.531   2.667   1.136
 2465TIP3    H2 7402   5.542   2.692   0.988
 2466TIP3   OH2 7403   6.104   3.152   2.649
 2466TIP3    H1 7404   6.056   3.184   2.573
 2466TIP3    H2 7405   6.109   3.057   2.637
 2467TIP3   OH2 7406   5.977   2.896   0.886
 2467TIP3    H1 7407   5.981   2.924   0.977
 2467TIP3    H2 7408   5.990   2.801   0.889
 2468TIP3   OH2 7409   5.614   2.807   2.856
 2468TIP3    H1 7410   5.694   2.770   2.819
 2468TIP3    H2 7411   5.639   2.833   2.945
 2469TIP3   OH2 7412   5.655   2.621   1.276
 2469TIP3    H1 7413   5.625   2.583   1.359
 2469TIP3    H2 7414   5.696   2.548   1.230
 2470TIP3   OH2 7415   5.902   2.693   2.554
 2470TIP3    H1 7416   5.829   2.751   2.536
 2470TIP3    H2 7417   5.956   2.696   2.475
 2471TIP3   OH2 7418   5.763   2.416   1.124
 2471TIP3    H1 7419   5.722   2.428   1.039
 2471TIP3    H2 7420   5.843   2.366   1.105
 2472TIP3   OH2 7421   6.042   2.484   2.671
 2472TIP3    H1 7422   6.065   2.413   2.612
 2472TIP3    H2 7423   5.997   2.548   2.616
 2473TIP3   OH2 7424   6.000   2.153   2.505
 2473TIP3    H1 7425   6.042   2.227   2.461
 2473TIP3    H2 7426   5.909   2.156   2.476
 2474TIP3   OH2 7427   6.137   2.891   2.193
 2474TIP3    H1 7428   6.150   2.807   2.148
 2474TIP3    H2 7429   6.048   2.886   2.227
 2475TIP3   OH2 7430   5.900   2.577   2.879
 2475TIP3    H1 7431   5.846   2.503   2.906
 2475TIP3    H2 7432   5.942   2.549   2.798
 2476TIP3   OH2 7433   6.135   1.932   2.554
 2476TIP3    H1 7434   6.080   2.008   2.533
 2476TIP3    H2 7435   6.088   1.857   2.518
 2477TIP3   OH2 7436   6.271   2.609   2.794
 2477TIP3    H1 7437   6.342   2.544   2.794
 2477TIP3    H2 7438   6.198   2.564   2.750
 2478TIP3   OH2 7439   5.777   2.338   2.939
 2478TIP3    H1 7440   5.782   2.250   2.900
 2478TIP3    H2 7441   5.813   2.326   3.027
 2479TIP3   OH2 7442   6.329   2.316   2.852
 2479TIP3    H1 7443   6.310   2.228   2.820
 2479TIP3    H2 7444   6.245   2.349   2.884
 2480TIP3   OH2 7445   5.595   3.472   1.040
 2480TIP3    H1 7446   5.688   3.463   1.018
 2480TIP3    H2 7447   5.555   3.511   0.962
 2481TIP3   OH2 7448   5.068   2.852   1.229
 2481TIP3    H1 7449   5.162   2.869   1.221
 2481TIP3    H2 7450   5.055   2.767   1.188
 2482TIP3   OH2 7451   4.986   3.448   1.670
 2482TIP3    H1 7452   4.920   3.395   1.625
 2482TIP3    H2 7453   5.028   3.387   1.730
 2483TIP3   OH2 7454   5.123   3.282   1.844
 2483TIP3    H1 7455   5.108   3.217   1.912
 2483TIP3    H2 7456   5.172   3.352   1.887
 2484TIP3   OH2 7457   5.301   2.711   2.226
 2484TIP3    H1 7458   5.287   2.679   2.137
 2484TIP3    H2 7459   5.396   2.713   2.236
 2485TIP3   OH2 7460   5.515   2.394   2.883
 2485TIP3    H1 7461   5.609   2.392   2.898
 2485TIP3    H2 7462   5.483   2.312   2.920
 2486TIP3   OH2 7463   5.477   2.101   2.213
 2486TIP3    H1 7464   5.533   2.024   2.225
 2486TIP3    H2 7465   5.538   2.175   2.208
 2487TIP3   OH2 7466   5.276   2.366   2.286
 2487TIP3    H1 7467   5.323   2.364   2.202
 2487TIP3    H2 7468   5.294   2.453   2.321
 2488TIP3   OH2 7469   5.265   1.878   1.793
 2488TIP3    H1 7470   5.177   1.862   1.827
 2488TIP3    H2 7471   5.251   1.930   1.714
 2489TIP3   OH2 7472   5.478   1.938   2.604
 2489TIP3    H1 7473   5.430   1.936   2.686
 2489TIP3    H2 7474   5.421   1.987   2.544
 2490TIP3   OH2 7475   5.515   3.384   2.676
 2490TIP3    H1 7476   5.421   3.368   2.669
 2490TIP3    H2 7477   5.534   3.378   2.769
 2491TIP3   OH2 7478   5.722   3.438   2.231
 2491TIP3    H1 7479   5.669   3.510   2.198
 2491TIP3    H2 7480   5.805   3.446   2.185
 2492TIP3   OH2 7481   6.103   3.667   2.382
 2492TIP3    H1 7482   6.150   3.665   2.465
 2492TIP3    H2 7483   6.166   3.700   2.319
 2493TIP3   OH2 7484   6.302   3.765   2.232
 2493TIP3    H1 7485   6.374   3.774   2.169
 2493TIP3    H2 7486   6.299   3.849   2.277
 2494TIP3   OH2 7487   5.383   3.675   2.275
 2494TIP3    H1 7488   5.292   3.692   2.249
 2494TIP3    H2 7489   5.404   3.744   2.338
 2495TIP3   OH2 7490   5.610   3.660   2.120
 2495TIP3    H1 7491   5.527   3.668   2.169
 2495TIP3    H2 7492   5.589   3.692   2.033
 2496TIP3   OH2 7493   6.004   3.686   1.908
 2496TIP3    H1 7494   5.927   3.704   1.853
 2496TIP3    H2 7495   6.015   3.766   1.959
 2497TIP3   OH2 7496   6.280   3.692   1.916
 2497TIP3    H1 7497   6.186   3.707   1.930
 2497TIP3    H2 7498   6.290   3.691   1.821
 2498TIP3   OH2 7499   5.292   3.460   1.989
 2498TIP3    H1 7500   5.313   3.433   2.079
 2498TIP3    H2 7501   5.366   3.428   1.937
 2499TIP3   OH2 7502   5.496   3.343   1.854
 2499TIP3    H1 7503   5.505   3.262   1.905
 2499TIP3    H2 7504   5.582   3.385   1.859
 2500TIP3   OH2 7505   5.762   3.427   1.875
 2500TIP3    H1 7506   5.782   3.334   1.866
 2500TIP3    H2 7507   5.816   3.456   1.949
 2501TIP3   OH2 7508   5.559   1.783   1.956
 2501TIP3    H1 7509   5.467   1.755   1.963
 2501TIP3    H2 7510   5.609   1.702   1.962
 2502TIP3   OH2 7511   5.391   1.682   1.623
 2502TIP3    H1 7512   5.410   1.733   1.544
 2502TIP3    H2 7513   5.351   1.745   1.683
 2503TIP3   OH2 7514   5.939   1.872   1.833
 2503TIP3    H1 7515   6.011   1.815   1.806
 2503TIP3    H2 7516   5.935   1.862   1.928
 2504TIP3   OH2 7517   5.070   3.249   1.376
 2504TIP3    H1 7518   4.984   3.219   1.347
 2504TIP3    H2 7519   5.073   3.341   1.350
 2505TIP3   OH2 7520   5.483   1.824   1.392
 2505TIP3    H1 7521   5.516   1.752   1.339
 2505TIP3    H2 7522   5.561   1.873   1.418
 2506TIP3   OH2 7523   5.982   2.032   1.484
 2506TIP3    H1 7524   6.018   1.975   1.552
 2506TIP3    H2 7525   6.024   2.003   1.403
 2507TIP3   OH2 7526   5.857   3.418   0.976
 2507TIP3    H1 7527   5.943   3.439   0.941
 2507TIP3    H2 7528   5.824   3.348   0.919
 2508TIP3   OH2 7529   5.765   2.066   2.838
 2508TIP3    H1 7530   5.726   1.997   2.891
 2508TIP3    H2 7531   5.855   2.074   2.869
 2509TIP3   OH2 7532   5.997   2.074   2.987
 2509TIP3    H1 7533   6.072   2.053   2.932
 2509TIP3    H2 7534   5.983   1.995   3.039
 2510TIP3   OH2 7535   5.164   3.251   1.022
 2510TIP3    H1 7536   5.160   3.268   1.116
 2510TIP3    H2 7537   5.247   3.205   1.010
 2511TIP3   OH2 7538   0.528   3.862   2.699
 2511TIP3    H1 7539   0.487   3.946   2.676
 2511TIP3    H2 7540   0.464   3.796   2.671
 2512TIP3   OH2 7541   0.523   3.846   3.105
 2512TIP3    H1 7542   0.562   3.837   3.192
 2512TIP3    H2 7543   0.482   3.762   3.089
 2513TIP3   OH2 7544   0.781   4.157   2.785
 2513TIP3    H1 7545   0.753   4.099   2.856
 2513TIP3    H2 7546   0.802   4.240   2.829
 2514TIP3   OH2 7547   0.393   4.587   2.792
 2514TIP3    H1 7548   0.439   4.526   2.734
 2514TIP3    H2 7549   0.435   4.575   2.877
 2515TIP3   OH2 7550   0.346   4.071   3.112
 2515TIP3    H1 7551   0.384   3.989   3.080
 2515TIP3    H2 7552   0.421   4.122   3.141
 2516TIP3   OH2 7553   1.327   3.412   3.122
 2516TIP3    H1 7554   1.361   3.486   3.173
 2516TIP3    H2 7555   1.380   3.412   3.042
 2517TIP3   OH2 7556   0.758   3.570   3.154
 2517TIP3    H1 7557   0.780   3.481   3.180
 2517TIP3    H2 7558   0.703   3.560   3.076
 2518TIP3   OH2 7559   0.125   3.240   3.028
 2518TIP3    H1 7560   0.063   3.304   2.992
 2518TIP3    H2 7561   0.087   3.155   3.005
 2519TIP3   OH2 7562   0.776   3.331   2.744
 2519TIP3    H1 7563   0.843   3.321   2.812
 2519TIP3    H2 7564   0.824   3.363   2.668
 2520TIP3   OH2 7565   0.214   3.685   2.991
 2520TIP3    H1 7566   0.301   3.650   3.009
 2520TIP3    H2 7567   0.154   3.616   3.018
 2521TIP3   OH2 7568   1.406   3.616   3.297
 2521TIP3    H1 7569   1.330   3.674   3.294
 2521TIP3    H2 7570   1.449   3.639   3.379
 2522TIP3   OH2 7571   0.049   3.212   3.556
 2522TIP3    H1 7572   0.009   3.217   3.469
 2522TIP3    H2 7573   0.009   3.284   3.605
 2523TIP3   OH2 7574   0.393   4.071   2.575
 2523TIP3    H1 7575   0.408   4.092   2.483
 2523TIP3    H2 7576   0.347   4.148   2.610
 2524TIP3   OH2 7577   0.273   4.055   3.378
 2524TIP3    H1 7578   0.231   4.141   3.384
 2524TIP3    H2 7579   0.297   4.048   3.286
 2525TIP3   OH2 7580   0.960   3.331   2.944
 2525TIP3    H1 7581   0.931   3.297   3.029
 2525TIP3    H2 7582   1.054   3.311   2.942
 2526TIP3   OH2 7583  -0.026   3.330   3.330
 2526TIP3    H1 7584   0.026   3.409   3.341
 2526TIP3    H2 7585   0.010   3.287   3.252
 2527TIP3   OH2 7586   0.824   4.400   2.925
 2527TIP3    H1 7587   0.738   4.393   2.967
 2527TIP3    H2 7588   0.821   4.485   2.880
 2528TIP3   OH2 7589   1.133   3.297   3.301
 2528TIP3    H1 7590   1.045   3.314   3.266
 2528TIP3    H2 7591   1.192   3.327   3.232
 2529TIP3   OH2 7592   0.424   2.913   3.275
 2529TIP3    H1 7593   0.417   2.822   3.304
 2529TIP3    H2 7594   0.352   2.958   3.319
 2530TIP3   OH2 7595   0.530   4.440   2.599
 2530TIP3    H1 7596   0.577   4.358   2.585
 2530TIP3    H2 7597   0.590   4.507   2.568
 2531TIP3   OH2 7598   0.669   4.213   2.537
 2531TIP3    H1 7599   0.665   4.132   2.486
 2531TIP3    H2 7600   0.713   4.188   2.618
 2532TIP3   OH2 7601   1.053   4.295   3.259
 2532TIP3    H1 7602   1.056   4.228   3.191
 2532TIP3    H2 7603   1.035   4.376   3.211
 2533TIP3   OH2 7604   0.377   3.685   2.541
 2533TIP3    H1 7605   0.313   3.750   2.511
 2533TIP3    H2 7606   0.432   3.669   2.465
 2534TIP3   OH2 7607   0.354   3.489   2.241
 2534TIP3    H1 7608   0.420   3.542   2.285
 2534TIP3    H2 7609   0.405   3.423   2.193
 2535TIP3   OH2 7610   0.713   3.794   2.511
 2535TIP3    H1 7611   0.657   3.823   2.584
 2535TIP3    H2 7612   0.793   3.764   2.553
 2536TIP3   OH2 7613   0.915   3.823   3.449
 2536TIP3    H1 7614   0.918   3.906   3.496
 2536TIP3    H2 7615   0.831   3.825   3.403
 2537TIP3   OH2 7616   6.420   3.657   2.850
 2537TIP3    H1 7617   6.366   3.718   2.800
 2537TIP3    H2 7618   6.510   3.675   2.821
 2538TIP3   OH2 7619   0.093   4.196   3.081
 2538TIP3    H1 7620   0.064   4.237   2.999
 2538TIP3    H2 7621   0.176   4.154   3.058
 2539TIP3   OH2 7622   0.219   3.751   3.278
 2539TIP3    H1 7623   0.229   3.713   3.191
 2539TIP3    H2 7624   0.135   3.797   3.275
 2540TIP3   OH2 7625   0.592   4.386   3.064
 2540TIP3    H1 7626   0.578   4.470   3.108
 2540TIP3    H2 7627   0.572   4.321   3.131
 2541TIP3   OH2 7628   0.559   3.647   2.341
 2541TIP3    H1 7629   0.615   3.707   2.390
 2541TIP3    H2 7630   0.582   3.662   2.249
 2542TIP3   OH2 7631   0.278   4.333   2.565
 2542TIP3    H1 7632   0.364   4.368   2.589
 2542TIP3    H2 7633   0.226   4.409   2.540
 2543TIP3   OH2 7634   1.043   2.879   2.387
 2543TIP3    H1 7635   0.965   2.899   2.440
 2543TIP3    H2 7636   1.054   2.956   2.332
 2544TIP3   OH2 7637   0.859   4.245   1.934
 2544TIP3    H1 7638   0.856   4.339   1.918
 2544TIP3    H2 7639   0.950   4.221   1.920
 2545TIP3   OH2 7640   1.284   4.658   3.341
 2545TIP3    H1 7641   1.289   4.564   3.359
 2545TIP3    H2 7642   1.205   4.687   3.385
 2546TIP3   OH2 7643   0.397   4.430   3.495
 2546TIP3    H1 7644   0.414   4.523   3.511
 2546TIP3    H2 7645   0.302   4.422   3.497
 2547TIP3   OH2 7646   0.163   4.551   2.425
 2547TIP3    H1 7647   0.126   4.540   2.337
 2547TIP3    H2 7648   0.159   4.645   2.442
 2548TIP3   OH2 7649   0.365   4.459   2.070
 2548TIP3    H1 7650   0.421   4.399   2.021
 2548TIP3    H2 7651   0.413   4.475   2.151
 2549TIP3   OH2 7652   0.428   4.523   2.332
 2549TIP3    H1 7653   0.338   4.519   2.366
 2549TIP3    H2 7654   0.482   4.493   2.404
 2550TIP3   OH2 7655   1.169   3.773   3.610
 2550TIP3    H1 7656   1.079   3.776   3.576
 2550TIP3    H2 7657   1.190   3.679   3.611
 2551TIP3   OH2 7658   0.210   3.017   3.410
 2551TIP3    H1 7659   0.130   2.974   3.381
 2551TIP3    H2 7660   0.181   3.101   3.445
 2552TIP3   OH2 7661   0.729   3.128   3.612
 2552TIP3    H1 7662   0.798   3.102   3.672
 2552TIP3    H2 7663   0.648   3.113   3.661
 2553TIP3   OH2 7664   0.929   3.559   3.524
 2553TIP3    H1 7665   0.891   3.551   3.611
 2553TIP3    H2 7666   0.910   3.650   3.498
 2554TIP3   OH2 7667   0.628   3.661   2.083
 2554TIP3    H1 7668   0.560   3.666   2.016
 2554TIP3    H2 7669   0.705   3.700   2.041
 2555TIP3   OH2 7670   0.328   3.052   2.381
 2555TIP3    H1 7671   0.300   3.054   2.473
 2555TIP3    H2 7672   0.289   2.972   2.346
 2556TIP3   OH2 7673   0.139   3.528   3.432
 2556TIP3    H1 7674   0.093   3.568   3.506
 2556TIP3    H2 7675   0.136   3.594   3.363
 2557TIP3   OH2 7676   0.495   3.490   2.683
 2557TIP3    H1 7677   0.445   3.559   2.639
 2557TIP3    H2 7678   0.551   3.454   2.614
 2558TIP3   OH2 7679   0.689   3.756   3.750
 2558TIP3    H1 7680   0.655   3.690   3.812
 2558TIP3    H2 7681   0.779   3.770   3.777
 2559TIP3   OH2 7682   0.648   3.522   2.905
 2559TIP3    H1 7683   0.576   3.541   2.845
 2559TIP3    H2 7684   0.692   3.446   2.867
 2560TIP3   OH2 7685   6.502   3.044   2.358
 2560TIP3    H1 7686   6.499   3.031   2.453
 2560TIP3    H2 7687   6.426   3.099   2.339
 2561TIP3   OH2 7688   0.664   3.758   3.331
 2561TIP3    H1 7689   0.698   3.697   3.265
 2561TIP3    H2 7690   0.632   3.702   3.401
 2562TIP3   OH2 7691   0.392   3.247   3.011
 2562TIP3    H1 7692   0.301   3.248   3.040
 2562TIP3    H2 7693   0.441   3.217   3.087
 2563TIP3   OH2 7694   0.067   3.253   2.695
 2563TIP3    H1 7695   0.152   3.280   2.728
 2563TIP3    H2 7696   0.010   3.328   2.711
 2564TIP3   OH2 7697   0.805   3.303   3.214
 2564TIP3    H1 7698   0.780   3.320   3.304
 2564TIP3    H2 7699   0.740   3.240   3.182
 2565TIP3   OH2 7700   6.323   3.267   2.436
 2565TIP3    H1 7701   6.258   3.286   2.369
 2565TIP3    H2 7702   6.370   3.350   2.448
 2566TIP3   OH2 7703   0.996   5.004   3.434
 2566TIP3    H1 7704   0.987   5.029   3.341
 2566TIP3    H2 7705   1.074   5.051   3.464
 2567TIP3   OH2 7706   0.431   3.576   3.108
 2567TIP3    H1 7707   0.470   3.504   3.058
 2567TIP3    H2 7708   0.414   3.538   3.194
 2568TIP3   OH2 7709   6.488   3.016   2.937
 2568TIP3    H1 7710   6.414   2.964   2.969
 2568TIP3    H2 7711   6.488   3.001   2.843
 2569TIP3   OH2 7712   0.399   3.475   3.366
 2569TIP3    H1 7713   0.308   3.501   3.383
 2569TIP3    H2 7714   0.451   3.531   3.423
 2570TIP3   OH2 7715   0.200   3.878   2.488
 2570TIP3    H1 7716   0.118   3.828   2.493
 2570TIP3    H2 7717   0.188   3.951   2.548
 2571TIP3   OH2 7718   1.024   4.055   3.062
 2571TIP3    H1 7719   1.043   4.128   3.003
 2571TIP3    H2 7720   0.931   4.038   3.051
 2572TIP3   OH2 7721   0.577   3.156   2.381
 2572TIP3    H1 7722   0.484   3.134   2.379
 2572TIP3    H2 7723   0.579   3.250   2.397
 2573TIP3   OH2 7724   0.513   4.180   3.517
 2573TIP3    H1 7725   0.563   4.178   3.598
 2573TIP3    H2 7726   0.472   4.266   3.516
 2574TIP3   OH2 7727   0.643   3.414   2.459
 2574TIP3    H1 7728   0.738   3.417   2.468
 2574TIP3    H2 7729   0.621   3.493   2.410
 2575TIP3   OH2 7730   0.309   4.027   2.291
 2575TIP3    H1 7731   0.261   4.110   2.299
 2575TIP3    H2 7732   0.282   3.977   2.368
 2576TIP3   OH2 7733   0.492   3.939   3.754
 2576TIP3    H1 7734   0.450   3.925   3.669
 2576TIP3    H2 7735   0.575   3.891   3.747
 2577TIP3   OH2 7736   0.667   4.436   3.397
 2577TIP3    H1 7737   0.573   4.427   3.407
 2577TIP3    H2 7738   0.694   4.492   3.470
 2578TIP3   OH2 7739   1.058   3.510   2.285
 2578TIP3    H1 7740   1.001   3.462   2.225
 2578TIP3    H2 7741   1.061   3.599   2.251
 2579TIP3   OH2 7742   1.295   4.365   3.373
 2579TIP3    H1 7743   1.200   4.360   3.362
 2579TIP3    H2 7744   1.330   4.342   3.287
 2580TIP3   OH2 7745   0.795   4.324   2.202
 2580TIP3    H1 7746   0.753   4.259   2.259
 2580TIP3    H2 7747   0.802   4.279   2.117
 2581TIP3   OH2 7748   0.769   3.955   3.009
 2581TIP3    H1 7749   0.679   3.939   3.035
 2581TIP3    H2 7750   0.798   3.873   2.968
 2582TIP3   OH2 7751   6.489   4.040   2.639
 2582TIP3    H1 7752   6.565   4.082   2.677
 2582TIP3    H2 7753   6.416   4.098   2.662
 2583TIP3   OH2 7754   0.232   4.492   3.217
 2583TIP3    H1 7755   0.295   4.564   3.208
 2583TIP3    H2 7756   0.197   4.501   3.306
 2584TIP3   OH2 7757   0.570   4.167   3.244
 2584TIP3    H1 7758   0.543   4.168   3.336
 2584TIP3    H2 7759   0.661   4.140   3.246
 2585TIP3   OH2 7760   0.554   4.049   2.095
 2585TIP3    H1 7761   0.597   4.032   2.179
 2585TIP3    H2 7762   0.462   4.025   2.110
 2586TIP3   OH2 7763   0.813   4.692   3.268
 2586TIP3    H1 7764   0.733   4.639   3.267
 2586TIP3    H2 7765   0.801   4.752   3.194
 2587TIP3   OH2 7766   0.871   4.521   1.907
 2587TIP3    H1 7767   0.901   4.591   1.849
 2587TIP3    H2 7768   0.796   4.559   1.953
 2588TIP3   OH2 7769   0.714   3.995   2.321
 2588TIP3    H1 7770   0.704   3.924   2.384
 2588TIP3    H2 7771   0.807   3.996   2.300
 2589TIP3   OH2 7772   6.382   4.007   2.068
 2589TIP3    H1 7773   6.440   3.938   2.035
 2589TIP3    H2 7774   6.423   4.036   2.149
 2590TIP3   OH2 7775   6.241   4.000   2.370
 2590TIP3    H1 7776   6.334   4.018   2.356
 2590TIP3    H2 7777   6.204   4.084   2.397
 2591TIP3   OH2 7778   0.735   3.365   3.475
 2591TIP3    H1 7779   0.815   3.409   3.504
 2591TIP3    H2 7780   0.733   3.284   3.526
 2592TIP3   OH2 7781   0.630   3.108   2.653
 2592TIP3    H1 7782   0.610   3.125   2.561
 2592TIP3    H2 7783   0.671   3.189   2.684
 2593TIP3   OH2 7784   0.155   4.248   2.301
 2593TIP3    H1 7785   0.143   4.304   2.378
 2593TIP3    H2 7786   0.138   4.307   2.227
 2594TIP3   OH2 7787   0.321   3.300   2.757
 2594TIP3    H1 7788   0.381   3.367   2.726
 2594TIP3    H2 7789   0.343   3.287   2.849
 2595TIP3   OH2 7790   0.581   3.599   3.537
 2595TIP3    H1 7791   0.614   3.646   3.614
 2595TIP3    H2 7792   0.632   3.518   3.535
 2596TIP3   OH2 7793   0.453   3.013   2.845
 2596TIP3    H1 7794   0.441   3.092   2.898
 2596TIP3    H2 7795   0.518   3.038   2.779
 2597TIP3   OH2 7796  -0.010   2.998   2.646
 2597TIP3    H1 7797  -0.007   3.093   2.661
 2597TIP3    H2 7798   0.082   2.971   2.641
 2598TIP3   OH2 7799   1.192   3.501   3.512
 2598TIP3    H1 7800   1.097   3.510   3.520
 2598TIP3    H2 7801   1.204   3.430   3.449
 2599TIP3   OH2 7802   0.865   3.697   2.920
 2599TIP3    H1 7803   0.781   3.659   2.895
 2599TIP3    H2 7804   0.888   3.654   3.003
 2600TIP3   OH2 7805   0.843   4.666   2.845
 2600TIP3    H1 7806   0.802   4.717   2.775
 2600TIP3    H2 7807   0.937   4.681   2.833
 2601TIP3   OH2 7808   6.452   2.920   3.420
 2601TIP3    H1 7809   6.443   2.974   3.341
 2601TIP3    H2 7810   6.388   2.850   3.408
 2602TIP3   OH2 7811   0.725   4.575   3.626
 2602TIP3    H1 7812   0.730   4.503   3.689
 2602TIP3    H2 7813   0.800   4.631   3.646
 2603TIP3   OH2 7814   0.510   4.271   1.932
 2603TIP3    H1 7815   0.538   4.199   1.988
 2603TIP3    H2 7816   0.561   4.260   1.852
 2604TIP3   OH2 7817   0.457   4.214   3.819
 2604TIP3    H1 7818   0.382   4.204   3.760
 2604TIP3    H2 7819   0.504   4.131   3.811
 2605TIP3   OH2 7820   0.273   3.951   2.034
 2605TIP3    H1 7821   0.272   3.975   2.127
 2605TIP3    H2 7822   0.265   3.855   2.034
 2606TIP3   OH2 7823   0.833   4.212   3.404
 2606TIP3    H1 7824   0.909   4.248   3.359
 2606TIP3    H2 7825   0.770   4.284   3.405
 2607TIP3   OH2 7826   6.458   3.767   2.468
 2607TIP3    H1 7827   6.412   3.726   2.542
 2607TIP3    H2 7828   6.449   3.704   2.397
 2608TIP3   OH2 7829   0.153   3.633   3.680
 2608TIP3    H1 7830   0.122   3.710   3.729
 2608TIP3    H2 7831   0.208   3.668   3.611
 2609TIP3   OH2 7832   0.085   3.494   2.247
 2609TIP3    H1 7833   0.067   3.496   2.153
 2609TIP3    H2 7834   0.180   3.485   2.253
 2610TIP3   OH2 7835   0.731   4.114   3.801
 2610TIP3    H1 7836   0.809   4.088   3.752
 2610TIP3    H2 7837   0.735   4.060   3.881
 2611TIP3   OH2 7838   0.842   3.761   1.936
 2611TIP3    H1 7839   0.908   3.753   1.867
 2611TIP3    H2 7840   0.805   3.849   1.924
 2612TIP3   OH2 7841   0.358   3.480   3.776
 2612TIP3    H1 7842   0.372   3.409   3.714
 2612TIP3    H2 7843   0.289   3.533   3.737
 2613TIP3   OH2 7844   0.329   3.298   3.569
 2613TIP3    H1 7845   0.375   3.337   3.495
 2613TIP3    H2 7846   0.237   3.297   3.542
 2614TIP3   OH2 7847   0.391   3.858   3.516
 2614TIP3    H1 7848   0.457   3.814   3.463
 2614TIP3    H2 7849   0.358   3.927   3.459
 2615TIP3   OH2 7850   0.942   3.789   3.860
 2615TIP3    H1 7851   0.985   3.706   3.880
 2615TIP3    H2 7852   1.014   3.849   3.840
 2616TIP3   OH2 7853   0.964   4.062   3.588
 2616TIP3    H1 7854   0.908   4.117   3.534
 2616TIP3    H2 7855   1.053   4.078   3.555
 2617TIP3   OH2 7856   0.212   3.603   3.978
 2617TIP3    H1 7857   0.147   3.534   3.974
 2617TIP3    H2 7858   0.278   3.579   3.913
 2618TIP3   OH2 7859   0.470   3.091   3.692
 2618TIP3    H1 7860   0.423   3.158   3.644
 2618TIP3    H2 7861   0.419   3.011   3.679
 2619TIP3   OH2 7862   0.591   3.550   3.901
 2619TIP3    H1 7863   0.575   3.542   3.995
 2619TIP3    H2 7864   0.510   3.522   3.860
 2620TIP3   OH2 7865   0.821   3.492   3.760
 2620TIP3    H1 7866   0.745   3.499   3.819
 2620TIP3    H2 7867   0.895   3.473   3.818
 2621TIP3   OH2 7868   1.049   3.466   3.915
 2621TIP3    H1 7869   1.065   3.372   3.923
 2621TIP3    H2 7870   1.046   3.497   4.006
 2622TIP3   OH2 7871   0.543   3.063   3.951
 2622TIP3    H1 7872   0.606   2.991   3.948
 2622TIP3    H2 7873   0.514   3.072   3.860
 2623TIP3   OH2 7874   0.623   3.271   4.109
 2623TIP3    H1 7875   0.599   3.198   4.051
 2623TIP3    H2 7876   0.551   3.333   4.100
 2624TIP3   OH2 7877   1.111   4.729   2.834
 2624TIP3    H1 7878   1.127   4.765   2.921
 2624TIP3    H2 7879   1.157   4.789   2.775
 2625TIP3   OH2 7880   1.121   4.765   3.115
 2625TIP3    H1 7881   1.077   4.681   3.110
 2625TIP3    H2 7882   1.194   4.751   3.175
 2626TIP3   OH2 7883   1.171   4.456   3.682
 2626TIP3    H1 7884   1.102   4.466   3.747
 2626TIP3    H2 7885   1.218   4.540   3.683
 2627TIP3   OH2 7886   0.991   3.970   2.292
 2627TIP3    H1 7887   1.050   4.040   2.263
 2627TIP3    H2 7888   1.035   3.931   2.368
 2628TIP3   OH2 7889   1.118   3.827   2.493
 2628TIP3    H1 7890   1.056   3.786   2.553
 2628TIP3    H2 7891   1.186   3.864   2.549
 2629TIP3   OH2 7892   1.185   4.233   2.923
 2629TIP3    H1 7893   1.234   4.175   2.864
 2629TIP3    H2 7894   1.178   4.316   2.876
 2630TIP3   OH2 7895   0.983   4.522   3.123
 2630TIP3    H1 7896   0.917   4.568   3.173
 2630TIP3    H2 7897   0.936   4.484   3.049
 2631TIP3   OH2 7898   1.033   3.745   2.142
 2631TIP3    H1 7899   0.960   3.743   2.080
 2631TIP3    H2 7900   1.017   3.824   2.194
 2632TIP3   OH2 7901   0.899   3.403   2.092
 2632TIP3    H1 7902   0.856   3.442   2.016
 2632TIP3    H2 7903   0.892   3.308   2.078
 2633TIP3   OH2 7904   0.931   3.684   2.646
 2633TIP3    H1 7905   0.936   3.591   2.625
 2633TIP3    H2 7906   0.920   3.687   2.741
 2634TIP3   OH2 7907   1.224   4.111   3.494
 2634TIP3    H1 7908   1.291   4.045   3.475
 2634TIP3    H2 7909   1.251   4.187   3.443
 2635TIP3   OH2 7910   1.374   3.879   3.468
 2635TIP3    H1 7911   1.307   3.846   3.527
 2635TIP3    H2 7912   1.453   3.830   3.493
 2636TIP3   OH2 7913   0.856   3.133   2.047
 2636TIP3    H1 7914   0.925   3.107   2.108
 2636TIP3    H2 7915   0.778   3.089   2.079
 2637TIP3   OH2 7916   0.926   3.417   2.521
 2637TIP3    H1 7917   0.968   3.332   2.535
 2637TIP3    H2 7918   0.973   3.455   2.446
 2638TIP3   OH2 7919   1.149   3.806   3.248
 2638TIP3    H1 7920   1.072   3.754   3.274
 2638TIP3    H2 7921   1.166   3.862   3.324
 2639TIP3   OH2 7922   1.607   3.326   3.808
 2639TIP3    H1 7923   1.669   3.263   3.770
 2639TIP3    H2 7924   1.575   3.376   3.733
 2640TIP3   OH2 7925   1.029   3.164   2.574
 2640TIP3    H1 7926   1.077   3.146   2.655
 2640TIP3    H2 7927   0.968   3.091   2.565
 2641TIP3   OH2 7928   1.459   3.446   3.611
 2641TIP3    H1 7929   1.379   3.485   3.645
 2641TIP3    H2 7930   1.429   3.367   3.564
 2642TIP3   OH2 7931   1.084   3.084   2.204
 2642TIP3    H1 7932   1.127   3.019   2.148
 2642TIP3    H2 7933   1.147   3.156   2.210
 2643TIP3   OH2 7934   0.687   4.621   2.480
 2643TIP3    H1 7935   0.737   4.618   2.398
 2643TIP3    H2 7936   0.718   4.700   2.525
 2644TIP3   OH2 7937   0.428   4.700   3.528
 2644TIP3    H1 7938   0.449   4.708   3.621
 2644TIP3    H2 7939   0.492   4.756   3.484
 2645TIP3   OH2 7940   0.605   4.871   3.402
 2645TIP3    H1 7941   0.678   4.825   3.360
 2645TIP3    H2 7942   0.646   4.931   3.464
 2646TIP3   OH2 7943   1.370   3.193   3.515
 2646TIP3    H1 7944   1.283   3.174   3.480
 2646TIP3    H2 7945   1.420   3.113   3.502
 2647TIP3   OH2 7946   0.317   4.731   3.079
 2647TIP3    H1 7947   0.236   4.726   3.028
 2647TIP3    H2 7948   0.323   4.823   3.107
 2648TIP3   OH2 7949   0.569   4.653   3.134
 2648TIP3    H1 7950   0.478   4.679   3.122
 2648TIP3    H2 7951   0.619   4.724   3.095
 2649TIP3   OH2 7952   0.757   4.841   3.042
 2649TIP3    H1 7953   0.747   4.929   3.005
 2649TIP3    H2 7954   0.786   4.787   2.969
 2650TIP3   OH2 7955   0.592   3.112   3.149
 2650TIP3    H1 7956   0.545   3.036   3.183
 2650TIP3    H2 7957   0.656   3.074   3.088
 2651TIP3   OH2 7958   1.093   3.034   3.033
 2651TIP3    H1 7959   1.126   3.071   2.951
 2651TIP3    H2 7960   0.997   3.037   3.024
 2652TIP3   OH2 7961   1.194   3.113   2.792
 2652TIP3    H1 7962   1.259   3.050   2.761
 2652TIP3    H2 7963   1.234   3.198   2.777
 2653TIP3   OH2 7964   6.359   2.827   3.132
 2653TIP3    H1 7965   6.306   2.822   3.052
 2653TIP3    H2 7966   6.420   2.754   3.126
 2654TIP3   OH2 7967   0.287   2.869   3.028
 2654TIP3    H1 7968   0.332   2.918   2.959
 2654TIP3    H2 7969   0.333   2.892   3.108
 2655TIP3   OH2 7970   0.812   3.011   3.002
 2655TIP3    H1 7971   0.815   2.972   2.915
 2655TIP3    H2 7972   0.807   2.937   3.062
 2656TIP3   OH2 7973   0.848   2.951   2.572
 2656TIP3    H1 7974   0.767   2.997   2.595
 2656TIP3    H2 7975   0.837   2.864   2.610
 2657TIP3   OH2 7976   6.341   2.780   2.552
 2657TIP3    H1 7977   6.313   2.827   2.474
 2657TIP3    H2 7978   6.395   2.843   2.600
 2658TIP3   OH2 7979   0.262   3.039   2.645
 2658TIP3    H1 7980   0.320   3.004   2.712
 2658TIP3    H2 7981   0.253   3.132   2.668
 2659TIP3   OH2 7982   0.107   4.481   2.155
 2659TIP3    H1 7983   0.198   4.481   2.125
 2659TIP3    H2 7984   0.056   4.490   2.075
 2660TIP3   OH2 7985   0.828   4.592   2.242
 2660TIP3    H1 7986   0.821   4.497   2.233
 2660TIP3    H2 7987   0.780   4.627   2.167
 2661TIP3   OH2 7988   0.047   3.108   4.080
 2661TIP3    H1 7989   0.023   3.017   4.063
 2661TIP3    H2 7990   0.143   3.107   4.082
 2662TIP3   OH2 7991   0.312   3.082   4.087
 2662TIP3    H1 7992   0.394   3.074   4.037
 2662TIP3    H2 7993   0.328   3.033   4.167
 2663TIP3   OH2 7994   1.115   3.197   3.935
 2663TIP3    H1 7995   1.130   3.166   4.024
 2663TIP3    H2 7996   1.201   3.192   3.893
 2664TIP3   OH2 7997   1.035   4.731   3.435
 2664TIP3    H1 7998   0.959   4.703   3.384
 2664TIP3    H2 7999   1.024   4.826   3.443
 2665TIP3   OH2 8000   2.313   4.117   2.177
 2665TIP3    H1 8001   2.278   4.203   2.153
 2665TIP3    H2 8002   2.242   4.056   2.159
 2666TIP3   OH2 8003   2.308   4.115   2.600
 2666TIP3    H1 8004   2.357   4.093   2.679
 2666TIP3    H2 8005   2.268   4.033   2.572
 2667TIP3   OH2 8006   1.598   3.991   2.968
 2667TIP3    H1 8007   1.628   3.927   3.033
 2667TIP3    H2 8008   1.674   4.007   2.913
 2668TIP3   OH2 8009   2.569   4.419   2.273
 2668TIP3    H1 8010   2.558   4.352   2.341
 2668TIP3    H2 8011   2.595   4.498   2.322
 2669TIP3   OH2 8012   1.595   4.402   2.647
 2669TIP3    H1 8013   1.581   4.308   2.650
 2669TIP3    H2 8014   1.690   4.412   2.635
 2670TIP3   OH2 8015   1.285   3.601   2.426
 2670TIP3    H1 8016   1.247   3.686   2.450
 2670TIP3    H2 8017   1.213   3.554   2.384
 2671TIP3   OH2 8018   1.349   3.909   2.628
 2671TIP3    H1 8019   1.400   3.833   2.655
 2671TIP3    H2 8020   1.413   3.970   2.591
 2672TIP3   OH2 8021   2.224   4.857   2.282
 2672TIP3    H1 8022   2.255   4.790   2.220
 2672TIP3    H2 8023   2.219   4.812   2.366
 2673TIP3   OH2 8024   2.111   4.330   2.616
 2673TIP3    H1 8025   2.154   4.251   2.585
 2673TIP3    H2 8026   2.182   4.388   2.642
 2674TIP3   OH2 8027   3.129   3.651   2.613
 2674TIP3    H1 8028   3.147   3.736   2.653
 2674TIP3    H2 8029   3.165   3.658   2.525
 2675TIP3   OH2 8030   2.527   3.825   2.641
 2675TIP3    H1 8031   2.569   3.742   2.666
 2675TIP3    H2 8032   2.487   3.808   2.556
 2676TIP3   OH2 8033   1.859   3.490   2.622
 2676TIP3    H1 8034   1.850   3.561   2.558
 2676TIP3    H2 8035   1.811   3.417   2.583
 2677TIP3   OH2 8036   2.571   3.580   2.229
 2677TIP3    H1 8037   2.635   3.572   2.300
 2677TIP3    H2 8038   2.621   3.614   2.155
 2678TIP3   OH2 8039   1.500   3.704   2.718
 2678TIP3    H1 8040   1.570   3.678   2.779
 2678TIP3    H2 8041   1.512   3.647   2.642
 2679TIP3   OH2 8042   1.920   3.896   2.543
 2679TIP3    H1 8043   2.016   3.885   2.542
 2679TIP3    H2 8044   1.887   3.813   2.509
 2680TIP3   OH2 8045   3.176   3.865   2.796
 2680TIP3    H1 8046   3.102   3.921   2.769
 2680TIP3    H2 8047   3.144   3.817   2.872
 2681TIP3   OH2 8048   1.827   3.444   3.057
 2681TIP3    H1 8049   1.793   3.499   2.987
 2681TIP3    H2 8050   1.797   3.486   3.138
 2682TIP3   OH2 8051   2.188   4.327   2.049
 2682TIP3    H1 8052   2.155   4.311   1.960
 2682TIP3    H2 8053   2.144   4.407   2.077
 2683TIP3   OH2 8054   1.963   4.248   2.837
 2683TIP3    H1 8055   1.908   4.320   2.868
 2683TIP3    H2 8056   2.012   4.285   2.763
 2684TIP3   OH2 8057   2.741   3.604   2.441
 2684TIP3    H1 8058   2.712   3.575   2.527
 2684TIP3    H2 8059   2.798   3.679   2.459
 2685TIP3   OH2 8060   1.724   3.588   2.842
 2685TIP3    H1 8061   1.781   3.660   2.869
 2685TIP3    H2 8062   1.772   3.546   2.770
 2686TIP3   OH2 8063   1.799   4.456   2.931
 2686TIP3    H1 8064   1.783   4.545   2.898
 2686TIP3    H2 8065   1.721   4.435   2.982
 2687TIP3   OH2 8066   1.170   4.153   2.178
 2687TIP3    H1 8067   1.135   4.172   2.091
 2687TIP3    H2 8068   1.195   4.238   2.213
 2688TIP3   OH2 8069   2.616   4.665   2.416
 2688TIP3    H1 8070   2.529   4.657   2.454
 2688TIP3    H2 8071   2.615   4.749   2.370
 2689TIP3   OH2 8072   2.916   3.564   2.784
 2689TIP3    H1 8073   2.829   3.573   2.746
 2689TIP3    H2 8074   2.976   3.586   2.713
 2690TIP3   OH2 8075   2.195   3.205   2.749
 2690TIP3    H1 8076   2.268   3.191   2.811
 2690TIP3    H2 8077   2.118   3.215   2.805
 2691TIP3   OH2 8078   2.318   4.697   2.073
 2691TIP3    H1 8079   2.369   4.616   2.062
 2691TIP3    H2 8080   2.377   4.766   2.043
 2692TIP3   OH2 8081   2.468   4.475   2.022
 2692TIP3    H1 8082   2.431   4.393   1.991
 2692TIP3    H2 8083   2.510   4.453   2.105
 2693TIP3   OH2 8084   2.850   4.557   2.761
 2693TIP3    H1 8085   2.834   4.483   2.703
 2693TIP3    H2 8086   2.834   4.634   2.707
 2694TIP3   OH2 8087   2.137   3.955   2.029
 2694TIP3    H1 8088   2.058   4.007   2.010
 2694TIP3    H2 8089   2.187   3.957   1.948
 2695TIP3   OH2 8090   2.102   3.760   1.729
 2695TIP3    H1 8091   2.167   3.808   1.781
 2695TIP3    H2 8092   2.154   3.694   1.682
 2696TIP3   OH2 8093   3.040   4.223   2.617
 2696TIP3    H1 8094   2.955   4.268   2.617
 2696TIP3    H2 8095   3.073   4.235   2.528
 2697TIP3   OH2 8096   2.496   4.043   1.989
 2697TIP3    H1 8097   2.441   4.072   2.062
 2697TIP3    H2 8098   2.578   4.016   2.029
 2698TIP3   OH2 8099   2.724   4.082   2.919
 2698TIP3    H1 8100   2.721   4.162   2.971
 2698TIP3    H2 8101   2.639   4.078   2.875
 2699TIP3   OH2 8102   1.722   4.031   2.402
 2699TIP3    H1 8103   1.688   3.972   2.335
 2699TIP3    H2 8104   1.794   3.983   2.442
 2700TIP3   OH2 8105   1.857   4.448   2.543
 2700TIP3    H1 8106   1.840   4.428   2.451
 2700TIP3    H2 8107   1.943   4.410   2.560
 2701TIP3   OH2 8108   1.822   4.019   2.773
 2701TIP3    H1 8109   1.861   3.984   2.693
 2701TIP3    H2 8110   1.875   4.095   2.794
 2702TIP3   OH2 8111   2.378   4.655   2.546
 2702TIP3    H1 8112   2.367   4.733   2.601
 2702TIP3    H2 8113   2.366   4.581   2.606
 2703TIP3   OH2 8114   1.997   4.562   3.093
 2703TIP3    H1 8115   1.937   4.620   3.140
 2703TIP3    H2 8116   1.941   4.509   3.037
 2704TIP3   OH2 8117   2.324   3.908   1.823
 2704TIP3    H1 8118   2.386   3.963   1.872
 2704TIP3    H2 8119   2.349   3.917   1.732
 2705TIP3   OH2 8120   1.768   4.128   3.218
 2705TIP3    H1 8121   1.762   4.219   3.245
 2705TIP3    H2 8122   1.678   4.105   3.192
 2706TIP3   OH2 8123   2.070   4.578   2.085
 2706TIP3    H1 8124   2.155   4.623   2.090
 2706TIP3    H2 8125   2.013   4.640   2.040
 2707TIP3   OH2 8126   1.785   4.719   3.178
 2707TIP3    H1 8127   1.759   4.728   3.087
 2707TIP3    H2 8128   1.703   4.702   3.225
 2708TIP3   OH2 8129   2.840   3.134   1.877
 2708TIP3    H1 8130   2.762   3.153   1.930
 2708TIP3    H2 8131   2.852   3.212   1.823
 2709TIP3   OH2 8132   1.600   3.877   2.195
 2709TIP3    H1 8133   1.520   3.919   2.162
 2709TIP3    H2 8134   1.572   3.788   2.218
 2710TIP3   OH2 8135   2.653   4.508   1.428
 2710TIP3    H1 8136   2.654   4.602   1.411
 2710TIP3    H2 8137   2.743   4.480   1.410
 2711TIP3   OH2 8138   1.376   4.268   3.132
 2711TIP3    H1 8139   1.317   4.246   3.060
 2711TIP3    H2 8140   1.414   4.184   3.158
 2712TIP3   OH2 8141   1.224   4.467   2.776
 2712TIP3    H1 8142   1.318   4.481   2.772
 2712TIP3    H2 8143   1.189   4.550   2.810
 2713TIP3   OH2 8144   3.080   4.921   2.823
 2713TIP3    H1 8145   3.086   4.826   2.832
 2713TIP3    H2 8146   2.999   4.944   2.868
 2714TIP3   OH2 8147   2.186   4.699   2.949
 2714TIP3    H1 8148   2.182   4.791   2.977
 2714TIP3    H2 8149   2.119   4.654   3.001
 2715TIP3   OH2 8150   1.962   4.808   1.906
 2715TIP3    H1 8151   1.916   4.791   1.825
 2715TIP3    H2 8152   1.929   4.892   1.936
 2716TIP3   OH2 8153   1.396   4.659   2.289
 2716TIP3    H1 8154   1.442   4.652   2.372
 2716TIP3    H2 8155   1.346   4.577   2.283
 2717TIP3   OH2 8156   2.163   4.728   1.534
 2717TIP3    H1 8157   2.215   4.655   1.499
 2717TIP3    H2 8158   2.198   4.742   1.622
 2718TIP3   OH2 8159   2.216   4.777   1.803
 2718TIP3    H1 8160   2.130   4.781   1.846
 2718TIP3    H2 8161   2.275   4.744   1.870
 2719TIP3   OH2 8162   2.987   4.020   3.085
 2719TIP3    H1 8163   2.904   4.038   3.040
 2719TIP3    H2 8164   3.003   3.927   3.070
 2720TIP3   OH2 8165   1.578   4.454   3.097
 2720TIP3    H1 8166   1.627   4.447   3.179
 2720TIP3    H2 8167   1.505   4.392   3.107
 2721TIP3   OH2 8168   1.977   3.238   2.929
 2721TIP3    H1 8169   1.892   3.282   2.923
 2721TIP3    H2 8170   2.032   3.298   2.980
 2722TIP3   OH2 8171   2.733   3.835   3.042
 2722TIP3    H1 8172   2.701   3.864   3.127
 2722TIP3    H2 8173   2.719   3.909   2.984
 2723TIP3   OH2 8174   2.398   3.912   1.561
 2723TIP3    H1 8175   2.363   3.901   1.473
 2723TIP3    H2 8176   2.482   3.957   1.548
 2724TIP3   OH2 8177   2.108   3.318   1.876
 2724TIP3    H1 8178   2.081   3.321   1.968
 2724TIP3    H2 8179   2.074   3.234   1.844
 2725TIP3   OH2 8180   1.892   3.789   2.915
 2725TIP3    H1 8181   1.906   3.827   3.002
 2725TIP3    H2 8182   1.873   3.864   2.859
 2726TIP3   OH2 8183   1.782   3.680   2.435
 2726TIP3    H1 8184   1.695   3.651   2.461
 2726TIP3    H2 8185   1.796   3.641   2.349
 2727TIP3   OH2 8186   2.266   3.753   2.165
 2727TIP3    H1 8187   2.218   3.825   2.123
 2727TIP3    H2 8188   2.325   3.720   2.097
 2728TIP3   OH2 8189   2.463   4.013   3.231
 2728TIP3    H1 8190   2.428   3.952   3.297
 2728TIP3    H2 8191   2.552   4.031   3.260
 2729TIP3   OH2 8192   2.437   3.772   2.386
 2729TIP3    H1 8193   2.367   3.793   2.325
 2729TIP3    H2 8194   2.482   3.696   2.348
 2730TIP3   OH2 8195   1.699   3.818   3.161
 2730TIP3    H1 8196   1.787   3.853   3.177
 2730TIP3    H2 8197   1.703   3.729   3.197
 2731TIP3   OH2 8198   1.769   3.293   1.841
 2731TIP3    H1 8199   1.767   3.292   1.937
 2731TIP3    H2 8200   1.693   3.345   1.816
 2732TIP3   OH2 8201   1.321   3.339   2.724
 2732TIP3    H1 8202   1.391   3.373   2.780
 2732TIP3    H2 8203   1.364   3.322   2.640
 2733TIP3   OH2 8204   1.249   3.310   2.223
 2733TIP3    H1 8205   1.298   3.343   2.147
 2733TIP3    H2 8206   1.189   3.382   2.246
 2734TIP3   OH2 8207   2.465   4.022   2.815
 2734TIP3    H1 8208   2.492   3.957   2.751
 2734TIP3    H2 8209   2.424   3.971   2.885
 2735TIP3   OH2 8210   2.119   3.516   2.498
 2735TIP3    H1 8211   2.053   3.497   2.565
 2735TIP3    H2 8212   2.198   3.473   2.530
 2736TIP3   OH2 8213   1.548   3.549   2.497
 2736TIP3    H1 8214   1.459   3.550   2.462
 2736TIP3    H2 8215   1.580   3.461   2.479
 2737TIP3   OH2 8216   1.797   3.548   2.194
 2737TIP3    H1 8217   1.891   3.561   2.185
 2737TIP3    H2 8218   1.762   3.568   2.107
 2738TIP3   OH2 8219   2.619   3.569   2.705
 2738TIP3    H1 8220   2.586   3.584   2.794
 2738TIP3    H2 8221   2.571   3.493   2.674
 2739TIP3   OH2 8222   1.674   3.581   1.949
 2739TIP3    H1 8223   1.605   3.538   1.897
 2739TIP3    H2 8224   1.729   3.623   1.884
 2740TIP3   OH2 8225   2.792   5.261   2.919
 2740TIP3    H1 8226   2.786   5.278   2.825
 2740TIP3    H2 8227   2.871   5.307   2.947
 2741TIP3   OH2 8228   1.732   4.380   3.333
 2741TIP3    H1 8229   1.814   4.400   3.378
 2741TIP3    H2 8230   1.665   4.387   3.402
 2742TIP3   OH2 8231   2.196   3.857   2.569
 2742TIP3    H1 8232   2.250   3.790   2.527
 2742TIP3    H2 8233   2.190   3.827   2.660
 2743TIP3   OH2 8234   1.697   3.306   2.483
 2743TIP3    H1 8235   1.663   3.230   2.529
 2743TIP3    H2 8236   1.755   3.269   2.416
 2744TIP3   OH2 8237   2.169   3.785   2.829
 2744TIP3    H1 8238   2.089   3.754   2.870
 2744TIP3    H2 8239   2.231   3.795   2.901
 2745TIP3   OH2 8240   1.905   4.104   1.968
 2745TIP3    H1 8241   1.833   4.045   1.949
 2745TIP3    H2 8242   1.884   4.142   2.053
 2746TIP3   OH2 8243   2.797   4.352   2.584
 2746TIP3    H1 8244   2.830   4.400   2.507
 2746TIP3    H2 8245   2.717   4.310   2.554
 2747TIP3   OH2 8246   2.361   3.420   1.854
 2747TIP3    H1 8247   2.268   3.398   1.862
 2747TIP3    H2 8248   2.367   3.512   1.879
 2748TIP3   OH2 8249   2.308   4.434   2.981
 2748TIP3    H1 8250   2.358   4.424   3.062
 2748TIP3    H2 8251   2.270   4.521   2.987
 2749TIP3   OH2 8252   2.428   3.674   1.946
 2749TIP3    H1 8253   2.523   3.677   1.959
 2749TIP3    H2 8254   2.409   3.754   1.897
 2750TIP3   OH2 8255   1.595   4.117   2.633
 2750TIP3    H1 8256   1.632   4.099   2.546
 2750TIP3    H2 8257   1.661   4.084   2.694
 2751TIP3   OH2 8258   2.056   4.261   1.801
 2751TIP3    H1 8259   2.008   4.344   1.803
 2751TIP3    H2 8260   2.005   4.203   1.858
 2752TIP3   OH2 8261   1.487   4.066   3.291
 2752TIP3    H1 8262   1.549   4.094   3.358
 2752TIP3    H2 8263   1.458   3.979   3.321
 2753TIP3   OH2 8264   2.234   4.179   3.266
 2753TIP3    H1 8265   2.182   4.154   3.190
 2753TIP3    H2 8266   2.318   4.135   3.253
 2754TIP3   OH2 8267   2.459   4.710   2.870
 2754TIP3    H1 8268   2.364   4.700   2.877
 2754TIP3    H2 8269   2.484   4.753   2.952
 2755TIP3   OH2 8270   2.854   3.765   1.770
 2755TIP3    H1 8271   2.798   3.719   1.707
 2755TIP3    H2 8272   2.858   3.855   1.736
 2756TIP3   OH2 8273   3.097   4.642   2.848
 2756TIP3    H1 8274   3.003   4.626   2.847
 2756TIP3    H2 8275   3.128   4.609   2.764
 2757TIP3   OH2 8276   2.578   4.583   1.692
 2757TIP3    H1 8277   2.556   4.514   1.755
 2757TIP3    H2 8278   2.596   4.536   1.611
 2758TIP3   OH2 8279   2.564   4.217   2.488
 2758TIP3    H1 8280   2.474   4.194   2.510
 2758TIP3    H2 8281   2.601   4.137   2.451
 2759TIP3   OH2 8282   1.713   4.449   2.284
 2759TIP3    H1 8283   1.712   4.527   2.229
 2759TIP3    H2 8284   1.621   4.436   2.309
 2760TIP3   OH2 8285   1.272   3.737   2.002
 2760TIP3    H1 8286   1.318   3.819   2.022
 2760TIP3    H2 8287   1.194   3.741   2.058
 2761TIP3   OH2 8288   1.811   4.204   2.201
 2761TIP3    H1 8289   1.790   4.294   2.227
 2761TIP3    H2 8290   1.785   4.151   2.277
 2762TIP3   OH2 8291   1.995   4.774   2.746
 2762TIP3    H1 8292   2.031   4.847   2.695
 2762TIP3    H2 8293   2.069   4.739   2.795
 2763TIP3   OH2 8294   1.625   4.678   2.135
 2763TIP3    H1 8295   1.540   4.683   2.178
 2763TIP3    H2 8296   1.659   4.768   2.139
 2764TIP3   OH2 8297   2.355   4.430   2.710
 2764TIP3    H1 8298   2.343   4.426   2.805
 2764TIP3    H2 8299   2.425   4.368   2.691
 2765TIP3   OH2 8300   2.343   4.316   1.600
 2765TIP3    H1 8301   2.402   4.294   1.672
 2765TIP3    H2 8302   2.257   4.287   1.630
 2766TIP3   OH2 8303   2.607   4.942   2.756
 2766TIP3    H1 8304   2.533   4.882   2.763
 2766TIP3    H2 8305   2.585   5.001   2.684
 2767TIP3   OH2 8306   2.667   4.784   1.399
 2767TIP3    H1 8307   2.706   4.856   1.349
 2767TIP3    H2 8308   2.589   4.822   1.440
 2768TIP3   OH2 8309   1.709   3.563   3.281
 2768TIP3    H1 8310   1.615   3.557   3.295
 2768TIP3    H2 8311   1.747   3.510   3.351
 2769TIP3   OH2 8312   2.518   4.242   1.797
 2769TIP3    H1 8313   2.503   4.177   1.865
 2769TIP3    H2 8314   2.613   4.246   1.786
 2770TIP3   OH2 8315   1.425   4.659   2.902
 2770TIP3    H1 8316   1.479   4.597   2.951
 2770TIP3    H2 8317   1.442   4.743   2.944
 2771TIP3   OH2 8318   1.695   4.281   1.591
 2771TIP3    H1 8319   1.710   4.189   1.569
 2771TIP3    H2 8320   1.677   4.280   1.685
 2772TIP3   OH2 8321   1.640   4.297   1.863
 2772TIP3    H1 8322   1.711   4.267   1.921
 2772TIP3    H2 8323   1.640   4.392   1.873
 2773TIP3   OH2 8324   1.371   3.987   2.078
 2773TIP3    H1 8325   1.306   4.033   2.131
 2773TIP3    H2 8326   1.392   4.048   2.007
 2774TIP3   OH2 8327   2.524   3.620   2.969
 2774TIP3    H1 8328   2.609   3.636   3.010
 2774TIP3    H2 8329   2.488   3.545   3.016
 2775TIP3   OH2 8330   2.424   3.365   2.130
 2775TIP3    H1 8331   2.407   3.387   2.039
 2775TIP3    H2 8332   2.466   3.443   2.166
 2776TIP3   OH2 8333   1.909   4.487   1.809
 2776TIP3    H1 8334   1.824   4.510   1.848
 2776TIP3    H2 8335   1.933   4.564   1.757
 2777TIP3   OH2 8336   2.073   3.568   2.234
 2777TIP3    H1 8337   2.140   3.633   2.210
 2777TIP3    H2 8338   2.087   3.553   2.327
 2778TIP3   OH2 8339   2.369   3.856   3.014
 2778TIP3    H1 8340   2.399   3.899   3.094
 2778TIP3    H2 8341   2.420   3.775   3.010
 2779TIP3   OH2 8342   2.253   3.256   2.320
 2779TIP3    H1 8343   2.279   3.301   2.400
 2779TIP3    H2 8344   2.311   3.291   2.252
 2780TIP3   OH2 8345   1.656   4.569   1.885
 2780TIP3    H1 8346   1.634   4.639   1.823
 2780TIP3    H2 8347   1.643   4.608   1.971
 2781TIP3   OH2 8348   1.761   3.278   2.118
 2781TIP3    H1 8349   1.749   3.365   2.156
 2781TIP3    H2 8350   1.855   3.261   2.127
 2782TIP3   OH2 8351   2.993   3.754   2.986
 2782TIP3    H1 8352   2.900   3.768   3.005
 2782TIP3    H2 8353   2.996   3.670   2.940
 2783TIP3   OH2 8354   2.656   3.964   2.394
 2783TIP3    H1 8355   2.580   3.906   2.405
 2783TIP3    H2 8356   2.725   3.921   2.445
 2784TIP3   OH2 8357   1.389   4.172   1.865
 2784TIP3    H1 8358   1.457   4.239   1.875
 2784TIP3    H2 8359   1.426   4.109   1.804
 2785TIP3   OH2 8360   1.307   3.460   2.000
 2785TIP3    H1 8361   1.312   3.555   2.006
 2785TIP3    H2 8362   1.234   3.444   1.940
 2786TIP3   OH2 8363   2.634   4.933   2.335
 2786TIP3    H1 8364   2.590   4.981   2.264
 2786TIP3    H2 8365   2.727   4.951   2.321
 2787TIP3   OH2 8366   1.680   3.186   2.861
 2787TIP3    H1 8367   1.661   3.157   2.772
 2787TIP3    H2 8368   1.747   3.126   2.893
 2788TIP3   OH2 8369   1.224   4.422   2.257
 2788TIP3    H1 8370   1.176   4.459   2.332
 2788TIP3    H2 8371   1.187   4.467   2.181
 2789TIP3   OH2 8372   1.418   4.973   3.327
 2789TIP3    H1 8373   1.499   4.979   3.376
 2789TIP3    H2 8374   1.401   4.879   3.319
 2790TIP3   OH2 8375   1.883   4.893   3.369
 2790TIP3    H1 8376   1.977   4.874   3.378
 2790TIP3    H2 8377   1.854   4.834   3.299
 2791TIP3   OH2 8378   1.855   4.483   1.489
 2791TIP3    H1 8379   1.808   4.411   1.533
 2791TIP3    H2 8380   1.931   4.441   1.450
 2792TIP3   OH2 8381   2.513   4.825   3.114
 2792TIP3    H1 8382   2.520   4.754   3.179
 2792TIP3    H2 8383   2.588   4.881   3.132
 2793TIP3   OH2 8384   2.296   4.518   1.416
 2793TIP3    H1 8385   2.330   4.456   1.480
 2793TIP3    H2 8386   2.358   4.513   1.343
 2794TIP3   OH2 8387   1.529   4.370   3.525
 2794TIP3    H1 8388   1.550   4.277   3.539
 2794TIP3    H2 8389   1.442   4.369   3.484
 2795TIP3   OH2 8390   1.524   3.983   1.722
 2795TIP3    H1 8391   1.577   3.961   1.799
 2795TIP3    H2 8392   1.589   3.995   1.652
 2796TIP3   OH2 8393   2.147   4.452   3.298
 2796TIP3    H1 8394   2.105   4.473   3.215
 2796TIP3    H2 8395   2.187   4.366   3.284
 2797TIP3   OH2 8396   2.046   4.200   1.533
 2797TIP3    H1 8397   2.042   4.216   1.627
 2797TIP3    H2 8398   2.043   4.105   1.524
 2798TIP3   OH2 8399   2.629   4.487   2.915
 2798TIP3    H1 8400   2.706   4.516   2.866
 2798TIP3    H2 8401   2.562   4.552   2.894
 2799TIP3   OH2 8402   1.659   4.110   3.505
 2799TIP3    H1 8403   1.741   4.087   3.461
 2799TIP3    H2 8404   1.686   4.132   3.594
 2800TIP3   OH2 8405   1.700   3.920   1.931
 2800TIP3    H1 8406   1.680   3.894   2.020
 2800TIP3    H2 8407   1.744   3.844   1.893
 2801TIP3   OH2 8408   1.953   3.941   3.142
 2801TIP3    H1 8409   1.897   4.010   3.176
 2801TIP3    H2 8410   2.025   3.987   3.099
 2802TIP3   OH2 8411   1.829   3.726   1.775
 2802TIP3    H1 8412   1.804   3.733   1.682
 2802TIP3    H2 8413   1.924   3.731   1.774
 2803TIP3   OH2 8414   2.508   4.376   3.283
 2803TIP3    H1 8415   2.576   4.335   3.230
 2803TIP3    H2 8416   2.503   4.321   3.362
 2804TIP3   OH2 8417   2.627   4.030   1.455
 2804TIP3    H1 8418   2.614   3.986   1.371
 2804TIP3    H2 8419   2.599   4.120   1.439
 2805TIP3   OH2 8420   2.105   3.754   3.307
 2805TIP3    H1 8421   2.123   3.665   3.278
 2805TIP3    H2 8422   2.060   3.795   3.232
 2806TIP3   OH2 8423   2.130   4.105   3.013
 2806TIP3    H1 8424   2.208   4.085   2.962
 2806TIP3    H2 8425   2.077   4.160   2.956
 2807TIP3   OH2 8426   2.716   4.041   3.336
 2807TIP3    H1 8427   2.747   3.982   3.404
 2807TIP3    H2 8428   2.794   4.089   3.308
 2808TIP3   OH2 8429   2.754   4.314   3.084
 2808TIP3    H1 8430   2.699   4.375   3.034
 2808TIP3    H2 8431   2.842   4.330   3.052
 2809TIP3   OH2 8432   1.994   3.863   3.540
 2809TIP3    H1 8433   1.927   3.797   3.559
 2809TIP3    H2 8434   2.028   3.838   3.454
 2810TIP3   OH2 8435   2.355   3.834   3.400
 2810TIP3    H1 8436   2.340   3.815   3.492
 2810TIP3    H2 8437   2.279   3.799   3.354
 2811TIP3   OH2 8438   1.822   3.653   3.609
 2811TIP3    H1 8439   1.826   3.566   3.570
 2811TIP3    H2 8440   1.863   3.643   3.695
 2812TIP3   OH2 8441   1.645   4.771   1.696
 2812TIP3    H1 8442   1.737   4.755   1.673
 2812TIP3    H2 8443   1.610   4.821   1.623
 2813TIP3   OH2 8444   1.116   4.151   1.891
 2813TIP3    H1 8445   1.210   4.171   1.884
 2813TIP3    H2 8446   1.107   4.065   1.849
 2814TIP3   OH2 8447   1.031   4.749   2.334
 2814TIP3    H1 8448   0.965   4.696   2.289
 2814TIP3    H2 8449   1.073   4.689   2.395
 2815TIP3   OH2 8450   1.166   4.584   2.510
 2815TIP3    H1 8451   1.150   4.520   2.579
 2815TIP3    H2 8452   1.219   4.652   2.551
 2816TIP3   OH2 8453   2.894   5.012   2.316
 2816TIP3    H1 8454   2.927   5.033   2.404
 2816TIP3    H2 8455   2.964   5.041   2.257
 2817TIP3   OH2 8456   2.926   5.019   2.601
 2817TIP3    H1 8457   2.877   4.937   2.591
 2817TIP3    H2 8458   2.995   4.998   2.663
 2818TIP3   OH2 8459   2.966   4.716   3.172
 2818TIP3    H1 8460   2.896   4.723   3.237
 2818TIP3    H2 8461   3.012   4.799   3.176
 2819TIP3   OH2 8462   2.794   4.228   1.782
 2819TIP3    H1 8463   2.856   4.295   1.752
 2819TIP3    H2 8464   2.837   4.188   1.858
 2820TIP3   OH2 8465   2.916   4.085   1.984
 2820TIP3    H1 8466   2.851   4.046   2.042
 2820TIP3    H2 8467   2.984   4.119   2.043
 2821TIP3   OH2 8468   2.972   4.486   2.412
 2821TIP3    H1 8469   3.025   4.417   2.373
 2821TIP3    H2 8470   2.973   4.557   2.347
 2822TIP3   OH2 8471   2.783   4.778   2.609
 2822TIP3    H1 8472   2.714   4.822   2.659
 2822TIP3    H2 8473   2.737   4.736   2.537
 2823TIP3   OH2 8474   2.837   4.003   1.629
 2823TIP3    H1 8475   2.764   4.003   1.568
 2823TIP3    H2 8476   2.822   4.080   1.685
 2824TIP3   OH2 8477   2.700   3.658   1.569
 2824TIP3    H1 8478   2.654   3.692   1.493
 2824TIP3    H2 8479   2.690   3.563   1.563
 2825TIP3   OH2 8480   2.718   3.948   2.125
 2825TIP3    H1 8481   2.728   3.853   2.117
 2825TIP3    H2 8482   2.701   3.962   2.218
 2826TIP3   OH2 8483   1.337   3.984   2.891
 2826TIP3    H1 8484   1.338   3.964   2.797
 2826TIP3    H2 8485   1.429   3.994   2.914
 2827TIP3   OH2 8486   3.007   4.366   2.984
 2827TIP3    H1 8487   3.074   4.299   2.970
 2827TIP3    H2 8488   3.017   4.426   2.910
 2828TIP3   OH2 8489   3.194   4.167   2.978
 2828TIP3    H1 8490   3.128   4.107   3.012
 2828TIP3    H2 8491   3.274   4.142   3.023
 2829TIP3   OH2 8492   2.655   3.388   1.544
 2829TIP3    H1 8493   2.722   3.360   1.606
 2829TIP3    H2 8494   2.576   3.342   1.571
 2830TIP3   OH2 8495   2.716   3.668   2.004
 2830TIP3    H1 8496   2.761   3.584   2.018
 2830TIP3    H2 8497   2.765   3.709   1.932
 2831TIP3   OH2 8498   2.873   3.837   2.520
 2831TIP3    H1 8499   2.955   3.854   2.475
 2831TIP3    H2 8500   2.884   3.875   2.607
 2832TIP3   OH2 8501   2.938   3.999   2.742
 2832TIP3    H1 8502   2.864   4.029   2.795
 2832TIP3    H2 8503   2.972   4.078   2.700
 2833TIP3   OH2 8504   1.560   3.688   3.530
 2833TIP3    H1 8505   1.653   3.693   3.549
 2833TIP3    H2 8506   1.532   3.606   3.571
 2834TIP3   OH2 8507   2.828   3.419   2.057
 2834TIP3    H1 8508   2.875   3.404   2.139
 2834TIP3    H2 8509   2.766   3.346   2.051
 2835TIP3   OH2 8510   1.518   3.405   2.913
 2835TIP3    H1 8511   1.571   3.325   2.910
 2835TIP3    H2 8512   1.581   3.475   2.895
 2836TIP3   OH2 8513   2.884   3.339   1.696
 2836TIP3    H1 8514   2.927   3.275   1.640
 2836TIP3    H2 8515   2.945   3.413   1.699
 2837TIP3   OH2 8516   1.304   3.175   2.454
 2837TIP3    H1 8517   1.215   3.167   2.489
 2837TIP3    H2 8518   1.294   3.231   2.376
 2838TIP3   OH2 8519   2.465   4.891   1.960
 2838TIP3    H1 8520   2.523   4.881   1.884
 2838TIP3    H2 8521   2.508   4.957   2.015
 2839TIP3   OH2 8522   1.466   3.196   3.231
 2839TIP3    H1 8523   1.473   3.226   3.321
 2839TIP3    H2 8524   1.423   3.268   3.185
 2840TIP3   OH2 8525   1.561   4.687   3.343
 2840TIP3    H1 8526   1.467   4.670   3.335
 2840TIP3    H2 8527   1.579   4.682   3.437
 2841TIP3   OH2 8528   1.766   4.732   2.895
 2841TIP3    H1 8529   1.714   4.805   2.861
 2841TIP3    H2 8530   1.851   4.742   2.852
 2842TIP3   OH2 8531   2.178   4.965   3.029
 2842TIP3    H1 8532   2.215   4.958   3.117
 2842TIP3    H2 8533   2.240   5.019   2.980
 2843TIP3   OH2 8534   2.365   5.122   2.901
 2843TIP3    H1 8535   2.428   5.068   2.852
 2843TIP3    H2 8536   2.418   5.179   2.956
 2844TIP3   OH2 8537   1.427   4.976   2.937
 2844TIP3    H1 8538   1.336   4.994   2.912
 2844TIP3    H2 8539   1.448   5.044   3.001
 2845TIP3   OH2 8540   1.658   4.961   2.786
 2845TIP3    H1 8541   1.574   4.969   2.832
 2845TIP3    H2 8542   1.639   4.991   2.697
 2846TIP3   OH2 8543   2.080   4.979   2.578
 2846TIP3    H1 8544   2.010   4.993   2.515
 2846TIP3    H2 8545   2.092   5.065   2.619
 2847TIP3   OH2 8546   2.347   4.921   2.633
 2847TIP3    H1 8547   2.255   4.937   2.612
 2847TIP3    H2 8548   2.394   4.988   2.583
 2848TIP3   OH2 8549   2.551   5.104   2.535
 2848TIP3    H1 8550   2.544   5.190   2.493
 2848TIP3    H2 8551   2.580   5.045   2.465
 2849TIP3   OH2 8552   1.340   4.759   2.654
 2849TIP3    H1 8553   1.361   4.734   2.744
 2849TIP3    H2 8554   1.413   4.726   2.602
 2850TIP3   OH2 8555   1.544   4.640   2.521
 2850TIP3    H1 8556   1.555   4.557   2.567
 2850TIP3    H2 8557   1.630   4.681   2.523
 2851TIP3   OH2 8558   1.810   4.726   2.540
 2851TIP3    H1 8559   1.830   4.634   2.527
 2851TIP3    H2 8560   1.863   4.752   2.616
 2852TIP3   OH2 8561   2.339   3.360   2.563
 2852TIP3    H1 8562   2.308   3.307   2.636
 2852TIP3    H2 8563   2.430   3.334   2.551
 2853TIP3   OH2 8564   2.883   3.274   2.507
 2853TIP3    H1 8565   2.921   3.325   2.435
 2853TIP3    H2 8566   2.792   3.304   2.512
 2854TIP3   OH2 8567   2.990   3.369   2.274
 2854TIP3    H1 8568   3.060   3.309   2.248
 2854TIP3    H2 8569   3.028   3.456   2.261
 2855TIP3   OH2 8570   1.611   3.079   2.615
 2855TIP3    H1 8571   1.521   3.047   2.625
 2855TIP3    H2 8572   1.665   3.001   2.615
 2856TIP3   OH2 8573   1.410   2.977   2.274
 2856TIP3    H1 8574   1.448   3.029   2.202
 2856TIP3    H2 8575   1.386   3.042   2.340
 2857TIP3   OH2 8576   2.067   3.131   2.504
 2857TIP3    H1 8577   2.122   3.174   2.439
 2857TIP3    H2 8578   2.106   3.154   2.588
 2858TIP3   OH2 8579   2.600   3.283   2.491
 2858TIP3    H1 8580   2.614   3.243   2.405
 2858TIP3    H2 8581   2.590   3.209   2.551
 2859TIP3   OH2 8582   2.643   3.207   2.058
 2859TIP3    H1 8583   2.563   3.254   2.082
 2859TIP3    H2 8584   2.634   3.121   2.099
 2860TIP3   OH2 8585   1.115   4.550   2.040
 2860TIP3    H1 8586   1.030   4.518   2.012
 2860TIP3    H2 8587   1.117   4.642   2.012
 2861TIP3   OH2 8588   1.539   3.121   2.039
 2861TIP3    H1 8589   1.582   3.058   1.981
 2861TIP3    H2 8590   1.610   3.174   2.074
 2862TIP3   OH2 8591   2.038   3.312   2.144
 2862TIP3    H1 8592   2.098   3.263   2.200
 2862TIP3    H2 8593   2.048   3.403   2.171
 2863TIP3   OH2 8594   1.906   4.709   1.634
 2863TIP3    H1 8595   1.991   4.737   1.599
 2863TIP3    H2 8596   1.879   4.637   1.578
 2864TIP3   OH2 8597   2.618   4.850   1.730
 2864TIP3    H1 8598   2.609   4.755   1.723
 2864TIP3    H2 8599   2.573   4.884   1.653
 2865TIP3   OH2 8600   1.826   3.390   3.519
 2865TIP3    H1 8601   1.791   3.308   3.554
 2865TIP3    H2 8602   1.919   3.389   3.540
 2866TIP3   OH2 8603   2.084   3.383   3.630
 2866TIP3    H1 8604   2.158   3.398   3.571
 2866TIP3    H2 8605   2.105   3.300   3.673
 2867TIP3   OH2 8606   1.201   4.552   1.694
 2867TIP3    H1 8607   1.202   4.571   1.788
 2867TIP3    H2 8608   1.286   4.512   1.677
 2868TIP3   OH2 8609   2.830   4.987   2.922
 2868TIP3    H1 8610   2.756   4.956   2.870
 2868TIP3    H2 8611   2.816   5.081   2.930
 2869TIP3   OH2 8612   4.102   4.368   1.664
 2869TIP3    H1 8613   4.075   4.457   1.643
 2869TIP3    H2 8614   4.027   4.314   1.641
 2870TIP3   OH2 8615   4.094   4.374   2.061
 2870TIP3    H1 8616   4.122   4.354   2.150
 2870TIP3    H2 8617   4.055   4.293   2.029
 2871TIP3   OH2 8618   3.405   4.243   2.433
 2871TIP3    H1 8619   3.437   4.184   2.502
 2871TIP3    H2 8620   3.483   4.262   2.381
 2872TIP3   OH2 8621   4.366   4.680   1.755
 2872TIP3    H1 8622   4.355   4.610   1.819
 2872TIP3    H2 8623   4.391   4.756   1.806
 2873TIP3   OH2 8624   3.382   4.673   2.150
 2873TIP3    H1 8625   3.369   4.578   2.152
 2873TIP3    H2 8626   3.476   4.684   2.134
 2874TIP3   OH2 8627   3.082   3.860   1.913
 2874TIP3    H1 8628   3.045   3.945   1.937
 2874TIP3    H2 8629   3.009   3.812   1.873
 2875TIP3   OH2 8630   3.149   4.157   2.118
 2875TIP3    H1 8631   3.200   4.082   2.150
 2875TIP3    H2 8632   3.211   4.208   2.066
 2876TIP3   OH2 8633   4.019   5.120   1.774
 2876TIP3    H1 8634   4.050   5.051   1.716
 2876TIP3    H2 8635   4.004   5.076   1.858
 2877TIP3   OH2 8636   3.909   4.591   2.099
 2877TIP3    H1 8637   3.949   4.513   2.061
 2877TIP3    H2 8638   3.983   4.644   2.128
 2878TIP3   OH2 8639   4.938   3.909   2.112
 2878TIP3    H1 8640   4.958   3.990   2.159
 2878TIP3    H2 8641   4.953   3.930   2.020
 2879TIP3   OH2 8642   4.310   4.092   2.132
 2879TIP3    H1 8643   4.358   4.015   2.162
 2879TIP3    H2 8644   4.279   4.069   2.044
 2880TIP3   OH2 8645   3.673   3.741   2.090
 2880TIP3    H1 8646   3.653   3.815   2.033
 2880TIP3    H2 8647   3.617   3.670   2.058
 2881TIP3   OH2 8648   4.367   3.839   1.724
 2881TIP3    H1 8649   4.433   3.832   1.793
 2881TIP3    H2 8650   4.415   3.876   1.649
 2882TIP3   OH2 8651   3.298   3.947   2.218
 2882TIP3    H1 8652   3.381   3.932   2.262
 2882TIP3    H2 8653   3.305   3.898   2.136
 2883TIP3   OH2 8654   3.723   4.150   2.033
 2883TIP3    H1 8655   3.817   4.131   2.038
 2883TIP3    H2 8656   3.685   4.073   1.991
 2884TIP3   OH2 8657   5.007   4.125   2.279
 2884TIP3    H1 8658   4.921   4.163   2.264
 2884TIP3    H2 8659   5.036   4.163   2.362
 2885TIP3   OH2 8660   3.657   3.745   2.547
 2885TIP3    H1 8661   3.612   3.777   2.469
 2885TIP3    H2 8662   3.595   3.759   2.618
 2886TIP3   OH2 8663   3.987   4.586   1.543
 2886TIP3    H1 8664   3.949   4.564   1.458
 2886TIP3    H2 8665   3.939   4.664   1.570
 2887TIP3   OH2 8666   3.757   4.511   2.317
 2887TIP3    H1 8667   3.702   4.582   2.350
 2887TIP3    H2 8668   3.805   4.550   2.243
 2888TIP3   OH2 8669   4.539   3.859   1.935
 2888TIP3    H1 8670   4.494   3.838   2.018
 2888TIP3    H2 8671   4.594   3.934   1.956
 2889TIP3   OH2 8672   3.543   3.844   2.313
 2889TIP3    H1 8673   3.598   3.920   2.335
 2889TIP3    H2 8674   3.588   3.802   2.240
 2890TIP3   OH2 8675   3.596   4.715   2.421
 2890TIP3    H1 8676   3.577   4.801   2.384
 2890TIP3    H2 8677   3.518   4.693   2.472
 2891TIP3   OH2 8678   2.972   4.409   1.663
 2891TIP3    H1 8679   2.936   4.430   1.577
 2891TIP3    H2 8680   3.000   4.493   1.699
 2892TIP3   OH2 8681   4.413   4.924   1.902
 2892TIP3    H1 8682   4.327   4.914   1.943
 2892TIP3    H2 8683   4.410   5.010   1.860
 2893TIP3   OH2 8684   4.730   3.794   2.268
 2893TIP3    H1 8685   4.645   3.817   2.230
 2893TIP3    H2 8686   4.794   3.826   2.205
 2894TIP3   OH2 8687   3.997   3.436   2.264
 2894TIP3    H1 8688   3.984   3.343   2.282
 2894TIP3    H2 8689   3.923   3.479   2.307
 2895TIP3   OH2 8690   4.114   4.957   1.566
 2895TIP3    H1 8691   4.161   4.874   1.558
 2895TIP3    H2 8692   4.176   5.023   1.536
 2896TIP3   OH2 8693   4.272   4.745   1.502
 2896TIP3    H1 8694   4.246   4.664   1.457
 2896TIP3    H2 8695   4.309   4.715   1.585
 2897TIP3   OH2 8696   4.650   4.802   2.261
 2897TIP3    H1 8697   4.633   4.730   2.200
 2897TIP3    H2 8698   4.641   4.881   2.207
 2898TIP3   OH2 8699   3.910   4.218   1.524
 2898TIP3    H1 8700   3.821   4.248   1.507
 2898TIP3    H2 8701   3.954   4.221   1.439
 2899TIP3   OH2 8702   3.900   4.001   1.218
 2899TIP3    H1 8703   3.959   4.054   1.272
 2899TIP3    H2 8704   3.958   3.946   1.165
 2900TIP3   OH2 8705   4.832   4.465   2.105
 2900TIP3    H1 8706   4.748   4.510   2.107
 2900TIP3    H2 8707   4.867   4.485   2.018
 2901TIP3   OH2 8708   4.286   4.300   1.476
 2901TIP3    H1 8709   4.232   4.327   1.550
 2901TIP3    H2 8710   4.370   4.275   1.515
 2902TIP3   OH2 8711   3.491   4.284   1.924
 2902TIP3    H1 8712   3.452   4.233   1.853
 2902TIP3    H2 8713   3.578   4.245   1.935
 2903TIP3   OH2 8714   3.645   4.712   2.046
 2903TIP3    H1 8715   3.613   4.696   1.957
 2903TIP3    H2 8716   3.731   4.669   2.048
 2904TIP3   OH2 8717   3.624   4.277   2.261
 2904TIP3    H1 8718   3.656   4.244   2.177
 2904TIP3    H2 8719   3.675   4.357   2.276
 2905TIP3   OH2 8720   4.179   4.912   2.040
 2905TIP3    H1 8721   4.168   4.986   2.100
 2905TIP3    H2 8722   4.164   4.835   2.094
 2906TIP3   OH2 8723   3.793   4.828   2.580
 2906TIP3    H1 8724   3.730   4.884   2.625
 2906TIP3    H2 8725   3.739   4.771   2.524
 2907TIP3   OH2 8726   4.112   4.156   1.322
 2907TIP3    H1 8727   4.171   4.213   1.371
 2907TIP3    H2 8728   4.134   4.171   1.230
 2908TIP3   OH2 8729   3.550   4.367   2.720
 2908TIP3    H1 8730   3.553   4.462   2.737
 2908TIP3    H2 8731   3.458   4.347   2.709
 2909TIP3   OH2 8732   3.865   4.834   1.585
 2909TIP3    H1 8733   3.946   4.884   1.586
 2909TIP3    H2 8734   3.809   4.878   1.521
 2910TIP3   OH2 8735   3.577   4.982   2.663
 2910TIP3    H1 8736   3.553   4.985   2.570
 2910TIP3    H2 8737   3.495   4.963   2.708
 2911TIP3   OH2 8738   4.638   3.393   1.367
 2911TIP3    H1 8739   4.559   3.414   1.418
 2911TIP3    H2 8740   4.650   3.470   1.311
 2912TIP3   OH2 8741   3.359   4.134   1.733
 2912TIP3    H1 8742   3.302   4.177   1.670
 2912TIP3    H2 8743   3.370   4.045   1.699
 2913TIP3   OH2 8744   4.446   4.758   0.928
 2913TIP3    H1 8745   4.458   4.836   0.874
 2913TIP3    H2 8746   4.522   4.704   0.908
 2914TIP3   OH2 8747   3.168   4.530   2.611
 2914TIP3    H1 8748   3.101   4.512   2.546
 2914TIP3    H2 8749   3.206   4.444   2.631
 2915TIP3   OH2 8750   3.041   4.706   2.244
 2915TIP3    H1 8751   3.132   4.694   2.218
 2915TIP3    H2 8752   3.043   4.780   2.304
 2916TIP3   OH2 8753   4.875   5.199   2.305
 2916TIP3    H1 8754   4.885   5.104   2.308
 2916TIP3    H2 8755   4.795   5.216   2.355
 2917TIP3   OH2 8756   3.983   4.961   2.435
 2917TIP3    H1 8757   3.976   5.052   2.465
 2917TIP3    H2 8758   3.917   4.914   2.486
 2918TIP3   OH2 8759   3.759   5.080   1.386
 2918TIP3    H1 8760   3.702   5.056   1.312
 2918TIP3    H2 8761   3.720   5.161   1.419
 2919TIP3   OH2 8762   3.194   4.913   1.775
 2919TIP3    H1 8763   3.242   4.906   1.858
 2919TIP3    H2 8764   3.154   4.827   1.764
 2920TIP3   OH2 8765   3.966   4.970   1.053
 2920TIP3    H1 8766   4.014   4.893   1.022
 2920TIP3    H2 8767   3.995   4.983   1.143
 2921TIP3   OH2 8768   4.013   5.027   1.311
 2921TIP3    H1 8769   3.924   5.039   1.344
 2921TIP3    H2 8770   4.060   4.987   1.384
 2922TIP3   OH2 8771   3.375   4.710   2.587
 2922TIP3    H1 8772   3.425   4.695   2.667
 2922TIP3    H2 8773   3.302   4.649   2.592
 2923TIP3   OH2 8774   3.765   3.528   2.400
 2923TIP3    H1 8775   3.681   3.494   2.367
 2923TIP3    H2 8776   3.741   3.609   2.445
 2924TIP3   OH2 8777   4.323   3.660   2.571
 2924TIP3    H1 8778   4.391   3.630   2.631
 2924TIP3    H2 8779   4.241   3.646   2.619
 2925TIP3   OH2 8780   4.541   4.089   2.526
 2925TIP3    H1 8781   4.495   4.068   2.608
 2925TIP3    H2 8782   4.575   4.177   2.540
 2926TIP3   OH2 8783   4.179   4.184   1.065
 2926TIP3    H1 8784   4.152   4.163   0.976
 2926TIP3    H2 8785   4.259   4.235   1.055
 2927TIP3   OH2 8786   3.893   3.576   1.349
 2927TIP3    H1 8787   3.870   3.583   1.442
 2927TIP3    H2 8788   3.862   3.490   1.323
 2928TIP3   OH2 8789   3.701   4.052   2.401
 2928TIP3    H1 8790   3.653   4.063   2.484
 2928TIP3    H2 8791   3.683   4.133   2.352
 2929TIP3   OH2 8792   3.586   3.935   1.919
 2929TIP3    H1 8793   3.495   3.919   1.943
 2929TIP3    H2 8794   3.594   3.900   1.830
 2930TIP3   OH2 8795   4.061   4.017   1.649
 2930TIP3    H1 8796   4.009   4.087   1.610
 2930TIP3    H2 8797   4.117   3.986   1.578
 2931TIP3   OH2 8798   4.246   4.276   2.733
 2931TIP3    H1 8799   4.219   4.208   2.794
 2931TIP3    H2 8800   4.339   4.290   2.751
 2932TIP3   OH2 8801   4.224   4.027   1.879
 2932TIP3    H1 8802   4.159   4.053   1.813
 2932TIP3    H2 8803   4.270   3.954   1.839
 2933TIP3   OH2 8804   3.526   4.068   2.616
 2933TIP3    H1 8805   3.561   4.124   2.685
 2933TIP3    H2 8806   3.501   3.987   2.660
 2934TIP3   OH2 8807   3.555   3.550   1.326
 2934TIP3    H1 8808   3.557   3.541   1.421
 2934TIP3    H2 8809   3.500   3.626   1.309
 2935TIP3   OH2 8810   3.123   3.591   2.199
 2935TIP3    H1 8811   3.191   3.627   2.255
 2935TIP3    H2 8812   3.167   3.571   2.117
 2936TIP3   OH2 8813   3.046   3.568   1.709
 2936TIP3    H1 8814   3.093   3.603   1.633
 2936TIP3    H2 8815   2.986   3.638   1.735
 2937TIP3   OH2 8816   4.174   4.266   2.300
 2937TIP3    H1 8817   4.233   4.216   2.243
 2937TIP3    H2 8818   4.174   4.218   2.383
 2938TIP3   OH2 8819   3.936   3.726   1.975
 2938TIP3    H1 8820   3.857   3.731   2.028
 2938TIP3    H2 8821   4.008   3.731   2.038
 2939TIP3   OH2 8822   3.345   3.813   1.984
 2939TIP3    H1 8823   3.257   3.817   1.948
 2939TIP3    H2 8824   3.374   3.723   1.966
 2940TIP3   OH2 8825   3.597   3.807   1.673
 2940TIP3    H1 8826   3.690   3.823   1.662
 2940TIP3    H2 8827   3.559   3.824   1.587
 2941TIP3   OH2 8828   4.400   3.823   2.174
 2941TIP3    H1 8829   4.383   3.846   2.265
 2941TIP3    H2 8830   4.327   3.766   2.149
 2942TIP3   OH2 8831   3.473   3.820   1.425
 2942TIP3    H1 8832   3.392   3.798   1.380
 2942TIP3    H2 8833   3.525   3.868   1.361
 2943TIP3   OH2 8834   4.585   5.521   2.406
 2943TIP3    H1 8835   4.584   5.532   2.311
 2943TIP3    H2 8836   4.666   5.564   2.434
 2944TIP3   OH2 8837   3.529   4.631   2.819
 2944TIP3    H1 8838   3.610   4.651   2.866
 2944TIP3    H2 8839   3.461   4.633   2.887
 2945TIP3   OH2 8840   3.993   4.082   2.074
 2945TIP3    H1 8841   4.068   4.049   2.025
 2945TIP3    H2 8842   4.004   4.048   2.162
 2946TIP3   OH2 8843   3.489   3.564   1.972
 2946TIP3    H1 8844   3.459   3.489   2.023
 2946TIP3    H2 8845   3.523   3.526   1.891
 2947TIP3   OH2 8846   3.968   3.977   2.370
 2947TIP3    H1 8847   3.880   4.014   2.380
 2947TIP3    H2 8848   4.025   4.036   2.419
 2948TIP3   OH2 8849   4.595   4.606   2.073
 2948TIP3    H1 8850   4.626   4.656   1.997
 2948TIP3    H2 8851   4.513   4.566   2.043
 2949TIP3   OH2 8852   4.155   3.666   1.358
 2949TIP3    H1 8853   4.061   3.653   1.352
 2949TIP3    H2 8854   4.166   3.761   1.371
 2950TIP3   OH2 8855   4.086   4.689   2.468
 2950TIP3    H1 8856   4.165   4.678   2.521
 2950TIP3    H2 8857   4.064   4.782   2.476
 2951TIP3   OH2 8858   4.225   3.927   1.432
 2951TIP3    H1 8859   4.320   3.935   1.442
 2951TIP3    H2 8860   4.199   4.004   1.382
 2952TIP3   OH2 8861   3.387   4.397   2.145
 2952TIP3    H1 8862   3.415   4.368   2.058
 2952TIP3    H2 8863   3.450   4.357   2.205
 2953TIP3   OH2 8864   3.867   4.532   1.285
 2953TIP3    H1 8865   3.822   4.616   1.293
 2953TIP3    H2 8866   3.804   4.468   1.319
 2954TIP3   OH2 8867   3.277   4.305   2.744
 2954TIP3    H1 8868   3.281   4.280   2.836
 2954TIP3    H2 8869   3.205   4.254   2.709
 2955TIP3   OH2 8870   4.016   4.434   2.764
 2955TIP3    H1 8871   3.952   4.386   2.711
 2955TIP3    H2 8872   4.101   4.398   2.738
 2956TIP3   OH2 8873   4.252   4.986   2.353
 2956TIP3    H1 8874   4.159   4.968   2.361
 2956TIP3    H2 8875   4.277   5.020   2.439
 2957TIP3   OH2 8876   4.654   4.017   1.277
 2957TIP3    H1 8877   4.572   3.986   1.239
 2957TIP3    H2 8878   4.694   4.069   1.208
 2958TIP3   OH2 8879   4.902   4.929   2.323
 2958TIP3    H1 8880   4.821   4.886   2.351
 2958TIP3    H2 8881   4.928   4.881   2.245
 2959TIP3   OH2 8882   4.361   4.477   1.967
 2959TIP3    H1 8883   4.271   4.457   1.992
 2959TIP3    H2 8884   4.396   4.394   1.934
 2960TIP3   OH2 8885   3.508   4.721   1.805
 2960TIP3    H1 8886   3.499   4.785   1.734
 2960TIP3    H2 8887   3.471   4.641   1.770
 2961TIP3   OH2 8888   3.067   3.996   1.479
 2961TIP3    H1 8889   3.114   4.077   1.500
 2961TIP3    H2 8890   2.990   3.998   1.536
 2962TIP3   OH2 8891   3.788   5.031   2.233
 2962TIP3    H1 8892   3.827   5.102   2.181
 2962TIP3    H2 8893   3.862   4.992   2.279
 2963TIP3   OH2 8894   3.415   4.942   1.611
 2963TIP3    H1 8895   3.333   4.941   1.660
 2963TIP3    H2 8896   3.446   5.033   1.619
 2964TIP3   OH2 8897   4.151   4.687   2.201
 2964TIP3    H1 8898   4.125   4.679   2.293
 2964TIP3    H2 8899   4.238   4.646   2.197
 2965TIP3   OH2 8900   4.127   4.565   1.093
 2965TIP3    H1 8901   4.192   4.547   1.160
 2965TIP3    H2 8902   4.044   4.538   1.132
 2966TIP3   OH2 8903   4.407   5.198   2.246
 2966TIP3    H1 8904   4.337   5.133   2.261
 2966TIP3    H2 8905   4.375   5.251   2.173
 2967TIP3   OH2 8906   4.492   5.040   1.049
 2967TIP3    H1 8907   4.540   5.077   0.975
 2967TIP3    H2 8908   4.411   5.091   1.053
 2968TIP3   OH2 8909   3.442   3.810   2.728
 2968TIP3    H1 8910   3.357   3.849   2.747
 2968TIP3    H2 8911   3.431   3.717   2.749
 2969TIP3   OH2 8912   4.297   4.511   1.297
 2969TIP3    H1 8913   4.281   4.437   1.355
 2969TIP3    H2 8914   4.393   4.513   1.288
 2970TIP3   OH2 8915   3.210   4.904   2.393
 2970TIP3    H1 8916   3.266   4.834   2.427
 2970TIP3    H2 8917   3.237   4.982   2.440
 2971TIP3   OH2 8918   3.484   4.540   1.084
 2971TIP3    H1 8919   3.510   4.451   1.061
 2971TIP3    H2 8920   3.463   4.535   1.177
 2972TIP3   OH2 8921   3.422   4.548   1.352
 2972TIP3    H1 8922   3.496   4.493   1.377
 2972TIP3    H2 8923   3.450   4.637   1.374
 2973TIP3   OH2 8924   3.169   4.243   1.554
 2973TIP3    H1 8925   3.107   4.288   1.611
 2973TIP3    H2 8926   3.188   4.306   1.485
 2974TIP3   OH2 8927   4.355   3.901   2.431
 2974TIP3    H1 8928   4.427   3.954   2.465
 2974TIP3    H2 8929   4.350   3.826   2.491
 2975TIP3   OH2 8930   4.221   3.621   1.628
 2975TIP3    H1 8931   4.199   3.640   1.537
 2975TIP3    H2 8932   4.263   3.701   1.660
 2976TIP3   OH2 8933   3.728   4.767   1.309
 2976TIP3    H1 8934   3.639   4.772   1.345
 2976TIP3    H2 8935   3.731   4.833   1.240
 2977TIP3   OH2 8936   3.878   3.820   1.717
 2977TIP3    H1 8937   3.939   3.891   1.694
 2977TIP3    H2 8938   3.897   3.803   1.810
 2978TIP3   OH2 8939   4.165   4.106   2.522
 2978TIP3    H1 8940   4.198   4.164   2.591
 2978TIP3    H2 8941   4.233   4.040   2.511
 2979TIP3   OH2 8942   4.036   3.521   1.810
 2979TIP3    H1 8943   4.011   3.597   1.863
 2979TIP3    H2 8944   4.104   3.553   1.751
 2980TIP3   OH2 8945   3.466   4.824   1.370
 2980TIP3    H1 8946   3.438   4.891   1.308
 2980TIP3    H2 8947   3.447   4.862   1.456
 2981TIP3   OH2 8948   3.557   3.534   1.605
 2981TIP3    H1 8949   3.544   3.624   1.636
 2981TIP3    H2 8950   3.651   3.520   1.611
 2982TIP3   OH2 8951   4.795   3.980   2.495
 2982TIP3    H1 8952   4.721   4.033   2.524
 2982TIP3    H2 8953   4.770   3.950   2.407
 2983TIP3   OH2 8954   4.453   4.217   1.880
 2983TIP3    H1 8955   4.375   4.164   1.895
 2983TIP3    H2 8956   4.520   4.178   1.936
 2984TIP3   OH2 8957   3.176   4.432   1.343
 2984TIP3    H1 8958   3.248   4.493   1.358
 2984TIP3    H2 8959   3.211   4.370   1.278
 2985TIP3   OH2 8960   3.101   3.720   1.486
 2985TIP3    H1 8961   3.110   3.815   1.492
 2985TIP3    H2 8962   3.024   3.707   1.430
 2986TIP3   OH2 8963   4.429   5.195   1.823
 2986TIP3    H1 8964   4.386   5.241   1.751
 2986TIP3    H2 8965   4.523   5.210   1.808
 2987TIP3   OH2 8966   3.502   3.444   2.353
 2987TIP3    H1 8967   3.472   3.410   2.269
 2987TIP3    H2 8968   3.491   3.370   2.414
 2988TIP3   OH2 8969   3.025   4.679   1.741
 2988TIP3    H1 8970   2.978   4.715   1.816
 2988TIP3    H2 8971   2.988   4.725   1.665
 2989TIP3   OH2 8972   3.213   5.227   2.815
 2989TIP3    H1 8973   3.298   5.227   2.861
 2989TIP3    H2 8974   3.193   5.134   2.803
 2990TIP3   OH2 8975   3.684   5.149   2.852
 2990TIP3    H1 8976   3.775   5.121   2.861
 2990TIP3    H2 8977   3.649   5.094   2.782
 2991TIP3   OH2 8978   3.666   4.731   1.017
 2991TIP3    H1 8979   3.607   4.665   1.053
 2991TIP3    H2 8980   3.736   4.681   0.977
 2992TIP3   OH2 8981   4.306   5.084   2.604
 2992TIP3    H1 8982   4.312   5.013   2.667
 2992TIP3    H2 8983   4.383   5.138   2.620
 2993TIP3   OH2 8984   4.087   4.769   0.919
 2993TIP3    H1 8985   4.117   4.701   0.980
 2993TIP3    H2 8986   4.144   4.759   0.842
 2994TIP3   OH2 8987   3.324   4.624   3.009
 2994TIP3    H1 8988   3.342   4.530   3.019
 2994TIP3    H2 8989   3.239   4.627   2.965
 2995TIP3   OH2 8990   3.321   4.247   1.201
 2995TIP3    H1 8991   3.375   4.241   1.280
 2995TIP3    H2 8992   3.384   4.262   1.130
 2996TIP3   OH2 8993   3.938   4.711   2.784
 2996TIP3    H1 8994   3.901   4.734   2.699
 2996TIP3    H2 8995   3.982   4.627   2.770
 2997TIP3   OH2 8996   3.813   4.432   1.032
 2997TIP3    H1 8997   3.819   4.451   1.126
 2997TIP3    H2 8998   3.812   4.337   1.027
 2998TIP3   OH2 8999   4.394   4.741   2.376
 2998TIP3    H1 9000   4.487   4.753   2.357
 2998TIP3    H2 9001   4.354   4.825   2.356
 2999TIP3   OH2 9002   3.440   4.366   3.007
 2999TIP3    H1 9003   3.514   4.352   2.948
 2999TIP3    H2 9004   3.480   4.384   3.092
 3000TIP3   OH2 9005   3.787   4.234   2.658
 3000TIP3    H1 9006   3.712   4.292   2.670
 3000TIP3    H2 9007   3.831   4.269   2.580
 3001TIP3   OH2 9008   3.625   3.959   1.239
 3001TIP3    H1 9009   3.608   4.052   1.254
 3001TIP3    H2 9010   3.720   3.950   1.244
 3002TIP3   OH2 9011   4.300   4.638   2.783
 3002TIP3    H1 9012   4.375   4.610   2.731
 3002TIP3    H2 9013   4.296   4.575   2.855
 3003TIP3   OH2 9014   4.403   4.318   0.991
 3003TIP3    H1 9015   4.463   4.261   0.943
 3003TIP3    H2 9016   4.377   4.385   0.927
 3004TIP3   OH2 9017   3.903   4.020   2.780
 3004TIP3    H1 9018   3.909   3.947   2.718
 3004TIP3    H2 9019   3.867   4.092   2.729
 3005TIP3   OH2 9020   3.927   3.805   2.595
 3005TIP3    H1 9021   3.953   3.847   2.513
 3005TIP3    H2 9022   3.835   3.780   2.581
 3006TIP3   OH2 9023   3.931   4.348   2.458
 3006TIP3    H1 9024   4.014   4.343   2.409
 3006TIP3    H2 9025   3.880   4.413   2.411
 3007TIP3   OH2 9026   4.506   4.283   2.842
 3007TIP3    H1 9027   4.557   4.211   2.879
 3007TIP3    H2 9028   4.559   4.316   2.770
 3008TIP3   OH2 9029   3.814   4.109   3.035
 3008TIP3    H1 9030   3.726   4.076   3.055
 3008TIP3    H2 9031   3.829   4.083   2.944
 3009TIP3   OH2 9032   4.089   3.604   2.711
 3009TIP3    H1 9033   4.037   3.678   2.680
 3009TIP3    H2 9034   4.029   3.529   2.704
 3010TIP3   OH2 9035   4.164   4.053   2.871
 3010TIP3    H1 9036   4.137   4.043   2.962
 3010TIP3    H2 9037   4.083   4.041   2.821
 3011TIP3   OH2 9038   4.405   3.992   2.743
 3011TIP3    H1 9039   4.329   4.011   2.797
 3011TIP3    H2 9040   4.478   3.988   2.804
 3012TIP3   OH2 9041   4.640   3.973   2.899
 3012TIP3    H1 9042   4.654   3.878   2.907
 3012TIP3    H2 9043   4.637   4.004   2.990
 3013TIP3   OH2 9044   3.441   5.035   1.191
 3013TIP3    H1 9045   3.530   5.018   1.161
 3013TIP3    H2 9046   3.402   5.087   1.121
 3014TIP3   OH2 9047   2.908   4.413   1.374
 3014TIP3    H1 9048   3.001   4.431   1.368
 3014TIP3    H2 9049   2.898   4.326   1.336
 3015TIP3   OH2 9050   2.822   5.006   1.824
 3015TIP3    H1 9051   2.758   4.951   1.779
 3015TIP3    H2 9052   2.866   4.947   1.885
 3016TIP3   OH2 9053   2.958   4.844   2.001
 3016TIP3    H1 9054   2.948   4.776   2.068
 3016TIP3    H2 9055   3.010   4.912   2.044
 3017TIP3   OH2 9056   4.693   5.265   1.802
 3017TIP3    H1 9057   4.720   5.281   1.892
 3017TIP3    H2 9058   4.763   5.303   1.749
 3018TIP3   OH2 9059   4.720   5.272   2.083
 3018TIP3    H1 9060   4.673   5.188   2.079
 3018TIP3    H2 9061   4.791   5.257   2.146
 3019TIP3   OH2 9062   4.763   4.981   2.661
 3019TIP3    H1 9063   4.693   4.988   2.726
 3019TIP3    H2 9064   4.809   5.065   2.666
 3020TIP3   OH2 9065   4.568   4.511   1.294
 3020TIP3    H1 9066   4.644   4.552   1.252
 3020TIP3    H2 9067   4.606   4.445   1.353
 3021TIP3   OH2 9068   4.704   4.344   1.469
 3021TIP3    H1 9069   4.638   4.302   1.524
 3021TIP3    H2 9070   4.769   4.377   1.532
 3022TIP3   OH2 9071   4.764   4.743   1.897
 3022TIP3    H1 9072   4.819   4.672   1.864
 3022TIP3    H2 9073   4.763   4.808   1.826
 3023TIP3   OH2 9074   4.582   5.029   2.101
 3023TIP3    H1 9075   4.513   5.072   2.152
 3023TIP3    H2 9076   4.536   4.985   2.029
 3024TIP3   OH2 9077   4.476   3.924   1.095
 3024TIP3    H1 9078   4.552   3.959   1.048
 3024TIP3    H2 9079   4.462   3.837   1.057
 3025TIP3   OH2 9080   4.511   4.205   1.610
 3025TIP3    H1 9081   4.518   4.110   1.599
 3025TIP3    H2 9082   4.495   4.217   1.704
 3026TIP3   OH2 9083   3.142   4.273   2.368
 3026TIP3    H1 9084   3.133   4.238   2.279
 3026TIP3    H2 9085   3.236   4.274   2.384
 3027TIP3   OH2 9086   4.858   4.655   2.460
 3027TIP3    H1 9087   4.880   4.562   2.457
 3027TIP3    H2 9088   4.780   4.664   2.406
 3028TIP3   OH2 9089   4.954   4.394   2.449
 3028TIP3    H1 9090   4.878   4.370   2.502
 3028TIP3    H2 9091   5.026   4.343   2.486
 3029TIP3   OH2 9092   4.452   3.651   1.029
 3029TIP3    H1 9093   4.515   3.629   1.097
 3029TIP3    H2 9094   4.371   3.606   1.056
 3030TIP3   OH2 9095   4.517   3.929   1.504
 3030TIP3    H1 9096   4.560   3.843   1.514
 3030TIP3    H2 9097   4.568   3.973   1.436
 3031TIP3   OH2 9098   4.666   4.093   2.022
 3031TIP3    H1 9099   4.747   4.110   1.975
 3031TIP3    H2 9100   4.678   4.134   2.108
 3032TIP3   OH2 9101   4.755   4.239   2.248
 3032TIP3    H1 9102   4.719   4.267   2.332
 3032TIP3    H2 9103   4.781   4.320   2.204
 3033TIP3   OH2 9104   5.198   3.840   2.789
 3033TIP3    H1 9105   5.259   3.782   2.743
 3033TIP3    H2 9106   5.158   3.893   2.719
 3034TIP3   OH2 9107   4.629   3.676   1.542
 3034TIP3    H1 9108   4.674   3.660   1.625
 3034TIP3    H2 9109   4.565   3.606   1.536
 3035TIP3   OH2 9110   3.327   3.661   2.374
 3035TIP3    H1 9111   3.383   3.583   2.379
 3035TIP3    H2 9112   3.388   3.733   2.360
 3036TIP3   OH2 9113   3.118   3.929   2.434
 3036TIP3    H1 9114   3.169   3.918   2.353
 3036TIP3    H2 9115   3.147   4.014   2.469
 3037TIP3   OH2 9116   5.056   3.965   2.596
 3037TIP3    H1 9117   4.974   4.008   2.620
 3037TIP3    H2 9118   5.029   3.897   2.534
 3038TIP3   OH2 9119   4.682   3.595   1.181
 3038TIP3    H1 9120   4.731   3.530   1.131
 3038TIP3    H2 9121   4.738   3.673   1.181
 3039TIP3   OH2 9122   3.103   3.424   1.934
 3039TIP3    H1 9123   3.017   3.418   1.976
 3039TIP3    H2 9124   3.090   3.483   1.860
 3040TIP3   OH2 9125   4.277   5.144   1.455
 3040TIP3    H1 9126   4.342   5.158   1.386
 3040TIP3    H2 9127   4.298   5.210   1.521
 3041TIP3   OH2 9128   3.331   3.547   2.780
 3041TIP3    H1 9129   3.304   3.478   2.840
 3041TIP3    H2 9130   3.254   3.561   2.724
 3042TIP3   OH2 9131   3.355   4.950   2.829
 3042TIP3    H1 9132   3.262   4.930   2.818
 3042TIP3    H2 9133   3.375   4.925   2.919
 3043TIP3   OH2 9134   3.559   4.991   2.382
 3043TIP3    H1 9135   3.509   5.065   2.348
 3043TIP3    H2 9136   3.644   4.997   2.338
 3044TIP3   OH2 9137   3.973   5.227   2.521
 3044TIP3    H1 9138   4.013   5.217   2.607
 3044TIP3    H2 9139   4.037   5.277   2.470
 3045TIP3   OH2 9140   4.160   5.378   2.386
 3045TIP3    H1 9141   4.218   5.321   2.336
 3045TIP3    H2 9142   4.218   5.431   2.440
 3046TIP3   OH2 9143   4.968   3.723   2.477
 3046TIP3    H1 9144   4.882   3.734   2.437
 3046TIP3    H2 9145   4.988   3.630   2.464
 3047TIP3   OH2 9146   3.224   5.239   2.420
 3047TIP3    H1 9147   3.134   5.259   2.397
 3047TIP3    H2 9148   3.246   5.300   2.491
 3048TIP3   OH2 9149   3.457   5.223   2.273
 3048TIP3    H1 9150   3.372   5.229   2.318
 3048TIP3    H2 9151   3.437   5.247   2.182
 3049TIP3   OH2 9152   3.875   5.237   2.063
 3049TIP3    H1 9153   3.803   5.246   2.002
 3049TIP3    H2 9154   3.885   5.323   2.103
 3050TIP3   OH2 9155   4.143   5.185   2.122
 3050TIP3    H1 9156   4.051   5.195   2.098
 3050TIP3    H2 9157   4.189   5.247   2.066
 3051TIP3   OH2 9158   4.350   5.365   2.023
 3051TIP3    H1 9159   4.341   5.450   1.979
 3051TIP3    H2 9160   4.379   5.305   1.955
 3052TIP3   OH2 9161   3.131   5.018   2.151
 3052TIP3    H1 9162   3.155   4.987   2.238
 3052TIP3    H2 9163   3.202   4.988   2.094
 3053TIP3   OH2 9164   3.335   4.908   2.013
 3053TIP3    H1 9165   3.346   4.822   2.054
 3053TIP3    H2 9166   3.424   4.943   2.007
 3054TIP3   OH2 9167   3.608   4.991   2.020
 3054TIP3    H1 9168   3.623   4.898   2.003
 3054TIP3    H2 9169   3.659   5.009   2.099
 3055TIP3   OH2 9170   4.177   3.645   2.112
 3055TIP3    H1 9171   4.132   3.571   2.153
 3055TIP3    H2 9172   4.245   3.605   2.059
 3056TIP3   OH2 9173   4.676   3.535   1.999
 3056TIP3    H1 9174   4.714   3.585   1.927
 3056TIP3    H2 9175   4.584   3.564   2.003
 3057TIP3   OH2 9176   4.787   3.618   1.763
 3057TIP3    H1 9177   4.857   3.560   1.732
 3057TIP3    H2 9178   4.822   3.706   1.752
 3058TIP3   OH2 9179   3.412   3.338   2.113
 3058TIP3    H1 9180   3.322   3.306   2.122
 3058TIP3    H2 9181   3.465   3.259   2.106
 3059TIP3   OH2 9182   3.208   3.228   1.758
 3059TIP3    H1 9183   3.242   3.282   1.686
 3059TIP3    H2 9184   3.178   3.292   1.823
 3060TIP3   OH2 9185   3.875   3.379   1.998
 3060TIP3    H1 9186   3.924   3.425   1.930
 3060TIP3    H2 9187   3.909   3.415   2.080
 3061TIP3   OH2 9188   4.389   3.527   1.978
 3061TIP3    H1 9189   4.398   3.494   1.889
 3061TIP3    H2 9190   4.389   3.449   2.033
 3062TIP3   OH2 9191   4.441   3.467   1.546
 3062TIP3    H1 9192   4.361   3.515   1.569
 3062TIP3    H2 9193   4.428   3.380   1.584
 3063TIP3   OH2 9194   2.914   4.809   1.526
 3063TIP3    H1 9195   2.829   4.773   1.500
 3063TIP3    H2 9196   2.912   4.900   1.497
 3064TIP3   OH2 9197   3.336   3.375   1.529
 3064TIP3    H1 9198   3.379   3.314   1.470
 3064TIP3    H2 9199   3.407   3.430   1.564
 3065TIP3   OH2 9200   3.832   3.570   1.619
 3065TIP3    H1 9201   3.890   3.519   1.676
 3065TIP3    H2 9202   3.844   3.660   1.648
 3066TIP3   OH2 9203   3.698   4.979   1.117
 3066TIP3    H1 9204   3.789   4.995   1.093
 3066TIP3    H2 9205   3.674   4.899   1.071
 3067TIP3   OH2 9206   3.001   4.808   1.184
 3067TIP3    H1 9207   3.004   4.813   1.279
 3067TIP3    H2 9208   3.083   4.766   1.159
 3068TIP3   OH2 9209   4.700   3.690   2.905
 3068TIP3    H1 9210   4.718   3.660   2.994
 3068TIP3    H2 9211   4.786   3.697   2.864
 3069TIP3   OH2 9212   4.625   5.247   2.413
 3069TIP3    H1 9213   4.553   5.216   2.358
 3069TIP3    H2 9214   4.610   5.342   2.420
 3070TIP3   OH2 9215   5.884   4.581   1.218
 3070TIP3    H1 9216   5.884   4.676   1.230
 3070TIP3    H2 9217   5.796   4.560   1.187
 3071TIP3   OH2 9218   5.879   4.640   1.567
 3071TIP3    H1 9219   5.919   4.618   1.651
 3071TIP3    H2 9220   5.832   4.561   1.541
 3072TIP3   OH2 9221   5.199   4.500   1.916
 3072TIP3    H1 9222   5.228   4.440   1.985
 3072TIP3    H2 9223   5.280   4.532   1.877
 3073TIP3   OH2 9224   6.135   4.919   1.267
 3073TIP3    H1 9225   6.136   4.842   1.324
 3073TIP3    H2 9226   6.113   4.992   1.324
 3074TIP3   OH2 9227   5.177   4.924   1.622
 3074TIP3    H1 9228   5.168   4.829   1.627
 3074TIP3    H2 9229   5.272   4.939   1.623
 3075TIP3   OH2 9230   4.875   4.125   1.407
 3075TIP3    H1 9231   4.836   4.211   1.424
 3075TIP3    H2 9232   4.805   4.074   1.367
 3076TIP3   OH2 9233   4.936   4.411   1.609
 3076TIP3    H1 9234   4.986   4.336   1.642
 3076TIP3    H2 9235   4.998   4.458   1.553
 3077TIP3   OH2 9236   5.703   4.871   1.597
 3077TIP3    H1 9237   5.772   4.807   1.581
 3077TIP3    H2 9238   5.749   4.947   1.632
 3078TIP3   OH2 9239   6.129   4.343   1.620
 3078TIP3    H1 9240   6.157   4.258   1.654
 3078TIP3    H2 9241   6.089   4.323   1.535
 3079TIP3   OH2 9242   5.466   3.996   1.581
 3079TIP3    H1 9243   5.444   4.072   1.526
 3079TIP3    H2 9244   5.410   3.926   1.547
 3080TIP3   OH2 9245   6.174   4.089   1.236
 3080TIP3    H1 9246   6.219   4.052   1.312
 3080TIP3    H2 9247   6.242   4.098   1.170
 3081TIP3   OH2 9248   5.088   4.203   1.708
 3081TIP3    H1 9249   5.172   4.190   1.752
 3081TIP3    H2 9250   5.095   4.153   1.627
 3082TIP3   OH2 9251   5.522   4.405   1.513
 3082TIP3    H1 9252   5.615   4.386   1.522
 3082TIP3    H2 9253   5.484   4.324   1.479
 3083TIP3   OH2 9254   5.447   3.995   2.030
 3083TIP3    H1 9255   5.398   4.032   1.957
 3083TIP3    H2 9256   5.393   4.013   2.107
 3084TIP3   OH2 9257   5.676   4.825   1.048
 3084TIP3    H1 9258   5.699   4.767   0.975
 3084TIP3    H2 9259   5.755   4.876   1.064
 3085TIP3   OH2 9260   5.550   4.771   1.804
 3085TIP3    H1 9261   5.494   4.840   1.839
 3085TIP3    H2 9262   5.602   4.815   1.737
 3086TIP3   OH2 9263   5.336   4.104   1.801
 3086TIP3    H1 9264   5.390   4.179   1.825
 3086TIP3    H2 9265   5.383   4.062   1.729
 3087TIP3   OH2 9266   5.382   4.969   1.899
 3087TIP3    H1 9267   5.376   5.060   1.871
 3087TIP3    H2 9268   5.304   4.955   1.952
 3088TIP3   OH2 9269   4.748   4.668   1.169
 3088TIP3    H1 9270   4.741   4.667   1.073
 3088TIP3    H2 9271   4.788   4.753   1.189
 3089TIP3   OH2 9272   5.777   3.694   1.747
 3089TIP3    H1 9273   5.769   3.601   1.772
 3089TIP3    H2 9274   5.704   3.736   1.791
 3090TIP3   OH2 9275   5.699   4.465   1.052
 3090TIP3    H1 9276   5.610   4.495   1.037
 3090TIP3    H2 9277   5.751   4.509   0.984
 3091TIP3   OH2 9278   5.711   4.313   0.767
 3091TIP3    H1 9279   5.797   4.327   0.728
 3091TIP3    H2 9280   5.708   4.219   0.786
 3092TIP3   OH2 9281   6.150   4.510   1.111
 3092TIP3    H1 9282   6.058   4.528   1.130
 3092TIP3    H2 9283   6.183   4.592   1.074
 3093TIP3   OH2 9284   6.211   4.604   1.961
 3093TIP3    H1 9285   6.294   4.628   1.919
 3093TIP3    H2 9286   6.150   4.593   1.888
 3094TIP3   OH2 9287   5.306   4.530   1.393
 3094TIP3    H1 9288   5.274   4.471   1.325
 3094TIP3    H2 9289   5.384   4.488   1.427
 3095TIP3   OH2 9290   5.445   4.965   1.529
 3095TIP3    H1 9291   5.430   4.939   1.438
 3095TIP3    H2 9292   5.534   4.933   1.548
 3096TIP3   OH2 9293   5.428   4.533   1.744
 3096TIP3    H1 9294   5.465   4.500   1.662
 3096TIP3    H2 9295   5.476   4.614   1.762
 3097TIP3   OH2 9296   5.563   5.038   2.104
 3097TIP3    H1 9297   5.515   5.118   2.125
 3097TIP3    H2 9298   5.522   5.006   2.023
 3098TIP3   OH2 9299   6.024   4.423   0.708
 3098TIP3    H1 9300   6.004   4.427   0.802
 3098TIP3    H2 9301   5.985   4.503   0.673
 3099TIP3   OH2 9302   5.341   4.618   2.201
 3099TIP3    H1 9303   5.347   4.711   2.218
 3099TIP3    H2 9304   5.247   4.600   2.197
 3100TIP3   OH2 9305   5.652   5.107   1.136
 3100TIP3    H1 9306   5.664   5.037   1.201
 3100TIP3    H2 9307   5.614   5.064   1.060
 3101TIP3   OH2 9308   5.376   5.242   2.146
 3101TIP3    H1 9309   5.357   5.245   2.053
 3101TIP3    H2 9310   5.291   5.223   2.187
 3102TIP3   OH2 9311   5.197   4.368   1.192
 3102TIP3    H1 9312   5.127   4.428   1.170
 3102TIP3    H2 9313   5.154   4.283   1.200
 3103TIP3   OH2 9314   4.964   4.781   2.100
 3103TIP3    H1 9315   4.894   4.760   2.038
 3103TIP3    H2 9316   4.997   4.696   2.129
 3104TIP3   OH2 9317   4.831   4.966   1.715
 3104TIP3    H1 9318   4.927   4.957   1.715
 3104TIP3    H2 9319   4.814   5.035   1.778
 3105TIP3   OH2 9320   5.443   5.294   0.914
 3105TIP3    H1 9321   5.428   5.280   0.821
 3105TIP3    H2 9322   5.528   5.339   0.918
 3106TIP3   OH2 9323   4.969   5.141   1.275
 3106TIP3    H1 9324   5.044   5.152   1.333
 3106TIP3    H2 9325   4.895   5.128   1.335
 3107TIP3   OH2 9326   5.164   4.967   2.069
 3107TIP3    H1 9327   5.217   4.954   2.147
 3107TIP3    H2 9328   5.094   4.903   2.076
 3108TIP3   OH2 9329   5.555   3.786   1.882
 3108TIP3    H1 9330   5.470   3.754   1.851
 3108TIP3    H2 9331   5.534   3.866   1.930
 3109TIP3   OH2 9332   6.086   3.886   2.071
 3109TIP3    H1 9333   6.162   3.879   2.129
 3109TIP3    H2 9334   6.011   3.883   2.130
 3110TIP3   OH2 9335   6.317   4.309   1.949
 3110TIP3    H1 9336   6.287   4.340   2.034
 3110TIP3    H2 9337   6.375   4.378   1.917
 3111TIP3   OH2 9338   5.714   3.763   0.873
 3111TIP3    H1 9339   5.674   3.795   0.953
 3111TIP3    H2 9340   5.659   3.689   0.847
 3112TIP3   OH2 9341   5.494   4.309   1.892
 3112TIP3    H1 9342   5.447   4.321   1.974
 3112TIP3    H2 9343   5.477   4.390   1.843
 3113TIP3   OH2 9344   5.375   4.193   1.417
 3113TIP3    H1 9345   5.284   4.173   1.440
 3113TIP3    H2 9346   5.386   4.155   1.329
 3114TIP3   OH2 9347   5.839   4.262   1.187
 3114TIP3    H1 9348   5.799   4.343   1.156
 3114TIP3    H2 9349   5.902   4.238   1.119
 3115TIP3   OH2 9350   6.031   4.550   2.221
 3115TIP3    H1 9351   6.024   4.474   2.280
 3115TIP3    H2 9352   6.124   4.551   2.196
 3116TIP3   OH2 9353   6.031   4.287   1.376
 3116TIP3    H1 9354   5.954   4.310   1.324
 3116TIP3    H2 9355   6.076   4.219   1.326
 3117TIP3   OH2 9356   5.320   4.328   2.105
 3117TIP3    H1 9357   5.337   4.395   2.171
 3117TIP3    H2 9358   5.303   4.249   2.155
 3118TIP3   OH2 9359   5.401   3.800   0.863
 3118TIP3    H1 9360   5.397   3.800   0.959
 3118TIP3    H2 9361   5.328   3.856   0.836
 3119TIP3   OH2 9362   4.915   3.842   1.691
 3119TIP3    H1 9363   4.986   3.880   1.744
 3119TIP3    H2 9364   4.953   3.834   1.603
 3120TIP3   OH2 9365   4.840   3.823   1.180
 3120TIP3    H1 9366   4.874   3.854   1.097
 3120TIP3    H2 9367   4.782   3.893   1.210
 3121TIP3   OH2 9368   6.003   4.523   1.782
 3121TIP3    H1 9369   6.054   4.464   1.727
 3121TIP3    H2 9370   5.983   4.472   1.860
 3122TIP3   OH2 9371   5.721   3.982   1.466
 3122TIP3    H1 9372   5.643   3.991   1.520
 3122TIP3    H2 9373   5.794   3.984   1.528
 3123TIP3   OH2 9374   5.135   4.071   1.472
 3123TIP3    H1 9375   5.046   4.079   1.439
 3123TIP3    H2 9376   5.161   3.981   1.451
 3124TIP3   OH2 9377   5.391   4.052   1.185
 3124TIP3    H1 9378   5.484   4.071   1.171
 3124TIP3    H2 9379   5.347   4.089   1.109
 3125TIP3   OH2 9380   6.164   4.061   1.666
 3125TIP3    H1 9381   6.150   4.085   1.758
 3125TIP3    H2 9382   6.083   4.016   1.641
 3126TIP3   OH2 9383   5.262   4.116   0.960
 3126TIP3    H1 9384   5.214   4.059   0.900
 3126TIP3    H2 9385   5.340   4.142   0.911
 3127TIP3   OH2 9386   5.319   4.881   2.301
 3127TIP3    H1 9387   5.402   4.908   2.341
 3127TIP3    H2 9388   5.255   4.884   2.372
 3128TIP3   OH2 9389   5.786   4.339   1.570
 3128TIP3    H1 9390   5.866   4.307   1.529
 3128TIP3    H2 9391   5.788   4.305   1.659
 3129TIP3   OH2 9392   5.287   3.821   1.455
 3129TIP3    H1 9393   5.257   3.746   1.507
 3129TIP3    H2 9394   5.309   3.784   1.370
 3130TIP3   OH2 9395   5.763   4.248   1.844
 3130TIP3    H1 9396   5.677   4.284   1.865
 3130TIP3    H2 9397   5.824   4.298   1.898
 3131TIP3   OH2 9398   5.477   4.603   0.997
 3131TIP3    H1 9399   5.434   4.519   1.010
 3131TIP3    H2 9400   5.460   4.652   1.078
 3132TIP3   OH2 9401   5.947   3.887   0.900
 3132TIP3    H1 9402   5.856   3.860   0.888
 3132TIP3    H2 9403   5.942   3.982   0.912
 3133TIP3   OH2 9404   5.950   4.954   1.949
 3133TIP3    H1 9405   5.906   4.988   2.027
 3133TIP3    H2 9406   5.914   5.005   1.877
 3134TIP3   OH2 9407   6.006   4.143   0.967
 3134TIP3    H1 9408   6.100   4.128   0.979
 3134TIP3    H2 9409   5.995   4.153   0.872
 3135TIP3   OH2 9410   5.193   4.646   1.614
 3135TIP3    H1 9411   5.226   4.614   1.530
 3135TIP3    H2 9412   5.251   4.606   1.679
 3136TIP3   OH2 9413   5.580   4.728   0.784
 3136TIP3    H1 9414   5.578   4.823   0.772
 3136TIP3    H2 9415   5.541   4.715   0.871
 3137TIP3   OH2 9416   5.073   4.556   2.235
 3137TIP3    H1 9417   5.077   4.553   2.331
 3137TIP3    H2 9418   4.999   4.500   2.213
 3138TIP3   OH2 9419   5.800   4.687   2.257
 3138TIP3    H1 9420   5.736   4.633   2.211
 3138TIP3    H2 9421   5.885   4.652   2.230
 3139TIP3   OH2 9422   6.129   4.708   1.433
 3139TIP3    H1 9423   6.051   4.681   1.483
 3139TIP3    H2 9424   6.184   4.629   1.431
 3140TIP3   OH2 9425   5.310   4.952   1.279
 3140TIP3    H1 9426   5.301   5.032   1.228
 3140TIP3    H2 9427   5.220   4.927   1.300
 3141TIP3   OH2 9428   5.426   4.715   1.232
 3141TIP3    H1 9429   5.390   4.802   1.246
 3141TIP3    H2 9430   5.382   4.660   1.297
 3142TIP3   OH2 9431   5.577   5.315   1.711
 3142TIP3    H1 9432   5.624   5.394   1.685
 3142TIP3    H2 9433   5.645   5.249   1.723
 3143TIP3   OH2 9434   5.227   5.171   1.145
 3143TIP3    H1 9435   5.131   5.176   1.153
 3143TIP3    H2 9436   5.256   5.262   1.152
 3144TIP3   OH2 9437   5.278   4.075   2.236
 3144TIP3    H1 9438   5.183   4.086   2.241
 3144TIP3    H2 9439   5.302   4.028   2.316
 3145TIP3   OH2 9440   6.119   4.758   0.732
 3145TIP3    H1 9441   6.069   4.761   0.814
 3145TIP3    H2 9442   6.182   4.687   0.744
 3146TIP3   OH2 9443   5.007   5.162   1.878
 3146TIP3    H1 9444   5.059   5.094   1.921
 3146TIP3    H2 9445   5.030   5.243   1.924
 3147TIP3   OH2 9446   5.142   4.843   0.896
 3147TIP3    H1 9447   5.220   4.812   0.943
 3147TIP3    H2 9448   5.159   4.935   0.880
 3148TIP3   OH2 9449   4.977   4.511   1.132
 3148TIP3    H1 9450   4.894   4.558   1.137
 3148TIP3    H2 9451   5.014   4.536   1.048
 3149TIP3   OH2 9452   6.122   4.125   1.926
 3149TIP3    H1 9453   6.201   4.177   1.942
 3149TIP3    H2 9454   6.131   4.050   1.984
 3150TIP3   OH2 9455   6.029   3.866   1.156
 3150TIP3    H1 9456   6.001   3.871   1.065
 3150TIP3    H2 9457   6.061   3.954   1.177
 3151TIP3   OH2 9458   5.522   4.997   0.755
 3151TIP3    H1 9459   5.447   5.055   0.746
 3151TIP3    H2 9460   5.568   5.003   0.672
 3152TIP3   OH2 9461   5.663   4.063   1.211
 3152TIP3    H1 9462   5.719   4.137   1.192
 3152TIP3    H2 9463   5.678   4.044   1.303
 3153TIP3   OH2 9464   5.964   4.363   2.000
 3153TIP3    H1 9465   5.999   4.421   2.067
 3153TIP3    H2 9466   6.027   4.291   1.995
 3154TIP3   OH2 9467   5.817   3.777   1.306
 3154TIP3    H1 9468   5.791   3.853   1.358
 3154TIP3    H2 9469   5.895   3.806   1.259
 3155TIP3   OH2 9470   5.240   5.091   0.857
 3155TIP3    H1 9471   5.233   5.167   0.800
 3155TIP3    H2 9472   5.246   5.127   0.945
 3156TIP3   OH2 9473   5.346   3.785   1.137
 3156TIP3    H1 9474   5.334   3.877   1.159
 3156TIP3    H2 9475   5.441   3.771   1.142
 3157TIP3   OH2 9476   6.271   4.455   1.403
 3157TIP3    H1 9477   6.192   4.428   1.357
 3157TIP3    H2 9478   6.254   4.434   1.495
 3158TIP3   OH2 9479   4.944   4.687   0.820
 3158TIP3    H1 9480   5.010   4.743   0.860
 3158TIP3    H2 9481   4.993   4.613   0.784
 3159TIP3   OH2 9482   5.299   3.696   1.838
 3159TIP3    H1 9483   5.268   3.666   1.752
 3159TIP3    H2 9484   5.284   3.622   1.896
 3160TIP3   OH2 9485   4.747   4.937   1.209
 3160TIP3    H1 9486   4.759   4.963   1.301
 3160TIP3    H2 9487   4.811   4.989   1.161
 3161TIP3   OH2 9488   5.006   5.482   2.302
 3161TIP3    H1 9489   5.091   5.481   2.347
 3161TIP3    H2 9490   4.983   5.390   2.292
 3162TIP3   OH2 9491   5.481   5.402   2.341
 3162TIP3    H1 9492   5.573   5.376   2.347
 3162TIP3    H2 9493   5.446   5.352   2.268
 3163TIP3   OH2 9494   6.134   5.341   2.135
 3163TIP3    H1 9495   6.100   5.259   2.171
 3163TIP3    H2 9496   6.229   5.328   2.130
 3164TIP3   OH2 9497   5.117   4.879   2.496
 3164TIP3    H1 9498   5.127   4.785   2.504
 3164TIP3    H2 9499   5.034   4.890   2.448
 3165TIP3   OH2 9500   5.095   4.540   0.641
 3165TIP3    H1 9501   5.154   4.470   0.668
 3165TIP3    H2 9502   5.152   4.614   0.623
 3166TIP3   OH2 9503   5.744   4.962   2.286
 3166TIP3    H1 9504   5.690   4.983   2.209
 3166TIP3    H2 9505   5.779   4.875   2.267
 3167TIP3   OH2 9506   6.218   4.949   1.903
 3167TIP3    H1 9507   6.219   5.032   1.855
 3167TIP3    H2 9508   6.125   4.929   1.915
 3168TIP3   OH2 9509   5.233   4.619   2.496
 3168TIP3    H1 9510   5.308   4.600   2.439
 3168TIP3    H2 9511   5.273   4.643   2.579
 3169TIP3   OH2 9512   5.387   4.361   0.985
 3169TIP3    H1 9513   5.312   4.350   1.043
 3169TIP3    H2 9514   5.353   4.341   0.898
 3170TIP3   OH2 9515   5.589   4.498   2.149
 3170TIP3    H1 9516   5.508   4.548   2.158
 3170TIP3    H2 9517   5.629   4.531   2.068
 3171TIP3   OH2 9518   5.444   4.169   0.765
 3171TIP3    H1 9519   5.459   4.104   0.696
 3171TIP3    H2 9520   5.524   4.222   0.765
 3172TIP3   OH2 9521   6.105   4.885   2.278
 3172TIP3    H1 9522   6.148   4.846   2.202
 3172TIP3    H2 9523   6.100   4.813   2.342
 3173TIP3   OH2 9524   5.703   4.280   2.266
 3173TIP3    H1 9525   5.707   4.207   2.203
 3173TIP3    H2 9526   5.667   4.353   2.216
 3174TIP3   OH2 9527   5.709   4.073   2.069
 3174TIP3    H1 9528   5.739   4.115   1.988
 3174TIP3    H2 9529   5.617   4.054   2.052
 3175TIP3   OH2 9530   5.724   4.606   1.941
 3175TIP3    H1 9531   5.814   4.627   1.915
 3175TIP3    H2 9532   5.671   4.671   1.896
 3176TIP3   OH2 9533   6.323   4.564   2.334
 3176TIP3    H1 9534   6.339   4.473   2.308
 3176TIP3    H2 9535   6.368   4.616   2.268
 3177TIP3   OH2 9536   6.393   4.826   2.072
 3177TIP3    H1 9537   6.327   4.865   2.016
 3177TIP3    H2 9538   6.442   4.767   2.015
 3178TIP3   OH2 9539   5.587   4.370   2.509
 3178TIP3    H1 9540   5.516   4.309   2.525
 3178TIP3    H2 9541   5.614   4.352   2.418
 3179TIP3   OH2 9542   5.825   3.839   2.161
 3179TIP3    H1 9543   5.787   3.921   2.129
 3179TIP3    H2 9544   5.757   3.774   2.147
 3180TIP3   OH2 9545   5.963   4.315   2.360
 3180TIP3    H1 9546   5.944   4.307   2.453
 3180TIP3    H2 9547   5.879   4.302   2.317
 3181TIP3   OH2 9548   6.193   4.308   2.206
 3181TIP3    H1 9549   6.113   4.294   2.257
 3181TIP3    H2 9550   6.264   4.276   2.262
 3182TIP3   OH2 9551   6.385   4.248   2.386
 3182TIP3    H1 9552   6.462   4.196   2.366
 3182TIP3    H2 9553   6.403   4.286   2.472
 3183TIP3   OH2 9554   5.418   4.151   2.570
 3183TIP3    H1 9555   5.422   4.063   2.533
 3183TIP3    H2 9556   5.457   4.142   2.657
 3184TIP3   OH2 9557   5.893   3.837   2.425
 3184TIP3    H1 9558   5.963   3.772   2.421
 3184TIP3    H2 9559   5.862   3.846   2.335
 3185TIP3   OH2 9560   5.990   4.046   2.573
 3185TIP3    H1 9561   5.965   3.976   2.512
 3185TIP3    H2 9562   5.919   4.110   2.567
 3186TIP3   OH2 9563   4.701   4.676   0.911
 3186TIP3    H1 9564   4.790   4.698   0.884
 3186TIP3    H2 9565   4.688   4.586   0.883
 3187TIP3   OH2 9566   4.591   5.249   1.317
 3187TIP3    H1 9567   4.610   5.234   1.224
 3187TIP3    H2 9568   4.656   5.197   1.363
 3188TIP3   OH2 9569   4.777   5.099   1.469
 3188TIP3    H1 9570   4.768   5.029   1.534
 3188TIP3    H2 9571   4.810   5.174   1.519
 3189TIP3   OH2 9572   4.934   4.532   1.857
 3189TIP3    H1 9573   4.925   4.494   1.769
 3189TIP3    H2 9574   5.028   4.531   1.874
 3190TIP3   OH2 9575   5.153   4.214   2.523
 3190TIP3    H1 9576   5.247   4.210   2.535
 3190TIP3    H2 9577   5.121   4.132   2.562
 3191TIP3   OH2 9578   5.128   3.915   1.854
 3191TIP3    H1 9579   5.186   3.839   1.860
 3191TIP3    H2 9580   5.187   3.990   1.842
 3192TIP3   OH2 9581   4.913   4.175   1.929
 3192TIP3    H1 9582   4.963   4.173   1.847
 3192TIP3    H2 9583   4.935   4.258   1.969
 3193TIP3   OH2 9584   4.900   3.694   1.415
 3193TIP3    H1 9585   4.814   3.687   1.455
 3193TIP3    H2 9586   4.886   3.748   1.337
 3194TIP3   OH2 9587   5.120   3.742   2.238
 3194TIP3    H1 9588   5.078   3.750   2.324
 3194TIP3    H2 9589   5.065   3.794   2.180
 3195TIP3   OH2 9590   5.153   5.206   2.308
 3195TIP3    H1 9591   5.059   5.189   2.300
 3195TIP3    H2 9592   5.175   5.174   2.395
 3196TIP3   OH2 9593   5.361   5.244   1.868
 3196TIP3    H1 9594   5.307   5.314   1.831
 3196TIP3    H2 9595   5.447   5.257   1.829
 3197TIP3   OH2 9596   5.775   5.489   2.003
 3197TIP3    H1 9597   5.825   5.466   2.081
 3197TIP3    H2 9598   5.798   5.421   1.940
 3198TIP3   OH2 9599   5.012   5.496   1.908
 3198TIP3    H1 9600   4.921   5.519   1.888
 3198TIP3    H2 9601   5.038   5.558   1.975
 3199TIP3   OH2 9602   5.238   5.462   1.759
 3199TIP3    H1 9603   5.156   5.473   1.807
 3199TIP3    H2 9604   5.219   5.495   1.671
 3200TIP3   OH2 9605   5.684   5.544   1.574
 3200TIP3    H1 9606   5.628   5.537   1.496
 3200TIP3    H2 9607   5.629   5.590   1.638
 3201TIP3   OH2 9608   4.934   5.272   1.633
 3201TIP3    H1 9609   4.955   5.240   1.721
 3201TIP3    H2 9610   5.007   5.244   1.578
 3202TIP3   OH2 9611   5.138   5.161   1.490
 3202TIP3    H1 9612   5.147   5.078   1.537
 3202TIP3    H2 9613   5.226   5.200   1.494
 3203TIP3   OH2 9614   5.402   5.241   1.514
 3203TIP3    H1 9615   5.422   5.147   1.508
 3203TIP3    H2 9616   5.457   5.274   1.584
 3204TIP3   OH2 9617   5.942   3.894   1.608
 3204TIP3    H1 9618   5.893   3.829   1.659
 3204TIP3    H2 9619   5.995   3.841   1.548
 3205TIP3   OH2 9620   5.210   3.595   1.596
 3205TIP3    H1 9621   5.119   3.566   1.604
 3205TIP3    H2 9622   5.261   3.515   1.589
 3206TIP3   OH2 9623   5.029   3.495   1.260
 3206TIP3    H1 9624   5.056   3.544   1.183
 3206TIP3    H2 9625   4.988   3.560   1.317
 3207TIP3   OH2 9626   5.670   3.629   1.490
 3207TIP3    H1 9627   5.716   3.681   1.424
 3207TIP3    H2 9628   5.700   3.666   1.573
 3208TIP3   OH2 9629   6.102   3.742   1.449
 3208TIP3    H1 9630   6.137   3.756   1.361
 3208TIP3    H2 9631   6.120   3.649   1.467
 3209TIP3   OH2 9632   6.209   3.686   1.037
 3209TIP3    H1 9633   6.156   3.755   1.076
 3209TIP3    H2 9634   6.191   3.608   1.090
 3210TIP3   OH2 9635   5.158   3.613   1.034
 3210TIP3    H1 9636   5.211   3.551   0.983
 3210TIP3    H2 9637   5.221   3.671   1.075
 3211TIP3   OH2 9638   5.615   3.812   1.123
 3211TIP3    H1 9639   5.678   3.771   1.182
 3211TIP3    H2 9640   5.624   3.906   1.140
 3212TIP3   OH2 9641   5.425   3.878   2.482
 3212TIP3    H1 9642   5.389   3.811   2.540
 3212TIP3    H2 9643   5.517   3.885   2.508
 3213TIP3   OH2 9644   5.675   3.884   2.605
 3213TIP3    H1 9645   5.752   3.866   2.552
 3213TIP3    H2 9646   5.671   3.811   2.667
 3214TIP3   OH2 9647   4.766   5.083   0.651
 3214TIP3    H1 9648   4.778   5.146   0.721
 3214TIP3    H2 9649   4.853   5.048   0.635
 3215TIP3   OH2 9650   0.006   3.988   2.315
 3215TIP3    H1 9651  -0.006   3.922   2.383
 3215TIP3    H2 9652   0.097   3.980   2.289
 3216TIP3   OH2 9653   0.985   5.212   2.770
 3216TIP3    H1 9654   1.005   5.295   2.813
 3216TIP3    H2 9655   1.003   5.227   2.678
 3217TIP3   OH2 9656   0.358   5.386   2.785
 3217TIP3    H1 9657   0.399   5.304   2.812
 3217TIP3    H2 9658   0.303   5.363   2.710
 3218TIP3   OH2 9659   0.413   5.143   2.385
 3218TIP3    H1 9660   0.478   5.133   2.454
 3218TIP3    H2 9661   0.461   5.178   2.310
 3219TIP3   OH2 9662   1.051   5.423   2.950
 3219TIP3    H1 9663   0.961   5.454   2.942
 3219TIP3    H2 9664   1.084   5.466   3.028
 3220TIP3   OH2 9665   0.584   5.156   2.595
 3220TIP3    H1 9666   0.547   5.139   2.682
 3220TIP3    H2 9667   0.644   5.230   2.610
 3221TIP3   OH2 9668   0.779   5.099   2.935
 3221TIP3    H1 9669   0.692   5.127   2.907
 3221TIP3    H2 9670   0.837   5.131   2.866
 3222TIP3   OH2 9671   0.835   5.710   2.766
 3222TIP3    H1 9672   0.777   5.784   2.782
 3222TIP3    H2 9673   0.873   5.727   2.680
 3223TIP3   OH2 9674   0.343   5.633   2.175
 3223TIP3    H1 9675   0.334   5.702   2.241
 3223TIP3    H2 9676   0.418   5.582   2.205
 3224TIP3   OH2 9677   0.565   5.614   3.060
 3224TIP3    H1 9678   0.567   5.709   3.067
 3224TIP3    H2 9679   0.478   5.593   3.026
 3225TIP3   OH2 9680   0.185   5.461   2.028
 3225TIP3    H1 9681   0.242   5.527   2.068
 3225TIP3    H2 9682   0.169   5.494   1.939
 3226TIP3   OH2 9683   0.686   4.688   2.024
 3226TIP3    H1 9684   0.607   4.704   2.076
 3226TIP3    H2 9685   0.698   4.767   1.972
 3227TIP3   OH2 9686   0.815   5.584   3.246
 3227TIP3    H1 9687   0.727   5.601   3.213
 3227TIP3    H2 9688   0.827   5.489   3.234
 3228TIP3   OH2 9689   0.346   4.915   3.307
 3228TIP3    H1 9690   0.439   4.912   3.329
 3228TIP3    H2 9691   0.302   4.873   3.381
 3229TIP3   OH2 9692   0.568   5.360   3.165
 3229TIP3    H1 9693   0.523   5.360   3.250
 3229TIP3    H2 9694   0.555   5.449   3.131
 3230TIP3   OH2 9695   0.141   5.370   2.294
 3230TIP3    H1 9696   0.127   5.420   2.214
 3230TIP3    H2 9697   0.162   5.282   2.263
 3231TIP3   OH2 9698   0.260   5.320   2.534
 3231TIP3    H1 9699   0.212   5.362   2.462
 3231TIP3    H2 9700   0.312   5.252   2.490
 3232TIP3   OH2 9701   0.304   5.568   2.981
 3232TIP3    H1 9702   0.322   5.506   2.910
 3232TIP3    H2 9703   0.229   5.530   3.026
 3233TIP3   OH2 9704   0.467   5.133   2.846
 3233TIP3    H1 9705   0.457   5.137   2.941
 3233TIP3    H2 9706   0.399   5.072   2.817
 3234TIP3   OH2 9707   0.635   5.919   2.766
 3234TIP3    H1 9708   0.663   5.975   2.693
 3234TIP3    H2 9709   0.587   5.848   2.724
 3235TIP3   OH2 9710   0.167   4.975   2.023
 3235TIP3    H1 9711   0.075   4.990   2.001
 3235TIP3    H2 9712   0.205   5.063   2.027
 3236TIP3   OH2 9713   0.286   5.211   2.100
 3236TIP3    H1 9714   0.380   5.227   2.105
 3236TIP3    H2 9715   0.251   5.288   2.055
 3237TIP3   OH2 9716   0.707   5.312   1.935
 3237TIP3    H1 9717   0.644   5.264   1.881
 3237TIP3    H2 9718   0.710   5.400   1.896
 3238TIP3   OH2 9719   0.510   5.705   2.672
 3238TIP3    H1 9720   0.426   5.711   2.718
 3238TIP3    H2 9721   0.500   5.630   2.614
 3239TIP3   OH2 9722   0.342   5.706   1.908
 3239TIP3    H1 9723   0.336   5.694   2.003
 3239TIP3    H2 9724   0.421   5.757   1.894
 3240TIP3   OH2 9725   0.417   5.126   3.110
 3240TIP3    H1 9726   0.451   5.208   3.146
 3240TIP3    H2 9727   0.377   5.082   3.185
 3241TIP3   OH2 9728   0.282   4.919   2.268
 3241TIP3    H1 9729   0.237   4.934   2.185
 3241TIP3    H2 9730   0.313   5.006   2.294
 3242TIP3   OH2 9731   0.185   4.822   2.503
 3242TIP3    H1 9732   0.149   4.903   2.540
 3242TIP3    H2 9733   0.209   4.844   2.414
 3243TIP3   OH2 9734   0.835   5.315   3.165
 3243TIP3    H1 9735   0.740   5.315   3.173
 3243TIP3    H2 9736   0.853   5.286   3.076
 3244TIP3   OH2 9737   0.501   5.475   2.531
 3244TIP3    H1 9738   0.423   5.428   2.559
 3244TIP3    H2 9739   0.571   5.443   2.588
 3245TIP3   OH2 9740   0.498   5.882   3.064
 3245TIP3    H1 9741   0.568   5.913   3.006
 3245TIP3    H2 9742   0.423   5.937   3.042
 3246TIP3   OH2 9743   0.586   5.579   3.499
 3246TIP3    H1 9744   0.670   5.533   3.495
 3246TIP3    H2 9745   0.604   5.666   3.464
 3247TIP3   OH2 9746   0.635   5.812   3.288
 3247TIP3    H1 9747   0.573   5.837   3.219
 3247TIP3    H2 9748   0.721   5.822   3.248
 3248TIP3   OH2 9749   0.460   5.329   3.410
 3248TIP3    H1 9750   0.438   5.414   3.449
 3248TIP3    H2 9751   0.539   5.301   3.455
 3249TIP3   OH2 9752   0.691   5.280   3.559
 3249TIP3    H1 9753   0.703   5.186   3.571
 3249TIP3    H2 9754   0.670   5.313   3.647
 3250TIP3   OH2 9755   0.634   5.740   1.929
 3250TIP3    H1 9756   0.704   5.803   1.916
 3250TIP3    H2 9757   0.665   5.683   1.999
 3251TIP3   OH2 9758   0.762   5.591   2.117
 3251TIP3    H1 9759   0.693   5.563   2.177
 3251TIP3    H2 9760   0.820   5.645   2.171
 3252TIP3   OH2 9761   0.661   5.527   1.763
 3252TIP3    H1 9762   0.571   5.504   1.741
 3252TIP3    H2 9763   0.653   5.608   1.813
 3253TIP3   OH2 9764   0.543   5.198   1.759
 3253TIP3    H1 9765   0.526   5.245   1.678
 3253TIP3    H2 9766   0.517   5.108   1.741
 3254TIP3   OH2 9767   0.559   5.493   2.269
 3254TIP3    H1 9768   0.562   5.400   2.248
 3254TIP3    H2 9769   0.544   5.495   2.364
 3255TIP3   OH2 9770   0.823   5.893   3.109
 3255TIP3    H1 9771   0.906   5.847   3.119
 3255TIP3    H2 9772   0.823   5.923   3.018
 3256TIP3   OH2 9773   1.031   5.714   3.152
 3256TIP3    H1 9774   0.953   5.671   3.187
 3256TIP3    H2 9775   1.102   5.654   3.172
 3257TIP3   OH2 9776   0.518   4.927   1.682
 3257TIP3    H1 9777   0.581   4.917   1.753
 3257TIP3    H2 9778   0.433   4.908   1.722
 3258TIP3   OH2 9779   0.570   5.229   2.165
 3258TIP3    H1 9780   0.610   5.143   2.179
 3258TIP3    H2 9781   0.617   5.265   2.090
 3259TIP3   OH2 9782   0.716   5.383   2.678
 3259TIP3    H1 9783   0.798   5.406   2.634
 3259TIP3    H2 9784   0.726   5.414   2.768
 3260TIP3   OH2 9785   0.785   5.501   2.923
 3260TIP3    H1 9786   0.710   5.529   2.975
 3260TIP3    H2 9787   0.804   5.575   2.866
 3261TIP3   OH2 9788   1.241   5.145   3.447
 3261TIP3    H1 9789   1.304   5.085   3.408
 3261TIP3    H2 9790   1.204   5.193   3.373
 3262TIP3   OH2 9791   0.677   4.976   2.207
 3262TIP3    H1 9792   0.719   4.961   2.292
 3262TIP3    H2 9793   0.614   4.904   2.198
 3263TIP3   OH2 9794   1.096   5.261   3.248
 3263TIP3    H1 9795   1.011   5.302   3.265
 3263TIP3    H2 9796   1.075   5.184   3.195
 3264TIP3   OH2 9797   0.736   4.898   1.851
 3264TIP3    H1 9798   0.784   4.835   1.796
 3264TIP3    H2 9799   0.795   4.973   1.857
 3265TIP3   OH2 9800   1.007   5.021   3.138
 3265TIP3    H1 9801   0.921   5.021   3.096
 3265TIP3    H2 9802   1.037   4.930   3.132
 3266TIP3   OH2 9803   0.281   4.947   2.767
 3266TIP3    H1 9804   0.212   4.881   2.762
 3266TIP3    H2 9805   0.352   4.911   2.714
 3267TIP3   OH2 9806   0.732   4.835   2.664
 3267TIP3    H1 9807   0.768   4.887   2.592
 3267TIP3    H2 9808   0.637   4.845   2.657
 3268TIP3   OH2 9809   0.835   4.922   2.427
 3268TIP3    H1 9810   0.905   4.865   2.396
 3268TIP3    H2 9811   0.869   5.010   2.415
 3269TIP3   OH2 9812   0.463   4.804   2.627
 3269TIP3    H1 9813   0.425   4.789   2.540
 3269TIP3    H2 9814   0.437   4.727   2.677
 3270TIP3   OH2 9815   0.498   4.761   2.209
 3270TIP3    H1 9816   0.418   4.812   2.221
 3270TIP3    H2 9817   0.479   4.677   2.251
 3271TIP3   OH2 9818   0.758   5.014   3.579
 3271TIP3    H1 9819   0.771   4.982   3.668
 3271TIP3    H2 9820   0.845   5.009   3.539
 3272TIP3   OH2 9821   1.956   5.874   1.847
 3272TIP3    H1 9822   1.959   5.969   1.837
 3272TIP3    H2 9823   1.888   5.845   1.786
 3273TIP3   OH2 9824   1.987   5.866   2.185
 3273TIP3    H1 9825   2.001   5.872   2.280
 3273TIP3    H2 9826   1.923   5.795   2.175
 3274TIP3   OH2 9827   1.258   5.754   2.564
 3274TIP3    H1 9828   1.297   5.684   2.617
 3274TIP3    H2 9829   1.278   5.835   2.611
 3275TIP3   OH2 9830   0.942   5.398   2.052
 3275TIP3    H1 9831   0.898   5.479   2.078
 3275TIP3    H2 9832   0.871   5.342   2.018
 3276TIP3   OH2 9833   0.965   5.699   2.274
 3276TIP3    H1 9834   1.009   5.618   2.301
 3276TIP3    H2 9835   1.035   5.754   2.240
 3277TIP3   OH2 9836   1.802   6.051   2.284
 3277TIP3    H1 9837   1.887   6.037   2.243
 3277TIP3    H2 9838   1.778   6.140   2.260
 3278TIP3   OH2 9839   2.778   5.465   2.253
 3278TIP3    H1 9840   2.797   5.549   2.295
 3278TIP3    H2 9841   2.800   5.478   2.161
 3279TIP3   OH2 9842   2.170   5.634   2.280
 3279TIP3    H1 9843   2.207   5.548   2.302
 3279TIP3    H2 9844   2.127   5.620   2.196
 3280TIP3   OH2 9845   1.517   5.298   2.243
 3280TIP3    H1 9846   1.496   5.371   2.186
 3280TIP3    H2 9847   1.462   5.226   2.211
 3281TIP3   OH2 9848   2.207   5.396   1.870
 3281TIP3    H1 9849   2.271   5.387   1.941
 3281TIP3    H2 9850   2.257   5.432   1.797
 3282TIP3   OH2 9851   1.128   5.496   2.364
 3282TIP3    H1 9852   1.212   5.495   2.411
 3282TIP3    H2 9853   1.146   5.449   2.282
 3283TIP3   OH2 9854   1.604   5.691   2.111
 3283TIP3    H1 9855   1.690   5.668   2.147
 3283TIP3    H2 9856   1.561   5.606   2.096
 3284TIP3   OH2 9857   2.840   5.674   2.434
 3284TIP3    H1 9858   2.752   5.709   2.422
 3284TIP3    H2 9859   2.870   5.713   2.517
 3285TIP3   OH2 9860   1.491   5.291   2.696
 3285TIP3    H1 9861   1.441   5.330   2.624
 3285TIP3    H2 9862   1.438   5.308   2.774
 3286TIP3   OH2 9863   1.528   6.002   2.351
 3286TIP3    H1 9864   1.484   6.087   2.359
 3286TIP3    H2 9865   1.620   6.024   2.336
 3287TIP3   OH2 9866   2.376   5.409   2.084
 3287TIP3    H1 9867   2.340   5.386   2.170
 3287TIP3    H2 9868   2.437   5.480   2.102
 3288TIP3   OH2 9869   1.376   5.397   2.462
 3288TIP3    H1 9870   1.432   5.468   2.492
 3288TIP3    H2 9871   1.424   5.356   2.390
 3289TIP3   OH2 9872   2.573   5.363   2.423
 3289TIP3    H1 9873   2.487   5.389   2.390
 3289TIP3    H2 9874   2.635   5.390   2.355
 3290TIP3   OH2 9875   1.837   4.992   2.415
 3290TIP3    H1 9876   1.827   4.900   2.439
 3290TIP3    H2 9877   1.763   5.035   2.456
 3291TIP3   OH2 9878   1.788   5.767   1.648
 3291TIP3    H1 9879   1.705   5.755   1.602
 3291TIP3    H2 9880   1.854   5.758   1.580
 3292TIP3   OH2 9881   1.751   5.569   1.384
 3292TIP3    H1 9882   1.823   5.622   1.419
 3292TIP3    H2 9883   1.792   5.512   1.320
 3293TIP3   OH2 9884   2.583   5.938   2.217
 3293TIP3    H1 9885   2.544   6.022   2.242
 3293TIP3    H2 9886   2.653   5.961   2.156
 3294TIP3   OH2 9887   2.145   5.856   1.650
 3294TIP3    H1 9888   2.093   5.853   1.731
 3294TIP3    H2 9889   2.232   5.825   1.677
 3295TIP3   OH2 9890   2.347   5.871   2.543
 3295TIP3    H1 9891   2.345   5.966   2.553
 3295TIP3    H2 9892   2.263   5.849   2.502
 3296TIP3   OH2 9893   1.376   5.810   2.032
 3296TIP3    H1 9894   1.328   5.749   1.975
 3296TIP3    H2 9895   1.456   5.762   2.054
 3297TIP3   OH2 9896   1.482   5.741   2.354
 3297TIP3    H1 9897   1.523   5.724   2.270
 3297TIP3    H2 9898   1.494   5.834   2.370
 3298TIP3   OH2 9899   1.984   5.717   1.472
 3298TIP3    H1 9900   2.045   5.775   1.517
 3298TIP3    H2 9901   2.002   5.732   1.379
 3299TIP3   OH2 9902   1.389   5.857   2.811
 3299TIP3    H1 9903   1.434   5.935   2.845
 3299TIP3    H2 9904   1.309   5.851   2.863
 3300TIP3   OH2 9905   2.475   4.947   1.514
 3300TIP3    H1 9906   2.397   4.968   1.567
 3300TIP3    H2 9907   2.489   5.025   1.460
 3301TIP3   OH2 9908   1.229   5.644   1.850
 3301TIP3    H1 9909   1.187   5.660   1.765
 3301TIP3    H2 9910   1.191   5.562   1.880
 3302TIP3   OH2 9911   1.137   5.973   2.685
 3302TIP3    H1 9912   1.084   6.052   2.692
 3302TIP3    H2 9913   1.147   5.943   2.776
 3303TIP3   OH2 9914   2.616   5.836   2.734
 3303TIP3    H1 9915   2.529   5.856   2.699
 3303TIP3    H2 9916   2.628   5.743   2.718
 3304TIP3   OH2 9917   1.603   5.085   2.545
 3304TIP3    H1 9918   1.519   5.053   2.512
 3304TIP3    H2 9919   1.581   5.164   2.593
 3305TIP3   OH2 9920   2.144   5.197   2.740
 3305TIP3    H1 9921   2.214   5.174   2.801
 3305TIP3    H2 9922   2.063   5.180   2.788
 3306TIP3   OH2 9923   2.374   5.626   2.664
 3306TIP3    H1 9924   2.326   5.621   2.747
 3306TIP3    H2 9925   2.351   5.712   2.629
 3307TIP3   OH2 9926   2.046   5.749   1.218
 3307TIP3    H1 9927   2.029   5.705   1.135
 3307TIP3    H2 9928   2.126   5.799   1.202
 3308TIP3   OH2 9929   1.752   5.123   1.513
 3308TIP3    H1 9930   1.718   5.129   1.602
 3308TIP3    H2 9931   1.714   5.043   1.477
 3309TIP3   OH2 9932   1.555   5.579   2.556
 3309TIP3    H1 9933   1.511   5.600   2.638
 3309TIP3    H2 9934   1.528   5.648   2.496
 3310TIP3   OH2 9935   1.429   5.486   2.067
 3310TIP3    H1 9936   1.340   5.467   2.097
 3310TIP3    H2 9937   1.433   5.447   1.979
 3311TIP3   OH2 9938   1.907   5.558   1.799
 3311TIP3    H1 9939   1.864   5.630   1.754
 3311TIP3    H2 9940   1.968   5.523   1.735
 3312TIP3   OH2 9941   2.115   5.817   2.866
 3312TIP3    H1 9942   2.089   5.751   2.930
 3312TIP3    H2 9943   2.201   5.847   2.896
 3313TIP3   OH2 9944   2.065   5.574   2.034
 3313TIP3    H1 9945   2.000   5.608   1.973
 3313TIP3    H2 9946   2.107   5.501   1.988
 3314TIP3   OH2 9947   1.367   5.589   2.756
 3314TIP3    H1 9948   1.377   5.671   2.805
 3314TIP3    H2 9949   1.352   5.522   2.823
 3315TIP3   OH2 9950   1.413   5.109   1.479
 3315TIP3    H1 9951   1.405   5.111   1.575
 3315TIP3    H2 9952   1.336   5.156   1.448
 3316TIP3   OH2 9953   0.960   5.148   2.351
 3316TIP3    H1 9954   1.031   5.182   2.405
 3316TIP3    H2 9955   1.001   5.128   2.267
 3317TIP3   OH2 9956   0.896   5.123   1.864
 3317TIP3    H1 9957   0.940   5.160   1.787
 3317TIP3    H2 9958   0.831   5.189   1.889
 3318TIP3   OH2 9959   2.091   5.825   2.449
 3318TIP3    H1 9960   2.119   5.757   2.388
 3318TIP3    H2 9961   2.054   5.777   2.523
 3319TIP3   OH2 9962   1.779   5.287   2.127
 3319TIP3    H1 9963   1.702   5.289   2.183
 3319TIP3    H2 9964   1.853   5.281   2.188
 3320TIP3   OH2 9965   1.195   5.365   2.133
 3320TIP3    H1 9966   1.106   5.367   2.097
 3320TIP3    H2 9967   1.225   5.275   2.120
 3321TIP3   OH2 9968   1.437   5.360   1.826
 3321TIP3    H1 9969   1.530   5.377   1.813
 3321TIP3    H2 9970   1.397   5.380   1.742
 3322TIP3   OH2 9971   2.244   5.374   2.335
 3322TIP3    H1 9972   2.224   5.392   2.427
 3322TIP3    H2 9973   2.174   5.316   2.307
 3323TIP3   OH2 9974   1.309   5.391   1.587
 3323TIP3    H1 9975   1.244   5.346   1.534
 3323TIP3    H2 9976   1.364   5.437   1.524
 3324TIP3   OH2 9977   1.359   6.092   2.961
 3324TIP3    H1 9978   1.433   6.152   2.970
 3324TIP3    H2 9979   1.360   6.042   3.043
 3325TIP3   OH2 9980   1.841   5.627   2.228
 3325TIP3    H1 9981   1.911   5.575   2.191
 3325TIP3    H2 9982   1.834   5.597   2.319
 3326TIP3   OH2 9983   1.335   5.121   2.122
 3326TIP3    H1 9984   1.303   5.047   2.173
 3326TIP3    H2 9985   1.368   5.082   2.041
 3327TIP3   OH2 9986   1.818   5.550   2.496
 3327TIP3    H1 9987   1.727   5.570   2.520
 3327TIP3    H2 9988   1.870   5.603   2.556
 3328TIP3   OH2 9989   1.513   5.893   1.507
 3328TIP3    H1 9990   1.487   5.825   1.569
 3328TIP3    H2 9991   1.508   5.975   1.557
 3329TIP3   OH2 9992   4.576   0.019   2.259
 3329TIP3    H1 9993   4.576   0.094   2.200
 3329TIP3    H2 9994   4.523  -0.047   2.214
 3330TIP3   OH2 9995   2.004   5.225   1.503
 3330TIP3    H1 9996   1.911   5.204   1.503
 3330TIP3    H2 9997   2.008   5.319   1.519
 3331TIP3   OH2 9998   2.071   5.482   1.586
 3331TIP3    H1 9999   2.167   5.485   1.595
 3331TIP3    H210000   2.049   5.558   1.533
 3332TIP3   OH210001   1.219   5.809   2.263
 3332TIP3    H110002   1.264   5.821   2.179
 3332TIP3    H210003   1.287   5.776   2.322
 3333TIP3   OH210004   1.145   5.810   2.918
 3333TIP3    H110005   1.150   5.799   3.013
 3333TIP3    H210006   1.070   5.756   2.892
 3334TIP3   OH210007   1.868   5.925   2.922
 3334TIP3    H110008   1.831   5.844   2.886
 3334TIP3    H210009   1.960   5.922   2.895
 3335TIP3   OH210010   2.492   5.570   1.414
 3335TIP3    H110011   2.437   5.524   1.351
 3335TIP3    H210012   2.497   5.659   1.380
 3336TIP3   OH210013   2.248   5.962   2.131
 3336TIP3    H110014   2.157   5.936   2.149
 3336TIP3    H210015   2.285   5.888   2.083
 3337TIP3   OH210016   0.896   5.540   1.621
 3337TIP3    H110017   0.930   5.626   1.648
 3337TIP3    H210018   0.812   5.533   1.667
 3338TIP3   OH210019   1.325   5.361   2.911
 3338TIP3    H110020   1.230   5.371   2.916
 3338TIP3    H210021   1.348   5.311   2.989
 3339TIP3   OH210022   2.162   5.979   1.403
 3339TIP3    H110023   2.171   5.945   1.492
 3339TIP3    H210024   2.200   6.067   1.407
 3340TIP3   OH210025   0.963   5.783   1.722
 3340TIP3    H110026   0.936   5.874   1.737
 3340TIP3    H210027   1.039   5.790   1.664
 3341TIP3   OH210028   2.180   5.432   2.598
 3341TIP3    H110029   2.257   5.474   2.637
 3341TIP3    H210030   2.166   5.354   2.651
 3342TIP3   OH210031   2.060   5.178   1.776
 3342TIP3    H110032   2.042   5.197   1.683
 3342TIP3    H210033   2.104   5.257   1.807
 3343TIP3   OH210034   1.716   5.375   1.871
 3343TIP3    H110035   1.781   5.440   1.846
 3343TIP3    H210036   1.735   5.356   1.963
 3344TIP3   OH210037   2.016   5.664   2.655
 3344TIP3    H110038   2.050   5.709   2.733
 3344TIP3    H210039   2.065   5.581   2.652
 3345TIP3   OH210040   1.877   5.078   1.960
 3345TIP3    H110041   1.856   5.155   2.013
 3345TIP3    H210042   1.945   5.109   1.900
 3346TIP3   OH210043   1.392   5.092   1.757
 3346TIP3    H110044   1.381   5.181   1.791
 3346TIP3    H210045   1.486   5.076   1.764
 3347TIP3   OH210046   2.636   5.566   2.651
 3347TIP3    H110047   2.541   5.576   2.661
 3347TIP3    H210048   2.646   5.522   2.566
 3348TIP3   OH210049   2.306   5.727   2.011
 3348TIP3    H110050   2.226   5.681   2.033
 3348TIP3    H210051   2.371   5.693   2.072
 3349TIP3   OH210052   0.945   5.272   1.643
 3349TIP3    H110053   0.955   5.367   1.647
 3349TIP3    H210054   0.872   5.259   1.582
 3350TIP3   OH210055   1.342   4.998   2.503
 3350TIP3    H110056   1.312   4.966   2.418
 3350TIP3    H210057   1.331   4.922   2.561
 3351TIP3   OH210058   1.068   6.024   3.209
 3351TIP3    H110059   1.156   6.063   3.212
 3351TIP3    H210060   1.042   6.031   3.117
 3352TIP3   OH210061   1.105   5.710   1.325
 3352TIP3    H110062   1.069   5.778   1.381
 3352TIP3    H210063   1.191   5.743   1.299
 3353TIP3   OH210064   3.965   0.080   2.907
 3353TIP3    H110065   3.987   0.133   2.830
 3353TIP3    H210066   3.973  -0.011   2.877
 3354TIP3   OH210067   4.462   0.016   2.539
 3354TIP3    H110068   4.525   0.047   2.474
 3354TIP3    H210069   4.406   0.093   2.556
 3355TIP3   OH210070   1.361   5.857   3.146
 3355TIP3    H110071   1.442   5.808   3.136
 3355TIP3    H210072   1.362   5.888   3.237
 3356TIP3   OH210073   1.470   5.679   1.672
 3356TIP3    H110074   1.392   5.657   1.724
 3356TIP3    H210075   1.464   5.621   1.595
 3357TIP3   OH210076   1.650   5.751   2.777
 3357TIP3    H110077   1.574   5.806   2.796
 3357TIP3    H210078   1.694   5.795   2.704
 3358TIP3   OH210079   1.477   5.535   1.428
 3358TIP3    H110080   1.444   5.528   1.338
 3358TIP3    H210081   1.572   5.545   1.418
 3359TIP3   OH210082   2.135   6.103   2.955
 3359TIP3    H110083   2.227   6.127   2.961
 3359TIP3    H210084   2.118   6.052   3.034
 3360TIP3   OH210085   2.285   5.828   1.083
 3360TIP3    H110086   2.258   5.789   1.000
 3360TIP3    H210087   2.303   5.919   1.063
 3361TIP3   OH210088   1.755   5.565   2.935
 3361TIP3    H110089   1.761   5.486   2.882
 3361TIP3    H210090   1.715   5.630   2.876
 3362TIP3   OH210091   1.755   5.370   2.730
 3362TIP3    H110092   1.781   5.412   2.648
 3362TIP3    H210093   1.661   5.351   2.718
 3363TIP3   OH210094   1.784   5.896   2.594
 3363TIP3    H110095   1.866   5.903   2.544
 3363TIP3    H210096   1.739   5.979   2.579
 3364TIP3   OH210097   2.371   5.863   2.984
 3364TIP3    H110098   2.415   5.779   2.998
 3364TIP3    H210099   2.430   5.911   2.926
 3365TIP3   OH210100   2.444   6.069   2.755
 3365TIP3    H110101   2.373   6.100   2.699
 3365TIP3    H210102   2.523   6.086   2.705
 3366TIP3   OH210103   1.614   5.676   3.159
 3366TIP3    H110104   1.557   5.604   3.185
 3366TIP3    H210105   1.655   5.646   3.078
 3367TIP3   OH210106   1.879   5.139   2.821
 3367TIP3    H110107   1.837   5.219   2.789
 3367TIP3    H210108   1.812   5.071   2.809
 3368TIP3   OH210109   2.012   5.620   3.026
 3368TIP3    H110110   2.001   5.622   3.121
 3368TIP3    H210111   1.926   5.595   2.992
 3369TIP3   OH210112   2.250   5.558   2.892
 3369TIP3    H110113   2.174   5.562   2.950
 3369TIP3    H210114   2.324   5.541   2.951
 3370TIP3   OH210115   2.487   5.535   3.039
 3370TIP3    H110116   2.500   5.440   3.046
 3370TIP3    H210117   2.479   5.565   3.130
 3371TIP3   OH210118   1.469   5.450   3.232
 3371TIP3    H110119   1.472   5.362   3.196
 3371TIP3    H210120   1.504   5.442   3.320
 3372TIP3   OH210121   1.956   5.132   3.084
 3372TIP3    H110122   2.025   5.066   3.078
 3372TIP3    H210123   1.921   5.139   2.995
 3373TIP3   OH210124   2.036   5.348   3.234
 3373TIP3    H110125   2.011   5.277   3.175
 3373TIP3    H210126   1.963   5.410   3.228
 3374TIP3   OH210127   2.474   6.054   1.407
 3374TIP3    H110128   2.542   6.122   1.407
 3374TIP3    H210129   2.498   5.998   1.481
 3375TIP3   OH210130   2.558   5.894   1.610
 3375TIP3    H110131   2.496   5.848   1.667
 3375TIP3    H210132   2.632   5.916   1.666
 3376TIP3   OH210133   2.482   5.807   1.274
 3376TIP3    H110134   2.411   5.795   1.211
 3376TIP3    H210135   2.463   5.889   1.318
 3377TIP3   OH210136   2.343   5.471   1.209
 3377TIP3    H110137   2.295   5.514   1.138
 3377TIP3    H210138   2.328   5.378   1.196
 3378TIP3   OH210139   2.374   5.748   1.751
 3378TIP3    H110140   2.376   5.654   1.731
 3378TIP3    H210141   2.356   5.752   1.845
 3379TIP3   OH210142   0.985   5.753   2.542
 3379TIP3    H110143   0.977   5.738   2.448
 3379TIP3    H210144   1.080   5.758   2.557
 3380TIP3   OH210145   4.809   0.037   2.591
 3380TIP3    H110146   4.885  -0.021   2.601
 3380TIP3    H210147   4.805   0.053   2.497
 3381TIP3   OH210148   2.830   5.977   2.651
 3381TIP3    H110149   2.754   5.927   2.678
 3381TIP3    H210150   2.905   5.921   2.669
 3382TIP3   OH210151   2.293   5.202   1.183
 3382TIP3    H110152   2.357   5.174   1.248
 3382TIP3    H210153   2.211   5.160   1.209
 3383TIP3   OH210154   2.358   5.483   1.645
 3383TIP3    H110155   2.400   5.398   1.662
 3383TIP3    H210156   2.404   5.518   1.569
 3384TIP3   OH210157   2.512   5.632   2.168
 3384TIP3    H110158   2.592   5.657   2.122
 3384TIP3    H210159   2.522   5.672   2.255
 3385TIP3   OH210160   2.576   5.763   2.414
 3385TIP3    H110161   2.499   5.791   2.463
 3385TIP3    H210162   2.586   5.829   2.345
 3386TIP3   OH210163   1.204   5.508   3.185
 3386TIP3    H110164   1.299   5.504   3.197
 3386TIP3    H210165   1.172   5.425   3.221
 3387TIP3   OH210166   3.040   5.401   2.934
 3387TIP3    H110167   3.102   5.341   2.892
 3387TIP3    H210168   3.001   5.449   2.861
 3388TIP3   OH210169   2.466   5.233   1.696
 3388TIP3    H110170   2.512   5.217   1.779
 3388TIP3    H210171   2.404   5.161   1.688
 3389TIP3   OH210172   1.169   5.216   2.520
 3389TIP3    H110173   1.226   5.140   2.527
 3389TIP3    H210174   1.228   5.289   2.505
 3390TIP3   OH210175   0.954   5.469   2.578
 3390TIP3    H110176   1.010   5.453   2.502
 3390TIP3    H210177   0.959   5.564   2.592
 3391TIP3   OH210178   2.894   5.513   2.733
 3391TIP3    H110179   2.808   5.554   2.742
 3391TIP3    H210180   2.878   5.435   2.680
 3392TIP3   OH210181   2.522   5.151   1.337
 3392TIP3    H110182   2.564   5.089   1.278
 3392TIP3    H210183   2.582   5.226   1.339
 3393TIP3   OH210184   0.947   4.983   2.091
 3393TIP3    H110185   0.859   4.976   2.128
 3393TIP3    H210186   0.937   5.041   2.016
 3394TIP3   OH210187   1.163   5.045   2.902
 3394TIP3    H110188   1.116   5.049   2.986
 3394TIP3    H210189   1.109   5.096   2.842
 3395TIP3   OH210190   2.806   5.267   2.630
 3395TIP3    H110191   2.718   5.258   2.594
 3395TIP3    H210192   2.844   5.180   2.622
 3396TIP3   OH210193   2.013   5.199   2.260
 3396TIP3    H110194   1.974   5.127   2.309
 3396TIP3    H210195   2.082   5.158   2.208
 3397TIP3   OH210196   2.514   5.095   2.149
 3397TIP3    H110197   2.553   5.145   2.077
 3397TIP3    H210198   2.422   5.122   2.150
 3398TIP3   OH210199   2.627   5.180   1.914
 3398TIP3    H110200   2.697   5.121   1.886
 3398TIP3    H210201   2.663   5.268   1.902
 3399TIP3   OH210202   1.255   4.897   2.261
 3399TIP3    H110203   1.164   4.866   2.268
 3399TIP3    H210204   1.307   4.817   2.256
 3400TIP3   OH210205   1.065   4.793   1.915
 3400TIP3    H110206   1.090   4.848   1.840
 3400TIP3    H210207   1.030   4.854   1.979
 3401TIP3   OH210208   1.720   4.937   2.152
 3401TIP3    H110209   1.769   4.983   2.084
 3401TIP3    H210210   1.758   4.966   2.234
 3402TIP3   OH210211   2.228   5.082   2.130
 3402TIP3    H110212   2.242   5.046   2.042
 3402TIP3    H210213   2.229   5.006   2.188
 3403TIP3   OH210214   2.281   5.023   1.696
 3403TIP3    H110215   2.200   5.070   1.719
 3403TIP3    H210216   2.270   4.937   1.735
 3404TIP3   OH210217   1.173   4.935   1.674
 3404TIP3    H110218   1.218   4.874   1.616
 3404TIP3    H210219   1.243   4.990   1.710
 3405TIP3   OH210220   1.667   5.123   1.776
 3405TIP3    H110221   1.728   5.074   1.832
 3405TIP3    H210222   1.679   5.214   1.802
 3406TIP3   OH210223   1.469   5.179   3.145
 3406TIP3    H110224   1.434   5.112   3.204
 3406TIP3    H210225   1.562   5.185   3.169
 3407TIP3   OH210226   1.720   5.182   3.268
 3407TIP3    H110227   1.801   5.161   3.222
 3407TIP3    H210228   1.711   5.114   3.334
 3408TIP3   OH210229   2.548   5.265   3.056
 3408TIP3    H110230   2.564   5.235   3.146
 3408TIP3    H210231   2.634   5.259   3.014
 3409TIP3   OH210232   5.908   0.069   1.338
 3409TIP3    H110233   5.864   0.149   1.367
 3409TIP3    H210234   5.837   0.014   1.304
 3410TIP3   OH210235   5.964   0.038   1.693
 3410TIP3    H110236   5.990   0.016   1.783
 3410TIP3    H210237   5.904  -0.032   1.668
 3411TIP3   OH210238   3.054   6.032   2.050
 3411TIP3    H110239   3.101   5.978   2.113
 3411TIP3    H210240   3.053   6.119   2.088
 3412TIP3   OH210241   2.724   5.672   1.542
 3412TIP3    H110242   2.683   5.755   1.565
 3412TIP3    H210243   2.652   5.618   1.510
 3413TIP3   OH210244   2.778   5.966   1.750
 3413TIP3    H110245   2.822   5.892   1.791
 3413TIP3    H210246   2.846   6.033   1.744
 3414TIP3   OH210247   5.739   0.176   1.752
 3414TIP3    H110248   5.823   0.157   1.712
 3414TIP3    H210249   5.714   0.261   1.716
 3415TIP3   OH210250   4.568   5.725   1.739
 3415TIP3    H110251   4.592   5.808   1.780
 3415TIP3    H210252   4.606   5.728   1.651
 3416TIP3   OH210253   3.961   5.895   1.769
 3416TIP3    H110254   3.997   5.809   1.791
 3416TIP3    H210255   3.923   5.883   1.682
 3417TIP3   OH210256   3.313   5.555   1.730
 3417TIP3    H110257   3.290   5.628   1.672
 3417TIP3    H210258   3.259   5.482   1.699
 3418TIP3   OH210259   4.005   5.653   1.367
 3418TIP3    H110260   4.071   5.642   1.435
 3418TIP3    H210261   4.053   5.687   1.292
 3419TIP3   OH210262   2.930   5.756   1.849
 3419TIP3    H110263   3.013   5.751   1.896
 3419TIP3    H210264   2.945   5.707   1.768
 3420TIP3   OH210265   3.380   5.962   1.594
 3420TIP3    H110266   3.467   5.941   1.628
 3420TIP3    H210267   3.339   5.877   1.578
 3421TIP3   OH210268   4.637   5.936   1.915
 3421TIP3    H110269   4.548   5.970   1.905
 3421TIP3    H210270   4.664   5.966   2.002
 3422TIP3   OH210271   3.288   5.548   2.184
 3422TIP3    H110272   3.237   5.584   2.111
 3422TIP3    H210273   3.233   5.563   2.260
 3423TIP3   OH210274   5.493   0.118   1.860
 3423TIP3    H110275   5.479   0.197   1.911
 3423TIP3    H210276   5.579   0.129   1.821
 3424TIP3   OH210277   4.176   5.664   1.576
 3424TIP3    H110278   4.136   5.644   1.661
 3424TIP3    H210279   4.234   5.738   1.594
 3425TIP3   OH210280   3.176   5.654   1.951
 3425TIP3    H110281   3.231   5.729   1.975
 3425TIP3    H210282   3.223   5.613   1.878
 3426TIP3   OH210283   4.364   5.626   1.909
 3426TIP3    H110284   4.279   5.645   1.870
 3426TIP3    H210285   4.427   5.651   1.842
 3427TIP3   OH210286   3.633   5.249   1.901
 3427TIP3    H110287   3.625   5.157   1.925
 3427TIP3    H210288   3.557   5.291   1.942
 3428TIP3   OH210289   3.585   6.043   1.160
 3428TIP3    H110290   3.498   6.078   1.141
 3428TIP3    H210291   3.634   6.054   1.078
 3429TIP3   OH210292   3.546   5.812   0.902
 3429TIP3    H110293   3.603   5.868   0.954
 3429TIP3    H210294   3.603   5.743   0.868
 3430TIP3   OH210295   0.123   0.153   1.771
 3430TIP3    H110296   0.043   0.204   1.767
 3430TIP3    H210297   0.156   0.152   1.681
 3431TIP3   OH210298   3.908   6.105   1.154
 3431TIP3    H110299   3.857   6.133   1.230
 3431TIP3    H210300   3.992   6.075   1.190
 3432TIP3   OH210301   6.314   0.014   2.028
 3432TIP3    H110302   6.315   0.109   2.043
 3432TIP3    H210303   6.228  -0.003   1.989
 3433TIP3   OH210304   3.142   6.096   1.533
 3433TIP3    H110305   3.107   6.040   1.463
 3433TIP3    H210306   3.230   6.062   1.548
 3434TIP3   OH210307   3.264   5.987   1.842
 3434TIP3    H110308   3.296   5.977   1.752
 3434TIP3    H210309   3.277   6.080   1.861
 3435TIP3   OH210310   3.785   5.943   0.973
 3435TIP3    H110311   3.836   6.000   1.031
 3435TIP3    H210312   3.818   5.963   0.885
 3436TIP3   OH210313   5.349  -0.007   2.298
 3436TIP3    H110314   5.362   0.081   2.333
 3436TIP3    H210315   5.264  -0.034   2.331
 3437TIP3   OH210316   4.273   5.201   1.040
 3437TIP3    H110317   4.204   5.223   1.103
 3437TIP3    H210318   4.290   5.283   0.993
 3438TIP3   OH210319   3.015   5.933   1.333
 3438TIP3    H110320   2.934   5.972   1.302
 3438TIP3    H210321   2.989   5.848   1.370
 3439TIP3   OH210322   5.112   0.137   2.158
 3439TIP3    H110323   5.034   0.153   2.105
 3439TIP3    H210324   5.078   0.106   2.242
 3440TIP3   OH210325   4.400   6.103   2.214
 3440TIP3    H110326   4.317   6.115   2.168
 3440TIP3    H210327   4.418   6.009   2.206
 3441TIP3   OH210328   3.398   5.342   2.030
 3441TIP3    H110329   3.315   5.307   1.997
 3441TIP3    H210330   3.374   5.419   2.080
 3442TIP3   OH210331   3.940   5.457   2.227
 3442TIP3    H110332   4.010   5.428   2.285
 3442TIP3    H210333   3.859   5.435   2.273
 3443TIP3   OH210334   4.164   5.888   2.147
 3443TIP3    H110335   4.118   5.890   2.231
 3443TIP3    H210336   4.145   5.973   2.107
 3444TIP3   OH210337   3.853   6.102   0.769
 3444TIP3    H110338   3.787   6.100   0.700
 3444TIP3    H210339   3.810   6.146   0.842
 3445TIP3   OH210340   3.551   5.390   1.012
 3445TIP3    H110341   3.519   5.393   1.102
 3445TIP3    H210342   3.515   5.309   0.976
 3446TIP3   OH210343   3.355   5.847   2.052
 3446TIP3    H110344   3.296   5.854   2.127
 3446TIP3    H210345   3.319   5.907   1.987
 3447TIP3   OH210346   3.221   5.742   1.554
 3447TIP3    H110347   3.132   5.722   1.583
 3447TIP3    H210348   3.228   5.702   1.467
 3448TIP3   OH210349   3.703   5.826   1.293
 3448TIP3    H110350   3.663   5.898   1.245
 3448TIP3    H210351   3.764   5.787   1.230
 3449TIP3   OH210352   3.900   6.118   2.380
 3449TIP3    H110353   3.863   6.041   2.424
 3449TIP3    H210354   3.995   6.109   2.390
 3450TIP3   OH210355   3.869   5.845   1.516
 3450TIP3    H110356   3.798   5.864   1.454
 3450TIP3    H210357   3.915   5.770   1.477
 3451TIP3   OH210358   3.171   5.847   2.249
 3451TIP3    H110359   3.152   5.924   2.304
 3451TIP3    H210360   3.147   5.772   2.303
 3452TIP3   OH210361   3.194   5.372   0.980
 3452TIP3    H110362   3.191   5.365   1.075
 3452TIP3    H210363   3.116   5.423   0.957
 3453TIP3   OH210364   2.756   5.404   1.837
 3453TIP3    H110365   2.827   5.437   1.892
 3453TIP3    H210366   2.799   5.376   1.756
 3454TIP3   OH210367   2.684   5.378   1.352
 3454TIP3    H110368   2.727   5.411   1.273
 3454TIP3    H210369   2.622   5.446   1.376
 3455TIP3   OH210370   3.887   6.083   1.945
 3455TIP3    H110371   3.916   6.017   1.882
 3455TIP3    H210372   3.851   6.032   2.018
 3456TIP3   OH210373   3.577   5.550   1.616
 3456TIP3    H110374   3.498   5.549   1.670
 3456TIP3    H210375   3.649   5.539   1.679
 3457TIP3   OH210376   2.984   5.621   1.616
 3457TIP3    H110377   2.894   5.625   1.583
 3457TIP3    H210378   3.011   5.531   1.603
 3458TIP3   OH210379   3.235   5.616   1.315
 3458TIP3    H110380   3.328   5.631   1.298
 3458TIP3    H210381   3.192   5.637   1.232
 3459TIP3   OH210382   4.034   5.633   1.822
 3459TIP3    H110383   4.012   5.650   1.914
 3459TIP3    H210384   3.966   5.573   1.792
 3460TIP3   OH210385   3.097   5.654   1.084
 3460TIP3    H110386   3.030   5.611   1.030
 3460TIP3    H210387   3.154   5.698   1.020
 3461TIP3   OH210388   5.369   0.211   2.445
 3461TIP3    H110389   5.447   0.267   2.446
 3461TIP3    H210390   5.337   0.212   2.535
 3462TIP3   OH210391   3.630   5.897   1.710
 3462TIP3    H110392   3.697   5.843   1.669
 3462TIP3    H210393   3.621   5.861   1.798
 3463TIP3   OH210394   3.131   5.375   1.612
 3463TIP3    H110395   3.099   5.301   1.664
 3463TIP3    H210396   3.169   5.334   1.534
 3464TIP3   OH210397   3.610   5.803   1.975
 3464TIP3    H110398   3.521   5.823   2.002
 3464TIP3    H210399   3.665   5.851   2.037
 3465TIP3   OH210400   5.517   0.043   1.083
 3465TIP3    H110401   5.445  -0.020   1.086
 3465TIP3    H210402   5.490   0.113   1.143
 3466TIP3   OH210403   6.382   0.300   1.757
 3466TIP3    H110404   6.398   0.371   1.695
 3466TIP3    H210405   6.320   0.243   1.712
 3467TIP3   OH210406   3.803   5.479   1.005
 3467TIP3    H110407   3.709   5.463   1.010
 3467TIP3    H210408   3.813   5.573   1.019
 3468TIP3   OH210409   3.874   5.724   1.097
 3468TIP3    H110410   3.969   5.731   1.102
 3468TIP3    H210411   3.848   5.792   1.035
 3469TIP3   OH210412   3.000   6.140   1.769
 3469TIP3    H110413   3.054   6.129   1.690
 3469TIP3    H210414   3.049   6.096   1.838
 3470TIP3   OH210415   2.956   6.025   2.401
 3470TIP3    H110416   2.949   6.018   2.496
 3470TIP3    H210417   2.870   6.054   2.372
 3471TIP3   OH210418   4.247   5.877   0.930
 3471TIP3    H110419   4.197   5.819   0.872
 3471TIP3    H210420   4.293   5.937   0.872
 3472TIP3   OH210421   6.206   0.148   1.620
 3472TIP3    H110422   6.115   0.126   1.640
 3472TIP3    H210423   6.238   0.072   1.572
 3473TIP3   OH210424   2.723   5.804   1.143
 3473TIP3    H110425   2.758   5.892   1.156
 3473TIP3    H210426   2.643   5.802   1.195
 3474TIP3   OH210427   3.114   5.618   2.394
 3474TIP3    H110428   3.019   5.630   2.397
 3474TIP3    H210429   3.132   5.555   2.464
 3475TIP3   OH210430   6.116   0.217   0.990
 3475TIP3    H110431   6.120   0.147   1.054
 3475TIP3    H210432   6.159   0.181   0.912
 3476TIP3   OH210433   2.803   6.065   1.199
 3476TIP3    H110434   2.729   6.119   1.225
 3476TIP3    H210435   2.857   6.123   1.146
 3477TIP3   OH210436   3.971   5.692   2.086
 3477TIP3    H110437   4.052   5.731   2.118
 3477TIP3    H210438   3.961   5.611   2.137
 3478TIP3   OH210439   3.857   5.438   1.273
 3478TIP3    H110440   3.840   5.455   1.180
 3478TIP3    H210441   3.900   5.518   1.304
 3479TIP3   OH210442   3.516   5.633   1.358
 3479TIP3    H110443   3.579   5.701   1.334
 3479TIP3    H210444   3.532   5.616   1.450
 3480TIP3   OH210445   3.808   5.911   2.141
 3480TIP3    H110446   3.831   5.934   2.231
 3480TIP3    H210447   3.856   5.830   2.124
 3481TIP3   OH210448   3.671   5.342   1.451
 3481TIP3    H110449   3.649   5.419   1.503
 3481TIP3    H210450   3.739   5.372   1.391
 3482TIP3   OH210451   3.186   5.348   1.254
 3482TIP3    H110452   3.176   5.437   1.288
 3482TIP3    H210453   3.280   5.331   1.258
 3483TIP3   OH210454   4.428   5.828   2.130
 3483TIP3    H110455   4.333   5.837   2.142
 3483TIP3    H210456   4.437   5.770   2.054
 3484TIP3   OH210457   4.099   6.025   1.511
 3484TIP3    H110458   4.018   5.975   1.525
 3484TIP3    H210459   4.163   5.981   1.566
 3485TIP3   OH210460   2.741   5.524   1.131
 3485TIP3    H110461   2.762   5.616   1.142
 3485TIP3    H210462   2.674   5.523   1.062
 3486TIP3   OH210463   3.136   5.253   1.993
 3486TIP3    H110464   3.108   5.219   1.908
 3486TIP3    H210465   3.125   5.180   2.053
 3487TIP3   OH210466   5.052   0.187   2.709
 3487TIP3    H110467   5.146   0.204   2.703
 3487TIP3    H210468   5.027   0.158   2.621
 3488TIP3   OH210469   2.926   6.038   0.869
 3488TIP3    H110470   2.967   6.020   0.954
 3488TIP3    H210471   2.998   6.036   0.807
 3489TIP3   OH210472   6.251   0.306   2.006
 3489TIP3    H110473   6.301   0.306   1.925
 3489TIP3    H210474   6.219   0.396   2.013
 3490TIP3   OH210475   3.137   6.076   2.658
 3490TIP3    H110476   3.216   6.067   2.605
 3490TIP3    H210477   3.155   6.149   2.717
 3491TIP3   OH210478   3.146   5.989   1.087
 3491TIP3    H110479   3.116   5.952   1.170
 3491TIP3    H210480   3.184   5.915   1.040
 3492TIP3   OH210481   3.448   6.063   2.304
 3492TIP3    H110482   3.354   6.075   2.289
 3492TIP3    H210483   3.489   6.090   2.222
 3493TIP3   OH210484   3.263   5.798   0.922
 3493TIP3    H110485   3.230   5.794   0.833
 3493TIP3    H210486   3.358   5.790   0.914
 3494TIP3   OH210487   3.547   5.833   2.410
 3494TIP3    H110488   3.545   5.758   2.350
 3494TIP3    H210489   3.510   5.905   2.360
 3495TIP3   OH210490   3.549   5.630   2.214
 3495TIP3    H110491   3.574   5.662   2.128
 3495TIP3    H210492   3.457   5.605   2.205
 3496TIP3   OH210493   5.757   0.044   2.098
 3496TIP3    H110494   5.820   0.020   2.031
 3496TIP3    H210495   5.717   0.125   2.066
 3497TIP3   OH210496   4.167   6.125   2.472
 3497TIP3    H110497   4.210   6.042   2.490
 3497TIP3    H210498   4.232   6.176   2.424
 3498TIP3   OH210499   6.378   0.237   2.239
 3498TIP3    H110500   6.314   0.265   2.174
 3498TIP3    H210501   6.463   0.249   2.196
 3499TIP3   OH210502   3.423   5.931   2.645
 3499TIP3    H110503   3.358   5.865   2.668
 3499TIP3    H210504   3.453   5.906   2.557
 3500TIP3   OH210505   3.676   5.398   2.308
 3500TIP3    H110506   3.633   5.477   2.276
 3500TIP3    H210507   3.612   5.328   2.296
 3501TIP3   OH210508   3.784   5.912   2.519
 3501TIP3    H110509   3.779   5.873   2.607
 3501TIP3    H210510   3.706   5.879   2.474
 3502TIP3   OH210511   4.040   5.853   2.386
 3502TIP3    H110512   3.968   5.841   2.448
 3502TIP3    H210513   4.117   5.821   2.433
 3503TIP3   OH210514   4.272   5.790   2.527
 3503TIP3    H110515   4.289   5.696   2.532
 3503TIP3    H210516   4.273   5.819   2.619
 3504TIP3   OH210517   3.269   5.712   2.719
 3504TIP3    H110518   3.267   5.625   2.679
 3504TIP3    H210519   3.306   5.697   2.806
 3505TIP3   OH210520   3.752   5.391   2.572
 3505TIP3    H110521   3.820   5.324   2.568
 3505TIP3    H210522   3.718   5.396   2.483
 3506TIP3   OH210523   3.836   5.608   2.716
 3506TIP3    H110524   3.812   5.533   2.661
 3506TIP3    H210525   3.758   5.665   2.714
 3507TIP3   OH210526   6.469   0.209   0.914
 3507TIP3    H110527   6.562   0.228   0.900
 3507TIP3    H210528   6.467   0.161   0.998
 3508TIP3   OH210529   0.015   0.073   1.146
 3508TIP3    H110530  -0.039   0.006   1.188
 3508TIP3    H210531   0.093   0.079   1.202
 3509TIP3   OH210532   6.451  -0.029   0.751
 3509TIP3    H110533   6.430  -0.022   0.657
 3509TIP3    H210534   6.478   0.060   0.775
 3510TIP3   OH210535   4.125   5.734   0.744
 3510TIP3    H110536   4.194   5.744   0.679
 3510TIP3    H210537   4.112   5.640   0.752
 3511TIP3   OH210538   4.154   6.015   1.243
 3511TIP3    H110539   4.182   5.924   1.230
 3511TIP3    H210540   4.144   6.024   1.338
 3512TIP3   OH210541   2.787   5.996   2.048
 3512TIP3    H110542   2.760   6.069   1.993
 3512TIP3    H210543   2.882   5.997   2.045
 3513TIP3   OH210544   0.101   0.299   2.094
 3513TIP3    H110545   0.176   0.241   2.092
 3513TIP3    H210546   0.116   0.361   2.022
 3514TIP3   OH210547   0.292   0.104   2.137
 3514TIP3    H110548   0.212   0.058   2.165
 3514TIP3    H210549   0.362   0.041   2.151
 3515TIP3   OH210550   4.059   5.476   0.777
 3515TIP3    H110551   4.144   5.445   0.807
 3515TIP3    H210552   3.999   5.403   0.793
 3516TIP3   OH210553   4.152   5.739   1.147
 3516TIP3    H110554   4.199   5.656   1.154
 3516TIP3    H210555   4.196   5.785   1.075
 3517TIP3   OH210556   4.303   5.899   1.653
 3517TIP3    H110557   4.382   5.919   1.605
 3517TIP3    H210558   4.318   5.933   1.741
 3518TIP3   OH210559   4.376   6.044   1.882
 3518TIP3    H110560   4.298   6.071   1.931
 3518TIP3    H210561   4.409   6.124   1.843
 3519TIP3   OH210562   2.999   5.766   2.688
 3519TIP3    H110563   3.095   5.761   2.691
 3519TIP3    H210564   2.970   5.680   2.719
 3520TIP3   OH210565   4.832   5.659   2.417
 3520TIP3    H110566   4.896   5.597   2.382
 3520TIP3    H210567   4.798   5.705   2.341
 3521TIP3   OH210568   4.255   5.486   1.188
 3521TIP3    H110569   4.303   5.476   1.270
 3521TIP3    H210570   4.189   5.417   1.190
 3522TIP3   OH210571   2.964   5.472   2.007
 3522TIP3    H110572   3.021   5.395   2.015
 3522TIP3    H210573   3.025   5.545   1.994
 3523TIP3   OH210574   2.748   5.719   2.059
 3523TIP3    H110575   2.805   5.701   1.984
 3523TIP3    H210576   2.753   5.814   2.069
 3524TIP3   OH210577   4.685   5.767   2.212
 3524TIP3    H110578   4.597   5.804   2.216
 3524TIP3    H210579   4.674   5.685   2.164
 3525TIP3   OH210580   4.331   5.430   0.865
 3525TIP3    H110581   4.409   5.374   0.867
 3525TIP3    H210582   4.337   5.476   0.781
 3526TIP3   OH210583   2.742   5.242   1.580
 3526TIP3    H110584   2.654   5.233   1.617
 3526TIP3    H210585   2.729   5.297   1.502
 3527TIP3   OH210586   2.966   5.327   2.402
 3527TIP3    H110587   2.910   5.312   2.479
 3527TIP3    H210588   2.907   5.366   2.337
 3528TIP3   OH210589   4.599   5.516   2.117
 3528TIP3    H110590   4.510   5.498   2.089
 3528TIP3    H210591   4.645   5.432   2.110
 3529TIP3   OH210592   3.807   5.455   1.753
 3529TIP3    H110593   3.765   5.383   1.801
 3529TIP3    H210594   3.875   5.414   1.701
 3530TIP3   OH210595   4.307   5.353   1.634
 3530TIP3    H110596   4.347   5.404   1.564
 3530TIP3    H210597   4.215   5.381   1.636
 3531TIP3   OH210598   4.420   5.444   1.402
 3531TIP3    H110599   4.486   5.380   1.376
 3531TIP3    H210600   4.462   5.529   1.386
 3532TIP3   OH210601   3.050   5.149   1.751
 3532TIP3    H110602   2.960   5.117   1.759
 3532TIP3    H210603   3.104   5.070   1.746
 3533TIP3   OH210604   2.845   5.046   1.398
 3533TIP3    H110605   2.878   5.100   1.326
 3533TIP3    H210606   2.817   5.110   1.464
 3534TIP3   OH210607   3.510   5.202   1.639
 3534TIP3    H110608   3.564   5.247   1.574
 3534TIP3    H210609   3.552   5.223   1.723
 3535TIP3   OH210610   4.021   5.342   1.620
 3535TIP3    H110611   4.023   5.305   1.532
 3535TIP3    H210612   4.024   5.267   1.678
 3536TIP3   OH210613   4.072   5.275   1.205
 3536TIP3    H110614   3.991   5.323   1.225
 3536TIP3    H210615   4.058   5.189   1.245
 3537TIP3   OH210616   2.970   5.188   1.169
 3537TIP3    H110617   3.015   5.126   1.112
 3537TIP3    H210618   3.040   5.242   1.206
 3538TIP3   OH210619   3.460   5.381   1.269
 3538TIP3    H110620   3.517   5.328   1.325
 3538TIP3    H210621   3.476   5.471   1.296
 3539TIP3   OH210622   3.266   5.439   2.640
 3539TIP3    H110623   3.231   5.370   2.696
 3539TIP3    H210624   3.359   5.443   2.664
 3540TIP3   OH210625   3.521   5.442   2.759
 3540TIP3    H110626   3.598   5.417   2.708
 3540TIP3    H210627   3.510   5.372   2.822
 3541TIP3   OH210628   4.344   5.523   2.542
 3541TIP3    H110629   4.360   5.492   2.631
 3541TIP3    H210630   4.429   5.517   2.499
 3542TIP3   OH210631   0.512   0.184   1.548
 3542TIP3    H110632   0.547   0.137   1.623
 3542TIP3    H210633   0.536   0.276   1.563
 3543TIP3   OH210634   4.452   5.916   1.134
 3543TIP3    H110635   4.459   5.975   1.060
 3543TIP3    H210636   4.431   5.831   1.095
 3544TIP3   OH210637   0.271   0.109   1.245
 3544TIP3    H110638   0.307   0.029   1.283
 3544TIP3    H210639   0.341   0.144   1.190
 3545TIP3   OH210640   5.056   5.798   1.254
 3545TIP3    H110641   5.050   5.865   1.186
 3545TIP3    H210642   5.079   5.718   1.208
 3546TIP3   OH210643   4.722   6.020   1.354
 3546TIP3    H110644   4.804   5.999   1.399
 3546TIP3    H210645   4.727   5.973   1.271
 3547TIP3   OH210646   5.078   5.807   1.675
 3547TIP3    H110647   5.028   5.842   1.602
 3547TIP3    H210648   5.025   5.825   1.753
 3548TIP3   OH210649   4.950   5.920   1.464
 3548TIP3    H110650   5.007   5.996   1.478
 3548TIP3    H210651   4.990   5.873   1.391
 3549TIP3   OH210652   5.406   5.508   1.394
 3549TIP3    H110653   5.418   5.417   1.422
 3549TIP3    H210654   5.334   5.540   1.448
 3550TIP3   OH210655   0.337   0.412   1.675
 3550TIP3    H110656   0.276   0.352   1.631
 3550TIP3    H210657   0.353   0.371   1.760
 3551TIP3   OH210658   5.181   5.598   1.527
 3551TIP3    H110659   5.098   5.568   1.491
 3551TIP3    H210660   5.159   5.675   1.579
 3552TIP3   OH210661   0.769   0.006   1.524
 3552TIP3    H110662   0.731   0.027   1.609
 3552TIP3    H210663   0.759   0.086   1.473
 3553TIP3   OH210664   4.974   5.963   1.052
 3553TIP3    H110665   4.881   5.952   1.071
 3553TIP3    H210666   4.976   6.008   0.968
 3554TIP3   OH210667   0.623   0.033   1.761
 3554TIP3    H110668   0.632   0.080   1.844
 3554TIP3    H210669   0.612  -0.059   1.786
 3555TIP3   OH210670   4.559   5.665   1.326
 3555TIP3    H110671   4.615   5.698   1.396
 3555TIP3    H210672   4.618   5.655   1.250
 3556TIP3   OH210673   4.554   5.645   0.667
 3556TIP3    H110674   4.629   5.652   0.727
 3556TIP3    H210675   4.506   5.726   0.679
 3557TIP3   OH210676   4.720   5.906   1.110
 3557TIP3    H110677   4.624   5.908   1.116
 3557TIP3    H210678   4.742   5.814   1.116
 3558TIP3   OH210679   5.028   5.601   1.051
 3558TIP3    H110680   5.032   5.514   1.090
 3558TIP3    H210681   5.016   5.584   0.957
 3559TIP3   OH210682   0.347   0.262   1.908
 3559TIP3    H110683   0.384   0.216   1.983
 3559TIP3    H210684   0.282   0.201   1.872
 3560TIP3   OH210685   4.914   5.894   1.878
 3560TIP3    H110686   4.819   5.898   1.881
 3560TIP3    H210687   4.938   5.836   1.950
 3561TIP3   OH210688   4.970   5.567   0.761
 3561TIP3    H110689   4.946   5.645   0.712
 3561TIP3    H210690   5.054   5.540   0.723
 3562TIP3   OH210691   4.920   5.515   1.492
 3562TIP3    H110692   4.906   5.481   1.404
 3562TIP3    H210693   4.918   5.439   1.549
 3563TIP3   OH210694   0.376   0.467   2.110
 3563TIP3    H110695   0.466   0.450   2.136
 3563TIP3    H210696   0.365   0.419   2.027
 3564TIP3   OH210697   0.605   0.271   2.112
 3564TIP3    H110698   0.681   0.214   2.105
 3564TIP3    H210699   0.611   0.308   2.200
 3565TIP3   OH210700   5.296   6.103   1.910
 3565TIP3    H110701   5.322   6.013   1.932
 3565TIP3    H210702   5.317   6.112   1.817
 3566TIP3   OH210703   5.345   5.856   1.699
 3566TIP3    H110704   5.372   5.856   1.607
 3566TIP3    H210705   5.250   5.846   1.696
 3567TIP3   OH210706   0.817   0.087   2.117
 3567TIP3    H110707   0.787   0.006   2.159
 3567TIP3    H210708   0.867   0.057   2.040
 3568TIP3   OH210709   5.475   5.621   1.763
 3568TIP3    H110710   5.427   5.703   1.752
 3568TIP3    H210711   5.407   5.554   1.769
 3569TIP3   OH210712   5.055   5.964   2.214
 3569TIP3    H110713   5.062   5.878   2.173
 3569TIP3    H210714   5.098   5.954   2.299
 3570TIP3   OH210715   5.567   5.663   2.025
 3570TIP3    H110716   5.642   5.604   2.029
 3570TIP3    H210717   5.533   5.653   1.936
 3571TIP3   OH210718   5.573   5.835   2.236
 3571TIP3    H110719   5.582   5.780   2.158
 3571TIP3    H210720   5.503   5.897   2.214
 3572TIP3   OH210721   0.242   0.158   1.521
 3572TIP3    H110722   0.228   0.153   1.427
 3572TIP3    H210723   0.338   0.162   1.531
 3573TIP3   OH210724   4.790   6.019   2.169
 3573TIP3    H110725   4.885   6.014   2.180
 3573TIP3    H210726   4.758   5.934   2.199
 3574TIP3   OH210727   4.749   5.731   1.515
 3574TIP3    H110728   4.803   5.652   1.512
 3574TIP3    H210729   4.809   5.803   1.501
 3575TIP3   OH210730   4.533   6.004   1.555
 3575TIP3    H110731   4.592   5.977   1.484
 3575TIP3    H210732   4.547   6.099   1.561
 3576TIP3   OH210733   4.536   5.459   1.083
 3576TIP3    H110734   4.447   5.438   1.111
 3576TIP3    H210735   4.536   5.554   1.069
 3577TIP3   OH210736   4.754   5.583   1.888
 3577TIP3    H110737   4.699   5.565   1.964
 3577TIP3    H210738   4.694   5.622   1.824
 3578TIP3   OH210739   4.877   5.405   1.252
 3578TIP3    H110740   4.798   5.423   1.201
 3578TIP3    H210741   4.907   5.320   1.220
 3579TIP3   OH210742   4.786   5.329   0.994
 3579TIP3    H110743   4.803   5.339   0.900
 3579TIP3    H210744   4.691   5.336   1.002
 3580TIP3   OH210745   5.280   5.451   1.148
 3580TIP3    H110746   5.349   5.484   1.090
 3580TIP3    H210747   5.315   5.463   1.236
 3581TIP3   OH210748   4.760   5.391   0.716
 3581TIP3    H110749   4.732   5.375   0.626
 3581TIP3    H210750   4.841   5.441   0.707
 3582TIP3   OH210751   5.055   5.691   2.119
 3582TIP3    H110752   5.020   5.622   2.176
 3582TIP3    H210753   5.148   5.697   2.144
 3583TIP3   OH210754   5.298   5.692   2.248
 3583TIP3    H110755   5.384   5.679   2.208
 3583TIP3    H210756   5.290   5.621   2.312
 3584TIP3   OH210757   1.658   0.664   5.211
 3584TIP3    H110758   1.637   0.756   5.195
 3584TIP3    H210759   1.606   0.616   5.147
 3585TIP3   OH210760   3.867   3.759   0.277
 3585TIP3    H110761   3.941   3.700   0.290
 3585TIP3    H210762   3.819   3.720   0.204
 3586TIP3   OH210763   1.962   1.001   5.234
 3586TIP3    H110764   1.928   0.933   5.292
 3586TIP3    H210765   1.977   1.076   5.291
 3587TIP3   OH210766   1.608   1.424   5.281
 3587TIP3    H110767   1.635   1.359   5.216
 3587TIP3    H210768   1.583   1.372   5.358
 3588TIP3   OH210769   3.651   3.928   0.416
 3588TIP3    H110770   3.719   3.863   0.434
 3588TIP3    H210771   3.695   4.012   0.429
 3589TIP3   OH210772   4.665   3.308   0.262
 3589TIP3    H110773   4.694   3.393   0.295
 3589TIP3    H210774   4.715   3.294   0.183
 3590TIP3   OH210775   3.996   3.528   0.294
 3590TIP3    H110776   3.992   3.466   0.366
 3590TIP3    H210777   3.956   3.481   0.220
 3591TIP3   OH210778   1.943   0.119   5.282
 3591TIP3    H110779   2.036   0.123   5.307
 3591TIP3    H210780   1.943   0.141   5.188
 3592TIP3   OH210781   4.719   3.514   0.450
 3592TIP3    H110782   4.639   3.558   0.481
 3592TIP3    H210783   4.721   3.431   0.497
 3593TIP3   OH210784   1.551   0.879   5.078
 3593TIP3    H110785   1.544   0.877   4.983
 3593TIP3    H210786   1.510   0.962   5.104
 3594TIP3   OH210787   4.376   3.205   0.053
 3594TIP3    H110788   4.389   3.146   0.127
 3594TIP3    H210789   4.400   3.291   0.087
 3595TIP3   OH210790   4.165   4.288   0.079
 3595TIP3    H110791   4.083   4.301   0.127
 3595TIP3    H210792   4.174   4.366   0.024
 3596TIP3   OH210793   1.692   1.253   5.085
 3596TIP3    H110794   1.737   1.171   5.063
 3596TIP3    H210795   1.752   1.322   5.056
 3597TIP3   OH210796   1.827   1.033   5.004
 3597TIP3    H110797   1.835   0.951   4.956
 3597TIP3    H210798   1.880   1.020   5.083
 3598TIP3   OH210799   4.400   4.215   0.470
 3598TIP3    H110800   4.381   4.129   0.434
 3598TIP3    H210801   4.398   4.274   0.394
 3599TIP3   OH210802   1.519   0.522   5.024
 3599TIP3    H110803   1.441   0.575   5.007
 3599TIP3    H210804   1.569   0.526   4.943
 3600TIP3   OH210805   1.501   0.331   4.720
 3600TIP3    H110806   1.581   0.370   4.755
 3600TIP3    H210807   1.461   0.287   4.795
 3601TIP3   OH210808   4.599   3.794   0.296
 3601TIP3    H110809   4.547   3.858   0.344
 3601TIP3    H210810   4.619   3.837   0.213
 3602TIP3   OH210811   1.861   0.622   5.020
 3602TIP3    H110812   1.813   0.643   5.100
 3602TIP3    H210813   1.947   0.592   5.050
 3603TIP3   OH210814   3.421   4.084   0.157
 3603TIP3    H110815   3.374   4.073   0.075
 3603TIP3    H210816   3.495   4.024   0.152
 3604TIP3   OH210817   3.962   4.287   0.254
 3604TIP3    H110818   3.909   4.366   0.268
 3604TIP3    H210819   3.898   4.220   0.229
 3605TIP3   OH210820   1.721   0.469   4.840
 3605TIP3    H110821   1.773   0.529   4.892
 3605TIP3    H210822   1.748   0.484   4.750
 3606TIP3   OH210823   1.443   1.135   5.101
 3606TIP3    H110824   1.527   1.180   5.107
 3606TIP3    H210825   1.386   1.197   5.055
 3607TIP3   OH210826   2.030   1.067   4.446
 3607TIP3    H110827   2.030   1.161   4.427
 3607TIP3    H210828   2.119   1.039   4.427
 3608TIP3   OH210829   4.645   4.540   0.433
 3608TIP3    H110830   4.686   4.457   0.457
 3608TIP3    H210831   4.661   4.598   0.507
 3609TIP3   OH210832   1.334   1.361   4.926
 3609TIP3    H110833   1.291   1.346   4.842
 3609TIP3    H210834   1.303   1.447   4.954
 3610TIP3   OH210835   0.736   1.205   5.248
 3610TIP3    H110836   0.796   1.175   5.316
 3610TIP3    H210837   0.659   1.148   5.257
 3611TIP3   OH210838   1.537   1.286   4.551
 3611TIP3    H110839   1.589   1.215   4.515
 3611TIP3    H210840   1.573   1.301   4.638
 3612TIP3   OH210841   1.587   1.333   4.820
 3612TIP3    H110842   1.502   1.337   4.865
 3612TIP3    H210843   1.648   1.301   4.887
 3613TIP3   OH210844   1.784   0.482   4.581
 3613TIP3    H110845   1.739   0.473   4.496
 3613TIP3    H210846   1.869   0.519   4.558
 3614TIP3   OH210847   1.648   0.318   5.149
 3614TIP3    H110848   1.598   0.387   5.106
 3614TIP3    H210849   1.704   0.282   5.080
 3615TIP3   OH210850   3.929   3.374   0.082
 3615TIP3    H110851   3.885   3.384  -0.003
 3615TIP3    H210852   3.988   3.300   0.070
 3616TIP3   OH210853   4.334   4.997   0.634
 3616TIP3    H110854   4.345   4.967   0.544
 3616TIP3    H210855   4.287   4.926   0.677
 3617TIP3   OH210856   1.292   0.669   4.986
 3617TIP3    H110857   1.206   0.630   4.967
 3617TIP3    H210858   1.281   0.709   5.073
 3618TIP3   OH210859   4.316   3.885   0.093
 3618TIP3    H110860   4.358   3.964   0.057
 3618TIP3    H210861   4.247   3.918   0.150
 3619TIP3   OH210862   1.723   0.029   4.795
 3619TIP3    H110863   1.694  -0.040   4.856
 3619TIP3    H210864   1.757   0.098   4.852
 3620TIP3   OH210865   1.827   0.236   4.950
 3620TIP3    H110866   1.921   0.243   4.967
 3620TIP3    H210867   1.804   0.316   4.903
 3621TIP3   OH210868   1.441   0.823   4.814
 3621TIP3    H110869   1.396   0.907   4.818
 3621TIP3    H210870   1.393   0.767   4.874
 3622TIP3   OH210871   4.067   4.391   0.778
 3622TIP3    H110872   4.005   4.390   0.706
 3622TIP3    H210873   4.140   4.444   0.746
 3623TIP3   OH210874   2.240   0.327   4.790
 3623TIP3    H110875   2.196   0.276   4.721
 3623TIP3    H210876   2.240   0.416   4.757
 3624TIP3   OH210877   4.603   4.306   0.606
 3624TIP3    H110878   4.523   4.266   0.572
 3624TIP3    H210879   4.673   4.269   0.552
 3625TIP3   OH210880   1.951   1.145   4.706
 3625TIP3    H110881   1.926   1.073   4.765
 3625TIP3    H210882   1.973   1.102   4.623
 3626TIP3   OH210883   4.035   3.865   0.081
 3626TIP3    H110884   4.003   3.832   0.164
 3626TIP3    H210885   4.111   3.810   0.061
 3627TIP3   OH210886   1.081   1.008   5.255
 3627TIP3    H110887   1.075   1.085   5.198
 3627TIP3    H210888   1.011   1.023   5.320
 3628TIP3   OH210889   1.211   0.767   5.226
 3628TIP3    H110890   1.171   0.854   5.225
 3628TIP3    H210891   1.192   0.733   5.314
 3629TIP3   OH210892   3.550   4.402   0.438
 3629TIP3    H110893   3.587   4.477   0.392
 3629TIP3    H210894   3.559   4.425   0.531
 3630TIP3   OH210895   0.993   1.246   5.137
 3630TIP3    H110896   0.902   1.248   5.165
 3630TIP3    H210897   1.021   1.337   5.142
 3631TIP3   OH210898   3.932   3.984   0.456
 3631TIP3    H110899   4.010   4.039   0.461
 3631TIP3    H210900   3.911   3.982   0.362
 3632TIP3   OH210901   1.719   0.875   4.616
 3632TIP3    H110902   1.774   0.857   4.692
 3632TIP3    H210903   1.631   0.847   4.643
 3633TIP3   OH210904   4.066   4.580   0.528
 3633TIP3    H110905   3.997   4.553   0.467
 3633TIP3    H210906   4.148   4.558   0.482
 3634TIP3   OH210907   2.042   1.341   4.415
 3634TIP3    H110908   2.077   1.409   4.358
 3634TIP3    H210909   1.964   1.382   4.455
 3635TIP3   OH210910   1.887   0.817   4.828
 3635TIP3    H110911   1.874   0.748   4.893
 3635TIP3    H210912   1.981   0.813   4.807
 3636TIP3   OH210913   1.066   0.863   4.601
 3636TIP3    H110914   1.083   0.773   4.573
 3636TIP3    H210915   1.064   0.858   4.697
 3637TIP3   OH210916   1.071   0.859   4.874
 3637TIP3    H110917   1.161   0.866   4.903
 3637TIP3    H210918   1.035   0.947   4.889
 3638TIP3   OH210919   1.292   1.050   4.826
 3638TIP3    H110920   1.208   1.078   4.862
 3638TIP3    H210921   1.322   1.124   4.773
 3639TIP3   OH210922   1.037   1.133   4.894
 3639TIP3    H110923   1.014   1.202   4.832
 3639TIP3    H210924   1.021   1.172   4.980
 3640TIP3   OH210925   4.172   3.575   0.061
 3640TIP3    H110926   4.123   3.590   0.141
 3640TIP3    H210927   4.261   3.557   0.091
 3641TIP3   OH210928   2.021   1.468   5.293
 3641TIP3    H110929   1.971   1.529   5.239
 3641TIP3    H210930   2.110   1.504   5.292
 3642TIP3   OH210931   1.237   1.054   4.503
 3642TIP3    H110932   1.187   0.984   4.546
 3642TIP3    H210933   1.312   1.009   4.464
 3643TIP3   OH210934   1.670   1.078   4.431
 3643TIP3    H110935   1.707   1.016   4.494
 3643TIP3    H210936   1.731   1.076   4.357
 3644TIP3   OH210937   1.422   0.765   4.546
 3644TIP3    H110938   1.420   0.778   4.641
 3644TIP3    H210939   1.420   0.670   4.534
 3645TIP3   OH210940   4.168   4.074   0.554
 3645TIP3    H110941   4.249   4.109   0.593
 3645TIP3    H210942   4.098   4.116   0.603
 3646TIP3   OH210943   2.011   0.590   4.469
 3646TIP3    H110944   1.995   0.547   4.385
 3646TIP3    H210945   1.984   0.680   4.455
 3647TIP3   OH210946   1.022   1.341   4.715
 3647TIP3    H110947   1.114   1.326   4.692
 3647TIP3    H210948   0.986   1.389   4.640
 3648TIP3   OH210949   4.440   4.627   0.011
 3648TIP3    H110950   4.451   4.676   0.093
 3648TIP3    H210951   4.506   4.662  -0.048
 3649TIP3   OH210952   4.455   4.662   0.287
 3649TIP3    H110953   4.422   4.577   0.257
 3649TIP3    H210954   4.534   4.641   0.337
 3650TIP3   OH210955   2.160   0.792   4.794
 3650TIP3    H110956   2.220   0.858   4.759
 3650TIP3    H210957   2.205   0.757   4.870
 3651TIP3   OH210958   2.289   0.668   4.999
 3651TIP3    H110959   2.225   0.622   5.054
 3651TIP3    H210960   2.357   0.696   5.060
 3652TIP3   OH210961   4.486   4.111   0.095
 3652TIP3    H110962   4.550   4.047   0.065
 3652TIP3    H210963   4.498   4.186   0.038
 3653TIP3   OH210964   4.381   4.379   0.257
 3653TIP3    H110965   4.306   4.436   0.275
 3653TIP3    H210966   4.363   4.344   0.169
 3654TIP3   OH210967   2.215   0.563   4.650
 3654TIP3    H110968   2.146   0.559   4.584
 3654TIP3    H210969   2.195   0.642   4.701
 3655TIP3   OH210970   2.100   0.225   4.577
 3655TIP3    H110971   2.046   0.243   4.500
 3655TIP3    H210972   2.071   0.139   4.607
 3656TIP3   OH210973   2.094   0.508   5.113
 3656TIP3    H110974   2.102   0.414   5.096
 3656TIP3    H210975   2.065   0.514   5.205
 3657TIP3   OH210976   4.523   3.892   0.596
 3657TIP3    H110977   4.597   3.861   0.648
 3657TIP3    H210978   4.487   3.965   0.647
 3658TIP3   OH210979   6.334   6.118   4.669
 3658TIP3    H110980   6.327   6.094   4.761
 3658TIP3    H210981   6.257   6.079   4.628
 3659TIP3   OH210982   2.099   0.240   5.015
 3659TIP3    H110983   2.156   0.172   5.050
 3659TIP3    H210984   2.146   0.276   4.940
 3660TIP3   OH210985   4.413   3.479   0.140
 3660TIP3    H110986   4.505   3.499   0.122
 3660TIP3    H210987   4.397   3.518   0.226
 3661TIP3   OH210988   4.397   3.631   0.365
 3661TIP3    H110989   4.364   3.671   0.445
 3661TIP3    H210990   4.476   3.681   0.344
 3662TIP3   OH210991   1.839   1.452   4.979
 3662TIP3    H110992   1.890   1.441   4.899
 3662TIP3    H210993   1.880   1.525   5.025
 3663TIP3   OH210994   3.889   4.766   0.617
 3663TIP3    H110995   3.909   4.674   0.598
 3663TIP3    H210996   3.955   4.791   0.682
 3664TIP3   OH210997   3.163   4.722   0.502
 3664TIP3    H110998   3.070   4.704   0.489
 3664TIP3    H210999   3.207   4.670   0.434
 3665TIP3   OH211000   3.592   4.592   0.245
 3665TIP3    H111001   3.536   4.600   0.168
 3665TIP3    H211002   3.584   4.677   0.289
 3666TIP3   OH211003   3.877   4.548   0.323
 3666TIP3    H111004   3.782   4.544   0.311
 3666TIP3    H211005   3.906   4.617   0.264
 3667TIP3   OH211006   4.160   4.782   0.139
 3667TIP3    H111007   4.126   4.871   0.134
 3667TIP3    H211008   4.142   4.744   0.053
 3668TIP3   OH211009   3.073   4.188   0.131
 3668TIP3    H111010   3.037   4.150   0.211
 3668TIP3    H211011   3.112   4.271   0.159
 3669TIP3   OH211012   3.386   4.354   0.191
 3669TIP3    H111013   3.407   4.263   0.170
 3669TIP3    H211014   3.416   4.366   0.281
 3670TIP3   OH211015   1.282   1.276   4.654
 3670TIP3    H111016   1.366   1.304   4.618
 3670TIP3    H211017   1.253   1.205   4.597
 3671TIP3   OH211018   1.986   1.412   4.748
 3671TIP3    H111019   1.979   1.317   4.737
 3671TIP3    H211020   1.945   1.448   4.669
 3672TIP3   OH211021   0.649   1.173   4.723
 3672TIP3    H111022   0.648   1.166   4.818
 3672TIP3    H211023   0.719   1.114   4.695
 3673TIP3   OH211024   3.483   0.934   4.683
 3673TIP3    H111025   3.451   1.020   4.657
 3673TIP3    H211026   3.411   0.874   4.662
 3674TIP3   OH211027   3.479   0.932   5.089
 3674TIP3    H111028   3.521   0.909   5.172
 3674TIP3    H211029   3.436   0.851   5.061
 3675TIP3   OH211030   4.986   3.851   0.053
 3675TIP3    H111031   5.002   3.782   0.118
 3675TIP3    H211032   5.013   3.932   0.097
 3676TIP3   OH211033   3.741   1.233   4.776
 3676TIP3    H111034   3.727   1.169   4.845
 3676TIP3    H211035   3.766   1.313   4.822
 3677TIP3   OH211036   2.764   1.223   5.152
 3677TIP3    H111037   2.752   1.128   5.156
 3677TIP3    H211038   2.858   1.235   5.141
 3678TIP3   OH211039   2.455   0.460   4.923
 3678TIP3    H111040   2.404   0.539   4.941
 3678TIP3    H211041   2.391   0.397   4.890
 3679TIP3   OH211042   2.529   0.723   5.128
 3679TIP3    H111043   2.577   0.645   5.156
 3679TIP3    H211044   2.593   0.775   5.081
 3680TIP3   OH211045   3.391   1.674   4.782
 3680TIP3    H111046   3.425   1.606   4.724
 3680TIP3    H211047   3.379   1.630   4.866
 3681TIP3   OH211048   3.280   1.149   5.112
 3681TIP3    H111049   3.321   1.071   5.076
 3681TIP3    H211050   3.354   1.202   5.143
 3682TIP3   OH211051   4.286   0.484   5.108
 3682TIP3    H111052   4.307   0.556   5.168
 3682TIP3    H211053   4.348   0.496   5.035
 3683TIP3   OH211054   3.686   0.630   5.158
 3683TIP3    H111055   3.739   0.551   5.174
 3683TIP3    H211056   3.654   0.618   5.068
 3684TIP3   OH211057   3.047   0.300   5.124
 3684TIP3    H111058   3.018   0.363   5.057
 3684TIP3    H211059   3.034   0.215   5.083
 3685TIP3   OH211060   3.763   0.408   4.746
 3685TIP3    H111061   3.816   0.410   4.826
 3685TIP3    H211062   3.813   0.460   4.683
 3686TIP3   OH211063   2.670   0.508   5.227
 3686TIP3    H111064   2.761   0.510   5.257
 3686TIP3    H211065   2.672   0.453   5.149
 3687TIP3   OH211066   3.094   0.701   5.009
 3687TIP3    H111067   3.189   0.689   5.013
 3687TIP3    H211068   3.061   0.615   4.984
 3688TIP3   OH211069   6.514   3.751  -0.015
 3688TIP3    H111070   6.435   3.804  -0.030
 3688TIP3    H211071   6.554   3.790   0.063
 3689TIP3   OH211072   5.109   3.329   0.211
 3689TIP3    H111073   5.107   3.382   0.132
 3689TIP3    H211074   5.065   3.382   0.277
 3690TIP3   OH211075   3.379   1.150   4.544
 3690TIP3    H111076   3.338   1.125   4.461
 3690TIP3    H211077   3.327   1.224   4.575
 3691TIP3   OH211078   5.296   4.131   0.021
 3691TIP3    H111079   5.239   4.199   0.057
 3691TIP3    H211080   5.342   4.174  -0.052
 3692TIP3   OH211081   3.904   0.436   4.976
 3692TIP3    H111082   3.968   0.365   4.983
 3692TIP3    H211083   3.954   0.515   5.000
 3693TIP3   OH211084   2.919   0.440   5.317
 3693TIP3    H111085   2.980   0.507   5.349
 3693TIP3    H211086   2.967   0.396   5.247
 3694TIP3   OH211087   5.143   4.341   0.114
 3694TIP3    H111088   5.130   4.430   0.082
 3694TIP3    H211089   5.062   4.321   0.162
 3695TIP3   OH211090   2.339   0.970   4.679
 3695TIP3    H111091   2.309   0.988   4.591
 3695TIP3    H211092   2.366   1.055   4.714
 3696TIP3   OH211093   3.790   1.477   4.917
 3696TIP3    H111094   3.704   1.468   4.958
 3696TIP3    H211095   3.786   1.561   4.872
 3697TIP3   OH211096   3.492   1.510   4.580
 3697TIP3    H111097   3.543   1.430   4.567
 3697TIP3    H211098   3.549   1.580   4.549
 3698TIP3   OH211099   3.632   1.282   4.526
 3698TIP3    H111100   3.560   1.218   4.522
 3698TIP3    H211101   3.680   1.259   4.605
 3699TIP3   OH211102   4.023   1.374   5.264
 3699TIP3    H111103   4.004   1.300   5.208
 3699TIP3    H211104   4.005   1.451   5.210
 3700TIP3   OH211105   3.307   0.772   4.536
 3700TIP3    H111106   3.225   0.820   4.519
 3700TIP3    H211107   3.353   0.774   4.452
 3701TIP3   OH211108   3.270   0.580   4.237
 3701TIP3    H111109   3.335   0.634   4.282
 3701TIP3    H211110   3.322   0.519   4.185
 3702TIP3   OH211111   4.206   1.043   5.131
 3702TIP3    H111112   4.121   1.087   5.128
 3702TIP3    H211113   4.237   1.046   5.040
 3703TIP3   OH211114   3.663   0.861   4.493
 3703TIP3    H111115   3.607   0.889   4.565
 3703TIP3    H211116   3.747   0.842   4.534
 3704TIP3   OH211117   6.040   3.971   0.103
 3704TIP3    H111118   6.041   4.050   0.156
 3704TIP3    H211119   5.953   3.971   0.062
 3705TIP3   OH211120   2.885   0.847   4.911
 3705TIP3    H111121   2.846   0.791   4.844
 3705TIP3    H211122   2.962   0.798   4.941
 3706TIP3   OH211123   3.025   1.267   5.045
 3706TIP3    H111124   3.005   1.247   4.954
 3706TIP3    H211125   3.111   1.229   5.060
 3707TIP3   OH211126   3.101   0.800   5.268
 3707TIP3    H111127   3.092   0.787   5.174
 3707TIP3    H211128   3.102   0.895   5.279
 3708TIP3   OH211129   3.555   1.468   5.052
 3708TIP3    H111130   3.539   1.547   5.103
 3708TIP3    H211131   3.537   1.396   5.112
 3709TIP3   OH211132   5.340   4.433   0.283
 3709TIP3    H111133   5.280   4.497   0.321
 3709TIP3    H211134   5.285   4.379   0.227
 3710TIP3   OH211135   3.485   0.737   4.322
 3710TIP3    H111136   3.546   0.793   4.371
 3710TIP3    H211137   3.515   0.741   4.232
 3711TIP3   OH211138   5.115   4.048   0.303
 3711TIP3    H111139   5.130   4.128   0.352
 3711TIP3    H211140   5.027   4.020   0.329
 3712TIP3   OH211141   3.245   1.390   4.592
 3712TIP3    H111142   3.327   1.438   4.596
 3712TIP3    H211143   3.185   1.448   4.545
 3713TIP3   OH211144   5.149   4.615   0.341
 3713TIP3    H111145   5.129   4.614   0.248
 3713TIP3    H211146   5.063   4.617   0.384
 3714TIP3   OH211147   2.760   0.694   4.712
 3714TIP3    H111148   2.686   0.739   4.672
 3714TIP3    H211149   2.737   0.601   4.707
 3715TIP3   OH211150   3.824   1.323   3.933
 3715TIP3    H111151   3.823   1.417   3.916
 3715TIP3    H211152   3.913   1.296   3.914
 3716TIP3   OH211153   4.735   4.195   0.199
 3716TIP3    H111154   4.644   4.191   0.171
 3716TIP3    H211155   4.741   4.131   0.270
 3717TIP3   OH211156   2.403   1.276   5.272
 3717TIP3    H111157   2.497   1.265   5.257
 3717TIP3    H211158   2.396   1.360   5.317
 3718TIP3   OH211159   6.420   4.805   0.022
 3718TIP3    H111160   6.426   4.710   0.033
 3718TIP3    H211161   6.338   4.829   0.066
 3719TIP3   OH211162   5.525   4.578   0.144
 3719TIP3    H111163   5.517   4.669   0.173
 3719TIP3    H211164   5.458   4.531   0.195
 3720TIP3   OH211165   3.134   1.625   4.409
 3720TIP3    H111166   3.087   1.606   4.328
 3720TIP3    H211167   3.100   1.709   4.438
 3721TIP3   OH211168   2.563   1.476   4.791
 3721TIP3    H111169   2.611   1.469   4.874
 3721TIP3    H211170   2.518   1.392   4.783
 3722TIP3   OH211171   3.332   1.545   4.037
 3722TIP3    H111172   3.384   1.473   4.002
 3722TIP3    H211173   3.367   1.559   4.125
 3723TIP3   OH211174   3.387   1.594   4.306
 3723TIP3    H111175   3.302   1.598   4.349
 3723TIP3    H211176   3.447   1.563   4.375
 3724TIP3   OH211177   6.313   3.916   0.307
 3724TIP3    H111178   6.222   3.924   0.278
 3724TIP3    H211179   6.336   3.825   0.290
 3725TIP3   OH211180   4.915   4.379   0.269
 3725TIP3    H111181   4.961   4.342   0.345
 3725TIP3    H211182   4.854   4.311   0.242
 3726TIP3   OH211183   6.087   3.724   0.219
 3726TIP3    H111184   6.018   3.694   0.278
 3726TIP3    H211185   6.051   3.802   0.178
 3727TIP3   OH211186   3.583   0.726   4.070
 3727TIP3    H111187   3.536   0.720   3.987
 3727TIP3    H211188   3.665   0.769   4.049
 3728TIP3   OH211189   5.269   3.667   0.139
 3728TIP3    H111190   5.203   3.689   0.203
 3728TIP3    H211191   5.269   3.741   0.078
 3729TIP3   OH211192   2.944   0.470   4.943
 3729TIP3    H111193   2.852   0.447   4.956
 3729TIP3    H211194   2.964   0.441   4.854
 3730TIP3   OH211195   3.443   0.582   4.678
 3730TIP3    H111196   3.387   0.646   4.634
 3730TIP3    H211197   3.489   0.538   4.606
 3731TIP3   OH211198   5.799   3.925   0.427
 3731TIP3    H111199   5.783   3.855   0.489
 3731TIP3    H211200   5.894   3.939   0.431
 3732TIP3   OH211201   3.606   0.590   4.898
 3732TIP3    H111202   3.540   0.614   4.833
 3732TIP3    H211203   3.648   0.513   4.861
 3733TIP3   OH211204   5.042   3.700   0.290
 3733TIP3    H111205   5.034   3.766   0.360
 3733TIP3    H211206   5.035   3.616   0.336
 3734TIP3   OH211207   2.968   0.251   4.347
 3734TIP3    H111208   2.951   0.218   4.435
 3734TIP3    H211209   2.882   0.271   4.312
 3735TIP3   OH211210   2.544   0.149   5.147
 3735TIP3    H111211   2.566   0.192   5.230
 3735TIP3    H211212   2.508   0.065   5.172
 3736TIP3   OH211213   2.481   0.164   4.759
 3736TIP3    H111214   2.497   0.195   4.670
 3736TIP3    H211215   2.400   0.207   4.786
 3737TIP3   OH211216   5.783   3.905   0.007
 3737TIP3    H111217   5.814   3.837  -0.052
 3737TIP3    H211218   5.751   3.858   0.084
 3738TIP3   OH211219   3.308   0.334   5.032
 3738TIP3    H111220   3.226   0.335   5.081
 3738TIP3    H211221   3.376   0.327   5.099
 3739TIP3   OH211222   2.694   0.359   4.997
 3739TIP3    H111223   2.617   0.401   4.959
 3739TIP3    H211224   2.669   0.268   5.007
 3740TIP3   OH211225   2.979   0.356   4.696
 3740TIP3    H111226   3.073   0.375   4.701
 3740TIP3    H211227   2.947   0.407   4.622
 3741TIP3   OH211228   2.829   0.462   4.482
 3741TIP3    H111229   2.757   0.424   4.432
 3741TIP3    H211230   2.896   0.480   4.416
 3742TIP3   OH211231   6.129   5.142   0.112
 3742TIP3    H111232   6.123   5.166   0.020
 3742TIP3    H211233   6.205   5.190   0.144
 3743TIP3   OH211234   5.141   4.253   0.480
 3743TIP3    H111235   5.182   4.286   0.560
 3743TIP3    H211236   5.059   4.215   0.509
 3744TIP3   OH211237   3.365   0.671   5.065
 3744TIP3    H111238   3.425   0.611   5.021
 3744TIP3    H211239   3.369   0.646   5.157
 3745TIP3   OH211240   5.533   3.667   0.023
 3745TIP3    H111241   5.446   3.694   0.053
 3745TIP3    H211242   5.593   3.697   0.091
 3746TIP3   OH211243   3.077   0.919   4.481
 3746TIP3    H111244   3.002   0.863   4.460
 3746TIP3    H211245   3.054   0.957   4.566
 3747TIP3   OH211246   3.965   1.169   5.090
 3747TIP3    H111247   3.996   1.217   5.013
 3747TIP3    H211248   3.885   1.127   5.060
 3748TIP3   OH211249   3.462   0.310   4.278
 3748TIP3    H111250   3.482   0.224   4.315
 3748TIP3    H211251   3.527   0.369   4.317
 3749TIP3   OH211252   5.647   4.311   0.176
 3749TIP3    H111253   5.674   4.290   0.265
 3749TIP3    H211254   5.604   4.397   0.184
 3750TIP3   OH211255   3.604   0.524   4.448
 3750TIP3    H111256   3.692   0.560   4.459
 3750TIP3    H211257   3.556   0.591   4.400
 3751TIP3   OH211258   2.766   0.944   5.140
 3751TIP3    H111259   2.812   0.918   5.061
 3751TIP3    H211260   2.798   0.884   5.208
 3752TIP3   OH211261   3.226   1.076   4.316
 3752TIP3    H111262   3.178   1.159   4.316
 3752TIP3    H211263   3.173   1.019   4.371
 3753TIP3   OH211264   4.786   3.899   0.532
 3753TIP3    H111265   4.839   3.905   0.611
 3753TIP3    H211266   4.758   3.807   0.529
 3754TIP3   OH211267   5.584   4.103   0.427
 3754TIP3    H111268   5.514   4.038   0.432
 3754TIP3    H211269   5.664   4.052   0.413
 3755TIP3   OH211270   5.794   4.592   0.069
 3755TIP3    H111271   5.699   4.579   0.077
 3755TIP3    H211272   5.819   4.637   0.149
 3756TIP3   OH211273   4.045   0.590   4.285
 3756TIP3    H111274   4.009   0.533   4.218
 3756TIP3    H211275   4.040   0.678   4.247
 3757TIP3   OH211276   6.438   4.524   0.040
 3757TIP3    H111277   6.343   4.513   0.042
 3757TIP3    H211278   6.466   4.488  -0.044
 3758TIP3   OH211279   3.756   1.398   4.201
 3758TIP3    H111280   3.722   1.332   4.262
 3758TIP3    H211281   3.767   1.351   4.118
 3759TIP3   OH211282   3.734   1.034   4.994
 3759TIP3    H111283   3.643   1.012   5.015
 3759TIP3    H211284   3.770   0.954   4.955
 3760TIP3   OH211285   2.883   1.265   4.790
 3760TIP3    H111286   2.881   1.342   4.734
 3760TIP3    H211287   2.791   1.249   4.811
 3761TIP3   OH211288   2.450   0.556   4.506
 3761TIP3    H111289   2.493   0.640   4.523
 3761TIP3    H211290   2.370   0.558   4.557
 3762TIP3   OH211291   2.985   1.020   4.714
 3762TIP3    H111292   2.962   1.110   4.737
 3762TIP3    H211293   2.955   0.967   4.788
 3763TIP3   OH211294   3.168   1.592   5.246
 3763TIP3    H111295   3.204   1.665   5.195
 3763TIP3    H211296   3.243   1.556   5.293
 3764TIP3   OH211297   2.796   1.494   4.640
 3764TIP3    H111298   2.710   1.501   4.681
 3764TIP3    H211299   2.831   1.582   4.643
 3765TIP3   OH211300   3.523   1.243   5.214
 3765TIP3    H111301   3.512   1.241   5.309
 3765TIP3    H211302   3.600   1.189   5.197
 3766TIP3   OH211303   3.510   1.133   4.093
 3766TIP3    H111304   3.563   1.105   4.167
 3766TIP3    H211305   3.423   1.096   4.110
 3767TIP3   OH211306   3.777   1.756   5.258
 3767TIP3    H111307   3.701   1.699   5.264
 3767TIP3    H211308   3.756   1.816   5.186
 3768TIP3   OH211309   3.833   1.598   3.900
 3768TIP3    H111310   3.854   1.661   3.831
 3768TIP3    H211311   3.761   1.638   3.949
 3769TIP3   OH211312   5.047   3.468   0.439
 3769TIP3    H111313   4.986   3.397   0.458
 3769TIP3    H211314   5.102   3.474   0.517
 3770TIP3   OH211315   3.682   1.044   4.284
 3770TIP3    H111316   3.669   0.990   4.363
 3770TIP3    H211317   3.777   1.052   4.277
 3771TIP3   OH211318   4.752   4.545   0.098
 3771TIP3    H111319   4.809   4.484   0.145
 3771TIP3    H211320   4.767   4.629   0.140
 3772TIP3   OH211321   2.868   1.098   4.098
 3772TIP3    H111322   2.878   1.006   4.073
 3772TIP3    H211323   2.847   1.095   4.191
 3773TIP3   OH211324   2.806   1.113   4.369
 3773TIP3    H111325   2.877   1.083   4.425
 3773TIP3    H211326   2.808   1.209   4.377
 3774TIP3   OH211327   2.543   0.806   4.581
 3774TIP3    H111328   2.477   0.852   4.633
 3774TIP3    H211329   2.563   0.867   4.509
 3775TIP3   OH211330   4.541   0.596   4.218
 3775TIP3    H111331   4.613   0.638   4.172
 3775TIP3    H211332   4.561   0.502   4.214
 3776TIP3   OH211333   3.526   0.290   4.685
 3776TIP3    H111334   3.546   0.230   4.612
 3776TIP3    H211335   3.610   0.328   4.709
 3777TIP3   OH211336   3.080   1.304   4.316
 3777TIP3    H111337   2.995   1.328   4.352
 3777TIP3    H211338   3.103   1.378   4.259
 3778TIP3   OH211339   3.237   0.407   4.772
 3778TIP3    H111340   3.314   0.443   4.728
 3778TIP3    H211341   3.270   0.373   4.855
 3779TIP3   OH211342   5.718   3.750   0.223
 3779TIP3    H111343   5.735   3.815   0.291
 3779TIP3    H211344   5.744   3.667   0.262
 3780TIP3   OH211345   2.827   1.384   4.390
 3780TIP3    H111346   2.806   1.454   4.327
 3780TIP3    H211347   2.815   1.425   4.476
 3781TIP3   OH211348   2.893   0.118   4.592
 3781TIP3    H111349   2.909   0.198   4.642
 3781TIP3    H211350   2.904   0.048   4.656
 3782TIP3   OH211351   6.351   3.659   0.207
 3782TIP3    H111352   6.255   3.665   0.200
 3782TIP3    H211353   6.381   3.645   0.118
 3783TIP3   OH211354   3.820   0.781   4.899
 3783TIP3    H111355   3.746   0.722   4.911
 3783TIP3    H211356   3.890   0.743   4.952
 3784TIP3   OH211357   2.556   0.990   4.368
 3784TIP3    H111358   2.626   1.055   4.377
 3784TIP3    H211359   2.590   0.926   4.305
 3785TIP3   OH211360   2.476   0.278   4.500
 3785TIP3    H111361   2.501   0.368   4.521
 3785TIP3    H211362   2.394   0.288   4.451
 3786TIP3   OH211363   3.805   1.744   4.835
 3786TIP3    H111364   3.762   1.793   4.765
 3786TIP3    H211365   3.899   1.758   4.820
 3787TIP3   OH211366   2.396   1.238   4.762
 3787TIP3    H111367   2.350   1.275   4.838
 3787TIP3    H211368   2.359   1.283   4.687
 3788TIP3   OH211369   4.811   4.891   0.442
 3788TIP3    H111370   4.877   4.900   0.510
 3788TIP3    H211371   4.802   4.796   0.430
 3789TIP3   OH211372   5.227   4.780   0.542
 3789TIP3    H111373   5.321   4.763   0.544
 3789TIP3    H211374   5.197   4.741   0.460
 3790TIP3   OH211375   3.026   1.298   3.993
 3790TIP3    H111376   2.979   1.227   4.036
 3790TIP3    H211377   3.102   1.255   3.952
 3791TIP3   OH211378   5.852   4.713   0.308
 3791TIP3    H111379   5.859   4.642   0.372
 3791TIP3    H211380   5.930   4.767   0.322
 3792TIP3   OH211381   3.466   1.339   3.916
 3792TIP3    H111382   3.498   1.274   3.978
 3792TIP3    H211383   3.527   1.332   3.842
 3793TIP3   OH211384   4.925   4.216   0.785
 3793TIP3    H111385   4.895   4.195   0.874
 3793TIP3    H211386   4.853   4.190   0.728
 3794TIP3   OH211387   2.686   0.798   4.225
 3794TIP3    H111388   2.739   0.780   4.302
 3794TIP3    H211389   2.750   0.810   4.155
 3795TIP3   OH211390   5.465   4.336   0.501
 3795TIP3    H111391   5.419   4.354   0.420
 3795TIP3    H211392   5.518   4.258   0.482
 3796TIP3   OH211393   3.238   1.022   4.047
 3796TIP3    H111394   3.222   1.035   4.141
 3796TIP3    H211395   3.228   0.928   4.034
 3797TIP3   OH211396   5.957   4.369   0.092
 3797TIP3    H111397   6.035   4.403   0.049
 3797TIP3    H211398   5.891   4.437   0.080
 3798TIP3   OH211399   4.935   3.937   0.744
 3798TIP3    H111400   4.995   3.947   0.669
 3798TIP3    H211401   4.939   4.021   0.790
 3799TIP3   OH211402   2.865   0.749   4.434
 3799TIP3    H111403   2.843   0.708   4.518
 3799TIP3    H211404   2.912   0.682   4.386
 3800TIP3   OH211405   5.334   3.898   0.352
 3800TIP3    H111406   5.265   3.960   0.329
 3800TIP3    H211407   5.398   3.906   0.281
 3801TIP3   OH211408   2.997   0.562   4.283
 3801TIP3    H111409   2.967   0.559   4.192
 3801TIP3    H211410   3.093   0.561   4.277
 3802TIP3   OH211411   5.851   4.272   0.460
 3802TIP3    H111412   5.917   4.237   0.401
 3802TIP3    H211413   5.850   4.211   0.534
 3803TIP3   OH211414   3.808   0.843   3.957
 3803TIP3    H111415   3.786   0.804   3.872
 3803TIP3    H211416   3.781   0.934   3.950
 3804TIP3   OH211417   5.434   3.696   0.501
 3804TIP3    H111418   5.471   3.631   0.441
 3804TIP3    H211419   5.396   3.763   0.444
 3805TIP3   OH211420   5.491   3.535   0.294
 3805TIP3    H111421   5.442   3.570   0.219
 3805TIP3    H211422   5.442   3.458   0.321
 3806TIP3   OH211423   5.490   3.975   0.147
 3806TIP3    H111424   5.572   4.011   0.113
 3806TIP3    H211425   5.422   4.028   0.105
 3807TIP3   OH211426   6.068   3.964   0.484
 3807TIP3    H111427   6.079   3.886   0.539
 3807TIP3    H211428   6.154   4.005   0.484
 3808TIP3   OH211429   6.079   4.199   0.256
 3808TIP3    H111430   6.024   4.258   0.205
 3808TIP3    H211431   6.168   4.215   0.225
 3809TIP3   OH211432   5.218   3.659   0.668
 3809TIP3    H111433   5.239   3.607   0.745
 3809TIP3    H211434   5.302   3.677   0.627
 3810TIP3   OH211435   5.706   3.704   0.566
 3810TIP3    H111436   5.738   3.715   0.655
 3810TIP3    H211437   5.614   3.679   0.576
 3811TIP3   OH211438   5.920   3.619   0.412
 3811TIP3    H111439   5.849   3.652   0.467
 3811TIP3    H211440   5.984   3.584   0.474
 3812TIP3   OH211441   2.815   1.586   4.201
 3812TIP3    H111442   2.907   1.571   4.177
 3812TIP3    H211443   2.779   1.636   4.128
 3813TIP3   OH211444   2.284   0.969   4.395
 3813TIP3    H111445   2.378   0.987   4.387
 3813TIP3    H211446   2.273   0.883   4.355
 3814TIP3   OH211447   2.190   1.568   4.847
 3814TIP3    H111448   2.127   1.515   4.798
 3814TIP3    H211449   2.236   1.505   4.902
 3815TIP3   OH211450   2.335   1.398   5.013
 3815TIP3    H111451   2.326   1.334   5.084
 3815TIP3    H211452   2.387   1.469   5.051
 3816TIP3   OH211453   4.075   1.801   4.823
 3816TIP3    H111454   4.089   1.833   4.912
 3816TIP3    H211455   4.120   1.865   4.768
 3817TIP3   OH211456   4.085   1.838   5.103
 3817TIP3    H111457   4.040   1.754   5.100
 3817TIP3    H211458   4.157   1.824   5.165
 3818TIP3   OH211459   6.340   4.597   0.327
 3818TIP3    H111460   6.258   4.589   0.377
 3818TIP3    H211461   6.372   4.684   0.348
 3819TIP3   OH211462   3.959   1.046   4.280
 3819TIP3    H111463   4.019   1.115   4.251
 3819TIP3    H211464   3.996   1.014   4.362
 3820TIP3   OH211465   4.072   0.930   4.498
 3820TIP3    H111466   4.008   0.887   4.554
 3820TIP3    H211467   4.139   0.964   4.558
 3821TIP3   OH211468   4.141   1.307   4.919
 3821TIP3    H111469   4.191   1.238   4.877
 3821TIP3    H211470   4.140   1.379   4.856
 3822TIP3   OH211471   3.952   1.593   5.113
 3822TIP3    H111472   3.883   1.637   5.162
 3822TIP3    H211473   3.907   1.551   5.040
 3823TIP3   OH211474   4.015   0.821   4.136
 3823TIP3    H111475   3.944   0.813   4.072
 3823TIP3    H211476   3.992   0.898   4.187
 3824TIP3   OH211477   3.908   0.501   4.057
 3824TIP3    H111478   3.854   0.528   3.983
 3824TIP3    H211479   3.854   0.438   4.104
 3825TIP3   OH211480   3.888   0.781   4.633
 3825TIP3    H111481   3.893   0.686   4.617
 3825TIP3    H211482   3.867   0.787   4.726
 3826TIP3   OH211483   4.669   3.912   0.060
 3826TIP3    H111484   4.671   3.871  -0.026
 3826TIP3    H211485   4.760   3.934   0.078
 3827TIP3   OH211486   6.333   4.262   0.175
 3827TIP3    H111487   6.398   4.195   0.153
 3827TIP3    H211488   6.341   4.327   0.106
 3828TIP3   OH211489   0.006   4.054   0.169
 3828TIP3    H111490  -0.067   4.012   0.213
 3828TIP3    H211491   0.079   3.992   0.179
 3829TIP3   OH211492   3.744   0.334   4.194
 3829TIP3    H111493   3.747   0.303   4.285
 3829TIP3    H211494   3.766   0.257   4.142
 3830TIP3   OH211495   3.895   0.522   4.519
 3830TIP3    H111496   3.906   0.428   4.511
 3830TIP3    H211497   3.947   0.559   4.447
 3831TIP3   OH211498   4.033   0.668   5.035
 3831TIP3    H111499   4.118   0.684   4.995
 3831TIP3    H211500   4.042   0.701   5.125
 3832TIP3   OH211501   4.099   0.819   5.262
 3832TIP3    H111502   4.022   0.850   5.308
 3832TIP3    H211503   4.132   0.895   5.215
 3833TIP3   OH211504   4.855   3.293   0.063
 3833TIP3    H111505   4.931   3.238   0.048
 3833TIP3    H211506   4.886   3.382   0.048
 3834TIP3   OH211507   4.667   3.566   0.134
 3834TIP3    H111508   4.723   3.580   0.058
 3834TIP3    H211509   4.672   3.648   0.183
 3835TIP3   OH211510   3.638   1.702   4.464
 3835TIP3    H111511   3.696   1.696   4.388
 3835TIP3    H211512   3.676   1.773   4.517
 3836TIP3   OH211513   4.916   4.652   0.465
 3836TIP3    H111514   4.858   4.577   0.463
 3836TIP3    H211515   4.943   4.660   0.556
 3837TIP3   OH211516   5.106   4.612   0.074
 3837TIP3    H111517   5.051   4.685   0.046
 3837TIP3    H211518   5.190   4.626   0.031
 3838TIP3   OH211519   5.514   4.843   0.224
 3838TIP3    H111520   5.555   4.837   0.310
 3838TIP3    H211521   5.575   4.896   0.172
 3839TIP3   OH211522   5.701   5.001   0.100
 3839TIP3    H111523   5.765   4.954   0.046
 3839TIP3    H211524   5.754   5.059   0.154
 3840TIP3   OH211525   4.760   4.847   0.126
 3840TIP3    H111526   4.669   4.873   0.107
 3840TIP3    H211527   4.788   4.908   0.194
 3841TIP3   OH211528   2.828   1.779   5.288
 3841TIP3    H111529   2.743   1.782   5.332
 3841TIP3    H211530   2.809   1.808   5.199
 3842TIP3   OH211531   3.251   1.796   5.080
 3842TIP3    H111532   3.181   1.811   5.017
 3842TIP3    H211533   3.265   1.882   5.121
 3843TIP3   OH211534   3.515   1.732   5.136
 3843TIP3    H111535   3.424   1.751   5.115
 3843TIP3    H211536   3.565   1.799   5.088
 3844TIP3   OH211537   3.715   1.910   5.036
 3844TIP3    H111538   3.711   1.997   4.998
 3844TIP3    H211539   3.745   1.854   4.965
 3845TIP3   OH211540   2.507   1.576   5.159
 3845TIP3    H111541   2.532   1.552   5.248
 3845TIP3    H211542   2.580   1.544   5.105
 3846TIP3   OH211543   2.711   1.459   5.023
 3846TIP3    H111544   2.722   1.376   5.070
 3846TIP3    H211545   2.797   1.500   5.025
 3847TIP3   OH211546   2.978   1.544   5.044
 3847TIP3    H111547   2.997   1.451   5.031
 3847TIP3    H211548   3.033   1.570   5.118
 3848TIP3   OH211549   2.283   1.371   4.552
 3848TIP3    H111550   2.199   1.337   4.521
 3848TIP3    H211551   2.288   1.460   4.518
 3849TIP3   OH211552   3.076   1.524   4.139
 3849TIP3    H111553   3.160   1.553   4.102
 3849TIP3    H211554   3.049   1.452   4.082
 3850TIP3   OH211555   3.792   1.666   4.235
 3850TIP3    H111556   3.784   1.571   4.227
 3850TIP3    H211557   3.745   1.700   4.159
 3851TIP3   OH211558   2.374   1.368   4.194
 3851TIP3    H111559   2.381   1.388   4.287
 3851TIP3    H211560   2.457   1.323   4.173
 3852TIP3   OH211561   6.167   4.869   0.114
 3852TIP3    H111562   6.092   4.839   0.062
 3852TIP3    H211563   6.154   4.964   0.120
 3853TIP3   OH211564   5.280   1.192   4.165
 3853TIP3    H111565   5.247   1.280   4.142
 3853TIP3    H211566   5.206   1.134   4.146
 3854TIP3   OH211567   5.281   1.199   4.571
 3854TIP3    H111568   5.320   1.178   4.656
 3854TIP3    H211569   5.240   1.118   4.542
 3855TIP3   OH211570   4.570   1.070   4.930
 3855TIP3    H111571   4.605   1.008   4.994
 3855TIP3    H211572   4.648   1.115   4.896
 3856TIP3   OH211573   5.534   1.493   4.258
 3856TIP3    H111574   5.520   1.428   4.328
 3856TIP3    H211575   5.558   1.573   4.304
 3857TIP3   OH211576   4.565   1.481   4.639
 3857TIP3    H111577   4.548   1.387   4.643
 3857TIP3    H211578   4.659   1.488   4.627
 3858TIP3   OH211579   4.249   0.733   4.427
 3858TIP3    H111580   4.201   0.813   4.448
 3858TIP3    H211581   4.183   0.675   4.390
 3859TIP3   OH211582   4.309   1.000   4.619
 3859TIP3    H111583   4.365   0.926   4.644
 3859TIP3    H211584   4.368   1.063   4.580
 3860TIP3   OH211585   5.192   1.930   4.264
 3860TIP3    H111586   5.227   1.857   4.214
 3860TIP3    H211587   5.168   1.893   4.349
 3861TIP3   OH211588   5.079   1.406   4.600
 3861TIP3    H111589   5.121   1.328   4.564
 3861TIP3    H211590   5.151   1.460   4.632
 3862TIP3   OH211591   6.080   0.714   4.606
 3862TIP3    H111592   6.113   0.787   4.658
 3862TIP3    H211593   6.158   0.666   4.579
 3863TIP3   OH211594   5.485   0.880   4.638
 3863TIP3    H111595   5.514   0.789   4.634
 3863TIP3    H211596   5.445   0.896   4.552
 3864TIP3   OH211597   4.855   0.598   4.544
 3864TIP3    H111598   4.797   0.667   4.515
 3864TIP3    H211599   4.802   0.544   4.603
 3865TIP3   OH211600   5.523   0.676   4.214
 3865TIP3    H111601   5.599   0.630   4.249
 3865TIP3    H211602   5.561   0.742   4.156
 3866TIP3   OH211603   4.487   0.814   4.695
 3866TIP3    H111604   4.554   0.790   4.758
 3866TIP3    H211605   4.495   0.749   4.625
 3867TIP3   OH211606   4.887   0.970   4.519
 3867TIP3    H111607   4.982   0.959   4.513
 3867TIP3    H211608   4.851   0.888   4.485
 3868TIP3   OH211609   6.149   0.958   4.729
 3868TIP3    H111610   6.063   0.999   4.721
 3868TIP3    H211611   6.147   0.915   4.815
 3869TIP3   OH211612   4.775   0.515   5.067
 3869TIP3    H111613   4.694   0.521   5.017
 3869TIP3    H211614   4.773   0.591   5.125
 3870TIP3   OH211615   5.175   1.412   4.031
 3870TIP3    H111616   5.133   1.383   3.950
 3870TIP3    H211617   5.120   1.484   4.062
 3871TIP3   OH211618   4.928   1.333   4.821
 3871TIP3    H111619   4.870   1.402   4.854
 3871TIP3    H211620   4.975   1.373   4.748
 3872TIP3   OH211621   5.731   0.696   4.481
 3872TIP3    H111622   5.766   0.650   4.557
 3872TIP3    H211623   5.768   0.784   4.486
 3873TIP3   OH211624   4.683   0.693   4.834
 3873TIP3    H111625   4.751   0.757   4.855
 3873TIP3    H211626   4.731   0.618   4.797
 3874TIP3   OH211627   4.763   1.531   4.921
 3874TIP3    H111628   4.747   1.619   4.888
 3874TIP3    H211629   4.686   1.509   4.972
 3875TIP3   OH211630   4.137   1.228   4.167
 3875TIP3    H111631   4.098   1.245   4.082
 3875TIP3    H211632   4.160   1.315   4.201
 3876TIP3   OH211633   5.585   1.734   4.398
 3876TIP3    H111634   5.502   1.724   4.444
 3876TIP3    H211635   5.580   1.820   4.357
 3877TIP3   OH211636   5.295   1.756   4.063
 3877TIP3    H111637   5.348   1.677   4.051
 3877TIP3    H211638   5.353   1.828   4.035
 3878TIP3   OH211639   5.430   1.509   4.004
 3878TIP3    H111640   5.343   1.471   4.018
 3878TIP3    H211641   5.475   1.499   4.088
 3879TIP3   OH211642   5.802   1.629   4.746
 3879TIP3    H111643   5.790   1.553   4.688
 3879TIP3    H211644   5.791   1.705   4.689
 3880TIP3   OH211645   5.103   1.028   4.021
 3880TIP3    H111646   5.021   1.075   4.009
 3880TIP3    H211647   5.147   1.033   3.936
 3881TIP3   OH211648   5.068   0.836   3.727
 3881TIP3    H111649   5.133   0.893   3.769
 3881TIP3    H211650   5.119   0.781   3.668
 3882TIP3   OH211651   6.009   1.298   4.594
 3882TIP3    H111652   5.923   1.340   4.597
 3882TIP3    H211653   6.036   1.306   4.503
 3883TIP3   OH211654   5.459   1.113   3.976
 3883TIP3    H111655   5.405   1.143   4.049
 3883TIP3    H211656   5.545   1.099   4.015
 3884TIP3   OH211657   5.672   1.164   4.856
 3884TIP3    H111658   5.672   1.243   4.909
 3884TIP3    H211659   5.582   1.156   4.825
 3885TIP3   OH211660   4.682   1.105   4.390
 3885TIP3    H111661   4.643   1.044   4.327
 3885TIP3    H211662   4.754   1.055   4.430
 3886TIP3   OH211663   4.824   1.522   4.531
 3886TIP3    H111664   4.803   1.502   4.440
 3886TIP3    H211665   4.911   1.484   4.544
 3887TIP3   OH211666   4.802   1.102   4.747
 3887TIP3    H111667   4.837   1.070   4.665
 3887TIP3    H211668   4.852   1.182   4.765
 3888TIP3   OH211669   5.357   1.722   4.540
 3888TIP3    H111670   5.337   1.803   4.587
 3888TIP3    H211671   5.335   1.653   4.603
 3889TIP3   OH211672   4.960   1.634   5.084
 3889TIP3    H111673   4.901   1.694   5.129
 3889TIP3    H211674   4.904   1.582   5.027
 3890TIP3   OH211675   5.282   0.992   3.807
 3890TIP3    H111676   5.343   1.044   3.860
 3890TIP3    H211677   5.315   0.999   3.718
 3891TIP3   OH211678   4.709   1.191   5.212
 3891TIP3    H111679   4.713   1.284   5.236
 3891TIP3    H211680   4.615   1.170   5.212
 3892TIP3   OH211681   5.041   1.648   4.081
 3892TIP3    H111682   5.123   1.698   4.081
 3892TIP3    H211683   4.978   1.703   4.035
 3893TIP3   OH211684   4.752   1.792   5.169
 3893TIP3    H111685   4.725   1.802   5.078
 3893TIP3    H211686   4.671   1.774   5.216
 3894TIP3   OH211687   4.558   0.945   4.189
 3894TIP3    H111688   4.487   0.999   4.155
 3894TIP3    H211689   4.518   0.859   4.205
 3895TIP3   OH211690   5.611   1.585   3.421
 3895TIP3    H111691   5.616   1.679   3.401
 3895TIP3    H211692   5.699   1.552   3.407
 3896TIP3   OH211693   4.340   1.343   5.113
 3896TIP3    H111694   4.269   1.330   5.050
 3896TIP3    H211695   4.371   1.254   5.132
 3897TIP3   OH211696   4.185   1.541   4.761
 3897TIP3    H111697   4.279   1.559   4.771
 3897TIP3    H211698   4.142   1.619   4.795
 3898TIP3   OH211699   6.043   2.001   4.808
 3898TIP3    H111700   6.046   1.905   4.816
 3898TIP3    H211701   5.964   2.026   4.857
 3899TIP3   OH211702   5.151   1.769   4.941
 3899TIP3    H111703   5.147   1.860   4.970
 3899TIP3    H211704   5.082   1.725   4.991
 3900TIP3   OH211705   4.933   1.886   3.893
 3900TIP3    H111706   4.880   1.864   3.816
 3900TIP3    H211707   4.895   1.968   3.925
 3901TIP3   OH211708   4.362   1.730   4.275
 3901TIP3    H111709   4.406   1.724   4.360
 3901TIP3    H211710   4.310   1.650   4.269
 3902TIP3   OH211711   5.130   1.804   3.524
 3902TIP3    H111712   5.180   1.731   3.489
 3902TIP3    H211713   5.163   1.816   3.613
 3903TIP3   OH211714   5.185   1.848   3.795
 3903TIP3    H111715   5.097   1.856   3.833
 3903TIP3    H211716   5.239   1.817   3.866
 3904TIP3   OH211717   5.853   1.127   5.108
 3904TIP3    H111718   5.805   1.197   5.063
 3904TIP3    H211719   5.942   1.132   5.071
 3905TIP3   OH211720   4.545   1.524   5.086
 3905TIP3    H111721   4.588   1.518   5.171
 3905TIP3    H211722   4.471   1.464   5.092
 3906TIP3   OH211723   5.725   0.914   4.954
 3906TIP3    H111724   5.699   0.917   5.046
 3906TIP3    H211725   5.719   1.005   4.924
 3907TIP3   OH211726   5.393   0.993   3.561
 3907TIP3    H111727   5.345   0.988   3.478
 3907TIP3    H211728   5.477   1.034   3.538
 3908TIP3   OH211729   4.867   0.884   4.894
 3908TIP3    H111730   4.821   0.899   4.976
 3908TIP3    H211731   4.844   0.959   4.839
 3909TIP3   OH211732   4.706   0.773   4.412
 3909TIP3    H111733   4.619   0.735   4.420
 3909TIP3    H211734   4.732   0.757   4.322
 3910TIP3   OH211735   5.249   0.837   4.147
 3910TIP3    H111736   5.193   0.905   4.110
 3910TIP3    H211737   5.291   0.796   4.071
 3911TIP3   OH211738   5.402   1.139   5.216
 3911TIP3    H111739   5.405   1.075   5.287
 3911TIP3    H211740   5.471   1.202   5.237
 3912TIP3   OH211741   5.411   0.883   4.372
 3912TIP3    H111742   5.335   0.910   4.321
 3912TIP3    H211743   5.437   0.799   4.334
 3913TIP3   OH211744   4.705   0.916   5.112
 3913TIP3    H111745   4.704   0.986   5.177
 3913TIP3    H211746   4.700   0.836   5.165
 3914TIP3   OH211747   4.772   0.493   3.831
 3914TIP3    H111748   4.751   0.474   3.923
 3914TIP3    H211749   4.689   0.521   3.793
 3915TIP3   OH211750   4.238   0.386   4.592
 3915TIP3    H111751   4.233   0.460   4.653
 3915TIP3    H211752   4.319   0.341   4.616
 3916TIP3   OH211753   4.301   0.465   4.306
 3916TIP3    H111754   4.334   0.519   4.234
 3916TIP3    H211755   4.217   0.503   4.329
 3917TIP3   OH211756   5.413   1.096   4.790
 3917TIP3    H111757   5.439   1.023   4.734
 3917TIP3    H211758   5.369   1.056   4.865
 3918TIP3   OH211759   5.110   0.688   4.516
 3918TIP3    H111760   5.023   0.660   4.545
 3918TIP3    H211761   5.168   0.617   4.543
 3919TIP3   OH211762   4.475   0.614   4.510
 3919TIP3    H111763   4.401   0.662   4.473
 3919TIP3    H211764   4.474   0.530   4.464
 3920TIP3   OH211765   4.799   0.688   4.170
 3920TIP3    H111766   4.895   0.691   4.167
 3920TIP3    H211767   4.772   0.705   4.080
 3921TIP3   OH211768   4.633   0.708   3.953
 3921TIP3    H111769   4.559   0.671   3.905
 3921TIP3    H211770   4.696   0.734   3.885
 3922TIP3   OH211771   5.759   2.335   4.909
 3922TIP3    H111772   5.754   2.359   4.816
 3922TIP3    H211773   5.836   2.382   4.941
 3923TIP3   OH211774   0.369   4.507   0.019
 3923TIP3    H111775   0.448   4.532   0.067
 3923TIP3    H211776   0.298   4.514   0.083
 3924TIP3   OH211777   5.166   0.950   4.548
 3924TIP3    H111778   5.167   0.859   4.518
 3924TIP3    H211779   5.158   0.944   4.643
 3925TIP3   OH211780   5.132   0.912   4.810
 3925TIP3    H111781   5.043   0.893   4.840
 3925TIP3    H211782   5.183   0.919   4.891
 3926TIP3   OH211783   4.874   1.173   3.971
 3926TIP3    H111784   4.799   1.119   3.948
 3926TIP3    H211785   4.851   1.213   4.054
 3927TIP3   OH211786   5.764   1.419   4.570
 3927TIP3    H111787   5.790   1.470   4.494
 3927TIP3    H211788   5.681   1.379   4.545
 3928TIP3   OH211789   5.251   0.557   3.770
 3928TIP3    H111790   5.216   0.511   3.846
 3928TIP3    H211791   5.314   0.620   3.807
 3929TIP3   OH211792   5.274   1.504   4.978
 3929TIP3    H111793   5.326   1.498   5.058
 3929TIP3    H211794   5.233   1.590   4.982
 3930TIP3   OH211795   5.400   0.769   3.913
 3930TIP3    H111796   5.486   0.807   3.930
 3930TIP3    H211797   5.351   0.838   3.869
 3931TIP3   OH211798   4.565   1.200   4.622
 3931TIP3    H111799   4.599   1.177   4.536
 3931TIP3    H211800   4.624   1.156   4.684
 3932TIP3   OH211801   5.022   1.334   3.807
 3932TIP3    H111802   4.974   1.417   3.805
 3932TIP3    H211803   4.967   1.276   3.861
 3933TIP3   OH211804   4.449   1.114   5.249
 3933TIP3    H111805   4.448   1.096   5.342
 3933TIP3    H211806   4.372   1.069   5.215
 3934TIP3   OH211807   5.163   1.264   5.277
 3934TIP3    H111808   5.093   1.208   5.242
 3934TIP3    H211809   5.242   1.232   5.235
 3935TIP3   OH211810   5.418   1.782   4.857
 3935TIP3    H111811   5.324   1.772   4.866
 3935TIP3    H211812   5.446   1.828   4.936
 3936TIP3   OH211813   5.845   0.846   3.763
 3936TIP3    H111814   5.760   0.822   3.727
 3936TIP3    H211815   5.900   0.861   3.686
 3937TIP3   OH211816   6.042   1.725   4.838
 3937TIP3    H111817   5.949   1.701   4.840
 3937TIP3    H211818   6.076   1.683   4.759
 3938TIP3   OH211819   5.551   1.657   3.685
 3938TIP3    H111820   5.502   1.592   3.736
 3938TIP3    H211821   5.562   1.617   3.599
 3939TIP3   OH211822   5.531   1.296   4.476
 3939TIP3    H111823   5.441   1.273   4.499
 3939TIP3    H211824   5.565   1.216   4.435
 3940TIP3   OH211825   4.675   1.520   4.276
 3940TIP3    H111826   4.671   1.598   4.220
 3940TIP3    H211827   4.585   1.507   4.305
 3941TIP3   OH211828   4.237   0.844   3.978
 3941TIP3    H111829   4.287   0.922   4.004
 3941TIP3    H211830   4.160   0.845   4.034
 3942TIP3   OH211831   4.787   1.280   4.202
 3942TIP3    H111832   4.758   1.368   4.223
 3942TIP3    H211833   4.752   1.225   4.272
 3943TIP3   OH211834   4.961   1.849   4.736
 3943TIP3    H111835   4.998   1.921   4.685
 3943TIP3    H211836   5.035   1.815   4.786
 3944TIP3   OH211837   4.594   1.747   4.126
 3944TIP3    H111838   4.507   1.752   4.166
 3944TIP3    H211839   4.627   1.837   4.129
 3945TIP3   OH211840   5.318   1.501   4.707
 3945TIP3    H111841   5.304   1.497   4.802
 3945TIP3    H211842   5.398   1.450   4.692
 3946TIP3   OH211843   5.308   1.383   3.572
 3946TIP3    H111844   5.352   1.359   3.654
 3946TIP3    H211845   5.221   1.345   3.580
 3947TIP3   OH211846   5.574   2.011   4.743
 3947TIP3    H111847   5.498   1.953   4.750
 3947TIP3    H211848   5.550   2.072   4.673
 3948TIP3   OH211849   5.634   1.858   3.388
 3948TIP3    H111850   5.661   1.925   3.325
 3948TIP3    H211851   5.559   1.897   3.433
 3949TIP3   OH211852   4.683   0.684   5.266
 3949TIP3    H111853   4.594   0.650   5.279
 3949TIP3    H211854   4.730   0.661   5.346
 3950TIP3   OH211855   5.458   1.326   3.796
 3950TIP3    H111856   5.465   1.245   3.846
 3950TIP3    H211857   5.460   1.395   3.863
 3951TIP3   OH211858   4.391   1.727   4.889
 3951TIP3    H111859   4.443   1.663   4.939
 3951TIP3    H211860   4.404   1.810   4.935
 3952TIP3   OH211861   4.670   1.357   3.584
 3952TIP3    H111862   4.676   1.265   3.558
 3952TIP3    H211863   4.646   1.354   3.677
 3953TIP3   OH211864   4.604   1.371   3.853
 3953TIP3    H111865   4.667   1.341   3.919
 3953TIP3    H211866   4.603   1.466   3.861
 3954TIP3   OH211867   4.347   1.078   4.073
 3954TIP3    H111868   4.278   1.118   4.125
 3954TIP3    H211869   4.360   1.137   3.999
 3955TIP3   OH211870   6.405   0.775   3.637
 3955TIP3    H111871   6.423   0.864   3.667
 3955TIP3    H211872   6.430   0.719   3.711
 3956TIP3   OH211873   5.316   0.542   4.108
 3956TIP3    H111874   5.365   0.469   4.068
 3956TIP3    H211875   5.383   0.596   4.149
 3957TIP3   OH211876   4.881   1.565   3.804
 3957TIP3    H111877   4.794   1.584   3.839
 3957TIP3    H211878   4.899   1.638   3.744
 3958TIP3   OH211879   5.060   0.670   4.249
 3958TIP3    H111880   5.131   0.717   4.204
 3958TIP3    H211881   5.083   0.676   4.341
 3959TIP3   OH211882   5.317   0.974   5.018
 3959TIP3    H111883   5.330   1.043   5.083
 3959TIP3    H211884   5.389   0.913   5.033
 3960TIP3   OH211885   4.626   1.641   3.875
 3960TIP3    H111886   4.602   1.711   3.813
 3960TIP3    H211887   4.611   1.680   3.961
 3961TIP3   OH211888   4.716   0.407   4.111
 3961TIP3    H111889   4.778   0.457   4.165
 3961TIP3    H211890   4.730   0.316   4.138
 3962TIP3   OH211891   5.991   0.854   4.924
 3962TIP3    H111892   5.899   0.880   4.931
 3962TIP3    H211893   5.995   0.769   4.969
 3963TIP3   OH211894   5.625   1.052   4.375
 3963TIP3    H111895   5.547   0.997   4.381
 3963TIP3    H211896   5.691   1.008   4.429
 3964TIP3   OH211897   4.351   1.248   3.853
 3964TIP3    H111898   4.419   1.315   3.859
 3964TIP3    H211899   4.385   1.184   3.791
 3965TIP3   OH211900   4.230   0.577   4.021
 3965TIP3    H111901   4.234   0.672   4.011
 3965TIP3    H211902   4.146   0.552   3.984
 3966TIP3   OH211903   5.596   2.001   4.322
 3966TIP3    H111904   5.553   2.050   4.251
 3966TIP3    H211905   5.689   2.017   4.309
 3967TIP3   OH211906   4.192   1.497   4.246
 3967TIP3    H111907   4.142   1.530   4.321
 3967TIP3    H211908   4.153   1.541   4.170
 3968TIP3   OH211909   0.047   5.105   0.007
 3968TIP3    H111910   0.129   5.107   0.055
 3968TIP3    H211911   0.024   5.012   0.003
 3969TIP3   OH211912   0.515   5.026   0.057
 3969TIP3    H111913   0.609   5.014   0.061
 3969TIP3    H211914   0.486   4.969  -0.014
 3970TIP3   OH211915   4.824   1.557   3.478
 3970TIP3    H111916   4.775   1.486   3.521
 3970TIP3    H211917   4.897   1.513   3.435
 3971TIP3   OH211918   5.476   1.903   5.093
 3971TIP3    H111919   5.482   1.833   5.158
 3971TIP3    H211920   5.549   1.961   5.112
 3972TIP3   OH211921   5.262   1.596   3.404
 3972TIP3    H111922   5.294   1.528   3.464
 3972TIP3    H211923   5.320   1.589   3.328
 3973TIP3   OH211924   0.163   4.501   0.205
 3973TIP3    H111925   0.171   4.407   0.220
 3973TIP3    H211926   0.077   4.511   0.163
 3974TIP3   OH211927   4.486   1.058   3.712
 3974TIP3    H111928   4.538   1.039   3.790
 3974TIP3    H211929   4.550   1.071   3.643
 3975TIP3   OH211930   5.111   1.535   5.288
 3975TIP3    H111931   5.065   1.557   5.207
 3975TIP3    H211932   5.139   1.444   5.276
 3976TIP3   OH211933   5.047   1.279   3.539
 3976TIP3    H111934   5.024   1.292   3.631
 3976TIP3    H211935   5.032   1.185   3.524
 3977TIP3   OH211936   5.580   1.557   4.888
 3977TIP3    H111937   5.657   1.591   4.843
 3977TIP3    H211938   5.514   1.625   4.877
 3978TIP3   OH211939   0.293   4.236   0.207
 3978TIP3    H111940   0.372   4.240   0.153
 3978TIP3    H211941   0.323   4.260   0.295
 3979TIP3   OH211942   4.665   1.003   3.923
 3979TIP3    H111943   4.636   0.965   4.006
 3979TIP3    H211944   4.709   0.930   3.878
 3980TIP3   OH211945   4.959   1.088   5.203
 3980TIP3    H111946   4.873   1.128   5.191
 3980TIP3    H211947   5.001   1.097   5.118
 3981TIP3   OH211948   4.799   0.813   3.768
 3981TIP3    H111949   4.769   0.818   3.677
 3981TIP3    H211950   4.894   0.816   3.762
 3982TIP3   OH211951   5.466   1.456   5.263
 3982TIP3    H111952   5.561   1.468   5.264
 3982TIP3    H211953   5.449   1.398   5.338
 3983TIP3   OH211954   5.625   1.104   3.443
 3983TIP3    H111955   5.600   1.062   3.361
 3983TIP3    H211956   5.592   1.194   3.434
 3984TIP3   OH211957   0.751   3.917   0.030
 3984TIP3    H111958   0.689   3.919  -0.043
 3984TIP3    H211959   0.719   3.983   0.091
 3985TIP3   OH211960   4.957   0.744   5.111
 3985TIP3    H111961   5.044   0.706   5.114
 3985TIP3    H211962   4.943   0.765   5.019
 3986TIP3   OH211963   5.085   1.174   4.980
 3986TIP3    H111964   5.171   1.182   4.938
 3986TIP3    H211965   5.028   1.231   4.928
 3987TIP3   OH211966   5.722   1.372   5.021
 3987TIP3    H111967   5.660   1.436   4.986
 3987TIP3    H211968   5.806   1.398   4.984
 3988TIP3   OH211969   0.585   4.099   0.166
 3988TIP3    H111970   0.521   4.028   0.172
 3988TIP3    H211971   0.585   4.123   0.074
 3989TIP3   OH211972   1.022   3.968   0.057
 3989TIP3    H111973   0.996   3.976   0.148
 3989TIP3    H211974   0.941   3.947   0.011
 3990TIP3   OH211975   5.547   0.848   5.167
 3990TIP3    H111976   5.488   0.881   5.235
 3990TIP3    H211977   5.594   0.776   5.209
 3991TIP3   OH211978   0.444   3.862   0.252
 3991TIP3    H111979   0.492   3.786   0.283
 3991TIP3    H211980   0.430   3.916   0.330
 3992TIP3   OH211981   4.613   1.845   3.688
 3992TIP3    H111982   4.703   1.829   3.661
 3992TIP3    H211983   4.575   1.895   3.615
 3993TIP3   OH211984   4.079   1.227   3.881
 3993TIP3    H111985   4.173   1.243   3.873
 3993TIP3    H211986   4.066   1.141   3.840
 3994TIP3   OH211987   3.997   1.822   4.325
 3994TIP3    H111988   3.931   1.769   4.280
 3994TIP3    H211989   4.040   1.762   4.385
 3995TIP3   OH211990   4.134   1.656   4.499
 3995TIP3    H111991   4.122   1.590   4.567
 3995TIP3    H211992   4.184   1.726   4.542
 3996TIP3   OH211993   5.862   2.059   4.310
 3996TIP3    H111994   5.882   2.089   4.399
 3996TIP3    H211995   5.911   2.118   4.253
 3997TIP3   OH211996   5.885   2.094   4.588
 3997TIP3    H111997   5.838   2.011   4.585
 3997TIP3    H211998   5.956   2.079   4.650
 3998TIP3   OH211999   5.926   1.808   5.132
 3998TIP3    H112000   5.865   1.820   5.204
 3998TIP3    H212001   5.974   1.891   5.127
 3999TIP3   OH212002   5.936   1.559   4.400
 3999TIP3    H112003   5.987   1.493   4.353
 3999TIP3    H212004   5.937   1.635   4.342
 4000TIP3   OH212005   5.748   1.852   4.594
 4000TIP3    H112006   5.680   1.894   4.647
 4000TIP3    H212007   5.699   1.811   4.522
 4001TIP3   OH212008   5.681   0.755   3.557
 4001TIP3    H112009   5.636   0.791   3.481
 4001TIP3    H212010   5.622   0.688   3.591
 4002TIP3   OH212011   5.691   1.048   4.107
 4002TIP3    H112012   5.686   0.954   4.090
 4002TIP3    H212013   5.675   1.057   4.201
 4003TIP3   OH212014   4.305   1.085   4.878
 4003TIP3    H112015   4.294   1.056   4.788
 4003TIP3    H212016   4.400   1.089   4.890
 4004TIP3   OH212017   5.979   1.405   4.936
 4004TIP3    H112018   6.039   1.340   4.973
 4004TIP3    H212019   6.027   1.445   4.864
 4005TIP3   OH212020   5.527   0.563   3.662
 4005TIP3    H112021   5.567   0.527   3.741
 4005TIP3    H212022   5.535   0.492   3.597
 4006TIP3   OH212023   5.671   0.798   3.984
 4006TIP3    H112024   5.667   0.704   3.968
 4006TIP3    H212025   5.752   0.827   3.943
 4007TIP3   OH212026   5.842   0.939   4.502
 4007TIP3    H112027   5.922   0.961   4.455
 4007TIP3    H212028   5.855   0.975   4.590
 4008TIP3   OH212029   5.900   1.084   4.723
 4008TIP3    H112030   5.821   1.110   4.771
 4008TIP3    H212031   5.934   1.165   4.687
 4009TIP3   OH212032   0.168   3.838   0.209
 4009TIP3    H112033   0.263   3.849   0.213
 4009TIP3    H212034   0.144   3.798   0.293
 4010TIP3   OH212035   4.521   0.488   4.904
 4010TIP3    H112036   4.557   0.436   4.832
 4010TIP3    H212037   4.557   0.575   4.891
 4011TIP3   OH212038   4.280   0.769   4.960
 4011TIP3    H112039   4.296   0.726   4.876
 4011TIP3    H212040   4.328   0.852   4.955
 4012TIP3   OH212041   5.443   1.951   3.955
 4012TIP3    H112042   5.498   1.952   3.877
 4012TIP3    H212043   5.474   2.026   4.006
 4013TIP3   OH212044   0.198   4.817   0.025
 4013TIP3    H112045   0.103   4.805   0.014
 4013TIP3    H212046   0.211   4.816   0.119
 4014TIP3   OH212047   4.733   1.805   4.886
 4014TIP3    H112048   4.679   1.877   4.853
 4014TIP3    H212049   4.817   1.817   4.841
 4015TIP3   OH212050   5.146   2.035   5.020
 4015TIP3    H112051   5.182   2.030   5.109
 4015TIP3    H212052   5.207   2.089   4.972
 4016TIP3   OH212053   5.330   2.194   4.892
 4016TIP3    H112054   5.396   2.142   4.846
 4016TIP3    H212055   5.382   2.253   4.948
 4017TIP3   OH212056   4.394   2.051   4.926
 4017TIP3    H112057   4.303   2.068   4.902
 4017TIP3    H212058   4.413   2.118   4.992
 4018TIP3   OH212059   4.624   2.034   4.777
 4018TIP3    H112060   4.541   2.041   4.824
 4018TIP3    H212061   4.604   2.062   4.688
 4019TIP3   OH212062   5.048   2.052   4.566
 4019TIP3    H112063   4.973   2.065   4.508
 4019TIP3    H212064   5.060   2.137   4.609
 4020TIP3   OH212065   5.313   1.988   4.618
 4020TIP3    H112066   5.221   2.006   4.600
 4020TIP3    H212067   5.360   2.058   4.573
 4021TIP3   OH212068   5.515   2.172   4.524
 4021TIP3    H112069   5.507   2.258   4.483
 4021TIP3    H212070   5.541   2.114   4.452
 4022TIP3   OH212071   4.306   1.833   4.643
 4022TIP3    H112072   4.325   1.805   4.733
 4022TIP3    H212073   4.379   1.799   4.591
 4023TIP3   OH212074   4.509   1.714   4.509
 4023TIP3    H112075   4.519   1.632   4.557
 4023TIP3    H212076   4.596   1.755   4.511
 4024TIP3   OH212077   4.777   1.800   4.530
 4024TIP3    H112078   4.795   1.707   4.518
 4024TIP3    H212079   4.827   1.825   4.607
 4025TIP3   OH212080   4.080   1.625   4.031
 4025TIP3    H112081   3.994   1.594   4.001
 4025TIP3    H212082   4.084   1.716   4.001
 4026TIP3   OH212083   4.873   1.782   3.623
 4026TIP3    H112084   4.956   1.811   3.586
 4026TIP3    H212085   4.845   1.710   3.566
 4027TIP3   OH212086   5.590   1.924   3.719
 4027TIP3    H112087   5.582   1.829   3.712
 4027TIP3    H212088   5.541   1.959   3.644
 4028TIP3   OH212089   4.170   1.624   3.680
 4028TIP3    H112090   4.170   1.642   3.774
 4028TIP3    H212091   4.253   1.579   3.664
 4029TIP3   OH212092   5.794   2.063   4.908
 4029TIP3    H112093   5.720   2.032   4.856
 4029TIP3    H212094   5.781   2.157   4.915
 4030TIP3   OH212095   6.377   1.354   4.401
 4030TIP3    H112096   6.436   1.284   4.427
 4030TIP3    H212097   6.391   1.423   4.465
 4031TIP3   OH212098   6.359   1.730   4.129
 4031TIP3    H112099   6.298   1.657   4.125
 4031TIP3    H212100   6.401   1.722   4.215
 4032TIP3   OH212101   6.131   1.228   4.013
 4032TIP3    H112102   6.151   1.149   4.064
 4032TIP3    H212103   6.198   1.291   4.039
 4033TIP3   OH212104   6.277   1.069   4.195
 4033TIP3    H112105   6.357   1.121   4.193
 4033TIP3    H212106   6.298   0.989   4.146
 4034TIP3   OH212107   6.461   1.743   4.382
 4034TIP3    H112108   6.472   1.838   4.385
 4034TIP3    H212109   6.404   1.722   4.455
 4035TIP3   OH212110   5.948   1.448   3.700
 4035TIP3    H112111   5.881   1.453   3.632
 4035TIP3    H212112   5.964   1.539   3.724
 4036TIP3   OH212113   6.421   1.500   4.626
 4036TIP3    H112114   6.456   1.574   4.675
 4036TIP3    H212115   6.362   1.455   4.687
 4037TIP3   OH212116   6.493   2.123   4.686
 4037TIP3    H112117   6.462   2.102   4.597
 4037TIP3    H212118   6.431   2.077   4.743
 4038TIP3   OH212119   6.113   1.586   4.614
 4038TIP3    H112120   6.047   1.574   4.546
 4038TIP3    H212121   6.142   1.498   4.636
 4039TIP3   OH212122   5.987   1.797   4.248
 4039TIP3    H112123   6.076   1.826   4.266
 4039TIP3    H212124   5.931   1.866   4.284
 4040TIP3   OH212125   6.130   2.002   3.784
 4040TIP3    H112126   6.195   1.995   3.853
 4040TIP3    H212127   6.061   1.940   3.808
 4041TIP3   OH212128   6.286   1.795   4.584
 4041TIP3    H112129   6.348   1.790   4.657
 4041TIP3    H212130   6.225   1.724   4.599
 4042TIP3   OH212131   6.038   0.648   4.090
 4042TIP3    H112132   6.034   0.662   4.185
 4042TIP3    H212133   6.056   0.555   4.079
 4043TIP3   OH212134   6.115   0.753   3.793
 4043TIP3    H112135   6.110   0.743   3.698
 4043TIP3    H212136   6.026   0.774   3.820
 4044TIP3   OH212137   6.306   0.875   3.944
 4044TIP3    H112138   6.236   0.838   3.891
 4044TIP3    H212139   6.336   0.803   3.999
 4045TIP3   OH212140   6.480   1.720   4.777
 4045TIP3    H112141   6.561   1.757   4.812
 4045TIP3    H212142   6.420   1.720   4.851
 4046TIP3   OH212143   6.326   1.384   4.121
 4046TIP3    H112144   6.383   1.433   4.061
 4046TIP3    H212145   6.368   1.394   4.206
 4047TIP3   OH212146   6.222   1.360   4.767
 4047TIP3    H112147   6.247   1.310   4.846
 4047TIP3    H212148   6.159   1.304   4.722
 4048TIP3   OH212149   6.280   1.734   3.659
 4048TIP3    H112150   6.278   1.808   3.598
 4048TIP3    H212151   6.299   1.773   3.744
 4049TIP3   OH212152   5.976   1.086   3.476
 4049TIP3    H112153   6.027   1.166   3.486
 4049TIP3    H212154   5.887   1.116   3.462
 4050TIP3   OH212155   6.270   1.993   3.545
 4050TIP3    H112156   6.209   2.001   3.619
 4050TIP3    H212157   6.328   2.068   3.554
 4051TIP3   OH212158   6.163   1.992   4.384
 4051TIP3    H112159   6.216   1.935   4.440
 4051TIP3    H212160   6.174   2.079   4.422
 4052TIP3   OH212161   6.098   1.322   3.507
 4052TIP3    H112162   6.074   1.385   3.575
 4052TIP3    H212163   6.138   1.374   3.438
 4053TIP3   OH212164   6.109   1.537   3.323
 4053TIP3    H112165   6.106   1.630   3.345
 4053TIP3    H212166   6.181   1.529   3.261
 4054TIP3   OH212167   5.987   0.826   3.530
 4054TIP3    H112168   5.987   0.919   3.505
 4054TIP3    H212169   5.995   0.780   3.447
 4055TIP3   OH212170   5.956   1.717   3.740
 4055TIP3    H112171   5.920   1.771   3.810
 4055TIP3    H212172   5.945   1.770   3.661
 4056TIP3   OH212173   6.168   2.294   4.794
 4056TIP3    H112174   6.245   2.298   4.850
 4056TIP3    H212175   6.144   2.201   4.792
 4057TIP3   OH212176   0.132   2.232   4.895
 4057TIP3    H112177   0.173   2.315   4.871
 4057TIP3    H212178   0.090   2.202   4.814
 4058TIP3   OH212179   6.290   1.711   4.968
 4058TIP3    H112180   6.303   1.692   5.061
 4058TIP3    H212181   6.195   1.714   4.958
 4059TIP3   OH212182   5.853   1.469   3.378
 4059TIP3    H112183   5.946   1.490   3.368
 4059TIP3    H212184   5.843   1.385   3.334
 4060TIP3   OH212185   5.789   2.078   3.817
 4060TIP3    H112186   5.725   2.026   3.769
 4060TIP3    H212187   5.833   2.016   3.875
 4061TIP3   OH212188   5.935   1.910   3.982
 4061TIP3    H112189   5.921   1.843   4.050
 4061TIP3    H212190   5.976   1.983   4.028
 4062TIP3   OH212191   6.108   1.345   4.340
 4062TIP3    H112192   6.105   1.309   4.251
 4062TIP3    H212193   6.201   1.353   4.360
 4063TIP3   OH212194   6.399   0.703   4.427
 4063TIP3    H112195   6.388   0.682   4.334
 4063TIP3    H212196   6.372   0.794   4.434
 4064TIP3   OH212197   6.094   1.022   4.406
 4064TIP3    H112198   6.156   1.046   4.337
 4064TIP3    H212199   6.122   1.072   4.482
 4065TIP3   OH212200   6.317   2.006   4.856
 4065TIP3    H112201   6.226   1.987   4.835
 4065TIP3    H212202   6.328   1.974   4.946
 4066TIP3   OH212203   6.453   2.014   4.404
 4066TIP3    H112204   6.422   2.073   4.336
 4066TIP3    H212205   6.548   2.024   4.404
 4067TIP3   OH212206   6.180   2.293   4.413
 4067TIP3    H112207   6.090   2.317   4.389
 4067TIP3    H212208   6.206   2.360   4.476
 4068TIP3   OH212209   6.392   2.239   4.247
 4068TIP3    H112210   6.310   2.262   4.292
 4068TIP3    H212211   6.376   2.262   4.156
 4069TIP3   OH212212   6.084   2.102   4.139
 4069TIP3    H112213   6.101   2.073   4.229
 4069TIP3    H212214   6.155   2.064   4.088
 4070TIP3   OH212215   6.274   1.963   4.015
 4070TIP3    H112216   6.302   1.879   4.052
 4070TIP3    H212217   6.353   2.001   3.978
 4071TIP3   OH212218   5.882   1.875   3.521
 4071TIP3    H112219   5.795   1.848   3.494
 4071TIP3    H212220   5.887   1.968   3.498
 4072TIP3   OH212221   5.933   1.890   3.189
 4072TIP3    H112222   5.925   1.920   3.280
 4072TIP3    H212223   6.013   1.837   3.188
 4073TIP3   OH212224   1.306   2.498   4.849
 4073TIP3    H112225   1.268   2.581   4.820
 4073TIP3    H212226   1.246   2.432   4.815
 4074TIP3   OH212227   1.298   2.488   5.246
 4074TIP3    H112228   1.352   2.464   5.322
 4074TIP3    H212229   1.277   2.405   5.204
 4075TIP3   OH212230   2.810   5.564   0.275
 4075TIP3    H112231   2.745   5.497   0.256
 4075TIP3    H212232   2.884   5.542   0.218
 4076TIP3   OH212233   1.595   2.787   4.920
 4076TIP3    H112234   1.569   2.719   4.983
 4076TIP3    H212235   1.606   2.866   4.973
 4077TIP3   OH212236   2.774   5.855   0.022
 4077TIP3    H112237   2.752   5.763   0.008
 4077TIP3    H212238   2.864   5.864  -0.007
 4078TIP3   OH212239   0.294   1.995   5.084
 4078TIP3    H112240   0.279   2.088   5.100
 4078TIP3    H212241   0.216   1.952   5.119
 4079TIP3   OH212242   0.346   2.263   5.230
 4079TIP3    H112243   0.394   2.186   5.262
 4079TIP3    H212244   0.411   2.310   5.178
 4080TIP3   OH212245   1.236   3.229   4.932
 4080TIP3    H112246   1.266   3.163   4.870
 4080TIP3    H212247   1.228   3.182   5.015
 4081TIP3   OH212248   1.125   2.706   5.261
 4081TIP3    H112249   1.168   2.627   5.230
 4081TIP3    H212250   1.197   2.765   5.286
 4082TIP3   OH212251   2.151   2.028   5.270
 4082TIP3    H112252   2.173   2.112   5.311
 4082TIP3    H212253   2.181   2.037   5.180
 4083TIP3   OH212254   1.523   2.214   5.300
 4083TIP3    H112255   1.572   2.132   5.308
 4083TIP3    H212256   1.512   2.226   5.206
 4084TIP3   OH212257   0.902   1.860   5.246
 4084TIP3    H112258   0.886   1.932   5.184
 4084TIP3    H212259   0.852   1.787   5.210
 4085TIP3   OH212260   1.572   1.948   4.912
 4085TIP3    H112261   1.652   1.924   4.958
 4085TIP3    H212262   1.595   2.028   4.865
 4086TIP3   OH212263   2.652   5.129   0.040
 4086TIP3    H112264   2.738   5.142   0.079
 4086TIP3    H212265   2.668   5.077  -0.039
 4087TIP3   OH212266   0.941   2.260   5.204
 4087TIP3    H112267   1.035   2.244   5.201
 4087TIP3    H212268   0.903   2.183   5.162
 4088TIP3   OH212269   4.382   5.320   0.110
 4088TIP3    H112270   4.293   5.355   0.113
 4088TIP3    H212271   4.409   5.313   0.202
 4089TIP3   OH212272   3.008   4.966   0.479
 4089TIP3    H112273   2.954   4.946   0.401
 4089TIP3    H212274   2.966   4.917   0.550
 4090TIP3   OH212275   1.174   2.699   4.719
 4090TIP3    H112276   1.163   2.689   4.624
 4090TIP3    H212277   1.134   2.784   4.738
 4091TIP3   OH212278   3.125   5.712   0.158
 4091TIP3    H112279   3.057   5.778   0.154
 4091TIP3    H212280   3.183   5.733   0.084
 4092TIP3   OH212281   2.916   5.100   0.077
 4092TIP3    H112282   2.979   5.157   0.122
 4092TIP3    H212283   2.969   5.032   0.037
 4093TIP3   OH212284   0.220   2.501   4.852
 4093TIP3    H112285   0.142   2.538   4.812
 4093TIP3    H212286   0.262   2.576   4.895
 4094TIP3   OH212287   1.632   3.029   5.069
 4094TIP3    H112288   1.545   3.022   5.109
 4094TIP3    H212289   1.630   3.112   5.021
 4095TIP3   OH212290   4.076   5.033   0.097
 4095TIP3    H112291   3.992   5.049   0.055
 4095TIP3    H212292   4.141   5.057   0.031
 4096TIP3   OH212293   3.381   4.604   0.071
 4096TIP3    H112294   3.375   4.515   0.104
 4096TIP3    H212295   3.322   4.654   0.127
 4097TIP3   OH212296   1.329   3.065   4.727
 4097TIP3    H112297   1.377   2.984   4.714
 4097TIP3    H212298   1.388   3.134   4.696
 4098TIP3   OH212299   1.480   2.846   4.673
 4098TIP3    H112300   1.489   2.773   4.612
 4098TIP3    H212301   1.523   2.816   4.753
 4099TIP3   OH212302   4.022   6.002   0.103
 4099TIP3    H112303   4.025   5.928   0.043
 4099TIP3    H212304   4.012   6.079   0.047
 4100TIP3   OH212305   1.148   2.337   4.682
 4100TIP3    H112306   1.071   2.390   4.660
 4100TIP3    H212307   1.198   2.334   4.600
 4101TIP3   OH212308   1.117   2.130   4.380
 4101TIP3    H112309   1.181   2.180   4.431
 4101TIP3    H212310   1.169   2.066   4.333
 4102TIP3   OH212311   2.044   2.577   5.297
 4102TIP3    H112312   1.981   2.645   5.273
 4102TIP3    H212313   2.078   2.545   5.214
 4103TIP3   OH212314   1.483   2.432   4.647
 4103TIP3    H112315   1.435   2.461   4.725
 4103TIP3    H212316   1.548   2.371   4.680
 4104TIP3   OH212317   3.885   5.511   0.240
 4104TIP3    H112318   3.900   5.590   0.291
 4104TIP3    H212319   3.800   5.525   0.197
 4105TIP3   OH212320   0.737   2.400   5.061
 4105TIP3    H112321   0.697   2.343   4.995
 4105TIP3    H212322   0.811   2.349   5.095
 4106TIP3   OH212323   0.860   2.814   5.205
 4106TIP3    H112324   0.831   2.803   5.114
 4106TIP3    H212325   0.950   2.781   5.205
 4107TIP3   OH212326   2.988   5.474   0.090
 4107TIP3    H112327   3.025   5.436   0.010
 4107TIP3    H212328   3.050   5.543   0.115
 4108TIP3   OH212329   1.396   3.025   5.200
 4108TIP3    H112330   1.376   3.104   5.251
 4108TIP3    H212331   1.380   2.953   5.261
 4109TIP3   OH212332   1.330   2.281   4.477
 4109TIP3    H112333   1.390   2.338   4.526
 4109TIP3    H212334   1.358   2.290   4.385
 4110TIP3   OH212335   2.878   5.555   0.569
 4110TIP3    H112336   2.878   5.613   0.645
 4110TIP3    H212337   2.813   5.592   0.510
 4111TIP3   OH212338   1.074   2.959   4.745
 4111TIP3    H112339   1.162   2.997   4.746
 4111TIP3    H212340   1.023   3.019   4.689
 4112TIP3   OH212341   5.068  -0.030   0.501
 4112TIP3    H112342   5.087  -0.004   0.411
 4112TIP3    H212343   5.052   0.052   0.547
 4113TIP3   OH212344   1.845   1.501   4.523
 4113TIP3    H112345   1.771   1.524   4.579
 4113TIP3    H212346   1.865   1.582   4.476
 4114TIP3   OH212347   0.609   2.247   4.866
 4114TIP3    H112348   0.538   2.288   4.817
 4114TIP3    H212349   0.580   2.156   4.879
 4115TIP3   OH212350   1.688   2.877   4.084
 4115TIP3    H112351   1.687   2.970   4.060
 4115TIP3    H212352   1.776   2.848   4.062
 4116TIP3   OH212353   2.654   5.687   0.473
 4116TIP3    H112354   2.639   5.730   0.389
 4116TIP3    H212355   2.569   5.689   0.517
 4117TIP3   OH212356   2.486   5.848   0.146
 4117TIP3    H112357   2.560   5.879   0.093
 4117TIP3    H212358   2.468   5.920   0.207
 4118TIP3   OH212359   6.456   0.270   0.129
 4118TIP3    H112360   6.525   0.210   0.100
 4118TIP3    H212361   6.405   0.218   0.192
 4119TIP3   OH212362   5.517   0.038   0.271
 4119TIP3    H112363   5.508   0.125   0.309
 4119TIP3    H212364   5.481  -0.021   0.337
 4120TIP3   OH212365   0.974   3.176   4.562
 4120TIP3    H112366   0.930   3.159   4.479
 4120TIP3    H212367   0.942   3.262   4.590
 4121TIP3   OH212368   0.421   3.035   4.941
 4121TIP3    H112369   0.466   3.028   5.025
 4121TIP3    H212370   0.370   2.955   4.934
 4122TIP3   OH212371   1.173   3.101   4.188
 4122TIP3    H112372   1.223   3.028   4.153
 4122TIP3    H212373   1.210   3.116   4.275
 4123TIP3   OH212374   1.227   3.152   4.456
 4123TIP3    H112375   1.143   3.153   4.501
 4123TIP3    H212376   1.288   3.116   4.521
 4124TIP3   OH212377   4.132   5.476   0.411
 4124TIP3    H112378   4.066   5.454   0.345
 4124TIP3    H212379   4.155   5.392   0.450
 4125TIP3   OH212380   3.163   4.726   0.207
 4125TIP3    H112381   3.080   4.712   0.162
 4125TIP3    H212382   3.153   4.811   0.249
 4126TIP3   OH212383   3.676   4.737   0.455
 4126TIP3    H112384   3.740   4.740   0.526
 4126TIP3    H212385   3.593   4.759   0.496
 4127TIP3   OH212386   3.915   5.261   0.330
 4127TIP3    H112387   3.876   5.253   0.417
 4127TIP3    H212388   3.888   5.347   0.300
 4128TIP3   OH212389   1.401   2.285   4.214
 4128TIP3    H112390   1.369   2.274   4.124
 4128TIP3    H212391   1.486   2.328   4.204
 4129TIP3   OH212392   1.121   1.693   4.528
 4129TIP3    H112393   1.091   1.697   4.619
 4129TIP3    H212394   1.088   1.610   4.495
 4130TIP3   OH212395   3.123   5.245   0.193
 4130TIP3    H112396   3.053   5.270   0.253
 4130TIP3    H212397   3.119   5.310   0.122
 4131TIP3   OH212398   0.803   2.056   5.082
 4131TIP3    H112399   0.714   2.030   5.109
 4131TIP3    H212400   0.813   2.018   4.994
 4132TIP3   OH212401   1.272   2.124   4.804
 4132TIP3    H112402   1.230   2.200   4.764
 4132TIP3    H212403   1.342   2.101   4.743
 4133TIP3   OH212404   3.643   5.512   0.658
 4133TIP3    H112405   3.642   5.459   0.738
 4133TIP3    H212406   3.728   5.495   0.619
 4134TIP3   OH212407   1.396   2.127   5.052
 4134TIP3    H112408   1.356   2.151   4.969
 4134TIP3    H212409   1.463   2.062   5.028
 4135TIP3   OH212410   2.879   5.273   0.583
 4135TIP3    H112411   2.956   5.245   0.533
 4135TIP3    H212412   2.831   5.192   0.600
 4136TIP3   OH212413   0.787   1.666   4.500
 4136TIP3    H112414   0.779   1.667   4.595
 4136TIP3    H212415   0.714   1.718   4.469
 4137TIP3   OH212416   2.439   4.792  -0.001
 4137TIP3    H112417   2.526   4.814   0.033
 4137TIP3    H212418   2.440   4.697  -0.010
 4138TIP3   OH212419   0.313   1.738   4.918
 4138TIP3    H112420   0.327   1.734   4.823
 4138TIP3    H212421   0.302   1.832   4.936
 4139TIP3   OH212422   3.615   5.475   0.158
 4139TIP3    H112423   3.649   5.412   0.095
 4139TIP3    H212424   3.606   5.425   0.239
 4140TIP3   OH212425   1.152   1.855   5.130
 4140TIP3    H112426   1.077   1.852   5.189
 4140TIP3    H212427   1.228   1.842   5.186
 4141TIP3   OH212428   0.561   1.927   5.126
 4141TIP3    H112429   0.471   1.925   5.095
 4141TIP3    H212430   0.593   1.837   5.114
 4142TIP3   OH212431   0.811   1.924   4.843
 4142TIP3    H112432   0.906   1.937   4.833
 4142TIP3    H212433   0.775   1.947   4.757
 4143TIP3   OH212434   3.800   5.026   0.017
 4143TIP3    H112435   3.776   5.034   0.110
 4143TIP3    H212436   3.766   4.941  -0.010
 4144TIP3   OH212437   0.691   1.962   4.601
 4144TIP3    H112438   0.628   1.915   4.546
 4144TIP3    H212439   0.749   2.006   4.538
 4145TIP3   OH212440   6.137   0.570   0.258
 4145TIP3    H112441   6.132   0.588   0.164
 4145TIP3    H212442   6.218   0.613   0.286
 4146TIP3   OH212443   1.210   2.203   5.236
 4146TIP3    H112444   1.272   2.176   5.169
 4146TIP3    H212445   1.235   2.152   5.313
 4147TIP3   OH212446   0.732   1.695   5.109
 4147TIP3    H112447   0.712   1.613   5.155
 4147TIP3    H212448   0.760   1.666   5.022
 4148TIP3   OH212449   3.376   5.153   0.194
 4148TIP3    H112450   3.291   5.195   0.182
 4148TIP3    H212451   3.428   5.217   0.242
 4149TIP3   OH212452   0.912   2.484   4.621
 4149TIP3    H112453   0.843   2.420   4.604
 4149TIP3    H212454   0.892   2.519   4.708
 4150TIP3   OH212455   1.806   2.736   5.223
 4150TIP3    H112456   1.789   2.793   5.148
 4150TIP3    H212457   1.733   2.674   5.223
 4151TIP3   OH212458   1.380   1.791   4.516
 4151TIP3    H112459   1.285   1.780   4.519
 4151TIP3    H212460   1.394   1.884   4.534
 4152TIP3   OH212461   3.491   5.895   0.319
 4152TIP3    H112462   3.532   5.840   0.386
 4152TIP3    H212463   3.552   5.968   0.308
 4153TIP3   OH212464   1.449   2.051   4.598
 4153TIP3    H112465   1.530   2.080   4.640
 4153TIP3    H212466   1.424   2.125   4.542
 4154TIP3   OH212467   0.598   2.523   5.265
 4154TIP3    H112468   0.638   2.493   5.183
 4154TIP3    H212469   0.644   2.474   5.333
 4155TIP3   OH212470   1.071   2.634   4.456
 4155TIP3    H112471   1.024   2.718   4.458
 4155TIP3    H212472   1.019   2.577   4.513
 4156TIP3   OH212473   3.316   5.595   0.578
 4156TIP3    H112474   3.351   5.598   0.488
 4156TIP3    H212475   3.360   5.520   0.618
 4157TIP3   OH212476   5.786  -0.002   0.224
 4157TIP3    H112477   5.693   0.018   0.219
 4157TIP3    H212478   5.822   0.063   0.284
 4158TIP3   OH212479   1.890   2.141   4.389
 4158TIP3    H112480   1.814   2.100   4.349
 4158TIP3    H212481   1.888   2.232   4.358
 4159TIP3   OH212482   4.276   6.045   0.204
 4159TIP3    H112483   4.184   6.043   0.176
 4159TIP3    H212484   4.325   6.059   0.122
 4160TIP3   OH212485   1.593   2.950   4.338
 4160TIP3    H112486   1.569   2.874   4.391
 4160TIP3    H212487   1.623   2.913   4.255
 4161TIP3   OH212488   1.564   2.591   5.172
 4161TIP3    H112489   1.470   2.571   5.174
 4161TIP3    H212490   1.605   2.513   5.136
 4162TIP3   OH212491   0.735   2.825   4.952
 4162TIP3    H112492   0.746   2.899   4.892
 4162TIP3    H212493   0.642   2.806   4.951
 4163TIP3   OH212494   0.284   2.112   4.625
 4163TIP3    H112495   0.336   2.187   4.655
 4163TIP3    H212496   0.195   2.132   4.653
 4164TIP3   OH212497   0.821   2.575   4.860
 4164TIP3    H112498   0.811   2.665   4.891
 4164TIP3    H212499   0.796   2.521   4.935
 4165TIP3   OH212500   5.332   0.089   0.077
 4165TIP3    H112501   5.368   0.163   0.026
 4165TIP3    H212502   5.405   0.060   0.131
 4166TIP3   OH212503   0.650   3.048   4.786
 4166TIP3    H112504   0.566   3.051   4.832
 4166TIP3    H212505   0.682   3.138   4.788
 4167TIP3   OH212506   3.538   5.859   0.048
 4167TIP3    H112507   3.530   5.857   0.143
 4167TIP3    H212508   3.613   5.804   0.028
 4168TIP3   OH212509   1.360   2.692   4.260
 4168TIP3    H112510   1.414   2.675   4.337
 4168TIP3    H212511   1.275   2.653   4.281
 4169TIP3   OH212512   5.942   0.256   0.095
 4169TIP3    H112513   5.861   0.206   0.087
 4169TIP3    H212514   5.937   0.320   0.024
 4170TIP3   OH212515   1.682   3.154   4.053
 4170TIP3    H112516   1.722   3.223   3.999
 4170TIP3    H212517   1.605   3.195   4.092
 4171TIP3   OH212518   1.528   2.642   4.475
 4171TIP3    H112519   1.507   2.569   4.533
 4171TIP3    H212520   1.621   2.632   4.456
 4172TIP3   OH212521   2.641   6.097   0.230
 4172TIP3    H112522   2.728   6.056   0.224
 4172TIP3    H212523   2.639   6.137   0.317
 4173TIP3   OH212524   0.708   2.656   4.249
 4173TIP3    H112525   0.724   2.566   4.222
 4173TIP3    H212526   0.689   2.650   4.343
 4174TIP3   OH212527   0.650   2.664   4.519
 4174TIP3    H112528   0.725   2.636   4.570
 4174TIP3    H212529   0.650   2.759   4.528
 4175TIP3   OH212530   0.402   2.351   4.715
 4175TIP3    H112531   0.344   2.403   4.769
 4175TIP3    H212532   0.420   2.407   4.639
 4176TIP3   OH212533   3.742   5.050   0.281
 4176TIP3    H112534   3.810   5.106   0.317
 4176TIP3    H212535   3.682   5.036   0.354
 4177TIP3   OH212536   1.437   1.736   4.787
 4177TIP3    H112537   1.420   1.757   4.695
 4177TIP3    H212538   1.477   1.815   4.823
 4178TIP3   OH212539   0.924   2.860   4.464
 4178TIP3    H112540   0.837   2.882   4.499
 4178TIP3    H212541   0.946   2.935   4.408
 4179TIP3   OH212542   1.086   1.940   4.880
 4179TIP3    H112543   1.150   2.005   4.850
 4179TIP3    H212544   1.110   1.921   4.970
 4180TIP3   OH212545   3.594   5.286   0.354
 4180TIP3    H112546   3.599   5.255   0.445
 4180TIP3    H212547   3.636   5.216   0.303
 4181TIP3   OH212548   1.258   1.635   4.970
 4181TIP3    H112549   1.244   1.711   5.027
 4181TIP3    H212550   1.323   1.664   4.906
 4182TIP3   OH212551   0.668   2.938   4.535
 4182TIP3    H112552   0.647   3.009   4.474
 4182TIP3    H212553   0.662   2.978   4.622
 4183TIP3   OH212554   0.770   1.656   4.780
 4183TIP3    H112555   0.760   1.747   4.808
 4183TIP3    H212556   0.864   1.640   4.784
 4184TIP3   OH212557   4.165   5.165   0.322
 4184TIP3    H112558   4.080   5.211   0.323
 4184TIP3    H212559   4.161   5.110   0.244
 4185TIP3   OH212560   1.668   2.358   5.071
 4185TIP3    H112561   1.659   2.321   4.983
 4185TIP3    H212562   1.743   2.311   5.108
 4186TIP3   OH212563   0.399   2.527   4.496
 4186TIP3    H112564   0.455   2.603   4.512
 4186TIP3    H212565   0.452   2.468   4.442
 4187TIP3   OH212566   0.300   1.839   4.661
 4187TIP3    H112567   0.303   1.935   4.654
 4187TIP3    H212568   0.305   1.808   4.570
 4188TIP3   OH212569   1.647   3.298   4.985
 4188TIP3    H112570   1.601   3.347   4.917
 4188TIP3    H212571   1.739   3.319   4.973
 4189TIP3   OH212572   2.890   4.631   0.170
 4189TIP3    H112573   2.877   4.593   0.083
 4189TIP3    H212574   2.879   4.557   0.230
 4190TIP3   OH212575   0.308   2.775   4.904
 4190TIP3    H112576   0.217   2.804   4.904
 4190TIP3    H212577   0.330   2.761   4.812
 4191TIP3   OH212578   4.867   0.182   0.624
 4191TIP3    H112579   4.901   0.211   0.709
 4191TIP3    H212580   4.841   0.091   0.638
 4192TIP3   OH212581   5.241   0.203   0.638
 4192TIP3    H112582   5.293   0.248   0.705
 4192TIP3    H212583   5.251   0.257   0.560
 4193TIP3   OH212584   0.867   2.856   4.146
 4193TIP3    H112585   0.820   2.785   4.189
 4193TIP3    H212586   0.943   2.814   4.105
 4194TIP3   OH212587   5.868   0.158   0.425
 4194TIP3    H112588   5.852   0.100   0.499
 4194TIP3    H212589   5.944   0.210   0.452
 4195TIP3   OH212590   1.304   2.890   4.073
 4195TIP3    H112591   1.339   2.828   4.137
 4195TIP3    H212592   1.363   2.882   3.998
 4196TIP3   OH212593   0.551   2.343   4.375
 4196TIP3    H112594   0.605   2.322   4.452
 4196TIP3    H212595   0.614   2.357   4.304
 4197TIP3   OH212596   3.261   5.890   0.469
 4197TIP3    H112597   3.322   5.883   0.395
 4197TIP3    H212598   3.306   5.846   0.541
 4198TIP3   OH212599   1.060   2.575   4.189
 4198TIP3    H112600   1.057   2.589   4.283
 4198TIP3    H212601   1.057   2.480   4.178
 4199TIP3   OH212602   3.800   5.920   0.242
 4199TIP3    H112603   3.881   5.947   0.198
 4199TIP3    H212604   3.739   5.991   0.225
 4200TIP3   OH212605   0.719   2.289   4.587
 4200TIP3    H112606   0.700   2.252   4.673
 4200TIP3    H212607   0.766   2.219   4.541
 4201TIP3   OH212608   3.089   5.476   0.381
 4201TIP3    H112609   3.053   5.487   0.469
 4201TIP3    H212610   3.167   5.421   0.393
 4202TIP3   OH212611   0.846   2.103   4.426
 4202TIP3    H112612   0.818   2.105   4.335
 4202TIP3    H212613   0.941   2.107   4.422
 4203TIP3   OH212614   3.702   5.912   0.628
 4203TIP3    H112615   3.794   5.917   0.603
 4203TIP3    H212616   3.695   5.830   0.677
 4204TIP3   OH212617   1.626   2.405   4.115
 4204TIP3    H112618   1.630   2.361   4.030
 4204TIP3    H212619   1.607   2.497   4.094
 4205TIP3   OH212620   3.298   5.157   0.642
 4205TIP3    H112621   3.394   5.160   0.643
 4205TIP3    H212622   3.272   5.212   0.568
 4206TIP3   OH212623   3.279   4.969   0.377
 4206TIP3    H112624   3.290   5.039   0.313
 4206TIP3    H212625   3.186   4.971   0.399
 4207TIP3   OH212626   3.349   5.597   0.296
 4207TIP3    H112627   3.413   5.595   0.225
 4207TIP3    H212628   3.271   5.638   0.257
 4208TIP3   OH212629   3.889   5.528   0.565
 4208TIP3    H112630   3.961   5.498   0.620
 4208TIP3    H212631   3.930   5.588   0.503
 4209TIP3   OH212632   3.942   5.734   0.379
 4209TIP3    H112633   3.885   5.799   0.336
 4209TIP3    H212634   4.029   5.754   0.346
 4210TIP3   OH212635   3.425   4.782   0.530
 4210TIP3    H112636   3.360   4.840   0.489
 4210TIP3    H212637   3.374   4.733   0.595
 4211TIP3   OH212638   3.799   5.184   0.553
 4211TIP3    H112639   3.742   5.113   0.581
 4211TIP3    H212640   3.832   5.222   0.635
 4212TIP3   OH212641   4.130   5.210   0.810
 4212TIP3    H112642   4.049   5.160   0.794
 4212TIP3    H212643   4.163   5.176   0.893
 4213TIP3   OH212644   0.661   3.153   4.358
 4213TIP3    H112645   0.752   3.131   4.335
 4213TIP3    H212646   0.626   3.194   4.279
 4214TIP3   OH212647   0.137   2.498   4.550
 4214TIP3    H112648   0.231   2.501   4.532
 4214TIP3    H212649   0.108   2.416   4.510
 4215TIP3   OH212650   1.905   3.383   4.967
 4215TIP3    H112651   1.934   3.405   5.055
 4215TIP3    H212652   1.979   3.405   4.911
 4216TIP3   OH212653   1.927   3.401   5.252
 4216TIP3    H112654   1.886   3.315   5.245
 4216TIP3    H212655   1.999   3.389   5.312
 4217TIP3   OH212656   6.350   0.008   0.499
 4217TIP3    H112657   6.257   0.014   0.521
 4217TIP3    H212658   6.377   0.099   0.488
 4218TIP3   OH212659   1.800   2.605   4.444
 4218TIP3    H112660   1.870   2.661   4.410
 4218TIP3    H212661   1.839   2.562   4.520
 4219TIP3   OH212662   1.897   2.447   4.656
 4219TIP3    H112663   1.831   2.386   4.688
 4219TIP3    H212664   1.957   2.458   4.730
 4220TIP3   OH212665   1.791   3.158   5.259
 4220TIP3    H112666   1.722   3.200   5.311
 4220TIP3    H212667   1.744   3.114   5.188
 4221TIP3   OH212668   1.849   2.390   4.274
 4221TIP3    H112669   1.776   2.388   4.213
 4221TIP3    H212670   1.829   2.462   4.334
 4222TIP3   OH212671   1.691   2.037   4.226
 4222TIP3    H112672   1.647   2.066   4.146
 4222TIP3    H212673   1.688   1.942   4.223
 4223TIP3   OH212674   2.614   5.399   0.170
 4223TIP3    H112675   2.580   5.372   0.085
 4223TIP3    H212676   2.546   5.457   0.206
 4224TIP3   OH212677   4.189   5.800   0.297
 4224TIP3    H112678   4.257   5.733   0.292
 4224TIP3    H212679   4.228   5.877   0.255
 4225TIP3   OH212680   4.363   5.600   0.338
 4225TIP3    H112681   4.286   5.549   0.362
 4225TIP3    H212682   4.437   5.542   0.353
 4226TIP3   OH212683   1.670   1.762   4.202
 4226TIP3    H112684   1.740   1.740   4.264
 4226TIP3    H212685   1.593   1.717   4.236
 4227TIP3   OH212686   1.894   2.243   5.189
 4227TIP3    H112687   1.974   2.265   5.142
 4227TIP3    H212688   1.911   2.268   5.279
 4228TIP3   OH212689   4.124   5.424   0.123
 4228TIP3    H112690   4.036   5.447   0.152
 4228TIP3    H212691   4.158   5.505   0.085
 4229TIP3   OH212692   4.568   4.951   0.779
 4229TIP3    H112693   4.649   4.982   0.739
 4229TIP3    H212694   4.499   4.976   0.717
 4230TIP3   OH212695   1.876   1.750   4.692
 4230TIP3    H112696   1.902   1.759   4.784
 4230TIP3    H212697   1.794   1.702   4.695
 4231TIP3   OH212698   2.702   4.814   0.068
 4231TIP3    H112699   2.784   4.765   0.078
 4231TIP3    H212700   2.729   4.905   0.064
 4232TIP3   OH212701   2.451   5.216   0.302
 4232TIP3    H112702   2.435   5.182   0.215
 4232TIP3    H212703   2.529   5.270   0.293
 4233TIP3   OH212704   4.437   5.165   0.342
 4233TIP3    H112705   4.341   5.161   0.345
 4233TIP3    H212706   4.466   5.078   0.371
 4234TIP3   OH212707   1.901   1.711   4.349
 4234TIP3    H112708   1.948   1.649   4.294
 4234TIP3    H212709   1.959   1.787   4.356
 4235TIP3   OH212710   0.325   1.522   5.090
 4235TIP3    H112711   0.236   1.522   5.125
 4235TIP3    H212712   0.329   1.602   5.036
 4236TIP3   OH212713   1.475   3.263   4.615
 4236TIP3    H112714   1.530   3.250   4.538
 4236TIP3    H212715   1.521   3.328   4.667
 4237TIP3   OH212716   5.115   0.037   0.244
 4237TIP3    H112717   5.063   0.109   0.208
 4237TIP3    H212718   5.198   0.041   0.196
 4238TIP3   OH212719   5.521   0.295   0.365
 4238TIP3    H112720   5.563   0.282   0.450
 4238TIP3    H212721   5.586   0.342   0.313
 4239TIP3   OH212722   5.717   0.435   0.238
 4239TIP3    H112723   5.782   0.380   0.193
 4239TIP3    H212724   5.769   0.492   0.294
 4240TIP3   OH212725   4.310   4.885   0.359
 4240TIP3    H112726   4.228   4.867   0.312
 4240TIP3    H212727   4.366   4.810   0.340
 4241TIP3   OH212728   4.808   0.374   0.243
 4241TIP3    H112729   4.716   0.386   0.218
 4241TIP3    H212730   4.811   0.398   0.336
 4242TIP3   OH212731   5.024   0.265   0.122
 4242TIP3    H112732   4.947   0.297   0.169
 4242TIP3    H212733   5.009   0.291   0.031
 4243TIP3   OH212734   1.095   3.358   5.226
 4243TIP3    H112735   1.029   3.371   5.159
 4243TIP3    H212736   1.107   3.445   5.265
 4244TIP3   OH212737   1.357   3.290   5.284
 4244TIP3    H112738   1.265   3.307   5.265
 4244TIP3    H212739   1.405   3.354   5.232
 4245TIP3   OH212740   1.559   3.474   5.180
 4245TIP3    H112741   1.554   3.560   5.140
 4245TIP3    H212742   1.589   3.416   5.110
 4246TIP3   OH212743   4.679   0.076   0.007
 4246TIP3    H112744   4.710   0.054   0.095
 4246TIP3    H212745   4.736   0.026  -0.051
 4247TIP3   OH212746   0.549   3.012   5.178
 4247TIP3    H112747   0.562   2.935   5.233
 4247TIP3    H212748   0.634   3.057   5.180
 4248TIP3   OH212749   0.815   3.102   5.185
 4248TIP3    H112750   0.840   3.011   5.171
 4248TIP3    H212751   0.865   3.129   5.262
 4249TIP3   OH212752   1.367   1.751   5.257
 4249TIP3    H112753   1.332   1.672   5.299
 4249TIP3    H212754   1.448   1.722   5.215
 4250TIP3   OH212755   1.887   1.668   5.173
 4250TIP3    H112756   1.925   1.713   5.098
 4250TIP3    H212757   1.795   1.691   5.171
 4251TIP3   OH212758   2.000   1.745   4.940
 4251TIP3    H112759   2.067   1.685   4.909
 4251TIP3    H212760   2.036   1.832   4.922
 4252TIP3   OH212761   0.661   1.466   5.237
 4252TIP3    H112762   0.570   1.459   5.208
 4252TIP3    H212763   0.694   1.376   5.234
 4253TIP3   OH212764   0.493   1.321   4.973
 4253TIP3    H112765   0.523   1.362   4.892
 4253TIP3    H212766   0.420   1.376   5.002
 4254TIP3   OH212767   1.077   1.506   5.145
 4254TIP3    H112768   1.131   1.549   5.079
 4254TIP3    H212769   1.123   1.522   5.228
 4255TIP3   OH212770   1.605   1.658   5.146
 4255TIP3    H112771   1.609   1.622   5.057
 4255TIP3    H212772   1.608   1.581   5.203
 4256TIP3   OH212773   1.655   1.578   4.712
 4256TIP3    H112774   1.577   1.629   4.732
 4256TIP3    H212775   1.639   1.492   4.752
 4257TIP3   OH212776   0.556   1.501   4.691
 4257TIP3    H112777   0.600   1.435   4.637
 4257TIP3    H212778   0.627   1.552   4.730
 4258TIP3   OH212779   1.043   1.685   4.794
 4258TIP3    H112780   1.105   1.636   4.848
 4258TIP3    H212781   1.056   1.776   4.819
 4259TIP3   OH212782   0.918   3.083   4.290
 4259TIP3    H112783   1.002   3.109   4.254
 4259TIP3    H212784   0.889   3.011   4.234
 4260TIP3   OH212785   1.625   3.218   4.386
 4260TIP3    H112786   1.619   3.123   4.375
 4260TIP3    H212787   1.585   3.254   4.306
 4261TIP3   OH212788   0.255   2.948   4.327
 4261TIP3    H112789   0.286   3.034   4.356
 4261TIP3    H212790   0.334   2.896   4.317
 4262TIP3   OH212791   6.154   0.292   0.273
 4262TIP3    H112792   6.086   0.264   0.212
 4262TIP3    H212793   6.158   0.388   0.263
 4263TIP3   OH212794   3.121   2.746   4.324
 4263TIP3    H112795   3.093   2.834   4.300
 4263TIP3    H212796   3.051   2.689   4.293
 4264TIP3   OH212797   3.103   2.748   4.731
 4264TIP3    H112798   3.143   2.730   4.816
 4264TIP3    H212799   3.065   2.664   4.704
 4265TIP3   OH212800   2.394   2.621   5.082
 4265TIP3    H112801   2.418   2.560   5.152
 4265TIP3    H212802   2.478   2.656   5.052
 4266TIP3   OH212803   3.376   3.053   4.409
 4266TIP3    H112804   3.364   2.985   4.475
 4266TIP3    H212805   3.401   3.131   4.459
 4267TIP3   OH212806   2.396   3.040   4.797
 4267TIP3    H112807   2.399   2.944   4.791
 4267TIP3    H212808   2.488   3.067   4.788
 4268TIP3   OH212809   2.088   2.233   4.579
 4268TIP3    H112810   2.040   2.316   4.573
 4268TIP3    H212811   2.025   2.166   4.554
 4269TIP3   OH212812   2.169   2.562   4.781
 4269TIP3    H112813   2.200   2.487   4.833
 4269TIP3    H212814   2.208   2.549   4.695
 4270TIP3   OH212815   3.034   3.488   4.425
 4270TIP3    H112816   3.062   3.423   4.361
 4270TIP3    H212817   3.034   3.442   4.509
 4271TIP3   OH212818   2.910   2.968   4.760
 4271TIP3    H112819   2.951   2.888   4.725
 4271TIP3    H212820   2.984   3.023   4.785
 4272TIP3   OH212821   3.948   2.287   4.765
 4272TIP3    H112822   3.966   2.370   4.809
 4272TIP3    H212823   3.962   2.305   4.672
 4273TIP3   OH212824   3.315   2.466   4.799
 4273TIP3    H112825   3.359   2.385   4.825
 4273TIP3    H212826   3.286   2.450   4.710
 4274TIP3   OH212827   2.681   2.115   4.748
 4274TIP3    H112828   2.664   2.189   4.689
 4274TIP3    H212829   2.627   2.044   4.714
 4275TIP3   OH212830   3.379   2.213   4.377
 4275TIP3    H112831   3.445   2.206   4.445
 4275TIP3    H212832   3.427   2.249   4.301
 4276TIP3   OH212833   2.298   2.330   4.870
 4276TIP3    H112834   2.383   2.314   4.910
 4276TIP3    H212835   2.300   2.280   4.788
 4277TIP3   OH212836   2.730   2.525   4.684
 4277TIP3    H112837   2.825   2.509   4.691
 4277TIP3    H212838   2.695   2.445   4.645
 4278TIP3   OH212839   4.007   2.504   4.933
 4278TIP3    H112840   3.922   2.547   4.920
 4278TIP3    H212841   4.042   2.543   5.013
 4279TIP3   OH212842   2.665   2.114   5.191
 4279TIP3    H112843   2.615   2.152   5.118
 4279TIP3    H212844   2.613   2.133   5.269
 4280TIP3   OH212845   3.023   2.970   4.193
 4280TIP3    H112846   2.983   2.943   4.110
 4280TIP3    H212847   2.966   3.039   4.226
 4281TIP3   OH212848   2.759   2.887   4.980
 4281TIP3    H112849   2.702   2.954   5.017
 4281TIP3    H212850   2.806   2.931   4.909
 4282TIP3   OH212851   3.551   2.232   4.588
 4282TIP3    H112852   3.505   2.211   4.670
 4282TIP3    H212853   3.606   2.307   4.609
 4283TIP3   OH212854   2.546   2.225   4.964
 4283TIP3    H112855   2.599   2.300   4.988
 4283TIP3    H212856   2.593   2.183   4.893
 4284TIP3   OH212857   2.578   3.082   5.097
 4284TIP3    H112858   2.565   3.165   5.050
 4284TIP3    H212859   2.508   3.080   5.163
 4285TIP3   OH212860   1.991   2.772   4.308
 4285TIP3    H112861   1.965   2.781   4.217
 4285TIP3    H212862   2.014   2.861   4.335
 4286TIP3   OH212863   3.422   3.297   4.557
 4286TIP3    H112864   3.336   3.290   4.597
 4286TIP3    H212865   3.421   3.382   4.513
 4287TIP3   OH212866   3.746   2.166   4.926
 4287TIP3    H112867   3.660   2.197   4.897
 4287TIP3    H212868   3.806   2.200   4.860
 4288TIP3   OH212869   3.008   1.808   4.920
 4288TIP3    H112870   2.997   1.716   4.943
 4288TIP3    H212871   2.933   1.852   4.960
 4289TIP3   OH212872   3.128   3.332   4.215
 4289TIP3    H112873   3.176   3.250   4.204
 4289TIP3    H212874   3.189   3.400   4.187
 4290TIP3   OH212875   3.276   3.109   4.154
 4290TIP3    H112876   3.209   3.041   4.145
 4290TIP3    H212877   3.322   3.086   4.235
 4291TIP3   OH212878   3.682   3.173   4.911
 4291TIP3    H112879   3.643   3.102   4.860
 4291TIP3    H212880   3.657   3.253   4.865
 4292TIP3   OH212881   2.955   2.584   4.172
 4292TIP3    H112882   2.875   2.634   4.157
 4292TIP3    H212883   2.999   2.583   4.087
 4293TIP3   OH212884   2.910   2.381   3.874
 4293TIP3    H112885   2.974   2.434   3.922
 4293TIP3    H212886   2.963   2.321   3.822
 4294TIP3   OH212887   3.842   2.844   4.759
 4294TIP3    H112888   3.758   2.889   4.763
 4294TIP3    H212889   3.874   2.861   4.670
 4295TIP3   OH212890   3.301   2.674   4.131
 4295TIP3    H112891   3.246   2.703   4.204
 4295TIP3    H212892   3.384   2.649   4.172
 4296TIP3   OH212893   2.518   2.665   4.561
 4296TIP3    H112894   2.477   2.607   4.497
 4296TIP3    H212895   2.595   2.618   4.590
 4297TIP3   OH212896   2.653   3.084   4.687
 4297TIP3    H112897   2.632   3.064   4.595
 4297TIP3    H212898   2.740   3.046   4.700
 4298TIP3   OH212899   2.627   2.657   4.908
 4298TIP3    H112900   2.667   2.621   4.829
 4298TIP3    H212901   2.681   2.733   4.929
 4299TIP3   OH212902   3.186   3.293   4.693
 4299TIP3    H112903   3.182   3.367   4.753
 4299TIP3    H212904   3.174   3.216   4.749
 4300TIP3   OH212905   2.787   3.196   5.233
 4300TIP3    H112906   2.727   3.241   5.292
 4300TIP3    H212907   2.731   3.142   5.178
 4301TIP3   OH212908   3.137   2.531   3.962
 4301TIP3    H112909   3.195   2.590   4.009
 4301TIP3    H212910   3.160   2.542   3.870
 4302TIP3   OH212911   4.726   5.796   0.045
 4302TIP3    H112912   4.737   5.884   0.081
 4302TIP3    H212913   4.631   5.783   0.044
 4303TIP3   OH212914   2.877   3.203   4.242
 4303TIP3    H112915   2.956   3.258   4.236
 4303TIP3    H212916   2.822   3.232   4.170
 4304TIP3   OH212917   3.648   1.764   4.021
 4304TIP3    H112918   3.570   1.785   4.072
 4304TIP3    H212919   3.663   1.841   3.966
 4305TIP3   OH212920   2.376   2.505   4.381
 4305TIP3    H112921   2.320   2.547   4.316
 4305TIP3    H212922   2.362   2.411   4.368
 4306TIP3   OH212923   2.172   2.877   5.235
 4306TIP3    H112924   2.231   2.951   5.243
 4306TIP3    H212925   2.211   2.808   5.289
 4307TIP3   OH212926   2.112   3.006   4.877
 4307TIP3    H112927   2.190   3.059   4.860
 4307TIP3    H212928   2.064   3.056   4.943
 4308TIP3   OH212929   3.892   3.572   4.959
 4308TIP3    H112930   3.902   3.477   4.964
 4308TIP3    H212931   3.812   3.590   5.009
 4309TIP3   OH212932   2.986   3.328   5.093
 4309TIP3    H112933   2.981   3.419   5.123
 4309TIP3    H212934   2.916   3.284   5.141
 4310TIP3   OH212935   2.775   3.442   4.052
 4310TIP3    H112936   2.729   3.412   3.972
 4310TIP3    H212937   2.734   3.525   4.073
 4311TIP3   OH212938   2.204   3.291   4.428
 4311TIP3    H112939   2.252   3.284   4.511
 4311TIP3    H212940   2.159   3.207   4.419
 4312TIP3   OH212941   2.927   3.349   3.708
 4312TIP3    H112942   2.960   3.280   3.651
 4312TIP3    H212943   2.990   3.352   3.781
 4313TIP3   OH212944   3.030   3.410   3.960
 4313TIP3    H112945   2.940   3.414   3.993
 4313TIP3    H212946   3.080   3.370   4.031
 4314TIP3   OH212947   3.801   2.675   5.253
 4314TIP3    H112948   3.709   2.698   5.235
 4314TIP3    H212949   3.804   2.580   5.242
 4315TIP3   OH212950   2.772   1.899   5.047
 4315TIP3    H112951   2.687   1.868   5.015
 4315TIP3    H212952   2.752   1.981   5.092
 4316TIP3   OH212953   3.315   2.010   5.243
 4316TIP3    H112954   3.384   1.992   5.307
 4316TIP3    H212955   3.234   1.997   5.292
 4317TIP3   OH212956   3.535   2.417   5.164
 4317TIP3    H112957   3.501   2.402   5.253
 4317TIP3    H212958   3.523   2.511   5.149
 4318TIP3   OH212959   3.206   2.536   3.697
 4318TIP3    H112960   3.175   2.521   3.608
 4318TIP3    H212961   3.286   2.589   3.687
 4319TIP3   OH212962   2.924   1.936   4.016
 4319TIP3    H112963   2.888   1.944   4.105
 4319TIP3    H212964   2.884   1.856   3.981
 4320TIP3   OH212965   2.701   2.432   5.053
 4320TIP3    H112966   2.658   2.443   5.138
 4320TIP3    H212967   2.682   2.512   5.005
 4321TIP3   OH212968   2.594   2.308   4.576
 4321TIP3    H112969   2.504   2.287   4.598
 4321TIP3    H212970   2.606   2.273   4.487
 4322TIP3   OH212971   3.078   2.381   4.307
 4322TIP3    H112972   3.031   2.453   4.267
 4322TIP3    H212973   3.136   2.348   4.239
 4323TIP3   OH212974   5.410   5.736   0.050
 4323TIP3    H112975   5.428   5.668   0.114
 4323TIP3    H212976   5.493   5.749   0.004
 4324TIP3   OH212977   3.239   2.403   4.538
 4324TIP3    H112978   3.173   2.427   4.474
 4324TIP3    H212979   3.284   2.328   4.500
 4325TIP3   OH212980   4.693   5.509  -0.037
 4325TIP3    H112981   4.726   5.576   0.023
 4325TIP3    H212982   4.686   5.430   0.016
 4326TIP3   OH212983   2.586   1.924   3.985
 4326TIP3    H112984   2.577   1.928   4.080
 4326TIP3    H212985   2.511   1.973   3.952
 4327TIP3   OH212986   2.145   1.953   4.856
 4327TIP3    H112987   2.217   1.996   4.904
 4327TIP3    H212988   2.182   1.935   4.770
 4328TIP3   OH212989   2.068   1.937   4.360
 4328TIP3    H112990   2.116   1.970   4.284
 4328TIP3    H212991   2.006   2.006   4.381
 4329TIP3   OH212992   3.227   2.674   4.969
 4329TIP3    H112993   3.261   2.599   4.921
 4329TIP3    H212994   3.299   2.701   5.026
 4330TIP3   OH212995   2.947   2.101   4.629
 4330TIP3    H112996   2.871   2.106   4.687
 4330TIP3    H212997   3.022   2.099   4.689
 4331TIP3   OH212998   2.353   2.188   4.638
 4331TIP3    H112999   2.263   2.190   4.606
 4331TIP3    H213000   2.383   2.099   4.621
 4332TIP3   OH213001   2.609   2.181   4.332
 4332TIP3    H113002   2.702   2.195   4.319
 4332TIP3    H213003   2.569   2.201   4.247
 4333TIP3   OH213004   3.407   2.196   4.823
 4333TIP3    H113005   3.390   2.208   4.916
 4333TIP3    H213006   3.336   2.139   4.792
 4334TIP3   OH213007   2.479   2.212   4.094
 4334TIP3    H113008   2.415   2.164   4.041
 4334TIP3    H213009   2.534   2.257   4.030
 4335TIP3   OH213010   3.597   3.896   5.062
 4335TIP3    H113011   3.596   3.907   4.967
 4335TIP3    H213012   3.677   3.940   5.090
 4336TIP3   OH213013   4.721   6.034   0.181
 4336TIP3    H113014   4.784   6.086   0.232
 4336TIP3    H213015   4.664   6.098   0.139
 4337TIP3   OH213016   3.001   2.464   4.734
 4337TIP3    H113017   3.074   2.423   4.688
 4337TIP3    H213018   3.003   2.426   4.822
 4338TIP3   OH213019   2.499   1.939   4.626
 4338TIP3    H113020   2.469   1.863   4.675
 4338TIP3    H213021   2.530   1.904   4.542
 4339TIP3   OH213022   2.968   2.362   5.005
 4339TIP3    H113023   2.881   2.397   5.025
 4339TIP3    H213024   3.027   2.406   5.067
 4340TIP3   OH213025   2.734   2.737   4.121
 4340TIP3    H113026   2.661   2.679   4.098
 4340TIP3    H213027   2.706   2.779   4.202
 4341TIP3   OH213028   3.602   2.977   4.729
 4341TIP3    H113029   3.634   3.031   4.656
 4341TIP3    H213030   3.520   2.939   4.697
 4342TIP3   OH213031   3.176   2.040   4.010
 4342TIP3    H113032   3.082   2.020   4.009
 4342TIP3    H213033   3.179   2.135   4.024
 4343TIP3   OH213034   3.114   3.070   5.119
 4343TIP3    H113035   3.158   3.057   5.203
 4343TIP3    H213036   3.079   3.159   5.123
 4344TIP3   OH213037   3.237   2.302   4.087
 4344TIP3    H113038   3.332   2.310   4.095
 4344TIP3    H213039   3.211   2.379   4.036
 4345TIP3   OH213040   2.392   2.763   4.784
 4345TIP3    H113041   2.427   2.740   4.698
 4345TIP3    H213042   2.451   2.720   4.846
 4346TIP3   OH213043   2.895   2.905   3.955
 4346TIP3    H113044   2.839   2.982   3.941
 4346TIP3    H213045   2.835   2.838   3.989
 4347TIP3   OH213046   4.458   5.760   0.109
 4347TIP3    H113047   4.495   5.758   0.198
 4347TIP3    H213048   4.391   5.691   0.110
 4348TIP3   OH213049   5.183   5.875   0.113
 4348TIP3    H113050   5.118   5.821   0.067
 4348TIP3    H213051   5.268   5.839   0.085
 4349TIP3   OH213052   3.247   3.389   5.002
 4349TIP3    H113053   3.159   3.353   5.014
 4349TIP3    H213054   3.280   3.404   5.091
 4350TIP3   OH213055   3.663   2.399   3.910
 4350TIP3    H113056   3.605   2.352   3.850
 4350TIP3    H213057   3.667   2.488   3.874
 4351TIP3   OH213058   3.923   3.300   4.978
 4351TIP3    H113059   3.840   3.261   5.004
 4351TIP3    H213060   3.947   3.256   4.897
 4352TIP3   OH213061   3.384   3.191   3.860
 4352TIP3    H113062   3.348   3.165   3.945
 4352TIP3    H213063   3.399   3.108   3.815
 4353TIP3   OH213064   3.367   2.848   4.624
 4353TIP3    H113065   3.276   2.826   4.644
 4353TIP3    H213066   3.405   2.767   4.589
 4354TIP3   OH213067   2.525   3.080   4.429
 4354TIP3    H113068   2.541   3.156   4.373
 4354TIP3    H213069   2.438   3.049   4.403
 4355TIP3   OH213070   2.077   2.359   4.121
 4355TIP3    H113071   2.127   2.439   4.139
 4355TIP3    H213072   1.996   2.370   4.172
 4356TIP3   OH213073   2.637   2.831   4.362
 4356TIP3    H113074   2.615   2.922   4.382
 4356TIP3    H213075   2.597   2.780   4.432
 4357TIP3   OH213076   2.808   3.405   4.873
 4357TIP3    H113077   2.847   3.477   4.823
 4357TIP3    H213078   2.880   3.371   4.926
 4358TIP3   OH213079   2.432   3.309   4.266
 4358TIP3    H113080   2.348   3.312   4.312
 4358TIP3    H213081   2.466   3.398   4.272
 4359TIP3   OH213082   3.159   3.062   4.848
 4359TIP3    H113083   3.149   3.057   4.943
 4359TIP3    H213084   3.227   2.997   4.828
 4360TIP3   OH213085   3.121   2.935   3.761
 4360TIP3    H113086   3.188   2.914   3.826
 4360TIP3    H213087   3.038   2.926   3.808
 4361TIP3   OH213088   3.422   3.574   4.897
 4361TIP3    H113089   3.353   3.511   4.919
 4361TIP3    H213090   3.386   3.625   4.825
 4362TIP3   OH213091   4.669   5.256   0.095
 4362TIP3    H113092   4.574   5.251   0.101
 4362TIP3    H213093   4.701   5.197   0.163
 4363TIP3   OH213094   3.324   2.870   3.934
 4363TIP3    H113095   3.307   2.809   4.006
 4363TIP3    H213096   3.419   2.871   3.926
 4364TIP3   OH213097   2.223   3.265   5.039
 4364TIP3    H113098   2.301   3.209   5.044
 4364TIP3    H213099   2.209   3.296   5.128
 4365TIP3   OH213100   2.194   2.602   4.191
 4365TIP3    H113101   2.128   2.659   4.232
 4365TIP3    H213102   2.213   2.644   4.107
 4366TIP3   OH213103   3.348   2.235   5.083
 4366TIP3    H113104   3.419   2.289   5.118
 4366TIP3    H213105   3.338   2.164   5.146
 4367TIP3   OH213106   3.232   1.995   4.282
 4367TIP3    H113107   3.212   2.013   4.190
 4367TIP3    H213108   3.274   2.075   4.314
 4368TIP3   OH213109   2.726   3.127   3.961
 4368TIP3    H113110   2.636   3.098   3.976
 4368TIP3    H213111   2.719   3.198   3.898
 4369TIP3   OH213112   2.889   2.191   4.372
 4369TIP3    H113113   2.951   2.259   4.347
 4369TIP3    H213114   2.908   2.174   4.464
 4370TIP3   OH213115   3.141   2.454   5.197
 4370TIP3    H113116   3.170   2.536   5.238
 4370TIP3    H213117   3.222   2.408   5.176
 4371TIP3   OH213118   3.047   1.894   4.463
 4371TIP3    H113119   3.023   1.970   4.516
 4371TIP3    H213120   3.114   1.926   4.404
 4372TIP3   OH213121   2.446   3.201   4.006
 4372TIP3    H113122   2.475   3.279   3.959
 4372TIP3    H213123   2.443   3.228   4.098
 4373TIP3   OH213124   2.561   1.911   4.264
 4373TIP3    H113125   2.550   2.001   4.295
 4373TIP3    H213126   2.655   1.895   4.270
 4374TIP3   OH213127   3.806   2.404   5.156
 4374TIP3    H113128   3.711   2.398   5.165
 4374TIP3    H213129   3.823   2.375   5.066
 4375TIP3   OH213130   3.462   2.589   4.538
 4375TIP3    H113131   3.385   2.533   4.549
 4375TIP3    H213132   3.529   2.548   4.592
 4376TIP3   OH213133   2.124   2.086   4.133
 4376TIP3    H113134   2.132   2.181   4.140
 4376TIP3    H213135   2.046   2.072   4.079
 4377TIP3   OH213136   3.441   3.567   4.474
 4377TIP3    H113137   3.399   3.618   4.406
 4377TIP3    H213138   3.535   3.579   4.459
 4378TIP3   OH213139   2.508   1.816   5.009
 4378TIP3    H113140   2.479   1.785   4.923
 4378TIP3    H213141   2.499   1.740   5.067
 4379TIP3   OH213142   2.039   3.051   4.393
 4379TIP3    H113143   1.981   3.083   4.462
 4379TIP3    H213144   2.007   3.093   4.313
 4380TIP3   OH213145   0.054   0.532   0.148
 4380TIP3    H113146   0.137   0.527   0.195
 4380TIP3    H213147   0.026   0.441   0.139
 4381TIP3   OH213148   0.527   0.465   0.201
 4381TIP3    H113149   0.615   0.452   0.234
 4381TIP3    H213150   0.528   0.428   0.113
 4382TIP3   OH213151   3.316   3.454   5.261
 4382TIP3    H113152   3.324   3.381   5.323
 4382TIP3    H213153   3.394   3.506   5.276
 4383TIP3   OH213154   4.488   6.066   0.382
 4383TIP3    H113155   4.550   6.009   0.337
 4383TIP3    H213156   4.409   6.064   0.328
 4384TIP3   OH213157   5.112   6.148   0.126
 4384TIP3    H113158   5.073   6.165   0.041
 4384TIP3    H213159   5.150   6.061   0.118
 4385TIP3   OH213160   4.622   5.788   0.335
 4385TIP3    H113161   4.701   5.798   0.281
 4385TIP3    H213162   4.647   5.823   0.420
 4386TIP3   OH213163   2.542   2.542   4.094
 4386TIP3    H113164   2.502   2.488   4.162
 4386TIP3    H213165   2.569   2.480   4.027
 4387TIP3   OH213166   2.800   2.605   5.306
 4387TIP3    H113167   2.722   2.660   5.312
 4387TIP3    H213168   2.846   2.638   5.229
 4388TIP3   OH213169   2.636   2.348   3.918
 4388TIP3    H113170   2.607   2.343   3.827
 4388TIP3    H213171   2.731   2.358   3.912
 4389TIP3   OH213172   5.472   6.060   0.118
 4389TIP3    H113173   5.512   6.005   0.050
 4389TIP3    H213174   5.477   6.006   0.197
 4390TIP3   OH213175   3.433   2.668   3.602
 4390TIP3    H113176   3.424   2.631   3.514
 4390TIP3    H213177   3.399   2.758   3.593
 4391TIP3   OH213178   5.086   5.454   0.116
 4391TIP3    H113179   5.098   5.383   0.053
 4391TIP3    H213180   5.053   5.527   0.064
 4392TIP3   OH213181   2.928   2.184   5.233
 4392TIP3    H113182   2.958   2.229   5.153
 4392TIP3    H213183   2.835   2.165   5.216
 4393TIP3   OH213184   2.949   2.713   5.107
 4393TIP3    H113185   3.036   2.707   5.067
 4393TIP3    H213186   2.905   2.783   5.058
 4394TIP3   OH213187   5.700   5.734   0.195
 4394TIP3    H113188   5.749   5.652   0.192
 4394TIP3    H213189   5.703   5.767   0.105
 4395TIP3   OH213190   4.984   5.559   0.348
 4395TIP3    H113191   4.897   5.527   0.372
 4395TIP3    H213192   4.997   5.527   0.259
 4396TIP3   OH213193   5.215   5.018   0.018
 4396TIP3    H113194   5.176   5.100  -0.014
 4396TIP3    H213195   5.147   4.952   0.002
 4397TIP3   OH213196   5.350   5.511   0.209
 4397TIP3    H113197   5.321   5.499   0.299
 4397TIP3    H213198   5.271   5.495   0.156
 4398TIP3   OH213199   5.590   5.441   0.096
 4398TIP3    H113200   5.511   5.458   0.147
 4398TIP3    H213201   5.659   5.430   0.162
 4399TIP3   OH213202   5.831   5.416   0.240
 4399TIP3    H113203   5.840   5.321   0.248
 4399TIP3    H213204   5.825   5.448   0.330
 4400TIP3   OH213205   4.807   5.331   0.440
 4400TIP3    H113206   4.803   5.262   0.375
 4400TIP3    H213207   4.873   5.301   0.503
 4401TIP3   OH213208   5.287   4.994   0.276
 4401TIP3    H113209   5.360   4.933   0.270
 4401TIP3    H213210   5.255   5.004   0.187
 4402TIP3   OH213211   5.377   5.234   0.372
 4402TIP3    H113212   5.349   5.155   0.326
 4402TIP3    H213213   5.304   5.295   0.362
 4403TIP3   OH213214   1.940   2.768   4.036
 4403TIP3    H113215   2.012   2.775   3.974
 4403TIP3    H213216   1.899   2.683   4.016
 4404TIP3   OH213217   1.829   3.380   4.477
 4404TIP3    H113218   1.768   3.322   4.431
 4404TIP3    H213219   1.878   3.322   4.535
 4405TIP3   OH213220   1.973   3.222   4.652
 4405TIP3    H113221   1.966   3.149   4.713
 4405TIP3    H213222   2.024   3.288   4.699
 4406TIP3   OH213223   3.708   3.628   4.458
 4406TIP3    H113224   3.732   3.653   4.547
 4406TIP3    H213225   3.775   3.669   4.403
 4407TIP3   OH213226   3.732   3.647   4.739
 4407TIP3    H113227   3.683   3.565   4.735
 4407TIP3    H213228   3.800   3.631   4.804
 4408TIP3   OH213229   1.610   0.287   0.010
 4408TIP3    H113230   1.539   0.294   0.075
 4408TIP3    H213231   1.654   0.372   0.014
 4409TIP3   OH213232   3.600   2.855   3.929
 4409TIP3    H113233   3.662   2.924   3.904
 4409TIP3    H213234   3.641   2.812   4.004
 4410TIP3   OH213235   3.721   2.711   4.130
 4410TIP3    H113236   3.652   2.673   4.184
 4410TIP3    H213237   3.783   2.748   4.193
 4411TIP3   OH213238   3.777   3.117   4.558
 4411TIP3    H113239   3.830   3.048   4.519
 4411TIP3    H213240   3.775   3.187   4.493
 4412TIP3   OH213241   3.594   3.402   4.756
 4412TIP3    H113242   3.526   3.445   4.807
 4412TIP3    H213243   3.547   3.358   4.685
 4413TIP3   OH213244   3.648   2.638   3.768
 4413TIP3    H113245   3.575   2.637   3.705
 4413TIP3    H213246   3.630   2.714   3.824
 4414TIP3   OH213247   3.507   2.282   3.719
 4414TIP3    H113248   3.464   2.326   3.645
 4414TIP3    H213249   3.495   2.189   3.701
 4415TIP3   OH213250   3.523   2.577   4.268
 4415TIP3    H113251   3.529   2.482   4.256
 4415TIP3    H213252   3.505   2.588   4.361
 4416TIP3   OH213253   3.846   3.025   5.122
 4416TIP3    H113254   3.886   2.942   5.095
 4416TIP3    H213255   3.778   3.042   5.057
 4417TIP3   OH213256   3.995   2.786   5.103
 4417TIP3    H113257   3.924   2.754   5.158
 4417TIP3    H213258   4.071   2.732   5.128
 4418TIP3   OH213259   3.465   2.010   3.685
 4418TIP3    H113260   3.525   1.988   3.757
 4418TIP3    H213261   3.381   1.974   3.712
 4419TIP3   OH213262   3.528   2.303   4.150
 4419TIP3    H113263   3.572   2.219   4.162
 4419TIP3    H213264   3.573   2.344   4.076
 4420TIP3   OH213265   3.678   2.465   4.674
 4420TIP3    H113266   3.759   2.483   4.628
 4420TIP3    H213267   3.688   2.507   4.759
 4421TIP3   OH213268   3.752   2.620   4.899
 4421TIP3    H113269   3.686   2.649   4.962
 4421TIP3    H213270   3.781   2.700   4.856
 4422TIP3   OH213271   4.549   5.408   0.382
 4422TIP3    H113272   4.643   5.399   0.395
 4422TIP3    H213273   4.519   5.319   0.363
 4423TIP3   OH213274   6.379   5.281   0.133
 4423TIP3    H113275   6.439   5.221   0.087
 4423TIP3    H213276   6.339   5.332   0.062
 4424TIP3   OH213277   3.640   2.050   4.197
 4424TIP3    H113278   3.684   2.033   4.280
 4424TIP3    H213279   3.575   1.979   4.189
 4425TIP3   OH213280   2.344   2.040   5.036
 4425TIP3    H113281   2.399   1.961   5.038
 4425TIP3    H213282   2.405   2.110   5.012
 4426TIP3   OH213283   2.143   2.339   5.103
 4426TIP3    H113284   2.178   2.324   5.015
 4426TIP3    H213285   2.221   2.342   5.160
 4427TIP3   OH213286   4.066   2.337   5.247
 4427TIP3    H113287   3.988   2.380   5.281
 4427TIP3    H213288   4.032   2.268   5.189
 4428TIP3   OH213289   3.697   1.969   3.843
 4428TIP3    H113290   3.741   1.908   3.784
 4428TIP3    H213291   3.750   2.048   3.840
 4429TIP3   OH213292   2.129   1.799   4.587
 4429TIP3    H113293   2.042   1.782   4.623
 4429TIP3    H213294   2.113   1.858   4.513
 4430TIP3   OH213295   3.288   3.520   4.106
 4430TIP3    H113296   3.333   3.501   4.024
 4430TIP3    H213297   3.343   3.587   4.148
 4431TIP3   OH213298   4.498   4.934   0.106
 4431TIP3    H113299   4.451   4.933   0.189
 4431TIP3    H213300   4.440   4.977   0.045
 4432TIP3   OH213301   2.566   3.332   4.984
 4432TIP3    H113302   2.520   3.415   4.973
 4432TIP3    H213303   2.654   3.348   4.951
 4433TIP3   OH213304   2.980   3.597   5.174
 4433TIP3    H113305   3.023   3.588   5.259
 4433TIP3    H213306   3.043   3.646   5.120
 4434TIP3   OH213307   3.167   3.748   5.039
 4434TIP3    H113308   3.225   3.690   4.989
 4434TIP3    H213309   3.227   3.801   5.092
 4435TIP3   OH213310   3.970   2.097   5.128
 4435TIP3    H113311   3.885   2.098   5.084
 4435TIP3    H213312   3.998   2.006   5.121
 4436TIP3   OH213313   2.234   3.617   5.048
 4436TIP3    H113314   2.145   3.649   5.034
 4436TIP3    H213315   2.249   3.629   5.142
 4437TIP3   OH213316   2.477   3.592   4.924
 4437TIP3    H113317   2.392   3.599   4.968
 4437TIP3    H213318   2.459   3.616   4.833
 4438TIP3   OH213319   2.887   3.617   4.711
 4438TIP3    H113320   2.815   3.631   4.648
 4438TIP3    H213321   2.898   3.703   4.753
 4439TIP3   OH213322   3.155   3.570   4.766
 4439TIP3    H113323   3.064   3.580   4.737
 4439TIP3    H213324   3.204   3.633   4.713
 4440TIP3   OH213325   3.363   3.742   4.673
 4440TIP3    H113326   3.354   3.826   4.627
 4440TIP3    H213327   3.391   3.680   4.605
 4441TIP3   OH213328   2.144   3.389   4.806
 4441TIP3    H113329   2.172   3.366   4.894
 4441TIP3    H213330   2.216   3.361   4.750
 4442TIP3   OH213331   2.348   3.279   4.664
 4442TIP3    H113332   2.362   3.194   4.706
 4442TIP3    H213333   2.435   3.319   4.662
 4443TIP3   OH213334   2.618   3.363   4.671
 4443TIP3    H113335   2.635   3.269   4.658
 4443TIP3    H213336   2.674   3.387   4.744
 4444TIP3   OH213337   3.183   2.017   4.761
 4444TIP3    H113338   3.146   1.946   4.813
 4444TIP3    H213339   3.253   1.976   4.710
 4445TIP3   OH213340   3.686   1.908   4.652
 4445TIP3    H113341   3.724   1.959   4.580
 4445TIP3    H213342   3.595   1.938   4.656
 4446TIP3   OH213343   3.798   1.992   4.417
 4446TIP3    H113344   3.869   1.934   4.387
 4446TIP3    H213345   3.833   2.080   4.406
 4447TIP3   OH213346   2.420   1.714   4.768
 4447TIP3    H113347   2.329   1.684   4.773
 4447TIP3    H213348   2.471   1.633   4.761
 4448TIP3   OH213349   2.230   1.604   4.410
 4448TIP3    H113350   2.260   1.657   4.336
 4448TIP3    H213351   2.199   1.669   4.474
 4449TIP3   OH213352   2.891   1.751   4.656
 4449TIP3    H113353   2.938   1.798   4.586
 4449TIP3    H213354   2.929   1.784   4.737
 4450TIP3   OH213355   3.399   1.901   4.633
 4450TIP3    H113356   3.408   1.867   4.544
 4450TIP3    H213357   3.399   1.822   4.688
 4451TIP3   OH213358   3.452   1.841   4.200
 4451TIP3    H113359   3.372   1.889   4.222
 4451TIP3    H213360   3.439   1.754   4.238
 4452TIP3   OH213361   1.924   3.187   4.186
 4452TIP3    H113362   1.842   3.148   4.156
 4452TIP3    H213363   1.922   3.276   4.152
 4453TIP3   OH213364   2.345   1.746   4.182
 4453TIP3    H113365   2.391   1.688   4.120
 4453TIP3    H213366   2.414   1.804   4.215
 4454TIP3   OH213367   2.836   1.939   4.279
 4454TIP3    H113368   2.897   1.890   4.334
 4454TIP3    H213369   2.850   2.031   4.303
 4455TIP3   OH213370   2.675   3.357   3.809
 4455TIP3    H113371   2.761   3.358   3.766
 4455TIP3    H213372   2.612   3.355   3.737
 4456TIP3   OH213373   3.427   3.466   3.871
 4456TIP3    H113374   3.423   3.371   3.861
 4456TIP3    H213375   3.387   3.501   3.791
 4457TIP3   OH213376   4.813   5.106   0.288
 4457TIP3    H113377   4.782   5.037   0.347
 4457TIP3    H213378   4.908   5.106   0.298
 4458TIP3   OH213379   5.073   5.080   0.433
 4458TIP3    H113380   5.146   5.048   0.381
 4458TIP3    H213381   5.056   5.011   0.496
 4459TIP3   OH213382   1.989   3.167   3.838
 4459TIP3    H113383   2.008   3.174   3.932
 4459TIP3    H213384   2.069   3.131   3.800
 4460TIP3   OH213385   5.888   5.143   0.252
 4460TIP3    H113386   5.911   5.113   0.340
 4460TIP3    H213387   5.971   5.142   0.205
 4461TIP3   OH213388   3.641   3.623   5.064
 4461TIP3    H113389   3.568   3.591   5.011
 4461TIP3    H213390   3.623   3.716   5.075
 4462TIP3   OH213391   4.930   3.005   3.806
 4462TIP3    H113392   4.890   3.090   3.789
 4462TIP3    H213393   4.862   2.942   3.784
 4463TIP3   OH213394   4.916   2.994   4.223
 4463TIP3    H113395   4.962   2.978   4.305
 4463TIP3    H213396   4.869   2.912   4.204
 4464TIP3   OH213397   4.210   2.874   4.570
 4464TIP3    H113398   4.240   2.807   4.631
 4464TIP3    H213399   4.283   2.936   4.564
 4465TIP3   OH213400   5.175   3.303   3.897
 4465TIP3    H113401   5.161   3.238   3.967
 4465TIP3    H213402   5.197   3.383   3.944
 4466TIP3   OH213403   4.200   3.301   4.281
 4466TIP3    H113404   4.187   3.206   4.284
 4466TIP3    H213405   4.294   3.312   4.269
 4467TIP3   OH213406   3.887   2.495   4.056
 4467TIP3    H113407   3.844   2.577   4.081
 4467TIP3    H213408   3.821   2.447   4.008
 4468TIP3   OH213409   3.951   2.786   4.264
 4468TIP3    H113410   4.004   2.712   4.295
 4468TIP3    H213411   4.007   2.832   4.202
 4469TIP3   OH213412   4.823   3.747   3.909
 4469TIP3    H113413   4.858   3.677   3.855
 4469TIP3    H213414   4.807   3.707   3.995
 4470TIP3   OH213415   4.715   3.220   4.236
 4470TIP3    H113416   4.756   3.140   4.203
 4470TIP3    H213417   4.788   3.273   4.267
 4471TIP3   OH213418   5.744   2.542   4.248
 4471TIP3    H113419   5.762   2.627   4.290
 4471TIP3    H213420   5.769   2.556   4.157
 4472TIP3   OH213421   5.133   2.710   4.273
 4472TIP3    H113422   5.168   2.625   4.299
 4472TIP3    H213423   5.095   2.695   4.186
 4473TIP3   OH213424   4.482   2.370   4.230
 4473TIP3    H113425   4.459   2.444   4.175
 4473TIP3    H213426   4.427   2.298   4.199
 4474TIP3   OH213427   5.177   2.466   3.861
 4474TIP3    H113428   5.242   2.458   3.931
 4474TIP3    H213429   5.226   2.503   3.788
 4475TIP3   OH213430   4.102   2.577   4.361
 4475TIP3    H113431   4.186   2.562   4.405
 4475TIP3    H213432   4.108   2.526   4.280
 4476TIP3   OH213433   4.537   2.780   4.153
 4476TIP3    H113434   4.629   2.758   4.166
 4476TIP3    H213435   4.496   2.699   4.123
 4477TIP3   OH213436   5.802   2.760   4.420
 4477TIP3    H113437   5.715   2.797   4.407
 4477TIP3    H213438   5.831   2.796   4.504
 4478TIP3   OH213439   4.459   2.368   4.685
 4478TIP3    H113440   4.409   2.402   4.611
 4478TIP3    H213441   4.404   2.384   4.761
 4479TIP3   OH213442   4.755   3.199   3.715
 4479TIP3    H113443   4.673   3.176   3.757
 4479TIP3    H213444   4.746   3.292   3.694
 4480TIP3   OH213445   4.562   3.146   4.455
 4480TIP3    H113446   4.504   3.213   4.490
 4480TIP3    H213447   4.607   3.187   4.381
 4481TIP3   OH213448   5.345   2.484   4.076
 4481TIP3    H113449   5.302   2.462   4.159
 4481TIP3    H213450   5.399   2.560   4.096
 4482TIP3   OH213451   4.350   2.475   4.453
 4482TIP3    H113452   4.404   2.550   4.478
 4482TIP3    H213453   4.397   2.434   4.380
 4483TIP3   OH213454   4.401   3.345   4.559
 4483TIP3    H113455   4.384   3.433   4.527
 4483TIP3    H213456   4.324   3.323   4.612
 4484TIP3   OH213457   3.784   3.039   3.832
 4484TIP3    H113458   3.751   3.042   3.742
 4484TIP3    H213459   3.806   3.129   3.853
 4485TIP3   OH213460   5.222   3.550   4.039
 4485TIP3    H113461   5.137   3.540   4.082
 4485TIP3    H213462   5.217   3.635   3.995
 4486TIP3   OH213463   5.539   2.431   4.413
 4486TIP3    H113464   5.453   2.455   4.381
 4486TIP3    H213465   5.600   2.461   4.345
 4487TIP3   OH213466   4.807   2.068   4.411
 4487TIP3    H113467   4.794   1.975   4.430
 4487TIP3    H213468   4.732   2.111   4.452
 4488TIP3   OH213469   4.924   3.581   3.711
 4488TIP3    H113470   4.973   3.500   3.696
 4488TIP3    H213471   4.981   3.649   3.675
 4489TIP3   OH213472   5.065   3.357   3.647
 4489TIP3    H113473   5.069   3.280   3.590
 4489TIP3    H213474   5.106   3.329   3.729
 4490TIP3   OH213475   5.454   3.445   4.388
 4490TIP3    H113476   5.436   3.369   4.332
 4490TIP3    H213477   5.435   3.521   4.333
 4491TIP3   OH213478   4.756   2.841   3.664
 4491TIP3    H113479   4.679   2.894   3.647
 4491TIP3    H213480   4.800   2.834   3.579
 4492TIP3   OH213481   4.708   2.647   3.355
 4492TIP3    H113482   4.775   2.692   3.406
 4492TIP3    H213483   4.756   2.580   3.306
 4493TIP3   OH213484   5.641   3.102   4.250
 4493TIP3    H113485   5.557   3.146   4.253
 4493TIP3    H213486   5.673   3.117   4.160
 4494TIP3   OH213487   5.103   2.928   3.612
 4494TIP3    H113488   5.050   2.959   3.685
 4494TIP3    H213489   5.186   2.902   3.653
 4495TIP3   OH213490   5.327   2.965   4.553
 4495TIP3    H113491   5.324   3.047   4.602
 4495TIP3    H213492   5.243   2.962   4.506
 4496TIP3   OH213493   4.334   2.923   4.025
 4496TIP3    H113494   4.290   2.863   3.965
 4496TIP3    H213495   4.405   2.871   4.063
 4497TIP3   OH213496   4.459   3.341   4.170
 4497TIP3    H113497   4.430   3.316   4.082
 4497TIP3    H213498   4.545   3.299   4.179
 4498TIP3   OH213499   4.459   2.898   4.394
 4498TIP3    H113500   4.490   2.871   4.308
 4498TIP3    H213501   4.499   2.984   4.408
 4499TIP3   OH213502   4.990   3.538   4.177
 4499TIP3    H113503   4.972   3.617   4.226
 4499TIP3    H213504   4.972   3.466   4.238
 4500TIP3   OH213505   4.600   3.448   4.721
 4500TIP3    H113506   4.541   3.507   4.768
 4500TIP3    H213507   4.542   3.395   4.665
 4501TIP3   OH213508   4.931   2.790   3.451
 4501TIP3    H113509   4.991   2.846   3.500
 4501TIP3    H213510   4.958   2.799   3.360
 4502TIP3   OH213511   4.352   2.995   4.842
 4502TIP3    H113512   4.359   3.085   4.872
 4502TIP3    H213513   4.259   2.975   4.846
 4503TIP3   OH213514   4.677   3.464   3.678
 4503TIP3    H113515   4.760   3.508   3.697
 4503TIP3    H213516   4.612   3.534   3.676
 4504TIP3   OH213517   4.391   3.606   4.806
 4504TIP3    H113518   4.362   3.613   4.715
 4504TIP3    H213519   4.310   3.588   4.855
 4505TIP3   OH213520   5.443   2.020   3.506
 4505TIP3    H113521   5.365   2.040   3.558
 4505TIP3    H213522   5.456   2.098   3.452
 4506TIP3   OH213523   4.202   2.754   3.839
 4506TIP3    H113524   4.130   2.806   3.803
 4506TIP3    H213525   4.165   2.666   3.846
 4507TIP3   OH213526   5.255   3.396   3.057
 4507TIP3    H113527   5.258   3.490   3.040
 4507TIP3    H213528   5.343   3.365   3.039
 4508TIP3   OH213529   3.982   3.157   4.751
 4508TIP3    H113530   3.906   3.141   4.695
 4508TIP3    H213531   4.010   3.070   4.779
 4509TIP3   OH213532   3.831   3.342   4.388
 4509TIP3    H113533   3.927   3.346   4.383
 4509TIP3    H213534   3.807   3.418   4.442
 4510TIP3   OH213535   5.689   3.809   4.449
 4510TIP3    H113536   5.695   3.714   4.462
 4510TIP3    H213537   5.608   3.834   4.495
 4511TIP3   OH213538   4.789   3.583   4.576
 4511TIP3    H113539   4.785   3.674   4.604
 4511TIP3    H213540   4.721   3.539   4.628
 4512TIP3   OH213541   4.569   3.707   3.529
 4512TIP3    H113542   4.523   3.695   3.446
 4512TIP3    H213543   4.533   3.788   3.565
 4513TIP3   OH213544   3.996   3.550   3.912
 4513TIP3    H113545   4.041   3.539   3.996
 4513TIP3    H213546   3.950   3.467   3.899
 4514TIP3   OH213547   4.752   3.582   3.159
 4514TIP3    H113548   4.815   3.515   3.134
 4514TIP3    H213549   4.781   3.611   3.246
 4515TIP3   OH213550   4.817   3.661   3.421
 4515TIP3    H113551   4.733   3.670   3.466
 4515TIP3    H213552   4.877   3.631   3.489
 4516TIP3   OH213553   5.575   2.924   4.721
 4516TIP3    H113554   5.490   2.933   4.677
 4516TIP3    H213555   5.592   2.829   4.721
 4517TIP3   OH213556   4.183   3.339   4.725
 4517TIP3    H113557   4.230   3.329   4.808
 4517TIP3    H213558   4.111   3.277   4.730
 4518TIP3   OH213559   4.571   2.159   4.536
 4518TIP3    H113560   4.488   2.125   4.502
 4518TIP3    H213561   4.547   2.237   4.585
 4519TIP3   OH213562   5.109   2.267   4.731
 4519TIP3    H113563   5.177   2.245   4.796
 4519TIP3    H213564   5.027   2.252   4.778
 4520TIP3   OH213565   5.335   2.703   4.649
 4520TIP3    H113566   5.289   2.698   4.732
 4520TIP3    H213567   5.314   2.790   4.615
 4521TIP3   OH213568   5.018   2.796   3.194
 4521TIP3    H113569   4.979   2.785   3.107
 4521TIP3    H213570   5.100   2.842   3.177
 4522TIP3   OH213571   4.724   2.193   3.502
 4522TIP3    H113572   4.686   2.202   3.590
 4522TIP3    H213573   4.682   2.115   3.466
 4523TIP3   OH213574   4.509   2.680   4.550
 4523TIP3    H113575   4.457   2.690   4.630
 4523TIP3    H213576   4.491   2.759   4.499
 4524TIP3   OH213577   4.389   2.564   4.064
 4524TIP3    H113578   4.299   2.544   4.088
 4524TIP3    H213579   4.399   2.528   3.976
 4525TIP3   OH213580   4.878   2.637   3.798
 4525TIP3    H113581   4.829   2.709   3.758
 4525TIP3    H213582   4.934   2.604   3.727
 4526TIP3   OH213583   5.052   2.910   4.869
 4526TIP3    H113584   5.024   2.842   4.930
 4526TIP3    H213585   5.143   2.927   4.890
 4527TIP3   OH213586   5.041   2.656   4.021
 4527TIP3    H113587   4.971   2.679   3.960
 4527TIP3    H213588   5.085   2.581   3.981
 4528TIP3   OH213589   4.330   2.700   4.758
 4528TIP3    H113590   4.330   2.768   4.825
 4528TIP3    H213591   4.312   2.619   4.806
 4529TIP3   OH213592   4.386   2.183   3.473
 4529TIP3    H113593   4.375   2.185   3.568
 4529TIP3    H213594   4.309   2.228   3.438
 4530TIP3   OH213595   3.926   2.216   4.344
 4530TIP3    H113596   3.998   2.253   4.395
 4530TIP3    H213597   3.962   2.203   4.257
 4531TIP3   OH213598   3.852   2.204   3.843
 4531TIP3    H113599   3.893   2.238   3.764
 4531TIP3    H213600   3.790   2.272   3.869
 4532TIP3   OH213601   5.069   2.910   4.444
 4532TIP3    H113602   5.096   2.842   4.382
 4532TIP3    H213603   5.027   2.861   4.515
 4533TIP3   OH213604   4.745   2.358   4.118
 4533TIP3    H113605   4.664   2.361   4.170
 4533TIP3    H213606   4.815   2.355   4.183
 4534TIP3   OH213607   4.148   2.444   4.125
 4534TIP3    H113608   4.059   2.451   4.091
 4534TIP3    H213609   4.174   2.354   4.105
 4535TIP3   OH213610   4.408   2.435   3.824
 4535TIP3    H113611   4.501   2.452   3.806
 4535TIP3    H213612   4.364   2.455   3.741
 4536TIP3   OH213613   5.209   2.446   4.320
 4536TIP3    H113614   5.192   2.462   4.413
 4536TIP3    H213615   5.137   2.389   4.292
 4537TIP3   OH213616   4.278   2.459   3.587
 4537TIP3    H113617   4.204   2.419   3.540
 4537TIP3    H213618   4.330   2.501   3.519
 4538TIP3   OH213619   5.392   4.144   4.545
 4538TIP3    H113620   5.386   4.166   4.452
 4538TIP3    H213621   5.470   4.190   4.576
 4539TIP3   OH213622   4.342   3.253   4.959
 4539TIP3    H113623   4.421   3.277   5.008
 4539TIP3    H213624   4.272   3.255   5.024
 4540TIP3   OH213625   4.803   2.720   4.225
 4540TIP3    H113626   4.872   2.669   4.183
 4540TIP3    H213627   4.797   2.683   4.313
 4541TIP3   OH213628   4.301   2.194   4.110
 4541TIP3    H113629   4.269   2.119   4.161
 4541TIP3    H213630   4.321   2.157   4.024
 4542TIP3   OH213631   4.775   2.628   4.492
 4542TIP3    H113632   4.686   2.656   4.515
 4542TIP3    H213633   4.832   2.683   4.546
 4543TIP3   OH213634   4.529   2.995   3.609
 4543TIP3    H113635   4.474   2.918   3.605
 4543TIP3    H213636   4.512   3.033   3.695
 4544TIP3   OH213637   5.402   3.236   4.213
 4544TIP3    H113638   5.433   3.287   4.138
 4544TIP3    H213639   5.321   3.196   4.184
 4545TIP3   OH213640   4.973   2.300   3.494
 4545TIP3    H113641   4.880   2.276   3.496
 4545TIP3    H213642   4.974   2.394   3.512
 4546TIP3   OH213643   4.912   3.320   4.612
 4546TIP3    H113644   4.952   3.311   4.698
 4546TIP3    H213645   4.868   3.404   4.614
 4547TIP3   OH213646   5.033   2.560   3.575
 4547TIP3    H113647   5.128   2.567   3.585
 4547TIP3    H213648   5.009   2.638   3.525
 4548TIP3   OH213649   4.218   3.022   4.265
 4548TIP3    H113650   4.254   2.996   4.180
 4548TIP3    H213651   4.262   2.965   4.328
 4549TIP3   OH213652   4.086   2.922   4.876
 4549TIP3    H113653   4.083   2.903   4.970
 4549TIP3    H213654   4.010   2.876   4.840
 4550TIP3   OH213655   4.815   3.063   4.909
 4550TIP3    H113656   4.746   3.003   4.880
 4550TIP3    H213657   4.896   3.021   4.879
 4551TIP3   OH213658   5.062   3.592   4.498
 4551TIP3    H113659   4.967   3.582   4.507
 4551TIP3    H213660   5.089   3.638   4.578
 4552TIP3   OH213661   5.456   2.651   3.397
 4552TIP3    H113662   5.401   2.603   3.335
 4552TIP3    H213663   5.460   2.740   3.363
 4553TIP3   OH213664   5.701   3.525   4.476
 4553TIP3    H113665   5.606   3.514   4.475
 4553TIP3    H213666   5.731   3.492   4.392
 4554TIP3   OH213667   5.168   3.463   3.322
 4554TIP3    H113668   5.142   3.397   3.387
 4554TIP3    H213669   5.202   3.412   3.249
 4555TIP3   OH213670   5.170   3.102   4.115
 4555TIP3    H113671   5.080   3.080   4.138
 4555TIP3    H213672   5.205   3.022   4.076
 4556TIP3   OH213673   4.318   3.323   3.921
 4556TIP3    H113674   4.312   3.406   3.875
 4556TIP3    H213675   4.227   3.296   3.935
 4557TIP3   OH213676   3.891   2.621   3.630
 4557TIP3    H113677   3.925   2.710   3.616
 4557TIP3    H213678   3.809   2.634   3.679
 4558TIP3   OH213679   4.463   3.102   3.847
 4558TIP3    H113680   4.418   3.185   3.863
 4558TIP3    H213681   4.422   3.040   3.908
 4559TIP3   OH213682   4.597   3.664   4.374
 4559TIP3    H113683   4.634   3.736   4.323
 4559TIP3    H213684   4.672   3.629   4.423
 4560TIP3   OH213685   4.253   3.562   3.803
 4560TIP3    H113686   4.159   3.566   3.817
 4560TIP3    H213687   4.278   3.652   3.782
 4561TIP3   OH213688   4.957   3.313   4.341
 4561TIP3    H113689   4.944   3.312   4.436
 4561TIP3    H213690   5.033   3.257   4.326
 4562TIP3   OH213691   5.210   3.824   4.382
 4562TIP3    H113692   5.135   3.766   4.389
 4562TIP3    H213693   5.187   3.885   4.312
 4563TIP3   OH213694   5.266   3.669   3.025
 4563TIP3    H113695   5.289   3.729   2.954
 4563TIP3    H213696   5.195   3.712   3.072
 4564TIP3   OH213697   4.284   2.448   4.888
 4564TIP3    H113698   4.189   2.457   4.895
 4564TIP3    H213699   4.309   2.403   4.969
 4565TIP3   OH213700   5.127   3.155   3.449
 4565TIP3    H113701   5.105   3.075   3.497
 4565TIP3    H213702   5.218   3.143   3.424
 4566TIP3   OH213703   4.024   3.534   4.533
 4566TIP3    H113704   4.076   3.465   4.573
 4566TIP3    H213705   4.039   3.611   4.588
 4567TIP3   OH213706   4.261   3.212   3.462
 4567TIP3    H113707   4.182   3.177   3.504
 4567TIP3    H213708   4.232   3.293   3.420
 4568TIP3   OH213709   3.993   2.886   3.728
 4568TIP3    H113710   3.920   2.927   3.775
 4568TIP3    H213711   4.014   2.948   3.658
 4569TIP3   OH213712   5.155   2.495   4.581
 4569TIP3    H113713   5.224   2.545   4.625
 4569TIP3    H213714   5.139   2.421   4.639
 4570TIP3   OH213715   5.029   2.250   3.767
 4570TIP3    H113716   5.007   2.269   3.676
 4570TIP3    H213717   5.070   2.330   3.799
 4571TIP3   OH213718   4.518   3.352   3.393
 4571TIP3    H113719   4.432   3.379   3.362
 4571TIP3    H213720   4.549   3.426   3.445
 4572TIP3   OH213721   4.691   2.445   3.859
 4572TIP3    H113722   4.754   2.514   3.838
 4572TIP3    H213723   4.705   2.428   3.953
 4573TIP3   OH213724   4.979   2.748   4.648
 4573TIP3    H113725   4.998   2.799   4.726
 4573TIP3    H213726   5.027   2.666   4.660
 4574TIP3   OH213727   4.843   2.152   3.952
 4574TIP3    H113728   4.818   2.229   4.003
 4574TIP3    H213729   4.909   2.185   3.890
 4575TIP3   OH213730   4.358   2.166   3.750
 4575TIP3    H113731   4.345   2.256   3.781
 4575TIP3    H213732   4.453   2.152   3.757
 4576TIP3   OH213733   5.598   2.649   4.635
 4576TIP3    H113734   5.503   2.657   4.647
 4576TIP3    H213735   5.608   2.599   4.554
 4577TIP3   OH213736   5.261   2.846   4.021
 4577TIP3    H113737   5.183   2.792   4.033
 4577TIP3    H213738   5.327   2.803   4.075
 4578TIP3   OH213739   4.030   3.066   3.522
 4578TIP3    H113740   3.991   3.138   3.472
 4578TIP3    H213741   4.016   2.989   3.468
 4579TIP3   OH213742   3.916   2.350   3.615
 4579TIP3    H113743   3.921   2.444   3.632
 4579TIP3    H213744   3.877   2.344   3.528
 4580TIP3   OH213745   5.239   3.819   3.961
 4580TIP3    H113746   5.196   3.866   3.889
 4580TIP3    H213747   5.332   3.831   3.944
 4581TIP3   OH213748   4.313   2.069   4.491
 4581TIP3    H113749   4.281   2.038   4.406
 4581TIP3    H213750   4.299   1.995   4.550
 4582TIP3   OH213751   3.834   3.317   3.884
 4582TIP3    H113752   3.781   3.346   3.959
 4582TIP3    H213753   3.791   3.355   3.808
 4583TIP3   OH213754   4.015   3.856   4.952
 4583TIP3    H113755   4.098   3.855   5.000
 4583TIP3    H213756   3.988   3.764   4.948
 4584TIP3   OH213757   4.486   3.783   4.994
 4584TIP3    H113758   4.578   3.762   5.007
 4584TIP3    H213759   4.457   3.723   4.926
 4585TIP3   OH213760   5.121   3.715   4.735
 4585TIP3    H113761   5.127   3.643   4.798
 4585TIP3    H213762   5.195   3.771   4.755
 4586TIP3   OH213763   4.934   3.398   3.036
 4586TIP3    H113764   5.016   3.421   3.081
 4586TIP3    H213765   4.954   3.406   2.943
 4587TIP3   OH213766   4.137   3.253   5.148
 4587TIP3    H113767   4.148   3.158   5.159
 4587TIP3    H213768   4.054   3.263   5.103
 4588TIP3   OH213769   4.751   3.340   4.924
 4588TIP3    H113770   4.704   3.361   4.844
 4588TIP3    H213771   4.781   3.250   4.912
 4589TIP3   OH213772   5.232   3.369   4.539
 4589TIP3    H113773   5.308   3.403   4.492
 4589TIP3    H213774   5.163   3.433   4.524
 4590TIP3   OH213775   4.261   2.995   5.153
 4590TIP3    H113776   4.340   2.965   5.108
 4590TIP3    H213777   4.291   3.022   5.240
 4591TIP3   OH213778   4.365   2.789   3.602
 4591TIP3    H113779   4.303   2.764   3.670
 4591TIP3    H213780   4.366   2.714   3.542
 4592TIP3   OH213781   4.610   2.885   4.810
 4592TIP3    H113782   4.523   2.924   4.815
 4592TIP3    H213783   4.643   2.912   4.725
 4593TIP3   OH213784   4.436   2.595   3.410
 4593TIP3    H113785   4.405   2.599   3.319
 4593TIP3    H213786   4.530   2.610   3.404
 4594TIP3   OH213787   5.109   3.260   4.910
 4594TIP3    H113788   5.177   3.215   4.859
 4594TIP3    H213789   5.100   3.208   4.989
 4595TIP3   OH213790   5.240   2.916   3.079
 4595TIP3    H113791   5.224   2.875   2.994
 4595TIP3    H213792   5.209   3.006   3.068
 4596TIP3   OH213793   4.717   2.655   4.915
 4596TIP3    H113794   4.715   2.583   4.852
 4596TIP3    H213795   4.679   2.729   4.867
 4597TIP3   OH213796   4.721   2.448   4.718
 4597TIP3    H113797   4.746   2.488   4.634
 4597TIP3    H213798   4.629   2.425   4.707
 4598TIP3   OH213799   4.736   2.981   4.589
 4598TIP3    H113800   4.822   3.019   4.574
 4598TIP3    H213801   4.675   3.040   4.544
 4599TIP3   OH213802   5.319   2.941   4.967
 4599TIP3    H113803   5.364   2.858   4.983
 4599TIP3    H213804   5.389   3.002   4.945
 4600TIP3   OH213805   5.358   3.199   4.709
 4600TIP3    H113806   5.302   3.259   4.659
 4600TIP3    H213807   5.446   3.217   4.677
 4601TIP3   OH213808   4.599   2.744   5.158
 4601TIP3    H113809   4.528   2.682   5.179
 4601TIP3    H213810   4.625   2.721   5.069
 4602TIP3   OH213811   4.844   2.212   4.810
 4602TIP3    H113812   4.802   2.293   4.781
 4602TIP3    H213813   4.776   2.145   4.800
 4603TIP3   OH213814   4.972   2.694   5.016
 4603TIP3    H113815   4.959   2.682   5.110
 4603TIP3    H213816   4.886   2.675   4.978
 4604TIP3   OH213817   5.210   2.645   4.880
 4604TIP3    H113818   5.133   2.649   4.936
 4604TIP3    H213819   5.282   2.623   4.940
 4605TIP3   OH213820   5.450   2.612   5.029
 4605TIP3    H113821   5.462   2.517   5.038
 4605TIP3    H213822   5.443   2.643   5.120
 4606TIP3   OH213823   4.433   2.523   5.222
 4606TIP3    H113824   4.436   2.434   5.188
 4606TIP3    H213825   4.470   2.517   5.310
 4607TIP3   OH213826   4.924   2.202   5.074
 4607TIP3    H113827   4.992   2.136   5.066
 4607TIP3    H213828   4.888   2.210   4.985
 4608TIP3   OH213829   5.006   2.418   5.224
 4608TIP3    H113830   4.978   2.347   5.166
 4608TIP3    H213831   4.934   2.480   5.222
 4609TIP3   OH213832   3.731   3.010   3.564
 4609TIP3    H113833   3.816   3.030   3.524
 4609TIP3    H213834   3.700   2.933   3.518
 4610TIP3   OH213835   3.621   3.638   3.965
 4610TIP3    H113836   3.563   3.580   3.916
 4610TIP3    H213837   3.669   3.580   4.024
 4611TIP3   OH213838   3.763   3.479   4.142
 4611TIP3    H113839   3.753   3.409   4.206
 4611TIP3    H213840   3.816   3.546   4.186
 4612TIP3   OH213841   5.510   3.873   3.947
 4612TIP3    H113842   5.525   3.902   4.037
 4612TIP3    H213843   5.558   3.936   3.894
 4613TIP3   OH213844   5.526   3.905   4.228
 4613TIP3    H113845   5.476   3.823   4.223
 4613TIP3    H213846   5.594   3.888   4.293
 4614TIP3   OH213847   5.574   3.600   4.799
 4614TIP3    H113848   5.502   3.610   4.861
 4614TIP3    H213849   5.618   3.685   4.799
 4615TIP3   OH213850   5.399   3.112   3.408
 4615TIP3    H113851   5.459   3.181   3.380
 4615TIP3    H213852   5.440   3.074   3.485
 4616TIP3   OH213853   5.519   2.972   3.612
 4616TIP3    H113854   5.452   2.933   3.669
 4616TIP3    H213855   5.583   3.009   3.673
 4617TIP3   OH213856   5.576   3.379   4.044
 4617TIP3    H113857   5.625   3.308   4.002
 4617TIP3    H213858   5.573   3.449   3.978
 4618TIP3   OH213859   5.386   3.665   4.235
 4618TIP3    H113860   5.317   3.707   4.287
 4618TIP3    H213861   5.339   3.622   4.163
 4619TIP3   OH213862   5.445   2.888   3.257
 4619TIP3    H113863   5.374   2.888   3.192
 4619TIP3    H213864   5.427   2.965   3.312
 4620TIP3   OH213865   5.309   2.543   3.195
 4620TIP3    H113866   5.259   2.583   3.124
 4620TIP3    H213867   5.294   2.449   3.186
 4621TIP3   OH213868   5.324   2.833   3.752
 4621TIP3    H113869   5.329   2.738   3.742
 4621TIP3    H213870   5.305   2.847   3.845
 4622TIP3   OH213871   3.945   2.901   4.512
 4622TIP3    H113872   3.935   2.867   4.423
 4622TIP3    H213873   4.040   2.901   4.527
 4623TIP3   OH213874   5.612   3.257   4.612
 4623TIP3    H113875   5.679   3.191   4.594
 4623TIP3    H213876   5.625   3.323   4.544
 4624TIP3   OH213877   5.788   3.047   4.604
 4624TIP3    H113878   5.712   3.007   4.646
 4624TIP3    H213879   5.861   2.990   4.626
 4625TIP3   OH213880   5.257   2.274   3.173
 4625TIP3    H113881   5.320   2.247   3.240
 4625TIP3    H213882   5.175   2.234   3.200
 4626TIP3   OH213883   5.323   2.558   3.636
 4626TIP3    H113884   5.366   2.473   3.648
 4626TIP3    H213885   5.368   2.597   3.561
 4627TIP3   OH213886   5.476   2.717   4.154
 4627TIP3    H113887   5.557   2.736   4.108
 4627TIP3    H213888   5.487   2.758   4.240
 4628TIP3   OH213889   5.548   2.873   4.379
 4628TIP3    H113890   5.475   2.901   4.433
 4628TIP3    H213891   5.580   2.953   4.337
 4629TIP3   OH213892   4.170   2.580   5.163
 4629TIP3    H113893   4.263   2.579   5.183
 4629TIP3    H213894   4.135   2.501   5.204
 4630TIP3   OH213895   6.009   2.483   4.915
 4630TIP3    H113896   6.064   2.417   4.874
 4630TIP3    H213897   5.967   2.529   4.842
 4631TIP3   OH213898   5.434   2.305   3.683
 4631TIP3    H113899   5.478   2.291   3.767
 4631TIP3    H213900   5.370   2.235   3.676
 4632TIP3   OH213901   4.141   2.288   4.505
 4632TIP3    H113902   4.197   2.211   4.512
 4632TIP3    H213903   4.201   2.361   4.493
 4633TIP3   OH213904   3.924   2.551   4.582
 4633TIP3    H113905   3.975   2.548   4.501
 4633TIP3    H213906   3.938   2.640   4.615
 4634TIP3   OH213907   5.857   2.593   4.723
 4634TIP3    H113908   5.775   2.634   4.750
 4634TIP3    H213909   5.830   2.519   4.669
 4635TIP3   OH213910   5.489   2.224   3.327
 4635TIP3    H113911   5.533   2.163   3.267
 4635TIP3    H213912   5.546   2.301   3.330
 4636TIP3   OH213913   3.911   2.064   4.073
 4636TIP3    H113914   3.824   2.053   4.111
 4636TIP3    H213915   3.897   2.120   3.996
 4637TIP3   OH213916   5.067   3.772   3.586
 4637TIP3    H113917   5.128   3.765   3.512
 4637TIP3    H213918   5.105   3.841   3.641
 4638TIP3   OH213919   4.130   2.118   4.892
 4638TIP3    H113920   4.084   2.122   4.976
 4638TIP3    H213921   4.075   2.170   4.833
 4639TIP3   OH213922   4.171   3.572   4.971
 4639TIP3    H113923   4.077   3.562   4.958
 4639TIP3    H213924   4.184   3.551   5.063
 4640TIP3   OH213925   4.370   3.618   4.523
 4640TIP3    H113926   4.315   3.689   4.489
 4640TIP3    H213927   4.454   3.630   4.479
 4641TIP3   OH213928   4.783   3.848   4.654
 4641TIP3    H113929   4.821   3.841   4.742
 4641TIP3    H213930   4.844   3.904   4.606
 4642TIP3   OH213931   4.966   4.007   4.524
 4642TIP3    H113932   5.031   3.951   4.481
 4642TIP3    H213933   5.018   4.065   4.580
 4643TIP3   OH213934   5.768   2.349   4.616
 4643TIP3    H113935   5.680   2.344   4.579
 4643TIP3    H213936   5.802   2.259   4.611
 4644TIP3   OH213937   4.031   3.873   4.559
 4644TIP3    H113938   3.940   3.894   4.538
 4644TIP3    H213939   4.052   3.931   4.632
 4645TIP3   OH213940   4.262   3.845   4.412
 4645TIP3    H113941   4.178   3.855   4.458
 4645TIP3    H213942   4.243   3.871   4.322
 4646TIP3   OH213943   4.685   3.867   4.202
 4646TIP3    H113944   4.612   3.877   4.141
 4646TIP3    H213945   4.695   3.953   4.242
 4647TIP3   OH213946   4.950   3.804   4.257
 4647TIP3    H113947   4.857   3.821   4.239
 4647TIP3    H213948   4.996   3.873   4.210
 4648TIP3   OH213949   5.156   3.988   4.164
 4648TIP3    H113950   5.143   4.074   4.122
 4648TIP3    H213951   5.182   3.931   4.092
 4649TIP3   OH213952   3.943   3.648   4.292
 4649TIP3    H113953   3.968   3.618   4.379
 4649TIP3    H213954   4.011   3.616   4.233
 4650TIP3   OH213955   4.141   3.534   4.148
 4650TIP3    H113956   4.154   3.451   4.195
 4650TIP3    H213957   4.229   3.573   4.145
 4651TIP3   OH213958   4.413   3.617   4.166
 4651TIP3    H113959   4.430   3.523   4.153
 4651TIP3    H213960   4.464   3.640   4.244
 4652TIP3   OH213961   4.981   2.274   4.257
 4652TIP3    H113962   4.940   2.203   4.306
 4652TIP3    H213963   5.049   2.231   4.204
 4653TIP3   OH213964   5.481   2.165   4.136
 4653TIP3    H113965   5.517   2.217   4.065
 4653TIP3    H213966   5.389   2.191   4.140
 4654TIP3   OH213967   5.593   2.252   3.903
 4654TIP3    H113968   5.664   2.194   3.875
 4654TIP3    H213969   5.628   2.340   3.890
 4655TIP3   OH213970   4.221   1.969   4.251
 4655TIP3    H113971   4.131   1.939   4.258
 4655TIP3    H213972   4.273   1.888   4.244
 4656TIP3   OH213973   4.038   1.869   3.907
 4656TIP3    H113974   4.060   1.920   3.829
 4656TIP3    H213975   3.999   1.933   3.967
 4657TIP3   OH213976   4.687   2.006   4.140
 4657TIP3    H113977   4.735   2.055   4.072
 4657TIP3    H213978   4.715   2.046   4.222
 4658TIP3   OH213979   5.195   2.159   4.120
 4658TIP3    H113980   5.192   2.127   4.030
 4658TIP3    H213981   5.197   2.080   4.173
 4659TIP3   OH213982   5.249   2.095   3.688
 4659TIP3    H113983   5.169   2.143   3.710
 4659TIP3    H213984   5.236   2.008   3.726
 4660TIP3   OH213985   3.713   3.432   3.669
 4660TIP3    H113986   3.711   3.385   3.585
 4660TIP3    H213987   3.695   3.523   3.645
 4661TIP3   OH213988   4.140   2.004   3.669
 4661TIP3    H113989   4.184   1.945   3.608
 4661TIP3    H213990   4.210   2.061   3.702
 4662TIP3   OH213991   4.634   2.195   3.763
 4662TIP3    H113992   4.690   2.145   3.821
 4662TIP3    H213993   4.648   2.286   3.790
 4663TIP3   OH213994   4.488   3.632   3.271
 4663TIP3    H113995   4.567   3.602   3.226
 4663TIP3    H213996   4.430   3.556   3.271
 4664TIP3   OH213997   5.224   3.730   3.359
 4664TIP3    H113998   5.210   3.636   3.352
 4664TIP3    H213999   5.177   3.767   3.284
 4665TIP3   OH214000   4.436   2.250   5.136
 4665TIP3    H114001   4.399   2.183   5.194
 4665TIP3    H214002   4.528   2.256   5.163
 4666TIP3   OH214003   4.686   2.254   5.259
 4666TIP3    H114004   4.767   2.232   5.214
 4666TIP3    H214005   4.675   2.185   5.325
 4667TIP3   OH214006   5.514   2.340   5.045
 4667TIP3    H114007   5.527   2.312   5.136
 4667TIP3    H214008   5.601   2.334   5.005
 4668TIP3   OH214009   5.437   3.872   4.541
 4668TIP3    H114010   5.360   3.841   4.495
 4668TIP3    H214011   5.420   3.965   4.556
 4669TIP3   OH214012   0.185   3.171   3.786
 4669TIP3    H114013   0.266   3.223   3.786
 4669TIP3    H214014   0.155   3.174   3.695
 4670TIP3   OH214015   5.992   3.124   4.070
 4670TIP3    H114016   6.030   3.069   4.138
 4670TIP3    H214017   6.066   3.149   4.015
 4671TIP3   OH214018   5.994   3.557   3.767
 4671TIP3    H114019   5.975   3.463   3.770
 4671TIP3    H214020   6.089   3.561   3.755
 4672TIP3   OH214021   5.677   2.753   3.535
 4672TIP3    H114022   5.637   2.835   3.562
 4672TIP3    H214023   5.606   2.703   3.494
 4673TIP3   OH214024   5.747   3.053   3.747
 4673TIP3    H114025   5.795   2.975   3.774
 4673TIP3    H214026   5.814   3.109   3.707
 4674TIP3   OH214027   0.033   3.913   3.439
 4674TIP3    H114028   0.128   3.914   3.429
 4674TIP3    H214029   0.017   3.936   3.530
 4675TIP3   OH214030  -0.014   3.423   3.722
 4675TIP3    H114031   0.024   3.382   3.799
 4675TIP3    H214032   0.041   3.499   3.705
 4676TIP3   OH214033   6.225   2.667   3.735
 4676TIP3    H114034   6.213   2.719   3.656
 4676TIP3    H214035   6.217   2.576   3.706
 4677TIP3   OH214036   5.885   2.836   3.838
 4677TIP3    H114037   5.966   2.821   3.887
 4677TIP3    H214038   5.892   2.778   3.762
 4678TIP3   OH214039   6.263   3.029   3.624
 4678TIP3    H114040   6.322   2.993   3.690
 4678TIP3    H214041   6.222   2.953   3.584
 4679TIP3   OH214042   6.198   2.604   4.174
 4679TIP3    H114043   6.161   2.651   4.099
 4679TIP3    H214044   6.146   2.634   4.249
 4680TIP3   OH214045   0.078   3.521   3.153
 4680TIP3    H114046   0.024   3.461   3.101
 4680TIP3    H214047   0.020   3.594   3.174
 4681TIP3   OH214048   6.314   3.407   3.951
 4681TIP3    H114049   6.264   3.478   3.992
 4681TIP3    H214050   6.350   3.445   3.871
 4682TIP3   OH214051   6.114   2.748   3.960
 4682TIP3    H114052   6.178   2.813   3.990
 4682TIP3    H214053   6.151   2.713   3.879
 4683TIP3   OH214054   6.186   3.617   4.056
 4683TIP3    H114055   6.172   3.706   4.025
 4683TIP3    H214056   6.107   3.595   4.105
 4684TIP3   OH214057   5.573   3.298   3.292
 4684TIP3    H114058   5.537   3.315   3.205
 4684TIP3    H214059   5.598   3.385   3.325
 4685TIP3   OH214060   6.483   3.076   3.210
 4685TIP3    H114061   6.415   3.135   3.178
 4685TIP3    H214062   6.511   3.027   3.132
 4686TIP3   OH214063   6.089   3.191   3.508
 4686TIP3    H114064   6.056   3.133   3.440
 4686TIP3    H214065   6.160   3.141   3.549
 4687TIP3   OH214066   6.255   3.590   3.654
 4687TIP3    H114067   6.217   3.583   3.566
 4687TIP3    H214068   6.324   3.525   3.655
 4688TIP3   OH214069   6.199   3.169   3.900
 4688TIP3    H114070   6.262   3.128   3.841
 4688TIP3    H214071   6.240   3.252   3.924
 4689TIP3   OH214072   0.183   3.896   3.690
 4689TIP3    H114073   0.218   3.921   3.775
 4689TIP3    H214074   0.260   3.885   3.634
 4690TIP3   OH214075   6.373   3.693   4.243
 4690TIP3    H114076   6.317   3.759   4.285
 4690TIP3    H214077   6.315   3.649   4.180
 4691TIP3   OH214078   6.146   3.261   4.328
 4691TIP3    H114079   6.150   3.351   4.361
 4691TIP3    H214080   6.053   3.240   4.330
 4692TIP3   OH214081   6.447   3.751   3.209
 4692TIP3    H114082   6.425   3.826   3.264
 4692TIP3    H214083   6.371   3.740   3.152
 4693TIP3   OH214084   6.180   3.885   4.298
 4693TIP3    H114085   6.150   3.883   4.207
 4693TIP3    H214086   6.102   3.861   4.349
 4694TIP3   OH214087   5.993   3.023   3.307
 4694TIP3    H114088   5.913   3.063   3.272
 4694TIP3    H214089   5.964   2.939   3.342
 4695TIP3   OH214090   5.774   3.412   4.240
 4695TIP3    H114091   5.703   3.398   4.176
 4695TIP3    H214092   5.807   3.324   4.258
 4696TIP3   OH214093   5.621   3.609   3.879
 4696TIP3    H114094   5.715   3.624   3.888
 4696TIP3    H214095   5.581   3.686   3.919
 4697TIP3   OH214096   0.048   3.831   4.087
 4697TIP3    H114097   0.051   3.919   4.124
 4697TIP3    H214098  -0.016   3.784   4.142
 4698TIP3   OH214099   6.338   3.957   3.018
 4698TIP3    H114100   6.292   3.942   2.935
 4698TIP3    H214101   6.311   4.044   3.045
 4699TIP3   OH214102   5.795   3.802   3.400
 4699TIP3    H114103   5.838   3.795   3.486
 4699TIP3    H214104   5.745   3.722   3.392
 4700TIP3   OH214105   0.129   3.760   2.724
 4700TIP3    H114106   0.213   3.768   2.679
 4700TIP3    H214107   0.127   3.834   2.784
 4701TIP3   OH214108   0.103   3.930   2.939
 4701TIP3    H114109   0.018   3.935   2.983
 4701TIP3    H214110   0.141   3.849   2.972
 4702TIP3   OH214111   5.972   3.599   4.218
 4702TIP3    H114112   6.021   3.584   4.299
 4702TIP3    H214113   5.900   3.535   4.222
 4703TIP3   OH214114   6.331   2.427   4.011
 4703TIP3    H114115   6.247   2.383   3.998
 4703TIP3    H214116   6.313   2.496   4.075
 4704TIP3   OH214117   6.301   2.928   4.052
 4704TIP3    H114118   6.240   2.953   4.120
 4704TIP3    H214119   6.301   3.002   3.991
 4705TIP3   OH214120   6.131   2.822   3.525
 4705TIP3    H114121   6.051   2.782   3.558
 4705TIP3    H214122   6.152   2.772   3.446
 4706TIP3   OH214123   6.123   2.960   4.256
 4706TIP3    H114124   6.128   3.026   4.325
 4706TIP3    H214125   6.105   2.878   4.302
 4707TIP3   OH214126   6.120   2.421   2.985
 4707TIP3    H114127   6.113   2.454   3.075
 4707TIP3    H214128   6.066   2.481   2.934
 4708TIP3   OH214129   5.720   2.475   3.825
 4708TIP3    H114130   5.785   2.514   3.884
 4708TIP3    H214131   5.767   2.462   3.743
 4709TIP3   OH214132   5.648   2.455   3.341
 4709TIP3    H114133   5.694   2.490   3.264
 4709TIP3    H214134   5.586   2.523   3.365
 4710TIP3   OH214135   0.036   2.542   3.666
 4710TIP3    H114136  -0.031   2.568   3.603
 4710TIP3    H214137   0.081   2.624   3.688
 4711TIP3   OH214138   5.924   2.677   3.619
 4711TIP3    H114139   5.838   2.687   3.579
 4711TIP3    H214140   5.956   2.592   3.588
 4712TIP3   OH214141   6.168   2.707   3.285
 4712TIP3    H114142   6.247   2.752   3.257
 4712TIP3    H214143   6.108   2.716   3.211
 4713TIP3   OH214144   6.041   2.727   3.053
 4713TIP3    H114145   5.973   2.680   3.007
 4713TIP3    H214146   6.095   2.767   2.985
 4714TIP3   OH214147   6.137   3.517   4.444
 4714TIP3    H114148   6.216   3.541   4.494
 4714TIP3    H214149   6.067   3.517   4.509
 4715TIP3   OH214150   0.026   2.826   3.665
 4715TIP3    H114151   0.008   2.894   3.600
 4715TIP3    H214152   0.029   2.872   3.748
 4716TIP3   OH214153   6.071   2.445   3.571
 4716TIP3    H114154   6.030   2.375   3.620
 4716TIP3    H214155   6.165   2.427   3.577
 4717TIP3   OH214156   0.130   2.881   3.914
 4717TIP3    H114157   0.080   2.806   3.946
 4717TIP3    H214158   0.204   2.887   3.975
 4718TIP3   OH214159   6.284   3.245   3.103
 4718TIP3    H114160   6.211   3.190   3.076
 4718TIP3    H214161   6.254   3.287   3.183
 4719TIP3   OH214162   0.189   3.472   4.218
 4719TIP3    H114163   0.167   3.516   4.300
 4719TIP3    H214164   0.182   3.541   4.151
 4720TIP3   OH214165   5.990   3.278   3.749
 4720TIP3    H114166   6.019   3.254   3.661
 4720TIP3    H214167   6.052   3.234   3.807
 4721TIP3   OH214168   6.432   3.406   2.947
 4721TIP3    H114169   6.406   3.494   2.921
 4721TIP3    H214170   6.359   3.374   3.001
 4722TIP3   OH214171   5.883   3.182   4.373
 4722TIP3    H114172   5.885   3.162   4.467
 4722TIP3    H214173   5.807   3.133   4.340
 4723TIP3   OH214174   0.041   3.312   4.441
 4723TIP3    H114175  -0.026   3.252   4.407
 4723TIP3    H214176   0.123   3.277   4.407
 4724TIP3   OH214177   0.258   3.923   3.946
 4724TIP3    H114178   0.194   3.865   3.987
 4724TIP3    H214179   0.341   3.903   3.990
 4725TIP3   OH214180   6.110   3.608   3.414
 4725TIP3    H114181   6.107   3.679   3.350
 4725TIP3    H214182   6.019   3.581   3.425
 4726TIP3   OH214183   5.678   2.881   3.113
 4726TIP3    H114184   5.720   2.965   3.132
 4726TIP3    H214185   5.598   2.882   3.166
 4727TIP3   OH214186   6.162   3.361   3.308
 4727TIP3    H114187   6.165   3.450   3.343
 4727TIP3    H214188   6.143   3.306   3.384
 4728TIP3   OH214189   6.391   3.913   3.858
 4728TIP3    H114190   6.431   3.979   3.801
 4728TIP3    H214191   6.463   3.883   3.914
 4729TIP3   OH214192   6.023   3.821   3.247
 4729TIP3    H114193   5.939   3.827   3.293
 4729TIP3    H214194   6.057   3.911   3.249
 4730TIP3   OH214195   6.075   2.712   4.389
 4730TIP3    H114196   5.980   2.720   4.398
 4730TIP3    H214197   6.101   2.657   4.464
 4731TIP3   OH214198   5.824   3.797   4.013
 4731TIP3    H114199   5.871   3.730   4.063
 4731TIP3    H214200   5.832   3.876   4.066
 4732TIP3   OH214201   6.055   3.448   2.716
 4732TIP3    H114202   6.107   3.375   2.684
 4732TIP3    H214203   6.046   3.433   2.810
 4733TIP3   OH214204   6.029   3.442   2.989
 4733TIP3    H114205   6.096   3.427   3.055
 4733TIP3    H214206   6.013   3.537   2.991
 4734TIP3   OH214207   5.770   3.132   3.190
 4734TIP3    H114208   5.704   3.177   3.243
 4734TIP3    H214209   5.787   3.193   3.118
 4735TIP3   OH214210   6.251   3.631   3.054
 4735TIP3    H114211   6.165   3.669   3.033
 4735TIP3    H214212   6.306   3.652   2.979
 4736TIP3   OH214213   6.000   3.716   2.994
 4736TIP3    H114214   5.993   3.788   2.930
 4736TIP3    H214215   5.994   3.760   3.079
 4737TIP3   OH214216   6.151   2.432   3.260
 4737TIP3    H114217   6.135   2.523   3.285
 4737TIP3    H214218   6.209   2.399   3.328
 4738TIP3   OH214219   5.780   3.318   2.980
 4738TIP3    H114220   5.851   3.381   2.992
 4738TIP3    H214221   5.814   3.255   2.916
 4739TIP3   OH214222   5.706   2.605   3.119
 4739TIP3    H114223   5.718   2.700   3.124
 4739TIP3    H214224   5.635   2.593   3.056
 4740TIP3   OH214225   6.080   2.331   3.982
 4740TIP3    H114226   6.052   2.301   3.895
 4740TIP3    H214227   6.067   2.254   4.038
 4741TIP3   OH214228   5.627   3.570   3.370
 4741TIP3    H114229   5.578   3.602   3.446
 4741TIP3    H214230   5.587   3.613   3.295
 4742TIP3   OH214231   5.818   4.107   4.442
 4742TIP3    H114232   5.897   4.110   4.496
 4742TIP3    H214233   5.791   4.016   4.443
 4743TIP3   OH214234   6.336   4.072   4.426
 4743TIP3    H114235   6.390   4.003   4.465
 4743TIP3    H214236   6.269   4.024   4.375
 4744TIP3   OH214237   6.241   3.628   2.612
 4744TIP3    H114238   6.170   3.583   2.657
 4744TIP3    H214239   6.305   3.560   2.593
 4745TIP3   OH214240   0.444   3.966   4.258
 4745TIP3    H114241   0.376   3.899   4.271
 4745TIP3    H214242   0.487   3.941   4.177
 4746TIP3   OH214243   5.932   3.506   4.630
 4746TIP3    H114244   5.949   3.413   4.641
 4746TIP3    H214245   5.845   3.511   4.592
 4747TIP3   OH214246   5.914   3.129   2.840
 4747TIP3    H114247   5.965   3.106   2.918
 4747TIP3    H214248   5.980   3.145   2.772
 4748TIP3   OH214249   0.052   3.589   4.419
 4748TIP3    H114250  -0.011   3.618   4.354
 4748TIP3    H214251   0.038   3.494   4.426
 4749TIP3   OH214252   6.322   3.369   2.702
 4749TIP3    H114253   6.347   3.347   2.792
 4749TIP3    H214254   6.305   3.285   2.660
 4750TIP3   OH214255   6.055   3.250   4.635
 4750TIP3    H114256   6.135   3.215   4.594
 4750TIP3    H214257   6.082   3.275   4.723
 4751TIP3   OH214258   6.088   3.063   3.046
 4751TIP3    H114259   6.065   3.041   3.136
 4751TIP3    H214260   6.140   2.988   3.016
 4752TIP3   OH214261   6.383   3.129   4.297
 4752TIP3    H114262   6.301   3.177   4.294
 4752TIP3    H214263   6.424   3.146   4.212
 4753TIP3   OH214264   6.230   2.860   2.895
 4753TIP3    H114265   6.170   2.892   2.827
 4753TIP3    H214266   6.270   2.782   2.858
 4754TIP3   OH214267   6.480   2.928   4.458
 4754TIP3    H114268   6.488   2.845   4.411
 4754TIP3    H214269   6.447   2.989   4.392
 4755TIP3   OH214270   6.441   2.626   4.284
 4755TIP3    H114271   6.471   2.699   4.230
 4755TIP3    H214272   6.350   2.613   4.259
 4756TIP3   OH214273   0.081   3.366   3.970
 4756TIP3    H114274   0.111   3.276   3.983
 4756TIP3    H214275  -0.007   3.368   4.007
 4757TIP3   OH214276   6.347   3.032   4.664
 4757TIP3    H114277   6.290   2.960   4.692
 4757TIP3    H214278   6.388   3.001   4.584
 4758TIP3   OH214279   0.096   2.418   4.221
 4758TIP3    H114280   0.047   2.495   4.249
 4758TIP3    H214281   0.035   2.345   4.233
 4759TIP3   OH214282   0.223   3.054   4.589
 4759TIP3    H114283   0.297   2.994   4.585
 4759TIP3    H214284   0.158   3.015   4.530
 4760TIP3   OH214285   6.221   2.785   4.712
 4760TIP3    H114286   6.223   2.698   4.672
 4760TIP3    H214287   6.257   2.772   4.799
 4761TIP3   OH214288   0.261   2.745   4.638
 4761TIP3    H114289   0.227   2.670   4.589
 4761TIP3    H214290   0.183   2.789   4.671
 4762TIP3   OH214291   6.037   3.925   2.818
 4762TIP3    H114292   6.128   3.909   2.791
 4762TIP3    H214293   5.998   3.971   2.744
 4763TIP3   OH214294   5.509   3.297   3.008
 4763TIP3    H114295   5.603   3.316   2.999
 4763TIP3    H214296   5.498   3.212   2.966
 4764TIP3   OH214297   5.426   3.893   3.449
 4764TIP3    H114298   5.362   3.838   3.404
 4764TIP3    H214299   5.471   3.834   3.510
 4765TIP3   OH214300   5.567   3.731   3.623
 4765TIP3    H114301   5.556   3.664   3.691
 4765TIP3    H214302   5.616   3.801   3.667
 4766TIP3   OH214303   5.735   3.158   3.999
 4766TIP3    H114304   5.728   3.125   3.910
 4766TIP3    H214305   5.829   3.156   4.018
 4767TIP3   OH214306   5.959   2.841   4.656
 4767TIP3    H114307   6.053   2.838   4.672
 4767TIP3    H214308   5.926   2.759   4.693
 4768TIP3   OH214309   5.915   2.551   4.006
 4768TIP3    H114310   5.973   2.475   4.009
 4768TIP3    H214311   5.974   2.626   3.993
 4769TIP3   OH214312   5.719   2.812   4.064
 4769TIP3    H114313   5.765   2.808   3.981
 4769TIP3    H214314   5.740   2.899   4.099
 4770TIP3   OH214315   5.706   2.306   3.563
 4770TIP3    H114316   5.619   2.303   3.603
 4770TIP3    H214317   5.695   2.366   3.489
 4771TIP3   OH214318   5.923   2.379   4.381
 4771TIP3    H114319   5.876   2.379   4.464
 4771TIP3    H214320   5.868   2.429   4.321
 4772TIP3   OH214321   5.966   3.831   4.470
 4772TIP3    H114322   5.873   3.815   4.449
 4772TIP3    H214323   5.974   3.810   4.563
 4773TIP3   OH214324   6.166   3.885   4.014
 4773TIP3    H114325   6.111   3.954   3.978
 4773TIP3    H214326   6.248   3.891   3.966
 4774TIP3   OH214327   0.098   4.084   4.171
 4774TIP3    H114328   0.159   4.092   4.245
 4774TIP3    H214329   0.142   4.128   4.099
 4775TIP3   OH214330   0.224   4.240   3.991
 4775TIP3    H114331   0.269   4.204   3.914
 4775TIP3    H214332   0.274   4.319   4.014
 4776TIP3   OH214333   5.829   4.128   4.049
 4776TIP3    H114334   5.737   4.141   4.028
 4776TIP3    H214335   5.848   4.193   4.117
 4777TIP3   OH214336   6.052   4.102   3.896
 4777TIP3    H114337   5.970   4.110   3.946
 4777TIP3    H214338   6.029   4.129   3.807
 4778TIP3   OH214339   6.454   4.115   3.678
 4778TIP3    H114340   6.379   4.128   3.619
 4778TIP3    H214341   6.467   4.200   3.719
 4779TIP3   OH214342   0.231   4.170   3.685
 4779TIP3    H114343   0.143   4.134   3.697
 4779TIP3    H214344   0.262   4.128   3.604
 4780TIP3   OH214345   5.740   3.912   3.770
 4780TIP3    H114346   5.760   3.880   3.858
 4780TIP3    H214347   5.810   3.877   3.715
 4781TIP3   OH214348   5.939   3.788   3.634
 4781TIP3    H114349   5.949   3.706   3.683
 4781TIP3    H214350   6.027   3.827   3.635
 4782TIP3   OH214351   6.207   3.871   3.651
 4782TIP3    H114352   6.227   3.779   3.638
 4782TIP3    H214353   6.258   3.896   3.728
 4783TIP3   OH214354   5.998   2.238   3.735
 4783TIP3    H114355   5.909   2.204   3.743
 4783TIP3    H214356   6.054   2.161   3.735
 4784TIP3   OH214357   5.831   2.117   3.393
 4784TIP3    H114358   5.854   2.173   3.319
 4784TIP3    H214359   5.793   2.177   3.457
 4785TIP3   OH214360   6.445   2.180   3.635
 4785TIP3    H114361   6.522   2.225   3.600
 4785TIP3    H214362   6.389   2.250   3.668
 4786TIP3   OH214363   5.512   3.698   3.157
 4786TIP3    H114364   5.427   3.666   3.126
 4786TIP3    H214365   5.517   3.788   3.127
 4787TIP3   OH214366   5.923   2.269   3.171
 4787TIP3    H114367   5.963   2.213   3.105
 4787TIP3    H214368   5.996   2.324   3.202
 4788TIP3   OH214369   6.414   2.382   3.374
 4788TIP3    H114370   6.496   2.354   3.415
 4788TIP3    H214371   6.417   2.342   3.287
 4789TIP3   OH214372   6.291   3.871   2.731
 4789TIP3    H114373   6.365   3.912   2.686
 4789TIP3    H214374   6.256   3.808   2.667
 4790TIP3   OH214375   6.210   2.510   4.615
 4790TIP3    H114376   6.174   2.441   4.671
 4790TIP3    H214377   6.300   2.521   4.646
 4791TIP3   OH214378   6.450   2.522   4.753
 4791TIP3    H114379   6.508   2.494   4.682
 4791TIP3    H214380   6.438   2.443   4.807
 4792TIP3   OH214381   5.601   3.694   2.809
 4792TIP3    H114382   5.611   3.712   2.902
 4792TIP3    H214383   5.684   3.652   2.784
 4793TIP3   OH214384   0.962   4.299   4.480
 4793TIP3    H114385   0.928   4.385   4.456
 4793TIP3    H214386   0.894   4.237   4.452
 4794TIP3   OH214387   0.958   4.295   4.887
 4794TIP3    H114388   1.006   4.277   4.968
 4794TIP3    H214389   0.919   4.210   4.864
 4795TIP3   OH214390   1.208   4.605   4.550
 4795TIP3    H114391   1.199   4.546   4.625
 4795TIP3    H214392   1.263   4.676   4.583
 4796TIP3   OH214393   0.859   5.036   4.571
 4796TIP3    H114394   0.896   4.971   4.510
 4796TIP3    H214395   0.877   5.000   4.658
 4797TIP3   OH214396   0.778   4.520   4.904
 4797TIP3    H114397   0.817   4.440   4.870
 4797TIP3    H214398   0.853   4.574   4.929
 4798TIP3   OH214399   1.784   3.839   4.906
 4798TIP3    H114400   1.807   3.923   4.946
 4798TIP3    H214401   1.818   3.846   4.816
 4799TIP3   OH214402   1.174   4.011   4.937
 4799TIP3    H114403   1.215   3.928   4.962
 4799TIP3    H214404   1.139   3.995   4.850
 4800TIP3   OH214405   0.553   3.687   4.899
 4800TIP3    H114406   0.523   3.763   4.848
 4800TIP3    H214407   0.512   3.612   4.857
 4801TIP3   OH214408   1.219   3.770   4.523
 4801TIP3    H114409   1.284   3.763   4.593
 4801TIP3    H214410   1.268   3.804   4.448
 4802TIP3   OH214411   0.595   4.089   4.815
 4802TIP3    H114412   0.686   4.064   4.829
 4802TIP3    H214413   0.553   4.009   4.784
 4803TIP3   OH214414   1.850   4.050   5.084
 4803TIP3    H114415   1.766   4.094   5.069
 4803TIP3    H214416   1.885   4.092   5.162
 4804TIP3   OH214417   4.857   0.609   0.022
 4804TIP3    H114418   4.798   0.635  -0.048
 4804TIP3    H214419   4.800   0.596   0.098
 4805TIP3   OH214420   0.829   4.504   4.347
 4805TIP3    H114421   0.824   4.502   4.251
 4805TIP3    H214422   0.794   4.589   4.372
 4806TIP3   OH214423   0.636   4.467   5.130
 4806TIP3    H114424   0.593   4.548   5.157
 4806TIP3    H214425   0.681   4.490   5.049
 4807TIP3   OH214426   1.387   3.794   4.736
 4807TIP3    H114427   1.356   3.767   4.823
 4807TIP3    H214428   1.449   3.865   4.753
 4808TIP3   OH214429   0.399   3.782   5.107
 4808TIP3    H114430   0.446   3.858   5.141
 4808TIP3    H214431   0.459   3.743   5.043
 4809TIP3   OH214432   1.276   4.841   4.723
 4809TIP3    H114433   1.183   4.837   4.746
 4809TIP3    H214434   1.283   4.917   4.666
 4810TIP3   OH214435   1.584   3.733   5.077
 4810TIP3    H114436   1.498   3.759   5.044
 4810TIP3    H214437   1.645   3.761   5.008
 4811TIP3   OH214438   0.862   3.363   5.056
 4811TIP3    H114439   0.850   3.271   5.080
 4811TIP3    H214440   0.790   3.408   5.100
 4812TIP3   OH214441   0.966   4.882   4.364
 4812TIP3    H114442   1.016   4.802   4.349
 4812TIP3    H214443   1.024   4.953   4.335
 4813TIP3   OH214444   1.104   4.658   4.300
 4813TIP3    H114445   1.108   4.576   4.250
 4813TIP3    H214446   1.146   4.637   4.383
 4814TIP3   OH214447   1.513   4.735   5.051
 4814TIP3    H114448   1.496   4.669   4.983
 4814TIP3    H214449   1.495   4.819   5.009
 4815TIP3   OH214450   0.800   4.137   4.321
 4815TIP3    H114451   0.726   4.196   4.305
 4815TIP3    H214452   0.849   4.138   4.239
 4816TIP3   OH214453   0.775   3.941   4.019
 4816TIP3    H114454   0.836   3.995   4.070
 4816TIP3    H214455   0.832   3.880   3.971
 4817TIP3   OH214456   1.665   4.410   4.928
 4817TIP3    H114457   1.586   4.461   4.912
 4817TIP3    H214458   1.710   4.407   4.843
 4818TIP3   OH214459   1.144   4.235   4.286
 4818TIP3    H114460   1.090   4.262   4.360
 4818TIP3    H214461   1.226   4.207   4.325
 4819TIP3   OH214462   1.370   4.262   5.217
 4819TIP3    H114463   1.367   4.344   5.266
 4819TIP3    H214464   1.287   4.261   5.168
 4820TIP3   OH214465   0.416   4.255   4.689
 4820TIP3    H114466   0.353   4.183   4.679
 4820TIP3    H214467   0.487   4.218   4.741
 4821TIP3   OH214468   0.527   4.679   4.862
 4821TIP3    H114469   0.520   4.650   4.771
 4821TIP3    H214470   0.618   4.660   4.886
 4822TIP3   OH214471   0.564   4.202   5.070
 4822TIP3    H114472   0.572   4.186   4.976
 4822TIP3    H214473   0.577   4.296   5.079
 4823TIP3   OH214474   1.018   4.838   4.825
 4823TIP3    H114475   1.018   4.919   4.878
 4823TIP3    H214476   1.012   4.768   4.890
 4824TIP3   OH214477   0.984   4.097   4.113
 4824TIP3    H114478   1.044   4.154   4.162
 4824TIP3    H214479   1.009   4.107   4.022
 4825TIP3   OH214480   0.716   4.766   4.370
 4825TIP3    H114481   0.806   4.797   4.376
 4825TIP3    H214482   0.664   4.846   4.364
 4826TIP3   OH214483   1.490   3.323   4.167
 4826TIP3    H114484   1.412   3.344   4.218
 4826TIP3    H214485   1.503   3.399   4.110
 4827TIP3   OH214486   1.303   4.695   3.717
 4827TIP3    H114487   1.301   4.789   3.701
 4827TIP3    H214488   1.393   4.669   3.698
 4828TIP3   OH214489   1.751   5.117   5.121
 4828TIP3    H114490   1.750   5.021   5.122
 4828TIP3    H214491   1.664   5.142   5.152
 4829TIP3   OH214492   0.856   4.876   5.244
 4829TIP3    H114493   0.871   4.967   5.269
 4829TIP3    H214494   0.804   4.881   5.164
 4830TIP3   OH214495   0.603   4.995   4.204
 4830TIP3    H114496   0.562   4.990   4.117
 4830TIP3    H214497   0.591   5.086   4.231
 4831TIP3   OH214498   0.804   4.913   3.830
 4831TIP3    H114499   0.858   4.842   3.795
 4831TIP3    H214500   0.838   4.927   3.918
 4832TIP3   OH214501   0.857   4.964   4.097
 4832TIP3    H114502   0.772   4.969   4.140
 4832TIP3    H214503   0.917   4.932   4.164
 4833TIP3   OH214504   5.958   1.167   0.075
 4833TIP3    H114505   5.876   1.175   0.026
 4833TIP3    H214506   5.979   1.073   0.073
 4834TIP3   OH214507   0.644   3.462   5.190
 4834TIP3    H114508   0.558   3.423   5.172
 4834TIP3    H214509   0.623   3.546   5.233
 4835TIP3   OH214510   5.492   0.510   0.083
 4835TIP3    H114511   5.564   0.487   0.142
 4835TIP3    H214512   5.413   0.490   0.134
 4836TIP3   OH214513   5.715   0.936   0.001
 4836TIP3    H114514   5.671   0.932   0.086
 4836TIP3    H214515   5.699   1.025  -0.031
 4837TIP3   OH214516   1.051   4.091   3.849
 4837TIP3    H114517   1.015   4.084   3.761
 4837TIP3    H214518   1.134   4.138   3.837
 4838TIP3   OH214519   0.767   3.502   4.163
 4838TIP3    H114520   0.738   3.502   4.254
 4838TIP3    H214521   0.737   3.417   4.129
 4839TIP3   OH214522   0.564   3.980   5.219
 4839TIP3    H114523   0.563   4.017   5.307
 4839TIP3    H214524   0.556   4.056   5.161
 4840TIP3   OH214525   0.436   3.864   4.727
 4840TIP3    H114526   0.353   3.833   4.763
 4840TIP3    H214527   0.454   3.804   4.655
 4841TIP3   OH214528   0.926   3.939   4.457
 4841TIP3    H114529   0.877   4.009   4.415
 4841TIP3    H214530   0.985   3.906   4.388
 4842TIP3   OH214531   5.445   1.137   0.209
 4842TIP3    H114532   5.415   1.075   0.275
 4842TIP3    H214533   5.540   1.141   0.222
 4843TIP3   OH214534   1.082   3.957   4.686
 4843TIP3    H114535   1.017   3.983   4.621
 4843TIP3    H214536   1.128   3.884   4.646
 4844TIP3   OH214537   0.449   3.482   4.132
 4844TIP3    H114538   0.446   3.474   4.228
 4844TIP3    H214539   0.358   3.478   4.105
 4845TIP3   OH214540   1.109   4.208   5.109
 4845TIP3    H114541   1.138   4.144   5.045
 4845TIP3    H214542   1.071   4.156   5.180
 4846TIP3   OH214543   0.805   3.662   4.784
 4846TIP3    H114544   0.727   3.669   4.839
 4846TIP3    H214545   0.878   3.652   4.845
 4847TIP3   OH214546   0.488   3.721   4.489
 4847TIP3    H114547   0.581   3.728   4.512
 4847TIP3    H214548   0.485   3.738   4.395
 4848TIP3   OH214549   1.256   3.750   4.990
 4848TIP3    H114550   1.232   3.768   5.081
 4848TIP3    H214551   1.189   3.689   4.959
 4849TIP3   OH214552   0.301   3.742   4.212
 4849TIP3    H114553   0.222   3.747   4.158
 4849TIP3    H214554   0.369   3.711   4.152
 4850TIP3   OH214555   1.434   5.445   5.196
 4850TIP3    H114556   1.432   5.467   5.103
 4850TIP3    H214557   1.513   5.487   5.230
 4851TIP3   OH214558   0.856   4.018   4.883
 4851TIP3    H114559   0.925   3.972   4.836
 4851TIP3    H214560   0.853   3.976   4.969
 4852TIP3   OH214561   0.428   3.494   4.753
 4852TIP3    H114562   0.400   3.429   4.817
 4852TIP3    H214563   0.430   3.446   4.670
 4853TIP3   OH214564   0.828   3.919   5.148
 4853TIP3    H114565   0.739   3.945   5.172
 4853TIP3    H214566   0.885   3.971   5.205
 4854TIP3   OH214567   0.595   4.317   4.283
 4854TIP3    H114568   0.507   4.278   4.282
 4854TIP3    H214569   0.597   4.370   4.363
 4855TIP3   OH214570   1.444   4.556   4.852
 4855TIP3    H114571   1.454   4.607   4.772
 4855TIP3    H214572   1.364   4.504   4.838
 4856TIP3   OH214573   1.019   3.604   4.154
 4856TIP3    H114574   0.925   3.584   4.155
 4856TIP3    H214575   1.023   3.698   4.173
 4857TIP3   OH214576   0.959   4.619   5.276
 4857TIP3    H114577   0.978   4.602   5.368
 4857TIP3    H214578   0.925   4.708   5.274
 4858TIP3   OH214579   1.081   3.863   4.235
 4858TIP3    H114580   1.176   3.864   4.247
 4858TIP3    H214581   1.062   3.943   4.187
 4859TIP3   OH214582   0.709   4.465   4.085
 4859TIP3    H114583   0.659   4.546   4.093
 4859TIP3    H214584   0.673   4.407   4.152
 4860TIP3   OH214585   5.221   1.300   0.229
 4860TIP3    H114586   5.171   1.281   0.150
 4860TIP3    H214587   5.303   1.252   0.217
 4861TIP3   OH214588   1.121   4.881   5.139
 4861TIP3    H114589   1.028   4.860   5.131
 4861TIP3    H214590   1.127   4.928   5.222
 4862TIP3   OH214591   1.501   3.956   4.065
 4862TIP3    H114592   1.443   3.909   4.004
 4862TIP3    H214593   1.507   4.044   4.029
 4863TIP3   OH214594   1.766   4.838   5.125
 4863TIP3    H114595   1.674   4.817   5.135
 4863TIP3    H214596   1.790   4.801   5.040
 4864TIP3   OH214597   1.220   4.774   3.980
 4864TIP3    H114598   1.205   4.706   4.045
 4864TIP3    H214599   1.241   4.726   3.900
 4865TIP3   OH214600   1.216   4.400   4.792
 4865TIP3    H114601   1.125   4.378   4.809
 4865TIP3    H214602   1.253   4.322   4.751
 4866TIP3   OH214603   0.494   4.441   4.502
 4866TIP3    H114604   0.492   4.528   4.542
 4866TIP3    H214605   0.468   4.382   4.573
 4867TIP3   OH214606   0.706   4.929   5.028
 4867TIP3    H114607   0.729   4.993   4.962
 4867TIP3    H214608   0.622   4.960   5.063
 4868TIP3   OH214609   1.013   4.619   5.006
 4868TIP3    H114610   0.999   4.610   5.100
 4868TIP3    H214611   1.094   4.571   4.989
 4869TIP3   OH214612   0.996   4.503   3.886
 4869TIP3    H114613   1.046   4.483   3.965
 4869TIP3    H214614   0.908   4.470   3.904
 4870TIP3   OH214615   1.254   5.138   5.047
 4870TIP3    H114616   1.178   5.081   5.038
 4870TIP3    H214617   1.249   5.198   4.972
 4871TIP3   OH214618   1.318   4.969   3.689
 4871TIP3    H114619   1.360   5.041   3.641
 4871TIP3    H214620   1.240   5.009   3.728
 4872TIP3   OH214621   1.162   4.436   4.099
 4872TIP3    H114622   1.151   4.367   4.164
 4872TIP3    H214623   1.256   4.437   4.080
 4873TIP3   OH214624   0.376   4.471   3.855
 4873TIP3    H114625   0.417   4.387   3.837
 4873TIP3    H214626   0.370   4.475   3.950
 4874TIP3   OH214627   0.354   4.461   4.125
 4874TIP3    H114628   0.439   4.487   4.160
 4874TIP3    H214629   0.291   4.489   4.192
 4875TIP3   OH214630   1.184   3.811   5.250
 4875TIP3    H114631   1.262   3.855   5.283
 4875TIP3    H214632   1.175   3.733   5.304
 4876TIP3   OH214633   1.072   3.553   4.428
 4876TIP3    H114634   1.056   3.572   4.335
 4876TIP3    H214635   1.116   3.632   4.461
 4877TIP3   OH214636   0.551   4.687   4.124
 4877TIP3    H114637   0.578   4.738   4.201
 4877TIP3    H214638   0.549   4.751   4.053
 4878TIP3   OH214639   0.753   3.743   4.531
 4878TIP3    H114640   0.812   3.814   4.504
 4878TIP3    H214641   0.776   3.726   4.622
 4879TIP3   OH214642   5.353   0.977   0.000
 4879TIP3    H114643   5.383   1.023   0.079
 4879TIP3    H214644   5.406   0.897  -0.002
 4880TIP3   OH214645   0.897   3.449   4.617
 4880TIP3    H114646   0.877   3.525   4.671
 4880TIP3    H214647   0.963   3.479   4.555
 4881TIP3   OH214648   0.430   3.452   4.417
 4881TIP3    H114649   0.414   3.537   4.458
 4881TIP3    H214650   0.525   3.441   4.421
 4882TIP3   OH214651   1.649   3.957   5.307
 4882TIP3    H114652   1.554   3.959   5.314
 4882TIP3    H214653   1.666   3.914   5.223
 4883TIP3   OH214654   1.306   4.149   4.689
 4883TIP3    H114655   1.231   4.090   4.700
 4883TIP3    H214656   1.377   4.107   4.738
 4884TIP3   OH214657   1.286   5.113   4.627
 4884TIP3    H114658   1.240   5.160   4.557
 4884TIP3    H214659   1.378   5.136   4.614
 4885TIP3   OH214660   0.390   3.374   5.178
 4885TIP3    H114661   0.354   3.355   5.092
 4885TIP3    H214662   0.361   3.301   5.233
 4886TIP3   OH214663   0.520   4.685   3.787
 4886TIP3    H114664   0.464   4.611   3.811
 4886TIP3    H214665   0.596   4.644   3.746
 4887TIP3   OH214666   5.447   1.922   0.087
 4887TIP3    H114667   5.483   1.846   0.133
 4887TIP3    H214668   5.512   1.990   0.099
 4888TIP3   OH214669   0.948   4.712   3.709
 4888TIP3    H114670   0.984   4.649   3.771
 4888TIP3    H214671   1.008   4.709   3.634
 4889TIP3   OH214672   5.184   1.576   0.250
 4889TIP3    H114673   5.104   1.586   0.198
 4889TIP3    H214674   5.196   1.481   0.257
 4890TIP3   OH214675   0.720   4.392   3.823
 4890TIP3    H114676   0.705   4.410   3.915
 4890TIP3    H214677   0.703   4.298   3.814
 4891TIP3   OH214678   1.285   4.666   5.191
 4891TIP3    H114679   1.363   4.694   5.144
 4891TIP3    H214680   1.219   4.732   5.169
 4892TIP3   OH214681   0.342   4.208   4.275
 4892TIP3    H114682   0.380   4.124   4.298
 4892TIP3    H214683   0.353   4.214   4.180
 4893TIP3   OH214684   4.954   1.075   0.133
 4893TIP3    H114685   4.915   1.138   0.194
 4893TIP3    H214686   5.009   1.129   0.076
 4894TIP3   OH214687   0.517   3.855   4.018
 4894TIP3    H114688   0.502   3.874   3.926
 4894TIP3    H214689   0.610   3.871   4.031
 4895TIP3   OH214690   5.507   1.469   0.246
 4895TIP3    H114691   5.568   1.448   0.175
 4895TIP3    H214692   5.509   1.393   0.304
 4896TIP3   OH214693   1.274   4.214   3.744
 4896TIP3    H114694   1.263   4.172   3.659
 4896TIP3    H214695   1.249   4.305   3.729
 4897TIP3   OH214696   5.101   0.883   0.262
 4897TIP3    H114697   5.110   0.805   0.207
 4897TIP3    H214698   5.053   0.945   0.209
 4898TIP3   OH214699   5.115   0.680   0.068
 4898TIP3    H114700   5.146   0.716  -0.015
 4898TIP3    H214701   5.023   0.659   0.052
 4899TIP3   OH214702   0.784   4.303   5.293
 4899TIP3    H114703   0.864   4.291   5.242
 4899TIP3    H214704   0.730   4.361   5.239
 4900TIP3   OH214705   5.732   1.141   0.294
 4900TIP3    H114706   5.776   1.061   0.323
 4900TIP3    H214707   5.803   1.202   0.274
 4901TIP3   OH214708   5.732   1.434   0.057
 4901TIP3    H114709   5.681   1.494   0.002
 4901TIP3    H214710   5.822   1.445   0.029
 4902TIP3   OH214711   5.003   1.003   0.493
 4902TIP3    H114712   4.917   0.964   0.513
 4902TIP3    H214713   5.031   0.960   0.413
 4903TIP3   OH214714   5.231   0.450   0.173
 4903TIP3    H114715   5.190   0.528   0.137
 4903TIP3    H214716   5.169   0.379   0.152
 4904TIP3   OH214717   5.352   0.936   0.369
 4904TIP3    H114718   5.345   0.923   0.464
 4904TIP3    H214719   5.266   0.913   0.335
 4905TIP3   OH214720   5.588   0.876   0.231
 4905TIP3    H114721   5.513   0.882   0.290
 4905TIP3    H214722   5.662   0.859   0.289
 4906TIP3   OH214723   5.826   0.846   0.376
 4906TIP3    H114724   5.840   0.752   0.385
 4906TIP3    H214725   5.819   0.878   0.467
 4907TIP3   OH214726   5.290   0.420   0.437
 4907TIP3    H114727   5.373   0.377   0.420
 4907TIP3    H214728   5.253   0.437   0.351
 4908TIP3   OH214729   5.388   0.655   0.557
 4908TIP3    H114730   5.355   0.582   0.505
 4908TIP3    H214731   5.315   0.715   0.563
 4909TIP3   OH214732   1.530   5.231   4.598
 4909TIP3    H114733   1.577   5.238   4.682
 4909TIP3    H214734   1.600   5.225   4.532
 4910TIP3   OH214735   1.563   5.214   4.888
 4910TIP3    H114736   1.521   5.128   4.880
 4910TIP3    H214737   1.649   5.196   4.926
 4911TIP3   OH214738   5.966   1.850   0.119
 4911TIP3    H114739   5.906   1.832   0.190
 4911TIP3    H214740   6.011   1.931   0.144
 4912TIP3   OH214741   1.438   4.417   4.071
 4912TIP3    H114742   1.499   4.485   4.042
 4912TIP3    H214743   1.481   4.378   4.148
 4913TIP3   OH214744   1.560   4.272   4.274
 4913TIP3    H114745   1.493   4.235   4.332
 4913TIP3    H214746   1.625   4.310   4.332
 4914TIP3   OH214747   1.436   4.963   4.917
 4914TIP3    H114748   1.362   5.007   4.958
 4914TIP3    H214749   1.399   4.920   4.840
 4915TIP3   OH214750   1.485   4.192   3.919
 4915TIP3    H114751   1.412   4.192   3.858
 4915TIP3    H214752   1.471   4.269   3.974
 4916TIP3   OH214753   1.339   3.846   3.872
 4916TIP3    H114754   1.302   3.884   3.792
 4916TIP3    H214755   1.333   3.751   3.859
 4917TIP3   OH214756   1.364   4.137   4.419
 4917TIP3    H114757   1.378   4.042   4.411
 4917TIP3    H214758   1.349   4.151   4.512
 4918TIP3   OH214759   1.652   4.554   5.269
 4918TIP3    H114760   1.724   4.494   5.251
 4918TIP3    H214761   1.641   4.604   5.188
 4919TIP3   OH214762   1.846   4.354   5.275
 4919TIP3    H114763   1.768   4.314   5.313
 4919TIP3    H214764   1.917   4.292   5.294
 4920TIP3   OH214765   1.304   3.575   3.832
 4920TIP3    H114766   1.374   3.548   3.891
 4920TIP3    H214767   1.227   3.528   3.863
 4921TIP3   OH214768   1.365   3.856   4.297
 4921TIP3    H114769   1.410   3.773   4.311
 4921TIP3    H214770   1.413   3.898   4.226
 4922TIP3   OH214771   1.526   4.025   4.814
 4922TIP3    H114772   1.604   4.048   4.765
 4922TIP3    H214773   1.541   4.061   4.902
 4923TIP3   OH214774   1.596   4.172   5.047
 4923TIP3    H114775   1.518   4.198   5.097
 4923TIP3    H214776   1.624   4.252   5.003
 4924TIP3   OH214777   6.386   0.703   0.278
 4924TIP3    H114778   6.449   0.646   0.233
 4924TIP3    H214779   6.349   0.757   0.208
 4925TIP3   OH214780   1.478   3.607   4.351
 4925TIP3    H114781   1.523   3.591   4.433
 4925TIP3    H214782   1.417   3.534   4.342
 4926TIP3   OH214783   6.238   0.827   0.084
 4926TIP3    H114784   6.151   0.867   0.091
 4926TIP3    H214785   6.224   0.749   0.029
 4927TIP3   OH214786   1.534   3.525   3.983
 4927TIP3    H114787   1.580   3.461   3.929
 4927TIP3    H214788   1.594   3.600   3.989
 4928TIP3   OH214789   1.108   5.081   4.251
 4928TIP3    H114790   1.163   5.070   4.174
 4928TIP3    H214791   1.158   5.141   4.307
 4929TIP3   OH214792   0.846   5.151   5.272
 4929TIP3    H114793   0.853   5.173   5.365
 4929TIP3    H214794   0.912   5.205   5.229
 4930TIP3   OH214795   1.036   5.314   5.164
 4930TIP3    H114796   1.107   5.268   5.120
 4930TIP3    H214797   1.080   5.372   5.226
 4931TIP3   OH214798   1.811   3.649   5.280
 4931TIP3    H114799   1.726   3.645   5.237
 4931TIP3    H214800   1.848   3.561   5.270
 4932TIP3   OH214801   0.745   5.161   4.872
 4932TIP3    H114802   0.679   5.177   4.805
 4932TIP3    H214803   0.757   5.245   4.916
 4933TIP3   OH214804   1.010   5.099   4.919
 4933TIP3    H114805   0.917   5.120   4.905
 4933TIP3    H214806   1.057   5.167   4.871
 4934TIP3   OH214807   1.199   5.287   4.821
 4934TIP3    H114808   1.192   5.373   4.780
 4934TIP3    H214809   1.233   5.230   4.752
 4935TIP3   OH214810   1.030   3.568   4.916
 4935TIP3    H114811   0.987   3.494   4.959
 4935TIP3    H214812   1.097   3.529   4.861
 4936TIP3   OH214813   1.526   3.468   4.808
 4936TIP3    H114814   1.566   3.516   4.735
 4936TIP3    H214815   1.434   3.492   4.805
 4937TIP3   OH214816   1.635   3.552   4.572
 4937TIP3    H114817   1.704   3.492   4.541
 4937TIP3    H214818   1.673   3.639   4.560
 4938TIP3   OH214819   0.326   3.290   4.920
 4938TIP3    H114820   0.262   3.287   4.849
 4938TIP3    H214821   0.371   3.206   4.915
 4939TIP3   OH214822   0.729   3.311   4.801
 4939TIP3    H114823   0.780   3.356   4.734
 4939TIP3    H214824   0.767   3.340   4.884
 4940TIP3   OH214825   1.242   3.454   4.781
 4940TIP3    H114826   1.258   3.418   4.694
 4940TIP3    H214827   1.243   3.378   4.839
 4941TIP3   OH214828   1.292   3.397   4.348
 4941TIP3    H114829   1.212   3.443   4.372
 4941TIP3    H214830   1.283   3.310   4.387
 4942TIP3   OH214831   0.284   3.230   4.339
 4942TIP3    H114832   0.264   3.257   4.250
 4942TIP3    H214833   0.338   3.301   4.374
 4943TIP3   OH214834   0.698   3.496   4.427
 4943TIP3    H114835   0.753   3.441   4.483
 4943TIP3    H214836   0.718   3.585   4.455
 4944TIP3   OH214837   0.547   4.908   3.938
 4944TIP3    H114838   0.630   4.934   3.899
 4944TIP3    H214839   0.511   4.842   3.879
 4945TIP3   OH214840   1.259   5.041   4.021
 4945TIP3    H114841   1.253   4.946   4.013
 4945TIP3    H214842   1.218   5.075   3.942
 4946TIP3   OH214843   4.825   0.436   0.507
 4946TIP3    H114844   4.825   0.350   0.548
 4946TIP3    H214845   4.905   0.478   0.538
 4947TIP3   OH214846   5.075   0.501   0.604
 4947TIP3    H114847   5.145   0.477   0.543
 4947TIP3    H214848   5.110   0.481   0.691
 4948TIP3   OH214849   5.897   0.579   0.397
 4948TIP3    H114850   5.916   0.551   0.486
 4948TIP3    H214851   5.981   0.573   0.351
 4949TIP3   OH214852   1.487   5.177   5.196
 4949TIP3    H114853   1.414   5.138   5.148
 4949TIP3    H214854   1.468   5.271   5.196
 4950TIP3   OH214855   2.757   4.562   3.958
 4950TIP3    H114856   2.724   4.648   3.932
 4950TIP3    H214857   2.688   4.501   3.932
 4951TIP3   OH214858   2.753   4.555   4.377
 4951TIP3    H114859   2.801   4.534   4.457
 4951TIP3    H214860   2.712   4.473   4.351
 4952TIP3   OH214861   2.067   4.431   4.730
 4952TIP3    H114862   2.096   4.362   4.790
 4952TIP3    H214863   2.141   4.445   4.672
 4953TIP3   OH214864   3.015   4.862   4.049
 4953TIP3    H114865   3.001   4.795   4.115
 4953TIP3    H214866   3.039   4.940   4.099
 4954TIP3   OH214867   2.075   4.868   4.473
 4954TIP3    H114868   2.040   4.780   4.456
 4954TIP3    H214869   2.156   4.871   4.421
 4955TIP3   OH214870   1.730   4.050   4.207
 4955TIP3    H114871   1.691   4.134   4.234
 4955TIP3    H214872   1.659   4.003   4.164
 4956TIP3   OH214873   1.785   4.346   4.416
 4956TIP3    H114874   1.844   4.277   4.445
 4956TIP3    H214875   1.843   4.413   4.378
 4957TIP3   OH214876   2.670   5.304   4.059
 4957TIP3    H114877   2.701   5.238   3.998
 4957TIP3    H214878   2.653   5.256   4.140
 4958TIP3   OH214879   2.556   4.775   4.390
 4958TIP3    H114880   2.598   4.695   4.358
 4958TIP3    H214881   2.629   4.831   4.416
 4959TIP3   OH214882   3.581   4.095   4.390
 4959TIP3    H114883   3.604   4.179   4.430
 4959TIP3    H214884   3.610   4.103   4.299
 4960TIP3   OH214885   2.970   4.269   4.421
 4960TIP3    H114886   3.014   4.187   4.446
 4960TIP3    H214887   2.932   4.251   4.336
 4961TIP3   OH214888   2.319   3.931   4.384
 4961TIP3    H114889   2.300   4.002   4.324
 4961TIP3    H214890   2.268   3.857   4.351
 4962TIP3   OH214891   3.014   4.030   4.009
 4962TIP3    H114892   3.079   4.021   4.079
 4962TIP3    H214893   3.063   4.060   3.933
 4963TIP3   OH214894   1.948   4.138   4.504
 4963TIP3    H114895   2.030   4.117   4.550
 4963TIP3    H214896   1.954   4.088   4.423
 4964TIP3   OH214897   2.370   4.335   4.322
 4964TIP3    H114898   2.464   4.318   4.328
 4964TIP3    H214899   2.334   4.255   4.285
 4965TIP3   OH214900   3.644   4.311   4.562
 4965TIP3    H114901   3.559   4.352   4.546
 4965TIP3    H214902   3.646   4.297   4.657
 4966TIP3   OH214903   2.305   3.924   4.833
 4966TIP3    H114904   2.252   3.956   4.760
 4966TIP3    H214905   2.250   3.936   4.910
 4967TIP3   OH214906   2.641   4.774   3.825
 4967TIP3    H114907   2.603   4.753   3.740
 4967TIP3    H214908   2.593   4.851   3.855
 4968TIP3   OH214909   2.406   4.701   4.610
 4968TIP3    H114910   2.353   4.772   4.645
 4968TIP3    H214911   2.451   4.739   4.534
 4969TIP3   OH214912   3.188   4.048   4.215
 4969TIP3    H114913   3.171   4.004   4.299
 4969TIP3    H214914   3.243   4.122   4.238
 4970TIP3   OH214915   2.187   4.030   4.606
 4970TIP3    H114916   2.244   4.103   4.630
 4970TIP3    H214917   2.232   3.987   4.533
 4971TIP3   OH214918   2.227   4.901   4.713
 4971TIP3    H114919   2.210   4.993   4.694
 4971TIP3    H214920   2.159   4.854   4.665
 4972TIP3   OH214921   1.619   4.598   3.956
 4972TIP3    H114922   1.585   4.627   3.872
 4972TIP3    H214923   1.650   4.679   3.999
 4973TIP3   OH214924   3.063   5.110   4.193
 4973TIP3    H114925   2.976   5.100   4.233
 4973TIP3    H214926   3.059   5.193   4.147
 4974TIP3   OH214927   3.376   4.004   4.566
 4974TIP3    H114928   3.289   4.021   4.530
 4974TIP3    H214929   3.436   4.025   4.494
 4975TIP3   OH214930   2.643   3.621   4.549
 4975TIP3    H114931   2.638   3.529   4.574
 4975TIP3    H214932   2.568   3.662   4.592
 4976TIP3   OH214933   2.763   5.145   3.850
 4976TIP3    H114934   2.813   5.063   3.839
 4976TIP3    H214935   2.822   5.213   3.819
 4977TIP3   OH214936   2.913   4.923   3.799
 4977TIP3    H114937   2.870   4.844   3.767
 4977TIP3    H214938   2.955   4.897   3.880
 4978TIP3   OH214939   3.293   5.003   4.537
 4978TIP3    H114940   3.276   4.927   4.481
 4978TIP3    H214941   3.277   5.079   4.481
 4979TIP3   OH214942   2.585   4.402   3.807
 4979TIP3    H114943   2.504   4.450   3.789
 4979TIP3    H214944   2.629   4.397   3.723
 4980TIP3   OH214945   2.549   4.202   3.502
 4980TIP3    H114946   2.617   4.246   3.553
 4980TIP3    H214947   2.595   4.132   3.456
 4981TIP3   OH214948   3.477   4.661   4.398
 4981TIP3    H114949   3.392   4.705   4.397
 4981TIP3    H214950   3.513   4.674   4.310
 4982TIP3   OH214951   2.938   4.490   3.767
 4982TIP3    H114952   2.884   4.519   3.840
 4982TIP3    H214953   3.020   4.461   3.807
 4983TIP3   OH214954   3.167   4.524   4.706
 4983TIP3    H114955   3.164   4.605   4.756
 4983TIP3    H214956   3.083   4.522   4.659
 4984TIP3   OH214957   2.168   4.475   4.183
 4984TIP3    H114958   2.128   4.417   4.117
 4984TIP3    H214959   2.240   4.424   4.220
 4985TIP3   OH214960   2.304   4.895   4.313
 4985TIP3    H114961   2.278   4.875   4.223
 4985TIP3    H214962   2.389   4.853   4.324
 4986TIP3   OH214963   2.281   4.460   4.553
 4986TIP3    H114964   2.316   4.426   4.470
 4986TIP3    H214965   2.330   4.541   4.568
 4987TIP3   OH214966   2.828   5.099   4.327
 4987TIP3    H114967   2.812   5.176   4.382
 4987TIP3    H214968   2.813   5.025   4.386
 4988TIP3   OH214969   2.434   5.006   4.866
 4988TIP3    H114970   2.378   5.071   4.909
 4988TIP3    H214971   2.374   4.953   4.814
 4989TIP3   OH214972   2.774   4.341   3.604
 4989TIP3    H114973   2.832   4.399   3.653
 4989TIP3    H214974   2.800   4.353   3.512
 4990TIP3   OH214975   2.193   4.553   4.997
 4990TIP3    H114976   2.164   4.567   5.087
 4990TIP3    H214977   2.112   4.536   4.948
 4991TIP3   OH214978   2.517   5.020   3.870
 4991TIP3    H114979   2.599   5.069   3.869
 4991TIP3    H214980   2.457   5.073   3.817
 4992TIP3   OH214981   2.229   5.168   4.961
 4992TIP3    H114982   2.212   5.184   4.868
 4992TIP3    H214983   2.143   5.158   5.000
 4993TIP3   OH214984   3.284   3.576   3.662
 4993TIP3    H114985   3.206   3.594   3.715
 4993TIP3    H214986   3.268   3.622   3.580
 4994TIP3   OH214987   2.039   4.322   3.979
 4994TIP3    H114988   1.963   4.365   3.942
 4994TIP3    H214989   2.011   4.232   3.996
 4995TIP3   OH214990   3.101   4.951   3.210
 4995TIP3    H114991   3.101   5.044   3.188
 4995TIP3    H214992   3.191   4.923   3.190
 4996TIP3   OH214993   1.829   4.714   4.892
 4996TIP3    H114994   1.797   4.699   4.803
 4996TIP3    H214995   1.868   4.630   4.917
 4997TIP3   OH214996   3.525   5.364   4.602
 4997TIP3    H114997   3.532   5.269   4.613
 4997TIP3    H214998   3.446   5.388   4.649
 4998TIP3   OH214999   2.633   5.140   4.729
 4998TIP3    H115000   2.626   5.231   4.757
 4998TIP3    H215001   2.564   5.094   4.777
 4999TIP3   OH215002   2.409   5.257   3.680
 4999TIP3    H115003   2.359   5.235   3.602
 4999TIP3    H215004   2.371   5.340   3.710
 5000TIP3   OH215005   1.845   5.100   4.070
 5000TIP3    H115006   1.883   5.092   4.157
 5000TIP3    H215007   1.793   5.020   4.060
 5001TIP3   OH215008   2.608   5.174   3.311
 5001TIP3    H115009   2.658   5.101   3.276
 5001TIP3    H215010   2.642   5.186   3.400
 5002TIP3   OH215011   2.662   5.221   3.581
 5002TIP3    H115012   2.575   5.228   3.620
 5002TIP3    H215013   2.716   5.182   3.649
 5003TIP3   OH215014   3.418   4.478   4.867
 5003TIP3    H115015   3.334   4.485   4.821
 5003TIP3    H215016   3.437   4.385   4.869
 5004TIP3   OH215017   2.410   3.711   4.683
 5004TIP3    H115018   2.325   3.678   4.653
 5004TIP3    H215019   2.388   3.789   4.734
 5005TIP3   OH215020   2.951   3.831   4.879
 5005TIP3    H115021   3.023   3.803   4.936
 5005TIP3    H215022   2.872   3.810   4.929
 5006TIP3   OH215023   3.179   4.262   4.798
 5006TIP3    H115024   3.135   4.258   4.883
 5006TIP3    H215025   3.158   4.349   4.765
 5007TIP3   OH215026   2.851   4.359   3.344
 5007TIP3    H115027   2.807   4.349   3.259
 5007TIP3    H215028   2.934   4.403   3.323
 5008TIP3   OH215029   2.579   3.788   3.676
 5008TIP3    H115030   2.541   3.771   3.762
 5008TIP3    H215031   2.518   3.746   3.615
 5009TIP3   OH215032   2.353   4.233   4.694
 5009TIP3    H115033   2.306   4.241   4.777
 5009TIP3    H215034   2.334   4.315   4.647
 5010TIP3   OH215035   2.230   4.123   4.210
 5010TIP3    H115036   2.141   4.098   4.235
 5010TIP3    H215037   2.241   4.087   4.122
 5011TIP3   OH215038   2.711   4.198   3.943
 5011TIP3    H115039   2.664   4.269   3.900
 5011TIP3    H215040   2.769   4.162   3.876
 5012TIP3   OH215041   2.898   4.471   5.022
 5012TIP3    H115042   2.869   4.400   5.079
 5012TIP3    H215043   2.991   4.482   5.041
 5013TIP3   OH215044   2.876   4.216   4.169
 5013TIP3    H115045   2.808   4.237   4.105
 5013TIP3    H215046   2.923   4.143   4.130
 5014TIP3   OH215047   2.181   4.246   4.909
 5014TIP3    H115048   2.227   4.298   4.974
 5014TIP3    H215049   2.158   4.164   4.954
 5015TIP3   OH215050   2.244   3.765   3.638
 5015TIP3    H115051   2.229   3.739   3.729
 5015TIP3    H215052   2.158   3.792   3.606
 5016TIP3   OH215053   1.766   3.775   4.498
 5016TIP3    H115054   1.839   3.811   4.549
 5016TIP3    H215055   1.806   3.753   4.413
 5017TIP3   OH215056   1.690   3.757   4.006
 5017TIP3    H115057   1.737   3.792   3.930
 5017TIP3    H215058   1.629   3.826   4.031
 5018TIP3   OH215059   2.905   4.466   4.596
 5018TIP3    H115060   2.934   4.400   4.532
 5018TIP3    H215061   2.867   4.415   4.667
 5019TIP3   OH215062   2.587   3.930   4.270
 5019TIP3    H115063   2.510   3.926   4.327
 5019TIP3    H215064   2.661   3.911   4.327
 5020TIP3   OH215065   1.993   3.998   4.273
 5020TIP3    H115066   1.904   4.001   4.239
 5020TIP3    H215067   2.022   3.908   4.256
 5021TIP3   OH215068   2.240   3.995   3.967
 5021TIP3    H115069   2.334   4.007   3.954
 5021TIP3    H215070   2.200   4.016   3.883
 5022TIP3   OH215071   3.057   4.010   4.484
 5022TIP3    H115072   3.029   4.027   4.574
 5022TIP3    H215073   2.994   3.948   4.450
 5023TIP3   OH215074   2.113   4.038   3.728
 5023TIP3    H115075   2.054   3.982   3.677
 5023TIP3    H215076   2.172   4.076   3.663
 5024TIP3   OH215077   3.233   5.707   4.698
 5024TIP3    H115078   3.228   5.727   4.605
 5024TIP3    H215079   3.312   5.752   4.729
 5025TIP3   OH215080   2.642   4.281   4.373
 5025TIP3    H115081   2.705   4.229   4.322
 5025TIP3    H215082   2.641   4.239   4.459
 5026TIP3   OH215083   2.140   3.751   4.263
 5026TIP3    H115084   2.109   3.676   4.314
 5026TIP3    H215085   2.177   3.712   4.183
 5027TIP3   OH215086   2.619   4.181   4.638
 5027TIP3    H115087   2.530   4.207   4.663
 5027TIP3    H215088   2.676   4.233   4.696
 5028TIP3   OH215089   2.349   4.546   3.752
 5028TIP3    H115090   2.276   4.488   3.731
 5028TIP3    H215091   2.326   4.584   3.837
 5029TIP3   OH215092   3.239   4.796   4.362
 5029TIP3    H115093   3.271   4.843   4.285
 5029TIP3    H215094   3.158   4.753   4.332
 5030TIP3   OH215095   2.799   3.904   3.556
 5030TIP3    H115096   2.726   3.857   3.596
 5030TIP3    H215097   2.826   3.968   3.622
 5031TIP3   OH215098   2.754   4.874   4.759
 5031TIP3    H115099   2.812   4.864   4.835
 5031TIP3    H215100   2.721   4.963   4.765
 5032TIP3   OH215101   2.877   4.110   3.728
 5032TIP3    H115102   2.972   4.117   3.740
 5032TIP3    H215103   2.853   4.188   3.679
 5033TIP3   OH215104   2.065   4.593   4.413
 5033TIP3    H115105   2.090   4.563   4.325
 5033TIP3    H215106   2.118   4.540   4.472
 5034TIP3   OH215107   2.499   4.706   3.588
 5034TIP3    H115108   2.452   4.789   3.589
 5034TIP3    H215109   2.446   4.647   3.642
 5035TIP3   OH215110   1.911   4.484   5.037
 5035TIP3    H115111   1.914   4.444   5.124
 5035TIP3    H215112   1.833   4.445   4.996
 5036TIP3   OH215113   2.666   4.622   5.054
 5036TIP3    H115114   2.604   4.568   5.004
 5036TIP3    H215115   2.752   4.585   5.032
 5037TIP3   OH215116   2.904   5.157   4.652
 5037TIP3    H115117   2.809   5.145   4.659
 5037TIP3    H215118   2.929   5.201   4.733
 5038TIP3   OH215119   3.306   4.211   3.542
 5038TIP3    H115120   3.254   4.162   3.479
 5038TIP3    H215121   3.303   4.301   3.510
 5039TIP3   OH215122   3.541   5.083   4.625
 5039TIP3    H115123   3.447   5.069   4.626
 5039TIP3    H215124   3.570   5.046   4.541
 5040TIP3   OH215125   3.033   5.028   3.475
 5040TIP3    H115126   3.000   4.960   3.534
 5040TIP3    H215127   3.045   4.983   3.391
 5041TIP3   OH215128   3.008   4.659   4.265
 5041TIP3    H115129   2.918   4.635   4.287
 5041TIP3    H215130   3.046   4.579   4.228
 5042TIP3   OH215131   2.152   4.892   4.067
 5042TIP3    H115132   2.149   4.969   4.010
 5042TIP3    H215133   2.060   4.874   4.087
 5043TIP3   OH215134   1.712   4.186   3.762
 5043TIP3    H115135   1.760   4.266   3.786
 5043TIP3    H215136   1.636   4.186   3.820
 5044TIP3   OH215137   2.259   4.650   3.985
 5044TIP3    H115138   2.233   4.739   4.010
 5044TIP3    H215139   2.230   4.595   4.058
 5045TIP3   OH215140   2.434   5.216   4.527
 5045TIP3    H115141   2.468   5.290   4.475
 5045TIP3    H215142   2.511   5.179   4.569
 5046TIP3   OH215143   2.071   5.121   3.914
 5046TIP3    H115144   1.987   5.123   3.959
 5046TIP3    H215145   2.103   5.211   3.917
 5047TIP3   OH215146   2.798   4.873   4.488
 5047TIP3    H115147   2.787   4.867   4.583
 5047TIP3    H215148   2.868   4.810   4.468
 5048TIP3   OH215149   2.786   4.762   3.373
 5048TIP3    H115150   2.838   4.739   3.450
 5048TIP3    H215151   2.701   4.722   3.389
 5049TIP3   OH215152   3.052   5.386   4.534
 5049TIP3    H115153   2.978   5.327   4.541
 5049TIP3    H215154   3.029   5.445   4.462
 5050TIP3   OH215155   3.109   5.226   3.173
 5050TIP3    H115156   3.129   5.289   3.104
 5050TIP3    H215157   3.035   5.265   3.221
 5051TIP3   OH215158   2.132   4.000   5.042
 5051TIP3    H115159   2.036   3.999   5.046
 5051TIP3    H215160   2.160   3.941   5.112
 5052TIP3   OH215161   2.957   4.692   3.577
 5052TIP3    H115162   2.942   4.624   3.643
 5052TIP3    H215163   3.052   4.693   3.565
 5053TIP3   OH215164   1.836   5.097   4.668
 5053TIP3    H115165   1.807   5.009   4.643
 5053TIP3    H215166   1.915   5.082   4.719
 5054TIP3   OH215167   2.139   4.727   3.372
 5054TIP3    H115168   2.150   4.636   3.346
 5054TIP3    H215169   2.120   4.724   3.465
 5055TIP3   OH215170   2.083   4.742   3.643
 5055TIP3    H115171   2.153   4.712   3.701
 5055TIP3    H215172   2.084   4.837   3.652
 5056TIP3   OH215173   1.815   4.429   3.853
 5056TIP3    H115174   1.750   4.474   3.907
 5056TIP3    H215175   1.835   4.491   3.782
 5057TIP3   OH215176   2.979   4.070   4.744
 5057TIP3    H115177   3.059   4.109   4.776
 5057TIP3    H215178   2.969   3.989   4.795
 5058TIP3   OH215179   2.861   3.817   3.919
 5058TIP3    H115180   2.824   3.850   3.837
 5058TIP3    H215181   2.911   3.890   3.954
 5059TIP3   OH215182   2.357   4.936   3.592
 5059TIP3    H115183   2.271   4.957   3.627
 5059TIP3    H215184   2.376   5.008   3.531
 5060TIP3   OH215185   2.520   4.010   4.013
 5060TIP3    H115186   2.583   4.076   3.987
 5060TIP3    H215187   2.541   3.991   4.105
 5061TIP3   OH215188   2.819   4.300   4.797
 5061TIP3    H115189   2.849   4.340   4.879
 5061TIP3    H215190   2.870   4.218   4.791
 5062TIP3   OH215191   2.685   3.709   4.103
 5062TIP3    H115192   2.672   3.786   4.159
 5062TIP3    H215193   2.752   3.736   4.041
 5063TIP3   OH215194   2.103   5.015   3.662
 5063TIP3    H115195   2.080   5.085   3.601
 5063TIP3    H215196   2.089   5.052   3.749
 5064TIP3   OH215197   2.196   3.720   3.911
 5064TIP3    H115198   2.184   3.811   3.939
 5064TIP3    H215199   2.291   3.706   3.917
 5065TIP3   OH215200   3.440   4.199   4.770
 5065TIP3    H115201   3.347   4.215   4.787
 5065TIP3    H215202   3.441   4.131   4.704
 5066TIP3   OH215203   3.100   4.405   4.172
 5066TIP3    H115204   3.024   4.348   4.183
 5066TIP3    H215205   3.169   4.362   4.223
 5067TIP3   OH215206   1.833   4.617   3.644
 5067TIP3    H115207   1.904   4.681   3.654
 5067TIP3    H215208   1.868   4.553   3.581
 5068TIP3   OH215209   1.752   3.911   3.789
 5068TIP3    H115210   1.761   4.007   3.787
 5068TIP3    H215211   1.712   3.889   3.705
 5069TIP3   OH215212   3.080   5.380   4.113
 5069TIP3    H115213   3.037   5.428   4.043
 5069TIP3    H215214   3.174   5.393   4.097
 5070TIP3   OH215215   2.143   3.628   4.649
 5070TIP3    H115216   2.116   3.594   4.564
 5070TIP3    H215217   2.136   3.554   4.709
 5071TIP3   OH215218   1.683   4.863   4.041
 5071TIP3    H115219   1.643   4.892   4.123
 5071TIP3    H215220   1.635   4.910   3.973
 5072TIP3   OH215221   1.863   5.392   5.088
 5072TIP3    H115222   1.944   5.391   5.139
 5072TIP3    H215223   1.833   5.301   5.090
 5073TIP3   OH215224   2.340   5.329   5.159
 5073TIP3    H115225   2.432   5.302   5.164
 5073TIP3    H215226   2.306   5.284   5.081
 5074TIP3   OH215227   2.301   4.926   3.269
 5074TIP3    H115228   2.251   4.855   3.310
 5074TIP3    H215229   2.375   4.882   3.227
 5075TIP3   OH215230   2.954   5.273   4.896
 5075TIP3    H115231   2.955   5.200   4.958
 5075TIP3    H215232   3.034   5.322   4.916
 5076TIP3   OH215233   2.739   4.965   3.193
 5076TIP3    H115234   2.770   4.900   3.255
 5076TIP3    H215235   2.798   4.956   3.117
 5077TIP3   OH215236   2.004   4.811   5.272
 5077TIP3    H115237   2.020   4.717   5.278
 5077TIP3    H215238   1.917   4.818   5.232
 5078TIP3   OH215239   1.963   4.426   3.499
 5078TIP3    H115240   2.015   4.402   3.575
 5078TIP3    H215241   2.027   4.437   3.428
 5079TIP3   OH215242   2.586   4.894   5.070
 5079TIP3    H115243   2.549   4.914   4.984
 5079TIP3    H215244   2.628   4.808   5.059
 5080TIP3   OH215245   2.512   4.649   3.319
 5080TIP3    H115246   2.496   4.662   3.413
 5080TIP3    H215247   2.503   4.555   3.306
 5081TIP3   OH215248   3.074   4.934   4.693
 5081TIP3    H115249   3.151   4.961   4.644
 5081TIP3    H215250   3.008   5.001   4.673
 5082TIP3   OH215251   2.155   4.566   5.276
 5082TIP3    H115252   2.216   4.492   5.269
 5082TIP3    H215253   2.157   4.589   5.369
 5083TIP3   OH215254   2.143   4.365   3.707
 5083TIP3    H115255   2.121   4.331   3.794
 5083TIP3    H215256   2.187   4.292   3.663
 5084TIP3   OH215257   2.428   4.420   4.947
 5084TIP3    H115258   2.353   4.479   4.957
 5084TIP3    H215259   2.476   4.456   4.871
 5085TIP3   OH215260   2.272   4.174   3.549
 5085TIP3    H115261   2.245   4.172   3.457
 5085TIP3    H215262   2.368   4.176   3.546
 5086TIP3   OH215263   2.953   4.817   5.060
 5086TIP3    H115264   3.025   4.781   5.010
 5086TIP3    H215265   2.949   4.763   5.140
 5087TIP3   OH215266   3.075   4.474   3.227
 5087TIP3    H115267   3.061   4.430   3.143
 5087TIP3    H215268   3.047   4.564   3.211
 5088TIP3   OH215269   2.552   4.212   5.072
 5088TIP3    H115270   2.559   4.137   5.013
 5088TIP3    H215271   2.513   4.281   5.019
 5089TIP3   OH215272   2.563   4.009   4.875
 5089TIP3    H115273   2.594   4.041   4.790
 5089TIP3    H215274   2.473   3.981   4.859
 5090TIP3   OH215275   2.577   4.541   4.756
 5090TIP3    H115276   2.666   4.555   4.725
 5090TIP3    H215277   2.523   4.601   4.705
 5091TIP3   OH215278   3.161   4.494   5.128
 5091TIP3    H115279   3.196   4.410   5.158
 5091TIP3    H215280   3.238   4.543   5.099
 5092TIP3   OH215281   3.199   4.761   4.862
 5092TIP3    H115282   3.145   4.822   4.810
 5092TIP3    H215283   3.288   4.774   4.829
 5093TIP3   OH215284   2.430   4.312   5.306
 5093TIP3    H115285   2.368   4.243   5.330
 5093TIP3    H215286   2.465   4.284   5.222
 5094TIP3   OH215287   2.689   3.775   4.968
 5094TIP3    H115288   2.645   3.854   4.937
 5094TIP3    H215289   2.626   3.704   4.953
 5095TIP3   OH215290   2.811   4.256   5.167
 5095TIP3    H115291   2.804   4.241   5.262
 5095TIP3    H215292   2.725   4.234   5.132
 5096TIP3   OH215293   3.054   4.212   5.031
 5096TIP3    H115294   2.979   4.208   5.090
 5096TIP3    H215295   3.128   4.182   5.085
 5097TIP3   OH215296   3.291   4.162   5.172
 5097TIP3    H115297   3.305   4.068   5.184
 5097TIP3    H215298   3.285   4.196   5.261
 5098TIP3   OH215299   0.108   1.027   0.073
 5098TIP3    H115300   0.108   0.939   0.036
 5098TIP3    H215301   0.149   1.017   0.159
 5099TIP3   OH215302   2.759   3.759   5.232
 5099TIP3    H115303   2.832   3.697   5.225
 5099TIP3    H215304   2.728   3.769   5.142
 5100TIP3   OH215305   0.679   0.916   0.066
 5100TIP3    H115306   0.654   0.843   0.010
 5100TIP3    H215307   0.604   0.976   0.062
 5101TIP3   OH215308   2.093   5.222   3.477
 5101TIP3    H115309   2.182   5.202   3.450
 5101TIP3    H215310   2.055   5.269   3.403
 5102TIP3   OH215311   1.560   4.609   3.660
 5102TIP3    H115312   1.655   4.623   3.659
 5102TIP3    H215313   1.549   4.521   3.624
 5103TIP3   OH215314   1.469   5.194   4.110
 5103TIP3    H115315   1.403   5.141   4.067
 5103TIP3    H215316   1.515   5.133   4.168
 5104TIP3   OH215317   1.609   5.022   4.275
 5104TIP3    H115318   1.598   4.946   4.333
 5104TIP3    H215319   1.651   5.088   4.330
 5105TIP3   OH215320   3.347   5.442   4.096
 5105TIP3    H115321   3.370   5.472   4.185
 5105TIP3    H215322   3.417   5.478   4.041
 5106TIP3   OH215323   3.374   5.463   4.379
 5106TIP3    H115324   3.322   5.383   4.370
 5106TIP3    H215325   3.437   5.444   4.448
 5107TIP3   OH215326   3.409   5.166   4.948
 5107TIP3    H115327   3.341   5.171   5.015
 5107TIP3    H215328   3.456   5.249   4.956
 5108TIP3   OH215329   3.236   4.674   3.561
 5108TIP3    H115330   3.297   4.741   3.532
 5108TIP3    H215331   3.277   4.635   3.638
 5109TIP3   OH215332   3.354   4.534   3.768
 5109TIP3    H115333   3.287   4.491   3.820
 5109TIP3    H215334   3.419   4.564   3.832
 5110TIP3   OH215335   3.416   4.931   4.192
 5110TIP3    H115336   3.470   4.861   4.153
 5110TIP3    H215337   3.413   4.999   4.124
 5111TIP3   OH215338   3.228   5.226   4.385
 5111TIP3    H115339   3.160   5.267   4.438
 5111TIP3    H215340   3.181   5.182   4.314
 5112TIP3   OH215341   3.281   4.451   3.405
 5112TIP3    H115342   3.211   4.450   3.341
 5112TIP3    H215343   3.263   4.527   3.460
 5113TIP3   OH215344   3.166   4.093   3.336
 5113TIP3    H115345   3.104   4.113   3.266
 5113TIP3    H215346   3.147   4.002   3.359
 5114TIP3   OH215347   3.160   4.390   3.902
 5114TIP3    H115348   3.168   4.295   3.890
 5114TIP3    H215349   3.144   4.401   3.995
 5115TIP3   OH215350   1.795   4.415   4.693
 5115TIP3    H115351   1.770   4.430   4.602
 5115TIP3    H215352   1.890   4.431   4.695
 5116TIP3   OH215353   3.455   4.812   4.764
 5116TIP3    H115354   3.522   4.745   4.753
 5116TIP3    H215355   3.470   4.873   4.691
 5117TIP3   OH215356   3.636   4.606   4.761
 5117TIP3    H115357   3.559   4.561   4.797
 5117TIP3    H215358   3.710   4.549   4.783
 5118TIP3   OH215359   3.083   3.837   3.391
 5118TIP3    H115360   3.105   3.750   3.357
 5118TIP3    H215361   3.002   3.823   3.441
 5119TIP3   OH215362   3.162   4.115   3.781
 5119TIP3    H115363   3.204   4.030   3.798
 5119TIP3    H215364   3.212   4.152   3.709
 5120TIP3   OH215365   3.316   4.279   4.300
 5120TIP3    H115366   3.398   4.297   4.253
 5120TIP3    H215367   3.331   4.315   4.388
 5121TIP3   OH215368   3.390   4.431   4.526
 5121TIP3    H115369   3.317   4.458   4.581
 5121TIP3    H215370   3.420   4.511   4.484
 5122TIP3   OH215371   6.343   1.077   0.021
 5122TIP3    H115372   6.438   1.074   0.033
 5122TIP3    H215373   6.311   0.994   0.055
 5123TIP3   OH215374   3.843   4.036   5.068
 5123TIP3    H115375   3.906   3.972   5.034
 5123TIP3    H215376   3.813   4.083   4.991
 5124TIP3   OH215377   3.264   3.865   3.838
 5124TIP3    H115378   3.313   3.847   3.919
 5124TIP3    H215379   3.206   3.789   3.830
 5125TIP3   OH215380   1.973   3.848   4.672
 5125TIP3    H115381   2.028   3.769   4.674
 5125TIP3    H215382   2.034   3.919   4.654
 5126TIP3   OH215383   1.759   4.134   4.714
 5126TIP3    H115384   1.816   4.109   4.641
 5126TIP3    H215385   1.765   4.229   4.719
 5127TIP3   OH215386   3.704   4.156   4.863
 5127TIP3    H115387   3.622   4.191   4.898
 5127TIP3    H215388   3.679   4.076   4.817
 5128TIP3   OH215389   1.753   3.621   4.233
 5128TIP3    H115390   1.665   3.609   4.270
 5128TIP3    H215391   1.740   3.676   4.156
 5129TIP3   OH215392   2.917   5.336   3.740
 5129TIP3    H115393   2.973   5.323   3.664
 5129TIP3    H215394   2.963   5.402   3.793
 5130TIP3   OH215395   1.977   3.711   5.058
 5130TIP3    H115396   1.923   3.693   5.135
 5130TIP3    H215397   1.915   3.743   4.992
 5131TIP3   OH215398   2.032   5.092   5.151
 5131TIP3    H115399   1.942   5.082   5.120
 5131TIP3    H215400   2.025   5.147   5.229
 5132TIP3   OH215401   2.209   5.180   4.685
 5132TIP3    H115402   2.154   5.249   4.648
 5132TIP3    H215403   2.291   5.185   4.636
 5133TIP3   OH215404   2.621   5.407   4.808
 5133TIP3    H115405   2.660   5.401   4.896
 5133TIP3    H215406   2.683   5.460   4.758
 5134TIP3   OH215407   2.807   5.566   4.680
 5134TIP3    H115408   2.869   5.513   4.629
 5134TIP3    H215409   2.863   5.620   4.737
 5135TIP3   OH215410   3.612   3.896   4.773
 5135TIP3    H115411   3.522   3.878   4.746
 5135TIP3    H215412   3.656   3.811   4.767
 5136TIP3   OH215413   1.883   5.461   4.703
 5136TIP3    H115414   1.790   5.467   4.684
 5136TIP3    H215415   1.896   5.518   4.779
 5137TIP3   OH215416   2.108   5.406   4.563
 5137TIP3    H115417   2.027   5.422   4.611
 5137TIP3    H215418   2.088   5.429   4.473
 5138TIP3   OH215419   2.522   5.421   4.358
 5138TIP3    H115420   2.451   5.433   4.295
 5138TIP3    H215421   2.534   5.508   4.397
 5139TIP3   OH215422   2.790   5.366   4.413
 5139TIP3    H115423   2.697   5.378   4.393
 5139TIP3    H215424   2.835   5.429   4.358
 5140TIP3   OH215425   3.002   5.550   4.314
 5140TIP3    H115426   2.987   5.634   4.270
 5140TIP3    H215427   3.027   5.491   4.244
 5141TIP3   OH215428   1.768   5.211   4.431
 5141TIP3    H115429   1.788   5.187   4.521
 5141TIP3    H215430   1.838   5.170   4.380
 5142TIP3   OH215431   1.981   5.083   4.313
 5142TIP3    H115432   1.992   5.007   4.370
 5142TIP3    H215433   2.067   5.124   4.310
 5143TIP3   OH215434   2.252   5.172   4.315
 5143TIP3    H115435   2.272   5.080   4.298
 5143TIP3    H215436   2.302   5.193   4.394
 5144TIP3   OH215437   2.813   3.818   4.391
 5144TIP3    H115438   2.776   3.745   4.440
 5144TIP3    H215439   2.886   3.780   4.343
 5145TIP3   OH215440   3.322   3.743   4.300
 5145TIP3    H115441   3.356   3.783   4.220
 5145TIP3    H215442   3.227   3.744   4.289
 5146TIP3   OH215443   3.428   3.812   4.057
 5146TIP3    H115444   3.497   3.754   4.025
 5146TIP3    H215445   3.464   3.900   4.046
 5147TIP3   OH215446   2.059   3.526   4.406
 5147TIP3    H115447   1.969   3.494   4.410
 5147TIP3    H215448   2.112   3.447   4.399
 5148TIP3   OH215449   1.855   3.422   4.054
 5148TIP3    H115450   1.891   3.471   3.979
 5148TIP3    H215451   1.831   3.489   4.117
 5149TIP3   OH215452   2.523   3.570   4.291
 5149TIP3    H115453   2.577   3.611   4.224
 5149TIP3    H215454   2.566   3.592   4.373
 5150TIP3   OH215455   3.040   3.709   4.268
 5150TIP3    H115456   3.049   3.670   4.181
 5150TIP3    H215457   3.040   3.635   4.328
 5151TIP3   OH215458   3.081   3.652   3.840
 5151TIP3    H115459   2.998   3.695   3.861
 5151TIP3    H215460   3.075   3.565   3.878
 5152TIP3   OH215461   1.557   4.995   3.834
 5152TIP3    H115462   1.473   4.960   3.803
 5152TIP3    H215463   1.558   5.085   3.802
 5153TIP3   OH215464   1.977   3.562   3.827
 5153TIP3    H115465   2.018   3.498   3.768
 5153TIP3    H215466   2.051   3.613   3.860
 5154TIP3   OH215467   2.470   3.752   3.930
 5154TIP3    H115468   2.534   3.706   3.984
 5154TIP3    H215469   2.482   3.845   3.953
 5155TIP3   OH215470   2.351   5.153   3.411
 5155TIP3    H115471   2.434   5.181   3.374
 5155TIP3    H215472   2.323   5.080   3.355
 5156TIP3   OH215473   3.070   5.296   3.511
 5156TIP3    H115474   3.064   5.201   3.505
 5156TIP3    H215475   3.022   5.328   3.435
 5157TIP3   OH215476   0.106   0.761  -0.005
 5157TIP3    H115477   0.074   0.684   0.042
 5157TIP3    H215478   0.200   0.762   0.013
 5158TIP3   OH215479   0.364   0.753   0.102
 5158TIP3    H115480   0.443   0.734   0.052
 5158TIP3    H215481   0.356   0.680   0.164
 5159TIP3   OH215482   1.652   4.996   3.470
 5159TIP3    H115483   1.655   5.006   3.565
 5159TIP3    H215484   1.734   4.952   3.448
 5160TIP3   OH215485   3.353   3.891   5.196
 5160TIP3    H115486   3.369   3.862   5.286
 5160TIP3    H215487   3.439   3.888   5.155
 5161TIP3   OH215488   3.275   5.433   4.698
 5161TIP3    H115489   3.200   5.402   4.648
 5161TIP3    H215490   3.260   5.527   4.709
 5162TIP3   OH215491   4.556   4.821   3.437
 5162TIP3    H115492   4.518   4.906   3.415
 5162TIP3    H215493   4.486   4.758   3.416
 5163TIP3   OH215494   3.855   4.690   4.199
 5163TIP3    H115495   3.883   4.637   4.274
 5163TIP3    H215496   3.934   4.698   4.145
 5164TIP3   OH215497   4.819   5.108   3.538
 5164TIP3    H115498   4.797   5.043   3.603
 5164TIP3    H215499   4.836   5.188   3.588
 5165TIP3   OH215500   3.836   5.121   3.922
 5165TIP3    H115501   3.819   5.027   3.919
 5165TIP3    H215502   3.929   5.129   3.902
 5166TIP3   OH215503   3.525   4.321   3.691
 5166TIP3    H115504   3.474   4.399   3.714
 5166TIP3    H215505   3.462   4.261   3.652
 5167TIP3   OH215506   3.588   4.598   3.906
 5167TIP3    H115507   3.637   4.521   3.934
 5167TIP3    H215508   3.643   4.638   3.838
 5168TIP3   OH215509   4.466   5.554   3.555
 5168TIP3    H115510   4.490   5.493   3.485
 5168TIP3    H215511   4.478   5.503   3.635
 5169TIP3   OH215512   4.324   5.012   3.918
 5169TIP3    H115513   4.358   4.933   3.877
 5169TIP3    H215514   4.402   5.066   3.935
 5170TIP3   OH215515   5.379   4.343   3.894
 5170TIP3    H115516   5.396   4.428   3.934
 5170TIP3    H215517   5.382   4.360   3.800
 5171TIP3   OH215518   4.861   4.537   3.911
 5171TIP3    H115519   4.840   4.446   3.928
 5171TIP3    H215520   4.781   4.585   3.931
 5172TIP3   OH215521   4.113   4.185   3.867
 5172TIP3    H115522   4.091   4.257   3.808
 5172TIP3    H215523   4.061   4.111   3.835
 5173TIP3   OH215524   4.809   4.288   3.500
 5173TIP3    H115525   4.872   4.278   3.572
 5173TIP3    H215526   4.861   4.324   3.428
 5174TIP3   OH215527   3.743   4.388   3.993
 5174TIP3    H115528   3.825   4.367   4.037
 5174TIP3    H215529   3.745   4.336   3.913
 5175TIP3   OH215530   4.162   4.583   3.810
 5175TIP3    H115531   4.256   4.565   3.811
 5175TIP3    H215532   4.122   4.505   3.773
 5176TIP3   OH215533   5.438   4.577   4.041
 5176TIP3    H115534   5.347   4.605   4.036
 5176TIP3    H215535   5.466   4.600   4.129
 5177TIP3   OH215536   4.091   4.173   4.321
 5177TIP3    H115537   4.042   4.205   4.245
 5177TIP3    H215538   4.034   4.193   4.396
 5178TIP3   OH215539   4.424   5.031   3.321
 5178TIP3    H115540   4.394   5.011   3.233
 5178TIP3    H215541   4.377   5.111   3.345
 5179TIP3   OH215542   4.215   4.957   4.196
 5179TIP3    H115543   4.155   5.020   4.156
 5179TIP3    H215544   4.291   4.956   4.137
 5180TIP3   OH215545   4.979   4.292   3.714
 5180TIP3    H115546   4.936   4.274   3.798
 5180TIP3    H215547   5.034   4.369   3.731
 5181TIP3   OH215548   3.985   4.286   4.091
 5181TIP3    H115549   4.042   4.357   4.119
 5181TIP3    H215550   4.032   4.245   4.019
 5182TIP3   OH215551   4.034   5.167   4.215
 5182TIP3    H115552   4.019   5.250   4.170
 5182TIP3    H215553   3.950   5.147   4.257
 5183TIP3   OH215554   3.415   4.856   3.442
 5183TIP3    H115555   3.378   4.871   3.355
 5183TIP3    H215556   3.444   4.943   3.471
 5184TIP3   OH215557   4.855   5.359   3.676
 5184TIP3    H115558   4.769   5.349   3.716
 5184TIP3    H215559   4.849   5.443   3.629
 5185TIP3   OH215560   5.167   4.249   4.057
 5185TIP3    H115561   5.080   4.270   4.022
 5185TIP3    H215562   5.227   4.274   3.987
 5186TIP3   OH215563   4.442   3.876   4.043
 5186TIP3    H115564   4.430   3.784   4.065
 5186TIP3    H215565   4.367   3.920   4.083
 5187TIP3   OH215566   4.554   5.402   3.338
 5187TIP3    H115567   4.604   5.320   3.329
 5187TIP3    H215568   4.614   5.469   3.306
 5188TIP3   OH215569   4.707   5.182   3.292
 5188TIP3    H115570   4.692   5.103   3.240
 5188TIP3    H215571   4.748   5.149   3.373
 5189TIP3   OH215572   5.071   5.265   4.031
 5189TIP3    H115573   5.062   5.189   3.974
 5189TIP3    H215574   5.056   5.340   3.974
 5190TIP3   OH215575   4.381   4.661   3.285
 5190TIP3    H115576   4.300   4.709   3.268
 5190TIP3    H215577   4.426   4.659   3.201
 5191TIP3   OH215578   4.348   4.454   2.991
 5191TIP3    H115579   4.416   4.506   3.034
 5191TIP3    H215580   4.397   4.387   2.943
 5192TIP3   OH215581   5.272   4.910   3.890
 5192TIP3    H115582   5.194   4.967   3.890
 5192TIP3    H215583   5.272   4.871   3.803
 5193TIP3   OH215584   4.734   4.749   3.245
 5193TIP3    H115585   4.678   4.775   3.318
 5193TIP3    H215586   4.812   4.713   3.287
 5194TIP3   OH215587   4.940   4.771   4.162
 5194TIP3    H115588   4.927   4.851   4.212
 5194TIP3    H215589   4.864   4.765   4.105
 5195TIP3   OH215590   3.966   4.730   3.670
 5195TIP3    H115591   3.925   4.673   3.605
 5195TIP3    H215592   4.037   4.678   3.707
 5196TIP3   OH215593   4.094   5.152   3.816
 5196TIP3    H115594   4.079   5.124   3.726
 5196TIP3    H215595   4.173   5.105   3.843
 5197TIP3   OH215596   4.078   4.714   4.036
 5197TIP3    H115597   4.106   4.671   3.956
 5197TIP3    H215598   4.141   4.785   4.048
 5198TIP3   OH215599   4.622   5.339   3.817
 5198TIP3    H115600   4.614   5.414   3.875
 5198TIP3    H215601   4.608   5.263   3.873
 5199TIP3   OH215602   4.238   5.270   4.364
 5199TIP3    H115603   4.187   5.331   4.417
 5199TIP3    H215604   4.178   5.241   4.295
 5200TIP3   OH215605   4.568   4.608   3.074
 5200TIP3    H115606   4.628   4.665   3.120
 5200TIP3    H215607   4.594   4.615   2.982
 5201TIP3   OH215608   4.305   5.282   3.356
 5201TIP3    H115609   4.391   5.326   3.356
 5201TIP3    H215610   4.252   5.333   3.295
 5202TIP3   OH215611   4.026   5.421   4.449
 5202TIP3    H115612   3.997   5.432   4.359
 5202TIP3    H215613   3.945   5.405   4.498
 5203TIP3   OH215614   5.079   3.830   3.147
 5203TIP3    H115615   5.002   3.854   3.198
 5203TIP3    H215616   5.098   3.908   3.094
 5204TIP3   OH215617   3.833   4.578   3.474
 5204TIP3    H115618   3.758   4.620   3.433
 5204TIP3    H215619   3.807   4.487   3.486
 5205TIP3   OH215620   4.901   5.215   2.701
 5205TIP3    H115621   4.903   5.307   2.675
 5205TIP3    H215622   4.988   5.181   2.680
 5206TIP3   OH215623   3.616   4.961   4.393
 5206TIP3    H115624   3.548   4.943   4.329
 5206TIP3    H215625   3.654   4.876   4.414
 5207TIP3   OH215626   3.467   5.157   4.023
 5207TIP3    H115627   3.562   5.162   4.023
 5207TIP3    H215628   3.439   5.233   4.075
 5208TIP3   OH215629   5.317   5.601   4.063
 5208TIP3    H115630   5.319   5.506   4.075
 5208TIP3    H215631   5.244   5.631   4.117
 5209TIP3   OH215632   4.424   5.408   4.209
 5209TIP3    H115633   4.416   5.499   4.237
 5209TIP3    H215634   4.365   5.360   4.266
 5210TIP3   OH215635   4.202   5.506   3.169
 5210TIP3    H115636   4.158   5.482   3.087
 5210TIP3    H215637   4.164   5.591   3.191
 5211TIP3   OH215638   3.637   5.374   3.557
 5211TIP3    H115639   3.680   5.359   3.642
 5211TIP3    H215640   3.586   5.294   3.542
 5212TIP3   OH215641   4.402   5.431   2.798
 5212TIP3    H115642   4.451   5.358   2.761
 5212TIP3    H215643   4.438   5.443   2.886
 5213TIP3   OH215644   4.456   5.478   3.067
 5213TIP3    H115645   4.370   5.481   3.110
 5213TIP3    H215646   4.513   5.438   3.132
 5214TIP3   OH215647   5.203   4.732   4.343
 5214TIP3    H115648   5.117   4.740   4.302
 5214TIP3    H215649   5.223   4.638   4.340
 5215TIP3   OH215650   3.807   5.155   4.363
 5215TIP3    H115651   3.838   5.166   4.453
 5215TIP3    H215652   3.740   5.086   4.369
 5216TIP3   OH215653   4.206   3.966   4.169
 5216TIP3    H115654   4.122   3.933   4.137
 5216TIP3    H215655   4.183   4.045   4.219
 5217TIP3   OH215656   4.748   4.086   4.366
 5217TIP3    H115657   4.818   4.061   4.426
 5217TIP3    H215658   4.667   4.062   4.411
 5218TIP3   OH215659   4.976   4.524   4.285
 5218TIP3    H115660   4.927   4.523   4.368
 5218TIP3    H215661   4.942   4.601   4.239
 5219TIP3   OH215662   4.648   4.607   2.811
 5219TIP3    H115663   4.649   4.537   2.746
 5219TIP3    H215664   4.724   4.662   2.788
 5220TIP3   OH215665   4.350   4.022   3.142
 5220TIP3    H115666   4.336   4.005   3.236
 5220TIP3    H215667   4.262   4.020   3.104
 5221TIP3   OH215668   4.133   4.494   4.196
 5221TIP3    H115669   4.087   4.509   4.278
 5221TIP3    H215670   4.118   4.574   4.145
 5222TIP3   OH215671   4.017   4.378   3.698
 5222TIP3    H115672   3.929   4.348   3.722
 5222TIP3    H215673   4.031   4.342   3.611
 5223TIP3   OH215674   4.506   4.456   3.419
 5223TIP3    H115675   4.458   4.528   3.378
 5223TIP3    H215676   4.564   4.423   3.351
 5224TIP3   OH215677   4.694   4.752   4.528
 5224TIP3    H115678   4.663   4.668   4.563
 5224TIP3    H215679   4.789   4.750   4.540
 5225TIP3   OH215680   4.652   4.481   3.652
 5225TIP3    H115681   4.593   4.491   3.577
 5225TIP3    H215682   4.705   4.405   3.630
 5226TIP3   OH215683   3.956   4.530   4.411
 5226TIP3    H115684   3.906   4.582   4.474
 5226TIP3    H215685   3.955   4.441   4.446
 5227TIP3   OH215686   4.058   4.011   3.118
 5227TIP3    H115687   4.044   3.987   3.210
 5227TIP3    H215688   3.975   4.047   3.089
 5228TIP3   OH215689   3.555   4.041   3.984
 5228TIP3    H115690   3.635   4.067   4.030
 5228TIP3    H215691   3.586   4.005   3.901
 5229TIP3   OH215692   3.537   4.047   3.510
 5229TIP3    H115693   3.573   4.057   3.422
 5229TIP3    H215694   3.460   4.104   3.511
 5230TIP3   OH215695   4.377   4.179   3.754
 5230TIP3    H115696   4.296   4.176   3.805
 5230TIP3    H215697   4.445   4.204   3.818
 5231TIP3   OH215698   3.784   4.249   3.760
 5231TIP3    H115699   3.695   4.256   3.725
 5231TIP3    H215700   3.809   4.159   3.743
 5232TIP3   OH215701   4.043   4.253   3.457
 5232TIP3    H115702   4.137   4.265   3.444
 5232TIP3    H215703   4.004   4.275   3.372
 5233TIP3   OH215704   4.844   4.261   3.965
 5233TIP3    H115705   4.822   4.282   4.056
 5233TIP3    H215706   4.774   4.203   3.936
 5234TIP3   OH215707   3.918   4.297   3.218
 5234TIP3    H115708   3.864   4.235   3.170
 5234TIP3    H215709   3.974   4.337   3.151
 5235TIP3   OH215710   5.022   5.943   4.178
 5235TIP3    H115711   5.012   5.947   4.083
 5235TIP3    H215712   5.071   6.021   4.202
 5236TIP3   OH215713   4.024   5.062   4.586
 5236TIP3    H115714   4.081   5.098   4.654
 5236TIP3    H215715   3.944   5.037   4.631
 5237TIP3   OH215716   4.432   4.528   3.831
 5237TIP3    H115717   4.506   4.516   3.771
 5237TIP3    H215718   4.472   4.548   3.915
 5238TIP3   OH215719   3.936   4.003   3.748
 5238TIP3    H115720   3.902   3.932   3.802
 5238TIP3    H215721   3.967   3.961   3.668
 5239TIP3   OH215722   4.390   4.393   4.159
 5239TIP3    H115723   4.303   4.433   4.162
 5239TIP3    H215724   4.447   4.457   4.201
 5240TIP3   OH215725   4.141   4.806   3.236
 5240TIP3    H115726   4.070   4.744   3.217
 5240TIP3    H215727   4.120   4.841   3.323
 5241TIP3   OH215728   5.046   5.062   3.851
 5241TIP3    H115729   5.070   5.103   3.768
 5241TIP3    H215730   4.968   5.010   3.830
 5242TIP3   OH215731   4.608   4.113   3.137
 5242TIP3    H115732   4.515   4.094   3.136
 5242TIP3    H215733   4.614   4.208   3.149
 5243TIP3   OH215734   4.535   5.148   4.266
 5243TIP3    H115735   4.626   5.131   4.291
 5243TIP3    H215736   4.531   5.242   4.251
 5244TIP3   OH215737   4.669   4.378   3.205
 5244TIP3    H115738   4.765   4.383   3.214
 5244TIP3    H215739   4.647   4.452   3.149
 5245TIP3   OH215740   3.849   4.847   3.893
 5245TIP3    H115741   3.882   4.814   3.809
 5245TIP3    H215742   3.894   4.794   3.959
 5246TIP3   OH215743   4.298   4.963   3.078
 5246TIP3    H115744   4.250   5.046   3.078
 5246TIP3    H215745   4.243   4.904   3.130
 5247TIP3   OH215746   3.723   4.730   4.520
 5247TIP3    H115747   3.732   4.714   4.614
 5247TIP3    H215748   3.643   4.683   4.495
 5248TIP3   OH215749   4.691   5.411   4.126
 5248TIP3    H115750   4.596   5.412   4.131
 5248TIP3    H215751   4.720   5.453   4.207
 5249TIP3   OH215752   5.097   4.468   3.034
 5249TIP3    H115753   5.040   4.423   2.973
 5249TIP3    H215754   5.104   4.557   2.999
 5250TIP3   OH215755   5.323   5.314   4.116
 5250TIP3    H115756   5.229   5.304   4.101
 5250TIP3    H215757   5.363   5.287   4.033
 5251TIP3   OH215758   4.822   5.280   2.960
 5251TIP3    H115759   4.791   5.204   3.011
 5251TIP3    H215760   4.842   5.245   2.874
 5252TIP3   OH215761   4.839   4.901   3.769
 5252TIP3    H115762   4.782   4.877   3.841
 5252TIP3    H215763   4.851   4.819   3.720
 5253TIP3   OH215764   3.949   5.151   3.555
 5253TIP3    H115765   3.949   5.228   3.497
 5253TIP3    H215766   3.858   5.122   3.556
 5254TIP3   OH215767   3.518   4.436   3.263
 5254TIP3    H115768   3.563   4.518   3.283
 5254TIP3    H215769   3.437   4.440   3.315
 5255TIP3   OH215770   4.056   4.906   3.473
 5255TIP3    H115771   4.035   4.995   3.502
 5255TIP3    H215772   4.028   4.851   3.545
 5256TIP3   OH215773   4.232   5.480   4.010
 5256TIP3    H115774   4.271   5.552   3.960
 5256TIP3    H215775   4.305   5.442   4.058
 5257TIP3   OH215776   3.864   5.386   3.400
 5257TIP3    H115777   3.779   5.387   3.444
 5257TIP3    H215778   3.895   5.476   3.404
 5258TIP3   OH215779   4.575   5.110   3.989
 5258TIP3    H115780   4.560   5.115   4.083
 5258TIP3    H215781   4.616   5.025   3.974
 5259TIP3   OH215782   4.581   5.022   2.862
 5259TIP3    H115783   4.631   5.001   2.941
 5259TIP3    H215784   4.498   4.975   2.873
 5260TIP3   OH215785   4.846   5.642   4.022
 5260TIP3    H115786   4.771   5.582   4.025
 5260TIP3    H215787   4.826   5.701   3.949
 5261TIP3   OH215788   4.913   5.488   2.663
 5261TIP3    H115789   4.952   5.559   2.613
 5261TIP3    H215790   4.834   5.527   2.702
 5262TIP3   OH215791   3.923   4.271   4.523
 5262TIP3    H115792   3.828   4.278   4.530
 5262TIP3    H215793   3.947   4.214   4.596
 5263TIP3   OH215794   4.754   4.965   3.074
 5263TIP3    H115795   4.736   4.891   3.132
 5263TIP3    H215796   4.847   4.959   3.055
 5264TIP3   OH215797   3.667   5.340   4.177
 5264TIP3    H115798   3.719   5.268   4.215
 5264TIP3    H215799   3.661   5.404   4.247
 5265TIP3   OH215800   3.931   4.987   2.860
 5265TIP3    H115801   3.941   4.896   2.830
 5265TIP3    H215802   3.913   4.979   2.954
 5266TIP3   OH215803   3.879   5.000   3.133
 5266TIP3    H115804   3.954   4.968   3.183
 5266TIP3    H215805   3.884   5.095   3.141
 5267TIP3   OH215806   3.614   4.687   3.342
 5267TIP3    H115807   3.547   4.732   3.394
 5267TIP3    H215808   3.633   4.747   3.270
 5268TIP3   OH215809   4.777   4.326   4.225
 5268TIP3    H115810   4.853   4.369   4.266
 5268TIP3    H215811   4.764   4.246   4.277
 5269TIP3   OH215812   4.668   4.068   3.409
 5269TIP3    H115813   4.646   4.086   3.317
 5269TIP3    H215814   4.709   4.149   3.440
 5270TIP3   OH215815   4.154   5.192   3.079
 5270TIP3    H115816   4.068   5.216   3.113
 5270TIP3    H215817   4.172   5.257   3.011
 5271TIP3   OH215818   4.322   4.264   3.495
 5271TIP3    H115819   4.384   4.332   3.470
 5271TIP3    H215820   4.340   4.248   3.587
 5272TIP3   OH215821   4.558   4.542   4.323
 5272TIP3    H115822   4.595   4.630   4.314
 5272TIP3    H215823   4.631   4.483   4.303
 5273TIP3   OH215824   4.485   3.972   3.596
 5273TIP3    H115825   4.462   4.049   3.649
 5273TIP3    H215826   4.553   4.004   3.536
 5274TIP3   OH215827   3.902   5.275   3.150
 5274TIP3    H115828   3.876   5.344   3.088
 5274TIP3    H215829   3.886   5.314   3.236
 5275TIP3   OH215830   4.005   3.979   3.391
 5275TIP3    H115831   3.989   4.068   3.423
 5275TIP3    H215832   4.098   3.965   3.403
 5276TIP3   OH215833   5.234   4.454   4.260
 5276TIP3    H115834   5.141   4.472   4.277
 5276TIP3    H215835   5.234   4.388   4.190
 5277TIP3   OH215836   4.887   4.645   3.646
 5277TIP3    H115837   4.800   4.607   3.658
 5277TIP3    H215838   4.940   4.605   3.715
 5278TIP3   OH215839   3.630   4.873   3.131
 5278TIP3    H115840   3.702   4.935   3.140
 5278TIP3    H215841   3.663   4.808   3.068
 5279TIP3   OH215842   3.541   4.159   3.247
 5279TIP3    H115843   3.559   4.253   3.257
 5279TIP3    H215844   3.446   4.153   3.246
 5280TIP3   OH215845   4.874   5.630   3.595
 5280TIP3    H115846   4.832   5.680   3.526
 5280TIP3    H215847   4.968   5.646   3.584
 5281TIP3   OH215848   3.942   3.883   4.134
 5281TIP3    H115849   3.913   3.849   4.049
 5281TIP3    H215850   3.933   3.809   4.194
 5282TIP3   OH215851   3.478   5.136   3.516
 5282TIP3    H115852   3.418   5.157   3.588
 5282TIP3    H215853   3.436   5.174   3.439
 5283TIP3   OH215854   3.654   5.672   4.596
 5283TIP3    H115855   3.734   5.678   4.648
 5283TIP3    H215856   3.632   5.579   4.595
 5284TIP3   OH215857   4.118   5.606   4.632
 5284TIP3    H115858   4.210   5.588   4.651
 5284TIP3    H215859   4.094   5.541   4.566
 5285TIP3   OH215860   4.096   5.184   2.761
 5285TIP3    H115861   4.046   5.112   2.799
 5285TIP3    H215862   4.170   5.141   2.718
 5286TIP3   OH215863   4.747   5.524   4.368
 5286TIP3    H115864   4.749   5.451   4.430
 5286TIP3    H215865   4.824   5.576   4.390
 5287TIP3   OH215866   4.533   5.223   2.680
 5287TIP3    H115867   4.565   5.158   2.742
 5287TIP3    H215868   4.591   5.214   2.604
 5288TIP3   OH215869   3.788   5.062   4.758
 5288TIP3    H115870   3.806   4.970   4.777
 5288TIP3    H215871   3.698   5.063   4.727
 5289TIP3   OH215872   3.758   4.681   2.986
 5289TIP3    H115873   3.812   4.656   3.061
 5289TIP3    H215874   3.820   4.692   2.914
 5290TIP3   OH215875   4.369   5.082   4.520
 5290TIP3    H115876   4.368   5.156   4.459
 5290TIP3    H215877   4.460   5.054   4.522
 5291TIP3   OH215878   4.304   4.910   2.810
 5291TIP3    H115879   4.292   4.922   2.904
 5291TIP3    H215880   4.294   4.816   2.796
 5292TIP3   OH215881   4.860   5.194   4.194
 5292TIP3    H115882   4.940   5.213   4.144
 5292TIP3    H215883   4.794   5.251   4.155
 5293TIP3   OH215884   3.918   4.806   4.776
 5293TIP3    H115885   3.975   4.731   4.763
 5293TIP3    H215886   3.933   4.834   4.866
 5294TIP3   OH215887   3.941   4.618   3.193
 5294TIP3    H115888   3.920   4.579   3.277
 5294TIP3    H215889   3.988   4.549   3.146
 5295TIP3   OH215890   4.074   4.430   3.037
 5295TIP3    H115891   4.045   4.431   2.945
 5295TIP3    H215892   4.170   4.433   3.031
 5296TIP3   OH215893   4.721   5.067   4.556
 5296TIP3    H115894   4.773   5.016   4.493
 5296TIP3    H215895   4.728   5.018   4.638
 5297TIP3   OH215896   4.877   4.741   2.719
 5297TIP3    H115897   4.879   4.700   2.632
 5297TIP3    H215898   4.844   4.829   2.703
 5298TIP3   OH215899   4.374   4.469   4.527
 5298TIP3    H115900   4.358   4.379   4.499
 5298TIP3    H215901   4.425   4.507   4.455
 5299TIP3   OH215902   4.351   4.233   4.378
 5299TIP3    H115903   4.379   4.274   4.296
 5299TIP3    H215904   4.260   4.210   4.364
 5300TIP3   OH215905   4.963   4.752   4.620
 5300TIP3    H115906   4.995   4.664   4.638
 5300TIP3    H215907   5.038   4.798   4.583
 5301TIP3   OH215908   4.996   5.018   4.358
 5301TIP3    H115909   4.941   5.078   4.307
 5301TIP3    H215910   5.084   5.030   4.322
 5302TIP3   OH215911   4.227   4.562   4.758
 5302TIP3    H115912   4.167   4.492   4.784
 5302TIP3    H215913   4.263   4.533   4.674
 5303TIP3   OH215914   4.490   4.008   4.447
 5303TIP3    H115915   4.444   4.089   4.423
 5303TIP3    H215916   4.424   3.939   4.437
 5304TIP3   OH215917   4.612   4.525   4.660
 5304TIP3    H115918   4.603   4.506   4.753
 5304TIP3    H215919   4.530   4.496   4.621
 5305TIP3   OH215920   4.849   4.478   4.518
 5305TIP3    H115921   4.773   4.479   4.576
 5305TIP3    H215922   4.920   4.443   4.572
 5306TIP3   OH215923   5.086   4.418   4.654
 5306TIP3    H115924   5.099   4.324   4.664
 5306TIP3    H215925   5.078   4.450   4.744
 5307TIP3   OH215926   4.081   4.343   4.851
 5307TIP3    H115927   4.077   4.253   4.819
 5307TIP3    H215928   4.116   4.336   4.940
 5308TIP3   OH215929   4.563   4.017   4.711
 5308TIP3    H115930   4.632   3.950   4.708
 5308TIP3    H215931   4.528   4.019   4.622
 5309TIP3   OH215932   4.637   4.235   4.857
 5309TIP3    H115933   4.613   4.161   4.801
 5309TIP3    H215934   4.561   4.293   4.853
 5310TIP3   OH215935   3.890   5.488   2.966
 5310TIP3    H115936   3.979   5.464   2.941
 5310TIP3    H215937   3.853   5.529   2.888
 5311TIP3   OH215938   3.357   4.856   3.158
 5311TIP3    H115939   3.451   4.871   3.149
 5311TIP3    H215940   3.343   4.770   3.118
 5312TIP3   OH215941   3.274   5.460   3.598
 5312TIP3    H115942   3.212   5.404   3.551
 5312TIP3    H215943   3.318   5.401   3.660
 5313TIP3   OH215944   3.405   5.302   3.780
 5313TIP3    H115945   3.395   5.229   3.841
 5313TIP3    H215946   3.454   5.368   3.830
 5314TIP3   OH215947   5.140   5.698   3.579
 5314TIP3    H115948   5.174   5.722   3.665
 5314TIP3    H215949   5.208   5.725   3.518
 5315TIP3   OH215950   5.154   5.720   3.862
 5315TIP3    H115951   5.107   5.638   3.853
 5315TIP3    H215952   5.233   5.698   3.911
 5316TIP3   OH215953   5.230   5.428   4.448
 5316TIP3    H115954   5.156   5.433   4.508
 5316TIP3    H215955   5.201   5.475   4.369
 5317TIP3   OH215956   5.031   4.931   3.052
 5317TIP3    H115957   5.091   4.997   3.016
 5317TIP3    H215958   5.077   4.897   3.130
 5318TIP3   OH215959   5.143   4.804   3.280
 5318TIP3    H115960   5.075   4.741   3.302
 5318TIP3    H215961   5.141   4.868   3.352
 5319TIP3   OH215962   5.215   5.183   3.658
 5319TIP3    H115963   5.227   5.145   3.571
 5319TIP3    H215964   5.208   5.277   3.642
 5320TIP3   OH215965   5.014   5.479   3.869
 5320TIP3    H115966   4.946   5.523   3.919
 5320TIP3    H215967   4.968   5.436   3.797
 5321TIP3   OH215968   5.083   4.709   2.897
 5321TIP3    H115969   5.014   4.703   2.831
 5321TIP3    H215970   5.060   4.786   2.949
 5322TIP3   OH215971   4.937   4.361   2.839
 5322TIP3    H115972   4.874   4.395   2.776
 5322TIP3    H215973   4.931   4.266   2.830
 5323TIP3   OH215974   4.952   4.636   3.379
 5323TIP3    H115975   4.956   4.542   3.361
 5323TIP3    H215976   4.932   4.642   3.472
 5324TIP3   OH215977   3.588   4.719   4.152
 5324TIP3    H115978   3.577   4.680   4.065
 5324TIP3    H215979   3.683   4.718   4.166
 5325TIP3   OH215980   5.255   5.076   4.265
 5325TIP3    H115981   5.315   5.004   4.247
 5325TIP3    H215982   5.280   5.144   4.203
 5326TIP3   OH215983   5.421   4.859   4.239
 5326TIP3    H115984   5.345   4.813   4.274
 5326TIP3    H215985   5.495   4.803   4.260
 5327TIP3   OH215986   4.904   4.087   2.827
 5327TIP3    H115987   4.960   4.056   2.898
 5327TIP3    H215988   4.818   4.050   2.846
 5328TIP3   OH215989   4.962   4.373   3.270
 5328TIP3    H115990   5.002   4.287   3.285
 5328TIP3    H215991   5.007   4.408   3.193
 5329TIP3   OH215992   5.129   4.518   3.777
 5329TIP3    H115993   5.206   4.564   3.744
 5329TIP3    H215994   5.113   4.557   3.863
 5330TIP3   OH215995   5.178   4.679   4.014
 5330TIP3    H115996   5.093   4.694   4.056
 5330TIP3    H215997   5.205   4.765   3.983
 5331TIP3   OH215998   3.816   4.413   4.832
 5331TIP3    H115999   3.911   4.403   4.838
 5331TIP3    H216000   3.781   4.326   4.854
 5332TIP3   OH216001   5.636   4.283   4.553
 5332TIP3    H116002   5.701   4.221   4.520
 5332TIP3    H216003   5.605   4.329   4.475
 5333TIP3   OH216004   5.069   4.120   3.321
 5333TIP3    H116005   5.112   4.105   3.406
 5333TIP3    H216006   5.004   4.050   3.314
 5334TIP3   OH216007   3.773   4.102   4.150
 5334TIP3    H116008   3.826   4.022   4.156
 5334TIP3    H216009   3.836   4.172   4.133
 5335TIP3   OH216010   3.560   4.371   4.209
 5335TIP3    H116011   3.611   4.357   4.129
 5335TIP3    H216012   3.594   4.452   4.246
 5336TIP3   OH216013   5.497   4.405   4.354
 5336TIP3    H116014   5.416   4.444   4.386
 5336TIP3    H216015   5.468   4.329   4.303
 5337TIP3   OH216016   5.141   4.034   2.977
 5337TIP3    H116017   5.177   3.976   2.910
 5337TIP3    H216018   5.192   4.114   2.969
 5338TIP3   OH216019   3.552   3.898   3.737
 5338TIP3    H116020   3.461   3.876   3.753
 5338TIP3    H216021   3.551   3.951   3.657
 5339TIP3   OH216022   4.704   5.596   3.225
 5339TIP3    H116023   4.758   5.580   3.148
 5339TIP3    H216024   4.754   5.658   3.278
 5340TIP3   OH216025   3.769   3.957   4.543
 5340TIP3    H116026   3.716   3.939   4.620
 5340TIP3    H216027   3.708   3.993   4.479
 5341TIP3   OH216028   3.803   5.378   4.608
 5341TIP3    H116029   3.708   5.369   4.601
 5341TIP3    H216030   3.821   5.367   4.701
 5342TIP3   OH216031   4.007   5.439   4.164
 5342TIP3    H116032   3.948   5.507   4.130
 5342TIP3    H216033   4.089   5.453   4.116
 5343TIP3   OH216034   4.414   5.674   4.283
 5343TIP3    H116035   4.449   5.663   4.371
 5343TIP3    H216036   4.481   5.723   4.236
 5344TIP3   OH216037   4.607   5.821   4.154
 5344TIP3    H116038   4.672   5.766   4.110
 5344TIP3    H216039   4.658   5.874   4.216
 5345TIP3   OH216040   5.406   4.156   4.255
 5345TIP3    H116041   5.317   4.146   4.222
 5345TIP3    H216042   5.442   4.067   4.252
 5346TIP3   OH216043   3.674   5.709   4.190
 5346TIP3    H116044   3.581   5.721   4.172
 5346TIP3    H216045   3.692   5.765   4.266
 5347TIP3   OH216046   3.881   5.650   4.024
 5347TIP3    H116047   3.810   5.676   4.082
 5347TIP3    H216048   3.839   5.595   3.958
 5348TIP3   OH216049   4.333   5.679   3.848
 5348TIP3    H116050   4.297   5.694   3.760
 5348TIP3    H216051   4.340   5.767   3.885
 5349TIP3   OH216052   4.593   5.610   3.898
 5349TIP3    H116053   4.501   5.628   3.880
 5349TIP3    H216054   4.640   5.677   3.848
 5350TIP3   OH216055   4.784   5.792   3.797
 5350TIP3    H116056   4.773   5.879   3.757
 5350TIP3    H216057   4.815   5.737   3.725
 5351TIP3   OH216058   3.582   5.457   3.942
 5351TIP3    H116059   3.613   5.422   4.026
 5351TIP3    H216060   3.648   5.431   3.879
 5352TIP3   OH216061   3.784   5.356   3.792
 5352TIP3    H116062   3.791   5.271   3.836
 5352TIP3    H216063   3.875   5.384   3.782
 5353TIP3   OH216064   4.057   5.428   3.800
 5353TIP3    H116065   4.072   5.334   3.787
 5353TIP3    H216066   4.110   5.451   3.876
 5354TIP3   OH216067   4.631   4.088   3.896
 5354TIP3    H116068   4.580   4.018   3.936
 5354TIP3    H216069   4.694   4.042   3.840
 5355TIP3   OH216070   5.121   3.979   3.772
 5355TIP3    H116071   5.156   4.031   3.700
 5355TIP3    H216072   5.028   4.003   3.775
 5356TIP3   OH216073   5.232   4.069   3.539
 5356TIP3    H116074   5.302   4.010   3.510
 5356TIP3    H216075   5.267   4.157   3.526
 5357TIP3   OH216076   3.851   3.784   3.893
 5357TIP3    H116077   3.761   3.751   3.898
 5357TIP3    H216078   3.904   3.705   3.884
 5358TIP3   OH216079   3.655   3.686   3.574
 5358TIP3    H116080   3.693   3.733   3.499
 5358TIP3    H216081   3.630   3.755   3.635
 5359TIP3   OH216082   4.322   3.830   3.776
 5359TIP3    H116083   4.373   3.878   3.712
 5359TIP3    H216084   4.357   3.858   3.861
 5360TIP3   OH216085   4.837   3.967   3.752
 5360TIP3    H116086   4.837   3.930   3.664
 5360TIP3    H216087   4.835   3.891   3.810
 5361TIP3   OH216088   4.882   3.910   3.322
 5361TIP3    H116089   4.805   3.959   3.348
 5361TIP3    H216090   4.869   3.823   3.358
 5362TIP3   OH216091   3.355   5.255   3.301
 5362TIP3    H116092   3.271   5.220   3.273
 5362TIP3    H216093   3.355   5.346   3.271
 5363TIP3   OH216094   3.790   3.798   3.354
 5363TIP3    H116095   3.836   3.717   3.331
 5363TIP3    H216096   3.859   3.863   3.366
 5364TIP3   OH216097   4.279   4.007   3.409
 5364TIP3    H116098   4.338   3.961   3.469
 5364TIP3    H216099   4.290   4.100   3.431
 5365TIP3   OH216100   4.146   5.413   2.898
 5365TIP3    H116101   4.230   5.438   2.862
 5365TIP3    H216102   4.117   5.340   2.843
 5366TIP3   OH216103   4.855   5.548   2.999
 5366TIP3    H116104   4.850   5.452   2.991
 5366TIP3    H216105   4.814   5.581   2.919
 5367TIP3   OH216106   4.074   4.070   4.780
 5367TIP3    H116107   4.037   4.001   4.835
 5367TIP3    H216108   4.167   4.073   4.805
 5368TIP3   OH216109   4.326   4.069   4.899
 5368TIP3    H116110   4.406   4.043   4.854
 5368TIP3    H216111   4.312   4.001   4.965
 5369TIP3   OH216112   3.453   5.253   2.955
 5369TIP3    H116113   3.452   5.251   3.050
 5369TIP3    H216114   3.533   5.207   2.931
 5370TIP3   OH216115   5.147   4.151   4.674
 5370TIP3    H116116   5.159   4.120   4.764
 5370TIP3    H216117   5.234   4.145   4.635
 5371TIP3   OH216118   5.073   5.669   4.188
 5371TIP3    H116119   5.000   5.640   4.133
 5371TIP3    H216120   5.065   5.764   4.192
 5372TIP3   OH216121   6.319   5.070   2.958
 5372TIP3    H116122   6.299   5.159   2.928
 5372TIP3    H216123   6.253   5.015   2.916
 5373TIP3   OH216124   6.294   5.060   3.341
 5373TIP3    H116125   6.336   5.044   3.425
 5373TIP3    H216126   6.265   4.973   3.312
 5374TIP3   OH216127   0.090   5.403   3.079
 5374TIP3    H116128   0.077   5.319   3.122
 5374TIP3    H216129   0.025   5.461   3.120
 5375TIP3   OH216130   5.631   5.358   3.408
 5375TIP3    H116131   5.617   5.265   3.422
 5375TIP3    H216132   5.724   5.366   3.388
 5376TIP3   OH216133   5.321   4.595   3.210
 5376TIP3    H116134   5.263   4.670   3.227
 5376TIP3    H216135   5.265   4.533   3.162
 5377TIP3   OH216136   5.492   4.795   3.395
 5377TIP3    H116137   5.468   4.707   3.364
 5377TIP3    H216138   5.445   4.854   3.336
 5378TIP3   OH216139   6.151   5.298   3.368
 5378TIP3    H116140   6.189   5.216   3.336
 5378TIP3    H216141   6.226   5.351   3.394
 5379TIP3   OH216142   0.058   4.803   3.397
 5379TIP3    H116143   0.086   4.718   3.430
 5379TIP3    H216144   0.019   4.785   3.312
 5380TIP3   OH216145   5.904   4.450   3.360
 5380TIP3    H116146   5.884   4.520   3.297
 5380TIP3    H216147   5.853   4.375   3.329
 5381TIP3   OH216148   0.106   4.544   2.984
 5381TIP3    H116149   0.150   4.508   3.061
 5381TIP3    H216150   0.173   4.544   2.916
 5382TIP3   OH216151   5.967   4.844   3.290
 5382TIP3    H116152   6.061   4.826   3.295
 5382TIP3    H216153   5.929   4.767   3.247
 5383TIP3   OH216154   5.886   4.442   3.799
 5383TIP3    H116155   5.832   4.476   3.728
 5383TIP3    H216156   5.834   4.457   3.878
 5384TIP3   OH216157   6.229   5.282   2.806
 5384TIP3    H116158   6.197   5.266   2.717
 5384TIP3    H216159   6.201   5.371   2.826
 5385TIP3   OH216160   5.999   5.189   3.568
 5385TIP3    H116161   5.941   5.252   3.609
 5385TIP3    H216162   6.045   5.240   3.501
 5386TIP3   OH216163   5.775   4.571   3.573
 5386TIP3    H116164   5.845   4.625   3.608
 5386TIP3    H216165   5.815   4.525   3.499
 5387TIP3   OH216166   5.823   5.358   3.679
 5387TIP3    H116167   5.807   5.445   3.642
 5387TIP3    H216168   5.749   5.344   3.738
 5388TIP3   OH216169   5.208   5.108   2.931
 5388TIP3    H116170   5.175   5.120   2.842
 5388TIP3    H216171   5.233   5.196   2.960
 5389TIP3   OH216172   6.217   4.133   3.528
 5389TIP3    H116173   6.211   4.040   3.550
 5389TIP3    H216174   6.141   4.173   3.571
 5390TIP3   OH216175   6.169   4.915   2.783
 5390TIP3    H116176   6.090   4.965   2.763
 5390TIP3    H216177   6.214   4.907   2.699
 5391TIP3   OH216178   6.142   4.699   2.492
 5391TIP3    H116179   6.206   4.761   2.528
 5391TIP3    H216180   6.193   4.639   2.438
 5392TIP3   OH216181   0.009   5.001   2.775
 5392TIP3    H116182  -0.052   5.023   2.845
 5392TIP3    H216183   0.095   5.019   2.811
 5393TIP3   OH216184   5.750   4.985   3.166
 5393TIP3    H116185   5.708   4.931   3.098
 5393TIP3    H216186   5.830   4.937   3.188
 5394TIP3   OH216187   5.888   5.389   3.297
 5394TIP3    H116188   5.873   5.378   3.203
 5394TIP3    H216189   5.980   5.364   3.310
 5395TIP3   OH216190   5.884   4.949   3.524
 5395TIP3    H116191   5.925   4.924   3.441
 5395TIP3    H216192   5.928   5.031   3.549
 5396TIP3   OH216193   6.432   5.562   3.245
 5396TIP3    H116194   6.412   5.652   3.268
 5396TIP3    H216195   6.414   5.512   3.325
 5397TIP3   OH216196   6.033   5.569   3.760
 5397TIP3    H116197   5.975   5.605   3.827
 5397TIP3    H216198   5.992   5.488   3.733
 5398TIP3   OH216199   6.352   4.866   2.579
 5398TIP3    H116200   6.408   4.924   2.631
 5398TIP3    H216201   6.380   4.880   2.488
 5399TIP3   OH216202   5.781   5.062   3.936
 5399TIP3    H116203   5.793   5.151   3.969
 5399TIP3    H216204   5.690   5.041   3.957
 5400TIP3   OH216205   6.122   5.534   2.844
 5400TIP3    H116206   6.115   5.582   2.927
 5400TIP3    H216207   6.043   5.558   2.796
 5401TIP3   OH216208   5.813   5.672   3.901
 5401TIP3    H116209   5.779   5.652   3.814
 5401TIP3    H216210   5.739   5.658   3.960
 5402TIP3   OH216211   5.621   4.834   2.970
 5402TIP3    H116212   5.552   4.881   2.922
 5402TIP3    H216213   5.595   4.742   2.967
 5403TIP3   OH216214   5.399   5.210   3.875
 5403TIP3    H116215   5.337   5.186   3.807
 5403TIP3    H216216   5.436   5.127   3.905
 5404TIP3   OH216217   5.255   5.425   3.522
 5404TIP3    H116218   5.349   5.438   3.525
 5404TIP3    H216219   5.218   5.506   3.557
 5405TIP3   OH216220   5.939   5.761   2.641
 5405TIP3    H116221   5.889   5.722   2.570
 5405TIP3    H216222   6.030   5.756   2.612
 5406TIP3   OH216223   5.422   5.608   3.037
 5406TIP3    H116224   5.469   5.606   3.120
 5406TIP3    H216225   5.377   5.524   3.033
 5407TIP3   OH216226   5.594   5.399   3.833
 5407TIP3    H116227   5.645   5.392   3.914
 5407TIP3    H216228   5.523   5.336   3.845
 5408TIP3   OH216229   5.992   4.227   3.658
 5408TIP3    H116230   5.907   4.197   3.626
 5408TIP3    H216231   5.972   4.307   3.706
 5409TIP3   OH216232   0.008   4.331   3.835
 5409TIP3    H116233   0.079   4.308   3.894
 5409TIP3    H216234  -0.072   4.319   3.888
 5410TIP3   OH216235   6.449   4.899   2.328
 5410TIP3    H116236   6.426   4.870   2.240
 5410TIP3    H216237   6.469   4.992   2.319
 5411TIP3   OH216238   6.158   4.253   2.634
 5411TIP3    H116239   6.116   4.266   2.719
 5411TIP3    H216240   6.111   4.179   2.595
 5412TIP3   OH216241   5.960   4.741   3.681
 5412TIP3    H116242   5.911   4.754   3.762
 5412TIP3    H216243   5.950   4.824   3.634
 5413TIP3   OH216244   5.824   4.640   3.181
 5413TIP3    H116245   5.734   4.617   3.205
 5413TIP3    H216246   5.835   4.604   3.093
 5414TIP3   OH216247   6.312   4.712   2.907
 5414TIP3    H116248   6.261   4.784   2.868
 5414TIP3    H216249   6.374   4.687   2.838
 5415TIP3   OH216250   6.458   4.732   3.145
 5415TIP3    H116251   6.395   4.756   3.077
 5415TIP3    H216252   6.505   4.657   3.108
 5416TIP3   OH216253   5.746   4.770   3.854
 5416TIP3    H116254   5.755   4.846   3.912
 5416TIP3    H216255   5.736   4.695   3.913
 5417TIP3   OH216256   5.820   4.255   2.597
 5417TIP3    H116257   5.806   4.257   2.692
 5417TIP3    H216258   5.742   4.298   2.561
 5418TIP3   OH216259   5.363   4.291   3.461
 5418TIP3    H116260   5.441   4.329   3.500
 5418TIP3    H216261   5.392   4.258   3.376
 5419TIP3   OH216262   5.289   4.273   2.978
 5419TIP3    H116263   5.329   4.305   2.897
 5419TIP3    H216264   5.224   4.339   3.000
 5420TIP3   OH216265   6.415   4.971   3.571
 5420TIP3    H116266   6.477   4.930   3.511
 5420TIP3    H216267   6.417   4.917   3.649
 5421TIP3   OH216268   6.161   4.444   3.235
 5421TIP3    H116269   6.080   4.446   3.286
 5421TIP3    H216270   6.230   4.433   3.301
 5422TIP3   OH216271   5.587   4.526   3.252
 5422TIP3    H116272   5.495   4.533   3.229
 5422TIP3    H216273   5.608   4.433   3.238
 5423TIP3   OH216274   5.840   4.511   2.940
 5423TIP3    H116275   5.933   4.523   2.924
 5423TIP3    H216276   5.798   4.530   2.856
 5424TIP3   OH216277   0.100   4.531   3.460
 5424TIP3    H116278   0.101   4.551   3.553
 5424TIP3    H216279   0.020   4.480   3.447
 5425TIP3   OH216280   5.712   4.542   2.702
 5425TIP3    H116281   5.648   4.492   2.650
 5425TIP3    H216282   5.766   4.586   2.637
 5426TIP3   OH216283   5.760   5.320   4.049
 5426TIP3    H116284   5.833   5.372   4.082
 5426TIP3    H216285   5.700   5.314   4.124
 5427TIP3   OH216286   6.232   4.779   3.339
 5427TIP3    H116287   6.301   4.740   3.287
 5427TIP3    H216288   6.240   4.739   3.425
 5428TIP3   OH216289   5.733   4.266   3.239
 5428TIP3    H116290   5.702   4.190   3.288
 5428TIP3    H216291   5.760   4.232   3.154
 5429TIP3   OH216292   6.218   4.681   3.612
 5429TIP3    H116293   6.130   4.708   3.637
 5429TIP3    H216294   6.275   4.731   3.670
 5430TIP3   OH216295   5.941   5.065   2.722
 5430TIP3    H116296   5.870   5.005   2.700
 5430TIP3    H216297   5.917   5.100   2.808
 5431TIP3   OH216298   6.398   4.378   2.626
 5431TIP3    H116299   6.305   4.356   2.620
 5431TIP3    H216300   6.400   4.473   2.624
 5432TIP3   OH216301   6.472   4.642   2.680
 5432TIP3    H116302   6.557   4.635   2.636
 5432TIP3    H216303   6.429   4.715   2.635
 5433TIP3   OH216304   5.657   5.070   3.409
 5433TIP3    H116305   5.668   5.053   3.316
 5433TIP3    H216306   5.742   5.104   3.437
 5434TIP3   OH216307   6.098   5.216   2.551
 5434TIP3    H116308   6.050   5.299   2.556
 5434TIP3    H216309   6.047   5.155   2.604
 5435TIP3   OH216310   5.522   4.999   4.012
 5435TIP3    H116311   5.543   4.988   4.105
 5435TIP3    H216312   5.447   4.942   3.998
 5436TIP3   OH216313   6.231   5.046   4.074
 5436TIP3    H116314   6.156   5.007   4.028
 5436TIP3    H216315   6.260   5.117   4.016
 5437TIP3   OH216316   0.032   5.184   3.259
 5437TIP3    H116317  -0.054   5.142   3.264
 5437TIP3    H216318   0.087   5.121   3.212
 5438TIP3   OH216319   5.752   5.403   3.041
 5438TIP3    H116320   5.746   5.483   2.988
 5438TIP3    H216321   5.661   5.382   3.063
 5439TIP3   OH216322   5.317   4.694   2.751
 5439TIP3    H116323   5.359   4.778   2.767
 5439TIP3    H216324   5.236   4.697   2.801
 5440TIP3   OH216325   5.850   5.157   2.962
 5440TIP3    H116326   5.827   5.247   2.983
 5440TIP3    H216327   5.816   5.106   3.035
 5441TIP3   OH216328   6.084   5.682   3.474
 5441TIP3    H116329   6.135   5.763   3.480
 5441TIP3    H216330   6.089   5.644   3.562
 5442TIP3   OH216331   5.657   5.625   2.899
 5442TIP3    H116332   5.569   5.623   2.937
 5442TIP3    H216333   5.678   5.719   2.893
 5443TIP3   OH216334   6.420   5.365   3.445
 5443TIP3    H116335   6.465   5.351   3.528
 5443TIP3    H216336   6.467   5.310   3.382
 5444TIP3   OH216337   6.325   5.206   2.371
 5444TIP3    H116338   6.399   5.185   2.428
 5444TIP3    H216339   6.249   5.208   2.429
 5445TIP3   OH216340   5.718   4.528   4.005
 5445TIP3    H116341   5.623   4.531   4.015
 5445TIP3    H216342   5.751   4.496   4.089
 5446TIP3   OH216343   0.037   5.133   2.536
 5446TIP3    H116344   0.022   5.103   2.626
 5446TIP3    H216345   0.099   5.205   2.545
 5447TIP3   OH216346   5.439   5.591   3.678
 5447TIP3    H116347   5.499   5.532   3.724
 5447TIP3    H216348   5.470   5.679   3.701
 5448TIP3   OH216349   5.723   5.243   2.351
 5448TIP3    H116350   5.747   5.158   2.316
 5448TIP3    H216351   5.701   5.227   2.442
 5449TIP3   OH216352   5.671   5.249   2.626
 5449TIP3    H116353   5.754   5.222   2.666
 5449TIP3    H216354   5.673   5.345   2.632
 5450TIP3   OH216355   5.411   4.946   2.829
 5450TIP3    H116356   5.343   4.991   2.878
 5450TIP3    H216357   5.429   5.003   2.754
 5451TIP3   OH216358   0.075   4.572   3.727
 5451TIP3    H116359   0.126   4.605   3.801
 5451TIP3    H216360   0.049   4.484   3.753
 5452TIP3   OH216361   6.460   4.332   2.885
 5452TIP3    H116362   6.434   4.346   2.794
 5452TIP3    H216363   6.488   4.418   2.915
 5453TIP3   OH216364   5.947   5.444   2.580
 5453TIP3    H116365   5.859   5.465   2.611
 5453TIP3    H216366   5.955   5.493   2.498
 5454TIP3   OH216367   6.120   4.524   2.974
 5454TIP3    H116368   6.184   4.590   2.949
 5454TIP3    H216369   6.135   4.511   3.068
 5455TIP3   OH216370   6.416   4.791   3.776
 5455TIP3    H116371   6.449   4.820   3.862
 5455TIP3    H216372   6.468   4.714   3.755
 5456TIP3   OH216373   6.268   4.228   3.076
 5456TIP3    H116374   6.243   4.307   3.125
 5456TIP3    H216375   6.341   4.256   3.021
 5457TIP3   OH216376   5.692   5.522   2.648
 5457TIP3    H116377   5.660   5.589   2.588
 5457TIP3    H216378   5.678   5.559   2.735
 5458TIP3   OH216379   5.788   4.239   2.876
 5458TIP3    H116380   5.777   4.330   2.905
 5458TIP3    H216381   5.883   4.224   2.881
 5459TIP3   OH216382   0.135   4.957   3.134
 5459TIP3    H116383   0.069   4.888   3.142
 5459TIP3    H216384   0.197   4.939   3.205
 5460TIP3   OH216385   5.421   5.129   2.617
 5460TIP3    H116386   5.494   5.191   2.627
 5460TIP3    H216387   5.453   5.066   2.552
 5461TIP3   OH216388   5.337   4.416   2.750
 5461TIP3    H116389   5.349   4.511   2.753
 5461TIP3    H216390   5.270   4.402   2.683
 5462TIP3   OH216391   5.726   4.154   3.620
 5462TIP3    H116392   5.701   4.118   3.535
 5462TIP3    H216393   5.721   4.079   3.680
 5463TIP3   OH216394   5.262   5.377   3.010
 5463TIP3    H116395   5.211   5.414   3.083
 5463TIP3    H216396   5.227   5.421   2.933
 5464TIP3   OH216397   5.900   5.432   2.247
 5464TIP3    H116398   5.849   5.355   2.274
 5464TIP3    H216399   5.979   5.396   2.208
 5465TIP3   OH216400   5.577   5.298   4.250
 5465TIP3    H116401   5.597   5.206   4.268
 5465TIP3    H216402   5.483   5.299   4.231
 5466TIP3   OH216403   5.552   4.938   2.476
 5466TIP3    H116404   5.607   4.915   2.551
 5466TIP3    H216405   5.613   4.950   2.403
 5467TIP3   OH216406   6.020   5.144   2.283
 5467TIP3    H116407   6.046   5.162   2.373
 5467TIP3    H216408   6.041   5.052   2.270
 5468TIP3   OH216409   5.701   5.039   4.265
 5468TIP3    H116410   5.766   4.987   4.217
 5468TIP3    H216411   5.720   5.021   4.358
 5469TIP3   OH216412   5.742   4.876   2.679
 5469TIP3    H116413   5.720   4.831   2.761
 5469TIP3    H216414   5.786   4.809   2.627
 5470TIP3   OH216415   6.030   4.933   3.911
 5470TIP3    H116416   5.947   4.981   3.916
 5470TIP3    H216417   6.077   4.974   3.839
 5471TIP3   OH216418   5.866   4.683   2.526
 5471TIP3    H116419   5.836   4.687   2.435
 5471TIP3    H216420   5.962   4.685   2.520
 5472TIP3   OH216421   6.154   4.719   4.035
 5472TIP3    H116422   6.150   4.644   3.975
 5472TIP3    H216423   6.115   4.791   3.986
 5473TIP3   OH216424   6.148   4.514   3.842
 5473TIP3    H116425   6.181   4.549   3.759
 5473TIP3    H216426   6.056   4.495   3.825
 5474TIP3   OH216427   6.182   5.051   3.719
 5474TIP3    H116428   6.262   5.040   3.667
 5474TIP3    H216429   6.128   5.110   3.666
 5475TIP3   OH216430   5.889   4.845   4.186
 5475TIP3    H116431   5.882   4.767   4.241
 5475TIP3    H216432   5.976   4.838   4.146
 5476TIP3   OH216433   6.259   4.281   3.938
 5476TIP3    H116434   6.219   4.363   3.908
 5476TIP3    H216435   6.192   4.215   3.922
 5477TIP3   OH216436   6.411   4.708   4.139
 5477TIP3    H116437   6.412   4.788   4.191
 5477TIP3    H216438   6.324   4.706   4.100
 5478TIP3   OH216439   0.133   4.665   3.978
 5478TIP3    H116440   0.060   4.674   4.040
 5478TIP3    H216441   0.211   4.678   4.031
 5479TIP3   OH216442   5.858   4.591   4.317
 5479TIP3    H116443   5.867   4.499   4.292
 5479TIP3    H216444   5.891   4.595   4.407
 5480TIP3   OH216445   6.376   4.240   4.176
 5480TIP3    H116446   6.435   4.170   4.150
 5480TIP3    H216447   6.326   4.260   4.097
 5481TIP3   OH216448   6.440   4.475   4.349
 5481TIP3    H116449   6.430   4.498   4.257
 5481TIP3    H216450   6.396   4.545   4.397
 5482TIP3   OH216451   5.660   5.732   2.470
 5482TIP3    H116452   5.744   5.704   2.434
 5482TIP3    H216453   5.612   5.769   2.396
 5483TIP3   OH216454   5.151   5.107   2.653
 5483TIP3    H116455   5.244   5.125   2.637
 5483TIP3    H216456   5.135   5.024   2.608
 5484TIP3   OH216457   5.057   5.710   3.085
 5484TIP3    H116458   4.994   5.651   3.044
 5484TIP3    H216459   5.105   5.654   3.147
 5485TIP3   OH216460   5.192   5.539   3.257
 5485TIP3    H116461   5.182   5.473   3.326
 5485TIP3    H216462   5.248   5.606   3.297
 5486TIP3   OH216463   5.594   4.654   4.291
 5486TIP3    H116464   5.690   4.648   4.293
 5486TIP3    H216465   5.564   4.570   4.326
 5487TIP3   OH216466   5.566   4.392   3.629
 5487TIP3    H116467   5.613   4.310   3.640
 5487TIP3    H216468   5.634   4.455   3.604
 5488TIP3   OH216469   5.380   4.627   3.708
 5488TIP3    H116470   5.419   4.559   3.653
 5488TIP3    H216471   5.441   4.637   3.780
 5489TIP3   OH216472   5.346   4.142   3.210
 5489TIP3    H116473   5.257   4.123   3.240
 5489TIP3    H216474   5.334   4.192   3.130
 5490TIP3   OH216475   5.564   4.186   4.021
 5490TIP3    H116476   5.518   4.182   4.105
 5490TIP3    H216477   5.505   4.234   3.963
 5491TIP3   OH216478   5.595   5.622   4.063
 5491TIP3    H116479   5.501   5.624   4.044
 5491TIP3    H216480   5.600   5.592   4.154
 5492TIP3   OH216481   5.782   5.615   3.628
 5492TIP3    H116482   5.705   5.659   3.592
 5492TIP3    H216483   5.856   5.669   3.598
 5493TIP3   OH216484   5.429   5.893   3.728
 5493TIP3    H116485   5.372   5.949   3.676
 5493TIP3    H216486   5.443   5.942   3.809
 5494TIP3   OH216487   5.605   5.780   3.529
 5494TIP3    H116488   5.546   5.849   3.562
 5494TIP3    H216489   5.679   5.828   3.492
 5495TIP3   OH216490   5.368   5.689   3.411
 5495TIP3    H116491   5.405   5.684   3.499
 5495TIP3    H216492   5.440   5.663   3.353
 5496TIP3   OH216493   5.568   5.576   3.264
 5496TIP3    H116494   5.581   5.499   3.320
 5496TIP3    H216495   5.653   5.621   3.266
 5497TIP3   OH216496   5.831   5.670   3.279
 5497TIP3    H116497   5.864   5.580   3.277
 5497TIP3    H216498   5.869   5.708   3.358
 5498TIP3   OH216499   6.350   4.360   3.411
 5498TIP3    H116500   6.303   4.291   3.458
 5498TIP3    H216501   6.429   4.316   3.378
 5499TIP3   OH216502   5.653   4.040   3.379
 5499TIP3    H116503   5.563   4.008   3.384
 5499TIP3    H216504   5.706   3.961   3.372
 5500TIP3   OH216505   5.471   3.941   3.034
 5500TIP3    H116506   5.494   3.990   2.954
 5500TIP3    H216507   5.433   4.007   3.092
 5501TIP3   OH216508   6.117   4.079   3.264
 5501TIP3    H116509   6.164   4.127   3.196
 5501TIP3    H216510   6.152   4.111   3.347
 5502TIP3   OH216511   0.062   4.218   3.340
 5502TIP3    H116512   0.080   4.234   3.247
 5502TIP3    H216513   0.043   4.124   3.344
 5503TIP3   OH216514   0.177   4.152   2.795
 5503TIP3    H116515   0.120   4.224   2.822
 5503TIP3    H216516   0.161   4.083   2.860
 5504TIP3   OH216517   5.155   5.511   2.797
 5504TIP3    H116518   5.072   5.474   2.767
 5504TIP3    H216519   5.155   5.601   2.766
 5505TIP3   OH216520   5.574   4.072   2.795
 5505TIP3    H116521   5.617   4.013   2.734
 5505TIP3    H216522   5.644   4.130   2.826
 5506TIP3   OH216523   6.062   4.270   2.891
 5506TIP3    H116524   6.120   4.222   2.949
 5506TIP3    H216525   6.078   4.362   2.911
 5507TIP3   OH216526   5.913   5.660   2.383
 5507TIP3    H116527   5.964   5.718   2.326
 5507TIP3    H216528   5.898   5.582   2.330
 5508TIP3   OH216529   5.872   4.314   4.262
 5508TIP3    H116530   5.833   4.246   4.318
 5508TIP3    H216531   5.961   4.322   4.295
 5509TIP3   OH216532   6.110   4.325   4.401
 5509TIP3    H116533   6.182   4.287   4.351
 5509TIP3    H216534   6.093   4.261   4.471
 5510TIP3   OH216535   5.248   5.502   2.444
 5510TIP3    H116536   5.253   5.504   2.539
 5510TIP3    H216537   5.328   5.457   2.417
 5511TIP3   OH216538   1.421   5.653   4.546
 5511TIP3    H116539   1.447   5.736   4.586
 5511TIP3    H216540   1.444   5.662   4.453
 5512TIP3   OH216541   0.791   5.829   4.564
 5512TIP3    H116542   0.836   5.746   4.583
 5512TIP3    H216543   0.746   5.813   4.481
 5513TIP3   OH216544   0.856   5.587   4.160
 5513TIP3    H116545   0.920   5.575   4.231
 5513TIP3    H216546   0.908   5.621   4.087
 5514TIP3   OH216547   1.498   5.866   4.713
 5514TIP3    H116548   1.407   5.898   4.711
 5514TIP3    H216549   1.533   5.901   4.794
 5515TIP3   OH216550   1.029   5.597   4.369
 5515TIP3    H116551   0.991   5.579   4.454
 5515TIP3    H216552   1.090   5.669   4.384
 5516TIP3   OH216553   1.218   5.543   4.711
 5516TIP3    H116554   1.133   5.568   4.676
 5516TIP3    H216555   1.281   5.570   4.644
 5517TIP3   OH216556   3.487   0.031   4.558
 5517TIP3    H116557   3.413   0.092   4.561
 5517TIP3    H216558   3.520   0.038   4.469
 5518TIP3   OH216559   0.813   6.055   3.977
 5518TIP3    H116560   0.803   6.125   4.042
 5518TIP3    H216561   0.888   6.004   4.007
 5519TIP3   OH216562   1.027   6.060   4.844
 5519TIP3    H116563   1.044   6.153   4.833
 5519TIP3    H216564   0.938   6.048   4.811
 5520TIP3   OH216565   0.668   5.880   3.804
 5520TIP3    H116566   0.706   5.960   3.842
 5520TIP3    H216567   0.656   5.900   3.712
 5521TIP3   OH216568   1.125   5.132   3.798
 5521TIP3    H116569   1.049   5.153   3.853
 5521TIP3    H216570   1.138   5.211   3.745
 5522TIP3   OH216571   1.284   6.045   4.984
 5522TIP3    H116572   1.196   6.051   4.946
 5522TIP3    H216573   1.300   5.951   4.992
 5523TIP3   OH216574   0.796   5.374   5.043
 5523TIP3    H116575   0.884   5.360   5.080
 5523TIP3    H216576   0.737   5.353   5.115
 5524TIP3   OH216577   1.007   5.796   4.956
 5524TIP3    H116578   0.998   5.824   5.047
 5524TIP3    H216579   1.008   5.877   4.906
 5525TIP3   OH216580   0.671   5.926   3.537
 5525TIP3    H116581   0.630   5.892   3.458
 5525TIP3    H216582   0.757   5.956   3.509
 5526TIP3   OH216583   0.574   5.809   4.064
 5526TIP3    H116584   0.573   5.861   3.984
 5526TIP3    H216585   0.606   5.723   4.037
 5527TIP3   OH216586   0.713   5.777   4.303
 5527TIP3    H116587   0.651   5.807   4.237
 5527TIP3    H216588   0.754   5.700   4.264
 5528TIP3   OH216589   0.768   6.021   4.755
 5528TIP3    H116590   0.781   5.954   4.687
 5528TIP3    H216591   0.681   6.003   4.789
 5529TIP3   OH216592   0.899   5.575   4.612
 5529TIP3    H116593   0.879   5.582   4.705
 5529TIP3    H216594   0.829   5.520   4.577
 5530TIP3   OH216595   3.291   0.209   4.508
 5530TIP3    H116596   3.267   0.292   4.466
 5530TIP3    H216597   3.218   0.150   4.488
 5531TIP3   OH216598   0.617   5.417   3.789
 5531TIP3    H116599   0.533   5.450   3.757
 5531TIP3    H216600   0.668   5.497   3.808
 5532TIP3   OH216601   0.744   5.637   3.879
 5532TIP3    H116602   0.837   5.653   3.895
 5532TIP3    H216603   0.711   5.719   3.844
 5533TIP3   OH216604   1.141   5.751   3.705
 5533TIP3    H116605   1.083   5.710   3.641
 5533TIP3    H216606   1.152   5.841   3.674
 5534TIP3   OH216607   3.110   0.021   4.455
 5534TIP3    H116608   3.020   0.036   4.484
 5534TIP3    H216609   3.103  -0.052   4.394
 5535TIP3   OH216610   2.987   0.038   3.734
 5535TIP3    H116611   2.987  -0.006   3.819
 5535TIP3    H216612   3.077   0.033   3.704
 5536TIP3   OH216613   0.832   5.594   4.871
 5536TIP3    H116614   0.890   5.658   4.913
 5536TIP3    H216615   0.815   5.530   4.940
 5537TIP3   OH216616   0.725   5.367   4.046
 5537TIP3    H116617   0.684   5.386   3.961
 5537TIP3    H216618   0.760   5.451   4.074
 5538TIP3   OH216619   0.602   5.267   4.268
 5538TIP3    H116620   0.621   5.337   4.331
 5538TIP3    H216621   0.639   5.298   4.186
 5539TIP3   OH216622   1.283   5.763   4.930
 5539TIP3    H116623   1.190   5.749   4.943
 5539TIP3    H216624   1.299   5.737   4.839
 5540TIP3   OH216625   0.947   5.924   4.309
 5540TIP3    H116626   0.869   5.871   4.325
 5540TIP3    H216627   1.013   5.886   4.367
 5541TIP3   OH216628   0.898   6.011   3.411
 5541TIP3    H116629   0.952   5.999   3.333
 5541TIP3    H216630   0.889   6.106   3.421
 5542TIP3   OH216631   3.572   0.907   0.223
 5542TIP3    H116632   3.482   0.935   0.235
 5542TIP3    H216633   3.569   0.811   0.232
 5543TIP3   OH216634   5.507   2.665   0.051
 5543TIP3    H116635   5.501   2.571   0.035
 5543TIP3    H216636   5.468   2.678   0.138
 5544TIP3   OH216637   3.252   0.055   3.702
 5544TIP3    H116638   3.308   0.131   3.688
 5544TIP3    H216639   3.294   0.008   3.774
 5545TIP3   OH216640   1.213   6.036   3.889
 5545TIP3    H116641   1.149   6.002   3.951
 5545TIP3    H216642   1.273   6.088   3.942
 5546TIP3   OH216643   1.135   5.973   3.545
 5546TIP3    H116644   1.053   5.960   3.498
 5546TIP3    H216645   1.121   6.052   3.597
 5547TIP3   OH216646   0.993   5.663   3.495
 5547TIP3    H116647   0.943   5.701   3.423
 5547TIP3    H216648   0.976   5.569   3.489
 5548TIP3   OH216649   1.035   5.925   4.057
 5548TIP3    H116650   1.032   5.831   4.036
 5548TIP3    H216651   1.014   5.929   4.150
 5549TIP3   OH216652   3.693   0.053   4.957
 5549TIP3    H116653   3.600   0.036   4.974
 5549TIP3    H216654   3.734  -0.033   4.960
 5550TIP3   OH216655   0.936   5.397   3.486
 5550TIP3    H116656   1.004   5.364   3.545
 5550TIP3    H216657   0.858   5.347   3.510
 5551TIP3   OH216658   1.017   5.669   3.943
 5551TIP3    H116659   1.060   5.585   3.956
 5551TIP3    H216660   1.059   5.705   3.864
 5552TIP3   OH216661   1.161   5.823   4.448
 5552TIP3    H116662   1.242   5.846   4.402
 5552TIP3    H216663   1.175   5.852   4.538
 5553TIP3   OH216664   1.229   5.940   4.687
 5553TIP3    H116665   1.157   5.974   4.741
 5553TIP3    H216666   1.261   6.016   4.639
 5554TIP3   OH216667   1.694   5.559   5.220
 5554TIP3    H116668   1.755   5.501   5.174
 5554TIP3    H216669   1.653   5.610   5.151
 5555TIP3   OH216670   1.120   5.418   3.987
 5555TIP3    H116671   1.163   5.403   4.071
 5555TIP3    H216672   1.058   5.345   3.978
 5556TIP3   OH216673   1.546   5.695   5.040
 5556TIP3    H116674   1.478   5.742   5.088
 5556TIP3    H216675   1.497   5.639   4.979
 5557TIP3   OH216676   1.171   5.339   3.626
 5557TIP3    H116677   1.213   5.277   3.567
 5557TIP3    H216678   1.231   5.414   3.629
 5558TIP3   OH216679   1.441   5.463   4.914
 5558TIP3    H116680   1.359   5.462   4.866
 5558TIP3    H216681   1.476   5.374   4.903
 5559TIP3   OH216682   0.707   5.400   4.516
 5559TIP3    H116683   0.647   5.332   4.547
 5559TIP3    H216684   0.777   5.352   4.473
 5560TIP3   OH216685   1.170   5.280   4.444
 5560TIP3    H116686   1.211   5.329   4.373
 5560TIP3    H216687   1.076   5.300   4.437
 5561TIP3   OH216688   1.276   5.367   4.208
 5561TIP3    H116689   1.346   5.309   4.178
 5561TIP3    H216690   1.312   5.455   4.195
 5562TIP3   OH216691   0.897   5.248   4.400
 5562TIP3    H116692   0.922   5.208   4.317
 5562TIP3    H216693   0.885   5.174   4.460
 5563TIP3   OH216694   0.937   5.205   3.983
 5563TIP3    H116695   0.859   5.257   4.003
 5563TIP3    H216696   0.920   5.120   4.024
 5564TIP3   OH216697   5.529   2.392   0.023
 5564TIP3    H116698   5.554   2.364   0.111
 5564TIP3    H216699   5.610   2.390  -0.027
 5565TIP3   OH216700   4.563   0.209   3.646
 5565TIP3    H116701   4.582   0.297   3.613
 5565TIP3    H216702   4.512   0.168   3.575
 5566TIP3   OH216703   4.595   0.179   3.970
 5566TIP3    H116704   4.614   0.175   4.063
 5566TIP3    H216705   4.528   0.111   3.956
 5567TIP3   OH216706   3.881   0.079   4.351
 5567TIP3    H116707   3.915   0.018   4.417
 5567TIP3    H216708   3.893   0.166   4.390
 5568TIP3   OH216709   1.385   5.838   3.822
 5568TIP3    H116710   1.341   5.920   3.847
 5568TIP3    H216711   1.314   5.781   3.794
 5569TIP3   OH216712   3.578   0.015   4.047
 5569TIP3    H116713   3.621  -0.066   4.076
 5569TIP3    H216714   3.650   0.069   4.014
 5570TIP3   OH216715   4.432   0.387   4.040
 5570TIP3    H116716   4.519   0.354   4.018
 5570TIP3    H216717   4.444   0.481   4.048
 5571TIP3   OH216718   3.225   5.929   4.027
 5571TIP3    H116719   3.249   5.996   4.091
 5571TIP3    H216720   3.184   5.979   3.956
 5572TIP3   OH216721   2.621   6.077   4.063
 5572TIP3    H116722   2.653   5.989   4.084
 5572TIP3    H216723   2.575   6.066   3.980
 5573TIP3   OH216724   1.961   5.742   4.021
 5573TIP3    H116725   1.938   5.814   3.963
 5573TIP3    H216726   1.907   5.669   3.993
 5574TIP3   OH216727   2.656   5.838   3.651
 5574TIP3    H116728   2.722   5.828   3.720
 5574TIP3    H216729   2.704   5.874   3.577
 5575TIP3   OH216730   1.575   5.941   4.139
 5575TIP3    H116731   1.659   5.940   4.186
 5575TIP3    H216732   1.593   5.892   4.059
 5576TIP3   OH216733   2.046   6.132   3.886
 5576TIP3    H116734   2.131   6.110   3.925
 5576TIP3    H216735   2.004   6.047   3.871
 5577TIP3   OH216736   5.448  -0.006   4.217
 5577TIP3    H116737   5.356   0.021   4.217
 5577TIP3    H216738   5.483   0.029   4.299
 5578TIP3   OH216739   1.941   5.735   4.468
 5578TIP3    H116740   1.889   5.771   4.396
 5578TIP3    H216741   1.886   5.747   4.546
 5579TIP3   OH216742   4.179   0.299   4.131
 5579TIP3    H116743   4.186   0.348   4.212
 5579TIP3    H216744   4.252   0.331   4.078
 5580TIP3   OH216745   2.826   5.849   3.864
 5580TIP3    H116746   2.783   5.822   3.945
 5580TIP3    H216747   2.879   5.924   3.888
 5581TIP3   OH216748   1.824   5.845   4.242
 5581TIP3    H116749   1.878   5.919   4.270
 5581TIP3    H216750   1.872   5.806   4.169
 5582TIP3   OH216751   3.007   5.810   4.200
 5582TIP3    H116752   2.918   5.828   4.171
 5582TIP3    H216753   3.062   5.834   4.125
 5583TIP3   OH216754   2.282   5.436   4.194
 5583TIP3    H116755   2.271   5.344   4.216
 5583TIP3    H216756   2.207   5.479   4.235
 5584TIP3   OH216757   4.407   0.044   3.482
 5584TIP3    H116758   4.314   0.023   3.472
 5584TIP3    H216759   4.438   0.061   3.394
 5585TIP3   OH216760   2.199   5.963   3.182
 5585TIP3    H116761   2.243   6.040   3.218
 5585TIP3    H216762   2.265   5.922   3.126
 5586TIP3   OH216763   5.240   0.279   4.035
 5586TIP3    H116764   5.175   0.350   4.037
 5586TIP3    H216765   5.288   0.294   3.953
 5587TIP3   OH216766   4.766   0.140   3.448
 5587TIP3    H116767   4.713   0.152   3.526
 5587TIP3    H216768   4.852   0.114   3.481
 5588TIP3   OH216769   4.957   0.186   4.316
 5588TIP3    H116770   4.957   0.281   4.327
 5588TIP3    H216771   4.874   0.166   4.273
 5589TIP3   OH216772   3.987   0.131   3.812
 5589TIP3    H116773   3.937   0.074   3.755
 5589TIP3    H216774   4.067   0.082   3.832
 5590TIP3   OH216775   4.087   0.050   4.128
 5590TIP3    H116776   4.123   0.030   4.042
 5590TIP3    H216777   4.110   0.142   4.143
 5591TIP3   OH216778   4.604   0.002   3.262
 5591TIP3    H116779   4.656   0.068   3.308
 5591TIP3    H216780   4.612   0.025   3.169
 5592TIP3   OH216781   3.988   0.233   4.622
 5592TIP3    H116782   4.034   0.268   4.697
 5592TIP3    H216783   3.915   0.183   4.659
 5593TIP3   OH216784   2.923   5.391   3.297
 5593TIP3    H116785   2.843   5.410   3.346
 5593TIP3    H216786   2.936   5.467   3.241
 5594TIP3   OH216787   1.688   6.084   3.615
 5594TIP3    H116788   1.616   6.112   3.558
 5594TIP3    H216789   1.658   6.003   3.655
 5595TIP3   OH216790   3.735   0.287   4.467
 5595TIP3    H116791   3.682   0.366   4.479
 5595TIP3    H216792   3.754   0.257   4.556
 5596TIP3   OH216793   5.230   0.151   4.516
 5596TIP3    H116794   5.142   0.174   4.486
 5596TIP3    H216795   5.236   0.056   4.501
 5597TIP3   OH216796   2.048   5.525   4.321
 5597TIP3    H116797   1.964   5.492   4.289
 5597TIP3    H216798   2.025   5.604   4.371
 5598TIP3   OH216799   2.587   5.641   4.518
 5598TIP3    H116800   2.656   5.617   4.580
 5598TIP3    H216801   2.505   5.625   4.565
 5599TIP3   OH216802   2.817   6.072   4.437
 5599TIP3    H116803   2.768   6.066   4.519
 5599TIP3    H216804   2.794   6.157   4.401
 5600TIP3   OH216805   4.633   0.049   2.999
 5600TIP3    H116806   4.609   0.008   2.916
 5600TIP3    H216807   4.721   0.085   2.984
 5601TIP3   OH216808   2.196   5.567   3.289
 5601TIP3    H116809   2.160   5.574   3.378
 5601TIP3    H216810   2.157   5.487   3.254
 5602TIP3   OH216811   1.991   6.038   4.351
 5602TIP3    H116812   1.945   6.062   4.431
 5602TIP3    H216813   1.961   6.102   4.286
 5603TIP3   OH216814   1.871   5.929   3.845
 5603TIP3    H116815   1.782   5.909   3.875
 5603TIP3    H216816   1.877   5.890   3.758
 5604TIP3   OH216817   2.372   5.970   3.592
 5604TIP3    H116818   2.328   6.047   3.556
 5604TIP3    H216819   2.430   5.940   3.523
 5605TIP3   OH216820   4.718   0.146   4.654
 5605TIP3    H116821   4.692   0.078   4.716
 5605TIP3    H216822   4.810   0.162   4.675
 5606TIP3   OH216823   2.515   6.015   3.820
 5606TIP3    H116824   2.445   6.044   3.762
 5606TIP3    H216825   2.555   5.941   3.775
 5607TIP3   OH216826   1.804   6.056   4.562
 5607TIP3    H116827   1.749   6.109   4.619
 5607TIP3    H216828   1.802   5.969   4.601
 5608TIP3   OH216829   1.855   5.553   3.257
 5608TIP3    H116830   1.846   5.554   3.352
 5608TIP3    H216831   1.782   5.606   3.225
 5609TIP3   OH216832   1.404   5.591   4.128
 5609TIP3    H116833   1.476   5.625   4.181
 5609TIP3    H216834   1.445   5.563   4.046
 5610TIP3   OH216835   1.334   5.563   3.642
 5610TIP3    H116836   1.378   5.596   3.564
 5610TIP3    H216837   1.268   5.629   3.662
 5611TIP3   OH216838   4.700   0.143   4.223
 5611TIP3    H116839   4.734   0.075   4.164
 5611TIP3    H216840   4.667   0.095   4.298
 5612TIP3   OH216841   2.224   5.732   3.909
 5612TIP3    H116842   2.145   5.733   3.963
 5612TIP3    H216843   2.295   5.726   3.972
 5613TIP3   OH216844   1.638   5.807   3.910
 5613TIP3    H116845   1.549   5.808   3.873
 5613TIP3    H216846   1.667   5.717   3.899
 5614TIP3   OH216847   1.878   5.804   3.606
 5614TIP3    H116848   1.971   5.819   3.587
 5614TIP3    H216849   1.833   5.826   3.524
 5615TIP3   OH216850   2.689   5.814   4.112
 5615TIP3    H116851   2.668   5.833   4.204
 5615TIP3    H216852   2.619   5.757   4.083
 5616TIP3   OH216853   1.734   5.832   3.376
 5616TIP3    H116854   1.667   5.789   3.325
 5616TIP3    H216855   1.804   5.850   3.314
 5617TIP3   OH216856   2.282   6.070   4.009
 5617TIP3    H116857   2.351   6.013   3.974
 5617TIP3    H216858   2.272   6.042   4.100
 5618TIP3   OH216859   1.779   5.562   3.904
 5618TIP3    H116860   1.747   5.488   3.955
 5618TIP3    H216861   1.810   5.524   3.822
 5619TIP3   OH216862   2.254   5.999   4.279
 5619TIP3    H116863   2.164   6.023   4.303
 5619TIP3    H216864   2.309   6.053   4.335
 5620TIP3   OH216865   4.084   0.258   3.295
 5620TIP3    H116866   4.062   0.190   3.359
 5620TIP3    H216867   4.125   0.328   3.347
 5621TIP3   OH216868   5.044   0.467   3.995
 5621TIP3    H116869   5.006   0.542   3.949
 5621TIP3    H216870   4.981   0.396   3.983
 5622TIP3   OH216871   2.450   5.660   3.280
 5622TIP3    H116872   2.356   5.642   3.281
 5622TIP3    H216873   2.456   5.754   3.299
 5623TIP3   OH216874   2.526   5.906   3.373
 5623TIP3    H116875   2.621   5.918   3.377
 5623TIP3    H216876   2.494   5.982   3.325
 5624TIP3   OH216877   3.829   0.126   4.043
 5624TIP3    H116878   3.868   0.141   3.957
 5624TIP3    H216879   3.901   0.092   4.097
 5625TIP3   OH216880   3.759   0.088   4.684
 5625TIP3    H116881   3.737   0.105   4.776
 5625TIP3    H216882   3.682   0.043   4.650
 5626TIP3   OH216883   4.472   0.262   4.704
 5626TIP3    H116884   4.412   0.188   4.691
 5626TIP3    H216885   4.556   0.231   4.672
 5627TIP3   OH216886   2.942   6.007   3.193
 5627TIP3    H116887   2.882   5.963   3.132
 5627TIP3    H216888   2.951   6.095   3.159
 5628TIP3   OH216889   4.886   0.256   3.942
 5628TIP3    H116890   4.791   0.268   3.936
 5628TIP3    H216891   4.905   0.187   3.878
 5629TIP3   OH216892   1.374   5.967   3.421
 5629TIP3    H116893   1.413   6.044   3.462
 5629TIP3    H216894   1.288   5.959   3.462
 5630TIP3   OH216895   1.771   5.805   4.676
 5630TIP3    H116896   1.675   5.814   4.676
 5630TIP3    H216897   1.789   5.745   4.748
 5631TIP3   OH216898   4.793   0.317   3.243
 5631TIP3    H116899   4.784   0.256   3.317
 5631TIP3    H216900   4.882   0.300   3.210
 5632TIP3   OH216901   3.607   0.089   3.503
 5632TIP3    H116902   3.555   0.167   3.522
 5632TIP3    H216903   3.662   0.115   3.429
 5633TIP3   OH216904   2.626   5.873   4.373
 5633TIP3    H116905   2.700   5.917   4.414
 5633TIP3    H216906   2.610   5.796   4.427
 5634TIP3   OH216907   2.504   5.623   3.555
 5634TIP3    H116908   2.484   5.639   3.463
 5634TIP3    H216909   2.546   5.703   3.585
 5635TIP3   OH216910   2.158   5.815   3.652
 5635TIP3    H116911   2.231   5.870   3.627
 5635TIP3    H216912   2.173   5.796   3.745
 5636TIP3   OH216913   2.463   6.115   4.433
 5636TIP3    H116914   2.490   6.158   4.514
 5636TIP3    H216915   2.508   6.030   4.436
 5637TIP3   OH216916   2.320   5.525   3.739
 5637TIP3    H116917   2.297   5.602   3.791
 5637TIP3    H216918   2.387   5.555   3.678
 5638TIP3   OH216919   1.835   5.536   3.535
 5638TIP3    H116920   1.824   5.625   3.569
 5638TIP3    H216921   1.929   5.520   3.540
 5639TIP3   OH216922   3.076   6.006   4.428
 5639TIP3    H116923   2.982   6.021   4.439
 5639TIP3    H216924   3.083   5.954   4.349
 5640TIP3   OH216925   4.915   0.035   3.793
 5640TIP3    H116926   4.830  -0.004   3.809
 5640TIP3    H216927   4.972  -0.000   3.861
 5641TIP3   OH216928   1.395   5.697   3.414
 5641TIP3    H116929   1.408   5.791   3.426
 5641TIP3    H216930   1.322   5.690   3.352
 5642TIP3   OH216931   1.786   5.444   4.279
 5642TIP3    H116932   1.756   5.410   4.195
 5642TIP3    H216933   1.771   5.372   4.340
 5643TIP3   OH216934   3.746   0.072   3.072
 5643TIP3    H116935   3.756   0.087   3.166
 5643TIP3    H216936   3.824   0.109   3.033
 5644TIP3   OH216937   4.312   0.584   4.756
 5644TIP3    H116938   4.362   0.606   4.677
 5644TIP3    H216939   4.372   0.532   4.809
 5645TIP3   OH216940   4.904   0.454   4.313
 5645TIP3    H116941   4.968   0.505   4.264
 5645TIP3    H216942   4.861   0.517   4.370
 5646TIP3   OH216943   3.952   0.165   4.914
 5646TIP3    H116944   3.968   0.073   4.932
 5646TIP3    H216945   3.861   0.179   4.939
 5647TIP3   OH216946   1.924   6.134   3.445
 5647TIP3    H116947   1.849   6.107   3.498
 5647TIP3    H216948   1.916   6.083   3.365
 5648TIP3   OH216949   4.250   0.103   4.582
 5648TIP3    H116950   4.169   0.153   4.588
 5648TIP3    H216951   4.293   0.136   4.503
 5649TIP3   OH216952   1.935   5.880   3.206
 5649TIP3    H116953   1.901   5.916   3.124
 5649TIP3    H216954   2.028   5.904   3.206
 5650TIP3   OH216955   4.774   0.447   4.749
 5650TIP3    H116956   4.868   0.462   4.760
 5650TIP3    H216957   4.757   0.364   4.794
 5651TIP3   OH216958   4.869   0.139   2.898
 5651TIP3    H116959   4.924   0.132   2.821
 5651TIP3    H216960   4.843   0.231   2.901
 5652TIP3   OH216961   2.206   6.020   4.693
 5652TIP3    H116962   2.201   5.943   4.635
 5652TIP3    H216963   2.157   6.088   4.647
 5653TIP3   OH216964   2.201   5.814   4.501
 5653TIP3    H116965   2.225   5.856   4.418
 5653TIP3    H216966   2.109   5.791   4.491
 5654TIP3   OH216967   4.392   0.208   4.374
 5654TIP3    H116968   4.480   0.211   4.337
 5654TIP3    H216969   4.352   0.291   4.348
 5655TIP3   OH216970   4.989   0.175   4.751
 5655TIP3    H116971   5.042   0.097   4.768
 5655TIP3    H216972   5.043   0.228   4.692
 5656TIP3   OH216973   5.054   0.374   4.538
 5656TIP3    H116974   4.978   0.409   4.492
 5656TIP3    H216975   5.128   0.400   4.483
 5657TIP3   OH216976   2.089   6.108   4.950
 5657TIP3    H116977   2.014   6.051   4.967
 5657TIP3    H216978   2.105   6.098   4.856
 5658TIP3   OH216979   2.323   5.586   4.604
 5658TIP3    H116980   2.282   5.665   4.570
 5658TIP3    H216981   2.258   5.517   4.590
 5659TIP3   OH216982   2.455   6.061   4.798
 5659TIP3    H116983   2.430   6.064   4.891
 5659TIP3    H216984   2.374   6.041   4.752
 5660TIP3   OH216985   2.689   6.007   4.662
 5660TIP3    H116986   2.613   6.009   4.720
 5660TIP3    H216987   2.763   5.986   4.720
 5661TIP3   OH216988   2.929   5.974   4.807
 5661TIP3    H116989   2.943   5.880   4.819
 5661TIP3    H216990   2.920   6.009   4.895
 5662TIP3   OH216991   1.905   5.902   5.002
 5662TIP3    H116992   1.909   5.813   4.966
 5662TIP3    H216993   1.937   5.893   5.092
 5663TIP3   OH216994   2.398   5.569   4.867
 5663TIP3    H116995   2.468   5.504   4.857
 5663TIP3    H216996   2.364   5.581   4.779
 5664TIP3   OH216997   2.496   5.787   5.007
 5664TIP3    H116998   2.469   5.714   4.952
 5664TIP3    H216999   2.425   5.850   5.000
 5665TIP3   OH217000   5.054   0.306   3.185
 5665TIP3    H117001   5.102   0.388   3.173
 5665TIP3    H217002   5.098   0.264   3.259
 5666TIP3   OH217003   5.181   0.174   3.383
 5666TIP3    H117004   5.116   0.136   3.442
 5666TIP3    H217005   5.220   0.246   3.433
 5667TIP3   OH217006   5.100   0.095   3.032
 5667TIP3    H117007   5.019   0.083   2.982
 5667TIP3    H217008   5.087   0.176   3.081
 5668TIP3   OH217009   2.787   5.919   2.989
 5668TIP3    H117010   2.753   5.956   2.908
 5668TIP3    H217011   2.769   5.825   2.983
 5669TIP3   OH217012   5.004   0.051   3.543
 5669TIP3    H117013   4.997  -0.042   3.520
 5669TIP3    H217014   4.981   0.054   3.635
 5670TIP3   OH217015   3.606   0.061   4.317
 5670TIP3    H117016   3.595   0.058   4.222
 5670TIP3    H217017   3.700   0.073   4.330
 5671TIP3   OH217018   5.242   0.466   4.365
 5671TIP3    H117019   5.318   0.409   4.367
 5671TIP3    H217020   5.235   0.495   4.274
 5672TIP3   OH217021   5.437   0.282   4.408
 5672TIP3    H117022   5.363   0.239   4.451
 5672TIP3    H217023   5.513   0.227   4.429
 5673TIP3   OH217024   2.735   5.653   2.977
 5673TIP3    H117025   2.797   5.613   3.038
 5673TIP3    H217026   2.653   5.605   2.991
 5674TIP3   OH217027   2.809   5.926   3.427
 5674TIP3    H117028   2.847   5.839   3.439
 5674TIP3    H217029   2.852   5.960   3.348
 5675TIP3   OH217030   2.956   6.073   3.953
 5675TIP3    H117031   3.030   6.110   3.905
 5675TIP3    H217032   2.962   6.111   4.040
 5676TIP3   OH217033   5.181   0.073   4.191
 5676TIP3    H117034   5.104   0.100   4.241
 5676TIP3    H217035   5.203   0.150   4.138
 5677TIP3   OH217036   1.640   5.934   4.944
 5677TIP3    H117037   1.734   5.935   4.962
 5677TIP3    H217038   1.609   5.851   4.981
 5678TIP3   OH217039   3.476   5.850   4.710
 5678TIP3    H117040   3.540   5.787   4.677
 5678TIP3    H217041   3.444   5.895   4.632
 5679TIP3   OH217042   2.911   5.675   3.476
 5679TIP3    H117043   2.954   5.656   3.560
 5679TIP3    H217044   2.846   5.605   3.466
 5680TIP3   OH217045   1.613   5.661   4.297
 5680TIP3    H117046   1.669   5.584   4.304
 5680TIP3    H217047   1.673   5.734   4.283
 5681TIP3   OH217048   1.398   5.913   4.350
 5681TIP3    H117049   1.455   5.892   4.277
 5681TIP3    H217050   1.405   6.008   4.359
 5682TIP3   OH217051   3.337   5.958   4.504
 5682TIP3    H117052   3.252   5.998   4.522
 5682TIP3    H217053   3.317   5.880   4.454
 5683TIP3   OH217054   2.974   5.592   3.119
 5683TIP3    H117055   3.010   5.530   3.055
 5683TIP3    H217056   3.030   5.669   3.111
 5684TIP3   OH217057   1.392   5.428   3.870
 5684TIP3    H117058   1.304   5.420   3.908
 5684TIP3    H217059   1.379   5.484   3.793
 5685TIP3   OH217060   1.617   5.527   4.700
 5685TIP3    H117061   1.562   5.509   4.776
 5685TIP3    H217062   1.556   5.552   4.631
 5686TIP3   OH217063   3.250   5.711   4.402
 5686TIP3    H117064   3.160   5.695   4.375
 5686TIP3    H217065   3.292   5.625   4.400
 5687TIP3   OH217066   2.462   5.644   4.042
 5687TIP3    H117067   2.420   5.572   4.090
 5687TIP3    H217068   2.528   5.601   3.988
 5688TIP3   OH217069   2.961   5.546   3.932
 5688TIP3    H117070   2.995   5.593   3.856
 5688TIP3    H217071   2.866   5.561   3.929
 5689TIP3   OH217072   3.074   5.624   3.695
 5689TIP3    H117073   3.140   5.562   3.664
 5689TIP3    H217074   3.116   5.710   3.684
 5690TIP3   OH217075   1.698   5.336   4.040
 5690TIP3    H117076   1.608   5.305   4.048
 5690TIP3    H217077   1.751   5.256   4.037
 5691TIP3   OH217078   1.496   5.230   3.690
 5691TIP3    H117079   1.527   5.283   3.617
 5691TIP3    H217080   1.466   5.294   3.755
 5692TIP3   OH217081   2.162   5.381   3.928
 5692TIP3    H117082   2.212   5.428   3.861
 5692TIP3    H217083   2.198   5.413   4.011
 5693TIP3   OH217084   2.678   5.528   3.906
 5693TIP3    H117085   2.680   5.491   3.818
 5693TIP3    H217086   2.677   5.451   3.964
 5694TIP3   OH217087   2.725   5.468   3.475
 5694TIP3    H117088   2.643   5.514   3.497
 5694TIP3    H217089   2.714   5.381   3.513
 5695TIP3   OH217090   1.619   5.373   3.458
 5695TIP3    H117091   1.663   5.313   3.398
 5695TIP3    H217092   1.688   5.430   3.491
 5696TIP3   OH217093   2.110   5.566   3.552
 5696TIP3    H117094   2.168   5.515   3.607
 5696TIP3    H217095   2.122   5.656   3.580
 5697TIP3   OH217096   1.913   5.626   4.932
 5697TIP3    H117097   1.877   5.552   4.980
 5697TIP3    H217098   2.005   5.629   4.957
 5698TIP3   OH217099   2.168   5.614   5.041
 5698TIP3    H117100   2.247   5.600   4.989
 5698TIP3    H217101   2.164   5.539   5.100
 5699TIP3   OH217102   2.993   5.706   4.840
 5699TIP3    H117103   3.010   5.676   4.929
 5699TIP3    H217104   3.078   5.701   4.796
 5700TIP3   OH217105   6.373   0.482   3.100
 5700TIP3    H117106   6.337   0.565   3.131
 5700TIP3    H217107   6.303   0.444   3.046
 5701TIP3   OH217108   6.384   0.468   3.476
 5701TIP3    H117109   6.415   0.456   3.566
 5701TIP3    H217110   6.332   0.389   3.458
 5702TIP3   OH217111   5.673   0.334   3.828
 5702TIP3    H117112   5.716   0.273   3.888
 5702TIP3    H217113   5.667   0.416   3.877
 5703TIP3   OH217114   3.184   6.103   3.319
 5703TIP3    H117115   3.138   6.183   3.342
 5703TIP3    H217116   3.117   6.047   3.280
 5704TIP3   OH217117   5.385   0.292   3.544
 5704TIP3    H117118   5.408   0.205   3.578
 5704TIP3    H217119   5.466   0.323   3.502
 5705TIP3   OH217120   6.210   0.672   3.459
 5705TIP3    H117121   6.271   0.599   3.449
 5705TIP3    H217122   6.260   0.737   3.508
 5706TIP3   OH217123   0.625   0.033   3.527
 5706TIP3    H117124   0.675   0.102   3.571
 5706TIP3    H217125   0.687  -0.006   3.466
 5707TIP3   OH217126   0.061   0.206   3.550
 5707TIP3    H117127   0.109   0.126   3.570
 5707TIP3    H217128   0.034   0.196   3.459
 5708TIP3   OH217129   4.445   6.100   3.134
 5708TIP3    H117130   4.511   6.086   3.201
 5708TIP3    H217131   4.494   6.132   3.058
 5709TIP3   OH217132   5.534   0.073   3.639
 5709TIP3    H117133   5.609   0.130   3.659
 5709TIP3    H217134   5.561   0.025   3.561
 5710TIP3   OH217135   5.997   0.254   3.376
 5710TIP3    H117136   6.088   0.242   3.401
 5710TIP3    H217137   5.963   0.165   3.368
 5711TIP3   OH217138   0.708   0.250   3.686
 5711TIP3    H117139   0.617   0.281   3.678
 5711TIP3    H217140   0.749   0.311   3.747
 5712TIP3   OH217141   5.977   0.565   3.618
 5712TIP3    H117142   5.914   0.637   3.624
 5712TIP3    H217143   6.039   0.593   3.551
 5713TIP3   OH217144   4.615   6.100   3.345
 5713TIP3    H117145   4.585   6.071   3.430
 5713TIP3    H217146   4.668   6.178   3.364
 5714TIP3   OH217147   3.678   6.056   3.648
 5714TIP3    H117148   3.712   6.113   3.717
 5714TIP3    H217149   3.692   6.106   3.567
 5715TIP3   OH217150   4.781   6.043   3.690
 5715TIP3    H117151   4.696   6.072   3.657
 5715TIP3    H217152   4.845   6.079   3.629
 5716TIP3   OH217153   4.103   5.678   3.662
 5716TIP3    H117154   4.100   5.584   3.679
 5716TIP3    H217155   4.065   5.717   3.740
 5717TIP3   OH217156   6.196   0.361   2.916
 5717TIP3    H117157   6.115   0.373   2.866
 5717TIP3    H217158   6.263   0.344   2.849
 5718TIP3   OH217159   6.154   0.149   2.621
 5718TIP3    H117160   6.214   0.212   2.662
 5718TIP3    H217161   6.212   0.091   2.571
 5719TIP3   OH217162   0.507   0.557   3.495
 5719TIP3    H117163   0.484   0.636   3.543
 5719TIP3    H217164   0.534   0.589   3.408
 5720TIP3   OH217165   0.047   0.421   2.899
 5720TIP3    H117166  -0.001   0.450   2.977
 5720TIP3    H217167   0.130   0.389   2.932
 5721TIP3   OH217168   0.236   0.454   3.800
 5721TIP3    H117169   0.220   0.540   3.838
 5721TIP3    H217170   0.154   0.431   3.756
 5722TIP3   OH217171   5.802   0.419   3.285
 5722TIP3    H117172   5.737   0.365   3.240
 5722TIP3    H217173   5.871   0.358   3.309
 5723TIP3   OH217174   5.904   0.307   3.628
 5723TIP3    H117175   5.936   0.290   3.539
 5723TIP3    H217176   5.930   0.397   3.646
 5724TIP3   OH217177   6.381   0.295   2.726
 5724TIP3    H117178   6.444   0.345   2.778
 5724TIP3    H217179   6.406   0.311   2.635
 5725TIP3   OH217180   5.807   0.446   4.086
 5725TIP3    H117181   5.822   0.534   4.119
 5725TIP3    H217182   5.721   0.421   4.121
 5726TIP3   OH217183   4.719   5.650   2.781
 5726TIP3    H117184   4.640   5.671   2.830
 5726TIP3    H217185   4.732   5.725   2.723
 5727TIP3   OH217186   5.637   0.221   3.106
 5727TIP3    H117187   5.588   0.229   3.025
 5727TIP3    H217188   5.607   0.139   3.145
 5728TIP3   OH217189   5.563   0.550   3.949
 5728TIP3    H117190   5.490   0.610   3.938
 5728TIP3    H217191   5.556   0.520   4.040
 5729TIP3   OH217192   0.479   0.494   3.937
 5729TIP3    H117193   0.396   0.463   3.901
 5729TIP3    H217194   0.527   0.414   3.959
 5730TIP3   OH217195   4.381   5.902   4.005
 5730TIP3    H117196   4.455   5.877   4.062
 5730TIP3    H217197   4.304   5.883   4.058
 5731TIP3   OH217198   0.282   0.202   3.919
 5731TIP3    H117199   0.240   0.195   4.005
 5731TIP3    H217200   0.250   0.285   3.884
 5732TIP3   OH217201   6.468   0.334   2.477
 5732TIP3    H117202   6.428   0.304   2.396
 5732TIP3    H217203   6.549   0.377   2.449
 5733TIP3   OH217204   3.985   5.835   2.769
 5733TIP3    H117205   3.953   5.837   2.859
 5733TIP3    H217206   3.954   5.751   2.734
 5734TIP3   OH217207   5.950   0.126   3.824
 5734TIP3    H117208   5.894   0.144   3.900
 5734TIP3    H217209   5.931   0.197   3.763
 5735TIP3   OH217210   5.853   0.020   3.366
 5735TIP3    H117211   5.761   0.005   3.387
 5735TIP3    H217212   5.862  -0.008   3.275
 5736TIP3   OH217213   6.314   0.143   3.060
 5736TIP3    H117214   6.273   0.217   3.015
 5736TIP3    H217215   6.376   0.108   2.996
 5737TIP3   OH217216   0.023   0.403   4.133
 5737TIP3    H117217  -0.002   0.339   4.198
 5737TIP3    H217218   0.118   0.411   4.142
 5738TIP3   OH217219   6.473   0.155   3.293
 5738TIP3    H117220   6.409   0.180   3.227
 5738TIP3    H217221   6.521   0.082   3.254
 5739TIP3   OH217222   5.778   0.171   4.027
 5739TIP3    H117223   5.785   0.241   4.091
 5739TIP3    H217224   5.758   0.093   4.078
 5740TIP3   OH217225   3.654   5.814   2.745
 5740TIP3    H117226   3.642   5.809   2.840
 5740TIP3    H217227   3.572   5.851   2.712
 5741TIP3   OH217228   3.227   5.834   3.609
 5741TIP3    H117229   3.268   5.919   3.594
 5741TIP3    H217230   3.213   5.798   3.522
 5742TIP3   OH217231   3.134   5.820   3.124
 5742TIP3    H117232   3.179   5.853   3.047
 5742TIP3    H217233   3.066   5.885   3.142
 5743TIP3   OH217234   6.476   0.393   3.723
 5743TIP3    H117235   6.507   0.326   3.662
 5743TIP3    H217236   6.448   0.344   3.800
 5744TIP3   OH217237   4.037   6.004   3.375
 5744TIP3    H117238   3.972   6.038   3.437
 5744TIP3    H217239   4.113   5.985   3.430
 5745TIP3   OH217240   3.431   6.056   3.416
 5745TIP3    H117241   3.346   6.070   3.374
 5745TIP3    H217242   3.462   5.973   3.381
 5746TIP3   OH217243   3.679   6.067   3.101
 5746TIP3    H117244   3.772   6.080   3.084
 5746TIP3    H217245   3.636   6.093   3.019
 5747TIP3   OH217246   4.485   6.076   3.601
 5747TIP3    H117247   4.462   6.093   3.693
 5747TIP3    H217248   4.417   6.017   3.570
 5748TIP3   OH217249   3.534   6.113   2.868
 5748TIP3    H117250   3.456   6.059   2.858
 5748TIP3    H217251   3.571   6.120   2.780
 5749TIP3   OH217252   5.791   0.678   4.222
 5749TIP3    H117253   5.872   0.729   4.216
 5749TIP3    H217254   5.775   0.671   4.316
 5750TIP3   OH217255   6.248   0.208   3.482
 5750TIP3    H117256   6.324   0.168   3.439
 5750TIP3    H217257   6.252   0.176   3.572
 5751TIP3   OH217258   3.586   5.823   3.395
 5751TIP3    H117259   3.550   5.735   3.406
 5751TIP3    H217260   3.648   5.815   3.323
 5752TIP3   OH217261   6.223   0.123   3.758
 5752TIP3    H117262   6.135   0.147   3.785
 5752TIP3    H217263   6.280   0.170   3.819
 5753TIP3   OH217264   5.965   0.469   2.779
 5753TIP3    H117265   5.905   0.431   2.843
 5753TIP3    H217266   5.967   0.562   2.801
 5754TIP3   OH217267   0.323   0.787   3.384
 5754TIP3    H117268   0.338   0.782   3.478
 5754TIP3    H217269   0.261   0.716   3.366
 5755TIP3   OH217270   4.244   5.925   2.771
 5755TIP3    H117271   4.150   5.908   2.766
 5755TIP3    H217272   4.250   6.020   2.782
 5756TIP3   OH217273  -0.024   0.060   2.847
 5756TIP3    H117274   0.071   0.061   2.856
 5756TIP3    H217275  -0.044   0.134   2.790
 5757TIP3   OH217276   5.648   0.362   3.516
 5757TIP3    H117277   5.690   0.399   3.438
 5757TIP3    H217278   5.720   0.349   3.578
 5758TIP3   OH217279   5.559   0.376   4.175
 5758TIP3    H117280   5.587   0.373   4.267
 5758TIP3    H217281   5.489   0.310   4.169
 5759TIP3   OH217282   6.276   0.504   4.173
 5759TIP3    H117283   6.218   0.442   4.129
 5759TIP3    H217284   6.364   0.476   4.147
 5760TIP3   OH217285   0.393   0.146   2.677
 5760TIP3    H117286   0.337   0.099   2.615
 5760TIP3    H217287   0.400   0.234   2.640
 5761TIP3   OH217288   0.137   0.589   3.421
 5761TIP3    H117289   0.043   0.573   3.434
 5761TIP3    H217290   0.167   0.514   3.370
 5762TIP3   OH217291   5.342   0.099   2.921
 5762TIP3    H117292   5.367   0.182   2.962
 5762TIP3    H217293   5.253   0.083   2.953
 5763TIP3   OH217294   3.558   6.076   4.171
 5763TIP3    H117295   3.464   6.078   4.188
 5763TIP3    H217296   3.593   6.013   4.234
 5764TIP3   OH217297   0.061   0.616   2.701
 5764TIP3    H117298   0.061   0.551   2.770
 5764TIP3    H217299   0.153   0.624   2.675
 5765TIP3   OH217300   5.377   0.352   2.995
 5765TIP3    H117301   5.331   0.431   3.025
 5765TIP3    H217302   5.440   0.385   2.930
 5766TIP3   OH217303   4.419   6.135   3.863
 5766TIP3    H117304   4.500   6.174   3.895
 5766TIP3    H217305   4.407   6.056   3.916
 5767TIP3   OH217306   4.298   5.880   3.041
 5767TIP3    H117307   4.282   5.896   2.948
 5767TIP3    H217308   4.344   5.959   3.071
 5768TIP3   OH217309   3.958   6.082   3.123
 5768TIP3    H117310   4.021   6.148   3.093
 5768TIP3    H217311   3.986   6.060   3.212
 5769TIP3   OH217312   6.420   0.226   3.929
 5769TIP3    H117313   6.455   0.268   4.008
 5769TIP3    H217314   6.472   0.147   3.919
 5770TIP3   OH217315   4.115   5.777   3.220
 5770TIP3    H117316   4.095   5.856   3.271
 5770TIP3    H217317   4.184   5.804   3.160
 5771TIP3   OH217318   3.633   5.798   3.021
 5771TIP3    H117319   3.627   5.887   3.056
 5771TIP3    H217320   3.727   5.777   3.024
 5772TIP3   OH217321   0.556   0.193   3.934
 5772TIP3    H117322   0.461   0.182   3.936
 5772TIP3    H217323   0.582   0.163   3.847
 5773TIP3   OH217324   0.197   0.347   3.294
 5773TIP3    H117325   0.118   0.292   3.294
 5773TIP3    H217326   0.260   0.298   3.347
 5774TIP3   OH217327   3.212   5.959   2.907
 5774TIP3    H117328   3.208   6.054   2.918
 5774TIP3    H217329   3.161   5.942   2.828
 5775TIP3   OH217330   5.477   0.615   4.487
 5775TIP3    H117331   5.569   0.637   4.477
 5775TIP3    H217332   5.447   0.595   4.398
 5776TIP3   OH217333   5.587   0.322   2.561
 5776TIP3    H117334   5.528   0.311   2.636
 5776TIP3    H217335   5.619   0.412   2.569
 5777TIP3   OH217336   6.260   0.779   4.197
 5777TIP3    H117337   6.187   0.817   4.148
 5777TIP3    H217338   6.250   0.685   4.188
 5778TIP3   OH217339   0.172   0.705   3.886
 5778TIP3    H117340   0.168   0.750   3.801
 5778TIP3    H217341   0.226   0.762   3.941
 5779TIP3   OH217342   5.739   0.403   4.402
 5779TIP3    H117343   5.820   0.354   4.387
 5779TIP3    H217344   5.760   0.463   4.473
 5780TIP3   OH217345   5.861   0.248   2.928
 5780TIP3    H117346   5.793   0.239   2.995
 5780TIP3    H217347   5.852   0.170   2.874
 5781TIP3   OH217348   6.063   0.362   4.052
 5781TIP3    H117349   5.969   0.380   4.054
 5781TIP3    H217350   6.090   0.384   3.963
 5782TIP3   OH217351   5.898   0.040   2.662
 5782TIP3    H117352   5.892  -0.043   2.616
 5782TIP3    H217353   5.992   0.059   2.665
 5783TIP3   OH217354   0.201   0.408   2.333
 5783TIP3    H117355   0.166   0.357   2.260
 5783TIP3    H217356   0.258   0.473   2.291
 5784TIP3   OH217357   6.163   0.154   4.196
 5784TIP3    H117358   6.159   0.074   4.144
 5784TIP3    H217359   6.125   0.222   4.141
 5785TIP3   OH217360   3.973   6.079   3.988
 5785TIP3    H117361   4.020   6.112   3.911
 5785TIP3    H217362   3.881   6.097   3.969
 5786TIP3   OH217363   6.174   0.456   3.826
 5786TIP3    H117364   6.265   0.475   3.803
 5786TIP3    H217365   6.124   0.529   3.790
 5787TIP3   OH217366   5.965   0.248   4.379
 5787TIP3    H117367   5.936   0.169   4.426
 5787TIP3    H217368   6.041   0.220   4.329
 5788TIP3   OH217369   4.099   5.839   4.075
 5788TIP3    H117370   4.054   5.919   4.050
 5788TIP3    H217371   4.034   5.770   4.059
 5789TIP3   OH217372   6.420   0.205   4.290
 5789TIP3    H117373   6.421   0.194   4.385
 5789TIP3    H217374   6.331   0.182   4.264
 5790TIP3   OH217375   0.157   0.150   4.152
 5790TIP3    H117376   0.078   0.147   4.206
 5790TIP3    H217377   0.227   0.124   4.212
 5791TIP3   OH217378   0.346   0.077   4.332
 5791TIP3    H117379   0.382  -0.012   4.332
 5791TIP3    H217380   0.320   0.093   4.423
 5792TIP3   OH217381   3.706   6.144   4.498
 5792TIP3    H117382   3.708   6.055   4.463
 5792TIP3    H217383   3.747   6.137   4.584
 5793TIP3   OH217384   4.200   5.847   4.335
 5793TIP3    H117385   4.268   5.779   4.329
 5793TIP3    H217386   4.156   5.844   4.249
 5794TIP3   OH217387   4.270   6.061   4.493
 5794TIP3    H117388   4.252   5.989   4.433
 5794TIP3    H217389   4.195   6.120   4.484
 5795TIP3   OH217390   0.339   0.626   2.652
 5795TIP3    H117391   0.402   0.698   2.644
 5795TIP3    H217392   0.360   0.585   2.736
 5796TIP3   OH217393   0.415   0.496   2.871
 5796TIP3    H117394   0.376   0.440   2.938
 5796TIP3    H217395   0.504   0.512   2.901
 5797TIP3   OH217396   0.387   0.382   2.536
 5797TIP3    H117397   0.317   0.372   2.472
 5797TIP3    H217398   0.368   0.464   2.580
 5798TIP3   OH217399   0.239   0.053   2.476
 5798TIP3    H117400   0.213   0.086   2.389
 5798TIP3    H217401   0.222  -0.041   2.472
 5799TIP3   OH217402   0.262   0.320   3.024
 5799TIP3    H117403   0.283   0.227   3.015
 5799TIP3    H217404   0.259   0.336   3.118
 5800TIP3   OH217405   5.402   0.310   3.824
 5800TIP3    H117406   5.376   0.346   3.739
 5800TIP3    H217407   5.497   0.317   3.825
 5801TIP3   OH217408   4.526   5.915   2.467
 5801TIP3    H117409   4.598   5.879   2.518
 5801TIP3    H217410   4.452   5.856   2.483
 5802TIP3   OH217411   0.262   0.052   2.910
 5802TIP3    H117412   0.306  -0.032   2.923
 5802TIP3    H217413   0.307   0.091   2.835
 5803TIP3   OH217414   0.384   0.207   3.438
 5803TIP3    H117415   0.471   0.222   3.401
 5803TIP3    H217416   0.393   0.233   3.530
 5804TIP3   OH217417   0.457   0.350   3.662
 5804TIP3    H117418   0.381   0.382   3.709
 5804TIP3    H217419   0.475   0.417   3.596
 5805TIP3   OH217420   5.610   0.077   4.448
 5805TIP3    H117421   5.705   0.074   4.459
 5805TIP3    H217422   5.578  -0.005   4.485
 5806TIP3   OH217423   4.704   5.932   2.964
 5806TIP3    H117424   4.751   5.915   3.046
 5806TIP3    H217425   4.643   5.859   2.955
 5807TIP3   OH217426   3.437   5.893   3.806
 5807TIP3    H117427   3.364   5.836   3.829
 5807TIP3    H217428   3.429   5.969   3.863
 5808TIP3   OH217429   5.360   0.033   3.847
 5808TIP3    H117430   5.414   0.028   3.768
 5808TIP3    H217431   5.360   0.125   3.872
 5809TIP3   OH217432   0.775   0.070   4.051
 5809TIP3    H117433   0.697   0.121   4.030
 5809TIP3    H217434   0.773  -0.003   3.989
 5810TIP3   OH217435   4.765   5.851   2.600
 5810TIP3    H117436   4.805   5.788   2.540
 5810TIP3    H217437   4.826   5.925   2.600
 5811TIP3   OH217438   3.176   5.712   3.367
 5811TIP3    H117439   3.088   5.682   3.390
 5811TIP3    H217440   3.166   5.753   3.281
 5812TIP3   OH217441   3.405   5.767   4.170
 5812TIP3    H117442   3.354   5.753   4.250
 5812TIP3    H217443   3.345   5.809   4.109
 5813TIP3   OH217444   5.033   5.966   3.895
 5813TIP3    H117445   4.948   5.956   3.854
 5813TIP3    H217446   5.076   5.881   3.883
 5814TIP3   OH217447   4.253   5.895   3.514
 5814TIP3    H117448   4.214   5.819   3.556
 5814TIP3    H217449   4.325   5.859   3.462
 5815TIP3   OH217450   4.758   5.799   3.416
 5815TIP3    H117451   4.797   5.848   3.344
 5815TIP3    H217452   4.665   5.821   3.412
 5816TIP3   OH217453   4.868   5.887   3.182
 5816TIP3    H117454   4.937   5.828   3.152
 5816TIP3    H217455   4.906   5.974   3.173
 5817TIP3   OH217456   3.504   5.620   3.563
 5817TIP3    H117457   3.414   5.589   3.567
 5817TIP3    H217458   3.557   5.540   3.557
 5818TIP3   OH217459   3.309   5.503   3.185
 5818TIP3    H117460   3.332   5.548   3.104
 5818TIP3    H217461   3.268   5.570   3.240
 5819TIP3   OH217462   3.953   5.651   3.421
 5819TIP3    H117463   4.006   5.683   3.348
 5819TIP3    H217464   4.008   5.662   3.498
 5820TIP3   OH217465   4.471   5.776   3.394
 5820TIP3    H117466   4.491   5.739   3.308
 5820TIP3    H217467   4.473   5.701   3.453
 5821TIP3   OH217468   4.520   5.724   2.961
 5821TIP3    H117469   4.438   5.768   2.984
 5821TIP3    H217470   4.511   5.636   2.998
 5822TIP3   OH217471   3.417   5.632   2.946
 5822TIP3    H117472   3.459   5.568   2.888
 5822TIP3    H217473   3.489   5.685   2.978
 5823TIP3   OH217474   3.907   5.827   3.034
 5823TIP3    H117475   3.968   5.774   3.086
 5823TIP3    H217476   3.927   5.917   3.059
 5824TIP3   OH217477   3.714   5.875   4.415
 5824TIP3    H117478   3.677   5.808   4.473
 5824TIP3    H217479   3.806   5.881   4.441
 5825TIP3   OH217480   3.961   5.879   4.538
 5825TIP3    H117481   4.045   5.860   4.496
 5825TIP3    H217482   3.953   5.812   4.606
 5826TIP3   OH217483   4.782   5.944   4.332
 5826TIP3    H117484   4.795   5.904   4.418
 5826TIP3    H217485   4.868   5.938   4.290
 5827TIP3   OH217486   0.607   0.246   2.820
 5827TIP3    H117487   0.578   0.337   2.827
 5827TIP3    H217488   0.534   0.201   2.778
 5828TIP3   OH217489   0.685   0.527   2.898
 5828TIP3    H117490   0.734   0.465   2.952
 5828TIP3    H217491   0.726   0.612   2.915
 5829TIP3   OH217492   1.135   0.183   2.984
 5829TIP3    H117493   1.145   0.228   2.901
 5829TIP3    H217494   1.110   0.093   2.961
 5830TIP3   OH217495   0.798   0.352   3.067
 5830TIP3    H117496   0.863   0.342   3.137
 5830TIP3    H217497   0.822   0.286   3.002
 5831TIP3   OH217498   1.180   0.132   3.522
 5831TIP3    H117499   1.132   0.095   3.447
 5831TIP3    H217500   1.111   0.159   3.583
 5832TIP3   OH217501   1.082   0.322   3.199
 5832TIP3    H117502   1.145   0.308   3.270
 5832TIP3    H217503   1.107   0.259   3.132
 5833TIP3   OH217504   5.845   5.935   3.115
 5833TIP3    H117505   5.900   5.881   3.172
 5833TIP3    H217506   5.822   6.011   3.168
 5834TIP3   OH217507   5.707   6.074   3.349
 5834TIP3    H117508   5.653   6.058   3.272
 5834TIP3    H217509   5.668   6.151   3.391
 5835TIP3   OH217510   1.083   0.243   2.725
 5835TIP3    H117511   1.002   0.226   2.773
 5835TIP3    H217512   1.074   0.334   2.695
 5836TIP3   OH217513   5.380   6.028   2.215
 5836TIP3    H117514   5.385   6.042   2.309
 5836TIP3    H217515   5.384   6.116   2.177
 5837TIP3   OH217516   5.011   6.106   3.102
 5837TIP3    H117517   5.099   6.087   3.134
 5837TIP3    H217518   5.009   6.069   3.013
 5838TIP3   OH217519   4.924   6.080   2.618
 5838TIP3    H117520   4.967   6.112   2.538
 5838TIP3    H217521   4.861   6.148   2.640
 5839TIP3   OH217522   0.863   0.170   2.875
 5839TIP3    H117523   0.771   0.171   2.848
 5839TIP3    H217524   0.888   0.078   2.871
 5840TIP3   OH217525   0.929   0.267   2.302
 5840TIP3    H117526   0.883   0.201   2.250
 5840TIP3    H217527   0.977   0.319   2.238
 5841TIP3   OH217528   5.370   6.070   2.877
 5841TIP3    H117529   5.330   5.990   2.911
 5841TIP3    H217530   5.438   6.039   2.816
 5842TIP3   OH217531   0.607   0.374   2.367
 5842TIP3    H117532   0.668   0.439   2.403
 5842TIP3    H217533   0.533   0.376   2.428
 5843TIP3   OH217534   0.990   0.200   3.710
 5843TIP3    H117535   0.924   0.228   3.647
 5843TIP3    H217536   0.957   0.117   3.743
 5844TIP3   OH217537   5.426   6.048   2.488
 5844TIP3    H117538   5.438   6.136   2.524
 5844TIP3    H217539   5.504   6.000   2.514
 5845TIP3   OH217540   0.639   0.096   2.391
 5845TIP3    H117541   0.656   0.190   2.389
 5845TIP3    H217542   0.578   0.081   2.320
 5846TIP3   OH217543   5.293   5.890   3.227
 5846TIP3    H117544   5.332   5.872   3.141
 5846TIP3    H217545   5.342   5.833   3.287
 5847TIP3   OH217546   0.740   0.559   3.306
 5847TIP3    H117547   0.681   0.602   3.244
 5847TIP3    H217548   0.822   0.609   3.300
 5848TIP3   OH217549   5.165   6.054   3.393
 5848TIP3    H117550   5.205   5.985   3.339
 5848TIP3    H217551   5.183   6.135   3.344
 5849TIP3   OH217552   0.619   0.311   3.351
 5849TIP3    H117553   0.573   0.316   3.267
 5849TIP3    H217554   0.661   0.397   3.361
 5850TIP3   OH217555   4.978   5.968   2.860
 5850TIP3    H117556   4.890   5.937   2.879
 5850TIP3    H217557   4.971   6.009   2.773
 5851TIP3   OH217558   5.205   6.062   3.679
 5851TIP3    H117559   5.136   6.026   3.735
 5851TIP3    H217560   5.177   6.041   3.590
 5852TIP3   OH217561   5.278   5.828   2.955
 5852TIP3    H117562   5.192   5.803   2.989
 5852TIP3    H217563   5.332   5.750   2.967
 5853TIP3   OH217564   5.085   5.748   2.667
 5853TIP3    H117565   5.120   5.792   2.589
 5853TIP3    H217566   5.074   5.817   2.731
 5854TIP3   OH217567   5.701   5.893   2.886
 5854TIP3    H117568   5.760   5.905   2.812
 5854TIP3    H217569   5.754   5.914   2.963
 5855TIP3   OH217570   5.203   5.878   2.442
 5855TIP3    H117571   5.243   5.819   2.378
 5855TIP3    H217572   5.274   5.937   2.467
 5856TIP3   OH217573   5.997   4.729   0.975
 5856TIP3    H117574   5.933   4.674   0.930
 5856TIP3    H217575   5.950   4.810   0.994
 5857TIP3   OH217576   6.151   5.025   0.983
 5857TIP3    H117577   6.215   4.971   1.030
 5857TIP3    H217578   6.195   5.109   0.971
 5858TIP3   OH217579   6.267   4.755   1.021
 5858TIP3    H117580   6.174   4.769   1.008
 5858TIP3    H217581   6.284   4.788   1.109
 5859TIP3   OH217582   5.937   4.397   0.954
 5859TIP3    H117583   5.845   4.374   0.965
 5859TIP3    H217584   5.984   4.316   0.973
 5860TIP3   OH217585   5.934   4.108   0.673
 5860TIP3    H117586   6.013   4.161   0.685
 5860TIP3    H217587   5.960   4.040   0.612
 5861TIP3   OH217588   6.269   4.314   0.973
 5861TIP3    H117589   6.227   4.380   1.027
 5861TIP3    H217590   6.354   4.298   1.015
 5862TIP3   OH217591   6.183   4.187   0.748
 5862TIP3    H117592   6.214   4.256   0.806
 5862TIP3    H217593   6.195   4.221   0.660
 5863TIP3   OH217594   5.893   4.976   1.032
 5863TIP3    H117595   5.986   4.998   1.038
 5863TIP3    H217596   5.850   5.060   1.011
 5864TIP3   OH217597   6.439   4.837   0.404
 5864TIP3    H117598   6.438   4.931   0.385
 5864TIP3    H217599   6.529   4.810   0.387
 5865TIP3   OH217600   5.756   5.146   0.850
 5865TIP3    H117601   5.680   5.126   0.794
 5865TIP3    H217602   5.739   5.234   0.883
 5866TIP3   OH217603   5.952   5.047   0.503
 5866TIP3    H117604   6.006   4.976   0.469
 5866TIP3    H217605   5.992   5.070   0.587
 5867TIP3   OH217606   6.015   5.112   0.760
 5867TIP3    H117607   5.928   5.118   0.800
 5867TIP3    H217608   6.069   5.068   0.825
 5868TIP3   OH217609   6.211   4.235   0.491
 5868TIP3    H117610   6.157   4.234   0.412
 5868TIP3    H217611   6.284   4.293   0.469
 5869TIP3   OH217612   4.776   2.574   0.022
 5869TIP3    H117613   4.695   2.584  -0.027
 5869TIP3    H217614   4.766   2.631   0.099
 5870TIP3   OH217615   6.207   3.739   0.771
 5870TIP3    H117616   6.194   3.687   0.850
 5870TIP3    H217617   6.215   3.829   0.801
 5871TIP3   OH217618   6.245   3.978   0.899
 5871TIP3    H117619   6.333   4.000   0.932
 5871TIP3    H217620   6.226   4.047   0.835
 5872TIP3   OH217621   5.816   4.605   0.790
 5872TIP3    H117622   5.808   4.696   0.764
 5872TIP3    H217623   5.726   4.571   0.786
 5873TIP3   OH217624   0.134   4.085   0.731
 5873TIP3    H117625   0.090   4.035   0.663
 5873TIP3    H217626   0.133   4.176   0.700
 5874TIP3   OH217627   6.381   4.904   0.672
 5874TIP3    H117628   6.318   4.850   0.720
 5874TIP3    H217629   6.386   4.864   0.585
 5875TIP3   OH217630   6.134   4.591   0.496
 5875TIP3    H117631   6.172   4.567   0.580
 5875TIP3    H217632   6.040   4.581   0.509
 5876TIP3   OH217633   6.447   5.108   0.366
 5876TIP3    H117634   6.471   5.172   0.299
 5876TIP3    H217635   6.373   5.147   0.412
 5877TIP3   OH217636   6.297   4.553   0.746
 5877TIP3    H117637   6.279   4.496   0.821
 5877TIP3    H217638   6.392   4.561   0.744
 5878TIP3   OH217639   5.491   4.606   0.530
 5878TIP3    H117640   5.496   4.512   0.512
 5878TIP3    H217641   5.466   4.612   0.622
 5879TIP3   OH217642   5.333   4.629   0.764
 5879TIP3    H117643   5.401   4.608   0.827
 5879TIP3    H217644   5.326   4.725   0.768
 5880TIP3   OH217645   5.811   4.880   0.752
 5880TIP3    H117646   5.789   4.947   0.816
 5880TIP3    H217647   5.820   4.927   0.670
 5881TIP3   OH217648   5.399   4.870   0.966
 5881TIP3    H117649   5.427   4.933   0.900
 5881TIP3    H217650   5.469   4.871   1.031
 5882TIP3   OH217651   5.145   4.515   0.921
 5882TIP3    H117652   5.212   4.563   0.872
 5882TIP3    H217653   5.138   4.431   0.876
 5883TIP3   OH217654   6.450   5.247   1.299
 5883TIP3    H117655   6.397   5.305   1.244
 5883TIP3    H217656   6.538   5.284   1.295
 5884TIP3   OH217657   5.647   4.816   0.460
 5884TIP3    H117658   5.599   4.741   0.494
 5884TIP3    H217659   5.722   4.779   0.414
 5885TIP3   OH217660   6.085   4.841   0.382
 5885TIP3    H117661   6.122   4.772   0.436
 5885TIP3    H217662   6.138   4.842   0.302
 5886TIP3   OH217663   5.267   4.347   0.700
 5886TIP3    H117664   5.299   4.263   0.734
 5886TIP3    H217665   5.335   4.377   0.640
 5887TIP3   OH217666   5.854   4.540   0.513
 5887TIP3    H117667   5.808   4.550   0.597
 5887TIP3    H217668   5.847   4.447   0.493
 5888TIP3   OH217669   5.695   4.042   0.773
 5888TIP3    H117670   5.633   4.003   0.712
 5888TIP3    H217671   5.779   4.041   0.726
 5889TIP3   OH217672   6.442   4.360   0.406
 5889TIP3    H117673   6.415   4.314   0.327
 5889TIP3    H217674   6.419   4.452   0.390
 5890TIP3   OH217675   5.412   5.216   0.638
 5890TIP3    H117676   5.504   5.202   0.615
 5890TIP3    H217677   5.366   5.216   0.554
 5891TIP3   OH217678   0.200   5.360   1.267
 5891TIP3    H117679   0.197   5.451   1.297
 5891TIP3    H217680   0.246   5.363   1.184
 5892TIP3   OH217681   0.072   4.552   0.750
 5892TIP3    H117682   0.128   4.624   0.723
 5892TIP3    H217683   0.110   4.521   0.832
 5893TIP3   OH217684   0.183   4.429   0.966
 5893TIP3    H117685   0.144   4.415   1.052
 5893TIP3    H217686   0.270   4.463   0.984
 5894TIP3   OH217687   0.123   4.327   0.605
 5894TIP3    H117688   0.058   4.328   0.534
 5894TIP3    H217689   0.104   4.405   0.656
 5895TIP3   OH217690   6.517   3.979   0.508
 5895TIP3    H117691   6.451   4.006   0.445
 5895TIP3    H217692   6.488   3.894   0.539
 5896TIP3   OH217693   6.431   3.749   0.621
 5896TIP3    H117694   6.482   3.723   0.697
 5896TIP3    H217695   6.340   3.744   0.650
 5897TIP3   OH217696  -0.009   4.057   0.982
 5897TIP3    H117697   0.047   4.009   1.042
 5897TIP3    H217698   0.044   4.068   0.903
 5898TIP3   OH217699   6.256   5.260   0.918
 5898TIP3    H117700   6.314   5.241   0.844
 5898TIP3    H217701   6.307   5.319   0.973
 5899TIP3   OH217702   5.680   5.071   0.547
 5899TIP3    H117703   5.769   5.096   0.525
 5899TIP3    H217704   5.665   4.989   0.500
 5900TIP3   OH217705   6.404   5.175   0.698
 5900TIP3    H117706   6.401   5.080   0.695
 5900TIP3    H217707   6.356   5.204   0.621
 5901TIP3   OH217708   5.005   4.915   0.641
 5901TIP3    H117709   4.989   4.906   0.735
 5901TIP3    H217710   5.085   4.865   0.625
 5902TIP3   OH217711   0.326   4.202   0.895
 5902TIP3    H117712   0.274   4.282   0.892
 5902TIP3    H217713   0.280   4.142   0.835
 5903TIP3   OH217714   0.443   4.497   1.010
 5903TIP3    H117715   0.456   4.467   1.099
 5903TIP3    H217716   0.529   4.526   0.981
 5904TIP3   OH217717   1.258   4.910   0.496
 5904TIP3    H117718   1.217   4.902   0.409
 5904TIP3    H217719   1.266   5.004   0.509
 5905TIP3   OH217720   0.246   4.737   0.638
 5905TIP3    H117721   0.207   4.755   0.553
 5905TIP3    H217722   0.268   4.823   0.674
 5906TIP3   OH217723   1.151   4.348   0.175
 5906TIP3    H117724   1.185   4.421   0.227
 5906TIP3    H217725   1.177   4.269   0.222
 5907TIP3   OH217726   1.110   5.205   0.584
 5907TIP3    H117727   1.196   5.233   0.554
 5907TIP3    H217728   1.053   5.216   0.508
 5908TIP3   OH217729   0.661   4.452   0.635
 5908TIP3    H117730   0.588   4.508   0.609
 5908TIP3    H217731   0.622   4.365   0.645
 5909TIP3   OH217732   6.073   2.039   5.144
 5909TIP3    H117733   6.063   2.128   5.109
 5909TIP3    H217734   6.135   2.048   5.216
 5910TIP3   OH217735   0.285   5.045   1.182
 5910TIP3    H117736   0.307   4.976   1.245
 5910TIP3    H217737   0.231   5.107   1.232
 5911TIP3   OH217738   1.049   5.393   0.360
 5911TIP3    H117739   0.993   5.385   0.282
 5911TIP3    H217740   1.021   5.475   0.401
 5912TIP3   OH217741   0.467   5.238   0.732
 5912TIP3    H117742   0.510   5.222   0.816
 5912TIP3    H217743   0.416   5.159   0.716
 5913TIP3   OH217744   1.240   5.313  -0.007
 5913TIP3    H117745   1.290   5.241  -0.045
 5913TIP3    H217746   1.276   5.323   0.081
 5914TIP3   OH217747   1.303   5.359   0.261
 5914TIP3    H117748   1.216   5.363   0.302
 5914TIP3    H217749   1.361   5.335   0.333
 5915TIP3   OH217750   5.740   1.466   5.274
 5915TIP3    H117751   5.735   1.426   5.187
 5915TIP3    H217752   5.824   1.512   5.274
 5916TIP3   OH217753   0.900   3.979   0.299
 5916TIP3    H117754   0.898   3.955   0.392
 5916TIP3    H217755   0.846   4.058   0.294
 5917TIP3   OH217756   0.368   3.917   0.721
 5917TIP3    H117757   0.388   3.941   0.630
 5917TIP3    H217758   0.282   3.958   0.737
 5918TIP3   OH217759   0.702   4.164   0.405
 5918TIP3    H117760   0.643   4.155   0.330
 5918TIP3    H217761   0.770   4.224   0.374
 5919TIP3   OH217762   0.941   4.733   0.418
 5919TIP3    H117763   0.892   4.651   0.410
 5919TIP3    H217764   0.946   4.749   0.512
 5920TIP3   OH217765   1.128   4.849   0.254
 5920TIP3    H117766   1.086   4.935   0.258
 5920TIP3    H217767   1.075   4.794   0.312
 5921TIP3   OH217768   1.579   5.157   0.060
 5921TIP3    H117769   1.629   5.080   0.086
 5921TIP3    H217770   1.609   5.177  -0.029
 5922TIP3   OH217771   0.762   5.042   0.747
 5922TIP3    H117772   0.765   5.115   0.685
 5922TIP3    H217773   0.698   5.069   0.812
 5923TIP3   OH217774   0.360   4.315   0.464
 5923TIP3    H117775   0.396   4.403   0.476
 5923TIP3    H217776   0.278   4.316   0.513
 5924TIP3   OH217777   0.872   4.804   0.687
 5924TIP3    H117778   0.839   4.894   0.695
 5924TIP3    H217779   0.793   4.750   0.690
 5925TIP3   OH217780   0.703   5.263   0.591
 5925TIP3    H117781   0.615   5.268   0.628
 5925TIP3    H217782   0.735   5.353   0.592
 5926TIP3   OH217783   1.422   4.894   0.040
 5926TIP3    H117784   1.455   4.921   0.126
 5926TIP3    H217785   1.330   4.871   0.056
 5927TIP3   OH217786   6.053   2.311   5.140
 5927TIP3    H117787   6.097   2.382   5.093
 5927TIP3    H217788   5.983   2.355   5.189
 5928TIP3   OH217789   0.600   5.215   1.240
 5928TIP3    H117790   0.656   5.173   1.306
 5928TIP3    H217791   0.639   5.301   1.228
 5929TIP3   OH217792   0.775   4.868   0.054
 5929TIP3    H117793   0.784   4.776   0.028
 5929TIP3    H217794   0.751   4.865   0.147
 5930TIP3   OH217795   0.716   4.875   0.323
 5930TIP3    H117796   0.798   4.841   0.360
 5930TIP3    H217797   0.721   4.969   0.338
 5931TIP3   OH217798   0.441   4.575   0.531
 5931TIP3    H117799   0.374   4.617   0.584
 5931TIP3    H217800   0.455   4.635   0.458
 5932TIP3   OH217801   0.999   5.084   0.281
 5932TIP3    H117802   0.910   5.096   0.315
 5932TIP3    H217803   1.015   5.160   0.226
 5933TIP3   OH217804   0.740   5.146   0.347
 5933TIP3    H117805   0.715   5.214   0.284
 5933TIP3    H217806   0.725   5.187   0.432
 5934TIP3   OH217807   0.463   4.755   0.322
 5934TIP3    H117808   0.532   4.821   0.331
 5934TIP3    H217809   0.499   4.693   0.258
 5935TIP3   OH217810   0.376   4.031   0.459
 5935TIP3    H117811   0.411   4.118   0.476
 5935TIP3    H217812   0.283   4.044   0.444
 5936TIP3   OH217813   0.299   5.002   0.715
 5936TIP3    H117814   0.261   5.045   0.791
 5936TIP3    H217815   0.259   5.046   0.640
 5937TIP3   OH217816   5.269   2.001   5.261
 5937TIP3    H117817   5.218   1.931   5.302
 5937TIP3    H217818   5.342   1.955   5.218
 5938TIP3   OH217819   5.698   2.043   5.168
 5938TIP3    H117820   5.742   1.988   5.233
 5938TIP3    H217821   5.752   2.036   5.090
 5939TIP3   OH217822   0.597   4.562   0.182
 5939TIP3    H117823   0.652   4.546   0.259
 5939TIP3    H217824   0.659   4.579   0.112
 5940TIP3   OH217825   1.135   4.793  -0.010
 5940TIP3    H117826   1.119   4.807   0.083
 5940TIP3    H217827   1.117   4.700  -0.025
 5941TIP3   OH217828   0.779   4.509   0.390
 5941TIP3    H117829   0.749   4.478   0.475
 5941TIP3    H217830   0.821   4.433   0.350
 5942TIP3   OH217831   0.877   4.301   0.238
 5942TIP3    H117832   0.842   4.312   0.149
 5942TIP3    H217833   0.971   4.318   0.228
 5943TIP3   OH217834   5.986   1.552   5.167
 5943TIP3    H117835   5.981   1.509   5.081
 5943TIP3    H217836   5.970   1.644   5.149
 5944TIP3   OH217837   0.722   5.348   0.158
 5944TIP3    H117838   0.814   5.336   0.135
 5944TIP3    H217839   0.686   5.400   0.086
 5945TIP3   OH217840   0.191   4.737   0.353
 5945TIP3    H117841   0.285   4.754   0.343
 5945TIP3    H217842   0.178   4.651   0.311
 5946TIP3   OH217843   0.106   5.335   0.782
 5946TIP3    H117844   0.041   5.283   0.736
 5946TIP3    H217845   0.152   5.271   0.838
 5947TIP3   OH217846   0.250   5.166   0.942
 5947TIP3    H117847   0.249   5.103   1.014
 5947TIP3    H217848   0.292   5.244   0.978
 5948TIP3   OH217849   1.544   5.414   0.424
 5948TIP3    H117850   1.571   5.425   0.333
 5948TIP3    H217851   1.513   5.501   0.451
 5949TIP3   OH217852   0.478   5.541   1.343
 5949TIP3    H117853   0.391   5.579   1.330
 5949TIP3    H217854   0.487   5.535   1.438
 5950TIP3   OH217855   0.674   5.465   1.178
 5950TIP3    H117856   0.613   5.507   1.239
 5950TIP3    H217857   0.700   5.534   1.118
 5951TIP3   OH217858   0.404   5.358   1.076
 5951TIP3    H117859   0.439   5.365   1.165
 5951TIP3    H217860   0.472   5.310   1.028
 5952TIP3   OH217861   0.614   5.203   0.962
 5952TIP3    H117862   0.616   5.185   1.056
 5952TIP3    H217863   0.689   5.259   0.947
 5953TIP3   OH217864   0.844   5.353   0.946
 5953TIP3    H117865   0.900   5.281   0.973
 5953TIP3    H217866   0.855   5.420   1.014
 5954TIP3   OH217867   0.191   5.134   0.502
 5954TIP3    H117868   0.105   5.103   0.472
 5954TIP3    H217869   0.195   5.225   0.472
 5955TIP3   OH217870   0.983   5.293   0.094
 5955TIP3    H117871   1.067   5.321   0.057
 5955TIP3    H217872   0.957   5.219   0.040
 5956TIP3   OH217873   1.640   5.429   0.173
 5956TIP3    H117874   1.665   5.344   0.136
 5956TIP3    H217875   1.609   5.479   0.098
 5957TIP3   OH217876   0.281   5.131   0.151
 5957TIP3    H117877   0.283   5.151   0.245
 5957TIP3    H217878   0.364   5.087   0.134
 5958TIP3   OH217879   6.362   2.347   5.258
 5958TIP3    H117880   6.301   2.414   5.225
 5958TIP3    H217881   6.389   2.380   5.344
 5959TIP3   OH217882   6.388   2.338   4.958
 5959TIP3    H117883   6.374   2.359   5.050
 5959TIP3    H217884   6.467   2.284   4.958
 5960TIP3   OH217885   6.449   0.268   0.548
 5960TIP3    H117886   6.455   0.359   0.520
 5960TIP3    H217887   6.538   0.234   0.539
 5961TIP3   OH217888   5.774   0.641   0.926
 5961TIP3    H117889   5.721   0.614   0.851
 5961TIP3    H217890   5.739   0.726   0.951
 5962TIP3   OH217891   5.955   0.484   0.653
 5962TIP3    H117892   6.002   0.411   0.611
 5962TIP3    H217893   5.992   0.490   0.741
 5963TIP3   OH217894   6.008   0.510   0.953
 5963TIP3    H117895   5.927   0.561   0.949
 5963TIP3    H217896   5.983   0.427   0.993
 5964TIP3   OH217897   3.963   5.886   0.600
 5964TIP3    H117898   3.968   5.829   0.523
 5964TIP3    H217899   4.029   5.851   0.660
 5965TIP3   OH217900   4.466   5.696   0.963
 5965TIP3    H117901   4.397   5.643   0.922
 5965TIP3    H217902   4.492   5.758   0.895
 5966TIP3   OH217903   6.309   0.376   0.772
 5966TIP3    H117904   6.332   0.292   0.812
 5966TIP3    H217905   6.332   0.365   0.680
 5967TIP3   OH217906   6.219   0.126   0.717
 5967TIP3    H117907   6.281   0.074   0.768
 5967TIP3    H217908   6.139   0.075   0.717
 5968TIP3   OH217909   6.449   0.541   0.522
 5968TIP3    H117910   6.477   0.590   0.445
 5968TIP3    H217911   6.379   0.593   0.561
 5969TIP3   OH217912   4.106   6.113   0.956
 5969TIP3    H117913   4.110   6.060   1.036
 5969TIP3    H217914   4.174   6.076   0.899
 5970TIP3   OH217915   5.505   0.062   0.745
 5970TIP3    H117916   5.532  -0.023   0.710
 5970TIP3    H217917   5.475   0.043   0.834
 5971TIP3   OH217918   5.697   0.316   0.938
 5971TIP3    H117919   5.604   0.307   0.957
 5971TIP3    H217920   5.702   0.389   0.876
 5972TIP3   OH217921   5.633   0.248   0.600
 5972TIP3    H117922   5.580   0.190   0.654
 5972TIP3    H217923   5.712   0.198   0.582
 5973TIP3   OH217924   6.090   0.283   0.535
 5973TIP3    H117925   6.155   0.240   0.590
 5973TIP3    H217926   6.129   0.283   0.447
 5974TIP3   OH217927   3.621   6.160   0.649
 5974TIP3    H117928   3.604   6.169   0.743
 5974TIP3    H217929   3.626   6.066   0.634
 5975TIP3   OH217930   4.272   5.881   0.549
 5975TIP3    H117931   4.261   5.829   0.469
 5975TIP3    H217932   4.244   5.969   0.524
 5976TIP3   OH217933   5.430   0.531   0.800
 5976TIP3    H117934   5.523   0.516   0.781
 5976TIP3    H217935   5.400   0.587   0.729
 5977TIP3   OH217936   0.168  -0.029   0.938
 5977TIP3    H117937   0.209   0.041   0.887
 5977TIP3    H217938   0.120   0.017   1.007
 5978TIP3   OH217939   4.477   5.894   0.741
 5978TIP3    H117940   4.407   5.909   0.678
 5978TIP3    H217941   4.479   5.973   0.795
 5979TIP3   OH217942   4.301   5.564   0.628
 5979TIP3    H117943   4.374   5.590   0.572
 5979TIP3    H217944   4.259   5.491   0.581
 5980TIP3   OH217945   4.238   5.302   0.584
 5980TIP3    H117946   4.330   5.278   0.596
 5980TIP3    H217947   4.195   5.273   0.665
 5981TIP3   OH217948   4.552   5.262   0.857
 5981TIP3    H117949   4.519   5.213   0.782
 5981TIP3    H217950   4.617   5.321   0.821
 5982TIP3   OH217951   5.688   0.484   0.714
 5982TIP3    H117952   5.776   0.502   0.681
 5982TIP3    H217953   5.659   0.407   0.665
 5983TIP3   OH217954   6.403   0.615   0.852
 5983TIP3    H117955   6.432   0.537   0.804
 5983TIP3    H217956   6.366   0.672   0.785
 5984TIP3   OH217957   1.394   0.123   0.795
 5984TIP3    H117958   1.363   0.211   0.772
 5984TIP3    H217959   1.326   0.064   0.761
 5985TIP3   OH217960   1.395   0.124   1.189
 5985TIP3    H117961   1.396   0.076   1.272
 5985TIP3    H217962   1.359   0.061   1.126
 5986TIP3   OH217963   1.653   0.419   0.874
 5986TIP3    H117964   1.643   0.357   0.947
 5986TIP3    H217965   1.680   0.500   0.916
 5987TIP3   OH217966   1.282   0.860   0.889
 5987TIP3    H117967   1.321   0.795   0.830
 5987TIP3    H217968   1.295   0.825   0.977
 5988TIP3   OH217969   1.202   0.350   1.207
 5988TIP3    H117970   1.238   0.265   1.182
 5988TIP3    H217971   1.278   0.403   1.229
 5989TIP3   OH217972   0.072   5.807   1.204
 5989TIP3    H117973   0.084   5.891   1.248
 5989TIP3    H217974   0.108   5.820   1.117
 5990TIP3   OH217975   6.010   5.935   1.258
 5990TIP3    H117976   5.935   5.929   1.318
 5990TIP3    H217977   5.985   5.880   1.183
 5991TIP3   OH217978   5.998   5.726   0.845
 5991TIP3    H117979   6.063   5.715   0.915
 5991TIP3    H217980   6.048   5.760   0.771
 5992TIP3   OH217981   5.357   6.037   1.091
 5992TIP3    H117982   5.451   6.021   1.102
 5992TIP3    H217983   5.321   5.951   1.070
 5993TIP3   OH217984   0.115   6.007   1.405
 5993TIP3    H117985   0.034   6.045   1.371
 5993TIP3    H217986   0.117   6.034   1.497
 5994TIP3   OH217987   1.266   0.333   0.671
 5994TIP3    H117988   1.245   0.319   0.578
 5994TIP3    H217989   1.226   0.417   0.692
 5995TIP3   OH217990   6.177   5.745   1.045
 5995TIP3    H117991   6.211   5.703   1.124
 5995TIP3    H217992   6.220   5.831   1.044
 5996TIP3   OH217993   0.251   0.183   0.791
 5996TIP3    H117994   0.232   0.185   0.698
 5996TIP3    H217995   0.294   0.267   0.809
 5997TIP3   OH217996   1.698   0.658   1.006
 5997TIP3    H117997   1.611   0.658   1.047
 5997TIP3    H217998   1.703   0.743   0.962
 5998TIP3   OH217999   6.322   5.697   1.272
 5998TIP3    H118000   6.290   5.766   1.332
 5998TIP3    H218001   6.409   5.726   1.246
 5999TIP3   OH218002   1.403   0.701   0.694
 5999TIP3    H118003   1.451   0.620   0.677
 5999TIP3    H218004   1.459   0.770   0.661
 6000TIP3   OH218005   1.552   0.483   0.625
 6000TIP3    H118006   1.543   0.402   0.575
 6000TIP3    H218007   1.592   0.456   0.708
 6001TIP3   OH218008   1.947   0.571   1.352
 6001TIP3    H118009   1.916   0.491   1.308
 6001TIP3    H218010   1.904   0.642   1.305
 6002TIP3   OH218011   5.558   6.098   0.634
 6002TIP3    H118012   5.480   6.149   0.617
 6002TIP3    H218013   5.604   6.095   0.551
 6003TIP3   OH218014   5.527   5.891   0.340
 6003TIP3    H118015   5.594   5.945   0.382
 6003TIP3    H218016   5.577   5.824   0.292
 6004TIP3   OH218017   2.113   0.227   1.231
 6004TIP3    H118018   2.029   0.272   1.230
 6004TIP3    H218019   2.150   0.242   1.144
 6005TIP3   OH218020   1.576   0.055   0.599
 6005TIP3    H118021   1.523   0.082   0.674
 6005TIP3    H218022   1.659   0.029   0.638
 6006TIP3   OH218023   0.821   0.068   1.004
 6006TIP3    H118024   0.781  -0.006   0.958
 6006TIP3    H218025   0.893   0.030   1.054
 6007TIP3   OH218026   0.965   0.488   1.155
 6007TIP3    H118027   0.922   0.428   1.094
 6007TIP3    H218028   1.046   0.443   1.179
 6008TIP3   OH218029   1.468   0.676   1.149
 6008TIP3    H118030   1.454   0.754   1.202
 6008TIP3    H218031   1.450   0.603   1.208
 6009TIP3   OH218032   5.743   6.047   0.426
 6009TIP3    H118033   5.804   6.102   0.475
 6009TIP3    H218034   5.770   6.057   0.335
 6010TIP3   OH218035   1.152   0.587   0.694
 6010TIP3    H118036   1.238   0.629   0.704
 6010TIP3    H218037   1.099   0.652   0.646
 6011TIP3   OH218038   6.259   5.268   0.483
 6011TIP3    H118039   6.183   5.292   0.536
 6011TIP3    H218040   6.277   5.346   0.431
 6012TIP3   OH218041   5.012   6.013   0.783
 6012TIP3    H118042   4.935   6.056   0.745
 6012TIP3    H218043   4.989   5.920   0.787
 6013TIP3   OH218044   1.743   0.524   0.044
 6013TIP3    H118045   1.744   0.617   0.021
 6013TIP3    H218046   1.830   0.493   0.022
 6014TIP3   OH218047   1.047   0.802   0.518
 6014TIP3    H118048   1.007   0.789   0.432
 6014TIP3    H218049   1.018   0.889   0.544
 6015TIP3   OH218050   0.479   0.679   0.902
 6015TIP3    H118051   0.531   0.668   0.982
 6015TIP3    H218052   0.447   0.591   0.883
 6016TIP3   OH218053   1.246   0.738   0.145
 6016TIP3    H118054   1.297   0.665   0.110
 6016TIP3    H218055   1.283   0.753   0.233
 6017TIP3   OH218056   1.303   0.789   0.413
 6017TIP3    H118057   1.221   0.783   0.462
 6017TIP3    H218058   1.371   0.767   0.478
 6018TIP3   OH218059   5.827   6.073   0.169
 6018TIP3    H118060   5.788   6.050   0.084
 6018TIP3    H218061   5.913   6.107   0.147
 6019TIP3   OH218062   5.550   5.440   0.447
 6019TIP3    H118063   5.511   5.458   0.532
 6019TIP3    H218064   5.498   5.367   0.412
 6020TIP3   OH218065   5.239   5.797   1.018
 6020TIP3    H118066   5.153   5.761   1.039
 6020TIP3    H218067   5.262   5.756   0.935
 6021TIP3   OH218068   5.689   5.899   0.770
 6021TIP3    H118069   5.640   5.969   0.728
 6021TIP3    H218070   5.746   5.865   0.701
 6022TIP3   OH218071   5.854   5.913   0.990
 6022TIP3    H118072   5.794   5.934   0.919
 6022TIP3    H218073   5.903   5.837   0.959
 6023TIP3   OH218074   5.203   5.432   0.431
 6023TIP3    H118075   5.195   5.445   0.525
 6023TIP3    H218076   5.128   5.477   0.393
 6024TIP3   OH218077   4.722   5.617   0.879
 6024TIP3    H118078   4.777   5.556   0.830
 6024TIP3    H218079   4.645   5.565   0.903
 6025TIP3   OH218080   5.550   5.666   1.132
 6025TIP3    H118081   5.491   5.643   1.204
 6025TIP3    H218082   5.623   5.606   1.140
 6026TIP3   OH218083   5.246   5.682   0.767
 6026TIP3    H118084   5.335   5.718   0.771
 6026TIP3    H218085   5.206   5.723   0.691
 6027TIP3   OH218086   5.086   5.727   0.547
 6027TIP3    H118087   5.026   5.680   0.491
 6027TIP3    H218088   5.146   5.771   0.487
 6028TIP3   OH218089   5.632   5.974   1.148
 6028TIP3    H118090   5.709   5.955   1.094
 6028TIP3    H218091   5.602   5.888   1.179
 6029TIP3   OH218092   5.118   5.349   0.951
 6029TIP3    H118093   5.173   5.386   1.020
 6029TIP3    H218094   5.162   5.372   0.870
 6030TIP3   OH218095   0.991   0.118   0.585
 6030TIP3    H118096   0.919   0.059   0.562
 6030TIP3    H218097   0.962   0.159   0.667
 6031TIP3   OH218098   1.872   0.356   1.199
 6031TIP3    H118099   1.909   0.402   1.123
 6031TIP3    H218100   1.794   0.314   1.165
 6032TIP3   OH218101   5.793   5.556   0.472
 6032TIP3    H118102   5.702   5.531   0.460
 6032TIP3    H218103   5.791   5.652   0.476
 6033TIP3   OH218104   5.849   5.819   0.557
 6033TIP3    H118105   5.944   5.824   0.564
 6033TIP3    H218106   5.826   5.891   0.498
 6034TIP3   OH218107   1.144   0.271   0.420
 6034TIP3    H118108   1.095   0.353   0.419
 6034TIP3    H218109   1.093   0.213   0.477
 6035TIP3   OH218110   6.273   5.903   0.381
 6035TIP3    H118111   6.219   5.856   0.318
 6035TIP3    H218112   6.276   5.993   0.348
 6036TIP3   OH218113   1.666   0.598   0.306
 6036TIP3    H118114   1.640   0.528   0.366
 6036TIP3    H218115   1.684   0.553   0.223
 6037TIP3   OH218116   1.646   0.225   1.103
 6037TIP3    H118117   1.556   0.198   1.123
 6037TIP3    H218118   1.686   0.148   1.062
 6038TIP3   OH218119   0.752   0.475   0.913
 6038TIP3    H118120   0.772   0.553   0.861
 6038TIP3    H218121   0.718   0.412   0.849
 6039TIP3   OH218122   4.706   5.895   0.582
 6039TIP3    H118123   4.744   5.980   0.604
 6039TIP3    H218124   4.625   5.892   0.632
 6040TIP3   OH218125   0.881   0.238   0.804
 6040TIP3    H118126   0.903   0.320   0.849
 6040TIP3    H218127   0.862   0.176   0.874
 6041TIP3   OH218128   1.029   0.854   1.331
 6041TIP3    H118129   1.093   0.899   1.277
 6041TIP3    H218130   1.080   0.793   1.385
 6042TIP3   OH218131   0.707   0.702   0.744
 6042TIP3    H118132   0.623   0.711   0.790
 6042TIP3    H218133   0.745   0.789   0.746
 6043TIP3   OH218134   1.447   0.446   1.306
 6043TIP3    H118135   1.444   0.422   1.398
 6043TIP3    H218136   1.514   0.388   1.269
 6044TIP3   OH218137   1.427   0.330   0.211
 6044TIP3    H118138   1.481   0.308   0.287
 6044TIP3    H218139   1.343   0.287   0.227
 6045TIP3   OH218140   1.756   0.799   0.008
 6045TIP3    H118141   1.798   0.874  -0.035
 6045TIP3    H218142   1.676   0.836   0.047
 6046TIP3   OH218143   1.598   0.264   0.419
 6046TIP3    H118144   1.583   0.190   0.478
 6046TIP3    H218145   1.692   0.262   0.401
 6047TIP3   OH218146   0.772   0.293   0.205
 6047TIP3    H118147   0.787   0.203   0.177
 6047TIP3    H218148   0.759   0.287   0.300
 6048TIP3   OH218149   0.727   0.312   0.481
 6048TIP3    H118150   0.806   0.282   0.527
 6048TIP3    H218151   0.730   0.407   0.489
 6049TIP3   OH218152   0.453   0.008   0.686
 6049TIP3    H118153   0.390   0.053   0.742
 6049TIP3    H218154   0.472   0.070   0.616
 6050TIP3   OH218155   5.860   5.517   0.734
 6050TIP3    H118156   5.842   5.539   0.642
 6050TIP3    H218157   5.901   5.596   0.770
 6051TIP3   OH218158   0.989   0.493   0.420
 6051TIP3    H118159   0.908   0.524   0.460
 6051TIP3    H218160   1.020   0.566   0.366
 6052TIP3   OH218161   5.501   5.721   0.858
 6052TIP3    H118162   5.569   5.784   0.832
 6052TIP3    H218163   5.515   5.709   0.952
 6053TIP3   OH218164   5.691   5.408   0.910
 6053TIP3    H118165   5.712   5.437   0.998
 6053TIP3    H218166   5.757   5.450   0.855
 6054TIP3   OH218167   0.739   0.584   0.498
 6054TIP3    H118168   0.721   0.653   0.434
 6054TIP3    H218169   0.729   0.627   0.583
 6055TIP3   OH218170   5.217   5.423   0.706
 6055TIP3    H118171   5.230   5.513   0.737
 6055TIP3    H218172   5.305   5.392   0.684
 6056TIP3   OH218173   6.067   6.105   1.003
 6056TIP3    H118174   5.993   6.045   1.017
 6056TIP3    H218175   6.140   6.063   1.048
 6057TIP3   OH218176   0.475   0.194   0.484
 6057TIP3    H118177   0.550   0.254   0.493
 6057TIP3    H218178   0.504   0.130   0.419
 6058TIP3   OH218179   4.793   5.639   0.539
 6058TIP3    H118180   4.784   5.733   0.550
 6058TIP3    H218181   4.702   5.607   0.532
 6059TIP3   OH218182   1.720   0.923   0.938
 6059TIP3    H118183   1.679   0.973   0.867
 6059TIP3    H218184   1.814   0.937   0.926
 6060TIP3   OH218185   0.322   0.444   0.857
 6060TIP3    H118186   0.275   0.491   0.926
 6060TIP3    H218187   0.291   0.483   0.776
 6061TIP3   OH218188   0.939   0.492   0.104
 6061TIP3    H118189   0.892   0.420   0.146
 6061TIP3    H218190   1.015   0.451   0.062
 6062TIP3   OH218191   1.378   0.530   0.025
 6062TIP3    H118192   1.411   0.467   0.089
 6062TIP3    H218193   1.438   0.523  -0.049
 6063TIP3   OH218194   0.605   0.008   0.336
 6063TIP3    H118195   0.662  -0.018   0.408
 6063TIP3    H218196   0.663   0.012   0.260
 6064TIP3   OH218197   1.144   0.207   0.153
 6064TIP3    H118198   1.136   0.220   0.247
 6064TIP3    H218199   1.139   0.112   0.141
 6065TIP3   OH218200   5.125   6.064   0.529
 6065TIP3    H118201   5.105   6.032   0.617
 6065TIP3    H218202   5.171   5.991   0.487
 6066TIP3   OH218203   5.254   5.865   0.384
 6066TIP3    H118204   5.224   5.867   0.293
 6066TIP3    H218205   5.350   5.868   0.377
 6067TIP3   OH218206   1.728   0.049   0.065
 6067TIP3    H118207   1.721   0.009  -0.021
 6067TIP3    H218208   1.695   0.139   0.053
 6068TIP3   OH218209   0.730   0.782   0.306
 6068TIP3    H118210   0.822   0.767   0.285
 6068TIP3    H218211   0.697   0.833   0.232
 6069TIP3   OH218212   0.202   0.165   0.523
 6069TIP3    H118213   0.290   0.190   0.493
 6069TIP3    H218214   0.182   0.085   0.474
 6070TIP3   OH218215   0.107   0.776   0.938
 6070TIP3    H118216   0.042   0.724   0.890
 6070TIP3    H218217   0.153   0.712   0.992
 6071TIP3   OH218218   0.244   0.597   1.097
 6071TIP3    H118219   0.284   0.521   1.138
 6071TIP3    H218220   0.280   0.672   1.144
 6072TIP3   OH218221   1.982   0.985   0.922
 6072TIP3    H118222   1.994   1.013   1.012
 6072TIP3    H218223   1.996   1.064   0.870
 6073TIP3   OH218224   1.967   1.014   1.195
 6073TIP3    H118225   1.927   0.927   1.197
 6073TIP3    H218226   2.053   1.002   1.236
 6074TIP3   OH218227   1.874   0.239   0.397
 6074TIP3    H118228   1.935   0.306   0.365
 6074TIP3    H218229   1.919   0.200   0.471
 6075TIP3   OH218230   2.001   0.094   0.594
 6075TIP3    H118231   1.935   0.058   0.653
 6075TIP3    H218232   2.068   0.130   0.653
 6076TIP3   OH218233   2.030   0.486   1.019
 6076TIP3    H118234   2.088   0.421   0.979
 6076TIP3    H218235   2.034   0.561   0.960
 6077TIP3   OH218236   1.833   0.778   1.214
 6077TIP3    H118237   1.747   0.819   1.227
 6077TIP3    H218238   1.823   0.726   1.134
 6078TIP3   OH218239   1.929   0.014   0.246
 6078TIP3    H118240   1.860   0.015   0.180
 6078TIP3    H218241   1.910   0.091   0.301
 6079TIP3   OH218242   6.131   5.788   0.180
 6079TIP3    H118243   6.076   5.825   0.111
 6079TIP3    H218244   6.119   5.694   0.172
 6080TIP3   OH218245   6.134   6.088   0.734
 6080TIP3    H118246   6.143   5.993   0.724
 6080TIP3    H218247   6.115   6.100   0.827
 6081TIP3   OH218248   6.080   5.518   0.159
 6081TIP3    H118249   6.138   5.493   0.231
 6081TIP3    H218250   5.995   5.483   0.185
 6082TIP3   OH218251   6.142   5.812   0.620
 6082TIP3    H118252   6.186   5.728   0.633
 6082TIP3    H218253   6.185   5.851   0.545
 6083TIP3   OH218254   6.300   5.986   1.100
 6083TIP3    H118255   6.386   6.006   1.064
 6083TIP3    H218256   6.305   6.013   1.192
 6084TIP3   OH218257   2.037  -0.012   1.340
 6084TIP3    H118258   1.958   0.014   1.388
 6084TIP3    H218259   2.068   0.068   1.299
 6085TIP3   OH218260   6.256   5.561   0.668
 6085TIP3    H118261   6.297   5.544   0.753
 6085TIP3    H218262   6.192   5.490   0.657
 6086TIP3   OH218263   6.311   5.476   0.315
 6086TIP3    H118264   6.353   5.417   0.252
 6086TIP3    H218265   6.366   5.555   0.314
 6087TIP3   OH218266   1.547   0.888   0.566
 6087TIP3    H118267   1.609   0.885   0.493
 6087TIP3    H218268   1.582   0.956   0.624
 6088TIP3   OH218269   0.658   0.977   1.394
 6088TIP3    H118270   0.703   1.040   1.450
 6088TIP3    H218271   0.688   0.997   1.306
 6089TIP3   OH218272   1.193   0.997   1.166
 6089TIP3    H118273   1.137   1.012   1.089
 6089TIP3    H218274   1.194   1.082   1.211
 6090TIP3   OH218275   1.442   0.924   1.264
 6090TIP3    H118276   1.354   0.948   1.233
 6090TIP3    H218277   1.499   0.990   1.226
 6091TIP3   OH218278   1.600   1.097   1.113
 6091TIP3    H118279   1.560   1.156   1.050
 6091TIP3    H218280   1.645   1.031   1.060
 6092TIP3   OH218281   0.422   0.758   1.245
 6092TIP3    H118282   0.447   0.784   1.334
 6092TIP3    H218283   0.497   0.709   1.212
 6093TIP3   OH218284   0.633   0.624   1.124
 6093TIP3    H118285   0.670   0.546   1.082
 6093TIP3    H218286   0.708   0.681   1.139
 6094TIP3   OH218287   0.877   0.748   1.131
 6094TIP3    H118288   0.915   0.660   1.126
 6094TIP3    H218289   0.918   0.787   1.208
 6095TIP3   OH218290   5.790   5.498   1.157
 6095TIP3    H118291   5.763   5.449   1.235
 6095TIP3    H218292   5.878   5.467   1.138
 6096TIP3   OH218293   6.324   5.430   1.129
 6096TIP3    H118294   6.365   5.476   1.055
 6096TIP3    H218295   6.271   5.496   1.172
 6097TIP3   OH218296   6.422   5.509   0.887
 6097TIP3    H118297   6.489   5.452   0.850
 6097TIP3    H218298   6.453   5.598   0.870
 6098TIP3   OH218299   4.919   5.092   0.889
 6098TIP3    H118300   4.965   5.137   0.818
 6098TIP3    H218301   4.919   5.154   0.962
 6099TIP3   OH218302   5.540   5.347   1.169
 6099TIP3    H118303   5.482   5.321   1.097
 6099TIP3    H218304   5.596   5.271   1.183
 6100TIP3   OH218305   6.029   5.369   1.096
 6100TIP3    H118306   6.084   5.352   1.020
 6100TIP3    H218307   6.077   5.331   1.170
 6101TIP3   OH218308   6.069   5.357   0.658
 6101TIP3    H118309   5.992   5.406   0.684
 6101TIP3    H218310   6.060   5.272   0.700
 6102TIP3   OH218311   0.190   0.567   0.656
 6102TIP3    H118312   0.112   0.535   0.611
 6102TIP3    H218313   0.200   0.657   0.626
 6103TIP3   OH218314   5.013   5.237   0.654
 6103TIP3    H118315   5.048   5.191   0.577
 6103TIP3    H218316   5.079   5.303   0.674
 6104TIP3   OH218317   5.492   5.493   0.710
 6104TIP3    H118318   5.573   5.458   0.747
 6104TIP3    H218319   5.480   5.577   0.753
 6105TIP3   OH218320   0.991   0.719   0.247
 6105TIP3    H118321   1.075   0.747   0.210
 6105TIP3    H218322   0.963   0.647   0.191
 6106TIP3   OH218323   1.702   0.866   0.337
 6106TIP3    H118324   1.698   0.770   0.333
 6106TIP3    H218325   1.656   0.896   0.259
 6107TIP3   OH218326   0.289   0.556   0.295
 6107TIP3    H118327   0.300   0.580   0.387
 6107TIP3    H218328   0.370   0.511   0.272
 6108TIP3   OH218329   3.191   0.381   0.282
 6108TIP3    H118330   3.152   0.465   0.256
 6108TIP3    H218331   3.122   0.317   0.263
 6109TIP3   OH218332   3.052   0.359   0.677
 6109TIP3    H118333   3.078   0.377   0.768
 6109TIP3    H218334   3.040   0.265   0.674
 6110TIP3   OH218335   2.469   0.249   1.038
 6110TIP3    H118336   2.523   0.198   1.098
 6110TIP3    H218337   2.518   0.330   1.025
 6111TIP3   OH218338   3.497   0.672   0.341
 6111TIP3    H118339   3.474   0.586   0.376
 6111TIP3    H218340   3.539   0.717   0.414
 6112TIP3   OH218341   2.478   0.657   0.782
 6112TIP3    H118342   2.458   0.564   0.774
 6112TIP3    H218343   2.563   0.668   0.739
 6113TIP3   OH218344   6.499   6.001   0.522
 6113TIP3    H118345   6.460   6.085   0.547
 6113TIP3    H218346   6.427   5.954   0.479
 6114TIP3   OH218347   2.236   0.171   0.724
 6114TIP3    H118348   2.287   0.097   0.756
 6114TIP3    H218349   2.301   0.237   0.699
 6115TIP3   OH218350   3.168   1.154   0.419
 6115TIP3    H118351   3.098   1.131   0.358
 6115TIP3    H218352   3.126   1.153   0.505
 6116TIP3   OH218353   2.959   0.615   0.681
 6116TIP3    H118354   3.000   0.533   0.655
 6116TIP3    H218355   3.005   0.640   0.761
 6117TIP3   OH218356   3.473   0.075   0.733
 6117TIP3    H118357   3.448  -0.007   0.776
 6117TIP3    H218358   3.401   0.092   0.673
 6118TIP3   OH218359   0.591   5.878   0.700
 6118TIP3    H118360   0.571   5.953   0.643
 6118TIP3    H218361   0.536   5.807   0.666
 6119TIP3   OH218362   1.285   5.980   0.338
 6119TIP3    H118363   1.349   5.966   0.407
 6119TIP3    H218364   1.333   6.025   0.268
 6120TIP3   OH218365   0.214   6.087   0.824
 6120TIP3    H118366   0.299   6.079   0.867
 6120TIP3    H218367   0.223   6.037   0.743
 6121TIP3   OH218368   2.819   0.152   0.608
 6121TIP3    H118369   2.908   0.122   0.624
 6121TIP3    H218370   2.771   0.073   0.583
 6122TIP3   OH218371   0.562   5.887   1.161
 6122TIP3    H118372   0.519   5.917   1.081
 6122TIP3    H218373   0.500   5.908   1.231
 6123TIP3   OH218374   3.007   0.550   0.142
 6123TIP3    H118375   2.986   0.538   0.050
 6123TIP3    H218376   2.956   0.626   0.169
 6124TIP3   OH218377   2.885   0.474   0.924
 6124TIP3    H118378   2.848   0.533   0.990
 6124TIP3    H218379   2.891   0.527   0.845
 6125TIP3   OH218380   1.463   5.964   0.552
 6125TIP3    H118381   1.417   5.954   0.635
 6125TIP3    H218382   1.508   6.048   0.558
 6126TIP3   OH218383   0.456   5.977   0.920
 6126TIP3    H118384   0.502   6.057   0.944
 6126TIP3    H218385   0.507   5.940   0.848
 6127TIP3   OH218386   2.711   0.734   1.130
 6127TIP3    H118387   2.662   0.808   1.093
 6127TIP3    H218388   2.651   0.693   1.191
 6128TIP3   OH218389   2.051   0.417   0.276
 6128TIP3    H118390   2.016   0.436   0.189
 6128TIP3    H218391   2.077   0.503   0.310
 6129TIP3   OH218392   0.895   5.605   0.832
 6129TIP3    H118393   0.895   5.513   0.856
 6129TIP3    H218394   0.836   5.647   0.895
 6130TIP3   OH218395   3.192   0.911   0.062
 6130TIP3    H118396   3.253   0.838   0.059
 6130TIP3    H218397   3.243   0.983   0.099
 6131TIP3   OH218398   3.400   0.721   0.026
 6131TIP3    H118399   3.381   0.637  -0.016
 6131TIP3    H218400   3.387   0.705   0.120
 6132TIP3   OH218401   3.018   0.221   0.129
 6132TIP3    H118402   2.940   0.275   0.117
 6132TIP3    H218403   3.062   0.224   0.044
 6133TIP3   OH218404   5.150   3.089   5.133
 6133TIP3    H118405   5.214   3.138   5.184
 6133TIP3    H218406   5.201   3.023   5.085
 6134TIP3   OH218407   3.371   0.308   0.091
 6134TIP3    H118408   3.316   0.338   0.163
 6134TIP3    H218409   3.454   0.285   0.132
 6135TIP3   OH218410   2.606   0.296   0.503
 6135TIP3    H118411   2.567   0.237   0.438
 6135TIP3    H218412   2.682   0.249   0.535
 6136TIP3   OH218413   2.709   0.691   0.631
 6136TIP3    H118414   2.695   0.671   0.538
 6136TIP3    H218415   2.799   0.663   0.647
 6137TIP3   OH218416   2.724   0.272   0.840
 6137TIP3    H118417   2.769   0.251   0.757
 6137TIP3    H218418   2.774   0.345   0.876
 6138TIP3   OH218419   3.232   0.908   0.618
 6138TIP3    H118420   3.309   0.905   0.675
 6138TIP3    H218421   3.235   0.825   0.570
 6139TIP3   OH218422   5.372   3.233   5.228
 6139TIP3    H118423   5.430   3.291   5.278
 6139TIP3    H218424   5.400   3.244   5.137
 6140TIP3   OH218425   2.586   0.332   1.339
 6140TIP3    H118426   2.615   0.423   1.346
 6140TIP3    H218427   2.491   0.337   1.344
 6141TIP3   OH218428   2.928   0.811   0.168
 6141TIP3    H118429   3.007   0.864   0.181
 6141TIP3    H218430   2.883   0.853   0.094
 6142TIP3   OH218431   5.868   2.478   5.260
 6142TIP3    H118432   5.788   2.496   5.310
 6142TIP3    H218433   5.884   2.558   5.210
 6143TIP3   OH218434   2.476   0.142   0.295
 6143TIP3    H118435   2.402   0.192   0.261
 6143TIP3    H218436   2.439   0.058   0.321
 6144TIP3   OH218437   5.705   3.838   4.822
 6144TIP3    H118438   5.704   3.933   4.815
 6144TIP3    H218439   5.796   3.813   4.803
 6145TIP3   OH218440   2.277   0.494   1.157
 6145TIP3    H118441   2.198   0.518   1.107
 6145TIP3    H218442   2.248   0.493   1.248
 6146TIP3   OH218443   2.077   0.713   0.875
 6146TIP3    H118444   2.172   0.719   0.883
 6146TIP3    H218445   2.047   0.804   0.883
 6147TIP3   OH218446   4.995   4.100   5.305
 6147TIP3    H118447   4.962   4.076   5.218
 6147TIP3    H218448   4.962   4.188   5.319
 6148TIP3   OH218449   2.257   0.917   0.379
 6148TIP3    H118450   2.314   0.898   0.454
 6148TIP3    H218451   2.213   0.834   0.361
 6149TIP3   OH218452   5.202   4.055   4.920
 6149TIP3    H118453   5.260   3.984   4.893
 6149TIP3    H218454   5.231   4.078   5.008
 6150TIP3   OH218455   5.238   4.118   5.179
 6150TIP3    H118456   5.158   4.117   5.231
 6150TIP3    H218457   5.302   4.073   5.233
 6151TIP3   OH218458   2.503   0.606   1.249
 6151TIP3    H118459   2.476   0.599   1.340
 6151TIP3    H218460   2.430   0.569   1.199
 6152TIP3   OH218461   0.682   5.678   1.002
 6152TIP3    H118462   0.598   5.654   0.962
 6152TIP3    H218463   0.663   5.756   1.054
 6153TIP3   OH218464   5.456   3.236   4.968
 6153TIP3    H118465   5.412   3.233   4.883
 6153TIP3    H218466   5.537   3.285   4.950
 6154TIP3   OH218467   5.167   2.637   5.279
 6154TIP3    H118468   5.132   2.646   5.368
 6154TIP3    H218469   5.127   2.558   5.245
 6155TIP3   OH218470   2.755   0.065   1.008
 6155TIP3    H118471   2.715   0.082   1.093
 6155TIP3    H218472   2.739   0.144   0.957
 6156TIP3   OH218473   0.497   6.070   0.530
 6156TIP3    H118474   0.408   6.049   0.555
 6156TIP3    H218475   0.507   6.033   0.442
 6157TIP3   OH218476   3.151   0.024   0.266
 6157TIP3    H118477   3.100   0.093   0.225
 6157TIP3    H218478   3.206  -0.010   0.196
 6158TIP3   OH218479   3.301   0.040   0.503
 6158TIP3    H118480   3.239   0.063   0.434
 6158TIP3    H218481   3.350  -0.035   0.468
 6159TIP3   OH218482   2.606   0.087   1.230
 6159TIP3    H118483   2.610   0.170   1.278
 6159TIP3    H218484   2.592   0.021   1.297
 6160TIP3   OH218485   4.830   2.625   5.250
 6160TIP3    H118486   4.821   2.627   5.346
 6160TIP3    H218487   4.752   2.670   5.218
 6161TIP3   OH218488   0.039   5.736   0.808
 6161TIP3    H118489   0.110   5.774   0.860
 6161TIP3    H218490   0.078   5.720   0.722
 6162TIP3   OH218491   6.466   5.709   0.321
 6162TIP3    H118492   6.508   5.744   0.243
 6162TIP3    H218493   6.403   5.776   0.346
 6163TIP3   OH218494   3.275   0.267   0.922
 6163TIP3    H118495   3.330   0.201   0.880
 6163TIP3    H218496   3.243   0.225   1.002
 6164TIP3   OH218497   0.849   5.869   0.581
 6164TIP3    H118498   0.772   5.870   0.638
 6164TIP3    H218499   0.923   5.862   0.642
 6165TIP3   OH218500   0.259   5.950   0.592
 6165TIP3    H118501   0.170   5.956   0.557
 6165TIP3    H218502   0.287   5.861   0.572
 6166TIP3   OH218503   0.517   5.943   0.289
 6166TIP3    H118504   0.610   5.960   0.276
 6166TIP3    H218505   0.477   5.965   0.205
 6167TIP3   OH218506   1.299   5.919   0.801
 6167TIP3    H118507   1.270   5.947   0.887
 6167TIP3    H218508   1.222   5.879   0.761
 6168TIP3   OH218509   0.392   5.973   0.049
 6168TIP3    H118510   0.325   5.926  -0.002
 6168TIP3    H218511   0.445   6.018  -0.017
 6169TIP3   OH218512   3.076   0.084   0.684
 6169TIP3    H118513   3.154   0.054   0.637
 6169TIP3    H218514   3.084   0.047   0.772
 6170TIP3   OH218515   0.408   5.705   0.575
 6170TIP3    H118516   0.378   5.629   0.625
 6170TIP3    H218517   0.439   5.669   0.492
 6171TIP3   OH218518   3.015   0.011   0.979
 6171TIP3    H118519   2.922   0.035   0.983
 6171TIP3    H218520   3.057   0.070   1.041
 6172TIP3   OH218521   2.780   0.365   0.065
 6172TIP3    H118522   2.707   0.306   0.050
 6172TIP3    H218523   2.763   0.403   0.151
 6173TIP3   OH218524   5.417   2.745   5.269
 6173TIP3    H118525   5.324   2.721   5.273
 6173TIP3    H218526   5.417   2.839   5.288
 6174TIP3   OH218527   1.139   6.069   0.045
 6174TIP3    H118528   1.233   6.081   0.058
 6174TIP3    H218529   1.112   6.147  -0.005
 6175TIP3   OH218530   2.471   0.379   0.735
 6175TIP3    H118531   2.519   0.359   0.655
 6175TIP3    H218532   2.531   0.355   0.806
 6176TIP3   OH218533   5.083   3.581   5.193
 6176TIP3    H118534   5.040   3.667   5.199
 6176TIP3    H218535   5.029   3.524   5.247
 6177TIP3   OH218536   2.319   0.310   1.398
 6177TIP3    H118537   2.276   0.391   1.425
 6177TIP3    H218538   2.258   0.270   1.336
 6178TIP3   OH218539   5.904   3.098   5.173
 6178TIP3    H118540   5.850   3.048   5.112
 6178TIP3    H218541   5.904   3.187   5.138
 6179TIP3   OH218542   5.632   3.914   5.097
 6179TIP3    H118543   5.609   3.867   5.177
 6179TIP3    H218544   5.633   3.847   5.030
 6180TIP3   OH218545   3.496   0.458   0.506
 6180TIP3    H118546   3.423   0.425   0.558
 6180TIP3    H218547   3.545   0.379   0.480
 6181TIP3   OH218548   2.590   0.702   0.378
 6181TIP3    H118549   2.579   0.772   0.314
 6181TIP3    H218550   2.518   0.716   0.441
 6182TIP3   OH218551   2.163   0.005   0.102
 6182TIP3    H118552   2.205   0.089   0.120
 6182TIP3    H218553   2.083   0.006   0.154
 6183TIP3   OH218554   2.698   0.465   0.302
 6183TIP3    H118555   2.667   0.553   0.323
 6183TIP3    H218556   2.671   0.412   0.376
 6184TIP3   OH218557   2.816   0.997   0.839
 6184TIP3    H118558   2.810   1.057   0.914
 6184TIP3    H218559   2.908   0.972   0.835
 6185TIP3   OH218560   2.486   0.905   0.225
 6185TIP3    H118561   2.403   0.917   0.272
 6185TIP3    H218562   2.524   0.992   0.222
 6186TIP3   OH218563   3.195   0.565   0.833
 6186TIP3    H118564   3.217   0.633   0.896
 6186TIP3    H218565   3.216   0.604   0.748
 6187TIP3   OH218566   5.388   3.644   4.994
 6187TIP3    H118567   5.437   3.614   5.071
 6187TIP3    H218568   5.300   3.608   5.006
 6188TIP3   OH218569   5.726   4.115   4.797
 6188TIP3    H118570   5.765   4.195   4.763
 6188TIP3    H218571   5.648   4.144   4.843
 6189TIP3   OH218572   0.384   5.962   1.360
 6189TIP3    H118573   0.290   5.981   1.356
 6189TIP3    H218574   0.395   5.912   1.441
 6190TIP3   OH218575   5.553   3.550   5.193
 6190TIP3    H118576   5.542   3.487   5.264
 6190TIP3    H218577   5.647   3.555   5.179
 6191TIP3   OH218578   2.315   0.787   1.044
 6191TIP3    H118579   2.393   0.765   0.994
 6191TIP3    H218580   2.297   0.878   1.021
 6192TIP3   OH218581   4.745   3.614   4.999
 6192TIP3    H118582   4.754   3.522   4.974
 6192TIP3    H218583   4.725   3.611   5.093
 6193TIP3   OH218584   4.687   3.626   5.269
 6193TIP3    H118585   4.750   3.597   5.335
 6193TIP3    H218586   4.687   3.722   5.277
 6194TIP3   OH218587   2.255   0.258   0.175
 6194TIP3    H118588   2.188   0.301   0.229
 6194TIP3    H218589   2.270   0.319   0.103
 6195TIP3   OH218590   1.139   5.763   0.238
 6195TIP3    H118591   1.116   5.787   0.147
 6195TIP3    H218592   1.178   5.842   0.274
 6196TIP3   OH218593   4.958   3.817   5.212
 6196TIP3    H118594   4.871   3.840   5.245
 6196TIP3    H218595   4.980   3.889   5.153
 6197TIP3   OH218596   0.797   5.958   0.326
 6197TIP3    H118597   0.860   6.028   0.306
 6197TIP3    H218598   0.812   5.937   0.418
 6198TIP3   OH218599   3.202   0.114   1.147
 6198TIP3    H118600   3.183   0.180   1.214
 6198TIP3    H218601   3.278   0.066   1.182
 6199TIP3   OH218602   0.951   5.659   0.417
 6199TIP3    H118603   0.930   5.733   0.474
 6199TIP3    H218604   1.025   5.688   0.365
 6200TIP3   OH218605   4.706   3.898   5.278
 6200TIP3    H118606   4.682   3.974   5.225
 6200TIP3    H218607   4.685   3.925   5.368
 6201TIP3   OH218608   0.470   5.674   0.221
 6201TIP3    H118609   0.458   5.764   0.252
 6201TIP3    H218610   0.565   5.659   0.228
 6202TIP3   OH218611   3.556   0.195   0.478
 6202TIP3    H118612   3.469   0.179   0.516
 6202TIP3    H218613   3.616   0.151   0.538
 6203TIP3   OH218614   4.434   3.505   5.269
 6203TIP3    H118615   4.505   3.568   5.279
 6203TIP3    H218616   4.468   3.441   5.207
 6204TIP3   OH218617   6.518   5.856   0.095
 6204TIP3    H118618   6.532   5.950   0.104
 6204TIP3    H218619   6.441   5.849   0.038
 6205TIP3   OH218620   0.423   5.598   0.945
 6205TIP3    H118621   0.395   5.568   0.858
 6205TIP3    H218622   0.413   5.521   1.001
 6206TIP3   OH218623   2.103   0.682   0.349
 6206TIP3    H118624   2.057   0.715   0.426
 6206TIP3    H218625   2.065   0.730   0.275
 6207TIP3   OH218626   4.905   3.810   4.893
 6207TIP3    H118627   4.855   3.740   4.936
 6207TIP3    H218628   4.980   3.765   4.854
 6208TIP3   OH218629   5.349   3.850   4.816
 6208TIP3    H118630   5.377   3.786   4.882
 6208TIP3    H218631   5.413   3.841   4.745
 6209TIP3   OH218632   4.569   3.315   5.127
 6209TIP3    H118633   4.620   3.291   5.204
 6209TIP3    H218634   4.634   3.327   5.058
 6210TIP3   OH218635   5.118   3.533   4.932
 6210TIP3    H118636   5.096   3.549   5.024
 6210TIP3    H218637   5.107   3.438   4.921
 6211TIP3   OH218638   2.577   0.184   0.030
 6211TIP3    H118639   2.554   0.155   0.118
 6211TIP3    H218640   2.622   0.108  -0.009
 6212TIP3   OH218641   4.876   3.056   5.181
 6212TIP3    H118642   4.847   3.063   5.091
 6212TIP3    H218643   4.972   3.063   5.176
 6213TIP3   OH218644   5.680   3.359   4.857
 6213TIP3    H118645   5.663   3.317   4.773
 6213TIP3    H218646   5.652   3.450   4.844
 6214TIP3   OH218647   0.832   5.924   1.149
 6214TIP3    H118648   0.840   6.001   1.092
 6214TIP3    H218649   0.737   5.909   1.155
 6215TIP3   OH218650   3.103   0.410   1.091
 6215TIP3    H118651   3.160   0.406   1.014
 6215TIP3    H218652   3.015   0.418   1.056
 6216TIP3   OH218653   1.071   5.816   1.073
 6216TIP3    H118654   0.988   5.859   1.090
 6216TIP3    H218655   1.093   5.771   1.155
 6217TIP3   OH218656   4.694   4.114   5.102
 6217TIP3    H118657   4.784   4.092   5.076
 6217TIP3    H218658   4.657   4.158   5.025
 6218TIP3   OH218659   4.162   3.488   5.296
 6218TIP3    H118660   4.256   3.503   5.289
 6218TIP3    H218661   4.149   3.401   5.258
 6219TIP3   OH218662   1.904   1.017   0.436
 6219TIP3    H118663   1.835   0.973   0.387
 6219TIP3    H218664   1.942   0.948   0.491
 6220TIP3   OH218665   1.999   0.799   0.578
 6220TIP3    H118666   1.971   0.735   0.643
 6220TIP3    H218667   2.067   0.850   0.622
 6221TIP3   OH218668   5.826   3.553   5.185
 6221TIP3    H118669   5.886   3.620   5.151
 6221TIP3    H218670   5.870   3.518   5.262
 6222TIP3   OH218671   3.789   0.354   0.076
 6222TIP3    H118672   3.723   0.315   0.133
 6222TIP3    H218673   3.854   0.390   0.135
 6223TIP3   OH218674   5.886   3.333   5.034
 6223TIP3    H118675   5.815   3.332   4.969
 6223TIP3    H218676   5.867   3.409   5.089
 6224TIP3   OH218677   5.758   2.988   4.972
 6224TIP3    H118678   5.704   3.030   4.905
 6224TIP3    H218679   5.740   2.894   4.961
 6225TIP3   OH218680   3.599   0.215   0.215
 6225TIP3    H118681   3.597   0.122   0.194
 6225TIP3    H218682   3.585   0.218   0.310
 6226TIP3   OH218683   2.204   0.266   0.977
 6226TIP3    H118684   2.203   0.237   0.886
 6226TIP3    H218685   2.296   0.279   0.998
 6227TIP3   OH218686   5.698   2.721   4.945
 6227TIP3    H118687   5.763   2.695   5.010
 6227TIP3    H218688   5.617   2.679   4.974
 6228TIP3   OH218689   1.424   6.083   0.101
 6228TIP3    H118690   1.451   5.991   0.102
 6228TIP3    H218691   1.472   6.122   0.029
 6229TIP3   OH218692   3.767   0.069   0.606
 6229TIP3    H118693   3.848   0.111   0.579
 6229TIP3    H218694   3.759   0.090   0.699
 6230TIP3   OH218695   1.507   5.822   0.113
 6230TIP3    H118696   1.558   5.810   0.193
 6230TIP3    H218697   1.444   5.750   0.114
 6231TIP3   OH218698   0.246   5.806   0.980
 6231TIP3    H118699   0.303   5.729   0.978
 6231TIP3    H218700   0.304   5.880   0.961
 6232TIP3   OH218701   0.054   6.078   1.049
 6232TIP3    H118702   0.101   6.066   0.967
 6232TIP3    H218703   0.069   6.169   1.072
 6233TIP3   OH218704   5.934   2.681   5.090
 6233TIP3    H118705   5.978   2.616   5.035
 6233TIP3    H218706   5.994   2.756   5.092
 6234TIP3   OH218707   6.524   5.569   0.548
 6234TIP3    H118708   6.436   5.561   0.586
 6234TIP3    H218709   6.511   5.626   0.472
 6235TIP3   OH218710   5.520   4.209   5.264
 6235TIP3    H118711   5.596   4.159   5.233
 6235TIP3    H218712   5.526   4.205   5.359
 6236TIP3   OH218713   0.221   5.628   1.345
 6236TIP3    H118714   0.185   5.654   1.430
 6236TIP3    H218715   0.174   5.683   1.282
 6237TIP3   OH218716   2.585   0.901   0.948
 6237TIP3    H118717   2.537   0.983   0.937
 6237TIP3    H218718   2.672   0.919   0.912
 6238TIP3   OH218719   2.326   1.316   0.949
 6238TIP3    H118720   2.232   1.334   0.958
 6238TIP3    H218721   2.361   1.330   1.037
 6239TIP3   OH218722   2.539   1.163   0.874
 6239TIP3    H118723   2.486   1.227   0.921
 6239TIP3    H218724   2.602   1.216   0.824
 6240TIP3   OH218725   2.179   0.935   0.717
 6240TIP3    H118726   2.181   0.964   0.808
 6240TIP3    H218727   2.266   0.957   0.684
 6241TIP3   OH218728   2.429   0.823   0.569
 6241TIP3    H118729   2.428   0.769   0.648
 6241TIP3    H218730   2.455   0.910   0.599
 6242TIP3   OH218731   2.689   0.969   0.598
 6242TIP3    H118732   2.676   0.877   0.576
 6242TIP3    H218733   2.731   0.967   0.685
 6243TIP3   OH218734   1.074   5.783   0.715
 6243TIP3    H118735   1.024   5.724   0.771
 6243TIP3    H218736   1.126   5.726   0.659
 6244TIP3   OH218737   1.505   5.678   0.484
 6244TIP3    H118738   1.559   5.724   0.421
 6244TIP3    H218739   1.479   5.745   0.547
 6245TIP3   OH218740   1.686   5.787   0.311
 6245TIP3    H118741   1.739   5.708   0.297
 6245TIP3    H218742   1.750   5.858   0.311
 6246TIP3   OH218743   0.332   5.481   0.714
 6246TIP3    H118744   0.241   5.451   0.721
 6246TIP3    H218745   0.383   5.400   0.707
 6247TIP3   OH218746   0.149   5.377   0.378
 6247TIP3    H118747   0.173   5.429   0.301
 6247TIP3    H218748   0.111   5.440   0.439
 6248TIP3   OH218749   0.783   5.522   0.594
 6248TIP3    H118750   0.838   5.564   0.527
 6248TIP3    H218751   0.814   5.559   0.677
 6249TIP3   OH218752   1.240   5.627   0.566
 6249TIP3    H118753   1.316   5.640   0.510
 6249TIP3    H218754   1.270   5.564   0.632
 6250TIP3   OH218755   1.341   5.603   0.140
 6250TIP3    H118756   1.265   5.650   0.173
 6250TIP3    H218757   1.334   5.516   0.179
 6251TIP3   OH218758   2.000   0.820   0.138
 6251TIP3    H118759   1.915   0.784   0.113
 6251TIP3    H218760   1.998   0.911   0.107
 6252TIP3   OH218761   0.254   5.512   0.141
 6252TIP3    H118762   0.298   5.452   0.081
 6252TIP3    H218763   0.323   5.569   0.174
 6253TIP3   OH218764   0.746   5.705   0.234
 6253TIP3    H118765   0.805   5.657   0.291
 6253TIP3    H218766   0.757   5.797   0.259
 6254TIP3   OH218767   4.950   4.036   5.034
 6254TIP3    H118768   5.032   4.066   4.995
 6254TIP3    H218769   4.923   3.963   4.979
 6255TIP3   OH218770   5.734   4.162   5.096
 6255TIP3    H118771   5.706   4.070   5.096
 6255TIP3    H218772   5.669   4.207   5.042
 6256TIP3   OH218773   4.252   3.883   5.096
 6256TIP3    H118774   4.252   3.886   5.192
 6256TIP3    H218775   4.334   3.838   5.074
 6257TIP3   OH218776   3.955   0.137   0.009
 6257TIP3    H118777   3.916   0.222   0.033
 6257TIP3    H218778   3.886   0.091  -0.038
 6258TIP3   OH218779   4.022   0.413   0.203
 6258TIP3    H118780   4.068   0.342   0.247
 6258TIP3    H218781   4.089   0.459   0.153
 6259TIP3   OH218782   4.164   0.193   0.304
 6259TIP3    H118783   4.255   0.210   0.327
 6259TIP3    H218784   4.169   0.140   0.224
 6260TIP3   OH218785   6.003   3.717   5.054
 6260TIP3    H118786   5.965   3.738   4.969
 6260TIP3    H218787   6.028   3.802   5.091
 6261TIP3   OH218788   6.469   3.459   5.054
 6261TIP3    H118789   6.377   3.487   5.054
 6261TIP3    H218790   6.481   3.414   5.138
 6262TIP3   OH218791   0.042   3.297   5.284
 6262TIP3    H118792  -0.015   3.234   5.328
 6262TIP3    H218793   0.113   3.245   5.248
 6263TIP3   OH218794   0.062   2.868   4.773
 6263TIP3    H118795   0.041   2.899   4.861
 6263TIP3    H218796   0.019   2.930   4.715
 6264TIP3   OH218797   1.894   5.967   0.294
 6264TIP3    H118798   1.907   6.058   0.320
 6264TIP3    H218799   1.898   5.969   0.198
 6265TIP3   OH218800   6.101   2.907   5.118
 6265TIP3    H118801   6.142   2.941   5.039
 6265TIP3    H218802   6.037   2.974   5.142
 6266TIP3   OH218803   4.196   0.039   0.076
 6266TIP3    H118804   4.113   0.074   0.043
 6266TIP3    H218805   4.220  -0.030   0.015
 6267TIP3   OH218806   0.144   3.114   5.078
 6267TIP3    H118807   0.223   3.166   5.062
 6267TIP3    H218808   0.084   3.139   5.008
 6268TIP3   OH218809   6.504   3.155   4.852
 6268TIP3    H118810   6.429   3.122   4.803
 6268TIP3    H218811   6.552   3.208   4.788
 6269TIP3   OH218812   0.221   3.738   4.854
 6269TIP3    H118813   0.175   3.656   4.832
 6269TIP3    H218814   0.247   3.727   4.945
 6270TIP3   OH218815   6.120   3.323   4.890
 6270TIP3    H118816   6.167   3.403   4.913
 6270TIP3    H218817   6.040   3.326   4.943
 6271TIP3   OH218818  -0.022   3.861   4.515
 6271TIP3    H118819   0.047   3.800   4.489
 6271TIP3    H218820  -0.010   3.872   4.610
 6272TIP3   OH218821   0.005   3.894   4.785
 6272TIP3    H118822   0.078   3.836   4.808
 6272TIP3    H218823   0.010   3.965   4.849
 6273TIP3   OH218824   6.218   3.570   4.968
 6273TIP3    H118825   6.147   3.609   5.018
 6273TIP3    H218826   6.238   3.635   4.901
 6274TIP3   OH218827   0.073   2.852   5.053
 6274TIP3    H118828   0.090   2.944   5.074
 6274TIP3    H218829   0.138   2.804   5.105
 6275TIP3   OH218830   6.238   3.769   4.765
 6275TIP3    H118831   6.310   3.830   4.780
 6275TIP3    H218832   6.271   3.709   4.697
 6276TIP3   OH218833   6.148   3.048   4.892
 6276TIP3    H118834   6.161   3.143   4.898
 6276TIP3    H218835   6.072   3.039   4.834
 6277TIP3   OH218836   6.056   3.976   5.117
 6277TIP3    H118837   6.004   4.024   5.181
 6277TIP3    H218838   6.048   4.026   5.036
 6278TIP3   OH218839   0.146   4.114   4.461
 6278TIP3    H118840   0.150   4.018   4.468
 6278TIP3    H218841   0.236   4.143   4.471
 6279TIP3   OH218842   6.359   3.579   4.612
 6279TIP3    H118843   6.410   3.552   4.688
 6279TIP3    H218844   6.424   3.603   4.546
 6280TIP3   OH218845   0.251   3.856   4.461
 6280TIP3    H118846   0.330   3.834   4.511
 6280TIP3    H218847   0.249   3.793   4.390
 6281TIP3   OH218848   0.051   3.521   4.804
 6281TIP3    H118849   0.021   3.499   4.892
 6281TIP3    H218850   0.098   3.443   4.775
 6282TIP3   OH218851   0.171   3.300   4.684
 6282TIP3    H118852   0.119   3.330   4.609
 6282TIP3    H218853   0.208   3.217   4.655
 6283TIP3   OH218854   5.962   3.746   4.765
 6283TIP3    H118855   6.057   3.759   4.771
 6283TIP3    H218856   5.953   3.657   4.731
 6284TIP3   OH218857   1.972   0.631   1.616
 6284TIP3    H118858   1.957   0.599   1.527
 6284TIP3    H218859   2.067   0.631   1.626
 6285TIP3   OH218860   3.999   0.198   0.531
 6285TIP3    H118861   4.046   0.188   0.448
 6285TIP3    H218862   4.016   0.288   0.558
 6286TIP3   OH218863   1.791   5.809   0.024
 6286TIP3    H118864   1.698   5.800   0.048
 6286TIP3    H218865   1.792   5.872  -0.047
 6287TIP3   OH218866   6.234   2.559   5.147
 6287TIP3    H118867   6.269   2.614   5.077
 6287TIP3    H218868   6.202   2.622   5.212
 6288TIP3   OH218869   5.992   4.125   4.896
 6288TIP3    H118870   5.900   4.102   4.882
 6288TIP3    H218871   5.989   4.216   4.924
 6289TIP3   OH218872   6.359   2.707   4.943
 6289TIP3    H118873   6.404   2.650   4.880
 6289TIP3    H218874   6.429   2.759   4.982
 6290TIP3   OH218875   6.044   4.154   4.605
 6290TIP3    H118876   6.003   4.190   4.684
 6290TIP3    H218877   6.103   4.086   4.638
 6291TIP3   OH218878   5.716   1.632   1.006
 6291TIP3    H118879   5.765   1.711   0.985
 6291TIP3    H218880   5.647   1.628   0.939
 6292TIP3   OH218881   6.003   1.167   0.991
 6292TIP3    H118882   6.070   1.166   1.059
 6292TIP3    H218883   6.051   1.189   0.911
 6293TIP3   OH218884   5.443   1.876   0.832
 6293TIP3    H118885   5.515   1.889   0.771
 6293TIP3    H218886   5.482   1.889   0.919
 6294TIP3   OH218887   6.207   1.202   1.173
 6294TIP3    H118888   6.273   1.135   1.190
 6294TIP3    H218889   6.243   1.281   1.212
 6295TIP3   OH218890   5.945   1.992   0.778
 6295TIP3    H118891   5.932   1.947   0.694
 6295TIP3    H218892   5.982   1.926   0.836
 6296TIP3   OH218893   5.543   1.603   0.799
 6296TIP3    H118894   5.452   1.620   0.824
 6296TIP3    H218895   5.538   1.545   0.723
 6297TIP3   OH218896   5.553   1.281   0.437
 6297TIP3    H118897   5.614   1.329   0.493
 6297TIP3    H218898   5.606   1.214   0.394
 6298TIP3   OH218899   6.371   1.712   1.332
 6298TIP3    H118900   6.390   1.774   1.403
 6298TIP3    H218901   6.421   1.744   1.257
 6299TIP3   OH218902   6.036   1.690   0.782
 6299TIP3    H118903   5.961   1.631   0.779
 6299TIP3    H218904   6.106   1.636   0.821
 6300TIP3   OH218905   5.770   1.404   0.535
 6300TIP3    H118906   5.785   1.472   0.600
 6300TIP3    H218907   5.799   1.443   0.452
 6301TIP3   OH218908   6.269   0.713   0.638
 6301TIP3    H118909   6.189   0.734   0.686
 6301TIP3    H218910   6.283   0.788   0.580
 6302TIP3   OH218911   6.099   2.071   0.215
 6302TIP3    H118912   6.084   2.160   0.183
 6302TIP3    H218913   6.186   2.049   0.182
 6303TIP3   OH218914   5.642   2.317   0.252
 6303TIP3    H118915   5.715   2.268   0.214
 6303TIP3    H218916   5.642   2.292   0.344
 6304TIP3   OH218917   5.843   1.502   0.301
 6304TIP3    H118918   5.800   1.487   0.217
 6304TIP3    H218919   5.924   1.547   0.279
 6305TIP3   OH218920   5.541   0.880   0.614
 6305TIP3    H118921   5.540   0.870   0.709
 6305TIP3    H218922   5.501   0.800   0.580
 6306TIP3   OH218923   5.703   1.309   0.900
 6306TIP3    H118924   5.635   1.323   0.835
 6306TIP3    H218925   5.778   1.277   0.849
 6307TIP3   OH218926   5.872   1.373   1.122
 6307TIP3    H118927   5.809   1.408   1.059
 6307TIP3    H218928   5.910   1.297   1.079
 6308TIP3   OH218929   5.205   0.842   0.604
 6308TIP3    H118930   5.195   0.835   0.699
 6308TIP3    H218931   5.150   0.916   0.580
 6309TIP3   OH218932   5.320   1.028   0.937
 6309TIP3    H118933   5.401   1.062   0.975
 6309TIP3    H218934   5.319   1.064   0.848
 6310TIP3   OH218935   5.185   1.113   0.680
 6310TIP3    H118936   5.095   1.102   0.649
 6310TIP3    H218937   5.230   1.159   0.610
 6311TIP3   OH218938   5.279   1.614   0.818
 6311TIP3    H118939   5.229   1.597   0.738
 6311TIP3    H218940   5.263   1.706   0.837
 6312TIP3   OH218941   5.793   0.981   0.611
 6312TIP3    H118942   5.699   0.967   0.610
 6312TIP3    H218943   5.803   1.074   0.632
 6313TIP3   OH218944   5.876   1.224   0.706
 6313TIP3    H118945   5.970   1.237   0.710
 6313TIP3    H218946   5.846   1.287   0.640
 6314TIP3   OH218947   5.503   1.812   0.541
 6314TIP3    H118948   5.472   1.902   0.532
 6314TIP3    H218949   5.433   1.767   0.590
 6315TIP3   OH218950   6.281   1.334   0.529
 6315TIP3    H118951   6.224   1.289   0.466
 6315TIP3    H218952   6.286   1.424   0.497
 6316TIP3   OH218953   5.980   2.132   0.455
 6316TIP3    H118954   5.976   2.052   0.507
 6316TIP3    H218955   6.025   2.105   0.374
 6317TIP3   OH218956   5.810   1.806   0.329
 6317TIP3    H118957   5.848   1.807   0.417
 6317TIP3    H218958   5.724   1.766   0.341
 6318TIP3   OH218959   6.095   2.350   0.158
 6318TIP3    H118960   6.088   2.404   0.079
 6318TIP3    H218961   6.018   2.374   0.210
 6319TIP3   OH218962   5.959   1.819   0.556
 6319TIP3    H118963   5.960   1.764   0.634
 6319TIP3    H218964   6.050   1.818   0.524
 6320TIP3   OH218965   5.037   1.798   0.407
 6320TIP3    H118966   5.112   1.776   0.351
 6320TIP3    H218967   5.072   1.794   0.496
 6321TIP3   OH218968   5.876   0.936   0.877
 6321TIP3    H118969   5.843   0.959   0.790
 6321TIP3    H218970   5.900   1.020   0.916
 6322TIP3   OH218971   5.581   1.085   1.009
 6322TIP3    H118972   5.644   1.149   0.977
 6322TIP3    H218973   5.596   1.081   1.103
 6323TIP3   OH218974   5.177   0.808   0.878
 6323TIP3    H118975   5.217   0.889   0.910
 6323TIP3    H218976   5.210   0.741   0.938
 6324TIP3   OH218977   6.097   1.527   1.140
 6324TIP3    H118978   6.020   1.471   1.155
 6324TIP3    H218979   6.163   1.494   1.202
 6325TIP3   OH218980   5.273   2.099   0.218
 6325TIP3    H118981   5.204   2.045   0.256
 6325TIP3    H218982   5.330   2.038   0.172
 6326TIP3   OH218983   5.857   2.196   0.147
 6326TIP3    H118984   5.852   2.122   0.208
 6326TIP3    H218985   5.848   2.156   0.061
 6327TIP3   OH218986   5.538   1.736   0.273
 6327TIP3    H118987   5.521   1.747   0.366
 6327TIP3    H218988   5.529   1.642   0.258
 6328TIP3   OH218989   5.156   1.452   0.635
 6328TIP3    H118990   5.112   1.431   0.718
 6328TIP3    H218991   5.197   1.370   0.608
 6329TIP3   OH218992   5.288   1.265   0.490
 6329TIP3    H118993   5.250   1.280   0.403
 6329TIP3    H218994   5.383   1.265   0.474
 6330TIP3   OH218995   6.073   1.610   0.193
 6330TIP3    H118996   6.054   1.560   0.114
 6330TIP3    H218997   6.048   1.700   0.171
 6331TIP3   OH218998   6.227   1.791   0.537
 6331TIP3    H118999   6.293   1.856   0.510
 6331TIP3    H219000   6.261   1.754   0.618
 6332TIP3   OH219001   6.354   1.656   0.742
 6332TIP3    H119002   6.301   1.603   0.801
 6332TIP3    H219003   6.421   1.695   0.798
 6333TIP3   OH219004   6.264   1.568   0.386
 6333TIP3    H119005   6.194   1.572   0.321
 6333TIP3    H219006   6.248   1.644   0.443
 6334TIP3   OH219007   6.126   1.235   0.328
 6334TIP3    H119008   6.082   1.266   0.249
 6334TIP3    H219009   6.112   1.140   0.328
 6335TIP3   OH219010   6.193   1.492   0.889
 6335TIP3    H119011   6.182   1.398   0.877
 6335TIP3    H219012   6.165   1.507   0.980
 6336TIP3   OH219013   6.076   0.970   0.322
 6336TIP3    H119014   6.146   0.932   0.375
 6336TIP3    H219015   6.000   0.913   0.339
 6337TIP3   OH219016   6.150   1.233   0.758
 6337TIP3    H119017   6.195   1.149   0.769
 6337TIP3    H219018   6.197   1.276   0.687
 6338TIP3   OH219019   6.317   1.439   1.286
 6338TIP3    H119020   6.405   1.427   1.250
 6338TIP3    H219021   6.317   1.527   1.321
 6339TIP3   OH219022   6.256   0.984   0.812
 6339TIP3    H119023   6.299   0.976   0.897
 6339TIP3    H219024   6.192   0.913   0.811
 6340TIP3   OH219025   6.316   0.905   0.452
 6340TIP3    H119026   6.361   0.844   0.394
 6340TIP3    H219027   6.373   0.982   0.455
 6341TIP3   OH219028   6.400   0.934   1.039
 6341TIP3    H119029   6.471   0.874   1.017
 6341TIP3    H219030   6.439   1.021   1.029
 6342TIP3   OH219031   6.077   0.763   0.827
 6342TIP3    H119032   6.006   0.826   0.839
 6342TIP3    H219033   6.046   0.684   0.871
 6343TIP3   OH219034   4.971   0.631   0.850
 6343TIP3    H119035   4.953   0.620   0.756
 6343TIP3    H219036   5.021   0.713   0.855
 6344TIP3   OH219037   5.548   0.842   0.886
 6344TIP3    H119038   5.466   0.816   0.928
 6344TIP3    H219039   5.570   0.926   0.925
 6345TIP3   OH219040   6.037   2.393   0.521
 6345TIP3    H119041   6.024   2.300   0.504
 6345TIP3    H219042   6.001   2.437   0.444
 6346TIP3   OH219043   1.028   1.954   0.432
 6346TIP3    H119044   0.987   2.035   0.401
 6346TIP3    H219045   0.964   1.886   0.411
 6347TIP3   OH219046   1.005   1.923   0.825
 6347TIP3    H119047   1.051   1.882   0.899
 6347TIP3    H219048   0.975   1.850   0.772
 6348TIP3   OH219049   0.333   1.818   1.172
 6348TIP3    H119050   0.366   1.771   1.249
 6348TIP3    H219051   0.410   1.831   1.117
 6349TIP3   OH219052   1.297   2.220   0.480
 6349TIP3    H119053   1.292   2.147   0.542
 6349TIP3    H219054   1.265   2.295   0.530
 6350TIP3   OH219055   0.330   2.242   0.889
 6350TIP3    H119056   0.312   2.148   0.892
 6350TIP3    H219057   0.424   2.248   0.871
 6351TIP3   OH219058   6.509   1.430   0.670
 6351TIP3    H119059   6.472   1.514   0.697
 6351TIP3    H219060   6.435   1.382   0.632
 6352TIP3   OH219061   0.079   1.736   0.877
 6352TIP3    H119062   0.131   1.662   0.908
 6352TIP3    H219063   0.143   1.798   0.843
 6353TIP3   OH219064   0.962   2.689   0.504
 6353TIP3    H119065   0.994   2.602   0.483
 6353TIP3    H219066   1.004   2.712   0.587
 6354TIP3   OH219067   0.820   2.135   0.847
 6354TIP3    H119068   0.859   2.054   0.815
 6354TIP3    H219069   0.895   2.187   0.876
 6355TIP3   OH219070   1.799   1.446   0.864
 6355TIP3    H119071   1.821   1.539   0.855
 6355TIP3    H219072   1.809   1.410   0.776
 6356TIP3   OH219073   0.577   1.310   0.870
 6356TIP3    H119074   0.575   1.381   0.806
 6356TIP3    H219075   0.530   1.238   0.828
 6357TIP3   OH219076   1.278   1.380   0.510
 6357TIP3    H119077   1.280   1.388   0.605
 6357TIP3    H219078   1.356   1.427   0.480
 6358TIP3   OH219079   0.230   1.525   0.967
 6358TIP3    H119080   0.310   1.505   1.017
 6358TIP3    H219081   0.237   1.470   0.889
 6359TIP3   OH219082   0.655   1.712   0.788
 6359TIP3    H119083   0.746   1.689   0.805
 6359TIP3    H219084   0.617   1.631   0.752
 6360TIP3   OH219085   1.893   1.801   1.046
 6360TIP3    H119086   1.879   1.759   0.961
 6360TIP3    H219087   1.919   1.730   1.104
 6361TIP3   OH219088   0.559   1.298   1.313
 6361TIP3    H119089   0.514   1.338   1.238
 6361TIP3    H219090   0.496   1.234   1.347
 6362TIP3   OH219091   0.894   2.155   0.299
 6362TIP3    H119092   0.875   2.132   0.209
 6362TIP3    H219093   0.847   2.238   0.313
 6363TIP3   OH219094   0.691   2.074   1.080
 6363TIP3    H119095   0.649   2.152   1.116
 6363TIP3    H219096   0.731   2.105   0.999
 6364TIP3   OH219097   0.460   1.418   1.087
 6364TIP3    H119098   0.518   1.491   1.108
 6364TIP3    H219099   0.501   1.375   1.013
 6365TIP3   OH219100   6.399   1.968   0.419
 6365TIP3    H119101   6.351   1.987   0.339
 6365TIP3    H219102   6.417   2.053   0.458
 6366TIP3   OH219103   1.263   2.489   0.556
 6366TIP3    H119104   1.202   2.468   0.627
 6366TIP3    H219105   1.347   2.504   0.599
 6367TIP3   OH219106   1.556   1.338   0.953
 6367TIP3    H119107   1.477   1.371   0.909
 6367TIP3    H219108   1.628   1.379   0.905
 6368TIP3   OH219109   0.926   1.000   1.012
 6368TIP3    H119110   0.918   0.908   1.036
 6368TIP3    H219111   0.854   1.043   1.057
 6369TIP3   OH219112   1.041   2.471   0.353
 6369TIP3    H119113   1.089   2.392   0.330
 6369TIP3    H219114   1.095   2.542   0.319
 6370TIP3   OH219115   1.203   2.286   0.235
 6370TIP3    H119116   1.193   2.209   0.180
 6370TIP3    H219117   1.238   2.253   0.317
 6371TIP3   OH219118   0.861   1.784   0.280
 6371TIP3    H119119   0.782   1.833   0.256
 6371TIP3    H219120   0.911   1.778   0.199
 6372TIP3   OH219121   2.993   4.650   5.285
 6372TIP3    H119122   3.059   4.698   5.336
 6372TIP3    H219123   3.042   4.583   5.238
 6373TIP3   OH219124   1.821   2.121   0.911
 6373TIP3    H119125   1.744   2.172   0.889
 6373TIP3    H219126   1.854   2.089   0.827
 6374TIP3   OH219127   1.208   1.873   0.242
 6374TIP3    H119128   1.156   1.904   0.316
 6374TIP3    H219129   1.287   1.835   0.281
 6375TIP3   OH219130   1.380   1.962   1.059
 6375TIP3    H119131   1.395   1.968   1.153
 6375TIP3    H219132   1.300   1.910   1.051
 6376TIP3   OH219133   0.453   1.851   0.654
 6376TIP3    H119134   0.416   1.791   0.589
 6376TIP3    H219135   0.527   1.802   0.692
 6377TIP3   OH219136   0.586   2.257   0.775
 6377TIP3    H119137   0.572   2.232   0.684
 6377TIP3    H219138   0.670   2.219   0.798
 6378TIP3   OH219139   0.555   1.844   1.009
 6378TIP3    H119140   0.594   1.810   0.928
 6378TIP3    H219141   0.607   1.922   1.029
 6379TIP3   OH219142   1.083   2.415   0.747
 6379TIP3    H119143   1.010   2.463   0.787
 6379TIP3    H219144   1.084   2.330   0.792
 6380TIP3   OH219145   1.043   1.735   0.074
 6380TIP3    H119146   1.105   1.788   0.125
 6380TIP3    H219147   1.072   1.745  -0.017
 6381TIP3   OH219148   0.783   2.414   0.324
 6381TIP3    H119149   0.874   2.436   0.341
 6381TIP3    H219150   0.736   2.449   0.400
 6382TIP3   OH219151   1.560   0.960   0.121
 6382TIP3    H119152   1.483   0.980   0.175
 6382TIP3    H219153   1.573   1.038   0.067
 6383TIP3   OH219154   0.324   1.697   0.449
 6383TIP3    H119155   0.242   1.734   0.417
 6383TIP3    H219156   0.301   1.607   0.474
 6384TIP3   OH219157   3.551   5.400   4.985
 6384TIP3    H119158   3.552   5.493   4.963
 6384TIP3    H219159   3.637   5.368   4.959
 6385TIP3   OH219160   0.134   2.476   0.505
 6385TIP3    H119161   0.172   2.476   0.593
 6385TIP3    H219162   0.056   2.421   0.513
 6386TIP3   OH219163   3.056   5.614   5.097
 6386TIP3    H119164   3.105   5.542   5.058
 6386TIP3    H219165   3.087   5.617   5.188
 6387TIP3   OH219166   0.930   2.579   0.066
 6387TIP3    H119167   0.871   2.519   0.112
 6387TIP3    H219168   1.006   2.587   0.124
 6388TIP3   OH219169   0.699   1.093   1.145
 6388TIP3    H119170   0.612   1.064   1.118
 6388TIP3    H219171   0.687   1.183   1.174
 6389TIP3   OH219172   1.188   1.194   1.355
 6389TIP3    H119173   1.262   1.201   1.415
 6389TIP3    H219174   1.114   1.173   1.411
 6390TIP3   OH219175   1.406   1.654   1.262
 6390TIP3    H119176   1.471   1.665   1.331
 6390TIP3    H219177   1.456   1.626   1.185
 6391TIP3   OH219178   3.291   4.811   5.122
 6391TIP3    H119179   3.252   4.797   5.036
 6391TIP3    H219180   3.376   4.851   5.103
 6392TIP3   OH219181   0.833   1.141   0.128
 6392TIP3    H119182   0.806   1.142   0.219
 6392TIP3    H219183   0.798   1.058   0.094
 6393TIP3   OH219184   0.624   1.624   1.159
 6393TIP3    H119185   0.580   1.644   1.242
 6393TIP3    H219186   0.610   1.702   1.105
 6394TIP3   OH219187   0.508   1.502   0.683
 6394TIP3    H119188   0.419   1.474   0.707
 6394TIP3    H219189   0.522   1.464   0.596
 6395TIP3   OH219190   0.992   1.568   0.407
 6395TIP3    H119191   0.948   1.643   0.366
 6395TIP3    H219192   1.054   1.537   0.341
 6396TIP3   OH219193   1.102   1.645   0.655
 6396TIP3    H119194   1.074   1.610   0.570
 6396TIP3    H219195   1.151   1.574   0.696
 6397TIP3   OH219196   0.449   1.657   1.371
 6397TIP3    H119197   0.468   1.685   1.460
 6397TIP3    H219198   0.398   1.576   1.381
 6398TIP3   OH219199   0.495   1.117   0.091
 6398TIP3    H119200   0.491   1.118   0.187
 6398TIP3    H219201   0.418   1.167   0.063
 6399TIP3   OH219202   0.032   1.154   0.960
 6399TIP3    H119203   0.104   1.188   1.012
 6399TIP3    H219204   0.073   1.130   0.876
 6400TIP3   OH219205   6.471   1.137   0.470
 6400TIP3    H119206   6.519   1.172   0.396
 6400TIP3    H219207   6.410   1.207   0.495
 6401TIP3   OH219208   1.156   1.806   1.022
 6401TIP3    H119209   1.192   1.731   0.975
 6401TIP3    H219210   1.125   1.771   1.105
 6402TIP3   OH219211   0.828   1.340   0.738
 6402TIP3    H119212   0.769   1.318   0.810
 6402TIP3    H219213   0.911   1.301   0.762
 6403TIP3   OH219214   0.270   1.377   0.740
 6403TIP3    H119215   0.181   1.380   0.707
 6403TIP3    H219216   0.300   1.288   0.724
 6404TIP3   OH219217   0.516   1.374   0.440
 6404TIP3    H119218   0.611   1.386   0.430
 6404TIP3    H219219   0.480   1.396   0.354
 6405TIP3   OH219220   0.395   1.412   0.195
 6405TIP3    H119221   0.332   1.363   0.143
 6405TIP3    H219222   0.452   1.453   0.131
 6406TIP3   OH219223   0.913   1.643   0.852
 6406TIP3    H119224   0.977   1.635   0.781
 6406TIP3    H219225   0.933   1.571   0.911
 6407TIP3   OH219226   0.418   1.133   0.725
 6407TIP3    H119227   0.386   1.058   0.775
 6407TIP3    H219228   0.468   1.095   0.653
 6408TIP3   OH219229   0.879   1.520   1.146
 6408TIP3    H119230   0.793   1.564   1.142
 6408TIP3    H219231   0.939   1.590   1.171
 6409TIP3   OH219232   0.615   1.936   0.212
 6409TIP3    H119233   0.547   1.870   0.197
 6409TIP3    H219234   0.598   1.968   0.300
 6410TIP3   OH219235   1.521   2.081   0.802
 6410TIP3    H119236   1.528   2.130   0.720
 6410TIP3    H219237   1.432   2.045   0.801
 6411TIP3   OH219238   1.083   1.248   0.091
 6411TIP3    H119239   0.991   1.226   0.107
 6411TIP3    H219240   1.092   1.338   0.123
 6412TIP3   OH219241   1.161   1.494   0.196
 6412TIP3    H119242   1.253   1.493   0.220
 6412TIP3    H219243   1.151   1.575   0.145
 6413TIP3   OH219244   0.319   1.960   0.871
 6413TIP3    H119245   0.364   1.932   0.791
 6413TIP3    H219246   0.369   1.921   0.942
 6414TIP3   OH219247   0.779   2.084   0.050
 6414TIP3    H119248   0.732   2.167   0.048
 6414TIP3    H219249   0.725   2.027   0.105
 6415TIP3   OH219250   3.737   4.652   5.322
 6415TIP3    H119251   3.682   4.605   5.260
 6415TIP3    H219252   3.738   4.742   5.291
 6416TIP3   OH219253   3.428   5.442   5.240
 6416TIP3    H119254   3.429   5.375   5.308
 6416TIP3    H219255   3.468   5.400   5.164
 6417TIP3   OH219256   1.252   2.025   0.721
 6417TIP3    H119257   1.160   2.000   0.732
 6417TIP3    H219258   1.295   1.946   0.689
 6418TIP3   OH219259   0.424   2.270   0.524
 6418TIP3    H119260   0.421   2.349   0.471
 6418TIP3    H219261   0.351   2.280   0.586
 6419TIP3   OH219262   6.491   1.565   0.234
 6419TIP3    H119263   6.539   1.642   0.265
 6419TIP3    H219264   6.412   1.562   0.289
 6420TIP3   OH219265   0.531   2.027   0.452
 6420TIP3    H119266   0.497   2.113   0.475
 6420TIP3    H219267   0.509   1.972   0.527
 6421TIP3   OH219268   0.372   2.515   0.381
 6421TIP3    H119269   0.282   2.507   0.412
 6421TIP3    H219270   0.405   2.594   0.423
 6422TIP3   OH219271   1.071   2.190   0.933
 6422TIP3    H119272   1.077   2.208   1.027
 6422TIP3    H219273   1.091   2.097   0.926
 6423TIP3   OH219274   3.229   5.200   5.154
 6423TIP3    H119275   3.285   5.183   5.230
 6423TIP3    H219276   3.144   5.164   5.179
 6424TIP3   OH219277   3.567   5.678   4.937
 6424TIP3    H119278   3.613   5.757   4.907
 6424TIP3    H219279   3.485   5.711   4.975
 6425TIP3   OH219280   1.225   2.076   0.058
 6425TIP3    H119281   1.214   2.004   0.120
 6425TIP3    H219282   1.318   2.073   0.034
 6426TIP3   OH219283   2.581   5.172   5.148
 6426TIP3    H119284   2.599   5.083   5.119
 6426TIP3    H219285   2.576   5.166   5.244
 6427TIP3   OH219286   0.376   2.112   0.114
 6427TIP3    H119287   0.449   2.078   0.165
 6427TIP3    H219288   0.378   2.206   0.130
 6428TIP3   OH219289   0.097   1.804   0.323
 6428TIP3    H119290   0.030   1.848   0.375
 6428TIP3    H219291   0.131   1.873   0.265
 6429TIP3   OH219292   1.186   1.467   1.289
 6429TIP3    H119293   1.278   1.485   1.268
 6429TIP3    H219294   1.177   1.372   1.279
 6430TIP3   OH219295   1.145   1.185   0.374
 6430TIP3    H119296   1.133   1.217   0.285
 6430TIP3    H219297   1.187   1.258   0.420
 6431TIP3   OH219298   0.632   2.312   0.043
 6431TIP3    H119299   0.553   2.336   0.092
 6431TIP3    H219300   0.648   2.386  -0.015
 6432TIP3   OH219301   0.790   1.393   0.474
 6432TIP3    H119302   0.861   1.453   0.449
 6432TIP3    H219303   0.803   1.380   0.568
 6433TIP3   OH219304   1.064   1.701   1.253
 6433TIP3    H119305   1.046   1.728   1.342
 6433TIP3    H219306   1.110   1.617   1.262
 6434TIP3   OH219307   0.982   1.074   0.567
 6434TIP3    H119308   1.011   1.122   0.645
 6434TIP3    H219309   1.036   1.110   0.496
 6435TIP3   OH219310   0.381   2.392   0.134
 6435TIP3    H119311   0.340   2.458   0.078
 6435TIP3    H219312   0.382   2.432   0.221
 6436TIP3   OH219313   0.484   1.104   0.369
 6436TIP3    H119314   0.472   1.193   0.404
 6436TIP3    H219315   0.577   1.087   0.377
 6437TIP3   OH219316   1.350   1.781   0.656
 6437TIP3    H119317   1.273   1.725   0.666
 6437TIP3    H219318   1.422   1.730   0.692
 6438TIP3   OH219319   0.107   2.006   0.094
 6438TIP3    H119320   0.139   2.092   0.121
 6438TIP3    H219321   0.186   1.958   0.068
 6439TIP3   OH219322   0.027   1.289   0.250
 6439TIP3    H119323   0.034   1.384   0.251
 6439TIP3    H219324  -0.048   1.271   0.193
 6440TIP3   OH219325   1.419   2.750   0.587
 6440TIP3    H119326   1.396   2.710   0.503
 6440TIP3    H219327   1.484   2.691   0.624
 6441TIP3   OH219328   0.435   1.005   1.109
 6441TIP3    H119329   0.406   0.979   1.021
 6441TIP3    H219330   0.426   0.926   1.162
 6442TIP3   OH219331   6.416   2.232   0.493
 6442TIP3    H119332   6.352   2.263   0.556
 6442TIP3    H219333   6.397   2.281   0.413
 6443TIP3   OH219334   2.744   5.376   5.048
 6443TIP3    H119335   2.699   5.304   5.091
 6443TIP3    H219336   2.820   5.334   5.006
 6444TIP3   OH219337   3.184   5.406   4.973
 6444TIP3    H119338   3.217   5.344   5.038
 6444TIP3    H219339   3.245   5.399   4.900
 6445TIP3   OH219340   2.410   4.871   5.274
 6445TIP3    H119341   2.459   4.839   5.350
 6445TIP3    H219342   2.474   4.875   5.204
 6446TIP3   OH219343   2.928   5.089   5.090
 6446TIP3    H119344   2.928   5.102   5.185
 6446TIP3    H219345   2.930   4.994   5.079
 6447TIP3   OH219346   0.414   1.741   0.177
 6447TIP3    H119347   0.399   1.711   0.267
 6447TIP3    H219348   0.464   1.671   0.136
 6448TIP3   OH219349   2.719   4.620   5.329
 6448TIP3    H119350   2.693   4.620   5.237
 6448TIP3    H219351   2.814   4.624   5.327
 6449TIP3   OH219352   3.517   4.923   5.006
 6449TIP3    H119353   3.503   4.878   4.923
 6449TIP3    H219354   3.489   5.013   4.989
 6450TIP3   OH219355   0.829   1.342   1.353
 6450TIP3    H119356   0.861   1.400   1.284
 6450TIP3    H219357   0.734   1.344   1.344
 6451TIP3   OH219358   0.873   1.934   1.245
 6451TIP3    H119359   0.931   1.897   1.178
 6451TIP3    H219360   0.808   1.983   1.195
 6452TIP3   OH219361   0.947   1.123   1.463
 6452TIP3    H119362   0.907   1.200   1.423
 6452TIP3    H219363   0.930   1.052   1.401
 6453TIP3   OH219364   2.567   5.724   5.270
 6453TIP3    H119365   2.632   5.664   5.236
 6453TIP3    H219366   2.510   5.743   5.196
 6454TIP3   OH219367   6.339   1.975   0.138
 6454TIP3    H119368   6.434   1.989   0.135
 6454TIP3    H219369   6.326   1.889   0.100
 6455TIP3   OH219370   1.488   2.066   0.008
 6455TIP3    H119371   1.566   2.118  -0.013
 6455TIP3    H219372   1.513   2.017   0.086
 6456TIP3   OH219373   1.544   1.900   0.206
 6456TIP3    H119374   1.508   1.850   0.279
 6456TIP3    H219375   1.635   1.916   0.230
 6457TIP3   OH219376   1.687   2.298   0.682
 6457TIP3    H119377   1.741   2.226   0.651
 6457TIP3    H219378   1.746   2.374   0.684
 6458TIP3   OH219379   3.722   4.892   5.185
 6458TIP3    H119380   3.651   4.892   5.121
 6458TIP3    H219381   3.703   4.966   5.242
 6459TIP3   OH219382   3.588   4.547   5.117
 6459TIP3    H119383   3.542   4.577   5.039
 6459TIP3    H219384   3.579   4.451   5.115
 6460TIP3   OH219385   1.408   1.756   0.389
 6460TIP3    H119386   1.435   1.665   0.385
 6460TIP3    H219387   1.398   1.774   0.482
 6461TIP3   OH219388   0.056   1.799   1.148
 6461TIP3    H119389   0.043   1.796   1.053
 6461TIP3    H219390   0.147   1.823   1.160
 6462TIP3   OH219391   3.544   4.275   5.096
 6462TIP3    H119392   3.609   4.248   5.161
 6462TIP3    H219393   3.464   4.231   5.123
 6463TIP3   OH219394   1.440   1.492   0.256
 6463TIP3    H119395   1.482   1.408   0.272
 6463TIP3    H219396   1.490   1.530   0.184
 6464TIP3   OH219397   1.575   1.675   0.762
 6464TIP3    H119398   1.668   1.674   0.738
 6464TIP3    H219399   1.570   1.736   0.835
 6465TIP3   OH219400   1.618   1.857   0.975
 6465TIP3    H119401   1.540   1.913   0.983
 6465TIP3    H219402   1.689   1.911   1.010
 6466TIP3   OH219403   1.553   1.237   0.300
 6466TIP3    H119404   1.594   1.225   0.385
 6466TIP3    H219405   1.487   1.168   0.296
 6467TIP3   OH219406   0.259   1.219   1.098
 6467TIP3    H119407   0.319   1.145   1.110
 6467TIP3    H219408   0.316   1.296   1.100
 6468TIP3   OH219409   0.066   1.503   1.191
 6468TIP3    H119410   0.115   1.494   1.109
 6468TIP3    H219411   0.054   1.597   1.201
 6469TIP3   OH219412   3.774   4.229   5.250
 6469TIP3    H119413   3.816   4.165   5.192
 6469TIP3    H219414   3.834   4.304   5.249
 6470TIP3   OH219415   6.527   0.997   0.697
 6470TIP3    H119416   6.440   0.992   0.735
 6470TIP3    H219417   6.517   1.054   0.621
 6471TIP3   OH219418   1.161   2.659   0.199
 6471TIP3    H119419   1.208   2.625   0.123
 6471TIP3    H219420   1.230   2.681   0.262
 6472TIP3   OH219421   1.939   1.273   1.262
 6472TIP3    H119422   1.847   1.301   1.257
 6472TIP3    H219423   1.935   1.178   1.258
 6473TIP3   OH219424   1.004   2.810   0.750
 6473TIP3    H119425   1.038   2.754   0.819
 6473TIP3    H219426   1.079   2.861   0.720
 6474TIP3   OH219427   0.274   2.463   0.738
 6474TIP3    H119428   0.274   2.392   0.803
 6474TIP3    H219429   0.358   2.507   0.750
 6475TIP3   OH219430   0.541   2.531   0.791
 6475TIP3    H119431   0.562   2.438   0.781
 6475TIP3    H219432   0.562   2.551   0.882
 6476TIP3   OH219433   1.059   1.206   0.799
 6476TIP3    H119434   1.071   1.150   0.876
 6476TIP3    H219435   1.131   1.268   0.804
 6477TIP3   OH219436   1.614   1.087   0.752
 6477TIP3    H119437   1.646   1.144   0.682
 6477TIP3    H219438   1.520   1.106   0.757
 6478TIP3   OH219439   1.714   1.201   0.525
 6478TIP3    H119440   1.787   1.143   0.502
 6478TIP3    H219441   1.743   1.288   0.496
 6479TIP3   OH219442   0.338   0.912   0.867
 6479TIP3    H119443   0.247   0.884   0.874
 6479TIP3    H219444   0.388   0.831   0.868
 6480TIP3   OH219445   0.153   0.807   0.527
 6480TIP3    H119446   0.183   0.857   0.451
 6480TIP3    H219447   0.119   0.873   0.588
 6481TIP3   OH219448   0.804   0.958   0.759
 6481TIP3    H119449   0.855   1.000   0.690
 6481TIP3    H219450   0.850   0.980   0.840
 6482TIP3   OH219451   1.343   1.077   0.734
 6482TIP3    H119452   1.307   1.049   0.649
 6482TIP3    H219453   1.314   1.010   0.795
 6483TIP3   OH219454   1.365   1.033   0.303
 6483TIP3    H119455   1.286   1.080   0.326
 6483TIP3    H219456   1.355   0.947   0.344
 6484TIP3   OH219457   6.342   2.371   0.271
 6484TIP3    H119458   6.254   2.346   0.244
 6484TIP3    H219459   6.350   2.463   0.247
 6485TIP3   OH219460   0.265   0.942   0.294
 6485TIP3    H119461   0.307   0.882   0.232
 6485TIP3    H219462   0.337   0.997   0.326
 6486TIP3   OH219463   0.760   1.133   0.396
 6486TIP3    H119464   0.824   1.087   0.451
 6486TIP3    H219465   0.770   1.225   0.419
 6487TIP3   OH219466   2.794   5.608   5.179
 6487TIP3    H119467   2.884   5.627   5.152
 6487TIP3    H219468   2.767   5.535   5.122
 6488TIP3   OH219469   3.526   5.693   5.234
 6488TIP3    H119470   3.497   5.601   5.236
 6488TIP3    H219471   3.463   5.736   5.175
 6489TIP3   OH219472   2.092   5.413   5.241
 6489TIP3    H119473   2.083   5.451   5.329
 6489TIP3    H219474   2.183   5.386   5.236
 6490TIP3   OH219475   1.815   1.676   0.119
 6490TIP3    H119476   1.807   1.755   0.172
 6490TIP3    H219477   1.724   1.647   0.106
 6491TIP3   OH219478   1.802   1.949   0.241
 6491TIP3    H119479   1.831   1.887   0.308
 6491TIP3    H219480   1.865   2.021   0.246
 6492TIP3   OH219481   2.411   1.533   0.350
 6492TIP3    H119482   2.369   1.614   0.320
 6492TIP3    H219483   2.373   1.465   0.293
 6493TIP3   OH219484   5.306   4.699   5.225
 6493TIP3    H119485   5.273   4.758   5.292
 6493TIP3    H219486   5.324   4.756   5.150
 6494TIP3   OH219487   1.958   1.769   0.358
 6494TIP3    H119488   2.023   1.820   0.407
 6494TIP3    H219489   2.010   1.715   0.299
 6495TIP3   OH219490   2.509   1.941   0.172
 6495TIP3    H119491   2.550   1.969   0.254
 6495TIP3    H219492   2.416   1.960   0.185
 6496TIP3   OH219493   2.439   1.574   0.744
 6496TIP3    H119494   2.377   1.642   0.772
 6496TIP3    H219495   2.477   1.542   0.825
 6497TIP3   OH219496   2.266   1.700   0.588
 6497TIP3    H119497   2.233   1.789   0.603
 6497TIP3    H219498   2.361   1.707   0.597
 6498TIP3   OH219499   3.849   5.284   5.207
 6498TIP3    H119500   3.811   5.303   5.121
 6498TIP3    H219501   3.874   5.370   5.241
 6499TIP3   OH219502   2.672   1.267   0.443
 6499TIP3    H119503   2.693   1.177   0.471
 6499TIP3    H219504   2.613   1.300   0.511
 6500TIP3   OH219505   4.850   5.112   5.077
 6500TIP3    H119506   4.761   5.143   5.066
 6500TIP3    H219507   4.881   5.093   4.989
 6501TIP3   OH219508   4.796   4.909   4.779
 6501TIP3    H119509   4.866   4.956   4.824
 6501TIP3    H219510   4.840   4.841   4.729
 6502TIP3   OH219511   2.254   2.090  -0.018
 6502TIP3    H119512   2.204   2.020  -0.059
 6502TIP3    H219513   2.276   2.056   0.069
 6503TIP3   OH219514   5.019   5.055   4.864
 6503TIP3    H119515   5.068   5.121   4.913
 6503TIP3    H219516   5.039   5.072   4.773
 6504TIP3   OH219517   5.535   4.269   4.925
 6504TIP3    H119518   5.460   4.284   4.982
 6504TIP3    H219519   5.535   4.344   4.865
 6505TIP3   OH219520   4.245   4.974   5.173
 6505TIP3    H119521   4.169   5.030   5.158
 6505TIP3    H219522   4.219   4.917   5.245
 6506TIP3   OH219523   1.883   2.742  -0.002
 6506TIP3    H119524   1.949   2.781   0.054
 6506TIP3    H219525   1.825   2.694   0.058
 6507TIP3   OH219526   4.811   5.812   4.592
 6507TIP3    H119527   4.875   5.763   4.541
 6507TIP3    H219528   4.809   5.768   4.677
 6508TIP3   OH219529   2.500   1.331   0.641
 6508TIP3    H119530   2.408   1.326   0.616
 6508TIP3    H219531   2.507   1.411   0.693
 6509TIP3   OH219532   5.085   5.102   4.610
 6509TIP3    H119533   5.045   5.074   4.528
 6509TIP3    H219534   5.174   5.126   4.586
 6510TIP3   OH219535   4.793   4.456   4.902
 6510TIP3    H119536   4.757   4.462   4.991
 6510TIP3    H219537   4.759   4.373   4.869
 6511TIP3   OH219538   2.239   1.818   0.069
 6511TIP3    H119539   2.214   1.786   0.155
 6511TIP3    H219540   2.211   1.750   0.008
 6512TIP3   OH219541   4.978   4.878   5.176
 6512TIP3    H119542   4.913   4.945   5.153
 6512TIP3    H219543   5.025   4.861   5.094
 6513TIP3   OH219544   4.453   4.441   4.879
 6513TIP3    H119545   4.440   4.432   4.974
 6513TIP3    H219546   4.375   4.487   4.849
 6514TIP3   OH219547   1.783   1.433   0.390
 6514TIP3    H119548   1.865   1.429   0.439
 6514TIP3    H219549   1.800   1.383   0.310
 6515TIP3   OH219550   3.937   4.458   5.260
 6515TIP3    H119551   3.988   4.494   5.187
 6515TIP3    H219552   3.881   4.531   5.288
 6516TIP3   OH219553   2.631   1.664   0.284
 6516TIP3    H119554   2.557   1.616   0.322
 6516TIP3    H219555   2.654   1.614   0.205
 6517TIP3   OH219556   2.070   1.599   0.175
 6517TIP3    H119557   1.980   1.608   0.144
 6517TIP3    H219558   2.085   1.504   0.176
 6518TIP3   OH219559   4.425   4.686   5.186
 6518TIP3    H119560   4.517   4.694   5.163
 6518TIP3    H219561   4.378   4.714   5.107
 6519TIP3   OH219562   4.324   4.745   4.945
 6519TIP3    H119563   4.266   4.689   4.893
 6519TIP3    H219564   4.392   4.773   4.884
 6520TIP3   OH219565   2.238   1.364   0.221
 6520TIP3    H119566   2.188   1.294   0.262
 6520TIP3    H219567   2.273   1.325   0.141
 6521TIP3   OH219568   4.614   5.222   4.972
 6521TIP3    H119569   4.543   5.159   4.958
 6521TIP3    H219570   4.580   5.282   5.039
 6522TIP3   OH219571   5.043   4.555   4.884
 6522TIP3    H119572   4.949   4.536   4.891
 6522TIP3    H219573   5.050   4.649   4.901
 6523TIP3   OH219574   5.116   4.810   4.948
 6523TIP3    H119575   5.212   4.807   4.953
 6523TIP3    H219576   5.096   4.893   4.906
 6524TIP3   OH219577   2.198   2.288   0.426
 6524TIP3    H119578   2.208   2.231   0.350
 6524TIP3    H219579   2.173   2.229   0.497
 6525TIP3   OH219580   4.741   5.417   4.819
 6525TIP3    H119581   4.703   5.501   4.845
 6525TIP3    H219582   4.704   5.354   4.881
 6526TIP3   OH219583   5.572   4.888   4.703
 6526TIP3    H119584   5.487   4.857   4.672
 6526TIP3    H219585   5.559   4.981   4.721
 6527TIP3   OH219586   4.429   5.625   5.247
 6527TIP3    H119587   4.370   5.679   5.195
 6527TIP3    H219588   4.381   5.606   5.327
 6528TIP3   OH219589   3.950   4.882   5.034
 6528TIP3    H119590   3.995   4.964   5.054
 6528TIP3    H219591   3.873   4.883   5.092
 6529TIP3   OH219592   4.475   5.378   5.139
 6529TIP3    H119593   4.473   5.459   5.191
 6529TIP3    H219594   4.462   5.308   5.202
 6530TIP3   OH219595   4.244   5.782   5.123
 6530TIP3    H119596   4.165   5.777   5.177
 6530TIP3    H219597   4.265   5.875   5.120
 6531TIP3   OH219598   5.013   5.450   4.621
 6531TIP3    H119599   5.041   5.446   4.712
 6531TIP3    H219600   4.929   5.405   4.619
 6532TIP3   OH219601   4.371   5.429   4.645
 6532TIP3    H119602   4.398   5.339   4.626
 6532TIP3    H219603   4.353   5.429   4.739
 6533TIP3   OH219604   4.328   5.430   4.915
 6533TIP3    H119605   4.380   5.403   4.990
 6533TIP3    H219606   4.333   5.526   4.916
 6534TIP3   OH219607   4.043   5.131   5.104
 6534TIP3    H119608   3.980   5.174   5.161
 6534TIP3    H219609   4.067   5.199   5.040
 6535TIP3   OH219610   5.117   4.520   5.146
 6535TIP3    H119611   5.088   4.524   5.055
 6535TIP3    H219612   5.176   4.594   5.155
 6536TIP3   OH219613   4.612   5.665   4.846
 6536TIP3    H119614   4.527   5.652   4.889
 6536TIP3    H219615   4.599   5.740   4.788
 6537TIP3   OH219616   4.841   4.659   5.254
 6537TIP3    H119617   4.898   4.729   5.225
 6537TIP3    H219618   4.761   4.703   5.283
 6538TIP3   OH219619   4.937   4.365   5.280
 6538TIP3    H119620   4.964   4.375   5.371
 6538TIP3    H219621   4.996   4.421   5.230
 6539TIP3   OH219622   4.338   5.699   4.888
 6539TIP3    H119623   4.311   5.771   4.831
 6539TIP3    H219624   4.304   5.723   4.974
 6540TIP3   OH219625   4.431   4.414   5.157
 6540TIP3    H119626   4.414   4.504   5.185
 6540TIP3    H219627   4.526   4.404   5.164
 6541TIP3   OH219628   4.075   5.318   4.901
 6541TIP3    H119629   4.145   5.381   4.921
 6541TIP3    H219630   4.115   5.256   4.841
 6542TIP3   OH219631   3.997   4.608   5.035
 6542TIP3    H119632   4.003   4.703   5.044
 6542TIP3    H219633   3.910   4.592   4.998
 6543TIP3   OH219634   2.173   1.174   0.576
 6543TIP3    H119635   2.139   1.160   0.488
 6543TIP3    H219636   2.116   1.121   0.632
 6544TIP3   OH219637   3.889   5.539   5.285
 6544TIP3    H119638   3.804   5.556   5.327
 6544TIP3    H219639   3.887   5.594   5.206
 6545TIP3   OH219640   4.524   5.624   4.525
 6545TIP3    H119641   4.475   5.557   4.574
 6545TIP3    H219642   4.604   5.579   4.497
 6546TIP3   OH219643   4.976   5.659   4.447
 6546TIP3    H119644   5.013   5.593   4.505
 6546TIP3    H219645   5.031   5.655   4.368
 6547TIP3   OH219646   4.226   5.136   4.758
 6547TIP3    H119647   4.273   5.114   4.838
 6547TIP3    H219648   4.287   5.114   4.687
 6548TIP3   OH219649   4.734   5.340   4.562
 6548TIP3    H119650   4.726   5.362   4.655
 6548TIP3    H219651   4.728   5.245   4.560
 6549TIP3   OH219652   4.396   5.049   4.956
 6549TIP3    H119653   4.350   5.023   5.036
 6549TIP3    H219654   4.432   4.968   4.921
 6550TIP3   OH219655   4.528   4.844   4.792
 6550TIP3    H119656   4.536   4.796   4.710
 6550TIP3    H219657   4.617   4.873   4.812
 6551TIP3   OH219658   5.329   5.184   4.507
 6551TIP3    H119659   5.311   5.139   4.425
 6551TIP3    H219660   5.309   5.276   4.489
 6552TIP3   OH219661   4.297   5.925   4.734
 6552TIP3    H119662   4.391   5.913   4.719
 6552TIP3    H219663   4.267   5.974   4.658
 6553TIP3   OH219664   3.801   5.298   4.913
 6553TIP3    H119665   3.895   5.316   4.915
 6553TIP3    H219666   3.793   5.211   4.874
 6554TIP3   OH219667   1.558   2.792   0.014
 6554TIP3    H119668   1.485   2.748  -0.029
 6554TIP3    H219669   1.594   2.726   0.073
 6555TIP3   OH219670   1.726   2.702   0.221
 6555TIP3    H119671   1.744   2.625   0.273
 6555TIP3    H219672   1.698   2.768   0.285
 6556TIP3   OH219673   5.524   5.154   4.697
 6556TIP3    H119674   5.447   5.159   4.640
 6556TIP3    H219675   5.580   5.226   4.669
 6557TIP3   OH219676   5.341   4.801   4.580
 6557TIP3    H119677   5.293   4.813   4.498
 6557TIP3    H219678   5.342   4.707   4.594
 6558TIP3   OH219679   1.858   2.124   0.592
 6558TIP3    H119680   1.818   2.116   0.505
 6558TIP3    H219681   1.918   2.049   0.597
 6559TIP3   OH219682   5.332   4.528   4.578
 6559TIP3    H119683   5.395   4.500   4.645
 6559TIP3    H219684   5.250   4.485   4.602
 6560TIP3   OH219685   5.388   4.800   4.990
 6560TIP3    H119686   5.447   4.726   5.004
 6560TIP3    H219687   5.438   4.877   5.016
 6561TIP3   OH219688   5.525   4.561   5.070
 6561TIP3    H119689   5.576   4.533   5.146
 6561TIP3    H219690   5.450   4.502   5.067
 6562TIP3   OH219691   2.003   1.381   0.526
 6562TIP3    H119692   2.091   1.344   0.538
 6562TIP3    H219693   2.012   1.473   0.552
 6563TIP3   OH219694   1.860   1.700   0.797
 6563TIP3    H119695   1.909   1.659   0.726
 6563TIP3    H219696   1.861   1.793   0.777
 6564TIP3   OH219697   5.554   4.469   4.733
 6564TIP3    H119698   5.595   4.404   4.676
 6564TIP3    H219699   5.618   4.540   4.739
 6565TIP3   OH219700   1.813   1.252   0.180
 6565TIP3    H119701   1.723   1.233   0.207
 6565TIP3    H219702   1.804   1.306   0.102
 6566TIP3   OH219703   2.014   1.390   1.027
 6566TIP3    H119704   1.991   1.360   1.115
 6566TIP3    H219705   1.930   1.411   0.986
 6567TIP3   OH219706   2.825   1.327   0.230
 6567TIP3    H119707   2.771   1.326   0.310
 6567TIP3    H219708   2.878   1.406   0.239
 6568TIP3   OH219709   2.116   1.141   0.311
 6568TIP3    H119710   2.027   1.113   0.332
 6568TIP3    H219711   2.169   1.063   0.321
 6569TIP3   OH219712   1.928   1.055   0.006
 6569TIP3    H119713   1.963   1.107  -0.066
 6569TIP3    H219714   1.902   1.119   0.072
 6570TIP3   OH219715   2.578   1.151   0.216
 6570TIP3    H119716   2.566   1.232   0.166
 6570TIP3    H219717   2.609   1.181   0.302
 6571TIP3   OH219718   3.155   1.261   0.163
 6571TIP3    H119719   3.108   1.329   0.114
 6571TIP3    H219720   3.144   1.284   0.255
 6572TIP3   OH219721   5.333   4.361   5.087
 6572TIP3    H119722   5.250   4.404   5.107
 6572TIP3    H219723   5.329   4.278   5.136
 6573TIP3   OH219724   3.819   5.685   5.061
 6573TIP3    H119725   3.728   5.658   5.045
 6573TIP3    H219726   3.817   5.780   5.060
 6574TIP3   OH219727   4.217   4.259   5.081
 6574TIP3    H119728   4.261   4.195   5.025
 6574TIP3    H219729   4.288   4.312   5.118
 6575TIP3   OH219730   4.703   4.443   5.157
 6575TIP3    H119731   4.756   4.370   5.188
 6575TIP3    H219732   4.751   4.521   5.185
 6576TIP3   OH219733   4.550   5.862   4.657
 6576TIP3    H119734   4.640   5.882   4.630
 6576TIP3    H219735   4.526   5.786   4.604
 6577TIP3   OH219736   3.886   5.697   4.744
 6577TIP3    H119737   3.884   5.696   4.840
 6577TIP3    H219738   3.969   5.656   4.721
 6578TIP3   OH219739   6.295   4.684   4.458
 6578TIP3    H119740   6.305   4.725   4.544
 6578TIP3    H219741   6.243   4.747   4.407
 6579TIP3   OH219742   5.741   4.680   4.745
 6579TIP3    H119743   5.806   4.703   4.679
 6579TIP3    H219744   5.679   4.754   4.744
 6580TIP3   OH219745   5.762   4.848   4.500
 6580TIP3    H119746   5.724   4.893   4.575
 6580TIP3    H219747   5.690   4.796   4.463
 6581TIP3   OH219748   5.777   4.513   4.956
 6581TIP3    H119749   5.692   4.509   5.001
 6581TIP3    H219750   5.766   4.585   4.893
 6582TIP3   OH219751   5.874   4.353   4.759
 6582TIP3    H119752   5.892   4.421   4.694
 6582TIP3    H219753   5.844   4.400   4.837
 6583TIP3   OH219754   5.981   4.536   4.563
 6583TIP3    H119755   6.037   4.474   4.516
 6583TIP3    H219756   6.042   4.589   4.615
 6584TIP3   OH219757   5.899   2.497   0.303
 6584TIP3    H119758   5.806   2.483   0.283
 6584TIP3    H219759   5.911   2.592   0.300
 6585TIP3   OH219760   1.401   5.821   5.235
 6585TIP3    H119761   1.460   5.815   5.310
 6585TIP3    H219762   1.315   5.801   5.269
 6586TIP3   OH219763   5.982   2.721   0.067
 6586TIP3    H119764   6.006   2.641   0.020
 6586TIP3    H219765   6.013   2.792   0.010
 6587TIP3   OH219766   0.936   3.138   0.097
 6587TIP3    H119767   0.916   3.155   0.189
 6587TIP3    H219768   0.904   3.215   0.051
 6588TIP3   OH219769   1.050   3.211   0.391
 6588TIP3    H119770   1.072   3.136   0.446
 6588TIP3    H219771   1.113   3.207   0.319
 6589TIP3   OH219772   0.472   2.779   0.611
 6589TIP3    H119773   0.544   2.721   0.633
 6589TIP3    H219774   0.454   2.827   0.691
 6590TIP3   OH219775   4.816   0.264   4.948
 6590TIP3    H119776   4.843   0.343   4.995
 6590TIP3    H219777   4.893   0.238   4.897
 6591TIP3   OH219778   5.182   0.635   5.211
 6591TIP3    H119779   5.148   0.697   5.275
 6591TIP3    H219780   5.227   0.568   5.263
 6592TIP3   OH219781   5.052   0.433   5.037
 6592TIP3    H119782   5.047   0.514   5.087
 6592TIP3    H219783   5.054   0.461   4.946
 6593TIP3   OH219784   3.357   5.828   5.062
 6593TIP3    H119785   3.285   5.851   5.121
 6593TIP3    H219786   3.373   5.907   5.010
 6594TIP3   OH219787   5.052   0.496   4.776
 6594TIP3    H119788   5.059   0.450   4.693
 6594TIP3    H219789   5.137   0.539   4.787
 6595TIP3   OH219790   2.634   6.003   5.121
 6595TIP3    H119791   2.564   6.067   5.119
 6595TIP3    H219792   2.603   5.931   5.066
 6596TIP3   OH219793   4.916   0.338   5.288
 6596TIP3    H119794   4.884   0.392   5.216
 6596TIP3    H219795   4.998   0.301   5.255
 6597TIP3   OH219796   2.323   5.992   5.036
 6597TIP3    H119797   2.302   5.977   5.128
 6597TIP3    H219798   2.249   6.041   5.001
 6598TIP3   OH219799   0.253   3.096   0.065
 6598TIP3    H119800   0.334   3.144   0.085
 6598TIP3    H219801   0.202   3.157   0.011
 6599TIP3   OH219802   4.393   0.108   5.180
 6599TIP3    H119803   4.315   0.084   5.130
 6599TIP3    H219804   4.451   0.150   5.116
 6600TIP3   OH219805   0.165   2.842   0.257
 6600TIP3    H119806   0.147   2.805   0.344
 6600TIP3    H219807   0.175   2.936   0.272
 6601TIP3   OH219808   5.051  -0.022   5.041
 6601TIP3    H119809   4.957  -0.030   5.058
 6601TIP3    H219810   5.073   0.067   5.069
 6602TIP3   OH219811   5.137   0.212   5.151
 6602TIP3    H119812   5.232   0.223   5.158
 6602TIP3    H219813   5.107   0.287   5.101
 6603TIP3   OH219814   5.553   0.319   4.967
 6603TIP3    H119815   5.493   0.273   4.907
 6603TIP3    H219816   5.567   0.404   4.926
 6604TIP3   OH219817   5.238   0.675   4.948
 6604TIP3    H119818   5.232   0.669   5.044
 6604TIP3    H219819   5.320   0.721   4.932
 6605TIP3   OH219820   2.911   6.015   5.302
 6605TIP3    H119821   2.912   6.052   5.214
 6605TIP3    H219822   2.959   6.078   5.356
 6606TIP3   OH219823   0.506   3.193   0.138
 6606TIP3    H119824   0.526   3.269   0.084
 6606TIP3    H219825   0.565   3.200   0.213
 6607TIP3   OH219826   0.090   2.883  -0.006
 6607TIP3    H119827   0.112   2.976   0.002
 6607TIP3    H219828   0.116   2.845   0.078
 6608TIP3   OH219829   3.960   0.022   5.212
 6608TIP3    H119830   3.986   0.114   5.203
 6608TIP3    H219831   3.868   0.026   5.240
 6609TIP3   OH219832   4.555   0.191   4.981
 6609TIP3    H119833   4.507   0.246   4.918
 6609TIP3    H219834   4.645   0.223   4.977
 6610TIP3   OH219835   5.302   0.568   4.678
 6610TIP3    H119836   5.361   0.576   4.603
 6610TIP3    H219837   5.290   0.658   4.708
 6611TIP3   OH219838   5.491   0.776   4.913
 6611TIP3    H119839   5.538   0.836   4.855
 6611TIP3    H219840   5.530   0.788   4.999
 6612TIP3   OH219841   5.544   0.537   4.810
 6612TIP3    H119842   5.463   0.512   4.765
 6612TIP3    H219843   5.524   0.620   4.853
 6613TIP3   OH219844   5.396   0.233   4.763
 6613TIP3    H119845   5.349   0.273   4.689
 6613TIP3    H219846   5.382   0.139   4.753
 6614TIP3   OH219847   1.009   3.534   0.038
 6614TIP3    H119848   1.028   3.453  -0.009
 6614TIP3    H219849   1.088   3.587   0.027
 6615TIP3   OH219850   3.183   6.093   4.744
 6615TIP3    H119851   3.249   6.060   4.806
 6615TIP3    H219852   3.105   6.042   4.763
 6616TIP3   OH219853   5.402   0.251   5.186
 6616TIP3    H119854   5.435   0.165   5.211
 6616TIP3    H219855   5.457   0.279   5.113
 6617TIP3   OH219856   3.334   6.126   5.218
 6617TIP3    H119857   3.392   6.072   5.271
 6617TIP3    H219858   3.253   6.076   5.211
 6618TIP3   OH219859   3.416   6.040   4.897
 6618TIP3    H119860   3.454   5.976   4.836
 6618TIP3    H219861   3.477   6.114   4.894
 6619TIP3   OH219862   0.907   2.996   0.546
 6619TIP3    H119863   0.832   2.949   0.583
 6619TIP3    H219864   0.869   3.047   0.474
 6620TIP3   OH219865   1.224   2.953   0.430
 6620TIP3    H119866   1.279   3.014   0.380
 6620TIP3    H219867   1.144   2.946   0.379
 6621TIP3   OH219868   1.444   3.000   0.222
 6621TIP3    H119869   1.441   2.957   0.137
 6621TIP3    H219870   1.474   3.089   0.203
 6622TIP3   OH219871   6.288   2.608   0.141
 6622TIP3    H119872   6.317   2.654   0.061
 6622TIP3    H219873   6.211   2.658   0.170
 6623TIP3   OH219874   0.998   2.868   0.300
 6623TIP3    H119875   1.039   2.793   0.256
 6623TIP3    H219876   0.981   2.837   0.389
 6624TIP3   OH219877   3.162   5.892   5.258
 6624TIP3    H119878   3.082   5.942   5.278
 6624TIP3    H219879   3.143   5.804   5.289
 6625TIP3   OH219880   2.045   5.797   5.218
 6625TIP3    H119881   2.092   5.740   5.157
 6625TIP3    H219882   2.111   5.858   5.251
 6626TIP3   OH219883   5.776   0.450   5.088
 6626TIP3    H119884   5.768   0.465   5.183
 6626TIP3    H219885   5.719   0.375   5.071
 6627TIP3   OH219886   0.110   0.140   4.560
 6627TIP3    H119887   0.074   0.166   4.645
 6627TIP3    H219888   0.063   0.060   4.537
 6628TIP3   OH219889   6.252   0.131   4.516
 6628TIP3    H119890   6.249   0.110   4.609
 6628TIP3    H219891   6.201   0.211   4.508
 6629TIP3   OH219892   1.526   3.239   0.148
 6629TIP3    H119893   1.599   3.295   0.174
 6629TIP3    H219894   1.556   3.197   0.067
 6630TIP3   OH219895   5.752   0.136   4.907
 6630TIP3    H119896   5.797   0.168   4.828
 6630TIP3    H219897   5.687   0.203   4.926
 6631TIP3   OH219898   6.115   0.338   4.647
 6631TIP3    H119899   6.020   0.338   4.634
 6631TIP3    H219900   6.148   0.400   4.582
 6632TIP3   OH219901   5.791   0.554   4.699
 6632TIP3    H119902   5.850   0.608   4.752
 6632TIP3    H219903   5.709   0.553   4.748
 6633TIP3   OH219904   6.236   0.105   4.788
 6633TIP3    H119905   6.206   0.196   4.800
 6633TIP3    H219906   6.295   0.090   4.862
 6634TIP3   OH219907   5.804   0.282   4.678
 6634TIP3    H119908   5.805   0.377   4.693
 6634TIP3    H219909   5.736   0.269   4.612
 6635TIP3   OH219910   6.023   0.747   4.345
 6635TIP3    H119911   6.008   0.736   4.439
 6635TIP3    H219912   6.094   0.810   4.339
 6636TIP3   OH219913   6.242   0.478   4.449
 6636TIP3    H119914   6.241   0.472   4.354
 6636TIP3    H219915   6.314   0.540   4.468
 6637TIP3   OH219916   5.781   0.014   5.149
 6637TIP3    H119917   5.703  -0.040   5.139
 6637TIP3    H219918   5.794   0.054   5.063
 6638TIP3   OH219919   3.906   6.061   5.156
 6638TIP3    H119920   3.826   6.044   5.206
 6638TIP3    H219921   3.965   5.990   5.182
 6639TIP3   OH219922   3.725   5.935   4.941
 6639TIP3    H119923   3.763   5.975   4.862
 6639TIP3    H219924   3.744   5.998   5.011
 6640TIP3   OH219925   3.855   6.067   4.721
 6640TIP3    H119926   3.900   6.007   4.663
 6640TIP3    H219927   3.923   6.127   4.752
   6.50000   6.12826   5.30723   0.00000   0.00000  -2.16667   0.00000  -2.16667  -3.06413
