Generated by CHARMM-GUI FF-Converter
19927
    1ASP      N    1   4.294   3.515   2.912
    1ASP    HT1    2   4.378   3.474   2.864
    1ASP    HT2    3   4.319   3.611   2.942
    1ASP    HT3    4   4.215   3.524   2.842
    1ASP     CA    5   4.243   3.442   3.027
    1ASP     HA    6   4.328   3.401   3.080
    1ASP     CB    7   4.165   3.535   3.120
    1ASP    HB1    8   4.071   3.570   3.073
    1ASP    HB2    9   4.226   3.625   3.146
    1ASP     CG   10   4.129   3.471   3.253
    1ASP    OD1   11   4.221   3.428   3.327
    1ASP    OD2   12   4.008   3.462   3.284
    1ASP      C   13   4.154   3.325   2.984
    1ASP      O   14   4.065   3.343   2.901
    2ALA      N   15   4.207   3.211   2.963
    2ALA     HN   16   4.292   3.180   3.004
    2ALA     CA   17   4.135   3.116   2.879
    2ALA     HA   18   4.117   3.157   2.781
    2ALA     CB   19   4.219   2.990   2.858
    2ALA    HB1   20   4.232   2.934   2.953
    2ALA    HB2   21   4.319   3.018   2.818
    2ALA    HB3   22   4.170   2.923   2.785
    2ALA      C   23   4.000   3.079   2.940
    2ALA      O   24   3.908   3.039   2.868
    3ASP      N   25   3.969   3.115   3.060
    3ASP     HN   26   4.032   3.161   3.121
    3ASP     CA   27   3.834   3.098   3.113
    3ASP     HA   28   3.774   3.034   3.049
    3ASP     CB   29   3.838   3.033   3.251
    3ASP    HB1   30   3.737   3.035   3.297
    3ASP    HB2   31   3.908   3.091   3.313
    3ASP     CG   32   3.879   2.887   3.247
    3ASP    OD1   33   3.857   2.820   3.143
    3ASP    OD2   34   3.934   2.838   3.348
    3ASP      C   35   3.760   3.231   3.119
    3ASP      O   36   3.790   3.315   3.204
    4GLY      N   37   3.808   3.326   3.027
    4GLY     HN   38   3.883   3.307   2.965
    4GLY     CA   39   3.721   3.441   3.009
    4GLY    HA1   40   3.672   3.427   2.914
    4GLY    HA2   41   3.788   3.525   3.014
    4GLY      C   42   3.616   3.455   3.118
    4GLY      O   43   3.605   3.368   3.205
    5PRO      N   44   3.571   3.558   3.162
    5PRO     CD   45   3.552   3.627   3.042
    5PRO    HD1   46   3.518   3.573   2.947
    5PRO    HD2   47   3.641   3.691   3.020
    5PRO     CA   48   3.465   3.581   3.261
    5PRO     HA   49   3.510   3.588   3.359
    5PRO     CB   50   3.398   3.710   3.211
    5PRO    HB1   51   3.444   3.795   3.266
    5PRO    HB2   52   3.288   3.712   3.227
    5PRO     CG   53   3.436   3.719   3.067
    5PRO    HG1   54   3.348   3.684   3.006
    5PRO    HG2   55   3.458   3.823   3.036
    5PRO      C   56   3.364   3.466   3.267
    5PRO      O   57   3.335   3.403   3.165
    6GLY      N   58   3.372   3.377   3.359
    6GLY     HN   59   3.453   3.386   3.417
    6GLY     CA   60   3.277   3.276   3.402
    6GLY    HA1   61   3.275   3.276   3.510
    6GLY    HA2   62   3.308   3.182   3.358
    6GLY      C   63   3.135   3.304   3.354
    6GLY      O   64   3.102   3.417   3.321
    7ASP      N   65   3.047   3.177   3.299
    7ASP     HN   66   3.086   3.085   3.303
    7ASP     CA   67   2.910   3.180   3.250
    7ASP     HA   68   2.909   3.245   3.164
    7ASP     CB   69   2.866   3.040   3.205
    7ASP    HB1   70   2.864   2.972   3.290
    7ASP    HB2   71   2.939   3.001   3.132
    7ASP     CG   72   2.731   3.040   3.135
    7ASP    OD1   73   2.668   3.148   3.124
    7ASP    OD2   74   2.687   2.932   3.092
    7ASP      C   75   2.815   3.233   3.357
    7ASP      O   76   2.801   3.174   3.464
    8PRO      N   77   2.777   3.381   3.347
    8PRO     CD   78   2.804   3.464   3.248
    8PRO    HD1   79   2.765   3.418   3.154
    8PRO    HD2   80   2.911   3.484   3.235
    8PRO     CA   81   2.689   3.431   3.453
    8PRO     HA   82   2.747   3.433   3.544
    8PRO     CB   83   2.646   3.569   3.401
    8PRO    HB1   84   2.667   3.646   3.477
    8PRO    HB2   85   2.538   3.572   3.375
    8PRO     CG   86   2.729   3.590   3.278
    8PRO    HG1   87   2.664   3.619   3.193
    8PRO    HG2   88   2.802   3.673   3.296
    8PRO      C   89   2.568   3.342   3.477
    8PRO      O   90   2.508   3.347   3.585
    9ASP      N   91   2.538   3.264   3.388
    9ASP     HN   92   2.587   3.258   3.301
    9ASP     CA   93   2.414   3.186   3.398
    9ASP     HA   94   2.346   3.229   3.471
    9ASP     CB   95   2.341   3.184   3.264
    9ASP    HB1   96   2.250   3.122   3.270
    9ASP    HB2   97   2.408   3.143   3.185
    9ASP     CG   98   2.292   3.321   3.220
    9ASP    OD1   99   2.303   3.417   3.299
    9ASP    OD2  100   2.243   3.332   3.106
    9ASP      C  101   2.443   3.044   3.445
    9ASP      O  102   2.351   2.965   3.464
   10ALA      N  103   2.582   3.011   3.464
   10ALA     HN  104   2.657   3.077   3.456
   10ALA     CA  105   2.610   2.873   3.504
   10ALA     HA  106   2.562   2.807   3.433
   10ALA     CB  107   2.760   2.848   3.505
   10ALA    HB1  108   2.814   2.934   3.551
   10ALA    HB2  109   2.797   2.830   3.403
   10ALA    HB3  110   2.785   2.757   3.564
   10ALA      C  111   2.549   2.842   3.640
   10ALA      O  112   2.578   2.911   3.739
   11GLY      N  113   2.444   2.865   3.705
   11GLY     HN  114   2.389   2.926   3.649
   11GLY     CA  115   2.360   2.804   3.807
   11GLY    HA1  116   2.342   2.878   3.883
   11GLY    HA2  117   2.410   2.717   3.844
   11GLY      C  118   2.225   2.759   3.754
   11GLY    OT1  119   2.200   2.778   3.631
   11GLY    OT2  120   2.145   2.706   3.834
   12SOD    SOD  121   6.487   4.244   4.394
   13SOD    SOD  122   0.958   1.583   2.349
   14SOD    SOD  123   4.173   5.001   4.421
   15SOD    SOD  124   1.966   3.507   6.308
   16SOD    SOD  125   6.002   2.341   1.718
   17SOD    SOD  126   3.610   3.820   0.775
   18SOD    SOD  127   0.787   2.808   5.928
   19SOD    SOD  128   1.951   2.894   3.293
   20SOD    SOD  129   3.813   6.317   2.468
   21SOD    SOD  130   3.750   2.895   0.139
   22SOD    SOD  131   1.195   3.895   3.032
   23SOD    SOD  132   1.245   3.835   1.084
   24SOD    SOD  133   4.480   3.134   3.433
   25SOD    SOD  134   5.664   4.860   3.527
   26SOD    SOD  135   4.517   4.845   1.101
   27SOD    SOD  136   2.705   5.819   5.371
   28SOD    SOD  137   5.991   1.195   3.857
   29SOD    SOD  138   0.917   0.404   4.084
   30SOD    SOD  139   2.187   4.920   5.205
   31SOD    SOD  140   3.576   5.847   3.634
   32SOD    SOD  141   2.155   2.790   4.804
   33SOD    SOD  142   0.817   3.574   1.495
   34CLA    CLA  143   0.602   2.556   1.120
   35CLA    CLA  144  -0.027   4.491   1.874
   36CLA    CLA  145   0.250   1.892   2.349
   37CLA    CLA  146   3.659   4.357   1.410
   38CLA    CLA  147   4.667   4.819   4.019
   39CLA    CLA  148   3.438   4.514   6.112
   40CLA    CLA  149   4.848   0.317   2.304
   41CLA    CLA  150   4.725   4.031   0.960
   42CLA    CLA  151   2.358   3.164   5.316
   43CLA    CLA  152   4.705   4.325   2.609
   44CLA    CLA  153   1.644   2.215   4.781
   45CLA    CLA  154   5.853   5.218   1.746
   46CLA    CLA  155   2.492   1.480   1.230
   47CLA    CLA  156   1.599   4.798   4.448
   48CLA    CLA  157   3.358   2.914  -0.075
   49CLA    CLA  158   3.503   2.710   5.187
   50CLA    CLA  159   4.040   2.269   0.014
   51CLA    CLA  160   4.259   5.029   5.931
   52TIP3   OH2  161   1.570   0.585   2.293
   52TIP3    H1  162   1.542   0.505   2.246
   52TIP3    H2  163   1.488   0.610   2.339
   53TIP3   OH2  164   1.286   0.907   2.384
   53TIP3    H1  165   1.276   0.945   2.296
   53TIP3    H2  166   1.356   0.963   2.422
   54TIP3   OH2  167   1.410   0.700   2.081
   54TIP3    H1  168   1.390   0.614   2.040
   54TIP3    H2  169   1.497   0.682   2.118
   55TIP3   OH2  170   1.440   0.379   2.622
   55TIP3    H1  171   1.378   0.393   2.698
   55TIP3    H2  172   1.493   0.462   2.628
   56TIP3   OH2  173   1.295   0.638   2.385
   56TIP3    H1  174   1.212   0.636   2.335
   56TIP3    H2  175   1.305   0.736   2.393
   57TIP3   OH2  176   2.827   0.320   1.225
   57TIP3    H1  177   2.835   0.269   1.308
   57TIP3    H2  178   2.861   0.406   1.253
   58TIP3   OH2  179   2.484   0.798   1.215
   58TIP3    H1  180   2.512   0.716   1.168
   58TIP3    H2  181   2.447   0.765   1.297
   59TIP3   OH2  182   2.409   0.232   1.632
   59TIP3    H1  183   2.405   0.229   1.535
   59TIP3    H2  184   2.501   0.260   1.647
   60TIP3   OH2  185   3.411  -0.400   1.557
   60TIP3    H1  186   3.427  -0.323   1.615
   60TIP3    H2  187   3.386  -0.356   1.474
   61TIP3   OH2  188   3.440  -0.205   1.741
   61TIP3    H1  189   3.368  -0.139   1.739
   61TIP3    H2  190   3.502  -0.167   1.807
   62TIP3   OH2  191   2.239   0.174   1.840
   62TIP3    H1  192   2.177   0.249   1.847
   62TIP3    H2  193   2.289   0.197   1.758
   63TIP3   OH2  194   2.076   0.395   1.890
   63TIP3    H1  195   2.052   0.488   1.869
   63TIP3    H2  196   1.993   0.364   1.931
   64TIP3   OH2  197   2.903   0.583   1.348
   64TIP3    H1  198   2.818   0.574   1.397
   64TIP3    H2  199   2.896   0.675   1.315
   65TIP3   OH2  200   2.603   0.605   1.043
   65TIP3    H1  201   2.665   0.550   1.093
   65TIP3    H2  202   2.662   0.660   0.987
   66TIP3   OH2  203   3.129   0.492   1.715
   66TIP3    H1  204   3.115   0.415   1.656
   66TIP3    H2  205   3.108   0.567   1.656
   67TIP3   OH2  206   3.321   0.129   1.554
   67TIP3    H1  207   3.241   0.185   1.558
   67TIP3    H2  208   3.355   0.156   1.466
   68TIP3   OH2  209   3.001   0.022   1.874
   68TIP3    H1  210   2.996   0.106   1.923
   68TIP3    H2  211   2.913   0.020   1.830
   69TIP3   OH2  212   2.679   0.572   1.495
   69TIP3    H1  213   2.660   0.657   1.539
   69TIP3    H2  214   2.653   0.506   1.561
   70TIP3   OH2  215   2.284   0.487   2.042
   70TIP3    H1  216   2.220   0.545   2.088
   70TIP3    H2  217   2.223   0.436   1.984
   71TIP3   OH2  218   2.022   0.051   2.132
   71TIP3    H1  219   2.021   0.136   2.179
   71TIP3    H2  220   1.968  -0.006   2.188
   72TIP3   OH2  221   2.077   0.646   2.135
   72TIP3    H1  222   2.048   0.666   2.043
   72TIP3    H2  223   1.991   0.630   2.180
   73TIP3   OH2  224   3.368   0.847   1.772
   73TIP3    H1  225   3.368   0.751   1.790
   73TIP3    H2  226   3.283   0.872   1.816
   74TIP3   OH2  227   2.476   0.619   1.900
   74TIP3    H1  228   2.465   0.713   1.928
   74TIP3    H2  229   2.404   0.576   1.951
   75TIP3   OH2  230   3.261  -0.037   2.056
   75TIP3    H1  231   3.174  -0.030   2.014
   75TIP3    H2  232   3.279  -0.132   2.050
   76TIP3   OH2  233   1.852   0.368   2.056
   76TIP3    H1  234   1.914   0.358   2.131
   76TIP3    H2  235   1.774   0.321   2.092
   77TIP3   OH2  236   3.014  -0.237   1.974
   77TIP3    H1  237   2.965  -0.240   2.059
   77TIP3    H2  238   2.993  -0.147   1.941
   78TIP3   OH2  239   2.744  -0.033   2.174
   78TIP3    H1  240   2.717  -0.097   2.243
   78TIP3    H2  241   2.837  -0.016   2.200
   79TIP3   OH2  242   2.758  -0.051   1.764
   79TIP3    H1  243   2.754  -0.121   1.699
   79TIP3    H2  244   2.717  -0.094   1.841
   80TIP3   OH2  245   3.073   1.185   1.869
   80TIP3    H1  246   3.066   1.215   1.777
   80TIP3    H2  247   3.154   1.232   1.898
   81TIP3   OH2  248   2.012   0.298   2.283
   81TIP3    H1  249   2.094   0.323   2.329
   81TIP3    H2  250   1.946   0.313   2.352
   82TIP3   OH2  251   3.093   0.280   1.541
   82TIP3    H1  252   3.120   0.336   1.465
   82TIP3    H2  253   3.013   0.236   1.507
   83TIP3   OH2  254   2.596   0.366   1.921
   83TIP3    H1  255   2.617   0.346   2.013
   83TIP3    H2  256   2.554   0.454   1.927
   84TIP3   OH2  257   2.503   0.103   2.227
   84TIP3    H1  258   2.443   0.063   2.162
   84TIP3    H2  259   2.589   0.072   2.191
   85TIP3   OH2  260   2.750   0.615   1.824
   85TIP3    H1  261   2.653   0.616   1.836
   85TIP3    H2  262   2.777   0.672   1.899
   86TIP3   OH2  263   3.378   0.558   1.802
   86TIP3    H1  264   3.281   0.551   1.792
   86TIP3    H2  265   3.407   0.527   1.714
   87TIP3   OH2  266   2.870   0.152   1.447
   87TIP3    H1  267   2.796   0.143   1.510
   87TIP3    H2  268   2.885   0.059   1.420
   88TIP3   OH2  269   2.259   0.693   1.698
   88TIP3    H1  270   2.295   0.765   1.641
   88TIP3    H2  271   2.342   0.655   1.731
   89TIP3   OH2  272   2.673   0.327   1.665
   89TIP3    H1  273   2.642   0.341   1.757
   89TIP3    H2  274   2.769   0.328   1.681
   90TIP3   OH2  275   2.893   0.869   1.697
   90TIP3    H1  276   2.808   0.820   1.691
   90TIP3    H2  277   2.879   0.936   1.627
   91TIP3   OH2  278   1.737   0.558   1.885
   91TIP3    H1  279   1.771   0.489   1.946
   91TIP3    H2  280   1.791   0.634   1.908
   92TIP3   OH2  281   1.576   5.789   0.663
   92TIP3    H1  282   1.628   5.858   0.619
   92TIP3    H2  283   1.646   5.733   0.700
   93TIP3   OH2  284   2.683  -0.206   1.971
   93TIP3    H1  285   2.695  -0.143   2.044
   93TIP3    H2  286   2.725  -0.286   2.005
   94TIP3   OH2  287   3.278  -0.310   1.950
   94TIP3    H1  288   3.184  -0.287   1.934
   94TIP3    H2  289   3.318  -0.298   1.862
   95TIP3   OH2  290   2.921  -0.108   1.370
   95TIP3    H1  291   2.851  -0.176   1.360
   95TIP3    H2  292   2.996  -0.160   1.406
   96TIP3   OH2  293   2.916   0.854   1.287
   96TIP3    H1  294   2.873   0.898   1.210
   96TIP3    H2  295   3.011   0.871   1.269
   97TIP3   OH2  296   1.697   0.903   2.273
   97TIP3    H1  297   1.782   0.913   2.324
   97TIP3    H2  298   1.690   0.807   2.271
   98TIP3   OH2  299   2.156   0.826   2.327
   98TIP3    H1  300   2.253   0.827   2.327
   98TIP3    H2  301   2.139   0.760   2.257
   99TIP3   OH2  302   2.801   0.752   2.055
   99TIP3    H1  303   2.801   0.682   2.125
   99TIP3    H2  304   2.877   0.807   2.082
  100TIP3   OH2  305   1.800   0.267   2.492
  100TIP3    H1  306   1.848   0.183   2.470
  100TIP3    H2  307   1.739   0.233   2.560
  101TIP3   OH2  308   2.418   0.378   2.252
  101TIP3    H1  309   2.377   0.405   2.166
  101TIP3    H2  310   2.450   0.288   2.233
  102TIP3   OH2  311   2.909   0.392   1.847
  102TIP3    H1  312   2.988   0.436   1.810
  102TIP3    H2  313   2.844   0.466   1.845
  103TIP3   OH2  314   1.925   0.026   2.468
  103TIP3    H1  315   1.989  -0.035   2.432
  103TIP3    H2  316   1.967   0.051   2.554
  104TIP3   OH2  317   2.251  -0.095   2.109
  104TIP3    H1  318   2.172  -0.039   2.095
  104TIP3    H2  319   2.313  -0.058   2.042
  105TIP3   OH2  320   2.788   0.308   2.249
  105TIP3    H1  321   2.857   0.261   2.200
  105TIP3    H2  322   2.776   0.251   2.327
  106TIP3   OH2  323   2.389  -0.256   2.267
  106TIP3    H1  324   2.340  -0.338   2.250
  106TIP3    H2  325   2.340  -0.193   2.208
  107TIP3   OH2  326   2.431   0.028   1.956
  107TIP3    H1  327   2.485   0.012   1.878
  107TIP3    H2  328   2.359   0.083   1.916
  108TIP3   OH2  329   2.990  -0.008   2.288
  108TIP3    H1  330   3.019  -0.074   2.355
  108TIP3    H2  331   3.075   0.029   2.260
  109TIP3   OH2  332   3.037   0.251   2.040
  109TIP3    H1  333   2.979   0.306   1.983
  109TIP3    H2  334   3.125   0.273   2.002
  110TIP3   OH2  335   2.281  -0.165   2.509
  110TIP3    H1  336   2.208  -0.231   2.516
  110TIP3    H2  337   2.313  -0.184   2.419
  111TIP3   OH2  338   2.655  -0.242   2.329
  111TIP3    H1  339   2.640  -0.246   2.426
  111TIP3    H2  340   2.561  -0.239   2.300
  112TIP3   OH2  341   2.889  -0.319   2.207
  112TIP3    H1  342   2.813  -0.287   2.259
  112TIP3    H2  343   2.922  -0.389   2.267
  113TIP3   OH2  344   2.083  -0.352   2.540
  113TIP3    H1  345   2.064  -0.428   2.482
  113TIP3    H2  346   2.125  -0.396   2.615
  114TIP3   OH2  347   3.183   0.920   1.266
  114TIP3    H1  348   3.196   0.953   1.358
  114TIP3    H2  349   3.232   0.986   1.215
  115TIP3   OH2  350   3.195   0.952   1.544
  115TIP3    H1  351   3.148   0.866   1.542
  115TIP3    H2  352   3.267   0.930   1.606
  116TIP3   OH2  353   3.247   0.635   2.116
  116TIP3    H1  354   3.177   0.648   2.182
  116TIP3    H2  355   3.291   0.722   2.119
  117TIP3   OH2  356   3.187  -0.009   0.914
  117TIP3    H1  357   3.115  -0.010   0.981
  117TIP3    H2  358   3.263   0.023   0.965
  118TIP3   OH2  359   3.251   0.419   1.364
  118TIP3    H1  360   3.301   0.347   1.321
  118TIP3    H2  361   3.253   0.490   1.296
  119TIP3   OH2  362   3.064   0.705   1.554
  119TIP3    H1  363   2.993   0.749   1.605
  119TIP3    H2  364   3.015   0.666   1.478
  120TIP3   OH2  365   3.285   0.312   1.937
  120TIP3    H1  366   3.352   0.243   1.917
  120TIP3    H2  367   3.307   0.381   1.873
  121TIP3   OH2  368   3.454   0.103   1.920
  121TIP3    H1  369   3.384   0.060   1.973
  121TIP3    H2  370   3.525   0.038   1.936
  122TIP3   OH2  371   3.161  -0.212   1.462
  122TIP3    H1  372   3.245  -0.191   1.417
  122TIP3    H2  373   3.175  -0.175   1.551
  123TIP3   OH2  374   3.206  -0.069   1.702
  123TIP3    H1  375   3.132  -0.031   1.753
  123TIP3    H2  376   3.241   0.011   1.656
  124TIP3   OH2  377   2.769   0.783   0.908
  124TIP3    H1  378   2.795   0.846   0.839
  124TIP3    H2  379   2.776   0.842   0.987
  125TIP3   OH2  380   1.847   0.613   2.288
  125TIP3    H1  381   1.751   0.592   2.289
  125TIP3    H2  382   1.868   0.613   2.382
  126TIP3   OH2  383   2.039   0.669   1.857
  126TIP3    H1  384   1.994   0.744   1.812
  126TIP3    H2  385   2.127   0.679   1.815
  127TIP3   OH2  386   2.459   0.884   1.978
  127TIP3    H1  387   2.503   0.881   2.066
  127TIP3    H2  388   2.525   0.939   1.928
  128TIP3   OH2  389   2.650   1.043   1.859
  128TIP3    H1  390   2.717   0.999   1.805
  128TIP3    H2  391   2.705   1.101   1.916
  129TIP3   OH2  392   1.713   0.917   1.870
  129TIP3    H1  393   1.618   0.936   1.853
  129TIP3    H2  394   1.730   0.975   1.945
  130TIP3   OH2  395   1.951   0.894   1.737
  130TIP3    H1  396   1.861   0.903   1.775
  130TIP3    H2  397   1.937   0.920   1.644
  131TIP3   OH2  398   2.373   0.881   1.533
  131TIP3    H1  399   2.295   0.909   1.479
  131TIP3    H2  400   2.392   0.966   1.579
  132TIP3   OH2  401   2.644   0.834   1.580
  132TIP3    H1  402   2.548   0.848   1.566
  132TIP3    H2  403   2.680   0.911   1.532
  133TIP3   OH2  404   2.846   1.035   1.485
  133TIP3    H1  405   2.824   1.120   1.440
  133TIP3    H2  406   2.868   0.977   1.409
  134TIP3   OH2  407   2.197   0.572   1.345
  134TIP3    H1  408   2.103   0.554   1.354
  134TIP3    H2  409   2.204   0.662   1.379
  135TIP3   OH2  410   3.115   0.913   1.862
  135TIP3    H1  411   3.036   0.886   1.809
  135TIP3    H2  412   3.097   1.008   1.873
  136TIP3   OH2  413   3.667   0.177   1.385
  136TIP3    H1  414   3.701   0.105   1.442
  136TIP3    H2  415   3.737   0.242   1.399
  137TIP3   OH2  416   3.658   0.593   1.091
  137TIP3    H1  417   3.643   0.498   1.102
  137TIP3    H2  418   3.755   0.597   1.076
  138TIP3   OH2  419   3.448   0.092   1.050
  138TIP3    H1  420   3.529   0.039   1.067
  138TIP3    H2  421   3.486   0.181   1.041
  139TIP3   OH2  422   4.304   1.024   0.720
  139TIP3    H1  423   4.384   0.981   0.755
  139TIP3    H2  424   4.262   1.055   0.801
  140TIP3   OH2  425   4.175   0.552   1.062
  140TIP3    H1  426   4.191   0.524   0.969
  140TIP3    H2  427   4.267   0.561   1.092
  141TIP3   OH2  428   4.048   0.444   1.276
  141TIP3    H1  429   3.993   0.518   1.311
  141TIP3    H2  430   4.093   0.488   1.201
  142TIP3   OH2  431   3.876   0.643   1.375
  142TIP3    H1  432   3.851   0.733   1.345
  142TIP3    H2  433   3.796   0.622   1.427
  143TIP3   OH2  434   3.200   0.371   0.698
  143TIP3    H1  435   3.235   0.316   0.626
  143TIP3    H2  436   3.278   0.426   0.719
  144TIP3   OH2  437   4.706   0.875   0.847
  144TIP3    H1  438   4.620   0.844   0.885
  144TIP3    H2  439   4.686   0.969   0.828
  145TIP3   OH2  440   4.922   0.756   1.212
  145TIP3    H1  441   4.909   0.681   1.149
  145TIP3    H2  442   4.899   0.833   1.156
  146TIP3   OH2  443   4.737   0.240   1.385
  146TIP3    H1  444   4.769   0.305   1.450
  146TIP3    H2  445   4.719   0.294   1.308
  147TIP3   OH2  446   3.916   0.632   0.989
  147TIP3    H1  447   3.919   0.623   0.892
  147TIP3    H2  448   4.005   0.599   1.016
  148TIP3   OH2  449   3.909   0.224   1.199
  148TIP3    H1  450   3.974   0.184   1.137
  148TIP3    H2  451   3.956   0.306   1.227
  149TIP3   OH2  452   4.468   0.827   0.973
  149TIP3    H1  453   4.451   0.907   1.025
  149TIP3    H2  454   4.442   0.756   1.034
  150TIP3   OH2  455   4.078   0.748   1.526
  150TIP3    H1  456   4.015   0.807   1.573
  150TIP3    H2  457   4.014   0.696   1.472
  151TIP3   OH2  458   3.828   0.313   1.631
  151TIP3    H1  459   3.831   0.402   1.671
  151TIP3    H2  460   3.736   0.285   1.654
  152TIP3   OH2  461   4.115   0.822   0.625
  152TIP3    H1  462   4.162   0.902   0.656
  152TIP3    H2  463   4.140   0.820   0.530
  153TIP3   OH2  464   3.868   0.904   1.616
  153TIP3    H1  465   3.833   0.918   1.526
  153TIP3    H2  466   3.786   0.885   1.667
  154TIP3   OH2  467   3.445   0.453   1.562
  154TIP3    H1  468   3.375   0.436   1.496
  154TIP3    H2  469   3.483   0.364   1.579
  155TIP3   OH2  470   3.299   0.649   1.192
  155TIP3    H1  471   3.394   0.663   1.201
  155TIP3    H2  472   3.264   0.726   1.240
  156TIP3   OH2  473   5.160   1.072   1.288
  156TIP3    H1  474   5.133   1.012   1.359
  156TIP3    H2  475   5.081   1.130   1.286
  157TIP3   OH2  476   4.265   0.881   1.380
  157TIP3    H1  477   4.258   0.972   1.415
  157TIP3    H2  478   4.196   0.836   1.434
  158TIP3   OH2  479   4.075   1.054   0.291
  158TIP3    H1  480   3.992   1.005   0.273
  158TIP3    H2  481   4.042   1.130   0.343
  159TIP3   OH2  482   3.475   0.864   0.731
  159TIP3    H1  483   3.517   0.849   0.819
  159TIP3    H2  484   3.439   0.775   0.711
  160TIP3   OH2  485   3.651   0.632   1.533
  160TIP3    H1  486   3.697   0.622   1.619
  160TIP3    H2  487   3.576   0.571   1.544
  161TIP3   OH2  488   3.940  -0.023   1.318
  161TIP3    H1  489   3.920  -0.017   1.414
  161TIP3    H2  490   3.941   0.071   1.294
  162TIP3   OH2  491   4.526   0.239   1.672
  162TIP3    H1  492   4.516   0.161   1.729
  162TIP3    H2  493   4.617   0.267   1.696
  163TIP3   OH2  494   3.799   0.014   1.556
  163TIP3    H1  495   3.863   0.072   1.601
  163TIP3    H2  496   3.791  -0.060   1.621
  164TIP3   OH2  497   4.869   1.442   1.357
  164TIP3    H1  498   4.863   1.470   1.264
  164TIP3    H2  499   4.950   1.488   1.386
  165TIP3   OH2  500   3.814   0.554   1.768
  165TIP3    H1  501   3.895   0.580   1.817
  165TIP3    H2  502   3.748   0.554   1.840
  166TIP3   OH2  503   4.384   0.617   1.411
  166TIP3    H1  504   4.430   0.598   1.494
  166TIP3    H2  505   4.347   0.705   1.426
  167TIP3   OH2  506   3.655   0.299   1.081
  167TIP3    H1  507   3.725   0.299   1.014
  167TIP3    H2  508   3.701   0.252   1.153
  168TIP3   OH2  509   3.570   0.240   1.699
  168TIP3    H1  510   3.588   0.230   1.794
  168TIP3    H2  511   3.503   0.170   1.686
  169TIP3   OH2  512   4.293   0.370   1.716
  169TIP3    H1  513   4.238   0.318   1.655
  169TIP3    H2  514   4.382   0.336   1.690
  170TIP3   OH2  515   4.537   0.874   1.303
  170TIP3    H1  516   4.441   0.875   1.320
  170TIP3    H2  517   4.570   0.925   1.380
  171TIP3   OH2  518   5.186   0.764   1.282
  171TIP3    H1  519   5.089   0.776   1.268
  171TIP3    H2  520   5.221   0.837   1.228
  172TIP3   OH2  521   3.823   0.626   0.716
  172TIP3    H1  522   3.798   0.714   0.679
  172TIP3    H2  523   3.739   0.579   0.711
  173TIP3   OH2  524   4.062   0.964   1.176
  173TIP3    H1  525   4.106   1.036   1.128
  173TIP3    H2  526   4.136   0.924   1.224
  174TIP3   OH2  527   3.707   0.848   0.589
  174TIP3    H1  528   3.623   0.870   0.634
  174TIP3    H2  529   3.744   0.938   0.578
  175TIP3   OH2  530   4.437   0.590   1.148
  175TIP3    H1  531   4.406   0.596   1.241
  175TIP3    H2  532   4.531   0.577   1.164
  176TIP3   OH2  533   4.690   1.119   1.182
  176TIP3    H1  534   4.609   1.065   1.181
  176TIP3    H2  535   4.667   1.191   1.119
  177TIP3   OH2  536   3.805  -0.193   1.729
  177TIP3    H1  537   3.758  -0.275   1.699
  177TIP3    H2  538   3.882  -0.232   1.774
  178TIP3   OH2  539   3.495   0.824   1.331
  178TIP3    H1  540   3.550   0.768   1.387
  178TIP3    H2  541   3.504   0.910   1.374
  179TIP3   OH2  542   4.473   0.060   1.467
  179TIP3    H1  543   4.501   0.129   1.529
  179TIP3    H2  544   4.557   0.017   1.445
  180TIP3   OH2  545   4.698   1.139   0.797
  180TIP3    H1  546   4.655   1.188   0.722
  180TIP3    H2  547   4.793   1.159   0.779
  181TIP3   OH2  548   3.334   0.633   0.683
  181TIP3    H1  549   3.285   0.637   0.766
  181TIP3    H2  550   3.267   0.663   0.617
  182TIP3   OH2  551   3.490   1.156   1.758
  182TIP3    H1  552   3.575   1.159   1.808
  182TIP3    H2  553   3.472   1.061   1.758
  183TIP3   OH2  554   3.952   1.085   1.805
  183TIP3    H1  555   4.047   1.070   1.814
  183TIP3    H2  556   3.929   1.020   1.736
  184TIP3   OH2  557   4.605   1.002   1.532
  184TIP3    H1  558   4.598   0.935   1.604
  184TIP3    H2  559   4.676   1.059   1.565
  185TIP3   OH2  560   3.610   0.548   1.959
  185TIP3    H1  561   3.621   0.453   1.974
  185TIP3    H2  562   3.524   0.552   1.913
  186TIP3   OH2  563   4.216   0.639   1.737
  186TIP3    H1  564   4.175   0.662   1.651
  186TIP3    H2  565   4.247   0.547   1.722
  187TIP3   OH2  566   4.693   0.644   1.322
  187TIP3    H1  567   4.773   0.694   1.296
  187TIP3    H2  568   4.627   0.716   1.321
  188TIP3   OH2  569   3.737   0.282   1.945
  188TIP3    H1  570   3.819   0.250   1.905
  188TIP3    H2  571   3.768   0.313   2.033
  189TIP3   OH2  572   4.039   0.153   1.604
  189TIP3    H1  573   3.972   0.225   1.611
  189TIP3    H2  574   4.102   0.195   1.541
  190TIP3   OH2  575   4.591   0.565   1.744
  190TIP3    H1  576   4.667   0.517   1.710
  190TIP3    H2  577   4.573   0.518   1.828
  191TIP3   OH2  578   4.202  -0.024   1.721
  191TIP3    H1  579   4.192  -0.103   1.666
  191TIP3    H2  580   4.146   0.040   1.672
  192TIP3   OH2  581   4.206   0.278   1.441
  192TIP3    H1  582   4.288   0.249   1.398
  192TIP3    H2  583   4.166   0.339   1.376
  193TIP3   OH2  584   4.768   0.271   1.781
  193TIP3    H1  585   4.787   0.175   1.769
  193TIP3    H2  586   4.856   0.313   1.772
  194TIP3   OH2  587   4.838   0.495   1.508
  194TIP3    H1  588   4.781   0.545   1.445
  194TIP3    H2  589   4.927   0.507   1.469
  195TIP3   OH2  590   4.101   0.087   1.963
  195TIP3    H1  591   4.015   0.041   1.971
  195TIP3    H2  592   4.135   0.051   1.879
  196TIP3   OH2  593   4.463  -0.001   1.808
  196TIP3    H1  594   4.434   0.002   1.903
  196TIP3    H2  595   4.375  -0.001   1.764
  197TIP3   OH2  596   4.734  -0.005   1.781
  197TIP3    H1  597   4.638  -0.000   1.796
  197TIP3    H2  598   4.754  -0.092   1.823
  198TIP3   OH2  599   3.870  -0.063   1.995
  198TIP3    H1  600   3.897  -0.147   1.953
  198TIP3    H2  601   3.880  -0.084   2.089
  199TIP3   OH2  602   3.114   0.945   0.762
  199TIP3    H1  603   3.095   0.885   0.688
  199TIP3    H2  604   3.153   0.884   0.829
  200TIP3   OH2  605   3.234   0.781   0.949
  200TIP3    H1  606   3.225   0.718   1.023
  200TIP3    H2  607   3.288   0.848   0.993
  201TIP3   OH2  608   4.954   1.194   0.738
  201TIP3    H1  609   5.040   1.169   0.778
  201TIP3    H2  610   4.978   1.275   0.692
  202TIP3   OH2  611   4.981   1.232   1.048
  202TIP3    H1  612   4.944   1.143   1.059
  202TIP3    H2  613   5.053   1.212   0.983
  203TIP3   OH2  614   5.041   0.893   1.592
  203TIP3    H1  615   4.971   0.900   1.659
  203TIP3    H2  616   5.086   0.979   1.604
  204TIP3   OH2  617   4.874   0.966   1.048
  204TIP3    H1  618   4.803   1.012   1.098
  204TIP3    H2  619   4.825   0.934   0.969
  205TIP3   OH2  620   3.410   0.203   1.307
  205TIP3    H1  621   3.409   0.156   1.222
  205TIP3    H2  622   3.507   0.202   1.327
  206TIP3   OH2  623   5.103   0.535   1.418
  206TIP3    H1  624   5.102   0.467   1.349
  206TIP3    H2  625   5.133   0.615   1.370
  207TIP3   OH2  626   3.595  -0.121   1.966
  207TIP3    H1  627   3.689  -0.109   1.940
  207TIP3    H2  628   3.607  -0.160   2.055
  208TIP3   OH2  629   3.430  -0.142   1.390
  208TIP3    H1  630   3.519  -0.119   1.361
  208TIP3    H2  631   3.411  -0.070   1.452
  209TIP3   OH2  632   3.645   0.868   1.774
  209TIP3    H1  633   3.549   0.854   1.766
  209TIP3    H2  634   3.659   0.856   1.869
  210TIP3   OH2  635   3.835   0.912   1.328
  210TIP3    H1  636   3.784   0.987   1.291
  210TIP3    H2  637   3.919   0.927   1.280
  211TIP3   OH2  638   4.259   1.143   1.463
  211TIP3    H1  639   4.301   1.137   1.551
  211TIP3    H2  640   4.325   1.199   1.416
  212TIP3   OH2  641   4.444   1.303   1.336
  212TIP3    H1  642   4.516   1.254   1.296
  212TIP3    H2  643   4.494   1.363   1.395
  213TIP3   OH2  644   3.502   1.156   1.362
  213TIP3    H1  645   3.408   1.178   1.342
  213TIP3    H2  646   3.522   1.225   1.427
  214TIP3   OH2  647   3.735   1.139   1.217
  214TIP3    H1  648   3.647   1.147   1.260
  214TIP3    H2  649   3.715   1.171   1.126
  215TIP3   OH2  650   4.166   1.162   0.997
  215TIP3    H1  651   4.083   1.177   0.949
  215TIP3    H2  652   4.177   1.248   1.044
  216TIP3   OH2  653   4.434   1.094   1.052
  216TIP3    H1  654   4.340   1.118   1.038
  216TIP3    H2  655   4.478   1.177   1.026
  217TIP3   OH2  656   4.616   1.305   0.993
  217TIP3    H1  657   4.605   1.391   0.947
  217TIP3    H2  658   4.648   1.249   0.919
  218TIP3   OH2  659   3.414   0.949   1.088
  218TIP3    H1  660   3.435   0.915   1.177
  218TIP3    H2  661   3.490   0.910   1.039
  219TIP3   OH2  662   3.617   0.828   0.962
  219TIP3    H1  663   3.628   0.743   1.011
  219TIP3    H2  664   3.709   0.862   0.964
  220TIP3   OH2  665   3.883   0.914   0.972
  220TIP3    H1  666   3.908   0.820   0.965
  220TIP3    H2  667   3.937   0.938   1.050
  221TIP3   OH2  668   3.168   0.736   0.489
  221TIP3    H1  669   3.169   0.685   0.407
  221TIP3    H2  670   3.155   0.826   0.451
  222TIP3   OH2  671   3.171   0.712   0.195
  222TIP3    H1  672   3.149   0.807   0.191
  222TIP3    H2  673   3.242   0.706   0.129
  223TIP3   OH2  674   4.911   1.169   1.354
  223TIP3    H1  675   4.836   1.144   1.296
  223TIP3    H2  676   4.896   1.266   1.361
  224TIP3   OH2  677   5.554   1.269   1.090
  224TIP3    H1  678   5.538   1.217   1.011
  224TIP3    H2  679   5.517   1.211   1.159
  225TIP3   OH2  680   5.624   0.817   1.311
  225TIP3    H1  681   5.677   0.789   1.387
  225TIP3    H2  682   5.535   0.818   1.349
  226TIP3   OH2  683   5.181   1.145   0.881
  226TIP3    H1  684   5.229   1.065   0.909
  226TIP3    H2  685   5.255   1.203   0.856
  227TIP3   OH2  686   5.278   1.414   1.239
  227TIP3    H1  687   5.361   1.418   1.291
  227TIP3    H2  688   5.267   1.318   1.230
  228TIP3   OH2  689   5.735   1.337   1.330
  228TIP3    H1  690   5.827   1.364   1.341
  228TIP3    H2  691   5.723   1.357   1.236
  229TIP3   OH2  692   5.392   0.810   1.484
  229TIP3    H1  693   5.391   0.746   1.557
  229TIP3    H2  694   5.313   0.783   1.433
  230TIP3   OH2  695   5.427   1.120   1.282
  230TIP3    H1  696   5.333   1.094   1.271
  230TIP3    H2  697   5.445   1.088   1.371
  231TIP3   OH2  698   5.289   1.409   0.823
  231TIP3    H1  699   5.198   1.444   0.816
  231TIP3    H2  700   5.317   1.446   0.907
  232TIP3   OH2  701   5.547   1.408   0.725
  232TIP3    H1  702   5.455   1.398   0.755
  232TIP3    H2  703   5.533   1.433   0.631
  233TIP3   OH2  704   1.345   1.321   1.909
  233TIP3    H1  705   1.283   1.362   1.845
  233TIP3    H2  706   1.357   1.393   1.973
  234TIP3   OH2  707   0.769   2.183   1.536
  234TIP3    H1  708   0.686   2.163   1.583
  234TIP3    H2  709   0.746   2.261   1.482
  235TIP3   OH2  710   0.967   2.043   1.878
  235TIP3    H1  711   0.948   1.972   1.813
  235TIP3    H2  712   0.953   2.124   1.824
  236TIP3   OH2  713   1.164   1.703   1.726
  236TIP3    H1  714   1.076   1.745   1.726
  236TIP3    H2  715   1.190   1.716   1.633
  237TIP3   OH2  716   0.861   1.572   2.002
  237TIP3    H1  717   0.849   1.667   2.016
  237TIP3    H2  718   0.767   1.546   1.989
  238TIP3   OH2  719   0.538   2.143   1.675
  238TIP3    H1  720   0.523   2.230   1.720
  238TIP3    H2  721   0.544   2.083   1.752
  239TIP3   OH2  722   0.087   2.066   2.149
  239TIP3    H1  723   0.031   2.116   2.212
  239TIP3    H2  724   0.135   2.007   2.210
  240TIP3   OH2  725  -0.084   2.248   2.294
  240TIP3    H1  726  -0.145   2.220   2.223
  240TIP3    H2  727  -0.135   2.214   2.371
  241TIP3   OH2  728   1.207   2.405   1.919
  241TIP3    H1  729   1.209   2.308   1.932
  241TIP3    H2  730   1.122   2.427   1.965
  242TIP3   OH2  731   0.312   2.179   2.055
  242TIP3    H1  732   0.303   2.267   2.098
  242TIP3    H2  733   0.228   2.136   2.084
  243TIP3   OH2  734   1.081   1.509   2.174
  243TIP3    H1  735   1.030   1.512   2.090
  243TIP3    H2  736   1.112   1.415   2.171
  244TIP3   OH2  737   0.878   1.285   2.100
  244TIP3    H1  738   0.831   1.302   2.183
  244TIP3    H2  739   0.829   1.340   2.037
  245TIP3   OH2  740   0.626   1.553   2.390
  245TIP3    H1  741   0.537   1.545   2.354
  245TIP3    H2  742   0.667   1.468   2.362
  246TIP3   OH2  743   0.911   2.745   2.019
  246TIP3    H1  744   0.908   2.766   1.924
  246TIP3    H2  745   0.995   2.789   2.046
  247TIP3   OH2  746  -0.190   1.863   2.487
  247TIP3    H1  747  -0.136   1.829   2.414
  247TIP3    H2  748  -0.124   1.874   2.557
  248TIP3   OH2  749   0.925   1.847   1.687
  248TIP3    H1  750   0.968   1.897   1.614
  248TIP3    H2  751   0.841   1.822   1.646
  249TIP3   OH2  752   0.425   1.920   2.086
  249TIP3    H1  753   0.379   1.877   2.161
  249TIP3    H2  754   0.392   2.011   2.097
  250TIP3   OH2  755   0.577   2.209   1.961
  250TIP3    H1  756   0.485   2.187   1.987
  250TIP3    H2  757   0.610   2.245   2.046
  251TIP3   OH2  758   1.221   2.122   1.952
  251TIP3    H1  759   1.124   2.105   1.949
  251TIP3    H2  760   1.248   2.084   1.865
  252TIP3   OH2  761   0.136   2.243   1.840
  252TIP3    H1  762   0.155   2.328   1.796
  252TIP3    H2  763   0.199   2.245   1.914
  253TIP3   OH2  764   0.510   1.904   1.828
  253TIP3    H1  765   0.470   1.913   1.917
  253TIP3    H2  766   0.551   1.818   1.837
  254TIP3   OH2  767   0.735   2.430   1.853
  254TIP3    H1  768   0.659   2.369   1.865
  254TIP3    H2  769   0.704   2.484   1.778
  255TIP3   OH2  770   1.144   1.254   2.119
  255TIP3    H1  771   1.046   1.243   2.112
  255TIP3    H2  772   1.170   1.262   2.025
  256TIP3   OH2  773   0.729   2.432   1.406
  256TIP3    H1  774   0.689   2.458   1.321
  256TIP3    H2  775   0.824   2.450   1.388
  257TIP3   OH2  776  -0.429   2.372   2.380
  257TIP3    H1  777  -0.343   2.364   2.424
  257TIP3    H2  778  -0.479   2.426   2.444
  258TIP3   OH2  779   0.016   2.411   2.484
  258TIP3    H1  780   0.107   2.380   2.490
  258TIP3    H2  781  -0.015   2.359   2.407
  259TIP3   OH2  782   0.640   2.312   2.206
  259TIP3    H1  783   0.640   2.241   2.275
  259TIP3    H2  784   0.718   2.364   2.234
  260TIP3   OH2  785   0.771   1.917   2.045
  260TIP3    H1  786   0.835   1.973   1.998
  260TIP3    H2  787   0.687   1.961   2.024
  261TIP3   OH2  788   0.666   1.874   2.412
  261TIP3    H1  789   0.672   1.830   2.326
  261TIP3    H2  790   0.608   1.815   2.460
  262TIP3   OH2  791   0.899   1.771   2.232
  262TIP3    H1  792   0.835   1.824   2.180
  262TIP3    H2  793   0.981   1.806   2.191
  263TIP3   OH2  794   0.489   1.270   2.540
  263TIP3    H1  795   0.480   1.362   2.564
  263TIP3    H2  796   0.449   1.266   2.452
  264TIP3   OH2  797   0.781   1.335   2.354
  264TIP3    H1  798   0.700   1.282   2.340
  264TIP3    H2  799   0.837   1.275   2.407
  265TIP3   OH2  800   1.011   1.206   2.492
  265TIP3    H1  801   1.016   1.110   2.511
  265TIP3    H2  802   0.997   1.244   2.581
  266TIP3   OH2  803   0.550   1.032   2.680
  266TIP3    H1  804   0.489   0.970   2.637
  266TIP3    H2  805   0.510   1.116   2.650
  267TIP3   OH2  806   1.007   2.491   1.414
  267TIP3    H1  807   1.037   2.516   1.503
  267TIP3    H2  808   1.077   2.525   1.357
  268TIP3   OH2  809   1.053   2.522   1.697
  268TIP3    H1  810   1.002   2.439   1.699
  268TIP3    H2  811   1.125   2.496   1.757
  269TIP3   OH2  812   1.085   2.193   2.268
  269TIP3    H1  813   1.016   2.205   2.336
  269TIP3    H2  814   1.131   2.279   2.273
  270TIP3   OH2  815   1.099   1.967   1.512
  270TIP3    H1  816   1.150   1.896   1.469
  270TIP3    H2  817   1.097   2.036   1.442
  271TIP3   OH2  818   0.930   2.278   1.730
  271TIP3    H1  819   0.854   2.320   1.776
  271TIP3    H2  820   0.886   2.239   1.652
  272TIP3   OH2  821   1.121   1.852   2.100
  272TIP3    H1  822   1.193   1.786   2.085
  272TIP3    H2  823   1.130   1.911   2.025
  273TIP3   OH2  824   1.304   1.649   2.100
  273TIP3    H1  825   1.226   1.595   2.126
  273TIP3    H2  826   1.377   1.588   2.122
  274TIP3   OH2  827   1.100   1.472   1.880
  274TIP3    H1  828   1.005   1.494   1.892
  274TIP3    H2  829   1.128   1.543   1.820
  275TIP3   OH2  830   1.523   1.068   2.404
  275TIP3    H1  831   1.586   1.007   2.359
  275TIP3    H2  832   1.485   1.116   2.327
  276TIP3   OH2  833   1.391   1.189   2.203
  276TIP3    H1  834   1.302   1.232   2.203
  276TIP3    H2  835   1.368   1.110   2.150
  277TIP3   OH2  836  -0.259   2.144   2.464
  277TIP3    H1  837  -0.279   2.065   2.412
  277TIP3    H2  838  -0.289   2.116   2.552
  278TIP3   OH2  839   0.304   2.446   2.130
  278TIP3    H1  840   0.348   2.442   2.218
  278TIP3    H2  841   0.369   2.499   2.080
  279TIP3   OH2  842   0.487   2.606   1.999
  279TIP3    H1  843   0.552   2.551   1.953
  279TIP3    H2  844   0.545   2.660   2.056
  280TIP3   OH2  845   1.311   0.952   2.089
  280TIP3    H1  846   1.226   0.931   2.047
  280TIP3    H2  847   1.351   0.862   2.093
  281TIP3   OH2  848   0.219   2.464   1.696
  281TIP3    H1  849   0.202   2.418   1.611
  281TIP3    H2  850   0.224   2.558   1.672
  282TIP3   OH2  851   0.483   2.406   1.740
  282TIP3    H1  852   0.386   2.422   1.744
  282TIP3    H2  853   0.511   2.472   1.675
  283TIP3   OH2  854   0.686   2.592   1.627
  283TIP3    H1  855   0.665   2.677   1.584
  283TIP3    H2  856   0.702   2.535   1.549
  284TIP3   OH2  857   1.036   0.938   2.544
  284TIP3    H1  858   1.045   0.894   2.630
  284TIP3    H2  859   1.108   0.898   2.493
  285TIP3   OH2  860   0.956   2.472   2.016
  285TIP3    H1  861   0.878   2.446   1.963
  285TIP3    H2  862   0.937   2.568   2.028
  286TIP3   OH2  863   2.242   1.862   0.782
  286TIP3    H1  864   2.206   1.952   0.762
  286TIP3    H2  865   2.170   1.807   0.747
  287TIP3   OH2  866   2.230   1.856   1.182
  287TIP3    H1  867   2.278   1.812   1.255
  287TIP3    H2  868   2.218   1.782   1.121
  288TIP3   OH2  869   1.523   1.736   1.538
  288TIP3    H1  870   1.549   1.660   1.593
  288TIP3    H2  871   1.597   1.796   1.552
  289TIP3   OH2  872   2.484   2.160   0.848
  289TIP3    H1  873   2.461   2.089   0.910
  289TIP3    H2  874   2.515   2.231   0.906
  290TIP3   OH2  875   1.506   2.152   1.237
  290TIP3    H1  876   1.496   2.054   1.239
  290TIP3    H2  877   1.603   2.159   1.233
  291TIP3   OH2  878   2.139   2.611   0.867
  291TIP3    H1  879   2.168   2.540   0.806
  291TIP3    H2  880   2.126   2.561   0.948
  292TIP3   OH2  881   2.028   2.073   1.210
  292TIP3    H1  882   2.077   1.992   1.184
  292TIP3    H2  883   2.105   2.128   1.233
  293TIP3   OH2  884   3.057   1.394   1.210
  293TIP3    H1  885   3.082   1.479   1.252
  293TIP3    H2  886   3.063   1.417   1.116
  294TIP3   OH2  887   1.721   1.295   1.193
  294TIP3    H1  888   1.715   1.356   1.116
  294TIP3    H2  889   1.760   1.219   1.145
  295TIP3   OH2  890   2.493   1.328   0.830
  295TIP3    H1  891   2.556   1.319   0.906
  295TIP3    H2  892   2.549   1.375   0.766
  296TIP3   OH2  893   1.427   1.409   1.278
  296TIP3    H1  894   1.436   1.404   1.375
  296TIP3    H2  895   1.519   1.394   1.251
  297TIP3   OH2  896   1.880   1.637   1.124
  297TIP3    H1  897   1.978   1.628   1.125
  297TIP3    H2  898   1.856   1.544   1.132
  298TIP3   OH2  899   3.125   1.611   1.371
  298TIP3    H1  900   3.037   1.650   1.351
  298TIP3    H2  901   3.126   1.624   1.467
  299TIP3   OH2  902   1.762   1.206   1.647
  299TIP3    H1  903   1.708   1.256   1.581
  299TIP3    H2  904   1.713   1.230   1.728
  300TIP3   OH2  905   2.120   2.085   0.683
  300TIP3    H1  906   2.088   2.072   0.592
  300TIP3    H2  907   2.065   2.160   0.710
  301TIP3   OH2  908   1.882   1.998   1.424
  301TIP3    H1  909   1.827   2.074   1.456
  301TIP3    H2  910   1.930   2.038   1.348
  302TIP3   OH2  911   2.669   1.334   1.037
  302TIP3    H1  912   2.604   1.356   1.109
  302TIP3    H2  913   2.725   1.414   1.048
  303TIP3   OH2  914   1.648   1.350   1.449
  303TIP3    H1  915   1.704   1.426   1.474
  303TIP3    H2  916   1.682   1.331   1.359
  304TIP3   OH2  917   1.717   2.200   1.527
  304TIP3    H1  918   1.692   2.290   1.498
  304TIP3    H2  919   1.637   2.179   1.580
  305TIP3   OH2  920   2.538   2.405   1.006
  305TIP3    H1  921   2.448   2.394   1.044
  305TIP3    H2  922   2.530   2.490   0.960
  306TIP3   OH2  923   2.837   1.301   1.382
  306TIP3    H1  924   2.748   1.335   1.360
  306TIP3    H2  925   2.888   1.328   1.304
  307TIP3   OH2  926   2.142   0.943   1.404
  307TIP3    H1  927   2.096   0.894   1.333
  307TIP3    H2  928   2.066   0.988   1.446
  308TIP3   OH2  929   2.233   2.440   0.662
  308TIP3    H1  930   2.284   2.356   0.650
  308TIP3    H2  931   2.301   2.504   0.632
  309TIP3   OH2  932   2.385   2.226   0.599
  309TIP3    H1  933   2.348   2.142   0.568
  309TIP3    H2  934   2.427   2.198   0.683
  310TIP3   OH2  935   2.767   2.301   1.349
  310TIP3    H1  936   2.752   2.225   1.290
  310TIP3    H2  937   2.748   2.377   1.290
  311TIP3   OH2  938   2.073   1.725   0.613
  311TIP3    H1  939   1.991   1.774   0.595
  311TIP3    H2  940   2.118   1.728   0.527
  312TIP3   OH2  941   2.962   1.953   1.203
  312TIP3    H1  942   2.875   1.999   1.204
  312TIP3    H2  943   2.992   1.974   1.112
  313TIP3   OH2  944   2.414   1.784   0.585
  313TIP3    H1  945   2.361   1.810   0.664
  313TIP3    H2  946   2.497   1.755   0.629
  314TIP3   OH2  947   2.643   1.825   1.485
  314TIP3    H1  948   2.632   1.904   1.541
  314TIP3    H2  949   2.559   1.823   1.435
  315TIP3   OH2  950   1.653   1.763   1.018
  315TIP3    H1  951   1.631   1.713   0.938
  315TIP3    H2  952   1.734   1.718   1.050
  316TIP3   OH2  953   1.776   2.194   1.140
  316TIP3    H1  954   1.761   2.171   1.047
  316TIP3    H2  955   1.863   2.151   1.159
  317TIP3   OH2  956   1.771   1.761   1.347
  317TIP3    H1  957   1.818   1.733   1.265
  317TIP3    H2  958   1.815   1.846   1.368
  318TIP3   OH2  959   2.299   2.392   1.131
  318TIP3    H1  960   2.289   2.469   1.189
  318TIP3    H2  961   2.284   2.317   1.192
  319TIP3   OH2  962   1.919   2.307   1.678
  319TIP3    H1  963   1.855   2.365   1.724
  319TIP3    H2  964   1.857   2.253   1.625
  320TIP3   OH2  965   2.244   1.671   0.396
  320TIP3    H1  966   2.306   1.707   0.464
  320TIP3    H2  967   2.308   1.626   0.338
  321TIP3   OH2  968   1.672   1.862   1.785
  321TIP3    H1  969   1.676   1.953   1.821
  321TIP3    H2  970   1.580   1.838   1.807
  322TIP3   OH2  971   1.986   2.330   0.688
  322TIP3    H1  972   2.077   2.365   0.677
  322TIP3    H2  973   1.934   2.395   0.637
  323TIP3   OH2  974   1.708   2.463   1.765
  323TIP3    H1  975   1.675   2.473   1.673
  323TIP3    H2  976   1.625   2.446   1.815
  324TIP3   OH2  977   2.558   2.253  -0.006
  324TIP3    H1  978   2.574   2.348  -0.023
  324TIP3    H2  979   2.649   2.218  -0.009
  325TIP3   OH2  980   1.287   2.008   1.715
  325TIP3    H1  981   1.218   1.990   1.648
  325TIP3    H2  982   1.324   1.920   1.733
  326TIP3   OH2  983   1.142   2.198   1.339
  326TIP3    H1  984   1.238   2.200   1.330
  326TIP3    H2  985   1.126   2.273   1.398
  327TIP3   OH2  986   3.004   2.660   1.405
  327TIP3    H1  987   3.005   2.564   1.422
  327TIP3    H2  988   2.920   2.684   1.451
  328TIP3   OH2  989   2.108   2.437   1.532
  328TIP3    H1  990   2.100   2.530   1.565
  328TIP3    H2  991   2.039   2.393   1.587
  329TIP3   OH2  992   1.889   2.552   0.505
  329TIP3    H1  993   1.849   2.541   0.417
  329TIP3    H2  994   1.854   2.639   0.532
  330TIP3   OH2  995   1.356   2.484   0.889
  330TIP3    H1  996   1.398   2.467   0.976
  330TIP3    H2  997   1.326   2.393   0.867
  331TIP3   OH2  998   2.087   2.464   0.134
  331TIP3    H1  999   2.143   2.409   0.074
  331TIP3    H2 1000   2.143   2.470   0.213
  332TIP3   OH2 1001   2.141   2.523   0.406
  332TIP3    H1 1002   2.053   2.527   0.447
  332TIP3    H2 1003   2.193   2.484   0.479
  333TIP3   OH2 1004   2.894   1.781   1.680
  333TIP3    H1 1005   2.805   1.777   1.642
  333TIP3    H2 1006   2.915   1.686   1.684
  334TIP3   OH2 1007   1.492   2.190   1.686
  334TIP3    H1 1008   1.540   2.176   1.770
  334TIP3    H2 1009   1.416   2.128   1.696
  335TIP3   OH2 1010   1.892   1.019   1.497
  335TIP3    H1 1011   1.826   0.957   1.460
  335TIP3    H2 1012   1.838   1.083   1.549
  336TIP3   OH2 1013   2.435   1.095   1.683
  336TIP3    H1 1014   2.504   1.097   1.752
  336TIP3    H2 1015   2.353   1.105   1.734
  337TIP3   OH2 1016   2.685   1.583   1.625
  337TIP3    H1 1017   2.615   1.555   1.688
  337TIP3    H2 1018   2.636   1.635   1.559
  338TIP3   OH2 1019   2.419   1.614   0.178
  338TIP3    H1 1020   2.347   1.657   0.128
  338TIP3    H2 1021   2.485   1.685   0.180
  339TIP3   OH2 1022   1.827   1.549   1.508
  339TIP3    H1 1023   1.777   1.567   1.590
  339TIP3    H2 1024   1.806   1.629   1.455
  340TIP3   OH2 1025   2.186   1.507   0.746
  340TIP3    H1 1026   2.149   1.588   0.703
  340TIP3    H2 1027   2.252   1.478   0.679
  341TIP3   OH2 1028   2.368   1.770   1.829
  341TIP3    H1 1029   2.346   1.697   1.891
  341TIP3    H2 1030   2.463   1.783   1.851
  342TIP3   OH2 1031   2.326   1.573   0.978
  342TIP3    H1 1032   2.285   1.538   0.896
  342TIP3    H2 1033   2.378   1.497   1.012
  343TIP3   OH2 1034   1.642   1.555   1.715
  343TIP3    H1 1035   1.679   1.608   1.787
  343TIP3    H2 1036   1.622   1.470   1.758
  344TIP3   OH2 1037   2.368   1.715   1.371
  344TIP3    H1 1038   2.412   1.640   1.323
  344TIP3    H2 1039   2.341   1.669   1.452
  345TIP3   OH2 1040   2.107   1.246   1.081
  345TIP3    H1 1041   2.036   1.219   1.140
  345TIP3    H2 1042   2.159   1.305   1.138
  346TIP3   OH2 1043   2.707   3.001   1.508
  346TIP3    H1 1044   2.706   3.025   1.414
  346TIP3    H2 1045   2.790   3.044   1.538
  347TIP3   OH2 1046   1.654   2.112   1.916
  347TIP3    H1 1047   1.734   2.138   1.965
  347TIP3    H2 1048   1.588   2.109   1.988
  348TIP3   OH2 1049   2.133   1.546   1.175
  348TIP3    H1 1050   2.221   1.555   1.134
  348TIP3    H2 1051   2.155   1.516   1.265
  349TIP3   OH2 1052   2.089   1.467   1.468
  349TIP3    H1 1053   2.000   1.507   1.480
  349TIP3    H2 1054   2.148   1.530   1.514
  350TIP3   OH2 1055   1.809   1.822   0.583
  350TIP3    H1 1056   1.799   1.727   0.604
  350TIP3    H2 1057   1.786   1.866   0.668
  351TIP3   OH2 1058   2.722   2.089   1.177
  351TIP3    H1 1059   2.747   2.140   1.097
  351TIP3    H2 1060   2.640   2.044   1.148
  352TIP3   OH2 1061   2.222   2.168   1.561
  352TIP3    H1 1062   2.277   2.161   1.640
  352TIP3    H2 1063   2.188   2.259   1.566
  353TIP3   OH2 1064   2.365   1.410   0.564
  353TIP3    H1 1065   2.458   1.425   0.588
  353TIP3    H2 1066   2.378   1.374   0.473
  354TIP3   OH2 1067   1.518   1.874   1.236
  354TIP3    H1 1068   1.558   1.838   1.155
  354TIP3    H2 1069   1.572   1.829   1.304
  355TIP3   OH2 1070   2.012   2.055   0.433
  355TIP3    H1 1071   1.948   2.128   0.423
  355TIP3    H2 1072   1.971   1.988   0.375
  356TIP3   OH2 1073   1.409   1.790   1.850
  356TIP3    H1 1074   1.420   1.773   1.946
  356TIP3    H2 1075   1.335   1.732   1.828
  357TIP3   OH2 1076   2.136   1.919   1.869
  357TIP3    H1 1077   2.073   1.856   1.832
  357TIP3    H2 1078   2.221   1.879   1.840
  358TIP3   OH2 1079   2.380   2.438   1.455
  358TIP3    H1 1080   2.284   2.436   1.470
  358TIP3    H2 1081   2.409   2.487   1.535
  359TIP3   OH2 1082   2.795   1.509   0.358
  359TIP3    H1 1083   2.746   1.461   0.287
  359TIP3    H2 1084   2.783   1.599   0.322
  360TIP3   OH2 1085   3.016   2.374   1.438
  360TIP3    H1 1086   2.919   2.361   1.431
  360TIP3    H2 1087   3.043   2.340   1.349
  361TIP3   OH2 1088   2.505   2.325   0.268
  361TIP3    H1 1089   2.466   2.260   0.328
  361TIP3    H2 1090   2.506   2.277   0.183
  362TIP3   OH2 1091   2.492   1.956   1.087
  362TIP3    H1 1092   2.399   1.932   1.105
  362TIP3    H2 1093   2.525   1.870   1.052
  363TIP3   OH2 1094   1.614   2.192   0.867
  363TIP3    H1 1095   1.616   2.266   0.803
  363TIP3    H2 1096   1.520   2.186   0.887
  364TIP3   OH2 1097   1.741   1.946   0.819
  364TIP3    H1 1098   1.707   2.037   0.832
  364TIP3    H2 1099   1.718   1.904   0.903
  365TIP3   OH2 1100   1.903   2.519   1.330
  365TIP3    H1 1101   1.946   2.591   1.280
  365TIP3    H2 1102   1.980   2.479   1.375
  366TIP3   OH2 1103   1.551   2.429   0.703
  366TIP3    H1 1104   1.477   2.454   0.761
  366TIP3    H2 1105   1.598   2.515   0.702
  367TIP3   OH2 1106   2.272   2.166   1.292
  367TIP3    H1 1107   2.258   2.161   1.390
  367TIP3    H2 1108   2.347   2.107   1.280
  368TIP3   OH2 1109   2.274   2.076   0.183
  368TIP3    H1 1110   2.325   2.046   0.262
  368TIP3    H2 1111   2.187   2.033   0.199
  369TIP3   OH2 1112   2.527   2.683   1.339
  369TIP3    H1 1113   2.447   2.627   1.339
  369TIP3    H2 1114   2.506   2.745   1.266
  370TIP3   OH2 1115   2.594   2.529  -0.016
  370TIP3    H1 1116   2.640   2.614  -0.032
  370TIP3    H2 1117   2.509   2.564   0.019
  371TIP3   OH2 1118   1.608   1.299   1.851
  371TIP3    H1 1119   1.509   1.298   1.857
  371TIP3    H2 1120   1.630   1.246   1.928
  372TIP3   OH2 1121   2.430   1.981   0.388
  372TIP3    H1 1122   2.414   1.916   0.460
  372TIP3    H2 1123   2.527   1.977   0.383
  373TIP3   OH2 1124   1.332   2.380   1.482
  373TIP3    H1 1125   1.387   2.313   1.527
  373TIP3    H2 1126   1.355   2.460   1.532
  374TIP3   OH2 1127   1.586   2.036   0.484
  374TIP3    H1 1128   1.678   2.028   0.512
  374TIP3    H2 1129   1.574   2.133   0.480
  375TIP3   OH2 1130   2.350   1.140   0.689
  375TIP3    H1 1131   2.290   1.180   0.624
  375TIP3    H2 1132   2.392   1.220   0.728
  376TIP3   OH2 1133   1.817   2.241   0.384
  376TIP3    H1 1134   1.725   2.264   0.407
  376TIP3    H2 1135   1.847   2.324   0.344
  377TIP3   OH2 1136   2.002   1.331   0.840
  377TIP3    H1 1137   2.064   1.400   0.807
  377TIP3    H2 1138   2.047   1.308   0.924
  378TIP3   OH2 1139   2.301   1.605   1.614
  378TIP3    H1 1140   2.322   1.669   1.685
  378TIP3    H2 1141   2.350   1.528   1.645
  379TIP3   OH2 1142   2.273   1.032   0.931
  379TIP3    H1 1143   2.253   1.112   0.981
  379TIP3    H2 1144   2.296   1.070   0.843
  380TIP3   OH2 1145   1.562   2.317   0.458
  380TIP3    H1 1146   1.493   2.373   0.417
  380TIP3    H2 1147   1.568   2.356   0.548
  381TIP3   OH2 1148   2.935   1.500   1.590
  381TIP3    H1 1149   2.841   1.523   1.610
  381TIP3    H2 1150   2.920   1.438   1.516
  382TIP3   OH2 1151   2.573   1.703   0.993
  382TIP3    H1 1152   2.487   1.659   1.007
  382TIP3    H2 1153   2.632   1.646   1.047
  383TIP3   OH2 1154   2.550   2.674   0.925
  383TIP3    H1 1155   2.508   2.723   0.851
  383TIP3    H2 1156   2.645   2.692   0.906
  384TIP3   OH2 1157   1.267   2.231   0.856
  384TIP3    H1 1158   1.204   2.251   0.927
  384TIP3    H2 1159   1.230   2.148   0.823
  385TIP3   OH2 1160   1.331   2.714   1.910
  385TIP3    H1 1161   1.416   2.718   1.960
  385TIP3    H2 1162   1.315   2.618   1.910
  386TIP3   OH2 1163   1.791   2.645   1.953
  386TIP3    H1 1164   1.887   2.633   1.962
  386TIP3    H2 1165   1.771   2.577   1.885
  387TIP3   OH2 1166   2.437   2.565   1.690
  387TIP3    H1 1167   2.435   2.495   1.759
  387TIP3    H2 1168   2.514   2.618   1.718
  388TIP3   OH2 1169   2.264   2.284   0.009
  388TIP3    H1 1170   2.251   2.210   0.072
  388TIP3    H2 1171   2.360   2.277  -0.007
  389TIP3   OH2 1172   1.452   2.107   2.108
  389TIP3    H1 1173   1.458   2.013   2.131
  389TIP3    H2 1174   1.365   2.111   2.064
  390TIP3   OH2 1175   2.056   2.194   1.888
  390TIP3    H1 1176   2.018   2.220   1.801
  390TIP3    H2 1177   2.090   2.104   1.870
  391TIP3   OH2 1178   2.548   2.216   1.496
  391TIP3    H1 1179   2.628   2.249   1.451
  391TIP3    H2 1180   2.484   2.286   1.474
  392TIP3   OH2 1181   1.577   1.834   2.099
  392TIP3    H1 1182   1.661   1.809   2.059
  392TIP3    H2 1183   1.605   1.869   2.186
  393TIP3   OH2 1184   1.904   1.720   1.760
  393TIP3    H1 1185   1.826   1.779   1.759
  393TIP3    H2 1186   1.955   1.752   1.682
  394TIP3   OH2 1187   2.426   2.121   1.881
  394TIP3    H1 1188   2.501   2.079   1.836
  394TIP3    H2 1189   2.415   2.063   1.959
  395TIP3   OH2 1190   2.573   1.794   0.015
  395TIP3    H1 1191   2.494   1.765  -0.032
  395TIP3    H2 1192   2.552   1.887   0.030
  396TIP3   OH2 1193   2.030   1.513   1.878
  396TIP3    H1 1194   2.029   1.436   1.817
  396TIP3    H2 1195   1.986   1.582   1.824
  397TIP3   OH2 1196   2.025   1.301   1.692
  397TIP3    H1 1197   2.055   1.339   1.608
  397TIP3    H2 1198   1.934   1.271   1.670
  398TIP3   OH2 1199   2.047   1.825   1.561
  398TIP3    H1 1200   2.136   1.842   1.528
  398TIP3    H2 1201   1.994   1.892   1.512
  399TIP3   OH2 1202   2.630   1.793   1.931
  399TIP3    H1 1203   2.671   1.705   1.937
  399TIP3    H2 1204   2.703   1.846   1.896
  400TIP3   OH2 1205   2.675   2.056   1.675
  400TIP3    H1 1206   2.620   2.115   1.619
  400TIP3    H2 1207   2.764   2.073   1.638
  401TIP3   OH2 1208   1.910   1.605   2.117
  401TIP3    H1 1209   1.845   1.533   2.135
  401TIP3    H2 1210   1.942   1.581   2.028
  402TIP3   OH2 1211   2.165   1.071   1.780
  402TIP3    H1 1212   2.116   1.149   1.748
  402TIP3    H2 1213   2.101   0.999   1.764
  403TIP3   OH2 1214   2.287   1.553   1.976
  403TIP3    H1 1215   2.267   1.535   2.070
  403TIP3    H2 1216   2.200   1.533   1.937
  404TIP3   OH2 1217   2.523   1.509   1.830
  404TIP3    H1 1218   2.451   1.509   1.897
  404TIP3    H2 1219   2.600   1.480   1.883
  405TIP3   OH2 1220   2.762   1.462   1.977
  405TIP3    H1 1221   2.777   1.366   1.986
  405TIP3    H2 1222   2.756   1.491   2.071
  406TIP3   OH2 1223   1.746   1.388   2.179
  406TIP3    H1 1224   1.745   1.296   2.144
  406TIP3    H2 1225   1.789   1.373   2.266
  407TIP3   OH2 1226   2.249   1.061   2.039
  407TIP3    H1 1227   2.316   0.991   2.025
  407TIP3    H2 1228   2.215   1.069   1.947
  408TIP3   OH2 1229   2.324   1.280   2.182
  408TIP3    H1 1230   2.303   1.206   2.122
  408TIP3    H2 1231   2.245   1.337   2.174
  409TIP3   OH2 1232   1.574   2.552   0.166
  409TIP3    H1 1233   1.653   2.534   0.220
  409TIP3    H2 1234   1.503   2.511   0.218
  410TIP3   OH2 1235   0.968   2.482   0.852
  410TIP3    H1 1236   0.873   2.502   0.868
  410TIP3    H2 1237   0.988   2.423   0.927
  411TIP3   OH2 1238   1.085   2.336   1.084
  411TIP3    H1 1239   1.057   2.281   1.159
  411TIP3    H2 1240   1.132   2.406   1.132
  412TIP3   OH2 1241   2.811   2.753   0.900
  412TIP3    H1 1242   2.837   2.778   0.990
  412TIP3    H2 1243   2.886   2.784   0.846
  413TIP3   OH2 1244   2.837   2.769   1.182
  413TIP3    H1 1245   2.788   2.685   1.178
  413TIP3    H2 1246   2.908   2.742   1.244
  414TIP3   OH2 1247   2.881   2.451   1.752
  414TIP3    H1 1248   2.811   2.464   1.820
  414TIP3    H2 1249   2.926   2.538   1.756
  415TIP3   OH2 1250   2.707   1.955   0.363
  415TIP3    H1 1251   2.768   2.027   0.337
  415TIP3    H2 1252   2.751   1.920   0.443
  416TIP3   OH2 1253   2.827   1.824   0.575
  416TIP3    H1 1254   2.759   1.786   0.635
  416TIP3    H2 1255   2.893   1.860   0.638
  417TIP3   OH2 1256   2.889   2.230   1.001
  417TIP3    H1 1257   2.941   2.157   0.962
  417TIP3    H2 1258   2.889   2.295   0.928
  418TIP3   OH2 1259   2.705   2.524   1.193
  418TIP3    H1 1260   2.633   2.564   1.246
  418TIP3    H2 1261   2.656   2.480   1.120
  419TIP3   OH2 1262   2.757   1.736   0.211
  419TIP3    H1 1263   2.700   1.749   0.132
  419TIP3    H2 1264   2.730   1.812   0.267
  420TIP3   OH2 1265   2.640   1.434   0.146
  420TIP3    H1 1266   2.566   1.496   0.131
  420TIP3    H2 1267   2.632   1.373   0.072
  421TIP3   OH2 1268   2.636   1.690   0.722
  421TIP3    H1 1269   2.643   1.594   0.711
  421TIP3    H2 1270   2.617   1.698   0.819
  422TIP3   OH2 1271   1.265   1.747   1.464
  422TIP3    H1 1272   1.276   1.728   1.370
  422TIP3    H2 1273   1.360   1.755   1.490
  423TIP3   OH2 1274   2.930   2.115   1.577
  423TIP3    H1 1275   2.995   2.044   1.561
  423TIP3    H2 1276   2.950   2.179   1.507
  424TIP3   OH2 1277   3.106   1.905   1.562
  424TIP3    H1 1278   3.030   1.859   1.603
  424TIP3    H2 1279   3.178   1.844   1.588
  425TIP3   OH2 1280   2.645   1.412   0.612
  425TIP3    H1 1281   2.679   1.320   0.620
  425TIP3    H2 1282   2.692   1.440   0.531
  426TIP3   OH2 1283   2.798   1.564   1.097
  426TIP3    H1 1284   2.884   1.595   1.062
  426TIP3    H2 1285   2.801   1.600   1.187
  427TIP3   OH2 1286   2.872   1.722   1.328
  427TIP3    H1 1287   2.795   1.751   1.380
  427TIP3    H2 1288   2.901   1.806   1.286
  428TIP3   OH2 1289   1.481   1.449   2.152
  428TIP3    H1 1290   1.578   1.441   2.157
  428TIP3    H2 1291   1.456   1.358   2.180
  429TIP3   OH2 1292   3.318   1.323   1.887
  429TIP3    H1 1293   3.381   1.262   1.845
  429TIP3    H2 1294   3.283   1.372   1.809
  430TIP3   OH2 1295   2.736   1.148   0.634
  430TIP3    H1 1296   2.788   1.138   0.717
  430TIP3    H2 1297   2.667   1.080   0.651
  431TIP3   OH2 1298   1.294   1.439   1.563
  431TIP3    H1 1299   1.231   1.406   1.498
  431TIP3    H2 1300   1.286   1.535   1.555
  432TIP3   OH2 1301   3.186   1.446   1.685
  432TIP3    H1 1302   3.101   1.492   1.700
  432TIP3    H2 1303   3.152   1.371   1.632
  433TIP3   OH2 1304   2.845   1.171   0.176
  433TIP3    H1 1305   2.882   1.085   0.205
  433TIP3    H2 1306   2.906   1.234   0.218
  434TIP3   OH2 1307   2.392   2.625   0.551
  434TIP3    H1 1308   2.444   2.617   0.469
  434TIP3    H2 1309   2.446   2.686   0.604
  435TIP3   OH2 1310   1.452   1.017   1.841
  435TIP3    H1 1311   1.410   1.000   1.927
  435TIP3    H2 1312   1.386   1.074   1.799
  436TIP3   OH2 1313   1.484   2.434   1.923
  436TIP3    H1 1314   1.388   2.413   1.916
  436TIP3    H2 1315   1.503   2.408   2.014
  437TIP3   OH2 1316   1.675   2.470   1.479
  437TIP3    H1 1317   1.628   2.547   1.441
  437TIP3    H2 1318   1.761   2.481   1.433
  438TIP3   OH2 1319   2.098   2.704   1.612
  438TIP3    H1 1320   2.141   2.697   1.700
  438TIP3    H2 1321   2.165   2.758   1.564
  439TIP3   OH2 1322   2.283   2.864   1.482
  439TIP3    H1 1323   2.351   2.809   1.441
  439TIP3    H2 1324   2.338   2.919   1.542
  440TIP3   OH2 1325   3.087   1.209   1.573
  440TIP3    H1 1326   2.997   1.197   1.538
  440TIP3    H2 1327   3.122   1.117   1.567
  441TIP3   OH2 1328   1.341   2.719   1.506
  441TIP3    H1 1329   1.248   2.748   1.488
  441TIP3    H2 1330   1.362   2.775   1.582
  442TIP3   OH2 1331   1.578   2.700   1.368
  442TIP3    H1 1332   1.489   2.707   1.408
  442TIP3    H2 1333   1.560   2.725   1.275
  443TIP3   OH2 1334   2.003   2.717   1.165
  443TIP3    H1 1335   1.932   2.732   1.101
  443TIP3    H2 1336   2.013   2.806   1.205
  444TIP3   OH2 1337   2.273   2.657   1.220
  444TIP3    H1 1338   2.179   2.675   1.198
  444TIP3    H2 1339   2.319   2.724   1.167
  445TIP3   OH2 1340   2.472   2.845   1.122
  445TIP3    H1 1341   2.462   2.930   1.074
  445TIP3    H2 1342   2.502   2.786   1.050
  446TIP3   OH2 1343   1.249   2.505   1.246
  446TIP3    H1 1344   1.275   2.474   1.335
  446TIP3    H2 1345   1.326   2.469   1.196
  447TIP3   OH2 1346   1.464   2.396   1.124
  447TIP3    H1 1347   1.470   2.306   1.164
  447TIP3    H2 1348   1.558   2.422   1.125
  448TIP3   OH2 1349   1.731   2.469   1.122
  448TIP3    H1 1350   1.755   2.374   1.115
  448TIP3    H2 1351   1.787   2.493   1.199
  449TIP3   OH2 1352   2.805   0.992   1.080
  449TIP3    H1 1353   2.842   1.050   1.011
  449TIP3    H2 1354   2.709   1.018   1.074
  450TIP3   OH2 1355   2.903   1.106   0.848
  450TIP3    H1 1356   2.983   1.056   0.824
  450TIP3    H2 1357   2.937   1.198   0.840
  451TIP3   OH2 1358   2.536   0.997   1.039
  451TIP3    H1 1359   2.449   1.037   1.036
  451TIP3    H2 1360   2.520   0.926   1.106
  452TIP3   OH2 1361   1.837   2.476   0.234
  452TIP3    H1 1362   1.933   2.490   0.212
  452TIP3    H2 1363   1.810   2.442   0.148
  453TIP3   OH2 1364   2.541   2.591   0.318
  453TIP3    H1 1365   2.535   2.493   0.307
  453TIP3    H2 1366   2.492   2.621   0.238
  454TIP3   OH2 1367   1.745   1.117   2.104
  454TIP3    H1 1368   1.709   1.046   2.161
  454TIP3    H2 1369   1.839   1.117   2.133
  455TIP3   OH2 1370   2.000   1.113   2.218
  455TIP3    H1 1371   2.084   1.093   2.174
  455TIP3    H2 1372   1.994   1.041   2.284
  456TIP3   OH2 1373   2.830   1.191   2.008
  456TIP3    H1 1374   2.845   1.160   2.100
  456TIP3    H2 1375   2.920   1.183   1.970
  457TIP3   OH2 1376   2.753   2.728   1.498
  457TIP3    H1 1377   2.674   2.701   1.447
  457TIP3    H2 1378   2.734   2.823   1.513
  458TIP3   OH2 1379   3.997   2.134   0.290
  458TIP3    H1 1380   4.017   2.196   0.217
  458TIP3    H2 1381   3.945   2.069   0.240
  459TIP3   OH2 1382   4.020   2.121   0.664
  459TIP3    H1 1383   4.060   2.083   0.745
  459TIP3    H2 1384   3.989   2.042   0.617
  460TIP3   OH2 1385   3.317   1.988   1.016
  460TIP3    H1 1386   3.345   1.919   1.078
  460TIP3    H2 1387   3.399   2.038   1.005
  461TIP3   OH2 1388   4.358   2.385   0.387
  461TIP3    H1 1389   4.270   2.351   0.368
  461TIP3    H2 1390   4.340   2.475   0.421
  462TIP3   OH2 1391   3.303   2.411   0.727
  462TIP3    H1 1392   3.294   2.314   0.728
  462TIP3    H2 1393   3.399   2.421   0.718
  463TIP3   OH2 1394   3.004   1.608   0.506
  463TIP3    H1 1395   2.959   1.688   0.538
  463TIP3    H2 1396   2.929   1.563   0.462
  464TIP3   OH2 1397   3.059   1.898   0.707
  464TIP3    H1 1398   3.112   1.820   0.735
  464TIP3    H2 1399   3.123   1.949   0.656
  465TIP3   OH2 1400   3.897   2.836   0.342
  465TIP3    H1 1401   3.961   2.772   0.305
  465TIP3    H2 1402   3.908   2.821   0.436
  466TIP3   OH2 1403   3.821   2.336   0.693
  466TIP3    H1 1404   3.869   2.258   0.657
  466TIP3    H2 1405   3.900   2.387   0.722
  467TIP3   OH2 1406   4.842   1.656   0.697
  467TIP3    H1 1407   4.873   1.737   0.742
  467TIP3    H2 1408   4.834   1.688   0.606
  468TIP3   OH2 1409   4.238   1.821   0.722
  468TIP3    H1 1410   4.282   1.735   0.742
  468TIP3    H2 1411   4.202   1.804   0.633
  469TIP3   OH2 1412   3.588   1.489   0.685
  469TIP3    H1 1413   3.566   1.563   0.624
  469TIP3    H2 1414   3.535   1.417   0.644
  470TIP3   OH2 1415   4.265   1.602   0.316
  470TIP3    H1 1416   4.335   1.591   0.385
  470TIP3    H2 1417   4.320   1.635   0.242
  471TIP3   OH2 1418   3.213   1.692   0.800
  471TIP3    H1 1419   3.295   1.674   0.848
  471TIP3    H2 1420   3.228   1.638   0.719
  472TIP3   OH2 1421   3.645   1.890   0.605
  472TIP3    H1 1422   3.741   1.867   0.613
  472TIP3    H2 1423   3.609   1.806   0.569
  473TIP3   OH2 1424   4.917   1.865   0.864
  473TIP3    H1 1425   4.830   1.907   0.846
  473TIP3    H2 1426   4.936   1.899   0.953
  474TIP3   OH2 1427   3.572   1.474   1.128
  474TIP3    H1 1428   3.516   1.512   1.057
  474TIP3    H2 1429   3.515   1.492   1.206
  475TIP3   OH2 1430   3.677   2.252   0.907
  475TIP3    H1 1431   3.623   2.326   0.941
  475TIP3    H2 1432   3.725   2.294   0.832
  476TIP3   OH2 1433   4.453   1.615   0.502
  476TIP3    H1 1434   4.462   1.553   0.575
  476TIP3    H2 1435   4.504   1.692   0.535
  477TIP3   OH2 1436   3.451   1.589   0.905
  477TIP3    H1 1437   3.510   1.663   0.930
  477TIP3    H2 1438   3.503   1.550   0.831
  478TIP3   OH2 1439   3.515   2.456   1.014
  478TIP3    H1 1440   3.489   2.545   0.984
  478TIP3    H2 1441   3.435   2.434   1.067
  479TIP3   OH2 1442   2.896   2.142   0.257
  479TIP3    H1 1443   2.856   2.167   0.171
  479TIP3    H2 1444   2.928   2.229   0.289
  480TIP3   OH2 1445   4.335   2.674   0.501
  480TIP3    H1 1446   4.244   2.659   0.535
  480TIP3    H2 1447   4.323   2.760   0.455
  481TIP3   OH2 1448   4.631   1.549   0.861
  481TIP3    H1 1449   4.544   1.568   0.823
  481TIP3    H2 1450   4.692   1.582   0.792
  482TIP3   OH2 1451   3.918   1.180   0.853
  482TIP3    H1 1452   3.896   1.087   0.873
  482TIP3    H2 1453   3.842   1.225   0.897
  483TIP3   OH2 1454   4.041   2.666   0.179
  483TIP3    H1 1455   4.082   2.585   0.145
  483TIP3    H2 1456   4.087   2.735   0.128
  484TIP3   OH2 1457   4.565   2.553   0.837
  484TIP3    H1 1458   4.548   2.479   0.775
  484TIP3    H2 1459   4.546   2.631   0.780
  485TIP3   OH2 1460   3.863   1.963   0.113
  485TIP3    H1 1461   3.781   2.014   0.103
  485TIP3    H2 1462   3.902   1.975   0.025
  486TIP3   OH2 1463   3.817   1.708  -0.180
  486TIP3    H1 1464   3.890   1.771  -0.159
  486TIP3    H2 1465   3.850   1.627  -0.138
  487TIP3   OH2 1466   4.757   2.211   0.694
  487TIP3    H1 1467   4.670   2.258   0.692
  487TIP3    H2 1468   4.786   2.229   0.601
  488TIP3   OH2 1469   4.194   1.992   0.063
  488TIP3    H1 1470   4.167   2.086   0.056
  488TIP3    H2 1471   4.269   1.999   0.125
  489TIP3   OH2 1472   4.437   2.072   0.993
  489TIP3    H1 1473   4.432   2.156   1.041
  489TIP3    H2 1474   4.353   2.076   0.942
  490TIP3   OH2 1475   3.435   2.028   0.488
  490TIP3    H1 1476   3.401   1.969   0.417
  490TIP3    H2 1477   3.512   1.978   0.522
  491TIP3   OH2 1478   3.565   2.453   0.624
  491TIP3    H1 1479   3.546   2.430   0.532
  491TIP3    H2 1480   3.651   2.409   0.641
  492TIP3   OH2 1481   3.562   2.010   0.841
  492TIP3    H1 1482   3.599   1.977   0.756
  492TIP3    H2 1483   3.611   2.094   0.854
  493TIP3   OH2 1484   4.091   2.645   0.614
  493TIP3    H1 1485   4.081   2.724   0.672
  493TIP3    H2 1486   4.079   2.571   0.677
  494TIP3   OH2 1487   3.715   2.562   1.167
  494TIP3    H1 1488   3.650   2.621   1.212
  494TIP3    H2 1489   3.653   2.509   1.112
  495TIP3   OH2 1490   4.028   1.879  -0.112
  495TIP3    H1 1491   4.085   1.922  -0.043
  495TIP3    H2 1492   4.032   1.950  -0.180
  496TIP3   OH2 1493   3.470   2.110   1.281
  496TIP3    H1 1494   3.474   2.202   1.313
  496TIP3    H2 1495   3.375   2.091   1.295
  497TIP3   OH2 1496   3.752   2.662   0.148
  497TIP3    H1 1497   3.836   2.634   0.189
  497TIP3    H2 1498   3.714   2.578   0.119
  498TIP3   OH2 1499   3.504   2.719   1.253
  498TIP3    H1 1500   3.471   2.730   1.162
  498TIP3    H2 1501   3.422   2.701   1.304
  499TIP3   OH2 1502   3.309   1.875   0.276
  499TIP3    H1 1503   3.234   1.922   0.233
  499TIP3    H2 1504   3.266   1.794   0.307
  500TIP3   OH2 1505   3.084   2.265   1.199
  500TIP3    H1 1506   3.013   2.247   1.134
  500TIP3    H2 1507   3.121   2.177   1.216
  501TIP3   OH2 1508   2.943   2.455   0.823
  501TIP3    H1 1509   3.039   2.448   0.813
  501TIP3    H2 1510   2.936   2.528   0.887
  502TIP3   OH2 1511   4.804   2.918   0.899
  502TIP3    H1 1512   4.800   2.822   0.914
  502TIP3    H2 1513   4.719   2.945   0.939
  503TIP3   OH2 1514   3.904   2.692   1.021
  503TIP3    H1 1515   3.897   2.785   1.052
  503TIP3    H2 1516   3.835   2.649   1.076
  504TIP3   OH2 1517   3.652   2.832  -0.066
  504TIP3    H1 1518   3.626   2.739  -0.052
  504TIP3    H2 1519   3.563   2.873  -0.082
  505TIP3   OH2 1520   3.107   2.666   0.363
  505TIP3    H1 1521   3.153   2.659   0.449
  505TIP3    H2 1522   3.071   2.577   0.352
  506TIP3   OH2 1523   3.922   2.766  -0.133
  506TIP3    H1 1524   3.827   2.780  -0.118
  506TIP3    H2 1525   3.935   2.676  -0.100
  507TIP3   OH2 1526   4.689   2.036   1.165
  507TIP3    H1 1527   4.602   2.044   1.122
  507TIP3    H2 1528   4.706   1.940   1.157
  508TIP3   OH2 1529   3.289   2.446   1.172
  508TIP3    H1 1530   3.336   2.432   1.256
  508TIP3    H2 1531   3.213   2.385   1.181
  509TIP3   OH2 1532   3.685   1.268   0.980
  509TIP3    H1 1533   3.598   1.240   0.946
  509TIP3    H2 1534   3.657   1.347   1.031
  510TIP3   OH2 1535   4.227   1.372   1.169
  510TIP3    H1 1536   4.296   1.351   1.235
  510TIP3    H2 1537   4.144   1.359   1.219
  511TIP3   OH2 1538   4.451   1.813   1.089
  511TIP3    H1 1539   4.400   1.812   1.172
  511TIP3    H2 1540   4.430   1.900   1.051
  512TIP3   OH2 1541   3.808   1.397  -0.040
  512TIP3    H1 1542   3.774   1.364   0.045
  512TIP3    H2 1543   3.790   1.320  -0.097
  513TIP3   OH2 1544   3.620   1.788   0.990
  513TIP3    H1 1545   3.569   1.804   1.073
  513TIP3    H2 1546   3.601   1.871   0.941
  514TIP3   OH2 1547   3.503   1.674   0.507
  514TIP3    H1 1548   3.411   1.648   0.527
  514TIP3    H2 1549   3.512   1.636   0.417
  515TIP3   OH2 1550   3.985   1.758   0.245
  515TIP3    H1 1551   3.945   1.836   0.200
  515TIP3    H2 1552   4.044   1.724   0.176
  516TIP3   OH2 1553   4.166   2.023   1.313
  516TIP3    H1 1554   4.142   1.952   1.376
  516TIP3    H2 1555   4.260   2.037   1.338
  517TIP3   OH2 1556   4.138   1.787   0.473
  517TIP3    H1 1557   4.072   1.812   0.405
  517TIP3    H2 1558   4.178   1.712   0.424
  518TIP3   OH2 1559   3.441   1.810   1.197
  518TIP3    H1 1560   3.465   1.875   1.265
  518TIP3    H2 1561   3.425   1.729   1.250
  519TIP3   OH2 1562   3.450   1.294  -0.068
  519TIP3    H1 1563   3.454   1.301   0.029
  519TIP3    H2 1564   3.427   1.385  -0.091
  520TIP3   OH2 1565   3.040   1.327   0.777
  520TIP3    H1 1566   3.101   1.367   0.843
  520TIP3    H2 1567   3.097   1.319   0.700
  521TIP3   OH2 1568   3.019   1.347   0.313
  521TIP3    H1 1569   3.063   1.384   0.233
  521TIP3    H2 1570   2.956   1.419   0.332
  522TIP3   OH2 1571   4.158   2.018   0.887
  522TIP3    H1 1572   4.194   1.948   0.827
  522TIP3    H2 1573   4.125   1.962   0.961
  523TIP3   OH2 1574   3.845   1.487   0.565
  523TIP3    H1 1575   3.764   1.489   0.619
  523TIP3    H2 1576   3.915   1.492   0.632
  524TIP3   OH2 1577   3.265   1.555   0.566
  524TIP3    H1 1578   3.171   1.562   0.535
  524TIP3    H2 1579   3.289   1.463   0.543
  525TIP3   OH2 1580   3.522   1.549   0.267
  525TIP3    H1 1581   3.618   1.562   0.251
  525TIP3    H2 1582   3.483   1.561   0.178
  526TIP3   OH2 1583   4.327   1.564   0.779
  526TIP3    H1 1584   4.297   1.582   0.871
  526TIP3    H2 1585   4.252   1.510   0.748
  527TIP3   OH2 1586   3.387   1.561   0.031
  527TIP3    H1 1587   3.293   1.585   0.025
  527TIP3    H2 1588   3.428   1.615  -0.041
  528TIP3   OH2 1589   4.505   3.258   0.996
  528TIP3    H1 1590   4.501   3.284   0.902
  528TIP3    H2 1591   4.585   3.306   1.025
  529TIP3   OH2 1592   3.450   2.368   1.402
  529TIP3    H1 1593   3.530   2.395   1.452
  529TIP3    H2 1594   3.384   2.365   1.474
  530TIP3   OH2 1595   3.907   1.817   0.660
  530TIP3    H1 1596   3.988   1.791   0.614
  530TIP3    H2 1597   3.915   1.774   0.747
  531TIP3   OH2 1598   3.420   1.309   0.550
  531TIP3    H1 1599   3.385   1.235   0.606
  531TIP3    H2 1600   3.447   1.261   0.471
  532TIP3   OH2 1601   3.886   1.727   0.949
  532TIP3    H1 1602   3.795   1.761   0.965
  532TIP3    H2 1603   3.942   1.790   1.000
  533TIP3   OH2 1604   3.630   2.095   0.063
  533TIP3    H1 1605   3.555   2.037   0.040
  533TIP3    H2 1606   3.598   2.134   0.148
  534TIP3   OH2 1607   4.515   2.342   0.667
  534TIP3    H1 1608   4.527   2.389   0.582
  534TIP3    H2 1609   4.431   2.294   0.649
  535TIP3   OH2 1610   4.054   1.459  -0.140
  535TIP3    H1 1611   3.967   1.434  -0.102
  535TIP3    H2 1612   4.078   1.536  -0.085
  536TIP3   OH2 1613   4.019   2.426   1.046
  536TIP3    H1 1614   4.068   2.422   1.129
  536TIP3    H2 1615   3.983   2.517   1.047
  537TIP3   OH2 1616   4.137   1.663   0.025
  537TIP3    H1 1617   4.230   1.682   0.048
  537TIP3    H2 1618   4.113   1.742  -0.027
  538TIP3   OH2 1619   3.320   2.135   0.715
  538TIP3    H1 1620   3.359   2.104   0.631
  538TIP3    H2 1621   3.373   2.085   0.780
  539TIP3   OH2 1622   3.722   2.277  -0.120
  539TIP3    H1 1623   3.761   2.350  -0.069
  539TIP3    H2 1624   3.709   2.211  -0.048
  540TIP3   OH2 1625   3.205   2.045   1.334
  540TIP3    H1 1626   3.210   2.027   1.430
  540TIP3    H2 1627   3.132   1.986   1.309
  541TIP3   OH2 1628   3.932   2.173   1.354
  541TIP3    H1 1629   3.865   2.112   1.319
  541TIP3    H2 1630   4.015   2.132   1.322
  542TIP3   OH2 1631   4.177   2.692   0.944
  542TIP3    H1 1632   4.080   2.691   0.956
  542TIP3    H2 1633   4.205   2.743   1.023
  543TIP3   OH2 1634   4.812   2.628   0.928
  543TIP3    H1 1635   4.715   2.617   0.918
  543TIP3    H2 1636   4.840   2.595   0.839
  544TIP3   OH2 1637   4.288   2.193   0.622
  544TIP3    H1 1638   4.192   2.179   0.618
  544TIP3    H2 1639   4.319   2.126   0.557
  545TIP3   OH2 1640   3.430   2.447   0.358
  545TIP3    H1 1641   3.414   2.527   0.303
  545TIP3    H2 1642   3.341   2.410   0.362
  546TIP3   OH2 1643   2.996   1.734   0.074
  546TIP3    H1 1644   3.035   1.823   0.087
  546TIP3    H2 1645   2.916   1.740   0.129
  547TIP3   OH2 1646   3.534   2.199   0.292
  547TIP3    H1 1647   3.507   2.290   0.316
  547TIP3    H2 1648   3.505   2.148   0.369
  548TIP3   OH2 1649   3.699   2.774   0.815
  548TIP3    H1 1650   3.743   2.846   0.765
  548TIP3    H2 1651   3.775   2.734   0.860
  549TIP3   OH2 1652   3.336   2.662   0.207
  549TIP3    H1 1653   3.248   2.676   0.247
  549TIP3    H2 1654   3.370   2.755   0.210
  550TIP3   OH2 1655   4.070   2.419   0.777
  550TIP3    H1 1656   4.060   2.414   0.875
  550TIP3    H2 1657   4.140   2.354   0.761
  551TIP3   OH2 1658   4.325   2.934   0.832
  551TIP3    H1 1659   4.245   2.877   0.831
  551TIP3    H2 1660   4.305   2.996   0.758
  552TIP3   OH2 1661   3.400   1.557   1.332
  552TIP3    H1 1662   3.303   1.567   1.342
  552TIP3    H2 1663   3.424   1.511   1.414
  553TIP3   OH2 1664   3.128   2.636   0.970
  553TIP3    H1 1665   3.186   2.569   1.011
  553TIP3    H2 1666   3.147   2.713   1.024
  554TIP3   OH2 1667   3.335   2.308  -0.024
  554TIP3    H1 1668   3.426   2.277  -0.026
  554TIP3    H2 1669   3.345   2.404  -0.039
  555TIP3   OH2 1670   3.091   1.982   0.144
  555TIP3    H1 1671   3.025   2.035   0.195
  555TIP3    H2 1672   3.109   2.045   0.071
  556TIP3   OH2 1673   4.254   1.617   1.037
  556TIP3    H1 1674   4.334   1.659   1.073
  556TIP3    H2 1675   4.246   1.535   1.091
  557TIP3   OH2 1676   4.116   1.391   0.226
  557TIP3    H1 1677   4.082   1.423   0.142
  557TIP3    H2 1678   4.172   1.467   0.255
  558TIP3   OH2 1679   3.647   2.551  -0.103
  558TIP3    H1 1680   3.549   2.550  -0.101
  558TIP3    H2 1681   3.666   2.503  -0.186
  559TIP3   OH2 1682   3.801   1.562   0.301
  559TIP3    H1 1683   3.863   1.635   0.280
  559TIP3    H2 1684   3.815   1.554   0.398
  560TIP3   OH2 1685   4.087   1.859   1.097
  560TIP3    H1 1686   4.117   1.910   1.175
  560TIP3    H2 1687   4.137   1.775   1.105
  561TIP3   OH2 1688   3.947   1.281   0.404
  561TIP3    H1 1689   3.918   1.361   0.454
  561TIP3    H2 1690   4.012   1.322   0.343
  562TIP3   OH2 1691   3.380   2.591  -0.053
  562TIP3    H1 1692   3.362   2.682  -0.084
  562TIP3    H2 1693   3.361   2.604   0.042
  563TIP3   OH2 1694   3.468   1.284   0.218
  563TIP3    H1 1695   3.465   1.377   0.249
  563TIP3    H2 1696   3.566   1.273   0.215
  564TIP3   OH2 1697   4.716   1.769   1.085
  564TIP3    H1 1698   4.618   1.772   1.093
  564TIP3    H2 1699   4.724   1.713   1.006
  565TIP3   OH2 1700   4.374   1.957   0.474
  565TIP3    H1 1701   4.294   1.903   0.487
  565TIP3    H2 1702   4.441   1.910   0.527
  566TIP3   OH2 1703   3.089   2.187  -0.047
  566TIP3    H1 1704   3.172   2.238  -0.034
  566TIP3    H2 1705   3.120   2.124  -0.115
  567TIP3   OH2 1706   3.055   1.472   0.071
  567TIP3    H1 1707   3.037   1.569   0.068
  567TIP3    H2 1708   2.990   1.438   0.009
  568TIP3   OH2 1709   4.326   2.929   0.405
  568TIP3    H1 1710   4.285   2.991   0.340
  568TIP3    H2 1711   4.420   2.955   0.395
  569TIP3   OH2 1712   3.425   1.187   0.936
  569TIP3    H1 1713   3.394   1.153   0.850
  569TIP3    H2 1714   3.412   1.109   0.994
  570TIP3   OH2 1715   2.953   2.408   0.322
  570TIP3    H1 1716   2.902   2.437   0.399
  570TIP3    H2 1717   2.907   2.455   0.248
  571TIP3   OH2 1718   3.127   2.971   1.394
  571TIP3    H1 1719   3.212   2.975   1.445
  571TIP3    H2 1720   3.111   2.876   1.395
  572TIP3   OH2 1721   3.588   2.900   1.442
  572TIP3    H1 1722   3.684   2.889   1.447
  572TIP3    H2 1723   3.565   2.834   1.374
  573TIP3   OH2 1724   4.230   2.823   1.179
  573TIP3    H1 1725   4.232   2.752   1.248
  573TIP3    H2 1726   4.308   2.877   1.204
  574TIP3   OH2 1727   3.247   2.362   1.595
  574TIP3    H1 1728   3.263   2.266   1.604
  574TIP3    H2 1729   3.160   2.364   1.550
  575TIP3   OH2 1730   3.233   2.010  -0.188
  575TIP3    H1 1731   3.316   1.997  -0.140
  575TIP3    H2 1732   3.251   2.084  -0.249
  576TIP3   OH2 1733   3.854   2.451   1.373
  576TIP3    H1 1734   3.813   2.477   1.288
  576TIP3    H2 1735   3.886   2.360   1.354
  577TIP3   OH2 1736   4.347   2.472   0.989
  577TIP3    H1 1737   4.424   2.505   0.939
  577TIP3    H2 1738   4.280   2.539   0.964
  578TIP3   OH2 1739   3.370   2.107   1.588
  578TIP3    H1 1740   3.447   2.062   1.550
  578TIP3    H2 1741   3.404   2.133   1.677
  579TIP3   OH2 1742   3.431   1.916   0.002
  579TIP3    H1 1743   3.400   1.884   0.088
  579TIP3    H2 1744   3.468   1.837  -0.041
  580TIP3   OH2 1745   3.709   1.978   1.246
  580TIP3    H1 1746   3.627   2.033   1.246
  580TIP3    H2 1747   3.756   2.013   1.166
  581TIP3   OH2 1748   3.540   1.700  -0.149
  581TIP3    H1 1749   3.530   1.692  -0.245
  581TIP3    H2 1750   3.638   1.704  -0.144
  582TIP3   OH2 1751   4.223   2.378   1.370
  582TIP3    H1 1752   4.290   2.331   1.320
  582TIP3    H2 1753   4.210   2.319   1.447
  583TIP3   OH2 1754   3.832   1.769   1.362
  583TIP3    H1 1755   3.830   1.694   1.300
  583TIP3    H2 1756   3.787   1.840   1.310
  584TIP3   OH2 1757   3.832   1.554   1.176
  584TIP3    H1 1758   3.860   1.597   1.092
  584TIP3    H2 1759   3.739   1.532   1.157
  585TIP3   OH2 1760   3.847   2.086   1.045
  585TIP3    H1 1761   3.936   2.113   1.018
  585TIP3    H2 1762   3.791   2.150   0.995
  586TIP3   OH2 1763   4.429   2.050   1.418
  586TIP3    H1 1764   4.477   1.968   1.436
  586TIP3    H2 1765   4.497   2.106   1.379
  587TIP3   OH2 1766   4.472   2.308   1.163
  587TIP3    H1 1767   4.416   2.368   1.108
  587TIP3    H2 1768   4.561   2.330   1.126
  588TIP3   OH2 1769   3.711   1.860   1.604
  588TIP3    H1 1770   3.643   1.792   1.623
  588TIP3    H2 1771   3.738   1.836   1.514
  589TIP3   OH2 1772   3.960   1.312   1.251
  589TIP3    H1 1773   3.912   1.393   1.226
  589TIP3    H2 1774   3.889   1.244   1.241
  590TIP3   OH2 1775   4.086   1.807   1.461
  590TIP3    H1 1776   4.063   1.791   1.554
  590TIP3    H2 1777   3.999   1.789   1.420
  591TIP3   OH2 1778   4.323   1.764   1.319
  591TIP3    H1 1779   4.248   1.765   1.382
  591TIP3    H2 1780   4.398   1.738   1.376
  592TIP3   OH2 1781   4.559   1.716   1.465
  592TIP3    H1 1782   4.573   1.619   1.475
  592TIP3    H2 1783   4.552   1.746   1.558
  593TIP3   OH2 1784   3.546   1.641   1.663
  593TIP3    H1 1785   3.545   1.548   1.632
  593TIP3    H2 1786   3.586   1.631   1.752
  594TIP3   OH2 1787   4.050   1.323   1.511
  594TIP3    H1 1788   4.115   1.251   1.502
  594TIP3    H2 1789   4.010   1.321   1.421
  595TIP3   OH2 1790   4.121   1.536   1.666
  595TIP3    H1 1791   4.098   1.465   1.602
  595TIP3    H2 1792   4.042   1.595   1.660
  596TIP3   OH2 1793   2.822   2.163  -0.011
  596TIP3    H1 1794   2.913   2.197  -0.027
  596TIP3    H2 1795   2.829   2.077  -0.052
  597TIP3   OH2 1796   2.744   2.759   0.400
  597TIP3    H1 1797   2.679   2.698   0.358
  597TIP3    H2 1798   2.788   2.697   0.462
  598TIP3   OH2 1799   2.871   2.597   0.585
  598TIP3    H1 1800   2.861   2.533   0.658
  598TIP3    H2 1801   2.926   2.663   0.630
  599TIP3   OH2 1802   4.571   3.034   0.400
  599TIP3    H1 1803   4.601   3.061   0.489
  599TIP3    H2 1804   4.656   3.026   0.353
  600TIP3   OH2 1805   4.629   3.029   0.673
  600TIP3    H1 1806   4.587   2.941   0.672
  600TIP3    H2 1807   4.714   3.007   0.714
  601TIP3   OH2 1808   4.681   2.706   1.242
  601TIP3    H1 1809   4.609   2.719   1.307
  601TIP3    H2 1810   4.724   2.794   1.243
  602TIP3   OH2 1811   4.660   2.061   0.084
  602TIP3    H1 1812   4.585   2.028   0.139
  602TIP3    H2 1813   4.616   2.131   0.032
  603TIP3   OH2 1814   4.693   2.483   0.495
  603TIP3    H1 1815   4.737   2.407   0.453
  603TIP3    H2 1816   4.682   2.545   0.421
  604TIP3   OH2 1817   4.506   2.780   0.691
  604TIP3    H1 1818   4.435   2.823   0.743
  604TIP3    H2 1819   4.455   2.741   0.616
  605TIP3   OH2 1820   4.434   1.956   0.207
  605TIP3    H1 1821   4.418   1.861   0.194
  605TIP3    H2 1822   4.415   1.969   0.302
  606TIP3   OH2 1823   3.054   2.018   0.954
  606TIP3    H1 1824   3.048   1.978   0.865
  606TIP3    H2 1825   3.152   2.017   0.967
  607TIP3   OH2 1826   4.725   2.371   1.065
  607TIP3    H1 1827   4.792   2.302   1.044
  607TIP3    H2 1828   4.739   2.437   0.996
  608TIP3   OH2 1829   4.902   2.161   1.047
  608TIP3    H1 1830   4.827   2.117   1.093
  608TIP3    H2 1831   4.975   2.100   1.074
  609TIP3   OH2 1832   4.411   1.692   0.099
  609TIP3    H1 1833   4.438   1.598   0.115
  609TIP3    H2 1834   4.482   1.719   0.038
  610TIP3   OH2 1835   4.588   1.825   0.600
  610TIP3    H1 1836   4.671   1.849   0.553
  610TIP3    H2 1837   4.606   1.868   0.686
  611TIP3   OH2 1838   4.666   1.982   0.817
  611TIP3    H1 1839   4.589   2.012   0.868
  611TIP3    H2 1840   4.695   2.066   0.776
  612TIP3   OH2 1841   3.281   1.703   1.633
  612TIP3    H1 1842   3.379   1.698   1.640
  612TIP3    H2 1843   3.257   1.614   1.663
  613TIP3   OH2 1844   5.113   1.582   1.373
  613TIP3    H1 1845   5.174   1.520   1.329
  613TIP3    H2 1846   5.077   1.631   1.295
  614TIP3   OH2 1847   4.470   1.438   0.147
  614TIP3    H1 1848   4.512   1.390   0.220
  614TIP3    H2 1849   4.454   1.368   0.081
  615TIP3   OH2 1850   3.243   1.399   0.947
  615TIP3    H1 1851   3.304   1.323   0.957
  615TIP3    H2 1852   3.305   1.473   0.940
  616TIP3   OH2 1853   3.040   1.664   1.026
  616TIP3    H1 1854   3.090   1.673   0.942
  616TIP3    H2 1855   3.063   1.746   1.072
  617TIP3   OH2 1856   4.974   1.708   1.175
  617TIP3    H1 1857   4.889   1.753   1.194
  617TIP3    H2 1858   4.940   1.632   1.123
  618TIP3   OH2 1859   3.018   1.160   0.512
  618TIP3    H1 1860   2.932   1.171   0.555
  618TIP3    H2 1861   3.020   1.235   0.448
  619TIP3   OH2 1862   4.142   2.912   0.055
  619TIP3    H1 1863   4.143   2.861  -0.029
  619TIP3    H2 1864   4.237   2.908   0.076
  620TIP3   OH2 1865   3.243   1.237   1.335
  620TIP3    H1 1866   3.194   1.243   1.419
  620TIP3    H2 1867   3.183   1.287   1.276
  621TIP3   OH2 1868   3.281   2.688   1.412
  621TIP3    H1 1869   3.186   2.669   1.402
  621TIP3    H2 1870   3.296   2.667   1.505
  622TIP3   OH2 1871   3.472   2.727   0.967
  622TIP3    H1 1872   3.424   2.804   0.929
  622TIP3    H2 1873   3.556   2.738   0.918
  623TIP3   OH2 1874   3.895   2.959   1.098
  623TIP3    H1 1875   3.938   2.954   1.187
  623TIP3    H2 1876   3.961   3.013   1.050
  624TIP3   OH2 1877   4.079   3.118   0.971
  624TIP3    H1 1878   4.148   3.069   0.925
  624TIP3    H2 1879   4.133   3.176   1.029
  625TIP3   OH2 1880   4.874   1.477   1.066
  625TIP3    H1 1881   4.787   1.457   1.029
  625TIP3    H2 1882   4.915   1.387   1.066
  626TIP3   OH2 1883   3.139   2.978   0.994
  626TIP3    H1 1884   3.046   3.004   0.975
  626TIP3    H2 1885   3.158   3.036   1.069
  627TIP3   OH2 1886   3.374   2.956   0.854
  627TIP3    H1 1887   3.285   2.965   0.895
  627TIP3    H2 1888   3.356   2.982   0.762
  628TIP3   OH2 1889   3.802   2.973   0.649
  628TIP3    H1 1890   3.725   2.987   0.591
  628TIP3    H2 1891   3.812   3.061   0.690
  629TIP3   OH2 1892   4.069   2.907   0.707
  629TIP3    H1 1893   3.978   2.933   0.685
  629TIP3    H2 1894   4.121   2.976   0.662
  630TIP3   OH2 1895   4.261   3.089   0.616
  630TIP3    H1 1896   4.243   3.177   0.575
  630TIP3    H2 1897   4.290   3.038   0.538
  631TIP3   OH2 1898   3.049   2.762   0.734
  631TIP3    H1 1899   3.077   2.728   0.822
  631TIP3    H2 1900   3.123   2.724   0.680
  632TIP3   OH2 1901   3.250   2.644   0.599
  632TIP3    H1 1902   3.263   2.559   0.646
  632TIP3    H2 1903   3.343   2.677   0.596
  633TIP3   OH2 1904   3.522   2.729   0.603
  633TIP3    H1 1905   3.546   2.634   0.596
  633TIP3    H2 1906   3.577   2.752   0.681
  634TIP3   OH2 1907   4.104   1.392   0.700
  634TIP3    H1 1908   4.052   1.318   0.737
  634TIP3    H2 1909   4.168   1.345   0.643
  635TIP3   OH2 1910   4.578   1.283   0.606
  635TIP3    H1 1911   4.616   1.323   0.524
  635TIP3    H2 1912   4.483   1.286   0.585
  636TIP3   OH2 1913   4.666   1.391   0.374
  636TIP3    H1 1914   4.691   1.333   0.299
  636TIP3    H2 1915   4.713   1.473   0.347
  637TIP3   OH2 1916   3.333   1.095   0.691
  637TIP3    H1 1917   3.242   1.061   0.705
  637TIP3    H2 1918   3.384   1.011   0.691
  638TIP3   OH2 1919   3.128   0.966   0.359
  638TIP3    H1 1920   3.182   1.018   0.295
  638TIP3    H2 1921   3.099   1.038   0.421
  639TIP3   OH2 1922   3.792   1.113   0.574
  639TIP3    H1 1923   3.839   1.168   0.508
  639TIP3    H2 1924   3.816   1.157   0.656
  640TIP3   OH2 1925   4.302   1.252   0.548
  640TIP3    H1 1926   4.307   1.233   0.452
  640TIP3    H2 1927   4.305   1.162   0.587
  641TIP3   OH2 1928   2.834   2.539   0.118
  641TIP3    H1 1929   2.749   2.504   0.089
  641TIP3    H2 1930   2.823   2.633   0.091
  642TIP3   OH2 1931   3.274   1.094   0.168
  642TIP3    H1 1932   3.276   1.102   0.072
  642TIP3    H2 1933   3.342   1.161   0.194
  643TIP3   OH2 1934   3.740   1.310   0.213
  643TIP3    H1 1935   3.808   1.258   0.258
  643TIP3    H2 1936   3.763   1.400   0.246
  644TIP3   OH2 1937   3.541   1.369   1.586
  644TIP3    H1 1938   3.504   1.299   1.643
  644TIP3    H2 1939   3.634   1.369   1.617
  645TIP3   OH2 1940   3.792   1.370   1.707
  645TIP3    H1 1941   3.878   1.345   1.671
  645TIP3    H2 1942   3.779   1.300   1.774
  646TIP3   OH2 1943   2.912   2.581  -0.193
  646TIP3    H1 1944   2.862   2.635  -0.130
  646TIP3    H2 1945   2.934   2.505  -0.138
  647TIP3   OH2 1946   4.623   1.444   1.492
  647TIP3    H1 1947   4.638   1.414   1.585
  647TIP3    H2 1948   4.714   1.436   1.455
  648TIP3   OH2 1949   4.550   2.985   0.990
  648TIP3    H1 1950   4.472   2.958   0.937
  648TIP3    H2 1951   4.534   3.081   0.998
  649TIP3   OH2 1952   5.127   2.247   0.493
  649TIP3    H1 1953   5.155   2.173   0.550
  649TIP3    H2 1954   5.182   2.319   0.525
  650TIP3   OH2 1955   5.020   2.653   0.296
  650TIP3    H1 1956   5.080   2.581   0.273
  650TIP3    H2 1957   5.040   2.720   0.230
  651TIP3   OH2 1958   4.820   1.859  -0.025
  651TIP3    H1 1959   4.763   1.928   0.015
  651TIP3    H2 1960   4.756   1.796  -0.064
  652TIP3   OH2 1961   4.921   2.189   0.190
  652TIP3    H1 1962   4.944   2.096   0.212
  652TIP3    H2 1963   4.854   2.177   0.121
  653TIP3   OH2 1964   4.992   1.938   0.288
  653TIP3    H1 1965   5.076   1.930   0.336
  653TIP3    H2 1966   5.008   1.876   0.214
  654TIP3   OH2 1967   5.349   1.733   0.613
  654TIP3    H1 1968   5.296   1.777   0.544
  654TIP3    H2 1969   5.295   1.752   0.693
  655TIP3   OH2 1970   5.491   2.514   0.406
  655TIP3    H1 1971   5.411   2.557   0.445
  655TIP3    H2 1972   5.545   2.592   0.391
  656TIP3   OH2 1973   5.241   1.844   0.375
  656TIP3    H1 1974   5.303   1.914   0.406
  656TIP3    H2 1975   5.277   1.825   0.287
  657TIP3   OH2 1976   5.309   2.684   0.518
  657TIP3    H1 1977   5.293   2.776   0.486
  657TIP3    H2 1978   5.224   2.670   0.564
  658TIP3   OH2 1979   5.428   2.250   0.329
  658TIP3    H1 1980   5.382   2.256   0.244
  658TIP3    H2 1981   5.447   2.344   0.347
  659TIP3   OH2 1982   5.512   2.812   0.656
  659TIP3    H1 1983   5.454   2.878   0.702
  659TIP3    H2 1984   5.443   2.758   0.612
  660TIP3   OH2 1985   5.260   2.368   0.758
  660TIP3    H1 1986   5.266   2.459   0.795
  660TIP3    H2 1987   5.168   2.346   0.783
  661TIP3   OH2 1988   5.306   2.973   0.748
  661TIP3    H1 1989   5.278   2.977   0.654
  661TIP3    H2 1990   5.221   2.955   0.793
  662TIP3   OH2 1991   4.880   2.520   0.690
  662TIP3    H1 1992   4.808   2.513   0.623
  662TIP3    H2 1993   4.911   2.429   0.695
  663TIP3   OH2 1994   4.759   2.683   0.301
  663TIP3    H1 1995   4.854   2.656   0.300
  663TIP3    H2 1996   4.769   2.763   0.356
  664TIP3   OH2 1997   5.697   2.937   0.499
  664TIP3    H1 1998   5.697   3.026   0.541
  664TIP3    H2 1999   5.632   2.891   0.557
  665TIP3   OH2 2000   5.082   2.700   0.665
  665TIP3    H1 2001   5.127   2.688   0.750
  665TIP3    H2 2002   5.006   2.638   0.673
  666TIP3   OH2 2003   5.492   1.532   0.484
  666TIP3    H1 2004   5.427   1.514   0.414
  666TIP3    H2 2005   5.446   1.603   0.534
  667TIP3   OH2 2006   5.417   2.025   0.475
  667TIP3    H1 2007   5.364   2.049   0.554
  667TIP3    H2 2008   5.422   2.111   0.426
  668TIP3   OH2 2009   5.243   2.064   0.684
  668TIP3    H1 2010   5.250   2.134   0.750
  668TIP3    H2 2011   5.224   1.985   0.739
  669TIP3   OH2 2012   4.834   1.575   0.260
  669TIP3    H1 2013   4.909   1.604   0.315
  669TIP3    H2 2014   4.864   1.596   0.171
  670TIP3   OH2 2015   5.058   1.776   0.068
  670TIP3    H1 2016   4.974   1.814   0.033
  670TIP3    H2 2017   5.078   1.711   0.000
  671TIP3   OH2 2018   5.249   2.618   0.890
  671TIP3    H1 2019   5.326   2.651   0.939
  671TIP3    H2 2020   5.181   2.620   0.961
  672TIP3   OH2 2021   5.670   2.033   0.171
  672TIP3    H1 2022   5.754   2.002   0.132
  672TIP3    H2 2023   5.683   2.010   0.264
  673TIP3   OH2 2024   5.684   1.992   0.465
  673TIP3    H1 2025   5.586   2.003   0.469
  673TIP3    H2 2026   5.713   2.071   0.512
  674TIP3   OH2 2027   5.808   2.670   0.544
  674TIP3    H1 2028   5.828   2.688   0.636
  674TIP3    H2 2029   5.788   2.758   0.511
  675TIP3   OH2 2030   5.185   2.393   0.224
  675TIP3    H1 2031   5.114   2.407   0.158
  675TIP3    H2 2032   5.145   2.323   0.278
  676TIP3   OH2 2033   5.005   2.289   0.818
  676TIP3    H1 2034   5.002   2.273   0.915
  676TIP3    H2 2035   4.925   2.240   0.791
  677TIP3   OH2 2036   5.714   2.394   0.853
  677TIP3    H1 2037   5.633   2.353   0.815
  677TIP3    H2 2038   5.774   2.316   0.851
  678TIP3   OH2 2039   5.979   2.925   0.432
  678TIP3    H1 2040   5.883   2.930   0.422
  678TIP3    H2 2041   5.989   2.978   0.514
  679TIP3   OH2 2042   5.500   3.003   0.306
  679TIP3    H1 2043   5.518   3.095   0.282
  679TIP3    H2 2044   5.579   2.981   0.360
  680TIP3   OH2 2045   5.194   1.815   0.827
  680TIP3    H1 2046   5.097   1.819   0.840
  680TIP3    H2 2047   5.222   1.765   0.905
  681TIP3   OH2 2048   4.947   2.880   0.493
  681TIP3    H1 2049   4.996   2.809   0.540
  681TIP3    H2 2050   4.973   2.957   0.544
  682TIP3   OH2 2051   4.921   3.223   0.885
  682TIP3    H1 2052   5.009   3.225   0.931
  682TIP3    H2 2053   4.904   3.128   0.882
  683TIP3   OH2 2054   5.391   3.149   0.936
  683TIP3    H1 2055   5.486   3.130   0.934
  683TIP3    H2 2056   5.359   3.087   0.867
  684TIP3   OH2 2057   5.977   3.062   0.670
  684TIP3    H1 2058   5.988   3.004   0.748
  684TIP3    H2 2059   6.061   3.112   0.665
  685TIP3   OH2 2060   5.044   2.618   1.081
  685TIP3    H1 2061   5.057   2.522   1.090
  685TIP3    H2 2062   4.956   2.622   1.037
  686TIP3   OH2 2063   5.645   2.685   0.857
  686TIP3    H1 2064   5.605   2.724   0.776
  686TIP3    H2 2065   5.671   2.596   0.828
  687TIP3   OH2 2066   5.167   2.361   1.077
  687TIP3    H1 2067   5.245   2.321   1.038
  687TIP3    H2 2068   5.200   2.391   1.164
  688TIP3   OH2 2069   5.504   2.248   0.737
  688TIP3    H1 2070   5.418   2.295   0.729
  688TIP3    H2 2071   5.550   2.273   0.653
  689TIP3   OH2 2072   5.608   2.034   0.863
  689TIP3    H1 2073   5.607   1.952   0.809
  689TIP3    H2 2074   5.562   2.098   0.805
  690TIP3   OH2 2075   5.602   1.821   0.688
  690TIP3    H1 2076   5.642   1.852   0.605
  690TIP3    H2 2077   5.515   1.787   0.659
  691TIP3   OH2 2078   5.645   2.315   0.521
  691TIP3    H1 2079   5.724   2.321   0.466
  691TIP3    H2 2080   5.588   2.384   0.481
  692TIP3   OH2 2081   5.509   2.118   1.103
  692TIP3    H1 2082   5.440   2.051   1.121
  692TIP3    H2 2083   5.537   2.092   1.013
  693TIP3   OH2 2084   5.748   1.590   0.758
  693TIP3    H1 2085   5.699   1.674   0.757
  693TIP3    H2 2086   5.676   1.524   0.767
  694TIP3   OH2 2087   5.855   2.157   0.884
  694TIP3    H1 2088   5.913   2.098   0.935
  694TIP3    H2 2089   5.768   2.113   0.895
  695TIP3   OH2 2090   5.340   1.904   1.154
  695TIP3    H1 2091   5.339   1.812   1.119
  695TIP3    H2 2092   5.381   1.887   1.242
  696TIP3   OH2 2093   5.877   1.752   1.083
  696TIP3    H1 2094   5.833   1.666   1.074
  696TIP3    H2 2095   5.806   1.810   1.119
  697TIP3   OH2 2096   4.633   2.841   0.109
  697TIP3    H1 2097   4.648   2.784   0.188
  697TIP3    H2 2098   4.692   2.914   0.133
  698TIP3   OH2 2099   4.858   2.262   0.445
  698TIP3    H1 2100   4.861   2.241   0.349
  698TIP3    H2 2101   4.955   2.262   0.461
  699TIP3   OH2 2102   5.075   1.957   1.111
  699TIP3    H1 2103   5.172   1.952   1.123
  699TIP3    H2 2104   5.049   1.869   1.145
  700TIP3   OH2 2105   5.049   1.640   0.416
  700TIP3    H1 2106   5.090   1.585   0.484
  700TIP3    H2 2107   5.114   1.712   0.404
  701TIP3   OH2 2108   4.833   1.915   0.519
  701TIP3    H1 2109   4.876   1.922   0.432
  701TIP3    H2 2110   4.843   2.005   0.553
  702TIP3   OH2 2111   5.032   1.506   0.825
  702TIP3    H1 2112   4.984   1.500   0.909
  702TIP3    H2 2113   4.966   1.551   0.769
  703TIP3   OH2 2114   5.079   2.936   0.899
  703TIP3    H1 2115   4.983   2.923   0.888
  703TIP3    H2 2116   5.089   2.929   0.994
  704TIP3   OH2 2117   5.284   2.952   0.469
  704TIP3    H1 2118   5.221   3.018   0.431
  704TIP3    H2 2119   5.361   2.968   0.411
  705TIP3   OH2 2120   5.675   3.196   0.601
  705TIP3    H1 2121   5.708   3.202   0.693
  705TIP3    H2 2122   5.747   3.245   0.555
  706TIP3   OH2 2123   5.892   3.335   0.499
  706TIP3    H1 2124   5.982   3.334   0.462
  706TIP3    H2 2125   5.903   3.409   0.561
  707TIP3   OH2 2126   4.916   3.248   0.495
  707TIP3    H1 2127   4.821   3.266   0.474
  707TIP3    H2 2128   4.936   3.323   0.554
  708TIP3   OH2 2129   5.136   3.153   0.360
  708TIP3    H1 2130   5.051   3.182   0.399
  708TIP3    H2 2131   5.130   3.186   0.269
  709TIP3   OH2 2132   4.809   2.987   0.279
  709TIP3    H1 2133   4.874   2.955   0.346
  709TIP3    H2 2134   4.864   3.048   0.224
  710TIP3   OH2 2135   5.333   1.638   1.076
  710TIP3    H1 2136   5.296   1.561   1.124
  710TIP3    H2 2137   5.428   1.629   1.100
  711TIP3   OH2 2138   5.586   1.612   1.194
  711TIP3    H1 2139   5.657   1.558   1.155
  711TIP3    H2 2140   5.556   1.554   1.267
  712TIP3   OH2 2141   0.092   3.380   1.315
  712TIP3    H1 2142   0.120   3.381   1.408
  712TIP3    H2 2143   0.038   3.298   1.313
  713TIP3   OH2 2144   0.352   3.690   1.019
  713TIP3    H1 2145   0.325   3.641   1.098
  713TIP3    H2 2146   0.370   3.778   1.054
  714TIP3   OH2 2147  -0.117   3.609   1.420
  714TIP3    H1 2148  -0.155   3.619   1.330
  714TIP3    H2 2149  -0.022   3.630   1.407
  715TIP3   OH2 2150   0.885   2.958   1.351
  715TIP3    H1 2151   0.919   3.041   1.389
  715TIP3    H2 2152   0.936   2.953   1.267
  716TIP3   OH2 2153   0.301   3.132   1.393
  716TIP3    H1 2154   0.336   3.042   1.408
  716TIP3    H2 2155   0.248   3.120   1.312
  717TIP3   OH2 2156   0.344   2.900   1.063
  717TIP3    H1 2157   0.427   2.851   1.068
  717TIP3    H2 2158   0.290   2.841   1.007
  718TIP3   OH2 2159   0.972   3.171   1.521
  718TIP3    H1 2160   0.909   3.239   1.496
  718TIP3    H2 2161   0.946   3.153   1.613
  719TIP3   OH2 2162  -0.378   2.764   1.784
  719TIP3    H1 2163  -0.462   2.733   1.748
  719TIP3    H2 2164  -0.410   2.803   1.869
  720TIP3   OH2 2165  -0.294   3.569   1.612
  720TIP3    H1 2166  -0.306   3.661   1.637
  720TIP3    H2 2167  -0.232   3.580   1.535
  721TIP3   OH2 2168   0.399   3.943   1.173
  721TIP3    H1 2169   0.307   3.931   1.206
  721TIP3    H2 2170   0.394   4.037   1.146
  722TIP3   OH2 2171   0.669   2.852   1.520
  722TIP3    H1 2172   0.581   2.859   1.479
  722TIP3    H2 2173   0.729   2.881   1.449
  723TIP3   OH2 2174   0.620   3.814   1.455
  723TIP3    H1 2175   0.589   3.781   1.369
  723TIP3    H2 2176   0.606   3.910   1.440
  724TIP3   OH2 2177   0.205   3.318   0.838
  724TIP3    H1 2178   0.185   3.401   0.885
  724TIP3    H2 2179   0.299   3.303   0.862
  725TIP3   OH2 2180   0.473   3.396   1.648
  725TIP3    H1 2181   0.450   3.462   1.716
  725TIP3    H2 2182   0.387   3.387   1.602
  726TIP3   OH2 2183  -0.295   3.304   1.497
  726TIP3    H1 2184  -0.218   3.327   1.444
  726TIP3    H2 2185  -0.325   3.392   1.530
  727TIP3   OH2 2186   0.151   3.944   1.284
  727TIP3    H1 2187   0.141   4.030   1.329
  727TIP3    H2 2188   0.146   3.879   1.357
  728TIP3   OH2 2189   0.846   4.212   1.567
  728TIP3    H1 2190   0.842   4.118   1.587
  728TIP3    H2 2191   0.763   4.242   1.612
  729TIP3   OH2 2192  -0.040   3.995   1.687
  729TIP3    H1 2193  -0.016   4.084   1.718
  729TIP3    H2 2194  -0.137   4.005   1.687
  730TIP3   OH2 2195   0.724   3.337   1.825
  730TIP3    H1 2196   0.633   3.321   1.797
  730TIP3    H2 2197   0.757   3.245   1.827
  731TIP3   OH2 2198   0.275   2.715   1.853
  731TIP3    H1 2199   0.347   2.675   1.906
  731TIP3    H2 2200   0.196   2.676   1.893
  732TIP3   OH2 2201   0.509   3.135   1.765
  732TIP3    H1 2202   0.453   3.121   1.845
  732TIP3    H2 2203   0.458   3.200   1.714
  733TIP3   OH2 2204  -0.322   3.078   1.644
  733TIP3    H1 2205  -0.362   3.118   1.723
  733TIP3    H2 2206  -0.323   3.155   1.584
  734TIP3   OH2 2207   0.221   3.323   1.982
  734TIP3    H1 2208   0.196   3.249   2.041
  734TIP3    H2 2209   0.315   3.334   2.009
  735TIP3   OH2 2210   0.193   3.110   1.144
  735TIP3    H1 2211   0.159   3.149   1.062
  735TIP3    H2 2212   0.241   3.031   1.111
  736TIP3   OH2 2213   0.217   3.329   1.555
  736TIP3    H1 2214   0.249   3.260   1.493
  736TIP3    H2 2215   0.178   3.273   1.625
  737TIP3   OH2 2216   0.372   2.873   1.458
  737TIP3    H1 2217   0.328   2.891   1.544
  737TIP3    H2 2218   0.316   2.801   1.423
  738TIP3   OH2 2219   0.565   4.548   1.660
  738TIP3    H1 2220   0.546   4.585   1.572
  738TIP3    H2 2221   0.638   4.604   1.691
  739TIP3   OH2 2222  -0.040   3.141   1.345
  739TIP3    H1 2223   0.012   3.088   1.282
  739TIP3    H2 2224  -0.046   3.081   1.421
  740TIP3   OH2 2225  -0.059   3.025   1.605
  740TIP3    H1 2226  -0.150   3.054   1.628
  740TIP3    H2 2227  -0.003   3.086   1.657
  741TIP3   OH2 2228   0.089   3.746   1.719
  741TIP3    H1 2229   0.094   3.729   1.815
  741TIP3    H2 2230   0.034   3.827   1.718
  742TIP3   OH2 2231  -0.007   3.465   2.015
  742TIP3    H1 2232  -0.047   3.450   1.926
  742TIP3    H2 2233   0.079   3.419   2.002
  743TIP3   OH2 2234   0.233   3.995   1.591
  743TIP3    H1 2235   0.141   3.980   1.618
  743TIP3    H2 2236   0.268   4.037   1.673
  744TIP3   OH2 2237   0.661   3.023   0.539
  744TIP3    H1 2238   0.610   2.962   0.483
  744TIP3    H2 2239   0.631   3.110   0.504
  745TIP3   OH2 2240   0.865   3.900   1.593
  745TIP3    H1 2241   0.768   3.896   1.598
  745TIP3    H2 2242   0.882   3.854   1.509
  746TIP3   OH2 2243   0.320   3.514   1.247
  746TIP3    H1 2244   0.233   3.473   1.264
  746TIP3    H2 2245   0.369   3.438   1.211
  747TIP3   OH2 2246   0.143   3.707   1.448
  747TIP3    H1 2247   0.138   3.710   1.546
  747TIP3    H2 2248   0.220   3.651   1.432
  748TIP3   OH2 2249   0.382   4.237   1.477
  748TIP3    H1 2250   0.310   4.173   1.491
  748TIP3    H2 2251   0.332   4.319   1.467
  749TIP3   OH2 2252   0.290   2.947   1.715
  749TIP3    H1 2253   0.381   2.968   1.738
  749TIP3    H2 2254   0.276   2.865   1.769
  750TIP3   OH2 2255   0.130   3.168   1.757
  750TIP3    H1 2256   0.162   3.207   1.840
  750TIP3    H2 2257   0.181   3.084   1.753
  751TIP3   OH2 2258   0.764   3.061   1.721
  751TIP3    H1 2259   0.670   3.083   1.739
  751TIP3    H2 2260   0.752   2.980   1.669
  752TIP3   OH2 2261   0.432   3.268   1.149
  752TIP3    H1 2262   0.353   3.215   1.168
  752TIP3    H2 2263   0.494   3.238   1.217
  753TIP3   OH2 2264   0.424   4.216   1.138
  753TIP3    H1 2265   0.358   4.221   1.066
  753TIP3    H2 2266   0.508   4.237   1.093
  754TIP3   OH2 2267   0.303   4.107   1.824
  754TIP3    H1 2268   0.280   4.052   1.902
  754TIP3    H2 2269   0.358   4.176   1.865
  755TIP3   OH2 2270  -0.065   3.732   1.984
  755TIP3    H1 2271  -0.156   3.712   1.960
  755TIP3    H2 2272  -0.031   3.645   2.012
  756TIP3   OH2 2273   0.401   3.759   1.647
  756TIP3    H1 2274   0.459   3.792   1.577
  756TIP3    H2 2275   0.325   3.820   1.639
  757TIP3   OH2 2276  -0.284   3.254   1.893
  757TIP3    H1 2277  -0.310   3.314   1.964
  757TIP3    H2 2278  -0.220   3.309   1.843
  758TIP3   OH2 2279   0.265   3.676   2.041
  758TIP3    H1 2280   0.337   3.635   1.991
  758TIP3    H2 2281   0.255   3.614   2.116
  759TIP3   OH2 2282  -0.120   3.073   2.015
  759TIP3    H1 2283  -0.120   2.989   1.965
  759TIP3    H2 2284  -0.184   3.125   1.962
  760TIP3   OH2 2285  -0.119   2.858   1.829
  760TIP3    H1 2286  -0.086   2.897   1.746
  760TIP3    H2 2287  -0.208   2.827   1.801
  761TIP3   OH2 2288  -0.104   3.419   1.765
  761TIP3    H1 2289  -0.025   3.403   1.712
  761TIP3    H2 2290  -0.160   3.471   1.704
  762TIP3   OH2 2291   0.477   3.348   2.091
  762TIP3    H1 2292   0.514   3.259   2.101
  762TIP3    H2 2293   0.553   3.399   2.059
  763TIP3   OH2 2294   0.503   3.616   1.851
  763TIP3    H1 2295   0.456   3.675   1.787
  763TIP3    H2 2296   0.592   3.615   1.812
  764TIP3   OH2 2297  -0.218   3.202   2.251
  764TIP3    H1 2298  -0.280   3.130   2.279
  764TIP3    H2 2299  -0.185   3.163   2.167
  765TIP3   OH2 2300   0.011   2.630   1.921
  765TIP3    H1 2301  -0.038   2.712   1.897
  765TIP3    H2 2302  -0.031   2.566   1.862
  766TIP3   OH2 2303   0.131   3.108   2.122
  766TIP3    H1 2304   0.107   3.085   2.214
  766TIP3    H2 2305   0.045   3.092   2.078
  767TIP3   OH2 2306   0.374   3.072   1.989
  767TIP3    H1 2307   0.297   3.064   2.048
  767TIP3    H2 2308   0.447   3.036   2.044
  768TIP3   OH2 2309   0.608   3.017   2.130
  768TIP3    H1 2310   0.621   2.919   2.138
  768TIP3    H2 2311   0.601   3.044   2.224
  769TIP3   OH2 2312   0.091   2.620   2.185
  769TIP3    H1 2313   0.156   2.548   2.173
  769TIP3    H2 2314   0.053   2.623   2.094
  770TIP3   OH2 2315   0.176   2.836   2.327
  770TIP3    H1 2316   0.152   2.761   2.269
  770TIP3    H2 2317   0.095   2.891   2.323
  771TIP3   OH2 2318   0.673   4.277   1.044
  771TIP3    H1 2319   0.711   4.339   1.109
  771TIP3    H2 2320   0.680   4.328   0.961
  772TIP3   OH2 2321   0.690   4.328   1.348
  772TIP3    H1 2322   0.637   4.247   1.332
  772TIP3    H2 2323   0.753   4.294   1.413
  773TIP3   OH2 2324   0.728   4.001   1.894
  773TIP3    H1 2325   0.656   4.014   1.959
  773TIP3    H2 2326   0.771   4.089   1.898
  774TIP3   OH2 2327   0.590   3.542   0.516
  774TIP3    H1 2328   0.667   3.586   0.474
  774TIP3    H2 2329   0.628   3.502   0.597
  775TIP3   OH2 2330   0.673   3.395   0.729
  775TIP3    H1 2331   0.598   3.356   0.779
  775TIP3    H2 2332   0.735   3.420   0.800
  776TIP3   OH2 2333   0.730   3.809   1.173
  776TIP3    H1 2334   0.724   3.732   1.116
  776TIP3    H2 2335   0.714   3.881   1.109
  777TIP3   OH2 2336   0.567   4.068   1.369
  777TIP3    H1 2337   0.499   4.127   1.408
  777TIP3    H2 2338   0.520   4.036   1.290
  778TIP3   OH2 2339   0.572   3.265   0.450
  778TIP3    H1 2340   0.475   3.253   0.446
  778TIP3    H2 2341   0.575   3.359   0.476
  779TIP3   OH2 2342   0.481   3.255   0.872
  779TIP3    H1 2343   0.496   3.161   0.847
  779TIP3    H2 2344   0.480   3.251   0.969
  780TIP3   OH2 2345   0.906   3.503   1.690
  780TIP3    H1 2346   0.851   3.443   1.745
  780TIP3    H2 2347   0.995   3.480   1.724
  781TIP3   OH2 2348   0.559   2.994   0.792
  781TIP3    H1 2349   0.628   2.953   0.846
  781TIP3    H2 2350   0.602   2.997   0.704
  782TIP3   OH2 2351   0.649   3.170   1.300
  782TIP3    H1 2352   0.730   3.200   1.250
  782TIP3    H2 2353   0.650   3.075   1.276
  783TIP3   OH2 2354   0.700   3.381   1.473
  783TIP3    H1 2355   0.621   3.379   1.532
  783TIP3    H2 2356   0.681   3.302   1.418
  784TIP3   OH2 2357   1.153   2.883   2.030
  784TIP3    H1 2358   1.218   2.819   1.995
  784TIP3    H2 2359   1.127   2.932   1.949
  785TIP3   OH2 2360   1.023   3.013   1.823
  785TIP3    H1 2361   0.938   3.052   1.849
  785TIP3    H2 2362   0.990   2.934   1.775
  786TIP3   OH2 2363   0.167   4.399   1.577
  786TIP3    H1 2364   0.201   4.357   1.658
  786TIP3    H2 2365   0.129   4.478   1.618
  787TIP3   OH2 2366   0.924   2.761   1.728
  787TIP3    H1 2367   0.837   2.727   1.697
  787TIP3    H2 2368   0.976   2.678   1.723
  788TIP3   OH2 2369   0.104   4.232   1.353
  788TIP3    H1 2370   0.014   4.234   1.387
  788TIP3    H2 2371   0.141   4.310   1.397
  789TIP3   OH2 2372   0.325   4.457   1.240
  789TIP3    H1 2373   0.250   4.454   1.178
  789TIP3    H2 2374   0.364   4.368   1.222
  790TIP3   OH2 2375   3.934   6.440   5.132
  790TIP3    H1 2376   3.846   6.473   5.106
  790TIP3    H2 2377   3.948   6.365   5.072
  791TIP3   OH2 2378  -0.435   2.706   2.343
  791TIP3    H1 2379  -0.463   2.641   2.276
  791TIP3    H2 2380  -0.337   2.696   2.339
  792TIP3   OH2 2381  -0.150   2.669   2.353
  792TIP3    H1 2382  -0.069   2.645   2.304
  792TIP3    H2 2383  -0.150   2.602   2.423
  793TIP3   OH2 2384   0.669   2.747   2.156
  793TIP3    H1 2385   0.684   2.715   2.247
  793TIP3    H2 2386   0.759   2.739   2.118
  794TIP3   OH2 2387   0.596   4.278   1.655
  794TIP3    H1 2388   0.520   4.255   1.597
  794TIP3    H2 2389   0.583   4.375   1.664
  795TIP3   OH2 2390   1.871   3.672   0.408
  795TIP3    H1 2391   1.834   3.758   0.383
  795TIP3    H2 2392   1.800   3.612   0.378
  796TIP3   OH2 2393   1.863   3.667   0.814
  796TIP3    H1 2394   1.910   3.650   0.898
  796TIP3    H2 2395   1.828   3.579   0.793
  797TIP3   OH2 2396   2.118   3.980   0.482
  797TIP3    H1 2397   2.100   3.911   0.548
  797TIP3    H2 2398   2.151   4.053   0.538
  798TIP3   OH2 2399   1.174   3.958   0.906
  798TIP3    H1 2400   1.138   3.883   0.856
  798TIP3    H2 2401   1.259   3.975   0.857
  799TIP3   OH2 2402   0.860   3.193   0.664
  799TIP3    H1 2403   0.791   3.260   0.678
  799TIP3    H2 2404   0.806   3.113   0.659
  800TIP3   OH2 2405   0.905   3.454   0.860
  800TIP3    H1 2406   0.954   3.373   0.889
  800TIP3    H2 2407   0.937   3.463   0.770
  801TIP3   OH2 2408   1.764   4.421   0.497
  801TIP3    H1 2409   1.802   4.346   0.447
  801TIP3    H2 2410   1.755   4.384   0.586
  802TIP3   OH2 2411   1.661   3.878   0.835
  802TIP3    H1 2412   1.714   3.801   0.808
  802TIP3    H2 2413   1.733   3.934   0.869
  803TIP3   OH2 2414   2.685   3.208   0.845
  803TIP3    H1 2415   2.717   3.291   0.886
  803TIP3    H2 2416   2.709   3.222   0.752
  804TIP3   OH2 2417   2.077   3.385   0.869
  804TIP3    H1 2418   2.123   3.302   0.891
  804TIP3    H2 2419   2.042   3.363   0.780
  805TIP3   OH2 2420   1.430   3.045   0.834
  805TIP3    H1 2421   1.408   3.118   0.772
  805TIP3    H2 2422   1.381   2.971   0.791
  806TIP3   OH2 2423   2.118   3.142   0.456
  806TIP3    H1 2424   2.189   3.132   0.524
  806TIP3    H2 2425   2.172   3.174   0.381
  807TIP3   OH2 2426   1.059   3.250   0.952
  807TIP3    H1 2427   1.143   3.222   0.994
  807TIP3    H2 2428   1.061   3.191   0.873
  808TIP3   OH2 2429   1.477   3.444   0.776
  808TIP3    H1 2430   1.572   3.421   0.776
  808TIP3    H2 2431   1.438   3.363   0.735
  809TIP3   OH2 2432   2.761   3.422   1.010
  809TIP3    H1 2433   2.672   3.461   0.998
  809TIP3    H2 2434   2.782   3.453   1.100
  810TIP3   OH2 2435   1.415   3.032   1.277
  810TIP3    H1 2436   1.356   3.062   1.206
  810TIP3    H2 2437   1.358   3.046   1.356
  811TIP3   OH2 2438   1.753   3.887   0.277
  811TIP3    H1 2439   1.712   3.874   0.191
  811TIP3    H2 2440   1.703   3.964   0.311
  812TIP3   OH2 2441   2.306   3.157   0.649
  812TIP3    H1 2442   2.295   3.112   0.734
  812TIP3    H2 2443   2.358   3.236   0.675
  813TIP3   OH2 2444   1.292   3.142   1.055
  813TIP3    H1 2445   1.352   3.216   1.078
  813TIP3    H2 2446   1.342   3.101   0.981
  814TIP3   OH2 2447   0.774   3.706   0.398
  814TIP3    H1 2448   0.780   3.770   0.325
  814TIP3    H2 2449   0.766   3.770   0.473
  815TIP3   OH2 2450   2.175   4.213   0.639
  815TIP3    H1 2451   2.085   4.205   0.679
  815TIP3    H2 2452   2.169   4.302   0.597
  816TIP3   OH2 2453   2.480   3.105   1.011
  816TIP3    H1 2454   2.394   3.130   0.973
  816TIP3    H2 2455   2.542   3.138   0.942
  817TIP3   OH2 2456   1.758   2.739   0.996
  817TIP3    H1 2457   1.744   2.645   1.019
  817TIP3    H2 2458   1.682   2.780   1.043
  818TIP3   OH2 2459   1.871   4.244   0.306
  818TIP3    H1 2460   1.928   4.165   0.289
  818TIP3    H2 2461   1.932   4.315   0.275
  819TIP3   OH2 2462   2.025   4.034   0.229
  819TIP3    H1 2463   1.974   3.953   0.215
  819TIP3    H2 2464   2.072   4.012   0.313
  820TIP3   OH2 2465   2.401   4.115   0.987
  820TIP3    H1 2466   2.388   4.040   0.926
  820TIP3    H2 2467   2.384   4.192   0.928
  821TIP3   OH2 2468   1.699   3.515   0.261
  821TIP3    H1 2469   1.618   3.566   0.240
  821TIP3    H2 2470   1.739   3.503   0.173
  822TIP3   OH2 2471   1.648   3.287  -0.020
  822TIP3    H1 2472   1.720   3.350  -0.000
  822TIP3    H2 2473   1.693   3.202  -0.015
  823TIP3   OH2 2474   2.598   3.767   0.841
  823TIP3    H1 2475   2.513   3.815   0.840
  823TIP3    H2 2476   2.630   3.786   0.750
  824TIP3   OH2 2477   2.045   3.596   0.213
  824TIP3    H1 2478   1.995   3.623   0.293
  824TIP3    H2 2479   2.131   3.571   0.254
  825TIP3   OH2 2480   2.280   3.630   1.151
  825TIP3    H1 2481   2.280   3.712   1.204
  825TIP3    H2 2482   2.198   3.641   1.099
  826TIP3   OH2 2483   1.276   3.597   0.656
  826TIP3    H1 2484   1.241   3.535   0.588
  826TIP3    H2 2485   1.353   3.546   0.689
  827TIP3   OH2 2486   1.406   3.974   0.780
  827TIP3    H1 2487   1.395   3.973   0.684
  827TIP3    H2 2488   1.496   3.934   0.792
  828TIP3   OH2 2489   1.437   3.594   0.998
  828TIP3    H1 2490   1.456   3.543   0.915
  828TIP3    H2 2491   1.527   3.624   1.022
  829TIP3   OH2 2492   1.937   4.203   0.769
  829TIP3    H1 2493   1.925   4.286   0.819
  829TIP3    H2 2494   1.917   4.134   0.836
  830TIP3   OH2 2495   1.548   4.129   1.314
  830TIP3    H1 2496   1.501   4.186   1.378
  830TIP3    H2 2497   1.479   4.121   1.247
  831TIP3   OH2 2498   1.873   3.453   0.050
  831TIP3    H1 2499   1.933   3.511   0.101
  831TIP3    H2 2500   1.899   3.477  -0.042
  832TIP3   OH2 2501   1.627   4.129   0.321
  832TIP3    H1 2502   1.719   4.164   0.321
  832TIP3    H2 2503   1.576   4.210   0.322
  833TIP3   OH2 2504   1.347   4.285   1.409
  833TIP3    H1 2505   1.317   4.302   1.318
  833TIP3    H2 2506   1.262   4.263   1.455
  834TIP3   OH2 2507   2.407   2.696   0.096
  834TIP3    H1 2508   2.323   2.719   0.140
  834TIP3    H2 2509   2.418   2.770   0.033
  835TIP3   OH2 2510   1.173   3.428   0.466
  835TIP3    H1 2511   1.096   3.464   0.416
  835TIP3    H2 2512   1.155   3.333   0.464
  836TIP3   OH2 2513   0.904   3.734   1.361
  836TIP3    H1 2514   0.830   3.782   1.317
  836TIP3    H2 2515   0.949   3.702   1.280
  837TIP3   OH2 2516   0.769   4.033   0.984
  837TIP3    H1 2517   0.859   4.060   1.008
  837TIP3    H2 2518   0.719   4.113   1.014
  838TIP3   OH2 2519   2.641   4.472   1.046
  838TIP3    H1 2520   2.642   4.376   1.064
  838TIP3    H2 2521   2.557   4.498   1.090
  839TIP3   OH2 2522   1.744   4.247   1.170
  839TIP3    H1 2523   1.739   4.340   1.201
  839TIP3    H2 2524   1.677   4.206   1.229
  840TIP3   OH2 2525   1.501   4.355   0.128
  840TIP3    H1 2526   1.409   4.331   0.112
  840TIP3    H2 2527   1.495   4.452   0.144
  841TIP3   OH2 2528   0.926   4.231   0.527
  841TIP3    H1 2529   1.003   4.231   0.586
  841TIP3    H2 2530   0.859   4.200   0.592
  842TIP3   OH2 2531   1.738   4.272  -0.213
  842TIP3    H1 2532   1.742   4.175  -0.210
  842TIP3    H2 2533   1.760   4.294  -0.119
  843TIP3   OH2 2534   1.758   4.307   0.055
  843TIP3    H1 2535   1.664   4.311   0.082
  843TIP3    H2 2536   1.800   4.278   0.138
  844TIP3   OH2 2537   2.532   3.592   1.317
  844TIP3    H1 2538   2.446   3.596   1.273
  844TIP3    H2 2539   2.552   3.496   1.311
  845TIP3   OH2 2540   1.187   3.895   1.300
  845TIP3    H1 2541   1.242   3.914   1.380
  845TIP3    H2 2542   1.101   3.913   1.338
  846TIP3   OH2 2543   1.525   2.824   1.129
  846TIP3    H1 2544   1.438   2.795   1.094
  846TIP3    H2 2545   1.496   2.900   1.183
  847TIP3   OH2 2546   2.068   2.941   1.319
  847TIP3    H1 2547   2.141   2.914   1.379
  847TIP3    H2 2548   1.989   2.919   1.372
  848TIP3   OH2 2549   2.287   3.366   1.233
  848TIP3    H1 2550   2.242   3.367   1.320
  848TIP3    H2 2551   2.273   3.458   1.201
  849TIP3   OH2 2552   1.949   3.537  -0.198
  849TIP3    H1 2553   1.918   3.547  -0.289
  849TIP3    H2 2554   2.030   3.589  -0.198
  850TIP3   OH2 2555   1.693   2.894   0.087
  850TIP3    H1 2556   1.659   2.875   0.177
  850TIP3    H2 2557   1.643   2.830   0.035
  851TIP3   OH2 2558   1.455   3.355   1.140
  851TIP3    H1 2559   1.400   3.360   1.222
  851TIP3    H2 2560   1.439   3.442   1.101
  852TIP3   OH2 2561   1.346   3.236   0.662
  852TIP3    H1 2562   1.255   3.203   0.682
  852TIP3    H2 2563   1.358   3.194   0.573
  853TIP3   OH2 2564   1.834   3.312   0.393
  853TIP3    H1 2565   1.788   3.384   0.345
  853TIP3    H2 2566   1.891   3.274   0.322
  854TIP3   OH2 2567   2.013   3.582   1.463
  854TIP3    H1 2568   1.990   3.510   1.525
  854TIP3    H2 2569   2.107   3.596   1.488
  855TIP3   OH2 2570   1.987   3.331   0.618
  855TIP3    H1 2571   1.921   3.351   0.549
  855TIP3    H2 2572   2.031   3.256   0.572
  856TIP3   OH2 2573   1.296   3.355   1.360
  856TIP3    H1 2574   1.339   3.394   1.437
  856TIP3    H2 2575   1.266   3.269   1.398
  857TIP3   OH2 2576   1.338   2.823   0.090
  857TIP3    H1 2577   1.349   2.819   0.187
  857TIP3    H2 2578   1.255   2.872   0.084
  858TIP3   OH2 2579   0.897   2.968   0.886
  858TIP3    H1 2580   0.939   2.932   0.965
  858TIP3    H2 2581   0.881   2.889   0.831
  859TIP3   OH2 2582   0.859   2.847   0.424
  859TIP3    H1 2583   0.941   2.873   0.379
  859TIP3    H2 2584   0.827   2.931   0.461
  860TIP3   OH2 2585   1.996   3.580   1.036
  860TIP3    H1 2586   2.031   3.511   0.975
  860TIP3    H2 2587   1.968   3.523   1.111
  861TIP3   OH2 2588   1.690   3.051   0.712
  861TIP3    H1 2589   1.612   3.047   0.771
  861TIP3    H2 2590   1.763   3.027   0.773
  862TIP3   OH2 2591   1.115   3.113   0.721
  862TIP3    H1 2592   1.020   3.124   0.696
  862TIP3    H2 2593   1.128   3.017   0.712
  863TIP3   OH2 2594   1.370   3.102   0.429
  863TIP3    H1 2595   1.465   3.114   0.409
  863TIP3    H2 2596   1.326   3.126   0.344
  864TIP3   OH2 2597   2.165   3.129   0.927
  864TIP3    H1 2598   2.132   3.144   1.019
  864TIP3    H2 2599   2.097   3.068   0.894
  865TIP3   OH2 2600   1.228   3.156   0.206
  865TIP3    H1 2601   1.162   3.088   0.184
  865TIP3    H2 2602   1.265   3.181   0.119
  866TIP3   OH2 2603   2.345   4.814   1.144
  866TIP3    H1 2604   2.342   4.843   1.051
  866TIP3    H2 2605   2.427   4.859   1.175
  867TIP3   OH2 2606   1.297   3.946   1.549
  867TIP3    H1 2607   1.377   3.966   1.601
  867TIP3    H2 2608   1.231   3.944   1.620
  868TIP3   OH2 2609   1.746   3.388   0.816
  868TIP3    H1 2610   1.815   3.344   0.764
  868TIP3    H2 2611   1.747   3.336   0.899
  869TIP3   OH2 2612   1.265   2.867   0.695
  869TIP3    H1 2613   1.222   2.802   0.754
  869TIP3    H2 2614   1.286   2.812   0.618
  870TIP3   OH2 2615   1.722   3.292   1.086
  870TIP3    H1 2616   1.631   3.317   1.114
  870TIP3    H2 2617   1.779   3.342   1.147
  871TIP3   OH2 2618   1.469   3.662   0.195
  871TIP3    H1 2619   1.400   3.593   0.184
  871TIP3    H2 2620   1.441   3.700   0.283
  872TIP3   OH2 2621   2.359   3.904   0.813
  872TIP3    H1 2622   2.386   3.955   0.735
  872TIP3    H2 2623   2.276   3.860   0.783
  873TIP3   OH2 2624   1.958   2.968   0.071
  873TIP3    H1 2625   1.864   2.941   0.063
  873TIP3    H2 2626   1.952   3.063   0.088
  874TIP3   OH2 2627   1.842   3.964   1.208
  874TIP3    H1 2628   1.917   3.971   1.270
  874TIP3    H2 2629   1.815   4.057   1.199
  875TIP3   OH2 2630   1.988   3.226   0.176
  875TIP3    H1 2631   2.085   3.227   0.186
  875TIP3    H2 2632   1.971   3.305   0.121
  876TIP3   OH2 2633   1.186   3.672   0.912
  876TIP3    H1 2634   1.183   3.654   0.815
  876TIP3    H2 2635   1.267   3.621   0.933
  877TIP3   OH2 2636   1.620   3.786   0.005
  877TIP3    H1 2637   1.585   3.878   0.014
  877TIP3    H2 2638   1.566   3.738   0.072
  878TIP3   OH2 2639   1.781   3.726   1.497
  878TIP3    H1 2640   1.736   3.643   1.476
  878TIP3    H2 2641   1.874   3.701   1.476
  879TIP3   OH2 2642   2.013   4.240   1.103
  879TIP3    H1 2643   1.917   4.246   1.116
  879TIP3    H2 2644   2.044   4.295   1.178
  880TIP3   OH2 2645   2.417   3.317   0.032
  880TIP3    H1 2646   2.343   3.280  -0.022
  880TIP3    H2 2647   2.422   3.407  -0.009
  881TIP3   OH2 2648   2.651   4.181   1.078
  881TIP3    H1 2649   2.554   4.172   1.068
  881TIP3    H2 2650   2.680   4.150   0.989
  882TIP3   OH2 2651   2.139   4.096  -0.124
  882TIP3    H1 2652   2.098   4.056  -0.045
  882TIP3    H2 2653   2.232   4.071  -0.113
  883TIP3   OH2 2654   2.126   3.769   0.724
  883TIP3    H1 2655   2.034   3.745   0.741
  883TIP3    H2 2656   2.160   3.686   0.686
  884TIP3   OH2 2657   1.269   3.993   0.521
  884TIP3    H1 2658   1.266   4.084   0.483
  884TIP3    H2 2659   1.181   3.964   0.496
  885TIP3   OH2 2660   0.815   3.296   0.246
  885TIP3    H1 2661   0.883   3.365   0.244
  885TIP3    H2 2662   0.790   3.296   0.339
  886TIP3   OH2 2663   1.375   3.752   0.433
  886TIP3    H1 2664   1.353   3.843   0.461
  886TIP3    H2 2665   1.349   3.701   0.512
  887TIP3   OH2 2666   1.537   4.330   0.965
  887TIP3    H1 2667   1.574   4.407   0.915
  887TIP3    H2 2668   1.617   4.297   1.009
  888TIP3   OH2 2669   1.207   4.238   0.413
  888TIP3    H1 2670   1.111   4.245   0.402
  888TIP3    H2 2671   1.238   4.324   0.379
  889TIP3   OH2 2672   1.901   3.974   0.937
  889TIP3    H1 2673   1.891   3.961   1.033
  889TIP3    H2 2674   1.984   3.928   0.919
  890TIP3   OH2 2675   1.896   3.888  -0.174
  890TIP3    H1 2676   1.953   3.853  -0.101
  890TIP3    H2 2677   1.810   3.853  -0.144
  891TIP3   OH2 2678   2.161   4.497   0.971
  891TIP3    H1 2679   2.077   4.448   0.964
  891TIP3    H2 2680   2.149   4.564   0.900
  892TIP3   OH2 2681   1.243   3.113   1.483
  892TIP3    H1 2682   1.146   3.120   1.496
  892TIP3    H2 2683   1.269   3.062   1.562
  893TIP3   OH2 2684   2.058   3.789   0.017
  893TIP3    H1 2685   2.046   3.724   0.090
  893TIP3    H2 2686   2.156   3.792   0.015
  894TIP3   OH2 2687   0.999   4.198   1.119
  894TIP3    H1 2688   1.090   4.181   1.146
  894TIP3    H2 2689   0.985   4.287   1.156
  895TIP3   OH2 2690   1.239   3.910   0.039
  895TIP3    H1 2691   1.285   3.828   0.062
  895TIP3    H2 2692   1.198   3.935   0.124
  896TIP3   OH2 2693   0.963   3.526   0.323
  896TIP3    H1 2694   0.903   3.591   0.365
  896TIP3    H2 2695   0.955   3.557   0.230
  897TIP3   OH2 2696   2.081   3.185   1.186
  897TIP3    H1 2697   2.166   3.226   1.214
  897TIP3    H2 2698   2.079   3.103   1.240
  898TIP3   OH2 2699   1.972   2.923   0.352
  898TIP3    H1 2700   1.965   2.941   0.256
  898TIP3    H2 2701   2.016   3.004   0.384
  899TIP3   OH2 2702   1.535   4.038   0.036
  899TIP3    H1 2703   1.514   4.086   0.118
  899TIP3    H2 2704   1.493   4.094  -0.032
  900TIP3   OH2 2705   1.646   3.119   0.449
  900TIP3    H1 2706   1.712   3.190   0.433
  900TIP3    H2 2707   1.660   3.103   0.545
  901TIP3   OH2 2708   1.918   3.422   1.245
  901TIP3    H1 2709   1.957   3.467   1.323
  901TIP3    H2 2710   1.970   3.339   1.243
  902TIP3   OH2 2711   1.807   2.819   0.545
  902TIP3    H1 2712   1.806   2.896   0.604
  902TIP3    H2 2713   1.871   2.849   0.477
  903TIP3   OH2 2714   1.341   2.836   0.369
  903TIP3    H1 2715   1.335   2.926   0.406
  903TIP3    H2 2716   1.438   2.825   0.366
  904TIP3   OH2 2717   2.554   3.325   1.231
  904TIP3    H1 2718   2.456   3.327   1.237
  904TIP3    H2 2719   2.565   3.261   1.158
  905TIP3   OH2 2720   2.213   3.518   0.621
  905TIP3    H1 2721   2.137   3.459   0.633
  905TIP3    H2 2722   2.283   3.471   0.671
  906TIP3   OH2 2723   2.187   4.481   0.566
  906TIP3    H1 2724   2.145   4.529   0.491
  906TIP3    H2 2725   2.282   4.500   0.548
  907TIP3   OH2 2726   1.258   2.749   1.097
  907TIP3    H1 2727   1.225   2.721   1.009
  907TIP3    H2 2728   1.248   2.667   1.149
  908TIP3   OH2 2729   0.744   3.915   0.564
  908TIP3    H1 2730   0.764   3.986   0.627
  908TIP3    H2 2731   0.756   3.963   0.478
  909TIP3   OH2 2732   0.967   4.532   1.544
  909TIP3    H1 2733   1.052   4.536   1.595
  909TIP3    H2 2734   0.951   4.436   1.545
  910TIP3   OH2 2735   1.430   4.460   1.602
  910TIP3    H1 2736   1.526   4.456   1.604
  910TIP3    H2 2737   1.409   4.395   1.531
  911TIP3   OH2 2738   2.074   4.379   1.329
  911TIP3    H1 2739   2.073   4.309   1.398
  911TIP3    H2 2740   2.152   4.431   1.356
  912TIP3   OH2 2741   1.095   3.912   1.745
  912TIP3    H1 2742   1.120   3.817   1.745
  912TIP3    H2 2743   1.009   3.911   1.697
  913TIP3   OH2 2744   1.173   3.635  -0.048
  913TIP3    H1 2745   1.213   3.590   0.029
  913TIP3    H2 2746   1.180   3.564  -0.115
  914TIP3   OH2 2747   1.692   4.005   1.520
  914TIP3    H1 2748   1.658   4.032   1.433
  914TIP3    H2 2749   1.733   3.919   1.501
  915TIP3   OH2 2750   1.601   3.726  -0.259
  915TIP3    H1 2751   1.606   3.749  -0.164
  915TIP3    H2 2752   1.560   3.639  -0.255
  916TIP3   OH2 2753   2.183   4.027   1.130
  916TIP3    H1 2754   2.264   4.061   1.086
  916TIP3    H2 2755   2.122   4.102   1.113
  917TIP3   OH2 2756   1.206   3.653   1.746
  917TIP3    H1 2757   1.279   3.599   1.715
  917TIP3    H2 2758   1.240   3.684   1.833
  918TIP3   OH2 2759   1.278   3.473   0.153
  918TIP3    H1 2760   1.243   3.435   0.235
  918TIP3    H2 2761   1.302   3.392   0.103
  919TIP3   OH2 2762   1.576   3.547   1.380
  919TIP3    H1 2763   1.527   3.618   1.423
  919TIP3    H2 2764   1.603   3.589   1.295
  920TIP3   OH2 2765   1.376   3.261  -0.004
  920TIP3    H1 2766   1.370   3.219  -0.090
  920TIP3    H2 2767   1.473   3.277   0.001
  921TIP3   OH2 2768   2.060   3.932   1.517
  921TIP3    H1 2769   2.142   3.899   1.480
  921TIP3    H2 2770   2.053   3.877   1.598
  922TIP3   OH2 2771   1.664   3.322   1.515
  922TIP3    H1 2772   1.671   3.242   1.458
  922TIP3    H2 2773   1.635   3.390   1.451
  923TIP3   OH2 2774   1.672   3.115   1.325
  923TIP3    H1 2775   1.703   3.143   1.237
  923TIP3    H2 2776   1.580   3.088   1.307
  924TIP3   OH2 2777   1.684   3.677   1.163
  924TIP3    H1 2778   1.761   3.619   1.154
  924TIP3    H2 2779   1.728   3.764   1.172
  925TIP3   OH2 2780   2.269   3.609   1.573
  925TIP3    H1 2781   2.310   3.526   1.603
  925TIP3    H2 2782   2.345   3.657   1.538
  926TIP3   OH2 2783   2.313   3.866   1.304
  926TIP3    H1 2784   2.256   3.926   1.250
  926TIP3    H2 2785   2.402   3.889   1.269
  927TIP3   OH2 2786   1.537   3.421   1.743
  927TIP3    H1 2787   1.475   3.350   1.769
  927TIP3    H2 2788   1.578   3.383   1.662
  928TIP3   OH2 2789   1.802   2.871   1.403
  928TIP3    H1 2790   1.752   2.951   1.379
  928TIP3    H2 2791   1.735   2.801   1.392
  929TIP3   OH2 2792   1.926   3.370   1.613
  929TIP3    H1 2793   1.919   3.352   1.708
  929TIP3    H2 2794   1.837   3.344   1.584
  930TIP3   OH2 2795   2.164   3.327   1.468
  930TIP3    H1 2796   2.091   3.324   1.533
  930TIP3    H2 2797   2.241   3.297   1.521
  931TIP3   OH2 2798   2.392   3.268   1.610
  931TIP3    H1 2799   2.410   3.172   1.624
  931TIP3    H2 2800   2.388   3.302   1.702
  932TIP3   OH2 2801   1.377   3.205   1.815
  932TIP3    H1 2802   1.374   3.112   1.785
  932TIP3    H2 2803   1.421   3.194   1.902
  933TIP3   OH2 2804   1.889   2.881   1.664
  933TIP3    H1 2805   1.956   2.810   1.657
  933TIP3    H2 2806   1.852   2.879   1.573
  934TIP3   OH2 2807   1.961   3.098   1.814
  934TIP3    H1 2808   1.941   3.022   1.754
  934TIP3    H2 2809   1.878   3.150   1.808
  935TIP3   OH2 2810   0.760   4.139   0.720
  935TIP3    H1 2811   0.746   4.093   0.805
  935TIP3    H2 2812   0.721   4.227   0.739
  936TIP3   OH2 2813   2.448   4.557   0.539
  936TIP3    H1 2814   2.472   4.595   0.626
  936TIP3    H2 2815   2.522   4.586   0.483
  937TIP3   OH2 2816   2.471   4.584   0.822
  937TIP3    H1 2817   2.426   4.497   0.817
  937TIP3    H2 2818   2.544   4.561   0.881
  938TIP3   OH2 2819   2.516   4.266   1.388
  938TIP3    H1 2820   2.448   4.279   1.457
  938TIP3    H2 2821   2.564   4.352   1.393
  939TIP3   OH2 2822   2.328   3.782   0.014
  939TIP3    H1 2823   2.394   3.849  -0.015
  939TIP3    H2 2824   2.377   3.740   0.087
  940TIP3   OH2 2825   2.463   3.645   0.213
  940TIP3    H1 2826   2.396   3.603   0.271
  940TIP3    H2 2827   2.529   3.678   0.277
  941TIP3   OH2 2828   2.526   4.041   0.638
  941TIP3    H1 2829   2.579   3.969   0.598
  941TIP3    H2 2830   2.527   4.110   0.568
  942TIP3   OH2 2831   2.341   4.336   0.830
  942TIP3    H1 2832   2.268   4.379   0.881
  942TIP3    H2 2833   2.292   4.294   0.757
  943TIP3   OH2 2834   2.421   3.542  -0.110
  943TIP3    H1 2835   2.390   3.521  -0.199
  943TIP3    H2 2836   2.382   3.630  -0.092
  944TIP3   OH2 2837   2.230   3.230  -0.138
  944TIP3    H1 2838   2.266   3.268  -0.220
  944TIP3    H2 2839   2.210   3.137  -0.164
  945TIP3   OH2 2840   2.268   3.506   0.350
  945TIP3    H1 2841   2.278   3.410   0.339
  945TIP3    H2 2842   2.254   3.514   0.447
  946TIP3   OH2 2843   0.958   3.585   1.097
  946TIP3    H1 2844   0.895   3.539   1.038
  946TIP3    H2 2845   1.032   3.591   1.034
  947TIP3   OH2 2846   2.567   3.930   1.213
  947TIP3    H1 2847   2.634   3.860   1.196
  947TIP3    H2 2848   2.593   3.999   1.150
  948TIP3   OH2 2849   2.742   3.719   1.198
  948TIP3    H1 2850   2.669   3.673   1.243
  948TIP3    H2 2851   2.817   3.660   1.222
  949TIP3   OH2 2852   2.195   2.963  -0.193
  949TIP3    H1 2853   2.285   2.927  -0.175
  949TIP3    H2 2854   2.144   2.925  -0.120
  950TIP3   OH2 2855   2.272   3.220   0.241
  950TIP3    H1 2856   2.316   3.133   0.252
  950TIP3    H2 2857   2.328   3.257   0.169
  951TIP3   OH2 2858   2.426   3.385   0.742
  951TIP3    H1 2859   2.511   3.405   0.697
  951TIP3    H2 2860   2.446   3.424   0.829
  952TIP3   OH2 2861   2.507   3.538   0.965
  952TIP3    H1 2862   2.434   3.571   1.021
  952TIP3    H2 2863   2.540   3.621   0.924
  953TIP3   OH2 2864   1.115   3.291   1.793
  953TIP3    H1 2865   1.212   3.276   1.793
  953TIP3    H2 2866   1.085   3.201   1.814
  954TIP3   OH2 2867   2.950   3.137   1.520
  954TIP3    H1 2868   3.016   3.074   1.483
  954TIP3    H2 2869   2.920   3.184   1.440
  955TIP3   OH2 2870   2.382   2.971   0.282
  955TIP3    H1 2871   2.426   2.953   0.367
  955TIP3    H2 2872   2.320   2.896   0.278
  956TIP3   OH2 2873   1.073   2.955   1.141
  956TIP3    H1 2874   1.131   2.876   1.137
  956TIP3    H2 2875   1.134   3.022   1.108
  957TIP3   OH2 2876   0.876   3.246   1.170
  957TIP3    H1 2877   0.920   3.199   1.097
  957TIP3    H2 2878   0.923   3.330   1.167
  958TIP3   OH2 2879   2.817   3.264   1.319
  958TIP3    H1 2880   2.734   3.308   1.347
  958TIP3    H2 2881   2.779   3.189   1.269
  959TIP3   OH2 2882   2.458   2.891  -0.103
  959TIP3    H1 2883   2.507   2.869  -0.184
  959TIP3    H2 2884   2.506   2.972  -0.076
  960TIP3   OH2 2885   0.840   2.757   0.713
  960TIP3    H1 2886   0.803   2.670   0.736
  960TIP3    H2 2887   0.851   2.751   0.617
  961TIP3   OH2 2888   2.016   4.437   0.193
  961TIP3    H1 2889   2.067   4.427   0.110
  961TIP3    H2 2890   2.066   4.505   0.241
  962TIP3   OH2 2891   1.084   2.818   1.495
  962TIP3    H1 2892   1.030   2.804   1.574
  962TIP3    H2 2893   1.017   2.849   1.432
  963TIP3   OH2 2894   1.119   4.234   1.548
  963TIP3    H1 2895   1.022   4.225   1.553
  963TIP3    H2 2896   1.144   4.224   1.641
  964TIP3   OH2 2897   1.313   4.282   1.127
  964TIP3    H1 2898   1.268   4.361   1.090
  964TIP3    H2 2899   1.396   4.289   1.075
  965TIP3   OH2 2900   1.737   4.514   1.247
  965TIP3    H1 2901   1.778   4.510   1.336
  965TIP3    H2 2902   1.802   4.569   1.199
  966TIP3   OH2 2903   1.921   4.676   1.122
  966TIP3    H1 2904   1.993   4.627   1.079
  966TIP3    H2 2905   1.973   4.734   1.182
  967TIP3   OH2 2906   2.722   3.020   1.214
  967TIP3    H1 2907   2.634   2.997   1.180
  967TIP3    H2 2908   2.766   2.932   1.208
  968TIP3   OH2 2909   0.985   4.521   1.159
  968TIP3    H1 2910   0.891   4.544   1.141
  968TIP3    H2 2911   1.008   4.595   1.218
  969TIP3   OH2 2912   1.216   4.505   1.007
  969TIP3    H1 2913   1.127   4.514   1.048
  969TIP3    H2 2914   1.198   4.534   0.915
  970TIP3   OH2 2915   1.638   4.529   0.798
  970TIP3    H1 2916   1.573   4.548   0.728
  970TIP3    H2 2917   1.650   4.618   0.837
  971TIP3   OH2 2918   1.908   4.467   0.853
  971TIP3    H1 2919   1.815   4.490   0.837
  971TIP3    H2 2920   1.955   4.539   0.806
  972TIP3   OH2 2921   2.107   4.659   0.758
  972TIP3    H1 2922   2.097   4.745   0.712
  972TIP3    H2 2923   2.137   4.601   0.685
  973TIP3   OH2 2924   0.920   4.329   0.890
  973TIP3    H1 2925   0.931   4.282   0.974
  973TIP3    H2 2926   0.979   4.276   0.832
  974TIP3   OH2 2927   1.105   4.196   0.742
  974TIP3    H1 2928   1.129   4.119   0.795
  974TIP3    H2 2929   1.190   4.244   0.737
  975TIP3   OH2 2930   1.363   4.292   0.756
  975TIP3    H1 2931   1.405   4.209   0.730
  975TIP3    H2 2932   1.413   4.312   0.838
  976TIP3   OH2 2933   1.917   2.935   0.830
  976TIP3    H1 2934   1.886   2.861   0.884
  976TIP3    H2 2935   1.998   2.899   0.788
  977TIP3   OH2 2936   2.437   2.834   0.737
  977TIP3    H1 2937   2.473   2.880   0.658
  977TIP3    H2 2938   2.342   2.851   0.728
  978TIP3   OH2 2939   2.540   2.920   0.500
  978TIP3    H1 2940   2.616   2.867   0.467
  978TIP3    H2 2941   2.576   3.011   0.487
  979TIP3   OH2 2942   1.164   2.673   0.850
  979TIP3    H1 2943   1.082   2.619   0.842
  979TIP3    H2 2944   1.232   2.602   0.848
  980TIP3   OH2 2945   1.643   2.682   0.726
  980TIP3    H1 2946   1.695   2.731   0.660
  980TIP3    H2 2947   1.673   2.720   0.810
  981TIP3   OH2 2948   2.152   2.830   0.712
  981TIP3    H1 2949   2.167   2.784   0.629
  981TIP3    H2 2950   2.149   2.754   0.775
  982TIP3   OH2 2951   2.202   2.760   0.279
  982TIP3    H1 2952   2.113   2.798   0.291
  982TIP3    H2 2953   2.190   2.673   0.323
  983TIP3   OH2 2954   1.612   2.866   0.353
  983TIP3    H1 2955   1.674   2.826   0.417
  983TIP3    H2 2956   1.625   2.961   0.375
  984TIP3   OH2 2957   2.153   4.378  -0.048
  984TIP3    H1 2958   2.142   4.285  -0.075
  984TIP3    H2 2959   2.147   4.423  -0.135
  985TIP3   OH2 2960   1.381   2.934   1.742
  985TIP3    H1 2961   1.347   2.860   1.798
  985TIP3    H2 2962   1.475   2.933   1.770
  986TIP3   OH2 2963   1.634   2.930   1.856
  986TIP3    H1 2964   1.720   2.905   1.817
  986TIP3    H2 2965   1.623   2.860   1.924
  987TIP3   OH2 2966   2.463   3.001   1.643
  987TIP3    H1 2967   2.479   2.970   1.735
  987TIP3    H2 2968   2.554   2.994   1.606
  988TIP3   OH2 2969   2.388   4.542   1.135
  988TIP3    H1 2970   2.309   4.516   1.083
  988TIP3    H2 2971   2.371   4.637   1.148
  989TIP3   OH2 2972   3.644   3.930   0.284
  989TIP3    H1 2973   3.664   3.865   0.353
  989TIP3    H2 2974   3.619   3.873   0.210
  990TIP3   OH2 2975   2.955   3.807   0.652
  990TIP3    H1 2976   2.991   3.735   0.706
  990TIP3    H2 2977   3.026   3.872   0.660
  991TIP3   OH2 2978   2.931   4.233   0.371
  991TIP3    H1 2979   2.921   4.135   0.374
  991TIP3    H2 2980   3.025   4.241   0.390
  992TIP3   OH2 2981   2.644   3.429   0.135
  992TIP3    H1 2982   2.592   3.508   0.159
  992TIP3    H2 2983   2.571   3.371   0.105
  993TIP3   OH2 2984   2.698   3.712   0.341
  993TIP3    H1 2985   2.752   3.634   0.366
  993TIP3    H2 2986   2.750   3.751   0.269
  994TIP3   OH2 2987   3.468   4.147   0.342
  994TIP3    H1 2988   3.513   4.066   0.311
  994TIP3    H2 2989   3.548   4.199   0.364
  995TIP3   OH2 2990   4.428   3.479   0.372
  995TIP3    H1 2991   4.472   3.555   0.416
  995TIP3    H2 2992   4.476   3.477   0.286
  996TIP3   OH2 2993   3.851   3.653   0.394
  996TIP3    H1 2994   3.913   3.579   0.410
  996TIP3    H2 2995   3.834   3.640   0.298
  997TIP3   OH2 2996   3.217   3.293   0.334
  997TIP3    H1 2997   3.203   3.368   0.272
  997TIP3    H2 2998   3.176   3.220   0.282
  998TIP3   OH2 2999   2.850   3.502   0.431
  998TIP3    H1 3000   2.932   3.485   0.480
  998TIP3    H2 3001   2.867   3.449   0.350
  999TIP3   OH2 3002   3.296   3.712   0.244
  999TIP3    H1 3003   3.390   3.685   0.252
  999TIP3    H2 3004   3.254   3.628   0.215
 1000TIP3   OH2 3005   4.527   3.686   0.513
 1000TIP3    H1 3006   4.454   3.744   0.538
 1000TIP3    H2 3007   4.601   3.720   0.568
 1001TIP3   OH2 3008   3.203   3.282   0.768
 1001TIP3    H1 3009   3.149   3.323   0.697
 1001TIP3    H2 3010   3.145   3.299   0.846
 1002TIP3   OH2 3011   3.311   4.054   0.558
 1002TIP3    H1 3012   3.259   4.129   0.593
 1002TIP3    H2 3013   3.372   4.099   0.496
 1003TIP3   OH2 3014   4.078   3.332   0.124
 1003TIP3    H1 3015   4.084   3.360   0.217
 1003TIP3    H2 3016   4.137   3.399   0.082
 1004TIP3   OH2 3017   3.083   3.401   0.547
 1004TIP3    H1 3018   3.149   3.470   0.573
 1004TIP3    H2 3019   3.133   3.358   0.473
 1005TIP3   OH2 3020   3.148   4.265   0.650
 1005TIP3    H1 3021   3.127   4.357   0.625
 1005TIP3    H2 3022   3.068   4.245   0.703
 1006TIP3   OH2 3023   2.506   3.967  -0.076
 1006TIP3    H1 3024   2.554   3.956  -0.159
 1006TIP3    H2 3025   2.530   4.059  -0.049
 1007TIP3   OH2 3026   4.232   3.337   0.509
 1007TIP3    H1 3027   4.144   3.365   0.478
 1007TIP3    H2 3028   4.292   3.394   0.456
 1008TIP3   OH2 3029   3.563   3.001   0.494
 1008TIP3    H1 3030   3.540   2.906   0.500
 1008TIP3    H2 3031   3.481   3.040   0.532
 1009TIP3   OH2 3032   4.212   4.366   0.481
 1009TIP3    H1 3033   4.197   4.290   0.420
 1009TIP3    H2 3034   4.183   4.441   0.423
 1010TIP3   OH2 3035   4.385   4.000   0.350
 1010TIP3    H1 3036   4.322   4.075   0.359
 1010TIP3    H2 3037   4.367   3.979   0.255
 1011TIP3   OH2 3038   4.038   3.913   0.617
 1011TIP3    H1 3039   4.056   3.965   0.698
 1011TIP3    H2 3040   4.035   3.985   0.552
 1012TIP3   OH2 3041   3.063   3.859   0.161
 1012TIP3    H1 3042   3.014   3.808   0.093
 1012TIP3    H2 3043   3.148   3.813   0.162
 1013TIP3   OH2 3044   3.217   4.233   0.250
 1013TIP3    H1 3045   3.184   4.142   0.253
 1013TIP3    H2 3046   3.309   4.219   0.281
 1014TIP3   OH2 3047   3.221   3.805   0.490
 1014TIP3    H1 3048   3.245   3.782   0.397
 1014TIP3    H2 3049   3.257   3.896   0.498
 1015TIP3   OH2 3050   3.668   4.452   0.259
 1015TIP3    H1 3051   3.738   4.514   0.281
 1015TIP3    H2 3052   3.693   4.375   0.314
 1016TIP3   OH2 3053   3.352   4.378   0.796
 1016TIP3    H1 3054   3.290   4.436   0.846
 1016TIP3    H2 3055   3.289   4.323   0.746
 1017TIP3   OH2 3056   3.114   3.923   0.916
 1017TIP3    H1 3057   3.118   4.015   0.949
 1017TIP3    H2 3058   3.019   3.904   0.934
 1018TIP3   OH2 3059   3.143   4.531   0.890
 1018TIP3    H1 3060   3.107   4.543   0.801
 1018TIP3    H2 3061   3.061   4.515   0.943
 1019TIP3   OH2 3062   2.925   3.694  -0.011
 1019TIP3    H1 3063   2.952   3.689  -0.105
 1019TIP3    H2 3064   2.856   3.627  -0.005
 1020TIP3   OH2 3065   2.721   4.076   0.838
 1020TIP3    H1 3066   2.651   4.059   0.771
 1020TIP3    H2 3067   2.759   3.987   0.852
 1021TIP3   OH2 3068   2.574   4.266   0.470
 1021TIP3    H1 3069   2.671   4.263   0.461
 1021TIP3    H2 3070   2.562   4.341   0.529
 1022TIP3   OH2 3071   4.449   4.721   0.596
 1022TIP3    H1 3072   4.441   4.628   0.569
 1022TIP3    H2 3073   4.354   4.747   0.599
 1023TIP3   OH2 3074   3.539   4.510   0.651
 1023TIP3    H1 3075   3.535   4.600   0.688
 1023TIP3    H2 3076   3.471   4.465   0.707
 1024TIP3   OH2 3077   1.520   3.135   6.223
 1024TIP3    H1 3078   1.568   3.140   6.308
 1024TIP3    H2 3079   1.486   3.227   6.218
 1025TIP3   OH2 3080   4.344   3.836   0.814
 1025TIP3    H1 3081   4.290   3.828   0.734
 1025TIP3    H2 3082   4.363   3.742   0.832
 1026TIP3   OH2 3083   2.923   4.260   0.808
 1026TIP3    H1 3084   2.972   4.247   0.891
 1026TIP3    H2 3085   2.849   4.197   0.819
 1027TIP3   OH2 3086   3.324   3.084   0.616
 1027TIP3    H1 3087   3.240   3.053   0.576
 1027TIP3    H2 3088   3.288   3.156   0.672
 1028TIP3   OH2 3089   3.863   3.192   0.808
 1028TIP3    H1 3090   3.938   3.169   0.868
 1028TIP3    H2 3091   3.785   3.172   0.864
 1029TIP3   OH2 3092   4.073   3.629   0.706
 1029TIP3    H1 3093   4.038   3.620   0.798
 1029TIP3    H2 3094   4.048   3.719   0.682
 1030TIP3   OH2 3095   3.262   3.584   0.639
 1030TIP3    H1 3096   3.206   3.609   0.716
 1030TIP3    H2 3097   3.254   3.663   0.582
 1031TIP3   OH2 3098   3.155   3.491   0.158
 1031TIP3    H1 3099   3.061   3.462   0.153
 1031TIP3    H2 3100   3.185   3.480   0.066
 1032TIP3   OH2 3101   3.775   3.835   0.924
 1032TIP3    H1 3102   3.774   3.757   0.985
 1032TIP3    H2 3103   3.865   3.867   0.938
 1033TIP3   OH2 3104   3.780   3.570   0.143
 1033TIP3    H1 3105   3.788   3.607   0.052
 1033TIP3    H2 3106   3.815   3.481   0.129
 1034TIP3   OH2 3107   3.087   3.627   0.845
 1034TIP3    H1 3108   3.068   3.694   0.912
 1034TIP3    H2 3109   3.073   3.544   0.895
 1035TIP3   OH2 3110   2.668   3.143   0.420
 1035TIP3    H1 3111   2.743   3.176   0.473
 1035TIP3    H2 3112   2.710   3.110   0.339
 1036TIP3   OH2 3113   2.604   3.119  -0.061
 1036TIP3    H1 3114   2.670   3.133  -0.132
 1036TIP3    H2 3115   2.556   3.203  -0.057
 1037TIP3   OH2 3116   3.760   3.792   0.605
 1037TIP3    H1 3117   3.781   3.724   0.536
 1037TIP3    H2 3118   3.845   3.840   0.602
 1038TIP3   OH2 3119   3.482   3.270   0.226
 1038TIP3    H1 3120   3.409   3.281   0.290
 1038TIP3    H2 3121   3.561   3.277   0.282
 1039TIP3   OH2 3122   2.902   3.367   0.193
 1039TIP3    H1 3123   2.808   3.383   0.167
 1039TIP3    H2 3124   2.913   3.273   0.176
 1040TIP3   OH2 3125   3.968   3.398   0.423
 1040TIP3    H1 3126   3.934   3.412   0.515
 1040TIP3    H2 3127   3.900   3.337   0.391
 1041TIP3   OH2 3128   4.142   5.079   0.631
 1041TIP3    H1 3129   4.124   5.146   0.561
 1041TIP3    H2 3130   4.231   5.111   0.658
 1042TIP3   OH2 3131   3.087   4.179   1.035
 1042TIP3    H1 3132   3.167   4.208   1.083
 1042TIP3    H2 3133   3.023   4.177   1.108
 1043TIP3   OH2 3134   3.556   3.631   0.292
 1043TIP3    H1 3135   3.616   3.613   0.217
 1043TIP3    H2 3136   3.605   3.588   0.363
 1044TIP3   OH2 3137   3.094   3.094   0.179
 1044TIP3    H1 3138   3.034   3.037   0.233
 1044TIP3    H2 3139   3.157   3.027   0.149
 1045TIP3   OH2 3140   4.158   4.159   0.311
 1045TIP3    H1 3141   4.168   4.203   0.226
 1045TIP3    H2 3142   4.072   4.114   0.301
 1046TIP3   OH2 3143   3.664   4.239   0.690
 1046TIP3    H1 3144   3.720   4.237   0.769
 1046TIP3    H2 3145   3.619   4.324   0.698
 1047TIP3   OH2 3146   2.958   3.965   0.384
 1047TIP3    H1 3147   2.993   3.931   0.298
 1047TIP3    H2 3148   2.986   3.895   0.444
 1048TIP3   OH2 3149   2.850   3.854   0.971
 1048TIP3    H1 3150   2.860   3.844   1.068
 1048TIP3    H2 3151   2.772   3.797   0.955
 1049TIP3   OH2 3152   3.567   4.006   0.973
 1049TIP3    H1 3153   3.512   3.930   0.998
 1049TIP3    H2 3154   3.657   3.968   0.975
 1050TIP3   OH2 3155   3.811   4.519   0.570
 1050TIP3    H1 3156   3.717   4.506   0.591
 1050TIP3    H2 3157   3.842   4.560   0.654
 1051TIP3   OH2 3158   4.466   4.412   0.560
 1051TIP3    H1 3159   4.369   4.407   0.544
 1051TIP3    H2 3160   4.501   4.382   0.475
 1052TIP3   OH2 3161   3.917   4.025   0.285
 1052TIP3    H1 3162   3.821   4.017   0.271
 1052TIP3    H2 3163   3.949   3.948   0.232
 1053TIP3   OH2 3164   3.329   4.581   0.448
 1053TIP3    H1 3165   3.363   4.669   0.426
 1053TIP3    H2 3166   3.404   4.542   0.496
 1054TIP3   OH2 3167   3.719   4.229   0.421
 1054TIP3    H1 3168   3.702   4.226   0.518
 1054TIP3    H2 3169   3.804   4.182   0.417
 1055TIP3   OH2 3170   3.971   4.749   0.465
 1055TIP3    H1 3171   3.896   4.687   0.474
 1055TIP3    H2 3172   3.944   4.798   0.385
 1056TIP3   OH2 3173   3.042   3.374   0.974
 1056TIP3    H1 3174   2.945   3.372   0.982
 1056TIP3    H2 3175   3.069   3.326   1.053
 1057TIP3   OH2 3176   2.768   4.445   0.614
 1057TIP3    H1 3177   2.824   4.386   0.668
 1057TIP3    H2 3178   2.782   4.530   0.658
 1058TIP3   OH2 3179   3.859   3.434   0.669
 1058TIP3    H1 3180   3.923   3.491   0.714
 1058TIP3    H2 3181   3.859   3.354   0.726
 1059TIP3   OH2 3182   3.365   3.368  -0.015
 1059TIP3    H1 3183   3.449   3.393  -0.058
 1059TIP3    H2 3184   3.399   3.331   0.069
 1060TIP3   OH2 3185   3.640   3.094   0.076
 1060TIP3    H1 3186   3.580   3.165   0.104
 1060TIP3    H2 3187   3.664   3.122  -0.014
 1061TIP3   OH2 3188   3.098   3.041  -0.148
 1061TIP3    H1 3189   3.123   3.091  -0.069
 1061TIP3    H2 3190   3.177   2.981  -0.149
 1062TIP3   OH2 3191   4.346   3.569   0.737
 1062TIP3    H1 3192   4.250   3.567   0.720
 1062TIP3    H2 3193   4.383   3.572   0.648
 1063TIP3   OH2 3194   2.771   2.572   6.382
 1063TIP3    H1 3195   2.748   2.517   6.306
 1063TIP3    H2 3196   2.836   2.515   6.429
 1064TIP3   OH2 3197   3.060   3.000   0.576
 1064TIP3    H1 3198   3.031   2.963   0.489
 1064TIP3    H2 3199   3.049   2.923   0.635
 1065TIP3   OH2 3200   2.541   4.233   0.004
 1065TIP3    H1 3201   2.514   4.266   0.092
 1065TIP3    H2 3202   2.625   4.281  -0.006
 1066TIP3   OH2 3203   2.765   4.786   1.034
 1066TIP3    H1 3204   2.849   4.792   1.085
 1066TIP3    H2 3205   2.752   4.690   1.032
 1067TIP3   OH2 3206   3.224   4.719   1.076
 1067TIP3    H1 3207   3.317   4.703   1.096
 1067TIP3    H2 3208   3.207   4.651   1.008
 1068TIP3   OH2 3209   3.875   4.631   0.807
 1068TIP3    H1 3210   3.866   4.561   0.876
 1068TIP3    H2 3211   3.949   4.685   0.844
 1069TIP3   OH2 3212   2.886   4.177   1.231
 1069TIP3    H1 3213   2.898   4.082   1.249
 1069TIP3    H2 3214   2.799   4.179   1.186
 1070TIP3   OH2 3215   3.492   4.275   1.008
 1070TIP3    H1 3216   3.454   4.301   0.921
 1070TIP3    H2 3217   3.528   4.186   0.989
 1071TIP3   OH2 3218   3.980   4.280   0.605
 1071TIP3    H1 3219   4.065   4.315   0.571
 1071TIP3    H2 3220   3.921   4.355   0.587
 1072TIP3   OH2 3221   3.015   3.907   1.221
 1072TIP3    H1 3222   3.096   3.860   1.195
 1072TIP3    H2 3223   3.040   3.941   1.309
 1073TIP3   OH2 3224   3.379   3.832   0.825
 1073TIP3    H1 3225   3.317   3.848   0.899
 1073TIP3    H2 3226   3.322   3.864   0.753
 1074TIP3   OH2 3227   3.857   4.186   0.999
 1074TIP3    H1 3228   3.952   4.175   0.988
 1074TIP3    H2 3229   3.844   4.139   1.084
 1075TIP3   OH2 3230   3.459   3.587   0.982
 1075TIP3    H1 3231   3.476   3.497   0.947
 1075TIP3    H2 3232   3.392   3.617   0.918
 1076TIP3   OH2 3233   3.459   3.364   0.817
 1076TIP3    H1 3234   3.487   3.386   0.727
 1076TIP3    H2 3235   3.364   3.341   0.802
 1077TIP3   OH2 3236   4.071   3.868   1.054
 1077TIP3    H1 3237   4.111   3.782   1.069
 1077TIP3    H2 3238   4.147   3.921   1.025
 1078TIP3   OH2 3239   4.106   4.115   0.786
 1078TIP3    H1 3240   4.052   4.179   0.734
 1078TIP3    H2 3241   4.196   4.135   0.750
 1079TIP3   OH2 3242   3.316   3.689   1.212
 1079TIP3    H1 3243   3.264   3.615   1.249
 1079TIP3    H2 3244   3.369   3.643   1.145
 1080TIP3   OH2 3245   3.595   3.129   0.892
 1080TIP3    H1 3246   3.544   3.208   0.868
 1080TIP3    H2 3247   3.528   3.058   0.879
 1081TIP3   OH2 3248   3.732   3.628   1.095
 1081TIP3    H1 3249   3.745   3.627   1.192
 1081TIP3    H2 3250   3.639   3.600   1.089
 1082TIP3   OH2 3251   3.967   3.580   0.948
 1082TIP3    H1 3252   3.893   3.580   1.012
 1082TIP3    H2 3253   4.042   3.554   1.005
 1083TIP3   OH2 3254   4.188   3.528   1.105
 1083TIP3    H1 3255   4.207   3.432   1.114
 1083TIP3    H2 3256   4.185   3.557   1.199
 1084TIP3   OH2 3257   3.182   3.459   1.302
 1084TIP3    H1 3258   3.182   3.366   1.273
 1084TIP3    H2 3259   3.226   3.451   1.389
 1085TIP3   OH2 3260   3.688   3.138   1.149
 1085TIP3    H1 3261   3.753   3.066   1.140
 1085TIP3    H2 3262   3.648   3.136   1.060
 1086TIP3   OH2 3263   3.750   3.353   1.304
 1086TIP3    H1 3264   3.733   3.278   1.242
 1086TIP3    H2 3265   3.669   3.406   1.294
 1087TIP3   OH2 3266   2.359   4.538   0.054
 1087TIP3    H1 3267   2.288   4.482   0.016
 1087TIP3    H2 3268   2.397   4.476   0.120
 1088TIP3   OH2 3269   2.498   4.378   0.230
 1088TIP3    H1 3270   2.496   4.325   0.312
 1088TIP3    H2 3271   2.562   4.447   0.257
 1089TIP3   OH2 3272   4.288   4.532   0.852
 1089TIP3    H1 3273   4.232   4.532   0.933
 1089TIP3    H2 3274   4.345   4.608   0.867
 1090TIP3   OH2 3275   4.124   4.559   0.320
 1090TIP3    H1 3276   4.066   4.629   0.353
 1090TIP3    H2 3277   4.105   4.554   0.225
 1091TIP3   OH2 3278   2.690   3.828   0.589
 1091TIP3    H1 3279   2.686   3.790   0.499
 1091TIP3    H2 3280   2.788   3.828   0.603
 1092TIP3   OH2 3281   4.350   4.172   0.681
 1092TIP3    H1 3282   4.422   4.106   0.688
 1092TIP3    H2 3283   4.394   4.246   0.637
 1093TIP3   OH2 3284   4.549   3.993   0.711
 1093TIP3    H1 3285   4.494   3.925   0.755
 1093TIP3    H2 3286   4.617   4.007   0.782
 1094TIP3   OH2 3287   4.240   3.715   0.260
 1094TIP3    H1 3288   4.331   3.745   0.255
 1094TIP3    H2 3289   4.228   3.712   0.357
 1095TIP3   OH2 3290   4.284   3.811   0.525
 1095TIP3    H1 3291   4.193   3.842   0.544
 1095TIP3    H2 3292   4.322   3.886   0.474
 1096TIP3   OH2 3293   2.917   3.516   1.258
 1096TIP3    H1 3294   3.014   3.514   1.273
 1096TIP3    H2 3295   2.894   3.427   1.292
 1097TIP3   OH2 3296   4.758   3.392   1.019
 1097TIP3    H1 3297   4.818   3.331   0.973
 1097TIP3    H2 3298   4.717   3.439   0.943
 1098TIP3   OH2 3299   2.879   3.210   0.587
 1098TIP3    H1 3300   2.940   3.134   0.594
 1098TIP3    H2 3301   2.941   3.284   0.578
 1099TIP3   OH2 3302   2.669   3.480   0.655
 1099TIP3    H1 3303   2.722   3.481   0.574
 1099TIP3    H2 3304   2.699   3.560   0.700
 1100TIP3   OH2 3305   4.608   3.508   0.829
 1100TIP3    H1 3306   4.535   3.560   0.869
 1100TIP3    H2 3307   4.557   3.448   0.771
 1101TIP3   OH2 3308   2.661   2.984   0.169
 1101TIP3    H1 3309   2.571   2.975   0.204
 1101TIP3    H2 3310   2.646   3.041   0.091
 1102TIP3   OH2 3311   2.883   3.069   0.980
 1102TIP3    H1 3312   2.830   3.062   1.061
 1102TIP3    H2 3313   2.816   3.104   0.917
 1103TIP3   OH2 3314   2.919   4.501   1.048
 1103TIP3    H1 3315   2.823   4.483   1.043
 1103TIP3    H2 3316   2.937   4.484   1.142
 1104TIP3   OH2 3317   3.107   4.531   0.604
 1104TIP3    H1 3318   3.059   4.611   0.574
 1104TIP3    H2 3319   3.190   4.543   0.554
 1105TIP3   OH2 3320   3.540   4.776   0.731
 1105TIP3    H1 3321   3.579   4.768   0.821
 1105TIP3    H2 3322   3.611   4.826   0.686
 1106TIP3   OH2 3323   3.753   4.914   0.603
 1106TIP3    H1 3324   3.832   4.858   0.597
 1106TIP3    H2 3325   3.788   4.982   0.666
 1107TIP3   OH2 3326   4.507   3.275   0.706
 1107TIP3    H1 3327   4.420   3.257   0.668
 1107TIP3    H2 3328   4.551   3.188   0.696
 1108TIP3   OH2 3329   2.773   4.786   0.645
 1108TIP3    H1 3330   2.680   4.810   0.622
 1108TIP3    H2 3331   2.793   4.856   0.709
 1109TIP3   OH2 3332   3.009   4.763   0.506
 1109TIP3    H1 3333   2.920   4.774   0.545
 1109TIP3    H2 3334   2.995   4.794   0.414
 1110TIP3   OH2 3335   3.375   4.841   0.206
 1110TIP3    H1 3336   3.465   4.871   0.182
 1110TIP3    H2 3337   3.369   4.881   0.295
 1111TIP3   OH2 3338   3.719   4.761   0.356
 1111TIP3    H1 3339   3.637   4.710   0.358
 1111TIP3    H2 3340   3.698   4.831   0.421
 1112TIP3   OH2 3341   2.684   4.547   0.370
 1112TIP3    H1 3342   2.717   4.513   0.456
 1112TIP3    H2 3343   2.755   4.515   0.310
 1113TIP3   OH2 3344   2.888   4.448   0.218
 1113TIP3    H1 3345   2.901   4.366   0.271
 1113TIP3    H2 3346   2.975   4.491   0.225
 1114TIP3   OH2 3347   3.169   4.569   0.209
 1114TIP3    H1 3348   3.198   4.479   0.189
 1114TIP3    H2 3349   3.209   4.580   0.298
 1115TIP3   OH2 3350   3.740   3.221   0.348
 1115TIP3    H1 3351   3.702   3.146   0.396
 1115TIP3    H2 3352   3.788   3.175   0.276
 1116TIP3   OH2 3353   4.247   3.121   0.238
 1116TIP3    H1 3354   4.311   3.186   0.207
 1116TIP3    H2 3355   4.174   3.132   0.176
 1117TIP3   OH2 3356   2.968   2.906   0.331
 1117TIP3    H1 3357   2.876   2.872   0.338
 1117TIP3    H2 3358   3.016   2.820   0.327
 1118TIP3   OH2 3359   2.748   2.769   0.004
 1118TIP3    H1 3360   2.779   2.831  -0.066
 1118TIP3    H2 3361   2.722   2.833   0.073
 1119TIP3   OH2 3362   3.411   2.926   0.236
 1119TIP3    H1 3363   3.403   2.947   0.140
 1119TIP3    H2 3364   3.459   3.001   0.272
 1120TIP3   OH2 3365   3.904   3.070   0.178
 1120TIP3    H1 3366   3.954   3.108   0.104
 1120TIP3    H2 3367   3.971   3.017   0.225
 1121TIP3   OH2 3368   2.851   2.938  -0.178
 1121TIP3    H1 3369   2.887   2.899  -0.259
 1121TIP3    H2 3370   2.932   2.985  -0.148
 1122TIP3   OH2 3371   3.177   3.188   1.226
 1122TIP3    H1 3372   3.142   3.116   1.282
 1122TIP3    H2 3373   3.271   3.187   1.255
 1123TIP3   OH2 3374   3.429   3.185   1.344
 1123TIP3    H1 3375   3.516   3.159   1.307
 1123TIP3    H2 3376   3.415   3.116   1.412
 1124TIP3   OH2 3377   4.260   3.258   1.128
 1124TIP3    H1 3378   4.276   3.227   1.220
 1124TIP3    H2 3379   4.350   3.252   1.090
 1125TIP3   OH2 3380   4.187   4.803   0.634
 1125TIP3    H1 3381   4.114   4.770   0.577
 1125TIP3    H2 3382   4.171   4.900   0.628
 1126TIP3   OH2 3383   4.877   4.195   0.447
 1126TIP3    H1 3384   4.887   4.283   0.490
 1126TIP3    H2 3385   4.788   4.168   0.478
 1127TIP3   OH2 3386   4.794   3.918   0.346
 1127TIP3    H1 3387   4.847   3.966   0.411
 1127TIP3    H2 3388   4.848   3.839   0.330
 1128TIP3   OH2 3389   4.886   4.446   0.547
 1128TIP3    H1 3390   4.965   4.472   0.598
 1128TIP3    H2 3391   4.815   4.466   0.609
 1129TIP3   OH2 3392   4.608   4.129   0.483
 1129TIP3    H1 3393   4.594   4.068   0.559
 1129TIP3    H2 3394   4.544   4.092   0.419
 1130TIP3   OH2 3395   4.854   3.595   0.488
 1130TIP3    H1 3396   4.796   3.646   0.547
 1130TIP3    H2 3397   4.897   3.537   0.553
 1131TIP3   OH2 3398   4.538   4.991   0.574
 1131TIP3    H1 3399   4.625   4.996   0.620
 1131TIP3    H2 3400   4.523   4.894   0.570
 1132TIP3   OH2 3401   4.679   4.432   0.747
 1132TIP3    H1 3402   4.683   4.349   0.797
 1132TIP3    H2 3403   4.604   4.416   0.685
 1133TIP3   OH2 3404   5.156   3.819   0.498
 1133TIP3    H1 3405   5.194   3.731   0.490
 1133TIP3    H2 3406   5.180   3.859   0.413
 1134TIP3   OH2 3407   5.141   3.936   0.748
 1134TIP3    H1 3408   5.062   3.888   0.780
 1134TIP3    H2 3409   5.137   3.911   0.653
 1135TIP3   OH2 3410   5.228   3.430   0.337
 1135TIP3    H1 3411   5.325   3.435   0.332
 1135TIP3    H2 3412   5.214   3.349   0.389
 1136TIP3   OH2 3413   5.503   3.955   0.613
 1136TIP3    H1 3414   5.484   3.910   0.698
 1136TIP3    H2 3415   5.503   3.880   0.552
 1137TIP3   OH2 3416   5.999   3.791   0.631
 1137TIP3    H1 3417   6.008   3.696   0.655
 1137TIP3    H2 3418   5.995   3.833   0.719
 1138TIP3   OH2 3419   4.971   3.726   0.814
 1138TIP3    H1 3420   4.975   3.647   0.758
 1138TIP3    H2 3421   5.014   3.694   0.896
 1139TIP3   OH2 3422   5.472   3.396   0.631
 1139TIP3    H1 3423   5.521   3.312   0.637
 1139TIP3    H2 3424   5.486   3.416   0.535
 1140TIP3   OH2 3425   5.555   3.607   0.790
 1140TIP3    H1 3426   5.528   3.537   0.728
 1140TIP3    H2 3427   5.478   3.667   0.787
 1141TIP3   OH2 3428   4.723   3.724   0.696
 1141TIP3    H1 3429   4.794   3.766   0.749
 1141TIP3    H2 3430   4.689   3.657   0.758
 1142TIP3   OH2 3431   4.652   3.327   0.468
 1142TIP3    H1 3432   4.611   3.334   0.555
 1142TIP3    H2 3433   4.581   3.361   0.411
 1143TIP3   OH2 3434   4.728   4.717   0.582
 1143TIP3    H1 3435   4.636   4.709   0.553
 1143TIP3    H2 3436   4.717   4.715   0.678
 1144TIP3   OH2 3437   4.971   3.438   0.705
 1144TIP3    H1 3438   4.934   3.370   0.765
 1144TIP3    H2 3439   5.064   3.441   0.738
 1145TIP3   OH2 3440   5.226   3.442   0.822
 1145TIP3    H1 3441   5.306   3.417   0.774
 1145TIP3    H2 3442   5.217   3.369   0.887
 1146TIP3   OH2 3443   6.060   3.519   0.651
 1146TIP3    H1 3444   6.048   3.457   0.726
 1146TIP3    H2 3445   6.155   3.505   0.639
 1147TIP3   OH2 3446   0.601   4.967   1.186
 1147TIP3    H1 3447   0.532   5.022   1.147
 1147TIP3    H2 3448   0.642   5.027   1.251
 1148TIP3   OH2 3449   0.391   4.884   1.405
 1148TIP3    H1 3450   0.394   4.966   1.459
 1148TIP3    H2 3451   0.437   4.913   1.325
 1149TIP3   OH2 3452   0.165   5.164   1.784
 1149TIP3    H1 3453   0.161   5.077   1.740
 1149TIP3    H2 3454   0.159   5.225   1.710
 1150TIP3   OH2 3455   0.295   4.849   1.792
 1150TIP3    H1 3456   0.289   4.752   1.787
 1150TIP3    H2 3457   0.248   4.869   1.875
 1151TIP3   OH2 3458   0.562   5.274   1.375
 1151TIP3    H1 3459   0.480   5.236   1.413
 1151TIP3    H2 3460   0.627   5.204   1.396
 1152TIP3   OH2 3461   0.805   4.703   1.677
 1152TIP3    H1 3462   0.865   4.639   1.634
 1152TIP3    H2 3463   0.767   4.748   1.598
 1153TIP3   OH2 3464   0.658   4.819   1.482
 1153TIP3    H1 3465   0.591   4.860   1.541
 1153TIP3    H2 3466   0.602   4.759   1.429
 1154TIP3   OH2 3467   0.560   4.571   1.363
 1154TIP3    H1 3468   0.475   4.540   1.325
 1154TIP3    H2 3469   0.610   4.486   1.369
 1155TIP3   OH2 3470   0.317   4.574   1.792
 1155TIP3    H1 3471   0.311   4.536   1.882
 1155TIP3    H2 3472   0.407   4.549   1.764
 1156TIP3   OH2 3473   2.321   5.024   0.489
 1156TIP3    H1 3474   2.354   5.104   0.535
 1156TIP3    H2 3475   2.313   5.057   0.397
 1157TIP3   OH2 3476   1.717   5.207   0.515
 1157TIP3    H1 3477   1.759   5.121   0.536
 1157TIP3    H2 3478   1.685   5.190   0.425
 1158TIP3   OH2 3479   1.730   4.950   0.123
 1158TIP3    H1 3480   1.809   4.937   0.179
 1158TIP3    H2 3481   1.771   4.960   0.035
 1159TIP3   OH2 3482   2.395   5.234   0.651
 1159TIP3    H1 3483   2.305   5.274   0.641
 1159TIP3    H2 3484   2.422   5.271   0.736
 1160TIP3   OH2 3485   1.048   4.840   0.914
 1160TIP3    H1 3486   0.971   4.826   0.855
 1160TIP3    H2 3487   1.001   4.867   0.996
 1161TIP3   OH2 3488   1.943   4.964   0.297
 1161TIP3    H1 3489   1.902   4.944   0.382
 1161TIP3    H2 3490   1.998   5.042   0.318
 1162TIP3   OH2 3491   2.114   4.914   0.647
 1162TIP3    H1 3492   2.027   4.939   0.611
 1162TIP3    H2 3493   2.175   4.949   0.579
 1163TIP3   OH2 3494   1.393   4.549   0.630
 1163TIP3    H1 3495   1.375   4.458   0.660
 1163TIP3    H2 3496   1.320   4.597   0.675
 1164TIP3   OH2 3497   2.230   5.575   0.488
 1164TIP3    H1 3498   2.149   5.629   0.498
 1164TIP3    H2 3499   2.259   5.601   0.399
 1165TIP3   OH2 3500   1.915   5.440   0.769
 1165TIP3    H1 3501   1.908   5.534   0.795
 1165TIP3    H2 3502   1.826   5.430   0.729
 1166TIP3   OH2 3503   2.167   5.404   0.952
 1166TIP3    H1 3504   2.077   5.415   0.918
 1166TIP3    H2 3505   2.182   5.308   0.942
 1167TIP3   OH2 3506   1.165   4.627   0.766
 1167TIP3    H1 3507   1.083   4.595   0.724
 1167TIP3    H2 3508   1.134   4.710   0.807
 1168TIP3   OH2 3509   1.705   4.749   0.956
 1168TIP3    H1 3510   1.777   4.727   1.019
 1168TIP3    H2 3511   1.624   4.732   1.007
 1169TIP3   OH2 3512   1.930   5.185   0.876
 1169TIP3    H1 3513   1.879   5.183   0.960
 1169TIP3    H2 3514   1.909   5.273   0.839
 1170TIP3   OH2 3515   1.163   5.173   0.863
 1170TIP3    H1 3516   1.097   5.112   0.899
 1170TIP3    H2 3517   1.125   5.191   0.775
 1171TIP3   OH2 3518   1.662   5.384   1.093
 1171TIP3    H1 3519   1.642   5.315   1.160
 1171TIP3    H2 3520   1.751   5.412   1.123
 1172TIP3   OH2 3521   1.635   5.169   0.260
 1172TIP3    H1 3522   1.594   5.220   0.188
 1172TIP3    H2 3523   1.657   5.085   0.213
 1173TIP3   OH2 3524   0.915   5.228   1.068
 1173TIP3    H1 3525   0.921   5.297   1.135
 1173TIP3    H2 3526   0.917   5.147   1.122
 1174TIP3   OH2 3527   1.655   5.406   0.687
 1174TIP3    H1 3528   1.671   5.343   0.613
 1174TIP3    H2 3529   1.621   5.344   0.754
 1175TIP3   OH2 3530   1.806   4.948   0.561
 1175TIP3    H1 3531   1.779   4.963   0.654
 1175TIP3    H2 3532   1.735   4.884   0.536
 1176TIP3   OH2 3533   0.935   5.652   1.167
 1176TIP3    H1 3534   1.002   5.690   1.229
 1176TIP3    H2 3535   0.908   5.575   1.220
 1177TIP3   OH2 3536   1.398   5.192   0.478
 1177TIP3    H1 3537   1.479   5.171   0.431
 1177TIP3    H2 3538   1.406   5.139   0.560
 1178TIP3   OH2 3539   1.399   5.086   0.742
 1178TIP3    H1 3540   1.327   5.136   0.785
 1178TIP3    H2 3541   1.477   5.133   0.777
 1179TIP3   OH2 3542   2.002   5.724   0.503
 1179TIP3    H1 3543   2.024   5.775   0.422
 1179TIP3    H2 3544   1.927   5.668   0.471
 1180TIP3   OH2 3545   1.424   5.505   1.158
 1180TIP3    H1 3546   1.353   5.445   1.126
 1180TIP3    H2 3547   1.505   5.463   1.120
 1181TIP3   OH2 3548   1.809   5.562   0.414
 1181TIP3    H1 3549   1.717   5.549   0.440
 1181TIP3    H2 3550   1.825   5.486   0.356
 1182TIP3   OH2 3551   0.899   4.914   1.143
 1182TIP3    H1 3552   0.804   4.913   1.163
 1182TIP3    H2 3553   0.935   4.861   1.217
 1183TIP3   OH2 3554   1.732   4.993   0.823
 1183TIP3    H1 3555   1.814   5.031   0.859
 1183TIP3    H2 3556   1.723   4.910   0.874
 1184TIP3   OH2 3557   1.585   5.230   0.881
 1184TIP3    H1 3558   1.616   5.282   0.958
 1184TIP3    H2 3559   1.637   5.148   0.889
 1185TIP3   OH2 3560   1.499   4.634   0.170
 1185TIP3    H1 3561   1.440   4.696   0.218
 1185TIP3    H2 3562   1.574   4.692   0.151
 1186TIP3   OH2 3563   2.194   5.135   0.872
 1186TIP3    H1 3564   2.096   5.139   0.881
 1186TIP3    H2 3565   2.201   5.082   0.792
 1187TIP3   OH2 3566   1.866   5.329   0.271
 1187TIP3    H1 3567   1.792   5.268   0.282
 1187TIP3    H2 3568   1.939   5.281   0.314
 1188TIP3   OH2 3569   0.917   4.520   0.697
 1188TIP3    H1 3570   0.830   4.560   0.710
 1188TIP3    H2 3571   0.915   4.451   0.767
 1189TIP3   OH2 3572   1.269   5.728   1.147
 1189TIP3    H1 3573   1.314   5.781   1.081
 1189TIP3    H2 3574   1.328   5.650   1.155
 1190TIP3   OH2 3575   1.834   5.732   0.771
 1190TIP3    H1 3576   1.896   5.752   0.699
 1190TIP3    H2 3577   1.800   5.820   0.793
 1191TIP3   OH2 3578   0.897   5.462   1.354
 1191TIP3    H1 3579   0.945   5.387   1.391
 1191TIP3    H2 3580   0.893   5.520   1.433
 1192TIP3   OH2 3581   1.209   5.380   1.045
 1192TIP3    H1 3582   1.144   5.451   1.037
 1192TIP3    H2 3583   1.197   5.332   0.960
 1193TIP3   OH2 3584   1.726   5.755   1.142
 1193TIP3    H1 3585   1.818   5.729   1.158
 1193TIP3    H2 3586   1.681   5.705   1.211
 1194TIP3   OH2 3587   1.308   5.137   1.149
 1194TIP3    H1 3588   1.312   5.061   1.087
 1194TIP3    H2 3589   1.271   5.207   1.092
 1195TIP3   OH2 3590   1.315   4.915   0.962
 1195TIP3    H1 3591   1.350   4.954   0.879
 1195TIP3    H2 3592   1.223   4.893   0.937
 1196TIP3   OH2 3593   1.339   5.477   0.775
 1196TIP3    H1 3594   1.432   5.453   0.780
 1196TIP3    H2 3595   1.337   5.563   0.819
 1197TIP3   OH2 3596   1.912   5.425   1.210
 1197TIP3    H1 3597   1.959   5.344   1.235
 1197TIP3    H2 3598   1.978   5.473   1.157
 1198TIP3   OH2 3599   1.982   5.654   0.986
 1198TIP3    H1 3600   1.911   5.686   0.926
 1198TIP3    H2 3601   2.061   5.684   0.935
 1199TIP3   OH2 3602   1.185   5.230   1.390
 1199TIP3    H1 3603   1.118   5.161   1.409
 1199TIP3    H2 3604   1.217   5.203   1.301
 1200TIP3   OH2 3605   1.441   4.679   1.042
 1200TIP3    H1 3606   1.394   4.761   1.015
 1200TIP3    H2 3607   1.371   4.612   1.029
 1201TIP3   OH2 3608   1.567   5.179   1.249
 1201TIP3    H1 3609   1.548   5.167   1.344
 1201TIP3    H2 3610   1.479   5.159   1.212
 1202TIP3   OH2 3611   1.801   5.126   1.105
 1202TIP3    H1 3612   1.728   5.130   1.169
 1202TIP3    H2 3613   1.878   5.105   1.161
 1203TIP3   OH2 3614   2.034   5.086   1.251
 1203TIP3    H1 3615   2.049   4.990   1.263
 1203TIP3    H2 3616   2.028   5.118   1.344
 1204TIP3   OH2 3617   1.010   5.018   1.450
 1204TIP3    H1 3618   1.015   4.924   1.422
 1204TIP3    H2 3619   1.050   5.011   1.539
 1205TIP3   OH2 3620   1.525   4.692   1.303
 1205TIP3    H1 3621   1.593   4.622   1.293
 1205TIP3    H2 3622   1.488   4.692   1.212
 1206TIP3   OH2 3623   1.597   4.908   1.455
 1206TIP3    H1 3624   1.575   4.836   1.391
 1206TIP3    H2 3625   1.519   4.967   1.448
 1207TIP3   OH2 3626   1.848   5.303  -0.004
 1207TIP3    H1 3627   1.929   5.262  -0.036
 1207TIP3    H2 3628   1.871   5.321   0.090
 1208TIP3   OH2 3629   2.192   5.742   0.839
 1208TIP3    H1 3630   2.263   5.687   0.799
 1208TIP3    H2 3631   2.158   5.795   0.765
 1209TIP3   OH2 3632   2.385   5.532   0.852
 1209TIP3    H1 3633   2.305   5.493   0.893
 1209TIP3    H2 3634   2.452   5.464   0.876
 1210TIP3   OH2 3635   2.077   5.189   0.382
 1210TIP3    H1 3636   2.158   5.218   0.335
 1210TIP3    H2 3637   2.092   5.231   0.469
 1211TIP3   OH2 3638   2.140   5.344   0.606
 1211TIP3    H1 3639   2.064   5.374   0.659
 1211TIP3    H2 3640   2.169   5.428   0.564
 1212TIP3   OH2 3641   0.744   5.066   1.394
 1212TIP3    H1 3642   0.841   5.066   1.409
 1212TIP3    H2 3643   0.721   4.978   1.431
 1213TIP3   OH2 3644   2.587   4.951   1.160
 1213TIP3    H1 3645   2.653   4.889   1.121
 1213TIP3    H2 3646   2.555   4.999   1.080
 1214TIP3   OH2 3647   2.037   4.723  -0.095
 1214TIP3    H1 3648   2.068   4.739  -0.004
 1214TIP3    H2 3649   1.965   4.659  -0.079
 1215TIP3   OH2 3650   2.453   5.075   0.959
 1215TIP3    H1 3651   2.369   5.122   0.981
 1215TIP3    H2 3652   2.417   5.001   0.907
 1216TIP3   OH2 3653   0.731   4.620   1.144
 1216TIP3    H1 3654   0.676   4.609   1.225
 1216TIP3    H2 3655   0.679   4.684   1.095
 1217TIP3   OH2 3656   2.360   4.838   0.848
 1217TIP3    H1 3657   2.271   4.820   0.811
 1217TIP3    H2 3658   2.400   4.748   0.844
 1218TIP3   OH2 3659   1.606   4.765   0.510
 1218TIP3    H1 3660   1.531   4.706   0.524
 1218TIP3    H2 3661   1.661   4.715   0.446
 1219TIP3   OH2 3662   2.075   4.640   0.377
 1219TIP3    H1 3663   2.112   4.694   0.303
 1219TIP3    H2 3664   1.981   4.665   0.373
 1220TIP3   OH2 3665   2.175   4.742   0.145
 1220TIP3    H1 3666   2.250   4.694   0.105
 1220TIP3    H2 3667   2.203   4.835   0.137
 1221TIP3   OH2 3668   1.271   4.502   0.349
 1221TIP3    H1 3669   1.322   4.574   0.308
 1221TIP3    H2 3670   1.279   4.529   0.442
 1222TIP3   OH2 3671   1.796   4.640   0.344
 1222TIP3    H1 3672   1.809   4.595   0.259
 1222TIP3    H2 3673   1.787   4.563   0.405
 1223TIP3   OH2 3674   1.829   4.550  -0.059
 1223TIP3    H1 3675   1.745   4.597  -0.049
 1223TIP3    H2 3676   1.815   4.467  -0.008
 1224TIP3   OH2 3677   1.017   4.745   1.367
 1224TIP3    H1 3678   0.979   4.676   1.425
 1224TIP3    H2 3679   1.110   4.744   1.400
 1225TIP3   OH2 3680   1.267   4.741   1.491
 1225TIP3    H1 3681   1.355   4.721   1.455
 1225TIP3    H2 3682   1.258   4.670   1.558
 1226TIP3   OH2 3683   2.101   4.816   1.280
 1226TIP3    H1 3684   2.117   4.786   1.372
 1226TIP3    H2 3685   2.191   4.810   1.243
 1227TIP3   OH2 3686   2.534   5.543   0.308
 1227TIP3    H1 3687   2.585   5.497   0.379
 1227TIP3    H2 3688   2.598   5.611   0.281
 1228TIP3   OH2 3689   2.843   5.093   0.401
 1228TIP3    H1 3690   2.842   5.180   0.356
 1228TIP3    H2 3691   2.778   5.108   0.473
 1229TIP3   OH2 3692   2.737   5.693   0.547
 1229TIP3    H1 3693   2.752   5.785   0.575
 1229TIP3    H2 3694   2.640   5.689   0.557
 1230TIP3   OH2 3695   2.425   5.833   0.416
 1230TIP3    H1 3696   2.336   5.824   0.378
 1230TIP3    H2 3697   2.428   5.765   0.485
 1231TIP3   OH2 3698   2.964   4.880   0.264
 1231TIP3    H1 3699   2.869   4.857   0.263
 1231TIP3    H2 3700   2.956   4.971   0.298
 1232TIP3   OH2 3701   3.505   4.931   0.447
 1232TIP3    H1 3702   3.576   4.964   0.504
 1232TIP3    H2 3703   3.425   4.968   0.490
 1233TIP3   OH2 3704   2.856   5.336   0.300
 1233TIP3    H1 3705   2.799   5.394   0.355
 1233TIP3    H2 3706   2.872   5.390   0.221
 1234TIP3   OH2 3707   3.450   5.649   0.585
 1234TIP3    H1 3708   3.438   5.572   0.643
 1234TIP3    H2 3709   3.545   5.664   0.594
 1235TIP3   OH2 3710   2.684   5.429   0.497
 1235TIP3    H1 3711   2.716   5.509   0.543
 1235TIP3    H2 3712   2.694   5.358   0.564
 1236TIP3   OH2 3713   2.292   4.997   0.086
 1236TIP3    H1 3714   2.374   5.001   0.140
 1236TIP3    H2 3715   2.323   4.946   0.008
 1237TIP3   OH2 3716   2.718   5.936   0.681
 1237TIP3    H1 3717   2.799   5.966   0.730
 1237TIP3    H2 3718   2.691   5.863   0.741
 1238TIP3   OH2 3719   2.473   5.664   0.629
 1238TIP3    H1 3720   2.487   5.641   0.723
 1238TIP3    H2 3721   2.406   5.597   0.606
 1239TIP3   OH2 3722   3.201   5.742   0.647
 1239TIP3    H1 3723   3.139   5.687   0.595
 1239TIP3    H2 3724   3.287   5.714   0.609
 1240TIP3   OH2 3725   2.680   5.172   0.618
 1240TIP3    H1 3726   2.584   5.173   0.631
 1240TIP3    H2 3727   2.711   5.125   0.697
 1241TIP3   OH2 3728   3.344   5.456   0.397
 1241TIP3    H1 3729   3.359   5.544   0.435
 1241TIP3    H2 3730   3.430   5.415   0.416
 1242TIP3   OH2 3731   2.707   4.802   0.250
 1242TIP3    H1 3732   2.672   4.781   0.162
 1242TIP3    H2 3733   2.688   4.719   0.299
 1243TIP3   OH2 3734   2.463   5.919   0.862
 1243TIP3    H1 3735   2.521   5.848   0.895
 1243TIP3    H2 3736   2.447   5.890   0.771
 1244TIP3   OH2 3737   3.075   5.984   0.637
 1244TIP3    H1 3738   3.130   6.035   0.576
 1244TIP3    H2 3739   3.121   5.897   0.637
 1245TIP3   OH2 3740   2.680   5.723   0.859
 1245TIP3    H1 3741   2.753   5.664   0.840
 1245TIP3    H2 3742   2.700   5.750   0.952
 1246TIP3   OH2 3743   2.999   5.603   0.498
 1246TIP3    H1 3744   2.908   5.638   0.496
 1246TIP3    H2 3745   3.029   5.612   0.406
 1247TIP3   OH2 3746   3.512   6.014   0.654
 1247TIP3    H1 3747   3.577   5.943   0.655
 1247TIP3    H2 3748   3.449   5.982   0.720
 1248TIP3   OH2 3749   3.102   5.399   0.641
 1248TIP3    H1 3750   3.108   5.324   0.579
 1248TIP3    H2 3751   3.067   5.469   0.582
 1249TIP3   OH2 3752   3.104   5.180   0.453
 1249TIP3    H1 3753   3.135   5.219   0.370
 1249TIP3    H2 3754   3.010   5.163   0.435
 1250TIP3   OH2 3755   3.724   5.691   0.709
 1250TIP3    H1 3756   3.739   5.595   0.709
 1250TIP3    H2 3757   3.810   5.724   0.739
 1251TIP3   OH2 3758   2.977   5.491   0.878
 1251TIP3    H1 3759   2.914   5.419   0.897
 1251TIP3    H2 3760   3.012   5.464   0.790
 1252TIP3   OH2 3761   3.225   4.940   0.526
 1252TIP3    H1 3762   3.177   5.023   0.504
 1252TIP3    H2 3763   3.153   4.874   0.523
 1253TIP3   OH2 3764   3.366   5.432   0.736
 1253TIP3    H1 3765   3.340   5.420   0.830
 1253TIP3    H2 3766   3.280   5.418   0.693
 1254TIP3   OH2 3767   3.602   5.395   0.588
 1254TIP3    H1 3768   3.530   5.390   0.654
 1254TIP3    H2 3769   3.680   5.366   0.638
 1255TIP3   OH2 3770   3.837   5.340   0.735
 1255TIP3    H1 3771   3.853   5.245   0.751
 1255TIP3    H2 3772   3.826   5.376   0.826
 1256TIP3   OH2 3773   2.818   5.269   0.939
 1256TIP3    H1 3774   2.821   5.177   0.909
 1256TIP3    H2 3775   2.859   5.260   1.027
 1257TIP3   OH2 3776   3.328   4.954   0.781
 1257TIP3    H1 3777   3.393   4.882   0.771
 1257TIP3    H2 3778   3.286   4.952   0.692
 1258TIP3   OH2 3779   3.393   5.167   0.938
 1258TIP3    H1 3780   3.373   5.095   0.874
 1258TIP3    H2 3781   3.314   5.225   0.930
 1259TIP3   OH2 3782   2.553   5.322   0.893
 1259TIP3    H1 3783   2.650   5.321   0.907
 1259TIP3    H2 3784   2.529   5.235   0.929
 1260TIP3   OH2 3785   4.387   5.196   0.658
 1260TIP3    H1 3786   4.446   5.119   0.644
 1260TIP3    H2 3787   4.394   5.236   0.569
 1261TIP3   OH2 3788   2.531   5.028   0.229
 1261TIP3    H1 3789   2.606   4.971   0.256
 1261TIP3    H2 3790   2.551   5.111   0.273
 1262TIP3   OH2 3791   2.320   5.292   0.292
 1262TIP3    H1 3792   2.332   5.338   0.206
 1262TIP3    H2 3793   2.368   5.351   0.351
 1263TIP3   OH2 3794   2.518   4.877   0.614
 1263TIP3    H1 3795   2.468   4.877   0.697
 1263TIP3    H2 3796   2.453   4.916   0.552
 1264TIP3   OH2 3797   2.815   4.997   0.860
 1264TIP3    H1 3798   2.780   4.927   0.919
 1264TIP3    H2 3799   2.909   4.998   0.888
 1265TIP3   OH2 3800   3.065   4.998   0.981
 1265TIP3    H1 3801   3.153   4.975   0.946
 1265TIP3    H2 3802   3.053   4.929   1.050
 1266TIP3   OH2 3803   3.904   5.072   0.770
 1266TIP3    H1 3804   3.920   5.042   0.862
 1266TIP3    H2 3805   3.995   5.066   0.732
 1267TIP3   OH2 3806   1.245   0.237   3.430
 1267TIP3    H1 3807   1.205   0.320   3.397
 1267TIP3    H2 3808   1.176   0.173   3.402
 1268TIP3   OH2 3809   1.226   0.227   3.811
 1268TIP3    H1 3810   1.276   0.191   3.886
 1268TIP3    H2 3811   1.222   0.152   3.750
 1269TIP3   OH2 3812   1.495   0.536   3.502
 1269TIP3    H1 3813   1.479   0.466   3.566
 1269TIP3    H2 3814   1.527   0.609   3.558
 1270TIP3   OH2 3815   1.149   0.983   3.519
 1270TIP3    H1 3816   1.180   0.913   3.458
 1270TIP3    H2 3817   1.140   0.933   3.602
 1271TIP3   OH2 3818   1.040   0.425   3.889
 1271TIP3    H1 3819   1.087   0.349   3.847
 1271TIP3    H2 3820   1.118   0.485   3.896
 1272TIP3   OH2 3821   2.061  -0.217   3.846
 1272TIP3    H1 3822   2.074  -0.129   3.888
 1272TIP3    H2 3823   2.087  -0.198   3.754
 1273TIP3   OH2 3824   1.434  -0.062   3.895
 1273TIP3    H1 3825   1.442  -0.154   3.921
 1273TIP3    H2 3826   1.409  -0.071   3.801
 1274TIP3   OH2 3827   1.490  -0.345   3.506
 1274TIP3    H1 3828   1.570  -0.328   3.560
 1274TIP3    H2 3829   1.507  -0.294   3.426
 1275TIP3   OH2 3830   2.096  -0.008   4.027
 1275TIP3    H1 3831   2.021   0.054   4.024
 1275TIP3    H2 3832   2.153   0.029   4.097
 1276TIP3   OH2 3833   1.127   0.445   3.298
 1276TIP3    H1 3834   1.099   0.433   3.205
 1276TIP3    H2 3835   1.070   0.519   3.326
 1277TIP3   OH2 3836   1.696  -0.300   3.676
 1277TIP3    H1 3837   1.704  -0.355   3.756
 1277TIP3    H2 3838   1.736  -0.215   3.705
 1278TIP3   OH2 3839   1.548   0.776   3.659
 1278TIP3    H1 3840   1.457   0.767   3.696
 1278TIP3    H2 3841   1.542   0.863   3.614
 1279TIP3   OH2 3842   1.241   0.812   3.315
 1279TIP3    H1 3843   1.294   0.729   3.302
 1279TIP3    H2 3844   1.308   0.878   3.284
 1280TIP3   OH2 3845   1.393   0.596   3.253
 1280TIP3    H1 3846   1.353   0.512   3.228
 1280TIP3    H2 3847   1.438   0.571   3.337
 1281TIP3   OH2 3848   1.777   0.676   4.005
 1281TIP3    H1 3849   1.765   0.600   3.944
 1281TIP3    H2 3850   1.758   0.752   3.946
 1282TIP3   OH2 3851   1.082   0.077   3.270
 1282TIP3    H1 3852   1.003   0.127   3.241
 1282TIP3    H2 3853   1.126   0.057   3.186
 1283TIP3   OH2 3854   1.972   0.324   3.855
 1283TIP3    H1 3855   1.889   0.376   3.855
 1283TIP3    H2 3856   2.005   0.345   3.765
 1284TIP3   OH2 3857   1.422   0.171   3.232
 1284TIP3    H1 3858   1.367   0.191   3.311
 1284TIP3    H2 3859   1.505   0.142   3.275
 1285TIP3   OH2 3860   1.644   0.214   4.149
 1285TIP3    H1 3861   1.642   0.295   4.203
 1285TIP3    H2 3862   1.558   0.219   4.103
 1286TIP3   OH2 3863   0.800   0.581   3.766
 1286TIP3    H1 3864   0.777   0.567   3.673
 1286TIP3    H2 3865   0.886   0.535   3.773
 1287TIP3   OH2 3866   1.307   0.765   3.784
 1287TIP3    H1 3867   1.298   0.846   3.837
 1287TIP3    H2 3868   1.295   0.694   3.850
 1288TIP3   OH2 3869   0.918   0.687   4.305
 1288TIP3    H1 3870   0.879   0.757   4.360
 1288TIP3    H2 3871   0.844   0.624   4.304
 1289TIP3   OH2 3872   1.263   0.015   3.068
 1289TIP3    H1 3873   1.321   0.080   3.112
 1289TIP3    H2 3874   1.287   0.028   2.973
 1290TIP3   OH2 3875   1.000   0.688   3.331
 1290TIP3    H1 3876   1.089   0.729   3.331
 1290TIP3    H2 3877   0.948   0.758   3.288
 1291TIP3   OH2 3878   0.725   0.860   4.401
 1291TIP3    H1 3879   0.698   0.862   4.307
 1291TIP3    H2 3880   0.663   0.794   4.438
 1292TIP3   OH2 3881   1.581   0.609   2.659
 1292TIP3    H1 3882   1.584   0.707   2.646
 1292TIP3    H2 3883   1.675   0.586   2.644
 1293TIP3   OH2 3884   2.016   1.033   4.063
 1293TIP3    H1 3885   2.016   0.937   4.080
 1293TIP3    H2 3886   1.932   1.058   4.107
 1294TIP3   OH2 3887   1.118   0.816   4.178
 1294TIP3    H1 3888   1.111   0.905   4.218
 1294TIP3    H2 3889   1.046   0.768   4.224
 1295TIP3   OH2 3890   0.893   0.925   3.151
 1295TIP3    H1 3891   0.850   0.915   3.064
 1295TIP3    H2 3892   0.859   1.011   3.180
 1296TIP3   OH2 3893   0.313   0.767   3.519
 1296TIP3    H1 3894   0.368   0.760   3.600
 1296TIP3    H2 3895   0.235   0.717   3.545
 1297TIP3   OH2 3896   1.088   0.834   2.793
 1297TIP3    H1 3897   1.157   0.774   2.755
 1297TIP3    H2 3898   1.125   0.850   2.882
 1298TIP3   OH2 3899   1.145   0.894   3.054
 1298TIP3    H1 3900   1.056   0.901   3.095
 1298TIP3    H2 3901   1.198   0.863   3.129
 1299TIP3   OH2 3902   1.922   0.149   4.338
 1299TIP3    H1 3903   1.827   0.157   4.324
 1299TIP3    H2 3904   1.935   0.053   4.330
 1300TIP3   OH2 3905   1.675  -0.026   4.285
 1300TIP3    H1 3906   1.661   0.016   4.372
 1300TIP3    H2 3907   1.646   0.045   4.224
 1301TIP3   OH2 3908   1.329   0.055   2.806
 1301TIP3    H1 3909   1.253   0.049   2.744
 1301TIP3    H2 3910   1.382   0.126   2.769
 1302TIP3   OH2 3911   1.226  -0.103   3.423
 1302TIP3    H1 3912   1.168  -0.039   3.377
 1302TIP3    H2 3913   1.274  -0.143   3.348
 1303TIP3   OH2 3914   1.397   0.131   4.484
 1303TIP3    H1 3915   1.383   0.154   4.576
 1303TIP3    H2 3916   1.494   0.125   4.481
 1304TIP3   OH2 3917   1.402  -0.104   3.629
 1304TIP3    H1 3918   1.321  -0.086   3.575
 1304TIP3    H2 3919   1.420  -0.194   3.598
 1305TIP3   OH2 3920   1.388   0.159   4.039
 1305TIP3    H1 3921   1.414   0.078   3.989
 1305TIP3    H2 3922   1.336   0.121   4.111
 1306TIP3   OH2 3923   1.719   1.373   4.161
 1306TIP3    H1 3924   1.716   1.402   4.068
 1306TIP3    H2 3925   1.801   1.418   4.192
 1307TIP3   OH2 3926   0.850   0.218   3.199
 1307TIP3    H1 3927   0.772   0.162   3.212
 1307TIP3    H2 3928   0.841   0.275   3.280
 1308TIP3   OH2 3929   1.738   0.467   3.832
 1308TIP3    H1 3930   1.764   0.518   3.753
 1308TIP3    H2 3931   1.656   0.423   3.802
 1309TIP3   OH2 3932   1.211   0.538   4.211
 1309TIP3    H1 3933   1.263   0.519   4.291
 1309TIP3    H2 3934   1.197   0.633   4.218
 1310TIP3   OH2 3935   1.343  -0.213   3.203
 1310TIP3    H1 3936   1.435  -0.234   3.183
 1310TIP3    H2 3937   1.325  -0.138   3.142
 1311TIP3   OH2 3938   1.013   0.387   3.056
 1311TIP3    H1 3939   0.950   0.462   3.054
 1311TIP3    H2 3940   0.959   0.318   3.100
 1312TIP3   OH2 3941   1.388   0.800   4.117
 1312TIP3    H1 3942   1.291   0.808   4.128
 1312TIP3    H2 3943   1.419   0.856   4.192
 1313TIP3   OH2 3944   1.803  -0.134   3.028
 1313TIP3    H1 3945   1.747  -0.189   2.969
 1313TIP3    H2 3946   1.798  -0.049   2.980
 1314TIP3   OH2 3947   2.026   0.746   4.093
 1314TIP3    H1 3948   1.929   0.737   4.083
 1314TIP3    H2 3949   2.055   0.714   4.004
 1315TIP3   OH2 3950   1.520   0.698   2.931
 1315TIP3    H1 3951   1.482   0.635   2.993
 1315TIP3    H2 3952   1.520   0.649   2.847
 1316TIP3   OH2 3953   1.512   0.337   3.741
 1316TIP3    H1 3954   1.420   0.315   3.761
 1316TIP3    H2 3955   1.544   0.253   3.702
 1317TIP3   OH2 3956   0.654   0.567   3.517
 1317TIP3    H1 3957   0.663   0.638   3.450
 1317TIP3    H2 3958   0.572   0.595   3.560
 1318TIP3   OH2 3959   0.788   0.336   3.431
 1318TIP3    H1 3960   0.751   0.415   3.475
 1318TIP3    H2 3961   0.767   0.264   3.495
 1319TIP3   OH2 3962   0.921   0.889   3.977
 1319TIP3    H1 3963   0.961   0.964   3.926
 1319TIP3    H2 3964   0.999   0.860   4.028
 1320TIP3   OH2 3965   0.556   0.792   3.366
 1320TIP3    H1 3966   0.467   0.798   3.404
 1320TIP3    H2 3967   0.587   0.885   3.372
 1321TIP3   OH2 3968   1.284   0.535   3.948
 1321TIP3    H1 3969   1.267   0.530   4.045
 1321TIP3    H2 3970   1.370   0.491   3.943
 1322TIP3   OH2 3971   1.272   0.423   2.831
 1322TIP3    H1 3972   1.331   0.405   2.908
 1322TIP3    H2 3973   1.187   0.396   2.870
 1323TIP3   OH2 3974   1.537   1.057   3.989
 1323TIP3    H1 3975   1.452   1.008   3.983
 1323TIP3    H2 3976   1.524   1.123   3.917
 1324TIP3   OH2 3977   1.600   0.888   2.641
 1324TIP3    H1 3978   1.631   0.963   2.587
 1324TIP3    H2 3979   1.521   0.930   2.682
 1325TIP3   OH2 3980   1.440   0.356   3.032
 1325TIP3    H1 3981   1.425   0.294   3.107
 1325TIP3    H2 3982   1.538   0.352   3.026
 1326TIP3   OH2 3983   0.594   0.396   3.137
 1326TIP3    H1 3984   0.686   0.392   3.111
 1326TIP3    H2 3985   0.575   0.492   3.126
 1327TIP3   OH2 3986   0.833   0.593   3.044
 1327TIP3    H1 3987   0.747   0.614   3.088
 1327TIP3    H2 3988   0.862   0.683   3.023
 1328TIP3   OH2 3989   0.587   0.674   3.120
 1328TIP3    H1 3990   0.561   0.744   3.056
 1328TIP3    H2 3991   0.572   0.721   3.205
 1329TIP3   OH2 3992   1.929  -0.124   4.235
 1329TIP3    H1 3993   1.833  -0.101   4.234
 1329TIP3    H2 3994   1.956  -0.109   4.143
 1330TIP3   OH2 3995   1.595   0.091   3.639
 1330TIP3    H1 3996   1.521   0.026   3.639
 1330TIP3    H2 3997   1.664   0.040   3.685
 1331TIP3   OH2 3998   1.562   1.044   3.578
 1331TIP3    H1 3999   1.520   1.092   3.504
 1331TIP3    H2 4000   1.657   1.062   3.560
 1332TIP3   OH2 4001   0.823   1.031   4.591
 1332TIP3    H1 4002   0.913   0.994   4.595
 1332TIP3    H2 4003   0.783   0.974   4.522
 1333TIP3   OH2 4004   0.816   0.597   2.764
 1333TIP3    H1 4005   0.804   0.563   2.855
 1333TIP3    H2 4006   0.906   0.570   2.743
 1334TIP3   OH2 4007   1.449   0.942   4.341
 1334TIP3    H1 4008   1.448   0.873   4.412
 1334TIP3    H2 4009   1.527   0.996   4.367
 1335TIP3   OH2 4010   1.253   0.654   2.677
 1335TIP3    H1 4011   1.258   0.569   2.725
 1335TIP3    H2 4012   1.285   0.632   2.589
 1336TIP3   OH2 4013   1.101   0.610   4.512
 1336TIP3    H1 4014   1.039   0.600   4.438
 1336TIP3    H2 4015   1.112   0.517   4.542
 1337TIP3   OH2 4016   1.558   0.587   4.146
 1337TIP3    H1 4017   1.638   0.622   4.101
 1337TIP3    H2 4018   1.495   0.660   4.130
 1338TIP3   OH2 4019   1.441   0.500   4.514
 1338TIP3    H1 4020   1.505   0.472   4.447
 1338TIP3    H2 4021   1.462   0.437   4.586
 1339TIP3   OH2 4022   1.592   0.157   2.637
 1339TIP3    H1 4023   1.539   0.095   2.585
 1339TIP3    H2 4024   1.539   0.239   2.631
 1340TIP3   OH2 4025   1.666   0.105   4.531
 1340TIP3    H1 4026   1.676   0.069   4.622
 1340TIP3    H2 4027   1.683   0.199   4.550
 1341TIP3   OH2 4028   1.682   0.438   4.331
 1341TIP3    H1 4029   1.630   0.496   4.271
 1341TIP3    H2 4030   1.772   0.457   4.296
 1342TIP3   OH2 4031   0.564   0.888   2.942
 1342TIP3    H1 4032   0.657   0.888   2.915
 1342TIP3    H2 4033   0.524   0.935   2.867
 1343TIP3   OH2 4034   1.823   1.120   3.553
 1343TIP3    H1 4035   1.845   1.155   3.642
 1343TIP3    H2 4036   1.891   1.161   3.498
 1344TIP3   OH2 4037   1.843   1.144   3.836
 1344TIP3    H1 4038   1.799   1.057   3.833
 1344TIP3    H2 4039   1.919   1.122   3.892
 1345TIP3   OH2 4040   1.895   0.824   4.407
 1345TIP3    H1 4041   1.825   0.837   4.475
 1345TIP3    H2 4042   1.939   0.911   4.410
 1346TIP3   OH2 4043   1.717   0.328   3.011
 1346TIP3    H1 4044   1.777   0.401   2.985
 1346TIP3    H2 4045   1.761   0.296   3.094
 1347TIP3   OH2 4046   1.838   0.207   3.226
 1347TIP3    H1 4047   1.769   0.168   3.284
 1347TIP3    H2 4048   1.905   0.239   3.290
 1348TIP3   OH2 4049   1.900   0.604   3.653
 1348TIP3    H1 4050   1.952   0.531   3.614
 1348TIP3    H2 4051   1.903   0.672   3.583
 1349TIP3   OH2 4052   1.715   0.896   3.849
 1349TIP3    H1 4053   1.643   0.939   3.898
 1349TIP3    H2 4054   1.667   0.853   3.774
 1350TIP3   OH2 4055   1.762   0.102   2.859
 1350TIP3    H1 4056   1.701   0.121   2.785
 1350TIP3    H2 4057   1.742   0.177   2.918
 1351TIP3   OH2 4058   1.638  -0.234   2.833
 1351TIP3    H1 4059   1.641  -0.143   2.801
 1351TIP3    H2 4060   1.569  -0.271   2.772
 1352TIP3   OH2 4061   1.644   0.074   3.364
 1352TIP3    H1 4062   1.645  -0.023   3.348
 1352TIP3    H2 4063   1.629   0.080   3.461
 1353TIP3   OH2 4064   1.932   0.498   4.229
 1353TIP3    H1 4065   2.001   0.430   4.210
 1353TIP3    H2 4066   1.954   0.567   4.163
 1354TIP3   OH2 4067   2.111   0.299   4.214
 1354TIP3    H1 4068   2.040   0.249   4.259
 1354TIP3    H2 4069   2.183   0.235   4.228
 1355TIP3   OH2 4070   1.654  -0.194   3.262
 1355TIP3    H1 4071   1.658  -0.291   3.252
 1355TIP3    H2 4072   1.710  -0.166   3.187
 1356TIP3   OH2 4073   1.798  -0.055   3.759
 1356TIP3    H1 4074   1.885  -0.033   3.717
 1356TIP3    H2 4075   1.809  -0.009   3.845
 1357TIP3   OH2 4076   1.853   0.113   3.982
 1357TIP3    H1 4077   1.780   0.154   4.034
 1357TIP3    H2 4078   1.891   0.191   3.937
 1358TIP3   OH2 4079   1.398   0.997   3.203
 1358TIP3    H1 4080   1.454   0.992   3.123
 1358TIP3    H2 4081   1.446   1.061   3.258
 1359TIP3   OH2 4082   0.688   0.835   4.121
 1359TIP3    H1 4083   0.651   0.918   4.085
 1359TIP3    H2 4084   0.776   0.837   4.078
 1360TIP3   OH2 4085   1.109   1.079   4.267
 1360TIP3    H1 4086   1.154   1.076   4.354
 1360TIP3    H2 4087   1.175   1.132   4.216
 1361TIP3   OH2 4088   1.295   1.236   4.138
 1361TIP3    H1 4089   1.366   1.186   4.094
 1361TIP3    H2 4090   1.349   1.293   4.198
 1362TIP3   OH2 4091   0.359   1.127   4.139
 1362TIP3    H1 4092   0.276   1.145   4.089
 1362TIP3    H2 4093   0.360   1.030   4.143
 1363TIP3   OH2 4094   0.604   1.074   4.019
 1363TIP3    H1 4095   0.527   1.117   4.062
 1363TIP3    H2 4096   0.588   1.098   3.925
 1364TIP3   OH2 4097   1.016   1.091   3.817
 1364TIP3    H1 4098   0.948   1.109   3.750
 1364TIP3    H2 4099   1.027   1.179   3.858
 1365TIP3   OH2 4100   1.285   1.027   3.873
 1365TIP3    H1 4101   1.192   1.049   3.853
 1365TIP3    H2 4102   1.333   1.095   3.822
 1366TIP3   OH2 4103   1.478   1.215   3.774
 1366TIP3    H1 4104   1.470   1.302   3.729
 1366TIP3    H2 4105   1.510   1.158   3.701
 1367TIP3   OH2 4106   0.476   0.737   3.732
 1367TIP3    H1 4107   0.475   0.669   3.802
 1367TIP3    H2 4108   0.558   0.787   3.753
 1368TIP3   OH2 4109   0.732   0.848   3.781
 1368TIP3    H1 4110   0.760   0.755   3.770
 1368TIP3    H2 4111   0.793   0.875   3.852
 1369TIP3   OH2 4112   0.831   0.846   2.887
 1369TIP3    H1 4113   0.918   0.866   2.847
 1369TIP3    H2 4114   0.802   0.775   2.826
 1370TIP3   OH2 4115   1.550   0.966   2.973
 1370TIP3    H1 4116   1.546   0.868   2.962
 1370TIP3    H2 4117   1.502   0.995   2.893
 1371TIP3   OH2 4118   1.762   1.101   4.154
 1371TIP3    H1 4119   1.685   1.075   4.100
 1371TIP3    H2 4120   1.746   1.197   4.164
 1372TIP3   OH2 4121   3.040   0.484   2.907
 1372TIP3    H1 4122   3.003   0.572   2.883
 1372TIP3    H2 4123   2.967   0.427   2.881
 1373TIP3   OH2 4124   3.039   0.481   3.312
 1373TIP3    H1 4125   3.081   0.466   3.399
 1373TIP3    H2 4126   2.997   0.394   3.297
 1374TIP3   OH2 4127   2.325   0.364   3.667
 1374TIP3    H1 4128   2.359   0.298   3.731
 1374TIP3    H2 4129   2.404   0.418   3.654
 1375TIP3   OH2 4130   3.291   0.788   2.991
 1375TIP3    H1 4131   3.267   0.725   3.060
 1375TIP3    H2 4132   3.321   0.865   3.042
 1376TIP3   OH2 4133   2.313   0.782   3.380
 1376TIP3    H1 4134   2.304   0.685   3.379
 1376TIP3    H2 4135   2.410   0.791   3.373
 1377TIP3   OH2 4136   2.011   0.003   3.157
 1377TIP3    H1 4137   1.954   0.080   3.180
 1377TIP3    H2 4138   1.944  -0.060   3.127
 1378TIP3   OH2 4139   2.070   0.272   3.362
 1378TIP3    H1 4140   2.123   0.193   3.386
 1378TIP3    H2 4141   2.133   0.325   3.313
 1379TIP3   OH2 4142   2.944   1.240   3.006
 1379TIP3    H1 4143   2.976   1.168   2.949
 1379TIP3    H2 4144   2.926   1.193   3.089
 1380TIP3   OH2 4145   2.832   0.707   3.346
 1380TIP3    H1 4146   2.877   0.630   3.307
 1380TIP3    H2 4147   2.911   0.757   3.375
 1381TIP3   OH2 4148   3.853   0.037   3.334
 1381TIP3    H1 4149   3.867   0.125   3.374
 1381TIP3    H2 4150   3.883   0.053   3.242
 1382TIP3   OH2 4151   3.244   0.193   3.382
 1382TIP3    H1 4152   3.280   0.106   3.402
 1382TIP3    H2 4153   3.210   0.181   3.291
 1383TIP3   OH2 4154   2.601  -0.134   3.355
 1383TIP3    H1 4155   2.566  -0.084   3.278
 1383TIP3    H2 4156   2.597  -0.227   3.324
 1384TIP3   OH2 4157   3.286  -0.051   2.973
 1384TIP3    H1 4158   3.355  -0.062   3.043
 1384TIP3    H2 4159   3.339  -0.008   2.904
 1385TIP3   OH2 4160   2.223   0.062   3.452
 1385TIP3    H1 4161   2.308   0.051   3.498
 1385TIP3    H2 4162   2.239   0.007   3.373
 1386TIP3   OH2 4163   2.650   0.262   3.255
 1386TIP3    H1 4164   2.747   0.248   3.261
 1386TIP3    H2 4165   2.618   0.175   3.224
 1387TIP3   OH2 4166   3.889   0.247   3.515
 1387TIP3    H1 4167   3.815   0.311   3.508
 1387TIP3    H2 4168   3.947   0.287   3.582
 1388TIP3   OH2 4169   2.591  -0.156   3.776
 1388TIP3    H1 4170   2.528  -0.136   3.704
 1388TIP3    H2 4171   2.540  -0.124   3.853
 1389TIP3   OH2 4172   2.920   0.697   2.779
 1389TIP3    H1 4173   2.883   0.693   2.689
 1389TIP3    H2 4174   2.873   0.776   2.814
 1390TIP3   OH2 4175   2.689   0.627   3.562
 1390TIP3    H1 4176   2.634   0.701   3.596
 1390TIP3    H2 4177   2.735   0.669   3.487
 1391TIP3   OH2 4178   3.474  -0.038   3.168
 1391TIP3    H1 4179   3.489  -0.100   3.241
 1391TIP3    H2 4180   3.525   0.041   3.196
 1392TIP3   OH2 4181   2.457  -0.035   3.565
 1392TIP3    H1 4182   2.519   0.037   3.593
 1392TIP3    H2 4183   2.508  -0.072   3.490
 1393TIP3   OH2 4184   2.526   0.830   3.667
 1393TIP3    H1 4185   2.501   0.920   3.638
 1393TIP3    H2 4186   2.446   0.807   3.719
 1394TIP3   OH2 4187   1.904   0.516   2.905
 1394TIP3    H1 4188   1.864   0.546   2.822
 1394TIP3    H2 4189   1.935   0.601   2.942
 1395TIP3   OH2 4190   3.348   1.031   3.142
 1395TIP3    H1 4191   3.258   1.022   3.183
 1395TIP3    H2 4192   3.340   1.118   3.099
 1396TIP3   OH2 4193   3.042   1.068   2.807
 1396TIP3    H1 4194   3.096   0.986   2.793
 1396TIP3    H2 4195   3.106   1.134   2.772
 1397TIP3   OH2 4196   3.191   0.850   2.741
 1397TIP3    H1 4197   3.145   0.769   2.717
 1397TIP3    H2 4198   3.237   0.823   2.824
 1398TIP3   OH2 4199   3.574   0.931   3.492
 1398TIP3    H1 4200   3.558   0.856   3.431
 1398TIP3    H2 4201   3.553   1.008   3.434
 1399TIP3   OH2 4202   2.868   0.327   2.759
 1399TIP3    H1 4203   2.788   0.380   2.742
 1399TIP3    H2 4204   2.912   0.327   2.673
 1400TIP3   OH2 4205   2.821   0.127   2.458
 1400TIP3    H1 4206   2.889   0.174   2.510
 1400TIP3    H2 4207   2.878   0.071   2.401
 1401TIP3   OH2 4208   3.768   0.584   3.345
 1401TIP3    H1 4209   3.684   0.635   3.343
 1401TIP3    H2 4210   3.800   0.603   3.254
 1402TIP3   OH2 4211   3.217   0.415   2.714
 1402TIP3    H1 4212   3.161   0.441   2.791
 1402TIP3    H2 4213   3.302   0.397   2.759
 1403TIP3   OH2 4214   3.428   0.466   3.638
 1403TIP3    H1 4215   3.429   0.550   3.687
 1403TIP3    H2 4216   3.340   0.469   3.596
 1404TIP3   OH2 4217   2.447   0.406   3.139
 1404TIP3    H1 4218   2.408   0.346   3.072
 1404TIP3    H2 4219   2.522   0.353   3.174
 1405TIP3   OH2 4220   2.578   0.822   3.280
 1405TIP3    H1 4221   2.563   0.800   3.186
 1405TIP3    H2 4222   2.665   0.782   3.297
 1406TIP3   OH2 4223   2.570   0.387   3.491
 1406TIP3    H1 4224   2.606   0.356   3.405
 1406TIP3    H2 4225   2.620   0.470   3.506
 1407TIP3   OH2 4226   3.112   1.020   3.272
 1407TIP3    H1 4227   3.096   1.102   3.323
 1407TIP3    H2 4228   3.091   0.949   3.336
 1408TIP3   OH2 4229   2.726   0.934   3.821
 1408TIP3    H1 4230   2.662   0.994   3.865
 1408TIP3    H2 4231   2.664   0.882   3.766
 1409TIP3   OH2 4232   3.053   0.264   2.552
 1409TIP3    H1 4233   3.113   0.327   2.599
 1409TIP3    H2 4234   3.080   0.280   2.458
 1410TIP3   OH2 4235   2.476   0.499   3.925
 1410TIP3    H1 4236   2.477   0.589   3.963
 1410TIP3    H2 4237   2.383   0.473   3.943
 1411TIP3   OH2 4238   2.805   0.940   2.821
 1411TIP3    H1 4239   2.890   0.988   2.817
 1411TIP3    H2 4240   2.746   1.002   2.776
 1412TIP3   OH2 4241   2.517   1.092   3.906
 1412TIP3    H1 4242   2.484   1.105   3.816
 1412TIP3    H2 4243   2.434   1.073   3.956
 1413TIP3   OH2 4244   2.317   0.251   2.940
 1413TIP3    H1 4245   2.242   0.295   2.894
 1413TIP3    H2 4246   2.286   0.160   2.945
 1414TIP3   OH2 4247   3.375   0.873   2.150
 1414TIP3    H1 4248   3.381   0.970   2.134
 1414TIP3    H2 4249   3.469   0.846   2.136
 1415TIP3   OH2 4250   2.093   0.641   3.853
 1415TIP3    H1 4251   2.024   0.621   3.786
 1415TIP3    H2 4252   2.133   0.553   3.870
 1416TIP3   OH2 4253   1.954   0.828   3.481
 1416TIP3    H1 4254   2.051   0.825   3.473
 1416TIP3    H2 4255   1.943   0.904   3.541
 1417TIP3   OH2 4256   3.814   1.293   3.550
 1417TIP3    H1 4257   3.813   1.197   3.566
 1417TIP3    H2 4258   3.729   1.318   3.593
 1418TIP3   OH2 4259   2.918   1.063   3.676
 1418TIP3    H1 4260   2.909   1.156   3.706
 1418TIP3    H2 4261   2.847   1.021   3.731
 1419TIP3   OH2 4262   2.690   1.186   2.631
 1419TIP3    H1 4263   2.640   1.172   2.549
 1419TIP3    H2 4264   2.654   1.271   2.662
 1420TIP3   OH2 4265   2.121   1.037   3.017
 1420TIP3    H1 4266   2.167   1.031   3.104
 1420TIP3    H2 4267   2.080   0.950   3.009
 1421TIP3   OH2 4268   2.882   1.097   2.262
 1421TIP3    H1 4269   2.938   1.025   2.228
 1421TIP3    H2 4270   2.919   1.110   2.352
 1422TIP3   OH2 4271   2.940   1.149   2.529
 1422TIP3    H1 4272   2.852   1.156   2.572
 1422TIP3    H2 4273   2.994   1.119   2.603
 1423TIP3   OH2 4274   3.708   0.405   3.835
 1423TIP3    H1 4275   3.620   0.418   3.798
 1423TIP3    H2 4276   3.722   0.310   3.820
 1424TIP3   OH2 4277   2.300   0.820   3.824
 1424TIP3    H1 4278   2.346   0.808   3.909
 1424TIP3    H2 4279   2.224   0.758   3.834
 1425TIP3   OH2 4280   3.467   0.215   3.751
 1425TIP3    H1 4281   3.412   0.210   3.832
 1425TIP3    H2 4282   3.438   0.300   3.711
 1426TIP3   OH2 4283   3.135   0.292   2.297
 1426TIP3    H1 4284   3.092   0.286   2.209
 1426TIP3    H2 4285   3.219   0.336   2.273
 1427TIP3   OH2 4286   2.635   0.164   3.636
 1427TIP3    H1 4287   2.589   0.185   3.720
 1427TIP3    H2 4288   2.614   0.245   3.585
 1428TIP3   OH2 4289   2.509   0.037   3.160
 1428TIP3    H1 4290   2.415   0.013   3.176
 1428TIP3    H2 4291   2.522  -0.001   3.071
 1429TIP3   OH2 4292   3.003   0.119   2.893
 1429TIP3    H1 4293   2.956   0.192   2.848
 1429TIP3    H2 4294   3.054   0.080   2.820
 1430TIP3   OH2 4295   3.187   0.407   3.950
 1430TIP3    H1 4296   3.165   0.345   4.023
 1430TIP3    H2 4297   3.279   0.430   3.975
 1431TIP3   OH2 4298   3.165   0.151   3.123
 1431TIP3    H1 4299   3.095   0.176   3.060
 1431TIP3    H2 4300   3.199   0.071   3.076
 1432TIP3   OH2 4301   2.466   0.209   3.845
 1432TIP3    H1 4302   2.506   0.276   3.903
 1432TIP3    H2 4303   2.457   0.132   3.906
 1433TIP3   OH2 4304   2.542  -0.233   2.575
 1433TIP3    H1 4305   2.525  -0.253   2.668
 1433TIP3    H2 4306   2.456  -0.198   2.548
 1434TIP3   OH2 4307   2.079  -0.298   3.381
 1434TIP3    H1 4308   2.097  -0.238   3.455
 1434TIP3    H2 4309   2.109  -0.382   3.419
 1435TIP3   OH2 4310   2.042  -0.288   2.992
 1435TIP3    H1 4311   2.051  -0.245   2.904
 1435TIP3    H2 4312   1.962  -0.241   3.022
 1436TIP3   OH2 4313   3.168   0.401   3.538
 1436TIP3    H1 4314   3.198   0.329   3.478
 1436TIP3    H2 4315   3.134   0.346   3.613
 1437TIP3   OH2 4316   2.855  -0.101   3.242
 1437TIP3    H1 4317   2.770  -0.101   3.290
 1437TIP3    H2 4318   2.915  -0.129   3.314
 1438TIP3   OH2 4319   2.262  -0.073   3.212
 1438TIP3    H1 4320   2.174  -0.036   3.185
 1438TIP3    H2 4321   2.241  -0.167   3.208
 1439TIP3   OH2 4322   2.541  -0.091   2.921
 1439TIP3    H1 4323   2.636  -0.068   2.914
 1439TIP3    H2 4324   2.500  -0.047   2.843
 1440TIP3   OH2 4325   2.400  -0.002   2.704
 1440TIP3    H1 4326   2.334  -0.055   2.656
 1440TIP3    H2 4327   2.456   0.028   2.629
 1441TIP3   OH2 4328   3.516   1.630   3.647
 1441TIP3    H1 4329   3.510   1.660   3.555
 1441TIP3    H2 4330   3.595   1.679   3.678
 1442TIP3   OH2 4331   2.460   0.745   4.059
 1442TIP3    H1 4332   2.540   0.770   4.108
 1442TIP3    H2 4333   2.394   0.742   4.132
 1443TIP3   OH2 4334   2.918   0.219   3.313
 1443TIP3    H1 4335   2.967   0.148   3.271
 1443TIP3    H2 4336   2.912   0.186   3.405
 1444TIP3   OH2 4337   2.906   0.134   3.575
 1444TIP3    H1 4338   2.815   0.148   3.607
 1444TIP3    H2 4339   2.958   0.185   3.640
 1445TIP3   OH2 4340   2.636   0.475   2.701
 1445TIP3    H1 4341   2.560   0.415   2.685
 1445TIP3    H2 4342   2.612   0.512   2.789
 1446TIP3   OH2 4343   3.529   0.719   3.318
 1446TIP3    H1 4344   3.553   0.772   3.240
 1446TIP3    H2 4345   3.445   0.676   3.290
 1447TIP3   OH2 4346   3.080  -0.161   2.491
 1447TIP3    H1 4347   3.036  -0.229   2.544
 1447TIP3    H2 4348   3.107  -0.097   2.561
 1448TIP3   OH2 4349   3.029   0.800   3.703
 1448TIP3    H1 4350   3.075   0.797   3.788
 1448TIP3    H2 4351   2.994   0.891   3.701
 1449TIP3   OH2 4352   3.165   0.039   2.668
 1449TIP3    H1 4353   3.258   0.059   2.688
 1449TIP3    H2 4354   3.135   0.120   2.623
 1450TIP3   OH2 4355   2.330   0.506   3.367
 1450TIP3    H1 4356   2.368   0.478   3.282
 1450TIP3    H2 4357   2.388   0.460   3.430
 1451TIP3   OH2 4358   2.783   0.631   2.531
 1451TIP3    H1 4359   2.731   0.715   2.531
 1451TIP3    H2 4360   2.729   0.575   2.591
 1452TIP3   OH2 4361   2.217   0.426   3.988
 1452TIP3    H1 4362   2.229   0.410   4.083
 1452TIP3    H2 4363   2.147   0.363   3.968
 1453TIP3   OH2 4364   2.938   0.542   4.011
 1453TIP3    H1 4365   2.867   0.481   3.984
 1453TIP3    H2 4366   3.015   0.506   3.963
 1454TIP3   OH2 4367   3.190   1.058   3.601
 1454TIP3    H1 4368   3.093   1.061   3.613
 1454TIP3    H2 4369   3.219   1.113   3.677
 1455TIP3   OH2 4370   3.597   0.137   2.510
 1455TIP3    H1 4371   3.549   0.091   2.437
 1455TIP3    H2 4372   3.595   0.227   2.470
 1456TIP3   OH2 4373   3.823   1.005   3.578
 1456TIP3    H1 4374   3.726   0.996   3.568
 1456TIP3    H2 4375   3.852   0.972   3.490
 1457TIP3   OH2 4376   3.310   0.956   2.417
 1457TIP3    H1 4377   3.275   0.890   2.478
 1457TIP3    H2 4378   3.321   0.906   2.334
 1458TIP3   OH2 4379   3.297   0.585   3.231
 1458TIP3    H1 4380   3.203   0.560   3.247
 1458TIP3    H2 4381   3.329   0.502   3.189
 1459TIP3   OH2 4382   2.437   0.816   3.004
 1459TIP3    H1 4383   2.429   0.895   2.947
 1459TIP3    H2 4384   2.345   0.796   3.023
 1460TIP3   OH2 4385   2.005   0.108   2.718
 1460TIP3    H1 4386   2.049   0.193   2.740
 1460TIP3    H2 4387   1.928   0.112   2.779
 1461TIP3   OH2 4388   2.548   0.570   2.936
 1461TIP3    H1 4389   2.521   0.662   2.959
 1461TIP3    H2 4390   2.517   0.520   3.014
 1462TIP3   OH2 4391   2.708   1.149   3.467
 1462TIP3    H1 4392   2.749   1.223   3.417
 1462TIP3    H2 4393   2.786   1.112   3.512
 1463TIP3   OH2 4394   2.346   1.050   2.853
 1463TIP3    H1 4395   2.261   1.061   2.900
 1463TIP3    H2 4396   2.381   1.143   2.858
 1464TIP3   OH2 4397   3.077   0.791   3.434
 1464TIP3    H1 4398   3.066   0.788   3.532
 1464TIP3    H2 4399   3.158   0.738   3.423
 1465TIP3   OH2 4400   3.071   0.688   2.315
 1465TIP3    H1 4401   3.125   0.661   2.393
 1465TIP3    H2 4402   2.983   0.654   2.340
 1466TIP3   OH2 4403   3.335   1.311   3.476
 1466TIP3    H1 4404   3.251   1.260   3.473
 1466TIP3    H2 4405   3.318   1.377   3.405
 1467TIP3   OH2 4406   3.398   1.150   2.128
 1467TIP3    H1 4407   3.429   1.225   2.076
 1467TIP3    H2 4408   3.319   1.190   2.169
 1468TIP3   OH2 4409   2.468  -0.021   3.996
 1468TIP3    H1 4410   2.403  -0.096   3.990
 1468TIP3    H2 4411   2.516  -0.044   4.077
 1469TIP3   OH2 4412   3.233   0.608   2.518
 1469TIP3    H1 4413   3.221   0.545   2.591
 1469TIP3    H2 4414   3.331   0.607   2.510
 1470TIP3   OH2 4415   2.139   1.015   3.624
 1470TIP3    H1 4416   2.196   0.953   3.673
 1470TIP3    H2 4417   2.160   1.099   3.667
 1471TIP3   OH2 4418   2.427   0.658   2.316
 1471TIP3    H1 4419   2.435   0.564   2.295
 1471TIP3    H2 4420   2.401   0.654   2.411
 1472TIP3   OH2 4421   2.364   0.667   2.586
 1472TIP3    H1 4422   2.443   0.641   2.636
 1472TIP3    H2 4423   2.366   0.765   2.597
 1473TIP3   OH2 4424   2.099   0.357   2.796
 1473TIP3    H1 4425   2.033   0.405   2.850
 1473TIP3    H2 4426   2.115   0.424   2.727
 1474TIP3   OH2 4427   1.983   6.229   2.426
 1474TIP3    H1 4428   2.067   6.274   2.415
 1474TIP3    H2 4429   2.008   6.150   2.475
 1475TIP3   OH2 4430   3.144  -0.232   2.799
 1475TIP3    H1 4431   3.212  -0.205   2.735
 1475TIP3    H2 4432   3.159  -0.168   2.870
 1476TIP3   OH2 4433   2.639   0.859   2.533
 1476TIP3    H1 4434   2.551   0.881   2.570
 1476TIP3    H2 4435   2.655   0.939   2.480
 1477TIP3   OH2 4436   2.813  -0.075   2.967
 1477TIP3    H1 4437   2.880  -0.007   2.947
 1477TIP3    H2 4438   2.831  -0.091   3.063
 1478TIP3   OH2 4439   3.105   0.239   3.747
 1478TIP3    H1 4440   3.135   0.293   3.823
 1478TIP3    H2 4441   3.142   0.151   3.765
 1479TIP3   OH2 4442   2.389   0.937   2.608
 1479TIP3    H1 4443   2.361   1.010   2.547
 1479TIP3    H2 4444   2.373   0.980   2.696
 1480TIP3   OH2 4445   2.454  -0.332   2.825
 1480TIP3    H1 4446   2.485  -0.256   2.878
 1480TIP3    H2 4447   2.519  -0.403   2.851
 1481TIP3   OH2 4448   3.726   0.128   3.720
 1481TIP3    H1 4449   3.633   0.156   3.708
 1481TIP3    H2 4450   3.765   0.149   3.633
 1482TIP3   OH2 4451   3.381   0.336   3.123
 1482TIP3    H1 4452   3.304   0.276   3.133
 1482TIP3    H2 4453   3.451   0.287   3.173
 1483TIP3   OH2 4454   2.109   0.552   2.592
 1483TIP3    H1 4455   2.187   0.612   2.600
 1483TIP3    H2 4456   2.147   0.488   2.528
 1484TIP3   OH2 4457   2.040  -0.165   2.752
 1484TIP3    H1 4458   2.035  -0.068   2.739
 1484TIP3    H2 4459   2.043  -0.199   2.662
 1485TIP3   OH2 4460   3.359   1.299   3.065
 1485TIP3    H1 4461   3.316   1.346   2.990
 1485TIP3    H2 4462   3.454   1.316   3.045
 1486TIP3   OH2 4463   1.955   0.778   2.973
 1486TIP3    H1 4464   1.911   0.810   3.054
 1486TIP3    H2 4465   1.909   0.829   2.902
 1487TIP3   OH2 4466   2.138   1.342   4.048
 1487TIP3    H1 4467   2.223   1.349   4.098
 1487TIP3    H2 4468   2.126   1.246   4.048
 1488TIP3   OH2 4469   2.598   1.269   4.101
 1488TIP3    H1 4470   2.695   1.267   4.101
 1488TIP3    H2 4471   2.577   1.204   4.031
 1489TIP3   OH2 4472   2.587   0.857   2.216
 1489TIP3    H1 4473   2.536   0.784   2.257
 1489TIP3    H2 4474   2.664   0.809   2.180
 1490TIP3   OH2 4475   3.245   1.195   3.831
 1490TIP3    H1 4476   3.246   1.126   3.902
 1490TIP3    H2 4477   3.321   1.251   3.858
 1491TIP3   OH2 4478   3.022   0.893   2.140
 1491TIP3    H1 4479   3.055   0.826   2.203
 1491TIP3    H2 4480   3.083   0.884   2.065
 1492TIP3   OH2 4481   2.257   0.733   4.251
 1492TIP3    H1 4482   2.269   0.637   4.265
 1492TIP3    H2 4483   2.171   0.736   4.204
 1493TIP3   OH2 4484   2.241   0.364   2.456
 1493TIP3    H1 4485   2.302   0.344   2.530
 1493TIP3    H2 4486   2.306   0.372   2.383
 1494TIP3   OH2 4487   2.865   0.823   4.028
 1494TIP3    H1 4488   2.823   0.850   3.943
 1494TIP3    H2 4489   2.893   0.731   4.008
 1495TIP3   OH2 4490   2.774   0.581   2.262
 1495TIP3    H1 4491   2.767   0.592   2.359
 1495TIP3    H2 4492   2.770   0.483   2.253
 1496TIP3   OH2 4493   3.356   0.840   3.636
 1496TIP3    H1 4494   3.434   0.878   3.592
 1496TIP3    H2 4495   3.289   0.910   3.619
 1497TIP3   OH2 4496   2.401   0.468   4.238
 1497TIP3    H1 4497   2.488   0.450   4.199
 1497TIP3    H2 4498   2.427   0.500   4.327
 1498TIP3   OH2 4499   2.429   0.296   2.657
 1498TIP3    H1 4500   2.405   0.252   2.740
 1498TIP3    H2 4501   2.475   0.224   2.609
 1499TIP3   OH2 4502   2.721   0.377   3.909
 1499TIP3    H1 4503   2.639   0.431   3.901
 1499TIP3    H2 4504   2.767   0.398   3.824
 1500TIP3   OH2 4505   2.550   0.098   2.502
 1500TIP3    H1 4506   2.527   0.104   2.406
 1500TIP3    H2 4507   2.648   0.094   2.496
 1501TIP3   OH2 4508   3.233   0.753   4.024
 1501TIP3    H1 4509   3.301   0.704   3.977
 1501TIP3    H2 4510   3.218   0.696   4.102
 1502TIP3   OH2 4511   3.360   0.401   2.183
 1502TIP3    H1 4512   3.340   0.365   2.094
 1502TIP3    H2 4513   3.329   0.493   2.168
 1503TIP3   OH2 4514   2.845   0.181   4.090
 1503TIP3    H1 4515   2.856   0.084   4.088
 1503TIP3    H2 4516   2.800   0.194   4.004
 1504TIP3   OH2 4517   2.797   0.018   3.866
 1504TIP3    H1 4518   2.862  -0.023   3.808
 1504TIP3    H2 4519   2.714  -0.019   3.831
 1505TIP3   OH2 4520   2.860   0.458   3.693
 1505TIP3    H1 4521   2.947   0.489   3.666
 1505TIP3    H2 4522   2.801   0.522   3.648
 1506TIP3   OH2 4523   3.434   0.438   4.065
 1506TIP3    H1 4524   3.466   0.372   4.130
 1506TIP3    H2 4525   3.517   0.477   4.035
 1507TIP3   OH2 4526   3.482   0.688   3.818
 1507TIP3    H1 4527   3.424   0.747   3.764
 1507TIP3    H2 4528   3.569   0.712   3.781
 1508TIP3   OH2 4529   2.689   0.337   4.254
 1508TIP3    H1 4530   2.625   0.264   4.258
 1508TIP3    H2 4531   2.747   0.306   4.181
 1509TIP3   OH2 4532   3.117   0.200   4.114
 1509TIP3    H1 4533   3.103   0.201   4.211
 1509TIP3    H2 4534   3.022   0.200   4.088
 1510TIP3   OH2 4535   3.340   0.119   3.977
 1510TIP3    H1 4536   3.265   0.154   4.029
 1510TIP3    H2 4537   3.370   0.049   4.039
 1511TIP3   OH2 4538   2.522   0.116   4.283
 1511TIP3    H1 4539   2.565   0.033   4.255
 1511TIP3    H2 4540   2.520   0.105   4.379
 1512TIP3   OH2 4541   2.363   1.139   2.420
 1512TIP3    H1 4542   2.456   1.124   2.397
 1512TIP3    H2 4543   2.337   1.196   2.345
 1513TIP3   OH2 4544   1.839   0.526   2.617
 1513TIP3    H1 4545   1.935   0.546   2.610
 1513TIP3    H2 4546   1.834   0.438   2.576
 1514TIP3   OH2 4547   1.755   1.130   3.057
 1514TIP3    H1 4548   1.691   1.072   3.011
 1514TIP3    H2 4549   1.799   1.065   3.116
 1515TIP3   OH2 4550   1.888   0.963   3.235
 1515TIP3    H1 4551   1.875   0.903   3.312
 1515TIP3    H2 4552   1.941   1.032   3.278
 1516TIP3   OH2 4553   3.624   1.369   3.041
 1516TIP3    H1 4554   3.639   1.404   3.130
 1516TIP3    H2 4555   3.681   1.425   2.987
 1517TIP3   OH2 4556   3.637   1.399   3.321
 1517TIP3    H1 4557   3.593   1.312   3.318
 1517TIP3    H2 4558   3.711   1.378   3.380
 1518TIP3   OH2 4559   3.693   1.078   3.896
 1518TIP3    H1 4560   3.621   1.091   3.961
 1518TIP3    H2 4561   3.736   1.166   3.897
 1519TIP3   OH2 4562   3.511   0.590   2.503
 1519TIP3    H1 4563   3.572   0.660   2.472
 1519TIP3    H2 4564   3.558   0.557   2.583
 1520TIP3   OH2 4565   3.636   0.464   2.713
 1520TIP3    H1 4566   3.567   0.427   2.772
 1520TIP3    H2 4567   3.703   0.496   2.777
 1521TIP3   OH2 4568   3.698   0.861   3.144
 1521TIP3    H1 4569   3.747   0.788   3.101
 1521TIP3    H2 4570   3.699   0.930   3.075
 1522TIP3   OH2 4571   3.511   1.150   3.336
 1522TIP3    H1 4572   3.440   1.194   3.385
 1522TIP3    H2 4573   3.463   1.109   3.261
 1523TIP3   OH2 4574   3.570   0.367   2.356
 1523TIP3    H1 4575   3.497   0.368   2.291
 1523TIP3    H2 4576   3.544   0.445   2.410
 1524TIP3   OH2 4577   3.455   0.047   2.293
 1524TIP3    H1 4578   3.397   0.090   2.229
 1524TIP3    H2 4579   3.416  -0.043   2.299
 1525TIP3   OH2 4580   3.441   0.333   2.854
 1525TIP3    H1 4581   3.442   0.237   2.842
 1525TIP3    H2 4582   3.423   0.342   2.950
 1526TIP3   OH2 4583   2.064   0.391   3.608
 1526TIP3    H1 4584   2.058   0.351   3.519
 1526TIP3    H2 4585   2.161   0.391   3.622
 1527TIP3   OH2 4586   3.727   0.757   3.715
 1527TIP3    H1 4587   3.795   0.689   3.694
 1527TIP3    H2 4588   3.743   0.824   3.648
 1528TIP3   OH2 4589   3.898   0.551   3.699
 1528TIP3    H1 4590   3.829   0.507   3.752
 1528TIP3    H2 4591   3.970   0.486   3.712
 1529TIP3   OH2 4592   3.346  -0.199   2.374
 1529TIP3    H1 4593   3.357  -0.199   2.470
 1529TIP3    H2 4594   3.253  -0.226   2.367
 1530TIP3   OH2 4595   3.434   0.058   2.744
 1530TIP3    H1 4596   3.438  -0.037   2.722
 1530TIP3    H2 4597   3.500   0.094   2.681
 1531TIP3   OH2 4598   3.593   0.203   3.248
 1531TIP3    H1 4599   3.678   0.224   3.204
 1531TIP3    H2 4600   3.605   0.250   3.333
 1532TIP3   OH2 4601   3.647   0.373   3.473
 1532TIP3    H1 4602   3.569   0.411   3.518
 1532TIP3    H2 4603   3.684   0.452   3.428
 1533TIP3   OH2 4604   2.249   0.073   4.259
 1533TIP3    H1 4605   2.345   0.080   4.242
 1533TIP3    H2 4606   2.250   0.037   4.349
 1534TIP3   OH2 4607   2.240  -0.229   3.609
 1534TIP3    H1 4608   2.316  -0.284   3.579
 1534TIP3    H2 4609   2.284  -0.143   3.612
 1535TIP3   OH2 4610   2.045   0.038   3.672
 1535TIP3    H1 4611   2.096   0.051   3.590
 1535TIP3    H2 4612   2.072   0.114   3.725
 1536TIP3   OH2 4613   3.193   1.252   2.687
 1536TIP3    H1 4614   3.252   1.251   2.609
 1536TIP3    H2 4615   3.236   1.318   2.744
 1537TIP3   OH2 4616   2.293   1.058   4.064
 1537TIP3    H1 4617   2.198   1.041   4.056
 1537TIP3    H2 4618   2.307   1.046   4.159
 1538TIP3   OH2 4619   2.484   1.099   3.620
 1538TIP3    H1 4620   2.435   1.175   3.583
 1538TIP3    H2 4621   2.568   1.112   3.571
 1539TIP3   OH2 4622   2.906   1.329   3.751
 1539TIP3    H1 4623   2.948   1.327   3.840
 1539TIP3    H2 4624   2.971   1.385   3.703
 1540TIP3   OH2 4625   3.089   1.491   3.627
 1540TIP3    H1 4626   3.160   1.444   3.580
 1540TIP3    H2 4627   3.143   1.550   3.685
 1541TIP3   OH2 4628   2.150   1.347   3.654
 1541TIP3    H1 4629   2.056   1.368   3.636
 1541TIP3    H2 4630   2.172   1.419   3.716
 1542TIP3   OH2 4631   2.383   1.326   3.508
 1542TIP3    H1 4632   2.295   1.335   3.551
 1542TIP3    H2 4633   2.365   1.358   3.418
 1543TIP3   OH2 4634   2.810   1.345   3.304
 1543TIP3    H1 4635   2.739   1.363   3.240
 1543TIP3    H2 4636   2.821   1.433   3.346
 1544TIP3   OH2 4637   3.080   1.283   3.359
 1544TIP3    H1 4638   2.987   1.305   3.339
 1544TIP3    H2 4639   3.127   1.353   3.310
 1545TIP3   OH2 4640   3.275   1.470   3.262
 1545TIP3    H1 4641   3.267   1.557   3.217
 1545TIP3    H2 4642   3.306   1.413   3.187
 1546TIP3   OH2 4643   2.059   1.134   3.384
 1546TIP3    H1 4644   2.085   1.101   3.473
 1546TIP3    H2 4645   2.134   1.098   3.332
 1547TIP3   OH2 4646   2.261   1.015   3.252
 1547TIP3    H1 4647   2.274   0.930   3.301
 1547TIP3    H2 4648   2.353   1.049   3.253
 1548TIP3   OH2 4649   2.529   1.097   3.263
 1548TIP3    H1 4650   2.554   1.003   3.258
 1548TIP3    H2 4651   2.585   1.124   3.339
 1549TIP3   OH2 4652   1.844   0.923   2.770
 1549TIP3    H1 4653   1.756   0.892   2.741
 1549TIP3    H2 4654   1.841   1.014   2.732
 1550TIP3   OH2 4655   2.625   1.084   2.363
 1550TIP3    H1 4656   2.711   1.110   2.324
 1550TIP3    H2 4657   2.602   1.010   2.302
 1551TIP3   OH2 4658   3.349   1.224   2.458
 1551TIP3    H1 4659   3.341   1.126   2.449
 1551TIP3    H2 4660   3.298   1.253   2.380
 1552TIP3   OH2 4661   1.925   0.926   2.415
 1552TIP3    H1 4662   1.937   0.940   2.509
 1552TIP3    H2 4663   2.009   0.879   2.391
 1553TIP3   OH2 4664   3.560   1.358   3.639
 1553TIP3    H1 4665   3.482   1.331   3.587
 1553TIP3    H2 4666   3.543   1.454   3.650
 1554TIP3   OH2 4667   4.831   0.736   2.408
 1554TIP3    H1 4668   4.784   0.815   2.372
 1554TIP3    H2 4669   4.767   0.666   2.391
 1555TIP3   OH2 4670   4.836   0.747   2.794
 1555TIP3    H1 4671   4.870   0.713   2.879
 1555TIP3    H2 4672   4.798   0.667   2.756
 1556TIP3   OH2 4673   4.125   0.625   3.151
 1556TIP3    H1 4674   4.158   0.557   3.213
 1556TIP3    H2 4675   4.209   0.664   3.121
 1557TIP3   OH2 4676   5.088   1.052   2.469
 1557TIP3    H1 4677   5.056   0.978   2.523
 1557TIP3    H2 4678   5.116   1.117   2.536
 1558TIP3   OH2 4679   4.113   1.041   2.868
 1558TIP3    H1 4680   4.102   0.943   2.868
 1558TIP3    H2 4681   4.209   1.048   2.855
 1559TIP3   OH2 4682   3.807   0.258   2.645
 1559TIP3    H1 4683   3.751   0.336   2.667
 1559TIP3    H2 4684   3.739   0.199   2.608
 1560TIP3   OH2 4685   3.867   0.528   2.849
 1560TIP3    H1 4686   3.921   0.449   2.872
 1560TIP3    H2 4687   3.928   0.579   2.793
 1561TIP3   OH2 4688   4.744   1.499   2.494
 1561TIP3    H1 4689   4.775   1.428   2.434
 1561TIP3    H2 4690   4.718   1.449   2.572
 1562TIP3   OH2 4691   4.628   0.963   2.834
 1562TIP3    H1 4692   4.674   0.888   2.794
 1562TIP3    H2 4693   4.706   1.015   2.862
 1563TIP3   OH2 4694   5.644   0.294   2.830
 1563TIP3    H1 4695   5.668   0.382   2.867
 1563TIP3    H2 4696   5.658   0.310   2.735
 1564TIP3   OH2 4697   5.032   0.442   2.861
 1564TIP3    H1 4698   5.096   0.370   2.854
 1564TIP3    H2 4699   4.995   0.443   2.770
 1565TIP3   OH2 4700   4.397   0.124   2.841
 1565TIP3    H1 4701   4.363   0.173   2.763
 1565TIP3    H2 4702   4.393   0.030   2.810
 1566TIP3   OH2 4703   5.069   0.181   2.502
 1566TIP3    H1 4704   5.161   0.196   2.534
 1566TIP3    H2 4705   5.065   0.233   2.420
 1567TIP3   OH2 4706   4.020   0.318   2.940
 1567TIP3    H1 4707   4.106   0.306   2.984
 1567TIP3    H2 4708   4.034   0.263   2.860
 1568TIP3   OH2 4709   4.446   0.519   2.748
 1568TIP3    H1 4710   4.543   0.505   2.751
 1568TIP3    H2 4711   4.414   0.433   2.713
 1569TIP3   OH2 4712   5.687   0.517   2.989
 1569TIP3    H1 4713   5.602   0.564   2.983
 1569TIP3    H2 4714   5.732   0.564   3.060
 1570TIP3   OH2 4715   4.375   0.092   3.266
 1570TIP3    H1 4716   4.322   0.109   3.186
 1570TIP3    H2 4717   4.310   0.115   3.335
 1571TIP3   OH2 4718   4.705   0.943   2.275
 1571TIP3    H1 4719   4.677   0.939   2.183
 1571TIP3    H2 4720   4.662   1.026   2.305
 1572TIP3   OH2 4721   4.486   0.882   3.051
 1572TIP3    H1 4722   4.431   0.957   3.083
 1572TIP3    H2 4723   4.533   0.924   2.975
 1573TIP3   OH2 4724   5.290   0.221   2.655
 1573TIP3    H1 4725   5.306   0.161   2.729
 1573TIP3    H2 4726   5.337   0.303   2.682
 1574TIP3   OH2 4727   4.255   0.223   3.051
 1574TIP3    H1 4728   4.319   0.291   3.079
 1574TIP3    H2 4729   4.304   0.184   2.975
 1575TIP3   OH2 4730   4.323   1.086   3.154
 1575TIP3    H1 4731   4.298   1.175   3.123
 1575TIP3    H2 4732   4.242   1.064   3.205
 1576TIP3   OH2 4733   3.699   0.771   2.390
 1576TIP3    H1 4734   3.660   0.798   2.305
 1576TIP3    H2 4735   3.730   0.858   2.425
 1577TIP3   OH2 4736   5.148   1.291   2.637
 1577TIP3    H1 4737   5.057   1.280   2.675
 1577TIP3    H2 4738   5.137   1.375   2.589
 1578TIP3   OH2 4739   4.837   1.326   2.293
 1578TIP3    H1 4740   4.888   1.243   2.279
 1578TIP3    H2 4741   4.903   1.391   2.258
 1579TIP3   OH2 4742   4.986   1.111   2.221
 1579TIP3    H1 4743   4.965   1.023   2.185
 1579TIP3    H2 4744   5.032   1.086   2.305
 1580TIP3   OH2 4745   5.375   1.187   2.980
 1580TIP3    H1 4746   5.356   1.112   2.920
 1580TIP3    H2 4747   5.354   1.263   2.923
 1581TIP3   OH2 4748   4.610   0.393   1.974
 1581TIP3    H1 4749   4.655   0.400   2.060
 1581TIP3    H2 4750   4.679   0.351   1.919
 1582TIP3   OH2 4751   5.559   0.840   2.829
 1582TIP3    H1 4752   5.474   0.890   2.824
 1582TIP3    H2 4753   5.592   0.854   2.737
 1583TIP3   OH2 4754   5.017   0.712   2.207
 1583TIP3    H1 4755   4.958   0.721   2.285
 1583TIP3    H2 4756   5.071   0.636   2.233
 1584TIP3   OH2 4757   5.224   0.724   3.124
 1584TIP3    H1 4758   5.222   0.811   3.167
 1584TIP3    H2 4759   5.135   0.721   3.082
 1585TIP3   OH2 4760   4.240   0.661   2.629
 1585TIP3    H1 4761   4.200   0.602   2.561
 1585TIP3    H2 4762   4.315   0.607   2.661
 1586TIP3   OH2 4763   4.373   1.080   2.764
 1586TIP3    H1 4764   4.356   1.059   2.670
 1586TIP3    H2 4765   4.459   1.037   2.780
 1587TIP3   OH2 4766   4.364   0.643   2.981
 1587TIP3    H1 4767   4.397   0.609   2.895
 1587TIP3    H2 4768   4.415   0.726   2.993
 1588TIP3   OH2 4769   4.908   1.278   2.760
 1588TIP3    H1 4770   4.893   1.356   2.816
 1588TIP3    H2 4771   4.888   1.204   2.821
 1589TIP3   OH2 4772   4.521   1.191   3.309
 1589TIP3    H1 4773   4.457   1.251   3.352
 1589TIP3    H2 4774   4.459   1.139   3.253
 1590TIP3   OH2 4775   4.280   0.734   3.434
 1590TIP3    H1 4776   4.284   0.829   3.457
 1590TIP3    H2 4777   4.183   0.720   3.437
 1591TIP3   OH2 4778   4.601   1.196   2.308
 1591TIP3    H1 4779   4.686   1.243   2.303
 1591TIP3    H2 4780   4.542   1.256   2.260
 1592TIP3   OH2 4781   4.313   1.349   3.395
 1592TIP3    H1 4782   4.280   1.362   3.304
 1592TIP3    H2 4783   4.230   1.328   3.445
 1593TIP3   OH2 4784   4.109   0.509   2.431
 1593TIP3    H1 4785   4.035   0.552   2.383
 1593TIP3    H2 4786   4.083   0.416   2.429
 1594TIP3   OH2 4787   5.169   1.130   1.635
 1594TIP3    H1 4788   5.170   1.226   1.619
 1594TIP3    H2 4789   5.264   1.109   1.625
 1595TIP3   OH2 4790   3.890   0.897   3.340
 1595TIP3    H1 4791   3.819   0.883   3.274
 1595TIP3    H2 4792   3.928   0.808   3.349
 1596TIP3   OH2 4793   3.745   1.087   2.971
 1596TIP3    H1 4794   3.842   1.092   2.968
 1596TIP3    H2 4795   3.723   1.166   3.022
 1597TIP3   OH2 4796   5.603   1.551   3.032
 1597TIP3    H1 4797   5.605   1.454   3.045
 1597TIP3    H2 4798   5.519   1.573   3.078
 1598TIP3   OH2 4799   4.715   1.317   3.166
 1598TIP3    H1 4800   4.706   1.411   3.194
 1598TIP3    H2 4801   4.643   1.276   3.219
 1599TIP3   OH2 4802   4.488   1.447   2.115
 1599TIP3    H1 4803   4.433   1.431   2.037
 1599TIP3    H2 4804   4.449   1.530   2.150
 1600TIP3   OH2 4805   3.918   1.294   2.503
 1600TIP3    H1 4806   3.962   1.286   2.590
 1600TIP3    H2 4807   3.876   1.207   2.494
 1601TIP3   OH2 4808   4.678   1.355   1.747
 1601TIP3    H1 4809   4.734   1.281   1.715
 1601TIP3    H2 4810   4.713   1.368   1.838
 1602TIP3   OH2 4811   4.736   1.404   2.014
 1602TIP3    H1 4812   4.648   1.414   2.056
 1602TIP3    H2 4813   4.787   1.366   2.087
 1603TIP3   OH2 4814   5.503   0.668   3.314
 1603TIP3    H1 4815   5.418   0.678   3.268
 1603TIP3    H2 4816   5.522   0.573   3.300
 1604TIP3   OH2 4817   4.097   1.075   3.310
 1604TIP3    H1 4818   4.141   1.063   3.396
 1604TIP3    H2 4819   4.021   1.015   3.319
 1605TIP3   OH2 4820   5.263   0.465   3.222
 1605TIP3    H1 4821   5.211   0.462   3.305
 1605TIP3    H2 4822   5.238   0.553   3.185
 1606TIP3   OH2 4823   4.947   0.500   1.764
 1606TIP3    H1 4824   4.903   0.515   1.678
 1606TIP3    H2 4825   4.985   0.587   1.784
 1607TIP3   OH2 4826   4.436   0.421   3.127
 1607TIP3    H1 4827   4.383   0.439   3.208
 1607TIP3    H2 4828   4.414   0.500   3.074
 1608TIP3   OH2 4829   4.306   0.296   2.648
 1608TIP3    H1 4830   4.212   0.272   2.661
 1608TIP3    H2 4831   4.321   0.259   2.558
 1609TIP3   OH2 4832   4.980   0.648   3.449
 1609TIP3    H1 4833   4.964   0.585   3.522
 1609TIP3    H2 4834   5.072   0.675   3.469
 1610TIP3   OH2 4835   4.958   0.416   2.597
 1610TIP3    H1 4836   4.908   0.438   2.516
 1610TIP3    H2 4837   4.982   0.324   2.574
 1611TIP3   OH2 4838   4.264   0.467   3.330
 1611TIP3    H1 4839   4.273   0.543   3.390
 1611TIP3    H2 4840   4.253   0.391   3.392
 1612TIP3   OH2 4841   4.350   0.026   2.056
 1612TIP3    H1 4842   4.326   0.008   2.148
 1612TIP3    H2 4843   4.266   0.065   2.024
 1613TIP3   OH2 4844   3.865  -0.034   2.879
 1613TIP3    H1 4845   3.894   0.018   2.955
 1613TIP3    H2 4846   3.897  -0.122   2.903
 1614TIP3   OH2 4847   3.836  -0.028   2.477
 1614TIP3    H1 4848   3.849   0.014   2.389
 1614TIP3    H2 4849   3.757   0.020   2.505
 1615TIP3   OH2 4850   4.966   0.649   3.025
 1615TIP3    H1 4851   4.994   0.576   2.964
 1615TIP3    H2 4852   4.933   0.596   3.100
 1616TIP3   OH2 4853   4.653   0.162   2.728
 1616TIP3    H1 4854   4.566   0.157   2.772
 1616TIP3    H2 4855   4.709   0.125   2.799
 1617TIP3   OH2 4856   4.059   0.185   2.698
 1617TIP3    H1 4857   3.969   0.219   2.675
 1617TIP3    H2 4858   4.044   0.091   2.684
 1618TIP3   OH2 4859   4.336   0.172   2.409
 1618TIP3    H1 4860   4.433   0.188   2.401
 1618TIP3    H2 4861   4.299   0.213   2.327
 1619TIP3   OH2 4862   4.193   0.250   2.188
 1619TIP3    H1 4863   4.131   0.196   2.137
 1619TIP3    H2 4864   4.249   0.284   2.114
 1620TIP3   OH2 4865   5.313   1.886   3.134
 1620TIP3    H1 4866   5.307   1.912   3.040
 1620TIP3    H2 4867   5.394   1.933   3.162
 1621TIP3   OH2 4868   4.258   0.994   3.545
 1621TIP3    H1 4869   4.336   1.026   3.594
 1621TIP3    H2 4870   4.190   0.997   3.615
 1622TIP3   OH2 4871   4.715   0.475   2.798
 1622TIP3    H1 4872   4.761   0.411   2.742
 1622TIP3    H2 4873   4.713   0.429   2.884
 1623TIP3   OH2 4874   4.701   0.375   3.068
 1623TIP3    H1 4875   4.609   0.400   3.090
 1623TIP3    H2 4876   4.753   0.433   3.128
 1624TIP3   OH2 4877   4.384   0.783   2.169
 1624TIP3    H1 4878   4.338   0.697   2.166
 1624TIP3    H2 4879   4.388   0.797   2.267
 1625TIP3   OH2 4880   5.323   0.977   2.808
 1625TIP3    H1 4881   5.343   1.028   2.727
 1625TIP3    H2 4882   5.240   0.931   2.783
 1626TIP3   OH2 4883   4.887   0.085   2.045
 1626TIP3    H1 4884   4.793   0.070   2.031
 1626TIP3    H2 4885   4.889   0.174   2.086
 1627TIP3   OH2 4886   4.830   1.060   3.187
 1627TIP3    H1 4887   4.865   1.055   3.277
 1627TIP3    H2 4888   4.792   1.149   3.184
 1628TIP3   OH2 4889   4.126   0.766   2.854
 1628TIP3    H1 4890   4.162   0.737   2.767
 1628TIP3    H2 4891   4.183   0.717   2.915
 1629TIP3   OH2 4892   4.577   0.892   2.009
 1629TIP3    H1 4893   4.531   0.979   2.010
 1629TIP3    H2 4894   4.517   0.841   2.068
 1630TIP3   OH2 4895   4.014   0.674   3.471
 1630TIP3    H1 4896   4.014   0.661   3.568
 1630TIP3    H2 4897   3.937   0.620   3.446
 1631TIP3   OH2 4898   4.739   0.804   3.495
 1631TIP3    H1 4899   4.666   0.745   3.469
 1631TIP3    H2 4900   4.815   0.759   3.453
 1632TIP3   OH2 4901   4.988   1.321   3.086
 1632TIP3    H1 4902   4.891   1.319   3.099
 1632TIP3    H2 4903   5.015   1.374   3.164
 1633TIP3   OH2 4904   5.408   0.389   1.979
 1633TIP3    H1 4905   5.358   0.341   1.909
 1633TIP3    H2 4906   5.397   0.479   1.944
 1634TIP3   OH2 4907   5.623   1.270   3.065
 1634TIP3    H1 4908   5.526   1.256   3.061
 1634TIP3    H2 4909   5.648   1.232   2.978
 1635TIP3   OH2 4910   5.109   1.209   1.907
 1635TIP3    H1 4911   5.074   1.144   1.971
 1635TIP3    H2 4912   5.115   1.158   1.825
 1636TIP3   OH2 4913   5.096   0.838   2.729
 1636TIP3    H1 4914   5.001   0.817   2.740
 1636TIP3    H2 4915   5.127   0.757   2.683
 1637TIP3   OH2 4916   4.234   1.072   2.496
 1637TIP3    H1 4917   4.226   1.150   2.437
 1637TIP3    H2 4918   4.142   1.046   2.507
 1638TIP3   OH2 4919   3.796   0.369   2.199
 1638TIP3    H1 4920   3.839   0.454   2.222
 1638TIP3    H2 4921   3.717   0.372   2.258
 1639TIP3   OH2 4922   4.356   0.827   2.435
 1639TIP3    H1 4923   4.325   0.917   2.455
 1639TIP3    H2 4924   4.318   0.776   2.509
 1640TIP3   OH2 4925   4.503   1.406   2.954
 1640TIP3    H1 4926   4.544   1.480   2.904
 1640TIP3    H2 4927   4.581   1.367   2.996
 1641TIP3   OH2 4928   4.142   1.306   2.340
 1641TIP3    H1 4929   4.057   1.316   2.387
 1641TIP3    H2 4930   4.176   1.398   2.344
 1642TIP3   OH2 4931   4.875   1.049   2.917
 1642TIP3    H1 4932   4.867   1.045   3.015
 1642TIP3    H2 4933   4.943   0.983   2.900
 1643TIP3   OH2 4934   4.866   0.938   1.796
 1643TIP3    H1 4935   4.924   0.923   1.875
 1643TIP3    H2 4936   4.781   0.906   1.831
 1644TIP3   OH2 4937   5.131   1.570   2.965
 1644TIP3    H1 4938   5.050   1.516   2.963
 1644TIP3    H2 4939   5.113   1.634   2.893
 1645TIP3   OH2 4940   5.193   1.406   1.615
 1645TIP3    H1 4941   5.220   1.478   1.556
 1645TIP3    H2 4942   5.115   1.448   1.657
 1646TIP3   OH2 4943   4.253   0.243   3.490
 1646TIP3    H1 4944   4.190   0.168   3.479
 1646TIP3    H2 4945   4.310   0.210   3.561
 1647TIP3   OH2 4946   5.034   0.887   2.002
 1647TIP3    H1 4947   5.016   0.822   2.074
 1647TIP3    H2 4948   5.130   0.875   1.993
 1648TIP3   OH2 4949   3.938   1.270   3.108
 1648TIP3    H1 4950   3.995   1.209   3.157
 1648TIP3    H2 4951   3.953   1.354   3.155
 1649TIP3   OH2 4952   4.216   0.916   1.803
 1649TIP3    H1 4953   4.229   0.822   1.782
 1649TIP3    H2 4954   4.196   0.912   1.898
 1650TIP3   OH2 4955   4.165   0.918   2.071
 1650TIP3    H1 4956   4.248   0.880   2.108
 1650TIP3    H2 4957   4.175   1.013   2.091
 1651TIP3   OH2 4958   3.894   0.611   2.282
 1651TIP3    H1 4959   3.826   0.659   2.335
 1651TIP3    H2 4960   3.909   0.678   2.211
 1652TIP3   OH2 4961   3.777   6.508   1.939
 1652TIP3    H1 4962   3.858   6.528   1.891
 1652TIP3    H2 4963   3.787   6.413   1.956
 1653TIP3   OH2 4964   4.933  -0.004   2.300
 1653TIP3    H1 4965   4.931   0.015   2.204
 1653TIP3    H2 4966   4.913   0.086   2.334
 1654TIP3   OH2 4967   4.439   1.123   2.018
 1654TIP3    H1 4968   4.350   1.136   2.057
 1654TIP3    H2 4969   4.447   1.206   1.967
 1655TIP3   OH2 4970   4.605   0.179   2.433
 1655TIP3    H1 4971   4.678   0.229   2.389
 1655TIP3    H2 4972   4.639   0.174   2.525
 1656TIP3   OH2 4973   4.895   0.491   3.234
 1656TIP3    H1 4974   4.930   0.536   3.314
 1656TIP3    H2 4975   4.940   0.403   3.236
 1657TIP3   OH2 4976   4.187   1.192   2.096
 1657TIP3    H1 4977   4.156   1.264   2.036
 1657TIP3    H2 4978   4.169   1.233   2.183
 1658TIP3   OH2 4979   4.253  -0.070   2.310
 1658TIP3    H1 4980   4.283   0.007   2.364
 1658TIP3    H2 4981   4.315  -0.141   2.338
 1659TIP3   OH2 4982   5.528   0.404   3.207
 1659TIP3    H1 4983   5.432   0.417   3.198
 1659TIP3    H2 4984   5.555   0.387   3.116
 1660TIP3   OH2 4985   5.176   0.596   2.614
 1660TIP3    H1 4986   5.100   0.534   2.607
 1660TIP3    H2 4987   5.245   0.541   2.657
 1661TIP3   OH2 4988   3.906   0.805   2.080
 1661TIP3    H1 4989   3.985   0.863   2.088
 1661TIP3    H2 4990   3.942   0.741   2.015
 1662TIP3   OH2 4991   3.836   0.100   2.236
 1662TIP3    H1 4992   3.839   0.197   2.242
 1662TIP3    H2 4993   3.790   0.089   2.152
 1663TIP3   OH2 4994   5.155   1.560   2.554
 1663TIP3    H1 4995   5.111   1.607   2.479
 1663TIP3    H2 4996   5.249   1.577   2.533
 1664TIP3   OH2 4997   3.751   1.035   2.459
 1664TIP3    H1 4998   3.708   1.067   2.540
 1664TIP3    H2 4999   3.706   1.086   2.388
 1665TIP3   OH2 5000   3.932   1.598   3.535
 1665TIP3    H1 5001   4.018   1.601   3.583
 1665TIP3    H2 5002   3.914   1.503   3.536
 1666TIP3   OH2 5003   4.397   1.525   3.589
 1666TIP3    H1 5004   4.493   1.519   3.585
 1666TIP3    H2 5005   4.371   1.462   3.519
 1667TIP3   OH2 5006   4.381   1.110   1.703
 1667TIP3    H1 5007   4.322   1.043   1.746
 1667TIP3    H2 5008   4.459   1.055   1.686
 1668TIP3   OH2 5009   5.038   1.454   3.321
 1668TIP3    H1 5010   5.042   1.384   3.390
 1668TIP3    H2 5011   5.115   1.510   3.346
 1669TIP3   OH2 5012   4.817   1.148   1.631
 1669TIP3    H1 5013   4.846   1.077   1.693
 1669TIP3    H2 5014   4.878   1.139   1.556
 1670TIP3   OH2 5015   4.054   0.989   3.736
 1670TIP3    H1 5016   4.065   0.893   3.748
 1670TIP3    H2 5017   3.967   0.994   3.690
 1671TIP3   OH2 5018   4.040   0.619   1.942
 1671TIP3    H1 5019   4.100   0.600   2.017
 1671TIP3    H2 5020   4.106   0.629   1.870
 1672TIP3   OH2 5021   4.661   1.081   3.514
 1672TIP3    H1 5022   4.617   1.108   3.430
 1672TIP3    H2 5023   4.691   0.990   3.494
 1673TIP3   OH2 5024   4.563   0.838   1.741
 1673TIP3    H1 5025   4.560   0.850   1.838
 1673TIP3    H2 5026   4.563   0.740   1.736
 1674TIP3   OH2 5027   5.155   1.097   3.127
 1674TIP3    H1 5028   5.231   1.135   3.080
 1674TIP3    H2 5029   5.086   1.163   3.107
 1675TIP3   OH2 5030   4.179   0.727   3.733
 1675TIP3    H1 5031   4.259   0.706   3.683
 1675TIP3    H2 5032   4.216   0.760   3.818
 1676TIP3   OH2 5033   4.229   0.553   2.142
 1676TIP3    H1 5034   4.205   0.508   2.225
 1676TIP3    H2 5035   4.275   0.482   2.094
 1677TIP3   OH2 5036   4.536   0.635   3.412
 1677TIP3    H1 5037   4.445   0.672   3.405
 1677TIP3    H2 5038   4.572   0.653   3.322
 1678TIP3   OH2 5039   4.341   0.354   1.989
 1678TIP3    H1 5040   4.320   0.361   1.893
 1678TIP3    H2 5041   4.439   0.356   1.986
 1679TIP3   OH2 5042   5.031   1.009   3.511
 1679TIP3    H1 5043   5.098   0.962   3.459
 1679TIP3    H2 5044   5.019   0.950   3.587
 1680TIP3   OH2 5045   5.179   0.667   1.654
 1680TIP3    H1 5046   5.150   0.608   1.581
 1680TIP3    H2 5047   5.127   0.748   1.635
 1681TIP3   OH2 5048   4.658   0.439   3.536
 1681TIP3    H1 5049   4.639   0.365   3.471
 1681TIP3    H2 5050   4.609   0.511   3.489
 1682TIP3   OH2 5051   4.590   0.249   3.359
 1682TIP3    H1 5052   4.636   0.256   3.273
 1682TIP3    H2 5053   4.506   0.208   3.333
 1683TIP3   OH2 5054   4.651   0.713   3.186
 1683TIP3    H1 5055   4.739   0.740   3.156
 1683TIP3    H2 5056   4.593   0.777   3.139
 1684TIP3   OH2 5057   5.232   0.695   3.552
 1684TIP3    H1 5058   5.267   0.640   3.625
 1684TIP3    H2 5059   5.313   0.728   3.510
 1685TIP3   OH2 5060   5.278   0.948   3.314
 1685TIP3    H1 5061   5.223   1.006   3.257
 1685TIP3    H2 5062   5.367   0.968   3.277
 1686TIP3   OH2 5063   4.527   0.554   3.757
 1686TIP3    H1 5064   4.442   0.505   3.761
 1686TIP3    H2 5065   4.561   0.525   3.671
 1687TIP3   OH2 5066   4.922   0.420   3.606
 1687TIP3    H1 5067   4.893   0.427   3.699
 1687TIP3    H2 5068   4.832   0.418   3.566
 1688TIP3   OH2 5069   5.166   0.395   3.478
 1688TIP3    H1 5070   5.074   0.393   3.512
 1688TIP3    H2 5071   5.213   0.433   3.553
 1689TIP3   OH2 5072   4.316   0.372   3.765
 1689TIP3    H1 5073   4.363   0.296   3.727
 1689TIP3    H2 5074   4.295   0.338   3.853
 1690TIP3   OH2 5075   4.160   1.401   1.908
 1690TIP3    H1 5076   4.252   1.382   1.883
 1690TIP3    H2 5077   4.133   1.455   1.832
 1691TIP3   OH2 5078   3.633   0.784   2.109
 1691TIP3    H1 5079   3.729   0.801   2.098
 1691TIP3    H2 5080   3.626   0.695   2.068
 1692TIP3   OH2 5081   3.554   1.387   2.541
 1692TIP3    H1 5082   3.488   1.330   2.496
 1692TIP3    H2 5083   3.596   1.323   2.601
 1693TIP3   OH2 5084   3.684   1.221   2.722
 1693TIP3    H1 5085   3.669   1.161   2.797
 1693TIP3    H2 5086   3.737   1.290   2.766
 1694TIP3   OH2 5087   5.417   1.632   2.526
 1694TIP3    H1 5088   5.438   1.662   2.617
 1694TIP3    H2 5089   5.482   1.680   2.473
 1695TIP3   OH2 5090   5.438   1.657   2.807
 1695TIP3    H1 5091   5.388   1.572   2.805
 1695TIP3    H2 5092   5.511   1.631   2.865
 1696TIP3   OH2 5093   5.493   1.334   3.382
 1696TIP3    H1 5094   5.419   1.344   3.446
 1696TIP3    H2 5095   5.533   1.423   3.385
 1697TIP3   OH2 5096   5.308   0.850   1.986
 1697TIP3    H1 5097   5.376   0.914   1.959
 1697TIP3    H2 5098   5.348   0.812   2.068
 1698TIP3   OH2 5099   5.431   0.721   2.194
 1698TIP3    H1 5100   5.366   0.675   2.252
 1698TIP3    H2 5101   5.498   0.752   2.258
 1699TIP3   OH2 5102   5.490   1.116   2.628
 1699TIP3    H1 5103   5.539   1.042   2.588
 1699TIP3    H2 5104   5.486   1.181   2.555
 1700TIP3   OH2 5105   5.311   1.410   2.826
 1700TIP3    H1 5106   5.237   1.451   2.876
 1700TIP3    H2 5107   5.262   1.366   2.752
 1701TIP3   OH2 5108   5.365   0.623   1.845
 1701TIP3    H1 5109   5.294   0.630   1.778
 1701TIP3    H2 5110   5.340   0.698   1.903
 1702TIP3   OH2 5111   5.239   0.301   1.784
 1702TIP3    H1 5112   5.170   0.369   1.779
 1702TIP3    H2 5113   5.188   0.220   1.794
 1703TIP3   OH2 5114   5.261   0.574   2.347
 1703TIP3    H1 5115   5.257   0.476   2.337
 1703TIP3    H2 5116   5.231   0.587   2.439
 1704TIP3   OH2 5117   3.860   0.642   3.097
 1704TIP3    H1 5118   3.855   0.605   3.006
 1704TIP3    H2 5119   3.958   0.646   3.108
 1705TIP3   OH2 5120   5.526   1.009   3.209
 1705TIP3    H1 5121   5.596   0.943   3.190
 1705TIP3    H2 5122   5.532   1.068   3.133
 1706TIP3   OH2 5123   5.709   0.802   3.199
 1706TIP3    H1 5124   5.638   0.755   3.246
 1706TIP3    H2 5125   5.788   0.752   3.229
 1707TIP3   OH2 5126   5.244   0.306   2.260
 1707TIP3    H1 5127   5.221   0.215   2.239
 1707TIP3    H2 5128   5.283   0.336   2.176
 1708TIP3   OH2 5129   5.390   0.463   2.734
 1708TIP3    H1 5130   5.474   0.484   2.687
 1708TIP3    H2 5131   5.404   0.511   2.818
 1709TIP3   OH2 5132   5.440   0.630   2.957
 1709TIP3    H1 5133   5.362   0.669   3.002
 1709TIP3    H2 5134   5.477   0.708   2.910
 1710TIP3   OH2 5135   4.040   0.329   3.745
 1710TIP3    H1 5136   4.134   0.333   3.720
 1710TIP3    H2 5137   4.047   0.299   3.837
 1711TIP3   OH2 5138   4.037   0.029   3.097
 1711TIP3    H1 5139   4.111  -0.028   3.068
 1711TIP3    H2 5140   4.081   0.116   3.095
 1712TIP3   OH2 5141   3.840   0.296   3.160
 1712TIP3    H1 5142   3.891   0.305   3.076
 1712TIP3    H2 5143   3.863   0.377   3.206
 1713TIP3   OH2 5144   4.993   1.510   2.175
 1713TIP3    H1 5145   5.049   1.504   2.095
 1713TIP3    H2 5146   5.040   1.576   2.229
 1714TIP3   OH2 5147   4.092   1.310   3.554
 1714TIP3    H1 5148   3.995   1.297   3.541
 1714TIP3    H2 5149   4.100   1.303   3.649
 1715TIP3   OH2 5150   4.281   1.356   3.109
 1715TIP3    H1 5151   4.230   1.432   3.072
 1715TIP3    H2 5152   4.364   1.370   3.059
 1716TIP3   OH2 5153   4.702   1.584   3.238
 1716TIP3    H1 5154   4.743   1.583   3.327
 1716TIP3    H2 5155   4.766   1.641   3.190
 1717TIP3   OH2 5156   4.883   1.749   3.113
 1717TIP3    H1 5157   4.950   1.699   3.064
 1717TIP3    H2 5158   4.939   1.805   3.170
 1718TIP3   OH2 5159   3.948   1.604   3.141
 1718TIP3    H1 5160   3.853   1.623   3.120
 1718TIP3    H2 5161   3.965   1.675   3.205
 1719TIP3   OH2 5162   4.181   1.584   2.996
 1719TIP3    H1 5163   4.093   1.593   3.039
 1719TIP3    H2 5164   4.161   1.614   2.905
 1720TIP3   OH2 5165   4.606   1.602   2.791
 1720TIP3    H1 5166   4.533   1.617   2.727
 1720TIP3    H2 5167   4.615   1.691   2.831
 1721TIP3   OH2 5168   4.875   1.544   2.849
 1721TIP3    H1 5169   4.782   1.561   2.828
 1721TIP3    H2 5170   4.920   1.610   2.794
 1722TIP3   OH2 5171   5.080   1.733   2.751
 1722TIP3    H1 5172   5.066   1.817   2.703
 1722TIP3    H2 5173   5.107   1.673   2.677
 1723TIP3   OH2 5174   3.857   1.393   2.868
 1723TIP3    H1 5175   3.880   1.358   2.957
 1723TIP3    H2 5176   3.932   1.354   2.818
 1724TIP3   OH2 5177   4.058   1.271   2.738
 1724TIP3    H1 5178   4.071   1.186   2.788
 1724TIP3    H2 5179   4.150   1.304   2.737
 1725TIP3   OH2 5180   4.327   1.355   2.747
 1725TIP3    H1 5181   4.351   1.261   2.740
 1725TIP3    H2 5182   4.381   1.380   2.825
 1726TIP3   OH2 5183   3.641   1.181   2.255
 1726TIP3    H1 5184   3.554   1.150   2.226
 1726TIP3    H2 5185   3.638   1.272   2.219
 1727TIP3   OH2 5186   4.420   1.340   1.846
 1727TIP3    H1 5187   4.507   1.365   1.808
 1727TIP3    H2 5188   4.397   1.265   1.787
 1728TIP3   OH2 5189   5.147   1.477   1.945
 1728TIP3    H1 5190   5.138   1.379   1.937
 1728TIP3    H2 5191   5.095   1.506   1.867
 1729TIP3   OH2 5192   3.720   1.183   1.899
 1729TIP3    H1 5193   3.728   1.194   1.995
 1729TIP3    H2 5194   3.805   1.137   1.877
 1730TIP3   OH2 5195   5.354   1.613   3.130
 1730TIP3    H1 5196   5.277   1.586   3.075
 1730TIP3    H2 5197   5.337   1.709   3.139
 1731TIP3   OH2 5198   5.932   0.903   2.624
 1731TIP3    H1 5199   5.945   0.821   2.677
 1731TIP3    H2 5200   6.013   0.950   2.649
 1732TIP3   OH2 5201   5.864   1.287   2.352
 1732TIP3    H1 5202   5.835   1.195   2.359
 1732TIP3    H2 5203   5.959   1.276   2.372
 1733TIP3   OH2 5204   5.603   0.512   2.139
 1733TIP3    H1 5205   5.544   0.588   2.154
 1733TIP3    H2 5206   5.540   0.449   2.101
 1734TIP3   OH2 5207   5.664   0.786   2.342
 1734TIP3    H1 5208   5.709   0.699   2.349
 1734TIP3    H2 5209   5.740   0.845   2.324
 1735TIP3   OH2 5210   5.839   0.581   2.430
 1735TIP3    H1 5211   5.924   0.627   2.429
 1735TIP3    H2 5212   5.852   0.512   2.361
 1736TIP3   OH2 5213   6.050   1.301   2.623
 1736TIP3    H1 5214   6.034   1.397   2.606
 1736TIP3    H2 5215   5.992   1.291   2.701
 1737TIP3   OH2 5216   5.508   1.026   1.878
 1737TIP3    H1 5217   5.464   1.055   1.796
 1737TIP3    H2 5218   5.539   1.112   1.914
 1738TIP3   OH2 5219   6.055   0.980   2.961
 1738TIP3    H1 5220   6.057   1.078   2.962
 1738TIP3    H2 5221   5.958   0.966   2.960
 1739TIP3   OH2 5222   6.071   1.652   2.889
 1739TIP3    H1 5223   6.031   1.631   2.802
 1739TIP3    H2 5224   6.001   1.619   2.951
 1740TIP3   OH2 5225   5.679   1.157   2.826
 1740TIP3    H1 5226   5.608   1.143   2.760
 1740TIP3    H2 5227   5.712   1.067   2.842
 1741TIP3   OH2 5228   5.542   1.345   2.451
 1741TIP3    H1 5229   5.639   1.347   2.443
 1741TIP3    H2 5230   5.526   1.419   2.511
 1742TIP3   OH2 5231   5.696   1.555   2.002
 1742TIP3    H1 5232   5.746   1.550   2.087
 1742TIP3    H2 5233   5.646   1.471   2.004
 1743TIP3   OH2 5234   5.869   1.354   2.826
 1743TIP3    H1 5235   5.922   1.333   2.906
 1743TIP3    H2 5236   5.798   1.286   2.831
 1744TIP3   OH2 5237   5.994   0.729   2.830
 1744TIP3    H1 5238   6.039   0.804   2.873
 1744TIP3    H2 5239   5.996   0.661   2.900
 1745TIP3   OH2 5240   5.668   0.228   2.394
 1745TIP3    H1 5241   5.716   0.262   2.472
 1745TIP3    H2 5242   5.707   0.140   2.385
 1746TIP3   OH2 5243   5.636   0.231   1.972
 1746TIP3    H1 5244   5.668   0.256   1.883
 1746TIP3    H2 5245   5.560   0.291   1.979
 1747TIP3   OH2 5246   5.844   0.405   2.204
 1747TIP3    H1 5247   5.776   0.465   2.166
 1747TIP3    H2 5248   5.784   0.330   2.222
 1748TIP3   OH2 5249   6.042   1.252   3.033
 1748TIP3    H1 5250   6.131   1.277   3.062
 1748TIP3    H2 5251   5.989   1.264   3.115
 1749TIP3   OH2 5252   5.893   0.951   2.354
 1749TIP3    H1 5253   5.972   1.004   2.333
 1749TIP3    H2 5254   5.916   0.923   2.444
 1750TIP3   OH2 5255   5.779   0.933   2.971
 1750TIP3    H1 5256   5.765   0.898   3.062
 1750TIP3    H2 5257   5.714   0.879   2.922
 1751TIP3   OH2 5258   5.949   1.311   1.946
 1751TIP3    H1 5259   5.909   1.386   1.895
 1751TIP3    H2 5260   5.879   1.290   2.009
 1752TIP3   OH2 5261   5.579   0.628   1.673
 1752TIP3    H1 5262   5.632   0.705   1.702
 1752TIP3    H2 5263   5.511   0.624   1.744
 1753TIP3   OH2 5264   5.900   1.563   1.825
 1753TIP3    H1 5265   5.823   1.573   1.886
 1753TIP3    H2 5266   5.875   1.625   1.755
 1754TIP3   OH2 5267   6.028   0.516   3.019
 1754TIP3    H1 5268   5.979   0.439   2.982
 1754TIP3    H2 5269   6.116   0.476   3.031
 1755TIP3   OH2 5270   5.722   1.530   2.594
 1755TIP3    H1 5271   5.779   1.469   2.642
 1755TIP3    H2 5272   5.739   1.613   2.641
 1756TIP3   OH2 5273   5.707   0.864   1.758
 1756TIP3    H1 5274   5.646   0.904   1.823
 1756TIP3    H2 5275   5.711   0.934   1.691
 1757TIP3   OH2 5276   5.708   1.069   1.565
 1757TIP3    H1 5277   5.718   1.164   1.549
 1757TIP3    H2 5278   5.779   1.033   1.509
 1758TIP3   OH2 5279   5.645   0.359   1.711
 1758TIP3    H1 5280   5.632   0.454   1.692
 1758TIP3    H2 5281   5.572   0.319   1.662
 1759TIP3   OH2 5282   5.554   1.300   1.953
 1759TIP3    H1 5283   5.497   1.317   2.030
 1759TIP3    H2 5284   5.507   1.346   1.880
 1760TIP3   OH2 5285   5.721   1.850   3.017
 1760TIP3    H1 5286   5.803   1.856   3.073
 1760TIP3    H2 5287   5.704   1.755   3.020
 1761TIP3   OH2 5288   6.175   1.803   3.107
 1761TIP3    H1 5289   6.269   1.830   3.101
 1761TIP3    H2 5290   6.157   1.768   3.017
 1762TIP3   OH2 5291   5.847   1.243   3.236
 1762TIP3    H1 5292   5.870   1.148   3.229
 1762TIP3    H2 5293   5.763   1.246   3.185
 1763TIP3   OH2 5294   5.961   0.996   3.228
 1763TIP3    H1 5295   6.019   0.956   3.161
 1763TIP3    H2 5296   6.015   0.994   3.308
 1764TIP3   OH2 5297   5.434   1.054   1.600
 1764TIP3    H1 5298   5.530   1.062   1.587
 1764TIP3    H2 5299   5.418   0.964   1.564
 1765TIP3   OH2 5300   5.347   1.644   2.029
 1765TIP3    H1 5301   5.282   1.585   1.984
 1765TIP3    H2 5302   5.390   1.580   2.089
 1766TIP3   OH2 5303   5.478   1.478   2.210
 1766TIP3    H1 5304   5.463   1.417   2.285
 1766TIP3    H2 5305   5.530   1.547   2.256
 1767TIP3   OH2 5306   5.656   0.901   2.586
 1767TIP3    H1 5307   5.644   0.853   2.501
 1767TIP3    H2 5308   5.753   0.909   2.590
 1768TIP3   OH2 5309   5.910   0.615   3.245
 1768TIP3    H1 5310   5.939   0.583   3.157
 1768TIP3    H2 5311   5.936   0.538   3.300
 1769TIP3   OH2 5312   5.859   0.290   2.582
 1769TIP3    H1 5313   5.942   0.241   2.568
 1769TIP3    H2 5314   5.895   0.379   2.585
 1770TIP3   OH2 5315   5.640   0.545   2.644
 1770TIP3    H1 5316   5.695   0.547   2.564
 1770TIP3    H2 5317   5.677   0.617   2.695
 1771TIP3   OH2 5318   5.876   1.573   3.074
 1771TIP3    H1 5319   5.786   1.552   3.045
 1771TIP3    H2 5320   5.872   1.552   3.168
 1772TIP3   OH2 5321   6.033   1.577   2.604
 1772TIP3    H1 5322   5.991   1.651   2.554
 1772TIP3    H2 5323   6.126   1.601   2.588
 1773TIP3   OH2 5324   5.742   1.857   2.626
 1773TIP3    H1 5325   5.649   1.882   2.603
 1773TIP3    H2 5326   5.761   1.924   2.693
 1774TIP3   OH2 5327   5.974   1.815   2.488
 1774TIP3    H1 5328   5.885   1.833   2.527
 1774TIP3    H2 5329   5.962   1.852   2.397
 1775TIP3   OH2 5330   5.651   1.651   2.355
 1775TIP3    H1 5331   5.671   1.613   2.444
 1775TIP3    H2 5332   5.730   1.619   2.307
 1776TIP3   OH2 5333   5.857   1.528   2.226
 1776TIP3    H1 5334   5.852   1.440   2.271
 1776TIP3    H2 5335   5.952   1.543   2.231
 1777TIP3   OH2 5336   5.440   1.435   1.739
 1777TIP3    H1 5337   5.352   1.402   1.712
 1777TIP3    H2 5338   5.432   1.527   1.705
 1778TIP3   OH2 5339   5.497   1.449   1.395
 1778TIP3    H1 5340   5.499   1.462   1.491
 1778TIP3    H2 5341   5.576   1.391   1.381
 1779TIP3   OH2 5342   0.879   2.042   3.059
 1779TIP3    H1 5343   0.842   2.129   3.035
 1779TIP3    H2 5344   0.809   1.984   3.023
 1780TIP3   OH2 5345   0.876   2.043   3.468
 1780TIP3    H1 5346   0.920   2.023   3.554
 1780TIP3    H2 5347   0.838   1.956   3.447
 1781TIP3   OH2 5348   0.179   1.919   3.818
 1781TIP3    H1 5349   0.208   1.850   3.880
 1781TIP3    H2 5350   0.264   1.957   3.791
 1782TIP3   OH2 5351   1.130   2.346   3.142
 1782TIP3    H1 5352   1.112   2.277   3.208
 1782TIP3    H2 5353   1.163   2.419   3.197
 1783TIP3   OH2 5354   0.150   2.349   3.553
 1783TIP3    H1 5355   0.141   2.252   3.541
 1783TIP3    H2 5356   0.246   2.357   3.538
 1784TIP3   OH2 5357  -0.148   1.553   3.332
 1784TIP3    H1 5358  -0.181   1.637   3.367
 1784TIP3    H2 5359  -0.224   1.497   3.351
 1785TIP3   OH2 5360  -0.073   1.833   3.518
 1785TIP3    H1 5361  -0.025   1.752   3.544
 1785TIP3    H2 5362  -0.030   1.860   3.436
 1786TIP3   OH2 5363   0.789   2.803   3.158
 1786TIP3    H1 5364   0.818   2.731   3.098
 1786TIP3    H2 5365   0.770   2.754   3.238
 1787TIP3   OH2 5366   0.675   2.265   3.497
 1787TIP3    H1 5367   0.721   2.187   3.463
 1787TIP3    H2 5368   0.754   2.317   3.525
 1788TIP3   OH2 5369   1.699   1.580   3.501
 1788TIP3    H1 5370   1.728   1.664   3.542
 1788TIP3    H2 5371   1.726   1.594   3.408
 1789TIP3   OH2 5372   1.088   1.758   3.523
 1789TIP3    H1 5373   1.133   1.675   3.546
 1789TIP3    H2 5374   1.053   1.737   3.434
 1790TIP3   OH2 5375   0.440   1.421   3.490
 1790TIP3    H1 5376   0.422   1.497   3.431
 1790TIP3    H2 5377   0.392   1.351   3.440
 1791TIP3   OH2 5378   1.132   1.516   3.111
 1791TIP3    H1 5379   1.201   1.505   3.180
 1791TIP3    H2 5380   1.186   1.548   3.037
 1792TIP3   OH2 5381   0.058   1.608   3.610
 1792TIP3    H1 5382   0.143   1.591   3.655
 1792TIP3    H2 5383   0.073   1.558   3.527
 1793TIP3   OH2 5384   0.499   1.823   3.410
 1793TIP3    H1 5385   0.594   1.801   3.416
 1793TIP3    H2 5386   0.461   1.739   3.375
 1794TIP3   OH2 5387   1.770   1.792   3.672
 1794TIP3    H1 5388   1.684   1.837   3.662
 1794TIP3    H2 5389   1.809   1.842   3.747
 1795TIP3   OH2 5390   0.423   1.404   3.933
 1795TIP3    H1 5391   0.367   1.443   3.863
 1795TIP3    H2 5392   0.367   1.419   4.012
 1796TIP3   OH2 5393   0.760   2.254   2.931
 1796TIP3    H1 5394   0.725   2.247   2.840
 1796TIP3    H2 5395   0.711   2.332   2.964
 1797TIP3   OH2 5396   0.533   2.180   3.711
 1797TIP3    H1 5397   0.478   2.254   3.745
 1797TIP3    H2 5398   0.579   2.222   3.635
 1798TIP3   OH2 5399   1.318   1.529   3.306
 1798TIP3    H1 5400   1.296   1.495   3.394
 1798TIP3    H2 5401   1.371   1.608   3.329
 1799TIP3   OH2 5402   0.300   1.515   3.710
 1799TIP3    H1 5403   0.360   1.590   3.732
 1799TIP3    H2 5404   0.350   1.476   3.635
 1800TIP3   OH2 5405   0.376   2.382   3.820
 1800TIP3    H1 5406   0.360   2.476   3.794
 1800TIP3    H2 5407   0.292   2.364   3.868
 1801TIP3   OH2 5408  -0.266   2.059   3.031
 1801TIP3    H1 5409  -0.360   2.067   3.054
 1801TIP3    H2 5410  -0.231   2.142   3.070
 1802TIP3   OH2 5411   1.184   2.592   3.293
 1802TIP3    H1 5412   1.094   2.581   3.333
 1802TIP3    H2 5413   1.175   2.678   3.249
 1803TIP3   OH2 5414   1.492   1.469   3.660
 1803TIP3    H1 5415   1.407   1.501   3.627
 1803TIP3    H2 5416   1.555   1.505   3.595
 1804TIP3   OH2 5417   0.772   1.112   3.646
 1804TIP3    H1 5418   0.753   1.019   3.670
 1804TIP3    H2 5419   0.699   1.158   3.693
 1805TIP3   OH2 5420   0.880   2.632   2.953
 1805TIP3    H1 5421   0.932   2.549   2.943
 1805TIP3    H2 5422   0.945   2.697   2.920
 1806TIP3   OH2 5423   1.028   2.413   2.895
 1806TIP3    H1 5424   0.989   2.330   2.865
 1806TIP3    H2 5425   1.074   2.385   2.977
 1807TIP3   OH2 5426   1.411   2.492   3.639
 1807TIP3    H1 5427   1.400   2.413   3.581
 1807TIP3    H2 5428   1.397   2.565   3.576
 1808TIP3   OH2 5429   0.710   1.889   2.901
 1808TIP3    H1 5430   0.630   1.944   2.892
 1808TIP3    H2 5431   0.732   1.874   2.807
 1809TIP3   OH2 5432   0.637   1.664   2.634
 1809TIP3    H1 5433   0.725   1.697   2.657
 1809TIP3    H2 5434   0.652   1.615   2.551
 1810TIP3   OH2 5435   1.605   2.131   3.490
 1810TIP3    H1 5436   1.523   2.185   3.492
 1810TIP3    H2 5437   1.642   2.157   3.403
 1811TIP3   OH2 5438   1.060   1.971   2.870
 1811TIP3    H1 5439   1.005   1.997   2.947
 1811TIP3    H2 5440   1.144   1.948   2.915
 1812TIP3   OH2 5441   1.291   2.002   3.804
 1812TIP3    H1 5442   1.293   2.085   3.856
 1812TIP3    H2 5443   1.207   2.013   3.756
 1813TIP3   OH2 5444   0.289   1.962   3.292
 1813TIP3    H1 5445   0.250   1.903   3.224
 1813TIP3    H2 5446   0.364   1.910   3.325
 1814TIP3   OH2 5447   0.416   2.386   3.431
 1814TIP3    H1 5448   0.400   2.361   3.338
 1814TIP3    H2 5449   0.502   2.343   3.449
 1815TIP3   OH2 5450   0.419   1.938   3.650
 1815TIP3    H1 5451   0.452   1.908   3.562
 1815TIP3    H2 5452   0.465   2.024   3.660
 1816TIP3   OH2 5453   0.947   2.578   3.423
 1816TIP3    H1 5454   0.937   2.656   3.481
 1816TIP3    H2 5455   0.932   2.503   3.484
 1817TIP3   OH2 5456   0.573   2.494   3.970
 1817TIP3    H1 5457   0.509   2.553   4.015
 1817TIP3    H2 5458   0.512   2.439   3.916
 1818TIP3   OH2 5459   0.910   1.833   2.683
 1818TIP3    H1 5460   0.963   1.888   2.745
 1818TIP3    H2 5461   0.908   1.891   2.606
 1819TIP3   OH2 5462   0.325   2.043   4.090
 1819TIP3    H1 5463   0.327   2.135   4.125
 1819TIP3    H2 5464   0.229   2.031   4.079
 1820TIP3   OH2 5465   0.644   2.498   2.973
 1820TIP3    H1 5466   0.729   2.546   2.968
 1820TIP3    H2 5467   0.586   2.555   2.921
 1821TIP3   OH2 5468   0.363   2.646   4.062
 1821TIP3    H1 5469   0.340   2.664   3.968
 1821TIP3    H2 5470   0.286   2.596   4.094
 1822TIP3   OH2 5471   1.413   1.061   2.752
 1822TIP3    H1 5472   1.330   1.086   2.797
 1822TIP3    H2 5473   1.429   1.141   2.697
 1823TIP3   OH2 5474   0.160   1.809   3.091
 1823TIP3    H1 5475   0.089   1.856   3.042
 1823TIP3    H2 5476   0.121   1.722   3.105
 1824TIP3   OH2 5477   1.218   2.431   2.305
 1824TIP3    H1 5478   1.225   2.526   2.283
 1824TIP3    H2 5479   1.310   2.401   2.288
 1825TIP3   OH2 5480  -0.020   2.156   3.937
 1825TIP3    H1 5481  -0.031   2.088   3.867
 1825TIP3    H2 5482  -0.008   2.099   4.015
 1826TIP3   OH2 5483  -0.147   2.387   3.654
 1826TIP3    H1 5484  -0.052   2.373   3.639
 1826TIP3    H2 5485  -0.148   2.431   3.741
 1827TIP3   OH2 5486   1.638   2.874   3.677
 1827TIP3    H1 5487   1.672   2.785   3.698
 1827TIP3    H2 5488   1.558   2.878   3.735
 1828TIP3   OH2 5489   0.758   2.626   3.825
 1828TIP3    H1 5490   0.748   2.718   3.857
 1828TIP3    H2 5491   0.689   2.580   3.878
 1829TIP3   OH2 5492   0.532   2.745   2.778
 1829TIP3    H1 5493   0.480   2.723   2.698
 1829TIP3    H2 5494   0.490   2.828   2.807
 1830TIP3   OH2 5495  -0.023   2.585   3.163
 1830TIP3    H1 5496   0.023   2.567   3.249
 1830TIP3    H2 5497  -0.117   2.571   3.188
 1831TIP3   OH2 5498   0.724   2.656   2.411
 1831TIP3    H1 5499   0.780   2.583   2.376
 1831TIP3    H2 5500   0.761   2.667   2.501
 1832TIP3   OH2 5501   0.781   2.705   2.679
 1832TIP3    H1 5502   0.692   2.714   2.719
 1832TIP3    H2 5503   0.830   2.665   2.753
 1833TIP3   OH2 5504   1.538   1.963   3.974
 1833TIP3    H1 5505   1.455   1.966   3.925
 1833TIP3    H2 5506   1.558   1.867   3.972
 1834TIP3   OH2 5507   0.141   2.380   3.964
 1834TIP3    H1 5508   0.156   2.380   4.060
 1834TIP3    H2 5509   0.076   2.308   3.954
 1835TIP3   OH2 5510   0.548   1.202   3.786
 1835TIP3    H1 5511   0.461   1.168   3.756
 1835TIP3    H2 5512   0.518   1.281   3.834
 1836TIP3   OH2 5513   1.083   1.310   3.974
 1836TIP3    H1 5514   1.155   1.286   4.036
 1836TIP3    H2 5515   1.002   1.294   4.027
 1837TIP3   OH2 5516   1.298   1.737   3.883
 1837TIP3    H1 5517   1.252   1.740   3.970
 1837TIP3    H2 5518   1.284   1.829   3.850
 1838TIP3   OH2 5519   0.714   1.243   2.768
 1838TIP3    H1 5520   0.667   1.229   2.853
 1838TIP3    H2 5521   0.672   1.173   2.714
 1839TIP3   OH2 5522   0.471   1.714   3.793
 1839TIP3    H1 5523   0.424   1.735   3.876
 1839TIP3    H2 5524   0.457   1.797   3.742
 1840TIP3   OH2 5525   0.357   1.609   3.315
 1840TIP3    H1 5526   0.265   1.580   3.333
 1840TIP3    H2 5527   0.368   1.574   3.223
 1841TIP3   OH2 5528   0.841   1.691   3.047
 1841TIP3    H1 5529   0.797   1.763   2.997
 1841TIP3    H2 5530   0.901   1.654   2.979
 1842TIP3   OH2 5531   1.021   1.956   4.117
 1842TIP3    H1 5532   0.998   1.884   4.179
 1842TIP3    H2 5533   1.115   1.970   4.140
 1843TIP3   OH2 5534   0.997   1.704   3.273
 1843TIP3    H1 5535   0.930   1.727   3.204
 1843TIP3    H2 5536   1.040   1.630   3.225
 1844TIP3   OH2 5537   0.293   1.743   4.004
 1844TIP3    H1 5538   0.344   1.802   4.062
 1844TIP3    H2 5539   0.284   1.663   4.058
 1845TIP3   OH2 5540   0.295   1.157   2.788
 1845TIP3    H1 5541   0.291   1.183   2.882
 1845TIP3    H2 5542   0.291   1.242   2.742
 1846TIP3   OH2 5543  -0.155   1.269   3.613
 1846TIP3    H1 5544  -0.076   1.288   3.667
 1846TIP3    H2 5545  -0.118   1.235   3.531
 1847TIP3   OH2 5546  -0.123   1.280   3.116
 1847TIP3    H1 5547  -0.079   1.286   3.030
 1847TIP3    H2 5548  -0.176   1.361   3.114
 1848TIP3   OH2 5549   1.006   1.953   3.691
 1848TIP3    H1 5550   1.041   1.884   3.630
 1848TIP3    H2 5551   0.975   1.896   3.765
 1849TIP3   OH2 5552   0.702   1.416   3.367
 1849TIP3    H1 5553   0.625   1.419   3.427
 1849TIP3    H2 5554   0.776   1.403   3.429
 1850TIP3   OH2 5555   0.119   1.487   3.369
 1850TIP3    H1 5556   0.027   1.491   3.334
 1850TIP3    H2 5557   0.148   1.396   3.345
 1851TIP3   OH2 5558   0.381   1.497   3.070
 1851TIP3    H1 5559   0.477   1.503   3.049
 1851TIP3    H2 5560   0.338   1.503   2.982
 1852TIP3   OH2 5561   1.174   1.500   3.574
 1852TIP3    H1 5562   1.148   1.515   3.667
 1852TIP3    H2 5563   1.102   1.442   3.544
 1853TIP3   OH2 5564   0.242   1.503   2.836
 1853TIP3    H1 5565   0.150   1.493   2.811
 1853TIP3    H2 5566   0.281   1.543   2.755
 1854TIP3   OH2 5567   1.355   3.191   3.802
 1854TIP3    H1 5568   1.356   3.207   3.706
 1854TIP3    H2 5569   1.439   3.232   3.829
 1855TIP3   OH2 5570   0.305   2.286   4.223
 1855TIP3    H1 5571   0.387   2.309   4.272
 1855TIP3    H2 5572   0.242   2.349   4.260
 1856TIP3   OH2 5573   0.764   1.759   3.466
 1856TIP3    H1 5574   0.838   1.720   3.417
 1856TIP3    H2 5575   0.766   1.709   3.550
 1857TIP3   OH2 5576   0.275   1.256   3.332
 1857TIP3    H1 5577   0.279   1.170   3.379
 1857TIP3    H2 5578   0.282   1.226   3.238
 1858TIP3   OH2 5579   0.739   1.659   3.753
 1858TIP3    H1 5580   0.649   1.692   3.771
 1858TIP3    H2 5581   0.796   1.720   3.804
 1859TIP3   OH2 5582   0.477   2.037   2.852
 1859TIP3    H1 5583   0.407   1.970   2.837
 1859TIP3    H2 5584   0.451   2.071   2.941
 1860TIP3   OH2 5585   1.370   2.278   3.468
 1860TIP3    H1 5586   1.399   2.327   3.389
 1860TIP3    H2 5587   1.288   2.235   3.437
 1861TIP3   OH2 5588   0.944   1.367   2.709
 1861TIP3    H1 5589   0.853   1.332   2.726
 1861TIP3    H2 5590   0.942   1.455   2.749
 1862TIP3   OH2 5591   0.869   2.357   3.851
 1862TIP3    H1 5592   0.928   2.351   3.927
 1862TIP3    H2 5593   0.835   2.447   3.856
 1863TIP3   OH2 5594   1.001   1.610   2.835
 1863TIP3    H1 5595   1.097   1.610   2.849
 1863TIP3    H2 5596   0.989   1.687   2.776
 1864TIP3   OH2 5597   0.179   2.081   3.516
 1864TIP3    H1 5598   0.216   2.046   3.432
 1864TIP3    H2 5599   0.211   2.017   3.580
 1865TIP3   OH2 5600   0.629   2.190   2.686
 1865TIP3    H1 5601   0.577   2.274   2.685
 1865TIP3    H2 5602   0.573   2.134   2.744
 1866TIP3   OH2 5603   0.054   1.994   4.159
 1866TIP3    H1 5604   0.094   1.995   4.248
 1866TIP3    H2 5605   0.013   1.907   4.157
 1867TIP3   OH2 5606   0.789   2.105   4.159
 1867TIP3    H1 5607   0.729   2.048   4.108
 1867TIP3    H2 5608   0.876   2.067   4.132
 1868TIP3   OH2 5609   1.028   2.630   3.747
 1868TIP3    H1 5610   0.932   2.625   3.762
 1868TIP3    H2 5611   1.057   2.678   3.828
 1869TIP3   OH2 5612   1.418   1.695   2.649
 1869TIP3    H1 5613   1.341   1.663   2.596
 1869TIP3    H2 5614   1.426   1.784   2.608
 1870TIP3   OH2 5615   1.664   2.556   3.729
 1870TIP3    H1 5616   1.567   2.551   3.720
 1870TIP3    H2 5617   1.692   2.527   3.639
 1871TIP3   OH2 5618   1.148   2.512   2.566
 1871TIP3    H1 5619   1.120   2.440   2.625
 1871TIP3    H2 5620   1.164   2.466   2.482
 1872TIP3   OH2 5621   1.137   2.145   3.375
 1872TIP3    H1 5622   1.045   2.120   3.394
 1872TIP3    H2 5623   1.171   2.061   3.338
 1873TIP3   OH2 5624   0.284   2.374   3.157
 1873TIP3    H1 5625   0.280   2.452   3.098
 1873TIP3    H2 5626   0.190   2.351   3.165
 1874TIP3   OH2 5627  -0.167   1.681   2.894
 1874TIP3    H1 5628  -0.112   1.762   2.898
 1874TIP3    H2 5629  -0.254   1.716   2.917
 1875TIP3   OH2 5630   0.390   2.127   3.089
 1875TIP3    H1 5631   0.367   2.218   3.114
 1875TIP3    H2 5632   0.358   2.076   3.167
 1876TIP3   OH2 5633   0.555   2.711   3.614
 1876TIP3    H1 5634   0.599   2.782   3.563
 1876TIP3    H2 5635   0.631   2.669   3.657
 1877TIP3   OH2 5636   0.203   2.609   2.999
 1877TIP3    H1 5637   0.119   2.610   3.048
 1877TIP3    H2 5638   0.230   2.703   3.005
 1878TIP3   OH2 5639   0.920   2.351   3.584
 1878TIP3    H1 5640   0.907   2.346   3.681
 1878TIP3    H2 5641   0.998   2.294   3.573
 1879TIP3   OH2 5642   0.911   2.250   2.469
 1879TIP3    H1 5643   0.964   2.221   2.547
 1879TIP3    H2 5644   0.823   2.215   2.492
 1880TIP3   OH2 5645   1.172   2.872   3.632
 1880TIP3    H1 5646   1.094   2.813   3.632
 1880TIP3    H2 5647   1.152   2.932   3.557
 1881TIP3   OH2 5648   1.240   2.710   2.276
 1881TIP3    H1 5649   1.279   2.788   2.234
 1881TIP3    H2 5650   1.159   2.750   2.313
 1882TIP3   OH2 5651   0.279   1.489   4.168
 1882TIP3    H1 5652   0.215   1.523   4.234
 1882TIP3    H2 5653   0.331   1.430   4.226
 1883TIP3   OH2 5654   1.071   2.164   2.673
 1883TIP3    H1 5655   1.062   2.103   2.749
 1883TIP3    H2 5656   1.168   2.162   2.661
 1884TIP3   OH2 5657   0.056   2.606   3.755
 1884TIP3    H1 5658   0.117   2.532   3.765
 1884TIP3    H2 5659   0.002   2.599   3.836
 1885TIP3   OH2 5660   0.257   2.220   2.466
 1885TIP3    H1 5661   0.259   2.129   2.431
 1885TIP3    H2 5662   0.233   2.205   2.559
 1886TIP3   OH2 5663   0.207   2.225   2.741
 1886TIP3    H1 5664   0.289   2.200   2.785
 1886TIP3    H2 5665   0.210   2.324   2.747
 1887TIP3   OH2 5666  -0.046   1.920   2.940
 1887TIP3    H1 5667  -0.122   1.968   2.981
 1887TIP3    H2 5668  -0.028   1.980   2.865
 1888TIP3   OH2 5669   1.102   1.549   3.834
 1888TIP3    H1 5670   1.183   1.596   3.863
 1888TIP3    H2 5671   1.100   1.470   3.891
 1889TIP3   OH2 5672   0.989   1.292   3.013
 1889TIP3    H1 5673   0.966   1.317   2.922
 1889TIP3    H2 5674   1.032   1.373   3.046
 1890TIP3   OH2 5675   0.486   2.417   2.683
 1890TIP3    H1 5676   0.397   2.439   2.718
 1890TIP3    H2 5677   0.496   2.489   2.618
 1891TIP3   OH2 5678   0.660   1.491   3.104
 1891TIP3    H1 5679   0.722   1.565   3.088
 1891TIP3    H2 5680   0.673   1.477   3.201
 1892TIP3   OH2 5681   0.941   1.790   3.900
 1892TIP3    H1 5682   0.975   1.839   3.978
 1892TIP3    H2 5683   0.993   1.708   3.902
 1893TIP3   OH2 5684   0.809   1.188   3.199
 1893TIP3    H1 5685   0.797   1.269   3.253
 1893TIP3    H2 5686   0.876   1.220   3.134
 1894TIP3   OH2 5687   0.236   2.497   2.752
 1894TIP3    H1 5688   0.205   2.569   2.692
 1894TIP3    H2 5689   0.225   2.540   2.840
 1895TIP3   OH2 5690   0.331   1.228   3.064
 1895TIP3    H1 5691   0.343   1.324   3.076
 1895TIP3    H2 5692   0.423   1.202   3.043
 1896TIP3   OH2 5693   1.566   1.697   3.896
 1896TIP3    H1 5694   1.468   1.692   3.893
 1896TIP3    H2 5695   1.589   1.662   3.809
 1897TIP3   OH2 5696   1.224   1.892   3.275
 1897TIP3    H1 5697   1.148   1.834   3.290
 1897TIP3    H2 5698   1.295   1.847   3.326
 1898TIP3   OH2 5699  -0.046   2.115   2.744
 1898TIP3    H1 5700   0.038   2.165   2.753
 1898TIP3    H2 5701  -0.018   2.051   2.675
 1899TIP3   OH2 5702  -0.131   1.416   2.859
 1899TIP3    H1 5703  -0.117   1.513   2.863
 1899TIP3    H2 5704  -0.227   1.415   2.864
 1900TIP3   OH2 5705   1.219   2.867   3.215
 1900TIP3    H1 5706   1.176   2.919   3.144
 1900TIP3    H2 5707   1.313   2.877   3.190
 1901TIP3   OH2 5708   0.292   1.109   3.743
 1901TIP3    H1 5709   0.287   1.086   3.647
 1901TIP3    H2 5710   0.256   1.029   3.784
 1902TIP3   OH2 5711  -0.198   2.312   3.120
 1902TIP3    H1 5712  -0.241   2.388   3.164
 1902TIP3    H2 5713  -0.154   2.355   3.047
 1903TIP3   OH2 5714   0.053   2.785   4.199
 1903TIP3    H1 5715   0.099   2.850   4.258
 1903TIP3    H2 5716  -0.031   2.831   4.176
 1904TIP3   OH2 5717   0.439   2.837   4.247
 1904TIP3    H1 5718   0.534   2.823   4.252
 1904TIP3    H2 5719   0.414   2.769   4.180
 1905TIP3   OH2 5720   0.428   2.415   2.371
 1905TIP3    H1 5721   0.372   2.343   2.410
 1905TIP3    H2 5722   0.503   2.364   2.337
 1906TIP3   OH2 5723   1.080   2.754   3.985
 1906TIP3    H1 5724   1.080   2.682   4.053
 1906TIP3    H2 5725   1.160   2.805   4.012
 1907TIP3   OH2 5726   0.864   2.451   2.292
 1907TIP3    H1 5727   0.896   2.384   2.355
 1907TIP3    H2 5728   0.924   2.440   2.216
 1908TIP3   OH2 5729   0.066   2.269   4.404
 1908TIP3    H1 5730   0.111   2.184   4.398
 1908TIP3    H2 5731   0.011   2.266   4.324
 1909TIP3   OH2 5732   0.083   1.921   2.608
 1909TIP3    H1 5733   0.161   1.906   2.665
 1909TIP3    H2 5734   0.123   1.906   2.520
 1910TIP3   OH2 5735   0.703   2.380   4.180
 1910TIP3    H1 5736   0.667   2.407   4.093
 1910TIP3    H2 5737   0.740   2.291   4.160
 1911TIP3   OH2 5738   0.620   2.146   2.416
 1911TIP3    H1 5739   0.608   2.154   2.513
 1911TIP3    H2 5740   0.627   2.048   2.407
 1912TIP3   OH2 5741   1.195   2.405   3.787
 1912TIP3    H1 5742   1.276   2.437   3.743
 1912TIP3    H2 5743   1.133   2.477   3.763
 1913TIP3   OH2 5744   0.206   2.012   4.390
 1913TIP3    H1 5745   0.291   2.005   4.343
 1913TIP3    H2 5746   0.236   2.046   4.477
 1914TIP3   OH2 5747   0.288   1.844   2.816
 1914TIP3    H1 5748   0.259   1.807   2.902
 1914TIP3    H2 5749   0.314   1.764   2.766
 1915TIP3   OH2 5750   0.547   1.896   4.042
 1915TIP3    H1 5751   0.476   1.963   4.050
 1915TIP3    H2 5752   0.603   1.936   3.971
 1916TIP3   OH2 5753   0.364   1.648   2.639
 1916TIP3    H1 5754   0.346   1.689   2.553
 1916TIP3    H2 5755   0.463   1.652   2.643
 1917TIP3   OH2 5756   1.074   2.307   4.171
 1917TIP3    H1 5757   1.151   2.270   4.128
 1917TIP3    H2 5758   1.067   2.250   4.250
 1918TIP3   OH2 5759   1.224   1.968   2.323
 1918TIP3    H1 5760   1.185   1.920   2.248
 1918TIP3    H2 5761   1.177   2.054   2.312
 1919TIP3   OH2 5762   0.677   1.700   4.173
 1919TIP3    H1 5763   0.682   1.623   4.112
 1919TIP3    H2 5764   0.634   1.767   4.116
 1920TIP3   OH2 5765   0.683   1.488   3.982
 1920TIP3    H1 5766   0.714   1.528   3.898
 1920TIP3    H2 5767   0.590   1.465   3.960
 1921TIP3   OH2 5768   0.699   2.019   3.860
 1921TIP3    H1 5769   0.788   2.038   3.828
 1921TIP3    H2 5770   0.644   2.081   3.806
 1922TIP3   OH2 5771   1.282   1.981   4.222
 1922TIP3    H1 5772   1.328   1.900   4.249
 1922TIP3    H2 5773   1.355   2.035   4.188
 1923TIP3   OH2 5774   1.325   2.240   3.960
 1923TIP3    H1 5775   1.270   2.301   3.905
 1923TIP3    H2 5776   1.415   2.264   3.926
 1924TIP3   OH2 5777   0.563   1.803   4.410
 1924TIP3    H1 5778   0.495   1.735   4.430
 1924TIP3    H2 5779   0.593   1.776   4.321
 1925TIP3   OH2 5780   0.819   1.248   4.058
 1925TIP3    H1 5781   0.767   1.328   4.031
 1925TIP3    H2 5782   0.754   1.177   4.043
 1926TIP3   OH2 5783   0.939   1.741   4.266
 1926TIP3    H1 5784   0.925   1.723   4.361
 1926TIP3    H2 5785   0.849   1.721   4.232
 1927TIP3   OH2 5786   1.173   1.699   4.118
 1927TIP3    H1 5787   1.100   1.700   4.183
 1927TIP3    H2 5788   1.250   1.672   4.173
 1928TIP3   OH2 5789   1.395   1.641   4.269
 1928TIP3    H1 5790   1.417   1.546   4.281
 1928TIP3    H2 5791   1.396   1.675   4.361
 1929TIP3   OH2 5792   0.386   1.606   4.489
 1929TIP3    H1 5793   0.396   1.519   4.444
 1929TIP3    H2 5794   0.437   1.587   4.571
 1930TIP3   OH2 5795   0.895   1.254   4.320
 1930TIP3    H1 5796   0.963   1.183   4.313
 1930TIP3    H2 5797   0.863   1.254   4.228
 1931TIP3   OH2 5798   0.973   1.468   4.471
 1931TIP3    H1 5799   0.952   1.395   4.408
 1931TIP3    H2 5800   0.893   1.524   4.464
 1932TIP3   OH2 5801   0.209   2.713   2.578
 1932TIP3    H1 5802   0.300   2.692   2.550
 1932TIP3    H2 5803   0.178   2.757   2.497
 1933TIP3   OH2 5804  -0.327   2.091   2.728
 1933TIP3    H1 5805  -0.232   2.116   2.734
 1933TIP3    H2 5806  -0.337   2.038   2.809
 1934TIP3   OH2 5807   1.493   2.941   3.187
 1934TIP3    H1 5808   1.500   2.938   3.284
 1934TIP3    H2 5809   1.493   3.039   3.177
 1935TIP3   OH2 5810   1.483   2.952   3.465
 1935TIP3    H1 5811   1.433   2.868   3.467
 1935TIP3    H2 5812   1.550   2.933   3.534
 1936TIP3   OH2 5813   1.526   2.643   4.041
 1936TIP3    H1 5814   1.463   2.655   4.115
 1936TIP3    H2 5815   1.581   2.724   4.048
 1937TIP3   OH2 5816   1.348   2.149   2.656
 1937TIP3    H1 5817   1.412   2.216   2.623
 1937TIP3    H2 5818   1.396   2.113   2.734
 1938TIP3   OH2 5819   1.478   2.015   2.861
 1938TIP3    H1 5820   1.410   1.977   2.922
 1938TIP3    H2 5821   1.546   2.049   2.923
 1939TIP3   OH2 5822   1.527   2.411   3.284
 1939TIP3    H1 5823   1.587   2.338   3.254
 1939TIP3    H2 5824   1.527   2.470   3.207
 1940TIP3   OH2 5825   1.350   2.712   3.480
 1940TIP3    H1 5826   1.278   2.748   3.536
 1940TIP3    H2 5827   1.300   2.666   3.409
 1941TIP3   OH2 5828   1.411   1.925   2.508
 1941TIP3    H1 5829   1.342   1.932   2.437
 1941TIP3    H2 5830   1.383   2.002   2.563
 1942TIP3   OH2 5831   1.214   1.619   2.445
 1942TIP3    H1 5832   1.279   1.639   2.376
 1942TIP3    H2 5833   1.223   1.521   2.449
 1943TIP3   OH2 5834   1.283   1.881   3.006
 1943TIP3    H1 5835   1.293   1.785   2.997
 1943TIP3    H2 5836   1.267   1.891   3.103
 1944TIP3   OH2 5837  -0.083   1.946   3.764
 1944TIP3    H1 5838  -0.091   1.925   3.669
 1944TIP3    H2 5839   0.014   1.933   3.776
 1945TIP3   OH2 5840   1.580   2.306   3.866
 1945TIP3    H1 5841   1.647   2.236   3.852
 1945TIP3    H2 5842   1.613   2.378   3.810
 1946TIP3   OH2 5843   1.749   2.091   3.858
 1946TIP3    H1 5844   1.676   2.045   3.904
 1946TIP3    H2 5845   1.824   2.032   3.879
 1947TIP3   OH2 5846   1.235   1.354   2.433
 1947TIP3    H1 5847   1.305   1.312   2.487
 1947TIP3    H2 5848   1.161   1.291   2.443
 1948TIP3   OH2 5849   1.285   1.596   2.891
 1948TIP3    H1 5850   1.328   1.508   2.905
 1948TIP3    H2 5851   1.340   1.630   2.819
 1949TIP3   OH2 5852   1.437   1.758   3.396
 1949TIP3    H1 5853   1.522   1.780   3.351
 1949TIP3    H2 5854   1.456   1.798   3.483
 1950TIP3   OH2 5855   1.517   1.908   3.622
 1950TIP3    H1 5856   1.444   1.945   3.675
 1950TIP3    H2 5857   1.551   1.989   3.577
 1951TIP3   OH2 5858   0.134   1.590   4.378
 1951TIP3    H1 5859   0.220   1.608   4.422
 1951TIP3    H2 5860   0.078   1.566   4.453
 1952TIP3   OH2 5861   1.964   1.506   4.177
 1952TIP3    H1 5862   2.028   1.445   4.134
 1952TIP3    H2 5863   1.929   1.556   4.099
 1953TIP3   OH2 5864   1.391   1.346   2.937
 1953TIP3    H1 5865   1.438   1.327   3.021
 1953TIP3    H2 5866   1.330   1.269   2.932
 1954TIP3   OH2 5867   0.097   1.306   3.766
 1954TIP3    H1 5868   0.168   1.240   3.755
 1954TIP3    H2 5869   0.146   1.388   3.751
 1955TIP3   OH2 5870  -0.122   1.634   3.829
 1955TIP3    H1 5871  -0.066   1.617   3.750
 1955TIP3    H2 5872  -0.111   1.729   3.841
 1956TIP3   OH2 5873   1.826   1.633   3.980
 1956TIP3    H1 5874   1.744   1.681   4.005
 1956TIP3    H2 5875   1.788   1.561   3.926
 1957TIP3   OH2 5876   1.461   1.269   2.577
 1957TIP3    H1 5877   1.501   1.204   2.516
 1957TIP3    H2 5878   1.528   1.340   2.579
 1958TIP3   OH2 5879  -0.137   1.123   3.338
 1958TIP3    H1 5880  -0.233   1.112   3.326
 1958TIP3    H2 5881  -0.115   1.171   3.255
 1959TIP3   OH2 5882   1.036   2.820   2.840
 1959TIP3    H1 5883   1.084   2.804   2.755
 1959TIP3    H2 5884   1.102   2.869   2.890
 1960TIP3   OH2 5885   0.154   2.542   4.236
 1960TIP3    H1 5886   0.110   2.626   4.208
 1960TIP3    H2 5887   0.171   2.564   4.329
 1961TIP3   OH2 5888   0.344   2.651   3.782
 1961TIP3    H1 5889   0.270   2.699   3.742
 1961TIP3    H2 5890   0.418   2.685   3.727
 1962TIP3   OH2 5891   0.747   2.894   3.905
 1962TIP3    H1 5892   0.790   2.887   3.993
 1962TIP3    H2 5893   0.814   2.945   3.856
 1963TIP3   OH2 5894   0.933   3.049   3.774
 1963TIP3    H1 5895   1.002   2.995   3.733
 1963TIP3    H2 5896   0.988   3.106   3.833
 1964TIP3   OH2 5897   1.732   1.397   3.866
 1964TIP3    H1 5898   1.645   1.383   3.826
 1964TIP3    H2 5899   1.772   1.308   3.859
 1965TIP3   OH2 5900   0.014   2.976   3.791
 1965TIP3    H1 5901  -0.043   3.033   3.736
 1965TIP3    H2 5902   0.037   3.039   3.862
 1966TIP3   OH2 5903   0.242   2.883   3.648
 1966TIP3    H1 5904   0.157   2.900   3.692
 1966TIP3    H2 5905   0.222   2.907   3.555
 1967TIP3   OH2 5906   0.654   2.908   3.451
 1967TIP3    H1 5907   0.580   2.922   3.389
 1967TIP3    H2 5908   0.662   2.995   3.494
 1968TIP3   OH2 5909   0.921   2.845   3.509
 1968TIP3    H1 5910   0.828   2.864   3.486
 1968TIP3    H2 5911   0.968   2.915   3.460
 1969TIP3   OH2 5912   1.122   3.033   3.412
 1969TIP3    H1 5913   1.112   3.117   3.364
 1969TIP3    H2 5914   1.159   2.975   3.342
 1970TIP3   OH2 5915  -0.102   2.695   3.537
 1970TIP3    H1 5916  -0.059   2.672   3.622
 1970TIP3    H2 5917  -0.045   2.642   3.478
 1971TIP3   OH2 5918   0.104   2.569   3.402
 1971TIP3    H1 5919   0.114   2.489   3.458
 1971TIP3    H2 5920   0.194   2.606   3.407
 1972TIP3   OH2 5921   0.374   2.660   3.412
 1972TIP3    H1 5922   0.396   2.564   3.407
 1972TIP3    H2 5923   0.430   2.684   3.488
 1973TIP3   OH2 5924   0.936   1.315   3.490
 1973TIP3    H1 5925   0.901   1.238   3.538
 1973TIP3    H2 5926   1.013   1.277   3.443
 1974TIP3   OH2 5927   1.448   1.200   3.387
 1974TIP3    H1 5928   1.486   1.250   3.312
 1974TIP3    H2 5929   1.355   1.228   3.384
 1975TIP3   OH2 5930   1.552   1.291   3.153
 1975TIP3    H1 5931   1.627   1.238   3.120
 1975TIP3    H2 5932   1.589   1.382   3.139
 1976TIP3   OH2 5933   0.250   1.030   3.486
 1976TIP3    H1 5934   0.153   1.014   3.492
 1976TIP3    H2 5935   0.283   0.938   3.479
 1977TIP3   OH2 5936   0.645   1.050   3.391
 1977TIP3    H1 5937   0.687   1.094   3.315
 1977TIP3    H2 5938   0.690   1.092   3.466
 1978TIP3   OH2 5939   1.161   1.205   3.366
 1978TIP3    H1 5940   1.177   1.160   3.282
 1978TIP3    H2 5941   1.159   1.128   3.428
 1979TIP3   OH2 5942   1.210   1.135   2.933
 1979TIP3    H1 5943   1.126   1.179   2.958
 1979TIP3    H2 5944   1.197   1.047   2.974
 1980TIP3   OH2 5945   0.604   1.237   3.020
 1980TIP3    H1 5946   0.665   1.193   3.081
 1980TIP3    H2 5947   0.625   1.331   3.039
 1981TIP3   OH2 5948   0.466   2.644   2.511
 1981TIP3    H1 5949   0.553   2.668   2.473
 1981TIP3    H2 5950   0.441   2.571   2.450
 1982TIP3   OH2 5951   1.182   2.778   2.609
 1982TIP3    H1 5952   1.176   2.680   2.599
 1982TIP3    H2 5953   1.137   2.807   2.527
 1983TIP3   OH2 5954   0.411   1.359   4.382
 1983TIP3    H1 5955   0.368   1.273   4.399
 1983TIP3    H2 5956   0.504   1.339   4.407
 1984TIP3   OH2 5957   0.660   1.313   4.494
 1984TIP3    H1 5958   0.741   1.287   4.446
 1984TIP3    H2 5959   0.663   1.254   4.571
 1985TIP3   OH2 5960  -0.223   2.501   2.572
 1985TIP3    H1 5961  -0.189   2.566   2.634
 1985TIP3    H2 5962  -0.140   2.451   2.551
 1986TIP3   OH2 5963   1.475   1.374   4.296
 1986TIP3    H1 5964   1.492   1.345   4.389
 1986TIP3    H2 5965   1.566   1.370   4.258
 1987TIP3   OH2 5966   1.390   2.916   3.799
 1987TIP3    H1 5967   1.312   2.891   3.744
 1987TIP3    H2 5968   1.376   3.012   3.810
 1988TIP3   OH2 5969   2.679   2.296   2.542
 1988TIP3    H1 5970   2.644   2.385   2.522
 1988TIP3    H2 5971   2.603   2.241   2.518
 1989TIP3   OH2 5972   2.672   2.281   2.946
 1989TIP3    H1 5973   2.716   2.283   3.033
 1989TIP3    H2 5974   2.631   2.193   2.947
 1990TIP3   OH2 5975   1.961   2.176   3.312
 1990TIP3    H1 5976   1.990   2.107   3.374
 1990TIP3    H2 5977   2.040   2.230   3.305
 1991TIP3   OH2 5978   2.926   2.605   2.631
 1991TIP3    H1 5979   2.911   2.538   2.699
 1991TIP3    H2 5980   2.948   2.683   2.685
 1992TIP3   OH2 5981   1.936   2.603   3.034
 1992TIP3    H1 5982   1.929   2.506   3.025
 1992TIP3    H2 5983   2.033   2.611   3.044
 1993TIP3   OH2 5984   1.648   1.788   2.790
 1993TIP3    H1 5985   1.606   1.871   2.819
 1993TIP3    H2 5986   1.573   1.745   2.745
 1994TIP3   OH2 5987   1.708   2.086   2.998
 1994TIP3    H1 5988   1.759   2.007   3.027
 1994TIP3    H2 5989   1.776   2.141   2.957
 1995TIP3   OH2 5990   2.556   3.075   2.643
 1995TIP3    H1 5991   2.593   2.988   2.625
 1995TIP3    H2 5992   2.530   3.070   2.737
 1996TIP3   OH2 5993   2.466   2.520   2.979
 1996TIP3    H1 5994   2.511   2.441   2.945
 1996TIP3    H2 5995   2.546   2.570   3.004
 1997TIP3   OH2 5996   3.498   1.840   2.992
 1997TIP3    H1 5997   3.523   1.924   3.034
 1997TIP3    H2 5998   3.512   1.861   2.898
 1998TIP3   OH2 5999   2.886   2.012   3.009
 1998TIP3    H1 6000   2.929   1.928   3.032
 1998TIP3    H2 6001   2.850   1.991   2.921
 1999TIP3   OH2 6002   2.235   1.677   2.977
 1999TIP3    H1 6003   2.215   1.750   2.915
 1999TIP3    H2 6004   2.182   1.605   2.938
 2000TIP3   OH2 6005   2.929   1.771   2.597
 2000TIP3    H1 6006   2.998   1.761   2.667
 2000TIP3    H2 6007   2.982   1.805   2.523
 2001TIP3   OH2 6008   1.858   1.878   3.092
 2001TIP3    H1 6009   1.942   1.862   3.139
 2001TIP3    H2 6010   1.874   1.825   3.010
 2002TIP3   OH2 6011   2.294   2.076   2.894
 2002TIP3    H1 6012   2.389   2.057   2.902
 2002TIP3    H2 6013   2.258   1.992   2.858
 2003TIP3   OH2 6014   3.568   2.054   3.157
 2003TIP3    H1 6015   3.481   2.098   3.149
 2003TIP3    H2 6016   3.607   2.103   3.232
 2004TIP3   OH2 6017   2.221   1.662   3.417
 2004TIP3    H1 6018   2.165   1.701   3.347
 2004TIP3    H2 6019   2.166   1.681   3.496
 2005TIP3   OH2 6020   2.561   2.515   2.414
 2005TIP3    H1 6021   2.522   2.509   2.326
 2005TIP3    H2 6022   2.514   2.593   2.450
 2006TIP3   OH2 6023   2.331   2.432   3.198
 2006TIP3    H1 6024   2.267   2.501   3.226
 2006TIP3    H2 6025   2.376   2.477   3.123
 2007TIP3   OH2 6026   3.111   1.782   2.799
 2007TIP3    H1 6027   3.073   1.762   2.886
 2007TIP3    H2 6028   3.165   1.861   2.819
 2008TIP3   OH2 6029   2.096   1.775   3.196
 2008TIP3    H1 6030   2.153   1.852   3.221
 2008TIP3    H2 6031   2.149   1.738   3.123
 2009TIP3   OH2 6032   2.136   2.616   3.275
 2009TIP3    H1 6033   2.172   2.706   3.271
 2009TIP3    H2 6034   2.080   2.621   3.354
 2010TIP3   OH2 6035   1.538   2.329   2.541
 2010TIP3    H1 6036   1.502   2.355   2.455
 2010TIP3    H2 6037   1.573   2.414   2.574
 2011TIP3   OH2 6038   2.948   2.841   2.790
 2011TIP3    H1 6039   2.870   2.850   2.847
 2011TIP3    H2 6040   2.951   2.927   2.743
 2012TIP3   OH2 6041   3.289   1.722   3.146
 2012TIP3    H1 6042   3.203   1.755   3.115
 2012TIP3    H2 6043   3.351   1.762   3.082
 2013TIP3   OH2 6044   2.563   1.369   3.137
 2013TIP3    H1 6045   2.545   1.275   3.160
 2013TIP3    H2 6046   2.489   1.413   3.183
 2014TIP3   OH2 6047   2.682   2.876   2.447
 2014TIP3    H1 6048   2.739   2.797   2.432
 2014TIP3    H2 6049   2.743   2.946   2.415
 2015TIP3   OH2 6050   2.834   2.661   2.376
 2015TIP3    H1 6051   2.779   2.583   2.362
 2015TIP3    H2 6052   2.879   2.637   2.461
 2016TIP3   OH2 6053   3.193   2.760   3.127
 2016TIP3    H1 6054   3.193   2.684   3.065
 2016TIP3    H2 6055   3.179   2.836   3.067
 2017TIP3   OH2 6056   2.502   2.142   2.393
 2017TIP3    H1 6057   2.424   2.196   2.372
 2017TIP3    H2 6058   2.550   2.142   2.308
 2018TIP3   OH2 6059   2.461   1.941   2.092
 2018TIP3    H1 6060   2.528   1.991   2.143
 2018TIP3    H2 6061   2.519   1.878   2.044
 2019TIP3   OH2 6062   3.388   2.370   2.961
 2019TIP3    H1 6063   3.311   2.431   2.972
 2019TIP3    H2 6064   3.431   2.411   2.884
 2020TIP3   OH2 6065   2.857   2.228   2.349
 2020TIP3    H1 6066   2.802   2.253   2.427
 2020TIP3    H2 6067   2.941   2.206   2.394
 2021TIP3   OH2 6068   3.085   2.257   3.286
 2021TIP3    H1 6069   3.091   2.340   3.339
 2021TIP3    H2 6070   2.999   2.270   3.242
 2022TIP3   OH2 6071   2.085   2.219   2.778
 2022TIP3    H1 6072   2.050   2.160   2.710
 2022TIP3    H2 6073   2.161   2.168   2.813
 2023TIP3   OH2 6074   2.218   2.634   2.921
 2023TIP3    H1 6075   2.206   2.608   2.829
 2023TIP3    H2 6076   2.307   2.597   2.941
 2024TIP3   OH2 6077   2.205   2.201   3.126
 2024TIP3    H1 6078   2.245   2.168   3.043
 2024TIP3    H2 6079   2.258   2.282   3.144
 2025TIP3   OH2 6080   2.684   2.090   2.186
 2025TIP3    H1 6081   2.748   2.149   2.233
 2025TIP3    H2 6082   2.712   2.105   2.092
 2026TIP3   OH2 6083   2.125   2.297   3.561
 2026TIP3    H1 6084   2.141   2.385   3.599
 2026TIP3    H2 6085   2.032   2.281   3.587
 2027TIP3   OH2 6086   2.443   2.758   2.455
 2027TIP3    H1 6087   2.530   2.803   2.455
 2027TIP3    H2 6088   2.385   2.828   2.422
 2028TIP3   OH2 6089   3.207   1.317   2.240
 2028TIP3    H1 6090   3.126   1.344   2.288
 2028TIP3    H2 6091   3.223   1.398   2.186
 2029TIP3   OH2 6092   1.958   2.066   2.570
 2029TIP3    H1 6093   1.880   2.106   2.527
 2029TIP3    H2 6094   1.927   1.976   2.588
 2030TIP3   OH2 6095   3.011   2.689   1.787
 2030TIP3    H1 6096   3.020   2.785   1.771
 2030TIP3    H2 6097   3.104   2.660   1.771
 2031TIP3   OH2 6098   1.741   2.460   3.487
 2031TIP3    H1 6099   1.675   2.431   3.422
 2031TIP3    H2 6100   1.783   2.376   3.515
 2032TIP3   OH2 6101   1.578   2.631   3.101
 2032TIP3    H1 6102   1.675   2.622   3.104
 2032TIP3    H2 6103   1.561   2.708   3.158
 2033TIP3   OH2 6104   3.435   3.078   3.138
 2033TIP3    H1 6105   3.452   2.991   3.179
 2033TIP3    H2 6106   3.483   3.141   3.192
 2034TIP3   OH2 6107   2.325   2.999   2.265
 2034TIP3    H1 6108   2.274   2.989   2.183
 2034TIP3    H2 6109   2.290   3.084   2.299
 2035TIP3   OH2 6110   1.754   2.851   2.655
 2035TIP3    H1 6111   1.793   2.848   2.746
 2035TIP3    H2 6112   1.722   2.760   2.645
 2036TIP3   OH2 6113   2.518   2.911   1.899
 2036TIP3    H1 6114   2.574   2.839   1.866
 2036TIP3    H2 6115   2.554   2.924   1.990
 2037TIP3   OH2 6116   2.575   2.963   2.166
 2037TIP3    H1 6117   2.488   2.968   2.211
 2037TIP3    H2 6118   2.632   2.935   2.240
 2038TIP3   OH2 6119   3.340   2.216   3.468
 2038TIP3    H1 6120   3.254   2.228   3.426
 2038TIP3    H2 6121   3.353   2.119   3.460
 2039TIP3   OH2 6122   1.947   2.706   3.472
 2039TIP3    H1 6123   2.011   2.718   3.546
 2039TIP3    H2 6124   1.896   2.629   3.502
 2040TIP3   OH2 6125   2.332   1.454   3.272
 2040TIP3    H1 6126   2.245   1.427   3.237
 2040TIP3    H2 6127   2.304   1.534   3.322
 2041TIP3   OH2 6128   2.874   1.563   3.462
 2041TIP3    H1 6129   2.945   1.542   3.526
 2041TIP3    H2 6130   2.792   1.550   3.514
 2042TIP3   OH2 6131   3.097   1.998   3.374
 2042TIP3    H1 6132   3.048   1.997   3.459
 2042TIP3    H2 6133   3.080   2.088   3.340
 2043TIP3   OH2 6134   2.767   2.114   1.931
 2043TIP3    H1 6135   2.730   2.102   1.841
 2043TIP3    H2 6136   2.855   2.153   1.910
 2044TIP3   OH2 6137   2.477   1.500   2.237
 2044TIP3    H1 6138   2.440   1.497   2.328
 2044TIP3    H2 6139   2.435   1.419   2.201
 2045TIP3   OH2 6140   2.263   1.977   3.273
 2045TIP3    H1 6141   2.230   2.001   3.361
 2045TIP3    H2 6142   2.242   2.060   3.223
 2046TIP3   OH2 6143   2.151   1.859   2.795
 2046TIP3    H1 6144   2.058   1.834   2.817
 2046TIP3    H2 6145   2.159   1.817   2.707
 2047TIP3   OH2 6146   2.636   1.939   2.529
 2047TIP3    H1 6147   2.591   2.012   2.482
 2047TIP3    H2 6148   2.695   1.903   2.459
 2048TIP3   OH2 6149   2.823   2.204   3.588
 2048TIP3    H1 6150   2.804   2.139   3.659
 2048TIP3    H2 6151   2.906   2.243   3.620
 2049TIP3   OH2 6152   2.792   1.959   2.760
 2049TIP3    H1 6153   2.726   1.987   2.693
 2049TIP3    H2 6154   2.832   1.885   2.709
 2050TIP3   OH2 6155   2.079   1.998   3.490
 2050TIP3    H1 6156   2.136   2.056   3.543
 2050TIP3    H2 6157   2.075   1.918   3.546
 2051TIP3   OH2 6158   2.138   1.480   2.201
 2051TIP3    H1 6159   2.125   1.481   2.298
 2051TIP3    H2 6160   2.061   1.533   2.172
 2052TIP3   OH2 6161   1.682   1.513   3.076
 2052TIP3    H1 6162   1.751   1.552   3.132
 2052TIP3    H2 6163   1.728   1.494   2.993
 2053TIP3   OH2 6164   1.623   1.498   2.590
 2053TIP3    H1 6165   1.669   1.534   2.511
 2053TIP3    H2 6166   1.561   1.571   2.606
 2054TIP3   OH2 6167   2.805   2.209   3.176
 2054TIP3    H1 6168   2.839   2.141   3.114
 2054TIP3    H2 6169   2.771   2.152   3.248
 2055TIP3   OH2 6170   2.495   1.669   2.851
 2055TIP3    H1 6171   2.417   1.673   2.911
 2055TIP3    H2 6172   2.569   1.662   2.915
 2056TIP3   OH2 6173   1.911   1.741   2.858
 2056TIP3    H1 6174   1.818   1.744   2.825
 2056TIP3    H2 6175   1.938   1.650   2.839
 2057TIP3   OH2 6176   2.166   1.728   2.557
 2057TIP3    H1 6177   2.260   1.744   2.539
 2057TIP3    H2 6178   2.122   1.751   2.472
 2058TIP3   OH2 6179   2.974   1.753   3.050
 2058TIP3    H1 6180   2.955   1.766   3.146
 2058TIP3    H2 6181   2.898   1.698   3.026
 2059TIP3   OH2 6182   2.037   1.768   2.322
 2059TIP3    H1 6183   1.972   1.721   2.267
 2059TIP3    H2 6184   2.091   1.811   2.252
 2060TIP3   OH2 6185   2.559   2.014   2.955
 2060TIP3    H1 6186   2.635   1.977   2.908
 2060TIP3    H2 6187   2.561   1.966   3.040
 2061TIP3   OH2 6188   2.065   1.495   2.847
 2061TIP3    H1 6189   2.029   1.421   2.900
 2061TIP3    H2 6190   2.104   1.447   2.774
 2062TIP3   OH2 6191   2.533   1.918   3.238
 2062TIP3    H1 6192   2.444   1.954   3.256
 2062TIP3    H2 6193   2.592   1.977   3.289
 2063TIP3   OH2 6194   2.270   2.292   2.332
 2063TIP3    H1 6195   2.196   2.230   2.317
 2063TIP3    H2 6196   2.246   2.327   2.421
 2064TIP3   OH2 6197   3.167   2.537   2.956
 2064TIP3    H1 6198   3.195   2.587   2.876
 2064TIP3    H2 6199   3.085   2.494   2.924
 2065TIP3   OH2 6200   2.729   1.596   2.224
 2065TIP3    H1 6201   2.633   1.574   2.227
 2065TIP3    H2 6202   2.731   1.692   2.241
 2066TIP3   OH2 6203   2.686   2.585   3.319
 2066TIP3    H1 6204   2.727   2.567   3.405
 2066TIP3    H2 6205   2.651   2.674   3.329
 2067TIP3   OH2 6206   2.792   1.859   2.312
 2067TIP3    H1 6207   2.889   1.866   2.324
 2067TIP3    H2 6208   2.772   1.940   2.261
 2068TIP3   OH2 6209   1.963   2.324   3.004
 2068TIP3    H1 6210   2.004   2.296   2.920
 2068TIP3    H2 6211   2.024   2.282   3.068
 2069TIP3   OH2 6212   2.419   2.445   2.162
 2069TIP3    H1 6213   2.366   2.529   2.163
 2069TIP3    H2 6214   2.366   2.389   2.222
 2070TIP3   OH2 6215   1.858   2.250   3.634
 2070TIP3    H1 6216   1.891   2.243   3.726
 2070TIP3    H2 6217   1.795   2.176   3.631
 2071TIP3   OH2 6218   2.584   2.322   3.659
 2071TIP3    H1 6219   2.529   2.312   3.580
 2071TIP3    H2 6220   2.673   2.305   3.623
 2072TIP3   OH2 6221   3.231   1.956   2.138
 2072TIP3    H1 6222   3.171   1.913   2.073
 2072TIP3    H2 6223   3.228   2.047   2.100
 2073TIP3   OH2 6224   3.448   2.810   3.223
 2073TIP3    H1 6225   3.354   2.802   3.197
 2073TIP3    H2 6226   3.492   2.779   3.140
 2074TIP3   OH2 6227   2.944   2.772   2.056
 2074TIP3    H1 6228   2.912   2.707   2.121
 2074TIP3    H2 6229   2.955   2.719   1.975
 2075TIP3   OH2 6230   2.935   2.402   2.861
 2075TIP3    H1 6231   2.842   2.382   2.881
 2075TIP3    H2 6232   2.965   2.318   2.823
 2076TIP3   OH2 6233   2.073   2.628   2.634
 2076TIP3    H1 6234   2.069   2.711   2.583
 2076TIP3    H2 6235   1.981   2.612   2.654
 2077TIP3   OH2 6236   1.636   1.925   2.350
 2077TIP3    H1 6237   1.680   2.010   2.373
 2077TIP3    H2 6238   1.559   1.927   2.411
 2078TIP3   OH2 6239   2.183   2.382   2.571
 2078TIP3    H1 6240   2.157   2.473   2.593
 2078TIP3    H2 6241   2.156   2.333   2.651
 2079TIP3   OH2 6242   1.980   2.867   2.491
 2079TIP3    H1 6243   1.898   2.877   2.542
 2079TIP3    H2 6244   2.013   2.960   2.491
 2080TIP3   OH2 6245   2.725   2.557   3.053
 2080TIP3    H1 6246   2.711   2.562   3.150
 2080TIP3    H2 6247   2.821   2.546   3.047
 2081TIP3   OH2 6248   2.707   2.505   1.954
 2081TIP3    H1 6249   2.765   2.477   2.029
 2081TIP3    H2 6250   2.622   2.469   1.984
 2082TIP3   OH2 6251   3.038   2.968   1.765
 2082TIP3    H1 6252   3.077   3.048   1.726
 2082TIP3    H2 6253   2.957   3.005   1.803
 2083TIP3   OH2 6254   2.056   1.740   3.627
 2083TIP3    H1 6255   1.960   1.740   3.639
 2083TIP3    H2 6256   2.087   1.697   3.709
 2084TIP3   OH2 6257   2.872   2.420   2.151
 2084TIP3    H1 6258   2.860   2.359   2.226
 2084TIP3    H2 6259   2.970   2.420   2.145
 2085TIP3   OH2 6260   2.057   2.475   1.954
 2085TIP3    H1 6261   2.070   2.381   1.932
 2085TIP3    H2 6262   2.036   2.470   2.049
 2086TIP3   OH2 6263   2.001   2.482   2.224
 2086TIP3    H1 6264   2.080   2.454   2.272
 2086TIP3    H2 6265   2.003   2.580   2.237
 2087TIP3   OH2 6266   1.734   2.167   2.433
 2087TIP3    H1 6267   1.666   2.214   2.486
 2087TIP3    H2 6268   1.749   2.233   2.362
 2088TIP3   OH2 6269   2.914   1.794   3.312
 2088TIP3    H1 6270   2.983   1.847   3.355
 2088TIP3    H2 6271   2.901   1.719   3.374
 2089TIP3   OH2 6272   2.786   1.546   2.499
 2089TIP3    H1 6273   2.769   1.567   2.405
 2089TIP3    H2 6274   2.828   1.629   2.531
 2090TIP3   OH2 6275   2.273   2.672   2.167
 2090TIP3    H1 6276   2.186   2.694   2.206
 2090TIP3    H2 6277   2.295   2.757   2.126
 2091TIP3   OH2 6278   2.448   1.746   2.590
 2091TIP3    H1 6279   2.513   1.817   2.572
 2091TIP3    H2 6280   2.464   1.731   2.686
 2092TIP3   OH2 6281   2.733   2.045   3.383
 2092TIP3    H1 6282   2.763   2.104   3.456
 2092TIP3    H2 6283   2.785   1.966   3.399
 2093TIP3   OH2 6284   2.600   1.447   2.682
 2093TIP3    H1 6285   2.589   1.526   2.738
 2093TIP3    H2 6286   2.669   1.479   2.619
 2094TIP3   OH2 6287   2.024   2.754   2.246
 2094TIP3    H1 6288   1.997   2.826   2.186
 2094TIP3    H2 6289   2.010   2.796   2.334
 2095TIP3   OH2 6290   2.120   1.466   2.476
 2095TIP3    H1 6291   2.114   1.555   2.516
 2095TIP3    H2 6292   2.217   1.452   2.483
 2096TIP3   OH2 6293   3.363   1.949   3.383
 2096TIP3    H1 6294   3.264   1.947   3.381
 2096TIP3    H2 6295   3.383   1.930   3.290
 2097TIP3   OH2 6296   3.021   2.145   2.759
 2097TIP3    H1 6297   2.943   2.092   2.778
 2097TIP3    H2 6298   3.090   2.101   2.812
 2098TIP3   OH2 6299   1.746   2.364   2.230
 2098TIP3    H1 6300   1.825   2.420   2.238
 2098TIP3    H2 6301   1.781   2.299   2.166
 2099TIP3   OH2 6302   1.669   1.651   2.368
 2099TIP3    H1 6303   1.678   1.749   2.370
 2099TIP3    H2 6304   1.626   1.638   2.283
 2100TIP3   OH2 6305   2.991   3.096   2.692
 2100TIP3    H1 6306   2.947   3.151   2.624
 2100TIP3    H2 6307   3.084   3.123   2.678
 2101TIP3   OH2 6308   2.068   1.374   3.230
 2101TIP3    H1 6309   2.039   1.339   3.143
 2101TIP3    H2 6310   2.056   1.297   3.288
 2102TIP3   OH2 6311   1.596   2.594   2.605
 2102TIP3    H1 6312   1.546   2.624   2.682
 2102TIP3    H2 6313   1.554   2.646   2.531
 2103TIP3   OH2 6314   1.766   3.144   3.689
 2103TIP3    H1 6315   1.850   3.151   3.741
 2103TIP3    H2 6316   1.748   3.049   3.694
 2104TIP3   OH2 6317   2.227   3.100   3.725
 2104TIP3    H1 6318   2.317   3.102   3.762
 2104TIP3    H2 6319   2.225   3.011   3.685
 2105TIP3   OH2 6320   2.221   2.671   1.851
 2105TIP3    H1 6321   2.169   2.600   1.895
 2105TIP3    H2 6322   2.300   2.622   1.823
 2106TIP3   OH2 6323   2.658   2.706   1.778
 2106TIP3    H1 6324   2.688   2.639   1.844
 2106TIP3    H2 6325   2.723   2.696   1.707
 2107TIP3   OH2 6326   1.853   2.537   3.933
 2107TIP3    H1 6327   1.931   2.508   3.885
 2107TIP3    H2 6328   1.786   2.546   3.863
 2108TIP3   OH2 6329   1.879   2.177   2.092
 2108TIP3    H1 6330   1.940   2.155   2.166
 2108TIP3    H2 6331   1.944   2.186   2.019
 2109TIP3   OH2 6332   2.402   2.394   1.893
 2109TIP3    H1 6333   2.401   2.405   1.991
 2109TIP3    H2 6334   2.403   2.295   1.886
 2110TIP3   OH2 6335   2.997   2.636   3.278
 2110TIP3    H1 6336   3.068   2.684   3.231
 2110TIP3    H2 6337   2.918   2.680   3.247
 2111TIP3   OH2 6338   2.032   2.273   3.859
 2111TIP3    H1 6339   2.124   2.248   3.844
 2111TIP3    H2 6340   2.038   2.311   3.949
 2112TIP3   OH2 6341   2.066   2.106   2.292
 2112TIP3    H1 6342   2.046   2.072   2.381
 2112TIP3    H2 6343   2.112   2.030   2.250
 2113TIP3   OH2 6344   2.333   2.134   3.510
 2113TIP3    H1 6345   2.267   2.206   3.523
 2113TIP3    H2 6346   2.398   2.181   3.452
 2114TIP3   OH2 6347   2.190   1.905   2.142
 2114TIP3    H1 6348   2.166   1.917   2.047
 2114TIP3    H2 6349   2.288   1.905   2.135
 2115TIP3   OH2 6350   2.860   2.517   3.637
 2115TIP3    H1 6351   2.949   2.553   3.641
 2115TIP3    H2 6352   2.848   2.482   3.727
 2116TIP3   OH2 6353   2.996   2.218   1.820
 2116TIP3    H1 6354   2.979   2.178   1.733
 2116TIP3    H2 6355   2.962   2.309   1.802
 2117TIP3   OH2 6356   2.478   1.957   3.655
 2117TIP3    H1 6357   2.482   1.880   3.596
 2117TIP3    H2 6358   2.431   2.022   3.599
 2118TIP3   OH2 6359   2.481   1.743   3.465
 2118TIP3    H1 6360   2.509   1.786   3.382
 2118TIP3    H2 6361   2.388   1.720   3.445
 2119TIP3   OH2 6362   2.497   2.280   3.356
 2119TIP3    H1 6363   2.585   2.302   3.322
 2119TIP3    H2 6364   2.440   2.337   3.300
 2120TIP3   OH2 6365   3.080   2.242   3.713
 2120TIP3    H1 6366   3.135   2.163   3.723
 2120TIP3    H2 6367   3.140   2.303   3.668
 2121TIP3   OH2 6368   3.140   2.481   3.447
 2121TIP3    H1 6369   3.075   2.538   3.398
 2121TIP3    H2 6370   3.224   2.514   3.409
 2122TIP3   OH2 6371   2.357   2.049   3.896
 2122TIP3    H1 6372   2.288   1.982   3.912
 2122TIP3    H2 6373   2.388   2.026   3.806
 2123TIP3   OH2 6374   2.607   1.501   3.546
 2123TIP3    H1 6375   2.560   1.583   3.518
 2123TIP3    H2 6376   2.538   1.433   3.533
 2124TIP3   OH2 6377   2.739   1.996   3.751
 2124TIP3    H1 6378   2.719   1.984   3.845
 2124TIP3    H2 6379   2.650   1.983   3.713
 2125TIP3   OH2 6380   2.970   1.938   3.603
 2125TIP3    H1 6381   2.896   1.949   3.666
 2125TIP3    H2 6382   3.046   1.921   3.663
 2126TIP3   OH2 6383   3.206   1.905   3.756
 2126TIP3    H1 6384   3.219   1.808   3.767
 2126TIP3    H2 6385   3.198   1.935   3.849
 2127TIP3   OH2 6386   2.187   1.829   3.954
 2127TIP3    H1 6387   2.192   1.735   3.926
 2127TIP3    H2 6388   2.227   1.824   4.043
 2128TIP3   OH2 6389   2.694   1.508   3.805
 2128TIP3    H1 6390   2.761   1.437   3.795
 2128TIP3    H2 6391   2.657   1.509   3.715
 2129TIP3   OH2 6392   2.765   1.722   3.960
 2129TIP3    H1 6393   2.743   1.652   3.895
 2129TIP3    H2 6394   2.689   1.783   3.952
 2130TIP3   OH2 6395   1.999   2.957   2.055
 2130TIP3    H1 6396   2.093   2.937   2.034
 2130TIP3    H2 6397   1.976   3.013   1.979
 2131TIP3   OH2 6398   1.474   2.341   2.261
 2131TIP3    H1 6399   1.570   2.358   2.248
 2131TIP3    H2 6400   1.466   2.252   2.219
 2132TIP3   OH2 6401   1.387   2.945   2.694
 2132TIP3    H1 6402   1.326   2.884   2.648
 2132TIP3    H2 6403   1.434   2.882   2.753
 2133TIP3   OH2 6404   1.506   2.779   2.879
 2133TIP3    H1 6405   1.517   2.701   2.936
 2133TIP3    H2 6406   1.528   2.849   2.942
 2134TIP3   OH2 6407   3.249   3.188   2.657
 2134TIP3    H1 6408   3.268   3.202   2.753
 2134TIP3    H2 6409   3.324   3.235   2.617
 2135TIP3   OH2 6410   3.323   3.205   2.915
 2135TIP3    H1 6411   3.295   3.118   2.951
 2135TIP3    H2 6412   3.337   3.252   2.999
 2136TIP3   OH2 6413   3.315   2.902   3.550
 2136TIP3    H1 6414   3.238   2.913   3.611
 2136TIP3    H2 6415   3.343   2.993   3.536
 2137TIP3   OH2 6416   3.149   2.405   2.143
 2137TIP3    H1 6417   3.211   2.474   2.113
 2137TIP3    H2 6418   3.195   2.370   2.222
 2138TIP3   OH2 6419   3.275   2.270   2.350
 2138TIP3    H1 6420   3.204   2.232   2.407
 2138TIP3    H2 6421   3.338   2.306   2.415
 2139TIP3   OH2 6422   3.312   2.665   2.761
 2139TIP3    H1 6423   3.374   2.597   2.729
 2139TIP3    H2 6424   3.324   2.737   2.695
 2140TIP3   OH2 6425   3.135   2.974   2.956
 2140TIP3    H1 6426   3.076   3.051   2.963
 2140TIP3    H2 6427   3.090   2.922   2.886
 2141TIP3   OH2 6428   3.205   2.185   1.991
 2141TIP3    H1 6429   3.131   2.186   1.927
 2141TIP3    H2 6430   3.178   2.262   2.047
 2142TIP3   OH2 6431   3.076   1.852   1.940
 2142TIP3    H1 6432   3.026   1.882   1.863
 2142TIP3    H2 6433   3.060   1.756   1.934
 2143TIP3   OH2 6434   3.079   2.138   2.490
 2143TIP3    H1 6435   3.085   2.041   2.481
 2143TIP3    H2 6436   3.061   2.148   2.586
 2144TIP3   OH2 6437   1.701   2.210   3.244
 2144TIP3    H1 6438   1.698   2.167   3.156
 2144TIP3    H2 6439   1.799   2.207   3.261
 2145TIP3   OH2 6440   3.380   2.571   3.353
 2145TIP3    H1 6441   3.445   2.502   3.329
 2145TIP3    H2 6442   3.413   2.649   3.302
 2146TIP3   OH2 6443   3.541   2.349   3.331
 2146TIP3    H1 6444   3.474   2.302   3.386
 2146TIP3    H2 6445   3.621   2.300   3.356
 2147TIP3   OH2 6446   3.019   1.585   1.916
 2147TIP3    H1 6447   3.082   1.551   1.981
 2147TIP3    H2 6448   2.937   1.535   1.934
 2148TIP3   OH2 6449   3.081   1.854   2.376
 2148TIP3    H1 6450   3.124   1.766   2.389
 2148TIP3    H2 6451   3.136   1.889   2.304
 2149TIP3   OH2 6452   3.232   2.010   2.885
 2149TIP3    H1 6453   3.318   2.032   2.842
 2149TIP3    H2 6454   3.249   2.051   2.973
 2150TIP3   OH2 6455   3.309   2.159   3.113
 2150TIP3    H1 6456   3.236   2.196   3.165
 2150TIP3    H2 6457   3.339   2.239   3.063
 2151TIP3   OH2 6458   1.922   1.881   3.899
 2151TIP3    H1 6459   2.018   1.882   3.915
 2151TIP3    H2 6460   1.899   1.795   3.940
 2152TIP3   OH2 6461   3.766   1.767   3.667
 2152TIP3    H1 6462   3.827   1.706   3.621
 2152TIP3    H2 6463   3.727   1.816   3.591
 2153TIP3   OH2 6464   3.190   1.603   2.421
 2153TIP3    H1 6465   3.235   1.585   2.506
 2153TIP3    H2 6466   3.126   1.529   2.418
 2154TIP3   OH2 6467   1.887   1.586   3.248
 2154TIP3    H1 6468   1.948   1.510   3.253
 2154TIP3    H2 6469   1.949   1.660   3.235
 2155TIP3   OH2 6470   1.679   1.853   3.312
 2155TIP3    H1 6471   1.733   1.857   3.230
 2155TIP3    H2 6472   1.716   1.927   3.363
 2156TIP3   OH2 6473   3.621   1.889   3.474
 2156TIP3    H1 6474   3.542   1.939   3.504
 2156TIP3    H2 6475   3.579   1.822   3.417
 2157TIP3   OH2 6476   3.255   1.524   2.065
 2157TIP3    H1 6477   3.295   1.461   2.002
 2157TIP3    H2 6478   3.319   1.598   2.065
 2158TIP3   OH2 6479   1.675   1.351   2.814
 2158TIP3    H1 6480   1.586   1.345   2.851
 2158TIP3    H2 6481   1.662   1.414   2.740
 2159TIP3   OH2 6482   2.823   3.068   2.322
 2159TIP3    H1 6483   2.886   3.066   2.246
 2159TIP3    H2 6484   2.869   3.127   2.385
 2160TIP3   OH2 6485   1.892   1.430   3.630
 2160TIP3    H1 6486   1.843   1.436   3.713
 2160TIP3    H2 6487   1.830   1.473   3.568
 2161TIP3   OH2 6488   2.174   2.895   3.262
 2161TIP3    H1 6489   2.201   2.957   3.191
 2161TIP3    H2 6490   2.240   2.916   3.332
 2162TIP3   OH2 6491   3.527   1.655   3.350
 2162TIP3    H1 6492   3.439   1.648   3.310
 2162TIP3    H2 6493   3.561   1.563   3.342
 2163TIP3   OH2 6494   1.961   3.101   3.171
 2163TIP3    H1 6495   1.997   3.186   3.200
 2163TIP3    H2 6496   1.960   3.119   3.075
 2164TIP3   OH2 6497   2.444   3.178   2.924
 2164TIP3    H1 6498   2.410   3.235   2.995
 2164TIP3    H2 6499   2.527   3.145   2.967
 2165TIP3   OH2 6500   2.973   3.313   2.906
 2165TIP3    H1 6501   2.945   3.397   2.866
 2165TIP3    H2 6502   2.942   3.246   2.844
 2166TIP3   OH2 6503   1.880   2.834   2.897
 2166TIP3    H1 6504   1.893   2.749   2.944
 2166TIP3    H2 6505   1.973   2.867   2.896
 2167TIP3   OH2 6506   2.149   2.896   2.921
 2167TIP3    H1 6507   2.179   2.802   2.920
 2167TIP3    H2 6508   2.234   2.943   2.921
 2168TIP3   OH2 6509   2.734   1.572   2.978
 2168TIP3    H1 6510   2.697   1.496   3.026
 2168TIP3    H2 6511   2.811   1.533   2.932
 2169TIP3   OH2 6512   3.245   1.452   2.871
 2169TIP3    H1 6513   3.282   1.505   2.798
 2169TIP3    H2 6514   3.153   1.486   2.874
 2170TIP3   OH2 6515   3.349   1.548   2.639
 2170TIP3    H1 6516   3.425   1.495   2.606
 2170TIP3    H2 6517   3.384   1.639   2.625
 2171TIP3   OH2 6518   1.979   1.276   2.986
 2171TIP3    H1 6519   1.887   1.242   2.993
 2171TIP3    H2 6520   2.028   1.191   2.981
 2172TIP3   OH2 6521   1.782   1.157   2.643
 2172TIP3    H1 6522   1.807   1.213   2.567
 2172TIP3    H2 6523   1.752   1.223   2.709
 2173TIP3   OH2 6524   2.436   1.309   2.873
 2173TIP3    H1 6525   2.485   1.354   2.802
 2173TIP3    H2 6526   2.475   1.349   2.953
 2174TIP3   OH2 6527   2.957   1.462   2.854
 2174TIP3    H1 6528   2.972   1.419   2.768
 2174TIP3    H2 6529   2.955   1.384   2.914
 2175TIP3   OH2 6530   3.006   1.394   2.419
 2175TIP3    H1 6531   2.924   1.440   2.446
 2175TIP3    H2 6532   2.990   1.305   2.458
 2176TIP3   OH2 6533   1.483   2.739   2.404
 2176TIP3    H1 6534   1.396   2.705   2.375
 2176TIP3    H2 6535   1.477   2.830   2.368
 2177TIP3   OH2 6536   1.897   1.307   2.397
 2177TIP3    H1 6537   1.944   1.243   2.339
 2177TIP3    H2 6538   1.972   1.360   2.432
 2178TIP3   OH2 6539   2.394   1.494   2.499
 2178TIP3    H1 6540   2.457   1.449   2.558
 2178TIP3    H2 6541   2.412   1.588   2.523
 2179TIP3   OH2 6542   2.260   2.899   1.997
 2179TIP3    H1 6543   2.347   2.923   1.960
 2179TIP3    H2 6544   2.238   2.822   1.940
 2180TIP3   OH2 6545   2.986   3.039   2.096
 2180TIP3    H1 6546   2.977   2.941   2.089
 2180TIP3    H2 6547   2.936   3.067   2.017
 2181TIP3   OH2 6548   2.189   1.555   3.873
 2181TIP3    H1 6549   2.153   1.484   3.931
 2181TIP3    H2 6550   2.282   1.556   3.904
 2182TIP3   OH2 6551   2.439   1.558   3.994
 2182TIP3    H1 6552   2.526   1.538   3.956
 2182TIP3    H2 6553   2.430   1.487   4.061
 2183TIP3   OH2 6554   1.563   2.743   2.050
 2183TIP3    H1 6555   1.577   2.744   2.146
 2183TIP3    H2 6556   1.645   2.696   2.021
 2184TIP3   OH2 6557   3.271   1.631   3.783
 2184TIP3    H1 6558   3.286   1.602   3.875
 2184TIP3    H2 6559   3.361   1.625   3.745
 2185TIP3   OH2 6560   4.474   2.556   2.032
 2185TIP3    H1 6561   4.436   2.643   2.006
 2185TIP3    H2 6562   4.402   2.497   2.003
 2186TIP3   OH2 6563   4.476   2.555   2.441
 2186TIP3    H1 6564   4.519   2.530   2.525
 2186TIP3    H2 6565   4.433   2.472   2.416
 2187TIP3   OH2 6566   3.763   2.435   2.781
 2187TIP3    H1 6567   3.786   2.366   2.847
 2187TIP3    H2 6568   3.806   2.512   2.820
 2188TIP3   OH2 6569   4.726   2.855   2.114
 2188TIP3    H1 6570   4.702   2.792   2.183
 2188TIP3    H2 6571   4.757   2.932   2.166
 2189TIP3   OH2 6572   3.746   2.855   2.498
 2189TIP3    H1 6573   3.738   2.758   2.503
 2189TIP3    H2 6574   3.843   2.864   2.490
 2190TIP3   OH2 6575   3.449   2.052   2.281
 2190TIP3    H1 6576   3.401   2.131   2.311
 2190TIP3    H2 6577   3.378   2.005   2.234
 2191TIP3   OH2 6578   3.503   2.342   2.486
 2191TIP3    H1 6579   3.556   2.264   2.515
 2191TIP3    H2 6580   3.563   2.386   2.424
 2192TIP3   OH2 6581   4.378   3.311   2.128
 2192TIP3    H1 6582   4.413   3.241   2.069
 2192TIP3    H2 6583   4.340   3.258   2.200
 2193TIP3   OH2 6584   4.266   2.777   2.476
 2193TIP3    H1 6585   4.312   2.701   2.436
 2193TIP3    H2 6586   4.345   2.826   2.508
 2194TIP3   OH2 6587   5.293   2.093   2.473
 2194TIP3    H1 6588   5.321   2.179   2.513
 2194TIP3    H2 6589   5.311   2.109   2.379
 2195TIP3   OH2 6590   4.686   2.270   2.495
 2195TIP3    H1 6591   4.727   2.184   2.516
 2195TIP3    H2 6592   4.648   2.251   2.406
 2196TIP3   OH2 6593   4.035   1.934   2.461
 2196TIP3    H1 6594   4.010   2.006   2.400
 2196TIP3    H2 6595   3.981   1.861   2.424
 2197TIP3   OH2 6596   4.724   2.029   2.082
 2197TIP3    H1 6597   4.794   2.018   2.151
 2197TIP3    H2 6598   4.777   2.062   2.008
 2198TIP3   OH2 6599   3.656   2.137   2.580
 2198TIP3    H1 6600   3.739   2.118   2.628
 2198TIP3    H2 6601   3.670   2.082   2.500
 2199TIP3   OH2 6602   4.094   2.334   2.366
 2199TIP3    H1 6603   4.188   2.310   2.382
 2199TIP3    H2 6604   4.055   2.248   2.337
 2200TIP3   OH2 6605   5.363   2.310   2.638
 2200TIP3    H1 6606   5.275   2.349   2.621
 2200TIP3    H2 6607   5.379   2.340   2.729
 2201TIP3   OH2 6608   4.016   1.916   2.906
 2201TIP3    H1 6609   3.961   1.955   2.835
 2201TIP3    H2 6610   3.959   1.933   2.984
 2202TIP3   OH2 6611   4.353   2.767   1.904
 2202TIP3    H1 6612   4.316   2.762   1.814
 2202TIP3    H2 6613   4.306   2.846   1.938
 2203TIP3   OH2 6614   4.109   2.692   2.680
 2203TIP3    H1 6615   4.050   2.760   2.715
 2203TIP3    H2 6616   4.152   2.738   2.604
 2204TIP3   OH2 6617   4.910   2.039   2.280
 2204TIP3    H1 6618   4.877   2.008   2.366
 2204TIP3    H2 6619   4.961   2.119   2.306
 2205TIP3   OH2 6620   3.896   2.032   2.683
 2205TIP3    H1 6621   3.954   2.106   2.711
 2205TIP3    H2 6622   3.948   1.995   2.609
 2206TIP3   OH2 6623   3.336   2.585   2.028
 2206TIP3    H1 6624   3.296   2.613   1.944
 2206TIP3    H2 6625   3.368   2.671   2.063
 2207TIP3   OH2 6626   4.785   3.100   2.265
 2207TIP3    H1 6627   4.696   3.092   2.306
 2207TIP3    H2 6628   4.777   3.187   2.220
 2208TIP3   OH2 6629   5.084   1.992   2.639
 2208TIP3    H1 6630   4.997   2.013   2.602
 2208TIP3    H2 6631   5.144   2.024   2.568
 2209TIP3   OH2 6632   4.363   1.627   2.627
 2209TIP3    H1 6633   4.343   1.533   2.647
 2209TIP3    H2 6634   4.287   1.670   2.673
 2210TIP3   OH2 6635   4.477   3.139   1.933
 2210TIP3    H1 6636   4.529   3.057   1.919
 2210TIP3    H2 6637   4.541   3.205   1.897
 2211TIP3   OH2 6638   4.624   2.921   1.866
 2211TIP3    H1 6639   4.583   2.840   1.835
 2211TIP3    H2 6640   4.669   2.891   1.948
 2212TIP3   OH2 6641   5.011   3.002   2.613
 2212TIP3    H1 6642   4.994   2.926   2.553
 2212TIP3    H2 6643   4.989   3.078   2.555
 2213TIP3   OH2 6644   4.302   2.401   1.882
 2213TIP3    H1 6645   4.222   2.454   1.865
 2213TIP3    H2 6646   4.344   2.400   1.794
 2214TIP3   OH2 6647   4.258   2.196   1.579
 2214TIP3    H1 6648   4.325   2.247   1.628
 2214TIP3    H2 6649   4.315   2.133   1.531
 2215TIP3   OH2 6650   5.202   2.655   2.472
 2215TIP3    H1 6651   5.116   2.702   2.470
 2215TIP3    H2 6652   5.233   2.675   2.380
 2216TIP3   OH2 6653   4.652   2.486   1.839
 2216TIP3    H1 6654   4.596   2.512   1.917
 2216TIP3    H2 6655   4.735   2.463   1.884
 2217TIP3   OH2 6656   4.881   2.517   2.770
 2217TIP3    H1 6657   4.877   2.601   2.819
 2217TIP3    H2 6658   4.795   2.519   2.723
 2218TIP3   OH2 6659   3.880   2.474   2.264
 2218TIP3    H1 6660   3.841   2.416   2.195
 2218TIP3    H2 6661   3.957   2.421   2.293
 2219TIP3   OH2 6662   4.009   2.888   2.401
 2219TIP3    H1 6663   3.991   2.864   2.309
 2219TIP3    H2 6664   4.098   2.851   2.416
 2220TIP3   OH2 6665   4.036   2.434   2.616
 2220TIP3    H1 6666   4.059   2.413   2.523
 2220TIP3    H2 6667   4.061   2.527   2.625
 2221TIP3   OH2 6668   4.551   3.091   2.399
 2221TIP3    H1 6669   4.520   3.171   2.445
 2221TIP3    H2 6670   4.524   3.019   2.458
 2222TIP3   OH2 6671   4.483   2.343   1.673
 2222TIP3    H1 6672   4.543   2.405   1.720
 2222TIP3    H2 6673   4.510   2.359   1.579
 2223TIP3   OH2 6674   4.240   3.012   1.947
 2223TIP3    H1 6675   4.325   3.060   1.940
 2223TIP3    H2 6676   4.179   3.070   1.899
 2224TIP3   OH2 6677   5.004   1.574   1.728
 2224TIP3    H1 6678   4.922   1.599   1.775
 2224TIP3    H2 6679   5.020   1.654   1.675
 2225TIP3   OH2 6680   3.752   2.323   2.057
 2225TIP3    H1 6681   3.675   2.366   2.013
 2225TIP3    H2 6682   3.717   2.235   2.076
 2226TIP3   OH2 6683   4.807   2.945   1.277
 2226TIP3    H1 6684   4.814   3.041   1.259
 2226TIP3    H2 6685   4.900   2.916   1.262
 2227TIP3   OH2 6686   3.516   2.688   2.992
 2227TIP3    H1 6687   3.467   2.664   2.912
 2227TIP3    H2 6688   3.586   2.621   2.999
 2228TIP3   OH2 6689   3.382   2.901   2.605
 2228TIP3    H1 6690   3.478   2.906   2.612
 2228TIP3    H2 6691   3.353   2.973   2.663
 2229TIP3   OH2 6692   5.244   3.361   2.677
 2229TIP3    H1 6693   5.244   3.265   2.691
 2229TIP3    H2 6694   5.159   3.386   2.719
 2230TIP3   OH2 6695   4.125   3.260   1.755
 2230TIP3    H1 6696   4.072   3.244   1.675
 2230TIP3    H2 6697   4.088   3.344   1.788
 2231TIP3   OH2 6698   3.554   3.109   2.137
 2231TIP3    H1 6699   3.596   3.103   2.226
 2231TIP3    H2 6700   3.511   3.022   2.131
 2232TIP3   OH2 6701   4.314   3.169   1.384
 2232TIP3    H1 6702   4.370   3.096   1.350
 2232TIP3    H2 6703   4.352   3.182   1.474
 2233TIP3   OH2 6704   4.373   3.220   1.651
 2233TIP3    H1 6705   4.285   3.228   1.694
 2233TIP3    H2 6706   4.428   3.189   1.724
 2234TIP3   OH2 6707   5.133   2.479   2.941
 2234TIP3    H1 6708   5.045   2.485   2.901
 2234TIP3    H2 6709   5.151   2.383   2.935
 2235TIP3   OH2 6710   4.130   1.712   2.758
 2235TIP3    H1 6711   4.044   1.682   2.723
 2235TIP3    H2 6712   4.100   1.789   2.810
 2236TIP3   OH2 6713   4.667   1.824   2.948
 2236TIP3    H1 6714   4.737   1.799   3.012
 2236TIP3    H2 6715   4.585   1.806   2.998
 2237TIP3   OH2 6716   4.900   2.259   2.870
 2237TIP3    H1 6717   4.846   2.256   2.952
 2237TIP3    H2 6718   4.875   2.346   2.831
 2238TIP3   OH2 6719   4.567   2.368   1.418
 2238TIP3    H1 6720   4.526   2.359   1.330
 2238TIP3    H2 6721   4.653   2.408   1.395
 2239TIP3   OH2 6722   4.277   1.753   1.724
 2239TIP3    H1 6723   4.238   1.752   1.814
 2239TIP3    H2 6724   4.233   1.674   1.687
 2240TIP3   OH2 6725   4.063   2.227   2.785
 2240TIP3    H1 6726   4.009   2.251   2.863
 2240TIP3    H2 6727   4.050   2.307   2.728
 2241TIP3   OH2 6728   3.947   2.117   2.282
 2241TIP3    H1 6729   3.855   2.091   2.304
 2241TIP3    H2 6730   3.955   2.075   2.193
 2242TIP3   OH2 6731   4.435   2.200   2.019
 2242TIP3    H1 6732   4.388   2.271   1.971
 2242TIP3    H2 6733   4.491   2.162   1.948
 2243TIP3   OH2 6734   4.620   2.462   3.086
 2243TIP3    H1 6735   4.595   2.393   3.152
 2243TIP3    H2 6736   4.711   2.480   3.115
 2244TIP3   OH2 6737   4.594   2.220   2.244
 2244TIP3    H1 6738   4.524   2.242   2.178
 2244TIP3    H2 6739   4.633   2.145   2.196
 2245TIP3   OH2 6740   3.878   2.264   2.991
 2245TIP3    H1 6741   3.825   2.318   3.052
 2245TIP3    H2 6742   3.874   2.176   3.034
 2246TIP3   OH2 6743   3.939   1.739   1.688
 2246TIP3    H1 6744   3.923   1.739   1.784
 2246TIP3    H2 6745   3.861   1.789   1.657
 2247TIP3   OH2 6746   3.477   1.769   2.559
 2247TIP3    H1 6747   3.548   1.807   2.616
 2247TIP3    H2 6748   3.524   1.749   2.477
 2248TIP3   OH2 6749   3.421   1.754   2.075
 2248TIP3    H1 6750   3.466   1.791   1.995
 2248TIP3    H2 6751   3.361   1.828   2.094
 2249TIP3   OH2 6752   4.610   2.465   2.664
 2249TIP3    H1 6753   4.641   2.394   2.603
 2249TIP3    H2 6754   4.574   2.410   2.737
 2250TIP3   OH2 6755   4.293   1.926   2.340
 2250TIP3    H1 6756   4.211   1.931   2.394
 2250TIP3    H2 6757   4.362   1.919   2.407
 2251TIP3   OH2 6758   3.709   1.999   2.346
 2251TIP3    H1 6759   3.615   2.007   2.315
 2251TIP3    H2 6760   3.730   1.906   2.326
 2252TIP3   OH2 6761   3.964   1.985   2.045
 2252TIP3    H1 6762   4.057   2.001   2.021
 2252TIP3    H2 6763   3.916   2.008   1.961
 2253TIP3   OH2 6764   4.768   2.011   2.545
 2253TIP3    H1 6765   4.744   2.026   2.639
 2253TIP3    H2 6766   4.694   1.953   2.518
 2254TIP3   OH2 6767   3.834   2.024   1.811
 2254TIP3    H1 6768   3.766   1.977   1.760
 2254TIP3    H2 6769   3.886   2.066   1.739
 2255TIP3   OH2 6770   4.944   3.705   2.770
 2255TIP3    H1 6771   4.939   3.734   2.676
 2255TIP3    H2 6772   5.024   3.752   2.799
 2256TIP3   OH2 6773   4.353   2.271   2.445
 2256TIP3    H1 6774   4.427   2.224   2.404
 2256TIP3    H2 6775   4.346   2.229   2.533
 2257TIP3   OH2 6776   3.866   1.749   2.335
 2257TIP3    H1 6777   3.827   1.677   2.390
 2257TIP3    H2 6778   3.897   1.699   2.259
 2258TIP3   OH2 6779   4.328   2.182   2.715
 2258TIP3    H1 6780   4.236   2.206   2.741
 2258TIP3    H2 6781   4.382   2.239   2.772
 2259TIP3   OH2 6782   4.070   2.547   1.825
 2259TIP3    H1 6783   3.995   2.485   1.809
 2259TIP3    H2 6784   4.044   2.583   1.914
 2260TIP3   OH2 6785   4.963   2.789   2.442
 2260TIP3    H1 6786   4.986   2.842   2.363
 2260TIP3    H2 6787   4.878   2.747   2.414
 2261TIP3   OH2 6788   4.526   1.855   1.706
 2261TIP3    H1 6789   4.430   1.831   1.712
 2261TIP3    H2 6790   4.525   1.951   1.728
 2262TIP3   OH2 6791   4.499   2.833   2.847
 2262TIP3    H1 6792   4.552   2.790   2.915
 2262TIP3    H2 6793   4.427   2.870   2.900
 2263TIP3   OH2 6794   4.587   2.116   1.801
 2263TIP3    H1 6795   4.684   2.123   1.811
 2263TIP3    H2 6796   4.564   2.195   1.749
 2264TIP3   OH2 6797   3.775   2.583   2.500
 2264TIP3    H1 6798   3.814   2.545   2.419
 2264TIP3    H2 6799   3.801   2.519   2.568
 2265TIP3   OH2 6800   4.216   2.703   1.655
 2265TIP3    H1 6801   4.164   2.787   1.655
 2265TIP3    H2 6802   4.161   2.647   1.715
 2266TIP3   OH2 6803   3.676   2.458   3.094
 2266TIP3    H1 6804   3.723   2.493   3.172
 2266TIP3    H2 6805   3.594   2.426   3.136
 2267TIP3   OH2 6806   4.385   2.597   3.139
 2267TIP3    H1 6807   4.312   2.536   3.114
 2267TIP3    H2 6808   4.463   2.549   3.105
 2268TIP3   OH2 6809   4.652   3.131   2.715
 2268TIP3    H1 6810   4.557   3.134   2.700
 2268TIP3    H2 6811   4.662   3.184   2.797
 2269TIP3   OH2 6812   5.031   2.213   1.626
 2269TIP3    H1 6813   4.971   2.170   1.560
 2269TIP3    H2 6814   5.027   2.304   1.588
 2270TIP3   OH2 6815   5.258   3.074   2.702
 2270TIP3    H1 6816   5.161   3.061   2.692
 2270TIP3    H2 6817   5.287   3.041   2.614
 2271TIP3   OH2 6818   4.746   3.026   1.542
 2271TIP3    H1 6819   4.707   2.959   1.599
 2271TIP3    H2 6820   4.756   2.980   1.457
 2272TIP3   OH2 6821   4.730   2.656   2.353
 2272TIP3    H1 6822   4.638   2.629   2.371
 2272TIP3    H2 6823   4.764   2.574   2.312
 2273TIP3   OH2 6824   3.870   2.887   2.130
 2273TIP3    H1 6825   3.858   2.965   2.072
 2273TIP3    H2 6826   3.778   2.867   2.153
 2274TIP3   OH2 6827   3.436   2.181   1.843
 2274TIP3    H1 6828   3.477   2.267   1.865
 2274TIP3    H2 6829   3.356   2.184   1.899
 2275TIP3   OH2 6830   3.982   2.642   2.062
 2275TIP3    H1 6831   3.954   2.732   2.084
 2275TIP3    H2 6832   3.949   2.591   2.139
 2276TIP3   OH2 6833   4.164   3.222   2.535
 2276TIP3    H1 6834   4.207   3.293   2.484
 2276TIP3    H2 6835   4.136   3.268   2.616
 2277TIP3   OH2 6836   3.780   3.119   1.977
 2277TIP3    H1 6837   3.695   3.129   2.024
 2277TIP3    H2 6838   3.814   3.211   1.981
 2278TIP3   OH2 6839   4.513   2.865   2.568
 2278TIP3    H1 6840   4.520   2.850   2.665
 2278TIP3    H2 6841   4.583   2.806   2.536
 2279TIP3   OH2 6842   4.504   2.760   1.440
 2279TIP3    H1 6843   4.557   2.733   1.518
 2279TIP3    H2 6844   4.416   2.725   1.463
 2280TIP3   OH2 6845   4.773   3.388   2.597
 2280TIP3    H1 6846   4.690   3.336   2.590
 2280TIP3    H2 6847   4.758   3.454   2.525
 2281TIP3   OH2 6848   4.831   3.220   1.253
 2281TIP3    H1 6849   4.853   3.289   1.188
 2281TIP3    H2 6850   4.754   3.262   1.296
 2282TIP3   OH2 6851   3.847   1.996   3.110
 2282TIP3    H1 6852   3.750   2.001   3.123
 2282TIP3    H2 6853   3.875   1.956   3.193
 2283TIP3   OH2 6854   4.666   2.683   1.646
 2283TIP3    H1 6855   4.655   2.617   1.718
 2283TIP3    H2 6856   4.763   2.680   1.635
 2284TIP3   OH2 6857   3.577   3.097   2.749
 2284TIP3    H1 6858   3.659   3.056   2.783
 2284TIP3    H2 6859   3.525   3.110   2.830
 2285TIP3   OH2 6860   3.858   2.730   1.439
 2285TIP3    H1 6861   3.867   2.635   1.417
 2285TIP3    H2 6862   3.834   2.725   1.534
 2286TIP3   OH2 6863   3.797   2.738   1.709
 2286TIP3    H1 6864   3.873   2.711   1.761
 2286TIP3    H2 6865   3.799   2.836   1.720
 2287TIP3   OH2 6866   3.531   2.426   1.920
 2287TIP3    H1 6867   3.463   2.473   1.973
 2287TIP3    H2 6868   3.543   2.492   1.848
 2288TIP3   OH2 6869   4.704   2.059   2.807
 2288TIP3    H1 6870   4.780   2.101   2.851
 2288TIP3    H2 6871   4.689   1.979   2.862
 2289TIP3   OH2 6872   4.582   1.803   1.985
 2289TIP3    H1 6873   4.564   1.823   1.891
 2289TIP3    H2 6874   4.623   1.887   2.016
 2290TIP3   OH2 6875   4.074   2.932   1.658
 2290TIP3    H1 6876   3.985   2.952   1.693
 2290TIP3    H2 6877   4.089   3.013   1.605
 2291TIP3   OH2 6878   4.251   2.001   2.076
 2291TIP3    H1 6879   4.314   2.075   2.060
 2291TIP3    H2 6880   4.262   1.989   2.173
 2292TIP3   OH2 6881   4.533   2.306   2.871
 2292TIP3    H1 6882   4.564   2.355   2.950
 2292TIP3    H2 6883   4.579   2.221   2.880
 2293TIP3   OH2 6884   4.394   1.707   2.171
 2293TIP3    H1 6885   4.378   1.789   2.221
 2293TIP3    H2 6886   4.463   1.738   2.108
 2294TIP3   OH2 6887   3.823   3.008   1.732
 2294TIP3    H1 6888   3.794   3.080   1.672
 2294TIP3    H2 6889   3.806   3.049   1.820
 2295TIP3   OH2 6890   3.915   1.724   1.962
 2295TIP3    H1 6891   3.909   1.812   2.004
 2295TIP3    H2 6892   4.012   1.710   1.969
 2296TIP3   OH2 6893   5.163   2.209   2.860
 2296TIP3    H1 6894   5.065   2.216   2.871
 2296TIP3    H2 6895   5.166   2.151   2.783
 2297TIP3   OH2 6896   4.818   2.405   2.248
 2297TIP3    H1 6897   4.740   2.349   2.259
 2297TIP3    H2 6898   4.886   2.356   2.300
 2298TIP3   OH2 6899   3.540   2.620   1.717
 2298TIP3    H1 6900   3.617   2.680   1.724
 2298TIP3    H2 6901   3.576   2.557   1.651
 2299TIP3   OH2 6902   3.469   1.908   1.852
 2299TIP3    H1 6903   3.476   2.005   1.856
 2299TIP3    H2 6904   3.393   1.896   1.794
 2300TIP3   OH2 6905   4.793   3.369   2.190
 2300TIP3    H1 6906   4.749   3.416   2.115
 2300TIP3    H2 6907   4.887   3.387   2.170
 2301TIP3   OH2 6908   3.870   1.629   2.714
 2301TIP3    H1 6909   3.838   1.595   2.628
 2301TIP3    H2 6910   3.856   1.552   2.773
 2302TIP3   OH2 6911   3.390   2.847   2.099
 2302TIP3    H1 6912   3.347   2.878   2.181
 2302TIP3    H2 6913   3.343   2.898   2.029
 2303TIP3   OH2 6914   4.018   2.929   1.339
 2303TIP3    H1 6915   3.967   2.855   1.380
 2303TIP3    H2 6916   4.096   2.880   1.304
 2304TIP3   OH2 6917   4.683   3.261   2.959
 2304TIP3    H1 6918   4.709   3.187   3.015
 2304TIP3    H2 6919   4.748   3.329   2.986
 2305TIP3   OH2 6920   4.453   2.964   1.263
 2305TIP3    H1 6921   4.488   2.896   1.325
 2305TIP3    H2 6922   4.513   2.956   1.186
 2306TIP3   OH2 6923   3.676   2.436   1.577
 2306TIP3    H1 6924   3.736   2.414   1.651
 2306TIP3    H2 6925   3.741   2.445   1.504
 2307TIP3   OH2 6926   4.341   2.872   3.170
 2307TIP3    H1 6927   4.260   2.858   3.221
 2307TIP3    H2 6928   4.368   2.780   3.152
 2308TIP3   OH2 6929   4.208   2.652   1.385
 2308TIP3    H1 6930   4.200   2.662   1.483
 2308TIP3    H2 6931   4.204   2.554   1.377
 2309TIP3   OH2 6932   4.802   2.905   2.763
 2309TIP3    H1 6933   4.878   2.943   2.715
 2309TIP3    H2 6934   4.734   2.973   2.744
 2310TIP3   OH2 6935   3.851   2.480   3.341
 2310TIP3    H1 6936   3.944   2.505   3.345
 2310TIP3    H2 6937   3.811   2.562   3.373
 2311TIP3   OH2 6938   3.867   2.362   1.783
 2311TIP3    H1 6939   3.841   2.327   1.870
 2311TIP3    H2 6940   3.909   2.285   1.740
 2312TIP3   OH2 6941   4.178   2.436   3.039
 2312TIP3    H1 6942   4.091   2.478   3.036
 2312TIP3    H2 6943   4.218   2.468   2.954
 2313TIP3   OH2 6944   3.985   2.160   1.628
 2313TIP3    H1 6945   3.960   2.172   1.534
 2313TIP3    H2 6946   4.083   2.160   1.620
 2314TIP3   OH2 6947   4.688   2.853   3.170
 2314TIP3    H1 6948   4.749   2.804   3.115
 2314TIP3    H2 6949   4.673   2.790   3.244
 2315TIP3   OH2 6950   4.795   2.473   1.307
 2315TIP3    H1 6951   4.776   2.434   1.219
 2315TIP3    H2 6952   4.762   2.564   1.290
 2316TIP3   OH2 6953   4.281   2.205   3.138
 2316TIP3    H1 6954   4.276   2.132   3.073
 2316TIP3    H2 6955   4.239   2.279   3.089
 2317TIP3   OH2 6956   4.276   1.998   2.946
 2317TIP3    H1 6957   4.301   2.038   2.861
 2317TIP3    H2 6958   4.182   1.975   2.932
 2318TIP3   OH2 6959   4.291   2.538   2.820
 2318TIP3    H1 6960   4.376   2.555   2.778
 2318TIP3    H2 6961   4.229   2.595   2.768
 2319TIP3   OH2 6962   4.874   2.490   3.199
 2319TIP3    H1 6963   4.923   2.409   3.220
 2319TIP3    H2 6964   4.942   2.546   3.159
 2320TIP3   OH2 6965   4.921   2.752   2.948
 2320TIP3    H1 6966   4.866   2.809   2.889
 2320TIP3    H2 6967   5.010   2.771   2.910
 2321TIP3   OH2 6968   4.157   2.300   3.380
 2321TIP3    H1 6969   4.081   2.242   3.398
 2321TIP3    H2 6970   4.180   2.274   3.289
 2322TIP3   OH2 6971   4.404   1.758   3.031
 2322TIP3    H1 6972   4.355   1.839   3.003
 2322TIP3    H2 6973   4.335   1.689   3.020
 2323TIP3   OH2 6974   4.531   2.254   3.239
 2323TIP3    H1 6975   4.506   2.239   3.332
 2323TIP3    H2 6976   4.445   2.233   3.197
 2324TIP3   OH2 6977   4.767   2.204   3.096
 2324TIP3    H1 6978   4.692   2.208   3.159
 2324TIP3    H2 6979   4.842   2.180   3.154
 2325TIP3   OH2 6980   5.005   2.161   3.242
 2325TIP3    H1 6981   5.017   2.064   3.252
 2325TIP3    H2 6982   4.997   2.191   3.335
 2326TIP3   OH2 6983   3.980   2.088   3.442
 2326TIP3    H1 6984   3.983   1.995   3.414
 2326TIP3    H2 6985   4.019   2.082   3.532
 2327TIP3   OH2 6986   4.494   1.766   3.290
 2327TIP3    H1 6987   4.558   1.693   3.279
 2327TIP3    H2 6988   4.454   1.767   3.201
 2328TIP3   OH2 6989   4.565   1.980   3.445
 2328TIP3    H1 6990   4.541   1.909   3.381
 2328TIP3    H2 6991   4.488   2.040   3.438
 2329TIP3   OH2 6992   3.796   3.212   1.544
 2329TIP3    H1 6993   3.889   3.194   1.521
 2329TIP3    H2 6994   3.770   3.268   1.469
 2330TIP3   OH2 6995   3.268   2.597   1.744
 2330TIP3    H1 6996   3.364   2.614   1.734
 2330TIP3    H2 6997   3.260   2.508   1.704
 2331TIP3   OH2 6998   3.191   3.201   2.181
 2331TIP3    H1 6999   3.125   3.142   2.137
 2331TIP3    H2 7000   3.233   3.137   2.242
 2332TIP3   OH2 7001   3.323   3.038   2.362
 2332TIP3    H1 7002   3.312   2.974   2.435
 2332TIP3    H2 7003   3.368   3.110   2.410
 2333TIP3   OH2 7004   5.057   3.438   2.163
 2333TIP3    H1 7005   5.072   3.477   2.251
 2333TIP3    H2 7006   5.113   3.493   2.106
 2334TIP3   OH2 7007   5.068   3.470   2.444
 2334TIP3    H1 7008   5.027   3.381   2.441
 2334TIP3    H2 7009   5.146   3.451   2.499
 2335TIP3   OH2 7010   5.128   3.150   3.017
 2335TIP3    H1 7011   5.042   3.177   3.052
 2335TIP3    H2 7012   5.177   3.235   3.017
 2336TIP3   OH2 7013   4.944   2.660   1.630
 2336TIP3    H1 7014   5.004   2.730   1.599
 2336TIP3    H2 7015   4.991   2.626   1.708
 2337TIP3   OH2 7016   5.072   2.524   1.837
 2337TIP3    H1 7017   5.000   2.486   1.892
 2337TIP3    H2 7018   5.132   2.562   1.904
 2338TIP3   OH2 7019   5.132   2.932   2.269
 2338TIP3    H1 7020   5.181   2.860   2.224
 2338TIP3    H2 7021   5.133   3.003   2.200
 2339TIP3   OH2 7022   4.947   3.220   2.458
 2339TIP3    H1 7023   4.874   3.263   2.506
 2339TIP3    H2 7024   4.900   3.178   2.382
 2340TIP3   OH2 7025   5.003   2.442   1.478
 2340TIP3    H1 7026   4.929   2.441   1.412
 2340TIP3    H2 7027   4.975   2.518   1.533
 2341TIP3   OH2 7028   4.875   2.108   1.428
 2341TIP3    H1 7029   4.821   2.141   1.356
 2341TIP3    H2 7030   4.858   2.011   1.421
 2342TIP3   OH2 7031   4.875   2.394   1.977
 2342TIP3    H1 7032   4.879   2.297   1.966
 2342TIP3    H2 7033   4.858   2.403   2.073
 2343TIP3   OH2 7034   3.498   2.468   2.729
 2343TIP3    H1 7035   3.490   2.426   2.640
 2343TIP3    H2 7036   3.595   2.463   2.742
 2344TIP3   OH2 7037   5.169   2.814   2.840
 2344TIP3    H1 7038   5.236   2.745   2.822
 2344TIP3    H2 7039   5.187   2.879   2.771
 2345TIP3   OH2 7040   5.346   2.605   2.826
 2345TIP3    H1 7041   5.271   2.560   2.870
 2345TIP3    H2 7042   5.419   2.545   2.852
 2346TIP3   OH2 7043   4.815   1.841   1.406
 2346TIP3    H1 7044   4.878   1.806   1.472
 2346TIP3    H2 7045   4.734   1.790   1.422
 2347TIP3   OH2 7046   4.878   2.112   1.864
 2347TIP3    H1 7047   4.921   2.024   1.877
 2347TIP3    H2 7048   4.932   2.146   1.790
 2348TIP3   OH2 7049   5.030   2.268   2.372
 2348TIP3    H1 7050   5.115   2.290   2.327
 2348TIP3    H2 7051   5.047   2.309   2.458
 2349TIP3   OH2 7052   5.110   2.424   2.593
 2349TIP3    H1 7053   5.035   2.455   2.647
 2349TIP3    H2 7054   5.141   2.508   2.553
 2350TIP3   OH2 7055   3.715   2.134   3.377
 2350TIP3    H1 7056   3.811   2.140   3.397
 2350TIP3    H2 7057   3.693   2.050   3.422
 2351TIP3   OH2 7058   5.559   2.025   3.149
 2351TIP3    H1 7059   5.619   1.961   3.105
 2351TIP3    H2 7060   5.523   2.073   3.072
 2352TIP3   OH2 7061   4.985   1.860   1.908
 2352TIP3    H1 7062   5.029   1.841   1.994
 2352TIP3    H2 7063   4.921   1.786   1.904
 2353TIP3   OH2 7064   3.687   1.840   2.724
 2353TIP3    H1 7065   3.749   1.765   2.732
 2353TIP3    H2 7066   3.748   1.915   2.716
 2354TIP3   OH2 7067   3.477   2.105   2.807
 2354TIP3    H1 7068   3.531   2.119   2.727
 2354TIP3    H2 7069   3.481   2.191   2.852
 2355TIP3   OH2 7070   5.419   2.147   2.951
 2355TIP3    H1 7071   5.335   2.194   2.971
 2355TIP3    H2 7072   5.384   2.073   2.898
 2356TIP3   OH2 7073   5.053   1.780   1.555
 2356TIP3    H1 7074   5.090   1.718   1.488
 2356TIP3    H2 7075   5.117   1.854   1.551
 2357TIP3   OH2 7076   3.471   1.609   2.300
 2357TIP3    H1 7077   3.382   1.603   2.338
 2357TIP3    H2 7078   3.457   1.670   2.225
 2358TIP3   OH2 7079   4.628   3.323   1.812
 2358TIP3    H1 7080   4.685   3.320   1.732
 2358TIP3    H2 7081   4.671   3.392   1.866
 2359TIP3   OH2 7082   3.688   1.682   3.113
 2359TIP3    H1 7083   3.640   1.690   3.197
 2359TIP3    H2 7084   3.627   1.729   3.053
 2360TIP3   OH2 7085   4.515   3.544   2.754
 2360TIP3    H1 7086   4.568   3.502   2.685
 2360TIP3    H2 7087   4.583   3.596   2.802
 2361TIP3   OH2 7088   5.325   1.909   2.839
 2361TIP3    H1 7089   5.236   1.892   2.803
 2361TIP3    H2 7090   5.364   1.819   2.832
 2362TIP3   OH2 7091   3.862   3.430   2.631
 2362TIP3    H1 7092   3.797   3.362   2.654
 2362TIP3    H2 7093   3.829   3.460   2.544
 2363TIP3   OH2 7094   4.254   3.441   2.405
 2363TIP3    H1 7095   4.176   3.449   2.347
 2363TIP3    H2 7096   4.266   3.533   2.435
 2364TIP3   OH2 7097   4.510   3.361   2.494
 2364TIP3    H1 7098   4.421   3.385   2.461
 2364TIP3    H2 7099   4.565   3.417   2.436
 2365TIP3   OH2 7100   4.702   3.538   2.384
 2365TIP3    H1 7101   4.698   3.627   2.342
 2365TIP3    H2 7102   4.735   3.484   2.309
 2366TIP3   OH2 7103   3.498   3.215   2.513
 2366TIP3    H1 7104   3.525   3.180   2.601
 2366TIP3    H2 7105   3.567   3.171   2.458
 2367TIP3   OH2 7106   3.688   3.087   2.373
 2367TIP3    H1 7107   3.700   3.001   2.421
 2367TIP3    H2 7108   3.781   3.120   2.372
 2368TIP3   OH2 7109   3.955   3.162   2.369
 2368TIP3    H1 7110   3.974   3.066   2.364
 2368TIP3    H2 7111   4.024   3.187   2.434
 2369TIP3   OH2 7112   4.536   1.829   2.474
 2369TIP3    H1 7113   4.493   1.754   2.519
 2369TIP3    H2 7114   4.608   1.786   2.423
 2370TIP3   OH2 7115   5.042   1.715   2.361
 2370TIP3    H1 7116   5.078   1.766   2.285
 2370TIP3    H2 7117   4.947   1.737   2.357
 2371TIP3   OH2 7118   5.144   1.805   2.126
 2371TIP3    H1 7119   5.220   1.753   2.093
 2371TIP3    H2 7120   5.178   1.897   2.112
 2372TIP3   OH2 7121   3.776   1.532   2.473
 2372TIP3    H1 7122   3.684   1.499   2.480
 2372TIP3    H2 7123   3.824   1.447   2.467
 2373TIP3   OH2 7124   3.577   1.414   2.130
 2373TIP3    H1 7125   3.601   1.471   2.055
 2373TIP3    H2 7126   3.546   1.480   2.196
 2374TIP3   OH2 7127   4.233   1.565   2.358
 2374TIP3    H1 7128   4.284   1.611   2.289
 2374TIP3    H2 7129   4.263   1.608   2.439
 2375TIP3   OH2 7130   4.759   1.718   2.338
 2375TIP3    H1 7131   4.767   1.672   2.254
 2375TIP3    H2 7132   4.756   1.642   2.401
 2376TIP3   OH2 7133   4.802   1.650   1.907
 2376TIP3    H1 7134   4.720   1.695   1.934
 2376TIP3    H2 7135   4.787   1.561   1.945
 2377TIP3   OH2 7136   3.280   2.995   1.895
 2377TIP3    H1 7137   3.194   2.962   1.864
 2377TIP3    H2 7138   3.275   3.086   1.862
 2378TIP3   OH2 7139   3.693   1.564   1.885
 2378TIP3    H1 7140   3.739   1.501   1.827
 2378TIP3    H2 7141   3.767   1.618   1.919
 2379TIP3   OH2 7142   4.190   1.751   1.984
 2379TIP3    H1 7143   4.249   1.704   2.045
 2379TIP3    H2 7144   4.210   1.844   2.010
 2380TIP3   OH2 7145   4.058   3.154   1.486
 2380TIP3    H1 7146   4.144   3.180   1.447
 2380TIP3    H2 7147   4.035   3.080   1.426
 2381TIP3   OH2 7148   4.782   3.294   1.583
 2381TIP3    H1 7149   4.774   3.196   1.573
 2381TIP3    H2 7150   4.731   3.324   1.504
 2382TIP3   OH2 7151   3.984   1.815   3.364
 2382TIP3    H1 7152   3.947   1.745   3.420
 2382TIP3    H2 7153   4.077   1.816   3.394
 2383TIP3   OH2 7154   4.236   1.814   3.484
 2383TIP3    H1 7155   4.322   1.790   3.446
 2383TIP3    H2 7156   4.222   1.744   3.550
 2384TIP3   OH2 7157   3.357   2.999   1.536
 2384TIP3    H1 7158   3.365   3.004   1.633
 2384TIP3    H2 7159   3.441   2.953   1.513
 2385TIP3   OH2 7160   5.068   1.889   3.268
 2385TIP3    H1 7161   5.082   1.859   3.361
 2385TIP3    H2 7162   5.158   1.880   3.232
 2386TIP3   OH2 7163   4.985   3.432   2.767
 2386TIP3    H1 7164   4.913   3.407   2.706
 2386TIP3    H2 7165   4.972   3.529   2.770
 2387TIP3   OH2 7166   6.159   2.759   1.977
 2387TIP3    H1 7167   6.249   2.781   2.006
 2387TIP3    H2 7168   6.171   2.764   1.880
 2388TIP3   OH2 7169   5.564   2.691   2.276
 2388TIP3    H1 7170   5.592   2.618   2.334
 2388TIP3    H2 7171   5.631   2.758   2.297
 2389TIP3   OH2 7172   5.544   3.114   1.994
 2389TIP3    H1 7173   5.535   3.017   1.995
 2389TIP3    H2 7174   5.640   3.123   1.983
 2390TIP3   OH2 7175   5.250   2.312   1.769
 2390TIP3    H1 7176   5.197   2.389   1.797
 2390TIP3    H2 7177   5.180   2.262   1.722
 2391TIP3   OH2 7178   5.297   2.601   1.975
 2391TIP3    H1 7179   5.352   2.523   2.000
 2391TIP3    H2 7180   5.354   2.648   1.913
 2392TIP3   OH2 7181   6.198   3.521   1.608
 2392TIP3    H1 7182   6.240   3.438   1.636
 2392TIP3    H2 7183   6.153   3.543   1.691
 2393TIP3   OH2 7184   6.048   3.032   1.961
 2393TIP3    H1 7185   6.094   2.946   1.951
 2393TIP3    H2 7186   6.119   3.094   1.936
 2394TIP3   OH2 7187   5.800   2.174   1.959
 2394TIP3    H1 7188   5.779   2.242   1.893
 2394TIP3    H2 7189   5.751   2.098   1.922
 2395TIP3   OH2 7190   5.450   2.393   2.064
 2395TIP3    H1 7191   5.530   2.371   2.115
 2395TIP3    H2 7192   5.465   2.336   1.985
 2396TIP3   OH2 7193   5.868   2.595   1.856
 2396TIP3    H1 7194   5.955   2.562   1.884
 2396TIP3    H2 7195   5.817   2.513   1.844
 2397TIP3   OH2 7196   5.805   2.180   2.398
 2397TIP3    H1 7197   5.748   2.214   2.327
 2397TIP3    H2 7198   5.749   2.197   2.476
 2398TIP3   OH2 7199   6.154   3.024   1.392
 2398TIP3    H1 7200   6.099   3.016   1.312
 2398TIP3    H2 7201   6.130   3.113   1.423
 2399TIP3   OH2 7202   5.920   2.956   2.188
 2399TIP3    H1 7203   5.860   3.028   2.219
 2399TIP3    H2 7204   5.962   2.998   2.111
 2400TIP3   OH2 7205   5.682   2.288   2.175
 2400TIP3    H1 7206   5.744   2.362   2.197
 2400TIP3    H2 7207   5.732   2.243   2.104
 2401TIP3   OH2 7208   5.754   3.157   2.279
 2401TIP3    H1 7209   5.731   3.248   2.247
 2401TIP3    H2 7210   5.673   3.138   2.330
 2402TIP3   OH2 7211   5.133   2.839   1.515
 2402TIP3    H1 7212   5.091   2.862   1.430
 2402TIP3    H2 7213   5.160   2.928   1.547
 2403TIP3   OH2 7214   6.063   2.619   1.394
 2403TIP3    H1 7215   5.998   2.689   1.374
 2403TIP3    H2 7216   6.095   2.597   1.305
 2404TIP3   OH2 7217   5.660   2.737   1.745
 2404TIP3    H1 7218   5.624   2.677   1.677
 2404TIP3    H2 7219   5.741   2.690   1.773
 2405TIP3   OH2 7220   5.801   3.153   1.889
 2405TIP3    H1 7221   5.787   3.130   1.796
 2405TIP3    H2 7222   5.885   3.106   1.910
 2406TIP3   OH2 7223   5.821   2.714   2.104
 2406TIP3    H1 7224   5.851   2.701   2.012
 2406TIP3    H2 7225   5.860   2.801   2.128
 2407TIP3   OH2 7226   6.270   3.373   1.839
 2407TIP3    H1 7227   6.275   3.451   1.898
 2407TIP3    H2 7228   6.333   3.312   1.881
 2408TIP3   OH2 7229   5.953   3.256   2.437
 2408TIP3    H1 7230   5.891   3.319   2.481
 2408TIP3    H2 7231   5.890   3.208   2.380
 2409TIP3   OH2 7232   5.708   2.811   2.539
 2409TIP3    H1 7233   5.714   2.902   2.575
 2409TIP3    H2 7234   5.615   2.791   2.561
 2410TIP3   OH2 7235   6.056   3.294   1.420
 2410TIP3    H1 7236   6.043   3.375   1.471
 2410TIP3    H2 7237   5.988   3.303   1.351
 2411TIP3   OH2 7238   5.746   3.419   2.517
 2411TIP3    H1 7239   5.713   3.433   2.426
 2411TIP3    H2 7240   5.662   3.401   2.566
 2412TIP3   OH2 7241   5.540   2.572   1.548
 2412TIP3    H1 7242   5.474   2.625   1.498
 2412TIP3    H2 7243   5.489   2.493   1.565
 2413TIP3   OH2 7244   5.325   2.965   2.464
 2413TIP3    H1 7245   5.253   2.952   2.399
 2413TIP3    H2 7246   5.360   2.874   2.475
 2414TIP3   OH2 7247   5.179   3.158   2.097
 2414TIP3    H1 7248   5.275   3.165   2.094
 2414TIP3    H2 7249   5.155   3.238   2.147
 2415TIP3   OH2 7250   6.134   3.394   2.283
 2415TIP3    H1 7251   6.125   3.484   2.320
 2415TIP3    H2 7252   6.072   3.344   2.342
 2416TIP3   OH2 7253   5.907   3.515   1.244
 2416TIP3    H1 7254   5.858   3.503   1.161
 2416TIP3    H2 7255   5.871   3.599   1.278
 2417TIP3   OH2 7256   5.352   3.366   1.625
 2417TIP3    H1 7257   5.394   3.358   1.713
 2417TIP3    H2 7258   5.304   3.281   1.618
 2418TIP3   OH2 7259   6.102   3.390   0.888
 2418TIP3    H1 7260   6.170   3.336   0.845
 2418TIP3    H2 7261   6.143   3.409   0.975
 2419TIP3   OH2 7262   6.152   3.459   1.147
 2419TIP3    H1 7263   6.062   3.480   1.183
 2419TIP3    H2 7264   6.192   3.415   1.223
 2420TIP3   OH2 7265   5.530   3.145   2.435
 2420TIP3    H1 7266   5.575   3.133   2.521
 2420TIP3    H2 7267   5.454   3.084   2.444
 2421TIP3   OH2 7268   5.907   1.952   2.266
 2421TIP3    H1 7269   5.818   1.928   2.232
 2421TIP3    H2 7270   5.888   2.039   2.307
 2422TIP3   OH2 7271   5.851   2.487   2.248
 2422TIP3    H1 7272   5.801   2.505   2.331
 2422TIP3    H2 7273   5.839   2.573   2.201
 2423TIP3   OH2 7274   5.754   2.361   1.764
 2423TIP3    H1 7275   5.660   2.337   1.783
 2423TIP3    H2 7276   5.754   2.355   1.666
 2424TIP3   OH2 7277   5.685   2.510   2.463
 2424TIP3    H1 7278   5.695   2.577   2.533
 2424TIP3    H2 7279   5.667   2.429   2.515
 2425TIP3   OH2 7280   5.729   1.968   1.177
 2425TIP3    H1 7281   5.718   1.974   1.273
 2425TIP3    H2 7282   5.661   2.030   1.145
 2426TIP3   OH2 7283   5.269   2.029   2.045
 2426TIP3    H1 7284   5.342   2.065   2.099
 2426TIP3    H2 7285   5.312   2.001   1.963
 2427TIP3   OH2 7286   5.219   2.012   1.563
 2427TIP3    H1 7287   5.263   2.049   1.484
 2427TIP3    H2 7288   5.157   2.084   1.582
 2428TIP3   OH2 7289   6.054   2.159   1.856
 2428TIP3    H1 7290   5.967   2.134   1.892
 2428TIP3    H2 7291   6.106   2.152   1.940
 2429TIP3   OH2 7292   5.510   2.254   1.827
 2429TIP3    H1 7293   5.415   2.269   1.801
 2429TIP3    H2 7294   5.520   2.159   1.809
 2430TIP3   OH2 7295   5.823   2.305   1.508
 2430TIP3    H1 7296   5.882   2.253   1.454
 2430TIP3    H2 7297   5.744   2.308   1.448
 2431TIP3   OH2 7298   5.627   2.268   1.321
 2431TIP3    H1 7299   5.557   2.217   1.274
 2431TIP3    H2 7300   5.670   2.309   1.243
 2432TIP3   OH2 7301   5.694   3.065   2.668
 2432TIP3    H1 7302   5.772   3.096   2.717
 2432TIP3    H2 7303   5.627   3.065   2.739
 2433TIP3   OH2 7304   6.097   2.448   1.908
 2433TIP3    H1 7305   6.192   2.461   1.889
 2433TIP3    H2 7306   6.102   2.439   2.005
 2434TIP3   OH2 7307   5.669   1.993   1.809
 2434TIP3    H1 7308   5.615   1.926   1.857
 2434TIP3    H2 7309   5.746   1.939   1.784
 2435TIP3   OH2 7310   6.113   2.433   2.241
 2435TIP3    H1 7311   6.016   2.445   2.241
 2435TIP3    H2 7312   6.142   2.524   2.260
 2436TIP3   OH2 7313   5.862   2.808   1.321
 2436TIP3    H1 7314   5.789   2.745   1.304
 2436TIP3    H2 7315   5.837   2.842   1.410
 2437TIP3   OH2 7316   6.284   3.114   2.330
 2437TIP3    H1 7317   6.265   3.132   2.422
 2437TIP3    H2 7318   6.252   3.194   2.286
 2438TIP3   OH2 7319   5.563   2.840   1.985
 2438TIP3    H1 7320   5.597   2.806   1.900
 2438TIP3    H2 7321   5.605   2.781   2.050
 2439TIP3   OH2 7322   6.006   2.965   1.157
 2439TIP3    H1 7323   5.960   3.052   1.151
 2439TIP3    H2 7324   5.946   2.915   1.217
 2440TIP3   OH2 7325   5.449   2.740   2.598
 2440TIP3    H1 7326   5.451   2.725   2.694
 2440TIP3    H2 7327   5.372   2.686   2.573
 2441TIP3   OH2 7328   6.158   2.843   2.627
 2441TIP3    H1 7329   6.078   2.799   2.592
 2441TIP3    H2 7330   6.220   2.767   2.626
 2442TIP3   OH2 7331   6.400   3.381   2.191
 2442TIP3    H1 7332   6.308   3.397   2.222
 2442TIP3    H2 7333   6.449   3.433   2.257
 2443TIP3   OH2 7334   5.664   3.146   1.612
 2443TIP3    H1 7335   5.651   3.226   1.556
 2443TIP3    H2 7336   5.572   3.125   1.635
 2444TIP3   OH2 7337   5.234   2.440   1.331
 2444TIP3    H1 7338   5.273   2.528   1.351
 2444TIP3    H2 7339   5.153   2.443   1.386
 2445TIP3   OH2 7340   5.778   2.903   1.557
 2445TIP3    H1 7341   5.748   2.994   1.574
 2445TIP3    H2 7342   5.735   2.854   1.630
 2446TIP3   OH2 7343   5.938   3.476   2.077
 2446TIP3    H1 7344   5.981   3.549   2.027
 2446TIP3    H2 7345   6.013   3.441   2.128
 2447TIP3   OH2 7346   5.579   3.374   1.467
 2447TIP3    H1 7347   5.492   3.387   1.512
 2447TIP3    H2 7348   5.614   3.466   1.470
 2448TIP3   OH2 7349   5.638   2.261   2.602
 2448TIP3    H1 7350   5.541   2.266   2.611
 2448TIP3    H2 7351   5.662   2.210   2.681
 2449TIP3   OH2 7352   5.373   3.344   2.232
 2449TIP3    H1 7353   5.428   3.283   2.284
 2449TIP3    H2 7354   5.391   3.429   2.274
 2450TIP3   OH2 7355   5.646   2.997   0.929
 2450TIP3    H1 7356   5.697   2.917   0.907
 2450TIP3    H2 7357   5.620   2.980   1.022
 2451TIP3   OH2 7358   5.594   2.995   1.200
 2451TIP3    H1 7359   5.671   2.973   1.254
 2451TIP3    H2 7360   5.593   3.093   1.206
 2452TIP3   OH2 7361   5.333   2.687   1.408
 2452TIP3    H1 7362   5.263   2.732   1.460
 2452TIP3    H2 7363   5.342   2.752   1.335
 2453TIP3   OH2 7364   5.871   3.201   1.158
 2453TIP3    H1 7365   5.780   3.221   1.187
 2453TIP3    H2 7366   5.881   3.267   1.087
 2454TIP3   OH2 7367   5.613   3.266   1.218
 2454TIP3    H1 7368   5.584   3.337   1.156
 2454TIP3    H2 7369   5.595   3.308   1.305
 2455TIP3   OH2 7370   5.705   1.976   1.451
 2455TIP3    H1 7371   5.678   2.054   1.500
 2455TIP3    H2 7372   5.803   1.976   1.467
 2456TIP3   OH2 7373   5.333   2.879   1.205
 2456TIP3    H1 7374   5.407   2.943   1.210
 2456TIP3    H2 7375   5.371   2.817   1.138
 2457TIP3   OH2 7376   5.270   2.167   1.343
 2457TIP3    H1 7377   5.272   2.265   1.344
 2457TIP3    H2 7378   5.201   2.150   1.278
 2458TIP3   OH2 7379   5.646   1.887   2.205
 2458TIP3    H1 7380   5.618   1.852   2.117
 2458TIP3    H2 7381   5.636   1.808   2.262
 2459TIP3   OH2 7382   5.183   3.103   1.582
 2459TIP3    H1 7383   5.139   3.135   1.663
 2459TIP3    H2 7384   5.138   3.155   1.511
 2460TIP3   OH2 7385   5.367   3.671   2.662
 2460TIP3    H1 7386   5.453   3.675   2.710
 2460TIP3    H2 7387   5.352   3.575   2.660
 2461TIP3   OH2 7388   5.831   3.595   2.710
 2461TIP3    H1 7389   5.927   3.583   2.711
 2461TIP3    H2 7390   5.805   3.532   2.639
 2462TIP3   OH2 7391   5.805   3.199   0.840
 2462TIP3    H1 7392   5.755   3.124   0.879
 2462TIP3    H2 7393   5.873   3.152   0.788
 2463TIP3   OH2 7394   6.452   3.522   2.452
 2463TIP3    H1 7395   6.432   3.456   2.522
 2463TIP3    H2 7396   6.543   3.497   2.427
 2464TIP3   OH2 7397   5.488   3.063   2.859
 2464TIP3    H1 7398   5.503   2.967   2.870
 2464TIP3    H2 7399   5.401   3.066   2.814
 2465TIP3   OH2 7400   5.472   2.698   1.063
 2465TIP3    H1 7401   5.534   2.681   1.136
 2465TIP3    H2 7402   5.534   2.701   0.987
 2466TIP3   OH2 7403   6.097   3.138   2.634
 2466TIP3    H1 7404   6.048   3.171   2.555
 2466TIP3    H2 7405   6.119   3.047   2.610
 2467TIP3   OH2 7406   5.938   2.901   0.890
 2467TIP3    H1 7407   5.957   2.913   0.985
 2467TIP3    H2 7408   6.006   2.834   0.866
 2468TIP3   OH2 7409   5.612   2.805   2.853
 2468TIP3    H1 7410   5.690   2.763   2.817
 2468TIP3    H2 7411   5.643   2.834   2.941
 2469TIP3   OH2 7412   5.667   2.619   1.279
 2469TIP3    H1 7413   5.638   2.580   1.362
 2469TIP3    H2 7414   5.700   2.541   1.230
 2470TIP3   OH2 7415   5.956   2.695   2.507
 2470TIP3    H1 7416   5.870   2.741   2.502
 2470TIP3    H2 7417   5.998   2.717   2.421
 2471TIP3   OH2 7418   5.760   2.408   1.124
 2471TIP3    H1 7419   5.725   2.411   1.032
 2471TIP3    H2 7420   5.855   2.406   1.106
 2472TIP3   OH2 7421   6.050   2.475   2.634
 2472TIP3    H1 7422   6.055   2.395   2.577
 2472TIP3    H2 7423   6.010   2.541   2.574
 2473TIP3   OH2 7424   6.061   2.258   2.460
 2473TIP3    H1 7425   6.092   2.303   2.378
 2473TIP3    H2 7426   5.970   2.231   2.434
 2474TIP3   OH2 7427   6.082   2.751   2.275
 2474TIP3    H1 7428   6.134   2.748   2.193
 2474TIP3    H2 7429   6.031   2.833   2.259
 2475TIP3   OH2 7430   5.951   2.561   2.874
 2475TIP3    H1 7431   5.883   2.494   2.895
 2475TIP3    H2 7432   5.978   2.532   2.784
 2476TIP3   OH2 7433   6.177   2.007   2.515
 2476TIP3    H1 7434   6.139   2.097   2.511
 2476TIP3    H2 7435   6.099   1.953   2.537
 2477TIP3   OH2 7436   6.296   2.605   2.661
 2477TIP3    H1 7437   6.355   2.546   2.711
 2477TIP3    H2 7438   6.210   2.560   2.672
 2478TIP3   OH2 7439   5.784   2.345   2.930
 2478TIP3    H1 7440   5.784   2.254   2.897
 2478TIP3    H2 7441   5.824   2.333   3.019
 2479TIP3   OH2 7442   6.310   2.196   2.864
 2479TIP3    H1 7443   6.252   2.138   2.815
 2479TIP3    H2 7444   6.249   2.264   2.901
 2480TIP3   OH2 7445   5.589   3.471   1.033
 2480TIP3    H1 7446   5.683   3.460   1.010
 2480TIP3    H2 7447   5.560   3.524   0.956
 2481TIP3   OH2 7448   5.062   2.849   1.237
 2481TIP3    H1 7449   5.158   2.869   1.223
 2481TIP3    H2 7450   5.054   2.763   1.192
 2482TIP3   OH2 7451   4.987   3.458   1.663
 2482TIP3    H1 7452   4.921   3.401   1.617
 2482TIP3    H2 7453   5.030   3.392   1.722
 2483TIP3   OH2 7454   5.119   3.290   1.843
 2483TIP3    H1 7455   5.100   3.232   1.918
 2483TIP3    H2 7456   5.171   3.359   1.887
 2484TIP3   OH2 7457   5.297   2.714   2.224
 2484TIP3    H1 7458   5.288   2.677   2.133
 2484TIP3    H2 7459   5.395   2.715   2.232
 2485TIP3   OH2 7460   5.518   2.400   2.891
 2485TIP3    H1 7461   5.616   2.397   2.902
 2485TIP3    H2 7462   5.494   2.312   2.925
 2486TIP3   OH2 7463   5.475   2.102   2.214
 2486TIP3    H1 7464   5.533   2.024   2.222
 2486TIP3    H2 7465   5.541   2.173   2.208
 2487TIP3   OH2 7466   5.273   2.367   2.289
 2487TIP3    H1 7467   5.324   2.370   2.206
 2487TIP3    H2 7468   5.295   2.451   2.330
 2488TIP3   OH2 7469   5.268   1.873   1.792
 2488TIP3    H1 7470   5.177   1.862   1.825
 2488TIP3    H2 7471   5.254   1.931   1.714
 2489TIP3   OH2 7472   5.488   1.949   2.605
 2489TIP3    H1 7473   5.435   1.947   2.686
 2489TIP3    H2 7474   5.424   1.991   2.543
 2490TIP3   OH2 7475   5.522   3.384   2.675
 2490TIP3    H1 7476   5.426   3.368   2.667
 2490TIP3    H2 7477   5.537   3.372   2.769
 2491TIP3   OH2 7478   5.714   3.426   2.231
 2491TIP3    H1 7479   5.663   3.502   2.194
 2491TIP3    H2 7480   5.798   3.441   2.182
 2492TIP3   OH2 7481   6.129   3.658   2.365
 2492TIP3    H1 7482   6.167   3.660   2.456
 2492TIP3    H2 7483   6.196   3.713   2.319
 2493TIP3   OH2 7484   6.313   3.825   2.240
 2493TIP3    H1 7485   6.379   3.798   2.174
 2493TIP3    H2 7486   6.370   3.875   2.302
 2494TIP3   OH2 7487   5.381   3.672   2.266
 2494TIP3    H1 7488   5.286   3.692   2.245
 2494TIP3    H2 7489   5.400   3.746   2.327
 2495TIP3   OH2 7490   5.613   3.654   2.119
 2495TIP3    H1 7491   5.525   3.663   2.162
 2495TIP3    H2 7492   5.594   3.686   2.028
 2496TIP3   OH2 7493   6.037   3.675   1.908
 2496TIP3    H1 7494   5.957   3.689   1.854
 2496TIP3    H2 7495   6.046   3.762   1.953
 2497TIP3   OH2 7496   6.307   3.631   1.936
 2497TIP3    H1 7497   6.211   3.649   1.929
 2497TIP3    H2 7498   6.345   3.719   1.919
 2498TIP3   OH2 7499   5.289   3.463   1.992
 2498TIP3    H1 7500   5.312   3.430   2.081
 2498TIP3    H2 7501   5.364   3.426   1.941
 2499TIP3   OH2 7502   5.491   3.343   1.861
 2499TIP3    H1 7503   5.503   3.259   1.912
 2499TIP3    H2 7504   5.583   3.377   1.861
 2500TIP3   OH2 7505   5.758   3.425   1.874
 2500TIP3    H1 7506   5.781   3.330   1.872
 2500TIP3    H2 7507   5.814   3.453   1.949
 2501TIP3   OH2 7508   5.563   1.794   1.957
 2501TIP3    H1 7509   5.470   1.764   1.962
 2501TIP3    H2 7510   5.608   1.707   1.957
 2502TIP3   OH2 7511   5.379   1.673   1.620
 2502TIP3    H1 7512   5.399   1.726   1.541
 2502TIP3    H2 7513   5.348   1.740   1.683
 2503TIP3   OH2 7514   5.948   1.867   1.836
 2503TIP3    H1 7515   6.032   1.838   1.796
 2503TIP3    H2 7516   5.971   1.871   1.929
 2504TIP3   OH2 7517   5.075   3.253   1.381
 2504TIP3    H1 7518   4.987   3.224   1.351
 2504TIP3    H2 7519   5.074   3.344   1.342
 2505TIP3   OH2 7520   5.488   1.813   1.371
 2505TIP3    H1 7521   5.532   1.752   1.309
 2505TIP3    H2 7522   5.563   1.864   1.405
 2506TIP3   OH2 7523   5.977   2.005   1.487
 2506TIP3    H1 7524   6.029   1.958   1.554
 2506TIP3    H2 7525   6.043   2.017   1.417
 2507TIP3   OH2 7526   5.850   3.425   0.977
 2507TIP3    H1 7527   5.942   3.437   0.945
 2507TIP3    H2 7528   5.823   3.353   0.916
 2508TIP3   OH2 7529   5.777   2.074   2.850
 2508TIP3    H1 7530   5.738   2.002   2.904
 2508TIP3    H2 7531   5.870   2.071   2.881
 2509TIP3   OH2 7532   6.023   2.064   2.979
 2509TIP3    H1 7533   6.111   2.027   2.961
 2509TIP3    H2 7534   5.993   2.005   3.051
 2510TIP3   OH2 7535   5.157   3.254   1.017
 2510TIP3    H1 7536   5.162   3.272   1.112
 2510TIP3    H2 7537   5.243   3.209   1.001
 2511TIP3   OH2 7538   0.522   3.856   2.698
 2511TIP3    H1 7539   0.482   3.941   2.670
 2511TIP3    H2 7540   0.452   3.795   2.667
 2512TIP3   OH2 7541   0.519   3.849   3.103
 2512TIP3    H1 7542   0.564   3.834   3.189
 2512TIP3    H2 7543   0.481   3.761   3.088
 2513TIP3   OH2 7544   0.773   4.156   2.781
 2513TIP3    H1 7545   0.739   4.102   2.853
 2513TIP3    H2 7546   0.802   4.237   2.828
 2514TIP3   OH2 7547   0.412   4.613   2.787
 2514TIP3    H1 7548   0.448   4.540   2.733
 2514TIP3    H2 7549   0.404   4.572   2.874
 2515TIP3   OH2 7550   0.329   4.068   3.147
 2515TIP3    H1 7551   0.370   3.995   3.099
 2515TIP3    H2 7552   0.411   4.118   3.171
 2516TIP3   OH2 7553   1.326   3.406   3.117
 2516TIP3    H1 7554   1.363   3.485   3.163
 2516TIP3    H2 7555   1.382   3.403   3.036
 2517TIP3   OH2 7556   0.747   3.574   3.151
 2517TIP3    H1 7557   0.775   3.483   3.175
 2517TIP3    H2 7558   0.698   3.557   3.068
 2518TIP3   OH2 7559   0.067   3.258   3.091
 2518TIP3    H1 7560  -0.017   3.301   3.068
 2518TIP3    H2 7561   0.048   3.170   3.051
 2519TIP3   OH2 7562   0.770   3.338   2.747
 2519TIP3    H1 7563   0.840   3.329   2.816
 2519TIP3    H2 7564   0.824   3.366   2.671
 2520TIP3   OH2 7565   0.146   3.637   3.033
 2520TIP3    H1 7566   0.243   3.634   3.046
 2520TIP3    H2 7567   0.129   3.544   3.011
 2521TIP3   OH2 7568   1.401   3.613   3.293
 2521TIP3    H1 7569   1.324   3.672   3.286
 2521TIP3    H2 7570   1.432   3.634   3.383
 2522TIP3   OH2 7571   0.074   3.218   3.545
 2522TIP3    H1 7572   0.000   3.235   3.483
 2522TIP3    H2 7573   0.028   3.231   3.631
 2523TIP3   OH2 7574   0.396   4.061   2.566
 2523TIP3    H1 7575   0.369   4.062   2.472
 2523TIP3    H2 7576   0.354   4.144   2.597
 2524TIP3   OH2 7577   0.170   4.034   3.357
 2524TIP3    H1 7578   0.181   4.118   3.405
 2524TIP3    H2 7579   0.226   4.051   3.278
 2525TIP3   OH2 7580   0.965   3.339   2.937
 2525TIP3    H1 7581   0.937   3.294   3.018
 2525TIP3    H2 7582   1.057   3.311   2.926
 2526TIP3   OH2 7583  -0.042   3.356   3.324
 2526TIP3    H1 7584   0.016   3.416   3.375
 2526TIP3    H2 7585   0.022   3.309   3.268
 2527TIP3   OH2 7586   0.826   4.399   2.927
 2527TIP3    H1 7587   0.737   4.392   2.969
 2527TIP3    H2 7588   0.819   4.487   2.884
 2528TIP3   OH2 7589   1.129   3.297   3.299
 2528TIP3    H1 7590   1.041   3.315   3.264
 2528TIP3    H2 7591   1.187   3.331   3.228
 2529TIP3   OH2 7592   0.414   2.920   3.278
 2529TIP3    H1 7593   0.398   2.828   3.305
 2529TIP3    H2 7594   0.338   2.964   3.323
 2530TIP3   OH2 7595   0.521   4.439   2.599
 2530TIP3    H1 7596   0.574   4.357   2.585
 2530TIP3    H2 7597   0.587   4.505   2.565
 2531TIP3   OH2 7598   0.667   4.220   2.533
 2531TIP3    H1 7599   0.640   4.137   2.491
 2531TIP3    H2 7600   0.713   4.189   2.614
 2532TIP3   OH2 7601   1.052   4.298   3.267
 2532TIP3    H1 7602   1.056   4.233   3.197
 2532TIP3    H2 7603   1.032   4.380   3.217
 2533TIP3   OH2 7604   0.355   3.697   2.551
 2533TIP3    H1 7605   0.277   3.755   2.535
 2533TIP3    H2 7606   0.395   3.694   2.462
 2534TIP3   OH2 7607   0.303   3.493   2.247
 2534TIP3    H1 7608   0.369   3.546   2.296
 2534TIP3    H2 7609   0.361   3.431   2.199
 2535TIP3   OH2 7610   0.701   3.786   2.506
 2535TIP3    H1 7611   0.645   3.813   2.582
 2535TIP3    H2 7612   0.784   3.763   2.552
 2536TIP3   OH2 7613   0.917   3.820   3.442
 2536TIP3    H1 7614   0.921   3.901   3.496
 2536TIP3    H2 7615   0.831   3.830   3.398
 2537TIP3   OH2 7616  -0.092   3.693   2.845
 2537TIP3    H1 7617  -0.107   3.759   2.774
 2537TIP3    H2 7618   0.002   3.711   2.866
 2538TIP3   OH2 7619   0.061   4.190   3.058
 2538TIP3    H1 7620   0.075   4.235   2.973
 2538TIP3    H2 7621   0.150   4.197   3.097
 2539TIP3   OH2 7622   0.119   3.756   3.292
 2539TIP3    H1 7623   0.152   3.746   3.201
 2539TIP3    H2 7624   0.132   3.851   3.311
 2540TIP3   OH2 7625   0.592   4.388   3.062
 2540TIP3    H1 7626   0.580   4.473   3.110
 2540TIP3    H2 7627   0.569   4.322   3.129
 2541TIP3   OH2 7628   0.528   3.644   2.342
 2541TIP3    H1 7629   0.589   3.704   2.390
 2541TIP3    H2 7630   0.555   3.661   2.249
 2542TIP3   OH2 7631   0.285   4.306   2.611
 2542TIP3    H1 7632   0.369   4.356   2.607
 2542TIP3    H2 7633   0.222   4.370   2.575
 2543TIP3   OH2 7634   1.048   2.877   2.388
 2543TIP3    H1 7635   0.966   2.902   2.436
 2543TIP3    H2 7636   1.063   2.957   2.333
 2544TIP3   OH2 7637   0.852   4.242   1.934
 2544TIP3    H1 7638   0.858   4.339   1.919
 2544TIP3    H2 7639   0.946   4.217   1.922
 2545TIP3   OH2 7640   1.290   4.661   3.338
 2545TIP3    H1 7641   1.290   4.566   3.360
 2545TIP3    H2 7642   1.206   4.689   3.381
 2546TIP3   OH2 7643   0.406   4.428   3.498
 2546TIP3    H1 7644   0.419   4.525   3.510
 2546TIP3    H2 7645   0.311   4.422   3.513
 2547TIP3   OH2 7646   0.168   4.557   2.423
 2547TIP3    H1 7647   0.125   4.551   2.336
 2547TIP3    H2 7648   0.153   4.650   2.449
 2548TIP3   OH2 7649   0.362   4.469   2.054
 2548TIP3    H1 7650   0.421   4.400   2.016
 2548TIP3    H2 7651   0.402   4.483   2.143
 2549TIP3   OH2 7652   0.420   4.521   2.323
 2549TIP3    H1 7653   0.331   4.523   2.363
 2549TIP3    H2 7654   0.474   4.494   2.399
 2550TIP3   OH2 7655   1.173   3.775   3.610
 2550TIP3    H1 7656   1.081   3.777   3.580
 2550TIP3    H2 7657   1.194   3.680   3.603
 2551TIP3   OH2 7658   0.192   3.014   3.406
 2551TIP3    H1 7659   0.102   2.977   3.389
 2551TIP3    H2 7660   0.165   3.094   3.455
 2552TIP3   OH2 7661   0.718   3.125   3.612
 2552TIP3    H1 7662   0.790   3.098   3.673
 2552TIP3    H2 7663   0.637   3.106   3.664
 2553TIP3   OH2 7664   0.934   3.558   3.524
 2553TIP3    H1 7665   0.887   3.555   3.610
 2553TIP3    H2 7666   0.915   3.649   3.492
 2554TIP3   OH2 7667   0.617   3.678   2.093
 2554TIP3    H1 7668   0.565   3.667   2.011
 2554TIP3    H2 7669   0.703   3.709   2.057
 2555TIP3   OH2 7670   0.324   3.057   2.386
 2555TIP3    H1 7671   0.284   3.055   2.476
 2555TIP3    H2 7672   0.283   2.976   2.349
 2556TIP3   OH2 7673   0.133   3.532   3.444
 2556TIP3    H1 7674   0.119   3.572   3.532
 2556TIP3    H2 7675   0.117   3.611   3.387
 2557TIP3   OH2 7676   0.479   3.495   2.684
 2557TIP3    H1 7677   0.434   3.567   2.635
 2557TIP3    H2 7678   0.537   3.458   2.614
 2558TIP3   OH2 7679   0.665   3.769   3.754
 2558TIP3    H1 7680   0.640   3.697   3.817
 2558TIP3    H2 7681   0.758   3.783   3.781
 2559TIP3   OH2 7682   0.641   3.532   2.901
 2559TIP3    H1 7683   0.568   3.549   2.837
 2559TIP3    H2 7684   0.681   3.456   2.853
 2560TIP3   OH2 7685  -0.009   3.041   2.354
 2560TIP3    H1 7686  -0.032   3.031   2.448
 2560TIP3    H2 7687  -0.083   3.096   2.323
 2561TIP3   OH2 7688   0.653   3.762   3.324
 2561TIP3    H1 7689   0.690   3.694   3.263
 2561TIP3    H2 7690   0.620   3.705   3.397
 2562TIP3   OH2 7691   0.342   3.253   3.006
 2562TIP3    H1 7692   0.259   3.255   3.057
 2562TIP3    H2 7693   0.407   3.219   3.071
 2563TIP3   OH2 7694   0.015   3.280   2.703
 2563TIP3    H1 7695   0.110   3.304   2.713
 2563TIP3    H2 7696  -0.012   3.330   2.624
 2564TIP3   OH2 7697   0.806   3.314   3.212
 2564TIP3    H1 7698   0.782   3.328   3.307
 2564TIP3    H2 7699   0.735   3.253   3.185
 2565TIP3   OH2 7700  -0.137   3.360   2.482
 2565TIP3    H1 7701  -0.195   3.304   2.426
 2565TIP3    H2 7702  -0.074   3.389   2.413
 2566TIP3   OH2 7703   0.992   5.002   3.435
 2566TIP3    H1 7704   0.989   5.032   3.342
 2566TIP3    H2 7705   1.074   5.047   3.465
 2567TIP3   OH2 7706   0.404   3.582   3.111
 2567TIP3    H1 7707   0.460   3.519   3.063
 2567TIP3    H2 7708   0.398   3.539   3.199
 2568TIP3   OH2 7709  -0.050   3.044   2.970
 2568TIP3    H1 7710  -0.040   2.970   3.034
 2568TIP3    H2 7711  -0.024   3.002   2.886
 2569TIP3   OH2 7712   0.391   3.484   3.366
 2569TIP3    H1 7713   0.300   3.502   3.399
 2569TIP3    H2 7714   0.447   3.535   3.429
 2570TIP3   OH2 7715   0.135   3.852   2.517
 2570TIP3    H1 7716   0.062   3.789   2.497
 2570TIP3    H2 7717   0.106   3.886   2.605
 2571TIP3   OH2 7718   1.031   4.048   3.073
 2571TIP3    H1 7719   1.045   4.125   3.014
 2571TIP3    H2 7720   0.934   4.031   3.062
 2572TIP3   OH2 7721   0.572   3.156   2.373
 2572TIP3    H1 7722   0.477   3.131   2.376
 2572TIP3    H2 7723   0.570   3.251   2.393
 2573TIP3   OH2 7724   0.497   4.168   3.498
 2573TIP3    H1 7725   0.547   4.164   3.581
 2573TIP3    H2 7726   0.463   4.260   3.501
 2574TIP3   OH2 7727   0.634   3.417   2.467
 2574TIP3    H1 7728   0.731   3.425   2.474
 2574TIP3    H2 7729   0.610   3.496   2.416
 2575TIP3   OH2 7730   0.257   4.007   2.318
 2575TIP3    H1 7731   0.205   4.090   2.315
 2575TIP3    H2 7732   0.212   3.955   2.387
 2576TIP3   OH2 7733   0.435   3.912   3.792
 2576TIP3    H1 7734   0.387   3.875   3.716
 2576TIP3    H2 7735   0.525   3.877   3.775
 2577TIP3   OH2 7736   0.673   4.425   3.398
 2577TIP3    H1 7737   0.578   4.420   3.417
 2577TIP3    H2 7738   0.701   4.485   3.470
 2578TIP3   OH2 7739   1.068   3.515   2.292
 2578TIP3    H1 7740   1.009   3.470   2.226
 2578TIP3    H2 7741   1.065   3.605   2.253
 2579TIP3   OH2 7742   1.298   4.366   3.374
 2579TIP3    H1 7743   1.201   4.360   3.363
 2579TIP3    H2 7744   1.327   4.339   3.284
 2580TIP3   OH2 7745   0.793   4.327   2.202
 2580TIP3    H1 7746   0.752   4.262   2.261
 2580TIP3    H2 7747   0.799   4.279   2.118
 2581TIP3   OH2 7748   0.774   3.954   3.024
 2581TIP3    H1 7749   0.679   3.938   3.040
 2581TIP3    H2 7750   0.801   3.869   2.986
 2582TIP3   OH2 7751   0.044   3.978   2.746
 2582TIP3    H1 7752   0.080   4.066   2.728
 2582TIP3    H2 7753  -0.052   3.991   2.728
 2583TIP3   OH2 7754   0.220   4.492   3.213
 2583TIP3    H1 7755   0.293   4.547   3.180
 2583TIP3    H2 7756   0.198   4.535   3.299
 2584TIP3   OH2 7757   0.564   4.164   3.234
 2584TIP3    H1 7758   0.544   4.162   3.331
 2584TIP3    H2 7759   0.651   4.123   3.233
 2585TIP3   OH2 7760   0.552   4.058   2.094
 2585TIP3    H1 7761   0.598   4.033   2.177
 2585TIP3    H2 7762   0.463   4.022   2.109
 2586TIP3   OH2 7763   0.814   4.688   3.262
 2586TIP3    H1 7764   0.729   4.640   3.255
 2586TIP3    H2 7765   0.803   4.753   3.188
 2587TIP3   OH2 7766   0.877   4.519   1.913
 2587TIP3    H1 7767   0.906   4.595   1.860
 2587TIP3    H2 7768   0.798   4.559   1.956
 2588TIP3   OH2 7769   0.708   3.986   2.313
 2588TIP3    H1 7770   0.700   3.918   2.382
 2588TIP3    H2 7771   0.805   3.985   2.299
 2589TIP3   OH2 7772  -0.117   3.976   2.098
 2589TIP3    H1 7773  -0.083   3.896   2.055
 2589TIP3    H2 7774  -0.087   3.964   2.190
 2590TIP3   OH2 7775  -0.087   3.993   2.377
 2590TIP3    H1 7776   0.001   4.032   2.384
 2590TIP3    H2 7777  -0.144   4.072   2.389
 2591TIP3   OH2 7778   0.740   3.362   3.473
 2591TIP3    H1 7779   0.819   3.406   3.509
 2591TIP3    H2 7780   0.733   3.281   3.529
 2592TIP3   OH2 7781   0.623   3.108   2.649
 2592TIP3    H1 7782   0.608   3.126   2.553
 2592TIP3    H2 7783   0.664   3.192   2.678
 2593TIP3   OH2 7784   0.098   4.231   2.318
 2593TIP3    H1 7785   0.047   4.278   2.385
 2593TIP3    H2 7786   0.104   4.300   2.249
 2594TIP3   OH2 7787   0.286   3.310   2.746
 2594TIP3    H1 7788   0.353   3.378   2.725
 2594TIP3    H2 7789   0.307   3.294   2.841
 2595TIP3   OH2 7790   0.579   3.609   3.537
 2595TIP3    H1 7791   0.610   3.660   3.615
 2595TIP3    H2 7792   0.627   3.525   3.548
 2596TIP3   OH2 7793   0.444   3.007   2.834
 2596TIP3    H1 7794   0.447   3.083   2.894
 2596TIP3    H2 7795   0.509   3.035   2.766
 2597TIP3   OH2 7796  -0.033   3.021   2.633
 2597TIP3    H1 7797  -0.026   3.113   2.665
 2597TIP3    H2 7798   0.063   2.999   2.631
 2598TIP3   OH2 7799   1.198   3.509   3.516
 2598TIP3    H1 7800   1.100   3.515   3.522
 2598TIP3    H2 7801   1.208   3.431   3.460
 2599TIP3   OH2 7802   0.872   3.690   2.926
 2599TIP3    H1 7803   0.783   3.656   2.905
 2599TIP3    H2 7804   0.892   3.635   3.004
 2600TIP3   OH2 7805   0.839   4.668   2.853
 2600TIP3    H1 7806   0.796   4.716   2.778
 2600TIP3    H2 7807   0.934   4.686   2.835
 2601TIP3   OH2 7808  -0.065   2.933   3.408
 2601TIP3    H1 7809  -0.084   2.900   3.319
 2601TIP3    H2 7810  -0.082   2.854   3.464
 2602TIP3   OH2 7811   0.722   4.573   3.622
 2602TIP3    H1 7812   0.724   4.501   3.688
 2602TIP3    H2 7813   0.801   4.625   3.647
 2603TIP3   OH2 7814   0.505   4.271   1.930
 2603TIP3    H1 7815   0.534   4.199   1.990
 2603TIP3    H2 7816   0.562   4.259   1.852
 2604TIP3   OH2 7817   0.367   4.188   3.782
 2604TIP3    H1 7818   0.296   4.162   3.723
 2604TIP3    H2 7819   0.407   4.101   3.803
 2605TIP3   OH2 7820   0.262   3.952   2.046
 2605TIP3    H1 7821   0.248   3.966   2.142
 2605TIP3    H2 7822   0.246   3.856   2.038
 2606TIP3   OH2 7823   0.837   4.207   3.412
 2606TIP3    H1 7824   0.915   4.245   3.368
 2606TIP3    H2 7825   0.774   4.282   3.404
 2607TIP3   OH2 7826  -0.049   3.647   2.475
 2607TIP3    H1 7827  -0.107   3.579   2.510
 2607TIP3    H2 7828  -0.008   3.598   2.401
 2608TIP3   OH2 7829   0.172   3.694   3.668
 2608TIP3    H1 7830   0.134   3.763   3.725
 2608TIP3    H2 7831   0.229   3.748   3.609
 2609TIP3   OH2 7832   0.031   3.457   2.291
 2609TIP3    H1 7833   0.003   3.456   2.197
 2609TIP3    H2 7834   0.128   3.454   2.280
 2610TIP3   OH2 7835   0.708   4.119   3.812
 2610TIP3    H1 7836   0.792   4.089   3.776
 2610TIP3    H2 7837   0.700   4.063   3.892
 2611TIP3   OH2 7838   0.839   3.762   1.947
 2611TIP3    H1 7839   0.901   3.763   1.873
 2611TIP3    H2 7840   0.795   3.850   1.933
 2612TIP3   OH2 7841   0.327   3.512   3.799
 2612TIP3    H1 7842   0.328   3.430   3.745
 2612TIP3    H2 7843   0.268   3.569   3.745
 2613TIP3   OH2 7844   0.329   3.302   3.605
 2613TIP3    H1 7845   0.364   3.334   3.521
 2613TIP3    H2 7846   0.236   3.280   3.582
 2614TIP3   OH2 7847   0.337   3.854   3.524
 2614TIP3    H1 7848   0.424   3.845   3.483
 2614TIP3    H2 7849   0.294   3.917   3.464
 2615TIP3   OH2 7850   0.921   3.795   3.863
 2615TIP3    H1 7851   0.966   3.713   3.888
 2615TIP3    H2 7852   0.995   3.852   3.837
 2616TIP3   OH2 7853   0.965   4.052   3.592
 2616TIP3    H1 7854   0.907   4.110   3.537
 2616TIP3    H2 7855   1.053   4.076   3.556
 2617TIP3   OH2 7856   0.225   3.641   4.032
 2617TIP3    H1 7857   0.164   3.570   4.062
 2617TIP3    H2 7858   0.257   3.604   3.948
 2618TIP3   OH2 7859   0.455   3.061   3.695
 2618TIP3    H1 7860   0.404   3.140   3.667
 2618TIP3    H2 7861   0.391   2.989   3.680
 2619TIP3   OH2 7862   0.579   3.554   3.901
 2619TIP3    H1 7863   0.560   3.533   3.994
 2619TIP3    H2 7864   0.491   3.534   3.861
 2620TIP3   OH2 7865   0.810   3.507   3.755
 2620TIP3    H1 7866   0.736   3.509   3.820
 2620TIP3    H2 7867   0.886   3.481   3.811
 2621TIP3   OH2 7868   1.037   3.457   3.903
 2621TIP3    H1 7869   1.056   3.361   3.914
 2621TIP3    H2 7870   1.035   3.489   3.996
 2622TIP3   OH2 7871   0.531   3.064   3.959
 2622TIP3    H1 7872   0.600   2.996   3.950
 2622TIP3    H2 7873   0.498   3.066   3.867
 2623TIP3   OH2 7874   0.618   3.279   4.106
 2623TIP3    H1 7875   0.593   3.205   4.046
 2623TIP3    H2 7876   0.539   3.336   4.102
 2624TIP3   OH2 7877   1.102   4.740   2.829
 2624TIP3    H1 7878   1.120   4.778   2.917
 2624TIP3    H2 7879   1.160   4.792   2.772
 2625TIP3   OH2 7880   1.116   4.772   3.111
 2625TIP3    H1 7881   1.073   4.684   3.108
 2625TIP3    H2 7882   1.192   4.752   3.168
 2626TIP3   OH2 7883   1.166   4.452   3.678
 2626TIP3    H1 7884   1.097   4.465   3.747
 2626TIP3    H2 7885   1.212   4.538   3.682
 2627TIP3   OH2 7886   0.985   3.966   2.289
 2627TIP3    H1 7887   1.048   4.035   2.259
 2627TIP3    H2 7888   1.033   3.929   2.368
 2628TIP3   OH2 7889   1.110   3.827   2.494
 2628TIP3    H1 7890   1.046   3.789   2.557
 2628TIP3    H2 7891   1.181   3.862   2.552
 2629TIP3   OH2 7892   1.178   4.232   2.927
 2629TIP3    H1 7893   1.225   4.174   2.865
 2629TIP3    H2 7894   1.172   4.315   2.875
 2630TIP3   OH2 7895   0.988   4.522   3.124
 2630TIP3    H1 7896   0.917   4.568   3.175
 2630TIP3    H2 7897   0.937   4.485   3.048
 2631TIP3   OH2 7898   1.041   3.743   2.141
 2631TIP3    H1 7899   0.964   3.739   2.080
 2631TIP3    H2 7900   1.017   3.821   2.195
 2632TIP3   OH2 7901   0.911   3.410   2.097
 2632TIP3    H1 7902   0.858   3.440   2.023
 2632TIP3    H2 7903   0.902   3.313   2.088
 2633TIP3   OH2 7904   0.925   3.688   2.648
 2633TIP3    H1 7905   0.928   3.594   2.623
 2633TIP3    H2 7906   0.920   3.684   2.746
 2634TIP3   OH2 7907   1.220   4.115   3.498
 2634TIP3    H1 7908   1.289   4.047   3.483
 2634TIP3    H2 7909   1.251   4.189   3.443
 2635TIP3   OH2 7910   1.382   3.893   3.482
 2635TIP3    H1 7911   1.312   3.852   3.537
 2635TIP3    H2 7912   1.459   3.837   3.509
 2636TIP3   OH2 7913   0.859   3.143   2.062
 2636TIP3    H1 7914   0.926   3.109   2.125
 2636TIP3    H2 7915   0.780   3.091   2.085
 2637TIP3   OH2 7916   0.926   3.418   2.528
 2637TIP3    H1 7917   0.966   3.328   2.540
 2637TIP3    H2 7918   0.980   3.450   2.452
 2638TIP3   OH2 7919   1.154   3.809   3.237
 2638TIP3    H1 7920   1.075   3.754   3.252
 2638TIP3    H2 7921   1.144   3.873   3.310
 2639TIP3   OH2 7922   1.601   3.321   3.812
 2639TIP3    H1 7923   1.665   3.256   3.775
 2639TIP3    H2 7924   1.575   3.369   3.730
 2640TIP3   OH2 7925   1.023   3.164   2.577
 2640TIP3    H1 7926   1.073   3.140   2.657
 2640TIP3    H2 7927   0.962   3.088   2.570
 2641TIP3   OH2 7928   1.464   3.450   3.611
 2641TIP3    H1 7929   1.384   3.495   3.644
 2641TIP3    H2 7930   1.424   3.372   3.567
 2642TIP3   OH2 7931   1.093   3.083   2.211
 2642TIP3    H1 7932   1.133   3.018   2.149
 2642TIP3    H2 7933   1.160   3.154   2.213
 2643TIP3   OH2 7934   0.679   4.619   2.478
 2643TIP3    H1 7935   0.733   4.620   2.397
 2643TIP3    H2 7936   0.718   4.693   2.529
 2644TIP3   OH2 7937   0.427   4.699   3.544
 2644TIP3    H1 7938   0.483   4.692   3.624
 2644TIP3    H2 7939   0.481   4.759   3.489
 2645TIP3   OH2 7940   0.582   4.873   3.399
 2645TIP3    H1 7941   0.654   4.832   3.351
 2645TIP3    H2 7942   0.632   4.932   3.460
 2646TIP3   OH2 7943   1.370   3.202   3.517
 2646TIP3    H1 7944   1.285   3.174   3.478
 2646TIP3    H2 7945   1.422   3.119   3.504
 2647TIP3   OH2 7946   0.311   4.725   3.089
 2647TIP3    H1 7947   0.222   4.716   3.053
 2647TIP3    H2 7948   0.311   4.820   3.113
 2648TIP3   OH2 7949   0.569   4.653   3.142
 2648TIP3    H1 7950   0.476   4.680   3.124
 2648TIP3    H2 7951   0.618   4.721   3.092
 2649TIP3   OH2 7952   0.756   4.844   3.046
 2649TIP3    H1 7953   0.745   4.932   3.003
 2649TIP3    H2 7954   0.787   4.789   2.971
 2650TIP3   OH2 7955   0.567   3.120   3.123
 2650TIP3    H1 7956   0.532   3.045   3.175
 2650TIP3    H2 7957   0.646   3.082   3.080
 2651TIP3   OH2 7958   1.095   3.026   3.033
 2651TIP3    H1 7959   1.127   3.064   2.948
 2651TIP3    H2 7960   0.998   3.029   3.020
 2652TIP3   OH2 7961   1.188   3.110   2.791
 2652TIP3    H1 7962   1.259   3.050   2.758
 2652TIP3    H2 7963   1.232   3.196   2.773
 2653TIP3   OH2 7964  -0.089   2.847   3.147
 2653TIP3    H1 7965  -0.181   2.831   3.116
 2653TIP3    H2 7966  -0.053   2.756   3.145
 2654TIP3   OH2 7967   0.275   2.875   3.024
 2654TIP3    H1 7968   0.328   2.917   2.954
 2654TIP3    H2 7969   0.322   2.902   3.104
 2655TIP3   OH2 7970   0.811   3.020   3.001
 2655TIP3    H1 7971   0.819   2.970   2.918
 2655TIP3    H2 7972   0.805   2.945   3.065
 2656TIP3   OH2 7973   0.846   2.950   2.570
 2656TIP3    H1 7974   0.760   2.991   2.594
 2656TIP3    H2 7975   0.834   2.861   2.608
 2657TIP3   OH2 7976  -0.230   2.808   2.606
 2657TIP3    H1 7977  -0.227   2.800   2.510
 2657TIP3    H2 7978  -0.169   2.882   2.622
 2658TIP3   OH2 7979   0.240   3.054   2.648
 2658TIP3    H1 7980   0.302   3.010   2.709
 2658TIP3    H2 7981   0.255   3.148   2.674
 2659TIP3   OH2 7982   0.107   4.464   2.153
 2659TIP3    H1 7983   0.199   4.466   2.120
 2659TIP3    H2 7984   0.062   4.466   2.065
 2660TIP3   OH2 7985   0.828   4.595   2.245
 2660TIP3    H1 7986   0.821   4.497   2.235
 2660TIP3    H2 7987   0.776   4.624   2.167
 2661TIP3   OH2 7988   0.033   3.095   4.056
 2661TIP3    H1 7989   0.025   3.000   4.067
 2661TIP3    H2 7990   0.128   3.111   4.078
 2662TIP3   OH2 7991   0.300   3.106   4.121
 2662TIP3    H1 7992   0.381   3.089   4.069
 2662TIP3    H2 7993   0.313   3.047   4.196
 2663TIP3   OH2 7994   1.111   3.191   3.933
 2663TIP3    H1 7995   1.128   3.159   4.025
 2663TIP3    H2 7996   1.202   3.186   3.896
 2664TIP3   OH2 7997   1.037   4.730   3.426
 2664TIP3    H1 7998   0.958   4.705   3.374
 2664TIP3    H2 7999   1.020   4.826   3.438
 2665TIP3   OH2 8000   2.316   4.113   2.180
 2665TIP3    H1 8001   2.277   4.200   2.156
 2665TIP3    H2 8002   2.242   4.054   2.160
 2666TIP3   OH2 8003   2.307   4.111   2.597
 2666TIP3    H1 8004   2.356   4.091   2.679
 2666TIP3    H2 8005   2.269   4.023   2.576
 2667TIP3   OH2 8006   1.589   3.993   2.966
 2667TIP3    H1 8007   1.625   3.928   3.030
 2667TIP3    H2 8008   1.670   4.023   2.922
 2668TIP3   OH2 8009   2.563   4.417   2.266
 2668TIP3    H1 8010   2.545   4.349   2.333
 2668TIP3    H2 8011   2.595   4.491   2.320
 2669TIP3   OH2 8012   1.588   4.406   2.652
 2669TIP3    H1 8013   1.579   4.308   2.653
 2669TIP3    H2 8014   1.685   4.415   2.647
 2670TIP3   OH2 8015   1.289   3.600   2.432
 2670TIP3    H1 8016   1.246   3.683   2.459
 2670TIP3    H2 8017   1.215   3.557   2.385
 2671TIP3   OH2 8018   1.339   3.902   2.627
 2671TIP3    H1 8019   1.392   3.823   2.655
 2671TIP3    H2 8020   1.408   3.958   2.588
 2672TIP3   OH2 8021   2.219   4.869   2.281
 2672TIP3    H1 8022   2.251   4.798   2.221
 2672TIP3    H2 8023   2.205   4.820   2.363
 2673TIP3   OH2 8024   2.109   4.334   2.621
 2673TIP3    H1 8025   2.156   4.254   2.591
 2673TIP3    H2 8026   2.187   4.387   2.647
 2674TIP3   OH2 8027   3.124   3.655   2.618
 2674TIP3    H1 8028   3.157   3.739   2.656
 2674TIP3    H2 8029   3.158   3.660   2.528
 2675TIP3   OH2 8030   2.526   3.831   2.645
 2675TIP3    H1 8031   2.569   3.746   2.666
 2675TIP3    H2 8032   2.489   3.811   2.557
 2676TIP3   OH2 8033   1.861   3.495   2.622
 2676TIP3    H1 8034   1.852   3.566   2.556
 2676TIP3    H2 8035   1.814   3.422   2.577
 2677TIP3   OH2 8036   2.564   3.582   2.230
 2677TIP3    H1 8037   2.632   3.574   2.301
 2677TIP3    H2 8038   2.620   3.617   2.158
 2678TIP3   OH2 8039   1.495   3.703   2.720
 2678TIP3    H1 8040   1.566   3.678   2.782
 2678TIP3    H2 8041   1.518   3.645   2.645
 2679TIP3   OH2 8042   1.924   3.893   2.540
 2679TIP3    H1 8043   2.021   3.880   2.539
 2679TIP3    H2 8044   1.892   3.808   2.503
 2680TIP3   OH2 8045   3.190   3.864   2.795
 2680TIP3    H1 8046   3.117   3.924   2.768
 2680TIP3    H2 8047   3.144   3.816   2.867
 2681TIP3   OH2 8048   1.836   3.451   3.058
 2681TIP3    H1 8049   1.794   3.502   2.987
 2681TIP3    H2 8050   1.798   3.491   3.138
 2682TIP3   OH2 8051   2.186   4.323   2.056
 2682TIP3    H1 8052   2.156   4.325   1.964
 2682TIP3    H2 8053   2.143   4.404   2.091
 2683TIP3   OH2 8054   1.963   4.249   2.834
 2683TIP3    H1 8055   1.911   4.325   2.868
 2683TIP3    H2 8056   2.012   4.290   2.760
 2684TIP3   OH2 8057   2.748   3.602   2.426
 2684TIP3    H1 8058   2.732   3.561   2.512
 2684TIP3    H2 8059   2.801   3.680   2.452
 2685TIP3   OH2 8060   1.720   3.585   2.841
 2685TIP3    H1 8061   1.781   3.659   2.867
 2685TIP3    H2 8062   1.772   3.548   2.766
 2686TIP3   OH2 8063   1.801   4.458   2.940
 2686TIP3    H1 8064   1.776   4.549   2.911
 2686TIP3    H2 8065   1.721   4.436   2.992
 2687TIP3   OH2 8066   1.174   4.142   2.178
 2687TIP3    H1 8067   1.137   4.170   2.093
 2687TIP3    H2 8068   1.206   4.229   2.214
 2688TIP3   OH2 8069   2.620   4.663   2.419
 2688TIP3    H1 8070   2.530   4.653   2.458
 2688TIP3    H2 8071   2.612   4.749   2.374
 2689TIP3   OH2 8072   2.910   3.571   2.787
 2689TIP3    H1 8073   2.824   3.581   2.743
 2689TIP3    H2 8074   2.973   3.602   2.719
 2690TIP3   OH2 8075   2.176   3.209   2.733
 2690TIP3    H1 8076   2.247   3.174   2.790
 2690TIP3    H2 8077   2.106   3.224   2.799
 2691TIP3   OH2 8078   2.314   4.699   2.078
 2691TIP3    H1 8079   2.367   4.616   2.065
 2691TIP3    H2 8080   2.379   4.765   2.045
 2692TIP3   OH2 8081   2.463   4.481   2.017
 2692TIP3    H1 8082   2.434   4.396   1.983
 2692TIP3    H2 8083   2.508   4.455   2.101
 2693TIP3   OH2 8084   2.849   4.560   2.765
 2693TIP3    H1 8085   2.834   4.484   2.705
 2693TIP3    H2 8086   2.831   4.636   2.706
 2694TIP3   OH2 8087   2.140   3.956   2.030
 2694TIP3    H1 8088   2.063   4.013   2.010
 2694TIP3    H2 8089   2.189   3.957   1.946
 2695TIP3   OH2 8090   2.097   3.758   1.729
 2695TIP3    H1 8091   2.163   3.806   1.783
 2695TIP3    H2 8092   2.155   3.695   1.682
 2696TIP3   OH2 8093   3.045   4.218   2.618
 2696TIP3    H1 8094   2.959   4.264   2.616
 2696TIP3    H2 8095   3.076   4.234   2.526
 2697TIP3   OH2 8096   2.494   4.042   1.987
 2697TIP3    H1 8097   2.439   4.067   2.066
 2697TIP3    H2 8098   2.578   4.017   2.032
 2698TIP3   OH2 8099   2.723   4.073   2.920
 2698TIP3    H1 8100   2.718   4.155   2.973
 2698TIP3    H2 8101   2.636   4.075   2.875
 2699TIP3   OH2 8102   1.724   4.035   2.413
 2699TIP3    H1 8103   1.689   3.974   2.344
 2699TIP3    H2 8104   1.797   3.982   2.451
 2700TIP3   OH2 8105   1.854   4.450   2.555
 2700TIP3    H1 8106   1.840   4.428   2.461
 2700TIP3    H2 8107   1.941   4.410   2.574
 2701TIP3   OH2 8108   1.828   4.016   2.771
 2701TIP3    H1 8109   1.870   3.978   2.690
 2701TIP3    H2 8110   1.885   4.095   2.787
 2702TIP3   OH2 8111   2.381   4.650   2.546
 2702TIP3    H1 8112   2.371   4.728   2.604
 2702TIP3    H2 8113   2.366   4.575   2.607
 2703TIP3   OH2 8114   2.001   4.565   3.094
 2703TIP3    H1 8115   1.936   4.624   3.139
 2703TIP3    H2 8116   1.939   4.512   3.039
 2704TIP3   OH2 8117   2.321   3.906   1.822
 2704TIP3    H1 8118   2.385   3.964   1.870
 2704TIP3    H2 8119   2.348   3.921   1.729
 2705TIP3   OH2 8120   1.767   4.129   3.206
 2705TIP3    H1 8121   1.760   4.219   3.243
 2705TIP3    H2 8122   1.673   4.103   3.199
 2706TIP3   OH2 8123   2.077   4.572   2.092
 2706TIP3    H1 8124   2.164   4.617   2.089
 2706TIP3    H2 8125   2.019   4.637   2.051
 2707TIP3   OH2 8126   1.789   4.722   3.181
 2707TIP3    H1 8127   1.756   4.734   3.090
 2707TIP3    H2 8128   1.707   4.703   3.231
 2708TIP3   OH2 8129   2.843   3.133   1.876
 2708TIP3    H1 8130   2.762   3.157   1.925
 2708TIP3    H2 8131   2.858   3.215   1.823
 2709TIP3   OH2 8132   1.597   3.884   2.203
 2709TIP3    H1 8133   1.515   3.921   2.164
 2709TIP3    H2 8134   1.570   3.793   2.224
 2710TIP3   OH2 8135   2.650   4.502   1.425
 2710TIP3    H1 8136   2.657   4.598   1.408
 2710TIP3    H2 8137   2.743   4.474   1.410
 2711TIP3   OH2 8138   1.369   4.263   3.134
 2711TIP3    H1 8139   1.308   4.243   3.061
 2711TIP3    H2 8140   1.411   4.177   3.155
 2712TIP3   OH2 8141   1.224   4.459   2.768
 2712TIP3    H1 8142   1.320   4.461   2.757
 2712TIP3    H2 8143   1.209   4.542   2.816
 2713TIP3   OH2 8144   3.084   4.921   2.819
 2713TIP3    H1 8145   3.086   4.824   2.833
 2713TIP3    H2 8146   3.000   4.942   2.865
 2714TIP3   OH2 8147   2.190   4.696   2.949
 2714TIP3    H1 8148   2.182   4.788   2.981
 2714TIP3    H2 8149   2.121   4.652   3.003
 2715TIP3   OH2 8150   1.964   4.815   1.905
 2715TIP3    H1 8151   1.914   4.803   1.823
 2715TIP3    H2 8152   1.929   4.900   1.938
 2716TIP3   OH2 8153   1.396   4.668   2.292
 2716TIP3    H1 8154   1.443   4.660   2.379
 2716TIP3    H2 8155   1.351   4.582   2.287
 2717TIP3   OH2 8156   2.156   4.725   1.535
 2717TIP3    H1 8157   2.213   4.653   1.501
 2717TIP3    H2 8158   2.193   4.739   1.625
 2718TIP3   OH2 8159   2.213   4.778   1.802
 2718TIP3    H1 8160   2.126   4.785   1.847
 2718TIP3    H2 8161   2.268   4.745   1.875
 2719TIP3   OH2 8162   2.983   4.023   3.085
 2719TIP3    H1 8163   2.896   4.037   3.046
 2719TIP3    H2 8164   2.999   3.929   3.065
 2720TIP3   OH2 8165   1.573   4.449   3.100
 2720TIP3    H1 8166   1.622   4.439   3.184
 2720TIP3    H2 8167   1.499   4.387   3.112
 2721TIP3   OH2 8168   1.968   3.241   2.924
 2721TIP3    H1 8169   1.880   3.271   2.894
 2721TIP3    H2 8170   1.991   3.316   2.982
 2722TIP3   OH2 8171   2.737   3.829   3.040
 2722TIP3    H1 8172   2.699   3.865   3.121
 2722TIP3    H2 8173   2.723   3.903   2.978
 2723TIP3   OH2 8174   2.398   3.927   1.563
 2723TIP3    H1 8175   2.367   3.913   1.472
 2723TIP3    H2 8176   2.487   3.965   1.546
 2724TIP3   OH2 8177   2.111   3.318   1.873
 2724TIP3    H1 8178   2.080   3.315   1.966
 2724TIP3    H2 8179   2.073   3.234   1.841
 2725TIP3   OH2 8180   1.891   3.785   2.914
 2725TIP3    H1 8181   1.877   3.817   3.004
 2725TIP3    H2 8182   1.878   3.867   2.862
 2726TIP3   OH2 8183   1.785   3.678   2.433
 2726TIP3    H1 8184   1.695   3.647   2.458
 2726TIP3    H2 8185   1.794   3.632   2.346
 2727TIP3   OH2 8186   2.274   3.753   2.168
 2727TIP3    H1 8187   2.228   3.825   2.119
 2727TIP3    H2 8188   2.332   3.716   2.098
 2728TIP3   OH2 8189   2.463   4.019   3.236
 2728TIP3    H1 8190   2.430   3.956   3.304
 2728TIP3    H2 8191   2.554   4.035   3.270
 2729TIP3   OH2 8192   2.440   3.777   2.392
 2729TIP3    H1 8193   2.366   3.797   2.330
 2729TIP3    H2 8194   2.478   3.700   2.344
 2730TIP3   OH2 8195   1.711   3.822   3.146
 2730TIP3    H1 8196   1.794   3.862   3.180
 2730TIP3    H2 8197   1.712   3.734   3.189
 2731TIP3   OH2 8198   1.768   3.294   1.836
 2731TIP3    H1 8199   1.761   3.292   1.933
 2731TIP3    H2 8200   1.693   3.353   1.814
 2732TIP3   OH2 8201   1.318   3.333   2.721
 2732TIP3    H1 8202   1.390   3.371   2.775
 2732TIP3    H2 8203   1.361   3.317   2.636
 2733TIP3   OH2 8204   1.262   3.309   2.224
 2733TIP3    H1 8205   1.312   3.342   2.146
 2733TIP3    H2 8206   1.206   3.386   2.241
 2734TIP3   OH2 8207   2.452   4.025   2.815
 2734TIP3    H1 8208   2.482   3.955   2.752
 2734TIP3    H2 8209   2.416   3.968   2.887
 2735TIP3   OH2 8210   2.122   3.507   2.494
 2735TIP3    H1 8211   2.055   3.494   2.564
 2735TIP3    H2 8212   2.202   3.466   2.535
 2736TIP3   OH2 8213   1.550   3.552   2.499
 2736TIP3    H1 8214   1.457   3.555   2.467
 2736TIP3    H2 8215   1.579   3.461   2.478
 2737TIP3   OH2 8216   1.802   3.541   2.197
 2737TIP3    H1 8217   1.897   3.557   2.183
 2737TIP3    H2 8218   1.762   3.563   2.109
 2738TIP3   OH2 8219   2.612   3.575   2.704
 2738TIP3    H1 8220   2.576   3.585   2.794
 2738TIP3    H2 8221   2.554   3.507   2.668
 2739TIP3   OH2 8222   1.673   3.582   1.959
 2739TIP3    H1 8223   1.600   3.541   1.908
 2739TIP3    H2 8224   1.726   3.623   1.887
 2740TIP3   OH2 8225   2.790   5.260   2.922
 2740TIP3    H1 8226   2.786   5.282   2.827
 2740TIP3    H2 8227   2.872   5.305   2.949
 2741TIP3   OH2 8228   1.733   4.375   3.333
 2741TIP3    H1 8229   1.815   4.400   3.380
 2741TIP3    H2 8230   1.669   4.376   3.407
 2742TIP3   OH2 8231   2.195   3.851   2.573
 2742TIP3    H1 8232   2.258   3.784   2.541
 2742TIP3    H2 8233   2.182   3.820   2.666
 2743TIP3   OH2 8234   1.704   3.310   2.482
 2743TIP3    H1 8235   1.664   3.234   2.531
 2743TIP3    H2 8236   1.762   3.262   2.421
 2744TIP3   OH2 8237   2.171   3.774   2.828
 2744TIP3    H1 8238   2.090   3.745   2.874
 2744TIP3    H2 8239   2.234   3.786   2.902
 2745TIP3   OH2 8240   1.907   4.108   1.968
 2745TIP3    H1 8241   1.833   4.045   1.955
 2745TIP3    H2 8242   1.884   4.143   2.058
 2746TIP3   OH2 8243   2.803   4.349   2.591
 2746TIP3    H1 8244   2.829   4.400   2.512
 2746TIP3    H2 8245   2.720   4.305   2.562
 2747TIP3   OH2 8246   2.360   3.421   1.841
 2747TIP3    H1 8247   2.266   3.396   1.857
 2747TIP3    H2 8248   2.366   3.513   1.874
 2748TIP3   OH2 8249   2.305   4.430   2.973
 2748TIP3    H1 8250   2.353   4.418   3.056
 2748TIP3    H2 8251   2.270   4.521   2.981
 2749TIP3   OH2 8252   2.430   3.672   1.949
 2749TIP3    H1 8253   2.527   3.676   1.964
 2749TIP3    H2 8254   2.414   3.755   1.900
 2750TIP3   OH2 8255   1.603   4.126   2.641
 2750TIP3    H1 8256   1.637   4.102   2.552
 2750TIP3    H2 8257   1.673   4.088   2.697
 2751TIP3   OH2 8258   2.054   4.260   1.795
 2751TIP3    H1 8259   2.004   4.344   1.799
 2751TIP3    H2 8260   2.003   4.204   1.859
 2752TIP3   OH2 8261   1.496   4.060   3.283
 2752TIP3    H1 8262   1.550   4.091   3.360
 2752TIP3    H2 8263   1.472   3.973   3.317
 2753TIP3   OH2 8264   2.230   4.175   3.280
 2753TIP3    H1 8265   2.171   4.130   3.217
 2753TIP3    H2 8266   2.316   4.135   3.256
 2754TIP3   OH2 8267   2.462   4.698   2.870
 2754TIP3    H1 8268   2.366   4.694   2.884
 2754TIP3    H2 8269   2.490   4.748   2.949
 2755TIP3   OH2 8270   2.865   3.770   1.776
 2755TIP3    H1 8271   2.805   3.727   1.711
 2755TIP3    H2 8272   2.863   3.861   1.738
 2756TIP3   OH2 8273   3.099   4.636   2.851
 2756TIP3    H1 8274   3.002   4.621   2.845
 2756TIP3    H2 8275   3.127   4.602   2.763
 2757TIP3   OH2 8276   2.578   4.585   1.689
 2757TIP3    H1 8277   2.553   4.516   1.751
 2757TIP3    H2 8278   2.595   4.536   1.607
 2758TIP3   OH2 8279   2.570   4.215   2.501
 2758TIP3    H1 8280   2.478   4.188   2.519
 2758TIP3    H2 8281   2.605   4.131   2.463
 2759TIP3   OH2 8282   1.711   4.445   2.278
 2759TIP3    H1 8283   1.703   4.524   2.221
 2759TIP3    H2 8284   1.618   4.426   2.297
 2760TIP3   OH2 8285   1.275   3.739   1.994
 2760TIP3    H1 8286   1.318   3.825   2.015
 2760TIP3    H2 8287   1.197   3.744   2.054
 2761TIP3   OH2 8288   1.818   4.199   2.206
 2761TIP3    H1 8289   1.793   4.290   2.232
 2761TIP3    H2 8290   1.793   4.148   2.286
 2762TIP3   OH2 8291   1.983   4.777   2.742
 2762TIP3    H1 8292   2.025   4.850   2.692
 2762TIP3    H2 8293   2.060   4.738   2.787
 2763TIP3   OH2 8294   1.619   4.679   2.127
 2763TIP3    H1 8295   1.535   4.689   2.174
 2763TIP3    H2 8296   1.654   4.771   2.131
 2764TIP3   OH2 8297   2.354   4.422   2.705
 2764TIP3    H1 8298   2.341   4.419   2.803
 2764TIP3    H2 8299   2.429   4.361   2.695
 2765TIP3   OH2 8300   2.346   4.318   1.594
 2765TIP3    H1 8301   2.404   4.292   1.670
 2765TIP3    H2 8302   2.261   4.285   1.626
 2766TIP3   OH2 8303   2.608   4.942   2.754
 2766TIP3    H1 8304   2.529   4.886   2.754
 2766TIP3    H2 8305   2.588   5.004   2.681
 2767TIP3   OH2 8306   2.673   4.780   1.401
 2767TIP3    H1 8307   2.711   4.858   1.358
 2767TIP3    H2 8308   2.592   4.820   1.440
 2768TIP3   OH2 8309   1.706   3.569   3.274
 2768TIP3    H1 8310   1.611   3.562   3.292
 2768TIP3    H2 8311   1.745   3.520   3.348
 2769TIP3   OH2 8312   2.509   4.241   1.798
 2769TIP3    H1 8313   2.498   4.174   1.868
 2769TIP3    H2 8314   2.607   4.237   1.787
 2770TIP3   OH2 8315   1.417   4.644   2.897
 2770TIP3    H1 8316   1.475   4.584   2.947
 2770TIP3    H2 8317   1.436   4.729   2.940
 2771TIP3   OH2 8318   1.697   4.286   1.588
 2771TIP3    H1 8319   1.713   4.192   1.571
 2771TIP3    H2 8320   1.675   4.285   1.683
 2772TIP3   OH2 8321   1.640   4.295   1.858
 2772TIP3    H1 8322   1.718   4.268   1.909
 2772TIP3    H2 8323   1.642   4.393   1.871
 2773TIP3   OH2 8324   1.370   3.984   2.070
 2773TIP3    H1 8325   1.303   4.032   2.123
 2773TIP3    H2 8326   1.385   4.050   1.999
 2774TIP3   OH2 8327   2.526   3.622   2.969
 2774TIP3    H1 8328   2.615   3.640   3.003
 2774TIP3    H2 8329   2.495   3.549   3.025
 2775TIP3   OH2 8330   2.424   3.363   2.133
 2775TIP3    H1 8331   2.411   3.388   2.040
 2775TIP3    H2 8332   2.467   3.443   2.170
 2776TIP3   OH2 8333   1.912   4.488   1.805
 2776TIP3    H1 8334   1.824   4.509   1.843
 2776TIP3    H2 8335   1.930   4.572   1.760
 2777TIP3   OH2 8336   2.081   3.563   2.230
 2777TIP3    H1 8337   2.148   3.633   2.214
 2777TIP3    H2 8338   2.096   3.547   2.326
 2778TIP3   OH2 8339   2.375   3.862   3.019
 2778TIP3    H1 8340   2.406   3.907   3.100
 2778TIP3    H2 8341   2.424   3.777   3.021
 2779TIP3   OH2 8342   2.246   3.259   2.320
 2779TIP3    H1 8343   2.275   3.312   2.397
 2779TIP3    H2 8344   2.307   3.294   2.251
 2780TIP3   OH2 8345   1.662   4.566   1.882
 2780TIP3    H1 8346   1.634   4.638   1.822
 2780TIP3    H2 8347   1.646   4.608   1.970
 2781TIP3   OH2 8348   1.760   3.280   2.110
 2781TIP3    H1 8349   1.753   3.367   2.155
 2781TIP3    H2 8350   1.857   3.265   2.120
 2782TIP3   OH2 8351   2.998   3.758   2.981
 2782TIP3    H1 8352   2.902   3.770   2.996
 2782TIP3    H2 8353   2.996   3.666   2.947
 2783TIP3   OH2 8354   2.658   3.966   2.398
 2783TIP3    H1 8355   2.582   3.906   2.409
 2783TIP3    H2 8356   2.728   3.918   2.448
 2784TIP3   OH2 8357   1.381   4.179   1.866
 2784TIP3    H1 8358   1.457   4.241   1.874
 2784TIP3    H2 8359   1.423   4.114   1.805
 2785TIP3   OH2 8360   1.312   3.466   2.004
 2785TIP3    H1 8361   1.317   3.564   2.008
 2785TIP3    H2 8362   1.239   3.452   1.942
 2786TIP3   OH2 8363   2.632   4.932   2.341
 2786TIP3    H1 8364   2.589   4.979   2.266
 2786TIP3    H2 8365   2.727   4.952   2.322
 2787TIP3   OH2 8366   1.685   3.191   2.860
 2787TIP3    H1 8367   1.664   3.159   2.770
 2787TIP3    H2 8368   1.741   3.120   2.894
 2788TIP3   OH2 8369   1.226   4.404   2.247
 2788TIP3    H1 8370   1.182   4.438   2.327
 2788TIP3    H2 8371   1.182   4.456   2.175
 2789TIP3   OH2 8372   1.413   4.974   3.325
 2789TIP3    H1 8373   1.498   4.980   3.375
 2789TIP3    H2 8374   1.400   4.878   3.324
 2790TIP3   OH2 8375   1.874   4.901   3.371
 2790TIP3    H1 8376   1.970   4.889   3.376
 2790TIP3    H2 8377   1.851   4.836   3.301
 2791TIP3   OH2 8378   1.858   4.487   1.488
 2791TIP3    H1 8379   1.807   4.414   1.531
 2791TIP3    H2 8380   1.938   4.439   1.457
 2792TIP3   OH2 8381   2.516   4.825   3.107
 2792TIP3    H1 8382   2.517   4.754   3.175
 2792TIP3    H2 8383   2.594   4.878   3.133
 2793TIP3   OH2 8384   2.296   4.520   1.415
 2793TIP3    H1 8385   2.330   4.455   1.480
 2793TIP3    H2 8386   2.359   4.512   1.341
 2794TIP3   OH2 8387   1.532   4.367   3.526
 2794TIP3    H1 8388   1.545   4.272   3.546
 2794TIP3    H2 8389   1.444   4.367   3.482
 2795TIP3   OH2 8390   1.522   3.994   1.732
 2795TIP3    H1 8391   1.582   3.972   1.807
 2795TIP3    H2 8392   1.588   4.001   1.659
 2796TIP3   OH2 8393   2.140   4.451   3.302
 2796TIP3    H1 8394   2.100   4.476   3.215
 2796TIP3    H2 8395   2.175   4.362   3.284
 2797TIP3   OH2 8396   2.036   4.204   1.529
 2797TIP3    H1 8397   2.037   4.217   1.626
 2797TIP3    H2 8398   2.037   4.106   1.523
 2798TIP3   OH2 8399   2.631   4.474   2.913
 2798TIP3    H1 8400   2.710   4.509   2.867
 2798TIP3    H2 8401   2.565   4.542   2.890
 2799TIP3   OH2 8402   1.657   4.102   3.501
 2799TIP3    H1 8403   1.741   4.069   3.464
 2799TIP3    H2 8404   1.686   4.129   3.591
 2800TIP3   OH2 8405   1.703   3.921   1.929
 2800TIP3    H1 8406   1.682   3.891   2.020
 2800TIP3    H2 8407   1.748   3.843   1.891
 2801TIP3   OH2 8408   1.958   3.945   3.150
 2801TIP3    H1 8409   1.899   4.022   3.169
 2801TIP3    H2 8410   2.027   3.991   3.096
 2802TIP3   OH2 8411   1.825   3.718   1.776
 2802TIP3    H1 8412   1.805   3.732   1.681
 2802TIP3    H2 8413   1.923   3.718   1.774
 2803TIP3   OH2 8414   2.509   4.380   3.297
 2803TIP3    H1 8415   2.576   4.330   3.247
 2803TIP3    H2 8416   2.498   4.323   3.376
 2804TIP3   OH2 8417   2.629   4.032   1.458
 2804TIP3    H1 8418   2.614   3.992   1.370
 2804TIP3    H2 8419   2.597   4.123   1.440
 2805TIP3   OH2 8420   2.107   3.765   3.311
 2805TIP3    H1 8421   2.124   3.675   3.278
 2805TIP3    H2 8422   2.062   3.808   3.236
 2806TIP3   OH2 8423   2.128   4.097   3.005
 2806TIP3    H1 8424   2.212   4.085   2.958
 2806TIP3    H2 8425   2.078   4.154   2.943
 2807TIP3   OH2 8426   2.710   4.044   3.344
 2807TIP3    H1 8427   2.740   3.985   3.417
 2807TIP3    H2 8428   2.794   4.078   3.312
 2808TIP3   OH2 8429   2.759   4.312   3.090
 2808TIP3    H1 8430   2.703   4.371   3.035
 2808TIP3    H2 8431   2.847   4.333   3.054
 2809TIP3   OH2 8432   1.979   3.878   3.535
 2809TIP3    H1 8433   1.917   3.804   3.552
 2809TIP3    H2 8434   2.017   3.851   3.449
 2810TIP3   OH2 8435   2.361   3.837   3.399
 2810TIP3    H1 8436   2.337   3.811   3.491
 2810TIP3    H2 8437   2.282   3.803   3.354
 2811TIP3   OH2 8438   1.826   3.654   3.600
 2811TIP3    H1 8439   1.827   3.562   3.568
 2811TIP3    H2 8440   1.870   3.642   3.687
 2812TIP3   OH2 8441   1.637   4.767   1.693
 2812TIP3    H1 8442   1.731   4.752   1.671
 2812TIP3    H2 8443   1.612   4.824   1.618
 2813TIP3   OH2 8444   1.110   4.152   1.897
 2813TIP3    H1 8445   1.205   4.174   1.885
 2813TIP3    H2 8446   1.106   4.063   1.858
 2814TIP3   OH2 8447   1.032   4.759   2.327
 2814TIP3    H1 8448   0.966   4.702   2.282
 2814TIP3    H2 8449   1.075   4.694   2.386
 2815TIP3   OH2 8450   1.164   4.592   2.507
 2815TIP3    H1 8451   1.143   4.535   2.583
 2815TIP3    H2 8452   1.218   4.660   2.550
 2816TIP3   OH2 8453   2.891   5.015   2.314
 2816TIP3    H1 8454   2.922   5.040   2.403
 2816TIP3    H2 8455   2.966   5.038   2.257
 2817TIP3   OH2 8456   2.918   5.028   2.598
 2817TIP3    H1 8457   2.867   4.944   2.591
 2817TIP3    H2 8458   2.991   4.998   2.656
 2818TIP3   OH2 8459   2.963   4.710   3.168
 2818TIP3    H1 8460   2.894   4.722   3.236
 2818TIP3    H2 8461   3.009   4.797   3.172
 2819TIP3   OH2 8462   2.785   4.221   1.779
 2819TIP3    H1 8463   2.849   4.288   1.748
 2819TIP3    H2 8464   2.831   4.185   1.858
 2820TIP3   OH2 8465   2.910   4.087   1.985
 2820TIP3    H1 8466   2.844   4.048   2.046
 2820TIP3    H2 8467   2.979   4.120   2.046
 2821TIP3   OH2 8468   2.971   4.487   2.415
 2821TIP3    H1 8469   3.023   4.414   2.375
 2821TIP3    H2 8470   2.972   4.554   2.343
 2822TIP3   OH2 8471   2.786   4.782   2.608
 2822TIP3    H1 8472   2.713   4.823   2.659
 2822TIP3    H2 8473   2.738   4.739   2.534
 2823TIP3   OH2 8474   2.840   3.999   1.629
 2823TIP3    H1 8475   2.765   4.001   1.565
 2823TIP3    H2 8476   2.816   4.076   1.685
 2824TIP3   OH2 8477   2.709   3.667   1.577
 2824TIP3    H1 8478   2.659   3.693   1.498
 2824TIP3    H2 8479   2.696   3.570   1.573
 2825TIP3   OH2 8480   2.714   3.952   2.128
 2825TIP3    H1 8481   2.725   3.856   2.121
 2825TIP3    H2 8482   2.698   3.964   2.225
 2826TIP3   OH2 8483   1.333   3.988   2.885
 2826TIP3    H1 8484   1.341   3.962   2.790
 2826TIP3    H2 8485   1.430   3.997   2.907
 2827TIP3   OH2 8486   3.012   4.371   2.990
 2827TIP3    H1 8487   3.077   4.299   2.974
 2827TIP3    H2 8488   3.029   4.431   2.917
 2828TIP3   OH2 8489   3.192   4.165   2.978
 2828TIP3    H1 8490   3.122   4.106   3.015
 2828TIP3    H2 8491   3.270   4.135   3.025
 2829TIP3   OH2 8492   2.660   3.398   1.551
 2829TIP3    H1 8493   2.730   3.367   1.614
 2829TIP3    H2 8494   2.584   3.343   1.575
 2830TIP3   OH2 8495   2.716   3.667   2.011
 2830TIP3    H1 8496   2.760   3.579   2.025
 2830TIP3    H2 8497   2.773   3.703   1.940
 2831TIP3   OH2 8498   2.871   3.829   2.517
 2831TIP3    H1 8499   2.956   3.849   2.473
 2831TIP3    H2 8500   2.890   3.867   2.605
 2832TIP3   OH2 8501   2.949   3.990   2.737
 2832TIP3    H1 8502   2.875   4.022   2.790
 2832TIP3    H2 8503   2.982   4.072   2.695
 2833TIP3   OH2 8504   1.563   3.696   3.537
 2833TIP3    H1 8505   1.660   3.698   3.554
 2833TIP3    H2 8506   1.542   3.608   3.576
 2834TIP3   OH2 8507   2.824   3.418   2.058
 2834TIP3    H1 8508   2.871   3.400   2.142
 2834TIP3    H2 8509   2.762   3.341   2.056
 2835TIP3   OH2 8510   1.513   3.403   2.914
 2835TIP3    H1 8511   1.570   3.323   2.912
 2835TIP3    H2 8512   1.579   3.471   2.894
 2836TIP3   OH2 8513   2.891   3.340   1.698
 2836TIP3    H1 8514   2.934   3.275   1.639
 2836TIP3    H2 8515   2.957   3.412   1.701
 2837TIP3   OH2 8516   1.309   3.175   2.456
 2837TIP3    H1 8517   1.218   3.166   2.486
 2837TIP3    H2 8518   1.299   3.233   2.377
 2838TIP3   OH2 8519   2.466   4.885   1.962
 2838TIP3    H1 8520   2.523   4.879   1.882
 2838TIP3    H2 8521   2.517   4.946   2.018
 2839TIP3   OH2 8522   1.474   3.204   3.234
 2839TIP3    H1 8523   1.477   3.233   3.326
 2839TIP3    H2 8524   1.424   3.276   3.190
 2840TIP3   OH2 8525   1.567   4.688   3.341
 2840TIP3    H1 8526   1.471   4.671   3.334
 2840TIP3    H2 8527   1.582   4.674   3.436
 2841TIP3   OH2 8528   1.757   4.728   2.894
 2841TIP3    H1 8529   1.709   4.806   2.857
 2841TIP3    H2 8530   1.842   4.740   2.846
 2842TIP3   OH2 8531   2.180   4.961   3.028
 2842TIP3    H1 8532   2.223   4.956   3.117
 2842TIP3    H2 8533   2.246   5.015   2.980
 2843TIP3   OH2 8534   2.363   5.121   2.899
 2843TIP3    H1 8535   2.431   5.068   2.854
 2843TIP3    H2 8536   2.419   5.177   2.957
 2844TIP3   OH2 8537   1.424   4.973   2.928
 2844TIP3    H1 8538   1.330   4.996   2.908
 2844TIP3    H2 8539   1.445   5.043   2.991
 2845TIP3   OH2 8540   1.658   4.957   2.783
 2845TIP3    H1 8541   1.569   4.965   2.825
 2845TIP3    H2 8542   1.640   4.988   2.692
 2846TIP3   OH2 8543   2.084   4.975   2.579
 2846TIP3    H1 8544   2.013   4.991   2.514
 2846TIP3    H2 8545   2.094   5.063   2.620
 2847TIP3   OH2 8546   2.354   4.917   2.635
 2847TIP3    H1 8547   2.260   4.934   2.613
 2847TIP3    H2 8548   2.400   4.984   2.581
 2848TIP3   OH2 8549   2.555   5.105   2.537
 2848TIP3    H1 8550   2.544   5.189   2.489
 2848TIP3    H2 8551   2.584   5.045   2.465
 2849TIP3   OH2 8552   1.335   4.763   2.656
 2849TIP3    H1 8553   1.360   4.731   2.745
 2849TIP3    H2 8554   1.411   4.725   2.606
 2850TIP3   OH2 8555   1.538   4.641   2.526
 2850TIP3    H1 8556   1.550   4.555   2.574
 2850TIP3    H2 8557   1.630   4.675   2.527
 2851TIP3   OH2 8558   1.805   4.726   2.537
 2851TIP3    H1 8559   1.830   4.631   2.532
 2851TIP3    H2 8560   1.861   4.752   2.613
 2852TIP3   OH2 8561   2.345   3.370   2.572
 2852TIP3    H1 8562   2.311   3.314   2.645
 2852TIP3    H2 8563   2.437   3.337   2.561
 2853TIP3   OH2 8564   2.883   3.263   2.505
 2853TIP3    H1 8565   2.921   3.316   2.432
 2853TIP3    H2 8566   2.791   3.293   2.507
 2854TIP3   OH2 8567   2.985   3.365   2.273
 2854TIP3    H1 8568   3.061   3.310   2.245
 2854TIP3    H2 8569   3.024   3.455   2.259
 2855TIP3   OH2 8570   1.615   3.088   2.614
 2855TIP3    H1 8571   1.523   3.054   2.625
 2855TIP3    H2 8572   1.665   3.003   2.613
 2856TIP3   OH2 8573   1.408   2.973   2.279
 2856TIP3    H1 8574   1.442   3.026   2.205
 2856TIP3    H2 8575   1.388   3.042   2.346
 2857TIP3   OH2 8576   2.060   3.126   2.495
 2857TIP3    H1 8577   2.116   3.176   2.434
 2857TIP3    H2 8578   2.098   3.152   2.581
 2858TIP3   OH2 8579   2.604   3.286   2.488
 2858TIP3    H1 8580   2.618   3.239   2.405
 2858TIP3    H2 8581   2.592   3.210   2.550
 2859TIP3   OH2 8582   2.642   3.207   2.057
 2859TIP3    H1 8583   2.560   3.251   2.086
 2859TIP3    H2 8584   2.629   3.118   2.097
 2860TIP3   OH2 8585   1.120   4.552   2.043
 2860TIP3    H1 8586   1.031   4.522   2.014
 2860TIP3    H2 8587   1.118   4.643   2.007
 2861TIP3   OH2 8588   1.535   3.126   2.032
 2861TIP3    H1 8589   1.580   3.061   1.975
 2861TIP3    H2 8590   1.611   3.177   2.067
 2862TIP3   OH2 8591   2.036   3.311   2.138
 2862TIP3    H1 8592   2.096   3.265   2.200
 2862TIP3    H2 8593   2.053   3.404   2.164
 2863TIP3   OH2 8594   1.899   4.713   1.637
 2863TIP3    H1 8595   1.986   4.738   1.599
 2863TIP3    H2 8596   1.877   4.638   1.577
 2864TIP3   OH2 8597   2.619   4.851   1.732
 2864TIP3    H1 8598   2.610   4.754   1.723
 2864TIP3    H2 8599   2.571   4.881   1.652
 2865TIP3   OH2 8600   1.824   3.394   3.516
 2865TIP3    H1 8601   1.791   3.308   3.545
 2865TIP3    H2 8602   1.918   3.387   3.545
 2866TIP3   OH2 8603   2.077   3.384   3.636
 2866TIP3    H1 8604   2.161   3.391   3.587
 2866TIP3    H2 8605   2.089   3.302   3.686
 2867TIP3   OH2 8606   1.195   4.554   1.687
 2867TIP3    H1 8607   1.203   4.570   1.782
 2867TIP3    H2 8608   1.282   4.510   1.667
 2868TIP3   OH2 8609   2.833   4.986   2.917
 2868TIP3    H1 8610   2.755   4.958   2.863
 2868TIP3    H2 8611   2.814   5.081   2.928
 2869TIP3   OH2 8612   4.110   4.368   1.666
 2869TIP3    H1 8613   4.075   4.457   1.644
 2869TIP3    H2 8614   4.034   4.313   1.639
 2870TIP3   OH2 8615   4.097   4.376   2.064
 2870TIP3    H1 8616   4.129   4.359   2.155
 2870TIP3    H2 8617   4.060   4.290   2.041
 2871TIP3   OH2 8618   3.400   4.251   2.433
 2871TIP3    H1 8619   3.430   4.185   2.498
 2871TIP3    H2 8620   3.484   4.279   2.395
 2872TIP3   OH2 8621   4.362   4.678   1.747
 2872TIP3    H1 8622   4.337   4.606   1.807
 2872TIP3    H2 8623   4.389   4.748   1.808
 2873TIP3   OH2 8624   3.381   4.673   2.148
 2873TIP3    H1 8625   3.373   4.575   2.151
 2873TIP3    H2 8626   3.477   4.681   2.131
 2874TIP3   OH2 8627   3.086   3.859   1.920
 2874TIP3    H1 8628   3.046   3.943   1.946
 2874TIP3    H2 8629   3.011   3.817   1.874
 2875TIP3   OH2 8630   3.143   4.156   2.118
 2875TIP3    H1 8631   3.196   4.078   2.147
 2875TIP3    H2 8632   3.207   4.203   2.062
 2876TIP3   OH2 8633   4.016   5.132   1.775
 2876TIP3    H1 8634   4.047   5.059   1.716
 2876TIP3    H2 8635   3.991   5.082   1.854
 2877TIP3   OH2 8636   3.907   4.589   2.108
 2877TIP3    H1 8637   3.953   4.512   2.071
 2877TIP3    H2 8638   3.985   4.640   2.137
 2878TIP3   OH2 8639   4.931   3.907   2.114
 2878TIP3    H1 8640   4.957   3.992   2.156
 2878TIP3    H2 8641   4.948   3.926   2.020
 2879TIP3   OH2 8642   4.316   4.094   2.134
 2879TIP3    H1 8643   4.366   4.014   2.160
 2879TIP3    H2 8644   4.285   4.068   2.046
 2880TIP3   OH2 8645   3.670   3.747   2.098
 2880TIP3    H1 8646   3.649   3.821   2.037
 2880TIP3    H2 8647   3.614   3.676   2.060
 2881TIP3   OH2 8648   4.363   3.843   1.721
 2881TIP3    H1 8649   4.434   3.832   1.789
 2881TIP3    H2 8650   4.416   3.878   1.647
 2882TIP3   OH2 8651   3.293   3.950   2.217
 2882TIP3    H1 8652   3.377   3.932   2.263
 2882TIP3    H2 8653   3.309   3.898   2.135
 2883TIP3   OH2 8654   3.728   4.149   2.029
 2883TIP3    H1 8655   3.824   4.128   2.032
 2883TIP3    H2 8656   3.690   4.070   1.986
 2884TIP3   OH2 8657   5.005   4.124   2.278
 2884TIP3    H1 8658   4.917   4.165   2.258
 2884TIP3    H2 8659   5.018   4.158   2.368
 2885TIP3   OH2 8660   3.658   3.739   2.541
 2885TIP3    H1 8661   3.605   3.772   2.466
 2885TIP3    H2 8662   3.596   3.758   2.614
 2886TIP3   OH2 8663   3.991   4.586   1.548
 2886TIP3    H1 8664   3.935   4.557   1.475
 2886TIP3    H2 8665   3.944   4.668   1.576
 2887TIP3   OH2 8666   3.760   4.507   2.322
 2887TIP3    H1 8667   3.708   4.583   2.355
 2887TIP3    H2 8668   3.808   4.548   2.246
 2888TIP3   OH2 8669   4.546   3.854   1.924
 2888TIP3    H1 8670   4.503   3.835   2.010
 2888TIP3    H2 8671   4.600   3.932   1.946
 2889TIP3   OH2 8672   3.534   3.846   2.318
 2889TIP3    H1 8673   3.593   3.920   2.341
 2889TIP3    H2 8674   3.584   3.807   2.242
 2890TIP3   OH2 8675   3.598   4.714   2.432
 2890TIP3    H1 8676   3.570   4.801   2.396
 2890TIP3    H2 8677   3.518   4.692   2.484
 2891TIP3   OH2 8678   2.976   4.398   1.665
 2891TIP3    H1 8679   2.940   4.428   1.580
 2891TIP3    H2 8680   3.010   4.483   1.702
 2892TIP3   OH2 8681   4.417   4.921   1.904
 2892TIP3    H1 8682   4.328   4.909   1.946
 2892TIP3    H2 8683   4.405   5.008   1.861
 2893TIP3   OH2 8684   4.723   3.791   2.270
 2893TIP3    H1 8685   4.637   3.820   2.235
 2893TIP3    H2 8686   4.785   3.828   2.204
 2894TIP3   OH2 8687   4.002   3.439   2.267
 2894TIP3    H1 8688   3.977   3.345   2.282
 2894TIP3    H2 8689   3.925   3.484   2.308
 2895TIP3   OH2 8690   4.108   4.956   1.580
 2895TIP3    H1 8691   4.161   4.873   1.570
 2895TIP3    H2 8692   4.172   5.019   1.540
 2896TIP3   OH2 8693   4.271   4.754   1.498
 2896TIP3    H1 8694   4.234   4.673   1.460
 2896TIP3    H2 8695   4.312   4.719   1.580
 2897TIP3   OH2 8696   4.658   4.811   2.255
 2897TIP3    H1 8697   4.632   4.736   2.198
 2897TIP3    H2 8698   4.636   4.887   2.198
 2898TIP3   OH2 8699   3.920   4.220   1.531
 2898TIP3    H1 8700   3.828   4.256   1.524
 2898TIP3    H2 8701   3.946   4.229   1.439
 2899TIP3   OH2 8702   3.896   4.014   1.210
 2899TIP3    H1 8703   3.960   4.065   1.263
 2899TIP3    H2 8704   3.957   3.955   1.161
 2900TIP3   OH2 8705   4.839   4.467   2.105
 2900TIP3    H1 8706   4.752   4.513   2.105
 2900TIP3    H2 8707   4.870   4.488   2.014
 2901TIP3   OH2 8708   4.287   4.301   1.472
 2901TIP3    H1 8709   4.232   4.325   1.550
 2901TIP3    H2 8710   4.371   4.278   1.516
 2902TIP3   OH2 8711   3.493   4.286   1.927
 2902TIP3    H1 8712   3.453   4.233   1.854
 2902TIP3    H2 8713   3.582   4.247   1.934
 2903TIP3   OH2 8714   3.641   4.713   2.049
 2903TIP3    H1 8715   3.609   4.698   1.957
 2903TIP3    H2 8716   3.725   4.664   2.051
 2904TIP3   OH2 8717   3.632   4.271   2.260
 2904TIP3    H1 8718   3.667   4.236   2.174
 2904TIP3    H2 8719   3.685   4.352   2.272
 2905TIP3   OH2 8720   4.183   4.905   2.038
 2905TIP3    H1 8721   4.170   4.979   2.100
 2905TIP3    H2 8722   4.164   4.826   2.093
 2906TIP3   OH2 8723   3.795   4.827   2.582
 2906TIP3    H1 8724   3.729   4.884   2.625
 2906TIP3    H2 8725   3.736   4.771   2.527
 2907TIP3   OH2 8726   4.118   4.153   1.310
 2907TIP3    H1 8727   4.176   4.216   1.357
 2907TIP3    H2 8728   4.141   4.172   1.216
 2908TIP3   OH2 8729   3.555   4.368   2.707
 2908TIP3    H1 8730   3.556   4.463   2.731
 2908TIP3    H2 8731   3.459   4.350   2.707
 2909TIP3   OH2 8732   3.870   4.830   1.585
 2909TIP3    H1 8733   3.955   4.879   1.584
 2909TIP3    H2 8734   3.814   4.885   1.530
 2910TIP3   OH2 8735   3.583   4.983   2.667
 2910TIP3    H1 8736   3.553   4.990   2.574
 2910TIP3    H2 8737   3.500   4.964   2.715
 2911TIP3   OH2 8738   4.642   3.390   1.364
 2911TIP3    H1 8739   4.560   3.417   1.411
 2911TIP3    H2 8740   4.659   3.470   1.310
 2912TIP3   OH2 8741   3.360   4.135   1.738
 2912TIP3    H1 8742   3.312   4.179   1.665
 2912TIP3    H2 8743   3.365   4.044   1.706
 2913TIP3   OH2 8744   4.457   4.753   0.896
 2913TIP3    H1 8745   4.437   4.799   0.813
 2913TIP3    H2 8746   4.541   4.708   0.870
 2914TIP3   OH2 8747   3.164   4.527   2.613
 2914TIP3    H1 8748   3.095   4.508   2.546
 2914TIP3    H2 8749   3.204   4.439   2.628
 2915TIP3   OH2 8750   3.027   4.712   2.239
 2915TIP3    H1 8751   3.121   4.700   2.221
 2915TIP3    H2 8752   3.028   4.785   2.303
 2916TIP3   OH2 8753   4.878   5.192   2.300
 2916TIP3    H1 8754   4.886   5.094   2.310
 2916TIP3    H2 8755   4.794   5.206   2.350
 2917TIP3   OH2 8756   3.986   4.956   2.437
 2917TIP3    H1 8757   3.976   5.048   2.470
 2917TIP3    H2 8758   3.916   4.911   2.489
 2918TIP3   OH2 8759   3.760   5.083   1.384
 2918TIP3    H1 8760   3.701   5.064   1.310
 2918TIP3    H2 8761   3.722   5.165   1.420
 2919TIP3   OH2 8762   3.194   4.920   1.778
 2919TIP3    H1 8763   3.240   4.912   1.865
 2919TIP3    H2 8764   3.164   4.828   1.764
 2920TIP3   OH2 8765   3.952   4.981   1.024
 2920TIP3    H1 8766   4.007   4.906   0.992
 2920TIP3    H2 8767   3.986   4.992   1.116
 2921TIP3   OH2 8768   4.007   5.026   1.290
 2921TIP3    H1 8769   3.918   5.042   1.328
 2921TIP3    H2 8770   4.048   4.974   1.361
 2922TIP3   OH2 8771   3.371   4.708   2.590
 2922TIP3    H1 8772   3.418   4.689   2.673
 2922TIP3    H2 8773   3.295   4.646   2.597
 2923TIP3   OH2 8774   3.766   3.529   2.389
 2923TIP3    H1 8775   3.679   3.498   2.356
 2923TIP3    H2 8776   3.738   3.608   2.437
 2924TIP3   OH2 8777   4.318   3.655   2.576
 2924TIP3    H1 8778   4.386   3.622   2.638
 2924TIP3    H2 8779   4.234   3.637   2.623
 2925TIP3   OH2 8780   4.541   4.077   2.516
 2925TIP3    H1 8781   4.486   4.062   2.596
 2925TIP3    H2 8782   4.583   4.162   2.539
 2926TIP3   OH2 8783   4.170   4.186   1.044
 2926TIP3    H1 8784   4.157   4.158   0.952
 2926TIP3    H2 8785   4.258   4.230   1.035
 2927TIP3   OH2 8786   3.899   3.575   1.353
 2927TIP3    H1 8787   3.872   3.573   1.447
 2927TIP3    H2 8788   3.863   3.489   1.324
 2928TIP3   OH2 8789   3.702   4.047   2.402
 2928TIP3    H1 8790   3.652   4.063   2.484
 2928TIP3    H2 8791   3.683   4.129   2.352
 2929TIP3   OH2 8792   3.590   3.933   1.919
 2929TIP3    H1 8793   3.495   3.916   1.939
 2929TIP3    H2 8794   3.596   3.892   1.830
 2930TIP3   OH2 8795   4.070   4.015   1.651
 2930TIP3    H1 8796   4.021   4.088   1.607
 2930TIP3    H2 8797   4.126   3.981   1.579
 2931TIP3   OH2 8798   4.247   4.280   2.732
 2931TIP3    H1 8799   4.228   4.211   2.799
 2931TIP3    H2 8800   4.342   4.295   2.749
 2932TIP3   OH2 8801   4.226   4.032   1.882
 2932TIP3    H1 8802   4.159   4.057   1.815
 2932TIP3    H2 8803   4.267   3.958   1.833
 2933TIP3   OH2 8804   3.523   4.075   2.608
 2933TIP3    H1 8805   3.561   4.132   2.676
 2933TIP3    H2 8806   3.503   3.993   2.658
 2934TIP3   OH2 8807   3.553   3.551   1.322
 2934TIP3    H1 8808   3.554   3.539   1.419
 2934TIP3    H2 8809   3.503   3.634   1.316
 2935TIP3   OH2 8810   3.119   3.586   2.195
 2935TIP3    H1 8811   3.185   3.625   2.255
 2935TIP3    H2 8812   3.169   3.568   2.115
 2936TIP3   OH2 8813   3.058   3.567   1.710
 2936TIP3    H1 8814   3.106   3.602   1.631
 2936TIP3    H2 8815   3.002   3.645   1.730
 2937TIP3   OH2 8816   4.180   4.271   2.298
 2937TIP3    H1 8817   4.239   4.215   2.243
 2937TIP3    H2 8818   4.179   4.219   2.380
 2938TIP3   OH2 8819   3.928   3.733   1.975
 2938TIP3    H1 8820   3.847   3.740   2.029
 2938TIP3    H2 8821   3.998   3.741   2.042
 2939TIP3   OH2 8822   3.348   3.814   1.985
 2939TIP3    H1 8823   3.255   3.819   1.952
 2939TIP3    H2 8824   3.375   3.723   1.963
 2940TIP3   OH2 8825   3.600   3.802   1.679
 2940TIP3    H1 8826   3.694   3.821   1.659
 2940TIP3    H2 8827   3.556   3.819   1.593
 2941TIP3   OH2 8828   4.404   3.826   2.170
 2941TIP3    H1 8829   4.380   3.845   2.264
 2941TIP3    H2 8830   4.329   3.769   2.145
 2942TIP3   OH2 8831   3.469   3.816   1.439
 2942TIP3    H1 8832   3.387   3.802   1.390
 2942TIP3    H2 8833   3.524   3.865   1.374
 2943TIP3   OH2 8834   4.585   5.518   2.408
 2943TIP3    H1 8835   4.583   5.538   2.313
 2943TIP3    H2 8836   4.669   5.561   2.436
 2944TIP3   OH2 8837   3.529   4.628   2.819
 2944TIP3    H1 8838   3.610   4.653   2.867
 2944TIP3    H2 8839   3.465   4.625   2.892
 2945TIP3   OH2 8840   3.996   4.081   2.073
 2945TIP3    H1 8841   4.076   4.051   2.027
 2945TIP3    H2 8842   4.005   4.039   2.160
 2946TIP3   OH2 8843   3.498   3.565   1.971
 2946TIP3    H1 8844   3.462   3.491   2.025
 2946TIP3    H2 8845   3.534   3.517   1.896
 2947TIP3   OH2 8846   3.969   3.978   2.374
 2947TIP3    H1 8847   3.879   4.016   2.384
 2947TIP3    H2 8848   4.026   4.044   2.421
 2948TIP3   OH2 8849   4.600   4.604   2.081
 2948TIP3    H1 8850   4.621   4.657   2.002
 2948TIP3    H2 8851   4.516   4.560   2.054
 2949TIP3   OH2 8852   4.159   3.667   1.349
 2949TIP3    H1 8853   4.062   3.653   1.348
 2949TIP3    H2 8854   4.168   3.764   1.364
 2950TIP3   OH2 8855   4.085   4.686   2.461
 2950TIP3    H1 8856   4.156   4.676   2.525
 2950TIP3    H2 8857   4.060   4.780   2.470
 2951TIP3   OH2 8858   4.227   3.927   1.435
 2951TIP3    H1 8859   4.323   3.936   1.443
 2951TIP3    H2 8860   4.203   4.006   1.382
 2952TIP3   OH2 8861   3.392   4.399   2.148
 2952TIP3    H1 8862   3.421   4.368   2.059
 2952TIP3    H2 8863   3.453   4.349   2.204
 2953TIP3   OH2 8864   3.864   4.531   1.263
 2953TIP3    H1 8865   3.816   4.616   1.275
 2953TIP3    H2 8866   3.803   4.471   1.312
 2954TIP3   OH2 8867   3.286   4.310   2.749
 2954TIP3    H1 8868   3.293   4.287   2.843
 2954TIP3    H2 8869   3.214   4.250   2.721
 2955TIP3   OH2 8870   4.015   4.433   2.769
 2955TIP3    H1 8871   3.950   4.379   2.721
 2955TIP3    H2 8872   4.099   4.393   2.738
 2956TIP3   OH2 8873   4.258   4.977   2.351
 2956TIP3    H1 8874   4.163   4.959   2.367
 2956TIP3    H2 8875   4.282   5.016   2.438
 2957TIP3   OH2 8876   4.665   4.023   1.265
 2957TIP3    H1 8877   4.578   3.992   1.233
 2957TIP3    H2 8878   4.696   4.061   1.180
 2958TIP3   OH2 8879   4.905   4.923   2.325
 2958TIP3    H1 8880   4.815   4.888   2.341
 2958TIP3    H2 8881   4.927   4.873   2.243
 2959TIP3   OH2 8882   4.369   4.475   1.982
 2959TIP3    H1 8883   4.276   4.453   2.002
 2959TIP3    H2 8884   4.400   4.389   1.946
 2960TIP3   OH2 8885   3.501   4.722   1.814
 2960TIP3    H1 8886   3.496   4.777   1.734
 2960TIP3    H2 8887   3.461   4.639   1.787
 2961TIP3   OH2 8888   3.067   3.996   1.473
 2961TIP3    H1 8889   3.112   4.080   1.494
 2961TIP3    H2 8890   2.991   3.999   1.535
 2962TIP3   OH2 8891   3.778   5.032   2.230
 2962TIP3    H1 8892   3.821   5.105   2.180
 2962TIP3    H2 8893   3.855   4.990   2.271
 2963TIP3   OH2 8894   3.406   4.949   1.599
 2963TIP3    H1 8895   3.328   4.949   1.657
 2963TIP3    H2 8896   3.438   5.041   1.609
 2964TIP3   OH2 8897   4.153   4.678   2.196
 2964TIP3    H1 8898   4.131   4.674   2.292
 2964TIP3    H2 8899   4.238   4.632   2.197
 2965TIP3   OH2 8900   4.137   4.572   1.079
 2965TIP3    H1 8901   4.197   4.549   1.154
 2965TIP3    H2 8902   4.052   4.543   1.117
 2966TIP3   OH2 8903   4.406   5.199   2.246
 2966TIP3    H1 8904   4.331   5.136   2.255
 2966TIP3    H2 8905   4.377   5.255   2.171
 2967TIP3   OH2 8906   4.495   5.045   0.991
 2967TIP3    H1 8907   4.546   5.096   0.926
 2967TIP3    H2 8908   4.411   5.098   0.990
 2968TIP3   OH2 8909   3.454   3.827   2.731
 2968TIP3    H1 8910   3.361   3.855   2.745
 2968TIP3    H2 8911   3.448   3.739   2.773
 2969TIP3   OH2 8912   4.293   4.506   1.288
 2969TIP3    H1 8913   4.282   4.434   1.353
 2969TIP3    H2 8914   4.391   4.509   1.283
 2970TIP3   OH2 8915   3.207   4.895   2.385
 2970TIP3    H1 8916   3.266   4.825   2.417
 2970TIP3    H2 8917   3.238   4.970   2.436
 2971TIP3   OH2 8918   3.490   4.549   1.078
 2971TIP3    H1 8919   3.510   4.455   1.060
 2971TIP3    H2 8920   3.469   4.544   1.174
 2972TIP3   OH2 8921   3.423   4.546   1.344
 2972TIP3    H1 8922   3.498   4.491   1.378
 2972TIP3    H2 8923   3.450   4.636   1.369
 2973TIP3   OH2 8924   3.169   4.239   1.545
 2973TIP3    H1 8925   3.106   4.283   1.606
 2973TIP3    H2 8926   3.180   4.311   1.479
 2974TIP3   OH2 8927   4.346   3.893   2.428
 2974TIP3    H1 8928   4.422   3.947   2.459
 2974TIP3    H2 8929   4.343   3.819   2.492
 2975TIP3   OH2 8930   4.220   3.619   1.623
 2975TIP3    H1 8931   4.202   3.639   1.529
 2975TIP3    H2 8932   4.261   3.702   1.654
 2976TIP3   OH2 8933   3.722   4.760   1.290
 2976TIP3    H1 8934   3.633   4.763   1.330
 2976TIP3    H2 8935   3.719   4.843   1.238
 2977TIP3   OH2 8936   3.886   3.816   1.712
 2977TIP3    H1 8937   3.949   3.890   1.694
 2977TIP3    H2 8938   3.900   3.804   1.809
 2978TIP3   OH2 8939   4.164   4.117   2.520
 2978TIP3    H1 8940   4.199   4.171   2.594
 2978TIP3    H2 8941   4.226   4.042   2.517
 2979TIP3   OH2 8942   4.031   3.520   1.807
 2979TIP3    H1 8943   4.012   3.601   1.858
 2979TIP3    H2 8944   4.102   3.553   1.746
 2980TIP3   OH2 8945   3.466   4.822   1.365
 2980TIP3    H1 8946   3.434   4.892   1.304
 2980TIP3    H2 8947   3.445   4.864   1.452
 2981TIP3   OH2 8948   3.558   3.536   1.598
 2981TIP3    H1 8949   3.549   3.626   1.635
 2981TIP3    H2 8950   3.655   3.525   1.608
 2982TIP3   OH2 8951   4.807   3.991   2.495
 2982TIP3    H1 8952   4.731   4.038   2.534
 2982TIP3    H2 8953   4.773   3.974   2.406
 2983TIP3   OH2 8954   4.456   4.218   1.882
 2983TIP3    H1 8955   4.377   4.164   1.899
 2983TIP3    H2 8956   4.523   4.173   1.937
 2984TIP3   OH2 8957   3.174   4.438   1.348
 2984TIP3    H1 8958   3.256   4.492   1.357
 2984TIP3    H2 8959   3.206   4.376   1.279
 2985TIP3   OH2 8960   3.104   3.724   1.488
 2985TIP3    H1 8961   3.114   3.821   1.491
 2985TIP3    H2 8962   3.022   3.715   1.438
 2986TIP3   OH2 8963   4.428   5.192   1.828
 2986TIP3    H1 8964   4.384   5.237   1.751
 2986TIP3    H2 8965   4.522   5.211   1.808
 2987TIP3   OH2 8966   3.502   3.447   2.352
 2987TIP3    H1 8967   3.470   3.409   2.267
 2987TIP3    H2 8968   3.491   3.371   2.413
 2988TIP3   OH2 8969   3.027   4.664   1.731
 2988TIP3    H1 8970   2.985   4.699   1.812
 2988TIP3    H2 8971   2.983   4.716   1.660
 2989TIP3   OH2 8972   3.208   5.227   2.811
 2989TIP3    H1 8973   3.295   5.225   2.857
 2989TIP3    H2 8974   3.187   5.132   2.808
 2990TIP3   OH2 8975   3.674   5.158   2.856
 2990TIP3    H1 8976   3.769   5.136   2.859
 2990TIP3    H2 8977   3.645   5.095   2.786
 2991TIP3   OH2 8978   3.653   4.740   0.975
 2991TIP3    H1 8979   3.594   4.674   1.018
 2991TIP3    H2 8980   3.732   4.686   0.961
 2992TIP3   OH2 8981   4.307   5.085   2.599
 2992TIP3    H1 8982   4.310   5.012   2.665
 2992TIP3    H2 8983   4.387   5.136   2.623
 2993TIP3   OH2 8984   4.089   4.775   0.906
 2993TIP3    H1 8985   4.117   4.703   0.967
 2993TIP3    H2 8986   4.144   4.760   0.827
 2994TIP3   OH2 8987   3.328   4.621   3.012
 2994TIP3    H1 8988   3.340   4.525   3.025
 2994TIP3    H2 8989   3.242   4.624   2.964
 2995TIP3   OH2 8990   3.305   4.254   1.201
 2995TIP3    H1 8991   3.362   4.243   1.279
 2995TIP3    H2 8992   3.374   4.269   1.133
 2996TIP3   OH2 8993   3.932   4.710   2.788
 2996TIP3    H1 8994   3.895   4.735   2.701
 2996TIP3    H2 8995   3.969   4.621   2.771
 2997TIP3   OH2 8996   3.824   4.460   1.005
 2997TIP3    H1 8997   3.831   4.478   1.101
 2997TIP3    H2 8998   3.826   4.362   1.005
 2998TIP3   OH2 8999   4.399   4.730   2.371
 2998TIP3    H1 9000   4.495   4.742   2.368
 2998TIP3    H2 9001   4.366   4.818   2.347
 2999TIP3   OH2 9002   3.449   4.357   3.004
 2999TIP3    H1 9003   3.530   4.338   2.955
 2999TIP3    H2 9004   3.484   4.382   3.093
 3000TIP3   OH2 9005   3.787   4.231   2.657
 3000TIP3    H1 9006   3.709   4.291   2.661
 3000TIP3    H2 9007   3.838   4.268   2.581
 3001TIP3   OH2 9008   3.626   3.933   1.249
 3001TIP3    H1 9009   3.603   4.001   1.185
 3001TIP3    H2 9010   3.720   3.955   1.266
 3002TIP3   OH2 9011   4.297   4.640   2.791
 3002TIP3    H1 9012   4.370   4.604   2.740
 3002TIP3    H2 9013   4.291   4.576   2.865
 3003TIP3   OH2 9014   4.399   4.303   0.956
 3003TIP3    H1 9015   4.453   4.250   0.897
 3003TIP3    H2 9016   4.363   4.373   0.897
 3004TIP3   OH2 9017   3.913   4.026   2.777
 3004TIP3    H1 9018   3.914   3.951   2.714
 3004TIP3    H2 9019   3.869   4.096   2.724
 3005TIP3   OH2 9020   3.924   3.805   2.599
 3005TIP3    H1 9021   3.949   3.849   2.515
 3005TIP3    H2 9022   3.832   3.779   2.580
 3006TIP3   OH2 9023   3.932   4.345   2.465
 3006TIP3    H1 9024   4.017   4.343   2.417
 3006TIP3    H2 9025   3.881   4.410   2.414
 3007TIP3   OH2 9026   4.505   4.293   2.834
 3007TIP3    H1 9027   4.560   4.224   2.874
 3007TIP3    H2 9028   4.562   4.314   2.756
 3008TIP3   OH2 9029   3.810   4.114   3.031
 3008TIP3    H1 9030   3.726   4.071   3.050
 3008TIP3    H2 9031   3.829   4.087   2.939
 3009TIP3   OH2 9032   4.085   3.583   2.710
 3009TIP3    H1 9033   4.033   3.661   2.683
 3009TIP3    H2 9034   4.015   3.515   2.700
 3010TIP3   OH2 9035   4.170   4.058   2.876
 3010TIP3    H1 9036   4.132   4.042   2.966
 3010TIP3    H2 9037   4.087   4.046   2.825
 3011TIP3   OH2 9038   4.403   4.008   2.735
 3011TIP3    H1 9039   4.330   4.022   2.799
 3011TIP3    H2 9040   4.481   3.996   2.793
 3012TIP3   OH2 9041   4.633   3.968   2.887
 3012TIP3    H1 9042   4.647   3.873   2.900
 3012TIP3    H2 9043   4.634   4.003   2.978
 3013TIP3   OH2 9044   3.433   5.034   1.180
 3013TIP3    H1 9045   3.525   5.013   1.155
 3013TIP3    H2 9046   3.408   5.089   1.104
 3014TIP3   OH2 9047   2.906   4.414   1.381
 3014TIP3    H1 9048   3.002   4.434   1.372
 3014TIP3    H2 9049   2.902   4.324   1.342
 3015TIP3   OH2 9050   2.825   5.016   1.816
 3015TIP3    H1 9051   2.761   4.956   1.772
 3015TIP3    H2 9052   2.869   4.952   1.877
 3016TIP3   OH2 9053   2.953   4.852   2.000
 3016TIP3    H1 9054   2.944   4.790   2.074
 3016TIP3    H2 9055   3.009   4.919   2.042
 3017TIP3   OH2 9056   4.688   5.270   1.800
 3017TIP3    H1 9057   4.712   5.292   1.893
 3017TIP3    H2 9058   4.763   5.306   1.751
 3018TIP3   OH2 9059   4.715   5.282   2.081
 3018TIP3    H1 9060   4.664   5.198   2.079
 3018TIP3    H2 9061   4.785   5.256   2.143
 3019TIP3   OH2 9062   4.760   4.975   2.657
 3019TIP3    H1 9063   4.690   4.985   2.723
 3019TIP3    H2 9064   4.806   5.061   2.662
 3020TIP3   OH2 9065   4.567   4.518   1.288
 3020TIP3    H1 9066   4.642   4.545   1.232
 3020TIP3    H2 9067   4.611   4.453   1.348
 3021TIP3   OH2 9068   4.703   4.345   1.466
 3021TIP3    H1 9069   4.632   4.302   1.520
 3021TIP3    H2 9070   4.764   4.377   1.535
 3022TIP3   OH2 9071   4.765   4.745   1.901
 3022TIP3    H1 9072   4.820   4.670   1.868
 3022TIP3    H2 9073   4.752   4.798   1.821
 3023TIP3   OH2 9074   4.582   5.038   2.095
 3023TIP3    H1 9075   4.508   5.075   2.148
 3023TIP3    H2 9076   4.533   4.994   2.022
 3024TIP3   OH2 9077   4.474   3.925   1.104
 3024TIP3    H1 9078   4.546   3.963   1.048
 3024TIP3    H2 9079   4.455   3.844   1.053
 3025TIP3   OH2 9080   4.511   4.210   1.611
 3025TIP3    H1 9081   4.516   4.113   1.599
 3025TIP3    H2 9082   4.495   4.218   1.707
 3026TIP3   OH2 9083   3.136   4.276   2.367
 3026TIP3    H1 9084   3.133   4.237   2.276
 3026TIP3    H2 9085   3.234   4.278   2.381
 3027TIP3   OH2 9086   4.846   4.654   2.477
 3027TIP3    H1 9087   4.860   4.558   2.475
 3027TIP3    H2 9088   4.804   4.670   2.391
 3028TIP3   OH2 9089   4.952   4.395   2.449
 3028TIP3    H1 9090   4.874   4.366   2.502
 3028TIP3    H2 9091   5.023   4.342   2.492
 3029TIP3   OH2 9092   4.460   3.647   1.026
 3029TIP3    H1 9093   4.524   3.632   1.098
 3029TIP3    H2 9094   4.380   3.603   1.057
 3030TIP3   OH2 9095   4.517   3.929   1.502
 3030TIP3    H1 9096   4.559   3.840   1.514
 3030TIP3    H2 9097   4.573   3.965   1.432
 3031TIP3   OH2 9098   4.665   4.086   2.016
 3031TIP3    H1 9099   4.750   4.107   1.972
 3031TIP3    H2 9100   4.680   4.129   2.102
 3032TIP3   OH2 9101   4.757   4.239   2.242
 3032TIP3    H1 9102   4.723   4.268   2.328
 3032TIP3    H2 9103   4.781   4.324   2.200
 3033TIP3   OH2 9104   5.192   3.837   2.789
 3033TIP3    H1 9105   5.255   3.777   2.743
 3033TIP3    H2 9106   5.156   3.888   2.713
 3034TIP3   OH2 9107   4.623   3.677   1.546
 3034TIP3    H1 9108   4.669   3.657   1.630
 3034TIP3    H2 9109   4.560   3.602   1.541
 3035TIP3   OH2 9110   3.319   3.659   2.370
 3035TIP3    H1 9111   3.378   3.582   2.377
 3035TIP3    H2 9112   3.384   3.731   2.356
 3036TIP3   OH2 9113   3.115   3.928   2.436
 3036TIP3    H1 9114   3.168   3.926   2.354
 3036TIP3    H2 9115   3.148   4.008   2.478
 3037TIP3   OH2 9116   5.059   3.966   2.595
 3037TIP3    H1 9117   4.975   4.015   2.609
 3037TIP3    H2 9118   5.022   3.895   2.537
 3038TIP3   OH2 9119   4.692   3.598   1.189
 3038TIP3    H1 9120   4.732   3.534   1.127
 3038TIP3    H2 9121   4.753   3.674   1.182
 3039TIP3   OH2 9122   3.107   3.420   1.934
 3039TIP3    H1 9123   3.019   3.418   1.976
 3039TIP3    H2 9124   3.093   3.484   1.861
 3040TIP3   OH2 9125   4.272   5.131   1.459
 3040TIP3    H1 9126   4.334   5.146   1.387
 3040TIP3    H2 9127   4.295   5.203   1.521
 3041TIP3   OH2 9128   3.322   3.541   2.784
 3041TIP3    H1 9129   3.295   3.464   2.836
 3041TIP3    H2 9130   3.243   3.559   2.730
 3042TIP3   OH2 9131   3.361   4.952   2.828
 3042TIP3    H1 9132   3.267   4.930   2.816
 3042TIP3    H2 9133   3.377   4.921   2.918
 3043TIP3   OH2 9134   3.552   4.989   2.385
 3043TIP3    H1 9135   3.506   5.066   2.345
 3043TIP3    H2 9136   3.637   4.997   2.336
 3044TIP3   OH2 9137   3.977   5.222   2.521
 3044TIP3    H1 9138   4.021   5.215   2.608
 3044TIP3    H2 9139   4.043   5.273   2.470
 3045TIP3   OH2 9140   4.159   5.377   2.385
 3045TIP3    H1 9141   4.223   5.322   2.337
 3045TIP3    H2 9142   4.219   5.431   2.442
 3046TIP3   OH2 9143   4.967   3.729   2.479
 3046TIP3    H1 9144   4.880   3.737   2.436
 3046TIP3    H2 9145   4.991   3.634   2.463
 3047TIP3   OH2 9146   3.219   5.234   2.406
 3047TIP3    H1 9147   3.128   5.263   2.385
 3047TIP3    H2 9148   3.235   5.285   2.486
 3048TIP3   OH2 9149   3.458   5.218   2.270
 3048TIP3    H1 9150   3.368   5.226   2.310
 3048TIP3    H2 9151   3.439   5.243   2.177
 3049TIP3   OH2 9152   3.879   5.232   2.065
 3049TIP3    H1 9153   3.806   5.243   2.001
 3049TIP3    H2 9154   3.887   5.322   2.102
 3050TIP3   OH2 9155   4.149   5.179   2.123
 3050TIP3    H1 9156   4.055   5.192   2.098
 3050TIP3    H2 9157   4.194   5.243   2.066
 3051TIP3   OH2 9158   4.354   5.364   2.026
 3051TIP3    H1 9159   4.341   5.447   1.976
 3051TIP3    H2 9160   4.382   5.303   1.955
 3052TIP3   OH2 9161   3.127   5.021   2.151
 3052TIP3    H1 9162   3.156   4.988   2.239
 3052TIP3    H2 9163   3.201   4.985   2.097
 3053TIP3   OH2 9164   3.329   4.904   2.018
 3053TIP3    H1 9165   3.342   4.817   2.062
 3053TIP3    H2 9166   3.422   4.931   2.005
 3054TIP3   OH2 9167   3.605   4.990   2.015
 3054TIP3    H1 9168   3.623   4.895   2.002
 3054TIP3    H2 9169   3.659   5.005   2.095
 3055TIP3   OH2 9170   4.179   3.646   2.113
 3055TIP3    H1 9171   4.133   3.569   2.150
 3055TIP3    H2 9172   4.250   3.604   2.060
 3056TIP3   OH2 9173   4.678   3.525   1.998
 3056TIP3    H1 9174   4.716   3.576   1.924
 3056TIP3    H2 9175   4.586   3.556   1.998
 3057TIP3   OH2 9176   4.782   3.615   1.764
 3057TIP3    H1 9177   4.857   3.563   1.729
 3057TIP3    H2 9178   4.818   3.706   1.751
 3058TIP3   OH2 9179   3.413   3.346   2.110
 3058TIP3    H1 9180   3.321   3.311   2.119
 3058TIP3    H2 9181   3.462   3.261   2.104
 3059TIP3   OH2 9182   3.203   3.226   1.762
 3059TIP3    H1 9183   3.235   3.283   1.691
 3059TIP3    H2 9184   3.175   3.292   1.830
 3060TIP3   OH2 9185   3.868   3.379   1.994
 3060TIP3    H1 9186   3.920   3.425   1.925
 3060TIP3    H2 9187   3.894   3.427   2.074
 3061TIP3   OH2 9188   4.392   3.533   1.976
 3061TIP3    H1 9189   4.404   3.492   1.890
 3061TIP3    H2 9190   4.391   3.454   2.036
 3062TIP3   OH2 9191   4.439   3.467   1.543
 3062TIP3    H1 9192   4.357   3.513   1.570
 3062TIP3    H2 9193   4.423   3.378   1.581
 3063TIP3   OH2 9194   2.916   4.810   1.528
 3063TIP3    H1 9195   2.829   4.777   1.499
 3063TIP3    H2 9196   2.911   4.901   1.494
 3064TIP3   OH2 9197   3.333   3.382   1.522
 3064TIP3    H1 9198   3.379   3.319   1.464
 3064TIP3    H2 9199   3.408   3.435   1.557
 3065TIP3   OH2 9200   3.832   3.566   1.619
 3065TIP3    H1 9201   3.892   3.521   1.680
 3065TIP3    H2 9202   3.849   3.659   1.645
 3066TIP3   OH2 9203   3.691   4.972   1.115
 3066TIP3    H1 9204   3.779   4.994   1.079
 3066TIP3    H2 9205   3.669   4.895   1.057
 3067TIP3   OH2 9206   2.994   4.811   1.176
 3067TIP3    H1 9207   3.006   4.815   1.272
 3067TIP3    H2 9208   3.078   4.767   1.148
 3068TIP3   OH2 9209   4.699   3.687   2.904
 3068TIP3    H1 9210   4.721   3.660   2.996
 3068TIP3    H2 9211   4.788   3.694   2.864
 3069TIP3   OH2 9212   4.628   5.245   2.406
 3069TIP3    H1 9213   4.550   5.217   2.352
 3069TIP3    H2 9214   4.609   5.340   2.417
 3070TIP3   OH2 9215   5.891   4.621   1.170
 3070TIP3    H1 9216   5.865   4.712   1.145
 3070TIP3    H2 9217   5.814   4.572   1.138
 3071TIP3   OH2 9218   5.878   4.639   1.575
 3071TIP3    H1 9219   5.928   4.620   1.657
 3071TIP3    H2 9220   5.848   4.549   1.552
 3072TIP3   OH2 9221   5.195   4.506   1.914
 3072TIP3    H1 9222   5.220   4.437   1.978
 3072TIP3    H2 9223   5.279   4.552   1.903
 3073TIP3   OH2 9224   6.129   4.933   1.283
 3073TIP3    H1 9225   6.141   4.841   1.316
 3073TIP3    H2 9226   6.090   4.972   1.362
 3074TIP3   OH2 9227   5.175   4.927   1.625
 3074TIP3    H1 9228   5.169   4.829   1.624
 3074TIP3    H2 9229   5.271   4.938   1.636
 3075TIP3   OH2 9230   4.876   4.122   1.407
 3075TIP3    H1 9231   4.826   4.202   1.429
 3075TIP3    H2 9232   4.808   4.075   1.356
 3076TIP3   OH2 9233   4.934   4.411   1.610
 3076TIP3    H1 9234   4.985   4.333   1.640
 3076TIP3    H2 9235   4.990   4.446   1.540
 3077TIP3   OH2 9236   5.697   4.854   1.601
 3077TIP3    H1 9237   5.756   4.778   1.583
 3077TIP3    H2 9238   5.761   4.924   1.622
 3078TIP3   OH2 9239   6.119   4.352   1.615
 3078TIP3    H1 9240   6.145   4.261   1.639
 3078TIP3    H2 9241   6.079   4.335   1.527
 3079TIP3   OH2 9242   5.466   4.004   1.587
 3079TIP3    H1 9243   5.443   4.077   1.526
 3079TIP3    H2 9244   5.413   3.931   1.548
 3080TIP3   OH2 9245   6.160   4.090   1.224
 3080TIP3    H1 9246   6.198   4.044   1.300
 3080TIP3    H2 9247   6.237   4.098   1.164
 3081TIP3   OH2 9248   5.087   4.205   1.705
 3081TIP3    H1 9249   5.171   4.187   1.751
 3081TIP3    H2 9250   5.100   4.152   1.623
 3082TIP3   OH2 9251   5.522   4.404   1.505
 3082TIP3    H1 9252   5.618   4.383   1.514
 3082TIP3    H2 9253   5.485   4.320   1.471
 3083TIP3   OH2 9254   5.449   3.990   2.030
 3083TIP3    H1 9255   5.394   4.028   1.958
 3083TIP3    H2 9256   5.392   4.009   2.107
 3084TIP3   OH2 9257   5.776   4.843   1.045
 3084TIP3    H1 9258   5.754   4.819   0.953
 3084TIP3    H2 9259   5.783   4.939   1.039
 3085TIP3   OH2 9260   5.553   4.766   1.814
 3085TIP3    H1 9261   5.498   4.840   1.847
 3085TIP3    H2 9262   5.598   4.808   1.737
 3086TIP3   OH2 9263   5.329   4.103   1.807
 3086TIP3    H1 9264   5.388   4.178   1.831
 3086TIP3    H2 9265   5.380   4.065   1.732
 3087TIP3   OH2 9266   5.383   4.970   1.907
 3087TIP3    H1 9267   5.366   5.064   1.885
 3087TIP3    H2 9268   5.304   4.951   1.961
 3088TIP3   OH2 9269   4.754   4.652   1.132
 3088TIP3    H1 9270   4.741   4.660   1.035
 3088TIP3    H2 9271   4.774   4.743   1.160
 3089TIP3   OH2 9272   5.796   3.696   1.758
 3089TIP3    H1 9273   5.773   3.602   1.773
 3089TIP3    H2 9274   5.720   3.740   1.801
 3090TIP3   OH2 9275   5.728   4.472   0.996
 3090TIP3    H1 9276   5.647   4.524   0.984
 3090TIP3    H2 9277   5.775   4.488   0.913
 3091TIP3   OH2 9278   5.702   4.228   0.726
 3091TIP3    H1 9279   5.768   4.294   0.752
 3091TIP3    H2 9280   5.717   4.155   0.787
 3092TIP3   OH2 9281   6.084   4.527   1.004
 3092TIP3    H1 9282   6.024   4.555   1.077
 3092TIP3    H2 9283   6.166   4.571   1.030
 3093TIP3   OH2 9284   6.271   4.581   1.902
 3093TIP3    H1 9285   6.269   4.672   1.933
 3093TIP3    H2 9286   6.192   4.578   1.845
 3094TIP3   OH2 9287   5.316   4.546   1.388
 3094TIP3    H1 9288   5.278   4.483   1.323
 3094TIP3    H2 9289   5.391   4.494   1.424
 3095TIP3   OH2 9290   5.448   4.968   1.526
 3095TIP3    H1 9291   5.429   4.936   1.437
 3095TIP3    H2 9292   5.532   4.924   1.548
 3096TIP3   OH2 9293   5.441   4.525   1.743
 3096TIP3    H1 9294   5.477   4.493   1.657
 3096TIP3    H2 9295   5.490   4.609   1.758
 3097TIP3   OH2 9296   5.572   5.045   2.095
 3097TIP3    H1 9297   5.518   5.122   2.122
 3097TIP3    H2 9298   5.516   5.007   2.026
 3098TIP3   OH2 9299   5.928   4.442   0.794
 3098TIP3    H1 9300   5.982   4.475   0.870
 3098TIP3    H2 9301   5.957   4.510   0.730
 3099TIP3   OH2 9302   5.345   4.622   2.187
 3099TIP3    H1 9303   5.349   4.716   2.214
 3099TIP3    H2 9304   5.249   4.604   2.199
 3100TIP3   OH2 9305   5.675   5.135   1.083
 3100TIP3    H1 9306   5.656   5.091   1.166
 3100TIP3    H2 9307   5.599   5.110   1.028
 3101TIP3   OH2 9308   5.380   5.242   2.152
 3101TIP3    H1 9309   5.351   5.249   2.059
 3101TIP3    H2 9310   5.296   5.223   2.199
 3102TIP3   OH2 9311   5.195   4.387   1.192
 3102TIP3    H1 9312   5.127   4.445   1.149
 3102TIP3    H2 9313   5.149   4.303   1.193
 3103TIP3   OH2 9314   4.963   4.780   2.100
 3103TIP3    H1 9315   4.890   4.762   2.037
 3103TIP3    H2 9316   4.997   4.691   2.120
 3104TIP3   OH2 9317   4.821   4.977   1.705
 3104TIP3    H1 9318   4.916   4.960   1.713
 3104TIP3    H2 9319   4.808   5.041   1.777
 3105TIP3   OH2 9320   5.466   5.359   0.886
 3105TIP3    H1 9321   5.477   5.329   0.795
 3105TIP3    H2 9322   5.551   5.405   0.898
 3106TIP3   OH2 9323   4.967   5.174   1.281
 3106TIP3    H1 9324   5.042   5.167   1.345
 3106TIP3    H2 9325   4.894   5.153   1.343
 3107TIP3   OH2 9326   5.164   4.964   2.072
 3107TIP3    H1 9327   5.212   4.949   2.156
 3107TIP3    H2 9328   5.090   4.900   2.082
 3108TIP3   OH2 9329   5.563   3.783   1.882
 3108TIP3    H1 9330   5.476   3.754   1.847
 3108TIP3    H2 9331   5.535   3.863   1.932
 3109TIP3   OH2 9332   6.104   3.890   2.069
 3109TIP3    H1 9333   6.170   3.872   2.139
 3109TIP3    H2 9334   6.019   3.881   2.117
 3110TIP3   OH2 9335   6.336   4.321   1.962
 3110TIP3    H1 9336   6.298   4.323   2.052
 3110TIP3    H2 9337   6.326   4.415   1.936
 3111TIP3   OH2 9338   5.700   3.838   0.852
 3111TIP3    H1 9339   5.665   3.825   0.942
 3111TIP3    H2 9340   5.666   3.757   0.810
 3112TIP3   OH2 9341   5.497   4.304   1.892
 3112TIP3    H1 9342   5.445   4.319   1.974
 3112TIP3    H2 9343   5.479   4.386   1.842
 3113TIP3   OH2 9344   5.379   4.187   1.409
 3113TIP3    H1 9345   5.286   4.164   1.429
 3113TIP3    H2 9346   5.387   4.145   1.321
 3114TIP3   OH2 9347   5.870   4.271   1.133
 3114TIP3    H1 9348   5.822   4.342   1.086
 3114TIP3    H2 9349   5.941   4.250   1.070
 3115TIP3   OH2 9350   6.042   4.542   2.217
 3115TIP3    H1 9351   6.020   4.469   2.279
 3115TIP3    H2 9352   6.138   4.549   2.233
 3116TIP3   OH2 9353   6.019   4.297   1.366
 3116TIP3    H1 9354   5.951   4.320   1.299
 3116TIP3    H2 9355   6.062   4.223   1.318
 3117TIP3   OH2 9356   5.317   4.327   2.097
 3117TIP3    H1 9357   5.341   4.394   2.164
 3117TIP3    H2 9358   5.301   4.248   2.152
 3118TIP3   OH2 9359   5.370   3.804   0.812
 3118TIP3    H1 9360   5.351   3.803   0.908
 3118TIP3    H2 9361   5.289   3.850   0.779
 3119TIP3   OH2 9362   4.911   3.837   1.689
 3119TIP3    H1 9363   4.983   3.877   1.742
 3119TIP3    H2 9364   4.951   3.828   1.601
 3120TIP3   OH2 9365   4.855   3.828   1.181
 3120TIP3    H1 9366   4.886   3.863   1.096
 3120TIP3    H2 9367   4.786   3.895   1.199
 3121TIP3   OH2 9368   6.011   4.533   1.784
 3121TIP3    H1 9369   6.053   4.467   1.724
 3121TIP3    H2 9370   5.986   4.475   1.859
 3122TIP3   OH2 9371   5.721   3.999   1.459
 3122TIP3    H1 9372   5.644   4.005   1.519
 3122TIP3    H2 9373   5.795   3.987   1.522
 3123TIP3   OH2 9374   5.137   4.071   1.469
 3123TIP3    H1 9375   5.044   4.079   1.438
 3123TIP3    H2 9376   5.160   3.979   1.447
 3124TIP3   OH2 9377   5.397   4.054   1.173
 3124TIP3    H1 9378   5.491   4.071   1.153
 3124TIP3    H2 9379   5.352   4.081   1.089
 3125TIP3   OH2 9380   6.150   4.088   1.659
 3125TIP3    H1 9381   6.146   4.099   1.756
 3125TIP3    H2 9382   6.078   4.025   1.644
 3126TIP3   OH2 9383   5.274   4.106   0.937
 3126TIP3    H1 9384   5.208   4.054   0.886
 3126TIP3    H2 9385   5.326   4.144   0.864
 3127TIP3   OH2 9386   5.323   4.882   2.302
 3127TIP3    H1 9387   5.403   4.910   2.349
 3127TIP3    H2 9388   5.259   4.877   2.376
 3128TIP3   OH2 9389   5.787   4.342   1.564
 3128TIP3    H1 9390   5.864   4.305   1.517
 3128TIP3    H2 9391   5.789   4.293   1.649
 3129TIP3   OH2 9392   5.300   3.821   1.457
 3129TIP3    H1 9393   5.261   3.748   1.511
 3129TIP3    H2 9394   5.323   3.773   1.377
 3130TIP3   OH2 9395   5.764   4.244   1.852
 3130TIP3    H1 9396   5.674   4.279   1.870
 3130TIP3    H2 9397   5.821   4.304   1.904
 3131TIP3   OH2 9398   5.493   4.622   0.946
 3131TIP3    H1 9399   5.422   4.556   0.933
 3131TIP3    H2 9400   5.471   4.655   1.037
 3132TIP3   OH2 9401   5.952   3.937   0.869
 3132TIP3    H1 9402   5.856   3.917   0.859
 3132TIP3    H2 9403   5.956   4.035   0.876
 3133TIP3   OH2 9404   5.947   4.964   1.938
 3133TIP3    H1 9405   5.907   4.979   2.024
 3133TIP3    H2 9406   5.905   5.033   1.883
 3134TIP3   OH2 9407   6.022   4.206   0.895
 3134TIP3    H1 9408   6.116   4.200   0.873
 3134TIP3    H2 9409   5.998   4.293   0.856
 3135TIP3   OH2 9410   5.201   4.657   1.614
 3135TIP3    H1 9411   5.239   4.620   1.531
 3135TIP3    H2 9412   5.245   4.602   1.681
 3136TIP3   OH2 9413   5.667   4.783   0.804
 3136TIP3    H1 9414   5.615   4.861   0.776
 3136TIP3    H2 9415   5.599   4.729   0.851
 3137TIP3   OH2 9416   5.080   4.558   2.239
 3137TIP3    H1 9417   5.082   4.549   2.337
 3137TIP3    H2 9418   5.006   4.498   2.219
 3138TIP3   OH2 9419   5.807   4.686   2.256
 3138TIP3    H1 9420   5.743   4.625   2.216
 3138TIP3    H2 9421   5.892   4.646   2.225
 3139TIP3   OH2 9422   6.144   4.720   1.449
 3139TIP3    H1 9423   6.058   4.692   1.483
 3139TIP3    H2 9424   6.188   4.635   1.427
 3140TIP3   OH2 9425   5.312   4.962   1.246
 3140TIP3    H1 9426   5.288   5.041   1.194
 3140TIP3    H2 9427   5.226   4.922   1.261
 3141TIP3   OH2 9428   5.419   4.711   1.189
 3141TIP3    H1 9429   5.392   4.801   1.212
 3141TIP3    H2 9430   5.386   4.658   1.264
 3142TIP3   OH2 9431   5.563   5.298   1.707
 3142TIP3    H1 9432   5.605   5.384   1.696
 3142TIP3    H2 9433   5.644   5.243   1.721
 3143TIP3   OH2 9434   5.205   5.187   1.103
 3143TIP3    H1 9435   5.118   5.195   1.145
 3143TIP3    H2 9436   5.238   5.279   1.114
 3144TIP3   OH2 9437   5.277   4.072   2.235
 3144TIP3    H1 9438   5.180   4.081   2.246
 3144TIP3    H2 9439   5.301   4.025   2.316
 3145TIP3   OH2 9440   6.074   4.660   0.734
 3145TIP3    H1 9441   6.074   4.674   0.830
 3145TIP3    H2 9442   6.157   4.702   0.708
 3146TIP3   OH2 9443   5.006   5.152   1.868
 3146TIP3    H1 9444   5.059   5.086   1.916
 3146TIP3    H2 9445   5.024   5.231   1.921
 3147TIP3   OH2 9446   5.214   4.814   0.874
 3147TIP3    H1 9447   5.302   4.775   0.877
 3147TIP3    H2 9448   5.235   4.909   0.863
 3148TIP3   OH2 9449   5.003   4.531   1.068
 3148TIP3    H1 9450   4.915   4.547   1.105
 3148TIP3    H2 9451   5.001   4.586   0.987
 3149TIP3   OH2 9452   6.133   4.137   1.928
 3149TIP3    H1 9453   6.218   4.184   1.945
 3149TIP3    H2 9454   6.137   4.060   1.988
 3150TIP3   OH2 9455   6.006   3.877   1.129
 3150TIP3    H1 9456   5.990   3.890   1.032
 3150TIP3    H2 9457   6.048   3.962   1.153
 3151TIP3   OH2 9458   5.513   5.002   0.741
 3151TIP3    H1 9459   5.434   5.039   0.785
 3151TIP3    H2 9460   5.479   4.986   0.651
 3152TIP3   OH2 9461   5.681   4.074   1.197
 3152TIP3    H1 9462   5.746   4.145   1.180
 3152TIP3    H2 9463   5.693   4.060   1.293
 3153TIP3   OH2 9464   5.967   4.373   1.998
 3153TIP3    H1 9465   6.002   4.426   2.073
 3153TIP3    H2 9466   6.026   4.295   1.998
 3154TIP3   OH2 9467   5.821   3.773   1.301
 3154TIP3    H1 9468   5.810   3.854   1.355
 3154TIP3    H2 9469   5.892   3.804   1.239
 3155TIP3   OH2 9470   5.275   5.085   0.856
 3155TIP3    H1 9471   5.237   5.156   0.802
 3155TIP3    H2 9472   5.261   5.121   0.946
 3156TIP3   OH2 9473   5.349   3.793   1.088
 3156TIP3    H1 9474   5.344   3.882   1.129
 3156TIP3    H2 9475   5.446   3.779   1.095
 3157TIP3   OH2 9476   6.251   4.473   1.392
 3157TIP3    H1 9477   6.172   4.424   1.366
 3157TIP3    H2 9478   6.277   4.427   1.473
 3158TIP3   OH2 9479   4.974   4.696   0.847
 3158TIP3    H1 9480   5.057   4.747   0.862
 3158TIP3    H2 9481   5.006   4.637   0.775
 3159TIP3   OH2 9482   5.303   3.701   1.838
 3159TIP3    H1 9483   5.271   3.668   1.751
 3159TIP3    H2 9484   5.288   3.624   1.896
 3160TIP3   OH2 9485   4.752   4.920   1.209
 3160TIP3    H1 9486   4.772   4.939   1.302
 3160TIP3    H2 9487   4.822   4.970   1.164
 3161TIP3   OH2 9488   5.004   5.484   2.299
 3161TIP3    H1 9489   5.090   5.483   2.347
 3161TIP3    H2 9490   4.984   5.389   2.297
 3162TIP3   OH2 9491   5.473   5.413   2.342
 3162TIP3    H1 9492   5.566   5.387   2.348
 3162TIP3    H2 9493   5.443   5.352   2.272
 3163TIP3   OH2 9494   6.132   5.345   2.116
 3163TIP3    H1 9495   6.100   5.262   2.158
 3163TIP3    H2 9496   6.227   5.329   2.113
 3164TIP3   OH2 9497   5.121   4.879   2.499
 3164TIP3    H1 9498   5.129   4.782   2.509
 3164TIP3    H2 9499   5.037   4.887   2.450
 3165TIP3   OH2 9500   5.116   4.524   0.697
 3165TIP3    H1 9501   5.166   4.483   0.771
 3165TIP3    H2 9502   5.187   4.568   0.649
 3166TIP3   OH2 9503   5.739   4.962   2.286
 3166TIP3    H1 9504   5.686   4.986   2.206
 3166TIP3    H2 9505   5.768   4.871   2.264
 3167TIP3   OH2 9506   6.219   4.934   1.882
 3167TIP3    H1 9507   6.246   5.026   1.899
 3167TIP3    H2 9508   6.121   4.941   1.882
 3168TIP3   OH2 9509   5.236   4.618   2.492
 3168TIP3    H1 9510   5.311   4.578   2.448
 3168TIP3    H2 9511   5.274   4.645   2.578
 3169TIP3   OH2 9512   5.297   4.428   0.899
 3169TIP3    H1 9513   5.268   4.392   0.984
 3169TIP3    H2 9514   5.337   4.350   0.856
 3170TIP3   OH2 9515   5.584   4.491   2.147
 3170TIP3    H1 9516   5.504   4.547   2.148
 3170TIP3    H2 9517   5.632   4.526   2.068
 3171TIP3   OH2 9518   5.425   4.216   0.741
 3171TIP3    H1 9519   5.420   4.146   0.673
 3171TIP3    H2 9520   5.521   4.233   0.739
 3172TIP3   OH2 9521   6.108   4.891   2.282
 3172TIP3    H1 9522   6.163   4.841   2.220
 3172TIP3    H2 9523   6.094   4.826   2.353
 3173TIP3   OH2 9524   5.708   4.284   2.265
 3173TIP3    H1 9525   5.708   4.209   2.203
 3173TIP3    H2 9526   5.664   4.354   2.212
 3174TIP3   OH2 9527   5.710   4.070   2.078
 3174TIP3    H1 9528   5.738   4.113   1.995
 3174TIP3    H2 9529   5.616   4.048   2.058
 3175TIP3   OH2 9530   5.726   4.601   1.949
 3175TIP3    H1 9531   5.815   4.625   1.921
 3175TIP3    H2 9532   5.670   4.664   1.900
 3176TIP3   OH2 9533   6.308   4.565   2.329
 3176TIP3    H1 9534   6.345   4.476   2.324
 3176TIP3    H2 9535   6.379   4.620   2.294
 3177TIP3   OH2 9536   6.368   4.826   2.079
 3177TIP3    H1 9537   6.312   4.873   2.013
 3177TIP3    H2 9538   6.443   4.802   2.024
 3178TIP3   OH2 9539   5.589   4.375   2.509
 3178TIP3    H1 9540   5.520   4.308   2.525
 3178TIP3    H2 9541   5.615   4.354   2.418
 3179TIP3   OH2 9542   5.837   3.830   2.154
 3179TIP3    H1 9543   5.789   3.911   2.128
 3179TIP3    H2 9544   5.768   3.761   2.143
 3180TIP3   OH2 9545   5.965   4.321   2.359
 3180TIP3    H1 9546   5.942   4.305   2.453
 3180TIP3    H2 9547   5.877   4.304   2.319
 3181TIP3   OH2 9548   6.206   4.295   2.206
 3181TIP3    H1 9549   6.129   4.290   2.266
 3181TIP3    H2 9550   6.276   4.257   2.263
 3182TIP3   OH2 9551   6.405   4.212   2.372
 3182TIP3    H1 9552   6.436   4.121   2.386
 3182TIP3    H2 9553   6.422   4.254   2.459
 3183TIP3   OH2 9554   5.419   4.158   2.565
 3183TIP3    H1 9555   5.419   4.065   2.533
 3183TIP3    H2 9556   5.458   4.146   2.654
 3184TIP3   OH2 9557   5.921   3.837   2.416
 3184TIP3    H1 9558   5.986   3.765   2.407
 3184TIP3    H2 9559   5.885   3.839   2.324
 3185TIP3   OH2 9560   5.998   4.049   2.571
 3185TIP3    H1 9561   5.974   3.980   2.506
 3185TIP3    H2 9562   5.921   4.111   2.563
 3186TIP3   OH2 9563   4.710   4.671   0.864
 3186TIP3    H1 9564   4.807   4.689   0.852
 3186TIP3    H2 9565   4.705   4.579   0.829
 3187TIP3   OH2 9566   4.628   5.279   1.305
 3187TIP3    H1 9567   4.597   5.236   1.224
 3187TIP3    H2 9568   4.663   5.204   1.358
 3188TIP3   OH2 9569   4.780   5.103   1.465
 3188TIP3    H1 9570   4.770   5.035   1.535
 3188TIP3    H2 9571   4.815   5.175   1.523
 3189TIP3   OH2 9572   4.931   4.536   1.855
 3189TIP3    H1 9573   4.926   4.494   1.766
 3189TIP3    H2 9574   5.029   4.534   1.869
 3190TIP3   OH2 9575   5.150   4.217   2.532
 3190TIP3    H1 9576   5.248   4.213   2.540
 3190TIP3    H2 9577   5.126   4.129   2.567
 3191TIP3   OH2 9578   5.121   3.913   1.853
 3191TIP3    H1 9579   5.182   3.838   1.859
 3191TIP3    H2 9580   5.183   3.987   1.843
 3192TIP3   OH2 9581   4.910   4.177   1.929
 3192TIP3    H1 9582   4.962   4.182   1.846
 3192TIP3    H2 9583   4.936   4.258   1.974
 3193TIP3   OH2 9584   4.905   3.692   1.415
 3193TIP3    H1 9585   4.815   3.683   1.450
 3193TIP3    H2 9586   4.891   3.751   1.337
 3194TIP3   OH2 9587   5.123   3.753   2.239
 3194TIP3    H1 9588   5.077   3.764   2.325
 3194TIP3    H2 9589   5.061   3.801   2.180
 3195TIP3   OH2 9590   5.158   5.205   2.309
 3195TIP3    H1 9591   5.063   5.186   2.299
 3195TIP3    H2 9592   5.175   5.176   2.399
 3196TIP3   OH2 9593   5.351   5.242   1.871
 3196TIP3    H1 9594   5.303   5.317   1.830
 3196TIP3    H2 9595   5.436   5.252   1.824
 3197TIP3   OH2 9596   5.784   5.498   1.997
 3197TIP3    H1 9597   5.825   5.492   2.087
 3197TIP3    H2 9598   5.795   5.406   1.966
 3198TIP3   OH2 9599   5.013   5.492   1.895
 3198TIP3    H1 9600   4.920   5.520   1.878
 3198TIP3    H2 9601   5.035   5.552   1.969
 3199TIP3   OH2 9602   5.243   5.463   1.755
 3199TIP3    H1 9603   5.155   5.472   1.799
 3199TIP3    H2 9604   5.223   5.495   1.665
 3200TIP3   OH2 9605   5.717   5.522   1.575
 3200TIP3    H1 9606   5.691   5.527   1.481
 3200TIP3    H2 9607   5.664   5.594   1.613
 3201TIP3   OH2 9608   4.929   5.275   1.629
 3201TIP3    H1 9609   4.952   5.240   1.718
 3201TIP3    H2 9610   5.006   5.239   1.580
 3202TIP3   OH2 9611   5.132   5.159   1.495
 3202TIP3    H1 9612   5.142   5.073   1.543
 3202TIP3    H2 9613   5.225   5.191   1.499
 3203TIP3   OH2 9614   5.395   5.236   1.508
 3203TIP3    H1 9615   5.418   5.140   1.510
 3203TIP3    H2 9616   5.453   5.265   1.582
 3204TIP3   OH2 9617   5.940   3.902   1.595
 3204TIP3    H1 9618   5.904   3.830   1.649
 3204TIP3    H2 9619   6.008   3.855   1.541
 3205TIP3   OH2 9620   5.210   3.605   1.597
 3205TIP3    H1 9621   5.117   3.573   1.602
 3205TIP3    H2 9622   5.257   3.519   1.589
 3206TIP3   OH2 9623   5.020   3.489   1.257
 3206TIP3    H1 9624   5.040   3.541   1.177
 3206TIP3    H2 9625   4.985   3.557   1.318
 3207TIP3   OH2 9626   5.667   3.632   1.483
 3207TIP3    H1 9627   5.715   3.678   1.412
 3207TIP3    H2 9628   5.689   3.685   1.560
 3208TIP3   OH2 9629   6.124   3.752   1.458
 3208TIP3    H1 9630   6.158   3.736   1.370
 3208TIP3    H2 9631   6.159   3.674   1.507
 3209TIP3   OH2 9632   6.209   3.714   1.031
 3209TIP3    H1 9633   6.136   3.765   1.069
 3209TIP3    H2 9634   6.193   3.625   1.065
 3210TIP3   OH2 9635   5.130   3.625   1.016
 3210TIP3    H1 9636   5.175   3.567   0.950
 3210TIP3    H2 9637   5.204   3.681   1.046
 3211TIP3   OH2 9638   5.623   3.820   1.113
 3211TIP3    H1 9639   5.683   3.776   1.176
 3211TIP3    H2 9640   5.641   3.914   1.136
 3212TIP3   OH2 9641   5.418   3.885   2.488
 3212TIP3    H1 9642   5.381   3.814   2.544
 3212TIP3    H2 9643   5.511   3.885   2.518
 3213TIP3   OH2 9644   5.670   3.887   2.607
 3213TIP3    H1 9645   5.756   3.865   2.566
 3213TIP3    H2 9646   5.660   3.814   2.672
 3214TIP3   OH2 9647   4.761   5.044   0.720
 3214TIP3    H1 9648   4.754   5.132   0.760
 3214TIP3    H2 9649   4.850   5.042   0.683
 3215TIP3   OH2 9650   6.506   3.944   2.404
 3215TIP3    H1 9651   6.514   3.910   2.496
 3215TIP3    H2 9652   6.596   3.932   2.373
 3216TIP3   OH2 9653   0.976   5.209   2.774
 3216TIP3    H1 9654   1.003   5.294   2.813
 3216TIP3    H2 9655   0.996   5.224   2.680
 3217TIP3   OH2 9656   0.349   5.388   2.795
 3217TIP3    H1 9657   0.396   5.304   2.812
 3217TIP3    H2 9658   0.305   5.369   2.710
 3218TIP3   OH2 9659   0.407   5.147   2.384
 3218TIP3    H1 9660   0.476   5.132   2.452
 3218TIP3    H2 9661   0.462   5.178   2.309
 3219TIP3   OH2 9662   1.048   5.421   2.944
 3219TIP3    H1 9663   0.961   5.461   2.924
 3219TIP3    H2 9664   1.069   5.463   3.029
 3220TIP3   OH2 9665   0.590   5.156   2.586
 3220TIP3    H1 9666   0.550   5.138   2.673
 3220TIP3    H2 9667   0.646   5.233   2.607
 3221TIP3   OH2 9668   0.769   5.099   2.937
 3221TIP3    H1 9669   0.681   5.126   2.904
 3221TIP3    H2 9670   0.828   5.136   2.868
 3222TIP3   OH2 9671   0.881   5.772   2.805
 3222TIP3    H1 9672   0.799   5.825   2.799
 3222TIP3    H2 9673   0.907   5.766   2.710
 3223TIP3   OH2 9674   0.331   5.626   2.170
 3223TIP3    H1 9675   0.305   5.694   2.235
 3223TIP3    H2 9676   0.412   5.588   2.210
 3224TIP3   OH2 9677   0.579   5.636   3.066
 3224TIP3    H1 9678   0.564   5.730   3.090
 3224TIP3    H2 9679   0.488   5.617   3.032
 3225TIP3   OH2 9680   0.182   5.459   2.014
 3225TIP3    H1 9681   0.233   5.530   2.058
 3225TIP3    H2 9682   0.165   5.497   1.927
 3226TIP3   OH2 9683   0.689   4.684   2.024
 3226TIP3    H1 9684   0.608   4.709   2.074
 3226TIP3    H2 9685   0.705   4.767   1.974
 3227TIP3   OH2 9686   0.816   5.594   3.240
 3227TIP3    H1 9687   0.728   5.607   3.200
 3227TIP3    H2 9688   0.830   5.498   3.229
 3228TIP3   OH2 9689   0.339   4.935   3.282
 3228TIP3    H1 9690   0.427   4.919   3.323
 3228TIP3    H2 9691   0.287   4.861   3.316
 3229TIP3   OH2 9692   0.580   5.374   3.160
 3229TIP3    H1 9693   0.526   5.366   3.241
 3229TIP3    H2 9694   0.559   5.463   3.128
 3230TIP3   OH2 9695   0.122   5.355   2.300
 3230TIP3    H1 9696   0.139   5.412   2.222
 3230TIP3    H2 9697   0.159   5.272   2.265
 3231TIP3   OH2 9698   0.281   5.344   2.530
 3231TIP3    H1 9699   0.215   5.370   2.463
 3231TIP3    H2 9700   0.321   5.267   2.485
 3232TIP3   OH2 9701   0.326   5.578   2.992
 3232TIP3    H1 9702   0.323   5.507   2.923
 3232TIP3    H2 9703   0.238   5.572   3.031
 3233TIP3   OH2 9704   0.465   5.132   2.836
 3233TIP3    H1 9705   0.447   5.138   2.933
 3233TIP3    H2 9706   0.389   5.075   2.810
 3234TIP3   OH2 9707   0.646   5.913   2.780
 3234TIP3    H1 9708   0.687   5.966   2.708
 3234TIP3    H2 9709   0.577   5.865   2.731
 3235TIP3   OH2 9710   0.172   4.972   2.021
 3235TIP3    H1 9711   0.082   5.003   2.005
 3235TIP3    H2 9712   0.218   5.059   2.029
 3236TIP3   OH2 9713   0.279   5.217   2.110
 3236TIP3    H1 9714   0.374   5.236   2.116
 3236TIP3    H2 9715   0.245   5.291   2.055
 3237TIP3   OH2 9716   0.707   5.319   1.928
 3237TIP3    H1 9717   0.648   5.279   1.860
 3237TIP3    H2 9718   0.708   5.411   1.893
 3238TIP3   OH2 9719   0.455   5.776   2.643
 3238TIP3    H1 9720   0.389   5.751   2.709
 3238TIP3    H2 9721   0.472   5.690   2.600
 3239TIP3   OH2 9722   0.359   5.777   1.945
 3239TIP3    H1 9723   0.344   5.721   2.023
 3239TIP3    H2 9724   0.454   5.764   1.929
 3240TIP3   OH2 9725   0.397   5.141   3.100
 3240TIP3    H1 9726   0.424   5.220   3.148
 3240TIP3    H2 9727   0.374   5.079   3.172
 3241TIP3   OH2 9728   0.285   4.915   2.267
 3241TIP3    H1 9729   0.229   4.930   2.188
 3241TIP3    H2 9730   0.313   5.006   2.290
 3242TIP3   OH2 9731   0.163   4.834   2.493
 3242TIP3    H1 9732   0.177   4.921   2.532
 3242TIP3    H2 9733   0.197   4.852   2.402
 3243TIP3   OH2 9734   0.845   5.326   3.165
 3243TIP3    H1 9735   0.746   5.328   3.169
 3243TIP3    H2 9736   0.857   5.282   3.080
 3244TIP3   OH2 9737   0.503   5.517   2.549
 3244TIP3    H1 9738   0.425   5.460   2.564
 3244TIP3    H2 9739   0.573   5.470   2.599
 3245TIP3   OH2 9740   0.489   5.920   3.048
 3245TIP3    H1 9741   0.547   5.928   2.971
 3245TIP3    H2 9742   0.435   6.000   3.040
 3246TIP3   OH2 9743   0.595   5.587   3.516
 3246TIP3    H1 9744   0.675   5.539   3.492
 3246TIP3    H2 9745   0.607   5.672   3.474
 3247TIP3   OH2 9746   0.629   5.867   3.276
 3247TIP3    H1 9747   0.561   5.892   3.210
 3247TIP3    H2 9748   0.710   5.890   3.228
 3248TIP3   OH2 9749   0.452   5.318   3.392
 3248TIP3    H1 9750   0.414   5.389   3.444
 3248TIP3    H2 9751   0.534   5.298   3.442
 3249TIP3   OH2 9752   0.673   5.275   3.554
 3249TIP3    H1 9753   0.694   5.181   3.570
 3249TIP3    H2 9754   0.662   5.312   3.644
 3250TIP3   OH2 9755   0.631   5.776   1.925
 3250TIP3    H1 9756   0.682   5.856   1.909
 3250TIP3    H2 9757   0.674   5.743   2.007
 3251TIP3   OH2 9758   0.745   5.641   2.133
 3251TIP3    H1 9759   0.680   5.605   2.197
 3251TIP3    H2 9760   0.820   5.668   2.191
 3252TIP3   OH2 9761   0.679   5.548   1.785
 3252TIP3    H1 9762   0.590   5.525   1.755
 3252TIP3    H2 9763   0.664   5.633   1.833
 3253TIP3   OH2 9764   0.553   5.223   1.720
 3253TIP3    H1 9765   0.486   5.241   1.653
 3253TIP3    H2 9766   0.550   5.125   1.719
 3254TIP3   OH2 9767   0.553   5.506   2.279
 3254TIP3    H1 9768   0.563   5.410   2.263
 3254TIP3    H2 9769   0.542   5.510   2.376
 3255TIP3   OH2 9770   0.851   5.940   3.125
 3255TIP3    H1 9771   0.907   5.871   3.085
 3255TIP3    H2 9772   0.805   5.981   3.049
 3256TIP3   OH2 9773   1.033   5.722   3.137
 3256TIP3    H1 9774   0.953   5.683   3.180
 3256TIP3    H2 9775   1.101   5.656   3.165
 3257TIP3   OH2 9776   0.525   4.949   1.690
 3257TIP3    H1 9777   0.579   4.924   1.768
 3257TIP3    H2 9778   0.435   4.919   1.719
 3258TIP3   OH2 9779   0.567   5.230   2.168
 3258TIP3    H1 9780   0.607   5.141   2.181
 3258TIP3    H2 9781   0.619   5.260   2.091
 3259TIP3   OH2 9782   0.716   5.385   2.670
 3259TIP3    H1 9783   0.801   5.409   2.628
 3259TIP3    H2 9784   0.732   5.423   2.759
 3260TIP3   OH2 9785   0.793   5.530   2.899
 3260TIP3    H1 9786   0.719   5.561   2.955
 3260TIP3    H2 9787   0.825   5.616   2.864
 3261TIP3   OH2 9788   1.234   5.138   3.450
 3261TIP3    H1 9789   1.300   5.077   3.410
 3261TIP3    H2 9790   1.202   5.187   3.371
 3262TIP3   OH2 9791   0.670   4.977   2.209
 3262TIP3    H1 9792   0.714   4.958   2.295
 3262TIP3    H2 9793   0.610   4.900   2.204
 3263TIP3   OH2 9794   1.101   5.264   3.250
 3263TIP3    H1 9795   1.017   5.311   3.265
 3263TIP3    H2 9796   1.068   5.188   3.198
 3264TIP3   OH2 9797   0.743   4.897   1.861
 3264TIP3    H1 9798   0.782   4.834   1.796
 3264TIP3    H2 9799   0.807   4.970   1.859
 3265TIP3   OH2 9800   1.007   5.028   3.140
 3265TIP3    H1 9801   0.920   5.018   3.098
 3265TIP3    H2 9802   1.043   4.937   3.132
 3266TIP3   OH2 9803   0.260   4.959   2.766
 3266TIP3    H1 9804   0.186   4.896   2.764
 3266TIP3    H2 9805   0.330   4.909   2.720
 3267TIP3   OH2 9806   0.728   4.825   2.661
 3267TIP3    H1 9807   0.765   4.879   2.588
 3267TIP3    H2 9808   0.633   4.848   2.655
 3268TIP3   OH2 9809   0.828   4.919   2.426
 3268TIP3    H1 9810   0.903   4.867   2.392
 3268TIP3    H2 9811   0.863   5.010   2.413
 3269TIP3   OH2 9812   0.452   4.825   2.626
 3269TIP3    H1 9813   0.438   4.786   2.539
 3269TIP3    H2 9814   0.438   4.747   2.686
 3270TIP3   OH2 9815   0.498   4.759   2.207
 3270TIP3    H1 9816   0.417   4.811   2.226
 3270TIP3    H2 9817   0.474   4.673   2.247
 3271TIP3   OH2 9818   0.750   5.007   3.574
 3271TIP3    H1 9819   0.764   4.973   3.665
 3271TIP3    H2 9820   0.840   5.002   3.536
 3272TIP3   OH2 9821   1.962   5.910   1.830
 3272TIP3    H1 9822   1.933   6.001   1.834
 3272TIP3    H2 9823   1.886   5.865   1.789
 3273TIP3   OH2 9824   1.967   5.929   2.223
 3273TIP3    H1 9825   2.006   5.902   2.309
 3273TIP3    H2 9826   1.921   5.848   2.197
 3274TIP3   OH2 9827   1.246   5.800   2.574
 3274TIP3    H1 9828   1.290   5.738   2.634
 3274TIP3    H2 9829   1.291   5.884   2.596
 3275TIP3   OH2 9830   0.929   5.416   2.067
 3275TIP3    H1 9831   0.892   5.501   2.095
 3275TIP3    H2 9832   0.851   5.374   2.027
 3276TIP3   OH2 9833   0.984   5.713   2.246
 3276TIP3    H1 9834   1.025   5.635   2.289
 3276TIP3    H2 9835   1.062   5.774   2.251
 3277TIP3   OH2 9836   1.753   6.113   2.213
 3277TIP3    H1 9837   1.836   6.062   2.218
 3277TIP3    H2 9838   1.775   6.195   2.261
 3278TIP3   OH2 9839   2.770   5.465   2.257
 3278TIP3    H1 9840   2.800   5.550   2.294
 3278TIP3    H2 9841   2.797   5.474   2.164
 3279TIP3   OH2 9842   2.161   5.644   2.284
 3279TIP3    H1 9843   2.205   5.559   2.305
 3279TIP3    H2 9844   2.126   5.624   2.195
 3280TIP3   OH2 9845   1.511   5.307   2.250
 3280TIP3    H1 9846   1.490   5.379   2.188
 3280TIP3    H2 9847   1.458   5.234   2.211
 3281TIP3   OH2 9848   2.202   5.399   1.870
 3281TIP3    H1 9849   2.272   5.390   1.939
 3281TIP3    H2 9850   2.255   5.434   1.795
 3282TIP3   OH2 9851   1.127   5.506   2.364
 3282TIP3    H1 9852   1.211   5.495   2.413
 3282TIP3    H2 9853   1.148   5.457   2.282
 3283TIP3   OH2 9854   1.573   5.706   2.135
 3283TIP3    H1 9855   1.667   5.683   2.152
 3283TIP3    H2 9856   1.534   5.620   2.107
 3284TIP3   OH2 9857   2.842   5.678   2.427
 3284TIP3    H1 9858   2.757   5.719   2.401
 3284TIP3    H2 9859   2.844   5.699   2.521
 3285TIP3   OH2 9860   1.493   5.291   2.694
 3285TIP3    H1 9861   1.437   5.328   2.623
 3285TIP3    H2 9862   1.437   5.309   2.772
 3286TIP3   OH2 9863   1.603   6.029   2.428
 3286TIP3    H1 9864   1.512   6.062   2.442
 3286TIP3    H2 9865   1.629   6.066   2.341
 3287TIP3   OH2 9866   2.388   5.415   2.066
 3287TIP3    H1 9867   2.364   5.382   2.153
 3287TIP3    H2 9868   2.443   5.493   2.090
 3288TIP3   OH2 9869   1.370   5.402   2.469
 3288TIP3    H1 9870   1.430   5.475   2.496
 3288TIP3    H2 9871   1.422   5.365   2.394
 3289TIP3   OH2 9872   2.563   5.366   2.426
 3289TIP3    H1 9873   2.477   5.388   2.388
 3289TIP3    H2 9874   2.625   5.397   2.356
 3290TIP3   OH2 9875   1.838   4.998   2.411
 3290TIP3    H1 9876   1.821   4.905   2.434
 3290TIP3    H2 9877   1.764   5.042   2.458
 3291TIP3   OH2 9878   1.793   5.762   1.673
 3291TIP3    H1 9879   1.706   5.807   1.659
 3291TIP3    H2 9880   1.840   5.797   1.596
 3292TIP3   OH2 9881   1.734   5.572   1.367
 3292TIP3    H1 9882   1.791   5.621   1.428
 3292TIP3    H2 9883   1.799   5.515   1.322
 3293TIP3   OH2 9884   2.675   6.031   2.292
 3293TIP3    H1 9885   2.591   6.082   2.284
 3293TIP3    H2 9886   2.701   6.023   2.197
 3294TIP3   OH2 9887   2.139   5.852   1.629
 3294TIP3    H1 9888   2.081   5.872   1.706
 3294TIP3    H2 9889   2.222   5.828   1.675
 3295TIP3   OH2 9890   2.351   5.886   2.545
 3295TIP3    H1 9891   2.343   5.977   2.579
 3295TIP3    H2 9892   2.264   5.879   2.499
 3296TIP3   OH2 9893   1.349   5.852   2.046
 3296TIP3    H1 9894   1.308   5.796   1.977
 3296TIP3    H2 9895   1.434   5.805   2.061
 3297TIP3   OH2 9896   1.485   5.786   2.379
 3297TIP3    H1 9897   1.513   5.757   2.289
 3297TIP3    H2 9898   1.539   5.866   2.392
 3298TIP3   OH2 9899   1.976   5.707   1.462
 3298TIP3    H1 9900   2.031   5.771   1.512
 3298TIP3    H2 9901   2.002   5.732   1.370
 3299TIP3   OH2 9902   1.383   5.879   2.831
 3299TIP3    H1 9903   1.396   5.972   2.858
 3299TIP3    H2 9904   1.290   5.866   2.861
 3300TIP3   OH2 9905   2.480   4.947   1.513
 3300TIP3    H1 9906   2.399   4.974   1.561
 3300TIP3    H2 9907   2.497   5.028   1.459
 3301TIP3   OH2 9908   1.214   5.684   1.858
 3301TIP3    H1 9909   1.134   5.718   1.813
 3301TIP3    H2 9910   1.187   5.594   1.881
 3302TIP3   OH2 9911   1.068   6.016   2.705
 3302TIP3    H1 9912   0.979   6.004   2.668
 3302TIP3    H2 9913   1.077   5.941   2.766
 3303TIP3   OH2 9914   2.613   5.852   2.727
 3303TIP3    H1 9915   2.523   5.860   2.693
 3303TIP3    H2 9916   2.630   5.756   2.716
 3304TIP3   OH2 9917   1.607   5.084   2.546
 3304TIP3    H1 9918   1.520   5.056   2.511
 3304TIP3    H2 9919   1.578   5.163   2.598
 3305TIP3   OH2 9920   2.148   5.196   2.735
 3305TIP3    H1 9921   2.219   5.170   2.797
 3305TIP3    H2 9922   2.067   5.178   2.787
 3306TIP3   OH2 9923   2.379   5.634   2.657
 3306TIP3    H1 9924   2.325   5.628   2.739
 3306TIP3    H2 9925   2.351   5.719   2.618
 3307TIP3   OH2 9926   2.055   5.765   1.216
 3307TIP3    H1 9927   2.024   5.726   1.132
 3307TIP3    H2 9928   2.146   5.788   1.190
 3308TIP3   OH2 9929   1.752   5.127   1.511
 3308TIP3    H1 9930   1.716   5.125   1.602
 3308TIP3    H2 9931   1.710   5.046   1.476
 3309TIP3   OH2 9932   1.548   5.593   2.557
 3309TIP3    H1 9933   1.495   5.608   2.638
 3309TIP3    H2 9934   1.520   5.670   2.501
 3310TIP3   OH2 9935   1.426   5.486   2.067
 3310TIP3    H1 9936   1.334   5.463   2.090
 3310TIP3    H2 9937   1.433   5.443   1.979
 3311TIP3   OH2 9938   1.917   5.559   1.808
 3311TIP3    H1 9939   1.872   5.632   1.760
 3311TIP3    H2 9940   1.975   5.523   1.738
 3312TIP3   OH2 9941   2.106   5.829   2.869
 3312TIP3    H1 9942   2.084   5.760   2.935
 3312TIP3    H2 9943   2.196   5.853   2.900
 3313TIP3   OH2 9944   2.072   5.590   2.033
 3313TIP3    H1 9945   2.003   5.614   1.967
 3313TIP3    H2 9946   2.111   5.514   1.985
 3314TIP3   OH2 9947   1.371   5.610   2.760
 3314TIP3    H1 9948   1.378   5.686   2.819
 3314TIP3    H2 9949   1.354   5.535   2.821
 3315TIP3   OH2 9950   1.414   5.109   1.475
 3315TIP3    H1 9951   1.401   5.110   1.572
 3315TIP3    H2 9952   1.338   5.163   1.447
 3316TIP3   OH2 9953   0.955   5.142   2.349
 3316TIP3    H1 9954   1.026   5.180   2.405
 3316TIP3    H2 9955   1.000   5.123   2.266
 3317TIP3   OH2 9956   0.903   5.125   1.861
 3317TIP3    H1 9957   0.949   5.162   1.783
 3317TIP3    H2 9958   0.845   5.200   1.883
 3318TIP3   OH2 9959   2.081   5.835   2.453
 3318TIP3    H1 9960   2.113   5.765   2.391
 3318TIP3    H2 9961   2.048   5.779   2.526
 3319TIP3   OH2 9962   1.771   5.298   2.127
 3319TIP3    H1 9963   1.692   5.303   2.184
 3319TIP3    H2 9964   1.843   5.288   2.192
 3320TIP3   OH2 9965   1.189   5.371   2.132
 3320TIP3    H1 9966   1.095   5.377   2.101
 3320TIP3    H2 9967   1.212   5.279   2.113
 3321TIP3   OH2 9968   1.442   5.356   1.831
 3321TIP3    H1 9969   1.536   5.374   1.812
 3321TIP3    H2 9970   1.397   5.378   1.746
 3322TIP3   OH2 9971   2.247   5.386   2.335
 3322TIP3    H1 9972   2.221   5.400   2.429
 3322TIP3    H2 9973   2.174   5.329   2.306
 3323TIP3   OH2 9974   1.308   5.396   1.600
 3323TIP3    H1 9975   1.241   5.352   1.545
 3323TIP3    H2 9976   1.364   5.439   1.531
 3324TIP3   OH2 9977   1.366   6.119   2.970
 3324TIP3    H1 9978   1.447   6.143   3.023
 3324TIP3    H2 9979   1.332   6.049   3.029
 3325TIP3   OH2 9980   1.831   5.641   2.228
 3325TIP3    H1 9981   1.906   5.598   2.186
 3325TIP3    H2 9982   1.826   5.597   2.315
 3326TIP3   OH2 9983   1.342   5.123   2.121
 3326TIP3    H1 9984   1.305   5.050   2.176
 3326TIP3    H2 9985   1.378   5.073   2.047
 3327TIP3   OH2 9986   1.811   5.549   2.503
 3327TIP3    H1 9987   1.719   5.574   2.526
 3327TIP3    H2 9988   1.864   5.607   2.561
 3328TIP3   OH2 9989   1.576   5.907   1.610
 3328TIP3    H1 9990   1.490   5.860   1.612
 3328TIP3    H2 9991   1.554   6.000   1.624
 3329TIP3   OH2 9992   2.431   6.159   2.263
 3329TIP3    H1 9993   2.471   6.213   2.192
 3329TIP3    H2 9994   2.358   6.114   2.216
 3330TIP3   OH2 9995   2.002   5.228   1.490
 3330TIP3    H1 9996   1.906   5.206   1.498
 3330TIP3    H2 9997   2.006   5.323   1.514
 3331TIP3   OH2 9998   2.068   5.483   1.588
 3331TIP3    H1 9999   2.164   5.495   1.597
 3331TIP3    H210000   2.042   5.563   1.538
 3332TIP3   OH210001   1.204   5.866   2.284
 3332TIP3    H110002   1.263   5.863   2.206
 3332TIP3    H210003   1.265   5.842   2.357
 3333TIP3   OH210004   1.128   5.834   2.911
 3333TIP3    H110005   1.124   5.809   3.005
 3333TIP3    H210006   1.047   5.789   2.879
 3334TIP3   OH210007   1.860   5.940   2.927
 3334TIP3    H110008   1.797   5.878   2.886
 3334TIP3    H210009   1.946   5.907   2.892
 3335TIP3   OH210010   2.502   5.575   1.421
 3335TIP3    H110011   2.443   5.534   1.353
 3335TIP3    H210012   2.504   5.666   1.383
 3336TIP3   OH210013   2.227   6.030   2.126
 3336TIP3    H110014   2.135   6.009   2.151
 3336TIP3    H210015   2.254   5.944   2.088
 3337TIP3   OH210016   0.899   5.549   1.619
 3337TIP3    H110017   0.944   5.633   1.643
 3337TIP3    H210018   0.823   5.552   1.681
 3338TIP3   OH210019   1.325   5.368   2.903
 3338TIP3    H110020   1.227   5.374   2.911
 3338TIP3    H210021   1.349   5.322   2.985
 3339TIP3   OH210022   2.158   6.040   1.430
 3339TIP3    H110023   2.144   5.974   1.501
 3339TIP3    H210024   2.254   6.027   1.413
 3340TIP3   OH210025   1.001   5.788   1.704
 3340TIP3    H110026   0.927   5.849   1.724
 3340TIP3    H210027   1.060   5.846   1.651
 3341TIP3   OH210028   2.179   5.435   2.598
 3341TIP3    H110029   2.258   5.474   2.639
 3341TIP3    H210030   2.167   5.353   2.651
 3342TIP3   OH210031   2.059   5.176   1.772
 3342TIP3    H110032   2.044   5.198   1.678
 3342TIP3    H210033   2.102   5.259   1.805
 3343TIP3   OH210034   1.724   5.372   1.865
 3343TIP3    H110035   1.790   5.442   1.846
 3343TIP3    H210036   1.738   5.359   1.961
 3344TIP3   OH210037   2.011   5.673   2.658
 3344TIP3    H110038   2.050   5.721   2.734
 3344TIP3    H210039   2.059   5.588   2.660
 3345TIP3   OH210040   1.874   5.077   1.956
 3345TIP3    H110041   1.862   5.157   2.010
 3345TIP3    H210042   1.943   5.108   1.893
 3346TIP3   OH210043   1.394   5.096   1.750
 3346TIP3    H110044   1.388   5.184   1.791
 3346TIP3    H210045   1.491   5.082   1.757
 3347TIP3   OH210046   2.642   5.583   2.647
 3347TIP3    H110047   2.544   5.589   2.658
 3347TIP3    H210048   2.645   5.523   2.571
 3348TIP3   OH210049   2.297   5.773   2.035
 3348TIP3    H110050   2.220   5.714   2.045
 3348TIP3    H210051   2.366   5.725   2.086
 3349TIP3   OH210052   0.946   5.280   1.635
 3349TIP3    H110053   0.955   5.378   1.637
 3349TIP3    H210054   0.858   5.271   1.597
 3350TIP3   OH210055   1.345   5.003   2.503
 3350TIP3    H110056   1.315   4.968   2.416
 3350TIP3    H210057   1.333   4.925   2.560
 3351TIP3   OH210058   1.124   6.113   3.156
 3351TIP3    H110059   1.178   6.039   3.189
 3351TIP3    H210060   1.068   6.069   3.090
 3352TIP3   OH210061   1.099   5.759   1.361
 3352TIP3    H110062   1.142   5.813   1.430
 3352TIP3    H210063   1.170   5.753   1.294
 3353TIP3   OH210064   1.734   6.185   2.916
 3353TIP3    H110065   1.814   6.234   2.896
 3353TIP3    H210066   1.767   6.092   2.914
 3354TIP3   OH210067   2.267   6.181   2.544
 3354TIP3    H110068   2.319   6.197   2.464
 3354TIP3    H210069   2.237   6.272   2.567
 3355TIP3   OH210070   1.333   5.908   3.153
 3355TIP3    H110071   1.402   5.842   3.137
 3355TIP3    H210072   1.355   5.936   3.245
 3356TIP3   OH210073   1.372   5.717   1.611
 3356TIP3    H110074   1.341   5.660   1.684
 3356TIP3    H210075   1.406   5.651   1.547
 3357TIP3   OH210076   1.643   5.788   2.807
 3357TIP3    H110077   1.552   5.824   2.800
 3357TIP3    H210078   1.686   5.833   2.730
 3358TIP3   OH210079   1.470   5.528   1.427
 3358TIP3    H110080   1.446   5.526   1.332
 3358TIP3    H210081   1.567   5.534   1.418
 3359TIP3   OH210082   2.168   6.198   2.920
 3359TIP3    H110083   2.258   6.165   2.929
 3359TIP3    H210084   2.125   6.150   2.993
 3360TIP3   OH210085   2.290   5.814   1.091
 3360TIP3    H110086   2.270   5.781   1.001
 3360TIP3    H210087   2.284   5.910   1.075
 3361TIP3   OH210088   1.756   5.581   2.931
 3361TIP3    H110089   1.755   5.505   2.869
 3361TIP3    H210090   1.712   5.651   2.877
 3362TIP3   OH210091   1.754   5.373   2.738
 3362TIP3    H110092   1.781   5.411   2.653
 3362TIP3    H210093   1.660   5.350   2.721
 3363TIP3   OH210094   1.773   5.908   2.610
 3363TIP3    H110095   1.861   5.907   2.572
 3363TIP3    H210096   1.720   5.957   2.543
 3364TIP3   OH210097   2.357   5.867   2.988
 3364TIP3    H110098   2.399   5.783   3.011
 3364TIP3    H210099   2.427   5.913   2.940
 3365TIP3   OH210100   2.424   6.111   2.753
 3365TIP3    H110101   2.352   6.141   2.694
 3365TIP3    H210102   2.503   6.141   2.703
 3366TIP3   OH210103   1.628   5.678   3.168
 3366TIP3    H110104   1.564   5.607   3.188
 3366TIP3    H210105   1.660   5.653   3.079
 3367TIP3   OH210106   1.882   5.131   2.819
 3367TIP3    H110107   1.833   5.212   2.792
 3367TIP3    H210108   1.814   5.062   2.807
 3368TIP3   OH210109   2.012   5.626   3.025
 3368TIP3    H110110   1.990   5.611   3.119
 3368TIP3    H210111   1.923   5.607   2.987
 3369TIP3   OH210112   2.248   5.572   2.884
 3369TIP3    H110113   2.173   5.574   2.946
 3369TIP3    H210114   2.323   5.548   2.941
 3370TIP3   OH210115   2.484   5.532   3.029
 3370TIP3    H110116   2.497   5.436   3.039
 3370TIP3    H210117   2.476   5.562   3.122
 3371TIP3   OH210118   1.467   5.458   3.228
 3371TIP3    H110119   1.468   5.365   3.198
 3371TIP3    H210120   1.507   5.448   3.317
 3372TIP3   OH210121   1.970   5.139   3.078
 3372TIP3    H110122   2.037   5.068   3.069
 3372TIP3    H210123   1.932   5.139   2.988
 3373TIP3   OH210124   2.043   5.353   3.231
 3373TIP3    H110125   2.020   5.281   3.168
 3373TIP3    H210126   1.964   5.411   3.224
 3374TIP3   OH210127   2.429   6.034   1.407
 3374TIP3    H110128   2.488   6.106   1.382
 3374TIP3    H210129   2.472   6.001   1.489
 3375TIP3   OH210130   2.543   5.903   1.619
 3375TIP3    H110131   2.478   5.863   1.681
 3375TIP3    H210132   2.617   5.927   1.678
 3376TIP3   OH210133   2.490   5.802   1.277
 3376TIP3    H110134   2.416   5.794   1.212
 3376TIP3    H210135   2.465   5.885   1.323
 3377TIP3   OH210136   2.351   5.481   1.215
 3377TIP3    H110137   2.303   5.512   1.137
 3377TIP3    H210138   2.333   5.385   1.209
 3378TIP3   OH210139   2.359   5.763   1.767
 3378TIP3    H110140   2.365   5.667   1.755
 3378TIP3    H210141   2.341   5.771   1.864
 3379TIP3   OH210142   0.979   5.754   2.551
 3379TIP3    H110143   0.954   5.804   2.472
 3379TIP3    H210144   1.077   5.769   2.552
 3380TIP3   OH210145   2.647   6.199   2.611
 3380TIP3    H110146   2.701   6.129   2.568
 3380TIP3    H210147   2.599   6.240   2.536
 3381TIP3   OH210148   2.832   5.980   2.627
 3381TIP3    H110149   2.751   5.940   2.666
 3381TIP3    H210150   2.899   5.914   2.656
 3382TIP3   OH210151   2.296   5.214   1.191
 3382TIP3    H110152   2.363   5.181   1.254
 3382TIP3    H210153   2.217   5.160   1.212
 3383TIP3   OH210154   2.357   5.485   1.653
 3383TIP3    H110155   2.400   5.396   1.665
 3383TIP3    H210156   2.411   5.518   1.578
 3384TIP3   OH210157   2.511   5.642   2.158
 3384TIP3    H110158   2.596   5.666   2.114
 3384TIP3    H210159   2.529   5.681   2.245
 3385TIP3   OH210160   2.586   5.790   2.385
 3385TIP3    H110161   2.508   5.819   2.436
 3385TIP3    H210162   2.619   5.875   2.351
 3386TIP3   OH210163   1.202   5.515   3.190
 3386TIP3    H110164   1.300   5.511   3.201
 3386TIP3    H210165   1.178   5.427   3.224
 3387TIP3   OH210166   3.036   5.399   2.935
 3387TIP3    H110167   3.099   5.335   2.895
 3387TIP3    H210168   3.002   5.445   2.856
 3388TIP3   OH210169   2.463   5.233   1.696
 3388TIP3    H110170   2.509   5.214   1.781
 3388TIP3    H210171   2.400   5.158   1.693
 3389TIP3   OH210172   1.162   5.215   2.518
 3389TIP3    H110173   1.224   5.140   2.523
 3389TIP3    H210174   1.224   5.289   2.505
 3390TIP3   OH210175   0.954   5.485   2.584
 3390TIP3    H110176   1.012   5.469   2.508
 3390TIP3    H210177   0.954   5.583   2.583
 3391TIP3   OH210178   2.897   5.520   2.733
 3391TIP3    H110179   2.811   5.564   2.746
 3391TIP3    H210180   2.867   5.441   2.683
 3392TIP3   OH210181   2.528   5.153   1.338
 3392TIP3    H110182   2.571   5.089   1.276
 3392TIP3    H210183   2.594   5.226   1.340
 3393TIP3   OH210184   0.949   4.981   2.088
 3393TIP3    H110185   0.859   4.975   2.125
 3393TIP3    H210186   0.937   5.043   2.013
 3394TIP3   OH210187   1.166   5.056   2.903
 3394TIP3    H110188   1.117   5.064   2.986
 3394TIP3    H210189   1.105   5.103   2.842
 3395TIP3   OH210190   2.804   5.278   2.629
 3395TIP3    H110191   2.716   5.258   2.592
 3395TIP3    H210192   2.847   5.189   2.622
 3396TIP3   OH210193   2.009   5.201   2.255
 3396TIP3    H110194   1.971   5.124   2.302
 3396TIP3    H210195   2.084   5.161   2.207
 3397TIP3   OH210196   2.518   5.088   2.149
 3397TIP3    H110197   2.556   5.136   2.072
 3397TIP3    H210198   2.424   5.112   2.143
 3398TIP3   OH210199   2.622   5.177   1.914
 3398TIP3    H110200   2.697   5.123   1.881
 3398TIP3    H210201   2.659   5.267   1.900
 3399TIP3   OH210202   1.255   4.906   2.260
 3399TIP3    H110203   1.162   4.872   2.266
 3399TIP3    H210204   1.303   4.821   2.255
 3400TIP3   OH210205   1.058   4.786   1.918
 3400TIP3    H110206   1.080   4.844   1.843
 3400TIP3    H210207   1.027   4.851   1.985
 3401TIP3   OH210208   1.711   4.938   2.147
 3401TIP3    H110209   1.761   4.983   2.077
 3401TIP3    H210210   1.748   4.978   2.227
 3402TIP3   OH210211   2.233   5.090   2.127
 3402TIP3    H110212   2.248   5.045   2.043
 3402TIP3    H210213   2.230   5.013   2.190
 3403TIP3   OH210214   2.279   5.023   1.693
 3403TIP3    H110215   2.197   5.068   1.721
 3403TIP3    H210216   2.265   4.934   1.732
 3404TIP3   OH210217   1.169   4.940   1.668
 3404TIP3    H110218   1.215   4.876   1.611
 3404TIP3    H210219   1.244   4.992   1.704
 3405TIP3   OH210220   1.669   5.122   1.772
 3405TIP3    H110221   1.731   5.078   1.833
 3405TIP3    H210222   1.686   5.216   1.797
 3406TIP3   OH210223   1.463   5.185   3.152
 3406TIP3    H110224   1.428   5.114   3.209
 3406TIP3    H210225   1.557   5.186   3.181
 3407TIP3   OH210226   1.714   5.187   3.272
 3407TIP3    H110227   1.800   5.163   3.233
 3407TIP3    H210228   1.703   5.117   3.339
 3408TIP3   OH210229   2.545   5.261   3.056
 3408TIP3    H110230   2.560   5.230   3.149
 3408TIP3    H210231   2.636   5.253   3.019
 3409TIP3   OH210232   3.761   6.174   1.328
 3409TIP3    H110233   3.766   6.269   1.304
 3409TIP3    H210234   3.682   6.146   1.279
 3410TIP3   OH210235   3.767   6.194   1.708
 3410TIP3    H110236   3.799   6.149   1.788
 3410TIP3    H210237   3.723   6.122   1.660
 3411TIP3   OH210238   3.039   6.055   2.065
 3411TIP3    H110239   3.087   5.992   2.121
 3411TIP3    H210240   3.089   6.137   2.077
 3412TIP3   OH210241   2.725   5.674   1.555
 3412TIP3    H110242   2.685   5.758   1.581
 3412TIP3    H210243   2.649   5.630   1.513
 3413TIP3   OH210244   2.780   5.969   1.737
 3413TIP3    H110245   2.821   5.890   1.778
 3413TIP3    H210246   2.859   6.028   1.734
 3414TIP3   OH210247   3.541   6.365   1.705
 3414TIP3    H110248   3.630   6.323   1.705
 3414TIP3    H210249   3.558   6.455   1.738
 3415TIP3   OH210250   4.565   5.722   1.744
 3415TIP3    H110251   4.595   5.808   1.781
 3415TIP3    H210252   4.591   5.732   1.651
 3416TIP3   OH210253   3.957   5.901   1.771
 3416TIP3    H110254   3.999   5.814   1.790
 3416TIP3    H210255   3.921   5.884   1.682
 3417TIP3   OH210256   3.308   5.563   1.736
 3417TIP3    H110257   3.286   5.635   1.673
 3417TIP3    H210258   3.256   5.489   1.698
 3418TIP3   OH210259   4.000   5.657   1.359
 3418TIP3    H110260   4.072   5.646   1.426
 3418TIP3    H210261   4.051   5.693   1.284
 3419TIP3   OH210262   2.924   5.762   1.852
 3419TIP3    H110263   3.008   5.750   1.899
 3419TIP3    H210264   2.944   5.712   1.769
 3420TIP3   OH210265   3.368   5.962   1.625
 3420TIP3    H110266   3.462   5.939   1.641
 3420TIP3    H210267   3.330   5.877   1.595
 3421TIP3   OH210268   4.640   5.934   1.913
 3421TIP3    H110269   4.552   5.973   1.893
 3421TIP3    H210270   4.650   5.960   2.006
 3422TIP3   OH210271   3.290   5.548   2.181
 3422TIP3    H110272   3.234   5.584   2.110
 3422TIP3    H210273   3.233   5.566   2.259
 3423TIP3   OH210274   3.405   6.268   1.918
 3423TIP3    H110275   3.319   6.312   1.934
 3423TIP3    H210276   3.435   6.307   1.833
 3424TIP3   OH210277   4.189   5.666   1.555
 3424TIP3    H110278   4.156   5.639   1.642
 3424TIP3    H210279   4.241   5.746   1.577
 3425TIP3   OH210280   3.167   5.657   1.955
 3425TIP3    H110281   3.227   5.730   1.982
 3425TIP3    H210282   3.218   5.620   1.880
 3426TIP3   OH210283   4.356   5.623   1.910
 3426TIP3    H110284   4.270   5.646   1.871
 3426TIP3    H210285   4.419   5.655   1.841
 3427TIP3   OH210286   3.634   5.252   1.899
 3427TIP3    H110287   3.618   5.158   1.923
 3427TIP3    H210288   3.558   5.294   1.944
 3428TIP3   OH210289   3.593   6.017   1.154
 3428TIP3    H110290   3.501   6.051   1.151
 3428TIP3    H210291   3.635   6.090   1.102
 3429TIP3   OH210292   3.529   5.821   0.861
 3429TIP3    H110293   3.584   5.875   0.922
 3429TIP3    H210294   3.598   5.773   0.811
 3430TIP3   OH210295   4.458   6.281   1.770
 3430TIP3    H110296   4.381   6.339   1.761
 3430TIP3    H210297   4.493   6.281   1.678
 3431TIP3   OH210298   3.934   6.102   1.121
 3431TIP3    H110299   3.876   6.131   1.194
 3431TIP3    H210300   4.018   6.087   1.168
 3432TIP3   OH210301   4.148   6.142   2.031
 3432TIP3    H110302   4.144   6.237   2.051
 3432TIP3    H210303   4.061   6.131   1.989
 3433TIP3   OH210304   3.143   6.108   1.535
 3433TIP3    H110305   3.102   6.053   1.465
 3433TIP3    H210306   3.228   6.062   1.549
 3434TIP3   OH210307   3.272   6.038   1.866
 3434TIP3    H110308   3.303   6.010   1.777
 3434TIP3    H210309   3.330   6.116   1.881
 3435TIP3   OH210310   3.797   5.947   0.932
 3435TIP3    H110311   3.829   6.017   0.993
 3435TIP3    H210312   3.814   5.989   0.845
 3436TIP3   OH210313   3.178   6.135   2.320
 3436TIP3    H110314   3.191   6.228   2.346
 3436TIP3    H210315   3.085   6.122   2.347
 3437TIP3   OH210316   4.283   5.212   1.009
 3437TIP3    H110317   4.202   5.235   1.058
 3437TIP3    H210318   4.290   5.288   0.947
 3438TIP3   OH210319   3.007   5.943   1.350
 3438TIP3    H110320   2.929   5.976   1.301
 3438TIP3    H210321   2.984   5.850   1.362
 3439TIP3   OH210322   2.864   6.276   2.191
 3439TIP3    H110323   2.776   6.259   2.152
 3439TIP3    H210324   2.875   6.199   2.250
 3440TIP3   OH210325   4.406   6.106   2.212
 3440TIP3    H110326   4.319   6.116   2.171
 3440TIP3    H210327   4.423   6.011   2.200
 3441TIP3   OH210328   3.402   5.341   2.032
 3441TIP3    H110329   3.316   5.311   1.996
 3441TIP3    H210330   3.372   5.418   2.084
 3442TIP3   OH210331   3.944   5.457   2.222
 3442TIP3    H110332   4.015   5.426   2.282
 3442TIP3    H210333   3.863   5.433   2.271
 3443TIP3   OH210334   4.171   5.886   2.141
 3443TIP3    H110335   4.118   5.890   2.223
 3443TIP3    H210336   4.151   5.972   2.099
 3444TIP3   OH210337   3.832   6.092   0.695
 3444TIP3    H110338   3.758   6.150   0.671
 3444TIP3    H210339   3.882   6.153   0.755
 3445TIP3   OH210340   3.552   5.381   1.002
 3445TIP3    H110341   3.513   5.379   1.091
 3445TIP3    H210342   3.507   5.304   0.962
 3446TIP3   OH210343   3.345   5.848   2.043
 3446TIP3    H110344   3.294   5.863   2.125
 3446TIP3    H210345   3.315   5.924   1.987
 3447TIP3   OH210346   3.222   5.743   1.554
 3447TIP3    H110347   3.129   5.719   1.576
 3447TIP3    H210348   3.229   5.701   1.465
 3448TIP3   OH210349   3.713   5.817   1.296
 3448TIP3    H110350   3.671   5.891   1.246
 3448TIP3    H210351   3.772   5.780   1.226
 3449TIP3   OH210352   3.897   6.122   2.386
 3449TIP3    H110353   3.865   6.039   2.429
 3449TIP3    H210354   3.994   6.108   2.396
 3450TIP3   OH210355   3.869   5.850   1.520
 3450TIP3    H110356   3.800   5.875   1.454
 3450TIP3    H210357   3.906   5.773   1.471
 3451TIP3   OH210358   3.168   5.865   2.246
 3451TIP3    H110359   3.174   5.941   2.306
 3451TIP3    H210360   3.150   5.790   2.306
 3452TIP3   OH210361   3.208   5.368   0.961
 3452TIP3    H110362   3.195   5.368   1.058
 3452TIP3    H210363   3.132   5.422   0.933
 3453TIP3   OH210364   2.753   5.398   1.837
 3453TIP3    H110365   2.824   5.436   1.892
 3453TIP3    H210366   2.797   5.378   1.754
 3454TIP3   OH210367   2.695   5.378   1.350
 3454TIP3    H110368   2.740   5.415   1.271
 3454TIP3    H210369   2.637   5.454   1.371
 3455TIP3   OH210370   3.884   6.092   1.942
 3455TIP3    H110371   3.915   6.022   1.879
 3455TIP3    H210372   3.849   6.034   2.014
 3456TIP3   OH210373   3.569   5.557   1.616
 3456TIP3    H110374   3.488   5.560   1.671
 3456TIP3    H210375   3.639   5.546   1.682
 3457TIP3   OH210376   2.984   5.627   1.620
 3457TIP3    H110377   2.891   5.632   1.588
 3457TIP3    H210378   3.008   5.534   1.600
 3458TIP3   OH210379   3.238   5.614   1.317
 3458TIP3    H110380   3.332   5.630   1.295
 3458TIP3    H210381   3.193   5.635   1.231
 3459TIP3   OH210382   4.037   5.643   1.825
 3459TIP3    H110383   4.008   5.658   1.918
 3459TIP3    H210384   3.967   5.582   1.794
 3460TIP3   OH210385   3.104   5.653   1.086
 3460TIP3    H110386   3.038   5.608   1.030
 3460TIP3    H210387   3.159   5.697   1.017
 3461TIP3   OH210388   3.172   6.377   2.457
 3461TIP3    H110389   3.258   6.393   2.503
 3461TIP3    H210390   3.133   6.311   2.519
 3462TIP3   OH210391   3.625   5.895   1.715
 3462TIP3    H110392   3.699   5.852   1.671
 3462TIP3    H210393   3.621   5.848   1.801
 3463TIP3   OH210394   3.139   5.377   1.610
 3463TIP3    H110395   3.101   5.304   1.664
 3463TIP3    H210396   3.179   5.327   1.538
 3464TIP3   OH210397   3.605   5.799   1.985
 3464TIP3    H110398   3.512   5.824   2.008
 3464TIP3    H210399   3.658   5.858   2.043
 3465TIP3   OH210400   3.371   6.161   1.111
 3465TIP3    H110401   3.283   6.120   1.102
 3465TIP3    H210402   3.353   6.257   1.113
 3466TIP3   OH210403   4.216   6.432   1.761
 3466TIP3    H110404   4.261   6.479   1.687
 3466TIP3    H210405   4.150   6.377   1.713
 3467TIP3   OH210406   3.798   5.486   0.969
 3467TIP3    H110407   3.703   5.461   0.981
 3467TIP3    H210408   3.800   5.579   1.000
 3468TIP3   OH210409   3.867   5.733   1.081
 3468TIP3    H110410   3.963   5.748   1.090
 3468TIP3    H210411   3.840   5.812   1.029
 3469TIP3   OH210412   3.003   6.127   1.772
 3469TIP3    H110413   3.058   6.124   1.691
 3469TIP3    H210414   3.068   6.099   1.840
 3470TIP3   OH210415   2.922   6.089   2.397
 3470TIP3    H110416   2.913   6.061   2.491
 3470TIP3    H210417   2.842   6.046   2.361
 3471TIP3   OH210418   4.291   5.826   0.906
 3471TIP3    H110419   4.228   5.785   0.842
 3471TIP3    H210420   4.290   5.916   0.867
 3472TIP3   OH210421   4.029   6.285   1.624
 3472TIP3    H110422   3.934   6.267   1.641
 3472TIP3    H210423   4.054   6.200   1.581
 3473TIP3   OH210424   2.712   5.800   1.119
 3473TIP3    H110425   2.751   5.888   1.135
 3473TIP3    H210426   2.636   5.803   1.181
 3474TIP3   OH210427   3.119   5.627   2.391
 3474TIP3    H110428   3.021   5.632   2.395
 3474TIP3    H210429   3.139   5.567   2.465
 3475TIP3   OH210430   3.957   6.251   0.886
 3475TIP3    H110431   3.934   6.219   0.976
 3475TIP3    H210432   4.054   6.263   0.893
 3476TIP3   OH210433   2.799   6.049   1.191
 3476TIP3    H110434   2.724   6.109   1.208
 3476TIP3    H210435   2.857   6.106   1.136
 3477TIP3   OH210436   3.967   5.699   2.090
 3477TIP3    H110437   4.055   5.732   2.117
 3477TIP3    H210438   3.960   5.615   2.141
 3478TIP3   OH210439   3.855   5.435   1.258
 3478TIP3    H110440   3.838   5.457   1.165
 3478TIP3    H210441   3.897   5.518   1.290
 3479TIP3   OH210442   3.522   5.628   1.352
 3479TIP3    H110443   3.587   5.699   1.332
 3479TIP3    H210444   3.536   5.618   1.449
 3480TIP3   OH210445   3.802   5.923   2.139
 3480TIP3    H110446   3.824   5.947   2.230
 3480TIP3    H210447   3.853   5.839   2.128
 3481TIP3   OH210448   3.669   5.339   1.444
 3481TIP3    H110449   3.651   5.422   1.494
 3481TIP3    H210450   3.737   5.370   1.380
 3482TIP3   OH210451   3.188   5.353   1.237
 3482TIP3    H110452   3.183   5.441   1.278
 3482TIP3    H210453   3.285   5.338   1.244
 3483TIP3   OH210454   4.437   5.837   2.135
 3483TIP3    H110455   4.339   5.842   2.143
 3483TIP3    H210456   4.444   5.778   2.059
 3484TIP3   OH210457   4.094   6.030   1.523
 3484TIP3    H110458   4.015   5.972   1.530
 3484TIP3    H210459   4.161   5.979   1.573
 3485TIP3   OH210460   2.745   5.529   1.129
 3485TIP3    H110461   2.757   5.626   1.136
 3485TIP3    H210462   2.669   5.523   1.070
 3486TIP3   OH210463   3.139   5.259   1.991
 3486TIP3    H110464   3.111   5.222   1.905
 3486TIP3    H210465   3.127   5.182   2.050
 3487TIP3   OH210466   2.930   6.377   2.643
 3487TIP3    H110467   2.984   6.302   2.673
 3487TIP3    H210468   2.860   6.332   2.594
 3488TIP3   OH210469   2.912   6.010   0.855
 3488TIP3    H110470   2.948   6.071   0.921
 3488TIP3    H210471   2.985   6.006   0.789
 3489TIP3   OH210472   4.078   6.431   2.020
 3489TIP3    H110473   4.120   6.437   1.932
 3489TIP3    H210474   4.047   6.522   2.034
 3490TIP3   OH210475   3.129   6.171   2.642
 3490TIP3    H110476   3.185   6.095   2.620
 3490TIP3    H210477   3.154   6.190   2.735
 3491TIP3   OH210478   3.165   5.974   1.095
 3491TIP3    H110479   3.139   5.913   1.166
 3491TIP3    H210480   3.200   5.913   1.027
 3492TIP3   OH210481   3.438   6.041   2.289
 3492TIP3    H110482   3.350   6.081   2.280
 3492TIP3    H210483   3.494   6.103   2.237
 3493TIP3   OH210484   3.262   5.787   0.911
 3493TIP3    H110485   3.235   5.775   0.817
 3493TIP3    H210486   3.360   5.788   0.900
 3494TIP3   OH210487   3.550   5.835   2.414
 3494TIP3    H110488   3.549   5.758   2.353
 3494TIP3    H210489   3.507   5.905   2.358
 3495TIP3   OH210490   3.549   5.630   2.225
 3495TIP3    H110491   3.575   5.665   2.138
 3495TIP3    H210492   3.456   5.605   2.209
 3496TIP3   OH210493   3.581   6.191   2.119
 3496TIP3    H110494   3.657   6.161   2.067
 3496TIP3    H210495   3.519   6.221   2.049
 3497TIP3   OH210496   4.159   6.125   2.482
 3497TIP3    H110497   4.197   6.037   2.496
 3497TIP3    H210498   4.225   6.167   2.425
 3498TIP3   OH210499   4.217   6.373   2.247
 3498TIP3    H110500   4.153   6.400   2.178
 3498TIP3    H210501   4.301   6.393   2.199
 3499TIP3   OH210502   3.432   5.934   2.650
 3499TIP3    H110503   3.365   5.865   2.672
 3499TIP3    H210504   3.457   5.907   2.559
 3500TIP3   OH210505   3.681   5.389   2.306
 3500TIP3    H110506   3.630   5.468   2.278
 3500TIP3    H210507   3.614   5.318   2.294
 3501TIP3   OH210508   3.788   5.910   2.518
 3501TIP3    H110509   3.773   5.868   2.605
 3501TIP3    H210510   3.706   5.880   2.472
 3502TIP3   OH210511   4.042   5.862   2.378
 3502TIP3    H110512   3.972   5.846   2.444
 3502TIP3    H210513   4.121   5.824   2.424
 3503TIP3   OH210514   4.269   5.786   2.516
 3503TIP3    H110515   4.288   5.690   2.523
 3503TIP3    H210516   4.270   5.815   2.609
 3504TIP3   OH210517   3.268   5.721   2.716
 3504TIP3    H110518   3.264   5.629   2.681
 3504TIP3    H210519   3.308   5.704   2.804
 3505TIP3   OH210520   3.766   5.397   2.566
 3505TIP3    H110521   3.833   5.325   2.558
 3505TIP3    H210522   3.729   5.395   2.475
 3506TIP3   OH210523   3.843   5.611   2.714
 3506TIP3    H110524   3.821   5.536   2.654
 3506TIP3    H210525   3.761   5.664   2.709
 3507TIP3   OH210526   4.230   6.289   0.897
 3507TIP3    H110527   4.281   6.364   0.860
 3507TIP3    H210528   4.283   6.266   0.976
 3508TIP3   OH210529   4.358   6.161   1.114
 3508TIP3    H110530   4.285   6.124   1.168
 3508TIP3    H210531   4.418   6.198   1.181
 3509TIP3   OH210532   4.274   6.053   0.767
 3509TIP3    H110533   4.247   6.074   0.677
 3509TIP3    H210534   4.254   6.137   0.814
 3510TIP3   OH210535   4.145   5.730   0.696
 3510TIP3    H110536   4.187   5.732   0.608
 3510TIP3    H210537   4.109   5.639   0.695
 3511TIP3   OH210538   4.164   6.025   1.256
 3511TIP3    H110539   4.163   5.929   1.240
 3511TIP3    H210540   4.142   6.031   1.352
 3512TIP3   OH210541   2.773   6.011   2.038
 3512TIP3    H110542   2.750   6.049   1.952
 3512TIP3    H210543   2.871   6.026   2.040
 3513TIP3   OH210544   4.436   6.439   2.102
 3513TIP3    H110545   4.511   6.385   2.070
 3513TIP3    H210546   4.410   6.491   2.025
 3514TIP3   OH210547   4.631   6.239   2.136
 3514TIP3    H110548   4.548   6.196   2.165
 3514TIP3    H210549   4.696   6.167   2.155
 3515TIP3   OH210550   4.081   5.467   0.675
 3515TIP3    H110551   4.154   5.436   0.733
 3515TIP3    H210552   4.005   5.413   0.703
 3516TIP3   OH210553   4.154   5.743   1.141
 3516TIP3    H110554   4.195   5.654   1.152
 3516TIP3    H210555   4.206   5.777   1.065
 3517TIP3   OH210556   4.306   5.895   1.646
 3517TIP3    H110557   4.390   5.920   1.601
 3517TIP3    H210558   4.324   5.934   1.733
 3518TIP3   OH210559   4.381   6.042   1.873
 3518TIP3    H110560   4.303   6.074   1.923
 3518TIP3    H210561   4.412   6.126   1.833
 3519TIP3   OH210562   3.002   5.777   2.695
 3519TIP3    H110563   3.100   5.768   2.694
 3519TIP3    H210564   2.975   5.686   2.718
 3520TIP3   OH210565   4.829   5.653   2.422
 3520TIP3    H110566   4.894   5.589   2.384
 3520TIP3    H210567   4.797   5.699   2.341
 3521TIP3   OH210568   4.257   5.490   1.183
 3521TIP3    H110569   4.302   5.472   1.268
 3521TIP3    H210570   4.192   5.416   1.181
 3522TIP3   OH210571   2.957   5.472   2.010
 3522TIP3    H110572   3.018   5.395   2.013
 3522TIP3    H210573   3.020   5.544   1.994
 3523TIP3   OH210574   2.748   5.743   2.070
 3523TIP3    H110575   2.808   5.724   1.996
 3523TIP3    H210576   2.749   5.840   2.066
 3524TIP3   OH210577   4.691   5.772   2.217
 3524TIP3    H110578   4.604   5.816   2.224
 3524TIP3    H210579   4.665   5.692   2.168
 3525TIP3   OH210580   4.318   5.407   0.817
 3525TIP3    H110581   4.352   5.339   0.753
 3525TIP3    H210582   4.385   5.477   0.808
 3526TIP3   OH210583   2.745   5.239   1.577
 3526TIP3    H110584   2.655   5.234   1.614
 3526TIP3    H210585   2.732   5.300   1.501
 3527TIP3   OH210586   2.967   5.333   2.399
 3527TIP3    H110587   2.909   5.322   2.476
 3527TIP3    H210588   2.903   5.367   2.333
 3528TIP3   OH210589   4.601   5.530   2.115
 3528TIP3    H110590   4.512   5.506   2.084
 3528TIP3    H210591   4.646   5.443   2.109
 3529TIP3   OH210592   3.808   5.457   1.751
 3529TIP3    H110593   3.765   5.381   1.793
 3529TIP3    H210594   3.880   5.415   1.699
 3530TIP3   OH210595   4.312   5.340   1.629
 3530TIP3    H110596   4.350   5.394   1.556
 3530TIP3    H210597   4.219   5.370   1.631
 3531TIP3   OH210598   4.418   5.437   1.400
 3531TIP3    H110599   4.499   5.390   1.373
 3531TIP3    H210600   4.448   5.530   1.388
 3532TIP3   OH210601   3.051   5.158   1.749
 3532TIP3    H110602   2.959   5.125   1.755
 3532TIP3    H210603   3.100   5.073   1.744
 3533TIP3   OH210604   2.840   5.042   1.402
 3533TIP3    H110605   2.872   5.098   1.329
 3533TIP3    H210606   2.816   5.109   1.469
 3534TIP3   OH210607   3.504   5.205   1.635
 3534TIP3    H110608   3.558   5.248   1.567
 3534TIP3    H210609   3.548   5.233   1.717
 3535TIP3   OH210610   4.031   5.348   1.616
 3535TIP3    H110611   4.032   5.302   1.532
 3535TIP3    H210612   4.028   5.272   1.679
 3536TIP3   OH210613   4.076   5.278   1.191
 3536TIP3    H110614   3.992   5.322   1.214
 3536TIP3    H210615   4.059   5.188   1.225
 3537TIP3   OH210616   2.968   5.194   1.159
 3537TIP3    H110617   3.014   5.130   1.102
 3537TIP3    H210618   3.042   5.248   1.194
 3538TIP3   OH210619   3.461   5.378   1.261
 3538TIP3    H110620   3.521   5.331   1.321
 3538TIP3    H210621   3.482   5.471   1.285
 3539TIP3   OH210622   3.258   5.451   2.649
 3539TIP3    H110623   3.223   5.375   2.701
 3539TIP3    H210624   3.353   5.447   2.674
 3540TIP3   OH210625   3.514   5.447   2.760
 3540TIP3    H110626   3.596   5.418   2.717
 3540TIP3    H210627   3.502   5.376   2.827
 3541TIP3   OH210628   4.342   5.519   2.543
 3541TIP3    H110629   4.358   5.487   2.634
 3541TIP3    H210630   4.432   5.512   2.505
 3542TIP3   OH210631   4.850   6.310   1.531
 3542TIP3    H110632   4.884   6.287   1.619
 3542TIP3    H210633   4.880   6.402   1.519
 3543TIP3   OH210634   4.510   5.930   1.042
 3543TIP3    H110635   4.469   6.015   1.068
 3543TIP3    H210636   4.435   5.888   0.997
 3544TIP3   OH210637   4.608   6.241   1.228
 3544TIP3    H110638   4.640   6.156   1.266
 3544TIP3    H210639   4.691   6.267   1.180
 3545TIP3   OH210640   5.081   5.825   1.229
 3545TIP3    H110641   5.061   5.887   1.156
 3545TIP3    H210642   5.045   5.742   1.190
 3546TIP3   OH210643   4.714   6.012   1.344
 3546TIP3    H110644   4.799   6.005   1.391
 3546TIP3    H210645   4.731   5.956   1.265
 3547TIP3   OH210646   5.084   5.803   1.671
 3547TIP3    H110647   5.027   5.838   1.601
 3547TIP3    H210648   5.027   5.820   1.750
 3548TIP3   OH210649   4.956   5.915   1.454
 3548TIP3    H110650   5.011   5.994   1.473
 3548TIP3    H210651   5.001   5.880   1.374
 3549TIP3   OH210652   5.407   5.500   1.385
 3549TIP3    H110653   5.406   5.408   1.418
 3549TIP3    H210654   5.332   5.538   1.436
 3550TIP3   OH210655   4.668   6.539   1.683
 3550TIP3    H110656   4.584   6.516   1.640
 3550TIP3    H210657   4.675   6.473   1.754
 3551TIP3   OH210658   5.192   5.600   1.525
 3551TIP3    H110659   5.108   5.569   1.484
 3551TIP3    H210660   5.156   5.672   1.581
 3552TIP3   OH210661   5.110   6.136   1.518
 3552TIP3    H110662   5.060   6.154   1.601
 3552TIP3    H210663   5.081   6.208   1.460
 3553TIP3   OH210664   4.988   5.980   1.026
 3553TIP3    H110665   4.905   5.940   1.060
 3553TIP3    H210666   4.950   6.035   0.954
 3554TIP3   OH210667   4.965   6.152   1.756
 3554TIP3    H110668   4.953   6.202   1.837
 3554TIP3    H210669   4.953   6.061   1.788
 3555TIP3   OH210670   4.541   5.663   1.328
 3555TIP3    H110671   4.615   5.698   1.381
 3555TIP3    H210672   4.579   5.650   1.240
 3556TIP3   OH210673   4.499   5.639   0.833
 3556TIP3    H110674   4.554   5.669   0.760
 3556TIP3    H210675   4.436   5.713   0.844
 3557TIP3   OH210676   4.759   5.860   1.120
 3557TIP3    H110677   4.668   5.882   1.088
 3557TIP3    H210678   4.769   5.768   1.092
 3558TIP3   OH210679   4.955   5.628   1.074
 3558TIP3    H110680   4.924   5.554   1.130
 3558TIP3    H210681   4.950   5.590   0.986
 3559TIP3   OH210682   4.693   6.374   1.904
 3559TIP3    H110683   4.722   6.334   1.989
 3559TIP3    H210684   4.629   6.308   1.873
 3560TIP3   OH210685   4.918   5.886   1.873
 3560TIP3    H110686   4.821   5.890   1.880
 3560TIP3    H210687   4.942   5.837   1.953
 3561TIP3   OH210688   4.984   5.594   0.752
 3561TIP3    H110689   4.982   5.688   0.735
 3561TIP3    H210690   5.070   5.569   0.717
 3562TIP3   OH210691   4.933   5.516   1.478
 3562TIP3    H110692   4.908   5.482   1.390
 3562TIP3    H210693   4.922   5.438   1.535
 3563TIP3   OH210694   4.710   6.615   2.106
 3563TIP3    H110695   4.799   6.596   2.139
 3563TIP3    H210696   4.697   6.539   2.047
 3564TIP3   OH210697   4.941   6.416   2.107
 3564TIP3    H110698   5.012   6.348   2.104
 3564TIP3    H210699   4.940   6.438   2.202
 3565TIP3   OH210700   5.304   6.110   1.906
 3565TIP3    H110701   5.320   6.016   1.922
 3565TIP3    H210702   5.329   6.117   1.811
 3566TIP3   OH210703   5.348   5.862   1.691
 3566TIP3    H110704   5.373   5.813   1.611
 3566TIP3    H210705   5.250   5.849   1.694
 3567TIP3   OH210706   5.146   6.219   2.121
 3567TIP3    H110707   5.124   6.136   2.169
 3567TIP3    H210708   5.198   6.181   2.047
 3568TIP3   OH210709   5.470   5.616   1.775
 3568TIP3    H110710   5.427   5.702   1.762
 3568TIP3    H210711   5.395   5.553   1.772
 3569TIP3   OH210712   5.054   5.966   2.214
 3569TIP3    H110713   5.059   5.875   2.178
 3569TIP3    H210714   5.102   5.955   2.298
 3570TIP3   OH210715   5.573   5.674   2.021
 3570TIP3    H110716   5.644   5.607   2.027
 3570TIP3    H210717   5.527   5.641   1.940
 3571TIP3   OH210718   5.577   5.842   2.240
 3571TIP3    H110719   5.582   5.791   2.156
 3571TIP3    H210720   5.502   5.902   2.223
 3572TIP3   OH210721   4.578   6.267   1.521
 3572TIP3    H110722   4.559   6.287   1.428
 3572TIP3    H210723   4.676   6.280   1.522
 3573TIP3   OH210724   4.793   6.026   2.173
 3573TIP3    H110725   4.890   6.021   2.185
 3573TIP3    H210726   4.768   5.936   2.201
 3574TIP3   OH210727   4.749   5.725   1.500
 3574TIP3    H110728   4.812   5.651   1.503
 3574TIP3    H210729   4.810   5.800   1.488
 3575TIP3   OH210730   4.542   6.000   1.562
 3575TIP3    H110731   4.598   5.984   1.484
 3575TIP3    H210732   4.544   6.098   1.561
 3576TIP3   OH210733   4.538   5.501   1.065
 3576TIP3    H110734   4.446   5.495   1.097
 3576TIP3    H210735   4.527   5.558   0.986
 3577TIP3   OH210736   4.759   5.585   1.882
 3577TIP3    H110737   4.704   5.576   1.962
 3577TIP3    H210738   4.694   5.624   1.820
 3578TIP3   OH210739   4.855   5.424   1.226
 3578TIP3    H110740   4.761   5.398   1.240
 3578TIP3    H210741   4.897   5.337   1.217
 3579TIP3   OH210742   4.654   5.291   0.870
 3579TIP3    H110743   4.675   5.350   0.795
 3579TIP3    H210744   4.621   5.354   0.936
 3580TIP3   OH210745   5.277   5.447   1.143
 3580TIP3    H110746   5.334   5.452   1.065
 3580TIP3    H210747   5.334   5.477   1.216
 3581TIP3   OH210748   4.768   5.445   0.665
 3581TIP3    H110749   4.809   5.396   0.592
 3581TIP3    H210750   4.843   5.497   0.700
 3582TIP3   OH210751   5.050   5.698   2.121
 3582TIP3    H110752   5.014   5.628   2.179
 3582TIP3    H210753   5.144   5.697   2.151
 3583TIP3   OH210754   5.295   5.692   2.243
 3583TIP3    H110755   5.388   5.678   2.217
 3583TIP3    H210756   5.284   5.624   2.312
 3584TIP3   OH210757   1.682   0.678   5.214
 3584TIP3    H110758   1.645   0.764   5.183
 3584TIP3    H210759   1.615   0.618   5.176
 3585TIP3   OH210760   1.707   0.667   5.584
 3585TIP3    H110761   1.730   0.589   5.637
 3585TIP3    H210762   1.683   0.625   5.499
 3586TIP3   OH210763   1.939   0.973   5.284
 3586TIP3    H110764   1.924   0.908   5.354
 3586TIP3    H210765   1.972   1.050   5.334
 3587TIP3   OH210766   1.593   1.429   5.296
 3587TIP3    H110767   1.625   1.360   5.234
 3587TIP3    H210768   1.581   1.377   5.376
 3588TIP3   OH210769   1.490   0.895   5.635
 3588TIP3    H110770   1.529   0.810   5.612
 3588TIP3    H210771   1.569   0.941   5.669
 3589TIP3   OH210772   2.502   0.234   5.626
 3589TIP3    H110773   2.512   0.319   5.674
 3589TIP3    H210774   2.526   0.260   5.535
 3590TIP3   OH210775   1.853   0.416   5.664
 3590TIP3    H110776   1.901   0.341   5.700
 3590TIP3    H210777   1.833   0.384   5.573
 3591TIP3   OH210778   1.935   0.100   5.282
 3591TIP3    H110779   2.012   0.114   5.341
 3591TIP3    H210780   1.962   0.144   5.201
 3592TIP3   OH210781   2.530   0.447   5.795
 3592TIP3    H110782   2.445   0.493   5.791
 3592TIP3    H210783   2.552   0.456   5.890
 3593TIP3   OH210784   1.557   0.880   5.073
 3593TIP3    H110785   1.537   0.887   4.979
 3593TIP3    H210786   1.512   0.960   5.108
 3594TIP3   OH210787   2.138   0.148   5.452
 3594TIP3    H110788   2.142   0.090   5.531
 3594TIP3    H210789   2.180   0.230   5.484
 3595TIP3   OH210790   1.999   1.220   5.434
 3595TIP3    H110791   1.909   1.207   5.471
 3595TIP3    H210792   1.990   1.307   5.391
 3596TIP3   OH210793   1.686   1.256   5.096
 3596TIP3    H110794   1.739   1.173   5.082
 3596TIP3    H210795   1.751   1.322   5.061
 3597TIP3   OH210796   1.836   1.038   5.035
 3597TIP3    H110797   1.820   0.954   4.992
 3597TIP3    H210798   1.878   1.010   5.119
 3598TIP3   OH210799   2.207   1.105   5.786
 3598TIP3    H110800   2.201   1.032   5.721
 3598TIP3    H210801   2.190   1.183   5.728
 3599TIP3   OH210802   1.530   0.524   5.043
 3599TIP3    H110803   1.449   0.574   5.020
 3599TIP3    H210804   1.574   0.517   4.957
 3600TIP3   OH210805   1.510   0.320   4.708
 3600TIP3    H110806   1.586   0.354   4.759
 3600TIP3    H210807   1.446   0.298   4.779
 3601TIP3   OH210808   2.415   0.755   5.620
 3601TIP3    H110809   2.338   0.814   5.632
 3601TIP3    H210810   2.449   0.788   5.534
 3602TIP3   OH210811   1.868   0.619   5.019
 3602TIP3    H110812   1.814   0.642   5.098
 3602TIP3    H210813   1.954   0.596   5.062
 3603TIP3   OH210814   1.259   1.034   5.554
 3603TIP3    H110815   1.242   0.982   5.475
 3603TIP3    H210816   1.339   0.989   5.590
 3604TIP3   OH210817   1.756   1.200   5.552
 3604TIP3    H110818   1.736   1.287   5.592
 3604TIP3    H210819   1.735   1.137   5.624
 3605TIP3   OH210820   1.721   0.464   4.845
 3605TIP3    H110821   1.775   0.529   4.896
 3605TIP3    H210822   1.748   0.484   4.752
 3606TIP3   OH210823   1.448   1.131   5.107
 3606TIP3    H110824   1.536   1.173   5.108
 3606TIP3    H210825   1.394   1.198   5.064
 3607TIP3   OH210826   2.023   1.062   4.443
 3607TIP3    H110827   2.031   1.159   4.425
 3607TIP3    H210828   2.116   1.033   4.427
 3608TIP3   OH210829   2.457   1.486   5.817
 3608TIP3    H110830   2.460   1.389   5.832
 3608TIP3    H210831   2.386   1.510   5.879
 3609TIP3   OH210832   1.335   1.368   4.924
 3609TIP3    H110833   1.290   1.358   4.839
 3609TIP3    H210834   1.302   1.455   4.954
 3610TIP3   OH210835   0.759   1.219   5.296
 3610TIP3    H110836   0.819   1.208   5.374
 3610TIP3    H210837   0.693   1.152   5.317
 3611TIP3   OH210838   1.529   1.284   4.553
 3611TIP3    H110839   1.586   1.212   4.517
 3611TIP3    H210840   1.567   1.297   4.642
 3612TIP3   OH210841   1.585   1.332   4.820
 3612TIP3    H110842   1.498   1.339   4.866
 3612TIP3    H210843   1.642   1.305   4.894
 3613TIP3   OH210844   1.785   0.489   4.587
 3613TIP3    H110845   1.740   0.478   4.501
 3613TIP3    H210846   1.871   0.527   4.558
 3614TIP3   OH210847   1.672   0.326   5.171
 3614TIP3    H110848   1.623   0.404   5.137
 3614TIP3    H210849   1.742   0.315   5.104
 3615TIP3   OH210850   1.844   0.341   5.398
 3615TIP3    H110851   1.756   0.354   5.357
 3615TIP3    H210852   1.864   0.252   5.365
 3616TIP3   OH210853   2.077   1.919   5.933
 3616TIP3    H110854   2.123   1.892   5.852
 3616TIP3    H210855   2.113   1.856   5.998
 3617TIP3   OH210856   1.297   0.660   4.984
 3617TIP3    H110857   1.219   0.604   4.994
 3617TIP3    H210858   1.288   0.716   5.065
 3618TIP3   OH210859   2.181   0.905   5.606
 3618TIP3    H110860   2.210   0.957   5.528
 3618TIP3    H210861   2.097   0.865   5.574
 3619TIP3   OH210862   1.713   0.032   4.798
 3619TIP3    H110863   1.718  -0.045   4.856
 3619TIP3    H210864   1.743   0.103   4.860
 3620TIP3   OH210865   1.830   0.236   4.956
 3620TIP3    H110866   1.925   0.246   4.975
 3620TIP3    H210867   1.809   0.317   4.905
 3621TIP3   OH210868   1.435   0.823   4.815
 3621TIP3    H110869   1.385   0.908   4.821
 3621TIP3    H210870   1.386   0.764   4.875
 3622TIP3   OH210871   1.872   1.238   5.892
 3622TIP3    H110872   1.794   1.281   5.934
 3622TIP3    H210873   1.929   1.314   5.872
 3623TIP3   OH210874   2.246   0.324   4.800
 3623TIP3    H110875   2.197   0.279   4.728
 3623TIP3    H210876   2.245   0.414   4.761
 3624TIP3   OH210877   2.439   1.217   5.875
 3624TIP3    H110878   2.350   1.181   5.854
 3624TIP3    H210879   2.491   1.173   5.804
 3625TIP3   OH210880   1.953   1.145   4.705
 3625TIP3    H110881   1.924   1.073   4.763
 3625TIP3    H210882   1.968   1.099   4.621
 3626TIP3   OH210883   1.946   0.785   5.515
 3626TIP3    H110884   1.860   0.750   5.545
 3626TIP3    H210885   1.984   0.702   5.478
 3627TIP3   OH210886   1.085   1.011   5.284
 3627TIP3    H110887   1.092   1.084   5.219
 3627TIP3    H210888   1.039   1.056   5.356
 3628TIP3   OH210889   1.232   0.784   5.209
 3628TIP3    H110890   1.191   0.863   5.250
 3628TIP3    H210891   1.214   0.713   5.275
 3629TIP3   OH210892   1.349   1.360   5.741
 3629TIP3    H110893   1.410   1.423   5.697
 3629TIP3    H210894   1.404   1.320   5.809
 3630TIP3   OH210895   0.995   1.248   5.137
 3630TIP3    H110896   0.910   1.248   5.185
 3630TIP3    H210897   1.024   1.342   5.149
 3631TIP3   OH210898   1.743   0.978   5.725
 3631TIP3    H110899   1.804   0.982   5.801
 3631TIP3    H210900   1.792   0.919   5.666
 3632TIP3   OH210901   1.721   0.877   4.609
 3632TIP3    H110902   1.775   0.852   4.688
 3632TIP3    H210903   1.634   0.842   4.634
 3633TIP3   OH210904   1.960   1.475   5.742
 3633TIP3    H110905   1.874   1.446   5.705
 3633TIP3    H210906   1.977   1.552   5.683
 3634TIP3   OH210907   2.048   1.339   4.420
 3634TIP3    H110908   2.083   1.415   4.371
 3634TIP3    H210909   1.966   1.380   4.456
 3635TIP3   OH210910   1.883   0.808   4.820
 3635TIP3    H110911   1.873   0.743   4.893
 3635TIP3    H210912   1.980   0.800   4.804
 3636TIP3   OH210913   1.065   0.867   4.598
 3636TIP3    H110914   1.084   0.776   4.566
 3636TIP3    H210915   1.070   0.854   4.695
 3637TIP3   OH210916   1.075   0.860   4.873
 3637TIP3    H110917   1.170   0.874   4.887
 3637TIP3    H210918   1.044   0.953   4.884
 3638TIP3   OH210919   1.292   1.052   4.827
 3638TIP3    H110920   1.208   1.087   4.863
 3638TIP3    H210921   1.318   1.127   4.771
 3639TIP3   OH210922   1.041   1.133   4.896
 3639TIP3    H110923   1.014   1.205   4.835
 3639TIP3    H210924   1.025   1.175   4.983
 3640TIP3   OH210925   2.038   0.537   5.417
 3640TIP3    H110926   1.964   0.473   5.419
 3640TIP3    H210927   2.107   0.487   5.465
 3641TIP3   OH210928   2.006   1.487   5.357
 3641TIP3    H110929   1.963   1.532   5.281
 3641TIP3    H210930   2.101   1.507   5.338
 3642TIP3   OH210931   1.240   1.053   4.503
 3642TIP3    H110932   1.184   0.983   4.542
 3642TIP3    H210933   1.317   1.002   4.470
 3643TIP3   OH210934   1.669   1.080   4.430
 3643TIP3    H110935   1.705   1.015   4.494
 3643TIP3    H210936   1.731   1.073   4.355
 3644TIP3   OH210937   1.414   0.776   4.548
 3644TIP3    H110938   1.416   0.782   4.646
 3644TIP3    H210939   1.405   0.679   4.536
 3645TIP3   OH210940   1.980   0.984   5.904
 3645TIP3    H110941   2.068   1.006   5.871
 3645TIP3    H210942   1.942   1.074   5.911
 3646TIP3   OH210943   2.010   0.591   4.472
 3646TIP3    H110944   1.991   0.553   4.384
 3646TIP3    H210945   1.977   0.682   4.457
 3647TIP3   OH210946   1.013   1.340   4.715
 3647TIP3    H110947   1.105   1.320   4.691
 3647TIP3    H210948   0.986   1.390   4.635
 3648TIP3   OH210949   2.266   1.566   5.329
 3648TIP3    H110950   2.290   1.597   5.418
 3648TIP3    H210951   2.336   1.604   5.273
 3649TIP3   OH210952   2.292   1.585   5.610
 3649TIP3    H110953   2.250   1.497   5.608
 3649TIP3    H210954   2.370   1.564   5.664
 3650TIP3   OH210955   2.158   0.779   4.795
 3650TIP3    H110956   2.220   0.847   4.763
 3650TIP3    H210957   2.205   0.745   4.874
 3651TIP3   OH210958   2.284   0.653   5.003
 3651TIP3    H110959   2.216   0.614   5.063
 3651TIP3    H210960   2.352   0.685   5.067
 3652TIP3   OH210961   2.347   1.050   5.437
 3652TIP3    H110962   2.401   0.978   5.398
 3652TIP3    H210963   2.348   1.116   5.366
 3653TIP3   OH210964   2.165   1.333   5.627
 3653TIP3    H110965   2.089   1.374   5.672
 3653TIP3    H210966   2.123   1.292   5.549
 3654TIP3   OH210967   2.218   0.555   4.648
 3654TIP3    H110968   2.145   0.556   4.581
 3654TIP3    H210969   2.191   0.633   4.701
 3655TIP3   OH210970   2.101   0.236   4.584
 3655TIP3    H110971   2.042   0.271   4.516
 3655TIP3    H210972   2.070   0.144   4.592
 3656TIP3   OH210973   2.092   0.521   5.146
 3656TIP3    H110974   2.094   0.424   5.133
 3656TIP3    H210975   2.079   0.528   5.243
 3657TIP3   OH210976   2.394   0.853   5.920
 3657TIP3    H110977   2.432   0.866   6.008
 3657TIP3    H210978   2.363   0.943   5.902
 3658TIP3   OH210979   2.011  -0.020   4.668
 3658TIP3    H110980   2.000  -0.014   4.766
 3658TIP3    H210981   1.923  -0.049   4.641
 3659TIP3   OH210982   2.094   0.252   5.031
 3659TIP3    H110983   2.103   0.156   5.019
 3659TIP3    H210984   2.155   0.284   4.961
 3660TIP3   OH210985   2.239   0.392   5.539
 3660TIP3    H110986   2.327   0.411   5.498
 3660TIP3    H210987   2.249   0.438   5.624
 3661TIP3   OH210988   2.286   0.565   5.761
 3661TIP3    H110989   2.223   0.623   5.806
 3661TIP3    H210990   2.339   0.634   5.713
 3662TIP3   OH210991   1.833   1.444   4.977
 3662TIP3    H110992   1.893   1.441   4.899
 3662TIP3    H210993   1.881   1.506   5.036
 3663TIP3   OH210994   1.770   1.672   5.858
 3663TIP3    H110995   1.838   1.609   5.833
 3663TIP3    H210996   1.819   1.729   5.921
 3664TIP3   OH210997   1.065   1.546   5.798
 3664TIP3    H110998   0.982   1.522   5.840
 3664TIP3    H210999   1.041   1.553   5.704
 3665TIP3   OH211000   1.467   1.551   5.584
 3665TIP3    H111001   1.390   1.553   5.525
 3665TIP3    H211002   1.468   1.641   5.622
 3666TIP3   OH211003   1.721   1.465   5.622
 3666TIP3    H111004   1.626   1.488   5.611
 3666TIP3    H211005   1.762   1.546   5.587
 3667TIP3   OH211006   1.935   1.668   5.549
 3667TIP3    H111007   1.919   1.754   5.503
 3667TIP3    H211008   1.960   1.610   5.474
 3668TIP3   OH211009   0.928   1.182   5.501
 3668TIP3    H111010   0.915   1.119   5.574
 3668TIP3    H211011   1.010   1.229   5.528
 3669TIP3   OH211012   1.173   1.292   5.552
 3669TIP3    H111013   1.207   1.199   5.550
 3669TIP3    H211014   1.227   1.324   5.627
 3670TIP3   OH211015   1.273   1.276   4.654
 3670TIP3    H111016   1.359   1.302   4.615
 3670TIP3    H211017   1.250   1.203   4.593
 3671TIP3   OH211018   1.991   1.412   4.750
 3671TIP3    H111019   1.983   1.315   4.739
 3671TIP3    H211020   1.945   1.443   4.669
 3672TIP3   OH211021   0.637   1.168   4.726
 3672TIP3    H111022   0.668   1.163   4.817
 3672TIP3    H211023   0.705   1.110   4.682
 3673TIP3   OH211024   3.485   0.930   4.685
 3673TIP3    H111025   3.448   1.017   4.659
 3673TIP3    H211026   3.411   0.872   4.660
 3674TIP3   OH211027   3.487   0.921   5.084
 3674TIP3    H111028   3.525   0.902   5.172
 3674TIP3    H211029   3.442   0.837   5.064
 3675TIP3   OH211030   2.774   0.808   5.442
 3675TIP3    H111031   2.802   0.737   5.503
 3675TIP3    H211032   2.847   0.870   5.454
 3676TIP3   OH211033   3.737   1.231   4.769
 3676TIP3    H111034   3.709   1.170   4.839
 3676TIP3    H211035   3.766   1.309   4.820
 3677TIP3   OH211036   2.758   1.228   5.158
 3677TIP3    H111037   2.750   1.130   5.158
 3677TIP3    H211038   2.855   1.237   5.151
 3678TIP3   OH211039   2.456   0.448   4.934
 3678TIP3    H111040   2.400   0.525   4.956
 3678TIP3    H211041   2.390   0.386   4.901
 3679TIP3   OH211042   2.515   0.717   5.139
 3679TIP3    H111043   2.568   0.638   5.164
 3679TIP3    H211044   2.577   0.768   5.087
 3680TIP3   OH211045   3.388   1.685   4.783
 3680TIP3    H111046   3.421   1.612   4.726
 3680TIP3    H211047   3.366   1.639   4.864
 3681TIP3   OH211048   3.275   1.150   5.124
 3681TIP3    H111049   3.320   1.074   5.083
 3681TIP3    H211050   3.355   1.199   5.154
 3682TIP3   OH211051   4.297   0.482   5.112
 3682TIP3    H111052   4.310   0.568   5.158
 3682TIP3    H211053   4.322   0.506   5.020
 3683TIP3   OH211054   3.692   0.637   5.159
 3683TIP3    H111055   3.711   0.547   5.185
 3683TIP3    H211056   3.660   0.625   5.067
 3684TIP3   OH211057   3.046   0.312   5.132
 3684TIP3    H111058   3.009   0.361   5.055
 3684TIP3    H211059   3.039   0.218   5.102
 3685TIP3   OH211060   3.734   0.392   4.749
 3685TIP3    H111061   3.803   0.380   4.819
 3685TIP3    H211062   3.787   0.436   4.680
 3686TIP3   OH211063   2.669   0.508   5.231
 3686TIP3    H111064   2.755   0.498   5.276
 3686TIP3    H211065   2.683   0.451   5.153
 3687TIP3   OH211066   3.096   0.704   5.026
 3687TIP3    H111067   3.193   0.691   5.022
 3687TIP3    H211068   3.062   0.616   4.998
 3688TIP3   OH211069   4.331   0.687   5.300
 3688TIP3    H111070   4.262   0.755   5.289
 3688TIP3    H211071   4.393   0.728   5.364
 3689TIP3   OH211072   3.000   0.271   5.577
 3689TIP3    H111073   2.962   0.297   5.492
 3689TIP3    H211074   2.931   0.301   5.639
 3690TIP3   OH211075   3.370   1.144   4.554
 3690TIP3    H111076   3.329   1.137   4.466
 3690TIP3    H211077   3.321   1.221   4.590
 3691TIP3   OH211078   3.129   1.069   5.338
 3691TIP3    H111079   3.075   1.143   5.373
 3691TIP3    H211080   3.175   1.112   5.263
 3692TIP3   OH211081   3.921   0.405   4.944
 3692TIP3    H111082   3.932   0.344   5.020
 3692TIP3    H211083   3.968   0.486   4.975
 3693TIP3   OH211084   2.908   0.411   5.347
 3693TIP3    H111085   2.972   0.478   5.378
 3693TIP3    H211086   2.957   0.374   5.271
 3694TIP3   OH211087   2.969   1.273   5.447
 3694TIP3    H111088   2.945   1.363   5.416
 3694TIP3    H211089   2.889   1.252   5.498
 3695TIP3   OH211090   2.345   0.957   4.682
 3695TIP3    H111091   2.308   0.984   4.596
 3695TIP3    H211092   2.376   1.044   4.716
 3696TIP3   OH211093   3.793   1.475   4.919
 3696TIP3    H111094   3.705   1.466   4.961
 3696TIP3    H211095   3.785   1.562   4.876
 3697TIP3   OH211096   3.489   1.511   4.586
 3697TIP3    H111097   3.542   1.430   4.571
 3697TIP3    H211098   3.552   1.578   4.551
 3698TIP3   OH211099   3.636   1.292   4.519
 3698TIP3    H111100   3.578   1.215   4.504
 3698TIP3    H211101   3.683   1.265   4.600
 3699TIP3   OH211102   4.019   1.376   5.269
 3699TIP3    H111103   4.002   1.300   5.209
 3699TIP3    H211104   3.997   1.452   5.211
 3700TIP3   OH211105   3.313   0.771   4.538
 3700TIP3    H111106   3.232   0.823   4.523
 3700TIP3    H211107   3.355   0.773   4.451
 3701TIP3   OH211108   3.266   0.571   4.235
 3701TIP3    H111109   3.333   0.619   4.286
 3701TIP3    H211110   3.323   0.517   4.177
 3702TIP3   OH211111   4.213   1.027   5.122
 3702TIP3    H111112   4.128   1.078   5.120
 3702TIP3    H211113   4.245   1.047   5.031
 3703TIP3   OH211114   3.662   0.858   4.492
 3703TIP3    H111115   3.606   0.885   4.569
 3703TIP3    H211116   3.747   0.843   4.538
 3704TIP3   OH211117   3.875   0.910   5.415
 3704TIP3    H111118   3.877   0.994   5.464
 3704TIP3    H211119   3.787   0.914   5.373
 3705TIP3   OH211120   2.893   0.849   4.918
 3705TIP3    H111121   2.853   0.789   4.850
 3705TIP3    H211122   2.968   0.795   4.951
 3706TIP3   OH211123   3.022   1.267   5.057
 3706TIP3    H111124   3.006   1.245   4.964
 3706TIP3    H211125   3.109   1.226   5.074
 3707TIP3   OH211126   3.037   0.813   5.275
 3707TIP3    H111127   3.063   0.789   5.183
 3707TIP3    H211128   3.072   0.904   5.284
 3708TIP3   OH211129   3.559   1.464   5.051
 3708TIP3    H111130   3.541   1.546   5.101
 3708TIP3    H211131   3.536   1.394   5.114
 3709TIP3   OH211132   3.170   1.377   5.601
 3709TIP3    H111133   3.106   1.439   5.645
 3709TIP3    H211134   3.107   1.326   5.546
 3710TIP3   OH211135   3.499   0.707   4.330
 3710TIP3    H111136   3.557   0.771   4.376
 3710TIP3    H211137   3.526   0.723   4.236
 3711TIP3   OH211138   2.930   0.926   5.697
 3711TIP3    H111139   2.936   1.018   5.730
 3711TIP3    H211140   2.836   0.909   5.718
 3712TIP3   OH211141   3.251   1.384   4.599
 3712TIP3    H111142   3.335   1.434   4.595
 3712TIP3    H211143   3.190   1.445   4.555
 3713TIP3   OH211144   2.963   1.539   5.685
 3713TIP3    H111145   2.926   1.551   5.595
 3713TIP3    H211146   2.882   1.522   5.739
 3714TIP3   OH211147   2.761   0.696   4.715
 3714TIP3    H111148   2.686   0.741   4.670
 3714TIP3    H211149   2.727   0.607   4.726
 3715TIP3   OH211150   3.818   1.318   3.929
 3715TIP3    H111151   3.824   1.415   3.912
 3715TIP3    H211152   3.910   1.290   3.914
 3716TIP3   OH211153   2.536   1.088   5.652
 3716TIP3    H111154   2.470   1.067   5.583
 3716TIP3    H211155   2.578   1.002   5.670
 3717TIP3   OH211156   2.398   1.274   5.258
 3717TIP3    H111157   2.494   1.271   5.251
 3717TIP3    H211158   2.385   1.349   5.318
 3718TIP3   OH211159   4.258   1.737   5.328
 3718TIP3    H111160   4.257   1.641   5.343
 3718TIP3    H211161   4.173   1.762   5.371
 3719TIP3   OH211162   3.361   1.506   5.456
 3719TIP3    H111163   3.353   1.600   5.485
 3719TIP3    H211164   3.290   1.464   5.509
 3720TIP3   OH211165   3.136   1.633   4.409
 3720TIP3    H111166   3.084   1.618   4.328
 3720TIP3    H211167   3.099   1.717   4.441
 3721TIP3   OH211168   2.565   1.483   4.794
 3721TIP3    H111169   2.611   1.476   4.881
 3721TIP3    H211170   2.523   1.396   4.787
 3722TIP3   OH211171   3.326   1.543   4.039
 3722TIP3    H111172   3.383   1.470   4.004
 3722TIP3    H211173   3.363   1.556   4.128
 3723TIP3   OH211174   3.384   1.594   4.305
 3723TIP3    H111175   3.296   1.601   4.348
 3723TIP3    H211176   3.438   1.564   4.380
 3724TIP3   OH211177   4.153   0.851   5.609
 3724TIP3    H111178   4.062   0.864   5.576
 3724TIP3    H211179   4.162   0.755   5.604
 3725TIP3   OH211180   2.741   1.266   5.602
 3725TIP3    H111181   2.794   1.250   5.683
 3725TIP3    H211182   2.665   1.206   5.618
 3726TIP3   OH211183   3.912   0.662   5.531
 3726TIP3    H111184   3.856   0.658   5.611
 3726TIP3    H211185   3.884   0.746   5.489
 3727TIP3   OH211186   3.581   0.734   4.074
 3727TIP3    H111187   3.537   0.728   3.987
 3727TIP3    H211188   3.663   0.782   4.051
 3728TIP3   OH211189   3.095   0.604   5.439
 3728TIP3    H111190   3.033   0.625   5.513
 3728TIP3    H211191   3.073   0.678   5.379
 3729TIP3   OH211192   2.952   0.481   4.938
 3729TIP3    H111193   2.858   0.457   4.954
 3729TIP3    H211194   2.964   0.443   4.848
 3730TIP3   OH211195   3.450   0.566   4.671
 3730TIP3    H111196   3.401   0.639   4.627
 3730TIP3    H211197   3.497   0.525   4.597
 3731TIP3   OH211198   3.635   0.853   5.728
 3731TIP3    H111199   3.611   0.799   5.806
 3731TIP3    H211200   3.728   0.875   5.751
 3732TIP3   OH211201   3.614   0.595   4.898
 3732TIP3    H111202   3.544   0.620   4.835
 3732TIP3    H211203   3.647   0.515   4.853
 3733TIP3   OH211204   2.914   0.652   5.630
 3733TIP3    H111205   2.917   0.728   5.690
 3733TIP3    H211206   2.896   0.578   5.693
 3734TIP3   OH211207   2.997   0.206   4.354
 3734TIP3    H111208   2.964   0.202   4.445
 3734TIP3    H211209   2.917   0.235   4.306
 3735TIP3   OH211210   2.521   0.149   5.160
 3735TIP3    H111211   2.542   0.207   5.235
 3735TIP3    H211212   2.549   0.063   5.196
 3736TIP3   OH211213   2.485   0.160   4.767
 3736TIP3    H111214   2.495   0.201   4.678
 3736TIP3    H211215   2.405   0.207   4.795
 3737TIP3   OH211216   3.615   0.844   5.315
 3737TIP3    H111217   3.647   0.772   5.256
 3737TIP3    H211218   3.582   0.791   5.390
 3738TIP3   OH211219   3.304   0.341   5.024
 3738TIP3    H111220   3.218   0.336   5.068
 3738TIP3    H211221   3.364   0.325   5.099
 3739TIP3   OH211222   2.706   0.371   4.990
 3739TIP3    H111223   2.618   0.407   4.964
 3739TIP3    H211224   2.685   0.276   4.987
 3740TIP3   OH211225   2.984   0.356   4.698
 3740TIP3    H111226   3.079   0.378   4.689
 3740TIP3    H211227   2.943   0.395   4.618
 3741TIP3   OH211228   2.842   0.432   4.474
 3741TIP3    H111229   2.766   0.404   4.421
 3741TIP3    H211230   2.901   0.465   4.403
 3742TIP3   OH211231   3.961   2.074   5.424
 3742TIP3    H111232   3.952   2.104   5.331
 3742TIP3    H211233   4.039   2.125   5.453
 3743TIP3   OH211234   2.901   1.179   5.818
 3743TIP3    H111235   2.978   1.214   5.867
 3743TIP3    H211236   2.835   1.181   5.891
 3744TIP3   OH211237   3.365   0.671   5.069
 3744TIP3    H111238   3.423   0.601   5.035
 3744TIP3    H211239   3.356   0.644   5.164
 3745TIP3   OH211240   3.356   0.610   5.334
 3745TIP3    H111241   3.268   0.615   5.374
 3745TIP3    H211242   3.413   0.642   5.407
 3746TIP3   OH211243   3.082   0.919   4.480
 3746TIP3    H111244   3.006   0.859   4.464
 3746TIP3    H211245   3.057   0.957   4.568
 3747TIP3   OH211246   3.974   1.162   5.097
 3747TIP3    H111247   3.996   1.216   5.018
 3747TIP3    H211248   3.889   1.120   5.069
 3748TIP3   OH211249   3.532   0.283   4.263
 3748TIP3    H111250   3.483   0.215   4.311
 3748TIP3    H211251   3.550   0.348   4.335
 3749TIP3   OH211252   3.476   1.247   5.479
 3749TIP3    H111253   3.510   1.239   5.568
 3749TIP3    H211254   3.439   1.338   5.479
 3750TIP3   OH211255   3.607   0.480   4.444
 3750TIP3    H111256   3.699   0.504   4.468
 3750TIP3    H211257   3.576   0.563   4.401
 3751TIP3   OH211258   2.778   0.952   5.148
 3751TIP3    H111259   2.819   0.920   5.065
 3751TIP3    H211260   2.821   0.897   5.215
 3752TIP3   OH211261   3.227   1.076   4.309
 3752TIP3    H111262   3.175   1.160   4.308
 3752TIP3    H211263   3.172   1.020   4.369
 3753TIP3   OH211264   2.669   0.869   5.769
 3753TIP3    H111265   2.705   0.866   5.860
 3753TIP3    H211266   2.587   0.818   5.778
 3754TIP3   OH211267   3.389   0.995   5.781
 3754TIP3    H111268   3.318   0.936   5.751
 3754TIP3    H211269   3.467   0.955   5.739
 3755TIP3   OH211270   3.635   1.505   5.380
 3755TIP3    H111271   3.538   1.505   5.391
 3755TIP3    H211272   3.662   1.561   5.456
 3756TIP3   OH211273   4.045   0.580   4.287
 3756TIP3    H111274   3.996   0.534   4.214
 3756TIP3    H211275   4.041   0.670   4.247
 3757TIP3   OH211276   4.268   1.449   5.356
 3757TIP3    H111277   4.171   1.440   5.346
 3757TIP3    H211278   4.296   1.416   5.268
 3758TIP3   OH211279   3.758   1.401   4.197
 3758TIP3    H111280   3.719   1.336   4.257
 3758TIP3    H211281   3.765   1.351   4.113
 3759TIP3   OH211282   3.741   1.028   5.011
 3759TIP3    H111283   3.648   1.003   5.027
 3759TIP3    H211284   3.773   0.947   4.967
 3760TIP3   OH211285   2.881   1.260   4.781
 3760TIP3    H111286   2.872   1.340   4.725
 3760TIP3    H211287   2.789   1.241   4.801
 3761TIP3   OH211288   2.447   0.557   4.494
 3761TIP3    H111289   2.487   0.644   4.516
 3761TIP3    H211290   2.367   0.561   4.551
 3762TIP3   OH211291   2.993   1.015   4.715
 3762TIP3    H111292   2.964   1.106   4.738
 3762TIP3    H211293   2.961   0.965   4.793
 3763TIP3   OH211294   3.152   1.594   5.245
 3763TIP3    H111295   3.192   1.668   5.195
 3763TIP3    H211296   3.230   1.557   5.289
 3764TIP3   OH211297   2.792   1.493   4.632
 3764TIP3    H111298   2.706   1.505   4.678
 3764TIP3    H211299   2.827   1.585   4.636
 3765TIP3   OH211300   3.522   1.234   5.211
 3765TIP3    H111301   3.510   1.233   5.309
 3765TIP3    H211302   3.602   1.180   5.201
 3766TIP3   OH211303   3.514   1.133   4.092
 3766TIP3    H111304   3.568   1.104   4.169
 3766TIP3    H211305   3.426   1.100   4.117
 3767TIP3   OH211306   3.779   1.756   5.254
 3767TIP3    H111307   3.696   1.705   5.251
 3767TIP3    H211308   3.762   1.821   5.182
 3768TIP3   OH211309   3.842   1.594   3.906
 3768TIP3    H111310   3.867   1.666   3.846
 3768TIP3    H211311   3.764   1.635   3.949
 3769TIP3   OH211312   2.879   0.433   5.787
 3769TIP3    H111313   2.806   0.368   5.775
 3769TIP3    H211314   2.925   0.395   5.862
 3770TIP3   OH211315   3.678   1.048   4.292
 3770TIP3    H111316   3.666   0.988   4.368
 3770TIP3    H211317   3.775   1.049   4.285
 3771TIP3   OH211318   2.585   1.458   5.402
 3771TIP3    H111319   2.639   1.395   5.453
 3771TIP3    H211320   2.607   1.541   5.446
 3772TIP3   OH211321   2.872   1.102   4.093
 3772TIP3    H111322   2.880   1.007   4.072
 3772TIP3    H211323   2.846   1.098   4.187
 3773TIP3   OH211324   2.808   1.111   4.362
 3773TIP3    H111325   2.885   1.085   4.415
 3773TIP3    H211326   2.809   1.209   4.373
 3774TIP3   OH211327   2.543   0.801   4.574
 3774TIP3    H111328   2.475   0.848   4.627
 3774TIP3    H211329   2.555   0.867   4.502
 3775TIP3   OH211330   2.425   6.672   4.187
 3775TIP3    H111331   2.511   6.715   4.185
 3775TIP3    H211332   2.441   6.600   4.249
 3776TIP3   OH211333   3.589   0.208   4.577
 3776TIP3    H111334   3.644   0.246   4.507
 3776TIP3    H211335   3.607   0.270   4.650
 3777TIP3   OH211336   3.085   1.305   4.311
 3777TIP3    H111337   2.996   1.325   4.347
 3777TIP3    H211338   3.100   1.386   4.260
 3778TIP3   OH211339   3.258   0.371   4.745
 3778TIP3    H111340   3.325   0.440   4.727
 3778TIP3    H211341   3.276   0.352   4.840
 3779TIP3   OH211342   3.545   0.687   5.526
 3779TIP3    H111343   3.573   0.745   5.600
 3779TIP3    H211344   3.583   0.601   5.552
 3780TIP3   OH211345   2.834   1.381   4.386
 3780TIP3    H111346   2.806   1.453   4.325
 3780TIP3    H211347   2.818   1.423   4.473
 3781TIP3   OH211348   2.900   0.113   4.603
 3781TIP3    H111349   2.929   0.190   4.657
 3781TIP3    H211350   2.964   0.043   4.629
 3782TIP3   OH211351   4.169   0.565   5.495
 3782TIP3    H111352   4.077   0.600   5.484
 3782TIP3    H211353   4.214   0.598   5.415
 3783TIP3   OH211354   3.828   0.780   4.901
 3783TIP3    H111355   3.750   0.722   4.909
 3783TIP3    H211356   3.896   0.731   4.952
 3784TIP3   OH211357   2.550   0.994   4.370
 3784TIP3    H111358   2.626   1.055   4.377
 3784TIP3    H211359   2.587   0.931   4.305
 3785TIP3   OH211360   2.479   0.287   4.524
 3785TIP3    H111361   2.489   0.384   4.533
 3785TIP3    H211362   2.429   0.283   4.442
 3786TIP3   OH211363   3.804   1.743   4.843
 3786TIP3    H111364   3.760   1.790   4.768
 3786TIP3    H211365   3.898   1.759   4.822
 3787TIP3   OH211366   2.398   1.220   4.751
 3787TIP3    H111367   2.356   1.253   4.832
 3787TIP3    H211368   2.353   1.273   4.680
 3788TIP3   OH211369   2.578   1.786   5.828
 3788TIP3    H111370   2.666   1.794   5.872
 3788TIP3    H211371   2.569   1.689   5.824
 3789TIP3   OH211372   3.056   1.714   5.876
 3789TIP3    H111373   3.150   1.696   5.864
 3789TIP3    H211374   3.018   1.654   5.809
 3790TIP3   OH211375   3.030   1.302   3.992
 3790TIP3    H111376   2.978   1.229   4.034
 3790TIP3    H211377   3.107   1.253   3.959
 3791TIP3   OH211378   3.686   1.642   5.613
 3791TIP3    H111379   3.691   1.572   5.682
 3791TIP3    H211380   3.764   1.698   5.636
 3792TIP3   OH211381   3.466   1.338   3.916
 3792TIP3    H111382   3.500   1.270   3.979
 3792TIP3    H211383   3.527   1.330   3.841
 3793TIP3   OH211384   2.719   1.190   6.026
 3793TIP3    H111385   2.749   1.150   6.111
 3793TIP3    H211386   2.635   1.144   6.014
 3794TIP3   OH211387   2.686   0.810   4.231
 3794TIP3    H111388   2.746   0.788   4.305
 3794TIP3    H211389   2.752   0.818   4.158
 3795TIP3   OH211390   3.309   1.267   5.807
 3795TIP3    H111391   3.265   1.292   5.723
 3795TIP3    H211392   3.340   1.176   5.788
 3796TIP3   OH211393   3.220   1.027   4.039
 3796TIP3    H111394   3.211   1.038   4.136
 3796TIP3    H211395   3.215   0.929   4.031
 3797TIP3   OH211396   3.800   1.285   5.414
 3797TIP3    H111397   3.876   1.325   5.368
 3797TIP3    H211398   3.731   1.353   5.398
 3798TIP3   OH211399   2.814   0.859   6.001
 3798TIP3    H111400   2.910   0.839   5.997
 3798TIP3    H211401   2.810   0.921   6.078
 3799TIP3   OH211402   2.876   0.740   4.436
 3799TIP3    H111403   2.849   0.700   4.521
 3799TIP3    H211404   2.920   0.665   4.391
 3800TIP3   OH211405   3.183   0.818   5.700
 3800TIP3    H111406   3.093   0.855   5.688
 3800TIP3    H211407   3.222   0.837   5.611
 3801TIP3   OH211408   2.996   0.542   4.281
 3801TIP3    H111409   2.970   0.550   4.187
 3801TIP3    H211410   3.094   0.540   4.273
 3802TIP3   OH211411   3.681   1.198   5.803
 3802TIP3    H111412   3.744   1.146   5.751
 3802TIP3    H211413   3.669   1.141   5.882
 3803TIP3   OH211414   3.807   0.844   3.960
 3803TIP3    H111415   3.786   0.810   3.871
 3803TIP3    H211416   3.776   0.937   3.947
 3804TIP3   OH211417   3.300   0.621   5.833
 3804TIP3    H111418   3.281   0.552   5.765
 3804TIP3    H211419   3.252   0.696   5.794
 3805TIP3   OH211420   3.217   0.425   5.648
 3805TIP3    H111421   3.181   0.493   5.589
 3805TIP3    H211422   3.146   0.358   5.646
 3806TIP3   OH211423   3.302   0.907   5.477
 3806TIP3    H111424   3.385   0.925   5.432
 3806TIP3    H211425   3.241   0.969   5.431
 3807TIP3   OH211426   3.883   0.874   5.843
 3807TIP3    H111427   3.913   0.803   5.903
 3807TIP3    H211428   3.968   0.916   5.821
 3808TIP3   OH211429   3.927   1.130   5.592
 3808TIP3    H111430   3.869   1.190   5.539
 3808TIP3    H211431   4.014   1.155   5.555
 3809TIP3   OH211432   3.062   0.742   5.985
 3809TIP3    H111433   3.086   0.658   6.025
 3809TIP3    H211434   3.140   0.763   5.932
 3810TIP3   OH211435   3.568   0.659   5.908
 3810TIP3    H111436   3.573   0.618   5.997
 3810TIP3    H211437   3.472   0.654   5.890
 3811TIP3   OH211438   3.778   0.562   5.754
 3811TIP3    H111439   3.709   0.605   5.809
 3811TIP3    H211440   3.809   0.494   5.818
 3812TIP3   OH211441   2.807   1.582   4.198
 3812TIP3    H111442   2.900   1.567   4.174
 3812TIP3    H211443   2.779   1.639   4.123
 3813TIP3   OH211444   2.279   0.969   4.401
 3813TIP3    H111445   2.375   0.987   4.388
 3813TIP3    H211446   2.271   0.880   4.359
 3814TIP3   OH211447   2.193   1.579   4.840
 3814TIP3    H111448   2.130   1.521   4.790
 3814TIP3    H211449   2.238   1.512   4.895
 3815TIP3   OH211450   2.332   1.407   5.011
 3815TIP3    H111451   2.321   1.347   5.087
 3815TIP3    H211452   2.386   1.476   5.053
 3816TIP3   OH211453   4.070   1.809   4.819
 3816TIP3    H111454   4.084   1.845   4.909
 3816TIP3    H211455   4.122   1.870   4.764
 3817TIP3   OH211456   4.081   1.844   5.098
 3817TIP3    H111457   4.036   1.757   5.096
 3817TIP3    H211458   4.155   1.822   5.158
 3818TIP3   OH211459   4.139   1.524   5.673
 3818TIP3    H111460   4.066   1.537   5.738
 3818TIP3    H211461   4.181   1.612   5.675
 3819TIP3   OH211462   3.955   1.033   4.281
 3819TIP3    H111463   4.015   1.104   4.250
 3819TIP3    H211464   4.002   1.001   4.361
 3820TIP3   OH211465   4.081   0.908   4.491
 3820TIP3    H111466   4.011   0.871   4.549
 3820TIP3    H211467   4.147   0.941   4.555
 3821TIP3   OH211468   4.143   1.306   4.923
 3821TIP3    H111469   4.191   1.234   4.878
 3821TIP3    H211470   4.143   1.376   4.855
 3822TIP3   OH211471   3.956   1.595   5.113
 3822TIP3    H111472   3.883   1.639   5.163
 3822TIP3    H211473   3.907   1.554   5.038
 3823TIP3   OH211474   4.015   0.810   4.134
 3823TIP3    H111475   3.942   0.812   4.068
 3823TIP3    H211476   3.988   0.888   4.188
 3824TIP3   OH211477   3.904   0.489   4.068
 3824TIP3    H111478   3.844   0.537   4.010
 3824TIP3    H211479   3.865   0.400   4.069
 3825TIP3   OH211480   3.887   0.777   4.632
 3825TIP3    H111481   3.884   0.680   4.621
 3825TIP3    H211482   3.868   0.787   4.728
 3826TIP3   OH211483   2.511   0.841   5.382
 3826TIP3    H111484   2.504   0.799   5.293
 3826TIP3    H211485   2.608   0.837   5.397
 3827TIP3   OH211486   4.173   1.200   5.492
 3827TIP3    H111487   4.240   1.132   5.471
 3827TIP3    H211488   4.188   1.267   5.424
 3828TIP3   OH211489   4.346   0.995   5.474
 3828TIP3    H111490   4.276   0.949   5.526
 3828TIP3    H211491   4.419   0.932   5.490
 3829TIP3   OH211492   3.800   0.235   4.159
 3829TIP3    H111493   3.799   0.254   4.255
 3829TIP3    H211494   3.707   0.214   4.146
 3830TIP3   OH211495   3.876   0.501   4.521
 3830TIP3    H111496   3.875   0.407   4.494
 3830TIP3    H211497   3.944   0.536   4.461
 3831TIP3   OH211498   4.037   0.646   5.026
 3831TIP3    H111499   4.123   0.667   4.983
 3831TIP3    H211500   4.048   0.692   5.111
 3832TIP3   OH211501   4.093   0.816   5.249
 3832TIP3    H111502   4.016   0.854   5.296
 3832TIP3    H211503   4.130   0.895   5.205
 3833TIP3   OH211504   2.686   0.217   5.384
 3833TIP3    H111505   2.762   0.161   5.355
 3833TIP3    H211506   2.729   0.303   5.387
 3834TIP3   OH211507   2.487   0.481   5.453
 3834TIP3    H111508   2.540   0.500   5.373
 3834TIP3    H211509   2.506   0.558   5.509
 3835TIP3   OH211510   3.640   1.695   4.466
 3835TIP3    H111511   3.698   1.695   4.387
 3835TIP3    H211512   3.681   1.765   4.521
 3836TIP3   OH211513   2.745   1.517   5.851
 3836TIP3    H111514   2.656   1.480   5.836
 3836TIP3    H211515   2.744   1.523   5.949
 3837TIP3   OH211516   2.928   1.542   5.397
 3837TIP3    H111517   2.879   1.619   5.360
 3837TIP3    H211518   3.012   1.556   5.349
 3838TIP3   OH211519   3.351   1.772   5.530
 3838TIP3    H111520   3.392   1.772   5.619
 3838TIP3    H211521   3.415   1.828   5.481
 3839TIP3   OH211522   3.533   1.935   5.406
 3839TIP3    H111523   3.602   1.890   5.355
 3839TIP3    H211524   3.588   1.993   5.463
 3840TIP3   OH211525   2.596   1.789   5.431
 3840TIP3    H111526   2.503   1.813   5.411
 3840TIP3    H211527   2.617   1.857   5.497
 3841TIP3   OH211528   2.829   1.770   5.286
 3841TIP3    H111529   2.741   1.779   5.328
 3841TIP3    H211530   2.810   1.802   5.195
 3842TIP3   OH211531   3.255   1.790   5.082
 3842TIP3    H111532   3.183   1.807   5.017
 3842TIP3    H211533   3.266   1.879   5.122
 3843TIP3   OH211534   3.524   1.728   5.136
 3843TIP3    H111535   3.430   1.749   5.118
 3843TIP3    H211536   3.570   1.798   5.086
 3844TIP3   OH211537   3.722   1.916   5.040
 3844TIP3    H111538   3.713   2.002   4.995
 3844TIP3    H211539   3.751   1.859   4.965
 3845TIP3   OH211540   2.503   1.578   5.163
 3845TIP3    H111541   2.530   1.546   5.251
 3845TIP3    H211542   2.578   1.542   5.110
 3846TIP3   OH211543   2.705   1.459   5.030
 3846TIP3    H111544   2.718   1.375   5.079
 3846TIP3    H211545   2.797   1.494   5.030
 3847TIP3   OH211546   2.973   1.541   5.041
 3847TIP3    H111547   2.998   1.446   5.037
 3847TIP3    H211548   3.028   1.569   5.117
 3848TIP3   OH211549   2.289   1.371   4.551
 3848TIP3    H111550   2.202   1.339   4.519
 3848TIP3    H211551   2.287   1.462   4.513
 3849TIP3   OH211552   3.069   1.527   4.141
 3849TIP3    H111553   3.155   1.555   4.101
 3849TIP3    H211554   3.046   1.454   4.080
 3850TIP3   OH211555   3.795   1.668   4.236
 3850TIP3    H111556   3.787   1.570   4.227
 3850TIP3    H211557   3.743   1.698   4.158
 3851TIP3   OH211558   2.367   1.371   4.189
 3851TIP3    H111559   2.378   1.386   4.284
 3851TIP3    H211560   2.451   1.324   4.167
 3852TIP3   OH211561   4.004   1.802   5.418
 3852TIP3    H111562   3.926   1.775   5.365
 3852TIP3    H211563   3.986   1.898   5.428
 3853TIP3   OH211564   5.280   1.191   4.172
 3853TIP3    H111565   5.243   1.278   4.145
 3853TIP3    H211566   5.206   1.133   4.146
 3854TIP3   OH211567   5.279   1.182   4.575
 3854TIP3    H111568   5.323   1.168   4.661
 3854TIP3    H211569   5.238   1.095   4.560
 3855TIP3   OH211570   4.569   1.066   4.929
 3855TIP3    H111571   4.604   0.996   4.988
 3855TIP3    H211572   4.646   1.125   4.924
 3856TIP3   OH211573   5.531   1.493   4.253
 3856TIP3    H111574   5.506   1.429   4.321
 3856TIP3    H211575   5.560   1.569   4.306
 3857TIP3   OH211576   4.557   1.484   4.645
 3857TIP3    H111577   4.546   1.387   4.645
 3857TIP3    H211578   4.654   1.492   4.639
 3858TIP3   OH211579   4.253   0.705   4.421
 3858TIP3    H111580   4.196   0.782   4.443
 3858TIP3    H211581   4.187   0.645   4.384
 3859TIP3   OH211582   4.312   0.974   4.627
 3859TIP3    H111583   4.366   0.895   4.649
 3859TIP3    H211584   4.373   1.028   4.575
 3860TIP3   OH211585   5.188   1.942   4.267
 3860TIP3    H111586   5.222   1.867   4.215
 3860TIP3    H211587   5.158   1.899   4.348
 3861TIP3   OH211588   5.074   1.406   4.610
 3861TIP3    H111589   5.119   1.329   4.572
 3861TIP3    H211590   5.153   1.456   4.640
 3862TIP3   OH211591   6.084   0.721   4.579
 3862TIP3    H111592   6.126   0.798   4.623
 3862TIP3    H211593   6.122   0.728   4.490
 3863TIP3   OH211594   5.488   0.896   4.646
 3863TIP3    H111595   5.516   0.811   4.681
 3863TIP3    H211596   5.460   0.874   4.555
 3864TIP3   OH211597   4.841   0.566   4.620
 3864TIP3    H111598   4.806   0.617   4.544
 3864TIP3    H211599   4.837   0.474   4.588
 3865TIP3   OH211600   5.525   0.646   4.243
 3865TIP3    H111601   5.595   0.634   4.312
 3865TIP3    H211602   5.578   0.688   4.173
 3866TIP3   OH211603   4.464   0.763   4.718
 3866TIP3    H111604   4.550   0.750   4.764
 3866TIP3    H211605   4.478   0.706   4.639
 3867TIP3   OH211606   4.892   0.964   4.516
 3867TIP3    H111607   4.989   0.950   4.520
 3867TIP3    H211608   4.859   0.877   4.487
 3868TIP3   OH211609   6.141   0.927   4.762
 3868TIP3    H111610   6.059   0.974   4.734
 3868TIP3    H211611   6.103   0.875   4.836
 3869TIP3   OH211612   4.777   0.499   5.033
 3869TIP3    H111613   4.740   0.560   4.966
 3869TIP3    H211614   4.765   0.548   5.114
 3870TIP3   OH211615   5.179   1.412   4.033
 3870TIP3    H111616   5.136   1.395   3.947
 3870TIP3    H211617   5.122   1.485   4.067
 3871TIP3   OH211618   4.930   1.329   4.828
 3871TIP3    H111619   4.874   1.403   4.861
 3871TIP3    H211620   4.976   1.372   4.752
 3872TIP3   OH211621   5.717   0.659   4.432
 3872TIP3    H111622   5.733   0.600   4.508
 3872TIP3    H211623   5.763   0.741   4.460
 3873TIP3   OH211624   4.699   0.666   4.831
 3873TIP3    H111625   4.759   0.739   4.854
 3873TIP3    H211626   4.749   0.625   4.756
 3874TIP3   OH211627   4.767   1.530   4.932
 3874TIP3    H111628   4.742   1.620   4.901
 3874TIP3    H211629   4.686   1.509   4.983
 3875TIP3   OH211630   4.142   1.214   4.169
 3875TIP3    H111631   4.101   1.240   4.084
 3875TIP3    H211632   4.171   1.302   4.203
 3876TIP3   OH211633   5.589   1.731   4.403
 3876TIP3    H111634   5.501   1.723   4.447
 3876TIP3    H211635   5.580   1.820   4.361
 3877TIP3   OH211636   5.291   1.762   4.072
 3877TIP3    H111637   5.346   1.682   4.060
 3877TIP3    H211638   5.353   1.831   4.038
 3878TIP3   OH211639   5.426   1.520   4.000
 3878TIP3    H111640   5.340   1.477   4.021
 3878TIP3    H211641   5.475   1.505   4.084
 3879TIP3   OH211642   5.808   1.630   4.753
 3879TIP3    H111643   5.793   1.555   4.692
 3879TIP3    H211644   5.790   1.707   4.694
 3880TIP3   OH211645   5.110   1.029   4.025
 3880TIP3    H111646   5.027   1.079   4.008
 3880TIP3    H211647   5.151   1.029   3.937
 3881TIP3   OH211648   5.063   0.827   3.722
 3881TIP3    H111649   5.132   0.874   3.773
 3881TIP3    H211650   5.120   0.772   3.664
 3882TIP3   OH211651   6.011   1.284   4.604
 3882TIP3    H111652   5.925   1.332   4.605
 3882TIP3    H211653   6.039   1.300   4.511
 3883TIP3   OH211654   5.455   1.112   3.979
 3883TIP3    H111655   5.402   1.140   4.057
 3883TIP3    H211656   5.542   1.096   4.022
 3884TIP3   OH211657   5.679   1.162   4.879
 3884TIP3    H111658   5.667   1.243   4.932
 3884TIP3    H211659   5.591   1.157   4.836
 3885TIP3   OH211660   4.687   1.106   4.401
 3885TIP3    H111661   4.649   1.047   4.333
 3885TIP3    H211662   4.762   1.054   4.435
 3886TIP3   OH211663   4.821   1.524   4.544
 3886TIP3    H111664   4.803   1.501   4.451
 3886TIP3    H211665   4.908   1.483   4.559
 3887TIP3   OH211666   4.816   1.089   4.754
 3887TIP3    H111667   4.851   1.059   4.666
 3887TIP3    H211668   4.864   1.173   4.768
 3888TIP3   OH211669   5.357   1.720   4.538
 3888TIP3    H111670   5.339   1.802   4.588
 3888TIP3    H211671   5.334   1.649   4.601
 3889TIP3   OH211672   4.965   1.636   5.085
 3889TIP3    H111673   4.901   1.696   5.129
 3889TIP3    H211674   4.904   1.584   5.030
 3890TIP3   OH211675   5.294   0.962   3.815
 3890TIP3    H111676   5.353   1.023   3.865
 3890TIP3    H211677   5.324   0.980   3.722
 3891TIP3   OH211678   4.716   1.189   5.196
 3891TIP3    H111679   4.721   1.282   5.228
 3891TIP3    H211680   4.621   1.170   5.212
 3892TIP3   OH211681   5.048   1.641   4.088
 3892TIP3    H111682   5.129   1.695   4.082
 3892TIP3    H211683   4.983   1.695   4.042
 3893TIP3   OH211684   4.757   1.794   5.172
 3893TIP3    H111685   4.723   1.807   5.081
 3893TIP3    H211686   4.674   1.774   5.222
 3894TIP3   OH211687   4.558   0.953   4.197
 3894TIP3    H111688   4.484   1.000   4.152
 3894TIP3    H211689   4.518   0.867   4.215
 3895TIP3   OH211690   5.615   1.576   3.419
 3895TIP3    H111691   5.621   1.672   3.398
 3895TIP3    H211692   5.708   1.547   3.402
 3896TIP3   OH211693   4.335   1.342   5.118
 3896TIP3    H111694   4.263   1.328   5.052
 3896TIP3    H211695   4.372   1.252   5.128
 3897TIP3   OH211696   4.187   1.533   4.751
 3897TIP3    H111697   4.283   1.543   4.752
 3897TIP3    H211698   4.159   1.613   4.798
 3898TIP3   OH211699   6.057   1.997   4.814
 3898TIP3    H111700   6.050   1.900   4.824
 3898TIP3    H211701   5.973   2.023   4.858
 3899TIP3   OH211702   5.158   1.764   4.943
 3899TIP3    H111703   5.150   1.857   4.973
 3899TIP3    H211704   5.086   1.722   4.995
 3900TIP3   OH211705   4.933   1.892   3.893
 3900TIP3    H111706   4.878   1.876   3.815
 3900TIP3    H211707   4.894   1.974   3.928
 3901TIP3   OH211708   4.363   1.739   4.279
 3901TIP3    H111709   4.406   1.732   4.367
 3901TIP3    H211710   4.315   1.655   4.273
 3902TIP3   OH211711   5.123   1.801   3.525
 3902TIP3    H111712   5.179   1.728   3.490
 3902TIP3    H211713   5.159   1.812   3.615
 3903TIP3   OH211714   5.181   1.849   3.793
 3903TIP3    H111715   5.092   1.859   3.832
 3903TIP3    H211716   5.232   1.818   3.870
 3904TIP3   OH211717   5.914   1.120   5.078
 3904TIP3    H111718   5.837   1.160   5.035
 3904TIP3    H211719   5.985   1.132   5.012
 3905TIP3   OH211720   4.542   1.519   5.089
 3905TIP3    H111721   4.586   1.508   5.175
 3905TIP3    H211722   4.465   1.460   5.098
 3906TIP3   OH211723   5.706   0.890   4.949
 3906TIP3    H111724   5.653   0.884   5.031
 3906TIP3    H211725   5.698   0.984   4.926
 3907TIP3   OH211726   5.385   1.003   3.566
 3907TIP3    H111727   5.342   0.994   3.479
 3907TIP3    H211728   5.472   1.040   3.541
 3908TIP3   OH211729   4.877   0.864   4.901
 3908TIP3    H111730   4.827   0.887   4.982
 3908TIP3    H211731   4.854   0.942   4.845
 3909TIP3   OH211732   4.748   0.738   4.428
 3909TIP3    H111733   4.654   0.713   4.443
 3909TIP3    H211734   4.762   0.699   4.339
 3910TIP3   OH211735   5.243   0.819   4.155
 3910TIP3    H111736   5.197   0.894   4.111
 3910TIP3    H211737   5.292   0.779   4.081
 3911TIP3   OH211738   5.408   1.130   5.210
 3911TIP3    H111739   5.401   1.059   5.277
 3911TIP3    H211740   5.486   1.178   5.239
 3912TIP3   OH211741   5.407   0.851   4.386
 3912TIP3    H111742   5.336   0.875   4.323
 3912TIP3    H211743   5.441   0.771   4.341
 3913TIP3   OH211744   4.714   0.909   5.107
 3913TIP3    H111745   4.720   0.985   5.168
 3913TIP3    H211746   4.702   0.834   5.169
 3914TIP3   OH211747   4.769   0.439   3.832
 3914TIP3    H111748   4.743   0.449   3.925
 3914TIP3    H211749   4.700   0.495   3.791
 3915TIP3   OH211750   4.322   0.404   4.645
 3915TIP3    H111751   4.343   0.462   4.720
 3915TIP3    H211752   4.343   0.318   4.683
 3916TIP3   OH211753   4.285   0.420   4.253
 3916TIP3    H111754   4.295   0.461   4.165
 3916TIP3    H211755   4.204   0.464   4.281
 3917TIP3   OH211756   5.413   1.106   4.796
 3917TIP3    H111757   5.443   1.032   4.736
 3917TIP3    H211758   5.376   1.053   4.869
 3918TIP3   OH211759   5.096   0.597   4.507
 3918TIP3    H111760   5.012   0.597   4.556
 3918TIP3    H211761   5.158   0.574   4.580
 3919TIP3   OH211762   4.502   0.626   4.478
 3919TIP3    H111763   4.415   0.664   4.450
 3919TIP3    H211764   4.478   0.533   4.477
 3920TIP3   OH211765   4.786   0.607   4.193
 3920TIP3    H111766   4.881   0.628   4.183
 3920TIP3    H211767   4.744   0.647   4.113
 3921TIP3   OH211768   4.655   0.683   3.969
 3921TIP3    H111769   4.581   0.644   3.918
 3921TIP3    H211770   4.707   0.720   3.894
 3922TIP3   OH211771   5.758   2.330   4.911
 3922TIP3    H111772   5.751   2.358   4.819
 3922TIP3    H211773   5.838   2.378   4.940
 3923TIP3   OH211774   4.703   1.439   5.324
 3923TIP3    H111775   4.782   1.469   5.373
 3923TIP3    H211776   4.636   1.442   5.394
 3924TIP3   OH211777   5.160   0.922   4.575
 3924TIP3    H111778   5.215   0.853   4.535
 3924TIP3    H211779   5.151   0.889   4.667
 3925TIP3   OH211780   5.144   0.835   4.837
 3925TIP3    H111781   5.053   0.853   4.867
 3925TIP3    H211782   5.197   0.884   4.902
 3926TIP3   OH211783   4.879   1.175   3.969
 3926TIP3    H111784   4.803   1.115   3.951
 3926TIP3    H211785   4.853   1.213   4.056
 3927TIP3   OH211786   5.771   1.415   4.582
 3927TIP3    H111787   5.791   1.468   4.502
 3927TIP3    H211788   5.687   1.371   4.555
 3928TIP3   OH211789   5.296   0.534   3.764
 3928TIP3    H111790   5.260   0.482   3.837
 3928TIP3    H211791   5.348   0.599   3.816
 3929TIP3   OH211792   5.271   1.502   4.968
 3929TIP3    H111793   5.317   1.496   5.052
 3929TIP3    H211794   5.234   1.592   4.970
 3930TIP3   OH211795   5.408   0.736   3.922
 3930TIP3    H111796   5.498   0.759   3.949
 3930TIP3    H211797   5.377   0.818   3.879
 3931TIP3   OH211798   4.572   1.207   4.633
 3931TIP3    H111799   4.611   1.178   4.547
 3931TIP3    H211800   4.627   1.159   4.696
 3932TIP3   OH211801   5.024   1.334   3.801
 3932TIP3    H111802   4.972   1.418   3.798
 3932TIP3    H211803   4.967   1.278   3.858
 3933TIP3   OH211804   4.460   1.121   5.250
 3933TIP3    H111805   4.466   1.106   5.347
 3933TIP3    H211806   4.383   1.064   5.229
 3934TIP3   OH211807   5.168   1.258   5.275
 3934TIP3    H111808   5.097   1.196   5.246
 3934TIP3    H211809   5.247   1.216   5.234
 3935TIP3   OH211810   5.426   1.766   4.863
 3935TIP3    H111811   5.330   1.765   4.878
 3935TIP3    H211812   5.456   1.820   4.940
 3936TIP3   OH211813   5.854   0.857   3.752
 3936TIP3    H111814   5.791   0.786   3.734
 3936TIP3    H211815   5.845   0.902   3.666
 3937TIP3   OH211816   6.055   1.717   4.841
 3937TIP3    H111817   5.959   1.696   4.836
 3937TIP3    H211818   6.085   1.675   4.758
 3938TIP3   OH211819   5.557   1.658   3.686
 3938TIP3    H111820   5.495   1.605   3.736
 3938TIP3    H211821   5.563   1.612   3.600
 3939TIP3   OH211822   5.539   1.285   4.493
 3939TIP3    H111823   5.445   1.261   4.511
 3939TIP3    H211824   5.570   1.203   4.450
 3940TIP3   OH211825   4.674   1.516   4.267
 3940TIP3    H111826   4.664   1.595   4.211
 3940TIP3    H211827   4.583   1.498   4.291
 3941TIP3   OH211828   4.246   0.817   3.984
 3941TIP3    H111829   4.285   0.904   4.005
 3941TIP3    H211830   4.165   0.819   4.039
 3942TIP3   OH211831   4.792   1.274   4.203
 3942TIP3    H111832   4.760   1.364   4.224
 3942TIP3    H211833   4.757   1.223   4.280
 3943TIP3   OH211834   4.949   1.852   4.732
 3943TIP3    H111835   4.989   1.925   4.681
 3943TIP3    H211836   5.026   1.814   4.776
 3944TIP3   OH211837   4.589   1.747   4.119
 3944TIP3    H111838   4.503   1.759   4.164
 3944TIP3    H211839   4.624   1.839   4.122
 3945TIP3   OH211840   5.318   1.491   4.699
 3945TIP3    H111841   5.305   1.490   4.797
 3945TIP3    H211842   5.399   1.439   4.692
 3946TIP3   OH211843   5.306   1.388   3.572
 3946TIP3    H111844   5.358   1.352   3.648
 3946TIP3    H211845   5.217   1.353   3.591
 3947TIP3   OH211846   5.576   2.012   4.740
 3947TIP3    H111847   5.493   1.960   4.738
 3947TIP3    H211848   5.557   2.077   4.669
 3948TIP3   OH211849   5.640   1.852   3.393
 3948TIP3    H111850   5.669   1.925   3.336
 3948TIP3    H211851   5.561   1.893   3.434
 3949TIP3   OH211852   4.702   0.684   5.262
 3949TIP3    H111853   4.637   0.609   5.253
 3949TIP3    H211854   4.755   0.654   5.338
 3950TIP3   OH211855   5.464   1.306   3.782
 3950TIP3    H111856   5.454   1.229   3.842
 3950TIP3    H211857   5.487   1.376   3.845
 3951TIP3   OH211858   4.384   1.714   4.885
 3951TIP3    H111859   4.440   1.654   4.938
 3951TIP3    H211860   4.397   1.799   4.931
 3952TIP3   OH211861   4.671   1.359   3.579
 3952TIP3    H111862   4.676   1.264   3.557
 3952TIP3    H211863   4.645   1.355   3.673
 3953TIP3   OH211864   4.606   1.368   3.848
 3953TIP3    H111865   4.679   1.343   3.907
 3953TIP3    H211866   4.606   1.466   3.857
 3954TIP3   OH211867   4.340   1.061   4.061
 3954TIP3    H111868   4.271   1.106   4.115
 3954TIP3    H211869   4.350   1.126   3.989
 3955TIP3   OH211870   4.239   6.910   3.643
 3955TIP3    H111871   4.293   6.987   3.667
 3955TIP3    H211872   4.273   6.843   3.703
 3956TIP3   OH211873   5.383   0.472   4.059
 3956TIP3    H111874   5.460   0.496   4.005
 3956TIP3    H211875   5.395   0.531   4.135
 3957TIP3   OH211876   4.883   1.564   3.799
 3957TIP3    H111877   4.794   1.582   3.834
 3957TIP3    H211878   4.895   1.643   3.743
 3958TIP3   OH211879   5.060   0.617   4.231
 3958TIP3    H111880   5.123   0.689   4.212
 3958TIP3    H211881   5.075   0.606   4.328
 3959TIP3   OH211882   5.334   0.952   5.005
 3959TIP3    H111883   5.347   1.021   5.074
 3959TIP3    H211884   5.395   0.884   5.039
 3960TIP3   OH211885   4.631   1.638   3.872
 3960TIP3    H111886   4.602   1.709   3.811
 3960TIP3    H211887   4.614   1.679   3.960
 3961TIP3   OH211888   4.695   0.369   4.096
 3961TIP3    H111889   4.726   0.448   4.146
 3961TIP3    H211890   4.764   0.303   4.116
 3962TIP3   OH211891   5.985   0.820   4.956
 3962TIP3    H111892   5.900   0.867   4.969
 3962TIP3    H211893   5.955   0.741   4.907
 3963TIP3   OH211894   5.624   1.039   4.379
 3963TIP3    H111895   5.547   0.981   4.391
 3963TIP3    H211896   5.694   0.990   4.427
 3964TIP3   OH211897   4.344   1.251   3.857
 3964TIP3    H111898   4.417   1.316   3.862
 3964TIP3    H211899   4.384   1.189   3.792
 3965TIP3   OH211900   4.277   0.547   4.013
 3965TIP3    H111901   4.286   0.644   4.019
 3965TIP3    H211902   4.220   0.541   3.936
 3966TIP3   OH211903   5.599   2.000   4.330
 3966TIP3    H111904   5.556   2.047   4.255
 3966TIP3    H211905   5.694   2.018   4.311
 3967TIP3   OH211906   4.193   1.476   4.237
 3967TIP3    H111907   4.150   1.509   4.318
 3967TIP3    H211908   4.148   1.529   4.167
 3968TIP3   OH211909   4.377   2.043   5.313
 3968TIP3    H111910   4.463   2.045   5.362
 3968TIP3    H211911   4.357   1.948   5.313
 3969TIP3   OH211912   4.842   1.969   5.366
 3969TIP3    H111913   4.938   1.959   5.364
 3969TIP3    H211914   4.815   1.907   5.295
 3970TIP3   OH211915   4.827   1.560   3.478
 3970TIP3    H111916   4.777   1.486   3.519
 3970TIP3    H211917   4.903   1.512   3.440
 3971TIP3   OH211918   5.486   1.901   5.092
 3971TIP3    H111919   5.485   1.832   5.162
 3971TIP3    H211920   5.561   1.957   5.119
 3972TIP3   OH211921   5.262   1.596   3.404
 3972TIP3    H111922   5.291   1.524   3.464
 3972TIP3    H211923   5.321   1.585   3.327
 3973TIP3   OH211924   4.499   1.436   5.514
 3973TIP3    H111925   4.504   1.341   5.534
 3973TIP3    H211926   4.413   1.441   5.467
 3974TIP3   OH211927   4.483   1.068   3.717
 3974TIP3    H111928   4.544   1.049   3.791
 3974TIP3    H211929   4.548   1.076   3.644
 3975TIP3   OH211930   5.105   1.529   5.292
 3975TIP3    H111931   5.062   1.554   5.207
 3975TIP3    H211932   5.132   1.437   5.275
 3976TIP3   OH211933   5.025   1.283   3.530
 3976TIP3    H111934   5.010   1.293   3.626
 3976TIP3    H211935   5.017   1.186   3.519
 3977TIP3   OH211936   5.587   1.545   4.892
 3977TIP3    H111937   5.664   1.585   4.847
 3977TIP3    H211938   5.520   1.616   4.877
 3978TIP3   OH211939   4.639   1.162   5.506
 3978TIP3    H111940   4.725   1.158   5.463
 3978TIP3    H211941   4.662   1.195   5.595
 3979TIP3   OH211942   4.675   0.995   3.925
 3979TIP3    H111943   4.647   0.957   4.011
 3979TIP3    H211944   4.718   0.918   3.881
 3980TIP3   OH211945   4.965   1.091   5.202
 3980TIP3    H111946   4.880   1.133   5.176
 3980TIP3    H211947   5.012   1.090   5.115
 3981TIP3   OH211948   4.796   0.793   3.767
 3981TIP3    H111949   4.769   0.805   3.673
 3981TIP3    H211950   4.893   0.796   3.758
 3982TIP3   OH211951   5.466   1.461   5.281
 3982TIP3    H111952   5.555   1.433   5.254
 3982TIP3    H211953   5.450   1.405   5.359
 3983TIP3   OH211954   5.616   1.105   3.450
 3983TIP3    H111955   5.596   1.067   3.362
 3983TIP3    H211956   5.582   1.196   3.436
 3984TIP3   OH211957   5.098   0.864   5.327
 3984TIP3    H111958   5.002   0.865   5.310
 3984TIP3    H211959   5.106   0.929   5.400
 3985TIP3   OH211960   4.999   0.660   5.110
 3985TIP3    H111961   5.090   0.650   5.046
 3985TIP3    H211962   4.952   0.705   5.048
 3986TIP3   OH211963   5.093   1.157   4.968
 3986TIP3    H111964   5.180   1.181   4.934
 3986TIP3    H211965   5.036   1.223   4.923
 3987TIP3   OH211966   5.719   1.382   5.058
 3987TIP3    H111967   5.660   1.441   5.005
 3987TIP3    H211968   5.805   1.398   5.013
 3988TIP3   OH211969   4.941   1.026   5.490
 3988TIP3    H111970   4.874   0.956   5.507
 3988TIP3    H211971   4.922   1.055   5.399
 3989TIP3   OH211972   5.355   0.902   5.347
 3989TIP3    H111973   5.321   0.911   5.439
 3989TIP3    H211974   5.269   0.874   5.305
 3990TIP3   OH211975   5.535   0.836   5.160
 3990TIP3    H111976   5.474   0.863   5.232
 3990TIP3    H211977   5.602   0.788   5.212
 3991TIP3   OH211978   4.764   0.817   5.540
 3991TIP3    H111979   4.805   0.729   5.528
 3991TIP3    H211980   4.758   0.822   5.638
 3992TIP3   OH211981   4.603   1.840   3.685
 3992TIP3    H111982   4.696   1.825   3.659
 3992TIP3    H211983   4.574   1.896   3.610
 3993TIP3   OH211984   4.073   1.224   3.888
 3993TIP3    H111985   4.169   1.243   3.875
 3993TIP3    H211986   4.065   1.136   3.845
 3994TIP3   OH211987   4.000   1.831   4.317
 3994TIP3    H111988   3.933   1.774   4.272
 3994TIP3    H211989   4.041   1.765   4.377
 3995TIP3   OH211990   4.131   1.663   4.497
 3995TIP3    H111991   4.113   1.605   4.573
 3995TIP3    H211992   4.183   1.733   4.541
 3996TIP3   OH211993   5.863   2.069   4.304
 3996TIP3    H111994   5.879   2.103   4.395
 3996TIP3    H211995   5.920   2.125   4.251
 3997TIP3   OH211996   5.878   2.102   4.583
 3997TIP3    H111997   5.833   2.015   4.584
 3997TIP3    H211998   5.956   2.081   4.637
 3998TIP3   OH211999   5.940   1.780   5.154
 3998TIP3    H112000   5.863   1.799   5.211
 3998TIP3    H212001   5.982   1.868   5.149
 3999TIP3   OH212002   5.938   1.559   4.405
 3999TIP3    H112003   5.982   1.489   4.356
 3999TIP3    H212004   5.941   1.635   4.343
 4000TIP3   OH212005   5.751   1.853   4.598
 4000TIP3    H112006   5.680   1.897   4.649
 4000TIP3    H212007   5.702   1.813   4.523
 4001TIP3   OH212008   5.687   0.756   3.551
 4001TIP3    H112009   5.632   0.789   3.479
 4001TIP3    H212010   5.649   0.667   3.566
 4002TIP3   OH212011   5.686   1.034   4.108
 4002TIP3    H112012   5.680   0.938   4.101
 4002TIP3    H212013   5.672   1.049   4.204
 4003TIP3   OH212014   4.305   1.087   4.875
 4003TIP3    H112015   4.299   1.050   4.784
 4003TIP3    H212016   4.403   1.089   4.886
 4004TIP3   OH212017   5.971   1.415   4.953
 4004TIP3    H112018   6.052   1.363   4.966
 4004TIP3    H212019   5.994   1.471   4.878
 4005TIP3   OH212020   5.578   0.514   3.637
 4005TIP3    H112021   5.620   0.471   3.712
 4005TIP3    H212022   5.495   0.466   3.633
 4006TIP3   OH212023   5.669   0.754   4.020
 4006TIP3    H112024   5.664   0.660   3.990
 4006TIP3    H212025   5.755   0.780   3.983
 4007TIP3   OH212026   5.832   0.900   4.500
 4007TIP3    H112027   5.919   0.917   4.458
 4007TIP3    H212028   5.847   0.939   4.588
 4008TIP3   OH212029   5.905   1.061   4.719
 4008TIP3    H112030   5.827   1.093   4.768
 4008TIP3    H212031   5.942   1.144   4.684
 4009TIP3   OH212032   4.489   0.773   5.525
 4009TIP3    H112033   4.585   0.775   5.507
 4009TIP3    H212034   4.489   0.752   5.620
 4010TIP3   OH212035   4.481   0.468   4.873
 4010TIP3    H112036   4.558   0.414   4.844
 4010TIP3    H212037   4.524   0.554   4.880
 4011TIP3   OH212038   4.286   0.738   4.940
 4011TIP3    H112039   4.336   0.752   4.857
 4011TIP3    H212040   4.303   0.821   4.987
 4012TIP3   OH212041   5.442   1.948   3.954
 4012TIP3    H112042   5.497   1.953   3.874
 4012TIP3    H212043   5.478   2.021   4.009
 4013TIP3   OH212044   4.535   1.755   5.330
 4013TIP3    H112045   4.439   1.743   5.320
 4013TIP3    H212046   4.546   1.745   5.425
 4014TIP3   OH212047   4.725   1.800   4.886
 4014TIP3    H112048   4.674   1.875   4.849
 4014TIP3    H212049   4.809   1.815   4.836
 4015TIP3   OH212050   5.149   2.029   5.020
 4015TIP3    H112051   5.190   2.028   5.109
 4015TIP3    H212052   5.213   2.085   4.971
 4016TIP3   OH212053   5.329   2.192   4.891
 4016TIP3    H112054   5.398   2.143   4.844
 4016TIP3    H212055   5.383   2.250   4.948
 4017TIP3   OH212056   4.392   2.046   4.919
 4017TIP3    H112057   4.298   2.067   4.897
 4017TIP3    H212058   4.410   2.117   4.983
 4018TIP3   OH212059   4.625   2.028   4.773
 4018TIP3    H112060   4.537   2.036   4.816
 4018TIP3    H212061   4.605   2.059   4.682
 4019TIP3   OH212062   5.051   2.047   4.567
 4019TIP3    H112063   4.976   2.062   4.506
 4019TIP3    H212064   5.061   2.135   4.608
 4020TIP3   OH212065   5.320   1.985   4.622
 4020TIP3    H112066   5.226   2.005   4.603
 4020TIP3    H212067   5.365   2.055   4.572
 4021TIP3   OH212068   5.519   2.174   4.526
 4021TIP3    H112069   5.508   2.260   4.481
 4021TIP3    H212070   5.548   2.117   4.452
 4022TIP3   OH212071   4.302   1.837   4.645
 4022TIP3    H112072   4.324   1.803   4.734
 4022TIP3    H212073   4.378   1.798   4.595
 4023TIP3   OH212074   4.503   1.714   4.514
 4023TIP3    H112075   4.515   1.630   4.565
 4023TIP3    H212076   4.595   1.749   4.515
 4024TIP3   OH212077   4.770   1.798   4.527
 4024TIP3    H112078   4.795   1.703   4.524
 4024TIP3    H212079   4.825   1.825   4.603
 4025TIP3   OH212080   4.086   1.626   4.034
 4025TIP3    H112081   3.998   1.597   4.005
 4025TIP3    H212082   4.084   1.717   3.996
 4026TIP3   OH212083   4.866   1.784   3.626
 4026TIP3    H112084   4.951   1.812   3.587
 4026TIP3    H212085   4.842   1.711   3.565
 4027TIP3   OH212086   5.593   1.926   3.722
 4027TIP3    H112087   5.587   1.828   3.713
 4027TIP3    H212088   5.540   1.955   3.644
 4028TIP3   OH212089   4.163   1.627   3.675
 4028TIP3    H112090   4.169   1.646   3.770
 4028TIP3    H212091   4.249   1.581   3.658
 4029TIP3   OH212092   5.803   2.058   4.902
 4029TIP3    H112093   5.725   2.031   4.849
 4029TIP3    H212094   5.784   2.154   4.913
 4030TIP3   OH212095   6.367   1.362   4.401
 4030TIP3    H112096   6.418   1.284   4.426
 4030TIP3    H212097   6.393   1.425   4.473
 4031TIP3   OH212098   6.318   1.746   4.125
 4031TIP3    H112099   6.318   1.654   4.155
 4031TIP3    H212100   6.413   1.766   4.134
 4032TIP3   OH212101   6.134   1.205   4.031
 4032TIP3    H112102   6.168   1.132   4.087
 4032TIP3    H212103   6.202   1.271   4.054
 4033TIP3   OH212104   6.280   1.048   4.198
 4033TIP3    H112105   6.370   1.081   4.210
 4033TIP3    H212106   6.293   0.981   4.126
 4034TIP3   OH212107   6.508   1.743   4.392
 4034TIP3    H112108   6.487   1.838   4.381
 4034TIP3    H212109   6.447   1.723   4.466
 4035TIP3   OH212110   5.959   1.449   3.674
 4035TIP3    H112111   5.893   1.468   3.606
 4035TIP3    H212112   5.980   1.541   3.702
 4036TIP3   OH212113   6.432   1.494   4.625
 4036TIP3    H112114   6.459   1.567   4.685
 4036TIP3    H212115   6.376   1.441   4.685
 4037TIP3   OH212116   6.446   2.134   4.663
 4037TIP3    H112117   6.450   2.097   4.573
 4037TIP3    H212118   6.410   2.061   4.715
 4038TIP3   OH212119   6.118   1.587   4.612
 4038TIP3    H112120   6.049   1.575   4.543
 4038TIP3    H212121   6.153   1.497   4.624
 4039TIP3   OH212122   5.987   1.789   4.238
 4039TIP3    H112123   6.083   1.803   4.232
 4039TIP3    H212124   5.960   1.867   4.289
 4040TIP3   OH212125   6.136   1.996   3.780
 4040TIP3    H112126   6.197   2.002   3.857
 4040TIP3    H212127   6.071   1.932   3.812
 4041TIP3   OH212128   6.308   1.782   4.583
 4041TIP3    H112129   6.352   1.771   4.669
 4041TIP3    H212130   6.237   1.714   4.589
 4042TIP3   OH212131   6.126   0.678   4.128
 4042TIP3    H112132   6.172   0.718   4.205
 4042TIP3    H212133   6.107   0.590   4.161
 4043TIP3   OH212134   6.062   0.667   3.756
 4043TIP3    H112135   6.095   0.682   3.665
 4043TIP3    H212136   6.004   0.745   3.764
 4044TIP3   OH212137   6.281   0.853   3.998
 4044TIP3    H112138   6.198   0.801   4.004
 4044TIP3    H212139   6.339   0.794   4.046
 4045TIP3   OH212140   6.470   1.706   4.808
 4045TIP3    H112141   6.552   1.757   4.797
 4045TIP3    H212142   6.420   1.762   4.871
 4046TIP3   OH212143   6.323   1.368   4.132
 4046TIP3    H112144   6.392   1.427   4.097
 4046TIP3    H212145   6.352   1.363   4.225
 4047TIP3   OH212146   6.232   1.363   4.760
 4047TIP3    H112147   6.237   1.349   4.856
 4047TIP3    H212148   6.161   1.302   4.732
 4048TIP3   OH212149   6.395   1.762   3.727
 4048TIP3    H112150   6.361   1.839   3.677
 4048TIP3    H212151   6.321   1.743   3.787
 4049TIP3   OH212152   5.995   1.066   3.496
 4049TIP3    H112153   6.054   1.144   3.505
 4049TIP3    H212154   5.917   1.106   3.454
 4050TIP3   OH212155   6.344   2.010   3.606
 4050TIP3    H112156   6.258   2.007   3.653
 4050TIP3    H212157   6.347   2.106   3.588
 4051TIP3   OH212158   6.171   1.982   4.374
 4051TIP3    H112159   6.229   1.927   4.430
 4051TIP3    H212160   6.182   2.070   4.413
 4052TIP3   OH212161   6.132   1.296   3.530
 4052TIP3    H112162   6.079   1.360   3.583
 4052TIP3    H212163   6.161   1.354   3.457
 4053TIP3   OH212164   6.145   1.514   3.342
 4053TIP3    H112165   6.153   1.610   3.346
 4053TIP3    H212166   6.221   1.490   3.287
 4054TIP3   OH212167   6.065   0.797   3.501
 4054TIP3    H112168   6.042   0.891   3.509
 4054TIP3    H212169   6.012   0.768   3.426
 4055TIP3   OH212170   5.979   1.715   3.727
 4055TIP3    H112171   5.938   1.755   3.805
 4055TIP3    H212172   5.946   1.773   3.655
 4056TIP3   OH212173   6.163   2.298   4.795
 4056TIP3    H112174   6.248   2.304   4.844
 4056TIP3    H212175   6.148   2.202   4.795
 4057TIP3   OH212176   6.634   2.246   4.880
 4057TIP3    H112177   6.700   2.314   4.863
 4057TIP3    H212178   6.609   2.218   4.790
 4058TIP3   OH212179   6.274   1.706   5.023
 4058TIP3    H112180   6.259   1.612   5.042
 4058TIP3    H212181   6.197   1.725   4.966
 4059TIP3   OH212182   5.871   1.479   3.371
 4059TIP3    H112183   5.968   1.490   3.364
 4059TIP3    H212184   5.859   1.389   3.333
 4060TIP3   OH212185   5.795   2.088   3.807
 4060TIP3    H112186   5.729   2.032   3.760
 4060TIP3    H212187   5.836   2.021   3.865
 4061TIP3   OH212188   5.934   1.916   3.980
 4061TIP3    H112189   5.911   1.860   4.057
 4061TIP3    H212190   5.981   1.988   4.027
 4062TIP3   OH212191   6.102   1.340   4.347
 4062TIP3    H112192   6.108   1.315   4.254
 4062TIP3    H212193   6.198   1.354   4.368
 4063TIP3   OH212194   6.294   0.741   4.340
 4063TIP3    H112195   6.353   0.674   4.302
 4063TIP3    H212196   6.362   0.807   4.367
 4064TIP3   OH212197   6.082   0.995   4.409
 4064TIP3    H112198   6.148   1.007   4.338
 4064TIP3    H212199   6.102   1.068   4.468
 4065TIP3   OH212200   6.330   1.965   4.850
 4065TIP3    H112201   6.234   1.966   4.831
 4065TIP3    H212202   6.335   2.024   4.927
 4066TIP3   OH212203   6.484   2.017   4.375
 4066TIP3    H112204   6.437   2.089   4.328
 4066TIP3    H212205   6.575   2.052   4.365
 4067TIP3   OH212206   6.181   2.288   4.406
 4067TIP3    H112207   6.090   2.320   4.385
 4067TIP3    H212208   6.210   2.359   4.466
 4068TIP3   OH212209   6.414   2.256   4.267
 4068TIP3    H112210   6.325   2.274   4.305
 4068TIP3    H212211   6.404   2.293   4.176
 4069TIP3   OH212212   6.092   2.095   4.131
 4069TIP3    H112213   6.115   2.063   4.221
 4069TIP3    H212214   6.173   2.067   4.083
 4070TIP3   OH212215   6.299   1.983   3.998
 4070TIP3    H112216   6.299   1.895   4.041
 4070TIP3    H212217   6.393   2.006   4.007
 4071TIP3   OH212218   5.886   1.879   3.524
 4071TIP3    H112219   5.797   1.850   3.494
 4071TIP3    H212220   5.884   1.971   3.490
 4072TIP3   OH212221   5.934   1.894   3.177
 4072TIP3    H112222   5.939   1.918   3.270
 4072TIP3    H212223   6.019   1.844   3.164
 4073TIP3   OH212224   1.311   2.491   4.848
 4073TIP3    H112225   1.273   2.575   4.813
 4073TIP3    H212226   1.250   2.427   4.808
 4074TIP3   OH212227   1.307   2.496   5.249
 4074TIP3    H112228   1.354   2.462   5.328
 4074TIP3    H212229   1.290   2.414   5.200
 4075TIP3   OH212230   0.630   2.371   5.581
 4075TIP3    H112231   0.655   2.314   5.657
 4075TIP3    H212232   0.715   2.375   5.532
 4076TIP3   OH212233   1.591   2.786   4.914
 4076TIP3    H112234   1.563   2.715   4.974
 4076TIP3    H212235   1.610   2.860   4.974
 4077TIP3   OH212236   0.597   2.793   5.327
 4077TIP3    H112237   0.586   2.696   5.314
 4077TIP3    H212238   0.691   2.801   5.298
 4078TIP3   OH212239   0.299   1.999   5.095
 4078TIP3    H112240   0.271   2.087   5.123
 4078TIP3    H212241   0.219   1.947   5.109
 4079TIP3   OH212242   0.365   2.269   5.283
 4079TIP3    H112243   0.419   2.192   5.312
 4079TIP3    H212244   0.419   2.306   5.212
 4080TIP3   OH212245   1.232   3.242   4.934
 4080TIP3    H112246   1.261   3.172   4.872
 4080TIP3    H212247   1.217   3.191   5.014
 4081TIP3   OH212248   1.124   2.702   5.276
 4081TIP3    H112249   1.175   2.622   5.249
 4081TIP3    H212250   1.201   2.758   5.300
 4082TIP3   OH212251   2.140   2.022   5.281
 4082TIP3    H112252   2.173   2.106   5.319
 4082TIP3    H212253   2.164   2.031   5.187
 4083TIP3   OH212254   1.523   2.208   5.311
 4083TIP3    H112255   1.575   2.125   5.320
 4083TIP3    H212256   1.514   2.213   5.214
 4084TIP3   OH212257   0.877   1.871   5.275
 4084TIP3    H112258   0.868   1.944   5.210
 4084TIP3    H212259   0.833   1.799   5.224
 4085TIP3   OH212260   1.563   1.947   4.914
 4085TIP3    H112261   1.639   1.908   4.959
 4085TIP3    H212262   1.604   2.028   4.874
 4086TIP3   OH212263   0.505   2.057   5.385
 4086TIP3    H112264   0.587   2.037   5.434
 4086TIP3    H212265   0.520   2.003   5.304
 4087TIP3   OH212266   0.940   2.261   5.199
 4087TIP3    H112267   1.037   2.243   5.202
 4087TIP3    H212268   0.907   2.179   5.157
 4088TIP3   OH212269   2.225   2.235   5.451
 4088TIP3    H112270   2.135   2.275   5.449
 4088TIP3    H212271   2.262   2.277   5.531
 4089TIP3   OH212272   0.875   1.843   5.709
 4089TIP3    H112273   0.806   1.879   5.650
 4089TIP3    H212274   0.825   1.791   5.773
 4090TIP3   OH212275   1.182   2.695   4.717
 4090TIP3    H112276   1.171   2.700   4.621
 4090TIP3    H212277   1.141   2.779   4.746
 4091TIP3   OH212278   0.972   2.632   5.483
 4091TIP3    H112279   0.903   2.700   5.474
 4091TIP3    H212280   1.034   2.662   5.412
 4092TIP3   OH212281   0.742   1.958   5.493
 4092TIP3    H112282   0.806   2.030   5.514
 4092TIP3    H212283   0.789   1.919   5.416
 4093TIP3   OH212284   0.203   2.497   4.822
 4093TIP3    H112285   0.121   2.514   4.774
 4093TIP3    H212286   0.219   2.585   4.863
 4094TIP3   OH212287   1.634   3.027   5.072
 4094TIP3    H112288   1.543   3.021   5.111
 4094TIP3    H212289   1.628   3.113   5.024
 4095TIP3   OH212290   1.923   1.916   5.431
 4095TIP3    H112291   1.838   1.945   5.393
 4095TIP3    H212292   1.988   1.955   5.368
 4096TIP3   OH212293   1.216   1.546   5.427
 4096TIP3    H112294   1.199   1.454   5.455
 4096TIP3    H212295   1.139   1.591   5.468
 4097TIP3   OH212296   1.325   3.069   4.732
 4097TIP3    H112297   1.377   2.985   4.718
 4097TIP3    H212298   1.390   3.134   4.698
 4098TIP3   OH212299   1.474   2.849   4.672
 4098TIP3    H112300   1.478   2.769   4.617
 4098TIP3    H212301   1.521   2.819   4.753
 4099TIP3   OH212302   1.853   2.935   5.418
 4099TIP3    H112303   1.872   2.865   5.353
 4099TIP3    H212304   1.843   3.013   5.360
 4100TIP3   OH212305   1.153   2.337   4.683
 4100TIP3    H112306   1.078   2.394   4.658
 4100TIP3    H212307   1.204   2.332   4.599
 4101TIP3   OH212308   1.112   2.129   4.383
 4101TIP3    H112309   1.179   2.178   4.434
 4101TIP3    H212310   1.170   2.066   4.335
 4102TIP3   OH212311   2.047   2.576   5.305
 4102TIP3    H112312   1.985   2.646   5.277
 4102TIP3    H212313   2.077   2.541   5.221
 4103TIP3   OH212314   1.484   2.430   4.642
 4103TIP3    H112315   1.445   2.450   4.730
 4103TIP3    H212316   1.551   2.362   4.671
 4104TIP3   OH212317   1.729   2.441   5.578
 4104TIP3    H112318   1.735   2.522   5.633
 4104TIP3    H212319   1.646   2.456   5.530
 4105TIP3   OH212320   0.735   2.406   5.074
 4105TIP3    H112321   0.694   2.348   5.006
 4105TIP3    H212322   0.810   2.350   5.105
 4106TIP3   OH212323   0.854   2.805   5.216
 4106TIP3    H112324   0.837   2.799   5.120
 4106TIP3    H212325   0.944   2.767   5.224
 4107TIP3   OH212326   0.860   2.387   5.428
 4107TIP3    H112327   0.893   2.355   5.340
 4107TIP3    H212328   0.908   2.472   5.437
 4108TIP3   OH212329   1.396   3.021   5.202
 4108TIP3    H112330   1.381   3.105   5.249
 4108TIP3    H212331   1.375   2.954   5.269
 4109TIP3   OH212332   1.331   2.279   4.479
 4109TIP3    H112333   1.393   2.339   4.527
 4109TIP3    H212334   1.359   2.294   4.385
 4110TIP3   OH212335   0.749   2.549   5.842
 4110TIP3    H112336   0.696   2.559   5.923
 4110TIP3    H212337   0.675   2.553   5.777
 4111TIP3   OH212338   1.083   2.950   4.752
 4111TIP3    H112339   1.172   2.990   4.746
 4111TIP3    H212340   1.030   3.011   4.700
 4112TIP3   OH212341   0.741   3.016   5.837
 4112TIP3    H112342   0.758   3.040   5.743
 4112TIP3    H212343   0.737   3.106   5.875
 4113TIP3   OH212344   1.852   1.503   4.526
 4113TIP3    H112345   1.772   1.529   4.576
 4113TIP3    H212346   1.873   1.588   4.481
 4114TIP3   OH212347   0.601   2.255   4.878
 4114TIP3    H112348   0.532   2.296   4.822
 4114TIP3    H212349   0.579   2.162   4.874
 4115TIP3   OH212350   1.681   2.871   4.083
 4115TIP3    H112351   1.684   2.967   4.060
 4115TIP3    H212352   1.773   2.844   4.061
 4116TIP3   OH212353   0.490   2.594   5.788
 4116TIP3    H112354   0.444   2.562   5.710
 4116TIP3    H212355   0.429   2.567   5.860
 4117TIP3   OH212356   0.285   2.814   5.435
 4117TIP3    H112357   0.380   2.812   5.413
 4117TIP3    H212358   0.284   2.867   5.517
 4118TIP3   OH212359   2.100   3.345   5.445
 4118TIP3    H112360   2.171   3.282   5.423
 4118TIP3    H212361   2.043   3.295   5.505
 4119TIP3   OH212362   1.195   3.093   5.586
 4119TIP3    H112363   1.191   3.185   5.618
 4119TIP3    H212364   1.138   3.048   5.650
 4120TIP3   OH212365   0.975   3.185   4.560
 4120TIP3    H112366   0.927   3.170   4.477
 4120TIP3    H212367   0.939   3.271   4.589
 4121TIP3   OH212368   0.420   3.024   4.938
 4121TIP3    H112369   0.467   3.010   5.024
 4121TIP3    H212370   0.326   3.017   4.967
 4122TIP3   OH212371   1.166   3.100   4.189
 4122TIP3    H112372   1.221   3.026   4.155
 4122TIP3    H212373   1.205   3.113   4.278
 4123TIP3   OH212374   1.225   3.152   4.456
 4123TIP3    H112375   1.138   3.157   4.501
 4123TIP3    H212376   1.280   3.118   4.528
 4124TIP3   OH212377   1.965   2.402   5.757
 4124TIP3    H112378   1.909   2.401   5.678
 4124TIP3    H212379   1.999   2.310   5.758
 4125TIP3   OH212380   0.986   1.642   5.549
 4125TIP3    H112381   0.896   1.612   5.525
 4125TIP3    H212382   0.965   1.725   5.595
 4126TIP3   OH212383   1.528   1.771   5.750
 4126TIP3    H112384   1.605   1.726   5.789
 4126TIP3    H212385   1.453   1.740   5.805
 4127TIP3   OH212386   1.740   2.185   5.672
 4127TIP3    H112387   1.692   2.199   5.755
 4127TIP3    H212388   1.732   2.272   5.628
 4128TIP3   OH212389   1.403   2.302   4.221
 4128TIP3    H112390   1.373   2.288   4.129
 4128TIP3    H212391   1.493   2.338   4.204
 4129TIP3   OH212392   1.120   1.692   4.528
 4129TIP3    H112393   1.087   1.688   4.619
 4129TIP3    H212394   1.084   1.609   4.493
 4130TIP3   OH212395   0.921   2.160   5.559
 4130TIP3    H112396   0.865   2.185   5.636
 4130TIP3    H212397   0.910   2.240   5.503
 4131TIP3   OH212398   0.800   2.051   5.087
 4131TIP3    H112399   0.709   2.022   5.108
 4131TIP3    H212400   0.812   2.009   4.999
 4132TIP3   OH212401   1.281   2.120   4.806
 4132TIP3    H112402   1.243   2.197   4.760
 4132TIP3    H212403   1.356   2.097   4.749
 4133TIP3   OH212404   1.464   2.406   5.920
 4133TIP3    H112405   1.463   2.333   5.984
 4133TIP3    H212406   1.561   2.422   5.916
 4134TIP3   OH212407   1.398   2.132   5.058
 4134TIP3    H112408   1.357   2.162   4.974
 4134TIP3    H212409   1.460   2.067   5.019
 4135TIP3   OH212410   0.750   2.195   5.775
 4135TIP3    H112411   0.831   2.241   5.805
 4135TIP3    H212412   0.751   2.114   5.829
 4136TIP3   OH212413   0.785   1.666   4.492
 4136TIP3    H112414   0.772   1.668   4.589
 4136TIP3    H212415   0.712   1.723   4.462
 4137TIP3   OH212416   0.277   1.721   5.382
 4137TIP3    H112417   0.362   1.736   5.429
 4137TIP3    H212418   0.306   1.672   5.304
 4138TIP3   OH212419   0.315   1.734   4.912
 4138TIP3    H112420   0.358   1.715   4.827
 4138TIP3    H212421   0.273   1.818   4.887
 4139TIP3   OH212422   1.443   2.405   5.472
 4139TIP3    H112423   1.479   2.336   5.411
 4139TIP3    H212424   1.418   2.348   5.547
 4140TIP3   OH212425   1.138   1.867   5.144
 4140TIP3    H112426   1.070   1.865   5.214
 4140TIP3    H212427   1.219   1.843   5.193
 4141TIP3   OH212428   0.563   1.927   5.149
 4141TIP3    H112429   0.473   1.929   5.109
 4141TIP3    H212430   0.595   1.837   5.125
 4142TIP3   OH212431   0.813   1.917   4.848
 4142TIP3    H112432   0.909   1.931   4.835
 4142TIP3    H212433   0.775   1.941   4.761
 4143TIP3   OH212434   1.623   1.952   5.371
 4143TIP3    H112435   1.563   1.962   5.448
 4143TIP3    H212436   1.576   1.887   5.317
 4144TIP3   OH212437   0.685   1.962   4.611
 4144TIP3    H112438   0.625   1.913   4.551
 4144TIP3    H212439   0.743   2.005   4.544
 4145TIP3   OH212440   1.801   3.634   5.571
 4145TIP3    H112441   1.800   3.657   5.476
 4145TIP3    H212442   1.885   3.675   5.599
 4146TIP3   OH212443   1.207   2.202   5.237
 4146TIP3    H112444   1.275   2.176   5.172
 4146TIP3    H212445   1.229   2.143   5.311
 4147TIP3   OH212446   0.729   1.698   5.117
 4147TIP3    H112447   0.718   1.619   5.174
 4147TIP3    H212448   0.769   1.659   5.038
 4148TIP3   OH212449   1.187   2.094   5.529
 4148TIP3    H112450   1.097   2.130   5.536
 4148TIP3    H212451   1.242   2.161   5.575
 4149TIP3   OH212452   0.913   2.486   4.622
 4149TIP3    H112453   0.843   2.419   4.609
 4149TIP3    H212454   0.892   2.518   4.713
 4150TIP3   OH212455   1.810   2.733   5.224
 4150TIP3    H112456   1.772   2.799   5.165
 4150TIP3    H212457   1.738   2.666   5.224
 4151TIP3   OH212458   1.377   1.787   4.507
 4151TIP3    H112459   1.280   1.776   4.514
 4151TIP3    H212460   1.392   1.882   4.527
 4152TIP3   OH212461   1.296   2.821   5.690
 4152TIP3    H112462   1.387   2.793   5.707
 4152TIP3    H212463   1.308   2.899   5.635
 4153TIP3   OH212464   1.453   2.047   4.593
 4153TIP3    H112465   1.533   2.078   4.641
 4153TIP3    H212466   1.429   2.127   4.544
 4154TIP3   OH212467   0.616   2.524   5.291
 4154TIP3    H112468   0.658   2.491   5.208
 4154TIP3    H212469   0.649   2.462   5.356
 4155TIP3   OH212470   1.069   2.633   4.453
 4155TIP3    H112471   1.019   2.718   4.456
 4155TIP3    H212472   1.017   2.578   4.516
 4156TIP3   OH212473   1.227   2.553   5.912
 4156TIP3    H112474   1.197   2.517   5.827
 4156TIP3    H212475   1.314   2.509   5.921
 4157TIP3   OH212476   1.463   3.053   5.541
 4157TIP3    H112477   1.368   3.077   5.543
 4157TIP3    H212478   1.499   3.114   5.609
 4158TIP3   OH212479   1.904   2.147   4.394
 4158TIP3    H112480   1.823   2.106   4.355
 4158TIP3    H212481   1.895   2.237   4.357
 4159TIP3   OH212482   2.111   2.974   5.512
 4159TIP3    H112483   2.015   2.987   5.504
 4159TIP3    H212484   2.137   2.969   5.418
 4160TIP3   OH212485   1.591   2.954   4.338
 4160TIP3    H112486   1.564   2.877   4.391
 4160TIP3    H212487   1.616   2.913   4.253
 4161TIP3   OH212488   1.567   2.592   5.186
 4161TIP3    H112489   1.472   2.570   5.185
 4161TIP3    H212490   1.604   2.508   5.150
 4162TIP3   OH212491   0.735   2.823   4.946
 4162TIP3    H112492   0.737   2.899   4.884
 4162TIP3    H212493   0.642   2.799   4.942
 4163TIP3   OH212494   0.281   2.122   4.629
 4163TIP3    H112495   0.343   2.195   4.649
 4163TIP3    H212496   0.201   2.155   4.671
 4164TIP3   OH212497   0.826   2.570   4.864
 4164TIP3    H112498   0.813   2.662   4.894
 4164TIP3    H212499   0.802   2.520   4.944
 4165TIP3   OH212500   0.996   3.155   5.383
 4165TIP3    H112501   1.036   3.229   5.333
 4165TIP3    H212502   1.073   3.117   5.427
 4166TIP3   OH212503   0.652   3.049   4.778
 4166TIP3    H112504   0.566   3.052   4.825
 4166TIP3    H212505   0.680   3.143   4.782
 4167TIP3   OH212506   1.365   2.791   5.369
 4167TIP3    H112507   1.376   2.763   5.460
 4167TIP3    H212508   1.438   2.744   5.326
 4168TIP3   OH212509   1.361   2.692   4.253
 4168TIP3    H112510   1.415   2.668   4.332
 4168TIP3    H212511   1.276   2.652   4.276
 4169TIP3   OH212512   1.612   3.318   5.401
 4169TIP3    H112513   1.527   3.272   5.387
 4169TIP3    H212514   1.608   3.384   5.328
 4170TIP3   OH212515   1.687   3.151   4.057
 4170TIP3    H112516   1.727   3.226   4.010
 4170TIP3    H212517   1.606   3.194   4.091
 4171TIP3   OH212518   1.519   2.632   4.470
 4171TIP3    H112519   1.502   2.558   4.534
 4171TIP3    H212520   1.615   2.616   4.454
 4172TIP3   OH212521   0.508   3.064   5.525
 4172TIP3    H112522   0.548   2.976   5.537
 4172TIP3    H212523   0.444   3.068   5.598
 4173TIP3   OH212524   0.707   2.662   4.245
 4173TIP3    H112525   0.720   2.568   4.222
 4173TIP3    H212526   0.684   2.655   4.340
 4174TIP3   OH212527   0.651   2.665   4.517
 4174TIP3    H112528   0.735   2.639   4.557
 4174TIP3    H212529   0.654   2.763   4.525
 4175TIP3   OH212530   0.400   2.351   4.711
 4175TIP3    H112531   0.331   2.398   4.764
 4175TIP3    H212532   0.414   2.418   4.641
 4176TIP3   OH212533   1.525   2.018   5.636
 4176TIP3    H112534   1.619   2.049   5.635
 4176TIP3    H212535   1.531   1.929   5.677
 4177TIP3   OH212536   1.430   1.730   4.783
 4177TIP3    H112537   1.417   1.750   4.688
 4177TIP3    H212538   1.470   1.814   4.816
 4178TIP3   OH212539   0.926   2.861   4.461
 4178TIP3    H112540   0.836   2.882   4.495
 4178TIP3    H212541   0.942   2.939   4.406
 4179TIP3   OH212542   1.091   1.936   4.882
 4179TIP3    H112543   1.159   2.003   4.857
 4179TIP3    H212544   1.112   1.923   4.977
 4180TIP3   OH212545   1.377   2.241   5.678
 4180TIP3    H112546   1.414   2.270   5.763
 4180TIP3    H212547   1.426   2.157   5.663
 4181TIP3   OH212548   1.252   1.630   4.969
 4181TIP3    H112549   1.259   1.703   5.033
 4181TIP3    H212550   1.316   1.660   4.900
 4182TIP3   OH212551   0.673   2.937   4.529
 4182TIP3    H112552   0.647   3.011   4.470
 4182TIP3    H212553   0.668   2.981   4.617
 4183TIP3   OH212554   0.766   1.655   4.769
 4183TIP3    H112555   0.764   1.746   4.806
 4183TIP3    H212556   0.863   1.640   4.773
 4184TIP3   OH212557   2.012   2.139   5.671
 4184TIP3    H112558   1.914   2.137   5.665
 4184TIP3    H212559   2.036   2.095   5.589
 4185TIP3   OH212560   1.664   2.358   5.080
 4185TIP3    H112561   1.672   2.328   4.987
 4185TIP3    H212562   1.736   2.304   5.122
 4186TIP3   OH212563   0.394   2.552   4.518
 4186TIP3    H112564   0.475   2.606   4.529
 4186TIP3    H212565   0.428   2.489   4.451
 4187TIP3   OH212566   0.298   1.849   4.659
 4187TIP3    H112567   0.310   1.946   4.659
 4187TIP3    H212568   0.287   1.831   4.565
 4188TIP3   OH212569   1.645   3.299   4.993
 4188TIP3    H112570   1.601   3.347   4.920
 4188TIP3    H212571   1.739   3.323   4.976
 4189TIP3   OH212572   0.721   1.551   5.533
 4189TIP3    H112573   0.717   1.532   5.436
 4189TIP3    H212574   0.710   1.462   5.568
 4190TIP3   OH212575   0.235   2.762   4.894
 4190TIP3    H112576   0.197   2.842   4.934
 4190TIP3    H212577   0.301   2.801   4.835
 4191TIP3   OH212578   0.531   3.271   5.921
 4191TIP3    H112579   0.564   3.292   6.010
 4191TIP3    H212580   0.510   3.176   5.932
 4192TIP3   OH212581   0.918   3.265   5.968
 4192TIP3    H112582   0.955   3.344   6.012
 4192TIP3    H212583   0.946   3.279   5.877
 4193TIP3   OH212584   0.871   2.861   4.145
 4193TIP3    H112585   0.821   2.787   4.186
 4193TIP3    H212586   0.948   2.813   4.109
 4194TIP3   OH212587   1.530   3.203   5.756
 4194TIP3    H112588   1.533   3.132   5.824
 4194TIP3    H212589   1.607   3.258   5.782
 4195TIP3   OH212590   1.303   2.892   4.072
 4195TIP3    H112591   1.340   2.827   4.135
 4195TIP3    H212592   1.362   2.882   3.995
 4196TIP3   OH212593   0.527   2.364   4.383
 4196TIP3    H112594   0.590   2.345   4.457
 4196TIP3    H212595   0.592   2.373   4.310
 4197TIP3   OH212596   1.101   2.800   5.882
 4197TIP3    H112597   1.171   2.811   5.812
 4197TIP3    H212598   1.127   2.710   5.911
 4198TIP3   OH212599   1.050   2.580   4.186
 4198TIP3    H112600   1.050   2.591   4.284
 4198TIP3    H212601   1.051   2.482   4.179
 4199TIP3   OH212602   1.634   2.842   5.558
 4199TIP3    H112603   1.716   2.871   5.511
 4199TIP3    H212604   1.577   2.920   5.543
 4200TIP3   OH212605   0.717   2.292   4.581
 4200TIP3    H112606   0.701   2.251   4.667
 4200TIP3    H212607   0.765   2.221   4.533
 4201TIP3   OH212608   0.957   2.355   5.808
 4201TIP3    H112609   0.896   2.432   5.817
 4201TIP3    H212610   1.025   2.393   5.749
 4202TIP3   OH212611   0.841   2.094   4.432
 4202TIP3    H112612   0.818   2.103   4.337
 4202TIP3    H212613   0.939   2.093   4.425
 4203TIP3   OH212614   1.521   2.758   5.953
 4203TIP3    H112615   1.610   2.750   5.915
 4203TIP3    H212616   1.524   2.690   6.020
 4204TIP3   OH212617   1.631   2.405   4.117
 4204TIP3    H112618   1.631   2.366   4.027
 4204TIP3    H212619   1.605   2.497   4.093
 4205TIP3   OH212620   1.094   2.125   5.909
 4205TIP3    H112621   1.129   2.057   5.847
 4205TIP3    H212622   1.068   2.197   5.850
 4206TIP3   OH212623   1.142   1.911   5.737
 4206TIP3    H112624   1.166   1.951   5.651
 4206TIP3    H212625   1.048   1.888   5.724
 4207TIP3   OH212626   1.139   2.474   5.652
 4207TIP3    H112627   1.222   2.459   5.604
 4207TIP3    H212628   1.090   2.535   5.592
 4208TIP3   OH212629   1.740   2.435   5.965
 4208TIP3    H112630   1.804   2.364   5.945
 4208TIP3    H212631   1.788   2.511   5.928
 4209TIP3   OH212632   1.766   2.677   5.725
 4209TIP3    H112633   1.712   2.738   5.671
 4209TIP3    H212634   1.856   2.700   5.692
 4210TIP3   OH212635   1.285   1.694   5.857
 4210TIP3    H112636   1.234   1.770   5.822
 4210TIP3    H212637   1.221   1.622   5.839
 4211TIP3   OH212638   1.618   2.150   5.924
 4211TIP3    H112639   1.600   2.058   5.906
 4211TIP3    H212640   1.698   2.144   5.981
 4212TIP3   OH212641   1.866   2.088   6.048
 4212TIP3    H112642   1.890   2.014   5.990
 4212TIP3    H212643   1.937   2.081   6.114
 4213TIP3   OH212644   0.650   3.146   4.349
 4213TIP3    H112645   0.743   3.128   4.327
 4213TIP3    H212646   0.625   3.198   4.270
 4214TIP3   OH212647   0.112   2.539   4.525
 4214TIP3    H112648   0.208   2.547   4.540
 4214TIP3    H212649   0.101   2.445   4.500
 4215TIP3   OH212650   1.903   3.384   4.967
 4215TIP3    H112651   1.931   3.409   5.056
 4215TIP3    H212652   1.981   3.406   4.913
 4216TIP3   OH212653   1.920   3.406   5.248
 4216TIP3    H112654   1.882   3.316   5.241
 4216TIP3    H212655   1.987   3.391   5.317
 4217TIP3   OH212656   1.978   3.085   5.820
 4217TIP3    H112657   1.904   3.096   5.882
 4217TIP3    H212658   2.024   3.171   5.828
 4218TIP3   OH212659   1.791   2.596   4.443
 4218TIP3    H112660   1.860   2.655   4.407
 4218TIP3    H212661   1.833   2.561   4.525
 4219TIP3   OH212662   1.899   2.465   4.664
 4219TIP3    H112663   1.836   2.401   4.703
 4219TIP3    H212664   1.976   2.456   4.722
 4220TIP3   OH212665   1.796   3.157   5.262
 4220TIP3    H112666   1.724   3.199   5.314
 4220TIP3    H212667   1.746   3.114   5.189
 4221TIP3   OH212668   1.853   2.386   4.274
 4221TIP3    H112669   1.778   2.384   4.211
 4221TIP3    H212670   1.821   2.455   4.335
 4222TIP3   OH212671   1.702   2.045   4.237
 4222TIP3    H112672   1.664   2.069   4.152
 4222TIP3    H212673   1.691   1.948   4.236
 4223TIP3   OH212674   0.350   2.363   5.544
 4223TIP3    H112675   0.349   2.347   5.448
 4223TIP3    H212676   0.446   2.375   5.558
 4224TIP3   OH212677   2.018   2.747   5.644
 4224TIP3    H112678   2.085   2.675   5.632
 4224TIP3    H212679   2.057   2.818   5.589
 4225TIP3   OH212680   2.185   2.533   5.653
 4225TIP3    H112681   2.115   2.481   5.696
 4225TIP3    H212682   2.263   2.476   5.669
 4226TIP3   OH212683   1.675   1.773   4.207
 4226TIP3    H112684   1.748   1.747   4.268
 4226TIP3    H212685   1.602   1.717   4.236
 4227TIP3   OH212686   1.891   2.245   5.191
 4227TIP3    H112687   1.974   2.266   5.145
 4227TIP3    H212688   1.915   2.266   5.283
 4228TIP3   OH212689   1.969   2.354   5.439
 4228TIP3    H112690   1.880   2.382   5.469
 4228TIP3    H212691   2.002   2.438   5.400
 4229TIP3   OH212692   2.405   1.944   5.977
 4229TIP3    H112693   2.471   1.884   5.936
 4229TIP3    H212694   2.363   1.982   5.898
 4230TIP3   OH212695   1.871   1.755   4.689
 4230TIP3    H112696   1.896   1.764   4.783
 4230TIP3    H212697   1.789   1.703   4.695
 4231TIP3   OH212698   0.529   1.757   5.506
 4231TIP3    H112699   0.588   1.681   5.524
 4231TIP3    H212700   0.592   1.830   5.502
 4232TIP3   OH212701   0.295   2.093   5.581
 4232TIP3    H112702   0.365   2.065   5.519
 4232TIP3    H212703   0.316   2.188   5.590
 4233TIP3   OH212704   2.282   2.070   5.758
 4233TIP3    H112705   2.197   2.112   5.782
 4233TIP3    H212706   2.249   1.995   5.704
 4234TIP3   OH212707   1.906   1.713   4.351
 4234TIP3    H112708   1.951   1.650   4.292
 4234TIP3    H212709   1.970   1.788   4.355
 4235TIP3   OH212710   0.301   1.558   5.116
 4235TIP3    H112711   0.223   1.513   5.079
 4235TIP3    H212712   0.320   1.621   5.042
 4236TIP3   OH212713   1.476   3.258   4.616
 4236TIP3    H112714   1.531   3.250   4.535
 4236TIP3    H212715   1.528   3.320   4.670
 4237TIP3   OH212716   0.798   3.091   5.578
 4237TIP3    H112717   0.714   3.118   5.536
 4237TIP3    H212718   0.861   3.131   5.516
 4238TIP3   OH212719   1.194   3.349   5.683
 4238TIP3    H112720   1.241   3.334   5.768
 4238TIP3    H212721   1.261   3.401   5.634
 4239TIP3   OH212722   1.380   3.494   5.549
 4239TIP3    H112723   1.449   3.446   5.502
 4239TIP3    H212724   1.435   3.553   5.606
 4240TIP3   OH212725   2.182   1.839   5.641
 4240TIP3    H112726   2.094   1.817   5.605
 4240TIP3    H212727   2.225   1.751   5.638
 4241TIP3   OH212728   0.459   3.420   5.569
 4241TIP3    H112729   0.415   3.488   5.516
 4241TIP3    H212730   0.475   3.470   5.651
 4242TIP3   OH212731   0.693   3.331   5.425
 4242TIP3    H112732   0.609   3.344   5.474
 4242TIP3    H212733   0.668   3.358   5.335
 4243TIP3   OH212734   1.100   3.353   5.227
 4243TIP3    H112735   1.028   3.367   5.163
 4243TIP3    H212736   1.107   3.442   5.268
 4244TIP3   OH212737   1.365   3.284   5.286
 4244TIP3    H112738   1.272   3.307   5.267
 4244TIP3    H212739   1.412   3.351   5.233
 4245TIP3   OH212740   1.561   3.475   5.186
 4245TIP3    H112741   1.552   3.562   5.140
 4245TIP3    H212742   1.592   3.418   5.112
 4246TIP3   OH212743   0.333   3.125   5.316
 4246TIP3    H112744   0.389   3.120   5.396
 4246TIP3    H212745   0.393   3.078   5.254
 4247TIP3   OH212746   0.544   3.014   5.179
 4247TIP3    H112747   0.559   2.935   5.236
 4247TIP3    H212748   0.633   3.056   5.183
 4248TIP3   OH212749   0.811   3.105   5.187
 4248TIP3    H112750   0.846   3.015   5.173
 4248TIP3    H212751   0.863   3.132   5.265
 4249TIP3   OH212752   1.356   1.747   5.252
 4249TIP3    H112753   1.334   1.673   5.311
 4249TIP3    H212754   1.441   1.719   5.213
 4250TIP3   OH212755   1.893   1.641   5.165
 4250TIP3    H112756   1.935   1.693   5.092
 4250TIP3    H212757   1.807   1.684   5.173
 4251TIP3   OH212758   1.994   1.748   4.939
 4251TIP3    H112759   2.063   1.688   4.904
 4251TIP3    H212760   2.037   1.834   4.918
 4252TIP3   OH212761   0.693   1.480   5.272
 4252TIP3    H112762   0.597   1.460   5.275
 4252TIP3    H212763   0.729   1.388   5.265
 4253TIP3   OH212764   0.484   1.309   4.973
 4253TIP3    H112765   0.541   1.364   4.918
 4253TIP3    H212766   0.396   1.349   4.956
 4254TIP3   OH212767   1.084   1.506   5.168
 4254TIP3    H112768   1.132   1.547   5.095
 4254TIP3    H212769   1.136   1.532   5.246
 4255TIP3   OH212770   1.597   1.654   5.148
 4255TIP3    H112771   1.624   1.609   5.067
 4255TIP3    H212772   1.596   1.578   5.211
 4256TIP3   OH212773   1.652   1.578   4.710
 4256TIP3    H112774   1.570   1.624   4.734
 4256TIP3    H212775   1.636   1.490   4.750
 4257TIP3   OH212776   0.543   1.500   4.687
 4257TIP3    H112777   0.586   1.434   4.630
 4257TIP3    H212778   0.622   1.549   4.721
 4258TIP3   OH212779   1.040   1.683   4.791
 4258TIP3    H112780   1.104   1.637   4.849
 4258TIP3    H212781   1.060   1.776   4.816
 4259TIP3   OH212782   0.911   3.086   4.292
 4259TIP3    H112783   0.997   3.111   4.253
 4259TIP3    H212784   0.888   3.012   4.231
 4260TIP3   OH212785   1.627   3.221   4.387
 4260TIP3    H112786   1.619   3.123   4.376
 4260TIP3    H212787   1.582   3.252   4.305
 4261TIP3   OH212788   0.215   2.942   4.354
 4261TIP3    H112789   0.248   3.015   4.408
 4261TIP3    H212790   0.298   2.896   4.328
 4262TIP3   OH212791   1.819   3.355   5.583
 4262TIP3    H112792   1.747   3.333   5.521
 4262TIP3    H212793   1.816   3.453   5.582
 4263TIP3   OH212794   3.121   2.744   4.322
 4263TIP3    H112795   3.085   2.832   4.295
 4263TIP3    H212796   3.051   2.686   4.290
 4264TIP3   OH212797   3.108   2.748   4.724
 4264TIP3    H112798   3.142   2.728   4.814
 4264TIP3    H212799   3.072   2.662   4.698
 4265TIP3   OH212800   2.394   2.622   5.089
 4265TIP3    H112801   2.421   2.555   5.154
 4265TIP3    H212802   2.476   2.671   5.077
 4266TIP3   OH212803   3.372   3.047   4.405
 4266TIP3    H112804   3.350   2.980   4.472
 4266TIP3    H212805   3.402   3.122   4.459
 4267TIP3   OH212806   2.383   3.035   4.798
 4267TIP3    H112807   2.388   2.938   4.789
 4267TIP3    H212808   2.478   3.057   4.797
 4268TIP3   OH212809   2.092   2.234   4.590
 4268TIP3    H112810   2.045   2.308   4.550
 4268TIP3    H212811   2.027   2.164   4.574
 4269TIP3   OH212812   2.166   2.553   4.775
 4269TIP3    H112813   2.186   2.472   4.826
 4269TIP3    H212814   2.241   2.547   4.713
 4270TIP3   OH212815   3.032   3.500   4.424
 4270TIP3    H112816   3.058   3.430   4.361
 4270TIP3    H212817   3.016   3.449   4.504
 4271TIP3   OH212818   2.911   2.967   4.768
 4271TIP3    H112819   2.957   2.889   4.730
 4271TIP3    H212820   2.991   3.019   4.792
 4272TIP3   OH212821   3.943   2.283   4.768
 4272TIP3    H112822   3.966   2.370   4.808
 4272TIP3    H212823   3.957   2.302   4.673
 4273TIP3   OH212824   3.322   2.467   4.795
 4273TIP3    H112825   3.373   2.388   4.819
 4273TIP3    H212826   3.292   2.444   4.706
 4274TIP3   OH212827   2.679   2.122   4.755
 4274TIP3    H112828   2.659   2.194   4.692
 4274TIP3    H212829   2.626   2.049   4.715
 4275TIP3   OH212830   3.374   2.216   4.376
 4275TIP3    H112831   3.444   2.205   4.445
 4275TIP3    H212832   3.427   2.251   4.302
 4276TIP3   OH212833   2.297   2.330   4.864
 4276TIP3    H112834   2.383   2.314   4.907
 4276TIP3    H212835   2.311   2.279   4.782
 4277TIP3   OH212836   2.734   2.522   4.678
 4277TIP3    H112837   2.831   2.502   4.684
 4277TIP3    H212838   2.700   2.439   4.639
 4278TIP3   OH212839   4.005   2.502   4.932
 4278TIP3    H112840   3.917   2.544   4.916
 4278TIP3    H212841   4.029   2.543   5.016
 4279TIP3   OH212842   2.665   2.109   5.192
 4279TIP3    H112843   2.609   2.149   5.123
 4279TIP3    H212844   2.610   2.126   5.271
 4280TIP3   OH212845   3.012   2.963   4.200
 4280TIP3    H112846   2.976   2.949   4.110
 4280TIP3    H212847   2.951   3.034   4.232
 4281TIP3   OH212848   2.762   2.884   4.982
 4281TIP3    H112849   2.706   2.954   5.020
 4281TIP3    H212850   2.809   2.930   4.909
 4282TIP3   OH212851   3.556   2.227   4.580
 4282TIP3    H112852   3.512   2.210   4.665
 4282TIP3    H212853   3.611   2.305   4.602
 4283TIP3   OH212854   2.539   2.226   4.970
 4283TIP3    H112855   2.598   2.300   4.996
 4283TIP3    H212856   2.592   2.186   4.897
 4284TIP3   OH212857   2.583   3.085   5.105
 4284TIP3    H112858   2.566   3.167   5.054
 4284TIP3    H212859   2.515   3.094   5.175
 4285TIP3   OH212860   1.984   2.769   4.310
 4285TIP3    H112861   1.962   2.784   4.216
 4285TIP3    H212862   2.012   2.858   4.338
 4286TIP3   OH212863   3.425   3.293   4.557
 4286TIP3    H112864   3.336   3.284   4.599
 4286TIP3    H212865   3.417   3.380   4.514
 4287TIP3   OH212866   3.735   2.170   4.928
 4287TIP3    H112867   3.648   2.198   4.896
 4287TIP3    H212868   3.794   2.207   4.859
 4288TIP3   OH212869   3.010   1.814   4.917
 4288TIP3    H112870   2.990   1.720   4.937
 4288TIP3    H212871   2.936   1.858   4.963
 4289TIP3   OH212872   3.120   3.332   4.214
 4289TIP3    H112873   3.173   3.249   4.204
 4289TIP3    H212874   3.187   3.397   4.184
 4290TIP3   OH212875   3.275   3.116   4.153
 4290TIP3    H112876   3.225   3.036   4.129
 4290TIP3    H212877   3.317   3.086   4.237
 4291TIP3   OH212878   3.684   3.182   4.911
 4291TIP3    H112879   3.641   3.109   4.863
 4291TIP3    H212880   3.654   3.259   4.860
 4292TIP3   OH212881   2.955   2.585   4.174
 4292TIP3    H112882   2.873   2.636   4.160
 4292TIP3    H212883   2.995   2.589   4.085
 4293TIP3   OH212884   2.907   2.380   3.878
 4293TIP3    H112885   2.973   2.433   3.926
 4293TIP3    H212886   2.966   2.321   3.828
 4294TIP3   OH212887   3.851   2.843   4.761
 4294TIP3    H112888   3.764   2.890   4.761
 4294TIP3    H212889   3.881   2.864   4.670
 4295TIP3   OH212890   3.300   2.674   4.130
 4295TIP3    H112891   3.244   2.700   4.207
 4295TIP3    H212892   3.384   2.652   4.175
 4296TIP3   OH212893   2.521   2.666   4.567
 4296TIP3    H112894   2.483   2.606   4.499
 4296TIP3    H212895   2.601   2.616   4.595
 4297TIP3   OH212896   2.653   3.081   4.695
 4297TIP3    H112897   2.639   3.065   4.600
 4297TIP3    H212898   2.741   3.041   4.710
 4298TIP3   OH212899   2.637   2.649   4.907
 4298TIP3    H112900   2.679   2.614   4.825
 4298TIP3    H212901   2.691   2.729   4.926
 4299TIP3   OH212902   3.191   3.284   4.692
 4299TIP3    H112903   3.187   3.359   4.754
 4299TIP3    H212904   3.174   3.207   4.750
 4300TIP3   OH212905   2.790   3.198   5.234
 4300TIP3    H112906   2.719   3.237   5.287
 4300TIP3    H212907   2.736   3.142   5.174
 4301TIP3   OH212908   3.136   2.529   3.961
 4301TIP3    H112909   3.195   2.592   4.007
 4301TIP3    H212910   3.161   2.545   3.867
 4302TIP3   OH212911   2.563   2.733   5.350
 4302TIP3    H112912   2.572   2.822   5.391
 4302TIP3    H212913   2.466   2.722   5.358
 4303TIP3   OH212914   2.880   3.202   4.250
 4303TIP3    H112915   2.965   3.248   4.237
 4303TIP3    H212916   2.826   3.238   4.178
 4304TIP3   OH212917   3.652   1.761   4.019
 4304TIP3    H112918   3.570   1.789   4.066
 4304TIP3    H212919   3.669   1.842   3.965
 4305TIP3   OH212920   2.382   2.507   4.384
 4305TIP3    H112921   2.322   2.549   4.318
 4305TIP3    H212922   2.368   2.413   4.365
 4306TIP3   OH212923   2.151   2.866   5.246
 4306TIP3    H112924   2.229   2.920   5.231
 4306TIP3    H212925   2.189   2.792   5.299
 4307TIP3   OH212926   2.081   3.039   4.868
 4307TIP3    H112927   2.168   3.084   4.872
 4307TIP3    H212928   2.034   3.086   4.940
 4308TIP3   OH212929   3.893   3.567   4.955
 4308TIP3    H112930   3.902   3.469   4.965
 4308TIP3    H212931   3.809   3.580   5.005
 4309TIP3   OH212932   2.992   3.321   5.096
 4309TIP3    H112933   2.988   3.414   5.126
 4309TIP3    H212934   2.917   3.282   5.146
 4310TIP3   OH212935   2.776   3.443   4.049
 4310TIP3    H112936   2.731   3.414   3.967
 4310TIP3    H212937   2.732   3.527   4.069
 4311TIP3   OH212938   2.202   3.297   4.434
 4311TIP3    H112939   2.251   3.290   4.519
 4311TIP3    H212940   2.164   3.207   4.427
 4312TIP3   OH212941   2.942   3.351   3.701
 4312TIP3    H112942   2.976   3.270   3.663
 4312TIP3    H212943   2.995   3.361   3.783
 4313TIP3   OH212944   3.028   3.407   3.959
 4313TIP3    H112945   2.936   3.415   3.993
 4313TIP3    H212946   3.071   3.368   4.037
 4314TIP3   OH212947   3.805   2.678   5.255
 4314TIP3    H112948   3.710   2.696   5.235
 4314TIP3    H212949   3.808   2.581   5.244
 4315TIP3   OH212950   2.777   1.898   5.049
 4315TIP3    H112951   2.689   1.871   5.015
 4315TIP3    H212952   2.750   1.979   5.098
 4316TIP3   OH212953   3.319   2.009   5.239
 4316TIP3    H112954   3.388   1.987   5.305
 4316TIP3    H212955   3.236   1.997   5.289
 4317TIP3   OH212956   3.543   2.409   5.160
 4317TIP3    H112957   3.501   2.404   5.250
 4317TIP3    H212958   3.529   2.505   5.143
 4318TIP3   OH212959   3.209   2.554   3.702
 4318TIP3    H112960   3.180   2.533   3.611
 4318TIP3    H212961   3.293   2.601   3.684
 4319TIP3   OH212962   2.924   1.939   4.016
 4319TIP3    H112963   2.886   1.938   4.106
 4319TIP3    H212964   2.880   1.861   3.978
 4320TIP3   OH212965   2.706   2.426   5.054
 4320TIP3    H112966   2.662   2.443   5.140
 4320TIP3    H212967   2.685   2.508   5.006
 4321TIP3   OH212968   2.597   2.305   4.574
 4321TIP3    H112969   2.504   2.281   4.593
 4321TIP3    H212970   2.606   2.264   4.485
 4322TIP3   OH212971   3.084   2.382   4.308
 4322TIP3    H112972   3.038   2.455   4.261
 4322TIP3    H212973   3.141   2.346   4.237
 4323TIP3   OH212974   3.249   2.670   5.372
 4323TIP3    H112975   3.263   2.598   5.436
 4323TIP3    H212976   3.335   2.676   5.325
 4324TIP3   OH212977   3.237   2.407   4.539
 4324TIP3    H112978   3.170   2.431   4.471
 4324TIP3    H212979   3.278   2.332   4.490
 4325TIP3   OH212980   2.527   2.445   5.267
 4325TIP3    H112981   2.569   2.511   5.325
 4325TIP3    H212982   2.523   2.366   5.325
 4326TIP3   OH212983   2.585   1.925   3.980
 4326TIP3    H112984   2.569   1.928   4.076
 4326TIP3    H212985   2.508   1.978   3.948
 4327TIP3   OH212986   2.142   1.952   4.852
 4327TIP3    H112987   2.215   1.992   4.902
 4327TIP3    H212988   2.182   1.927   4.767
 4328TIP3   OH212989   2.076   1.936   4.363
 4328TIP3    H112990   2.123   1.973   4.285
 4328TIP3    H212991   2.015   2.012   4.380
 4329TIP3   OH212992   3.217   2.671   4.962
 4329TIP3    H112993   3.250   2.588   4.921
 4329TIP3    H212994   3.298   2.704   5.005
 4330TIP3   OH212995   2.939   2.109   4.629
 4330TIP3    H112996   2.860   2.115   4.687
 4330TIP3    H212997   3.011   2.112   4.695
 4331TIP3   OH212998   2.357   2.189   4.636
 4331TIP3    H112999   2.262   2.193   4.609
 4331TIP3    H213000   2.381   2.096   4.617
 4332TIP3   OH213001   2.613   2.175   4.335
 4332TIP3    H113002   2.706   2.192   4.313
 4332TIP3    H213003   2.566   2.195   4.250
 4333TIP3   OH213004   3.418   2.201   4.823
 4333TIP3    H113005   3.397   2.213   4.919
 4333TIP3    H213006   3.342   2.145   4.798
 4334TIP3   OH213007   2.478   2.211   4.104
 4334TIP3    H113008   2.415   2.164   4.046
 4334TIP3    H213009   2.533   2.257   4.036
 4335TIP3   OH213010   3.597   3.891   5.064
 4335TIP3    H113011   3.594   3.911   4.969
 4335TIP3    H213012   3.680   3.936   5.091
 4336TIP3   OH213013   2.556   2.970   5.488
 4336TIP3    H113014   2.615   3.014   5.552
 4336TIP3    H213015   2.514   3.044   5.439
 4337TIP3   OH213016   3.004   2.461   4.728
 4337TIP3    H113017   3.082   2.426   4.683
 4337TIP3    H213018   3.008   2.417   4.816
 4338TIP3   OH213019   2.510   1.940   4.624
 4338TIP3    H113020   2.474   1.865   4.676
 4338TIP3    H213021   2.542   1.894   4.545
 4339TIP3   OH213022   2.975   2.358   5.016
 4339TIP3    H113023   2.886   2.395   5.035
 4339TIP3    H213024   3.032   2.406   5.080
 4340TIP3   OH213025   2.734   2.735   4.120
 4340TIP3    H113026   2.659   2.675   4.102
 4340TIP3    H213027   2.702   2.777   4.203
 4341TIP3   OH213028   3.608   2.973   4.737
 4341TIP3    H113029   3.633   3.032   4.663
 4341TIP3    H213030   3.525   2.933   4.704
 4342TIP3   OH213031   3.175   2.040   4.001
 4342TIP3    H113032   3.078   2.019   4.004
 4342TIP3    H213033   3.177   2.137   4.017
 4343TIP3   OH213034   3.114   3.064   5.110
 4343TIP3    H113035   3.155   3.050   5.197
 4343TIP3    H213036   3.075   3.153   5.118
 4344TIP3   OH213037   3.238   2.302   4.090
 4344TIP3    H113038   3.334   2.312   4.100
 4344TIP3    H213039   3.213   2.381   4.038
 4345TIP3   OH213040   2.373   2.759   4.777
 4345TIP3    H113041   2.425   2.731   4.698
 4345TIP3    H213042   2.427   2.717   4.847
 4346TIP3   OH213043   2.893   2.906   3.960
 4346TIP3    H113044   2.834   2.982   3.944
 4346TIP3    H213045   2.830   2.843   4.002
 4347TIP3   OH213046   2.296   2.697   5.421
 4347TIP3    H113047   2.332   2.689   5.511
 4347TIP3    H213048   2.229   2.627   5.419
 4348TIP3   OH213049   3.019   2.810   5.426
 4348TIP3    H113050   2.959   2.753   5.377
 4348TIP3    H213051   3.106   2.771   5.400
 4349TIP3   OH213052   3.255   3.385   4.994
 4349TIP3    H113053   3.168   3.348   5.012
 4349TIP3    H213054   3.286   3.405   5.085
 4350TIP3   OH213055   3.676   2.402   3.916
 4350TIP3    H113056   3.616   2.357   3.851
 4350TIP3    H213057   3.673   2.492   3.875
 4351TIP3   OH213058   3.927   3.297   4.980
 4351TIP3    H113059   3.838   3.260   4.995
 4351TIP3    H213060   3.950   3.247   4.898
 4352TIP3   OH213061   3.390   3.196   3.832
 4352TIP3    H113062   3.349   3.174   3.917
 4352TIP3    H213063   3.404   3.108   3.795
 4353TIP3   OH213064   3.374   2.846   4.637
 4353TIP3    H113065   3.281   2.822   4.653
 4353TIP3    H213066   3.408   2.763   4.600
 4354TIP3   OH213067   2.523   3.077   4.429
 4354TIP3    H113068   2.530   3.152   4.367
 4354TIP3    H213069   2.434   3.045   4.410
 4355TIP3   OH213070   2.077   2.361   4.119
 4355TIP3    H113071   2.125   2.443   4.142
 4355TIP3    H213072   1.996   2.372   4.173
 4356TIP3   OH213073   2.635   2.829   4.358
 4356TIP3    H113074   2.612   2.920   4.380
 4356TIP3    H213075   2.601   2.779   4.434
 4357TIP3   OH213076   2.801   3.409   4.872
 4357TIP3    H113077   2.842   3.482   4.822
 4357TIP3    H213078   2.877   3.374   4.921
 4358TIP3   OH213079   2.426   3.313   4.263
 4358TIP3    H113080   2.342   3.320   4.313
 4358TIP3    H213081   2.460   3.405   4.269
 4359TIP3   OH213082   3.160   3.053   4.845
 4359TIP3    H113083   3.147   3.049   4.942
 4359TIP3    H213084   3.235   2.993   4.833
 4360TIP3   OH213085   3.133   2.934   3.748
 4360TIP3    H113086   3.194   2.911   3.821
 4360TIP3    H213087   3.047   2.924   3.791
 4361TIP3   OH213088   3.422   3.577   4.899
 4361TIP3    H113089   3.353   3.510   4.920
 4361TIP3    H213090   3.381   3.626   4.825
 4362TIP3   OH213091   2.499   2.186   5.402
 4362TIP3    H113092   2.402   2.189   5.412
 4362TIP3    H213093   2.525   2.137   5.482
 4363TIP3   OH213094   3.316   2.873   3.941
 4363TIP3    H113095   3.303   2.808   4.012
 4363TIP3    H213096   3.414   2.868   3.931
 4364TIP3   OH213097   2.223   3.268   5.040
 4364TIP3    H113098   2.294   3.205   5.060
 4364TIP3    H213099   2.222   3.312   5.127
 4365TIP3   OH213100   2.191   2.599   4.195
 4365TIP3    H113101   2.123   2.659   4.230
 4365TIP3    H213102   2.213   2.640   4.110
 4366TIP3   OH213103   3.352   2.239   5.081
 4366TIP3    H113104   3.427   2.293   5.114
 4366TIP3    H213105   3.344   2.168   5.148
 4367TIP3   OH213106   3.232   1.991   4.277
 4367TIP3    H113107   3.213   2.011   4.183
 4367TIP3    H213108   3.272   2.075   4.307
 4368TIP3   OH213109   2.728   3.125   3.957
 4368TIP3    H113110   2.635   3.099   3.969
 4368TIP3    H213111   2.716   3.202   3.898
 4369TIP3   OH213112   2.897   2.188   4.367
 4369TIP3    H113113   2.961   2.260   4.348
 4369TIP3    H213114   2.910   2.175   4.463
 4370TIP3   OH213115   3.145   2.461   5.202
 4370TIP3    H113116   3.179   2.541   5.246
 4370TIP3    H213117   3.225   2.415   5.176
 4371TIP3   OH213118   3.043   1.893   4.460
 4371TIP3    H113119   3.025   1.973   4.513
 4371TIP3    H213120   3.112   1.926   4.399
 4372TIP3   OH213121   2.456   3.200   4.011
 4372TIP3    H113122   2.455   3.284   3.964
 4372TIP3    H213123   2.453   3.229   4.104
 4373TIP3   OH213124   2.563   1.912   4.256
 4373TIP3    H113125   2.558   2.002   4.294
 4373TIP3    H213126   2.660   1.899   4.262
 4374TIP3   OH213127   3.811   2.404   5.156
 4374TIP3    H113128   3.713   2.396   5.167
 4374TIP3    H213129   3.819   2.365   5.067
 4375TIP3   OH213130   3.466   2.591   4.539
 4375TIP3    H113131   3.387   2.537   4.554
 4375TIP3    H213132   3.534   2.545   4.593
 4376TIP3   OH213133   2.123   2.091   4.140
 4376TIP3    H113134   2.133   2.189   4.143
 4376TIP3    H213135   2.043   2.083   4.088
 4377TIP3   OH213136   3.439   3.564   4.479
 4377TIP3    H113137   3.396   3.616   4.408
 4377TIP3    H213138   3.534   3.581   4.460
 4378TIP3   OH213139   2.513   1.819   5.008
 4378TIP3    H113140   2.483   1.785   4.921
 4378TIP3    H213141   2.500   1.741   5.065
 4379TIP3   OH213142   2.039   3.036   4.384
 4379TIP3    H113143   1.981   3.071   4.453
 4379TIP3    H213144   2.006   3.085   4.305
 4380TIP3   OH213145   2.216   3.596   5.456
 4380TIP3    H113146   2.300   3.584   5.505
 4380TIP3    H213147   2.182   3.504   5.453
 4381TIP3   OH213148   2.689   3.536   5.515
 4381TIP3    H113149   2.782   3.524   5.539
 4381TIP3    H213150   2.685   3.489   5.432
 4382TIP3   OH213151   3.319   3.454   5.252
 4382TIP3    H113152   3.322   3.382   5.319
 4382TIP3    H213153   3.400   3.505   5.276
 4383TIP3   OH213154   2.316   2.999   5.698
 4383TIP3    H113155   2.380   2.942   5.653
 4383TIP3    H213156   2.243   3.000   5.632
 4384TIP3   OH213157   2.941   3.085   5.438
 4384TIP3    H113158   2.901   3.104   5.351
 4384TIP3    H213159   2.975   2.993   5.426
 4385TIP3   OH213160   2.471   2.697   5.652
 4385TIP3    H113161   2.551   2.718   5.601
 4385TIP3    H213162   2.486   2.747   5.735
 4386TIP3   OH213163   2.541   2.542   4.101
 4386TIP3    H113164   2.505   2.484   4.168
 4386TIP3    H213165   2.569   2.479   4.032
 4387TIP3   OH213166   2.794   2.597   5.303
 4387TIP3    H113167   2.718   2.660   5.308
 4387TIP3    H213168   2.848   2.637   5.231
 4388TIP3   OH213169   2.634   2.346   3.928
 4388TIP3    H113170   2.606   2.345   3.833
 4388TIP3    H213171   2.731   2.351   3.917
 4389TIP3   OH213172   3.309   3.005   5.437
 4389TIP3    H113173   3.353   2.946   5.375
 4389TIP3    H213174   3.302   2.947   5.516
 4390TIP3   OH213175   3.437   2.669   3.599
 4390TIP3    H113176   3.426   2.634   3.508
 4390TIP3    H213177   3.399   2.759   3.585
 4391TIP3   OH213178   2.922   2.400   5.434
 4391TIP3    H113179   2.929   2.326   5.371
 4391TIP3    H213180   2.882   2.470   5.376
 4392TIP3   OH213181   2.926   2.185   5.245
 4392TIP3    H113182   2.957   2.229   5.164
 4392TIP3    H213183   2.832   2.165   5.224
 4393TIP3   OH213184   2.947   2.714   5.118
 4393TIP3    H113185   3.032   2.701   5.073
 4393TIP3    H213186   2.902   2.781   5.063
 4394TIP3   OH213187   3.543   2.681   5.511
 4394TIP3    H113188   3.574   2.592   5.492
 4394TIP3    H213189   3.556   2.724   5.425
 4395TIP3   OH213190   2.802   2.494   5.671
 4395TIP3    H113191   2.732   2.428   5.689
 4395TIP3    H213192   2.827   2.471   5.579
 4396TIP3   OH213193   3.052   1.946   5.324
 4396TIP3    H113194   3.005   2.027   5.296
 4396TIP3    H213195   2.983   1.878   5.311
 4397TIP3   OH213196   3.187   2.438   5.523
 4397TIP3    H113197   3.149   2.421   5.612
 4397TIP3    H213198   3.107   2.426   5.469
 4398TIP3   OH213199   3.422   2.394   5.396
 4398TIP3    H113200   3.342   2.400   5.452
 4398TIP3    H213201   3.492   2.372   5.460
 4399TIP3   OH213202   3.659   2.349   5.539
 4399TIP3    H113203   3.668   2.252   5.549
 4399TIP3    H213204   3.649   2.380   5.631
 4400TIP3   OH213205   2.633   2.274   5.732
 4400TIP3    H113206   2.633   2.182   5.700
 4400TIP3    H213207   2.673   2.263   5.820
 4401TIP3   OH213208   3.141   1.952   5.582
 4401TIP3    H113209   3.205   1.879   5.570
 4401TIP3    H213210   3.103   1.954   5.492
 4402TIP3   OH213211   3.211   2.167   5.731
 4402TIP3    H113212   3.190   2.095   5.668
 4402TIP3    H213213   3.136   2.228   5.717
 4403TIP3   OH213214   1.950   2.769   4.030
 4403TIP3    H113215   2.017   2.766   3.958
 4403TIP3    H213216   1.908   2.681   4.013
 4404TIP3   OH213217   1.833   3.390   4.471
 4404TIP3    H113218   1.771   3.329   4.424
 4404TIP3    H213219   1.879   3.328   4.531
 4405TIP3   OH213220   1.969   3.230   4.652
 4405TIP3    H113221   1.967   3.162   4.721
 4405TIP3    H213222   2.022   3.299   4.696
 4406TIP3   OH213223   3.702   3.638   4.456
 4406TIP3    H113224   3.727   3.664   4.546
 4406TIP3    H213225   3.776   3.671   4.402
 4407TIP3   OH213226   3.726   3.656   4.738
 4407TIP3    H113227   3.673   3.573   4.734
 4407TIP3    H213228   3.795   3.628   4.801
 4408TIP3   OH213229   3.773   3.345   5.312
 4408TIP3    H113230   3.702   3.357   5.378
 4408TIP3    H213231   3.816   3.433   5.314
 4409TIP3   OH213232   3.592   2.848   3.924
 4409TIP3    H113233   3.656   2.917   3.897
 4409TIP3    H213234   3.638   2.809   4.001
 4410TIP3   OH213235   3.719   2.713   4.129
 4410TIP3    H113236   3.647   2.675   4.184
 4410TIP3    H213237   3.779   2.751   4.196
 4411TIP3   OH213238   3.778   3.118   4.561
 4411TIP3    H113239   3.829   3.045   4.520
 4411TIP3    H213240   3.776   3.185   4.490
 4412TIP3   OH213241   3.592   3.410   4.751
 4412TIP3    H113242   3.520   3.452   4.802
 4412TIP3    H213243   3.543   3.366   4.678
 4413TIP3   OH213244   3.648   2.631   3.767
 4413TIP3    H113245   3.576   2.633   3.700
 4413TIP3    H213246   3.620   2.707   3.822
 4414TIP3   OH213247   3.519   2.292   3.724
 4414TIP3    H113248   3.472   2.331   3.650
 4414TIP3    H213249   3.503   2.197   3.707
 4415TIP3   OH213250   3.523   2.583   4.268
 4415TIP3    H113251   3.528   2.486   4.256
 4415TIP3    H213252   3.506   2.591   4.365
 4416TIP3   OH213253   3.841   3.024   5.134
 4416TIP3    H113254   3.889   2.943   5.106
 4416TIP3    H213255   3.770   3.032   5.068
 4417TIP3   OH213256   3.998   2.789   5.102
 4417TIP3    H113257   3.927   2.753   5.160
 4417TIP3    H213258   4.072   2.731   5.129
 4418TIP3   OH213259   3.468   2.021   3.691
 4418TIP3    H113260   3.527   1.993   3.763
 4418TIP3    H213261   3.384   1.976   3.712
 4419TIP3   OH213262   3.528   2.301   4.156
 4419TIP3    H113263   3.571   2.213   4.167
 4419TIP3    H213264   3.580   2.336   4.082
 4420TIP3   OH213265   3.677   2.458   4.671
 4420TIP3    H113266   3.762   2.479   4.627
 4420TIP3    H213267   3.691   2.503   4.756
 4421TIP3   OH213268   3.751   2.618   4.893
 4421TIP3    H113269   3.683   2.649   4.955
 4421TIP3    H213270   3.782   2.703   4.854
 4422TIP3   OH213271   2.366   2.326   5.684
 4422TIP3    H113272   2.463   2.328   5.699
 4422TIP3    H213273   2.345   2.240   5.726
 4423TIP3   OH213274   4.208   2.215   5.441
 4423TIP3    H113275   4.269   2.153   5.396
 4423TIP3    H213276   4.169   2.263   5.365
 4424TIP3   OH213277   3.635   2.049   4.199
 4424TIP3    H113278   3.680   2.029   4.284
 4424TIP3    H213279   3.571   1.975   4.195
 4425TIP3   OH213280   2.338   2.036   5.032
 4425TIP3    H113281   2.397   1.959   5.036
 4425TIP3    H213282   2.401   2.107   5.011
 4426TIP3   OH213283   2.142   2.330   5.100
 4426TIP3    H113284   2.166   2.315   5.006
 4426TIP3    H213285   2.229   2.341   5.139
 4427TIP3   OH213286   4.065   2.337   5.248
 4427TIP3    H113287   3.984   2.386   5.273
 4427TIP3    H213288   4.025   2.267   5.192
 4428TIP3   OH213289   3.703   1.968   3.847
 4428TIP3    H113290   3.743   1.908   3.781
 4428TIP3    H213291   3.763   2.046   3.843
 4429TIP3   OH213292   2.126   1.794   4.590
 4429TIP3    H113293   2.035   1.777   4.623
 4429TIP3    H213294   2.108   1.856   4.517
 4430TIP3   OH213295   3.283   3.518   4.106
 4430TIP3    H113296   3.331   3.504   4.021
 4430TIP3    H213297   3.344   3.577   4.153
 4431TIP3   OH213298   2.340   1.878   5.406
 4431TIP3    H113299   2.292   1.880   5.490
 4431TIP3    H213300   2.275   1.918   5.346
 4432TIP3   OH213301   2.563   3.327   4.981
 4432TIP3    H113302   2.518   3.413   4.971
 4432TIP3    H213303   2.651   3.351   4.947
 4433TIP3   OH213304   2.985   3.591   5.170
 4433TIP3    H113305   3.031   3.587   5.257
 4433TIP3    H213306   3.050   3.643   5.119
 4434TIP3   OH213307   3.167   3.749   5.038
 4434TIP3    H113308   3.231   3.694   4.990
 4434TIP3    H213309   3.228   3.802   5.094
 4435TIP3   OH213310   3.971   2.101   5.128
 4435TIP3    H113311   3.883   2.094   5.086
 4435TIP3    H213312   4.004   2.009   5.120
 4436TIP3   OH213313   2.231   3.617   5.041
 4436TIP3    H113314   2.140   3.654   5.032
 4436TIP3    H213315   2.241   3.613   5.136
 4437TIP3   OH213316   2.477   3.590   4.925
 4437TIP3    H113317   2.388   3.602   4.965
 4437TIP3    H213318   2.459   3.617   4.832
 4438TIP3   OH213319   2.891   3.613   4.712
 4438TIP3    H113320   2.818   3.627   4.649
 4438TIP3    H213321   2.901   3.700   4.754
 4439TIP3   OH213322   3.160   3.560   4.766
 4439TIP3    H113323   3.068   3.574   4.739
 4439TIP3    H213324   3.208   3.625   4.712
 4440TIP3   OH213325   3.362   3.738   4.676
 4440TIP3    H113326   3.352   3.821   4.625
 4440TIP3    H213327   3.392   3.676   4.605
 4441TIP3   OH213328   2.140   3.391   4.807
 4441TIP3    H113329   2.173   3.367   4.897
 4441TIP3    H213330   2.216   3.357   4.754
 4442TIP3   OH213331   2.343   3.275   4.669
 4442TIP3    H113332   2.357   3.188   4.713
 4442TIP3    H213333   2.434   3.309   4.667
 4443TIP3   OH213334   2.611   3.361   4.673
 4443TIP3    H113335   2.636   3.267   4.665
 4443TIP3    H213336   2.667   3.386   4.749
 4444TIP3   OH213337   3.186   2.020   4.762
 4444TIP3    H113338   3.144   1.945   4.807
 4444TIP3    H213339   3.260   1.977   4.715
 4445TIP3   OH213340   3.689   1.898   4.651
 4445TIP3    H113341   3.726   1.950   4.576
 4445TIP3    H213342   3.597   1.929   4.652
 4446TIP3   OH213343   3.794   1.989   4.417
 4446TIP3    H113344   3.869   1.937   4.382
 4446TIP3    H213345   3.829   2.080   4.404
 4447TIP3   OH213346   2.422   1.721   4.765
 4447TIP3    H113347   2.329   1.690   4.771
 4447TIP3    H213348   2.470   1.636   4.759
 4448TIP3   OH213349   2.221   1.601   4.417
 4448TIP3    H113350   2.248   1.658   4.343
 4448TIP3    H213351   2.193   1.667   4.484
 4449TIP3   OH213352   2.882   1.752   4.650
 4449TIP3    H113353   2.931   1.798   4.579
 4449TIP3    H213354   2.916   1.797   4.730
 4450TIP3   OH213355   3.404   1.907   4.631
 4450TIP3    H113356   3.412   1.866   4.544
 4450TIP3    H213357   3.401   1.827   4.690
 4451TIP3   OH213358   3.451   1.840   4.197
 4451TIP3    H113359   3.369   1.886   4.223
 4451TIP3    H213360   3.433   1.751   4.235
 4452TIP3   OH213361   1.927   3.187   4.190
 4452TIP3    H113362   1.842   3.150   4.161
 4452TIP3    H213363   1.920   3.277   4.151
 4453TIP3   OH213364   2.340   1.752   4.177
 4453TIP3    H113365   2.387   1.691   4.116
 4453TIP3    H213366   2.414   1.806   4.210
 4454TIP3   OH213367   2.838   1.938   4.276
 4454TIP3    H113368   2.901   1.893   4.336
 4454TIP3    H213369   2.856   2.031   4.300
 4455TIP3   OH213370   2.687   3.356   3.802
 4455TIP3    H113371   2.772   3.351   3.753
 4455TIP3    H213372   2.622   3.353   3.729
 4456TIP3   OH213373   3.429   3.471   3.872
 4456TIP3    H113374   3.426   3.375   3.854
 4456TIP3    H213375   3.386   3.505   3.790
 4457TIP3   OH213376   2.632   2.001   5.654
 4457TIP3    H113377   2.594   1.933   5.713
 4457TIP3    H213378   2.725   2.001   5.684
 4458TIP3   OH213379   2.887   2.009   5.769
 4458TIP3    H113380   2.972   1.985   5.729
 4458TIP3    H213381   2.873   1.935   5.833
 4459TIP3   OH213382   1.994   3.174   3.831
 4459TIP3    H113383   2.018   3.182   3.924
 4459TIP3    H213384   2.076   3.134   3.793
 4460TIP3   OH213385   3.716   2.075   5.560
 4460TIP3    H113386   3.732   2.046   5.652
 4460TIP3    H213387   3.806   2.069   5.522
 4461TIP3   OH213388   3.643   3.619   5.060
 4461TIP3    H113389   3.566   3.593   5.004
 4461TIP3    H213390   3.624   3.714   5.072
 4462TIP3   OH213391   4.929   3.000   3.810
 4462TIP3    H113392   4.891   3.087   3.788
 4462TIP3    H213393   4.856   2.942   3.782
 4463TIP3   OH213394   4.920   2.994   4.217
 4463TIP3    H113395   4.963   2.977   4.303
 4463TIP3    H213396   4.875   2.909   4.202
 4464TIP3   OH213397   4.210   2.879   4.563
 4464TIP3    H113398   4.237   2.806   4.622
 4464TIP3    H213399   4.282   2.941   4.576
 4465TIP3   OH213400   5.169   3.301   3.894
 4465TIP3    H113401   5.148   3.238   3.964
 4465TIP3    H213402   5.197   3.380   3.945
 4466TIP3   OH213403   4.194   3.305   4.286
 4466TIP3    H113404   4.186   3.207   4.284
 4466TIP3    H213405   4.290   3.314   4.277
 4467TIP3   OH213406   3.892   2.496   4.063
 4467TIP3    H113407   3.842   2.575   4.089
 4467TIP3    H213408   3.823   2.451   4.010
 4468TIP3   OH213409   3.948   2.787   4.265
 4468TIP3    H113410   4.002   2.709   4.291
 4468TIP3    H213411   3.998   2.824   4.191
 4469TIP3   OH213412   4.820   3.757   3.907
 4469TIP3    H113413   4.858   3.684   3.854
 4469TIP3    H213414   4.797   3.713   3.990
 4470TIP3   OH213415   4.710   3.222   4.247
 4470TIP3    H113416   4.756   3.144   4.211
 4470TIP3    H213417   4.789   3.272   4.276
 4471TIP3   OH213418   5.739   2.538   4.252
 4471TIP3    H113419   5.765   2.623   4.291
 4471TIP3    H213420   5.760   2.553   4.158
 4472TIP3   OH213421   5.131   2.714   4.274
 4472TIP3    H113422   5.170   2.627   4.296
 4472TIP3    H213423   5.094   2.696   4.186
 4473TIP3   OH213424   4.480   2.377   4.238
 4473TIP3    H113425   4.454   2.450   4.178
 4473TIP3    H213426   4.426   2.304   4.199
 4474TIP3   OH213427   5.171   2.470   3.861
 4474TIP3    H113428   5.240   2.460   3.930
 4474TIP3    H213429   5.223   2.506   3.787
 4475TIP3   OH213430   4.099   2.578   4.359
 4475TIP3    H113431   4.183   2.561   4.405
 4475TIP3    H213432   4.113   2.525   4.277
 4476TIP3   OH213433   4.535   2.779   4.152
 4476TIP3    H113434   4.629   2.755   4.163
 4476TIP3    H213435   4.496   2.695   4.120
 4477TIP3   OH213436   5.806   2.753   4.420
 4477TIP3    H113437   5.719   2.794   4.404
 4477TIP3    H213438   5.831   2.795   4.504
 4478TIP3   OH213439   4.461   2.363   4.684
 4478TIP3    H113440   4.406   2.401   4.613
 4478TIP3    H213441   4.403   2.381   4.762
 4479TIP3   OH213442   4.776   3.202   3.700
 4479TIP3    H113443   4.688   3.177   3.730
 4479TIP3    H213444   4.765   3.299   3.692
 4480TIP3   OH213445   4.566   3.143   4.464
 4480TIP3    H113446   4.510   3.216   4.498
 4480TIP3    H213447   4.610   3.186   4.388
 4481TIP3   OH213448   5.353   2.482   4.062
 4481TIP3    H113449   5.314   2.460   4.148
 4481TIP3    H213450   5.406   2.561   4.085
 4482TIP3   OH213451   4.342   2.476   4.459
 4482TIP3    H113452   4.400   2.550   4.485
 4482TIP3    H213453   4.393   2.438   4.384
 4483TIP3   OH213454   4.404   3.344   4.570
 4483TIP3    H113455   4.378   3.434   4.539
 4483TIP3    H213456   4.324   3.323   4.623
 4484TIP3   OH213457   3.785   3.026   3.833
 4484TIP3    H113458   3.751   3.034   3.741
 4484TIP3    H213459   3.814   3.118   3.850
 4485TIP3   OH213460   5.226   3.547   4.043
 4485TIP3    H113461   5.137   3.537   4.085
 4485TIP3    H213462   5.216   3.635   4.000
 4486TIP3   OH213463   5.530   2.430   4.414
 4486TIP3    H113464   5.443   2.456   4.379
 4486TIP3    H213465   5.590   2.466   4.346
 4487TIP3   OH213466   4.811   2.074   4.410
 4487TIP3    H113467   4.787   1.980   4.423
 4487TIP3    H213468   4.734   2.117   4.454
 4488TIP3   OH213469   4.923   3.584   3.717
 4488TIP3    H113470   4.975   3.502   3.700
 4488TIP3    H213471   4.985   3.650   3.677
 4489TIP3   OH213472   5.063   3.365   3.644
 4489TIP3    H113473   5.038   3.282   3.602
 4489TIP3    H213474   5.110   3.334   3.725
 4490TIP3   OH213475   5.452   3.447   4.393
 4490TIP3    H113476   5.435   3.371   4.333
 4490TIP3    H213477   5.432   3.523   4.334
 4491TIP3   OH213478   4.759   2.839   3.666
 4491TIP3    H113479   4.681   2.895   3.646
 4491TIP3    H213480   4.801   2.831   3.579
 4492TIP3   OH213481   4.703   2.642   3.355
 4492TIP3    H113482   4.772   2.691   3.404
 4492TIP3    H213483   4.758   2.575   3.309
 4493TIP3   OH213484   5.647   3.097   4.247
 4493TIP3    H113485   5.561   3.145   4.247
 4493TIP3    H213486   5.678   3.118   4.156
 4494TIP3   OH213487   5.098   2.924   3.614
 4494TIP3    H113488   5.045   2.952   3.692
 4494TIP3    H213489   5.183   2.903   3.657
 4495TIP3   OH213490   5.325   2.961   4.549
 4495TIP3    H113491   5.322   3.045   4.600
 4495TIP3    H213492   5.239   2.965   4.503
 4496TIP3   OH213493   4.332   2.926   4.032
 4496TIP3    H113494   4.288   2.864   3.970
 4496TIP3    H213495   4.405   2.871   4.068
 4497TIP3   OH213496   4.456   3.343   4.179
 4497TIP3    H113497   4.433   3.314   4.088
 4497TIP3    H213498   4.542   3.298   4.194
 4498TIP3   OH213499   4.471   2.891   4.398
 4498TIP3    H113500   4.498   2.867   4.307
 4498TIP3    H213501   4.507   2.981   4.408
 4499TIP3   OH213502   4.992   3.535   4.174
 4499TIP3    H113503   4.975   3.615   4.227
 4499TIP3    H213504   4.970   3.463   4.238
 4500TIP3   OH213505   4.603   3.450   4.723
 4500TIP3    H113506   4.539   3.510   4.767
 4500TIP3    H213507   4.541   3.398   4.668
 4501TIP3   OH213508   4.923   2.790   3.450
 4501TIP3    H113509   4.986   2.849   3.498
 4501TIP3    H213510   4.953   2.805   3.357
 4502TIP3   OH213511   4.357   2.996   4.835
 4502TIP3    H113512   4.362   3.088   4.867
 4502TIP3    H213513   4.262   2.977   4.852
 4503TIP3   OH213514   4.685   3.459   3.694
 4503TIP3    H113515   4.767   3.510   3.710
 4503TIP3    H213516   4.617   3.527   3.703
 4504TIP3   OH213517   4.394   3.608   4.809
 4504TIP3    H113518   4.360   3.618   4.718
 4504TIP3    H213519   4.311   3.589   4.860
 4505TIP3   OH213520   5.448   2.018   3.505
 4505TIP3    H113521   5.366   2.044   3.552
 4505TIP3    H213522   5.464   2.099   3.451
 4506TIP3   OH213523   4.198   2.763   3.846
 4506TIP3    H113524   4.122   2.809   3.803
 4506TIP3    H213525   4.164   2.673   3.850
 4507TIP3   OH213526   5.250   3.392   3.051
 4507TIP3    H113527   5.261   3.489   3.037
 4507TIP3    H213528   5.343   3.362   3.038
 4508TIP3   OH213529   3.978   3.154   4.752
 4508TIP3    H113530   3.899   3.141   4.695
 4508TIP3    H213531   4.008   3.063   4.770
 4509TIP3   OH213532   3.829   3.345   4.379
 4509TIP3    H113533   3.925   3.344   4.373
 4509TIP3    H213534   3.813   3.419   4.440
 4510TIP3   OH213535   5.691   3.808   4.449
 4510TIP3    H113536   5.692   3.712   4.466
 4510TIP3    H213537   5.607   3.832   4.494
 4511TIP3   OH213538   4.795   3.579   4.579
 4511TIP3    H113539   4.786   3.672   4.609
 4511TIP3    H213540   4.724   3.536   4.632
 4512TIP3   OH213541   4.570   3.708   3.534
 4512TIP3    H113542   4.523   3.702   3.449
 4512TIP3    H213543   4.531   3.788   3.573
 4513TIP3   OH213544   3.994   3.556   3.917
 4513TIP3    H113545   4.038   3.544   4.004
 4513TIP3    H213546   3.957   3.468   3.901
 4514TIP3   OH213547   4.755   3.589   3.160
 4514TIP3    H113548   4.819   3.519   3.137
 4514TIP3    H213549   4.788   3.618   3.247
 4515TIP3   OH213550   4.814   3.664   3.423
 4515TIP3    H113551   4.728   3.676   3.469
 4515TIP3    H213552   4.870   3.633   3.496
 4516TIP3   OH213553   5.579   2.924   4.721
 4516TIP3    H113554   5.491   2.931   4.680
 4516TIP3    H213555   5.596   2.828   4.715
 4517TIP3   OH213556   4.180   3.336   4.727
 4517TIP3    H113557   4.223   3.322   4.813
 4517TIP3    H213558   4.104   3.274   4.734
 4518TIP3   OH213559   4.575   2.157   4.536
 4518TIP3    H113560   4.488   2.127   4.501
 4518TIP3    H213561   4.545   2.235   4.587
 4519TIP3   OH213562   5.112   2.266   4.726
 4519TIP3    H113563   5.181   2.242   4.791
 4519TIP3    H213564   5.029   2.251   4.776
 4520TIP3   OH213565   5.342   2.702   4.644
 4520TIP3    H113566   5.289   2.701   4.727
 4520TIP3    H213567   5.320   2.790   4.607
 4521TIP3   OH213568   5.020   2.813   3.201
 4521TIP3    H113569   4.977   2.804   3.113
 4521TIP3    H213570   5.106   2.852   3.176
 4522TIP3   OH213571   4.724   2.196   3.502
 4522TIP3    H113572   4.683   2.197   3.591
 4522TIP3    H213573   4.677   2.118   3.465
 4523TIP3   OH213574   4.512   2.672   4.551
 4523TIP3    H113575   4.458   2.690   4.630
 4523TIP3    H213576   4.497   2.755   4.499
 4524TIP3   OH213577   4.392   2.561   4.062
 4524TIP3    H113578   4.298   2.538   4.081
 4524TIP3    H213579   4.400   2.520   3.973
 4525TIP3   OH213580   4.886   2.638   3.801
 4525TIP3    H113581   4.839   2.711   3.755
 4525TIP3    H213582   4.941   2.602   3.728
 4526TIP3   OH213583   5.055   2.912   4.868
 4526TIP3    H113584   5.030   2.841   4.932
 4526TIP3    H213585   5.147   2.928   4.894
 4527TIP3   OH213586   5.040   2.662   4.025
 4527TIP3    H113587   4.970   2.685   3.960
 4527TIP3    H213588   5.079   2.587   3.977
 4528TIP3   OH213589   4.329   2.699   4.752
 4528TIP3    H113590   4.334   2.769   4.818
 4528TIP3    H213591   4.313   2.620   4.806
 4529TIP3   OH213592   4.387   2.186   3.466
 4529TIP3    H113593   4.369   2.186   3.562
 4529TIP3    H213594   4.308   2.234   3.434
 4530TIP3   OH213595   3.922   2.212   4.342
 4530TIP3    H113596   3.994   2.251   4.395
 4530TIP3    H213597   3.963   2.199   4.255
 4531TIP3   OH213598   3.864   2.202   3.851
 4531TIP3    H113599   3.903   2.239   3.768
 4531TIP3    H213600   3.803   2.275   3.872
 4532TIP3   OH213601   5.055   2.911   4.441
 4532TIP3    H113602   5.086   2.840   4.380
 4532TIP3    H213603   5.017   2.856   4.513
 4533TIP3   OH213604   4.736   2.366   4.117
 4533TIP3    H113605   4.653   2.372   4.169
 4533TIP3    H213606   4.803   2.367   4.187
 4534TIP3   OH213607   4.151   2.444   4.123
 4534TIP3    H113608   4.058   2.455   4.093
 4534TIP3    H213609   4.171   2.352   4.100
 4535TIP3   OH213610   4.412   2.430   3.826
 4535TIP3    H113611   4.503   2.448   3.798
 4535TIP3    H213612   4.361   2.451   3.744
 4536TIP3   OH213613   5.212   2.454   4.318
 4536TIP3    H113614   5.191   2.468   4.413
 4536TIP3    H213615   5.136   2.397   4.294
 4537TIP3   OH213616   4.276   2.461   3.596
 4537TIP3    H113617   4.203   2.420   3.547
 4537TIP3    H213618   4.326   2.503   3.523
 4538TIP3   OH213619   5.390   4.143   4.549
 4538TIP3    H113620   5.383   4.171   4.456
 4538TIP3    H213621   5.474   4.186   4.576
 4539TIP3   OH213622   4.340   3.253   4.958
 4539TIP3    H113623   4.418   3.283   5.009
 4539TIP3    H213624   4.273   3.250   5.029
 4540TIP3   OH213625   4.798   2.715   4.222
 4540TIP3    H113626   4.874   2.671   4.182
 4540TIP3    H213627   4.793   2.672   4.310
 4541TIP3   OH213628   4.313   2.193   4.110
 4541TIP3    H113629   4.275   2.121   4.166
 4541TIP3    H213630   4.330   2.145   4.028
 4542TIP3   OH213631   4.776   2.624   4.495
 4542TIP3    H113632   4.684   2.650   4.517
 4542TIP3    H213633   4.830   2.685   4.550
 4543TIP3   OH213634   4.541   2.998   3.605
 4543TIP3    H113635   4.482   2.918   3.603
 4543TIP3    H213636   4.513   3.033   3.694
 4544TIP3   OH213637   5.407   3.233   4.220
 4544TIP3    H113638   5.431   3.287   4.142
 4544TIP3    H213639   5.324   3.191   4.191
 4545TIP3   OH213640   4.970   2.301   3.483
 4545TIP3    H113641   4.875   2.276   3.489
 4545TIP3    H213642   4.970   2.396   3.506
 4546TIP3   OH213643   4.910   3.318   4.603
 4546TIP3    H113644   4.950   3.311   4.690
 4546TIP3    H213645   4.871   3.408   4.605
 4547TIP3   OH213646   5.033   2.561   3.578
 4547TIP3    H113647   5.129   2.569   3.588
 4547TIP3    H213648   5.010   2.641   3.527
 4548TIP3   OH213649   4.218   3.031   4.270
 4548TIP3    H113650   4.257   2.997   4.187
 4548TIP3    H213651   4.249   2.968   4.336
 4549TIP3   OH213652   4.095   2.924   4.881
 4549TIP3    H113653   4.086   2.907   4.977
 4549TIP3    H213654   4.017   2.875   4.849
 4550TIP3   OH213655   4.817   3.062   4.910
 4550TIP3    H113656   4.749   3.000   4.880
 4550TIP3    H213657   4.899   3.019   4.877
 4551TIP3   OH213658   5.067   3.578   4.500
 4551TIP3    H113659   4.971   3.578   4.514
 4551TIP3    H213660   5.096   3.631   4.577
 4552TIP3   OH213661   5.470   2.656   3.403
 4552TIP3    H113662   5.411   2.613   3.337
 4552TIP3    H213663   5.468   2.747   3.365
 4553TIP3   OH213664   5.702   3.518   4.481
 4553TIP3    H113665   5.604   3.508   4.473
 4553TIP3    H213666   5.729   3.485   4.392
 4554TIP3   OH213667   5.169   3.469   3.318
 4554TIP3    H113668   5.142   3.404   3.386
 4554TIP3    H213669   5.201   3.412   3.246
 4555TIP3   OH213670   5.176   3.101   4.128
 4555TIP3    H113671   5.083   3.076   4.147
 4555TIP3    H213672   5.208   3.017   4.088
 4556TIP3   OH213673   4.317   3.319   3.912
 4556TIP3    H113674   4.305   3.405   3.865
 4556TIP3    H213675   4.224   3.295   3.926
 4557TIP3   OH213676   3.887   2.620   3.621
 4557TIP3    H113677   3.917   2.711   3.606
 4557TIP3    H213678   3.806   2.634   3.674
 4558TIP3   OH213679   4.451   3.093   3.837
 4558TIP3    H113680   4.406   3.179   3.856
 4558TIP3    H213681   4.410   3.036   3.905
 4559TIP3   OH213682   4.586   3.665   4.370
 4559TIP3    H113683   4.627   3.740   4.320
 4559TIP3    H213684   4.663   3.628   4.415
 4560TIP3   OH213685   4.248   3.560   3.797
 4560TIP3    H113686   4.154   3.573   3.817
 4560TIP3    H213687   4.274   3.652   3.774
 4561TIP3   OH213688   4.957   3.306   4.335
 4561TIP3    H113689   4.943   3.305   4.433
 4561TIP3    H213690   5.036   3.251   4.327
 4562TIP3   OH213691   5.212   3.826   4.378
 4562TIP3    H113692   5.131   3.773   4.377
 4562TIP3    H213693   5.193   3.891   4.307
 4563TIP3   OH213694   5.275   3.666   3.030
 4563TIP3    H113695   5.303   3.736   2.969
 4563TIP3    H213696   5.198   3.711   3.072
 4564TIP3   OH213697   4.288   2.444   4.889
 4564TIP3    H113698   4.191   2.451   4.899
 4564TIP3    H213699   4.313   2.398   4.970
 4565TIP3   OH213700   5.117   3.138   3.434
 4565TIP3    H113701   5.099   3.064   3.494
 4565TIP3    H213702   5.212   3.124   3.416
 4566TIP3   OH213703   4.019   3.524   4.525
 4566TIP3    H113704   4.075   3.456   4.567
 4566TIP3    H213705   4.035   3.600   4.582
 4567TIP3   OH213706   4.277   3.224   3.464
 4567TIP3    H113707   4.195   3.193   3.506
 4567TIP3    H213708   4.241   3.307   3.418
 4568TIP3   OH213709   3.989   2.880   3.718
 4568TIP3    H113710   3.914   2.918   3.767
 4568TIP3    H213711   4.008   2.951   3.653
 4569TIP3   OH213712   5.154   2.498   4.580
 4569TIP3    H113713   5.225   2.546   4.626
 4569TIP3    H213714   5.138   2.421   4.638
 4570TIP3   OH213715   5.028   2.247   3.763
 4570TIP3    H113716   5.009   2.268   3.670
 4570TIP3    H213717   5.069   2.331   3.795
 4571TIP3   OH213718   4.515   3.359   3.375
 4571TIP3    H113719   4.421   3.381   3.393
 4571TIP3    H213720   4.563   3.429   3.422
 4572TIP3   OH213721   4.701   2.442   3.854
 4572TIP3    H113722   4.765   2.516   3.839
 4572TIP3    H213723   4.709   2.431   3.951
 4573TIP3   OH213724   4.978   2.753   4.650
 4573TIP3    H113725   5.004   2.806   4.727
 4573TIP3    H213726   5.024   2.669   4.665
 4574TIP3   OH213727   4.838   2.152   3.949
 4574TIP3    H113728   4.817   2.234   3.998
 4574TIP3    H213729   4.907   2.184   3.887
 4575TIP3   OH213730   4.360   2.168   3.742
 4575TIP3    H113731   4.352   2.257   3.780
 4575TIP3    H213732   4.457   2.156   3.748
 4576TIP3   OH213733   5.606   2.656   4.642
 4576TIP3    H113734   5.508   2.658   4.650
 4576TIP3    H213735   5.615   2.609   4.558
 4577TIP3   OH213736   5.263   2.848   4.025
 4577TIP3    H113737   5.184   2.792   4.038
 4577TIP3    H213738   5.330   2.800   4.078
 4578TIP3   OH213739   4.029   3.080   3.519
 4578TIP3    H113740   3.989   3.159   3.479
 4578TIP3    H213741   4.014   3.010   3.451
 4579TIP3   OH213742   3.916   2.350   3.623
 4579TIP3    H113743   3.921   2.448   3.635
 4579TIP3    H213744   3.870   2.349   3.537
 4580TIP3   OH213745   5.236   3.817   3.967
 4580TIP3    H113746   5.194   3.863   3.891
 4580TIP3    H213747   5.331   3.833   3.947
 4581TIP3   OH213748   4.316   2.074   4.491
 4581TIP3    H113749   4.282   2.041   4.405
 4581TIP3    H213750   4.301   1.997   4.549
 4582TIP3   OH213751   3.842   3.302   3.872
 4582TIP3    H113752   3.792   3.327   3.951
 4582TIP3    H213753   3.793   3.351   3.801
 4583TIP3   OH213754   4.014   3.858   4.947
 4583TIP3    H113755   4.099   3.857   4.997
 4583TIP3    H213756   3.990   3.764   4.949
 4584TIP3   OH213757   4.478   3.788   4.999
 4584TIP3    H113758   4.573   3.776   5.001
 4584TIP3    H213759   4.452   3.722   4.930
 4585TIP3   OH213760   5.125   3.710   4.732
 4585TIP3    H113761   5.124   3.641   4.802
 4585TIP3    H213762   5.200   3.766   4.760
 4586TIP3   OH213763   4.930   3.399   3.036
 4586TIP3    H113764   5.014   3.428   3.074
 4586TIP3    H213765   4.954   3.397   2.940
 4587TIP3   OH213766   4.139   3.252   5.153
 4587TIP3    H113767   4.147   3.155   5.161
 4587TIP3    H213768   4.055   3.261   5.104
 4588TIP3   OH213769   4.743   3.341   4.928
 4588TIP3    H113770   4.699   3.367   4.844
 4588TIP3    H213771   4.772   3.249   4.909
 4589TIP3   OH213772   5.234   3.357   4.539
 4589TIP3    H113773   5.312   3.396   4.495
 4589TIP3    H213774   5.166   3.425   4.521
 4590TIP3   OH213775   4.262   2.996   5.147
 4590TIP3    H113776   4.337   2.949   5.110
 4590TIP3    H213777   4.298   3.026   5.234
 4591TIP3   OH213778   4.369   2.798   3.597
 4591TIP3    H113779   4.301   2.774   3.662
 4591TIP3    H213780   4.373   2.720   3.539
 4592TIP3   OH213781   4.604   2.875   4.808
 4592TIP3    H113782   4.517   2.921   4.805
 4592TIP3    H213783   4.646   2.907   4.725
 4593TIP3   OH213784   4.428   2.595   3.412
 4593TIP3    H113785   4.401   2.601   3.318
 4593TIP3    H213786   4.525   2.600   3.402
 4594TIP3   OH213787   5.111   3.268   4.926
 4594TIP3    H113788   5.181   3.221   4.879
 4594TIP3    H213789   5.097   3.210   5.003
 4595TIP3   OH213790   5.246   2.915   3.081
 4595TIP3    H113791   5.225   2.876   2.994
 4595TIP3    H213792   5.213   3.007   3.066
 4596TIP3   OH213793   4.722   2.658   4.915
 4596TIP3    H113794   4.718   2.584   4.852
 4596TIP3    H213795   4.678   2.731   4.865
 4597TIP3   OH213796   4.721   2.445   4.727
 4597TIP3    H113797   4.747   2.485   4.642
 4597TIP3    H213798   4.627   2.422   4.711
 4598TIP3   OH213799   4.735   2.975   4.599
 4598TIP3    H113800   4.822   3.006   4.572
 4598TIP3    H213801   4.676   3.038   4.552
 4599TIP3   OH213802   5.318   2.939   4.974
 4599TIP3    H113803   5.368   2.858   4.990
 4599TIP3    H213804   5.386   2.998   4.939
 4600TIP3   OH213805   5.362   3.195   4.715
 4600TIP3    H113806   5.305   3.255   4.661
 4600TIP3    H213807   5.450   3.219   4.679
 4601TIP3   OH213808   4.602   2.747   5.161
 4601TIP3    H113809   4.532   2.681   5.179
 4601TIP3    H213810   4.626   2.727   5.069
 4602TIP3   OH213811   4.847   2.203   4.809
 4602TIP3    H113812   4.799   2.284   4.781
 4602TIP3    H213813   4.779   2.134   4.797
 4603TIP3   OH213814   4.975   2.695   5.016
 4603TIP3    H113815   4.951   2.680   5.109
 4603TIP3    H213816   4.888   2.678   4.974
 4604TIP3   OH213817   5.210   2.649   4.872
 4604TIP3    H113818   5.135   2.653   4.935
 4604TIP3    H213819   5.285   2.626   4.930
 4605TIP3   OH213820   5.446   2.606   5.020
 4605TIP3    H113821   5.460   2.509   5.029
 4605TIP3    H213822   5.440   2.635   5.113
 4606TIP3   OH213823   4.435   2.530   5.219
 4606TIP3    H113824   4.434   2.437   5.189
 4606TIP3    H213825   4.473   2.519   5.309
 4607TIP3   OH213826   4.938   2.210   5.068
 4607TIP3    H113827   5.003   2.137   5.057
 4607TIP3    H213828   4.898   2.211   4.978
 4608TIP3   OH213829   5.009   2.423   5.224
 4608TIP3    H113830   4.986   2.352   5.159
 4608TIP3    H213831   4.932   2.483   5.217
 4609TIP3   OH213832   3.734   3.015   3.567
 4609TIP3    H113833   3.812   3.050   3.525
 4609TIP3    H213834   3.712   2.941   3.509
 4610TIP3   OH213835   3.627   3.650   3.960
 4610TIP3    H113836   3.571   3.588   3.908
 4610TIP3    H213837   3.673   3.587   4.019
 4611TIP3   OH213838   3.760   3.485   4.139
 4611TIP3    H113839   3.751   3.420   4.212
 4611TIP3    H213840   3.815   3.552   4.184
 4612TIP3   OH213841   5.503   3.884   3.943
 4612TIP3    H113842   5.519   3.917   4.034
 4612TIP3    H213843   5.562   3.940   3.891
 4613TIP3   OH213844   5.519   3.914   4.223
 4613TIP3    H113845   5.470   3.829   4.220
 4613TIP3    H213846   5.590   3.890   4.285
 4614TIP3   OH213847   5.570   3.597   4.795
 4614TIP3    H113848   5.499   3.608   4.862
 4614TIP3    H213849   5.613   3.685   4.799
 4615TIP3   OH213850   5.391   3.105   3.405
 4615TIP3    H113851   5.453   3.175   3.376
 4615TIP3    H213852   5.436   3.070   3.485
 4616TIP3   OH213853   5.515   2.972   3.613
 4616TIP3    H113854   5.445   2.933   3.671
 4616TIP3    H213855   5.579   3.007   3.678
 4617TIP3   OH213856   5.576   3.376   4.046
 4617TIP3    H113857   5.626   3.303   4.004
 4617TIP3    H213858   5.575   3.444   3.975
 4618TIP3   OH213859   5.389   3.668   4.236
 4618TIP3    H113860   5.317   3.710   4.287
 4618TIP3    H213861   5.340   3.625   4.162
 4619TIP3   OH213862   5.448   2.884   3.257
 4619TIP3    H113863   5.376   2.884   3.191
 4619TIP3    H213864   5.421   2.961   3.311
 4620TIP3   OH213865   5.318   2.552   3.204
 4620TIP3    H113866   5.264   2.584   3.131
 4620TIP3    H213867   5.301   2.455   3.197
 4621TIP3   OH213868   5.321   2.838   3.755
 4621TIP3    H113869   5.326   2.742   3.745
 4621TIP3    H213870   5.303   2.849   3.851
 4622TIP3   OH213871   3.943   2.902   4.512
 4622TIP3    H113872   3.936   2.865   4.421
 4622TIP3    H213873   4.041   2.903   4.522
 4623TIP3   OH213874   5.615   3.261   4.619
 4623TIP3    H113875   5.682   3.192   4.600
 4623TIP3    H213876   5.633   3.327   4.550
 4624TIP3   OH213877   5.790   3.050   4.602
 4624TIP3    H113878   5.715   3.006   4.648
 4624TIP3    H213879   5.863   2.990   4.628
 4625TIP3   OH213880   5.260   2.285   3.182
 4625TIP3    H113881   5.323   2.251   3.248
 4625TIP3    H213882   5.178   2.235   3.200
 4626TIP3   OH213883   5.322   2.556   3.641
 4626TIP3    H113884   5.365   2.468   3.654
 4626TIP3    H213885   5.375   2.591   3.568
 4627TIP3   OH213886   5.475   2.712   4.150
 4627TIP3    H113887   5.559   2.734   4.104
 4627TIP3    H213888   5.491   2.754   4.236
 4628TIP3   OH213889   5.554   2.868   4.372
 4628TIP3    H113890   5.479   2.901   4.425
 4628TIP3    H213891   5.586   2.952   4.330
 4629TIP3   OH213892   4.169   2.584   5.173
 4629TIP3    H113893   4.266   2.580   5.189
 4629TIP3    H213894   4.141   2.499   5.211
 4630TIP3   OH213895   6.000   2.469   4.928
 4630TIP3    H113896   6.062   2.408   4.883
 4630TIP3    H213897   5.964   2.520   4.852
 4631TIP3   OH213898   5.430   2.305   3.685
 4631TIP3    H113899   5.475   2.286   3.771
 4631TIP3    H213900   5.366   2.231   3.682
 4632TIP3   OH213901   4.133   2.286   4.504
 4632TIP3    H113902   4.195   2.210   4.510
 4632TIP3    H213903   4.195   2.360   4.494
 4633TIP3   OH213904   3.921   2.552   4.585
 4633TIP3    H113905   3.972   2.557   4.502
 4633TIP3    H213906   3.938   2.639   4.624
 4634TIP3   OH213907   5.863   2.593   4.731
 4634TIP3    H113908   5.779   2.641   4.751
 4634TIP3    H213909   5.826   2.520   4.677
 4635TIP3   OH213910   5.497   2.224   3.331
 4635TIP3    H113911   5.537   2.163   3.265
 4635TIP3    H213912   5.559   2.299   3.330
 4636TIP3   OH213913   3.916   2.056   4.076
 4636TIP3    H113914   3.826   2.048   4.113
 4636TIP3    H213915   3.902   2.117   4.001
 4637TIP3   OH213916   5.071   3.767   3.587
 4637TIP3    H113917   5.131   3.767   3.510
 4637TIP3    H213918   5.111   3.835   3.645
 4638TIP3   OH213919   4.133   2.128   4.892
 4638TIP3    H113920   4.084   2.135   4.976
 4638TIP3    H213921   4.073   2.176   4.832
 4639TIP3   OH213922   4.172   3.574   4.968
 4639TIP3    H113923   4.076   3.561   4.954
 4639TIP3    H213924   4.182   3.551   5.061
 4640TIP3   OH213925   4.362   3.614   4.523
 4640TIP3    H113926   4.311   3.689   4.486
 4640TIP3    H213927   4.446   3.628   4.474
 4641TIP3   OH213928   4.784   3.845   4.654
 4641TIP3    H113929   4.826   3.841   4.742
 4641TIP3    H213930   4.848   3.901   4.606
 4642TIP3   OH213931   4.966   4.007   4.526
 4642TIP3    H113932   5.036   3.955   4.483
 4642TIP3    H213933   5.020   4.063   4.585
 4643TIP3   OH213934   5.768   2.356   4.617
 4643TIP3    H113935   5.680   2.344   4.578
 4643TIP3    H213936   5.805   2.265   4.609
 4644TIP3   OH213937   4.027   3.866   4.547
 4644TIP3    H113938   3.935   3.895   4.527
 4644TIP3    H213939   4.043   3.916   4.628
 4645TIP3   OH213940   4.264   3.842   4.409
 4645TIP3    H113941   4.175   3.853   4.451
 4645TIP3    H213942   4.245   3.870   4.317
 4646TIP3   OH213943   4.688   3.862   4.204
 4646TIP3    H113944   4.615   3.875   4.141
 4646TIP3    H213945   4.697   3.951   4.242
 4647TIP3   OH213946   4.957   3.800   4.259
 4647TIP3    H113947   4.863   3.819   4.240
 4647TIP3    H213948   5.001   3.871   4.210
 4648TIP3   OH213949   5.160   3.991   4.165
 4648TIP3    H113950   5.146   4.076   4.119
 4648TIP3    H213951   5.187   3.932   4.091
 4649TIP3   OH213952   3.937   3.652   4.291
 4649TIP3    H113953   3.967   3.619   4.378
 4649TIP3    H213954   4.009   3.615   4.235
 4650TIP3   OH213955   4.136   3.533   4.154
 4650TIP3    H113956   4.149   3.448   4.203
 4650TIP3    H213957   4.228   3.566   4.149
 4651TIP3   OH213958   4.409   3.615   4.163
 4651TIP3    H113959   4.430   3.520   4.157
 4651TIP3    H213960   4.463   3.639   4.240
 4652TIP3   OH213961   4.984   2.276   4.257
 4652TIP3    H113962   4.939   2.202   4.300
 4652TIP3    H213963   5.054   2.232   4.206
 4653TIP3   OH213964   5.486   2.154   4.136
 4653TIP3    H113965   5.523   2.208   4.062
 4653TIP3    H213966   5.393   2.183   4.136
 4654TIP3   OH213967   5.589   2.248   3.903
 4654TIP3    H113968   5.666   2.196   3.870
 4654TIP3    H213969   5.625   2.339   3.889
 4655TIP3   OH213970   4.221   1.978   4.250
 4655TIP3    H113971   4.128   1.946   4.256
 4655TIP3    H213972   4.268   1.893   4.244
 4656TIP3   OH213973   4.029   1.860   3.908
 4656TIP3    H113974   4.049   1.916   3.831
 4656TIP3    H213975   3.995   1.926   3.972
 4657TIP3   OH213976   4.681   2.005   4.134
 4657TIP3    H113977   4.731   2.053   4.067
 4657TIP3    H213978   4.697   2.058   4.213
 4658TIP3   OH213979   5.202   2.164   4.116
 4658TIP3    H113980   5.203   2.123   4.029
 4658TIP3    H213981   5.200   2.085   4.175
 4659TIP3   OH213982   5.247   2.095   3.685
 4659TIP3    H113983   5.166   2.142   3.711
 4659TIP3    H213984   5.230   2.006   3.722
 4660TIP3   OH213985   3.717   3.437   3.673
 4660TIP3    H113986   3.687   3.385   3.598
 4660TIP3    H213987   3.703   3.528   3.639
 4661TIP3   OH213988   4.135   2.006   3.666
 4661TIP3    H113989   4.181   1.946   3.604
 4661TIP3    H213990   4.209   2.061   3.698
 4662TIP3   OH213991   4.635   2.195   3.761
 4662TIP3    H113992   4.694   2.148   3.823
 4662TIP3    H213993   4.655   2.288   3.787
 4663TIP3   OH213994   4.498   3.635   3.271
 4663TIP3    H113995   4.579   3.609   3.224
 4663TIP3    H213996   4.447   3.553   3.277
 4664TIP3   OH213997   5.226   3.736   3.359
 4664TIP3    H113998   5.211   3.639   3.351
 4664TIP3    H213999   5.175   3.768   3.282
 4665TIP3   OH214000   4.429   2.259   5.143
 4665TIP3    H114001   4.392   2.188   5.199
 4665TIP3    H214002   4.522   2.258   5.173
 4666TIP3   OH214003   4.681   2.259   5.262
 4666TIP3    H114004   4.766   2.235   5.224
 4666TIP3    H214005   4.668   2.188   5.328
 4667TIP3   OH214006   5.512   2.334   5.044
 4667TIP3    H114007   5.526   2.305   5.137
 4667TIP3    H214008   5.602   2.326   5.008
 4668TIP3   OH214009   5.439   3.872   4.539
 4668TIP3    H114010   5.360   3.845   4.488
 4668TIP3    H214011   5.419   3.967   4.553
 4669TIP3   OH214012   6.593   3.209   3.750
 4669TIP3    H114013   6.688   3.229   3.740
 4669TIP3    H214014   6.579   3.143   3.679
 4670TIP3   OH214015   6.004   3.133   4.058
 4670TIP3    H114016   6.034   3.063   4.118
 4670TIP3    H214017   6.084   3.186   4.049
 4671TIP3   OH214018   5.989   3.557   3.769
 4671TIP3    H114019   5.980   3.459   3.770
 4671TIP3    H214020   6.086   3.565   3.762
 4672TIP3   OH214021   5.688   2.751   3.546
 4672TIP3    H114022   5.640   2.831   3.575
 4672TIP3    H214023   5.616   2.706   3.498
 4673TIP3   OH214024   5.743   3.043   3.750
 4673TIP3    H114025   5.796   2.965   3.777
 4673TIP3    H214026   5.805   3.092   3.695
 4674TIP3   OH214027   6.643   3.968   3.390
 4674TIP3    H114028   6.691   3.885   3.400
 4674TIP3    H214029   6.609   3.976   3.480
 4675TIP3   OH214030   6.499   3.469   3.735
 4675TIP3    H114031   6.532   3.376   3.740
 4675TIP3    H214032   6.577   3.511   3.693
 4676TIP3   OH214033   6.244   2.633   3.733
 4676TIP3    H114034   6.234   2.709   3.671
 4676TIP3    H214035   6.189   2.566   3.687
 4677TIP3   OH214036   5.894   2.836   3.841
 4677TIP3    H114037   5.976   2.818   3.891
 4677TIP3    H214038   5.911   2.782   3.761
 4678TIP3   OH214039   6.310   3.029   3.646
 4678TIP3    H114040   6.394   2.987   3.675
 4678TIP3    H214041   6.266   2.951   3.605
 4679TIP3   OH214042   6.248   2.629   4.177
 4679TIP3    H114043   6.193   2.659   4.103
 4679TIP3    H214044   6.189   2.648   4.253
 4680TIP3   OH214045   6.605   3.483   3.160
 4680TIP3    H114046   6.532   3.462   3.100
 4680TIP3    H214047   6.580   3.573   3.189
 4681TIP3   OH214048   6.368   3.401   3.963
 4681TIP3    H114049   6.308   3.473   3.993
 4681TIP3    H214050   6.411   3.442   3.886
 4682TIP3   OH214051   6.125   2.734   3.954
 4682TIP3    H114052   6.188   2.807   3.976
 4682TIP3    H214053   6.174   2.693   3.878
 4683TIP3   OH214054   6.199   3.602   4.056
 4683TIP3    H114055   6.174   3.692   4.027
 4683TIP3    H214056   6.118   3.579   4.107
 4684TIP3   OH214057   5.577   3.287   3.292
 4684TIP3    H114058   5.538   3.313   3.207
 4684TIP3    H214059   5.608   3.374   3.326
 4685TIP3   OH214060   6.472   3.040   3.139
 4685TIP3    H114061   6.434   3.129   3.135
 4685TIP3    H214062   6.526   3.039   3.059
 4686TIP3   OH214063   6.114   3.181   3.524
 4686TIP3    H114064   6.078   3.122   3.455
 4686TIP3    H214065   6.188   3.128   3.560
 4687TIP3   OH214066   6.251   3.598   3.667
 4687TIP3    H114067   6.234   3.572   3.575
 4687TIP3    H214068   6.335   3.551   3.688
 4688TIP3   OH214069   6.250   3.159   3.884
 4688TIP3    H114070   6.282   3.126   3.797
 4688TIP3    H214071   6.304   3.239   3.898
 4689TIP3   OH214072   6.724   3.833   3.626
 4689TIP3    H114073   6.733   3.881   3.710
 4689TIP3    H214074   6.771   3.750   3.646
 4690TIP3   OH214075   6.393   3.702   4.219
 4690TIP3    H114076   6.332   3.765   4.263
 4690TIP3    H214077   6.330   3.654   4.161
 4691TIP3   OH214078   6.155   3.256   4.322
 4691TIP3    H114079   6.160   3.347   4.357
 4691TIP3    H214080   6.060   3.237   4.337
 4692TIP3   OH214081   6.497   3.743   3.196
 4692TIP3    H114082   6.479   3.817   3.255
 4692TIP3    H214083   6.430   3.756   3.127
 4693TIP3   OH214084   6.191   3.879   4.300
 4693TIP3    H114085   6.153   3.882   4.210
 4693TIP3    H214086   6.112   3.857   4.355
 4694TIP3   OH214087   5.992   3.025   3.318
 4694TIP3    H114088   5.915   3.066   3.273
 4694TIP3    H214089   5.957   2.938   3.341
 4695TIP3   OH214090   5.770   3.411   4.242
 4695TIP3    H114091   5.698   3.396   4.176
 4695TIP3    H214092   5.806   3.321   4.254
 4696TIP3   OH214093   5.622   3.604   3.868
 4696TIP3    H114094   5.719   3.609   3.871
 4696TIP3    H214095   5.598   3.681   3.922
 4697TIP3   OH214096   6.573   3.826   4.051
 4697TIP3    H114097   6.580   3.916   4.090
 4697TIP3    H214098   6.513   3.783   4.115
 4698TIP3   OH214099   6.344   3.957   3.025
 4698TIP3    H114100   6.296   3.950   2.941
 4698TIP3    H214101   6.316   4.045   3.057
 4699TIP3   OH214102   5.795   3.810   3.404
 4699TIP3    H114103   5.839   3.802   3.492
 4699TIP3    H214104   5.752   3.724   3.396
 4700TIP3   OH214105   6.568   3.846   2.650
 4700TIP3    H114106   6.643   3.782   2.645
 4700TIP3    H214107   6.580   3.878   2.742
 4701TIP3   OH214108   6.584   3.910   2.912
 4701TIP3    H114109   6.498   3.925   2.956
 4701TIP3    H214110   6.634   3.870   2.985
 4702TIP3   OH214111   5.975   3.591   4.214
 4702TIP3    H114112   6.020   3.578   4.299
 4702TIP3    H214113   5.899   3.530   4.223
 4703TIP3   OH214114   6.351   2.381   4.038
 4703TIP3    H114115   6.257   2.375   4.015
 4703TIP3    H214116   6.363   2.476   4.047
 4704TIP3   OH214117   6.297   2.930   4.027
 4704TIP3    H114118   6.250   2.947   4.110
 4704TIP3    H214119   6.284   3.015   3.979
 4705TIP3   OH214120   6.181   2.815   3.542
 4705TIP3    H114121   6.089   2.784   3.560
 4705TIP3    H214122   6.197   2.776   3.453
 4706TIP3   OH214123   6.128   2.956   4.242
 4706TIP3    H114124   6.141   3.022   4.311
 4706TIP3    H214125   6.112   2.875   4.293
 4707TIP3   OH214126   6.168   2.410   2.957
 4707TIP3    H114127   6.160   2.423   3.053
 4707TIP3    H214128   6.103   2.475   2.923
 4708TIP3   OH214129   5.719   2.469   3.825
 4708TIP3    H114130   5.785   2.513   3.883
 4708TIP3    H214131   5.767   2.455   3.743
 4709TIP3   OH214132   5.661   2.455   3.340
 4709TIP3    H114133   5.707   2.492   3.261
 4709TIP3    H214134   5.601   2.529   3.359
 4710TIP3   OH214135   6.498   2.609   3.629
 4710TIP3    H114136   6.403   2.607   3.652
 4710TIP3    H214137   6.534   2.633   3.716
 4711TIP3   OH214138   5.946   2.695   3.608
 4711TIP3    H114139   5.852   2.704   3.578
 4711TIP3    H214140   5.967   2.603   3.584
 4712TIP3   OH214141   6.208   2.706   3.297
 4712TIP3    H114142   6.285   2.741   3.252
 4712TIP3    H214143   6.141   2.712   3.225
 4713TIP3   OH214144   6.056   2.720   3.078
 4713TIP3    H114145   5.995   2.667   3.023
 4713TIP3    H214146   6.109   2.764   3.008
 4714TIP3   OH214147   6.140   3.512   4.446
 4714TIP3    H114148   6.218   3.543   4.495
 4714TIP3    H214149   6.073   3.511   4.517
 4715TIP3   OH214150   6.544   2.906   3.714
 4715TIP3    H114151   6.585   2.913   3.625
 4715TIP3    H214152   6.623   2.903   3.771
 4716TIP3   OH214153   6.104   2.449   3.590
 4716TIP3    H114154   6.062   2.376   3.641
 4716TIP3    H214155   6.175   2.399   3.545
 4717TIP3   OH214156   6.566   2.874   4.044
 4717TIP3    H114157   6.473   2.877   4.014
 4717TIP3    H214158   6.590   2.967   4.033
 4718TIP3   OH214159   6.292   3.267   3.089
 4718TIP3    H114160   6.227   3.195   3.076
 4718TIP3    H214161   6.273   3.293   3.182
 4719TIP3   OH214162   6.747   3.575   4.116
 4719TIP3    H114163   6.696   3.561   4.197
 4719TIP3    H214164   6.696   3.642   4.070
 4720TIP3   OH214165   6.007   3.282   3.759
 4720TIP3    H114166   6.043   3.252   3.672
 4720TIP3    H214167   6.059   3.229   3.821
 4721TIP3   OH214168   6.440   3.409   2.917
 4721TIP3    H114169   6.399   3.499   2.918
 4721TIP3    H214170   6.379   3.359   2.977
 4722TIP3   OH214171   5.893   3.188   4.375
 4722TIP3    H114172   5.897   3.172   4.471
 4722TIP3    H214173   5.817   3.131   4.351
 4723TIP3   OH214174   6.601   3.289   4.401
 4723TIP3    H114175   6.522   3.244   4.367
 4723TIP3    H214176   6.664   3.213   4.402
 4724TIP3   OH214177   6.830   3.850   3.946
 4724TIP3    H114178   6.738   3.840   3.977
 4724TIP3    H214179   6.867   3.900   4.021
 4725TIP3   OH214180   6.107   3.591   3.392
 4725TIP3    H114181   6.093   3.670   3.335
 4725TIP3    H214182   6.016   3.567   3.414
 4726TIP3   OH214183   5.676   2.882   3.106
 4726TIP3    H114184   5.717   2.968   3.128
 4726TIP3    H214185   5.597   2.885   3.164
 4727TIP3   OH214186   6.224   3.348   3.334
 4727TIP3    H114187   6.191   3.438   3.354
 4727TIP3    H214188   6.187   3.296   3.408
 4728TIP3   OH214189   6.382   3.920   3.853
 4728TIP3    H114190   6.429   3.988   3.800
 4728TIP3    H214191   6.456   3.876   3.898
 4729TIP3   OH214192   6.021   3.820   3.244
 4729TIP3    H114193   5.935   3.833   3.290
 4729TIP3    H214194   6.056   3.912   3.247
 4730TIP3   OH214195   6.081   2.707   4.382
 4730TIP3    H114196   5.984   2.710   4.392
 4730TIP3    H214197   6.108   2.657   4.460
 4731TIP3   OH214198   5.817   3.785   4.009
 4731TIP3    H114199   5.872   3.723   4.060
 4731TIP3    H214200   5.827   3.866   4.060
 4732TIP3   OH214201   6.093   3.441   2.704
 4732TIP3    H114202   6.124   3.351   2.682
 4732TIP3    H214203   6.067   3.430   2.797
 4733TIP3   OH214204   6.038   3.438   2.975
 4733TIP3    H114205   6.115   3.410   3.026
 4733TIP3    H214206   6.039   3.535   2.987
 4734TIP3   OH214207   5.772   3.128   3.184
 4734TIP3    H114208   5.704   3.174   3.237
 4734TIP3    H214209   5.783   3.193   3.112
 4735TIP3   OH214210   6.315   3.651   2.935
 4735TIP3    H114211   6.222   3.664   2.962
 4735TIP3    H214212   6.326   3.728   2.876
 4736TIP3   OH214213   6.055   3.709   2.997
 4736TIP3    H114214   6.028   3.781   2.935
 4736TIP3    H214215   6.039   3.752   3.084
 4737TIP3   OH214216   6.149   2.427   3.235
 4737TIP3    H114217   6.143   2.515   3.274
 4737TIP3    H214218   6.243   2.406   3.258
 4738TIP3   OH214219   5.778   3.321   2.980
 4738TIP3    H114220   5.854   3.383   2.988
 4738TIP3    H214221   5.817   3.259   2.915
 4739TIP3   OH214222   5.711   2.609   3.118
 4739TIP3    H114223   5.719   2.707   3.121
 4739TIP3    H214224   5.636   2.598   3.059
 4740TIP3   OH214225   6.084   2.335   3.984
 4740TIP3    H114226   6.063   2.301   3.894
 4740TIP3    H214227   6.077   2.254   4.039
 4741TIP3   OH214228   5.629   3.550   3.361
 4741TIP3    H114229   5.587   3.582   3.443
 4741TIP3    H214230   5.582   3.602   3.291
 4742TIP3   OH214231   5.815   4.111   4.440
 4742TIP3    H114232   5.900   4.111   4.489
 4742TIP3    H214233   5.792   4.017   4.440
 4743TIP3   OH214234   6.346   4.068   4.424
 4743TIP3    H114235   6.408   3.996   4.450
 4743TIP3    H214236   6.280   4.014   4.375
 4744TIP3   OH214237   6.251   3.647   2.607
 4744TIP3    H114238   6.205   3.569   2.645
 4744TIP3    H214239   6.330   3.607   2.566
 4745TIP3   OH214240   6.891   3.963   4.199
 4745TIP3    H114241   6.867   3.918   4.283
 4745TIP3    H214242   6.979   3.924   4.179
 4746TIP3   OH214243   5.934   3.506   4.635
 4746TIP3    H114244   5.947   3.410   4.647
 4746TIP3    H214245   5.846   3.509   4.590
 4747TIP3   OH214246   5.920   3.141   2.839
 4747TIP3    H114247   5.979   3.121   2.915
 4747TIP3    H214248   5.986   3.146   2.767
 4748TIP3   OH214249   6.548   3.581   4.408
 4748TIP3    H114250   6.493   3.614   4.334
 4748TIP3    H214251   6.562   3.487   4.388
 4749TIP3   OH214252   6.401   3.349   2.648
 4749TIP3    H114253   6.405   3.364   2.745
 4749TIP3    H214254   6.479   3.291   2.635
 4750TIP3   OH214255   6.057   3.247   4.630
 4750TIP3    H114256   6.136   3.205   4.594
 4750TIP3    H214257   6.088   3.276   4.718
 4751TIP3   OH214258   6.105   3.068   3.050
 4751TIP3    H114259   6.081   3.035   3.139
 4751TIP3    H214260   6.144   2.988   3.009
 4752TIP3   OH214261   6.402   3.140   4.285
 4752TIP3    H114262   6.316   3.186   4.280
 4752TIP3    H214263   6.443   3.161   4.198
 4753TIP3   OH214264   6.209   2.857   2.896
 4753TIP3    H114265   6.181   2.865   2.802
 4753TIP3    H214266   6.304   2.849   2.886
 4754TIP3   OH214267   6.496   2.920   4.413
 4754TIP3    H114268   6.501   2.839   4.357
 4754TIP3    H214269   6.457   2.986   4.351
 4755TIP3   OH214270   6.504   2.696   4.246
 4755TIP3    H114271   6.536   2.750   4.170
 4755TIP3    H214272   6.413   2.673   4.217
 4756TIP3   OH214273   6.528   3.197   4.051
 4756TIP3    H114274   6.583   3.196   3.971
 4756TIP3    H214275   6.473   3.276   4.032
 4757TIP3   OH214276   6.394   3.007   4.651
 4757TIP3    H114277   6.325   2.940   4.671
 4757TIP3    H214278   6.422   2.979   4.561
 4758TIP3   OH214279   6.620   2.447   4.291
 4758TIP3    H114280   6.583   2.537   4.288
 4758TIP3    H214281   6.543   2.394   4.317
 4759TIP3   OH214282   6.739   3.054   4.447
 4759TIP3    H114283   6.801   2.993   4.489
 4759TIP3    H214284   6.654   3.005   4.454
 4760TIP3   OH214285   6.226   2.790   4.707
 4760TIP3    H114286   6.228   2.698   4.675
 4760TIP3    H214287   6.267   2.779   4.796
 4761TIP3   OH214288   6.745   2.652   4.621
 4761TIP3    H114289   6.684   2.598   4.570
 4761TIP3    H214290   6.685   2.716   4.667
 4762TIP3   OH214291   6.037   3.914   2.810
 4762TIP3    H114292   6.131   3.901   2.786
 4762TIP3    H214293   6.008   3.968   2.734
 4763TIP3   OH214294   5.506   3.297   3.012
 4763TIP3    H114295   5.602   3.315   2.999
 4763TIP3    H214296   5.499   3.208   2.970
 4764TIP3   OH214297   5.431   3.902   3.442
 4764TIP3    H114298   5.366   3.844   3.397
 4764TIP3    H214299   5.473   3.838   3.503
 4765TIP3   OH214300   5.563   3.737   3.623
 4765TIP3    H114301   5.550   3.676   3.698
 4765TIP3    H214302   5.615   3.806   3.667
 4766TIP3   OH214303   5.739   3.160   3.998
 4766TIP3    H114304   5.732   3.121   3.908
 4766TIP3    H214305   5.837   3.160   4.010
 4767TIP3   OH214306   5.961   2.843   4.662
 4767TIP3    H114307   6.058   2.842   4.676
 4767TIP3    H214308   5.938   2.756   4.699
 4768TIP3   OH214309   5.916   2.551   3.999
 4768TIP3    H114310   5.974   2.473   4.003
 4768TIP3    H214311   5.982   2.622   3.988
 4769TIP3   OH214312   5.716   2.811   4.066
 4769TIP3    H114313   5.770   2.812   3.984
 4769TIP3    H214314   5.741   2.894   4.107
 4770TIP3   OH214315   5.710   2.306   3.563
 4770TIP3    H114316   5.621   2.303   3.602
 4770TIP3    H214317   5.698   2.369   3.489
 4771TIP3   OH214318   5.930   2.387   4.381
 4771TIP3    H114319   5.880   2.393   4.464
 4771TIP3    H214320   5.869   2.434   4.320
 4772TIP3   OH214321   5.969   3.829   4.461
 4772TIP3    H114322   5.874   3.815   4.446
 4772TIP3    H214323   5.976   3.810   4.555
 4773TIP3   OH214324   6.160   3.873   4.013
 4773TIP3    H114325   6.108   3.947   3.976
 4773TIP3    H214326   6.243   3.887   3.963
 4774TIP3   OH214327   6.612   4.084   4.141
 4774TIP3    H114328   6.670   4.075   4.219
 4774TIP3    H214329   6.666   4.147   4.087
 4775TIP3   OH214330   6.753   4.253   3.982
 4775TIP3    H114331   6.786   4.188   3.916
 4775TIP3    H214332   6.818   4.326   3.972
 4776TIP3   OH214333   5.828   4.124   4.042
 4776TIP3    H114334   5.733   4.141   4.023
 4776TIP3    H214335   5.845   4.194   4.108
 4777TIP3   OH214336   6.058   4.099   3.897
 4777TIP3    H114337   5.971   4.108   3.942
 4777TIP3    H214338   6.037   4.129   3.806
 4778TIP3   OH214339   6.486   4.113   3.682
 4778TIP3    H114340   6.406   4.126   3.628
 4778TIP3    H214341   6.491   4.200   3.728
 4779TIP3   OH214342   6.761   4.104   3.743
 4779TIP3    H114343   6.667   4.096   3.719
 4779TIP3    H214344   6.790   4.179   3.689
 4780TIP3   OH214345   5.736   3.911   3.770
 4780TIP3    H114346   5.760   3.876   3.859
 4780TIP3    H214347   5.811   3.872   3.719
 4781TIP3   OH214348   5.936   3.786   3.638
 4781TIP3    H114349   5.947   3.702   3.689
 4781TIP3    H214350   6.028   3.819   3.639
 4782TIP3   OH214351   6.204   3.870   3.650
 4782TIP3    H114352   6.226   3.774   3.647
 4782TIP3    H214353   6.259   3.896   3.727
 4783TIP3   OH214354   6.011   2.240   3.733
 4783TIP3    H114355   5.918   2.209   3.739
 4783TIP3    H214356   6.056   2.153   3.729
 4784TIP3   OH214357   5.825   2.114   3.394
 4784TIP3    H114358   5.846   2.172   3.319
 4784TIP3    H214359   5.791   2.179   3.460
 4785TIP3   OH214360   6.386   2.282   3.620
 4785TIP3    H114361   6.471   2.291   3.574
 4785TIP3    H214362   6.401   2.333   3.701
 4786TIP3   OH214363   5.518   3.697   3.158
 4786TIP3    H114364   5.430   3.668   3.129
 4786TIP3    H214365   5.518   3.787   3.120
 4787TIP3   OH214366   5.929   2.265   3.152
 4787TIP3    H114367   5.977   2.206   3.092
 4787TIP3    H214368   6.002   2.321   3.187
 4788TIP3   OH214369   6.420   2.415   3.285
 4788TIP3    H114370   6.488   2.364   3.331
 4788TIP3    H214371   6.473   2.464   3.221
 4789TIP3   OH214372   6.302   3.867   2.753
 4789TIP3    H114373   6.387   3.888   2.711
 4789TIP3    H214374   6.273   3.793   2.693
 4790TIP3   OH214375   6.219   2.519   4.625
 4790TIP3    H114376   6.182   2.446   4.678
 4790TIP3    H214377   6.313   2.516   4.654
 4791TIP3   OH214378   6.466   2.514   4.749
 4791TIP3    H114379   6.553   2.479   4.724
 4791TIP3    H214380   6.437   2.447   4.816
 4792TIP3   OH214381   5.599   3.697   2.799
 4792TIP3    H114382   5.609   3.713   2.894
 4792TIP3    H214383   5.684   3.651   2.778
 4793TIP3   OH214384   0.963   4.294   4.481
 4793TIP3    H114385   0.928   4.382   4.455
 4793TIP3    H214386   0.891   4.238   4.448
 4794TIP3   OH214387   0.960   4.301   4.883
 4794TIP3    H114388   1.005   4.279   4.967
 4794TIP3    H214389   0.925   4.214   4.857
 4795TIP3   OH214390   1.202   4.603   4.546
 4795TIP3    H114391   1.189   4.546   4.623
 4795TIP3    H214392   1.263   4.670   4.580
 4796TIP3   OH214393   0.855   5.053   4.568
 4796TIP3    H114394   0.895   4.985   4.511
 4796TIP3    H214395   0.857   5.010   4.655
 4797TIP3   OH214396   0.771   4.516   4.915
 4797TIP3    H114397   0.819   4.439   4.878
 4797TIP3    H214398   0.849   4.570   4.941
 4798TIP3   OH214399   1.778   3.836   4.911
 4798TIP3    H114400   1.808   3.921   4.950
 4798TIP3    H214401   1.809   3.845   4.819
 4799TIP3   OH214402   1.171   4.015   4.938
 4799TIP3    H114403   1.216   3.931   4.959
 4799TIP3    H214404   1.136   3.995   4.849
 4800TIP3   OH214405   0.533   3.682   4.899
 4800TIP3    H114406   0.511   3.756   4.839
 4800TIP3    H214407   0.486   3.609   4.853
 4801TIP3   OH214408   1.212   3.774   4.523
 4801TIP3    H114409   1.282   3.766   4.593
 4801TIP3    H214410   1.266   3.807   4.449
 4802TIP3   OH214411   0.598   4.084   4.818
 4802TIP3    H114412   0.692   4.058   4.831
 4802TIP3    H214413   0.560   4.001   4.783
 4803TIP3   OH214414   1.851   4.048   5.083
 4803TIP3    H114415   1.766   4.092   5.064
 4803TIP3    H214416   1.875   4.089   5.168
 4804TIP3   OH214417   0.522   3.661   5.323
 4804TIP3    H114418   0.455   3.688   5.257
 4804TIP3    H214419   0.471   3.675   5.406
 4805TIP3   OH214420   0.837   4.498   4.344
 4805TIP3    H114421   0.811   4.503   4.251
 4805TIP3    H214422   0.800   4.582   4.377
 4806TIP3   OH214423   0.625   4.473   5.134
 4806TIP3    H114424   0.618   4.560   5.174
 4806TIP3    H214425   0.672   4.494   5.050
 4807TIP3   OH214426   1.399   3.790   4.719
 4807TIP3    H114427   1.381   3.754   4.806
 4807TIP3    H214428   1.454   3.869   4.741
 4808TIP3   OH214429   0.393   3.790   5.115
 4808TIP3    H114430   0.457   3.856   5.148
 4808TIP3    H214431   0.443   3.746   5.043
 4809TIP3   OH214432   1.278   4.839   4.729
 4809TIP3    H114433   1.184   4.835   4.754
 4809TIP3    H214434   1.278   4.913   4.665
 4810TIP3   OH214435   1.574   3.732   5.078
 4810TIP3    H114436   1.488   3.760   5.042
 4810TIP3    H214437   1.636   3.766   5.010
 4811TIP3   OH214438   0.861   3.369   5.058
 4811TIP3    H114439   0.840   3.276   5.081
 4811TIP3    H214440   0.786   3.414   5.102
 4812TIP3   OH214441   0.962   4.889   4.374
 4812TIP3    H114442   1.014   4.806   4.359
 4812TIP3    H214443   1.028   4.954   4.339
 4813TIP3   OH214444   1.101   4.669   4.300
 4813TIP3    H114445   1.084   4.583   4.260
 4813TIP3    H214446   1.146   4.643   4.384
 4814TIP3   OH214447   1.505   4.739   5.054
 4814TIP3    H114448   1.491   4.673   4.983
 4814TIP3    H214449   1.483   4.822   5.006
 4815TIP3   OH214450   0.798   4.139   4.324
 4815TIP3    H114451   0.720   4.197   4.308
 4815TIP3    H214452   0.843   4.142   4.238
 4816TIP3   OH214453   0.747   3.942   4.021
 4816TIP3    H114454   0.813   3.993   4.073
 4816TIP3    H214455   0.807   3.880   3.974
 4817TIP3   OH214456   1.680   4.406   4.932
 4817TIP3    H114457   1.598   4.459   4.915
 4817TIP3    H214458   1.720   4.412   4.842
 4818TIP3   OH214459   1.138   4.230   4.282
 4818TIP3    H114460   1.084   4.254   4.361
 4818TIP3    H214461   1.223   4.207   4.325
 4819TIP3   OH214462   1.369   4.263   5.215
 4819TIP3    H114463   1.364   4.346   5.266
 4819TIP3    H214464   1.285   4.266   5.165
 4820TIP3   OH214465   0.396   4.249   4.715
 4820TIP3    H114466   0.356   4.218   4.632
 4820TIP3    H214467   0.476   4.194   4.724
 4821TIP3   OH214468   0.514   4.667   4.854
 4821TIP3    H114469   0.514   4.654   4.758
 4821TIP3    H214470   0.608   4.679   4.872
 4822TIP3   OH214471   0.552   4.200   5.068
 4822TIP3    H114472   0.587   4.179   4.979
 4822TIP3    H214473   0.587   4.290   5.085
 4823TIP3   OH214474   1.023   4.837   4.833
 4823TIP3    H114475   1.020   4.917   4.888
 4823TIP3    H214476   1.006   4.766   4.897
 4824TIP3   OH214477   0.971   4.091   4.112
 4824TIP3    H114478   1.034   4.151   4.159
 4824TIP3    H214479   0.998   4.106   4.018
 4825TIP3   OH214480   0.731   4.747   4.378
 4825TIP3    H114481   0.814   4.800   4.373
 4825TIP3    H214482   0.663   4.815   4.377
 4826TIP3   OH214483   1.493   3.323   4.166
 4826TIP3    H114484   1.412   3.349   4.214
 4826TIP3    H214485   1.509   3.402   4.111
 4827TIP3   OH214486   1.297   4.689   3.714
 4827TIP3    H114487   1.303   4.786   3.699
 4827TIP3    H214488   1.390   4.662   3.697
 4828TIP3   OH214489   1.751   5.112   5.123
 4828TIP3    H114490   1.741   5.015   5.129
 4828TIP3    H214491   1.663   5.138   5.159
 4829TIP3   OH214492   0.849   4.873   5.274
 4829TIP3    H114493   0.863   4.969   5.291
 4829TIP3    H214494   0.755   4.866   5.293
 4830TIP3   OH214495   0.604   5.012   4.192
 4830TIP3    H114496   0.558   5.017   4.107
 4830TIP3    H214497   0.596   5.104   4.226
 4831TIP3   OH214498   0.794   4.908   3.829
 4831TIP3    H114499   0.855   4.839   3.796
 4831TIP3    H214500   0.832   4.925   3.918
 4832TIP3   OH214501   0.857   4.963   4.094
 4832TIP3    H114502   0.771   4.968   4.140
 4832TIP3    H214503   0.916   4.934   4.166
 4833TIP3   OH214504   1.630   4.232   5.378
 4833TIP3    H114505   1.544   4.236   5.334
 4833TIP3    H214506   1.648   4.136   5.375
 4834TIP3   OH214507   0.636   3.456   5.184
 4834TIP3    H114508   0.545   3.420   5.169
 4834TIP3    H214509   0.610   3.539   5.229
 4835TIP3   OH214510   1.162   3.572   5.388
 4835TIP3    H114511   1.233   3.545   5.449
 4835TIP3    H214512   1.080   3.553   5.439
 4836TIP3   OH214513   1.385   4.000   5.303
 4836TIP3    H114514   1.336   4.000   5.388
 4836TIP3    H214515   1.366   4.089   5.268
 4837TIP3   OH214516   1.045   4.109   3.851
 4837TIP3    H114517   1.015   4.097   3.759
 4837TIP3    H214518   1.133   4.151   3.836
 4838TIP3   OH214519   0.765   3.503   4.164
 4838TIP3    H114520   0.729   3.499   4.255
 4838TIP3    H214521   0.727   3.420   4.128
 4839TIP3   OH214522   0.572   3.975   5.216
 4839TIP3    H114523   0.536   4.008   5.300
 4839TIP3    H214524   0.561   4.056   5.161
 4840TIP3   OH214525   0.458   3.871   4.719
 4840TIP3    H114526   0.369   3.872   4.761
 4840TIP3    H214527   0.442   3.820   4.637
 4841TIP3   OH214528   0.922   3.936   4.459
 4841TIP3    H114529   0.879   4.010   4.412
 4841TIP3    H214530   0.982   3.901   4.389
 4842TIP3   OH214531   1.109   4.216   5.534
 4842TIP3    H114532   1.081   4.144   5.595
 4842TIP3    H214533   1.203   4.224   5.560
 4843TIP3   OH214534   1.079   3.964   4.686
 4843TIP3    H114535   1.012   3.989   4.619
 4843TIP3    H214536   1.120   3.890   4.637
 4844TIP3   OH214537   0.434   3.481   4.131
 4844TIP3    H114538   0.412   3.471   4.226
 4844TIP3    H214539   0.364   3.543   4.102
 4845TIP3   OH214540   1.094   4.211   5.106
 4845TIP3    H114541   1.126   4.141   5.044
 4845TIP3    H214542   1.062   4.155   5.179
 4846TIP3   OH214543   0.788   3.674   4.778
 4846TIP3    H114544   0.711   3.679   4.838
 4846TIP3    H214545   0.862   3.660   4.841
 4847TIP3   OH214546   0.452   3.727   4.482
 4847TIP3    H114547   0.549   3.747   4.480
 4847TIP3    H214548   0.420   3.766   4.398
 4848TIP3   OH214549   1.258   3.759   4.992
 4848TIP3    H114550   1.229   3.774   5.084
 4848TIP3    H214551   1.187   3.701   4.960
 4849TIP3   OH214552   0.314   3.799   4.257
 4849TIP3    H114553   0.256   3.747   4.198
 4849TIP3    H214554   0.377   3.834   4.189
 4850TIP3   OH214555   1.433   5.443   5.212
 4850TIP3    H114556   1.426   5.468   5.118
 4850TIP3    H214557   1.516   5.488   5.237
 4851TIP3   OH214558   0.853   4.016   4.886
 4851TIP3    H114559   0.925   3.973   4.837
 4851TIP3    H214560   0.853   3.967   4.971
 4852TIP3   OH214561   0.397   3.496   4.747
 4852TIP3    H114562   0.403   3.424   4.813
 4852TIP3    H214563   0.436   3.454   4.669
 4853TIP3   OH214564   0.834   3.919   5.152
 4853TIP3    H114565   0.742   3.941   5.179
 4853TIP3    H214566   0.887   3.976   5.211
 4854TIP3   OH214567   0.582   4.297   4.272
 4854TIP3    H114568   0.508   4.232   4.264
 4854TIP3    H214569   0.559   4.339   4.359
 4855TIP3   OH214570   1.452   4.548   4.859
 4855TIP3    H114571   1.446   4.598   4.776
 4855TIP3    H214572   1.371   4.491   4.851
 4856TIP3   OH214573   1.014   3.604   4.142
 4856TIP3    H114574   0.918   3.581   4.151
 4856TIP3    H214575   1.018   3.698   4.168
 4857TIP3   OH214576   0.941   4.614   5.273
 4857TIP3    H114577   0.997   4.612   5.352
 4857TIP3    H214578   0.909   4.707   5.274
 4858TIP3   OH214579   1.079   3.860   4.240
 4858TIP3    H114580   1.176   3.866   4.253
 4858TIP3    H214581   1.060   3.942   4.191
 4859TIP3   OH214582   0.701   4.451   4.086
 4859TIP3    H114583   0.646   4.532   4.095
 4859TIP3    H214584   0.661   4.392   4.153
 4860TIP3   OH214585   0.879   4.360   5.565
 4860TIP3    H114586   0.829   4.321   5.491
 4860TIP3    H214587   0.968   4.322   5.547
 4861TIP3   OH214588   1.116   4.869   5.168
 4861TIP3    H114589   1.020   4.868   5.184
 4861TIP3    H214590   1.145   4.928   5.241
 4862TIP3   OH214591   1.513   3.960   4.071
 4862TIP3    H114592   1.453   3.916   4.005
 4862TIP3    H214593   1.512   4.050   4.031
 4863TIP3   OH214594   1.757   4.831   5.130
 4863TIP3    H114595   1.661   4.811   5.131
 4863TIP3    H214596   1.780   4.792   5.043
 4864TIP3   OH214597   1.217   4.777   3.977
 4864TIP3    H114598   1.205   4.712   4.047
 4864TIP3    H214599   1.238   4.722   3.899
 4865TIP3   OH214600   1.224   4.397   4.808
 4865TIP3    H114601   1.130   4.376   4.819
 4865TIP3    H214602   1.256   4.316   4.763
 4866TIP3   OH214603   0.503   4.416   4.502
 4866TIP3    H114604   0.481   4.510   4.503
 4866TIP3    H214605   0.462   4.383   4.584
 4867TIP3   OH214606   0.676   4.928   4.980
 4867TIP3    H114607   0.743   4.991   4.947
 4867TIP3    H214608   0.656   4.965   5.068
 4868TIP3   OH214609   1.005   4.612   5.005
 4868TIP3    H114610   0.991   4.605   5.102
 4868TIP3    H214611   1.086   4.560   4.993
 4869TIP3   OH214612   0.996   4.504   3.883
 4869TIP3    H114613   1.051   4.479   3.961
 4869TIP3    H214614   0.909   4.470   3.909
 4870TIP3   OH214615   1.261   5.136   5.044
 4870TIP3    H114616   1.177   5.087   5.037
 4870TIP3    H214617   1.250   5.200   4.970
 4871TIP3   OH214618   1.322   4.967   3.690
 4871TIP3    H114619   1.359   5.047   3.648
 4871TIP3    H214620   1.241   5.006   3.729
 4872TIP3   OH214621   1.156   4.426   4.090
 4872TIP3    H114622   1.146   4.360   4.162
 4872TIP3    H214623   1.253   4.425   4.078
 4873TIP3   OH214624   0.368   4.446   3.874
 4873TIP3    H114625   0.371   4.355   3.836
 4873TIP3    H214626   0.367   4.424   3.970
 4874TIP3   OH214627   0.350   4.437   4.148
 4874TIP3    H114628   0.439   4.463   4.173
 4874TIP3    H214629   0.301   4.521   4.161
 4875TIP3   OH214630   1.184   3.813   5.252
 4875TIP3    H114631   1.267   3.854   5.282
 4875TIP3    H214632   1.179   3.732   5.306
 4876TIP3   OH214633   1.069   3.552   4.426
 4876TIP3    H114634   1.056   3.573   4.331
 4876TIP3    H214635   1.112   3.633   4.459
 4877TIP3   OH214636   0.547   4.674   4.117
 4877TIP3    H114637   0.518   4.720   4.197
 4877TIP3    H214638   0.561   4.747   4.055
 4878TIP3   OH214639   0.727   3.751   4.520
 4878TIP3    H114640   0.794   3.820   4.500
 4878TIP3    H214641   0.746   3.736   4.615
 4879TIP3   OH214642   1.022   4.052   5.315
 4879TIP3    H114643   1.055   4.097   5.395
 4879TIP3    H214644   1.072   3.968   5.317
 4880TIP3   OH214645   0.889   3.449   4.611
 4880TIP3    H114646   0.881   3.527   4.668
 4880TIP3    H214647   0.957   3.480   4.546
 4881TIP3   OH214648   0.414   3.464   4.409
 4881TIP3    H114649   0.418   3.557   4.440
 4881TIP3    H214650   0.510   3.444   4.409
 4882TIP3   OH214651   1.653   3.962   5.310
 4882TIP3    H114652   1.554   3.961   5.314
 4882TIP3    H214653   1.666   3.912   5.228
 4883TIP3   OH214654   1.307   4.151   4.692
 4883TIP3    H114655   1.231   4.092   4.704
 4883TIP3    H214656   1.378   4.104   4.740
 4884TIP3   OH214657   1.285   5.119   4.633
 4884TIP3    H114658   1.239   5.164   4.558
 4884TIP3    H214659   1.378   5.145   4.612
 4885TIP3   OH214660   0.381   3.366   5.188
 4885TIP3    H114661   0.360   3.341   5.097
 4885TIP3    H214662   0.360   3.286   5.240
 4886TIP3   OH214663   0.516   4.667   3.802
 4886TIP3    H114664   0.464   4.590   3.833
 4886TIP3    H214665   0.599   4.624   3.777
 4887TIP3   OH214666   1.173   5.012   5.391
 4887TIP3    H114667   1.179   4.939   5.457
 4887TIP3    H214668   1.248   5.068   5.416
 4888TIP3   OH214669   0.945   4.711   3.706
 4888TIP3    H114670   0.984   4.649   3.771
 4888TIP3    H214671   1.008   4.705   3.631
 4889TIP3   OH214672   0.801   4.630   5.582
 4889TIP3    H114673   0.749   4.620   5.502
 4889TIP3    H214674   0.840   4.541   5.590
 4890TIP3   OH214675   0.701   4.394   3.821
 4890TIP3    H114676   0.694   4.406   3.918
 4890TIP3    H214677   0.690   4.297   3.813
 4891TIP3   OH214678   1.285   4.656   5.201
 4891TIP3    H114679   1.362   4.689   5.152
 4891TIP3    H214680   1.220   4.727   5.183
 4892TIP3   OH214681   0.399   4.095   4.245
 4892TIP3    H114682   0.338   4.035   4.288
 4892TIP3    H214683   0.434   4.037   4.173
 4893TIP3   OH214684   0.624   4.142   5.453
 4893TIP3    H114685   0.577   4.214   5.498
 4893TIP3    H214686   0.678   4.192   5.387
 4894TIP3   OH214687   0.478   3.902   4.066
 4894TIP3    H114688   0.452   3.906   3.972
 4894TIP3    H214689   0.576   3.904   4.057
 4895TIP3   OH214690   1.159   4.562   5.585
 4895TIP3    H114691   1.225   4.514   5.534
 4895TIP3    H214692   1.150   4.505   5.664
 4896TIP3   OH214693   1.276   4.217   3.748
 4896TIP3    H114694   1.261   4.179   3.659
 4896TIP3    H214695   1.245   4.309   3.731
 4897TIP3   OH214696   0.773   3.953   5.576
 4897TIP3    H114697   0.772   3.872   5.520
 4897TIP3    H214698   0.716   4.013   5.523
 4898TIP3   OH214699   0.777   3.743   5.384
 4898TIP3    H114700   0.809   3.780   5.301
 4898TIP3    H214701   0.684   3.720   5.361
 4899TIP3   OH214702   0.782   4.298   5.297
 4899TIP3    H114703   0.869   4.291   5.256
 4899TIP3    H214704   0.739   4.365   5.241
 4900TIP3   OH214705   1.368   4.238   5.639
 4900TIP3    H114706   1.410   4.154   5.662
 4900TIP3    H214707   1.440   4.286   5.596
 4901TIP3   OH214708   1.405   4.502   5.385
 4901TIP3    H114709   1.350   4.560   5.328
 4901TIP3    H214710   1.494   4.522   5.349
 4902TIP3   OH214711   0.676   4.089   5.808
 4902TIP3    H114712   0.610   4.020   5.833
 4902TIP3    H214713   0.707   4.052   5.723
 4903TIP3   OH214714   0.902   3.506   5.476
 4903TIP3    H114715   0.852   3.585   5.446
 4903TIP3    H214716   0.836   3.435   5.458
 4904TIP3   OH214717   1.022   4.000   5.675
 4904TIP3    H114718   1.002   3.981   5.769
 4904TIP3    H214719   0.934   3.979   5.635
 4905TIP3   OH214720   1.258   3.960   5.536
 4905TIP3    H114721   1.184   3.959   5.600
 4905TIP3    H214722   1.333   3.931   5.592
 4906TIP3   OH214723   1.487   3.903   5.679
 4906TIP3    H114724   1.503   3.807   5.690
 4906TIP3    H214725   1.484   3.935   5.771
 4907TIP3   OH214726   0.966   3.492   5.741
 4907TIP3    H114727   1.047   3.440   5.723
 4907TIP3    H214728   0.933   3.501   5.649
 4908TIP3   OH214729   1.058   3.723   5.871
 4908TIP3    H114730   1.026   3.649   5.814
 4908TIP3    H214731   0.981   3.783   5.872
 4909TIP3   OH214732   1.530   5.231   4.596
 4909TIP3    H114733   1.574   5.245   4.681
 4909TIP3    H214734   1.605   5.222   4.535
 4910TIP3   OH214735   1.559   5.220   4.886
 4910TIP3    H114736   1.513   5.134   4.876
 4910TIP3    H214737   1.640   5.190   4.930
 4911TIP3   OH214738   1.613   4.896   5.455
 4911TIP3    H114739   1.544   4.906   5.523
 4911TIP3    H214740   1.656   4.984   5.459
 4912TIP3   OH214741   1.431   4.410   4.068
 4912TIP3    H114742   1.494   4.479   4.040
 4912TIP3    H214743   1.476   4.375   4.148
 4913TIP3   OH214744   1.555   4.271   4.273
 4913TIP3    H114745   1.487   4.238   4.335
 4913TIP3    H214746   1.622   4.310   4.334
 4914TIP3   OH214747   1.440   4.968   4.913
 4914TIP3    H114748   1.364   5.012   4.956
 4914TIP3    H214749   1.395   4.924   4.836
 4915TIP3   OH214750   1.489   4.188   3.918
 4915TIP3    H114751   1.413   4.190   3.856
 4915TIP3    H214752   1.467   4.265   3.974
 4916TIP3   OH214753   1.353   3.854   3.876
 4916TIP3    H114754   1.309   3.886   3.796
 4916TIP3    H214755   1.342   3.758   3.866
 4917TIP3   OH214756   1.359   4.142   4.421
 4917TIP3    H114757   1.373   4.047   4.413
 4917TIP3    H214758   1.345   4.154   4.517
 4918TIP3   OH214759   1.658   4.560   5.281
 4918TIP3    H114760   1.729   4.495   5.263
 4918TIP3    H214761   1.657   4.611   5.198
 4919TIP3   OH214762   1.849   4.359   5.273
 4919TIP3    H114763   1.771   4.315   5.312
 4919TIP3    H214764   1.918   4.293   5.297
 4920TIP3   OH214765   1.309   3.584   3.839
 4920TIP3    H114766   1.381   3.556   3.901
 4920TIP3    H214767   1.234   3.530   3.866
 4921TIP3   OH214768   1.365   3.855   4.303
 4921TIP3    H114769   1.410   3.768   4.316
 4921TIP3    H214770   1.421   3.893   4.233
 4922TIP3   OH214771   1.523   4.018   4.810
 4922TIP3    H114772   1.607   4.041   4.765
 4922TIP3    H214773   1.541   4.057   4.898
 4923TIP3   OH214774   1.599   4.168   5.038
 4923TIP3    H114775   1.522   4.200   5.088
 4923TIP3    H214776   1.632   4.252   4.998
 4924TIP3   OH214777   2.048   3.762   5.588
 4924TIP3    H114778   2.111   3.701   5.545
 4924TIP3    H214779   2.017   3.814   5.511
 4925TIP3   OH214780   1.474   3.606   4.352
 4925TIP3    H114781   1.520   3.587   4.436
 4925TIP3    H214782   1.412   3.530   4.348
 4926TIP3   OH214783   1.908   3.893   5.390
 4926TIP3    H114784   1.821   3.936   5.398
 4926TIP3    H214785   1.882   3.814   5.338
 4927TIP3   OH214786   1.539   3.527   3.987
 4927TIP3    H114787   1.584   3.462   3.928
 4927TIP3    H214788   1.605   3.600   3.991
 4928TIP3   OH214789   1.112   5.075   4.251
 4928TIP3    H114790   1.168   5.068   4.171
 4928TIP3    H214791   1.167   5.130   4.309
 4929TIP3   OH214792   0.873   5.139   5.332
 4929TIP3    H114793   0.927   5.138   5.414
 4929TIP3    H214794   0.924   5.202   5.276
 4930TIP3   OH214795   1.021   5.312   5.178
 4930TIP3    H114796   1.091   5.269   5.126
 4930TIP3    H214797   1.074   5.368   5.238
 4931TIP3   OH214798   1.816   3.654   5.282
 4931TIP3    H114799   1.729   3.635   5.241
 4931TIP3    H214800   1.859   3.565   5.274
 4932TIP3   OH214801   0.757   5.167   4.863
 4932TIP3    H114802   0.664   5.154   4.838
 4932TIP3    H214803   0.757   5.260   4.893
 4933TIP3   OH214804   1.015   5.100   4.927
 4933TIP3    H114805   0.923   5.126   4.905
 4933TIP3    H214806   1.065   5.161   4.871
 4934TIP3   OH214807   1.201   5.290   4.827
 4934TIP3    H114808   1.190   5.375   4.780
 4934TIP3    H214809   1.235   5.233   4.753
 4935TIP3   OH214810   1.018   3.573   4.903
 4935TIP3    H114811   0.983   3.496   4.952
 4935TIP3    H214812   1.095   3.535   4.856
 4936TIP3   OH214813   1.529   3.460   4.807
 4936TIP3    H114814   1.568   3.508   4.731
 4936TIP3    H214815   1.435   3.485   4.801
 4937TIP3   OH214816   1.631   3.549   4.571
 4937TIP3    H114817   1.705   3.495   4.536
 4937TIP3    H214818   1.670   3.639   4.557
 4938TIP3   OH214819   0.360   3.292   4.918
 4938TIP3    H114820   0.268   3.280   4.888
 4938TIP3    H214821   0.394   3.200   4.914
 4939TIP3   OH214822   0.719   3.316   4.797
 4939TIP3    H114823   0.775   3.359   4.729
 4939TIP3    H214824   0.755   3.354   4.879
 4940TIP3   OH214825   1.243   3.463   4.781
 4940TIP3    H114826   1.261   3.418   4.697
 4940TIP3    H214827   1.241   3.386   4.843
 4941TIP3   OH214828   1.290   3.397   4.346
 4941TIP3    H114829   1.207   3.440   4.374
 4941TIP3    H214830   1.277   3.308   4.385
 4942TIP3   OH214831   0.208   3.241   4.371
 4942TIP3    H114832   0.217   3.250   4.275
 4942TIP3    H214833   0.261   3.315   4.403
 4943TIP3   OH214834   0.686   3.496   4.427
 4943TIP3    H114835   0.750   3.453   4.486
 4943TIP3    H214836   0.701   3.590   4.451
 4944TIP3   OH214837   0.531   4.922   3.913
 4944TIP3    H114838   0.622   4.932   3.880
 4944TIP3    H214839   0.507   4.837   3.870
 4945TIP3   OH214840   1.264   5.041   4.022
 4945TIP3    H114841   1.254   4.944   4.013
 4945TIP3    H214842   1.219   5.071   3.941
 4946TIP3   OH214843   0.480   3.522   5.832
 4946TIP3    H114844   0.485   3.426   5.854
 4946TIP3    H214845   0.571   3.550   5.855
 4947TIP3   OH214846   0.740   3.574   5.912
 4947TIP3    H114847   0.810   3.540   5.853
 4947TIP3    H214848   0.768   3.537   5.998
 4948TIP3   OH214849   1.559   3.636   5.703
 4948TIP3    H114850   1.580   3.608   5.795
 4948TIP3    H214851   1.648   3.632   5.662
 4949TIP3   OH214852   1.491   5.173   5.203
 4949TIP3    H114853   1.415   5.144   5.148
 4949TIP3    H214854   1.469   5.268   5.212
 4950TIP3   OH214855   2.760   4.559   3.960
 4950TIP3    H114856   2.721   4.645   3.934
 4950TIP3    H214857   2.689   4.499   3.930
 4951TIP3   OH214858   2.756   4.558   4.371
 4951TIP3    H114859   2.801   4.534   4.455
 4951TIP3    H214860   2.718   4.472   4.346
 4952TIP3   OH214861   2.068   4.439   4.721
 4952TIP3    H114862   2.089   4.365   4.781
 4952TIP3    H214863   2.151   4.447   4.669
 4953TIP3   OH214864   3.009   4.861   4.042
 4953TIP3    H114865   2.987   4.791   4.106
 4953TIP3    H214866   3.040   4.933   4.099
 4954TIP3   OH214867   2.065   4.872   4.473
 4954TIP3    H114868   2.035   4.780   4.455
 4954TIP3    H214869   2.150   4.873   4.425
 4955TIP3   OH214870   1.734   4.049   4.213
 4955TIP3    H114871   1.691   4.131   4.243
 4955TIP3    H214872   1.661   4.008   4.165
 4956TIP3   OH214873   1.781   4.340   4.411
 4956TIP3    H114874   1.840   4.268   4.441
 4956TIP3    H214875   1.841   4.401   4.366
 4957TIP3   OH214876   2.667   5.317   4.060
 4957TIP3    H114877   2.698   5.246   3.999
 4957TIP3    H214878   2.641   5.265   4.137
 4958TIP3   OH214879   2.553   4.777   4.400
 4958TIP3    H114880   2.599   4.698   4.367
 4958TIP3    H214881   2.631   4.830   4.426
 4959TIP3   OH214882   3.577   4.096   4.397
 4959TIP3    H114883   3.607   4.181   4.434
 4959TIP3    H214884   3.604   4.104   4.304
 4960TIP3   OH214885   2.969   4.275   4.423
 4960TIP3    H114886   3.013   4.191   4.446
 4960TIP3    H214887   2.932   4.253   4.335
 4961TIP3   OH214888   2.316   3.937   4.391
 4961TIP3    H114889   2.297   4.008   4.326
 4961TIP3    H214890   2.266   3.863   4.351
 4962TIP3   OH214891   3.006   4.032   4.009
 4962TIP3    H114892   3.075   4.021   4.079
 4962TIP3    H214893   3.062   4.063   3.936
 4963TIP3   OH214894   1.944   4.137   4.506
 4963TIP3    H114895   2.026   4.115   4.553
 4963TIP3    H214896   1.957   4.086   4.423
 4964TIP3   OH214897   2.371   4.334   4.321
 4964TIP3    H114898   2.467   4.315   4.325
 4964TIP3    H214899   2.337   4.251   4.280
 4965TIP3   OH214900   3.649   4.313   4.562
 4965TIP3    H114901   3.561   4.352   4.544
 4965TIP3    H214902   3.647   4.312   4.659
 4966TIP3   OH214903   2.306   3.921   4.832
 4966TIP3    H114904   2.247   3.955   4.762
 4966TIP3    H214905   2.249   3.933   4.910
 4967TIP3   OH214906   2.635   4.769   3.833
 4967TIP3    H114907   2.600   4.764   3.742
 4967TIP3    H214908   2.589   4.848   3.866
 4968TIP3   OH214909   2.407   4.700   4.615
 4968TIP3    H114910   2.359   4.776   4.653
 4968TIP3    H214911   2.453   4.741   4.539
 4969TIP3   OH214912   3.193   4.047   4.201
 4969TIP3    H114913   3.192   3.993   4.281
 4969TIP3    H214914   3.245   4.125   4.231
 4970TIP3   OH214915   2.180   4.031   4.611
 4970TIP3    H114916   2.242   4.103   4.635
 4970TIP3    H214917   2.229   3.992   4.535
 4971TIP3   OH214918   2.225   4.894   4.733
 4971TIP3    H114919   2.192   4.982   4.704
 4971TIP3    H214920   2.159   4.836   4.691
 4972TIP3   OH214921   1.624   4.589   3.957
 4972TIP3    H114922   1.587   4.629   3.877
 4972TIP3    H214923   1.660   4.668   4.002
 4973TIP3   OH214924   3.066   5.108   4.197
 4973TIP3    H114925   2.977   5.097   4.237
 4973TIP3    H214926   3.057   5.193   4.151
 4974TIP3   OH214927   3.369   4.002   4.568
 4974TIP3    H114928   3.282   4.020   4.529
 4974TIP3    H214929   3.430   4.031   4.497
 4975TIP3   OH214930   2.644   3.625   4.548
 4975TIP3    H114931   2.629   3.532   4.573
 4975TIP3    H214932   2.567   3.667   4.594
 4976TIP3   OH214933   2.759   5.146   3.857
 4976TIP3    H114934   2.811   5.062   3.845
 4976TIP3    H214935   2.825   5.210   3.823
 4977TIP3   OH214936   2.908   4.928   3.794
 4977TIP3    H114937   2.875   4.844   3.759
 4977TIP3    H214938   2.953   4.899   3.876
 4978TIP3   OH214939   3.293   5.005   4.541
 4978TIP3    H114940   3.276   4.928   4.482
 4978TIP3    H214941   3.274   5.080   4.481
 4979TIP3   OH214942   2.589   4.404   3.809
 4979TIP3    H114943   2.508   4.457   3.790
 4979TIP3    H214944   2.630   4.398   3.721
 4980TIP3   OH214945   2.543   4.199   3.507
 4980TIP3    H114946   2.614   4.247   3.553
 4980TIP3    H214947   2.595   4.130   3.461
 4981TIP3   OH214948   3.482   4.655   4.397
 4981TIP3    H114949   3.396   4.703   4.395
 4981TIP3    H214950   3.516   4.676   4.307
 4982TIP3   OH214951   2.937   4.490   3.765
 4982TIP3    H114952   2.883   4.515   3.844
 4982TIP3    H214953   3.021   4.464   3.810
 4983TIP3   OH214954   3.166   4.519   4.702
 4983TIP3    H114955   3.162   4.602   4.754
 4983TIP3    H214956   3.081   4.523   4.654
 4984TIP3   OH214957   2.169   4.479   4.190
 4984TIP3    H114958   2.128   4.420   4.124
 4984TIP3    H214959   2.241   4.423   4.225
 4985TIP3   OH214960   2.300   4.892   4.324
 4985TIP3    H114961   2.283   4.872   4.230
 4985TIP3    H214962   2.386   4.848   4.339
 4986TIP3   OH214963   2.289   4.454   4.557
 4986TIP3    H114964   2.323   4.421   4.471
 4986TIP3    H214965   2.338   4.539   4.566
 4987TIP3   OH214966   2.829   5.094   4.326
 4987TIP3    H114967   2.815   5.172   4.383
 4987TIP3    H214968   2.812   5.019   4.385
 4988TIP3   OH214969   2.438   5.011   4.866
 4988TIP3    H114970   2.380   5.076   4.909
 4988TIP3    H214971   2.372   4.956   4.819
 4989TIP3   OH214972   2.770   4.340   3.602
 4989TIP3    H114973   2.831   4.402   3.650
 4989TIP3    H214974   2.798   4.357   3.509
 4990TIP3   OH214975   2.198   4.554   4.996
 4990TIP3    H114976   2.163   4.555   5.087
 4990TIP3    H214977   2.116   4.536   4.945
 4991TIP3   OH214978   2.523   5.015   3.875
 4991TIP3    H114979   2.608   5.063   3.869
 4991TIP3    H214980   2.463   5.072   3.826
 4992TIP3   OH214981   2.233   5.174   4.961
 4992TIP3    H114982   2.216   5.188   4.865
 4992TIP3    H214983   2.144   5.157   4.996
 4993TIP3   OH214984   3.284   3.572   3.664
 4993TIP3    H114985   3.202   3.594   3.713
 4993TIP3    H214986   3.281   3.633   3.590
 4994TIP3   OH214987   2.037   4.327   3.989
 4994TIP3    H114988   1.959   4.367   3.944
 4994TIP3    H214989   2.007   4.237   4.002
 4995TIP3   OH214990   3.095   4.946   3.206
 4995TIP3    H114991   3.101   5.042   3.185
 4995TIP3    H214992   3.187   4.917   3.189
 4996TIP3   OH214993   1.820   4.708   4.897
 4996TIP3    H114994   1.791   4.688   4.807
 4996TIP3    H214995   1.868   4.627   4.922
 4997TIP3   OH214996   3.530   5.363   4.597
 4997TIP3    H114997   3.531   5.266   4.614
 4997TIP3    H214998   3.446   5.387   4.644
 4998TIP3   OH214999   2.640   5.137   4.731
 4998TIP3    H115000   2.629   5.230   4.763
 4998TIP3    H215001   2.567   5.093   4.779
 4999TIP3   OH215002   2.411   5.264   3.680
 4999TIP3    H115003   2.357   5.245   3.602
 4999TIP3    H215004   2.371   5.346   3.714
 5000TIP3   OH215005   1.845   5.107   4.067
 5000TIP3    H115006   1.877   5.098   4.159
 5000TIP3    H215007   1.799   5.022   4.055
 5001TIP3   OH215008   2.601   5.172   3.312
 5001TIP3    H115009   2.656   5.098   3.278
 5001TIP3    H215010   2.637   5.183   3.402
 5002TIP3   OH215011   2.660   5.222   3.579
 5002TIP3    H115012   2.571   5.231   3.620
 5002TIP3    H215013   2.709   5.183   3.653
 5003TIP3   OH215014   3.421   4.481   4.867
 5003TIP3    H115015   3.334   4.485   4.825
 5003TIP3    H215016   3.441   4.386   4.861
 5004TIP3   OH215017   2.414   3.712   4.685
 5004TIP3    H115018   2.327   3.683   4.650
 5004TIP3    H215019   2.385   3.789   4.738
 5005TIP3   OH215020   2.956   3.830   4.875
 5005TIP3    H115021   3.029   3.800   4.934
 5005TIP3    H215022   2.877   3.808   4.927
 5006TIP3   OH215023   3.184   4.260   4.794
 5006TIP3    H115024   3.133   4.258   4.879
 5006TIP3    H215025   3.161   4.348   4.758
 5007TIP3   OH215026   2.852   4.374   3.348
 5007TIP3    H115027   2.811   4.361   3.261
 5007TIP3    H215028   2.939   4.411   3.323
 5008TIP3   OH215029   2.584   3.783   3.676
 5008TIP3    H115030   2.538   3.766   3.761
 5008TIP3    H215031   2.522   3.740   3.615
 5009TIP3   OH215032   2.353   4.228   4.697
 5009TIP3    H115033   2.304   4.244   4.781
 5009TIP3    H215034   2.337   4.313   4.650
 5010TIP3   OH215035   2.232   4.121   4.209
 5010TIP3    H115036   2.141   4.094   4.231
 5010TIP3    H215037   2.241   4.079   4.120
 5011TIP3   OH215038   2.719   4.200   3.947
 5011TIP3    H115039   2.674   4.271   3.897
 5011TIP3    H215040   2.776   4.159   3.878
 5012TIP3   OH215041   2.898   4.472   5.021
 5012TIP3    H115042   2.874   4.398   5.081
 5012TIP3    H215043   2.992   4.483   5.044
 5013TIP3   OH215044   2.877   4.221   4.172
 5013TIP3    H115045   2.809   4.240   4.104
 5013TIP3    H215046   2.920   4.146   4.126
 5014TIP3   OH215047   2.174   4.250   4.904
 5014TIP3    H115048   2.224   4.298   4.972
 5014TIP3    H215049   2.152   4.166   4.950
 5015TIP3   OH215050   2.245   3.761   3.629
 5015TIP3    H115051   2.226   3.743   3.723
 5015TIP3    H215052   2.157   3.780   3.594
 5016TIP3   OH215053   1.763   3.770   4.494
 5016TIP3    H115054   1.834   3.809   4.549
 5016TIP3    H215055   1.807   3.752   4.410
 5017TIP3   OH215056   1.703   3.754   4.005
 5017TIP3    H115057   1.751   3.789   3.927
 5017TIP3    H215058   1.647   3.831   4.025
 5018TIP3   OH215059   2.891   4.468   4.593
 5018TIP3    H115060   2.924   4.399   4.532
 5018TIP3    H215061   2.858   4.412   4.666
 5019TIP3   OH215062   2.579   3.941   4.270
 5019TIP3    H115063   2.503   3.938   4.331
 5019TIP3    H215064   2.653   3.916   4.328
 5020TIP3   OH215065   1.996   3.999   4.274
 5020TIP3    H115066   1.903   4.004   4.242
 5020TIP3    H215067   2.022   3.908   4.253
 5021TIP3   OH215068   2.244   3.988   3.971
 5021TIP3    H115069   2.338   4.003   3.950
 5021TIP3    H215070   2.200   4.009   3.885
 5022TIP3   OH215071   3.055   4.019   4.484
 5022TIP3    H115072   3.022   4.033   4.576
 5022TIP3    H215073   2.988   3.957   4.450
 5023TIP3   OH215074   2.112   4.032   3.736
 5023TIP3    H115075   2.049   3.981   3.681
 5023TIP3    H215076   2.170   4.070   3.667
 5024TIP3   OH215077   3.231   5.704   4.700
 5024TIP3    H115078   3.228   5.731   4.606
 5024TIP3    H215079   3.314   5.747   4.729
 5025TIP3   OH215080   2.639   4.276   4.371
 5025TIP3    H115081   2.708   4.229   4.323
 5025TIP3    H215082   2.636   4.228   4.456
 5026TIP3   OH215083   2.148   3.753   4.261
 5026TIP3    H115084   2.112   3.679   4.314
 5026TIP3    H215085   2.190   3.705   4.188
 5027TIP3   OH215086   2.618   4.180   4.643
 5027TIP3    H115087   2.527   4.205   4.668
 5027TIP3    H215088   2.674   4.236   4.700
 5028TIP3   OH215089   2.353   4.551   3.751
 5028TIP3    H115090   2.280   4.488   3.736
 5028TIP3    H215091   2.329   4.587   3.840
 5029TIP3   OH215092   3.244   4.794   4.370
 5029TIP3    H115093   3.270   4.844   4.290
 5029TIP3    H215094   3.162   4.748   4.341
 5030TIP3   OH215095   2.795   3.905   3.554
 5030TIP3    H115096   2.723   3.854   3.597
 5030TIP3    H215097   2.821   3.967   3.626
 5031TIP3   OH215098   2.748   4.870   4.753
 5031TIP3    H115099   2.810   4.862   4.827
 5031TIP3    H215100   2.720   4.963   4.758
 5032TIP3   OH215101   2.875   4.108   3.731
 5032TIP3    H115102   2.972   4.117   3.745
 5032TIP3    H215103   2.853   4.189   3.682
 5033TIP3   OH215104   2.062   4.597   4.417
 5033TIP3    H115105   2.093   4.565   4.330
 5033TIP3    H215106   2.102   4.533   4.477
 5034TIP3   OH215107   2.501   4.705   3.582
 5034TIP3    H115108   2.450   4.789   3.582
 5034TIP3    H215109   2.447   4.649   3.642
 5035TIP3   OH215110   1.922   4.484   5.037
 5035TIP3    H115111   1.916   4.448   5.127
 5035TIP3    H215112   1.845   4.440   4.996
 5036TIP3   OH215113   2.666   4.621   5.058
 5036TIP3    H115114   2.604   4.560   5.016
 5036TIP3    H215115   2.752   4.580   5.032
 5037TIP3   OH215116   2.908   5.143   4.654
 5037TIP3    H115117   2.811   5.139   4.666
 5037TIP3    H215118   2.934   5.194   4.733
 5038TIP3   OH215119   3.312   4.218   3.550
 5038TIP3    H115120   3.256   4.173   3.482
 5038TIP3    H215121   3.307   4.309   3.514
 5039TIP3   OH215122   3.542   5.078   4.629
 5039TIP3    H115123   3.445   5.065   4.623
 5039TIP3    H215124   3.569   5.042   4.541
 5040TIP3   OH215125   3.031   5.029   3.470
 5040TIP3    H115126   2.996   4.961   3.529
 5040TIP3    H215127   3.042   4.981   3.386
 5041TIP3   OH215128   3.015   4.657   4.280
 5041TIP3    H115129   2.923   4.632   4.298
 5041TIP3    H215130   3.050   4.574   4.241
 5042TIP3   OH215131   2.152   4.889   4.061
 5042TIP3    H115132   2.141   4.968   4.005
 5042TIP3    H215133   2.061   4.864   4.078
 5043TIP3   OH215134   1.712   4.186   3.755
 5043TIP3    H115135   1.758   4.269   3.781
 5043TIP3    H215136   1.638   4.186   3.819
 5044TIP3   OH215137   2.266   4.646   3.988
 5044TIP3    H115138   2.238   4.736   4.013
 5044TIP3    H215139   2.235   4.594   4.065
 5045TIP3   OH215140   2.424   5.222   4.522
 5045TIP3    H115141   2.464   5.296   4.471
 5045TIP3    H215142   2.504   5.180   4.558
 5046TIP3   OH215143   2.066   5.121   3.904
 5046TIP3    H115144   1.981   5.129   3.954
 5046TIP3    H215145   2.098   5.214   3.908
 5047TIP3   OH215146   2.798   4.866   4.484
 5047TIP3    H115147   2.785   4.860   4.581
 5047TIP3    H215148   2.870   4.804   4.470
 5048TIP3   OH215149   2.789   4.764   3.369
 5048TIP3    H115150   2.843   4.739   3.448
 5048TIP3    H215151   2.704   4.724   3.392
 5049TIP3   OH215152   3.052   5.387   4.531
 5049TIP3    H115153   2.971   5.332   4.530
 5049TIP3    H215154   3.034   5.450   4.458
 5050TIP3   OH215155   3.116   5.223   3.178
 5050TIP3    H115156   3.145   5.297   3.122
 5050TIP3    H215157   3.037   5.263   3.220
 5051TIP3   OH215158   2.133   4.003   5.038
 5051TIP3    H115159   2.036   3.998   5.047
 5051TIP3    H215160   2.163   3.950   5.113
 5052TIP3   OH215161   2.951   4.691   3.577
 5052TIP3    H115162   2.938   4.622   3.645
 5052TIP3    H215163   3.048   4.685   3.565
 5053TIP3   OH215164   1.848   5.108   4.666
 5053TIP3    H115165   1.844   5.013   4.645
 5053TIP3    H215166   1.908   5.112   4.740
 5054TIP3   OH215167   2.142   4.732   3.367
 5054TIP3    H115168   2.152   4.637   3.345
 5054TIP3    H215169   2.118   4.727   3.462
 5055TIP3   OH215170   2.083   4.740   3.637
 5055TIP3    H115171   2.160   4.711   3.688
 5055TIP3    H215172   2.086   4.837   3.649
 5056TIP3   OH215173   1.814   4.424   3.846
 5056TIP3    H115174   1.747   4.472   3.900
 5056TIP3    H215175   1.828   4.491   3.776
 5057TIP3   OH215176   2.978   4.072   4.744
 5057TIP3    H115177   3.064   4.108   4.775
 5057TIP3    H215178   2.971   3.988   4.796
 5058TIP3   OH215179   2.859   3.815   3.915
 5058TIP3    H115180   2.833   3.847   3.828
 5058TIP3    H215181   2.907   3.893   3.951
 5059TIP3   OH215182   2.360   4.935   3.586
 5059TIP3    H115183   2.271   4.954   3.623
 5059TIP3    H215184   2.371   5.014   3.530
 5060TIP3   OH215185   2.528   4.007   4.008
 5060TIP3    H115186   2.594   4.077   3.988
 5060TIP3    H215187   2.545   3.993   4.104
 5061TIP3   OH215188   2.819   4.304   4.799
 5061TIP3    H115189   2.853   4.347   4.880
 5061TIP3    H215190   2.869   4.220   4.797
 5062TIP3   OH215191   2.682   3.706   4.095
 5062TIP3    H115192   2.683   3.782   4.155
 5062TIP3    H215193   2.748   3.735   4.028
 5063TIP3   OH215194   2.109   5.011   3.660
 5063TIP3    H115195   2.079   5.083   3.600
 5063TIP3    H215196   2.091   5.051   3.748
 5064TIP3   OH215197   2.197   3.722   3.900
 5064TIP3    H115198   2.188   3.812   3.936
 5064TIP3    H215199   2.294   3.711   3.908
 5065TIP3   OH215200   3.447   4.210   4.777
 5065TIP3    H115201   3.350   4.221   4.790
 5065TIP3    H215202   3.446   4.137   4.713
 5066TIP3   OH215203   3.103   4.408   4.176
 5066TIP3    H115204   3.026   4.349   4.187
 5066TIP3    H215205   3.172   4.360   4.226
 5067TIP3   OH215206   1.826   4.622   3.645
 5067TIP3    H115207   1.903   4.682   3.653
 5067TIP3    H215208   1.864   4.559   3.580
 5068TIP3   OH215209   1.752   3.914   3.790
 5068TIP3    H115210   1.767   4.011   3.786
 5068TIP3    H215211   1.693   3.901   3.715
 5069TIP3   OH215212   3.079   5.379   4.118
 5069TIP3    H115213   3.035   5.427   4.044
 5069TIP3    H215214   3.174   5.395   4.097
 5070TIP3   OH215215   2.146   3.633   4.648
 5070TIP3    H115216   2.119   3.595   4.561
 5070TIP3    H215217   2.138   3.556   4.707
 5071TIP3   OH215218   1.690   4.849   4.034
 5071TIP3    H115219   1.654   4.867   4.123
 5071TIP3    H215220   1.631   4.902   3.976
 5072TIP3   OH215221   1.864   5.393   5.085
 5072TIP3    H115222   1.948   5.396   5.136
 5072TIP3    H215223   1.837   5.300   5.094
 5073TIP3   OH215224   2.337   5.339   5.158
 5073TIP3    H115225   2.430   5.308   5.156
 5073TIP3    H215226   2.302   5.290   5.081
 5074TIP3   OH215227   2.304   4.930   3.268
 5074TIP3    H115228   2.252   4.858   3.309
 5074TIP3    H215229   2.381   4.880   3.234
 5075TIP3   OH215230   2.954   5.273   4.893
 5075TIP3    H115231   2.954   5.199   4.958
 5075TIP3    H215232   3.036   5.320   4.917
 5076TIP3   OH215233   2.739   4.965   3.193
 5076TIP3    H115234   2.770   4.898   3.257
 5076TIP3    H215235   2.800   4.953   3.118
 5077TIP3   OH215236   1.996   4.812   5.278
 5077TIP3    H115237   2.016   4.716   5.280
 5077TIP3    H215238   1.907   4.812   5.237
 5078TIP3   OH215239   1.961   4.437   3.504
 5078TIP3    H115240   2.020   4.414   3.579
 5078TIP3    H215241   2.027   4.445   3.432
 5079TIP3   OH215242   2.578   4.890   5.077
 5079TIP3    H115243   2.549   4.914   4.986
 5079TIP3    H215244   2.619   4.802   5.062
 5080TIP3   OH215245   2.492   4.654   3.312
 5080TIP3    H115246   2.485   4.664   3.410
 5080TIP3    H215247   2.491   4.556   3.304
 5081TIP3   OH215248   3.075   4.921   4.691
 5081TIP3    H115249   3.155   4.953   4.645
 5081TIP3    H215250   3.012   4.992   4.667
 5082TIP3   OH215251   2.147   4.571   5.269
 5082TIP3    H115252   2.191   4.485   5.265
 5082TIP3    H215253   2.159   4.593   5.364
 5083TIP3   OH215254   2.150   4.365   3.708
 5083TIP3    H115255   2.127   4.327   3.795
 5083TIP3    H215256   2.194   4.289   3.664
 5084TIP3   OH215257   2.428   4.416   4.942
 5084TIP3    H115258   2.354   4.482   4.947
 5084TIP3    H215259   2.483   4.454   4.870
 5085TIP3   OH215260   2.269   4.165   3.557
 5085TIP3    H115261   2.246   4.171   3.461
 5085TIP3    H215262   2.367   4.162   3.550
 5086TIP3   OH215263   2.953   4.823   5.074
 5086TIP3    H115264   3.026   4.779   5.028
 5086TIP3    H215265   2.945   4.767   5.153
 5087TIP3   OH215266   3.078   4.477   3.233
 5087TIP3    H115267   3.062   4.436   3.145
 5087TIP3    H215268   3.044   4.568   3.214
 5088TIP3   OH215269   2.555   4.217   5.073
 5088TIP3    H115270   2.559   4.140   5.012
 5088TIP3    H215271   2.511   4.284   5.015
 5089TIP3   OH215272   2.562   4.008   4.883
 5089TIP3    H115273   2.592   4.041   4.797
 5089TIP3    H215274   2.470   3.980   4.863
 5090TIP3   OH215275   2.577   4.534   4.756
 5090TIP3    H115276   2.666   4.550   4.723
 5090TIP3    H215277   2.524   4.598   4.704
 5091TIP3   OH215278   3.156   4.496   5.129
 5091TIP3    H115279   3.195   4.413   5.162
 5091TIP3    H215280   3.234   4.541   5.092
 5092TIP3   OH215281   3.202   4.758   4.867
 5092TIP3    H115282   3.147   4.818   4.812
 5092TIP3    H215283   3.291   4.777   4.831
 5093TIP3   OH215284   2.433   4.312   5.308
 5093TIP3    H115285   2.371   4.239   5.329
 5093TIP3    H215286   2.468   4.285   5.221
 5094TIP3   OH215287   2.695   3.766   4.963
 5094TIP3    H115288   2.644   3.845   4.936
 5094TIP3    H215289   2.628   3.695   4.951
 5095TIP3   OH215290   2.815   4.257   5.168
 5095TIP3    H115291   2.799   4.238   5.262
 5095TIP3    H215292   2.726   4.236   5.133
 5096TIP3   OH215293   3.053   4.218   5.025
 5096TIP3    H115294   2.981   4.213   5.090
 5096TIP3    H215295   3.130   4.186   5.077
 5097TIP3   OH215296   3.285   4.157   5.163
 5097TIP3    H115297   3.300   4.061   5.178
 5097TIP3    H215298   3.279   4.191   5.255
 5098TIP3   OH215299   2.274   4.095   5.374
 5098TIP3    H115300   2.272   4.002   5.342
 5098TIP3    H215301   2.319   4.081   5.461
 5099TIP3   OH215302   2.773   3.765   5.225
 5099TIP3    H115303   2.843   3.697   5.214
 5099TIP3    H215304   2.739   3.768   5.134
 5100TIP3   OH215305   2.850   3.984   5.371
 5100TIP3    H115306   2.829   3.910   5.311
 5100TIP3    H215307   2.770   4.039   5.364
 5101TIP3   OH215308   2.083   5.217   3.473
 5101TIP3    H115309   2.175   5.198   3.449
 5101TIP3    H215310   2.056   5.272   3.397
 5102TIP3   OH215311   1.553   4.606   3.664
 5102TIP3    H115312   1.650   4.621   3.660
 5102TIP3    H215313   1.548   4.514   3.629
 5103TIP3   OH215314   1.470   5.207   4.102
 5103TIP3    H115315   1.406   5.144   4.062
 5103TIP3    H215316   1.519   5.146   4.161
 5104TIP3   OH215317   1.606   5.040   4.265
 5104TIP3    H115318   1.586   4.958   4.315
 5104TIP3    H215319   1.649   5.090   4.336
 5105TIP3   OH215320   3.342   5.451   4.092
 5105TIP3    H115321   3.364   5.481   4.182
 5105TIP3    H215322   3.417   5.483   4.040
 5106TIP3   OH215323   3.364   5.471   4.374
 5106TIP3    H115324   3.314   5.387   4.369
 5106TIP3    H215325   3.431   5.446   4.440
 5107TIP3   OH215326   3.405   5.158   4.944
 5107TIP3    H115327   3.338   5.169   5.014
 5107TIP3    H215328   3.452   5.244   4.949
 5108TIP3   OH215329   3.227   4.666   3.559
 5108TIP3    H115330   3.291   4.733   3.527
 5108TIP3    H215331   3.274   4.630   3.638
 5109TIP3   OH215332   3.353   4.534   3.768
 5109TIP3    H115333   3.283   4.491   3.823
 5109TIP3    H215334   3.417   4.565   3.835
 5110TIP3   OH215335   3.414   4.931   4.194
 5110TIP3    H115336   3.468   4.858   4.156
 5110TIP3    H215337   3.411   4.995   4.121
 5111TIP3   OH215338   3.231   5.228   4.386
 5111TIP3    H115339   3.158   5.268   4.437
 5111TIP3    H215340   3.182   5.184   4.312
 5112TIP3   OH215341   3.285   4.447   3.405
 5112TIP3    H115342   3.211   4.446   3.340
 5112TIP3    H215343   3.257   4.522   3.461
 5113TIP3   OH215344   3.166   4.110   3.343
 5113TIP3    H115345   3.096   4.125   3.278
 5113TIP3    H215346   3.148   4.015   3.366
 5114TIP3   OH215347   3.158   4.395   3.904
 5114TIP3    H115348   3.166   4.298   3.893
 5114TIP3    H215349   3.143   4.404   4.001
 5115TIP3   OH215350   1.793   4.428   4.690
 5115TIP3    H115351   1.763   4.439   4.598
 5115TIP3    H215352   1.889   4.444   4.683
 5116TIP3   OH215353   3.456   4.817   4.768
 5116TIP3    H115354   3.524   4.747   4.756
 5116TIP3    H215355   3.478   4.880   4.698
 5117TIP3   OH215356   3.637   4.611   4.761
 5117TIP3    H115357   3.561   4.562   4.801
 5117TIP3    H215358   3.710   4.549   4.786
 5118TIP3   OH215359   3.097   3.848   3.388
 5118TIP3    H115360   3.141   3.766   3.362
 5118TIP3    H215361   3.009   3.817   3.415
 5119TIP3   OH215362   3.162   4.114   3.790
 5119TIP3    H115363   3.203   4.025   3.805
 5119TIP3    H215364   3.218   4.147   3.718
 5120TIP3   OH215365   3.315   4.273   4.298
 5120TIP3    H115366   3.400   4.293   4.253
 5120TIP3    H215367   3.334   4.312   4.386
 5121TIP3   OH215368   3.395   4.426   4.521
 5121TIP3    H115369   3.321   4.457   4.575
 5121TIP3    H215370   3.426   4.509   4.479
 5122TIP3   OH215371   2.010   4.148   5.336
 5122TIP3    H115372   2.108   4.142   5.345
 5122TIP3    H215373   1.985   4.059   5.367
 5123TIP3   OH215374   3.840   4.028   5.073
 5123TIP3    H115375   3.905   3.964   5.036
 5123TIP3    H215376   3.810   4.075   4.993
 5124TIP3   OH215377   3.262   3.863   3.838
 5124TIP3    H115378   3.312   3.844   3.920
 5124TIP3    H215379   3.203   3.784   3.835
 5125TIP3   OH215380   1.967   3.845   4.669
 5125TIP3    H115381   2.026   3.768   4.671
 5125TIP3    H215382   2.031   3.917   4.652
 5126TIP3   OH215383   1.762   4.124   4.723
 5126TIP3    H115384   1.816   4.110   4.644
 5126TIP3    H215385   1.773   4.220   4.735
 5127TIP3   OH215386   3.707   4.154   4.870
 5127TIP3    H115387   3.624   4.196   4.898
 5127TIP3    H215388   3.671   4.076   4.822
 5128TIP3   OH215389   1.757   3.615   4.232
 5128TIP3    H115390   1.667   3.607   4.268
 5128TIP3    H215391   1.743   3.674   4.156
 5129TIP3   OH215392   2.917   5.330   3.741
 5129TIP3    H115393   2.970   5.320   3.660
 5129TIP3    H215394   2.969   5.392   3.794
 5130TIP3   OH215395   1.976   3.710   5.055
 5130TIP3    H115396   1.920   3.699   5.133
 5130TIP3    H215397   1.911   3.739   4.989
 5131TIP3   OH215398   2.027   5.087   5.149
 5131TIP3    H115399   1.934   5.075   5.119
 5131TIP3    H215400   2.009   5.136   5.231
 5132TIP3   OH215401   2.204   5.178   4.688
 5132TIP3    H115402   2.151   5.249   4.645
 5132TIP3    H215403   2.286   5.188   4.634
 5133TIP3   OH215404   2.627   5.405   4.811
 5133TIP3    H115405   2.672   5.402   4.898
 5133TIP3    H215406   2.691   5.458   4.760
 5134TIP3   OH215407   2.807   5.564   4.678
 5134TIP3    H115408   2.873   5.514   4.629
 5134TIP3    H215409   2.864   5.619   4.736
 5135TIP3   OH215410   3.611   3.905   4.771
 5135TIP3    H115411   3.522   3.879   4.740
 5135TIP3    H215412   3.657   3.818   4.765
 5136TIP3   OH215413   1.877   5.445   4.696
 5136TIP3    H115414   1.783   5.460   4.672
 5136TIP3    H215415   1.881   5.494   4.779
 5137TIP3   OH215416   2.108   5.401   4.561
 5137TIP3    H115417   2.021   5.416   4.604
 5137TIP3    H215418   2.087   5.428   4.469
 5138TIP3   OH215419   2.526   5.418   4.357
 5138TIP3    H115420   2.454   5.431   4.293
 5138TIP3    H215421   2.536   5.507   4.395
 5139TIP3   OH215422   2.797   5.361   4.415
 5139TIP3    H115423   2.703   5.377   4.392
 5139TIP3    H215424   2.841   5.425   4.358
 5140TIP3   OH215425   3.003   5.550   4.316
 5140TIP3    H115426   2.989   5.634   4.267
 5140TIP3    H215427   3.031   5.490   4.243
 5141TIP3   OH215428   1.766   5.215   4.433
 5141TIP3    H115429   1.795   5.192   4.524
 5141TIP3    H215430   1.835   5.167   4.382
 5142TIP3   OH215431   1.975   5.084   4.316
 5142TIP3    H115432   1.990   5.007   4.375
 5142TIP3    H215433   2.065   5.120   4.308
 5143TIP3   OH215434   2.249   5.172   4.311
 5143TIP3    H115435   2.274   5.078   4.300
 5143TIP3    H215436   2.302   5.193   4.390
 5144TIP3   OH215437   2.807   3.823   4.384
 5144TIP3    H115438   2.774   3.748   4.437
 5144TIP3    H215439   2.887   3.786   4.342
 5145TIP3   OH215440   3.326   3.733   4.297
 5145TIP3    H115441   3.361   3.774   4.215
 5145TIP3    H215442   3.230   3.737   4.282
 5146TIP3   OH215443   3.425   3.812   4.056
 5146TIP3    H115444   3.500   3.757   4.022
 5146TIP3    H215445   3.462   3.902   4.042
 5147TIP3   OH215446   2.061   3.534   4.402
 5147TIP3    H115447   1.968   3.502   4.407
 5147TIP3    H215448   2.109   3.449   4.397
 5148TIP3   OH215449   1.852   3.416   4.057
 5148TIP3    H115450   1.884   3.469   3.982
 5148TIP3    H215451   1.830   3.485   4.123
 5149TIP3   OH215452   2.516   3.573   4.288
 5149TIP3    H115453   2.570   3.612   4.217
 5149TIP3    H215454   2.563   3.603   4.368
 5150TIP3   OH215455   3.042   3.717   4.266
 5150TIP3    H115456   3.055   3.669   4.183
 5150TIP3    H215457   3.040   3.643   4.331
 5151TIP3   OH215458   3.083   3.648   3.840
 5151TIP3    H115459   2.995   3.685   3.859
 5151TIP3    H215460   3.074   3.560   3.881
 5152TIP3   OH215461   1.559   4.995   3.831
 5152TIP3    H115462   1.474   4.963   3.795
 5152TIP3    H215463   1.557   5.086   3.796
 5153TIP3   OH215464   1.974   3.567   3.819
 5153TIP3    H115465   2.015   3.501   3.760
 5153TIP3    H215466   2.052   3.617   3.850
 5154TIP3   OH215467   2.468   3.753   3.927
 5154TIP3    H115468   2.535   3.709   3.982
 5154TIP3    H215469   2.486   3.846   3.951
 5155TIP3   OH215470   2.344   5.157   3.413
 5155TIP3    H115471   2.430   5.182   3.375
 5155TIP3    H215472   2.321   5.082   3.353
 5156TIP3   OH215473   3.069   5.297   3.512
 5156TIP3    H115474   3.062   5.198   3.504
 5156TIP3    H215475   3.018   5.324   3.433
 5157TIP3   OH215476   2.267   3.830   5.306
 5157TIP3    H115477   2.235   3.748   5.348
 5157TIP3    H215478   2.362   3.825   5.329
 5158TIP3   OH215479   2.524   3.822   5.412
 5158TIP3    H115480   2.608   3.800   5.370
 5158TIP3    H215481   2.514   3.749   5.477
 5159TIP3   OH215482   1.644   5.000   3.465
 5159TIP3    H115483   1.651   5.005   3.561
 5159TIP3    H215484   1.728   4.954   3.441
 5160TIP3   OH215485   3.351   3.888   5.197
 5160TIP3    H115486   3.367   3.858   5.289
 5160TIP3    H215487   3.442   3.883   5.160
 5161TIP3   OH215488   3.278   5.432   4.691
 5161TIP3    H115489   3.200   5.405   4.639
 5161TIP3    H215490   3.260   5.527   4.704
 5162TIP3   OH215491   4.557   4.818   3.441
 5162TIP3    H115492   4.516   4.903   3.415
 5162TIP3    H215493   4.486   4.757   3.417
 5163TIP3   OH215494   3.856   4.697   4.195
 5163TIP3    H115495   3.882   4.649   4.276
 5163TIP3    H215496   3.938   4.692   4.142
 5164TIP3   OH215497   4.811   5.110   3.531
 5164TIP3    H115498   4.777   5.045   3.594
 5164TIP3    H215499   4.833   5.185   3.588
 5165TIP3   OH215500   3.831   5.120   3.925
 5165TIP3    H115501   3.820   5.022   3.919
 5165TIP3    H215502   3.927   5.127   3.906
 5166TIP3   OH215503   3.530   4.317   3.698
 5166TIP3    H115504   3.475   4.393   3.722
 5166TIP3    H215505   3.464   4.260   3.653
 5167TIP3   OH215506   3.585   4.599   3.904
 5167TIP3    H115507   3.636   4.520   3.930
 5167TIP3    H215508   3.636   4.631   3.829
 5168TIP3   OH215509   4.460   5.567   3.552
 5168TIP3    H115510   4.486   5.502   3.484
 5168TIP3    H215511   4.464   5.512   3.631
 5169TIP3   OH215512   4.330   5.023   3.917
 5169TIP3    H115513   4.371   4.944   3.879
 5169TIP3    H215514   4.411   5.077   3.932
 5170TIP3   OH215515   5.376   4.346   3.895
 5170TIP3    H115516   5.401   4.433   3.933
 5170TIP3    H215517   5.389   4.360   3.799
 5171TIP3   OH215518   4.854   4.525   3.893
 5171TIP3    H115519   4.855   4.431   3.917
 5171TIP3    H215520   4.760   4.545   3.889
 5172TIP3   OH215521   4.112   4.191   3.874
 5172TIP3    H115522   4.090   4.263   3.811
 5172TIP3    H215523   4.060   4.117   3.835
 5173TIP3   OH215524   4.805   4.290   3.499
 5173TIP3    H115525   4.872   4.279   3.571
 5173TIP3    H215526   4.861   4.327   3.428
 5174TIP3   OH215527   3.739   4.391   3.992
 5174TIP3    H115528   3.822   4.368   4.038
 5174TIP3    H215529   3.750   4.337   3.911
 5175TIP3   OH215530   4.161   4.585   3.811
 5175TIP3    H115531   4.257   4.562   3.812
 5175TIP3    H215532   4.124   4.504   3.771
 5176TIP3   OH215533   5.441   4.572   4.045
 5176TIP3    H115534   5.350   4.607   4.039
 5176TIP3    H215535   5.461   4.595   4.138
 5177TIP3   OH215536   4.097   4.173   4.319
 5177TIP3    H115537   4.040   4.207   4.247
 5177TIP3    H215538   4.040   4.190   4.396
 5178TIP3   OH215539   4.425   5.026   3.322
 5178TIP3    H115540   4.395   5.022   3.230
 5178TIP3    H215541   4.378   5.106   3.354
 5179TIP3   OH215542   4.211   4.947   4.196
 5179TIP3    H115543   4.149   5.014   4.160
 5179TIP3    H215544   4.285   4.954   4.134
 5180TIP3   OH215545   4.984   4.292   3.703
 5180TIP3    H115546   4.943   4.271   3.788
 5180TIP3    H215547   5.036   4.372   3.725
 5181TIP3   OH215548   3.977   4.288   4.096
 5181TIP3    H115549   4.040   4.358   4.124
 5181TIP3    H215550   4.028   4.249   4.021
 5182TIP3   OH215551   4.041   5.162   4.223
 5182TIP3    H115552   4.020   5.248   4.179
 5182TIP3    H215553   3.954   5.145   4.265
 5183TIP3   OH215554   3.417   4.846   3.442
 5183TIP3    H115555   3.379   4.869   3.356
 5183TIP3    H215556   3.451   4.933   3.472
 5184TIP3   OH215557   4.860   5.359   3.677
 5184TIP3    H115558   4.771   5.349   3.719
 5184TIP3    H215559   4.850   5.446   3.633
 5185TIP3   OH215560   5.162   4.249   4.056
 5185TIP3    H115561   5.074   4.268   4.019
 5185TIP3    H215562   5.221   4.282   3.985
 5186TIP3   OH215563   4.444   3.882   4.042
 5186TIP3    H115564   4.424   3.788   4.063
 5186TIP3    H215565   4.369   3.926   4.086
 5187TIP3   OH215566   4.551   5.403   3.342
 5187TIP3    H115567   4.603   5.320   3.331
 5187TIP3    H215568   4.617   5.468   3.307
 5188TIP3   OH215569   4.702   5.185   3.287
 5188TIP3    H115570   4.683   5.103   3.241
 5188TIP3    H215571   4.747   5.152   3.368
 5189TIP3   OH215572   5.076   5.264   4.032
 5189TIP3    H115573   5.061   5.189   3.971
 5189TIP3    H215574   5.057   5.341   3.973
 5190TIP3   OH215575   4.385   4.662   3.290
 5190TIP3    H115576   4.305   4.715   3.272
 5190TIP3    H215577   4.428   4.660   3.203
 5191TIP3   OH215578   4.343   4.453   2.992
 5191TIP3    H115579   4.411   4.506   3.038
 5191TIP3    H215580   4.401   4.391   2.942
 5192TIP3   OH215581   5.266   4.910   3.885
 5192TIP3    H115582   5.189   4.971   3.894
 5192TIP3    H215583   5.258   4.886   3.792
 5193TIP3   OH215584   4.734   4.748   3.248
 5193TIP3    H115585   4.678   4.771   3.325
 5193TIP3    H215586   4.815   4.717   3.294
 5194TIP3   OH215587   4.938   4.765   4.160
 5194TIP3    H115588   4.917   4.847   4.207
 5194TIP3    H215589   4.857   4.761   4.103
 5195TIP3   OH215590   3.967   4.736   3.677
 5195TIP3    H115591   3.923   4.676   3.612
 5195TIP3    H215592   4.038   4.678   3.713
 5196TIP3   OH215593   4.091   5.156   3.823
 5196TIP3    H115594   4.081   5.130   3.730
 5196TIP3    H215595   4.172   5.109   3.850
 5197TIP3   OH215596   4.078   4.708   4.038
 5197TIP3    H115597   4.108   4.668   3.953
 5197TIP3    H215598   4.141   4.781   4.049
 5198TIP3   OH215599   4.626   5.343   3.812
 5198TIP3    H115600   4.616   5.420   3.871
 5198TIP3    H215601   4.613   5.268   3.873
 5199TIP3   OH215602   4.242   5.267   4.368
 5199TIP3    H115603   4.182   5.330   4.415
 5199TIP3    H215604   4.179   5.236   4.299
 5200TIP3   OH215605   4.564   4.608   3.077
 5200TIP3    H115606   4.627   4.668   3.121
 5200TIP3    H215607   4.589   4.620   2.982
 5201TIP3   OH215608   4.314   5.274   3.363
 5201TIP3    H115609   4.401   5.319   3.357
 5201TIP3    H215610   4.260   5.329   3.305
 5202TIP3   OH215611   4.032   5.417   4.450
 5202TIP3    H115612   3.997   5.432   4.360
 5202TIP3    H215613   3.950   5.402   4.502
 5203TIP3   OH215614   5.082   3.829   3.143
 5203TIP3    H115615   5.003   3.860   3.192
 5203TIP3    H215616   5.104   3.909   3.090
 5204TIP3   OH215617   3.829   4.585   3.485
 5204TIP3    H115618   3.754   4.622   3.435
 5204TIP3    H215619   3.807   4.491   3.489
 5205TIP3   OH215620   4.894   5.208   2.697
 5205TIP3    H115621   4.902   5.303   2.673
 5205TIP3    H215622   4.985   5.176   2.680
 5206TIP3   OH215623   3.613   4.965   4.394
 5206TIP3    H115624   3.544   4.942   4.329
 5206TIP3    H215625   3.651   4.877   4.416
 5207TIP3   OH215626   3.465   5.161   4.012
 5207TIP3    H115627   3.561   5.157   4.012
 5207TIP3    H215628   3.448   5.235   4.073
 5208TIP3   OH215629   5.316   5.602   4.039
 5208TIP3    H115630   5.296   5.515   4.077
 5208TIP3    H215631   5.306   5.660   4.118
 5209TIP3   OH215632   4.430   5.400   4.214
 5209TIP3    H115633   4.421   5.494   4.243
 5209TIP3    H215634   4.366   5.356   4.272
 5210TIP3   OH215635   4.205   5.515   3.168
 5210TIP3    H115636   4.156   5.494   3.087
 5210TIP3    H215637   4.164   5.599   3.197
 5211TIP3   OH215638   3.637   5.373   3.557
 5211TIP3    H115639   3.676   5.360   3.646
 5211TIP3    H215640   3.596   5.285   3.541
 5212TIP3   OH215641   4.396   5.428   2.799
 5212TIP3    H115642   4.451   5.355   2.764
 5212TIP3    H215643   4.434   5.439   2.889
 5213TIP3   OH215644   4.454   5.477   3.067
 5213TIP3    H115645   4.366   5.485   3.109
 5213TIP3    H215646   4.506   5.441   3.141
 5214TIP3   OH215647   5.213   4.737   4.352
 5214TIP3    H115648   5.124   4.742   4.316
 5214TIP3    H215649   5.232   4.641   4.342
 5215TIP3   OH215650   3.814   5.147   4.368
 5215TIP3    H115651   3.856   5.138   4.455
 5215TIP3    H215652   3.739   5.084   4.376
 5216TIP3   OH215653   4.211   3.967   4.170
 5216TIP3    H115654   4.123   3.938   4.137
 5216TIP3    H215655   4.183   4.046   4.222
 5217TIP3   OH215656   4.750   4.085   4.361
 5217TIP3    H115657   4.821   4.059   4.424
 5217TIP3    H215658   4.669   4.063   4.410
 5218TIP3   OH215659   4.984   4.522   4.284
 5218TIP3    H115660   4.928   4.522   4.365
 5218TIP3    H215661   4.949   4.599   4.235
 5219TIP3   OH215662   4.645   4.628   2.819
 5219TIP3    H115663   4.643   4.567   2.743
 5219TIP3    H215664   4.729   4.675   2.801
 5220TIP3   OH215665   4.360   4.018   3.144
 5220TIP3    H115666   4.331   4.009   3.237
 5220TIP3    H215667   4.277   3.999   3.097
 5221TIP3   OH215668   4.138   4.491   4.193
 5221TIP3    H115669   4.093   4.511   4.277
 5221TIP3    H215670   4.121   4.572   4.140
 5222TIP3   OH215671   4.023   4.378   3.697
 5222TIP3    H115672   3.933   4.346   3.718
 5222TIP3    H215673   4.035   4.336   3.609
 5223TIP3   OH215674   4.514   4.457   3.426
 5223TIP3    H115675   4.468   4.528   3.377
 5223TIP3    H215676   4.572   4.420   3.356
 5224TIP3   OH215677   4.695   4.753   4.525
 5224TIP3    H115678   4.666   4.669   4.564
 5224TIP3    H215679   4.790   4.749   4.542
 5225TIP3   OH215680   4.650   4.484   3.662
 5225TIP3    H115681   4.592   4.496   3.585
 5225TIP3    H215682   4.703   4.409   3.630
 5226TIP3   OH215683   3.967   4.527   4.408
 5226TIP3    H115684   3.916   4.573   4.477
 5226TIP3    H215685   3.970   4.436   4.444
 5227TIP3   OH215686   4.047   4.008   3.109
 5227TIP3    H115687   4.026   3.989   3.203
 5227TIP3    H215688   3.963   4.050   3.082
 5228TIP3   OH215689   3.554   4.036   3.979
 5228TIP3    H115690   3.634   4.066   4.027
 5228TIP3    H215691   3.589   4.001   3.894
 5229TIP3   OH215692   3.542   4.045   3.511
 5229TIP3    H115693   3.582   4.050   3.423
 5229TIP3    H215694   3.471   4.111   3.503
 5230TIP3   OH215695   4.370   4.182   3.752
 5230TIP3    H115696   4.289   4.180   3.806
 5230TIP3    H215697   4.434   4.218   3.815
 5231TIP3   OH215698   3.789   4.253   3.760
 5231TIP3    H115699   3.696   4.260   3.728
 5231TIP3    H215700   3.811   4.159   3.740
 5232TIP3   OH215701   4.046   4.250   3.460
 5232TIP3    H115702   4.140   4.262   3.437
 5232TIP3    H215703   4.000   4.271   3.375
 5233TIP3   OH215704   4.849   4.260   3.962
 5233TIP3    H115705   4.822   4.281   4.054
 5233TIP3    H215706   4.774   4.203   3.936
 5234TIP3   OH215707   3.912   4.297   3.229
 5234TIP3    H115708   3.854   4.235   3.180
 5234TIP3    H215709   3.967   4.331   3.155
 5235TIP3   OH215710   5.017   5.939   4.182
 5235TIP3    H115711   5.015   5.948   4.085
 5235TIP3    H215712   5.073   6.014   4.205
 5236TIP3   OH215713   4.017   5.065   4.583
 5236TIP3    H115714   4.071   5.107   4.653
 5236TIP3    H215715   3.939   5.041   4.638
 5237TIP3   OH215716   4.428   4.521   3.832
 5237TIP3    H115717   4.506   4.514   3.774
 5237TIP3    H215718   4.469   4.539   3.918
 5238TIP3   OH215719   3.946   4.006   3.748
 5238TIP3    H115720   3.906   3.935   3.804
 5238TIP3    H215721   3.977   3.952   3.674
 5239TIP3   OH215722   4.396   4.395   4.160
 5239TIP3    H115723   4.309   4.437   4.160
 5239TIP3    H215724   4.452   4.461   4.207
 5240TIP3   OH215725   4.145   4.810   3.236
 5240TIP3    H115726   4.074   4.744   3.222
 5240TIP3    H215727   4.122   4.844   3.326
 5241TIP3   OH215728   5.040   5.061   3.859
 5241TIP3    H115729   5.056   5.093   3.769
 5241TIP3    H215730   4.961   5.003   3.844
 5242TIP3   OH215731   4.615   4.113   3.126
 5242TIP3    H115732   4.519   4.091   3.132
 5242TIP3    H215733   4.617   4.209   3.144
 5243TIP3   OH215734   4.530   5.140   4.260
 5243TIP3    H115735   4.624   5.130   4.279
 5243TIP3    H215736   4.519   5.236   4.245
 5244TIP3   OH215737   4.671   4.378   3.209
 5244TIP3    H115738   4.767   4.385   3.221
 5244TIP3    H215739   4.649   4.456   3.154
 5245TIP3   OH215740   3.848   4.851   3.895
 5245TIP3    H115741   3.885   4.816   3.811
 5245TIP3    H215742   3.889   4.792   3.960
 5246TIP3   OH215743   4.300   4.961   3.073
 5246TIP3    H115744   4.248   5.045   3.072
 5246TIP3    H215745   4.244   4.905   3.130
 5247TIP3   OH215746   3.722   4.742   4.524
 5247TIP3    H115747   3.739   4.727   4.619
 5247TIP3    H215748   3.646   4.684   4.509
 5248TIP3   OH215749   4.695   5.406   4.125
 5248TIP3    H115750   4.599   5.410   4.141
 5248TIP3    H215751   4.729   5.452   4.205
 5249TIP3   OH215752   5.112   4.471   3.040
 5249TIP3    H115753   5.051   4.430   2.973
 5249TIP3    H215754   5.113   4.561   3.000
 5250TIP3   OH215755   5.326   5.310   4.121
 5250TIP3    H115756   5.230   5.303   4.102
 5250TIP3    H215757   5.362   5.289   4.032
 5251TIP3   OH215758   4.824   5.284   2.957
 5251TIP3    H115759   4.789   5.210   3.009
 5251TIP3    H215760   4.840   5.243   2.870
 5252TIP3   OH215761   4.843   4.900   3.783
 5252TIP3    H115762   4.788   4.876   3.862
 5252TIP3    H215763   4.843   4.815   3.736
 5253TIP3   OH215764   3.949   5.148   3.550
 5253TIP3    H115765   3.941   5.224   3.490
 5253TIP3    H215766   3.859   5.113   3.552
 5254TIP3   OH215767   3.516   4.438   3.257
 5254TIP3    H115768   3.559   4.524   3.279
 5254TIP3    H215769   3.436   4.444   3.315
 5255TIP3   OH215770   4.062   4.903   3.476
 5255TIP3    H115771   4.038   4.993   3.504
 5255TIP3    H215772   4.033   4.849   3.552
 5256TIP3   OH215773   4.223   5.481   4.007
 5256TIP3    H115774   4.264   5.556   3.959
 5256TIP3    H215775   4.301   5.440   4.048
 5257TIP3   OH215776   3.857   5.388   3.390
 5257TIP3    H115777   3.774   5.393   3.440
 5257TIP3    H215778   3.892   5.479   3.400
 5258TIP3   OH215779   4.578   5.115   3.980
 5258TIP3    H115780   4.566   5.115   4.077
 5258TIP3    H215781   4.613   5.023   3.971
 5259TIP3   OH215782   4.584   5.023   2.857
 5259TIP3    H115783   4.637   4.999   2.937
 5259TIP3    H215784   4.501   4.977   2.875
 5260TIP3   OH215785   4.846   5.643   4.012
 5260TIP3    H115786   4.765   5.587   4.012
 5260TIP3    H215787   4.825   5.705   3.940
 5261TIP3   OH215788   4.917   5.483   2.666
 5261TIP3    H115789   4.955   5.560   2.620
 5261TIP3    H215790   4.836   5.524   2.703
 5262TIP3   OH215791   3.929   4.267   4.521
 5262TIP3    H115792   3.832   4.271   4.529
 5262TIP3    H215793   3.952   4.213   4.599
 5263TIP3   OH215794   4.747   4.956   3.069
 5263TIP3    H115795   4.733   4.884   3.133
 5263TIP3    H215796   4.843   4.945   3.052
 5264TIP3   OH215797   3.662   5.338   4.166
 5264TIP3    H115798   3.719   5.268   4.204
 5264TIP3    H215799   3.661   5.402   4.238
 5265TIP3   OH215800   3.935   4.991   2.855
 5265TIP3    H115801   3.944   4.897   2.829
 5265TIP3    H215802   3.912   4.982   2.950
 5266TIP3   OH215803   3.879   4.996   3.127
 5266TIP3    H115804   3.960   4.966   3.170
 5266TIP3    H215805   3.885   5.094   3.138
 5267TIP3   OH215806   3.613   4.683   3.334
 5267TIP3    H115807   3.544   4.730   3.386
 5267TIP3    H215808   3.627   4.748   3.263
 5268TIP3   OH215809   4.780   4.324   4.221
 5268TIP3    H115810   4.856   4.366   4.265
 5268TIP3    H215811   4.766   4.243   4.275
 5269TIP3   OH215812   4.668   4.064   3.403
 5269TIP3    H115813   4.651   4.084   3.309
 5269TIP3    H215814   4.708   4.148   3.435
 5270TIP3   OH215815   4.156   5.189   3.073
 5270TIP3    H115816   4.070   5.214   3.111
 5270TIP3    H215817   4.166   5.258   3.006
 5271TIP3   OH215818   4.330   4.262   3.491
 5271TIP3    H115819   4.395   4.334   3.474
 5271TIP3    H215820   4.343   4.248   3.587
 5272TIP3   OH215821   4.556   4.546   4.322
 5272TIP3    H115822   4.597   4.633   4.315
 5272TIP3    H215823   4.631   4.487   4.303
 5273TIP3   OH215824   4.480   3.970   3.590
 5273TIP3    H115825   4.461   4.050   3.643
 5273TIP3    H215826   4.549   4.002   3.529
 5274TIP3   OH215827   3.906   5.270   3.147
 5274TIP3    H115828   3.877   5.341   3.085
 5274TIP3    H215829   3.888   5.312   3.234
 5275TIP3   OH215830   4.004   3.984   3.379
 5275TIP3    H115831   3.993   4.071   3.422
 5275TIP3    H215832   4.101   3.973   3.391
 5276TIP3   OH215833   5.245   4.466   4.269
 5276TIP3    H115834   5.148   4.477   4.282
 5276TIP3    H215835   5.243   4.400   4.198
 5277TIP3   OH215836   4.899   4.652   3.648
 5277TIP3    H115837   4.813   4.612   3.673
 5277TIP3    H215838   4.956   4.610   3.715
 5278TIP3   OH215839   3.623   4.878   3.132
 5278TIP3    H115840   3.704   4.934   3.139
 5278TIP3    H215841   3.657   4.813   3.066
 5279TIP3   OH215842   3.547   4.165   3.251
 5279TIP3    H115843   3.562   4.261   3.259
 5279TIP3    H215844   3.451   4.161   3.247
 5280TIP3   OH215845   4.873   5.629   3.602
 5280TIP3    H115846   4.832   5.679   3.528
 5280TIP3    H215847   4.969   5.647   3.585
 5281TIP3   OH215848   3.946   3.889   4.132
 5281TIP3    H115849   3.916   3.853   4.046
 5281TIP3    H215850   3.934   3.812   4.191
 5282TIP3   OH215851   3.479   5.119   3.511
 5282TIP3    H115852   3.430   5.142   3.591
 5282TIP3    H215853   3.429   5.166   3.440
 5283TIP3   OH215854   3.653   5.674   4.591
 5283TIP3    H115855   3.737   5.680   4.642
 5283TIP3    H215856   3.639   5.578   4.591
 5284TIP3   OH215857   4.109   5.605   4.637
 5284TIP3    H115858   4.205   5.607   4.643
 5284TIP3    H215859   4.094   5.536   4.570
 5285TIP3   OH215860   4.102   5.189   2.760
 5285TIP3    H115861   4.050   5.114   2.798
 5285TIP3    H215862   4.177   5.141   2.720
 5286TIP3   OH215863   4.755   5.523   4.367
 5286TIP3    H115864   4.747   5.451   4.434
 5286TIP3    H215865   4.841   5.562   4.390
 5287TIP3   OH215866   4.534   5.223   2.680
 5287TIP3    H115867   4.565   5.155   2.744
 5287TIP3    H215868   4.596   5.210   2.605
 5288TIP3   OH215869   3.785   5.062   4.768
 5288TIP3    H115870   3.794   4.968   4.793
 5288TIP3    H215871   3.695   5.065   4.730
 5289TIP3   OH215872   3.755   4.692   2.992
 5289TIP3    H115873   3.816   4.668   3.064
 5289TIP3    H215874   3.820   4.700   2.918
 5290TIP3   OH215875   4.357   5.087   4.529
 5290TIP3    H115876   4.344   5.163   4.467
 5290TIP3    H215877   4.454   5.080   4.527
 5291TIP3   OH215878   4.286   4.912   2.803
 5291TIP3    H115879   4.282   4.921   2.901
 5291TIP3    H215880   4.280   4.814   2.793
 5292TIP3   OH215881   4.868   5.180   4.190
 5292TIP3    H115882   4.950   5.209   4.146
 5292TIP3    H215883   4.803   5.230   4.139
 5293TIP3   OH215884   3.917   4.797   4.776
 5293TIP3    H115885   3.975   4.720   4.772
 5293TIP3    H215886   3.940   4.834   4.864
 5294TIP3   OH215887   3.949   4.618   3.195
 5294TIP3    H115888   3.926   4.575   3.279
 5294TIP3    H215889   3.994   4.545   3.147
 5295TIP3   OH215890   4.069   4.421   3.041
 5295TIP3    H115891   4.044   4.430   2.947
 5295TIP3    H215892   4.167   4.419   3.033
 5296TIP3   OH215893   4.731   5.074   4.561
 5296TIP3    H115894   4.790   5.024   4.503
 5296TIP3    H215895   4.726   5.013   4.637
 5297TIP3   OH215896   4.877   4.744   2.732
 5297TIP3    H115897   4.873   4.708   2.640
 5297TIP3    H215898   4.841   4.834   2.712
 5298TIP3   OH215899   4.372   4.467   4.538
 5298TIP3    H115900   4.350   4.375   4.516
 5298TIP3    H215901   4.424   4.492   4.459
 5299TIP3   OH215902   4.356   4.236   4.381
 5299TIP3    H115903   4.385   4.280   4.298
 5299TIP3    H215904   4.262   4.216   4.359
 5300TIP3   OH215905   4.955   4.753   4.621
 5300TIP3    H115906   4.994   4.669   4.649
 5300TIP3    H215907   5.030   4.797   4.579
 5301TIP3   OH215908   5.000   5.019   4.370
 5301TIP3    H115909   4.944   5.074   4.310
 5301TIP3    H215910   5.088   5.030   4.328
 5302TIP3   OH215911   4.223   4.570   4.765
 5302TIP3    H115912   4.162   4.498   4.790
 5302TIP3    H215913   4.257   4.540   4.679
 5303TIP3   OH215914   4.492   4.006   4.446
 5303TIP3    H115915   4.441   4.087   4.422
 5303TIP3    H215916   4.423   3.938   4.435
 5304TIP3   OH215917   4.614   4.525   4.658
 5304TIP3    H115918   4.597   4.500   4.751
 5304TIP3    H215919   4.528   4.499   4.619
 5305TIP3   OH215920   4.850   4.479   4.513
 5305TIP3    H115921   4.776   4.482   4.577
 5305TIP3    H215922   4.924   4.444   4.567
 5306TIP3   OH215923   5.088   4.414   4.651
 5306TIP3    H115924   5.100   4.318   4.665
 5306TIP3    H215925   5.078   4.448   4.743
 5307TIP3   OH215926   4.077   4.352   4.853
 5307TIP3    H115927   4.074   4.258   4.825
 5307TIP3    H215928   4.120   4.342   4.941
 5308TIP3   OH215929   4.577   4.026   4.705
 5308TIP3    H115930   4.641   3.953   4.697
 5308TIP3    H215931   4.538   4.023   4.615
 5309TIP3   OH215932   4.646   4.240   4.858
 5309TIP3    H115933   4.626   4.166   4.796
 5309TIP3    H215934   4.564   4.294   4.851
 5310TIP3   OH215935   3.880   5.482   2.962
 5310TIP3    H115936   3.972   5.460   2.938
 5310TIP3    H215937   3.854   5.530   2.881
 5311TIP3   OH215938   3.352   4.855   3.163
 5311TIP3    H115939   3.447   4.872   3.150
 5311TIP3    H215940   3.343   4.766   3.122
 5312TIP3   OH215941   3.275   5.466   3.590
 5312TIP3    H115942   3.211   5.405   3.547
 5312TIP3    H215943   3.318   5.404   3.653
 5313TIP3   OH215944   3.401   5.306   3.778
 5313TIP3    H115945   3.393   5.240   3.850
 5313TIP3    H215946   3.451   5.374   3.825
 5314TIP3   OH215947   5.137   5.700   3.580
 5314TIP3    H115948   5.157   5.736   3.669
 5314TIP3    H215949   5.201   5.747   3.525
 5315TIP3   OH215950   5.152   5.724   3.859
 5315TIP3    H115951   5.102   5.640   3.851
 5315TIP3    H215952   5.223   5.691   3.920
 5316TIP3   OH215953   5.238   5.432   4.459
 5316TIP3    H115954   5.152   5.437   4.506
 5316TIP3    H215955   5.223   5.478   4.376
 5317TIP3   OH215956   5.024   4.923   3.047
 5317TIP3    H115957   5.084   4.991   3.009
 5317TIP3    H215958   5.074   4.894   3.126
 5318TIP3   OH215959   5.145   4.802   3.275
 5318TIP3    H115960   5.071   4.740   3.296
 5318TIP3    H215961   5.142   4.856   3.355
 5319TIP3   OH215962   5.218   5.175   3.662
 5319TIP3    H115963   5.235   5.159   3.568
 5319TIP3    H215964   5.195   5.269   3.657
 5320TIP3   OH215965   5.018   5.479   3.870
 5320TIP3    H115966   4.950   5.526   3.923
 5320TIP3    H215967   4.964   5.440   3.798
 5321TIP3   OH215968   5.088   4.702   2.898
 5321TIP3    H115969   5.015   4.698   2.832
 5321TIP3    H215970   5.057   4.780   2.949
 5322TIP3   OH215971   4.949   4.372   2.842
 5322TIP3    H115972   4.881   4.395   2.775
 5322TIP3    H215973   4.940   4.274   2.837
 5323TIP3   OH215974   4.954   4.644   3.382
 5323TIP3    H115975   4.959   4.548   3.370
 5323TIP3    H215976   4.937   4.652   3.479
 5324TIP3   OH215977   3.586   4.722   4.150
 5324TIP3    H115978   3.579   4.681   4.062
 5324TIP3    H215979   3.684   4.725   4.161
 5325TIP3   OH215980   5.256   5.074   4.267
 5325TIP3    H115981   5.319   5.003   4.247
 5325TIP3    H215982   5.280   5.143   4.202
 5326TIP3   OH215983   5.428   4.862   4.236
 5326TIP3    H115984   5.354   4.814   4.279
 5326TIP3    H215985   5.503   4.804   4.262
 5327TIP3   OH215986   4.907   4.102   2.835
 5327TIP3    H115987   4.964   4.061   2.902
 5327TIP3    H215988   4.823   4.054   2.842
 5328TIP3   OH215989   4.962   4.374   3.278
 5328TIP3    H115990   5.002   4.284   3.292
 5328TIP3    H215991   5.014   4.403   3.200
 5329TIP3   OH215992   5.122   4.514   3.780
 5329TIP3    H115993   5.199   4.560   3.743
 5329TIP3    H215994   5.114   4.554   3.868
 5330TIP3   OH215995   5.184   4.678   4.011
 5330TIP3    H115996   5.101   4.701   4.055
 5330TIP3    H215997   5.211   4.765   3.974
 5331TIP3   OH215998   3.813   4.412   4.830
 5331TIP3    H115999   3.910   4.404   4.837
 5331TIP3    H216000   3.786   4.321   4.853
 5332TIP3   OH216001   5.629   4.275   4.560
 5332TIP3    H116002   5.700   4.218   4.525
 5332TIP3    H216003   5.603   4.325   4.479
 5333TIP3   OH216004   5.065   4.121   3.323
 5333TIP3    H116005   5.110   4.102   3.409
 5333TIP3    H216006   5.001   4.047   3.320
 5334TIP3   OH216007   3.766   4.101   4.150
 5334TIP3    H116008   3.825   4.022   4.154
 5334TIP3    H216009   3.832   4.171   4.134
 5335TIP3   OH216010   3.557   4.370   4.212
 5335TIP3    H116011   3.612   4.366   4.131
 5335TIP3    H216012   3.588   4.451   4.253
 5336TIP3   OH216013   5.503   4.407   4.360
 5336TIP3    H116014   5.420   4.455   4.382
 5336TIP3    H216015   5.465   4.332   4.310
 5337TIP3   OH216016   5.144   4.033   2.977
 5337TIP3    H116017   5.177   3.976   2.905
 5337TIP3    H216018   5.202   4.112   2.968
 5338TIP3   OH216019   3.555   3.892   3.733
 5338TIP3    H116020   3.462   3.872   3.750
 5338TIP3    H216021   3.550   3.948   3.652
 5339TIP3   OH216022   4.706   5.588   3.226
 5339TIP3    H116023   4.762   5.579   3.146
 5339TIP3    H216024   4.758   5.648   3.281
 5340TIP3   OH216025   3.773   3.961   4.538
 5340TIP3    H116026   3.718   3.949   4.617
 5340TIP3    H216027   3.707   3.995   4.475
 5341TIP3   OH216028   3.809   5.386   4.605
 5341TIP3    H116029   3.712   5.371   4.597
 5341TIP3    H216030   3.822   5.371   4.700
 5342TIP3   OH216031   3.998   5.430   4.160
 5342TIP3    H116032   3.941   5.502   4.128
 5342TIP3    H216033   4.080   5.450   4.109
 5343TIP3   OH216034   4.417   5.665   4.283
 5343TIP3    H116035   4.457   5.659   4.373
 5343TIP3    H216036   4.485   5.719   4.237
 5344TIP3   OH216037   4.603   5.821   4.154
 5344TIP3    H116038   4.674   5.770   4.113
 5344TIP3    H216039   4.656   5.880   4.213
 5345TIP3   OH216040   5.406   4.167   4.254
 5345TIP3    H116041   5.318   4.150   4.218
 5345TIP3    H216042   5.446   4.077   4.249
 5346TIP3   OH216043   3.675   5.696   4.192
 5346TIP3    H116044   3.580   5.711   4.172
 5346TIP3    H216045   3.687   5.758   4.266
 5347TIP3   OH216046   3.882   5.649   4.019
 5347TIP3    H116047   3.808   5.683   4.075
 5347TIP3    H216048   3.836   5.585   3.964
 5348TIP3   OH216049   4.332   5.676   3.850
 5348TIP3    H116050   4.300   5.697   3.761
 5348TIP3    H216051   4.341   5.765   3.891
 5349TIP3   OH216052   4.596   5.612   3.895
 5349TIP3    H116053   4.502   5.634   3.878
 5349TIP3    H216054   4.642   5.683   3.846
 5350TIP3   OH216055   4.782   5.800   3.796
 5350TIP3    H116056   4.777   5.887   3.751
 5350TIP3    H216057   4.817   5.743   3.723
 5351TIP3   OH216058   3.575   5.462   3.938
 5351TIP3    H116059   3.609   5.426   4.023
 5351TIP3    H216060   3.645   5.429   3.877
 5352TIP3   OH216061   3.777   5.350   3.797
 5352TIP3    H116062   3.785   5.264   3.844
 5352TIP3    H216063   3.871   5.373   3.786
 5353TIP3   OH216064   4.052   5.426   3.796
 5353TIP3    H116065   4.072   5.330   3.794
 5353TIP3    H216066   4.109   5.451   3.872
 5354TIP3   OH216067   4.633   4.089   3.898
 5354TIP3    H116068   4.576   4.019   3.932
 5354TIP3    H216069   4.698   4.041   3.843
 5355TIP3   OH216070   5.125   3.969   3.770
 5355TIP3    H116071   5.160   4.023   3.697
 5355TIP3    H216072   5.031   3.997   3.771
 5356TIP3   OH216073   5.228   4.067   3.538
 5356TIP3    H116074   5.303   4.014   3.505
 5356TIP3    H216075   5.262   4.158   3.525
 5357TIP3   OH216076   3.853   3.794   3.890
 5357TIP3    H116077   3.761   3.760   3.895
 5357TIP3    H216078   3.901   3.708   3.881
 5358TIP3   OH216079   3.656   3.683   3.576
 5358TIP3    H116080   3.688   3.732   3.498
 5358TIP3    H216081   3.635   3.754   3.638
 5359TIP3   OH216082   4.313   3.829   3.767
 5359TIP3    H116083   4.366   3.878   3.702
 5359TIP3    H216084   4.341   3.868   3.851
 5360TIP3   OH216085   4.843   3.975   3.751
 5360TIP3    H116086   4.844   3.931   3.665
 5360TIP3    H216087   4.837   3.898   3.812
 5361TIP3   OH216088   4.883   3.911   3.320
 5361TIP3    H116089   4.802   3.958   3.348
 5361TIP3    H216090   4.865   3.822   3.358
 5362TIP3   OH216091   3.359   5.254   3.304
 5362TIP3    H116092   3.273   5.220   3.277
 5362TIP3    H216093   3.354   5.344   3.265
 5363TIP3   OH216094   3.777   3.810   3.344
 5363TIP3    H116095   3.814   3.727   3.311
 5363TIP3    H216096   3.856   3.867   3.350
 5364TIP3   OH216097   4.277   4.009   3.405
 5364TIP3    H116098   4.336   3.963   3.466
 5364TIP3    H216099   4.295   4.102   3.431
 5365TIP3   OH216100   4.139   5.418   2.900
 5365TIP3    H116101   4.226   5.441   2.862
 5365TIP3    H216102   4.116   5.344   2.839
 5366TIP3   OH216103   4.860   5.551   2.999
 5366TIP3    H116104   4.853   5.453   2.990
 5366TIP3    H216105   4.814   5.579   2.918
 5367TIP3   OH216106   4.067   4.082   4.787
 5367TIP3    H116107   4.030   4.009   4.840
 5367TIP3    H216108   4.161   4.079   4.815
 5368TIP3   OH216109   4.320   4.075   4.901
 5368TIP3    H116110   4.405   4.046   4.863
 5368TIP3    H216111   4.304   4.006   4.969
 5369TIP3   OH216112   3.444   5.259   2.951
 5369TIP3    H116113   3.451   5.256   3.047
 5369TIP3    H216114   3.528   5.212   2.925
 5370TIP3   OH216115   5.147   4.145   4.683
 5370TIP3    H116116   5.162   4.115   4.776
 5370TIP3    H216117   5.238   4.138   4.647
 5371TIP3   OH216118   5.053   5.658   4.195
 5371TIP3    H116119   4.981   5.648   4.129
 5371TIP3    H216120   5.068   5.754   4.191
 5372TIP3   OH216121   6.340   5.064   2.947
 5372TIP3    H116122   6.309   5.155   2.928
 5372TIP3    H216123   6.268   5.012   2.907
 5373TIP3   OH216124   6.313   5.068   3.340
 5373TIP3    H116125   6.354   5.051   3.428
 5373TIP3    H216126   6.289   4.977   3.316
 5374TIP3   OH216127   6.569   5.359   3.057
 5374TIP3    H116128   6.576   5.279   3.112
 5374TIP3    H216129   6.520   5.417   3.117
 5375TIP3   OH216130   5.624   5.369   3.402
 5375TIP3    H116131   5.614   5.276   3.425
 5375TIP3    H216132   5.721   5.377   3.389
 5376TIP3   OH216133   5.325   4.592   3.213
 5376TIP3    H116134   5.261   4.664   3.222
 5376TIP3    H216135   5.272   4.526   3.165
 5377TIP3   OH216136   5.487   4.795   3.402
 5377TIP3    H116137   5.442   4.718   3.363
 5377TIP3    H216138   5.449   4.867   3.350
 5378TIP3   OH216139   6.151   5.291   3.379
 5378TIP3    H116140   6.199   5.211   3.347
 5378TIP3    H216141   6.228   5.344   3.406
 5379TIP3   OH216142   6.547   4.810   3.406
 5379TIP3    H116143   6.579   4.720   3.427
 5379TIP3    H216144   6.520   4.797   3.313
 5380TIP3   OH216145   5.902   4.455   3.368
 5380TIP3    H116146   5.884   4.524   3.301
 5380TIP3    H216147   5.853   4.380   3.329
 5381TIP3   OH216148   6.605   4.539   3.001
 5381TIP3    H116149   6.645   4.484   3.069
 5381TIP3    H216150   6.679   4.548   2.936
 5382TIP3   OH216151   5.966   4.846   3.296
 5382TIP3    H116152   6.062   4.825   3.299
 5382TIP3    H216153   5.931   4.764   3.253
 5383TIP3   OH216154   5.890   4.436   3.800
 5383TIP3    H116155   5.830   4.473   3.733
 5383TIP3    H216156   5.837   4.452   3.881
 5384TIP3   OH216157   6.208   5.280   2.814
 5384TIP3    H116158   6.202   5.276   2.717
 5384TIP3    H216159   6.204   5.376   2.830
 5385TIP3   OH216160   5.998   5.197   3.579
 5385TIP3    H116161   5.939   5.269   3.612
 5385TIP3    H216162   6.047   5.242   3.507
 5386TIP3   OH216163   5.765   4.565   3.583
 5386TIP3    H116164   5.837   4.623   3.616
 5386TIP3    H216165   5.810   4.524   3.505
 5387TIP3   OH216166   5.822   5.391   3.668
 5387TIP3    H116167   5.789   5.476   3.631
 5387TIP3    H216168   5.748   5.374   3.730
 5388TIP3   OH216169   5.212   5.100   2.930
 5388TIP3    H116170   5.175   5.120   2.842
 5388TIP3    H216171   5.242   5.189   2.958
 5389TIP3   OH216172   6.238   4.137   3.534
 5389TIP3    H116173   6.217   4.043   3.552
 5389TIP3    H216174   6.161   4.180   3.578
 5390TIP3   OH216175   6.176   4.918   2.784
 5390TIP3    H116176   6.098   4.973   2.763
 5390TIP3    H216177   6.218   4.911   2.696
 5391TIP3   OH216178   6.133   4.705   2.487
 5391TIP3    H116179   6.200   4.761   2.530
 5391TIP3    H216180   6.191   4.642   2.438
 5392TIP3   OH216181   6.526   4.986   2.765
 5392TIP3    H116182   6.466   5.010   2.840
 5392TIP3    H216183   6.609   5.024   2.797
 5393TIP3   OH216184   5.751   4.989   3.171
 5393TIP3    H116185   5.708   4.934   3.101
 5393TIP3    H216186   5.827   4.934   3.195
 5394TIP3   OH216187   5.885   5.392   3.306
 5394TIP3    H116188   5.873   5.384   3.209
 5394TIP3    H216189   5.976   5.358   3.319
 5395TIP3   OH216190   5.883   4.955   3.526
 5395TIP3    H116191   5.928   4.928   3.443
 5395TIP3    H216192   5.932   5.038   3.548
 5396TIP3   OH216193   6.413   5.575   3.273
 5396TIP3    H116194   6.430   5.662   3.311
 5396TIP3    H216195   6.407   5.516   3.350
 5397TIP3   OH216196   6.039   5.557   3.754
 5397TIP3    H116197   5.995   5.620   3.815
 5397TIP3    H216198   5.962   5.505   3.724
 5398TIP3   OH216199   6.353   4.861   2.577
 5398TIP3    H116200   6.416   4.917   2.628
 5398TIP3    H216201   6.387   4.875   2.485
 5399TIP3   OH216202   5.787   5.061   3.939
 5399TIP3    H116203   5.792   5.152   3.975
 5399TIP3    H216204   5.695   5.040   3.967
 5400TIP3   OH216205   6.132   5.568   2.853
 5400TIP3    H116206   6.104   5.556   2.945
 5400TIP3    H216207   6.048   5.564   2.804
 5401TIP3   OH216208   5.803   5.669   3.892
 5401TIP3    H116209   5.765   5.673   3.803
 5401TIP3    H216210   5.725   5.643   3.946
 5402TIP3   OH216211   5.621   4.843   2.977
 5402TIP3    H116212   5.548   4.882   2.922
 5402TIP3    H216213   5.599   4.749   2.975
 5403TIP3   OH216214   5.398   5.214   3.877
 5403TIP3    H116215   5.334   5.184   3.809
 5403TIP3    H216216   5.436   5.130   3.909
 5404TIP3   OH216217   5.265   5.424   3.508
 5404TIP3    H116218   5.362   5.434   3.509
 5404TIP3    H216219   5.240   5.501   3.561
 5405TIP3   OH216220   5.918   5.770   2.673
 5405TIP3    H116221   5.902   5.731   2.586
 5405TIP3    H216222   5.996   5.825   2.657
 5406TIP3   OH216223   5.430   5.623   3.039
 5406TIP3    H116224   5.474   5.618   3.127
 5406TIP3    H216225   5.389   5.535   3.032
 5407TIP3   OH216226   5.598   5.399   3.832
 5407TIP3    H116227   5.646   5.389   3.917
 5407TIP3    H216228   5.523   5.337   3.846
 5408TIP3   OH216229   6.004   4.226   3.659
 5408TIP3    H116230   5.918   4.198   3.624
 5408TIP3    H216231   5.976   4.306   3.708
 5409TIP3   OH216232   6.528   4.334   3.838
 5409TIP3    H116233   6.598   4.318   3.905
 5409TIP3    H216234   6.446   4.321   3.890
 5410TIP3   OH216235   6.458   4.888   2.330
 5410TIP3    H116236   6.421   4.872   2.241
 5410TIP3    H216237   6.503   4.973   2.319
 5411TIP3   OH216238   6.155   4.269   2.628
 5411TIP3    H116239   6.114   4.266   2.716
 5411TIP3    H216240   6.112   4.190   2.587
 5412TIP3   OH216241   5.955   4.740   3.673
 5412TIP3    H116242   5.922   4.763   3.763
 5412TIP3    H216243   5.945   4.827   3.629
 5413TIP3   OH216244   5.830   4.640   3.182
 5413TIP3    H116245   5.738   4.612   3.203
 5413TIP3    H216246   5.840   4.596   3.095
 5414TIP3   OH216247   6.318   4.713   2.915
 5414TIP3    H116248   6.270   4.784   2.867
 5414TIP3    H216249   6.383   4.684   2.848
 5415TIP3   OH216250   6.465   4.745   3.146
 5415TIP3    H116251   6.398   4.763   3.076
 5415TIP3    H216252   6.510   4.670   3.102
 5416TIP3   OH216253   5.740   4.769   3.852
 5416TIP3    H116254   5.761   4.842   3.913
 5416TIP3    H216255   5.735   4.693   3.912
 5417TIP3   OH216256   5.818   4.253   2.590
 5417TIP3    H116257   5.801   4.255   2.686
 5417TIP3    H216258   5.740   4.302   2.558
 5418TIP3   OH216259   5.357   4.290   3.460
 5418TIP3    H116260   5.435   4.324   3.507
 5418TIP3    H216261   5.393   4.255   3.376
 5419TIP3   OH216262   5.300   4.270   2.979
 5419TIP3    H116263   5.342   4.305   2.898
 5419TIP3    H216264   5.236   4.342   2.995
 5420TIP3   OH216265   6.412   4.976   3.575
 5420TIP3    H116266   6.474   4.927   3.516
 5420TIP3    H216267   6.411   4.913   3.650
 5421TIP3   OH216268   6.163   4.451   3.240
 5421TIP3    H116269   6.089   4.454   3.303
 5421TIP3    H216270   6.238   4.429   3.299
 5422TIP3   OH216271   5.594   4.525   3.242
 5422TIP3    H116272   5.498   4.536   3.230
 5422TIP3    H216273   5.607   4.429   3.230
 5423TIP3   OH216274   5.842   4.504   2.947
 5423TIP3    H116275   5.936   4.517   2.924
 5423TIP3    H216276   5.796   4.525   2.862
 5424TIP3   OH216277   6.602   4.548   3.449
 5424TIP3    H116278   6.600   4.552   3.546
 5424TIP3    H216279   6.542   4.475   3.428
 5425TIP3   OH216280   5.711   4.544   2.713
 5425TIP3    H116281   5.647   4.493   2.660
 5425TIP3    H216282   5.765   4.585   2.641
 5426TIP3   OH216283   5.753   5.318   4.060
 5426TIP3    H116284   5.838   5.359   4.088
 5426TIP3    H216285   5.706   5.314   4.145
 5427TIP3   OH216286   6.232   4.785   3.340
 5427TIP3    H116287   6.306   4.749   3.287
 5427TIP3    H216288   6.240   4.735   3.423
 5428TIP3   OH216289   5.746   4.264   3.237
 5428TIP3    H116290   5.709   4.190   3.290
 5428TIP3    H216291   5.773   4.218   3.157
 5429TIP3   OH216292   6.212   4.681   3.622
 5429TIP3    H116293   6.120   4.708   3.642
 5429TIP3    H216294   6.265   4.738   3.683
 5430TIP3   OH216295   5.947   5.068   2.722
 5430TIP3    H116296   5.874   5.004   2.707
 5430TIP3    H216297   5.922   5.102   2.812
 5431TIP3   OH216298   6.404   4.368   2.612
 5431TIP3    H116299   6.308   4.343   2.612
 5431TIP3    H216300   6.401   4.464   2.625
 5432TIP3   OH216301   6.472   4.635   2.678
 5432TIP3    H116302   6.560   4.633   2.639
 5432TIP3    H216303   6.435   4.717   2.641
 5433TIP3   OH216304   5.652   5.072   3.409
 5433TIP3    H116305   5.662   5.052   3.313
 5433TIP3    H216306   5.740   5.105   3.428
 5434TIP3   OH216307   6.096   5.214   2.541
 5434TIP3    H116308   6.045   5.298   2.550
 5434TIP3    H216309   6.048   5.158   2.605
 5435TIP3   OH216310   5.527   5.007   4.019
 5435TIP3    H116311   5.547   4.997   4.114
 5435TIP3    H216312   5.458   4.939   4.009
 5436TIP3   OH216313   6.207   5.073   4.079
 5436TIP3    H116314   6.163   5.010   4.020
 5436TIP3    H216315   6.273   5.115   4.021
 5437TIP3   OH216316   6.556   5.177   3.261
 5437TIP3    H116317   6.469   5.132   3.258
 5437TIP3    H216318   6.616   5.104   3.234
 5438TIP3   OH216319   5.751   5.406   3.030
 5438TIP3    H116320   5.736   5.488   2.979
 5438TIP3    H216321   5.661   5.377   3.047
 5439TIP3   OH216322   5.316   4.695   2.744
 5439TIP3    H116323   5.356   4.782   2.764
 5439TIP3    H216324   5.235   4.699   2.801
 5440TIP3   OH216325   5.855   5.155   2.964
 5440TIP3    H116326   5.828   5.246   2.986
 5440TIP3    H216327   5.823   5.105   3.040
 5441TIP3   OH216328   5.997   5.738   3.503
 5441TIP3    H116329   6.032   5.827   3.489
 5441TIP3    H216330   6.046   5.708   3.581
 5442TIP3   OH216331   5.659   5.638   2.890
 5442TIP3    H116332   5.571   5.643   2.932
 5442TIP3    H216333   5.681   5.733   2.885
 5443TIP3   OH216334   6.412   5.364   3.454
 5443TIP3    H116335   6.470   5.366   3.532
 5443TIP3    H216336   6.463   5.307   3.393
 5444TIP3   OH216337   6.327   5.211   2.372
 5444TIP3    H116338   6.391   5.170   2.435
 5444TIP3    H216339   6.245   5.207   2.425
 5445TIP3   OH216340   5.724   4.519   4.006
 5445TIP3    H116341   5.628   4.522   4.022
 5445TIP3    H216342   5.758   4.489   4.092
 5446TIP3   OH216343   6.523   5.134   2.541
 5446TIP3    H116344   6.522   5.080   2.623
 5446TIP3    H216345   6.577   5.209   2.573
 5447TIP3   OH216346   5.452   5.593   3.651
 5447TIP3    H116347   5.509   5.534   3.704
 5447TIP3    H216348   5.464   5.677   3.696
 5448TIP3   OH216349   5.719   5.244   2.345
 5448TIP3    H116350   5.743   5.153   2.319
 5448TIP3    H216351   5.697   5.233   2.439
 5449TIP3   OH216352   5.672   5.249   2.618
 5449TIP3    H116353   5.758   5.226   2.657
 5449TIP3    H216354   5.672   5.347   2.629
 5450TIP3   OH216355   5.410   4.942   2.821
 5450TIP3    H116356   5.341   4.989   2.872
 5450TIP3    H216357   5.423   5.006   2.748
 5451TIP3   OH216358   6.573   4.582   3.732
 5451TIP3    H116359   6.608   4.611   3.820
 5451TIP3    H216360   6.553   4.489   3.755
 5452TIP3   OH216361   6.447   4.327   2.886
 5452TIP3    H116362   6.435   4.336   2.789
 5452TIP3    H216363   6.484   4.414   2.909
 5453TIP3   OH216364   5.947   5.440   2.577
 5453TIP3    H116365   5.859   5.458   2.615
 5453TIP3    H216366   5.945   5.505   2.505
 5454TIP3   OH216367   6.125   4.519   2.976
 5454TIP3    H116368   6.191   4.589   2.958
 5454TIP3    H216369   6.137   4.506   3.073
 5455TIP3   OH216370   6.407   4.798   3.776
 5455TIP3    H116371   6.468   4.844   3.838
 5455TIP3    H216372   6.459   4.718   3.755
 5456TIP3   OH216373   6.270   4.220   3.071
 5456TIP3    H116374   6.264   4.298   3.127
 5456TIP3    H216375   6.337   4.251   3.005
 5457TIP3   OH216376   5.695   5.520   2.645
 5457TIP3    H116377   5.664   5.591   2.585
 5457TIP3    H216378   5.686   5.566   2.731
 5458TIP3   OH216379   5.791   4.241   2.866
 5458TIP3    H116380   5.786   4.330   2.906
 5458TIP3    H216381   5.888   4.227   2.872
 5459TIP3   OH216382   6.682   4.941   3.176
 5459TIP3    H116383   6.609   4.885   3.145
 5459TIP3    H216384   6.736   4.879   3.225
 5460TIP3   OH216385   5.418   5.134   2.618
 5460TIP3    H116386   5.498   5.190   2.627
 5460TIP3    H216387   5.450   5.072   2.550
 5461TIP3   OH216388   5.342   4.420   2.755
 5461TIP3    H116389   5.351   4.518   2.756
 5461TIP3    H216390   5.272   4.408   2.690
 5462TIP3   OH216391   5.737   4.153   3.618
 5462TIP3    H116392   5.710   4.116   3.532
 5462TIP3    H216393   5.729   4.075   3.677
 5463TIP3   OH216394   5.268   5.365   2.998
 5463TIP3    H116395   5.222   5.397   3.077
 5463TIP3    H216396   5.225   5.416   2.925
 5464TIP3   OH216397   5.897   5.432   2.239
 5464TIP3    H116398   5.846   5.356   2.274
 5464TIP3    H216399   5.978   5.389   2.207
 5465TIP3   OH216400   5.561   5.296   4.280
 5465TIP3    H116401   5.590   5.202   4.280
 5465TIP3    H216402   5.478   5.294   4.228
 5466TIP3   OH216403   5.550   4.951   2.477
 5466TIP3    H116404   5.610   4.928   2.551
 5466TIP3    H216405   5.617   4.959   2.405
 5467TIP3   OH216406   6.026   5.151   2.274
 5467TIP3    H116407   6.040   5.166   2.369
 5467TIP3    H216408   6.046   5.055   2.268
 5468TIP3   OH216409   5.701   5.052   4.273
 5468TIP3    H116410   5.777   5.003   4.234
 5468TIP3    H216411   5.725   5.048   4.367
 5469TIP3   OH216412   5.750   4.875   2.684
 5469TIP3    H116413   5.724   4.829   2.764
 5469TIP3    H216414   5.793   4.804   2.632
 5470TIP3   OH216415   6.023   4.924   3.891
 5470TIP3    H116416   5.944   4.982   3.901
 5470TIP3    H216417   6.080   4.976   3.831
 5471TIP3   OH216418   5.862   4.677   2.528
 5471TIP3    H116419   5.838   4.686   2.434
 5471TIP3    H216420   5.960   4.675   2.520
 5472TIP3   OH216421   6.151   4.730   4.036
 5472TIP3    H116422   6.149   4.649   3.983
 5472TIP3    H216423   6.107   4.794   3.977
 5473TIP3   OH216424   6.150   4.513   3.852
 5473TIP3    H116425   6.181   4.554   3.769
 5473TIP3    H216426   6.056   4.492   3.830
 5474TIP3   OH216427   6.189   5.058   3.724
 5474TIP3    H116428   6.258   5.037   3.658
 5474TIP3    H216429   6.129   5.117   3.674
 5475TIP3   OH216430   5.905   4.857   4.199
 5475TIP3    H116431   5.884   4.775   4.249
 5475TIP3    H216432   5.984   4.829   4.150
 5476TIP3   OH216433   6.273   4.275   3.931
 5476TIP3    H116434   6.225   4.357   3.906
 5476TIP3    H216435   6.203   4.207   3.919
 5477TIP3   OH216436   6.420   4.706   4.128
 5477TIP3    H116437   6.429   4.783   4.186
 5477TIP3    H216438   6.327   4.715   4.098
 5478TIP3   OH216439   6.642   4.651   3.982
 5478TIP3    H116440   6.561   4.658   4.038
 5478TIP3    H216441   6.714   4.655   4.048
 5479TIP3   OH216442   5.862   4.595   4.313
 5479TIP3    H116443   5.872   4.499   4.303
 5479TIP3    H216444   5.889   4.607   4.406
 5480TIP3   OH216445   6.385   4.237   4.177
 5480TIP3    H116446   6.448   4.170   4.143
 5480TIP3    H216447   6.332   4.255   4.097
 5481TIP3   OH216448   6.445   4.464   4.351
 5481TIP3    H116449   6.423   4.474   4.258
 5481TIP3    H216450   6.409   4.548   4.387
 5482TIP3   OH216451   5.653   5.731   2.474
 5482TIP3    H116452   5.740   5.702   2.442
 5482TIP3    H216453   5.621   5.780   2.395
 5483TIP3   OH216454   5.147   5.108   2.657
 5483TIP3    H116455   5.242   5.126   2.638
 5483TIP3    H216456   5.136   5.021   2.612
 5484TIP3   OH216457   5.063   5.718   3.081
 5484TIP3    H116458   5.000   5.658   3.036
 5484TIP3    H216459   5.109   5.655   3.141
 5485TIP3   OH216460   5.197   5.554   3.261
 5485TIP3    H116461   5.185   5.494   3.337
 5485TIP3    H216462   5.253   5.622   3.303
 5486TIP3   OH216463   5.598   4.657   4.300
 5486TIP3    H116464   5.696   4.659   4.303
 5486TIP3    H216465   5.580   4.567   4.332
 5487TIP3   OH216466   5.561   4.379   3.630
 5487TIP3    H116467   5.616   4.298   3.640
 5487TIP3    H216468   5.630   4.445   3.609
 5488TIP3   OH216469   5.362   4.631   3.699
 5488TIP3    H116470   5.408   4.564   3.645
 5488TIP3    H216471   5.425   4.650   3.769
 5489TIP3   OH216472   5.348   4.135   3.211
 5489TIP3    H116473   5.256   4.121   3.239
 5489TIP3    H216474   5.336   4.190   3.130
 5490TIP3   OH216475   5.567   4.196   4.018
 5490TIP3    H116476   5.520   4.200   4.103
 5490TIP3    H216477   5.504   4.242   3.960
 5491TIP3   OH216478   5.589   5.623   4.064
 5491TIP3    H116479   5.496   5.617   4.035
 5491TIP3    H216480   5.578   5.604   4.160
 5492TIP3   OH216481   5.765   5.647   3.614
 5492TIP3    H116482   5.708   5.719   3.577
 5492TIP3    H216483   5.849   5.677   3.574
 5493TIP3   OH216484   5.450   5.924   3.680
 5493TIP3    H116485   5.364   5.964   3.654
 5493TIP3    H216486   5.452   5.945   3.774
 5494TIP3   OH216487   5.656   5.864   3.510
 5494TIP3    H116488   5.585   5.902   3.566
 5494TIP3    H216489   5.666   5.933   3.442
 5495TIP3   OH216490   5.370   5.723   3.409
 5495TIP3    H116491   5.400   5.695   3.498
 5495TIP3    H216492   5.446   5.689   3.357
 5496TIP3   OH216493   5.569   5.602   3.274
 5496TIP3    H116494   5.582   5.518   3.325
 5496TIP3    H216495   5.660   5.638   3.276
 5497TIP3   OH216496   5.836   5.673   3.286
 5497TIP3    H116497   5.865   5.581   3.289
 5497TIP3    H216498   5.886   5.709   3.362
 5498TIP3   OH216499   6.376   4.343   3.370
 5498TIP3    H116500   6.343   4.270   3.427
 5498TIP3    H216501   6.446   4.297   3.318
 5499TIP3   OH216502   5.654   4.048   3.376
 5499TIP3    H116503   5.562   4.014   3.382
 5499TIP3    H216504   5.703   3.963   3.370
 5500TIP3   OH216505   5.460   3.932   3.032
 5500TIP3    H116506   5.483   3.985   2.954
 5500TIP3    H216507   5.429   3.999   3.095
 5501TIP3   OH216508   6.111   4.079   3.260
 5501TIP3    H116509   6.158   4.124   3.188
 5501TIP3    H216510   6.143   4.126   3.338
 5502TIP3   OH216511   6.572   4.201   3.242
 5502TIP3    H116512   6.624   4.192   3.161
 5502TIP3    H216513   6.601   4.123   3.292
 5503TIP3   OH216514   6.649   4.159   2.792
 5503TIP3    H116515   6.579   4.213   2.831
 5503TIP3    H216516   6.636   4.074   2.838
 5504TIP3   OH216517   5.158   5.512   2.797
 5504TIP3    H116518   5.071   5.477   2.767
 5504TIP3    H216519   5.152   5.602   2.758
 5505TIP3   OH216520   5.569   4.076   2.790
 5505TIP3    H116521   5.615   4.015   2.729
 5505TIP3    H216522   5.644   4.131   2.822
 5506TIP3   OH216523   6.065   4.267   2.888
 5506TIP3    H116524   6.127   4.222   2.948
 5506TIP3    H216525   6.086   4.360   2.910
 5507TIP3   OH216526   5.907   5.652   2.404
 5507TIP3    H116527   5.968   5.724   2.374
 5507TIP3    H216528   5.909   5.590   2.327
 5508TIP3   OH216529   5.865   4.314   4.263
 5508TIP3    H116530   5.829   4.245   4.323
 5508TIP3    H216531   5.957   4.318   4.296
 5509TIP3   OH216532   6.109   4.321   4.388
 5509TIP3    H116533   6.192   4.284   4.356
 5509TIP3    H216534   6.090   4.264   4.465
 5510TIP3   OH216535   5.240   5.508   2.439
 5510TIP3    H116536   5.252   5.517   2.534
 5510TIP3    H216537   5.324   5.463   2.413
 5511TIP3   OH216538   1.415   5.651   4.552
 5511TIP3    H116539   1.447   5.734   4.592
 5511TIP3    H216540   1.440   5.664   4.459
 5512TIP3   OH216541   0.798   5.836   4.565
 5512TIP3    H116542   0.842   5.752   4.585
 5512TIP3    H216543   0.753   5.814   4.481
 5513TIP3   OH216544   0.849   5.592   4.158
 5513TIP3    H116545   0.919   5.580   4.227
 5513TIP3    H216546   0.905   5.624   4.084
 5514TIP3   OH216547   1.496   5.860   4.718
 5514TIP3    H116548   1.410   5.905   4.704
 5514TIP3    H216549   1.531   5.908   4.795
 5515TIP3   OH216550   1.035   5.603   4.354
 5515TIP3    H116551   1.018   5.567   4.442
 5515TIP3    H216552   1.089   5.682   4.377
 5516TIP3   OH216553   1.211   5.542   4.713
 5516TIP3    H116554   1.126   5.574   4.678
 5516TIP3    H216555   1.274   5.577   4.646
 5517TIP3   OH216556   1.344   6.210   4.584
 5517TIP3    H116557   1.258   6.258   4.582
 5517TIP3    H216558   1.363   6.206   4.487
 5518TIP3   OH216559   0.775   6.071   3.933
 5518TIP3    H116560   0.752   6.137   4.000
 5518TIP3    H216561   0.856   6.030   3.972
 5519TIP3   OH216562   1.030   6.055   4.835
 5519TIP3    H116563   1.015   6.148   4.863
 5519TIP3    H216564   0.939   6.036   4.804
 5520TIP3   OH216565   0.622   5.898   3.783
 5520TIP3    H116566   0.672   5.972   3.821
 5520TIP3    H216567   0.639   5.911   3.687
 5521TIP3   OH216568   1.130   5.133   3.798
 5521TIP3    H116569   1.052   5.158   3.852
 5521TIP3    H216570   1.145   5.215   3.747
 5522TIP3   OH216571   1.278   6.049   4.979
 5522TIP3    H116572   1.188   6.049   4.942
 5522TIP3    H216573   1.294   5.954   4.991
 5523TIP3   OH216574   0.801   5.382   5.042
 5523TIP3    H116575   0.883   5.361   5.092
 5523TIP3    H216576   0.737   5.324   5.086
 5524TIP3   OH216577   1.015   5.788   4.928
 5524TIP3    H116578   0.992   5.807   5.022
 5524TIP3    H216579   1.015   5.878   4.889
 5525TIP3   OH216580   0.697   5.944   3.526
 5525TIP3    H116581   0.655   5.916   3.441
 5525TIP3    H216582   0.787   5.961   3.494
 5526TIP3   OH216583   0.567   5.802   4.074
 5526TIP3    H116584   0.582   5.859   3.997
 5526TIP3    H216585   0.603   5.718   4.040
 5527TIP3   OH216586   0.722   5.787   4.306
 5527TIP3    H116587   0.659   5.814   4.237
 5527TIP3    H216588   0.764   5.711   4.262
 5528TIP3   OH216589   0.768   6.010   4.768
 5528TIP3    H116590   0.782   5.947   4.694
 5528TIP3    H216591   0.672   6.012   4.773
 5529TIP3   OH216592   0.892   5.582   4.622
 5529TIP3    H116593   0.866   5.590   4.717
 5529TIP3    H216594   0.818   5.526   4.590
 5530TIP3   OH216595   1.103   6.326   4.542
 5530TIP3    H116596   1.136   6.393   4.479
 5530TIP3    H216597   1.024   6.291   4.495
 5531TIP3   OH216598   0.628   5.420   3.794
 5531TIP3    H116599   0.537   5.449   3.786
 5531TIP3    H216600   0.673   5.506   3.810
 5532TIP3   OH216601   0.723   5.663   3.881
 5532TIP3    H116602   0.818   5.686   3.890
 5532TIP3    H216603   0.688   5.741   3.832
 5533TIP3   OH216604   1.151   5.764   3.711
 5533TIP3    H116605   1.093   5.723   3.642
 5533TIP3    H216606   1.151   5.856   3.674
 5534TIP3   OH216607   0.886   6.220   4.409
 5534TIP3    H116608   0.827   6.195   4.481
 5534TIP3    H216609   0.907   6.133   4.368
 5535TIP3   OH216610   0.805   6.228   3.706
 5535TIP3    H116611   0.783   6.169   3.781
 5535TIP3    H216612   0.901   6.213   3.698
 5536TIP3   OH216613   0.818   5.607   4.883
 5536TIP3    H116614   0.893   5.667   4.905
 5536TIP3    H216615   0.827   5.534   4.948
 5537TIP3   OH216616   0.728   5.361   4.049
 5537TIP3    H116617   0.678   5.380   3.967
 5537TIP3    H216618   0.761   5.450   4.074
 5538TIP3   OH216619   0.594   5.280   4.269
 5538TIP3    H116620   0.643   5.342   4.324
 5538TIP3    H216621   0.628   5.306   4.180
 5539TIP3   OH216622   1.288   5.768   4.939
 5539TIP3    H116623   1.191   5.752   4.936
 5539TIP3    H216624   1.314   5.741   4.850
 5540TIP3   OH216625   0.947   5.962   4.325
 5540TIP3    H116626   0.872   5.901   4.342
 5540TIP3    H216627   1.020   5.917   4.373
 5541TIP3   OH216628   0.928   6.000   3.386
 5541TIP3    H116629   0.920   5.976   3.291
 5541TIP3    H216630   0.896   6.092   3.384
 5542TIP3   OH216631   3.463   0.805   0.189
 5542TIP3    H116632   3.405   0.824   0.263
 5542TIP3    H216633   3.546   0.781   0.235
 5543TIP3   OH216634   1.169   5.720   5.349
 5543TIP3    H116635   1.162   5.623   5.359
 5543TIP3    H216636   1.177   5.751   5.441
 5544TIP3   OH216637   1.076   6.222   3.701
 5544TIP3    H116638   1.135   6.296   3.678
 5544TIP3    H216639   1.120   6.188   3.783
 5545TIP3   OH216640   1.189   6.088   3.911
 5545TIP3    H116641   1.124   6.051   3.974
 5545TIP3    H216642   1.265   6.113   3.968
 5546TIP3   OH216643   1.135   5.991   3.567
 5546TIP3    H116644   1.062   5.985   3.501
 5546TIP3    H216645   1.111   6.074   3.613
 5547TIP3   OH216646   1.003   5.669   3.503
 5547TIP3    H116647   0.947   5.702   3.432
 5547TIP3    H216648   0.985   5.573   3.498
 5548TIP3   OH216649   0.994   5.952   4.054
 5548TIP3    H116650   1.009   5.857   4.040
 5548TIP3    H216651   0.985   5.957   4.152
 5549TIP3   OH216652   1.523   6.173   4.964
 5549TIP3    H116653   1.432   6.142   4.980
 5549TIP3    H216654   1.571   6.088   4.964
 5550TIP3   OH216655   0.941   5.403   3.490
 5550TIP3    H116656   1.014   5.371   3.547
 5550TIP3    H216657   0.867   5.345   3.511
 5551TIP3   OH216658   1.010   5.674   3.945
 5551TIP3    H116659   1.052   5.586   3.958
 5551TIP3    H216660   1.063   5.706   3.869
 5552TIP3   OH216661   1.161   5.829   4.441
 5552TIP3    H116662   1.247   5.850   4.397
 5552TIP3    H216663   1.182   5.866   4.529
 5553TIP3   OH216664   1.246   5.969   4.667
 5553TIP3    H116665   1.172   6.002   4.722
 5553TIP3    H216666   1.283   6.054   4.634
 5554TIP3   OH216667   1.693   5.558   5.216
 5554TIP3    H116668   1.757   5.499   5.171
 5554TIP3    H216669   1.652   5.604   5.139
 5555TIP3   OH216670   1.113   5.421   3.988
 5555TIP3    H116671   1.159   5.402   4.073
 5555TIP3    H216672   1.054   5.343   3.983
 5556TIP3   OH216673   1.539   5.695   5.045
 5556TIP3    H116674   1.464   5.750   5.077
 5556TIP3    H216675   1.490   5.634   4.986
 5557TIP3   OH216676   1.177   5.342   3.627
 5557TIP3    H116677   1.220   5.278   3.567
 5557TIP3    H216678   1.243   5.415   3.630
 5558TIP3   OH216679   1.443   5.467   4.917
 5558TIP3    H116680   1.359   5.457   4.870
 5558TIP3    H216681   1.483   5.378   4.906
 5559TIP3   OH216682   0.702   5.403   4.528
 5559TIP3    H116683   0.644   5.328   4.547
 5559TIP3    H216684   0.780   5.359   4.490
 5560TIP3   OH216685   1.169   5.273   4.441
 5560TIP3    H116686   1.209   5.321   4.366
 5560TIP3    H216687   1.074   5.293   4.430
 5561TIP3   OH216688   1.270   5.364   4.206
 5561TIP3    H116689   1.345   5.309   4.174
 5561TIP3    H216690   1.308   5.454   4.192
 5562TIP3   OH216691   0.894   5.263   4.403
 5562TIP3    H116692   0.912   5.215   4.320
 5562TIP3    H216693   0.882   5.188   4.466
 5563TIP3   OH216694   0.939   5.203   3.981
 5563TIP3    H116695   0.859   5.255   4.005
 5563TIP3    H216696   0.917   5.117   4.023
 5564TIP3   OH216697   1.188   5.442   5.346
 5564TIP3    H116698   1.203   5.408   5.437
 5564TIP3    H216699   1.279   5.435   5.308
 5565TIP3   OH216700   2.409   6.352   3.608
 5565TIP3    H116701   2.376   6.443   3.616
 5565TIP3    H216702   2.333   6.306   3.568
 5566TIP3   OH216703   2.409   6.373   4.000
 5566TIP3    H116704   2.446   6.347   4.087
 5566TIP3    H216705   2.357   6.294   3.978
 5567TIP3   OH216706   1.690   6.248   4.361
 5567TIP3    H116707   1.743   6.193   4.421
 5567TIP3    H216708   1.729   6.337   4.372
 5568TIP3   OH216709   1.374   5.861   3.845
 5568TIP3    H116710   1.337   5.947   3.871
 5568TIP3    H216711   1.297   5.819   3.803
 5569TIP3   OH216712   1.429   6.157   4.021
 5569TIP3    H116713   1.468   6.079   4.066
 5569TIP3    H216714   1.506   6.218   4.028
 5570TIP3   OH216715   2.215   6.573   3.997
 5570TIP3    H116716   2.292   6.512   3.996
 5570TIP3    H216717   2.249   6.647   4.050
 5571TIP3   OH216718   3.224   5.924   4.019
 5571TIP3    H116719   3.256   5.993   4.082
 5571TIP3    H216720   3.168   5.980   3.962
 5572TIP3   OH216721   2.611   6.088   4.060
 5572TIP3    H116722   2.649   6.000   4.082
 5572TIP3    H216723   2.571   6.069   3.973
 5573TIP3   OH216724   1.958   5.750   4.026
 5573TIP3    H116725   1.933   5.822   3.964
 5573TIP3    H216726   1.904   5.677   3.990
 5574TIP3   OH216727   2.648   5.845   3.648
 5574TIP3    H116728   2.718   5.833   3.716
 5574TIP3    H216729   2.700   5.879   3.573
 5575TIP3   OH216730   1.572   5.951   4.142
 5575TIP3    H116731   1.656   5.939   4.190
 5575TIP3    H216732   1.592   5.901   4.060
 5576TIP3   OH216733   2.017   6.150   3.908
 5576TIP3    H116734   2.110   6.126   3.926
 5576TIP3    H216735   1.978   6.065   3.880
 5577TIP3   OH216736   3.278   6.115   4.209
 5577TIP3    H116737   3.191   6.159   4.194
 5577TIP3    H216738   3.303   6.153   4.294
 5578TIP3   OH216739   1.940   5.735   4.470
 5578TIP3    H116740   1.883   5.771   4.400
 5578TIP3    H216741   1.883   5.750   4.548
 5579TIP3   OH216742   2.066   6.462   4.202
 5579TIP3    H116743   2.035   6.538   4.255
 5579TIP3    H216744   2.097   6.505   4.120
 5580TIP3   OH216745   2.834   5.856   3.845
 5580TIP3    H116746   2.798   5.822   3.929
 5580TIP3    H216747   2.883   5.935   3.875
 5581TIP3   OH216748   1.817   5.847   4.247
 5581TIP3    H116749   1.876   5.920   4.275
 5581TIP3    H216750   1.868   5.810   4.172
 5582TIP3   OH216751   3.004   5.809   4.201
 5582TIP3    H116752   2.914   5.828   4.171
 5582TIP3    H216753   3.058   5.837   4.125
 5583TIP3   OH216754   2.285   5.443   4.193
 5583TIP3    H116755   2.265   5.349   4.211
 5583TIP3    H216756   2.208   5.486   4.238
 5584TIP3   OH216757   2.238   6.207   3.452
 5584TIP3    H116758   2.149   6.249   3.440
 5584TIP3    H216759   2.283   6.248   3.377
 5585TIP3   OH216760   2.177   6.018   3.143
 5585TIP3    H116761   2.234   6.066   3.206
 5585TIP3    H216762   2.243   5.959   3.099
 5586TIP3   OH216763   3.121   6.470   4.066
 5586TIP3    H116764   3.037   6.521   4.059
 5586TIP3    H216765   3.149   6.468   3.971
 5587TIP3   OH216766   2.586   6.300   3.404
 5587TIP3    H116767   2.526   6.319   3.480
 5587TIP3    H216768   2.667   6.275   3.452
 5588TIP3   OH216769   2.795   6.331   4.322
 5588TIP3    H116770   2.789   6.422   4.355
 5588TIP3    H216771   2.707   6.325   4.277
 5589TIP3   OH216772   1.792   6.297   3.823
 5589TIP3    H116773   1.751   6.242   3.754
 5589TIP3    H216774   1.878   6.251   3.836
 5590TIP3   OH216775   1.925   6.228   4.153
 5590TIP3    H116776   1.955   6.201   4.064
 5590TIP3    H216777   1.973   6.313   4.165
 5591TIP3   OH216778   2.422   6.151   3.240
 5591TIP3    H116779   2.475   6.217   3.289
 5591TIP3    H216780   2.448   6.173   3.147
 5592TIP3   OH216781   1.839   6.368   4.630
 5592TIP3    H116782   1.854   6.394   4.722
 5592TIP3    H216783   1.747   6.333   4.636
 5593TIP3   OH216784   2.927   5.390   3.293
 5593TIP3    H116785   2.844   5.415   3.340
 5593TIP3    H216786   2.941   5.470   3.238
 5594TIP3   OH216787   1.658   6.128   3.635
 5594TIP3    H116788   1.578   6.163   3.591
 5594TIP3    H216789   1.631   6.039   3.658
 5595TIP3   OH216790   1.499   6.458   4.491
 5595TIP3    H116791   1.409   6.453   4.452
 5595TIP3    H216792   1.508   6.371   4.531
 5596TIP3   OH216793   3.058   6.296   4.506
 5596TIP3    H116794   2.967   6.302   4.474
 5596TIP3    H216795   3.075   6.200   4.498
 5597TIP3   OH216796   2.051   5.528   4.323
 5597TIP3    H116797   1.965   5.497   4.289
 5597TIP3    H216798   2.021   5.605   4.375
 5598TIP3   OH216799   2.590   5.641   4.513
 5598TIP3    H116800   2.661   5.614   4.576
 5598TIP3    H216801   2.508   5.623   4.563
 5599TIP3   OH216802   2.820   6.078   4.430
 5599TIP3    H116803   2.767   6.074   4.513
 5599TIP3    H216804   2.795   6.165   4.392
 5600TIP3   OH216805   2.499   6.198   2.992
 5600TIP3    H116806   2.468   6.168   2.905
 5600TIP3    H216807   2.592   6.220   2.970
 5601TIP3   OH216808   2.199   5.570   3.289
 5601TIP3    H116809   2.160   5.569   3.379
 5601TIP3    H216810   2.155   5.490   3.252
 5602TIP3   OH216811   1.990   6.043   4.341
 5602TIP3    H116812   1.940   6.063   4.423
 5602TIP3    H216813   1.961   6.116   4.282
 5603TIP3   OH216814   1.870   5.929   3.844
 5603TIP3    H116815   1.778   5.907   3.867
 5603TIP3    H216816   1.876   5.886   3.756
 5604TIP3   OH216817   2.362   6.005   3.587
 5604TIP3    H116818   2.316   6.077   3.539
 5604TIP3    H216819   2.419   5.968   3.517
 5605TIP3   OH216820   2.544   6.281   4.649
 5605TIP3    H116821   2.520   6.211   4.714
 5605TIP3    H216822   2.637   6.298   4.676
 5606TIP3   OH216823   2.518   6.036   3.811
 5606TIP3    H116824   2.448   6.060   3.747
 5606TIP3    H216825   2.555   5.960   3.762
 5607TIP3   OH216826   1.813   6.067   4.551
 5607TIP3    H116827   1.766   6.125   4.614
 5607TIP3    H216828   1.800   5.980   4.593
 5608TIP3   OH216829   1.860   5.557   3.252
 5608TIP3    H116830   1.844   5.556   3.348
 5608TIP3    H216831   1.782   5.608   3.222
 5609TIP3   OH216832   1.400   5.586   4.126
 5609TIP3    H116833   1.471   5.622   4.183
 5609TIP3    H216834   1.446   5.563   4.045
 5610TIP3   OH216835   1.343   5.567   3.640
 5610TIP3    H116836   1.388   5.604   3.561
 5610TIP3    H216837   1.285   5.642   3.662
 5611TIP3   OH216838   2.528   6.279   4.228
 5611TIP3    H116839   2.560   6.211   4.165
 5611TIP3    H216840   2.497   6.222   4.301
 5612TIP3   OH216841   2.216   5.742   3.906
 5612TIP3    H116842   2.133   5.747   3.960
 5612TIP3    H216843   2.284   5.736   3.975
 5613TIP3   OH216844   1.633   5.815   3.910
 5613TIP3    H116845   1.539   5.822   3.880
 5613TIP3    H216846   1.654   5.722   3.892
 5614TIP3   OH216847   1.887   5.801   3.607
 5614TIP3    H116848   1.980   5.818   3.585
 5614TIP3    H216849   1.839   5.822   3.524
 5615TIP3   OH216850   2.691   5.827   4.110
 5615TIP3    H116851   2.666   5.843   4.204
 5615TIP3    H216852   2.617   5.769   4.083
 5616TIP3   OH216853   1.752   5.841   3.378
 5616TIP3    H116854   1.685   5.795   3.326
 5616TIP3    H216855   1.806   5.882   3.307
 5617TIP3   OH216856   2.275   6.087   4.007
 5617TIP3    H116857   2.348   6.039   3.966
 5617TIP3    H216858   2.267   6.043   4.094
 5618TIP3   OH216859   1.787   5.564   3.903
 5618TIP3    H116860   1.749   5.492   3.957
 5618TIP3    H216861   1.819   5.513   3.827
 5619TIP3   OH216862   2.254   5.995   4.280
 5619TIP3    H116863   2.161   6.019   4.304
 5619TIP3    H216864   2.307   6.053   4.338
 5620TIP3   OH216865   2.021   6.351   3.389
 5620TIP3    H116866   1.936   6.303   3.389
 5620TIP3    H216867   1.997   6.444   3.402
 5621TIP3   OH216868   2.878   6.595   4.038
 5621TIP3    H116869   2.914   6.654   3.969
 5621TIP3    H216870   2.802   6.554   3.992
 5622TIP3   OH216871   2.447   5.671   3.270
 5622TIP3    H116872   2.352   5.647   3.276
 5622TIP3    H216873   2.448   5.766   3.293
 5623TIP3   OH216874   2.512   5.928   3.367
 5623TIP3    H116875   2.607   5.942   3.375
 5623TIP3    H216876   2.483   6.007   3.317
 5624TIP3   OH216877   1.649   6.310   4.063
 5624TIP3    H116878   1.708   6.308   3.985
 5624TIP3    H216879   1.712   6.287   4.134
 5625TIP3   OH216880   1.601   6.248   4.681
 5625TIP3    H116881   1.573   6.307   4.754
 5625TIP3    H216882   1.515   6.207   4.659
 5626TIP3   OH216883   2.298   6.402   4.710
 5626TIP3    H116884   2.229   6.346   4.671
 5626TIP3    H216885   2.379   6.366   4.667
 5627TIP3   OH216886   2.953   6.020   3.195
 5627TIP3    H116887   2.892   5.980   3.129
 5627TIP3    H216888   2.950   6.112   3.159
 5628TIP3   OH216889   2.669   6.474   3.902
 5628TIP3    H116890   2.577   6.455   3.929
 5628TIP3    H216891   2.695   6.388   3.864
 5629TIP3   OH216892   1.361   5.987   3.413
 5629TIP3    H116893   1.399   6.076   3.429
 5629TIP3    H216894   1.283   5.991   3.473
 5630TIP3   OH216895   1.769   5.813   4.673
 5630TIP3    H116896   1.671   5.816   4.681
 5630TIP3    H216897   1.791   5.758   4.749
 5631TIP3   OH216898   2.603   6.489   3.202
 5631TIP3    H116899   2.586   6.424   3.274
 5631TIP3    H216900   2.699   6.472   3.189
 5632TIP3   OH216901   1.446   6.236   3.484
 5632TIP3    H116902   1.371   6.296   3.501
 5632TIP3    H216903   1.504   6.293   3.428
 5633TIP3   OH216904   2.626   5.876   4.371
 5633TIP3    H116905   2.702   5.919   4.415
 5633TIP3    H216906   2.612   5.796   4.426
 5634TIP3   OH216907   2.503   5.620   3.550
 5634TIP3    H116908   2.485   5.640   3.456
 5634TIP3    H216909   2.544   5.704   3.581
 5635TIP3   OH216910   2.172   5.815   3.643
 5635TIP3    H116911   2.237   5.886   3.625
 5635TIP3    H216912   2.183   5.804   3.740
 5636TIP3   OH216913   2.457   6.123   4.436
 5636TIP3    H116914   2.491   6.172   4.514
 5636TIP3    H216915   2.503   6.037   4.444
 5637TIP3   OH216916   2.316   5.524   3.736
 5637TIP3    H116917   2.298   5.606   3.785
 5637TIP3    H216918   2.385   5.555   3.673
 5638TIP3   OH216919   1.837   5.540   3.527
 5638TIP3    H116920   1.832   5.629   3.569
 5638TIP3    H216921   1.934   5.526   3.534
 5639TIP3   OH216922   3.082   6.024   4.430
 5639TIP3    H116923   2.984   6.032   4.437
 5639TIP3    H216924   3.088   5.967   4.353
 5640TIP3   OH216925   2.743   6.213   3.813
 5640TIP3    H116926   2.662   6.160   3.822
 5640TIP3    H216927   2.806   6.163   3.869
 5641TIP3   OH216928   1.395   5.717   3.418
 5641TIP3    H116929   1.403   5.814   3.427
 5641TIP3    H216930   1.316   5.709   3.364
 5642TIP3   OH216931   1.789   5.447   4.280
 5642TIP3    H116932   1.758   5.410   4.194
 5642TIP3    H216933   1.772   5.371   4.340
 5643TIP3   OH216934   1.566   6.195   3.139
 5643TIP3    H116935   1.598   6.258   3.206
 5643TIP3    H216936   1.641   6.194   3.075
 5644TIP3   OH216937   2.219   6.663   4.784
 5644TIP3    H116938   2.181   6.693   4.700
 5644TIP3    H216939   2.240   6.570   4.763
 5645TIP3   OH216940   2.707   6.628   4.323
 5645TIP3    H116941   2.765   6.648   4.248
 5645TIP3    H216942   2.676   6.717   4.348
 5646TIP3   OH216943   1.799   6.320   4.926
 5646TIP3    H116944   1.776   6.228   4.908
 5646TIP3    H216945   1.710   6.361   4.926
 5647TIP3   OH216946   1.819   6.161   3.390
 5647TIP3    H116947   1.784   6.106   3.462
 5647TIP3    H216948   1.849   6.094   3.325
 5648TIP3   OH216949   2.084   6.247   4.595
 5648TIP3    H116950   1.994   6.285   4.588
 5648TIP3    H216951   2.128   6.287   4.516
 5649TIP3   OH216952   1.911   5.970   3.199
 5649TIP3    H116953   1.885   5.962   3.105
 5649TIP3    H216954   2.008   5.978   3.190
 5650TIP3   OH216955   2.618   6.649   4.700
 5650TIP3    H116956   2.708   6.615   4.700
 5650TIP3    H216957   2.573   6.584   4.757
 5651TIP3   OH216958   2.728   6.267   2.868
 5651TIP3    H116959   2.716   6.240   2.775
 5651TIP3    H216960   2.681   6.353   2.869
 5652TIP3   OH216961   2.207   6.030   4.695
 5652TIP3    H116962   2.198   5.954   4.634
 5652TIP3    H216963   2.156   6.100   4.648
 5653TIP3   OH216964   2.199   5.816   4.513
 5653TIP3    H116965   2.224   5.853   4.427
 5653TIP3    H216966   2.105   5.792   4.498
 5654TIP3   OH216967   2.225   6.347   4.395
 5654TIP3    H116968   2.315   6.340   4.359
 5654TIP3    H216969   2.174   6.383   4.320
 5655TIP3   OH216970   2.796   6.313   4.767
 5655TIP3    H116971   2.846   6.235   4.796
 5655TIP3    H216972   2.864   6.366   4.724
 5656TIP3   OH216973   2.863   6.555   4.532
 5656TIP3    H116974   2.793   6.587   4.472
 5656TIP3    H216975   2.943   6.584   4.483
 5657TIP3   OH216976   2.092   6.116   4.955
 5657TIP3    H116977   2.015   6.058   4.972
 5657TIP3    H216978   2.098   6.113   4.858
 5658TIP3   OH216979   2.326   5.577   4.601
 5658TIP3    H116980   2.278   5.657   4.571
 5658TIP3    H216981   2.259   5.507   4.586
 5659TIP3   OH216982   2.456   6.069   4.795
 5659TIP3    H116983   2.421   6.051   4.884
 5659TIP3    H216984   2.373   6.054   4.745
 5660TIP3   OH216985   2.689   6.020   4.655
 5660TIP3    H116986   2.615   6.023   4.720
 5660TIP3    H216987   2.766   5.994   4.711
 5661TIP3   OH216988   2.920   5.968   4.798
 5661TIP3    H116989   2.937   5.873   4.815
 5661TIP3    H216990   2.920   6.006   4.889
 5662TIP3   OH216991   1.909   5.909   5.008
 5662TIP3    H116992   1.910   5.816   4.976
 5662TIP3    H216993   1.941   5.896   5.100
 5663TIP3   OH216994   2.412   5.578   4.862
 5663TIP3    H116995   2.480   5.509   4.850
 5663TIP3    H216996   2.375   5.581   4.771
 5664TIP3   OH216997   2.495   5.790   5.011
 5664TIP3    H116998   2.469   5.718   4.950
 5664TIP3    H216999   2.421   5.853   4.999
 5665TIP3   OH217000   2.876   6.478   3.186
 5665TIP3    H117001   2.932   6.555   3.169
 5665TIP3    H217002   2.918   6.441   3.267
 5666TIP3   OH217003   2.986   6.341   3.395
 5666TIP3    H117004   2.921   6.304   3.459
 5666TIP3    H217005   3.060   6.369   3.452
 5667TIP3   OH217006   2.932   6.247   3.050
 5667TIP3    H117007   2.859   6.244   2.985
 5667TIP3    H217008   2.909   6.331   3.097
 5668TIP3   OH217009   2.798   5.925   2.993
 5668TIP3    H117010   2.750   5.955   2.915
 5668TIP3    H217011   2.779   5.829   2.990
 5669TIP3   OH217012   2.803   6.205   3.546
 5669TIP3    H117013   2.804   6.109   3.531
 5669TIP3    H217014   2.784   6.212   3.642
 5670TIP3   OH217015   1.426   6.199   4.325
 5670TIP3    H117016   1.401   6.253   4.249
 5670TIP3    H217017   1.524   6.213   4.328
 5671TIP3   OH217018   3.084   6.639   4.390
 5671TIP3    H117019   3.143   6.573   4.347
 5671TIP3    H217020   3.038   6.682   4.315
 5672TIP3   OH217021   3.274   6.425   4.401
 5672TIP3    H117022   3.195   6.383   4.443
 5672TIP3    H217023   3.343   6.360   4.426
 5673TIP3   OH217024   2.736   5.661   2.977
 5673TIP3    H117025   2.799   5.620   3.039
 5673TIP3    H217026   2.655   5.608   2.989
 5674TIP3   OH217027   2.804   5.930   3.432
 5674TIP3    H117028   2.844   5.840   3.443
 5674TIP3    H217029   2.856   5.962   3.356
 5675TIP3   OH217030   2.959   6.077   3.942
 5675TIP3    H117031   3.035   6.115   3.892
 5675TIP3    H217032   2.970   6.125   4.027
 5676TIP3   OH217033   3.024   6.234   4.161
 5676TIP3    H117034   2.948   6.264   4.215
 5676TIP3    H217035   3.060   6.320   4.130
 5677TIP3   OH217036   1.643   5.928   4.942
 5677TIP3    H117037   1.738   5.932   4.964
 5677TIP3    H217038   1.618   5.841   4.980
 5678TIP3   OH217039   3.472   5.838   4.714
 5678TIP3    H117040   3.540   5.777   4.677
 5678TIP3    H217041   3.443   5.887   4.635
 5679TIP3   OH217042   2.907   5.676   3.474
 5679TIP3    H117043   2.950   5.655   3.560
 5679TIP3    H217044   2.842   5.603   3.469
 5680TIP3   OH217045   1.606   5.658   4.296
 5680TIP3    H117046   1.667   5.582   4.302
 5680TIP3    H217047   1.669   5.731   4.283
 5681TIP3   OH217048   1.399   5.930   4.359
 5681TIP3    H117049   1.458   5.914   4.283
 5681TIP3    H217050   1.399   6.028   4.358
 5682TIP3   OH217051   3.342   5.965   4.512
 5682TIP3    H117052   3.258   6.011   4.532
 5682TIP3    H217053   3.308   5.889   4.460
 5683TIP3   OH217054   2.978   5.595   3.119
 5683TIP3    H117055   3.013   5.532   3.052
 5683TIP3    H217056   3.041   5.670   3.111
 5684TIP3   OH217057   1.394   5.426   3.866
 5684TIP3    H117058   1.306   5.421   3.905
 5684TIP3    H217059   1.380   5.487   3.791
 5685TIP3   OH217060   1.619   5.525   4.693
 5685TIP3    H117061   1.559   5.515   4.768
 5685TIP3    H217062   1.555   5.549   4.623
 5686TIP3   OH217063   3.250   5.723   4.403
 5686TIP3    H117064   3.161   5.702   4.371
 5686TIP3    H217065   3.292   5.634   4.399
 5687TIP3   OH217066   2.462   5.647   4.042
 5687TIP3    H117067   2.416   5.572   4.085
 5687TIP3    H217068   2.531   5.602   3.989
 5688TIP3   OH217069   2.965   5.538   3.929
 5688TIP3    H117070   2.998   5.586   3.850
 5688TIP3    H217071   2.869   5.553   3.922
 5689TIP3   OH217072   3.069   5.623   3.692
 5689TIP3    H117073   3.142   5.567   3.658
 5689TIP3    H217074   3.111   5.712   3.685
 5690TIP3   OH217075   1.697   5.346   4.040
 5690TIP3    H117076   1.605   5.313   4.048
 5690TIP3    H217077   1.745   5.260   4.035
 5691TIP3   OH217078   1.488   5.229   3.691
 5691TIP3    H117079   1.519   5.286   3.618
 5691TIP3    H217080   1.463   5.295   3.759
 5692TIP3   OH217081   2.155   5.381   3.921
 5692TIP3    H117082   2.207   5.427   3.854
 5692TIP3    H217083   2.183   5.425   4.003
 5693TIP3   OH217084   2.683   5.534   3.902
 5693TIP3    H117085   2.689   5.487   3.818
 5693TIP3    H217086   2.680   5.458   3.966
 5694TIP3   OH217087   2.724   5.468   3.471
 5694TIP3    H117088   2.641   5.512   3.498
 5694TIP3    H217089   2.709   5.379   3.510
 5695TIP3   OH217090   1.615   5.381   3.450
 5695TIP3    H117091   1.662   5.318   3.392
 5695TIP3    H217092   1.690   5.435   3.484
 5696TIP3   OH217093   2.112   5.567   3.549
 5696TIP3    H117094   2.171   5.519   3.610
 5696TIP3    H217095   2.132   5.659   3.575
 5697TIP3   OH217096   1.905   5.637   4.938
 5697TIP3    H117097   1.872   5.558   4.985
 5697TIP3    H217098   2.000   5.635   4.965
 5698TIP3   OH217099   2.161   5.625   5.050
 5698TIP3    H117100   2.245   5.609   5.003
 5698TIP3    H217101   2.155   5.548   5.109
 5699TIP3   OH217102   2.990   5.702   4.838
 5699TIP3    H117103   3.008   5.671   4.929
 5699TIP3    H217104   3.080   5.697   4.798
 5700TIP3   OH217105   4.201   6.609   3.092
 5700TIP3    H117106   4.175   6.700   3.107
 5700TIP3    H217107   4.121   6.570   3.053
 5701TIP3   OH217108   4.208   6.627   3.484
 5701TIP3    H117109   4.242   6.606   3.573
 5701TIP3    H217110   4.162   6.545   3.461
 5702TIP3   OH217111   3.487   6.490   3.838
 5702TIP3    H117112   3.538   6.450   3.910
 5702TIP3    H217113   3.515   6.584   3.842
 5703TIP3   OH217114   3.178   6.116   3.333
 5703TIP3    H117115   3.139   6.201   3.359
 5703TIP3    H217116   3.101   6.075   3.289
 5704TIP3   OH217117   3.224   6.416   3.504
 5704TIP3    H117118   3.258   6.341   3.556
 5704TIP3    H217119   3.301   6.478   3.512
 5705TIP3   OH217120   4.001   6.820   3.475
 5705TIP3    H117121   4.081   6.762   3.481
 5705TIP3    H217122   4.030   6.897   3.525
 5706TIP3   OH217123   5.005   6.151   3.516
 5706TIP3    H117124   5.031   6.233   3.562
 5706TIP3    H217125   5.036   6.168   3.425
 5707TIP3   OH217126   4.393   6.345   3.549
 5707TIP3    H117127   4.442   6.263   3.572
 5707TIP3    H217128   4.364   6.323   3.459
 5708TIP3   OH217129   4.442   6.103   3.135
 5708TIP3    H117130   4.513   6.092   3.204
 5708TIP3    H217131   4.496   6.135   3.061
 5709TIP3   OH217132   3.359   6.207   3.637
 5709TIP3    H117133   3.443   6.241   3.671
 5709TIP3    H217134   3.387   6.158   3.556
 5710TIP3   OH217135   3.817   6.402   3.391
 5710TIP3    H117136   3.912   6.384   3.409
 5710TIP3    H217137   3.782   6.312   3.374
 5711TIP3   OH217138   5.062   6.366   3.675
 5711TIP3    H117139   4.973   6.404   3.657
 5711TIP3    H217140   5.097   6.437   3.733
 5712TIP3   OH217141   3.845   6.713   3.666
 5712TIP3    H117142   3.755   6.750   3.686
 5712TIP3    H217143   3.874   6.760   3.589
 5713TIP3   OH217144   4.630   6.115   3.329
 5713TIP3    H117145   4.616   6.078   3.417
 5713TIP3    H217146   4.683   6.195   3.351
 5714TIP3   OH217147   3.671   6.080   3.658
 5714TIP3    H117148   3.716   6.126   3.732
 5714TIP3    H217149   3.682   6.148   3.589
 5715TIP3   OH217150   4.798   6.048   3.678
 5715TIP3    H117151   4.715   6.090   3.649
 5715TIP3    H217152   4.863   6.084   3.615
 5716TIP3   OH217153   4.099   5.678   3.662
 5716TIP3    H117154   4.083   5.582   3.679
 5716TIP3    H217155   4.074   5.715   3.747
 5717TIP3   OH217156   4.028   6.466   2.931
 5717TIP3    H117157   3.945   6.514   2.907
 5717TIP3    H217158   4.083   6.495   2.857
 5718TIP3   OH217159   3.982   6.288   2.625
 5718TIP3    H117160   4.041   6.338   2.685
 5718TIP3    H217161   4.049   6.228   2.585
 5719TIP3   OH217162   4.899   6.724   3.532
 5719TIP3    H117163   4.831   6.792   3.524
 5719TIP3    H217164   4.949   6.735   3.449
 5720TIP3   OH217165   4.379   6.547   2.894
 5720TIP3    H117166   4.321   6.569   2.971
 5720TIP3    H217167   4.463   6.525   2.940
 5721TIP3   OH217168   4.574   6.587   3.793
 5721TIP3    H117169   4.567   6.684   3.808
 5721TIP3    H217170   4.483   6.573   3.758
 5722TIP3   OH217171   3.592   6.551   3.309
 5722TIP3    H117172   3.550   6.496   3.239
 5722TIP3    H217173   3.677   6.505   3.322
 5723TIP3   OH217174   3.731   6.468   3.638
 5723TIP3    H117175   3.761   6.451   3.548
 5723TIP3    H217176   3.777   6.553   3.658
 5724TIP3   OH217177   4.213   6.414   2.722
 5724TIP3    H117178   4.272   6.473   2.775
 5724TIP3    H217179   4.240   6.440   2.631
 5725TIP3   OH217180   3.627   6.581   4.096
 5725TIP3    H117181   3.642   6.673   4.126
 5725TIP3    H217182   3.535   6.568   4.127
 5726TIP3   OH217183   4.724   5.649   2.778
 5726TIP3    H117184   4.642   5.675   2.825
 5726TIP3    H217185   4.739   5.729   2.723
 5727TIP3   OH217186   3.455   6.382   3.117
 5727TIP3    H117187   3.374   6.421   3.076
 5727TIP3    H217188   3.421   6.297   3.148
 5728TIP3   OH217189   3.305   6.720   3.969
 5728TIP3    H117190   3.216   6.703   3.932
 5728TIP3    H217191   3.319   6.646   4.030
 5729TIP3   OH217192   4.817   6.621   3.957
 5729TIP3    H117193   4.741   6.583   3.910
 5729TIP3    H217194   4.864   6.542   3.988
 5730TIP3   OH217195   4.390   5.897   4.001
 5730TIP3    H117196   4.465   5.872   4.059
 5730TIP3    H217197   4.313   5.884   4.059
 5731TIP3   OH217198   4.606   6.334   3.909
 5731TIP3    H117199   4.565   6.332   3.998
 5731TIP3    H217200   4.580   6.423   3.876
 5732TIP3   OH217201   4.298   6.481   2.478
 5732TIP3    H117202   4.255   6.440   2.400
 5732TIP3    H217203   4.389   6.490   2.444
 5733TIP3   OH217204   3.987   5.836   2.771
 5733TIP3    H117205   3.953   5.830   2.862
 5733TIP3    H217206   3.950   5.751   2.736
 5734TIP3   OH217207   3.782   6.279   3.826
 5734TIP3    H117208   3.725   6.299   3.904
 5734TIP3    H217209   3.760   6.358   3.770
 5735TIP3   OH217210   3.687   6.162   3.357
 5735TIP3    H117211   3.595   6.138   3.380
 5735TIP3    H217212   3.689   6.129   3.264
 5736TIP3   OH217213   4.156   6.265   3.068
 5736TIP3    H117214   4.113   6.339   3.020
 5736TIP3    H217215   4.217   6.230   3.000
 5737TIP3   OH217216   4.346   6.537   4.134
 5737TIP3    H117217   4.330   6.467   4.201
 5737TIP3    H217218   4.444   6.543   4.136
 5738TIP3   OH217219   4.306   6.288   3.298
 5738TIP3    H117220   4.241   6.310   3.227
 5738TIP3    H217221   4.350   6.214   3.252
 5739TIP3   OH217222   3.609   6.312   4.028
 5739TIP3    H117223   3.617   6.382   4.095
 5739TIP3    H217224   3.592   6.232   4.084
 5740TIP3   OH217225   3.658   5.814   2.739
 5740TIP3    H117226   3.642   5.811   2.835
 5740TIP3    H217227   3.576   5.858   2.708
 5741TIP3   OH217228   3.220   5.834   3.614
 5741TIP3    H117229   3.306   5.874   3.607
 5741TIP3    H217230   3.203   5.803   3.522
 5742TIP3   OH217231   3.144   5.823   3.126
 5742TIP3    H117232   3.190   5.860   3.048
 5742TIP3    H217233   3.082   5.896   3.145
 5743TIP3   OH217234   4.306   6.532   3.719
 5743TIP3    H117235   4.340   6.463   3.658
 5743TIP3    H217236   4.276   6.475   3.794
 5744TIP3   OH217237   4.022   6.005   3.372
 5744TIP3    H117238   3.952   6.047   3.423
 5744TIP3    H217239   4.094   5.996   3.438
 5745TIP3   OH217240   3.433   6.064   3.414
 5745TIP3    H117241   3.343   6.074   3.375
 5745TIP3    H217242   3.462   5.978   3.380
 5746TIP3   OH217243   3.682   6.059   3.098
 5746TIP3    H117244   3.778   6.074   3.083
 5746TIP3    H217245   3.643   6.090   3.013
 5747TIP3   OH217246   4.486   6.089   3.601
 5747TIP3    H117247   4.460   6.103   3.695
 5747TIP3    H217248   4.415   6.030   3.571
 5748TIP3   OH217249   3.543   6.117   2.867
 5748TIP3    H117250   3.466   6.058   2.872
 5748TIP3    H217251   3.545   6.134   2.771
 5749TIP3   OH217252   3.620   6.821   4.238
 5749TIP3    H117253   3.701   6.840   4.291
 5749TIP3    H217254   3.574   6.761   4.299
 5750TIP3   OH217255   4.075   6.335   3.479
 5750TIP3    H117256   4.156   6.307   3.433
 5750TIP3    H217257   4.086   6.298   3.568
 5751TIP3   OH217258   3.588   5.832   3.408
 5751TIP3    H117259   3.552   5.742   3.426
 5751TIP3    H217260   3.648   5.814   3.334
 5752TIP3   OH217261   4.052   6.246   3.780
 5752TIP3    H117262   3.964   6.282   3.802
 5752TIP3    H217263   4.112   6.300   3.835
 5753TIP3   OH217264   3.815   6.613   2.848
 5753TIP3    H117265   3.734   6.566   2.873
 5753TIP3    H217266   3.803   6.703   2.882
 5754TIP3   OH217267   4.659   6.886   3.530
 5754TIP3    H117268   4.702   6.928   3.453
 5754TIP3    H217269   4.593   6.828   3.486
 5755TIP3   OH217270   4.243   5.926   2.761
 5755TIP3    H117271   4.146   5.906   2.763
 5755TIP3    H217272   4.246   6.022   2.778
 5756TIP3   OH217273   4.308   6.187   2.851
 5756TIP3    H117274   4.405   6.194   2.861
 5756TIP3    H217275   4.286   6.266   2.798
 5757TIP3   OH217276   3.445   6.561   3.547
 5757TIP3    H117277   3.508   6.562   3.472
 5757TIP3    H217278   3.505   6.548   3.624
 5758TIP3   OH217279   3.370   6.539   4.174
 5758TIP3    H117280   3.373   6.515   4.268
 5758TIP3    H217281   3.290   6.489   4.148
 5759TIP3   OH217282   4.091   6.633   4.154
 5759TIP3    H117283   4.025   6.572   4.117
 5759TIP3    H217284   4.175   6.593   4.126
 5760TIP3   OH217285   4.738   6.277   2.683
 5760TIP3    H117286   4.678   6.236   2.615
 5760TIP3    H217287   4.740   6.367   2.643
 5761TIP3   OH217288   4.474   6.734   3.392
 5761TIP3    H117289   4.382   6.717   3.418
 5761TIP3    H217290   4.498   6.648   3.352
 5762TIP3   OH217291   3.160   6.243   2.904
 5762TIP3    H117292   3.193   6.335   2.921
 5762TIP3    H217293   3.079   6.246   2.959
 5763TIP3   OH217294   3.562   6.087   4.172
 5763TIP3    H117295   3.467   6.078   4.186
 5763TIP3    H217296   3.600   6.024   4.235
 5764TIP3   OH217297   4.401   6.744   2.707
 5764TIP3    H117298   4.390   6.673   2.775
 5764TIP3    H217299   4.496   6.732   2.686
 5765TIP3   OH217300   3.242   6.494   2.969
 5765TIP3    H117301   3.165   6.553   2.986
 5765TIP3    H217302   3.302   6.555   2.922
 5766TIP3   OH217303   4.414   6.136   3.861
 5766TIP3    H117304   4.495   6.182   3.891
 5766TIP3    H217305   4.412   6.056   3.918
 5767TIP3   OH217306   4.296   5.880   3.038
 5767TIP3    H117307   4.284   5.899   2.943
 5767TIP3    H217308   4.341   5.961   3.069
 5768TIP3   OH217309   3.961   6.079   3.115
 5768TIP3    H117310   4.027   6.149   3.093
 5768TIP3    H217311   3.986   6.060   3.207
 5769TIP3   OH217312   4.254   6.366   3.926
 5769TIP3    H117313   4.293   6.410   4.004
 5769TIP3    H217314   4.306   6.282   3.923
 5770TIP3   OH217315   4.111   5.777   3.217
 5770TIP3    H117316   4.098   5.858   3.270
 5770TIP3    H217317   4.182   5.807   3.156
 5771TIP3   OH217318   3.634   5.799   3.013
 5771TIP3    H117319   3.636   5.888   3.055
 5771TIP3    H217320   3.730   5.778   3.018
 5772TIP3   OH217321   4.883   6.299   3.935
 5772TIP3    H117322   4.786   6.295   3.924
 5772TIP3    H217323   4.914   6.284   3.846
 5773TIP3   OH217324   4.536   6.474   3.294
 5773TIP3    H117325   4.459   6.417   3.309
 5773TIP3    H217326   4.606   6.428   3.345
 5774TIP3   OH217327   3.205   5.976   2.907
 5774TIP3    H117328   3.195   6.074   2.916
 5774TIP3    H217329   3.132   5.954   2.848
 5775TIP3   OH217330   3.384   6.808   4.414
 5775TIP3    H117331   3.425   6.727   4.449
 5775TIP3    H217332   3.308   6.774   4.367
 5776TIP3   OH217333   3.389   6.442   2.619
 5776TIP3    H117334   3.381   6.470   2.711
 5776TIP3    H217335   3.443   6.516   2.584
 5777TIP3   OH217336   4.036   6.892   4.214
 5777TIP3    H117337   3.981   6.930   4.145
 5777TIP3    H217338   4.048   6.798   4.185
 5778TIP3   OH217339   4.524   6.850   3.806
 5778TIP3    H117340   4.539   6.886   3.717
 5778TIP3    H217341   4.558   6.920   3.865
 5779TIP3   OH217342   3.582   6.588   4.415
 5779TIP3    H117343   3.656   6.527   4.398
 5779TIP3    H217344   3.602   6.618   4.505
 5780TIP3   OH217345   3.614   6.416   2.877
 5780TIP3    H117346   3.579   6.369   2.955
 5780TIP3    H217347   3.625   6.343   2.814
 5781TIP3   OH217348   3.879   6.479   4.050
 5781TIP3    H117349   3.790   6.518   4.053
 5781TIP3    H217350   3.917   6.519   3.968
 5782TIP3   OH217351   3.715   6.190   2.640
 5782TIP3    H117352   3.707   6.095   2.623
 5782TIP3    H217353   3.798   6.195   2.690
 5783TIP3   OH217354   4.536   6.528   2.348
 5783TIP3    H117355   4.508   6.484   2.264
 5783TIP3    H217356   4.571   6.609   2.310
 5784TIP3   OH217357   3.994   6.290   4.202
 5784TIP3    H117358   3.992   6.210   4.148
 5784TIP3    H217359   3.950   6.356   4.143
 5785TIP3   OH217360   3.969   6.069   3.990
 5785TIP3    H117361   4.012   6.107   3.911
 5785TIP3    H217362   3.878   6.098   3.978
 5786TIP3   OH217363   4.011   6.590   3.847
 5786TIP3    H117364   4.101   6.617   3.828
 5786TIP3    H217365   3.958   6.645   3.786
 5787TIP3   OH217366   3.797   6.392   4.399
 5787TIP3    H117367   3.768   6.304   4.430
 5787TIP3    H217368   3.867   6.368   4.336
 5788TIP3   OH217369   4.108   5.832   4.072
 5788TIP3    H117370   4.058   5.912   4.048
 5788TIP3    H217371   4.042   5.762   4.053
 5789TIP3   OH217372   4.256   6.332   4.293
 5789TIP3    H117373   4.250   6.319   4.389
 5789TIP3    H217374   4.163   6.314   4.268
 5790TIP3   OH217375   4.486   6.284   4.147
 5790TIP3    H117376   4.407   6.281   4.204
 5790TIP3    H217377   4.556   6.263   4.212
 5791TIP3   OH217378   4.674   6.212   4.333
 5791TIP3    H117379   4.708   6.123   4.316
 5791TIP3    H217380   4.697   6.222   4.428
 5792TIP3   OH217381   3.704   6.148   4.495
 5792TIP3    H117382   3.704   6.055   4.465
 5792TIP3    H217383   3.750   6.140   4.581
 5793TIP3   OH217384   4.211   5.844   4.335
 5793TIP3    H117385   4.277   5.773   4.326
 5793TIP3    H217386   4.167   5.840   4.248
 5794TIP3   OH217387   4.279   6.063   4.495
 5794TIP3    H117388   4.263   5.990   4.432
 5794TIP3    H217389   4.198   6.117   4.485
 5795TIP3   OH217390   4.673   6.740   2.670
 5795TIP3    H117391   4.733   6.804   2.625
 5795TIP3    H217392   4.723   6.719   2.751
 5796TIP3   OH217393   4.792   6.630   2.897
 5796TIP3    H117394   4.728   6.579   2.951
 5796TIP3    H217395   4.870   6.636   2.956
 5797TIP3   OH217396   4.726   6.507   2.543
 5797TIP3    H117397   4.653   6.498   2.478
 5797TIP3    H217398   4.701   6.589   2.589
 5798TIP3   OH217399   4.582   6.188   2.480
 5798TIP3    H117400   4.551   6.207   2.390
 5798TIP3    H217401   4.564   6.092   2.484
 5799TIP3   OH217402   4.606   6.466   3.027
 5799TIP3    H117403   4.610   6.369   3.014
 5799TIP3    H217404   4.585   6.473   3.123
 5800TIP3   OH217405   3.221   6.452   3.813
 5800TIP3    H117406   3.196   6.516   3.744
 5800TIP3    H217407   3.319   6.465   3.815
 5801TIP3   OH217408   4.531   5.923   2.471
 5801TIP3    H117409   4.604   5.884   2.523
 5801TIP3    H217410   4.459   5.859   2.480
 5802TIP3   OH217411   4.596   6.185   2.915
 5802TIP3    H117412   4.638   6.097   2.930
 5802TIP3    H217413   4.650   6.216   2.840
 5803TIP3   OH217414   4.748   6.343   3.418
 5803TIP3    H117415   4.834   6.366   3.377
 5803TIP3    H217416   4.762   6.384   3.506
 5804TIP3   OH217417   4.815   6.490   3.643
 5804TIP3    H117418   4.737   6.526   3.689
 5804TIP3    H217419   4.853   6.573   3.603
 5805TIP3   OH217420   3.441   6.216   4.454
 5805TIP3    H117421   3.539   6.213   4.462
 5805TIP3    H217422   3.419   6.127   4.487
 5806TIP3   OH217423   4.700   5.934   2.964
 5806TIP3    H117424   4.748   5.915   3.047
 5806TIP3    H217425   4.639   5.858   2.960
 5807TIP3   OH217426   3.430   5.877   3.805
 5807TIP3    H117427   3.354   5.835   3.849
 5807TIP3    H217428   3.422   5.968   3.842
 5808TIP3   OH217429   3.192   6.178   3.854
 5808TIP3    H117430   3.242   6.176   3.769
 5808TIP3    H217431   3.197   6.274   3.870
 5809TIP3   OH217432   5.116   6.187   4.059
 5809TIP3    H117433   5.044   6.254   4.053
 5809TIP3    H217434   5.082   6.120   3.996
 5810TIP3   OH217435   4.771   5.852   2.600
 5810TIP3    H117436   4.810   5.788   2.538
 5810TIP3    H217437   4.838   5.924   2.601
 5811TIP3   OH217438   3.181   5.715   3.371
 5811TIP3    H117439   3.090   5.683   3.388
 5811TIP3    H217440   3.170   5.759   3.284
 5812TIP3   OH217441   3.410   5.766   4.168
 5812TIP3    H117442   3.358   5.761   4.250
 5812TIP3    H217443   3.347   5.805   4.106
 5813TIP3   OH217444   5.038   5.972   3.901
 5813TIP3    H117445   4.957   5.960   3.849
 5813TIP3    H217446   5.084   5.886   3.885
 5814TIP3   OH217447   4.251   5.901   3.512
 5814TIP3    H117448   4.215   5.819   3.551
 5814TIP3    H217449   4.328   5.866   3.462
 5815TIP3   OH217450   4.760   5.788   3.414
 5815TIP3    H117451   4.798   5.838   3.338
 5815TIP3    H217452   4.666   5.814   3.409
 5816TIP3   OH217453   4.862   5.880   3.180
 5816TIP3    H117454   4.937   5.827   3.146
 5816TIP3    H217455   4.899   5.971   3.167
 5817TIP3   OH217456   3.502   5.620   3.543
 5817TIP3    H117457   3.411   5.584   3.548
 5817TIP3    H217458   3.551   5.535   3.539
 5818TIP3   OH217459   3.297   5.491   3.184
 5818TIP3    H117460   3.321   5.541   3.104
 5818TIP3    H217461   3.270   5.561   3.246
 5819TIP3   OH217462   3.953   5.647   3.420
 5819TIP3    H117463   4.001   5.687   3.345
 5819TIP3    H217464   4.012   5.669   3.495
 5820TIP3   OH217465   4.471   5.785   3.392
 5820TIP3    H117466   4.492   5.739   3.309
 5820TIP3    H217467   4.469   5.710   3.456
 5821TIP3   OH217468   4.520   5.722   2.958
 5821TIP3    H117469   4.435   5.764   2.983
 5821TIP3    H217470   4.508   5.633   2.997
 5822TIP3   OH217471   3.413   5.637   2.938
 5822TIP3    H117472   3.456   5.572   2.879
 5822TIP3    H217473   3.490   5.688   2.970
 5823TIP3   OH217474   3.908   5.824   3.033
 5823TIP3    H117475   3.971   5.777   3.090
 5823TIP3    H217476   3.930   5.917   3.055
 5824TIP3   OH217477   3.706   5.877   4.416
 5824TIP3    H117478   3.672   5.808   4.477
 5824TIP3    H217479   3.800   5.881   4.446
 5825TIP3   OH217480   3.955   5.885   4.537
 5825TIP3    H117481   4.045   5.865   4.505
 5825TIP3    H217482   3.944   5.818   4.607
 5826TIP3   OH217483   4.778   5.950   4.320
 5826TIP3    H117484   4.789   5.907   4.406
 5826TIP3    H217485   4.869   5.944   4.282
 5827TIP3   OH217486   4.954   6.378   2.821
 5827TIP3    H117487   4.913   6.464   2.839
 5827TIP3    H217488   4.881   6.331   2.778
 5828TIP3   OH217489   5.047   6.683   3.006
 5828TIP3    H117490   5.083   6.598   3.042
 5828TIP3    H217491   5.125   6.707   2.950
 5829TIP3   OH217492   5.521   6.276   3.017
 5829TIP3    H117493   5.506   6.331   2.938
 5829TIP3    H217494   5.486   6.191   2.984
 5830TIP3   OH217495   5.158   6.462   3.117
 5830TIP3    H117496   5.240   6.446   3.166
 5830TIP3    H217497   5.173   6.404   3.039
 5831TIP3   OH217498   5.527   6.249   3.448
 5831TIP3    H117499   5.461   6.289   3.390
 5831TIP3    H217500   5.485   6.263   3.535
 5832TIP3   OH217501   5.393   6.377   3.233
 5832TIP3    H117502   5.455   6.446   3.258
 5832TIP3    H217503   5.440   6.336   3.157
 5833TIP3   OH217504   5.829   5.948   3.143
 5833TIP3    H117505   5.837   5.860   3.184
 5833TIP3    H217506   5.764   5.991   3.204
 5834TIP3   OH217507   5.637   6.047   3.308
 5834TIP3    H117508   5.547   6.022   3.278
 5834TIP3    H217509   5.616   6.126   3.362
 5835TIP3   OH217510   5.434   6.429   2.808
 5835TIP3    H117511   5.353   6.383   2.839
 5835TIP3    H217512   5.396   6.479   2.732
 5836TIP3   OH217513   5.369   6.021   2.228
 5836TIP3    H117514   5.382   6.034   2.324
 5836TIP3    H217515   5.417   6.096   2.192
 5837TIP3   OH217516   4.990   6.103   3.101
 5837TIP3    H117517   5.064   6.138   3.155
 5837TIP3    H217518   5.033   6.074   3.020
 5838TIP3   OH217519   4.937   6.080   2.617
 5838TIP3    H117520   4.979   6.113   2.535
 5838TIP3    H217521   4.876   6.154   2.634
 5839TIP3   OH217522   5.206   6.307   2.897
 5839TIP3    H117523   5.115   6.319   2.863
 5839TIP3    H217524   5.227   6.214   2.875
 5840TIP3   OH217525   5.260   6.406   2.311
 5840TIP3    H117526   5.221   6.341   2.248
 5840TIP3    H217527   5.324   6.452   2.255
 5841TIP3   OH217528   5.385   6.072   2.879
 5841TIP3    H117529   5.349   6.000   2.936
 5841TIP3    H217530   5.414   6.020   2.803
 5842TIP3   OH217531   4.936   6.502   2.368
 5842TIP3    H117532   4.986   6.581   2.393
 5842TIP3    H217533   4.865   6.501   2.436
 5843TIP3   OH217534   5.351   6.322   3.648
 5843TIP3    H117535   5.257   6.326   3.625
 5843TIP3    H217536   5.346   6.323   3.746
 5844TIP3   OH217537   5.428   6.049   2.493
 5844TIP3    H117538   5.450   6.145   2.493
 5844TIP3    H217539   5.510   6.010   2.525
 5845TIP3   OH217540   4.977   6.227   2.393
 5845TIP3    H117541   4.996   6.322   2.389
 5845TIP3    H217542   4.906   6.218   2.329
 5846TIP3   OH217543   5.376   5.964   3.257
 5846TIP3    H117544   5.350   5.925   3.171
 5846TIP3    H217545   5.369   5.886   3.316
 5847TIP3   OH217546   5.045   6.722   3.295
 5847TIP3    H117547   5.015   6.715   3.203
 5847TIP3    H217548   5.124   6.776   3.286
 5848TIP3   OH217549   5.196   6.174   3.273
 5848TIP3    H117550   5.258   6.098   3.277
 5848TIP3    H217551   5.258   6.248   3.266
 5849TIP3   OH217552   4.985   6.447   3.337
 5849TIP3    H117553   5.040   6.435   3.257
 5849TIP3    H217554   5.003   6.541   3.354
 5850TIP3   OH217555   4.989   5.947   2.847
 5850TIP3    H117556   4.898   5.935   2.879
 5850TIP3    H217557   4.975   6.003   2.768
 5851TIP3   OH217558   5.195   6.012   3.657
 5851TIP3    H117559   5.151   6.033   3.740
 5851TIP3    H217560   5.133   6.050   3.592
 5852TIP3   OH217561   5.288   5.860   3.015
 5852TIP3    H117562   5.196   5.827   3.020
 5852TIP3    H217563   5.337   5.775   3.007
 5853TIP3   OH217564   5.088   5.742   2.668
 5853TIP3    H117565   5.119   5.792   2.589
 5853TIP3    H217566   5.067   5.813   2.731
 5854TIP3   OH217567   5.714   5.909   2.894
 5854TIP3    H117568   5.788   5.890   2.835
 5854TIP3    H217569   5.759   5.932   2.979
 5855TIP3   OH217570   5.197   5.879   2.441
 5855TIP3    H117571   5.245   5.826   2.374
 5855TIP3    H217572   5.267   5.941   2.470
 5856TIP3   OH217573   3.836   1.600   6.306
 5856TIP3    H117574   3.794   1.571   6.223
 5856TIP3    H217575   3.785   1.680   6.325
 5857TIP3   OH217576   3.945   1.968   6.324
 5857TIP3    H117577   4.008   1.893   6.313
 5857TIP3    H217578   4.005   2.044   6.306
 5858TIP3   OH217579   4.092   1.742   6.297
 5858TIP3    H117580   4.025   1.673   6.284
 5858TIP3    H217581   4.143   1.709   6.372
 5859TIP3   OH217582   3.766   1.226   6.293
 5859TIP3    H117583   3.678   1.266   6.276
 5859TIP3    H217584   3.801   1.214   6.203
 5860TIP3   OH217585   3.717   1.017   6.009
 5860TIP3    H117586   3.787   1.063   6.058
 5860TIP3    H217587   3.771   0.956   5.956
 5861TIP3   OH217588   4.084   1.298   6.283
 5861TIP3    H117589   4.015   1.273   6.347
 5861TIP3    H217590   4.157   1.242   6.312
 5862TIP3   OH217591   3.942   1.158   6.092
 5862TIP3    H117592   3.997   1.224   6.138
 5862TIP3    H217593   3.973   1.171   5.999
 5863TIP3   OH217594   3.698   1.867   6.338
 5863TIP3    H117595   3.787   1.905   6.327
 5863TIP3    H217596   3.646   1.926   6.278
 5864TIP3   OH217597   4.264   1.763   5.708
 5864TIP3    H117598   4.270   1.859   5.689
 5864TIP3    H217599   4.357   1.735   5.693
 5865TIP3   OH217600   3.579   2.066   6.181
 5865TIP3    H117601   3.530   2.050   6.098
 5865TIP3    H217602   3.548   2.156   6.204
 5866TIP3   OH217603   3.771   1.987   5.814
 5866TIP3    H117604   3.828   1.915   5.780
 5866TIP3    H217605   3.809   2.002   5.903
 5867TIP3   OH217606   3.830   2.044   6.077
 5867TIP3    H117607   3.740   2.051   6.116
 5867TIP3    H217608   3.882   2.016   6.154
 5868TIP3   OH217609   4.030   1.184   5.842
 5868TIP3    H117610   3.984   1.176   5.756
 5868TIP3    H217611   4.113   1.228   5.815
 5869TIP3   OH217612   4.775   2.598   0.008
 5869TIP3    H117613   4.692   2.559  -0.021
 5869TIP3    H217614   4.751   2.635   0.095
 5870TIP3   OH217615   3.983   0.705   6.025
 5870TIP3    H117616   3.934   0.638   6.075
 5870TIP3    H217617   4.000   0.774   6.094
 5871TIP3   OH217618   4.039   0.911   6.193
 5871TIP3    H117619   4.128   0.935   6.224
 5871TIP3    H217620   3.998   0.998   6.180
 5872TIP3   OH217621   3.666   1.518   6.096
 5872TIP3    H117622   3.614   1.602   6.093
 5872TIP3    H217623   3.609   1.462   6.153
 5873TIP3   OH217624   4.481   1.027   6.044
 5873TIP3    H117625   4.436   0.979   5.971
 5873TIP3    H217626   4.476   1.117   6.005
 5874TIP3   OH217627   4.201   1.842   5.972
 5874TIP3    H117628   4.165   1.773   6.029
 5874TIP3    H217629   4.210   1.797   5.886
 5875TIP3   OH217630   3.958   1.577   5.867
 5875TIP3    H117631   4.008   1.548   5.947
 5875TIP3    H217632   3.870   1.539   5.883
 5876TIP3   OH217633   4.287   2.038   5.681
 5876TIP3    H117634   4.313   2.110   5.621
 5876TIP3    H217635   4.208   2.079   5.722
 5877TIP3   OH217636   4.118   1.494   6.074
 5877TIP3    H117637   4.105   1.442   6.155
 5877TIP3    H217638   4.215   1.491   6.064
 5878TIP3   OH217639   3.320   1.545   5.854
 5878TIP3    H117640   3.324   1.449   5.833
 5878TIP3    H217641   3.301   1.542   5.950
 5879TIP3   OH217642   3.259   1.570   6.121
 5879TIP3    H117643   3.305   1.568   6.208
 5879TIP3    H217644   3.243   1.667   6.115
 5880TIP3   OH217645   3.527   1.749   6.089
 5880TIP3    H117646   3.435   1.759   6.121
 5880TIP3    H217647   3.534   1.827   6.031
 5881TIP3   OH217648   3.269   1.841   6.146
 5881TIP3    H117649   3.243   1.902   6.073
 5881TIP3    H217650   3.275   1.902   6.219
 5882TIP3   OH217651   3.000   1.476   6.137
 5882TIP3    H117652   3.093   1.500   6.125
 5882TIP3    H217653   2.995   1.398   6.079
 5883TIP3   OH217654   4.270   2.190   6.613
 5883TIP3    H117655   4.239   2.253   6.544
 5883TIP3    H217656   4.366   2.213   6.609
 5884TIP3   OH217657   3.478   1.750   5.769
 5884TIP3    H117658   3.426   1.673   5.803
 5884TIP3    H217659   3.555   1.706   5.729
 5885TIP3   OH217660   3.911   1.783   5.693
 5885TIP3    H117661   3.943   1.715   5.756
 5885TIP3    H217662   3.971   1.773   5.617
 5886TIP3   OH217663   3.106   1.254   5.992
 5886TIP3    H117664   3.137   1.188   6.055
 5886TIP3    H217665   3.186   1.266   5.936
 5887TIP3   OH217666   3.677   1.471   5.823
 5887TIP3    H117667   3.658   1.480   5.919
 5887TIP3    H217668   3.668   1.374   5.811
 5888TIP3   OH217669   3.444   1.001   6.061
 5888TIP3    H117670   3.422   1.010   5.966
 5888TIP3    H217671   3.541   0.999   6.057
 5889TIP3   OH217672   4.256   1.292   5.733
 5889TIP3    H117673   4.233   1.256   5.645
 5889TIP3    H217674   4.223   1.384   5.719
 5890TIP3   OH217675   3.253   2.041   5.968
 5890TIP3    H117676   3.346   2.026   5.943
 5890TIP3    H217677   3.224   2.091   5.889
 5891TIP3   OH217678   4.512   2.307   6.565
 5891TIP3    H117679   4.524   2.400   6.593
 5891TIP3    H217680   4.585   2.299   6.501
 5892TIP3   OH217681   4.395   1.482   6.058
 5892TIP3    H117682   4.457   1.551   6.026
 5892TIP3    H217683   4.438   1.451   6.140
 5893TIP3   OH217684   4.514   1.362   6.277
 5893TIP3    H117685   4.471   1.339   6.360
 5893TIP3    H217686   4.602   1.395   6.309
 5894TIP3   OH217687   4.457   1.261   5.909
 5894TIP3    H117688   4.385   1.263   5.842
 5894TIP3    H217689   4.430   1.338   5.964
 5895TIP3   OH217690   4.346   0.926   5.829
 5895TIP3    H117691   4.275   0.968   5.778
 5895TIP3    H217692   4.308   0.839   5.847
 5896TIP3   OH217693   4.238   0.681   5.933
 5896TIP3    H117694   4.253   0.674   6.031
 5896TIP3    H217695   4.140   0.671   5.934
 5897TIP3   OH217696   4.297   0.989   6.277
 5897TIP3    H117697   4.346   0.932   6.340
 5897TIP3    H217698   4.358   0.994   6.202
 5898TIP3   OH217699   4.094   2.169   6.234
 5898TIP3    H117700   4.149   2.157   6.153
 5898TIP3    H217701   4.143   2.239   6.281
 5899TIP3   OH217702   3.515   1.974   5.918
 5899TIP3    H117703   3.601   2.000   5.878
 5899TIP3    H217704   3.492   1.902   5.855
 5900TIP3   OH217705   4.244   2.110   6.006
 5900TIP3    H117706   4.234   2.013   5.999
 5900TIP3    H217707   4.192   2.139   5.928
 5901TIP3   OH217708   2.815   1.820   5.952
 5901TIP3    H117709   2.798   1.826   6.046
 5901TIP3    H217710   2.900   1.771   5.947
 5902TIP3   OH217711   4.683   1.127   6.220
 5902TIP3    H117712   4.634   1.209   6.233
 5902TIP3    H217713   4.622   1.078   6.162
 5903TIP3   OH217714   4.768   1.406   6.359
 5903TIP3    H117715   4.820   1.364   6.430
 5903TIP3    H217716   4.837   1.435   6.298
 5904TIP3   OH217717   5.614   1.889   5.785
 5904TIP3    H117718   5.564   1.871   5.703
 5904TIP3    H217719   5.567   1.968   5.818
 5905TIP3   OH217720   4.582   1.662   5.947
 5905TIP3    H117721   4.544   1.686   5.860
 5905TIP3    H217722   4.613   1.750   5.979
 5906TIP3   OH217723   5.471   1.291   5.505
 5906TIP3    H117724   5.530   1.344   5.561
 5906TIP3    H217725   5.503   1.200   5.523
 5907TIP3   OH217726   5.479   2.125   5.855
 5907TIP3    H117727   5.499   2.217   5.873
 5907TIP3    H217728   5.400   2.136   5.800
 5908TIP3   OH217729   5.008   1.401   5.938
 5908TIP3    H117730   4.917   1.424   5.909
 5908TIP3    H217731   4.997   1.316   5.982
 5909TIP3   OH217732   6.055   2.024   5.184
 5909TIP3    H117733   6.056   2.119   5.163
 5909TIP3    H217734   6.133   2.019   5.243
 5910TIP3   OH217735   4.621   1.979   6.491
 5910TIP3    H117736   4.688   1.918   6.523
 5910TIP3    H217737   4.599   2.028   6.572
 5911TIP3   OH217738   5.385   2.330   5.682
 5911TIP3    H117739   5.335   2.315   5.600
 5911TIP3    H217740   5.349   2.416   5.712
 5912TIP3   OH217741   4.803   2.183   6.045
 5912TIP3    H117742   4.840   2.167   6.135
 5912TIP3    H217743   4.752   2.102   6.031
 5913TIP3   OH217744   5.565   2.245   5.300
 5913TIP3    H117745   5.623   2.175   5.261
 5913TIP3    H217746   5.602   2.253   5.391
 5914TIP3   OH217747   5.633   2.294   5.563
 5914TIP3    H117748   5.553   2.293   5.619
 5914TIP3    H217749   5.704   2.303   5.629
 5915TIP3   OH217750   5.800   1.478   5.304
 5915TIP3    H117751   5.769   1.464   5.212
 5915TIP3    H217752   5.891   1.509   5.288
 5916TIP3   OH217753   5.219   0.927   5.579
 5916TIP3    H117754   5.230   0.887   5.668
 5916TIP3    H217755   5.143   0.984   5.597
 5917TIP3   OH217756   4.688   0.833   6.040
 5917TIP3    H117757   4.735   0.859   5.959
 5917TIP3    H217758   4.621   0.903   6.043
 5918TIP3   OH217759   5.062   1.094   5.741
 5918TIP3    H117760   4.998   1.087   5.668
 5918TIP3    H217761   5.133   1.145   5.698
 5919TIP3   OH217762   5.286   1.658   5.720
 5919TIP3    H117763   5.238   1.574   5.707
 5919TIP3    H217764   5.270   1.672   5.816
 5920TIP3   OH217765   5.470   1.784   5.566
 5920TIP3    H117766   5.416   1.866   5.566
 5920TIP3    H217767   5.413   1.727   5.623
 5921TIP3   OH217768   5.991   2.101   5.444
 5921TIP3    H117769   5.958   2.045   5.517
 5921TIP3    H217770   5.976   2.047   5.365
 5922TIP3   OH217771   5.114   1.969   6.052
 5922TIP3    H117772   5.111   2.048   5.995
 5922TIP3    H217773   5.026   1.972   6.091
 5923TIP3   OH217774   4.685   1.255   5.757
 5923TIP3    H117775   4.724   1.343   5.776
 5923TIP3    H217776   4.606   1.258   5.815
 5924TIP3   OH217777   5.206   1.714   5.977
 5924TIP3    H117778   5.169   1.803   5.998
 5924TIP3    H217779   5.131   1.656   5.998
 5925TIP3   OH217780   5.038   2.194   5.899
 5925TIP3    H117781   4.948   2.205   5.936
 5925TIP3    H217782   5.069   2.287   5.900
 5926TIP3   OH217783   5.756   1.840   5.346
 5926TIP3    H117784   5.816   1.797   5.411
 5926TIP3    H217785   5.669   1.812   5.378
 5927TIP3   OH217786   6.075   2.303   5.167
 5927TIP3    H117787   6.104   2.375   5.108
 5927TIP3    H217788   5.997   2.346   5.207
 5928TIP3   OH217789   4.889   2.135   6.621
 5928TIP3    H117790   4.925   2.071   6.687
 5928TIP3    H217791   4.904   2.218   6.669
 5929TIP3   OH217792   5.112   1.804   5.358
 5929TIP3    H117793   5.119   1.709   5.335
 5929TIP3    H217794   5.083   1.798   5.451
 5930TIP3   OH217795   5.049   1.809   5.626
 5930TIP3    H117796   5.132   1.775   5.663
 5930TIP3    H217797   5.056   1.906   5.642
 5931TIP3   OH217798   4.771   1.501   5.832
 5931TIP3    H117799   4.705   1.549   5.887
 5931TIP3    H217800   4.786   1.568   5.763
 5932TIP3   OH217801   5.332   2.013   5.585
 5932TIP3    H117802   5.241   2.029   5.617
 5932TIP3    H217803   5.341   2.089   5.524
 5933TIP3   OH217804   5.079   2.082   5.653
 5933TIP3    H117805   5.049   2.152   5.590
 5933TIP3    H217806   5.059   2.124   5.739
 5934TIP3   OH217807   4.790   1.695   5.632
 5934TIP3    H117808   4.867   1.756   5.639
 5934TIP3    H217809   4.829   1.630   5.569
 5935TIP3   OH217810   4.713   0.975   5.789
 5935TIP3    H117811   4.745   1.065   5.807
 5935TIP3    H217812   4.638   0.995   5.733
 5936TIP3   OH217813   4.639   1.924   6.017
 5936TIP3    H117814   4.598   1.958   6.098
 5936TIP3    H217815   4.592   1.974   5.946
 5937TIP3   OH217816   5.273   2.002   5.262
 5937TIP3    H117817   5.219   1.930   5.301
 5937TIP3    H217818   5.348   1.952   5.226
 5938TIP3   OH217819   5.706   2.046   5.177
 5938TIP3    H117820   5.734   1.975   5.239
 5938TIP3    H217821   5.768   2.035   5.102
 5939TIP3   OH217822   4.929   1.507   5.497
 5939TIP3    H117823   4.989   1.487   5.571
 5939TIP3    H217824   4.994   1.519   5.425
 5940TIP3   OH217825   5.452   1.733   5.298
 5940TIP3    H117826   5.447   1.740   5.396
 5940TIP3    H217827   5.443   1.636   5.286
 5941TIP3   OH217828   5.121   1.445   5.700
 5941TIP3    H117829   5.091   1.423   5.791
 5941TIP3    H217830   5.150   1.357   5.666
 5942TIP3   OH217831   5.206   1.236   5.548
 5942TIP3    H117832   5.180   1.247   5.455
 5942TIP3    H217833   5.302   1.254   5.541
 5943TIP3   OH217834   6.048   1.539   5.192
 5943TIP3    H117835   6.017   1.510   5.104
 5943TIP3    H217836   6.028   1.635   5.186
 5944TIP3   OH217837   5.048   2.284   5.464
 5944TIP3    H117838   5.142   2.273   5.441
 5944TIP3    H217839   5.019   2.339   5.389
 5945TIP3   OH217840   4.520   1.670   5.668
 5945TIP3    H117841   4.615   1.689   5.653
 5945TIP3    H217842   4.512   1.582   5.625
 5946TIP3   OH217843   4.442   2.279   6.088
 5946TIP3    H117844   4.379   2.221   6.041
 5946TIP3    H217845   4.487   2.213   6.146
 5947TIP3   OH217846   4.583   2.114   6.257
 5947TIP3    H117847   4.584   2.053   6.334
 5947TIP3    H217848   4.621   2.193   6.300
 5948TIP3   OH217849   5.847   2.342   5.729
 5948TIP3    H117850   5.904   2.345   5.649
 5948TIP3    H217851   5.846   2.437   5.755
 5949TIP3   OH217852   4.846   2.475   6.631
 5949TIP3    H117853   4.763   2.506   6.591
 5949TIP3    H217854   4.825   2.497   6.724
 5950TIP3   OH217855   5.108   2.502   6.531
 5950TIP3    H117856   5.021   2.483   6.571
 5950TIP3    H217857   5.080   2.528   6.441
 5951TIP3   OH217858   4.745   2.289   6.404
 5951TIP3    H117859   4.782   2.276   6.494
 5951TIP3    H217860   4.809   2.235   6.353
 5952TIP3   OH217861   4.938   2.134   6.284
 5952TIP3    H117862   4.955   2.089   6.369
 5952TIP3    H217863   5.024   2.181   6.272
 5953TIP3   OH217864   5.186   2.247   6.287
 5953TIP3    H117865   5.252   2.178   6.274
 5953TIP3    H217866   5.229   2.299   6.359
 5954TIP3   OH217867   4.529   2.070   5.813
 5954TIP3    H117868   4.441   2.041   5.784
 5954TIP3    H217869   4.529   2.161   5.775
 5955TIP3   OH217870   5.312   2.229   5.410
 5955TIP3    H117871   5.396   2.257   5.368
 5955TIP3    H217872   5.287   2.156   5.348
 5956TIP3   OH217873   6.002   2.363   5.508
 5956TIP3    H117874   6.011   2.269   5.481
 5956TIP3    H217875   5.975   2.404   5.423
 5957TIP3   OH217876   4.609   2.071   5.453
 5957TIP3    H117877   4.615   2.089   5.548
 5957TIP3    H217878   4.694   2.026   5.435
 5958TIP3   OH217879   6.321   2.286   5.303
 5958TIP3    H117880   6.231   2.300   5.266
 5958TIP3    H217881   6.333   2.369   5.352
 5959TIP3   OH217882   6.384   2.339   4.944
 5959TIP3    H117883   6.384   2.384   5.030
 5959TIP3    H217884   6.471   2.293   4.943
 5960TIP3   OH217885   2.108   3.325   5.884
 5960TIP3    H117886   2.114   3.414   5.845
 5960TIP3    H217887   2.198   3.289   5.864
 5961TIP3   OH217888   1.428   3.684   6.235
 5961TIP3    H117889   1.380   3.680   6.151
 5961TIP3    H217890   1.389   3.762   6.277
 5962TIP3   OH217891   1.616   3.547   5.958
 5962TIP3    H117892   1.667   3.472   5.919
 5962TIP3    H217893   1.655   3.551   6.047
 5963TIP3   OH217894   1.677   3.576   6.231
 5963TIP3    H117895   1.586   3.614   6.226
 5963TIP3    H217896   1.675   3.547   6.324
 5964TIP3   OH217897   1.826   2.766   5.978
 5964TIP3    H117898   1.816   2.739   5.885
 5964TIP3    H217899   1.921   2.789   5.979
 5965TIP3   OH217900   2.346   2.588   6.187
 5965TIP3    H117901   2.272   2.550   6.135
 5965TIP3    H217902   2.343   2.679   6.151
 5966TIP3   OH217903   2.018   3.367   6.140
 5966TIP3    H117904   2.002   3.274   6.165
 5966TIP3    H217905   2.047   3.354   6.047
 5967TIP3   OH217906   1.800   3.142   6.018
 5967TIP3    H117907   1.862   3.120   6.091
 5967TIP3    H217908   1.716   3.105   6.051
 5968TIP3   OH217909   2.124   3.598   5.839
 5968TIP3    H117910   2.155   3.660   5.771
 5968TIP3    H217911   2.050   3.651   5.876
 5969TIP3   OH217912   1.983   3.108   6.223
 5969TIP3    H117913   1.954   3.051   6.296
 5969TIP3    H217914   2.076   3.077   6.214
 5970TIP3   OH217915   1.176   3.077   6.004
 5970TIP3    H117916   1.160   2.987   5.972
 5970TIP3    H217917   1.185   3.063   6.100
 5971TIP3   OH217918   1.371   3.375   6.249
 5971TIP3    H117919   1.278   3.347   6.260
 5971TIP3    H217920   1.362   3.449   6.185
 5972TIP3   OH217921   1.318   3.289   5.914
 5972TIP3    H117922   1.267   3.213   5.951
 5972TIP3    H217923   1.397   3.244   5.879
 5973TIP3   OH217924   1.747   3.342   5.847
 5973TIP3    H117925   1.781   3.270   5.904
 5973TIP3    H217926   1.799   3.331   5.764
 5974TIP3   OH217927   1.498   3.034   5.961
 5974TIP3    H117928   1.488   3.051   6.057
 5974TIP3    H217929   1.500   2.936   5.957
 5975TIP3   OH217930   2.081   2.846   5.894
 5975TIP3    H117931   2.076   2.806   5.805
 5975TIP3    H217932   2.053   2.937   5.870
 5976TIP3   OH217933   1.111   3.614   6.117
 5976TIP3    H117934   1.193   3.575   6.080
 5976TIP3    H217935   1.080   3.660   6.036
 5977TIP3   OH217936   2.249   3.042   6.233
 5977TIP3    H117937   2.310   3.098   6.179
 5977TIP3    H217938   2.290   3.053   6.320
 5978TIP3   OH217939   2.302   2.828   6.056
 5978TIP3    H117940   2.227   2.826   5.993
 5978TIP3    H217941   2.271   2.895   6.120
 5979TIP3   OH217942   2.150   2.504   6.011
 5979TIP3    H117943   2.135   2.545   5.926
 5979TIP3    H217944   2.133   2.410   5.991
 5980TIP3   OH217945   2.131   2.235   5.952
 5980TIP3    H117946   2.212   2.209   5.999
 5980TIP3    H217947   2.071   2.162   5.974
 5981TIP3   OH217948   2.366   2.178   6.117
 5981TIP3    H117949   2.405   2.095   6.080
 5981TIP3    H217950   2.442   2.238   6.118
 5982TIP3   OH217951   1.347   3.538   6.010
 5982TIP3    H117952   1.439   3.555   5.979
 5982TIP3    H217953   1.332   3.450   5.969
 5983TIP3   OH217954   2.064   3.649   6.156
 5983TIP3    H117955   2.083   3.570   6.103
 5983TIP3    H217956   2.017   3.705   6.089
 5984TIP3   OH217957   3.565   3.186   6.102
 5984TIP3    H117958   3.528   3.273   6.077
 5984TIP3    H217959   3.494   3.128   6.067
 5985TIP3   OH217960   3.567   3.189   6.490
 5985TIP3    H117961   3.580   3.152   6.579
 5985TIP3    H217962   3.534   3.112   6.442
 5986TIP3   OH217963   3.818   3.491   6.180
 5986TIP3    H117964   3.793   3.430   6.252
 5986TIP3    H217965   3.849   3.569   6.229
 5987TIP3   OH217966   3.444   3.931   6.194
 5987TIP3    H117967   3.489   3.864   6.138
 5987TIP3    H217968   3.458   3.896   6.283
 5988TIP3   OH217969   3.367   3.408   6.525
 5988TIP3    H117970   3.412   3.327   6.498
 5988TIP3    H217971   3.444   3.466   6.537
 5989TIP3   OH217972   4.405   2.736   6.523
 5989TIP3    H117973   4.422   2.818   6.574
 5989TIP3    H217974   4.437   2.762   6.434
 5990TIP3   OH217975   3.845   2.841   6.572
 5990TIP3    H117976   3.773   2.891   6.617
 5990TIP3    H217977   3.803   2.820   6.487
 5991TIP3   OH217978   3.823   2.662   6.161
 5991TIP3    H117979   3.891   2.647   6.231
 5991TIP3    H217980   3.879   2.694   6.088
 5992TIP3   OH217981   3.179   2.974   6.387
 5992TIP3    H117982   3.275   2.964   6.401
 5992TIP3    H217983   3.154   2.884   6.360
 5993TIP3   OH217984   4.456   2.947   6.701
 5993TIP3    H117985   4.369   2.984   6.677
 5993TIP3    H217986   4.450   2.952   6.799
 5994TIP3   OH217987   3.438   3.397   5.977
 5994TIP3    H117988   3.412   3.396   5.883
 5994TIP3    H217989   3.394   3.479   6.007
 5995TIP3   OH217990   4.016   2.672   6.350
 5995TIP3    H117991   4.052   2.639   6.434
 5995TIP3    H217992   4.053   2.763   6.356
 5996TIP3   OH217993   2.422   3.208   6.101
 5996TIP3    H117994   2.393   3.227   6.009
 5996TIP3    H217995   2.462   3.293   6.126
 5997TIP3   OH217996   3.872   3.729   6.324
 5997TIP3    H117997   3.781   3.727   6.363
 5997TIP3    H217998   3.871   3.818   6.284
 5998TIP3   OH217999   4.149   2.637   6.586
 5998TIP3    H118000   4.138   2.719   6.634
 5998TIP3    H218001   4.239   2.649   6.549
 5999TIP3   OH218002   3.567   3.767   6.002
 5999TIP3    H118003   3.621   3.686   5.984
 5999TIP3    H218004   3.630   3.835   5.967
 6000TIP3   OH218005   3.716   3.552   5.931
 6000TIP3    H118006   3.692   3.467   5.893
 6000TIP3    H218007   3.761   3.525   6.014
 6001TIP3   OH218008   4.120   3.649   6.714
 6001TIP3    H118009   4.097   3.570   6.662
 6001TIP3    H218010   4.098   3.720   6.651
 6002TIP3   OH218011   3.396   3.035   5.945
 6002TIP3    H118012   3.317   3.089   5.927
 6002TIP3    H218013   3.439   3.031   5.858
 6003TIP3   OH218014   3.352   2.824   5.649
 6003TIP3    H118015   3.421   2.879   5.692
 6003TIP3    H218016   3.410   2.760   5.603
 6004TIP3   OH218017   4.295   3.287   6.540
 6004TIP3    H118018   4.210   3.338   6.542
 6004TIP3    H218019   4.324   3.307   6.448
 6005TIP3   OH218020   3.743   3.119   5.905
 6005TIP3    H118021   3.689   3.143   5.983
 6005TIP3    H218022   3.828   3.095   5.949
 6006TIP3   OH218023   2.951   3.110   6.332
 6006TIP3    H118024   2.922   3.052   6.259
 6006TIP3    H218025   3.040   3.072   6.354
 6007TIP3   OH218026   3.129   3.554   6.469
 6007TIP3    H118027   3.085   3.489   6.414
 6007TIP3    H218028   3.211   3.507   6.493
 6008TIP3   OH218029   3.635   3.741   6.455
 6008TIP3    H118030   3.622   3.819   6.511
 6008TIP3    H218031   3.624   3.666   6.517
 6009TIP3   OH218032   3.574   2.979   5.732
 6009TIP3    H118033   3.637   3.040   5.775
 6009TIP3    H218034   3.601   2.989   5.637
 6010TIP3   OH218035   3.327   3.646   6.011
 6010TIP3    H118036   3.415   3.689   6.013
 6010TIP3    H218037   3.274   3.714   5.968
 6011TIP3   OH218038   4.096   2.203   5.794
 6011TIP3    H118039   4.016   2.231   5.842
 6011TIP3    H218040   4.115   2.284   5.741
 6012TIP3   OH218041   2.845   2.949   6.124
 6012TIP3    H118042   2.772   2.996   6.078
 6012TIP3    H218043   2.811   2.858   6.125
 6013TIP3   OH218044   3.902   3.582   5.347
 6013TIP3    H118045   3.910   3.677   5.326
 6013TIP3    H218046   3.994   3.551   5.330
 6014TIP3   OH218047   3.213   3.878   5.822
 6014TIP3    H118048   3.168   3.868   5.736
 6014TIP3    H218049   3.182   3.966   5.851
 6015TIP3   OH218050   2.647   3.744   6.220
 6015TIP3    H118051   2.697   3.730   6.303
 6015TIP3    H218052   2.613   3.654   6.204
 6016TIP3   OH218053   3.406   3.800   5.454
 6016TIP3    H118054   3.463   3.727   5.420
 6016TIP3    H218055   3.444   3.814   5.543
 6017TIP3   OH218056   3.464   3.854   5.721
 6017TIP3    H118057   3.378   3.855   5.767
 6017TIP3    H218058   3.524   3.830   5.794
 6018TIP3   OH218059   3.661   3.005   5.476
 6018TIP3    H118060   3.629   3.000   5.385
 6018TIP3    H218061   3.751   3.040   5.461
 6019TIP3   OH218062   3.371   2.381   5.796
 6019TIP3    H118063   3.328   2.381   5.884
 6019TIP3    H218064   3.324   2.306   5.754
 6020TIP3   OH218065   3.042   2.725   6.346
 6020TIP3    H118066   2.948   2.702   6.349
 6020TIP3    H218067   3.066   2.683   6.260
 6021TIP3   OH218068   3.526   2.830   6.084
 6021TIP3    H118069   3.479   2.901   6.035
 6021TIP3    H218070   3.582   2.793   6.013
 6022TIP3   OH218071   3.691   2.859   6.304
 6022TIP3    H118072   3.628   2.881   6.232
 6022TIP3    H218073   3.732   2.781   6.262
 6023TIP3   OH218074   3.034   2.372   5.740
 6023TIP3    H118075   3.011   2.370   5.835
 6023TIP3    H218076   2.957   2.422   5.705
 6024TIP3   OH218077   2.554   2.415   6.146
 6024TIP3    H118078   2.583   2.441   6.055
 6024TIP3    H218079   2.482   2.480   6.158
 6025TIP3   OH218080   3.350   2.588   6.423
 6025TIP3    H118081   3.328   2.631   6.506
 6025TIP3    H218082   3.443   2.567   6.444
 6026TIP3   OH218083   3.058   2.607   6.103
 6026TIP3    H118084   3.152   2.627   6.084
 6026TIP3    H218085   3.012   2.638   6.021
 6027TIP3   OH218086   2.924   2.658   5.875
 6027TIP3    H118087   2.861   2.608   5.820
 6027TIP3    H218088   2.979   2.700   5.806
 6028TIP3   OH218089   3.446   2.908   6.443
 6028TIP3    H118090   3.528   2.885   6.396
 6028TIP3    H218091   3.455   2.850   6.521
 6029TIP3   OH218092   2.997   2.272   6.305
 6029TIP3    H118093   3.019   2.346   6.364
 6029TIP3    H218094   3.046   2.292   6.223
 6030TIP3   OH218095   3.157   3.185   5.894
 6030TIP3    H118096   3.087   3.118   5.877
 6030TIP3    H218097   3.130   3.219   5.982
 6031TIP3   OH218098   4.056   3.425   6.527
 6031TIP3    H118099   4.083   3.481   6.451
 6031TIP3    H218100   3.974   3.383   6.493
 6032TIP3   OH218101   3.620   2.483   5.779
 6032TIP3    H118102   3.524   2.459   5.782
 6032TIP3    H218103   3.616   2.581   5.781
 6033TIP3   OH218104   3.681   2.752   5.869
 6033TIP3    H118105   3.778   2.760   5.877
 6033TIP3    H218106   3.659   2.826   5.809
 6034TIP3   OH218107   3.311   3.335   5.725
 6034TIP3    H118108   3.259   3.418   5.724
 6034TIP3    H218109   3.258   3.280   5.787
 6035TIP3   OH218110   4.119   2.842   5.693
 6035TIP3    H118111   4.061   2.799   5.625
 6035TIP3    H218112   4.116   2.933   5.656
 6036TIP3   OH218113   3.836   3.662   5.611
 6036TIP3    H118114   3.801   3.594   5.670
 6036TIP3    H218115   3.848   3.614   5.527
 6037TIP3   OH218116   3.826   3.286   6.430
 6037TIP3    H118117   3.732   3.262   6.441
 6037TIP3    H218118   3.859   3.206   6.385
 6038TIP3   OH218119   2.926   3.525   6.213
 6038TIP3    H118120   2.956   3.604   6.165
 6038TIP3    H218121   2.868   3.485   6.148
 6039TIP3   OH218122   2.528   2.817   5.897
 6039TIP3    H118123   2.569   2.902   5.920
 6039TIP3    H218124   2.447   2.821   5.954
 6040TIP3   OH218125   3.061   3.278   6.131
 6040TIP3    H118126   3.052   3.368   6.167
 6040TIP3    H218127   3.032   3.224   6.207
 6041TIP3   OH218128   3.192   3.913   6.632
 6041TIP3    H118129   3.266   3.952   6.580
 6041TIP3    H218130   3.237   3.843   6.683
 6042TIP3   OH218131   2.869   3.764   6.043
 6042TIP3    H118132   2.788   3.777   6.095
 6042TIP3    H218133   2.909   3.855   6.049
 6043TIP3   OH218134   3.621   3.507   6.609
 6043TIP3    H118135   3.581   3.488   6.697
 6043TIP3    H218136   3.682   3.432   6.598
 6044TIP3   OH218137   3.596   3.395   5.512
 6044TIP3    H118138   3.651   3.369   5.589
 6044TIP3    H218139   3.511   3.355   5.535
 6045TIP3   OH218140   3.927   3.858   5.319
 6045TIP3    H118141   3.964   3.938   5.279
 6045TIP3    H218142   3.846   3.896   5.358
 6046TIP3   OH218143   3.758   3.320   5.718
 6046TIP3    H118144   3.747   3.250   5.786
 6046TIP3    H218145   3.855   3.314   5.704
 6047TIP3   OH218146   2.940   3.364   5.509
 6047TIP3    H118147   2.956   3.271   5.482
 6047TIP3    H218148   2.922   3.354   5.604
 6048TIP3   OH218149   2.893   3.372   5.783
 6048TIP3    H118150   2.978   3.345   5.819
 6048TIP3    H218151   2.896   3.470   5.793
 6049TIP3   OH218152   2.628   3.059   5.988
 6049TIP3    H118153   2.555   3.098   6.040
 6049TIP3    H218154   2.638   3.127   5.918
 6050TIP3   OH218155   3.688   2.442   6.044
 6050TIP3    H118156   3.668   2.463   5.950
 6050TIP3    H218157   3.724   2.527   6.077
 6051TIP3   OH218158   3.161   3.558   5.724
 6051TIP3    H118159   3.076   3.587   5.762
 6051TIP3    H218160   3.184   3.638   5.673
 6052TIP3   OH218161   3.335   2.635   6.150
 6052TIP3    H118162   3.402   2.705   6.132
 6052TIP3    H218163   3.343   2.625   6.247
 6053TIP3   OH218164   3.514   2.331   6.220
 6053TIP3    H118165   3.554   2.367   6.302
 6053TIP3    H218166   3.573   2.373   6.152
 6054TIP3   OH218167   2.913   3.645   5.801
 6054TIP3    H118168   2.889   3.716   5.738
 6054TIP3    H218169   2.899   3.691   5.887
 6055TIP3   OH218170   3.009   2.354   6.011
 6055TIP3    H118171   3.003   2.447   6.043
 6055TIP3    H218172   3.106   2.342   6.015
 6056TIP3   OH218173   3.904   3.041   6.314
 6056TIP3    H118174   3.826   2.982   6.319
 6056TIP3    H218175   3.974   2.988   6.359
 6057TIP3   OH218176   2.637   3.257   5.794
 6057TIP3    H118177   2.721   3.308   5.800
 6057TIP3    H218178   2.665   3.194   5.724
 6058TIP3   OH218179   2.563   2.543   5.902
 6058TIP3    H118180   2.570   2.640   5.909
 6058TIP3    H218181   2.515   2.536   5.818
 6059TIP3   OH218182   3.886   3.997   6.260
 6059TIP3    H118183   3.842   4.045   6.185
 6059TIP3    H218184   3.980   4.017   6.239
 6060TIP3   OH218185   2.505   3.498   6.159
 6060TIP3    H118186   2.428   3.520   6.212
 6060TIP3    H218187   2.478   3.538   6.074
 6061TIP3   OH218188   3.111   3.561   5.408
 6061TIP3    H118189   3.063   3.487   5.451
 6061TIP3    H218190   3.189   3.515   5.370
 6062TIP3   OH218191   3.544   3.595   5.332
 6062TIP3    H118192   3.578   3.529   5.397
 6062TIP3    H218193   3.607   3.585   5.258
 6063TIP3   OH218194   2.772   3.076   5.649
 6063TIP3    H118195   2.835   3.054   5.720
 6063TIP3    H218196   2.832   3.080   5.572
 6064TIP3   OH218197   3.294   3.281   5.457
 6064TIP3    H118198   3.293   3.292   5.555
 6064TIP3    H218199   3.294   3.183   5.449
 6065TIP3   OH218200   2.962   2.993   5.849
 6065TIP3    H118201   2.938   2.952   5.933
 6065TIP3    H218202   3.006   2.919   5.802
 6066TIP3   OH218203   3.080   2.793   5.698
 6066TIP3    H118204   3.054   2.802   5.604
 6066TIP3    H218205   3.178   2.790   5.688
 6067TIP3   OH218206   3.893   3.116   5.384
 6067TIP3    H118207   3.883   3.080   5.293
 6067TIP3    H218208   3.857   3.206   5.367
 6068TIP3   OH218209   2.889   3.845   5.611
 6068TIP3    H118210   2.983   3.829   5.590
 6068TIP3    H218211   2.864   3.901   5.535
 6069TIP3   OH218212   2.359   3.229   5.836
 6069TIP3    H118213   2.447   3.251   5.800
 6069TIP3    H218214   2.341   3.144   5.788
 6070TIP3   OH218215   2.263   3.847   6.227
 6070TIP3    H118216   2.203   3.786   6.180
 6070TIP3    H218217   2.310   3.784   6.286
 6071TIP3   OH218218   2.388   3.676   6.397
 6071TIP3    H118219   2.451   3.606   6.424
 6071TIP3    H218220   2.420   3.747   6.456
 6072TIP3   OH218221   4.150   4.066   6.229
 6072TIP3    H118222   4.160   4.102   6.320
 6072TIP3    H218223   4.197   4.132   6.176
 6073TIP3   OH218224   4.153   4.094   6.508
 6073TIP3    H118225   4.116   4.004   6.510
 6073TIP3    H218226   4.223   4.089   6.574
 6074TIP3   OH218227   4.035   3.295   5.701
 6074TIP3    H118228   4.097   3.364   5.668
 6074TIP3    H218229   4.084   3.260   5.778
 6075TIP3   OH218230   4.164   3.158   5.904
 6075TIP3    H118231   4.093   3.120   5.961
 6075TIP3    H218232   4.227   3.194   5.970
 6076TIP3   OH218233   4.217   3.560   6.342
 6076TIP3    H118234   4.269   3.490   6.299
 6076TIP3    H218235   4.221   3.632   6.274
 6077TIP3   OH218236   4.022   3.849   6.526
 6077TIP3    H118237   3.938   3.895   6.533
 6077TIP3    H218238   4.004   3.794   6.447
 6078TIP3   OH218239   4.100   3.074   5.553
 6078TIP3    H118240   4.026   3.076   5.487
 6078TIP3    H218241   4.073   3.150   5.608
 6079TIP3   OH218242   3.970   2.735   5.491
 6079TIP3    H118243   3.911   2.764   5.420
 6079TIP3    H218244   3.954   2.639   5.486
 6080TIP3   OH218245   3.967   3.027   6.044
 6080TIP3    H118246   3.972   2.930   6.034
 6080TIP3    H218247   3.951   3.037   6.140
 6081TIP3   OH218248   3.912   2.465   5.474
 6081TIP3    H118249   3.968   2.435   5.547
 6081TIP3    H218250   3.826   2.424   5.493
 6082TIP3   OH218251   3.973   2.745   5.936
 6082TIP3    H118252   4.015   2.657   5.947
 6082TIP3    H218253   4.024   2.779   5.860
 6083TIP3   OH218254   4.128   2.909   6.415
 6083TIP3    H118255   4.218   2.930   6.380
 6083TIP3    H218256   4.139   2.938   6.507
 6084TIP3   OH218257   4.205   3.052   6.646
 6084TIP3    H118258   4.123   3.082   6.687
 6084TIP3    H218259   4.239   3.135   6.606
 6085TIP3   OH218260   4.081   2.494   5.977
 6085TIP3    H118261   4.124   2.473   6.063
 6085TIP3    H218262   4.017   2.420   5.972
 6086TIP3   OH218263   4.151   2.411   5.627
 6086TIP3    H118264   4.186   2.352   5.557
 6086TIP3    H218265   4.210   2.488   5.621
 6087TIP3   OH218266   3.716   3.952   5.878
 6087TIP3    H118267   3.780   3.956   5.804
 6087TIP3    H218268   3.750   4.021   5.938
 6088TIP3   OH218269   2.865   4.035   6.704
 6088TIP3    H118270   2.851   4.122   6.746
 6088TIP3    H218271   2.869   4.058   6.609
 6089TIP3   OH218272   3.359   4.061   6.470
 6089TIP3    H118273   3.292   4.076   6.401
 6089TIP3    H218274   3.364   4.148   6.514
 6090TIP3   OH218275   3.616   3.992   6.573
 6090TIP3    H118276   3.535   4.021   6.527
 6090TIP3    H218277   3.681   4.057   6.537
 6091TIP3   OH218278   3.783   4.173   6.452
 6091TIP3    H118279   3.769   4.257   6.403
 6091TIP3    H218280   3.821   4.117   6.381
 6092TIP3   OH218281   2.577   3.820   6.555
 6092TIP3    H118282   2.596   3.845   6.646
 6092TIP3    H218283   2.658   3.771   6.530
 6093TIP3   OH218284   2.801   3.683   6.445
 6093TIP3    H118285   2.850   3.612   6.400
 6093TIP3    H218286   2.875   3.748   6.451
 6094TIP3   OH218287   3.039   3.812   6.433
 6094TIP3    H118288   3.081   3.723   6.434
 6094TIP3    H218289   3.087   3.852   6.509
 6095TIP3   OH218290   3.612   2.406   6.473
 6095TIP3    H118291   3.605   2.376   6.566
 6095TIP3    H218292   3.708   2.390   6.456
 6096TIP3   OH218293   4.158   2.360   6.433
 6096TIP3    H118294   4.197   2.406   6.356
 6096TIP3    H218295   4.070   2.399   6.436
 6097TIP3   OH218296   4.243   2.436   6.192
 6097TIP3    H118297   4.319   2.385   6.154
 6097TIP3    H218298   4.277   2.528   6.177
 6098TIP3   OH218299   2.675   2.019   6.155
 6098TIP3    H118300   2.700   2.078   6.081
 6098TIP3    H218301   2.739   2.044   6.225
 6099TIP3   OH218302   3.350   2.218   6.418
 6099TIP3    H118303   3.364   2.280   6.345
 6099TIP3    H218304   3.442   2.200   6.444
 6100TIP3   OH218305   3.869   2.336   6.403
 6100TIP3    H118306   3.898   2.282   6.329
 6100TIP3    H218307   3.902   2.283   6.480
 6101TIP3   OH218308   3.899   2.286   5.970
 6101TIP3    H118309   3.820   2.336   5.997
 6101TIP3    H218310   3.879   2.198   6.009
 6102TIP3   OH218311   2.363   3.629   5.972
 6102TIP3    H118312   2.280   3.597   5.932
 6102TIP3    H218313   2.362   3.720   5.934
 6103TIP3   OH218314   2.786   2.189   5.953
 6103TIP3    H118315   2.830   2.130   5.888
 6103TIP3    H218316   2.860   2.246   5.981
 6104TIP3   OH218317   3.280   2.384   6.058
 6104TIP3    H118318   3.353   2.341   6.106
 6104TIP3    H218319   3.298   2.477   6.083
 6105TIP3   OH218320   3.150   3.788   5.555
 6105TIP3    H118321   3.237   3.813   5.516
 6105TIP3    H218322   3.128   3.713   5.495
 6106TIP3   OH218323   3.878   3.929   5.650
 6106TIP3    H118324   3.869   3.831   5.643
 6106TIP3    H218325   3.826   3.957   5.572
 6107TIP3   OH218326   2.454   3.628   5.602
 6107TIP3    H118327   2.468   3.644   5.696
 6107TIP3    H218328   2.539   3.584   5.578
 6108TIP3   OH218329   5.362   3.445   5.590
 6108TIP3    H118330   5.325   3.532   5.563
 6108TIP3    H218331   5.289   3.387   5.559
 6109TIP3   OH218332   5.339   3.446   5.981
 6109TIP3    H118333   5.376   3.429   6.070
 6109TIP3    H218334   5.302   3.359   5.961
 6110TIP3   OH218335   4.653   3.321   6.339
 6110TIP3    H118336   4.688   3.245   6.390
 6110TIP3    H218337   4.709   3.391   6.374
 6111TIP3   OH218338   5.609   3.729   5.660
 6111TIP3    H118339   5.577   3.665   5.726
 6111TIP3    H218340   5.686   3.766   5.707
 6112TIP3   OH218341   4.635   3.744   6.064
 6112TIP3    H118342   4.627   3.646   6.061
 6112TIP3    H218343   4.732   3.754   6.061
 6113TIP3   OH218344   4.336   2.939   5.837
 6113TIP3    H118345   4.288   3.019   5.865
 6113TIP3    H218346   4.266   2.894   5.788
 6114TIP3   OH218347   4.391   3.231   6.042
 6114TIP3    H118348   4.446   3.154   6.067
 6114TIP3    H218349   4.450   3.280   5.983
 6115TIP3   OH218350   5.238   4.174   5.751
 6115TIP3    H118351   5.270   4.168   5.659
 6115TIP3    H218352   5.253   4.083   5.780
 6116TIP3   OH218353   5.154   3.662   6.026
 6116TIP3    H118354   5.197   3.583   5.987
 6116TIP3    H218355   5.233   3.708   6.060
 6117TIP3   OH218356   5.576   3.174   6.056
 6117TIP3    H118357   5.603   3.086   6.088
 6117TIP3    H218358   5.541   3.151   5.968
 6118TIP3   OH218359   4.924   2.821   6.015
 6118TIP3    H118360   4.899   2.895   5.955
 6118TIP3    H218361   4.869   2.749   5.976
 6119TIP3   OH218362   5.619   2.916   5.649
 6119TIP3    H118363   5.687   2.900   5.720
 6119TIP3    H218364   5.674   2.955   5.579
 6120TIP3   OH218365   4.545   3.024   6.133
 6120TIP3    H118366   4.630   3.008   6.178
 6120TIP3    H218367   4.559   2.970   6.052
 6121TIP3   OH218368   4.983   3.222   5.924
 6121TIP3    H118369   5.077   3.197   5.938
 6121TIP3    H218370   4.943   3.138   5.894
 6122TIP3   OH218371   4.906   2.814   6.460
 6122TIP3    H118372   4.851   2.851   6.388
 6122TIP3    H218373   4.848   2.834   6.537
 6123TIP3   OH218374   5.240   3.655   5.459
 6123TIP3    H118375   5.203   3.650   5.369
 6123TIP3    H218376   5.195   3.736   5.492
 6124TIP3   OH218377   5.016   3.578   6.245
 6124TIP3    H118378   4.963   3.651   6.284
 6124TIP3    H218379   5.053   3.621   6.165
 6125TIP3   OH218380   5.806   2.899   5.848
 6125TIP3    H118381   5.804   2.872   5.941
 6125TIP3    H218382   5.849   2.987   5.855
 6126TIP3   OH218383   4.785   2.923   6.234
 6126TIP3    H118384   4.845   2.997   6.261
 6126TIP3    H218385   4.838   2.884   6.161
 6127TIP3   OH218386   4.873   3.787   6.373
 6127TIP3    H118387   4.844   3.871   6.331
 6127TIP3    H218388   4.790   3.767   6.422
 6128TIP3   OH218389   4.223   3.473   5.584
 6128TIP3    H118390   4.183   3.498   5.498
 6128TIP3    H218391   4.253   3.560   5.617
 6129TIP3   OH218392   5.249   2.523   6.164
 6129TIP3    H118393   5.226   2.431   6.185
 6129TIP3    H218394   5.182   2.570   6.218
 6130TIP3   OH218395   5.357   4.037   5.511
 6130TIP3    H118396   5.409   3.956   5.490
 6130TIP3    H218397   5.414   4.104   5.469
 6131TIP3   OH218398   5.500   3.820   5.421
 6131TIP3    H118399   5.462   3.739   5.384
 6131TIP3    H218400   5.544   3.785   5.502
 6132TIP3   OH218401   5.191   3.289   5.438
 6132TIP3    H118402   5.110   3.342   5.422
 6132TIP3    H218403   5.233   3.290   5.350
 6133TIP3   OH218404   5.146   3.085   5.135
 6133TIP3    H118405   5.212   3.137   5.184
 6133TIP3    H218406   5.204   3.022   5.088
 6134TIP3   OH218407   5.538   3.375   5.394
 6134TIP3    H118408   5.484   3.401   5.472
 6134TIP3    H218409   5.623   3.354   5.438
 6135TIP3   OH218410   4.769   3.363   5.820
 6135TIP3    H118411   4.730   3.305   5.750
 6135TIP3    H218412   4.846   3.311   5.849
 6136TIP3   OH218413   4.902   3.785   5.954
 6136TIP3    H118414   4.879   3.761   5.862
 6136TIP3    H218415   4.988   3.741   5.967
 6137TIP3   OH218416   4.915   3.332   6.169
 6137TIP3    H118417   4.944   3.312   6.078
 6137TIP3    H218418   4.952   3.422   6.186
 6138TIP3   OH218419   5.406   3.999   5.967
 6138TIP3    H118420   5.434   4.009   6.059
 6138TIP3    H218421   5.385   3.905   5.963
 6139TIP3   OH218422   5.371   3.232   5.228
 6139TIP3    H118423   5.432   3.294   5.275
 6139TIP3    H218424   5.399   3.247   5.134
 6140TIP3   OH218425   4.775   3.417   6.589
 6140TIP3    H118426   4.812   3.499   6.623
 6140TIP3    H218427   4.683   3.418   6.624
 6141TIP3   OH218428   5.126   3.899   5.500
 6141TIP3    H118429   5.208   3.951   5.505
 6141TIP3    H218430   5.067   3.959   5.454
 6142TIP3   OH218431   5.888   2.470   5.279
 6142TIP3    H118432   5.804   2.493   5.323
 6142TIP3    H218433   5.905   2.551   5.226
 6143TIP3   OH218434   4.640   3.212   5.612
 6143TIP3    H118435   4.565   3.258   5.568
 6143TIP3    H218436   4.601   3.125   5.629
 6144TIP3   OH218437   5.698   3.837   4.830
 6144TIP3    H118438   5.705   3.933   4.814
 6144TIP3    H218439   5.790   3.808   4.813
 6145TIP3   OH218440   4.430   3.605   6.513
 6145TIP3    H118441   4.345   3.594   6.466
 6145TIP3    H218442   4.444   3.519   6.554
 6146TIP3   OH218443   4.265   3.788   6.168
 6146TIP3    H118444   4.361   3.797   6.164
 6146TIP3    H218445   4.241   3.873   6.210
 6147TIP3   OH218446   5.011   4.135   5.309
 6147TIP3    H118447   4.959   4.125   5.227
 6147TIP3    H218448   4.979   4.222   5.341
 6148TIP3   OH218449   4.443   3.997   5.693
 6148TIP3    H118450   4.488   3.992   5.781
 6148TIP3    H218451   4.399   3.911   5.688
 6149TIP3   OH218452   5.203   4.057   4.937
 6149TIP3    H118453   5.260   3.984   4.905
 6149TIP3    H218454   5.236   4.069   5.029
 6150TIP3   OH218455   5.258   4.106   5.201
 6150TIP3    H118456   5.172   4.110   5.249
 6150TIP3    H218457   5.321   4.094   5.274
 6151TIP3   OH218458   4.637   3.773   6.519
 6151TIP3    H118459   4.621   3.796   6.611
 6151TIP3    H218460   4.562   3.712   6.503
 6152TIP3   OH218461   5.021   2.615   6.297
 6152TIP3    H118462   4.932   2.586   6.266
 6152TIP3    H218463   4.994   2.691   6.352
 6153TIP3   OH218464   5.455   3.254   4.972
 6153TIP3    H118465   5.415   3.246   4.883
 6153TIP3    H218466   5.540   3.296   4.951
 6154TIP3   OH218467   5.167   2.640   5.280
 6154TIP3    H118468   5.127   2.640   5.369
 6154TIP3    H218469   5.121   2.563   5.242
 6155TIP3   OH218470   4.958   3.117   6.323
 6155TIP3    H118471   4.904   3.135   6.404
 6155TIP3    H218472   4.940   3.199   6.272
 6156TIP3   OH218473   4.836   3.005   5.838
 6156TIP3    H118474   4.743   2.981   5.858
 6156TIP3    H218475   4.844   2.964   5.749
 6157TIP3   OH218476   5.325   3.088   5.574
 6157TIP3    H118477   5.277   3.160   5.527
 6157TIP3    H218478   5.379   3.051   5.501
 6158TIP3   OH218479   5.477   3.110   5.806
 6158TIP3    H118480   5.411   3.132   5.736
 6158TIP3    H218481   5.519   3.034   5.761
 6159TIP3   OH218482   4.782   3.150   6.525
 6159TIP3    H118483   4.787   3.234   6.575
 6159TIP3    H218484   4.767   3.083   6.594
 6160TIP3   OH218485   4.831   2.627   5.244
 6160TIP3    H118486   4.813   2.629   5.340
 6160TIP3    H218487   4.752   2.677   5.212
 6161TIP3   OH218488   4.366   2.660   6.117
 6161TIP3    H118489   4.438   2.700   6.170
 6161TIP3    H218490   4.407   2.643   6.032
 6162TIP3   OH218491   4.311   2.644   5.631
 6162TIP3    H118492   4.354   2.681   5.550
 6162TIP3    H218493   4.249   2.717   5.650
 6163TIP3   OH218494   5.436   3.353   6.213
 6163TIP3    H118495   5.498   3.298   6.160
 6163TIP3    H218496   5.433   3.300   6.295
 6164TIP3   OH218497   5.179   2.808   5.893
 6164TIP3    H118498   5.096   2.815   5.946
 6164TIP3    H218499   5.246   2.815   5.963
 6165TIP3   OH218500   4.596   2.888   5.900
 6165TIP3    H118501   4.502   2.898   5.869
 6165TIP3    H218502   4.616   2.796   5.878
 6166TIP3   OH218503   4.854   2.874   5.600
 6166TIP3    H118504   4.947   2.892   5.576
 6166TIP3    H218505   4.805   2.897   5.518
 6167TIP3   OH218506   5.606   2.908   6.127
 6167TIP3    H118507   5.616   2.877   6.218
 6167TIP3    H218508   5.528   2.856   6.099
 6168TIP3   OH218509   4.723   2.911   5.368
 6168TIP3    H118510   4.655   2.865   5.316
 6168TIP3    H218511   4.775   2.954   5.296
 6169TIP3   OH218512   5.244   3.157   5.994
 6169TIP3    H118513   5.324   3.122   5.953
 6169TIP3    H218514   5.244   3.113   6.082
 6170TIP3   OH218515   4.756   2.639   5.886
 6170TIP3    H118516   4.718   2.566   5.942
 6170TIP3    H218517   4.773   2.591   5.804
 6171TIP3   OH218518   5.221   3.065   6.273
 6171TIP3    H118519   5.129   3.092   6.293
 6171TIP3    H218520   5.274   3.127   6.327
 6172TIP3   OH218521   4.960   3.436   5.381
 6172TIP3    H118522   4.885   3.374   5.365
 6172TIP3    H218523   4.934   3.473   5.469
 6173TIP3   OH218524   5.416   2.742   5.265
 6173TIP3    H118525   5.320   2.719   5.269
 6173TIP3    H218526   5.417   2.838   5.283
 6174TIP3   OH218527   5.475   3.005   5.355
 6174TIP3    H118528   5.571   3.017   5.368
 6174TIP3    H218529   5.450   3.084   5.304
 6175TIP3   OH218530   4.658   3.469   6.052
 6175TIP3    H118531   4.698   3.435   5.970
 6175TIP3    H218532   4.697   3.413   6.120
 6176TIP3   OH218533   5.104   3.591   5.209
 6176TIP3    H118534   5.053   3.676   5.209
 6176TIP3    H218535   5.050   3.536   5.270
 6177TIP3   OH218536   4.514   3.382   6.674
 6177TIP3    H118537   4.478   3.395   6.763
 6177TIP3    H218538   4.445   3.328   6.632
 6178TIP3   OH218539   5.914   3.102   5.182
 6178TIP3    H118540   5.857   3.057   5.115
 6178TIP3    H218541   5.911   3.192   5.144
 6179TIP3   OH218542   5.638   3.919   5.097
 6179TIP3    H118543   5.598   3.856   5.159
 6179TIP3    H218544   5.643   3.868   5.015
 6180TIP3   OH218545   5.578   3.571   5.907
 6180TIP3    H118546   5.493   3.523   5.907
 6180TIP3    H218547   5.639   3.501   5.879
 6181TIP3   OH218548   4.758   3.775   5.685
 6181TIP3    H118549   4.749   3.855   5.629
 6181TIP3    H218550   4.666   3.757   5.707
 6182TIP3   OH218551   4.330   3.069   5.403
 6182TIP3    H118552   4.367   3.158   5.423
 6182TIP3    H218553   4.248   3.072   5.458
 6183TIP3   OH218554   4.870   3.531   5.618
 6183TIP3    H118555   4.842   3.622   5.639
 6183TIP3    H218556   4.837   3.481   5.695
 6184TIP3   OH218557   5.030   4.123   6.153
 6184TIP3    H118558   5.036   4.221   6.146
 6184TIP3    H218559   5.093   4.108   6.226
 6185TIP3   OH218560   4.668   4.008   5.534
 6185TIP3    H118561   4.583   4.018   5.580
 6185TIP3    H218562   4.700   4.101   5.536
 6186TIP3   OH218563   5.413   3.735   6.100
 6186TIP3    H118564   5.483   3.738   6.167
 6186TIP3    H218565   5.455   3.675   6.034
 6187TIP3   OH218566   5.393   3.648   4.994
 6187TIP3    H118567   5.446   3.622   5.073
 6187TIP3    H218568   5.305   3.614   5.019
 6188TIP3   OH218569   5.724   4.115   4.807
 6188TIP3    H118570   5.759   4.199   4.770
 6188TIP3    H218571   5.641   4.148   4.846
 6189TIP3   OH218572   4.723   2.895   6.659
 6189TIP3    H118573   4.627   2.916   6.663
 6189TIP3    H218574   4.733   2.836   6.734
 6190TIP3   OH218575   5.552   3.572   5.201
 6190TIP3    H118576   5.541   3.507   5.273
 6190TIP3    H218577   5.649   3.569   5.190
 6191TIP3   OH218578   4.465   3.962   6.293
 6191TIP3    H118579   4.530   3.900   6.330
 6191TIP3    H218580   4.492   4.046   6.333
 6192TIP3   OH218581   4.748   3.619   4.994
 6192TIP3    H118582   4.756   3.524   4.973
 6192TIP3    H218583   4.724   3.615   5.089
 6193TIP3   OH218584   4.687   3.627   5.264
 6193TIP3    H118585   4.762   3.602   5.318
 6193TIP3    H218586   4.688   3.725   5.275
 6194TIP3   OH218587   4.421   3.317   5.476
 6194TIP3    H118588   4.352   3.363   5.529
 6194TIP3    H218589   4.431   3.382   5.403
 6195TIP3   OH218590   5.472   2.694   5.543
 6195TIP3    H118591   5.452   2.715   5.449
 6195TIP3    H218592   5.513   2.777   5.574
 6196TIP3   OH218593   4.962   3.820   5.211
 6196TIP3    H118594   4.874   3.840   5.249
 6196TIP3    H218595   4.979   3.903   5.164
 6197TIP3   OH218596   5.142   2.888   5.631
 6197TIP3    H118597   5.204   2.962   5.615
 6197TIP3    H218598   5.152   2.876   5.727
 6198TIP3   OH218599   5.423   3.190   6.431
 6198TIP3    H118600   5.416   3.239   6.514
 6198TIP3    H218601   5.487   3.121   6.450
 6199TIP3   OH218602   5.281   2.593   5.725
 6199TIP3    H118603   5.261   2.674   5.775
 6199TIP3    H218604   5.353   2.626   5.666
 6200TIP3   OH218605   4.712   3.898   5.288
 6200TIP3    H118606   4.683   3.969   5.228
 6200TIP3    H218607   4.696   3.939   5.376
 6201TIP3   OH218608   4.804   2.613   5.520
 6201TIP3    H118609   4.799   2.703   5.559
 6201TIP3    H218610   4.901   2.599   5.526
 6202TIP3   OH218611   5.708   3.300   5.805
 6202TIP3    H118612   5.628   3.249   5.824
 6202TIP3    H218613   5.777   3.248   5.851
 6203TIP3   OH218614   4.428   3.509   5.272
 6203TIP3    H118615   4.505   3.570   5.279
 6203TIP3    H218616   4.465   3.446   5.206
 6204TIP3   OH218617   4.356   2.796   5.407
 6204TIP3    H118618   4.365   2.893   5.412
 6204TIP3    H218619   4.278   2.786   5.351
 6205TIP3   OH218620   4.759   2.530   6.261
 6205TIP3    H118621   4.726   2.495   6.176
 6205TIP3    H218622   4.751   2.452   6.319
 6206TIP3   OH218623   4.276   3.735   5.654
 6206TIP3    H118624   4.234   3.770   5.735
 6206TIP3    H218625   4.231   3.787   5.583
 6207TIP3   OH218626   4.908   3.817   4.894
 6207TIP3    H118627   4.855   3.746   4.936
 6207TIP3    H218628   4.986   3.766   4.864
 6208TIP3   OH218629   5.346   3.852   4.819
 6208TIP3    H118630   5.376   3.784   4.884
 6208TIP3    H218631   5.408   3.841   4.746
 6209TIP3   OH218632   4.565   3.326   5.132
 6209TIP3    H118633   4.626   3.305   5.206
 6209TIP3    H218634   4.630   3.335   5.059
 6210TIP3   OH218635   5.098   3.542   4.940
 6210TIP3    H118636   5.089   3.553   5.037
 6210TIP3    H218637   5.093   3.444   4.932
 6211TIP3   OH218638   4.757   3.251   5.340
 6211TIP3    H118639   4.730   3.216   5.426
 6211TIP3    H218640   4.798   3.173   5.297
 6212TIP3   OH218641   4.874   3.048   5.184
 6212TIP3    H118642   4.847   3.061   5.090
 6212TIP3    H218643   4.971   3.049   5.175
 6213TIP3   OH218644   5.682   3.363   4.862
 6213TIP3    H118645   5.664   3.324   4.774
 6213TIP3    H218646   5.650   3.455   4.845
 6214TIP3   OH218647   5.180   2.856   6.482
 6214TIP3    H118648   5.195   2.924   6.414
 6214TIP3    H218649   5.082   2.851   6.483
 6215TIP3   OH218650   5.222   3.447   6.383
 6215TIP3    H118651   5.277   3.429   6.305
 6215TIP3    H218652   5.141   3.485   6.344
 6216TIP3   OH218653   5.346   2.641   6.492
 6216TIP3    H118654   5.291   2.722   6.481
 6216TIP3    H218655   5.274   2.579   6.517
 6217TIP3   OH218656   4.685   4.100   5.099
 6217TIP3    H118657   4.778   4.083   5.076
 6217TIP3    H218658   4.659   4.156   5.024
 6218TIP3   OH218659   4.156   3.485   5.303
 6218TIP3    H118660   4.252   3.502   5.290
 6218TIP3    H218661   4.147   3.396   5.262
 6219TIP3   OH218662   4.078   4.093   5.735
 6219TIP3    H118663   4.013   4.036   5.690
 6219TIP3    H218664   4.121   4.028   5.795
 6220TIP3   OH218665   4.209   3.921   5.909
 6220TIP3    H118666   4.189   3.865   5.987
 6220TIP3    H218667   4.264   3.990   5.953
 6221TIP3   OH218668   5.825   3.549   5.183
 6221TIP3    H118669   5.889   3.616   5.150
 6221TIP3    H218670   5.873   3.513   5.261
 6222TIP3   OH218671   5.954   3.411   5.382
 6222TIP3    H118672   5.887   3.379   5.447
 6222TIP3    H218673   6.021   3.454   5.440
 6223TIP3   OH218674   5.890   3.330   5.034
 6223TIP3    H118675   5.816   3.331   4.969
 6223TIP3    H218676   5.863   3.406   5.090
 6224TIP3   OH218677   5.764   2.996   4.981
 6224TIP3    H118678   5.708   3.030   4.910
 6224TIP3    H218679   5.747   2.900   4.972
 6225TIP3   OH218680   5.760   3.288   5.534
 6225TIP3    H118681   5.764   3.192   5.523
 6225TIP3    H218682   5.745   3.298   5.631
 6226TIP3   OH218683   4.386   3.340   6.292
 6226TIP3    H118684   4.377   3.305   6.200
 6226TIP3    H218685   4.484   3.344   6.300
 6227TIP3   OH218686   5.703   2.729   4.956
 6227TIP3    H118687   5.769   2.698   5.021
 6227TIP3    H218688   5.623   2.678   4.977
 6228TIP3   OH218689   5.759   3.015   5.417
 6228TIP3    H118690   5.792   2.922   5.415
 6228TIP3    H218691   5.815   3.054   5.347
 6229TIP3   OH218692   5.921   3.138   5.902
 6229TIP3    H118693   6.009   3.174   5.878
 6229TIP3    H218694   5.924   3.145   6.001
 6230TIP3   OH218695   5.843   2.755   5.433
 6230TIP3    H118696   5.895   2.732   5.512
 6230TIP3    H218697   5.779   2.681   5.431
 6231TIP3   OH218698   4.575   2.739   6.281
 6231TIP3    H118699   4.635   2.662   6.286
 6231TIP3    H218700   4.639   2.811   6.268
 6232TIP3   OH218701   4.380   3.003   6.360
 6232TIP3    H118702   4.429   3.003   6.275
 6232TIP3    H218703   4.399   3.092   6.393
 6233TIP3   OH218704   5.938   2.674   5.102
 6233TIP3    H118705   5.980   2.608   5.042
 6233TIP3    H218706   6.005   2.745   5.104
 6234TIP3   OH218707   4.360   2.501   5.857
 6234TIP3    H118708   4.270   2.493   5.891
 6234TIP3    H218709   4.347   2.561   5.780
 6235TIP3   OH218710   5.496   4.202   5.345
 6235TIP3    H118711   5.557   4.188   5.270
 6235TIP3    H218712   5.544   4.268   5.397
 6236TIP3   OH218713   4.576   2.557   6.635
 6236TIP3    H118714   4.583   2.586   6.727
 6236TIP3    H218715   4.509   2.618   6.597
 6237TIP3   OH218716   4.803   4.029   6.270
 6237TIP3    H118717   4.751   4.107   6.241
 6237TIP3    H218718   4.887   4.052   6.226
 6238TIP3   OH218719   4.452   4.291   6.276
 6238TIP3    H118720   4.361   4.331   6.271
 6238TIP3    H218721   4.483   4.332   6.359
 6239TIP3   OH218722   4.697   4.257   6.172
 6239TIP3    H118723   4.605   4.271   6.202
 6239TIP3    H218724   4.696   4.307   6.089
 6240TIP3   OH218725   4.379   4.093   6.049
 6240TIP3    H118726   4.400   4.075   6.143
 6240TIP3    H218727   4.458   4.053   6.006
 6241TIP3   OH218728   4.586   3.971   5.926
 6241TIP3    H118729   4.597   3.889   5.979
 6241TIP3    H218730   4.676   4.008   5.930
 6242TIP3   OH218731   4.856   4.058   5.936
 6242TIP3    H118732   4.877   3.963   5.929
 6242TIP3    H218733   4.912   4.083   6.011
 6243TIP3   OH218734   5.415   2.719   6.040
 6243TIP3    H118735   5.357   2.649   6.076
 6243TIP3    H218736   5.470   2.669   5.976
 6244TIP3   OH218737   5.859   2.608   5.812
 6244TIP3    H118738   5.910   2.648   5.739
 6244TIP3    H218739   5.875   2.674   5.883
 6245TIP3   OH218740   6.039   2.704   5.622
 6245TIP3    H118741   6.087   2.662   5.548
 6245TIP3    H218742   6.071   2.797   5.609
 6246TIP3   OH218743   4.663   2.425   6.026
 6246TIP3    H118744   4.570   2.393   6.032
 6246TIP3    H218745   4.710   2.339   6.016
 6247TIP3   OH218746   4.475   2.305   5.687
 6247TIP3    H118747   4.494   2.360   5.610
 6247TIP3    H218748   4.440   2.370   5.751
 6248TIP3   OH218749   5.119   2.453   5.907
 6248TIP3    H118750   5.174   2.498   5.841
 6248TIP3    H218751   5.130   2.510   5.984
 6249TIP3   OH218752   5.581   2.549   5.892
 6249TIP3    H118753   5.636   2.584   5.820
 6249TIP3    H218754   5.650   2.513   5.950
 6250TIP3   OH218755   5.677   2.538   5.447
 6250TIP3    H118756   5.598   2.584   5.483
 6250TIP3    H218757   5.658   2.447   5.478
 6251TIP3   OH218758   4.170   3.883   5.448
 6251TIP3    H118759   4.082   3.851   5.419
 6251TIP3    H218760   4.165   3.975   5.415
 6252TIP3   OH218761   4.581   2.450   5.444
 6252TIP3    H118762   4.627   2.389   5.383
 6252TIP3    H218763   4.655   2.506   5.476
 6253TIP3   OH218764   5.079   2.639   5.539
 6253TIP3    H118765   5.140   2.593   5.600
 6253TIP3    H218766   5.098   2.732   5.564
 6254TIP3   OH218767   4.946   4.044   5.040
 6254TIP3    H118768   5.032   4.070   5.000
 6254TIP3    H218769   4.924   3.968   4.981
 6255TIP3   OH218770   5.691   4.182   5.132
 6255TIP3    H118771   5.683   4.083   5.123
 6255TIP3    H218772   5.637   4.209   5.055
 6256TIP3   OH218773   4.247   3.889   5.092
 6256TIP3    H118774   4.252   3.893   5.188
 6256TIP3    H218775   4.331   3.843   5.070
 6257TIP3   OH218776   6.134   3.202   5.317
 6257TIP3    H118777   6.087   3.280   5.352
 6257TIP3    H218778   6.060   3.156   5.273
 6258TIP3   OH218779   6.184   3.489   5.503
 6258TIP3    H118780   6.226   3.427   5.566
 6258TIP3    H218781   6.255   3.506   5.442
 6259TIP3   OH218782   6.315   3.261   5.609
 6259TIP3    H118783   6.411   3.274   5.630
 6259TIP3    H218784   6.323   3.197   5.536
 6260TIP3   OH218785   6.009   3.716   5.059
 6260TIP3    H118786   5.970   3.742   4.974
 6260TIP3    H218787   6.038   3.803   5.094
 6261TIP3   OH218788   6.466   3.476   5.061
 6261TIP3    H118789   6.372   3.497   5.041
 6261TIP3    H218790   6.460   3.411   5.133
 6262TIP3   OH218791   6.568   3.300   5.293
 6262TIP3    H118792   6.509   3.235   5.336
 6262TIP3    H218793   6.622   3.240   5.238
 6263TIP3   OH218794   6.605   2.855   4.741
 6263TIP3    H118795   6.595   2.871   4.836
 6263TIP3    H218796   6.543   2.921   4.704
 6264TIP3   OH218797   6.176   2.926   5.568
 6264TIP3    H118798   6.234   2.952   5.643
 6264TIP3    H218799   6.239   2.884   5.508
 6265TIP3   OH218800   6.113   2.903   5.119
 6265TIP3    H118801   6.155   2.939   5.037
 6265TIP3    H218802   6.054   2.978   5.139
 6266TIP3   OH218803   6.381   3.115   5.376
 6266TIP3    H118804   6.294   3.152   5.346
 6266TIP3    H218805   6.372   3.023   5.349
 6267TIP3   OH218806   6.652   3.114   5.087
 6267TIP3    H118807   6.734   3.147   5.048
 6267TIP3    H218808   6.588   3.134   5.014
 6268TIP3   OH218809   6.512   3.157   4.862
 6268TIP3    H118810   6.442   3.114   4.809
 6268TIP3    H218811   6.562   3.203   4.791
 6269TIP3   OH218812   6.717   3.717   4.849
 6269TIP3    H118813   6.661   3.641   4.820
 6269TIP3    H218814   6.712   3.706   4.946
 6270TIP3   OH218815   6.119   3.325   4.883
 6270TIP3    H118816   6.162   3.410   4.907
 6270TIP3    H218817   6.040   3.328   4.942
 6271TIP3   OH218818   6.528   3.880   4.498
 6271TIP3    H118819   6.568   3.794   4.479
 6271TIP3    H218820   6.521   3.880   4.596
 6272TIP3   OH218821   6.517   3.888   4.775
 6272TIP3    H118822   6.595   3.832   4.795
 6272TIP3    H218823   6.530   3.958   4.843
 6273TIP3   OH218824   6.216   3.567   4.960
 6273TIP3    H118825   6.144   3.610   5.012
 6273TIP3    H218826   6.228   3.635   4.890
 6274TIP3   OH218827   6.588   2.848   5.027
 6274TIP3    H118828   6.602   2.938   5.062
 6274TIP3    H218829   6.682   2.823   5.008
 6275TIP3   OH218830   6.231   3.768   4.761
 6275TIP3    H118831   6.305   3.829   4.777
 6275TIP3    H218832   6.273   3.709   4.695
 6276TIP3   OH218833   6.154   3.053   4.893
 6276TIP3    H118834   6.164   3.151   4.899
 6276TIP3    H218835   6.076   3.046   4.838
 6277TIP3   OH218836   6.067   3.975   5.115
 6277TIP3    H118837   6.006   4.028   5.169
 6277TIP3    H218838   6.058   4.020   5.028
 6278TIP3   OH218839   6.675   4.111   4.420
 6278TIP3    H118840   6.661   4.016   4.441
 6278TIP3    H218841   6.769   4.122   4.449
 6279TIP3   OH218842   6.368   3.589   4.613
 6279TIP3    H118843   6.426   3.560   4.688
 6279TIP3    H218844   6.436   3.594   4.543
 6280TIP3   OH218845   6.830   3.812   4.417
 6280TIP3    H118846   6.862   3.806   4.510
 6280TIP3    H218847   6.872   3.732   4.381
 6281TIP3   OH218848   6.545   3.510   4.801
 6281TIP3    H118849   6.518   3.492   4.894
 6281TIP3    H218850   6.581   3.424   4.773
 6282TIP3   OH218851   6.656   3.290   4.672
 6282TIP3    H118852   6.627   3.300   4.578
 6282TIP3    H218853   6.750   3.273   4.659
 6283TIP3   OH218854   5.954   3.743   4.780
 6283TIP3    H118855   6.050   3.760   4.773
 6283TIP3    H218856   5.947   3.653   4.741
 6284TIP3   OH218857   1.970   0.638   1.550
 6284TIP3    H118858   1.978   0.551   1.506
 6284TIP3    H218859   2.050   0.642   1.604
 6285TIP3   OH218860   6.169   3.260   5.840
 6285TIP3    H118861   6.199   3.241   5.749
 6285TIP3    H218862   6.210   3.346   5.853
 6286TIP3   OH218863   6.110   2.736   5.333
 6286TIP3    H118864   6.014   2.748   5.346
 6286TIP3    H218865   6.128   2.806   5.267
 6287TIP3   OH218866   6.255   2.563   5.149
 6287TIP3    H118867   6.283   2.627   5.082
 6287TIP3    H218868   6.226   2.620   5.223
 6288TIP3   OH218869   5.996   4.123   4.897
 6288TIP3    H118870   5.901   4.119   4.876
 6288TIP3    H218871   6.001   4.206   4.948
 6289TIP3   OH218872   6.371   2.710   4.928
 6289TIP3    H118873   6.421   2.653   4.866
 6289TIP3    H218874   6.444   2.765   4.966
 6290TIP3   OH218875   6.045   4.153   4.595
 6290TIP3    H118876   6.006   4.183   4.679
 6290TIP3    H218877   6.123   4.106   4.627
 6291TIP3   OH218878   1.426   4.708   6.264
 6291TIP3    H118879   1.427   4.798   6.301
 6291TIP3    H218880   1.335   4.699   6.229
 6292TIP3   OH218881   1.671   4.227   6.306
 6292TIP3    H118882   1.749   4.235   6.366
 6292TIP3    H218883   1.714   4.242   6.220
 6293TIP3   OH218884   1.205   4.984   6.119
 6293TIP3    H118885   1.242   4.944   6.039
 6293TIP3    H218886   1.284   4.993   6.176
 6294TIP3   OH218887   1.876   4.258   6.485
 6294TIP3    H118888   1.945   4.204   6.528
 6294TIP3    H218889   1.919   4.345   6.492
 6295TIP3   OH218890   1.581   5.069   6.058
 6295TIP3    H118891   1.589   5.006   5.984
 6295TIP3    H218892   1.622   5.020   6.130
 6296TIP3   OH218893   1.234   4.596   6.085
 6296TIP3    H118894   1.151   4.640   6.057
 6296TIP3    H218895   1.281   4.583   6.000
 6297TIP3   OH218896   1.196   4.386   5.796
 6297TIP3    H118897   1.264   4.436   5.845
 6297TIP3    H218898   1.253   4.322   5.748
 6298TIP3   OH218899   2.045   4.766   6.636
 6298TIP3    H118900   2.047   4.842   6.696
 6298TIP3    H218901   2.089   4.807   6.558
 6299TIP3   OH218902   1.589   4.669   6.051
 6299TIP3    H118903   1.535   4.680   6.133
 6299TIP3    H218904   1.675   4.643   6.092
 6300TIP3   OH218905   1.415   4.538   5.887
 6300TIP3    H118906   1.479   4.593   5.936
 6300TIP3    H218907   1.444   4.554   5.794
 6301TIP3   OH218908   1.946   3.772   5.952
 6301TIP3    H118909   1.864   3.800   5.999
 6301TIP3    H218910   1.963   3.852   5.897
 6302TIP3   OH218911   1.740   5.133   5.497
 6302TIP3    H118912   1.743   5.230   5.480
 6302TIP3    H218913   1.832   5.108   5.477
 6303TIP3   OH218914   1.264   5.356   5.592
 6303TIP3    H118915   1.305   5.276   5.553
 6303TIP3    H218916   1.316   5.367   5.672
 6304TIP3   OH218917   1.501   4.570   5.638
 6304TIP3    H118918   1.459   4.555   5.551
 6304TIP3    H218919   1.591   4.600   5.610
 6305TIP3   OH218920   1.212   3.948   5.919
 6305TIP3    H118921   1.189   3.952   6.015
 6305TIP3    H218922   1.167   3.866   5.893
 6306TIP3   OH218923   1.361   4.376   6.204
 6306TIP3    H118924   1.320   4.456   6.166
 6306TIP3    H218925   1.422   4.348   6.134
 6307TIP3   OH218926   1.532   4.434   6.437
 6307TIP3    H118927   1.480   4.487   6.373
 6307TIP3    H218928   1.567   4.364   6.379
 6308TIP3   OH218929   0.884   3.929   5.910
 6308TIP3    H118930   0.862   3.919   6.005
 6308TIP3    H218931   0.813   3.989   5.880
 6309TIP3   OH218932   0.919   4.151   6.251
 6309TIP3    H118933   0.998   4.207   6.258
 6309TIP3    H218934   0.862   4.202   6.190
 6310TIP3   OH218935   0.766   4.261   6.051
 6310TIP3    H118936   0.694   4.203   6.022
 6310TIP3    H218937   0.816   4.274   5.968
 6311TIP3   OH218938   1.001   4.734   6.031
 6311TIP3    H118939   0.934   4.665   6.011
 6311TIP3    H218940   0.968   4.764   6.117
 6312TIP3   OH218941   1.461   4.050   5.913
 6312TIP3    H118942   1.365   4.028   5.916
 6312TIP3    H218943   1.464   4.145   5.937
 6313TIP3   OH218944   1.533   4.307   6.001
 6313TIP3    H118945   1.630   4.309   6.013
 6313TIP3    H218946   1.516   4.389   5.951
 6314TIP3   OH218947   1.139   4.894   5.856
 6314TIP3    H118948   1.080   4.969   5.848
 6314TIP3    H218949   1.090   4.837   5.920
 6315TIP3   OH218950   1.955   4.403   5.845
 6315TIP3    H118951   1.897   4.361   5.778
 6315TIP3    H218952   1.956   4.494   5.808
 6316TIP3   OH218953   1.671   5.203   5.758
 6316TIP3    H118954   1.639   5.130   5.812
 6316TIP3    H218955   1.684   5.162   5.671
 6317TIP3   OH218956   1.441   4.946   5.657
 6317TIP3    H118957   1.487   4.914   5.739
 6317TIP3    H218958   1.355   4.902   5.664
 6318TIP3   OH218959   1.754   5.409   5.471
 6318TIP3    H118960   1.759   5.472   5.397
 6318TIP3    H218961   1.680   5.450   5.522
 6319TIP3   OH218962   1.605   4.872   5.870
 6319TIP3    H118963   1.593   4.797   5.934
 6319TIP3    H218964   1.701   4.862   5.851
 6320TIP3   OH218965   0.811   4.888   5.676
 6320TIP3    H118966   0.810   4.793   5.652
 6320TIP3    H218967   0.775   4.888   5.767
 6321TIP3   OH218968   1.536   3.988   6.181
 6321TIP3    H118969   1.507   4.012   6.091
 6321TIP3    H218970   1.553   4.073   6.223
 6322TIP3   OH218971   1.199   4.198   6.330
 6322TIP3    H118972   1.257   4.256   6.276
 6322TIP3    H218973   1.225   4.232   6.419
 6323TIP3   OH218974   0.837   3.898   6.193
 6323TIP3    H118975   0.882   3.983   6.214
 6323TIP3    H218976   0.888   3.837   6.250
 6324TIP3   OH218977   1.766   4.594   6.447
 6324TIP3    H118978   1.686   4.546   6.476
 6324TIP3    H218979   1.834   4.567   6.512
 6325TIP3   OH218980   0.967   5.090   5.583
 6325TIP3    H118981   0.911   5.017   5.617
 6325TIP3    H218982   1.045   5.043   5.552
 6326TIP3   OH218983   1.395   5.148   5.474
 6326TIP3    H118984   1.431   5.081   5.536
 6326TIP3    H218985   1.453   5.139   5.396
 6327TIP3   OH218986   1.168   4.835   5.594
 6327TIP3    H118987   1.149   4.845   5.689
 6327TIP3    H218988   1.153   4.738   5.583
 6328TIP3   OH218989   0.827   4.527   6.021
 6328TIP3    H118990   0.782   4.455   6.067
 6328TIP3    H218991   0.869   4.475   5.949
 6329TIP3   OH218992   0.924   4.350   5.838
 6329TIP3    H118993   0.897   4.354   5.744
 6329TIP3    H218994   1.022   4.349   5.829
 6330TIP3   OH218995   1.730   4.665   5.523
 6330TIP3    H118996   1.714   4.624   5.436
 6330TIP3    H218997   1.694   4.755   5.503
 6331TIP3   OH218998   1.874   4.852   5.849
 6331TIP3    H118999   1.940   4.916   5.815
 6331TIP3    H219000   1.921   4.815   5.927
 6332TIP3   OH219001   2.002   4.725   6.050
 6332TIP3    H119002   1.938   4.682   6.110
 6332TIP3    H219003   2.072   4.756   6.112
 6333TIP3   OH219004   1.934   4.632   5.699
 6333TIP3    H119005   1.860   4.631   5.634
 6333TIP3    H219006   1.907   4.707   5.755
 6334TIP3   OH219007   1.800   4.305   5.645
 6334TIP3    H119008   1.754   4.324   5.562
 6334TIP3    H219009   1.786   4.208   5.649
 6335TIP3   OH219010   1.811   4.583   6.183
 6335TIP3    H119011   1.824   4.487   6.179
 6335TIP3    H219012   1.798   4.597   6.280
 6336TIP3   OH219013   1.748   4.039   5.636
 6336TIP3    H119014   1.818   3.999   5.690
 6336TIP3    H219015   1.673   3.978   5.645
 6337TIP3   OH219016   1.809   4.299   6.064
 6337TIP3    H119017   1.855   4.212   6.077
 6337TIP3    H219018   1.865   4.337   5.993
 6338TIP3   OH219019   1.976   4.502   6.596
 6338TIP3    H119020   2.066   4.485   6.559
 6338TIP3    H219021   1.992   4.594   6.626
 6339TIP3   OH219022   1.915   4.054   6.121
 6339TIP3    H119023   1.960   4.038   6.207
 6339TIP3    H219024   1.853   3.978   6.121
 6340TIP3   OH219025   1.987   3.965   5.767
 6340TIP3    H119026   2.028   3.903   5.704
 6340TIP3    H219027   2.050   4.040   5.768
 6341TIP3   OH219028   2.060   3.996   6.343
 6341TIP3    H119029   2.134   3.942   6.312
 6341TIP3    H219030   2.101   4.085   6.337
 6342TIP3   OH219031   1.746   3.832   6.124
 6342TIP3    H119032   1.666   3.886   6.146
 6342TIP3    H219033   1.721   3.747   6.165
 6343TIP3   OH219034   0.615   3.726   6.138
 6343TIP3    H119035   0.646   3.701   6.049
 6343TIP3    H219036   0.687   3.786   6.165
 6344TIP3   OH219037   1.176   3.958   6.194
 6344TIP3    H119038   1.117   3.911   6.255
 6344TIP3    H219039   1.193   4.041   6.243
 6345TIP3   OH219040   1.706   5.465   5.817
 6345TIP3    H119041   1.700   5.368   5.802
 6345TIP3    H219042   1.659   5.498   5.738
 6346TIP3   OH219043   3.203   5.006   5.736
 6346TIP3    H119044   3.161   5.091   5.711
 6346TIP3    H219045   3.131   4.943   5.718
 6347TIP3   OH219046   3.181   5.009   6.143
 6347TIP3    H119047   3.230   4.971   6.219
 6347TIP3    H219048   3.161   4.929   6.092
 6348TIP3   OH219049   2.507   4.890   6.474
 6348TIP3    H119050   2.532   4.843   6.555
 6348TIP3    H219051   2.593   4.895   6.428
 6349TIP3   OH219052   3.443   5.285   5.794
 6349TIP3    H119053   3.456   5.222   5.866
 6349TIP3    H219054   3.457   5.371   5.840
 6350TIP3   OH219055   2.502   5.320   6.207
 6350TIP3    H119056   2.468   5.228   6.219
 6350TIP3    H219057   2.589   5.300   6.170
 6351TIP3   OH219058   2.178   4.495   5.985
 6351TIP3    H119059   2.137   4.577   6.016
 6351TIP3    H219060   2.103   4.452   5.942
 6352TIP3   OH219061   2.235   4.786   6.180
 6352TIP3    H119062   2.289   4.711   6.214
 6352TIP3    H219063   2.301   4.835   6.128
 6353TIP3   OH219064   3.098   5.753   5.830
 6353TIP3    H119065   3.142   5.676   5.791
 6353TIP3    H219066   3.148   5.766   5.914
 6354TIP3   OH219067   3.010   5.221   6.181
 6354TIP3    H119068   3.059   5.139   6.156
 6354TIP3    H219069   3.088   5.275   6.205
 6355TIP3   OH219070   4.001   4.515   6.164
 6355TIP3    H119071   4.023   4.592   6.220
 6355TIP3    H219072   4.021   4.548   6.075
 6356TIP3   OH219073   2.744   4.381   6.182
 6356TIP3    H119074   2.743   4.451   6.114
 6356TIP3    H219075   2.699   4.309   6.132
 6357TIP3   OH219076   3.446   4.449   5.808
 6357TIP3    H119077   3.445   4.459   5.906
 6357TIP3    H219078   3.528   4.495   5.786
 6358TIP3   OH219079   2.394   4.590   6.276
 6358TIP3    H119080   2.473   4.567   6.328
 6358TIP3    H219081   2.408   4.532   6.197
 6359TIP3   OH219082   2.824   4.777   6.092
 6359TIP3    H119083   2.920   4.756   6.108
 6359TIP3    H219084   2.792   4.691   6.057
 6360TIP3   OH219085   4.042   4.715   6.347
 6360TIP3    H119086   3.958   4.752   6.312
 6360TIP3    H219087   4.050   4.774   6.425
 6361TIP3   OH219088   2.734   4.359   6.616
 6361TIP3    H119089   2.681   4.406   6.549
 6361TIP3    H219090   2.666   4.312   6.666
 6362TIP3   OH219091   3.061   5.212   5.610
 6362TIP3    H119092   3.048   5.205   5.514
 6362TIP3    H219093   3.020   5.298   5.629
 6363TIP3   OH219094   2.857   5.133   6.383
 6363TIP3    H119095   2.819   5.213   6.422
 6363TIP3    H219096   2.909   5.170   6.308
 6364TIP3   OH219097   2.619   4.481   6.398
 6364TIP3    H119098   2.685   4.553   6.414
 6364TIP3    H219099   2.663   4.438   6.320
 6365TIP3   OH219100   2.060   5.018   5.731
 6365TIP3    H119101   2.014   5.059   5.655
 6365TIP3    H219102   2.091   5.100   5.776
 6366TIP3   OH219103   3.455   5.527   5.918
 6366TIP3    H119104   3.374   5.530   5.974
 6366TIP3    H219105   3.490   5.617   5.927
 6367TIP3   OH219106   3.779   4.411   6.309
 6367TIP3    H119107   3.704   4.444   6.258
 6367TIP3    H219108   3.854   4.446   6.257
 6368TIP3   OH219109   3.092   4.067   6.324
 6368TIP3    H119110   3.075   3.973   6.344
 6368TIP3    H219111   3.016   4.109   6.370
 6369TIP3   OH219112   3.216   5.580   5.643
 6369TIP3    H119113   3.267   5.499   5.620
 6369TIP3    H219114   3.279   5.648   5.611
 6370TIP3   OH219115   3.347   5.363   5.553
 6370TIP3    H119116   3.342   5.278   5.507
 6370TIP3    H219117   3.387   5.335   5.639
 6371TIP3   OH219118   3.028   4.848   5.585
 6371TIP3    H119119   2.955   4.907   5.559
 6371TIP3    H219120   3.081   4.843   5.503
 6372TIP3   OH219121   2.987   4.647   5.286
 6372TIP3    H119122   3.055   4.694   5.338
 6372TIP3    H219123   3.044   4.583   5.238
 6373TIP3   OH219124   3.937   5.111   6.183
 6373TIP3    H119125   3.850   5.158   6.185
 6373TIP3    H219126   3.956   5.117   6.088
 6374TIP3   OH219127   3.383   4.933   5.546
 6374TIP3    H119128   3.328   4.958   5.625
 6374TIP3    H219129   3.466   4.906   5.592
 6375TIP3   OH219130   3.615   4.955   6.431
 6375TIP3    H119131   3.630   5.034   6.487
 6375TIP3    H219132   3.526   4.971   6.395
 6376TIP3   OH219133   2.622   4.919   5.968
 6376TIP3    H119134   2.581   4.858   5.903
 6376TIP3    H219135   2.695   4.863   6.004
 6377TIP3   OH219136   2.766   5.329   6.099
 6377TIP3    H119137   2.757   5.294   6.009
 6377TIP3    H219138   2.854   5.292   6.125
 6378TIP3   OH219139   2.734   4.898   6.321
 6378TIP3    H119140   2.771   4.865   6.235
 6378TIP3    H219141   2.784   4.982   6.334
 6379TIP3   OH219142   3.240   5.528   6.090
 6379TIP3    H119143   3.264   5.609   6.136
 6379TIP3    H219144   3.243   5.461   6.161
 6380TIP3   OH219145   3.208   4.801   5.380
 6380TIP3    H119146   3.274   4.855   5.429
 6380TIP3    H219147   3.237   4.814   5.287
 6381TIP3   OH219148   2.967   5.486   5.636
 6381TIP3    H119149   3.061   5.514   5.633
 6381TIP3    H219150   2.943   5.513   5.725
 6382TIP3   OH219151   3.733   4.022   5.432
 6382TIP3    H119152   3.652   4.047   5.481
 6382TIP3    H219153   3.748   4.104   5.380
 6383TIP3   OH219154   2.484   4.769   5.767
 6383TIP3    H119155   2.401   4.801   5.725
 6383TIP3    H219156   2.464   4.677   5.785
 6384TIP3   OH219157   3.540   5.394   4.982
 6384TIP3    H119158   3.549   5.491   4.965
 6384TIP3    H219159   3.631   5.363   4.962
 6385TIP3   OH219160   2.313   5.520   5.814
 6385TIP3    H119161   2.340   5.525   5.908
 6385TIP3    H219162   2.217   5.522   5.820
 6386TIP3   OH219163   3.044   5.613   5.097
 6386TIP3    H119164   3.099   5.540   5.060
 6386TIP3    H219165   3.083   5.623   5.186
 6387TIP3   OH219166   3.099   5.650   5.375
 6387TIP3    H119167   3.060   5.579   5.429
 6387TIP3    H219168   3.180   5.668   5.426
 6388TIP3   OH219169   2.863   4.156   6.457
 6388TIP3    H119170   2.773   4.128   6.428
 6388TIP3    H219171   2.845   4.248   6.482
 6389TIP3   OH219172   3.375   4.259   6.666
 6389TIP3    H119173   3.417   4.265   6.753
 6389TIP3    H219174   3.283   4.236   6.692
 6390TIP3   OH219175   3.609   4.718   6.587
 6390TIP3    H119176   3.692   4.742   6.631
 6390TIP3    H219177   3.611   4.778   6.510
 6391TIP3   OH219178   3.292   4.823   5.125
 6391TIP3    H119179   3.256   4.807   5.036
 6391TIP3    H219180   3.381   4.857   5.103
 6392TIP3   OH219181   3.001   4.205   5.431
 6392TIP3    H119182   2.968   4.202   5.523
 6392TIP3    H219183   2.962   4.122   5.396
 6393TIP3   OH219184   2.797   4.676   6.461
 6393TIP3    H119185   2.756   4.701   6.546
 6393TIP3    H219186   2.783   4.757   6.408
 6394TIP3   OH219187   2.677   4.565   5.990
 6394TIP3    H119188   2.587   4.534   6.012
 6394TIP3    H219189   2.689   4.521   5.903
 6395TIP3   OH219190   3.161   4.626   5.711
 6395TIP3    H119191   3.123   4.706   5.670
 6395TIP3    H219192   3.223   4.595   5.642
 6396TIP3   OH219193   3.269   4.712   5.965
 6396TIP3    H119194   3.251   4.661   5.884
 6396TIP3    H219195   3.324   4.648   6.016
 6397TIP3   OH219196   2.631   4.713   6.678
 6397TIP3    H119197   2.639   4.736   6.772
 6397TIP3    H219198   2.571   4.638   6.681
 6398TIP3   OH219199   2.661   4.182   5.392
 6398TIP3    H119200   2.651   4.183   5.489
 6398TIP3    H219201   2.585   4.237   5.365
 6399TIP3   OH219202   2.196   4.215   6.264
 6399TIP3    H119203   2.265   4.252   6.323
 6399TIP3    H219204   2.247   4.192   6.185
 6400TIP3   OH219205   2.147   4.198   5.779
 6400TIP3    H119206   2.198   4.234   5.702
 6400TIP3    H219207   2.092   4.276   5.798
 6401TIP3   OH219208   3.330   4.893   6.342
 6401TIP3    H119209   3.374   4.818   6.298
 6401TIP3    H219210   3.298   4.849   6.424
 6402TIP3   OH219211   2.996   4.404   6.043
 6402TIP3    H119212   2.943   4.389   6.122
 6402TIP3    H219213   3.078   4.355   6.064
 6403TIP3   OH219214   2.440   4.443   6.048
 6403TIP3    H119215   2.346   4.446   6.017
 6403TIP3    H219216   2.466   4.351   6.029
 6404TIP3   OH219217   2.689   4.432   5.752
 6404TIP3    H119218   2.785   4.446   5.739
 6404TIP3    H219219   2.651   4.457   5.664
 6405TIP3   OH219220   2.559   4.480   5.514
 6405TIP3    H119221   2.495   4.428   5.461
 6405TIP3    H219222   2.614   4.518   5.443
 6406TIP3   OH219223   3.082   4.717   6.155
 6406TIP3    H119224   3.145   4.716   6.080
 6406TIP3    H219225   3.111   4.638   6.203
 6407TIP3   OH219226   2.594   4.199   6.035
 6407TIP3    H119227   2.557   4.125   6.087
 6407TIP3    H219228   2.644   4.151   5.967
 6408TIP3   OH219229   3.058   4.591   6.461
 6408TIP3    H119230   2.970   4.633   6.448
 6408TIP3    H219231   3.115   4.667   6.482
 6409TIP3   OH219232   2.781   5.006   5.517
 6409TIP3    H119233   2.715   4.935   5.509
 6409TIP3    H219234   2.765   5.035   5.611
 6410TIP3   OH219235   3.684   5.216   6.161
 6410TIP3    H119236   3.705   5.281   6.090
 6410TIP3    H219237   3.600   5.179   6.130
 6411TIP3   OH219238   3.249   4.311   5.391
 6411TIP3    H119239   3.155   4.286   5.412
 6411TIP3    H219240   3.258   4.401   5.428
 6412TIP3   OH219241   3.326   4.558   5.501
 6412TIP3    H119242   3.420   4.559   5.529
 6412TIP3    H219243   3.318   4.643   5.454
 6413TIP3   OH219244   2.499   5.044   6.184
 6413TIP3    H119245   2.546   5.000   6.110
 6413TIP3    H219246   2.522   4.988   6.259
 6414TIP3   OH219247   2.949   5.148   5.356
 6414TIP3    H119248   2.897   5.232   5.355
 6414TIP3    H219249   2.893   5.093   5.415
 6415TIP3   OH219250   3.756   4.657   5.328
 6415TIP3    H119251   3.693   4.615   5.264
 6415TIP3    H219252   3.752   4.748   5.293
 6416TIP3   OH219253   3.454   5.470   5.243
 6416TIP3    H119254   3.440   5.399   5.307
 6416TIP3    H219255   3.478   5.421   5.162
 6417TIP3   OH219256   3.444   5.099   6.073
 6417TIP3    H119257   3.351   5.072   6.070
 6417TIP3    H219258   3.486   5.018   6.034
 6418TIP3   OH219259   2.596   5.335   5.840
 6418TIP3    H119260   2.582   5.404   5.774
 6418TIP3    H219261   2.506   5.320   5.872
 6419TIP3   OH219262   2.156   4.629   5.537
 6419TIP3    H119263   2.202   4.709   5.569
 6419TIP3    H219264   2.079   4.627   5.599
 6420TIP3   OH219265   2.704   5.089   5.762
 6420TIP3    H119266   2.675   5.177   5.794
 6420TIP3    H219267   2.683   5.033   5.839
 6421TIP3   OH219268   2.525   5.588   5.666
 6421TIP3    H119269   2.435   5.569   5.702
 6421TIP3    H219270   2.554   5.655   5.729
 6422TIP3   OH219271   3.262   5.299   6.259
 6422TIP3    H119272   3.298   5.275   6.345
 6422TIP3    H219273   3.319   5.249   6.198
 6423TIP3   OH219274   3.237   5.207   5.152
 6423TIP3    H119275   3.295   5.183   5.228
 6423TIP3    H219276   3.153   5.167   5.181
 6424TIP3   OH219277   3.569   5.675   4.959
 6424TIP3    H119278   3.608   5.757   4.923
 6424TIP3    H219279   3.484   5.712   4.991
 6425TIP3   OH219280   3.397   5.136   5.362
 6425TIP3    H119281   3.386   5.065   5.429
 6425TIP3    H219282   3.494   5.128   5.347
 6426TIP3   OH219283   2.578   5.181   5.146
 6426TIP3    H119284   2.601   5.090   5.121
 6426TIP3    H219285   2.567   5.171   5.243
 6427TIP3   OH219286   2.538   5.174   5.418
 6427TIP3    H119287   2.617   5.139   5.462
 6427TIP3    H219288   2.547   5.271   5.434
 6428TIP3   OH219289   2.259   4.867   5.625
 6428TIP3    H119290   2.188   4.911   5.677
 6428TIP3    H219291   2.283   4.938   5.565
 6429TIP3   OH219292   3.393   4.536   6.580
 6429TIP3    H119293   3.483   4.573   6.570
 6429TIP3    H219294   3.407   4.440   6.574
 6430TIP3   OH219295   3.312   4.246   5.686
 6430TIP3    H119296   3.303   4.279   5.595
 6430TIP3    H219297   3.358   4.322   5.730
 6431TIP3   OH219298   2.799   5.371   5.351
 6431TIP3    H119299   2.718   5.402   5.397
 6431TIP3    H219300   2.810   5.441   5.285
 6432TIP3   OH219301   2.963   4.453   5.778
 6432TIP3    H119302   3.035   4.516   5.758
 6432TIP3    H219303   2.977   4.442   5.876
 6433TIP3   OH219304   3.250   4.760   6.563
 6433TIP3    H119305   3.248   4.774   6.658
 6433TIP3    H219306   3.299   4.674   6.560
 6434TIP3   OH219307   3.139   4.138   5.872
 6434TIP3    H119308   3.177   4.180   5.952
 6434TIP3    H219309   3.197   4.179   5.803
 6435TIP3   OH219310   2.551   5.453   5.434
 6435TIP3    H119311   2.499   5.512   5.377
 6435TIP3    H219312   2.543   5.501   5.520
 6436TIP3   OH219313   2.649   4.171   5.667
 6436TIP3    H119314   2.642   4.258   5.710
 6436TIP3    H219315   2.745   4.156   5.675
 6437TIP3   OH219316   3.529   4.859   5.963
 6437TIP3    H119317   3.464   4.790   5.982
 6437TIP3    H219318   3.613   4.817   5.994
 6438TIP3   OH219319   2.266   5.072   5.408
 6438TIP3    H119320   2.314   5.152   5.435
 6438TIP3    H219321   2.343   5.021   5.373
 6439TIP3   OH219322   2.198   4.357   5.561
 6439TIP3    H119323   2.202   4.455   5.560
 6439TIP3    H219324   2.124   4.339   5.504
 6440TIP3   OH219325   3.553   5.796   5.884
 6440TIP3    H119326   3.509   5.852   5.817
 6440TIP3    H219327   3.640   5.780   5.844
 6441TIP3   OH219328   2.599   4.070   6.422
 6441TIP3    H119329   2.571   4.046   6.332
 6441TIP3    H219330   2.578   3.988   6.471
 6442TIP3   OH219331   2.092   5.275   5.796
 6442TIP3    H119332   2.038   5.308   5.868
 6442TIP3    H219333   2.067   5.335   5.722
 6443TIP3   OH219334   2.753   5.380   5.052
 6443TIP3    H119335   2.704   5.304   5.090
 6443TIP3    H219336   2.828   5.334   5.008
 6444TIP3   OH219337   3.183   5.408   4.971
 6444TIP3    H119338   3.218   5.344   5.037
 6444TIP3    H219339   3.246   5.400   4.898
 6445TIP3   OH219340   2.404   4.878   5.281
 6445TIP3    H119341   2.461   4.843   5.354
 6445TIP3    H219342   2.472   4.881   5.209
 6446TIP3   OH219343   2.916   5.093   5.089
 6446TIP3    H119344   2.923   5.104   5.186
 6446TIP3    H219345   2.923   4.995   5.081
 6447TIP3   OH219346   2.585   4.806   5.481
 6447TIP3    H119347   2.571   4.771   5.571
 6447TIP3    H219348   2.636   4.734   5.438
 6448TIP3   OH219349   2.715   4.612   5.332
 6448TIP3    H119350   2.695   4.618   5.236
 6448TIP3    H219351   2.813   4.610   5.328
 6449TIP3   OH219352   3.520   4.924   5.011
 6449TIP3    H119353   3.505   4.882   4.924
 6449TIP3    H219354   3.486   5.014   4.992
 6450TIP3   OH219355   2.997   4.425   6.675
 6450TIP3    H119356   3.036   4.477   6.600
 6450TIP3    H219357   2.905   4.416   6.645
 6451TIP3   OH219358   3.043   5.005   6.544
 6451TIP3    H119359   3.107   4.973   6.479
 6451TIP3    H219360   2.972   5.043   6.489
 6452TIP3   OH219361   3.124   4.192   6.747
 6452TIP3    H119362   3.076   4.277   6.730
 6452TIP3    H219363   3.070   4.128   6.698
 6453TIP3   OH219364   2.539   5.701   5.263
 6453TIP3    H119365   2.605   5.644   5.219
 6453TIP3    H219366   2.497   5.739   5.184
 6454TIP3   OH219367   1.995   5.050   5.446
 6454TIP3    H119368   2.092   5.063   5.442
 6454TIP3    H219369   1.985   4.957   5.418
 6455TIP3   OH219370   3.668   5.108   5.338
 6455TIP3    H119371   3.736   5.171   5.305
 6455TIP3    H219372   3.713   5.071   5.417
 6456TIP3   OH219373   3.789   4.974   5.542
 6456TIP3    H119374   3.725   4.935   5.606
 6456TIP3    H219375   3.860   5.006   5.602
 6457TIP3   OH219376   3.801   5.381   5.976
 6457TIP3    H119377   3.861   5.315   5.935
 6457TIP3    H219378   3.863   5.453   5.999
 6458TIP3   OH219379   3.729   4.889   5.184
 6458TIP3    H119380   3.654   4.890   5.121
 6458TIP3    H219381   3.702   4.964   5.242
 6459TIP3   OH219382   3.597   4.557   5.127
 6459TIP3    H119383   3.546   4.578   5.048
 6459TIP3    H219384   3.585   4.459   5.128
 6460TIP3   OH219385   3.599   4.843   5.692
 6460TIP3    H119386   3.611   4.747   5.685
 6460TIP3    H219387   3.578   4.854   5.788
 6461TIP3   OH219388   2.206   4.883   6.447
 6461TIP3    H119389   2.215   4.870   6.351
 6461TIP3    H219390   2.295   4.915   6.471
 6462TIP3   OH219391   3.547   4.288   5.107
 6462TIP3    H119392   3.615   4.256   5.171
 6462TIP3    H219393   3.469   4.234   5.130
 6463TIP3   OH219394   3.606   4.560   5.565
 6463TIP3    H119395   3.643   4.470   5.584
 6463TIP3    H219396   3.666   4.589   5.494
 6464TIP3   OH219397   3.770   4.765   6.038
 6464TIP3    H119398   3.863   4.783   6.014
 6464TIP3    H219399   3.777   4.778   6.135
 6465TIP3   OH219400   3.830   4.871   6.283
 6465TIP3    H119401   3.753   4.906   6.331
 6465TIP3    H219402   3.872   4.953   6.249
 6466TIP3   OH219403   3.715   4.307   5.609
 6466TIP3    H119404   3.761   4.291   5.695
 6466TIP3    H219405   3.651   4.233   5.609
 6467TIP3   OH219406   2.419   4.280   6.404
 6467TIP3    H119407   2.483   4.208   6.423
 6467TIP3    H219408   2.474   4.359   6.412
 6468TIP3   OH219409   2.219   4.555   6.495
 6468TIP3    H119410   2.274   4.574   6.417
 6468TIP3    H219411   2.200   4.643   6.529
 6469TIP3   OH219412   3.779   4.228   5.253
 6469TIP3    H119413   3.820   4.163   5.192
 6469TIP3    H219414   3.846   4.299   5.255
 6470TIP3   OH219415   2.202   4.056   6.002
 6470TIP3    H119416   2.114   4.054   6.044
 6470TIP3    H219417   2.187   4.117   5.927
 6471TIP3   OH219418   3.343   5.779   5.509
 6471TIP3    H119419   3.405   5.771   5.433
 6471TIP3    H219420   3.398   5.829   5.572
 6472TIP3   OH219421   4.050   4.355   6.520
 6472TIP3    H119422   3.957   4.353   6.495
 6472TIP3    H219423   4.074   4.260   6.519
 6473TIP3   OH219424   3.231   5.856   6.058
 6473TIP3    H119425   3.188   5.850   6.146
 6473TIP3    H219426   3.279   5.941   6.068
 6474TIP3   OH219427   2.430   5.534   6.059
 6474TIP3    H119428   2.435   5.456   6.119
 6474TIP3    H219429   2.525   5.550   6.044
 6475TIP3   OH219430   2.701   5.593   6.057
 6475TIP3    H119431   2.737   5.501   6.058
 6475TIP3    H219432   2.733   5.626   6.142
 6476TIP3   OH219433   3.217   4.262   6.107
 6476TIP3    H119434   3.229   4.205   6.184
 6476TIP3    H219435   3.291   4.326   6.117
 6477TIP3   OH219436   3.779   4.147   6.061
 6477TIP3    H119437   3.810   4.209   5.991
 6477TIP3    H219438   3.683   4.170   6.066
 6478TIP3   OH219439   3.874   4.260   5.828
 6478TIP3    H119440   3.950   4.204   5.801
 6478TIP3    H219441   3.913   4.349   5.813
 6479TIP3   OH219442   2.505   3.983   6.177
 6479TIP3    H119443   2.411   3.956   6.174
 6479TIP3    H219444   2.550   3.896   6.178
 6480TIP3   OH219445   2.310   3.860   5.840
 6480TIP3    H119446   2.337   3.914   5.764
 6480TIP3    H219447   2.280   3.928   5.904
 6481TIP3   OH219448   2.966   4.019   6.069
 6481TIP3    H119449   3.009   4.064   5.994
 6481TIP3    H219450   3.019   4.050   6.144
 6482TIP3   OH219451   3.508   4.148   6.043
 6482TIP3    H119452   3.482   4.111   5.959
 6482TIP3    H219453   3.476   4.081   6.107
 6483TIP3   OH219454   3.531   4.097   5.610
 6483TIP3    H119455   3.450   4.143   5.639
 6483TIP3    H219456   3.517   4.009   5.651
 6484TIP3   OH219457   2.014   5.437   5.589
 6484TIP3    H119458   1.922   5.413   5.568
 6484TIP3    H219459   2.015   5.527   5.551
 6485TIP3   OH219460   2.425   4.012   5.593
 6485TIP3    H119461   2.469   3.949   5.532
 6485TIP3    H219462   2.501   4.064   5.625
 6486TIP3   OH219463   2.924   4.197   5.695
 6486TIP3    H119464   2.989   4.155   5.754
 6486TIP3    H219465   2.939   4.292   5.719
 6487TIP3   OH219466   2.784   5.613   5.189
 6487TIP3    H119467   2.876   5.634   5.160
 6487TIP3    H219468   2.767   5.539   5.127
 6488TIP3   OH219469   3.496   5.733   5.285
 6488TIP3    H119470   3.489   5.635   5.274
 6488TIP3    H219471   3.453   5.763   5.202
 6489TIP3   OH219472   2.088   5.426   5.236
 6489TIP3    H119473   2.078   5.462   5.325
 6489TIP3    H219474   2.180   5.393   5.235
 6490TIP3   OH219475   3.979   4.756   5.461
 6490TIP3    H119476   3.934   4.830   5.504
 6490TIP3    H219477   3.902   4.708   5.425
 6491TIP3   OH219478   4.023   5.039   5.660
 6491TIP3    H119479   4.056   4.956   5.702
 6491TIP3    H219480   4.093   5.057   5.598
 6492TIP3   OH219481   4.547   4.644   5.666
 6492TIP3    H119482   4.525   4.710   5.598
 6492TIP3    H219483   4.496   4.567   5.632
 6493TIP3   OH219484   5.239   4.688   5.296
 6493TIP3    H119485   5.246   4.730   5.383
 6493TIP3    H219486   5.280   4.754   5.236
 6494TIP3   OH219487   4.141   4.813   5.747
 6494TIP3    H119488   4.206   4.863   5.802
 6494TIP3    H219489   4.197   4.760   5.688
 6495TIP3   OH219490   4.597   5.043   5.540
 6495TIP3    H119491   4.690   5.021   5.548
 6495TIP3    H219492   4.557   4.956   5.520
 6496TIP3   OH219493   4.543   4.602   6.089
 6496TIP3    H119494   4.484   4.658   6.035
 6496TIP3    H219495   4.529   4.634   6.179
 6497TIP3   OH219496   4.413   4.745   5.890
 6497TIP3    H119497   4.407   4.842   5.883
 6497TIP3    H219498   4.473   4.719   5.817
 6498TIP3   OH219499   3.856   5.272   5.216
 6498TIP3    H119500   3.816   5.307   5.135
 6498TIP3    H219501   3.884   5.357   5.260
 6499TIP3   OH219502   4.865   4.322   5.789
 6499TIP3    H119503   4.865   4.232   5.825
 6499TIP3    H219504   4.793   4.363   5.843
 6500TIP3   OH219505   4.825   5.104   5.069
 6500TIP3    H119506   4.746   5.159   5.056
 6500TIP3    H219507   4.856   5.091   4.978
 6501TIP3   OH219508   4.786   4.901   4.782
 6501TIP3    H119509   4.862   4.947   4.824
 6501TIP3    H219510   4.835   4.837   4.727
 6502TIP3   OH219511   4.387   5.183   5.440
 6502TIP3    H119512   4.357   5.122   5.370
 6502TIP3    H219513   4.465   5.134   5.476
 6503TIP3   OH219514   5.002   5.050   4.861
 6503TIP3    H119515   5.060   5.105   4.918
 6503TIP3    H219516   5.034   5.076   4.771
 6504TIP3   OH219517   5.529   4.273   4.928
 6504TIP3    H119518   5.445   4.295   4.974
 6504TIP3    H219519   5.535   4.348   4.864
 6505TIP3   OH219520   4.281   5.021   5.233
 6505TIP3    H119521   4.197   5.057   5.196
 6505TIP3    H219522   4.253   4.935   5.268
 6506TIP3   OH219523   4.052   5.819   5.317
 6506TIP3    H119524   4.132   5.843   5.367
 6506TIP3    H219525   4.005   5.762   5.381
 6507TIP3   OH219526   4.804   5.801   4.593
 6507TIP3    H119527   4.860   5.743   4.536
 6507TIP3    H219528   4.800   5.747   4.674
 6508TIP3   OH219529   4.664   4.409   5.949
 6508TIP3    H119530   4.575   4.380   5.916
 6508TIP3    H219531   4.633   4.487   6.002
 6509TIP3   OH219532   5.090   5.107   4.615
 6509TIP3    H119533   5.048   5.080   4.531
 6509TIP3    H219534   5.182   5.123   4.585
 6510TIP3   OH219535   4.798   4.457   4.917
 6510TIP3    H119536   4.765   4.454   5.009
 6510TIP3    H219537   4.756   4.375   4.882
 6511TIP3   OH219538   4.468   4.815   5.470
 6511TIP3    H119539   4.379   4.780   5.491
 6511TIP3    H219540   4.481   4.770   5.383
 6512TIP3   OH219541   4.942   4.882   5.187
 6512TIP3    H119542   4.902   4.961   5.146
 6512TIP3    H219543   5.003   4.852   5.117
 6513TIP3   OH219544   4.452   4.439   4.874
 6513TIP3    H119545   4.445   4.438   4.972
 6513TIP3    H219546   4.373   4.491   4.850
 6514TIP3   OH219547   4.010   4.476   5.741
 6514TIP3    H119548   4.078   4.514   5.800
 6514TIP3    H219549   4.062   4.447   5.665
 6515TIP3   OH219550   3.950   4.458   5.262
 6515TIP3    H119551   4.004   4.495   5.189
 6515TIP3    H219552   3.892   4.534   5.282
 6516TIP3   OH219553   4.787   4.689   5.534
 6516TIP3    H119554   4.715   4.664   5.595
 6516TIP3    H219555   4.855   4.621   5.555
 6517TIP3   OH219556   4.238   4.691   5.520
 6517TIP3    H119557   4.143   4.700   5.495
 6517TIP3    H219558   4.256   4.596   5.506
 6518TIP3   OH219559   4.484   4.683   5.234
 6518TIP3    H119560   4.580   4.698   5.220
 6518TIP3    H219561   4.444   4.710   5.148
 6519TIP3   OH219562   4.353   4.737   5.002
 6519TIP3    H119563   4.274   4.696   4.963
 6519TIP3    H219564   4.404   4.764   4.923
 6520TIP3   OH219565   4.393   4.450   5.531
 6520TIP3    H119566   4.353   4.378   5.585
 6520TIP3    H219567   4.438   4.397   5.464
 6521TIP3   OH219568   4.594   5.259   5.011
 6521TIP3    H119569   4.524   5.192   4.998
 6521TIP3    H219570   4.574   5.290   5.103
 6522TIP3   OH219571   5.045   4.558   4.884
 6522TIP3    H119572   4.950   4.533   4.897
 6522TIP3    H219573   5.047   4.652   4.911
 6523TIP3   OH219574   5.106   4.812   4.978
 6523TIP3    H119575   5.201   4.812   5.002
 6523TIP3    H219576   5.094   4.899   4.934
 6524TIP3   OH219577   4.356   5.259   5.715
 6524TIP3    H119578   4.343   5.229   5.622
 6524TIP3    H219579   4.302   5.196   5.766
 6525TIP3   OH219580   4.735   5.408   4.827
 6525TIP3    H119581   4.694   5.497   4.839
 6525TIP3    H219582   4.693   5.357   4.899
 6526TIP3   OH219583   5.563   4.886   4.733
 6526TIP3    H119584   5.482   4.856   4.687
 6526TIP3    H219585   5.572   4.976   4.698
 6527TIP3   OH219586   4.405   5.589   5.303
 6527TIP3    H119587   4.395   5.668   5.247
 6527TIP3    H219588   4.320   5.590   5.350
 6528TIP3   OH219589   3.955   4.887   5.030
 6528TIP3    H119590   3.998   4.972   5.056
 6528TIP3    H219591   3.877   4.889   5.090
 6529TIP3   OH219592   4.517   5.344   5.253
 6529TIP3    H119593   4.475   5.431   5.271
 6529TIP3    H219594   4.480   5.291   5.326
 6530TIP3   OH219595   4.261   5.792   5.140
 6530TIP3    H119596   4.171   5.789   5.176
 6530TIP3    H219597   4.292   5.876   5.176
 6531TIP3   OH219598   5.011   5.455   4.621
 6531TIP3    H119599   5.050   5.439   4.708
 6531TIP3    H219600   4.923   5.417   4.633
 6532TIP3   OH219601   4.372   5.433   4.635
 6532TIP3    H119602   4.401   5.342   4.626
 6532TIP3    H219603   4.348   5.434   4.730
 6533TIP3   OH219604   4.329   5.431   4.904
 6533TIP3    H119605   4.402   5.406   4.961
 6533TIP3    H219606   4.331   5.529   4.910
 6534TIP3   OH219607   4.056   5.127   5.109
 6534TIP3    H119608   3.987   5.169   5.165
 6534TIP3    H219609   4.067   5.196   5.041
 6535TIP3   OH219610   5.101   4.492   5.166
 6535TIP3    H119611   5.086   4.526   5.076
 6535TIP3    H219612   5.145   4.569   5.210
 6536TIP3   OH219613   4.610   5.653   4.839
 6536TIP3    H119614   4.523   5.653   4.883
 6536TIP3    H219615   4.598   5.736   4.790
 6537TIP3   OH219616   4.757   4.703   5.264
 6537TIP3    H119617   4.826   4.768   5.239
 6537TIP3    H219618   4.766   4.705   5.362
 6538TIP3   OH219619   4.927   4.392   5.352
 6538TIP3    H119620   4.960   4.439   5.431
 6538TIP3    H219621   4.988   4.428   5.283
 6539TIP3   OH219622   4.344   5.699   4.900
 6539TIP3    H119623   4.313   5.771   4.840
 6539TIP3    H219624   4.314   5.736   4.987
 6540TIP3   OH219625   4.445   4.424   5.150
 6540TIP3    H119626   4.437   4.511   5.195
 6540TIP3    H219627   4.541   4.409   5.162
 6541TIP3   OH219628   4.065   5.322   4.908
 6541TIP3    H119629   4.136   5.387   4.923
 6541TIP3    H219630   4.112   5.264   4.845
 6542TIP3   OH219631   4.005   4.617   5.038
 6542TIP3    H119632   4.000   4.715   5.043
 6542TIP3    H219633   3.918   4.594   5.002
 6543TIP3   OH219634   4.403   4.331   5.901
 6543TIP3    H119635   4.367   4.296   5.817
 6543TIP3    H219636   4.386   4.257   5.963
 6544TIP3   OH219637   3.896   5.526   5.295
 6544TIP3    H119638   3.874   5.576   5.375
 6544TIP3    H219639   3.867   5.587   5.223
 6545TIP3   OH219640   4.526   5.629   4.526
 6545TIP3    H119641   4.473   5.559   4.570
 6545TIP3    H219642   4.609   5.583   4.509
 6546TIP3   OH219643   4.983   5.667   4.453
 6546TIP3    H119644   5.028   5.599   4.508
 6546TIP3    H219645   5.028   5.660   4.366
 6547TIP3   OH219646   4.217   5.141   4.766
 6547TIP3    H119647   4.271   5.124   4.847
 6547TIP3    H219648   4.278   5.108   4.698
 6548TIP3   OH219649   4.719   5.347   4.566
 6548TIP3    H119650   4.716   5.361   4.664
 6548TIP3    H219651   4.726   5.249   4.562
 6549TIP3   OH219652   4.394   5.064   4.967
 6549TIP3    H119653   4.364   5.037   5.056
 6549TIP3    H219654   4.433   4.982   4.932
 6550TIP3   OH219655   4.520   4.845   4.812
 6550TIP3    H119656   4.525   4.792   4.731
 6550TIP3    H219657   4.615   4.868   4.822
 6551TIP3   OH219658   5.329   5.183   4.507
 6551TIP3    H119659   5.313   5.141   4.420
 6551TIP3    H219660   5.307   5.277   4.487
 6552TIP3   OH219661   4.289   5.909   4.729
 6552TIP3    H119662   4.387   5.909   4.726
 6552TIP3    H219663   4.272   5.974   4.659
 6553TIP3   OH219664   3.792   5.300   4.924
 6553TIP3    H119665   3.889   5.318   4.923
 6553TIP3    H219666   3.790   5.210   4.886
 6554TIP3   OH219667   3.703   5.897   5.343
 6554TIP3    H119668   3.633   5.835   5.313
 6554TIP3    H219669   3.756   5.837   5.399
 6555TIP3   OH219670   3.854   5.740   5.520
 6555TIP3    H119671   3.851   5.696   5.606
 6555TIP3    H219672   3.864   5.834   5.549
 6556TIP3   OH219673   5.506   5.165   4.706
 6556TIP3    H119674   5.432   5.170   4.640
 6556TIP3    H219675   5.583   5.171   4.648
 6557TIP3   OH219676   5.344   4.811   4.583
 6557TIP3    H119677   5.292   4.813   4.501
 6557TIP3    H219678   5.343   4.714   4.598
 6558TIP3   OH219679   3.986   5.183   5.896
 6558TIP3    H119680   3.972   5.146   5.806
 6558TIP3    H219681   4.074   5.145   5.913
 6559TIP3   OH219682   5.333   4.540   4.589
 6559TIP3    H119683   5.397   4.504   4.654
 6559TIP3    H219684   5.253   4.487   4.606
 6560TIP3   OH219685   5.373   4.782   5.066
 6560TIP3    H119686   5.420   4.697   5.062
 6560TIP3    H219687   5.444   4.847   5.053
 6561TIP3   OH219688   5.523   4.539   5.130
 6561TIP3    H119689   5.581   4.486   5.187
 6561TIP3    H219690   5.447   4.477   5.120
 6562TIP3   OH219691   4.219   4.544   5.903
 6562TIP3    H119692   4.284   4.473   5.917
 6562TIP3    H219693   4.277   4.623   5.903
 6563TIP3   OH219694   4.033   4.818   5.999
 6563TIP3    H119695   4.048   4.792   5.906
 6563TIP3    H219696   4.106   4.881   6.010
 6564TIP3   OH219697   5.561   4.469   4.738
 6564TIP3    H119698   5.597   4.401   4.677
 6564TIP3    H219699   5.629   4.539   4.730
 6565TIP3   OH219700   3.994   4.308   5.487
 6565TIP3    H119701   3.907   4.306   5.530
 6565TIP3    H219702   3.979   4.373   5.415
 6566TIP3   OH219703   4.205   4.392   6.297
 6566TIP3    H119704   4.159   4.399   6.383
 6566TIP3    H219705   4.135   4.427   6.238
 6567TIP3   OH219706   4.979   4.504   5.600
 6567TIP3    H119707   4.959   4.443   5.674
 6567TIP3    H219708   5.076   4.488   5.588
 6568TIP3   OH219709   4.301   4.234   5.663
 6568TIP3    H119710   4.209   4.200   5.674
 6568TIP3    H219711   4.350   4.149   5.659
 6569TIP3   OH219712   4.095   4.114   5.320
 6569TIP3    H119713   4.125   4.173   5.249
 6569TIP3    H219714   4.066   4.179   5.388
 6570TIP3   OH219715   4.754   4.266   5.544
 6570TIP3    H119716   4.803   4.315   5.477
 6570TIP3    H219717   4.797   4.294   5.627
 6571TIP3   OH219718   5.233   4.418   5.525
 6571TIP3    H119719   5.278   4.434   5.441
 6571TIP3    H219720   5.304   4.379   5.578
 6572TIP3   OH219721   5.324   4.351   5.098
 6572TIP3    H119722   5.239   4.396   5.120
 6572TIP3    H219723   5.305   4.262   5.135
 6573TIP3   OH219724   3.812   5.687   5.089
 6573TIP3    H119725   3.724   5.666   5.052
 6573TIP3    H219726   3.815   5.783   5.074
 6574TIP3   OH219727   4.223   4.274   5.074
 6574TIP3    H119728   4.268   4.207   5.018
 6574TIP3    H219729   4.299   4.323   5.111
 6575TIP3   OH219730   4.718   4.449   5.178
 6575TIP3    H119731   4.781   4.406   5.239
 6575TIP3    H219732   4.731   4.543   5.204
 6576TIP3   OH219733   4.549   5.860   4.670
 6576TIP3    H119734   4.638   5.882   4.637
 6576TIP3    H219735   4.524   5.788   4.609
 6577TIP3   OH219736   3.880   5.701   4.734
 6577TIP3    H119737   3.891   5.706   4.829
 6577TIP3    H219738   3.964   5.656   4.707
 6578TIP3   OH219739   6.306   4.702   4.440
 6578TIP3    H119740   6.288   4.686   4.534
 6578TIP3    H219741   6.231   4.762   4.418
 6579TIP3   OH219742   5.753   4.677   4.748
 6579TIP3    H119743   5.840   4.704   4.715
 6579TIP3    H219744   5.700   4.758   4.731
 6580TIP3   OH219745   5.771   4.826   4.491
 6580TIP3    H119746   5.764   4.914   4.532
 6580TIP3    H219747   5.679   4.799   4.481
 6581TIP3   OH219748   5.758   4.534   4.976
 6581TIP3    H119749   5.666   4.525   5.007
 6581TIP3    H219750   5.746   4.588   4.895
 6582TIP3   OH219751   5.861   4.357   4.771
 6582TIP3    H119752   5.897   4.419   4.704
 6582TIP3    H219753   5.854   4.414   4.849
 6583TIP3   OH219754   5.973   4.528   4.576
 6583TIP3    H119755   6.051   4.492   4.531
 6583TIP3    H219756   6.006   4.610   4.618
 6584TIP3   OH219757   1.561   5.561   5.606
 6584TIP3    H119758   1.465   5.565   5.623
 6584TIP3    H219759   1.582   5.656   5.623
 6585TIP3   OH219760   1.397   5.837   5.245
 6585TIP3    H119761   1.450   5.796   5.315
 6585TIP3    H219762   1.308   5.801   5.264
 6586TIP3   OH219763   1.664   5.792   5.363
 6586TIP3    H119764   1.676   5.716   5.303
 6586TIP3    H219765   1.649   5.867   5.301
 6587TIP3   OH219766   3.070   6.235   5.415
 6587TIP3    H119767   3.135   6.224   5.488
 6587TIP3    H219768   3.102   6.318   5.377
 6588TIP3   OH219769   3.279   6.254   5.591
 6588TIP3    H119770   3.255   6.252   5.685
 6588TIP3    H219771   3.351   6.319   5.589
 6589TIP3   OH219772   2.714   5.869   5.965
 6589TIP3    H119773   2.727   5.773   5.973
 6589TIP3    H219774   2.624   5.883   5.996
 6590TIP3   OH219775   2.632   6.470   4.923
 6590TIP3    H119776   2.703   6.518   4.970
 6590TIP3    H219777   2.685   6.403   4.875
 6591TIP3   OH219778   2.984   6.769   5.207
 6591TIP3    H119779   3.008   6.836   5.272
 6591TIP3    H219780   3.067   6.715   5.210
 6592TIP3   OH219781   2.848   6.601   5.029
 6592TIP3    H119782   2.884   6.676   5.080
 6592TIP3    H219783   2.887   6.618   4.940
 6593TIP3   OH219784   3.367   5.836   5.064
 6593TIP3    H119785   3.288   5.863   5.117
 6593TIP3    H219786   3.384   5.917   5.012
 6594TIP3   OH219787   2.940   6.625   4.780
 6594TIP3    H119788   2.917   6.603   4.687
 6594TIP3    H219789   3.027   6.666   4.766
 6595TIP3   OH219790   2.642   6.020   5.085
 6595TIP3    H119791   2.559   6.066   5.105
 6595TIP3    H219792   2.609   5.940   5.040
 6596TIP3   OH219793   2.782   6.464   5.309
 6596TIP3    H119794   2.729   6.519   5.249
 6596TIP3    H219795   2.843   6.419   5.246
 6597TIP3   OH219796   2.325   5.996   5.023
 6597TIP3    H119797   2.295   5.984   5.115
 6597TIP3    H219798   2.244   6.038   4.985
 6598TIP3   OH219799   2.412   6.158   5.361
 6598TIP3    H119800   2.494   6.198   5.397
 6598TIP3    H219801   2.376   6.229   5.306
 6599TIP3   OH219802   2.232   6.257   5.156
 6599TIP3    H119803   2.176   6.213   5.089
 6599TIP3    H219804   2.281   6.319   5.098
 6600TIP3   OH219805   2.342   5.909   5.586
 6600TIP3    H119806   2.308   5.870   5.669
 6600TIP3    H219807   2.326   6.003   5.601
 6601TIP3   OH219808   2.895   6.120   5.028
 6601TIP3    H119809   2.802   6.099   5.052
 6601TIP3    H219810   2.907   6.212   5.061
 6602TIP3   OH219811   2.966   6.369   5.131
 6602TIP3    H119812   3.061   6.376   5.155
 6602TIP3    H219813   2.951   6.454   5.084
 6603TIP3   OH219814   3.386   6.464   4.975
 6603TIP3    H119815   3.329   6.423   4.907
 6603TIP3    H219816   3.389   6.554   4.936
 6604TIP3   OH219817   3.058   6.884   4.933
 6604TIP3    H119818   3.008   6.879   5.016
 6604TIP3    H219819   3.146   6.912   4.965
 6605TIP3   OH219820   2.935   6.029   5.304
 6605TIP3    H119821   2.932   6.068   5.215
 6605TIP3    H219822   2.978   6.102   5.354
 6606TIP3   OH219823   2.659   6.258   5.445
 6606TIP3    H119824   2.699   6.333   5.395
 6606TIP3    H219825   2.732   6.235   5.504
 6607TIP3   OH219826   2.246   5.951   5.290
 6607TIP3    H119827   2.268   6.046   5.300
 6607TIP3    H219828   2.280   5.918   5.376
 6608TIP3   OH219829   1.812   6.179   5.238
 6608TIP3    H119830   1.782   6.261   5.198
 6608TIP3    H219831   1.728   6.128   5.242
 6609TIP3   OH219832   2.372   6.402   4.977
 6609TIP3    H119833   2.338   6.408   4.886
 6609TIP3    H219834   2.467   6.422   4.963
 6610TIP3   OH219835   3.166   6.711   4.647
 6610TIP3    H119836   3.152   6.685   4.554
 6610TIP3    H219837   3.119   6.797   4.649
 6611TIP3   OH219838   3.357   6.924   4.982
 6611TIP3    H119839   3.377   6.984   4.906
 6611TIP3    H219840   3.444   6.920   5.024
 6612TIP3   OH219841   3.371   6.691   4.830
 6612TIP3    H119842   3.299   6.687   4.763
 6612TIP3    H219843   3.343   6.768   4.883
 6613TIP3   OH219844   3.235   6.371   4.765
 6613TIP3    H119845   3.185   6.399   4.688
 6613TIP3    H219846   3.222   6.274   4.760
 6614TIP3   OH219847   3.233   6.656   5.251
 6614TIP3    H119848   3.246   6.559   5.250
 6614TIP3    H219849   3.312   6.687   5.298
 6615TIP3   OH219850   3.186   6.104   4.748
 6615TIP3    H119851   3.256   6.070   4.808
 6615TIP3    H219852   3.110   6.046   4.766
 6616TIP3   OH219853   3.244   6.375   5.202
 6616TIP3    H119854   3.280   6.287   5.225
 6616TIP3    H219855   3.299   6.396   5.124
 6617TIP3   OH219856   3.348   6.120   5.251
 6617TIP3    H119857   3.395   6.102   5.335
 6617TIP3    H219858   3.285   6.045   5.250
 6618TIP3   OH219859   3.420   6.043   4.893
 6618TIP3    H119860   3.463   5.978   4.834
 6618TIP3    H219861   3.486   6.116   4.894
 6619TIP3   OH219862   2.966   6.066   5.848
 6619TIP3    H119863   2.966   5.969   5.862
 6619TIP3    H219864   3.031   6.074   5.776
 6620TIP3   OH219865   3.432   5.960   5.697
 6620TIP3    H119866   3.462   6.016   5.623
 6620TIP3    H219867   3.339   5.987   5.706
 6621TIP3   OH219868   3.519   6.066   5.462
 6621TIP3    H119869   3.589   6.007   5.425
 6621TIP3    H219870   3.566   6.152   5.456
 6622TIP3   OH219871   1.957   5.664   5.452
 6622TIP3    H119872   1.981   5.713   5.371
 6622TIP3    H219873   1.882   5.716   5.483
 6623TIP3   OH219874   3.156   5.956   5.661
 6623TIP3    H119875   3.193   5.903   5.588
 6623TIP3    H219876   3.130   5.885   5.725
 6624TIP3   OH219877   3.170   5.901   5.249
 6624TIP3    H119878   3.088   5.951   5.268
 6624TIP3    H219879   3.149   5.817   5.294
 6625TIP3   OH219880   2.034   5.796   5.226
 6625TIP3    H119881   2.085   5.741   5.163
 6625TIP3    H219882   2.104   5.860   5.254
 6626TIP3   OH219883   3.618   6.578   5.117
 6626TIP3    H119884   3.598   6.605   5.208
 6626TIP3    H219885   3.532   6.546   5.083
 6627TIP3   OH219886   4.441   6.287   4.575
 6627TIP3    H119887   4.405   6.302   4.666
 6627TIP3    H219888   4.392   6.206   4.549
 6628TIP3   OH219889   4.081   6.253   4.516
 6628TIP3    H119890   4.077   6.244   4.613
 6628TIP3    H219891   4.026   6.331   4.503
 6629TIP3   OH219892   3.668   6.285   5.398
 6629TIP3    H119893   3.757   6.317   5.383
 6629TIP3    H219894   3.646   6.250   5.309
 6630TIP3   OH219895   3.586   6.266   4.906
 6630TIP3    H119896   3.630   6.298   4.824
 6630TIP3    H219897   3.531   6.343   4.927
 6631TIP3   OH219898   3.946   6.500   4.643
 6631TIP3    H119899   3.858   6.473   4.611
 6631TIP3    H219900   3.983   6.543   4.563
 6632TIP3   OH219901   3.596   6.689   4.673
 6632TIP3    H119902   3.623   6.782   4.674
 6632TIP3    H219903   3.521   6.690   4.736
 6633TIP3   OH219904   4.068   6.234   4.790
 6633TIP3    H119905   4.077   6.329   4.803
 6633TIP3    H219906   4.156   6.208   4.825
 6634TIP3   OH219907   3.630   6.418   4.684
 6634TIP3    H119908   3.636   6.515   4.693
 6634TIP3    H219909   3.555   6.409   4.624
 6635TIP3   OH219910   3.829   6.895   4.407
 6635TIP3    H119911   3.863   6.956   4.476
 6635TIP3    H219912   3.907   6.887   4.350
 6636TIP3   OH219913   4.080   6.608   4.435
 6636TIP3    H119914   4.082   6.627   4.339
 6636TIP3    H219915   4.154   6.661   4.469
 6637TIP3   OH219916   3.612   6.168   5.159
 6637TIP3    H119917   3.520   6.138   5.168
 6637TIP3    H219918   3.611   6.206   5.068
 6638TIP3   OH219919   3.910   6.050   5.244
 6638TIP3    H119920   3.821   6.016   5.269
 6638TIP3    H219921   3.962   5.967   5.252
 6639TIP3   OH219922   3.721   5.935   4.949
 6639TIP3    H119923   3.759   5.984   4.874
 6639TIP3    H219924   3.722   6.002   5.019
 6640TIP3   OH219925   3.854   6.076   4.715
 6640TIP3    H119926   3.903   6.016   4.654
 6640TIP3    H219927   3.928   6.132   4.749
   6.50000   6.12826   5.30723   0.00000   0.00000  -2.16667   0.00000  -2.16667  -3.06413
