Title
29212
    1ASP      N    1   1.456   3.186   4.074  0.0318 -0.1095 -0.0924
    1ASP    HT1    2   1.373   3.160   4.131  0.9711 -0.1604  1.2938
    1ASP    HT2    3   1.434   3.157   3.977 -0.9997 -2.4839  0.7747
    1ASP    HT3    4   1.445   3.289   4.063 -2.3264 -0.1638  1.1669
    1ASP     CA    5   1.589   3.134   4.122  0.4512 -0.3316  0.3110
    1ASP     HA    6   1.588   3.026   4.121  0.9939 -0.4614 -3.8664
    1ASP     CB    7   1.696   3.170   4.017 -0.2943 -0.7492  0.9336
    1ASP    HB1    8   1.790   3.164   4.077 -0.4012  0.7758  1.2837
    1ASP    HB2    9   1.682   3.276   3.990 -1.5939 -1.0789  0.2565
    1ASP     CG   10   1.701   3.066   3.902 -0.4414 -0.1687  0.4813
    1ASP    OD1   11   1.790   3.082   3.816  0.2572  0.2094 -0.3782
    1ASP    OD2   12   1.622   2.970   3.903 -0.1186 -0.2124 -0.1578
    1ASP      C   13   1.619   3.187   4.258 -0.1297 -0.3277  0.2170
    1ASP      O   14   1.617   3.312   4.283  0.4994 -0.1102  0.4772
    2GLY      N   15   1.671   3.096   4.343  0.1697 -0.3746  0.6545
    2GLY     HN   16   1.664   3.000   4.317 -2.0446 -0.5611  1.7490
    2GLY     CA   17   1.735   3.126   4.470 -0.2746  0.4303 -0.1605
    2GLY    HA1   18   1.756   3.028   4.511 -3.5938  0.0008  0.8338
    2GLY    HA2   19   1.656   3.176   4.524 -0.6621 -1.3026  0.9643
    2GLY      C   20   1.860   3.208   4.455  0.5278 -0.1379  0.4110
    2GLY      O   21   1.905   3.228   4.345 -0.2157  0.1649  0.3140
    3ASP      N   22   1.911   3.274   4.568  0.2793  0.3232 -0.8744
    3ASP     HN   23   1.872   3.264   4.659 -1.3796 -1.1300 -1.6603
    3ASP     CA   24   2.036   3.347   4.570 -0.1602 -0.8096  0.4269
    3ASP     HA   25   2.018   3.436   4.512 -2.1783 -0.8583  0.9036
    3ASP     CB   26   2.086   3.399   4.713 -0.5277 -0.4304 -0.0624
    3ASP    HB1   27   2.187   3.443   4.698 -0.8200  0.3075  0.0827
    3ASP    HB2   28   2.088   3.318   4.789 -1.8359  0.2484  0.7172
    3ASP     CG   29   2.004   3.511   4.776 -0.4170 -0.7847  0.0358
    3ASP    OD1   30   1.877   3.498   4.779 -0.1433  0.2143 -0.5290
    3ASP    OD2   31   2.063   3.604   4.836 -0.7635 -0.0198  0.1199
    3ASP      C   32   2.158   3.288   4.502 -0.4323  0.5676 -0.3874
    3ASP      O   33   2.202   3.175   4.523 -0.0264 -0.4689 -0.4795
    4GLY      N   34   2.235   3.369   4.425 -0.0813  0.5027  0.2906
    4GLY     HN   35   2.217   3.465   4.404  1.2000  0.5698 -0.6641
    4GLY     CA   36   2.372   3.328   4.378  0.0356  0.3338  0.4578
    4GLY    HA1   37   2.404   3.407   4.311  0.7327 -2.1409 -2.3674
    4GLY    HA2   38   2.362   3.237   4.321  1.5434  1.1434 -1.2136
    4GLY      C   39   2.477   3.296   4.480 -0.4791 -0.0499 -0.7924
    4GLY      O   40   2.444   3.278   4.601  0.2372 -0.5737  0.1984
    5PRO      N   41   2.604   3.280   4.436  0.5649 -0.7440 -0.0231
    5PRO     CD   42   2.654   3.308   4.302 -0.4645 -0.3720  0.5752
    5PRO    HD1   43   2.657   3.418   4.284  0.6092 -0.5789 -0.5997
    5PRO    HD2   44   2.610   3.252   4.218  0.5428  0.2635 -0.3983
    5PRO     CA   45   2.712   3.240   4.527 -0.4003 -0.0468  0.1188
    5PRO     HA   46   2.684   3.163   4.597 -0.3542  0.4767  0.7236
    5PRO     CB   47   2.806   3.177   4.422 -0.2552 -0.3954 -0.1523
    5PRO    HB1   48   2.756   3.080   4.399 -0.6222 -0.5395  1.1491
    5PRO    HB2   49   2.911   3.155   4.451 -0.6239 -1.2051  0.6223
    5PRO     CG   50   2.803   3.277   4.315 -0.6295  0.1843  1.1979
    5PRO    HG1   51   2.857   3.373   4.334 -3.3154  1.8281  1.0889
    5PRO    HG2   52   2.842   3.233   4.221  0.7845  0.0817  1.8121
    5PRO      C   53   2.779   3.366   4.596  0.1046  0.1075  0.4307
    5PRO      O   54   2.737   3.483   4.578  0.1311  0.0856 -0.4933
    6GLY      N   55   2.874   3.344   4.696  0.1089 -0.5217  0.0314
    6GLY     HN   56   2.917   3.260   4.728  2.2657  1.0783  1.6589
    6GLY     CA   57   2.936   3.459   4.752  0.4580 -0.0535 -0.8039
    6GLY    HA1   58   2.968   3.440   4.853 -2.5021 -0.0025  0.2354
    6GLY    HA2   59   2.880   3.552   4.747  1.5632  0.6815 -0.0068
    6GLY      C   60   3.062   3.486   4.677 -0.7102  0.0274  0.5925
    6GLY      O   61   3.064   3.511   4.552 -0.0902 -0.1472 -0.5831
    7ASP      N   62   3.172   3.496   4.748 -0.2824 -0.1607 -0.4999
    7ASP     HN   63   3.176   3.480   4.847  0.6062 -1.0848 -0.6556
    7ASP     CA   64   3.305   3.532   4.694  0.3018 -0.1083 -0.5294
    7ASP     HA   65   3.298   3.588   4.602 -2.0763 -2.0026 -1.6131
    7ASP     CB   66   3.387   3.604   4.801  0.1555 -0.4398  0.0693
    7ASP    HB1   67   3.482   3.646   4.762 -0.2452  0.8985  0.4778
    7ASP    HB2   68   3.403   3.544   4.892  1.1680  0.6940  0.6708
    7ASP     CG   69   3.304   3.729   4.841  0.2010  0.7162  0.3947
    7ASP    OD1   70   3.254   3.802   4.748 -0.6651 -0.4031 -0.1401
    7ASP    OD2   71   3.277   3.752   4.961  0.1587  0.1363 -0.6266
    7ASP      C   72   3.378   3.406   4.651 -0.6590  0.6086  0.0907
    7ASP      O   73   3.371   3.304   4.723 -0.3831  0.1614  0.0668
    8PRO      N   74   3.469   3.393   4.545  0.7655 -0.0769 -0.1195
    8PRO     CD   75   3.492   3.500   4.448  0.5066  0.2513  0.4396
    8PRO    HD1   76   3.473   3.599   4.494 -0.1986  0.5664 -0.4777
    8PRO    HD2   77   3.448   3.483   4.347  2.6036  0.5357 -0.5750
    8PRO     CA   78   3.573   3.296   4.533  0.4001 -0.0134  0.0606
    8PRO     HA   79   3.530   3.200   4.509  1.3082 -0.3051 -0.4376
    8PRO     CB   80   3.655   3.351   4.424 -0.1266  0.0231  0.1793
    8PRO    HB1   81   3.600   3.330   4.330 -0.0290  0.3112  0.0548
    8PRO    HB2   82   3.763   3.326   4.430  0.5642  2.5527 -0.3481
    8PRO     CG   83   3.643   3.508   4.433  0.5639 -0.1341  0.3817
    8PRO    HG1   84   3.691   3.553   4.522  0.8742 -0.6152  0.4592
    8PRO    HG2   85   3.680   3.555   4.339 -1.8071 -0.8309 -1.0060
    8PRO      C   86   3.650   3.258   4.662 -0.4590 -0.0352  0.7779
    8PRO      O   87   3.690   3.337   4.744  0.0924 -0.2954 -0.0212
    9GLY      N   88   3.667   3.128   4.693  0.5842 -0.5359 -0.2362
    9GLY     HN   89   3.639   3.066   4.620 -3.2875  0.9990 -0.2595
    9GLY     CA   90   3.715   3.078   4.827 -0.8681  0.5065 -0.2545
    9GLY    HA1   91   3.770   3.154   4.882 -0.0098 -1.1794  1.3108
    9GLY    HA2   92   3.780   2.995   4.806 -1.1022 -0.5263  2.6005
    9GLY      C   93   3.604   3.018   4.913  0.3364 -0.0523  0.3603
    9GLY      O   94   3.606   2.900   4.959  0.1053  0.0601 -0.3341
   10ASP      N   95   3.509   3.107   4.943  0.4324  0.2872  0.2382
   10ASP     HN   96   3.504   3.197   4.899 -3.3300 -0.2787 -0.8141
   10ASP     CA   97   3.396   3.091   5.034 -0.0115 -0.7430 -0.5913
   10ASP     HA   98   3.438   3.074   5.132 -1.2953  0.6958  0.2607
   10ASP     CB   99   3.322   3.229   5.048  0.3780  0.4717  0.0788
   10ASP    HB1  100   3.226   3.213   5.103  0.9779 -1.8169  0.5885
   10ASP    HB2  101   3.293   3.258   4.945 -0.8969 -1.9325 -0.3095
   10ASP     CG  102   3.395   3.343   5.110 -0.2642  0.1237 -0.1166
   10ASP    OD1  103   3.521   3.343   5.124  0.1379 -0.2194  0.6659
   10ASP    OD2  104   3.332   3.450   5.138 -0.2647 -1.0601 -0.3304
   10ASP      C  105   3.298   2.975   5.005  0.0339  0.2601 -0.6387
   10ASP      O  106   3.258   2.951   4.892 -0.6660 -0.4714  0.2950
   11GLY      N  107   3.251   2.910   5.110  0.7650  0.0138 -0.4178
   11GLY     HN  108   3.277   2.951   5.198  2.2829  0.1314 -0.8953
   11GLY     CA  109   3.152   2.801   5.099  0.3729 -0.4783  0.4912
   11GLY    HA1  110   3.137   2.773   4.996  0.2240 -0.3897  0.4880
   11GLY    HA2  111   3.055   2.827   5.140 -0.5240 -3.5487  0.5597
   11GLY      C  112   3.202   2.674   5.162 -0.0779  0.0451  0.3857
   11GLY    OT1  113   3.143   2.636   5.262 -0.7596  0.0824  0.0676
   11GLY    OT2  114   3.297   2.611   5.108 -0.1304 -0.1243  0.3298
   12SOD    SOD  115   2.623   5.718   3.112  0.2191 -0.2286 -0.2883
   13SOD    SOD  116   0.504   1.939   1.620  0.0686 -0.6642  0.0733
   14SOD    SOD  117   5.381   4.826   3.102  0.5970  0.4124  0.1430
   15SOD    SOD  118   2.707   5.495   5.584 -0.0847  0.4160 -0.7286
   16SOD    SOD  119   2.319   3.450   1.557  0.2014 -0.0456  0.0945
   17SOD    SOD  120   2.704   0.171   1.442 -0.6645  0.5418 -0.3732
   18SOD    SOD  121   6.447   3.519   2.299  0.5466  0.3902 -0.0426
   19SOD    SOD  122   4.193   0.950   5.378  0.2923  0.4933  0.0153
   20SOD    SOD  123   4.733   5.500   2.390  0.1529  0.1494 -0.1379
   21SOD    SOD  124   3.657   4.088   5.678 -0.5615  0.0797 -0.1682
   22SOD    SOD  125   3.921   5.825   5.284  0.2550 -0.2259 -0.3598
   23SOD    SOD  126   0.717   6.168   1.846  0.6038  0.3043  0.1056
   24SOD    SOD  127   1.949   0.942   1.215 -0.2308 -0.0406  0.4600
   25SOD    SOD  128   0.668   5.653   4.846 -0.4662  0.0292  0.0497
   26SOD    SOD  129   5.159   5.270   4.201  0.3084 -0.3502  0.2488
   27SOD    SOD  130   5.974   5.699   4.446 -0.2439 -0.2837  0.2847
   28SOD    SOD  131   1.769   0.675   5.868  0.3212 -0.1643  0.1057
   29SOD    SOD  132   5.203   2.267   0.590 -0.0051 -0.3072 -0.2349
   30SOD    SOD  133   6.855   6.680   4.831  0.1861 -0.5074 -0.1714
   31SOD    SOD  134   6.255   1.925   0.711  0.4726  0.2284  0.3022
   32SOD    SOD  135   1.289   6.222   2.964 -0.5678  0.0791 -0.3036
   33SOD    SOD  136   6.901   2.106   1.059 -0.0955 -0.0683  0.4994
   34SOD    SOD  137   4.012   3.906   3.573  0.0334 -0.0694  0.0006
   35SOD    SOD  138   4.682   2.497   4.459  0.0601  0.0242 -0.6081
   36SOD    SOD  139   1.389   5.401   5.672  0.4292 -0.3108 -0.3127
   37SOD    SOD  140   3.482   1.308   3.694  0.1944  0.1335  0.0515
   38SOD    SOD  141   2.487   5.386   4.573 -0.1332 -0.3209 -0.2116
   39SOD    SOD  142   1.543   3.452   2.820 -0.1640 -0.1741  0.3804
   40SOD    SOD  143   3.607   6.475   0.026 -0.1911  0.4993  0.0504
   41SOD    SOD  144   2.147   0.227   0.921 -0.0496  0.1276  0.4252
   42SOD    SOD  145   4.106   2.300   4.471 -0.2119 -0.2084  0.4041
   43CLA    CLA  146   3.621   4.916   3.438 -0.2982  0.0136 -0.1820
   44CLA    CLA  147   3.217   6.253   3.162 -0.0030  0.1372 -0.1371
   45CLA    CLA  148   0.799   6.136   4.503  0.0921  0.0363  0.3911
   46CLA    CLA  149   4.268   2.778   4.586  0.0876  0.6499 -0.1220
   47CLA    CLA  150   5.403   1.607   5.028 -0.1855  0.1030 -0.1150
   48CLA    CLA  151   2.406   5.828   3.544  0.2491 -0.0102 -0.0031
   49CLA    CLA  152   1.196   3.793   1.439 -0.3801 -0.2713 -0.4351
   50CLA    CLA  153   5.894   5.999   1.369 -0.3145  0.1791 -0.3395
   51CLA    CLA  154   2.169   0.571   1.476  0.1584  0.0267 -0.1463
   52CLA    CLA  155   1.715   5.137   0.327  0.3165  0.3640 -0.5495
   53CLA    CLA  156   4.278   1.995   4.195 -0.0233  0.5299  0.1150
   54CLA    CLA  157   6.611   3.140   0.652  0.0266 -0.0819 -0.2634
   55CLA    CLA  158   2.782   5.122   5.155  0.2409 -0.1373  0.3403
   56CLA    CLA  159   5.610   4.076   4.736  0.4164 -0.0662  0.0405
   57CLA    CLA  160   0.931   0.953   0.103 -0.2442 -0.1513  0.0466
   58CLA    CLA  161   0.868   1.703   1.946 -0.3068  0.4288  0.0959
   59CLA    CLA  162   4.974   1.093   1.157 -0.4239  0.0715 -0.3043
   60CLA    CLA  163   0.449   2.005   0.433 -0.1008 -0.2851 -0.3182
   61CLA    CLA  164   6.037   2.288   2.970  0.1380  0.0569  0.0964
   62CLA    CLA  165   1.911   2.282   1.918  0.4171  0.2102  0.1389
   63CLA    CLA  166   5.328   4.444   3.414 -0.0255  0.1976  0.3322
   64CLA    CLA  167   1.409   0.340   3.247 -0.2190  0.1983 -0.0868
   65CLA    CLA  168   4.577   3.969   0.127  0.1192 -0.0696 -0.0383
   66CLA    CLA  169   0.916   0.917   4.203 -0.1181 -0.5049  0.0615
   67CLA    CLA  170   1.346   4.924   4.670 -0.1031 -0.2044 -0.0061
   68CLA    CLA  171   6.099   1.002   2.663 -0.0364 -0.0671 -0.3631
   69CLA    CLA  172   2.557   5.020   2.282 -0.0342  0.3843 -0.0826
   70TIP3   OH2  173   4.042   3.208   2.594  0.2928 -0.5193  0.6837
   70TIP3    H1  174   3.957   3.239   2.626  0.2639 -1.4866  1.6036
   70TIP3    H2  175   4.029   3.114   2.580  1.1321 -0.6193  0.5202
   71TIP3   OH2  176   1.485   0.370   0.940 -0.2186 -0.1126 -0.4091
   71TIP3    H1  177   1.553   0.435   0.960 -0.8545  0.1936  0.8692
   71TIP3    H2  178   1.529   0.307   0.883  0.5967  1.0889 -1.1586
   72TIP3   OH2  179   6.144   4.481   1.789 -0.0720 -0.2022 -0.3486
   72TIP3    H1  180   6.073   4.501   1.728 -0.0558  0.2257 -0.2280
   72TIP3    H2  181   6.224   4.490   1.737 -0.1665 -2.7904 -1.0816
   73TIP3   OH2  182   0.079   4.012   2.892  0.4343 -0.2704 -0.5580
   73TIP3    H1  183   0.150   4.072   2.869 -0.0114  0.1179 -0.9306
   73TIP3    H2  184   0.048   3.979   2.808 -1.7088  1.7298 -0.6442
   74TIP3   OH2  185   6.168   1.602   2.289  0.4339 -0.0088  0.2404
   74TIP3    H1  186   6.163   1.638   2.378 -1.9362  2.5870 -0.7993
   74TIP3    H2  187   6.234   1.655   2.245  0.6178 -0.3877  0.0489
   75TIP3   OH2  188   5.093   1.150   3.911  0.4122 -0.2119  0.3815
   75TIP3    H1  189   5.147   1.171   3.987  0.0984 -1.2818  0.9169
   75TIP3    H2  190   5.147   1.090   3.859 -0.2324 -1.2555  0.8999
   76TIP3   OH2  191   6.119   0.537   2.031 -0.0471 -0.4312  0.1001
   76TIP3    H1  192   6.082   0.618   2.066  0.7651 -0.0402  0.0754
   76TIP3    H2  193   6.061   0.514   1.958  0.8924  1.3000 -1.2682
   77TIP3   OH2  194   7.118   5.029   0.445  0.2945  0.1544  0.2092
   77TIP3    H1  195   7.145   4.944   0.480  4.8421  1.4044  0.4499
   77TIP3    H2  196   7.106   5.084   0.522  0.7488  0.5488  0.0044
   78TIP3   OH2  197   1.248   0.287   1.949 -0.1344 -0.2380 -0.3715
   78TIP3    H1  198   1.251   0.375   1.986  0.6809 -0.8981  1.2492
   78TIP3    H2  199   1.262   0.299   1.855  0.6358  1.3075 -0.0886
   79TIP3   OH2  200   5.197   0.989   0.840 -0.1152 -0.2235 -0.2970
   79TIP3    H1  201   5.216   1.029   0.925  0.2612 -0.2800 -0.3528
   79TIP3    H2  202   5.164   0.901   0.862  0.0020 -0.2459 -0.2115
   80TIP3   OH2  203   7.090   0.386   3.429  0.8289  0.5642 -0.5878
   80TIP3    H1  204   7.158   0.436   3.386  0.3899  2.2886  0.6009
   80TIP3    H2  205   7.018   0.384   3.366  1.9454 -1.3516 -1.8841
   81TIP3   OH2  206   5.784   3.407   0.769  0.3382  0.0967  0.2279
   81TIP3    H1  207   5.839   3.481   0.794 -0.7933  0.7803  0.7643
   81TIP3    H2  208   5.767   3.420   0.676  1.2284 -0.2453 -0.0028
   82TIP3   OH2  209   2.517   4.349   5.576  0.6907  0.0576 -0.0798
   82TIP3    H1  210   2.594   4.324   5.527  0.7797  2.2190 -1.1877
   82TIP3    H2  211   2.531   4.314   5.664  2.4072 -0.4928 -0.5466
   83TIP3   OH2  212   0.906   5.895   0.545  0.5853  0.0911  0.3326
   83TIP3    H1  213   0.953   5.978   0.540  1.4222 -0.3764  0.0819
   83TIP3    H2  214   0.898   5.866   0.454  0.5996 -0.2486  0.4354
   84TIP3   OH2  215   5.053   2.492   4.356  0.0501  0.0214  0.1349
   84TIP3    H1  216   5.063   2.441   4.275 -1.5389  1.6328 -1.1773
   84TIP3    H2  217   4.958   2.504   4.363  0.2986  1.3946  1.2888
   85TIP3   OH2  218   2.509   2.871   4.893 -0.6835  0.0886 -0.0759
   85TIP3    H1  219   2.537   2.959   4.866 -0.3087  0.4072  1.2384
   85TIP3    H2  220   2.582   2.814   4.869 -0.5426  0.2911 -0.1279
   86TIP3   OH2  221   4.856   0.118   1.365  0.0568 -0.4436  0.1512
   86TIP3    H1  222   4.902   0.201   1.383 -1.1646  0.2046  0.3586
   86TIP3    H2  223   4.804   0.103   1.444 -0.5959 -0.8274 -0.3513
   87TIP3   OH2  224   2.900   0.337   3.198  0.5742 -0.2649  0.1943
   87TIP3    H1  225   2.964   0.390   3.245  0.4475 -0.9560  1.1867
   87TIP3    H2  226   2.939   0.321   3.113  1.5001 -0.2566  0.6111
   88TIP3   OH2  227   5.998   5.812   1.826 -0.4559 -0.2485 -0.4800
   88TIP3    H1  228   6.070   5.755   1.853  0.6745  0.9270 -0.9096
   88TIP3    H2  229   6.031   5.901   1.840 -1.8772  0.3208 -0.5672
   89TIP3   OH2  230   3.579   2.382   1.458 -0.6038  0.1125 -0.5596
   89TIP3    H1  231   3.539   2.403   1.374  2.6828 -1.2275 -2.6410
   89TIP3    H2  232   3.642   2.452   1.473 -1.1136  0.3111  0.8139
   90TIP3   OH2  233   6.066   4.728   2.230 -0.0196 -0.2621 -0.2201
   90TIP3    H1  234   6.082   4.634   2.224 -0.2612 -0.3825  0.8747
   90TIP3    H2  235   6.069   4.758   2.139  1.5931 -1.0612 -0.4752
   91TIP3   OH2  236   2.072   0.464   4.621 -0.2379  0.1997 -0.2845
   91TIP3    H1  237   2.091   0.549   4.580 -1.4667  0.5369 -0.1991
   91TIP3    H2  238   2.092   0.400   4.553 -2.7924  0.7842 -1.7152
   92TIP3   OH2  239   3.877   5.031   4.407  0.0305 -0.5441  0.7100
   92TIP3    H1  240   3.823   5.070   4.340  0.2587 -0.0616  0.8021
   92TIP3    H2  241   3.906   4.948   4.370  1.3863  0.3930 -0.3975
   93TIP3   OH2  242   0.733   3.395   0.477 -0.0840  0.4655 -0.2312
   93TIP3    H1  243   0.775   3.361   0.397 -2.0236 -1.2544 -0.6113
   93TIP3    H2  244   0.737   3.490   0.467  0.6760  0.3060 -1.8610
   94TIP3   OH2  245   2.125   1.345   4.553 -0.4520  0.1655  0.3147
   94TIP3    H1  246   2.193   1.318   4.614 -1.4928  0.4211  1.6340
   94TIP3    H2  247   2.132   1.441   4.550 -0.2469  0.1385 -0.1649
   95TIP3   OH2  248   5.157   0.045   2.357 -0.3375 -0.4771  0.3365
   95TIP3    H1  249   5.140  -0.049   2.367  0.1148 -0.6996 -0.8442
   95TIP3    H2  250   5.189   0.054   2.268 -1.8697  1.0280 -0.1234
   96TIP3   OH2  251   2.912   3.338   2.998  0.3738  0.4460 -0.1909
   96TIP3    H1  252   2.817   3.328   2.997  0.4571 -0.4551 -1.2976
   96TIP3    H2  253   2.933   3.357   3.089 -0.7985 -0.0686  0.2043
   97TIP3   OH2  254   1.321   0.057   3.799  0.3306  0.2539  0.3835
   97TIP3    H1  255   1.232   0.022   3.802 -0.5022  2.3056  1.4218
   97TIP3    H2  256   1.325   0.106   3.717  1.0452 -0.9904 -0.3807
   98TIP3   OH2  257   4.098   6.738   2.699  0.0330  0.2985  0.9134
   98TIP3    H1  258   4.017   6.687   2.703  0.3279 -0.1563  1.0862
   98TIP3    H2  259   4.106   6.762   2.606 -0.3150  0.3781  0.9002
   99TIP3   OH2  260   3.440   1.955   2.472  0.0634  0.3437 -0.2241
   99TIP3    H1  261   3.354   1.997   2.474  1.2051  2.8957 -0.4717
   99TIP3    H2  262   3.480   1.978   2.557  0.5841 -0.6359 -0.1861
  100TIP3   OH2  263   1.008   1.567   0.379  0.2098  0.3703  0.0811
  100TIP3    H1  264   0.937   1.617   0.340  0.4119 -0.0634 -0.8649
  100TIP3    H2  265   1.039   1.510   0.309  0.8836 -0.1058  0.7463
  101TIP3   OH2  266   3.640   2.140   3.479  0.2558 -0.1587 -0.5105
  101TIP3    H1  267   3.693   2.219   3.475 -0.6509  0.4677 -0.5088
  101TIP3    H2  268   3.676   2.082   3.413  0.7135  0.3968 -0.7467
  102TIP3   OH2  269   0.976   3.719   1.820  0.2186  0.1802  0.2628
  102TIP3    H1  270   1.068   3.702   1.803  0.3397 -0.0985  1.1586
  102TIP3    H2  271   0.929   3.662   1.759  0.6298  0.5471 -0.4044
  103TIP3   OH2  272   5.210   2.438   0.424 -0.1066 -0.4296  0.3020
  103TIP3    H1  273   5.217   2.531   0.444 -1.7163 -0.0694 -0.6576
  103TIP3    H2  274   5.243   2.430   0.334 -1.7923 -0.4155 -0.3577
  104TIP3   OH2  275   5.464   5.422   5.314  0.0320 -0.2189 -0.3766
  104TIP3    H1  276   5.518   5.347   5.292 -1.1001 -0.7776 -1.3320
  104TIP3    H2  277   5.395   5.386   5.371  1.5554  0.7786  2.3028
  105TIP3   OH2  278   6.006   5.188   2.495 -0.0488  0.1024 -0.4343
  105TIP3    H1  279   5.960   5.105   2.485 -1.9091  0.5648  2.6711
  105TIP3    H2  280   6.059   5.176   2.574  1.9861  0.9944 -1.5903
  106TIP3   OH2  281   2.205   3.447   1.963 -0.1592  0.3878 -0.2885
  106TIP3    H1  282   2.171   3.499   2.036  0.4361 -0.3674  0.5453
  106TIP3    H2  283   2.184   3.356   1.985  0.3800  0.1107 -0.8635
  107TIP3   OH2  284   5.790   3.236   5.467 -0.3323 -0.5476  0.4939
  107TIP3    H1  285   5.729   3.186   5.413 -2.0871  2.6106 -0.6939
  107TIP3    H2  286   5.734   3.284   5.528  1.0710  1.2471  0.4564
  108TIP3   OH2  287   0.551   2.561   1.022 -0.0756  0.4219  0.6239
  108TIP3    H1  288   0.579   2.483   1.070 -2.2436  0.4858  2.1116
  108TIP3    H2  289   0.626   2.621   1.027  2.4026 -2.0750 -2.1309
  109TIP3   OH2  290   1.909   3.092   2.064 -0.0952 -0.4369 -0.4211
  109TIP3    H1  291   1.905   3.058   2.153 -1.1818 -0.5563 -0.4920
  109TIP3    H2  292   1.839   3.157   2.061  1.4607  1.3054 -0.5053
  110TIP3   OH2  293   3.477   0.422   0.088  0.2734 -0.2593 -0.1020
  110TIP3    H1  294   3.521   0.409   0.172 -1.0443 -3.0824  0.2468
  110TIP3    H2  295   3.503   0.347   0.035 -1.7586 -0.4589 -0.9082
  111TIP3   OH2  296   1.145   6.720   2.712 -0.2380 -0.2478 -0.0191
  111TIP3    H1  297   1.105   6.806   2.725 -0.5314 -0.4426  0.3995
  111TIP3    H2  298   1.072   6.663   2.690 -0.0416 -0.3870 -0.3113
  112TIP3   OH2  299   1.530   6.757   0.749  0.2263  0.2544 -0.4375
  112TIP3    H1  300   1.616   6.756   0.708 -0.3317  0.0537 -1.6570
  112TIP3    H2  301   1.510   6.664   0.763  0.9350  0.3441  1.5083
  113TIP3   OH2  302   5.961   0.274   1.129 -0.4058 -0.4830  0.5446
  113TIP3    H1  303   5.980   0.182   1.111  1.4670 -0.4096  1.8558
  113TIP3    H2  304   6.001   0.321   1.056  0.5227 -0.6005  0.9703
  114TIP3   OH2  305   5.455   6.785   2.886 -0.2864 -0.1546 -0.0124
  114TIP3    H1  306   5.482   6.697   2.858 -0.2280 -0.2270  0.2717
  114TIP3    H2  307   5.384   6.808   2.825 -1.5249 -1.1258  0.9955
  115TIP3   OH2  308   5.461   6.110   1.353 -0.4842 -0.1427  0.2352
  115TIP3    H1  309   5.382   6.137   1.398 -1.0513 -1.4731  0.0754
  115TIP3    H2  310   5.483   6.025   1.392  0.6477  0.0316  0.0119
  116TIP3   OH2  311   4.555   4.020   5.384  0.0028  0.3529 -0.5118
  116TIP3    H1  312   4.555   4.115   5.381 -1.6597  0.4083  0.2161
  116TIP3    H2  313   4.529   3.993   5.296  1.0332  0.5319 -0.8860
  117TIP3   OH2  314   4.735   4.516   5.816  0.4309  0.8855  0.2062
  117TIP3    H1  315   4.703   4.607   5.815  0.7976  1.0410 -1.9305
  117TIP3    H2  316   4.745   4.494   5.724  0.4691 -1.3115  0.6996
  118TIP3   OH2  317   1.874   4.375   0.975 -0.0231  0.5607  0.3040
  118TIP3    H1  318   1.966   4.350   0.966  0.0300  1.4857 -2.8456
  118TIP3    H2  319   1.826   4.292   0.964  0.3843  0.3110  0.3668
  119TIP3   OH2  320   6.930   3.307   2.745 -0.3017  0.0910 -0.1036
  119TIP3    H1  321   6.895   3.328   2.659  0.2463  0.7552 -0.1850
  119TIP3    H2  322   6.918   3.213   2.755 -0.3691  0.0096 -0.9088
  120TIP3   OH2  323   7.087   4.879   1.708 -0.1940  0.7193 -0.4063
  120TIP3    H1  324   7.050   4.819   1.643  1.7673  0.9539 -1.8415
  120TIP3    H2  325   7.063   4.842   1.793 -0.5632 -1.0859 -1.2626
  121TIP3   OH2  326   3.112   0.970   1.793  0.1965  0.1088  0.2957
  121TIP3    H1  327   3.058   0.912   1.847 -1.2814  1.3415  0.2421
  121TIP3    H2  328   3.097   0.939   1.703 -0.8574  0.7369  0.2353
  122TIP3   OH2  329   3.951   3.836   1.737 -0.1296  0.5838  0.1136
  122TIP3    H1  330   3.947   3.834   1.832  0.0359 -1.8097  0.1195
  122TIP3    H2  331   3.951   3.744   1.710  1.3761  1.1471 -2.1283
  123TIP3   OH2  332   0.151   6.277   0.719  0.3035 -0.2073 -0.1275
  123TIP3    H1  333   0.189   6.200   0.762 -0.7136  0.5082  2.2185
  123TIP3    H2  334   0.067   6.246   0.685  0.7756 -0.6011 -0.9474
  124TIP3   OH2  335   5.803   0.301   3.397 -0.4801 -0.1043  0.1240
  124TIP3    H1  336   5.797   0.289   3.302  3.0059 -1.2974 -0.0886
  124TIP3    H2  337   5.737   0.242   3.433 -1.3892 -0.1459 -1.5256
  125TIP3   OH2  338   7.110   2.617   4.167 -0.1167 -0.3343  0.5256
  125TIP3    H1  339   7.051   2.689   4.148 -0.3376 -0.3224  1.2262
  125TIP3    H2  340   7.194   2.659   4.189 -0.8671 -0.0981  3.3742
  126TIP3   OH2  341   5.163   3.917   5.826  0.1989 -0.2407 -0.1498
  126TIP3    H1  342   5.158   3.973   5.749  1.0550  0.0665  0.0152
  126TIP3    H2  343   5.073   3.885   5.838  0.0555 -0.2855 -1.2605
  127TIP3   OH2  344   6.871   2.687   1.943  0.0176 -0.2115  0.0902
  127TIP3    H1  345   6.908   2.674   1.856 -0.6388 -1.2456 -0.0508
  127TIP3    H2  346   6.873   2.601   1.983 -0.1859  0.1554  0.9042
  128TIP3   OH2  347   4.805   4.661   1.096  0.0443  0.0370 -0.0502
  128TIP3    H1  348   4.848   4.662   1.011  1.2490 -0.4109  0.5178
  128TIP3    H2  349   4.871   4.696   1.156 -0.9687  0.8446  0.6208
  129TIP3   OH2  350   5.195   1.672   2.131 -0.4106  0.3139 -0.5944
  129TIP3    H1  351   5.270   1.679   2.191 -1.0849  2.6947  0.0857
  129TIP3    H2  352   5.226   1.710   2.049  0.0993 -1.7553 -1.4233
  130TIP3   OH2  353   2.237   2.927   0.088 -0.1686  0.4293 -0.3772
  130TIP3    H1  354   2.158   2.873   0.095 -0.1431  0.2030 -1.6321
  130TIP3    H2  355   2.287   2.906   0.167 -0.2806 -1.2133 -0.7035
  131TIP3   OH2  356   2.339   4.640   3.873  0.4621  0.3700  0.4878
  131TIP3    H1  357   2.406   4.594   3.821  0.5571  1.2130 -0.1515
  131TIP3    H2  358   2.269   4.659   3.811 -0.0734  0.0962  1.0045
  132TIP3   OH2  359   3.390   6.466   1.341 -0.7622  0.0259 -0.7516
  132TIP3    H1  360   3.337   6.475   1.420  1.3758  1.1701  0.6283
  132TIP3    H2  361   3.393   6.555   1.304  1.3377  0.3419  0.0382
  133TIP3   OH2  362   3.917   6.296   2.744 -0.1149  0.3775 -0.9813
  133TIP3    H1  363   3.965   6.345   2.677 -1.5352  2.0188 -0.8399
  133TIP3    H2  364   3.854   6.358   2.780 -0.4960 -0.9281  0.7736
  134TIP3   OH2  365   3.701   4.027   2.196 -0.3167  0.3939  0.3333
  134TIP3    H1  366   3.612   4.063   2.194 -0.1366  0.8001 -0.6859
  134TIP3    H2  367   3.722   4.022   2.290 -1.1446  0.9385  0.5598
  135TIP3   OH2  368   1.304   4.085   1.541 -0.2585  0.1960  0.7612
  135TIP3    H1  369   1.258   4.009   1.506 -1.1993  0.9388  0.3338
  135TIP3    H2  370   1.370   4.049   1.601 -0.9712 -0.9228  0.8878
  136TIP3   OH2  371   3.626   2.099   4.801 -0.1943 -0.1015  0.0927
  136TIP3    H1  372   3.629   2.158   4.726  2.2745 -0.7002 -0.3855
  136TIP3    H2  373   3.712   2.057   4.801 -0.5993 -1.0788  2.5052
  137TIP3   OH2  374   2.564   2.408   3.248 -0.1762 -0.2522  0.8727
  137TIP3    H1  375   2.503   2.476   3.220  1.1777  0.0222 -1.6398
  137TIP3    H2  376   2.527   2.327   3.215  0.6385 -0.1107 -0.4581
  138TIP3   OH2  377   7.198   6.432   2.548  0.1592  0.1084 -0.1490
  138TIP3    H1  378   7.188   6.524   2.526 -0.1207 -0.1198 -1.0188
  138TIP3    H2  379   7.233   6.432   2.637 -0.5671  1.0416  0.1535
  139TIP3   OH2  380   1.907   4.404   3.337  0.4458 -0.4992 -0.4565
  139TIP3    H1  381   1.946   4.489   3.354 -0.1848 -0.1876 -0.5553
  139TIP3    H2  382   1.880   4.372   3.423  1.1045 -0.8179 -0.3574
  140TIP3   OH2  383   6.168   4.134   1.683 -0.2199  0.2693  0.1591
  140TIP3    H1  384   6.225   4.210   1.693  1.5502 -1.1471  1.4839
  140TIP3    H2  385   6.188   4.099   1.596  1.6068 -0.6676  0.9079
  141TIP3   OH2  386   5.344   3.574   1.320  0.6797 -0.2408 -0.1291
  141TIP3    H1  387   5.426   3.593   1.273  0.7544 -0.9354 -0.2856
  141TIP3    H2  388   5.293   3.521   1.259 -0.0386  0.4653 -0.1634
  142TIP3   OH2  389   4.352   4.617   5.314  0.4234 -0.5776  0.5570
  142TIP3    H1  390   4.414   4.646   5.381 -0.2961  1.1451  0.5275
  142TIP3    H2  391   4.270   4.604   5.362  0.2846 -0.8340  0.2537
  143TIP3   OH2  392   7.045   4.641   4.938  0.1157  0.3778 -0.0561
  143TIP3    H1  393   7.044   4.545   4.941  2.1692  0.2385 -1.7664
  143TIP3    H2  394   6.966   4.665   4.890 -1.2328 -0.3130  1.6933
  144TIP3   OH2  395   1.566   5.398   3.852  0.0681  0.3172 -0.1975
  144TIP3    H1  396   1.495   5.463   3.851 -0.3920 -0.1769 -0.1595
  144TIP3    H2  397   1.597   5.396   3.761 -1.0600 -0.6326 -0.5834
  145TIP3   OH2  398   3.785   1.947   3.268  0.2844  0.0108  0.3390
  145TIP3    H1  399   3.750   1.896   3.195 -0.3303 -0.5974  1.0341
  145TIP3    H2  400   3.879   1.931   3.267  0.1504 -0.8114  0.2894
  146TIP3   OH2  401   4.775   0.134   0.006  0.0089  0.3561  0.7754
  146TIP3    H1  402   4.685   0.145   0.037  0.0729  1.6010  0.5502
  146TIP3    H2  403   4.803   0.221  -0.021 -0.1241 -0.5760 -3.0576
  147TIP3   OH2  404   2.067   3.902   2.990 -0.0994 -1.0997 -0.0449
  147TIP3    H1  405   2.003   3.973   3.000 -3.6229 -3.7343 -1.6057
  147TIP3    H2  406   2.110   3.920   2.907  2.5417  1.5151  1.7202
  148TIP3   OH2  407   0.177   4.321   4.029 -0.5060 -0.2428  0.4371
  148TIP3    H1  408   0.225   4.248   4.068  0.3496  0.7830  1.3636
  148TIP3    H2  409   0.085   4.301   4.047 -0.2478 -0.8193  1.1586
  149TIP3   OH2  410   0.174   4.187   3.169  0.0617  0.2906  0.6286
  149TIP3    H1  411   0.083   4.158   3.180 -0.0293  0.2375 -0.1709
  149TIP3    H2  412   0.166   4.278   3.140  0.2651  0.3055  0.6192
  150TIP3   OH2  413   6.109   1.409   3.417 -0.2742  0.0230 -0.0931
  150TIP3    H1  414   6.108   1.400   3.512 -0.5236  1.4256  0.0533
  150TIP3    H2  415   6.128   1.321   3.385  0.9800 -0.2440  1.2746
  151TIP3   OH2  416   1.203   6.605   5.264 -0.5146  0.0248 -0.5056
  151TIP3    H1  417   1.162   6.586   5.348 -3.3268  0.6184 -1.6471
  151TIP3    H2  418   1.249   6.524   5.241 -0.3147 -0.3892  1.2350
  152TIP3   OH2  419   4.840   3.422   2.673 -0.3617  0.0477  0.2402
  152TIP3    H1  420   4.768   3.446   2.731  0.4420  2.1057  0.4719
  152TIP3    H2  421   4.816   3.336   2.639 -1.2945 -0.8368  2.8970
  153TIP3   OH2  422   7.153   1.279   2.720  0.3391 -0.5216 -0.5536
  153TIP3    H1  423   7.242   1.275   2.686  0.9979  1.0802  0.8478
  153TIP3    H2  424   7.129   1.371   2.712  0.3129 -0.1610  2.6263
  154TIP3   OH2  425   3.240   2.682   3.697 -0.1560 -0.5072 -0.0394
  154TIP3    H1  426   3.306   2.613   3.707 -2.2273 -2.6888 -0.5505
  154TIP3    H2  427   3.291   2.764   3.695  2.4614 -2.0237  0.0107
  155TIP3   OH2  428   3.722   3.522   4.953  0.1842  0.2795  0.0426
  155TIP3    H1  429   3.729   3.465   4.876  0.1050  0.3975 -0.0541
  155TIP3    H2  430   3.662   3.477   5.011  1.8234 -0.8212  0.9518
  156TIP3   OH2  431   2.884   6.044   1.853 -0.4219 -0.3804 -0.4868
  156TIP3    H1  432   2.849   5.979   1.793 -0.2242 -0.5979 -0.3716
  156TIP3    H2  433   2.938   5.993   1.914 -0.1186 -0.0859 -0.5049
  157TIP3   OH2  434   6.946   2.510   3.598 -0.3672  0.0843 -0.0390
  157TIP3    H1  435   6.867   2.564   3.596  0.3616  1.1723 -1.1471
  157TIP3    H2  436   6.921   2.429   3.554 -0.3107  1.3348 -2.5655
  158TIP3   OH2  437   0.701   2.033   4.164  0.0380  0.7519 -0.2560
  158TIP3    H1  438   0.693   2.129   4.166  3.3628  1.1491  0.1182
  158TIP3    H2  439   0.732   2.015   4.075  2.2004  0.4204  0.5097
  159TIP3   OH2  440   6.202   3.196   2.541  0.2905 -0.5079 -0.3231
  159TIP3    H1  441   6.126   3.219   2.487  0.1920  0.7064  0.2987
  159TIP3    H2  442   6.241   3.121   2.496 -0.6350 -0.4567 -1.2597
  160TIP3   OH2  443   2.125   0.968   3.042 -0.1147 -0.5648 -0.2985
  160TIP3    H1  444   2.089   0.986   2.954 -0.3414 -0.4975 -0.1940
  160TIP3    H2  445   2.065   0.904   3.079 -0.9030  0.5308  0.3860
  161TIP3   OH2  446   2.999   2.251   5.362 -0.2194  0.1729  0.6491
  161TIP3    H1  447   3.080   2.302   5.370 -0.1164  0.0417  0.4410
  161TIP3    H2  448   2.982   2.220   5.450  0.0959 -0.0103  0.6482
  162TIP3   OH2  449   0.157   3.419   2.843 -0.3589 -0.3863  0.4879
  162TIP3    H1  450   0.196   3.368   2.914 -0.1348 -0.7561  0.1058
  162TIP3    H2  451   0.075   3.452   2.879  0.3418  0.5001  1.3468
  163TIP3   OH2  452   2.464   1.624   4.384 -0.0888 -0.0470  0.4174
  163TIP3    H1  453   2.371   1.640   4.402 -0.2098 -0.4861  0.1979
  163TIP3    H2  454   2.497   1.583   4.464  0.0727  0.6978  0.7407
  164TIP3   OH2  455   2.401   3.061   5.593 -0.3954  0.3828  0.1349
  164TIP3    H1  456   2.472   3.018   5.640  0.0773  0.5553 -0.4171
  164TIP3    H2  457   2.406   3.026   5.504  0.3826  1.9928 -0.4983
  165TIP3   OH2  458   0.300   5.225   2.032 -0.0851 -0.0972  0.4377
  165TIP3    H1  459   0.346   5.308   2.024 -0.4465  0.2523  1.7731
  165TIP3    H2  460   0.227   5.232   1.971  0.2025  0.3337  0.1362
  166TIP3   OH2  461   1.233   4.300   2.026  0.0989  0.3171  0.4091
  166TIP3    H1  462   1.268   4.345   1.949  1.5850 -0.8380  0.3517
  166TIP3    H2  463   1.310   4.283   2.080 -0.5116 -1.4139  0.7962
  167TIP3   OH2  464   1.226   1.319   0.847  0.2557 -0.6090 -0.1995
  167TIP3    H1  465   1.272   1.345   0.927 -1.1802 -0.6523  0.6818
  167TIP3    H2  466   1.200   1.402   0.806  0.2976 -0.5911 -0.1892
  168TIP3   OH2  467   5.543   3.827   5.151  0.4806  0.2943  0.7588
  168TIP3    H1  468   5.558   3.865   5.238  2.3877 -0.7457  0.9534
  168TIP3    H2  469   5.630   3.825   5.111 -0.0424 -1.1202 -0.3857
  169TIP3   OH2  470   5.507   3.191   1.202 -0.0884  0.2701 -0.5035
  169TIP3    H1  471   5.565   3.254   1.157  1.1676 -0.6809 -0.2652
  169TIP3    H2  472   5.509   3.218   1.293  0.3070 -0.0010 -0.4304
  170TIP3   OH2  473   6.702   2.732   0.354  0.3203 -0.1324  0.0938
  170TIP3    H1  474   6.652   2.774   0.424  0.0567 -1.0245  0.4651
  170TIP3    H2  475   6.776   2.791   0.338 -0.3347  0.7337  0.1993
  171TIP3   OH2  476   3.387   3.300   3.780  0.4276 -0.3814  0.6865
  171TIP3    H1  477   3.445   3.245   3.833 -2.6731 -4.2413  0.5524
  171TIP3    H2  478   3.413   3.390   3.801  4.4679 -1.7663  2.6570
  172TIP3   OH2  479   3.984   0.621   4.780 -0.1479 -0.5313 -0.1081
  172TIP3    H1  480   4.016   0.573   4.857  1.2031  1.2931  0.5589
  172TIP3    H2  481   4.035   0.702   4.780 -1.3474  0.2933 -1.9648
  173TIP3   OH2  482   5.672   0.679   0.222  0.0128  0.4895 -0.3643
  173TIP3    H1  483   5.616   0.694   0.299  0.9510 -0.4298  0.5280
  173TIP3    H2  484   5.760   0.703   0.251  0.1911  1.3735 -1.5758
  174TIP3   OH2  485   1.830   2.021   0.999 -0.5281 -0.0569 -0.2391
  174TIP3    H1  486   1.742   2.020   1.035  0.1107 -2.6207  1.5102
  174TIP3    H2  487   1.817   2.031   0.905 -2.5184  1.8612  0.1567
  175TIP3   OH2  488   4.876   1.535   4.600 -0.3962  0.0085 -0.5187
  175TIP3    H1  489   4.826   1.616   4.608 -2.2764 -1.2081  0.7894
  175TIP3    H2  490   4.963   1.564   4.572 -0.1230  2.7953  2.5196
  176TIP3   OH2  491   1.358   5.276   1.231 -0.3803 -0.5721  0.6007
  176TIP3    H1  492   1.375   5.326   1.311  1.9469 -1.7347  0.9325
  176TIP3    H2  493   1.264   5.261   1.231 -0.9646  2.4056  1.2748
  177TIP3   OH2  494   6.199   0.810   1.107  0.1608 -0.2638  0.2296
  177TIP3    H1  495   6.244   0.774   1.184  2.3197  0.5505 -0.6011
  177TIP3    H2  496   6.267   0.854   1.057 -1.8126  2.3777 -0.3615
  178TIP3   OH2  497   6.501   2.374   5.703  0.5462  0.2307 -0.2942
  178TIP3    H1  498   6.537   2.286   5.698  1.3011  0.5341 -0.2572
  178TIP3    H2  499   6.571   2.431   5.672  0.2798  0.8797  0.2681
  179TIP3   OH2  500   4.688   1.780   5.460 -0.2306 -0.4686  0.2483
  179TIP3    H1  501   4.779   1.790   5.433 -0.4411 -1.8162 -1.1180
  179TIP3    H2  502   4.692   1.729   5.540  0.1883 -2.1014 -0.7661
  180TIP3   OH2  503   4.658   4.868   0.099 -0.2753  0.3555 -0.1361
  180TIP3    H1  504   4.565   4.874   0.078 -0.0170  2.7919 -0.8466
  180TIP3    H2  505   4.660   4.847   0.192 -1.4693 -1.4129 -0.4389
  181TIP3   OH2  506   6.454   6.335   4.172 -0.3928 -0.8851  0.0718
  181TIP3    H1  507   6.460   6.428   4.193 -4.0731 -0.3948 -0.3399
  181TIP3    H2  508   6.488   6.290   4.249  0.9937  0.7573  0.4834
  182TIP3   OH2  509   2.872   1.857   2.216  0.3890  0.5875 -0.0303
  182TIP3    H1  510   2.777   1.853   2.221  0.4406 -0.4945  0.5433
  182TIP3    H2  511   2.893   1.950   2.215 -0.6624  0.8359  0.1843
  183TIP3   OH2  512   2.229   5.919   1.059  0.0163  0.0543 -0.1161
  183TIP3    H1  513   2.279   5.909   0.978  0.2751  0.4655 -0.0077
  183TIP3    H2  514   2.200   6.010   1.058 -0.4653 -0.0927 -0.0207
  184TIP3   OH2  515   4.792   1.305   4.514  0.3225  0.8278  0.3423
  184TIP3    H1  516   4.834   1.390   4.529 -0.2163  0.9965  0.9089
  184TIP3    H2  517   4.714   1.325   4.463 -0.3346  0.8085  1.2989
  185TIP3   OH2  518   5.897   1.512   4.754  0.1274 -0.4876  0.2679
  185TIP3    H1  519   5.832   1.530   4.821 -0.7170 -1.9266 -0.1143
  185TIP3    H2  520   5.945   1.437   4.787 -0.5898 -1.5004 -0.8901
  186TIP3   OH2  521   2.394   6.463   3.404  0.2800 -0.1882 -0.0383
  186TIP3    H1  522   2.382   6.512   3.485 -1.9447 -2.1238  0.9043
  186TIP3    H2  523   2.373   6.372   3.427 -0.7211 -0.7610 -2.8424
  187TIP3   OH2  524   5.841   2.048   3.546 -0.4321  0.3053 -0.0828
  187TIP3    H1  525   5.897   2.038   3.470 -0.7207 -0.2530 -0.2316
  187TIP3    H2  526   5.885   2.112   3.602  0.2099  0.0719 -0.3200
  188TIP3   OH2  527   0.611   5.198   4.218 -0.3379  0.0278 -0.4953
  188TIP3    H1  528   0.540   5.260   4.199  0.0264  0.0508 -1.9101
  188TIP3    H2  529   0.591   5.165   4.306 -1.4431  0.9161 -0.3839
  189TIP3   OH2  530   3.035   1.200   1.450  0.6479 -0.2494 -0.0567
  189TIP3    H1  531   2.980   1.268   1.411  0.3709 -0.9016 -0.8404
  189TIP3    H2  532   3.123   1.218   1.417  0.6108 -0.1559 -0.1048
  190TIP3   OH2  533   6.466   5.262   4.025  0.1845 -0.3883 -0.1210
  190TIP3    H1  534   6.526   5.188   4.037  1.2921  0.6472  1.1542
  190TIP3    H2  535   6.503   5.310   3.950 -0.6665 -1.2144 -1.0964
  191TIP3   OH2  536   0.169   4.318   4.425  0.0690  0.6840  0.2261
  191TIP3    H1  537   0.182   4.413   4.424 -1.0502  0.8500  0.0735
  191TIP3    H2  538   0.201   4.290   4.511  1.7849  0.9682 -0.2798
  192TIP3   OH2  539   0.360   5.772   1.128 -1.0743  0.3393 -0.3358
  192TIP3    H1  540   0.267   5.751   1.122 -1.3169  1.4416 -0.6507
  192TIP3    H2  541   0.388   5.783   1.037 -0.5365 -0.3411 -0.2649
  193TIP3   OH2  542   5.884   2.138   4.245 -0.2280  0.0419  0.3137
  193TIP3    H1  543   5.836   2.121   4.164 -1.8783 -0.7076  1.3853
  193TIP3    H2  544   5.937   2.059   4.259  0.1415  0.2171 -0.0718
  194TIP3   OH2  545   3.245   2.614   0.925 -0.4094 -0.0815 -0.7957
  194TIP3    H1  546   3.291   2.643   1.004  0.6025 -1.6763 -0.7583
  194TIP3    H2  547   3.160   2.659   0.929  0.3410  1.3272  0.2012
  195TIP3   OH2  548   5.366   2.579   4.781 -0.1838 -0.0940  0.4774
  195TIP3    H1  549   5.415   2.498   4.770  1.2418  0.6062  1.3604
  195TIP3    H2  550   5.289   2.569   4.724  0.0921 -1.9314  0.3875
  196TIP3   OH2  551   3.670   3.461   3.950  0.1035 -0.1770 -0.6664
  196TIP3    H1  552   3.604   3.522   3.983 -0.0056 -0.5358 -0.2111
  196TIP3    H2  553   3.691   3.405   4.025  2.3309  1.1341 -0.2441
  197TIP3   OH2  554   4.151   4.881   4.308  0.0395  0.5095 -0.2377
  197TIP3    H1  555   4.142   4.884   4.213  1.6084 -0.8351 -0.4899
  197TIP3    H2  556   4.093   4.809   4.335  2.3193 -1.6690 -0.7082
  198TIP3   OH2  557   1.829   1.718   1.646 -0.3638 -0.1329 -0.2751
  198TIP3    H1  558   1.885   1.757   1.713 -0.3491 -1.6716  0.6452
  198TIP3    H2  559   1.750   1.692   1.692  0.2731 -2.6541 -0.4434
  199TIP3   OH2  560   6.750   2.454   5.605 -0.2112 -0.1393 -0.5769
  199TIP3    H1  561   6.789   2.422   5.523  2.0769 -0.4621  0.5658
  199TIP3    H2  562   6.803   2.529   5.630 -2.4007  1.5129 -0.5802
  200TIP3   OH2  563   6.604   5.221   3.789  0.0467  0.1435 -0.0437
  200TIP3    H1  564   6.614   5.308   3.828 -0.8075 -0.2543  1.0987
  200TIP3    H2  565   6.524   5.228   3.737 -1.2062 -0.5185  1.7175
  201TIP3   OH2  566   2.700   6.729   2.087 -0.4622  0.4500  0.2616
  201TIP3    H1  567   2.686   6.635   2.073 -1.1235  0.6320 -0.3689
  201TIP3    H2  568   2.792   6.735   2.115 -0.0184 -0.2748 -0.9132
  202TIP3   OH2  569   0.873   0.984   3.651 -0.4786 -0.0990  0.1849
  202TIP3    H1  570   0.901   0.967   3.741  1.4967  1.4599 -0.0569
  202TIP3    H2  571   0.946   0.954   3.597 -1.1550  0.0143 -0.8139
  203TIP3   OH2  572   4.961   5.219   2.514 -0.7952 -0.1402  0.2360
  203TIP3    H1  573   5.019   5.282   2.557 -0.6953 -0.4952  0.6295
  203TIP3    H2  574   4.947   5.255   2.426  0.5493 -0.3890 -0.0870
  204TIP3   OH2  575   5.482   6.161   0.380  0.3779  0.3522 -0.7261
  204TIP3    H1  576   5.549   6.176   0.314  3.8289 -2.0442  1.8335
  204TIP3    H2  577   5.531   6.144   0.461 -3.3780 -0.6331  1.6358
  205TIP3   OH2  578   6.046   5.134   1.903 -0.7214  0.6469 -0.0082
  205TIP3    H1  579   5.962   5.179   1.899 -0.4886  0.9975 -2.1128
  205TIP3    H2  580   6.091   5.159   1.823  0.8061 -0.6973  0.3622
  206TIP3   OH2  581   1.749   5.279   2.480  0.4208 -0.5348  0.6289
  206TIP3    H1  582   1.673   5.315   2.526  2.1031  0.0711  3.1155
  206TIP3    H2  583   1.783   5.212   2.538  1.9971 -0.5522 -0.2515
  207TIP3   OH2  584   1.039   3.695   0.645 -0.1205  0.0960  0.5903
  207TIP3    H1  585   1.116   3.749   0.624 -0.1799  0.1303  0.4599
  207TIP3    H2  586   0.993   3.745   0.713  0.1357 -0.0729  0.8863
  208TIP3   OH2  587   4.036   0.199   0.387  0.1117 -0.2868  0.6316
  208TIP3    H1  588   3.956   0.214   0.337 -0.0881  0.2083  1.0937
  208TIP3    H2  589   4.094   0.271   0.362  0.9297 -1.3656 -0.7127
  209TIP3   OH2  590   0.682   3.404   5.603 -0.1971  0.2447 -0.0326
  209TIP3    H1  591   0.613   3.371   5.546 -0.8322  0.4914  0.5792
  209TIP3    H2  592   0.637   3.464   5.663  0.4958  0.1805  0.5634
  210TIP3   OH2  593   4.453   4.245   4.035 -0.2167  0.1646  0.7893
  210TIP3    H1  594   4.532   4.298   4.044 -0.3177  0.4265  0.1861
  210TIP3    H2  595   4.407   4.256   4.118  0.9129 -0.8885  1.5991
  211TIP3   OH2  596   6.457   1.884   3.048 -0.1268  0.0406  0.5934
  211TIP3    H1  597   6.481   1.898   2.956 -0.2746 -2.1968  0.1565
  211TIP3    H2  598   6.368   1.918   3.055 -0.7443 -1.2361 -0.5572
  212TIP3   OH2  599   5.407   2.632   3.155 -0.0768 -0.4881 -0.0709
  212TIP3    H1  600   5.366   2.587   3.082  4.1834 -1.0968 -2.4561
  212TIP3    H2  601   5.445   2.562   3.209 -0.4859  0.0595  0.9533
  213TIP3   OH2  602   1.081   4.867   0.292 -0.1937 -0.3371 -0.0954
  213TIP3    H1  603   1.022   4.848   0.219  1.1623 -0.9602 -1.0698
  213TIP3    H2  604   1.034   4.932   0.344 -1.7406 -0.8276 -0.8209
  214TIP3   OH2  605   1.060   5.122   5.331 -0.3977  0.6224  0.2540
  214TIP3    H1  606   1.089   5.133   5.240 -2.0621  0.3824 -0.3422
  214TIP3    H2  607   1.120   5.056   5.367 -0.8131 -0.6316 -1.2360
  215TIP3   OH2  608   5.237   0.111   5.743 -0.0819 -0.3679 -0.7926
  215TIP3    H1  609   5.314   0.155   5.707 -0.3108  0.1704 -0.6387
  215TIP3    H2  610   5.262   0.019   5.747  0.2014 -0.3483 -1.6774
  216TIP3   OH2  611   5.853   0.364   5.108 -0.1090  0.3170 -0.6578
  216TIP3    H1  612   5.944   0.389   5.093  0.0283  0.4195  0.2952
  216TIP3    H2  613   5.845   0.277   5.069 -0.3072  1.3225 -3.0343
  217TIP3   OH2  614   2.881   0.067   0.057  0.1377  0.6293 -0.1909
  217TIP3    H1  615   2.939   0.027   0.123  1.2690  1.6922 -0.5009
  217TIP3    H2  616   2.911   0.158   0.051  0.2210  0.5072 -2.3264
  218TIP3   OH2  617   5.881   5.303   0.042  0.1367  0.8283 -0.2153
  218TIP3    H1  618   5.917   5.385   0.076 -0.2962  1.6094 -1.5544
  218TIP3    H2  619   5.930   5.286  -0.038 -1.9137  1.5564 -1.7246
  219TIP3   OH2  620   4.257   4.613   0.843 -0.1065  0.5182  0.0176
  219TIP3    H1  621   4.291   4.591   0.930 -1.8048 -0.2277  0.5265
  219TIP3    H2  622   4.299   4.550   0.785 -1.1770 -0.9518  0.7582
  220TIP3   OH2  623   0.240   1.322   3.586  0.0833 -0.3932 -0.4421
  220TIP3    H1  624   0.229   1.257   3.516  1.2982 -0.2456 -0.7857
  220TIP3    H2  625   0.220   1.273   3.666  1.5826 -1.4018 -0.6398
  221TIP3   OH2  626   0.569   0.037   0.011 -0.3780 -0.6391  0.0215
  221TIP3    H1  627   0.608   0.125   0.010  2.5485 -1.8128  0.4165
  221TIP3    H2  628   0.526   0.031   0.096 -2.3945  1.0185 -0.7749
  222TIP3   OH2  629   6.292   0.385   1.187  0.2155  0.0957 -0.0271
  222TIP3    H1  630   6.276   0.415   1.276 -0.3158  0.5844 -0.2791
  222TIP3    H2  631   6.366   0.438   1.157 -0.6374  1.0848 -0.4258
  223TIP3   OH2  632   1.851   2.286   1.617 -0.1714 -0.8087 -0.1408
  223TIP3    H1  633   1.899   2.292   1.700 -1.6657 -0.8943  0.7852
  223TIP3    H2  634   1.830   2.192   1.610  1.8203 -1.1992 -1.7855
  224TIP3   OH2  635   4.133   6.722   0.704  0.7140 -0.1025 -0.1999
  224TIP3    H1  636   4.172   6.802   0.668  0.3741 -0.2098 -0.8312
  224TIP3    H2  637   4.065   6.699   0.641 -0.3304  0.0409  0.8528
  225TIP3   OH2  638   5.568   1.946   0.784 -0.0501 -0.0283 -0.8063
  225TIP3    H1  639   5.508   1.997   0.838  0.7739  0.7446 -0.6009
  225TIP3    H2  640   5.514   1.914   0.712 -0.4840  1.5842 -1.2340
  226TIP3   OH2  641   5.810   0.624   2.705  0.2307  0.3305 -0.2298
  226TIP3    H1  642   5.828   0.694   2.642 -0.3068 -0.4188 -1.2346
  226TIP3    H2  643   5.768   0.555   2.654 -2.7787  0.7720  1.4218
  227TIP3   OH2  644   3.061   4.973   0.705 -0.0307  0.2644  0.7371
  227TIP3    H1  645   3.116   5.048   0.727  0.3693  0.1359  0.2013
  227TIP3    H2  646   3.040   4.932   0.789  1.7518 -0.4286  0.8963
  228TIP3   OH2  647   5.639   0.427   1.240 -0.5212  0.1259  0.0213
  228TIP3    H1  648   5.607   0.337   1.249 -1.9980  0.6349  0.2127
  228TIP3    H2  649   5.661   0.454   1.329 -1.4361  0.4134  0.1673
  229TIP3   OH2  650   4.269   6.161   2.633 -0.2979  0.3125  0.1033
  229TIP3    H1  651   4.212   6.101   2.681 -0.4216 -0.0593 -0.4977
  229TIP3    H2  652   4.209   6.228   2.598 -0.5632 -0.6962 -1.4871
  230TIP3   OH2  653   0.231   3.548   0.224 -0.5507  0.0579  0.2976
  230TIP3    H1  654   0.326   3.546   0.229 -0.5185  0.0703 -0.2587
  230TIP3    H2  655   0.203   3.581   0.310  0.0500  2.4702 -0.3560
  231TIP3   OH2  656   0.117   0.071   5.424  0.0497 -0.5272 -0.2692
  231TIP3    H1  657   0.169   0.101   5.350  0.7039 -0.1187  0.3483
  231TIP3    H2  658   0.126   0.140   5.489  0.2964 -1.3392  0.5680
  232TIP3   OH2  659   7.091   1.482   1.286  0.0668 -0.3682  0.0673
  232TIP3    H1  660   7.036   1.424   1.339  0.2894 -0.4998  0.1572
  232TIP3    H2  661   7.116   1.429   1.210  1.5611 -0.9440  0.9123
  233TIP3   OH2  662   4.936   2.084   0.982  0.1794  0.4435  0.0405
  233TIP3    H1  663   4.906   2.005   1.027  1.3242 -0.0982 -0.1138
  233TIP3    H2  664   5.007   2.117   1.037  0.2896  0.8744 -0.3519
  234TIP3   OH2  665   2.976   0.731   4.078 -0.3418 -0.6530 -0.3408
  234TIP3    H1  666   3.023   0.726   3.995  1.0953 -3.9670  0.5167
  234TIP3    H2  667   3.018   0.803   4.125 -0.8172  0.9050 -2.1796
  235TIP3   OH2  668   4.503   2.081   1.866 -0.0190 -0.2289  0.6837
  235TIP3    H1  669   4.561   2.082   1.790  0.5531  1.3508  1.1027
  235TIP3    H2  670   4.527   2.001   1.913  0.0718 -0.8840 -0.4410
  236TIP3   OH2  671   6.363   5.117   1.443  0.1819 -0.4843 -0.0517
  236TIP3    H1  672   6.443   5.095   1.491  0.1006 -0.5700  0.0449
  236TIP3    H2  673   6.349   5.210   1.460  0.8188 -0.2272 -0.8901
  237TIP3   OH2  674   7.038   5.212   1.834 -0.0088  0.7835  0.0575
  237TIP3    H1  675   6.976   5.248   1.898  0.3315  0.1195  0.7818
  237TIP3    H2  676   7.096   5.156   1.886  1.4175  1.6398 -0.5407
  238TIP3   OH2  677   4.920   1.910   2.856  0.2492  0.2376 -0.0465
  238TIP3    H1  678   4.904   1.995   2.897  1.7497  0.9470 -0.8335
  238TIP3    H2  679   5.000   1.877   2.898  0.4986 -0.0956 -0.7675
  239TIP3   OH2  680   0.470   2.571   3.480 -0.2956 -0.3156 -0.0372
  239TIP3    H1  681   0.539   2.547   3.419 -1.8942 -0.8926 -1.6815
  239TIP3    H2  682   0.457   2.665   3.466 -0.8931 -0.5125 -0.8639
  240TIP3   OH2  683   4.342   2.431   5.799 -0.0413  0.0474 -0.3393
  240TIP3    H1  684   4.430   2.469   5.792 -0.2278  0.8383  1.2028
  240TIP3    H2  685   4.322   2.402   5.710  2.0453 -0.7803 -0.6053
  241TIP3   OH2  686   6.323   2.747   2.080 -0.0386 -0.4181  0.5180
  241TIP3    H1  687   6.384   2.703   2.020  2.0215 -0.7111  2.7057
  241TIP3    H2  688   6.309   2.684   2.151 -1.5353  0.3498  0.9502
  242TIP3   OH2  689   4.171   0.988   1.561 -0.0766 -0.3112  0.5054
  242TIP3    H1  690   4.222   1.006   1.639  0.5377 -0.3827  0.1230
  242TIP3    H2  691   4.223   0.925   1.511 -0.3616 -0.1108 -0.0580
  243TIP3   OH2  692   2.080   4.853   0.526  0.1282  0.3971 -0.3551
  243TIP3    H1  693   1.985   4.868   0.522 -0.2019 -0.1542  2.8558
  243TIP3    H2  694   2.117   4.941   0.539 -0.1514  0.4136  0.3839
  244TIP3   OH2  695   3.098   1.852   2.489 -0.1176  0.2264 -0.4526
  244TIP3    H1  696   3.064   1.904   2.563 -1.1241  0.0254 -0.7552
  244TIP3    H2  697   3.146   1.781   2.530 -2.5634 -1.2065  0.1491
  245TIP3   OH2  698   4.919   0.734   3.045  0.5234  0.9885 -0.4327
  245TIP3    H1  699   4.964   0.676   3.107 -1.5773 -1.1653 -0.8047
  245TIP3    H2  700   4.894   0.810   3.098 -0.3803 -0.3555  1.1634
  246TIP3   OH2  701   2.174   2.618   3.391  0.1123 -0.3295 -0.2513
  246TIP3    H1  702   2.080   2.609   3.403  0.0673 -0.1758 -0.4859
  246TIP3    H2  703   2.203   2.667   3.469  0.0248 -0.5146 -0.1010
  247TIP3   OH2  704   4.948   1.725   3.148 -0.3245 -0.2263  0.4685
  247TIP3    H1  705   4.867   1.771   3.128  0.5828  0.6563 -1.4825
  247TIP3    H2  706   4.933   1.636   3.118 -0.0827  0.3202 -1.4040
  248TIP3   OH2  707   1.727   6.381   0.673  0.3303 -0.0298  0.1053
  248TIP3    H1  708   1.788   6.315   0.639  0.8994  0.1364  0.7669
  248TIP3    H2  709   1.672   6.332   0.734 -0.7934 -0.3608 -1.1199
  249TIP3   OH2  710   6.638   4.561   4.660 -0.0756 -0.3180 -0.8313
  249TIP3    H1  711   6.622   4.636   4.603 -0.1587 -0.3570 -0.8587
  249TIP3    H2  712   6.659   4.600   4.745 -1.5257 -0.2865 -0.4655
  250TIP3   OH2  713   0.046   6.607   2.215 -0.0046  0.5260 -0.5264
  250TIP3    H1  714  -0.026   6.551   2.185 -1.1540  1.0196  1.1675
  250TIP3    H2  715   0.015   6.696   2.200  0.1543  0.7493  0.4273
  251TIP3   OH2  716   0.722   2.353   0.900 -0.0489  0.3883  0.2174
  251TIP3    H1  717   0.785   2.389   0.837  0.9945 -2.5883 -0.6417
  251TIP3    H2  718   0.775   2.333   0.977  0.6647 -3.6664 -1.0947
  252TIP3   OH2  719   1.268   5.790   5.245 -0.6567  0.0349  0.4280
  252TIP3    H1  720   1.349   5.739   5.251 -0.3744  0.2069 -1.3190
  252TIP3    H2  721   1.277   5.858   5.312 -0.2012 -1.0624  1.5043
  253TIP3   OH2  722   0.256   5.652   4.457 -0.2098 -0.7420  0.0934
  253TIP3    H1  723   0.272   5.685   4.546 -0.0403 -0.0127 -0.2015
  253TIP3    H2  724   0.291   5.720   4.400 -0.2384 -1.2504 -0.5353
  254TIP3   OH2  725   6.514   6.070   4.765  0.3147 -0.0840 -0.0689
  254TIP3    H1  726   6.563   6.061   4.847  0.1924  1.1915  0.1672
  254TIP3    H2  727   6.502   6.165   4.755 -0.4245 -0.2759 -1.1194
  255TIP3   OH2  728   3.055   6.388   5.852  0.1391 -0.3520  0.0745
  255TIP3    H1  729   3.108   6.402   5.930 -0.1999 -3.8587  1.1180
  255TIP3    H2  730   3.118   6.381   5.781  0.6817 -0.0434  0.5176
  256TIP3   OH2  731   4.711   6.625   1.159  0.2081  0.3350 -0.0820
  256TIP3    H1  732   4.662   6.597   1.082 -0.5783  0.3390  0.4072
  256TIP3    H2  733   4.719   6.720   1.149 -1.4428  0.5827  0.7031
  257TIP3   OH2  734   5.175   5.498   0.547  0.4986  0.5080  0.1207
  257TIP3    H1  735   5.090   5.523   0.582  0.7742 -0.9931  1.9896
  257TIP3    H2  736   5.225   5.579   0.545  0.5383  0.6913  3.5230
  258TIP3   OH2  737   0.044   6.567   1.081 -0.5025 -0.1593  0.3032
  258TIP3    H1  738  -0.007   6.560   1.162 -0.1858 -0.1202  0.5078
  258TIP3    H2  739   0.119   6.622   1.104  0.9590 -2.2071  0.6829
  259TIP3   OH2  740   0.935   4.128   0.924 -0.0300  0.0644 -0.2940
  259TIP3    H1  741   0.880   4.193   0.880  1.1505  1.7456  0.6351
  259TIP3    H2  742   1.024   4.154   0.903  0.4736 -1.8373 -0.6640
  260TIP3   OH2  743   2.780   4.367   1.901  0.6943  0.6331 -0.2084
  260TIP3    H1  744   2.689   4.393   1.913  0.4838 -0.6131  1.0119
  260TIP3    H2  745   2.803   4.318   1.980  1.8052 -0.8085 -1.3594
  261TIP3   OH2  746   0.858   3.964   0.297 -0.4223 -0.2815 -0.7767
  261TIP3    H1  747   0.939   3.980   0.346 -1.0128 -1.4568  0.6582
  261TIP3    H2  748   0.844   4.044   0.246  0.7721  0.5837  0.2051
  262TIP3   OH2  749   3.154   4.727   3.013  0.5212  0.0975  0.6555
  262TIP3    H1  750   3.135   4.669   2.939 -1.5969 -0.6022  1.6648
  262TIP3    H2  751   3.155   4.815   2.975  1.1707 -0.3770 -0.4723
  263TIP3   OH2  752   1.500   4.212   2.998 -0.1147  0.0575 -0.6180
  263TIP3    H1  753   1.422   4.247   3.040  0.0512 -0.8164  0.4652
  263TIP3    H2  754   1.539   4.287   2.953 -0.2758  1.0534  0.8334
  264TIP3   OH2  755   1.607   3.183   2.422  0.0484 -0.2280 -0.3028
  264TIP3    H1  756   1.576   3.094   2.436 -1.1098  0.4829  2.1179
  264TIP3    H2  757   1.681   3.193   2.483  0.2062  0.4641 -0.5909
  265TIP3   OH2  758   1.019   5.828   2.949  0.0138 -0.0015 -0.4625
  265TIP3    H1  759   1.013   5.745   2.901 -0.2662 -1.2399  1.5783
  265TIP3    H2  760   0.955   5.820   3.020  0.7271  1.5302  0.4143
  266TIP3   OH2  761   6.868   2.148   5.742 -0.3669 -0.0706  0.5629
  266TIP3    H1  762   6.842   2.223   5.795  0.2826 -0.0316  0.8327
  266TIP3    H2  763   6.928   2.099   5.798 -1.3726 -1.2170  0.6951
  267TIP3   OH2  764   5.152   2.654   4.569  0.0833 -0.0497  0.1407
  267TIP3    H1  765   5.237   2.671   4.528  1.0013 -1.4834  1.3434
  267TIP3    H2  766   5.107   2.595   4.509  1.1228 -1.5531  0.7889
  268TIP3   OH2  767   0.066   5.040   1.583 -0.0057  0.1070 -0.2114
  268TIP3    H1  768  -0.011   4.996   1.619 -0.7965  1.1028 -0.6220
  268TIP3    H2  769   0.133   4.971   1.578 -0.4980 -0.5213  1.2073
  269TIP3   OH2  770   1.336   1.886   3.532 -0.0570 -0.7135  0.0145
  269TIP3    H1  771   1.361   1.891   3.624  3.5800 -0.9564 -0.8087
  269TIP3    H2  772   1.360   1.797   3.505 -1.6456 -0.8582 -1.0486
  270TIP3   OH2  773   6.276   3.848   3.244 -0.3427  0.2665 -0.5532
  270TIP3    H1  774   6.204   3.789   3.266 -1.9074  0.7364 -3.8075
  270TIP3    H2  775   6.351   3.790   3.227 -0.3632 -0.3354  1.1907
  271TIP3   OH2  776   2.342   1.696   1.739 -0.1482 -0.2365 -0.3571
  271TIP3    H1  777   2.293   1.647   1.806 -0.8614  0.5883 -0.2550
  271TIP3    H2  778   2.293   1.778   1.729  0.4799  0.0473 -1.2185
  272TIP3   OH2  779   4.386   6.686   4.767  0.3827 -0.0476 -0.6886
  272TIP3    H1  780   4.314   6.694   4.830 -0.2695  0.3044 -1.4651
  272TIP3    H2  781   4.430   6.770   4.770 -0.7111  0.5999 -1.9509
  273TIP3   OH2  782   6.989   1.164   0.306 -0.1846 -0.2098 -0.4939
  273TIP3    H1  783   6.954   1.243   0.348  0.4235  0.1409 -0.6443
  273TIP3    H2  784   6.949   1.163   0.219 -1.4701 -0.9518  0.0838
  274TIP3   OH2  785   6.602   0.243   1.137  0.2001 -0.4153  0.0384
  274TIP3    H1  786   6.663   0.305   1.177  0.1196 -0.1668 -0.2197
  274TIP3    H2  787   6.648   0.159   1.140 -0.2477 -0.6268  1.6644
  275TIP3   OH2  788   0.460   3.691   4.236 -0.2860  0.0490 -0.1770
  275TIP3    H1  789   0.431   3.759   4.174 -1.2728  1.2611  1.5190
  275TIP3    H2  790   0.495   3.740   4.310  1.5188 -1.3808 -0.0236
  276TIP3   OH2  791   0.645   2.028   0.986 -0.5119 -0.0325  0.3077
  276TIP3    H1  792   0.713   2.061   0.928 -0.1240  1.1415  1.4016
  276TIP3    H2  793   0.581   2.099   0.992 -0.9501 -0.4464  0.6926
  277TIP3   OH2  794   0.962   3.323   5.070  0.0620 -0.3044  0.2549
  277TIP3    H1  795   1.035   3.339   5.010 -0.1208 -0.2038  0.0583
  277TIP3    H2  796   0.998   3.265   5.137 -0.4345 -2.8138 -1.4732
  278TIP3   OH2  797   5.656   0.705   2.414 -0.3603 -0.4619  0.1450
  278TIP3    H1  798   5.623   0.639   2.476 -2.1055  0.7158  0.5588
  278TIP3    H2  799   5.740   0.732   2.450 -0.2764 -1.4708  0.7340
  279TIP3   OH2  800   3.948   3.120   0.773 -0.2096  0.0294 -0.0998
  279TIP3    H1  801   4.039   3.149   0.779 -0.0685 -0.2276 -0.9283
  279TIP3    H2  802   3.897   3.202   0.772  0.0579  0.1914 -0.4353
  280TIP3   OH2  803   6.878   3.130   3.695 -0.3824  0.4647 -0.7123
  280TIP3    H1  804   6.824   3.192   3.744 -0.7195 -0.4685  0.1355
  280TIP3    H2  805   6.904   3.065   3.760  1.6218  0.7741 -1.1421
  281TIP3   OH2  806   0.666   0.016   4.133 -0.0018  0.1793  0.4401
  281TIP3    H1  807   0.597   0.066   4.090 -0.6569  0.8909  2.2287
  281TIP3    H2  808   0.747   0.063   4.110 -0.3877  0.8268  0.3831
  282TIP3   OH2  809   1.004   6.348   1.351  0.5225 -0.1109 -0.0807
  282TIP3    H1  810   1.077   6.360   1.411 -0.4086  0.2833  1.0218
  282TIP3    H2  811   0.968   6.262   1.373 -1.8228  1.3281  2.3000
  283TIP3   OH2  812   0.728   4.349   2.785  0.8980  0.1448  0.3122
  283TIP3    H1  813   0.770   4.267   2.761  1.7516  0.1257  1.7258
  283TIP3    H2  814   0.752   4.362   2.877 -0.6079  1.1397  0.5935
  284TIP3   OH2  815   5.611   0.601   4.735  0.3537 -0.4445 -0.4166
  284TIP3    H1  816   5.664   0.522   4.720  0.1944 -0.7272  0.4145
  284TIP3    H2  817   5.549   0.602   4.663  0.0951 -1.3177 -0.2250
  285TIP3   OH2  818   2.388   1.066   2.443  0.1318  0.0449  0.0448
  285TIP3    H1  819   2.385   0.971   2.430  0.9442 -0.0592  0.5304
  285TIP3    H2  820   2.463   1.080   2.501 -0.0256  0.9796  0.0420
  286TIP3   OH2  821   4.523   0.057   0.411  0.0552  0.4190  0.2991
  286TIP3    H1  822   4.582  -0.017   0.398  2.7526  2.5206 -0.0602
  286TIP3    H2  823   4.435   0.019   0.401  1.2929 -2.7383  0.3564
  287TIP3   OH2  824   3.614   3.425   2.487  0.0529  0.2302 -0.2502
  287TIP3    H1  825   3.604   3.498   2.426  0.7970 -1.2273 -2.2156
  287TIP3    H2  826   3.705   3.399   2.479 -0.6554 -2.2490 -1.2967
  288TIP3   OH2  827   2.902   2.125   2.250 -0.0864 -0.1257  0.2574
  288TIP3    H1  828   2.904   2.161   2.161  0.1820  0.8379  0.6415
  288TIP3    H2  829   2.915   2.201   2.307  0.7426 -0.8708  1.0933
  289TIP3   OH2  830   4.671   3.880   4.337  0.0777  0.1566  0.4161
  289TIP3    H1  831   4.655   3.975   4.336  0.8527  0.2955  0.5944
  289TIP3    H2  832   4.766   3.872   4.326  0.0422 -0.5948  0.6224
  290TIP3   OH2  833   0.139   3.540   3.993 -0.6578  0.2579  0.0725
  290TIP3    H1  834   0.089   3.463   3.966  0.4736 -0.1035 -1.1115
  290TIP3    H2  835   0.090   3.576   4.066 -1.0800 -1.7444  0.8311
  291TIP3   OH2  836   3.097   6.458   1.149  0.2952  0.5804  0.6680
  291TIP3    H1  837   3.131   6.473   1.060 -0.8026  0.5901  0.2341
  291TIP3    H2  838   3.106   6.364   1.162  1.0915  0.6720  0.8202
  292TIP3   OH2  839   7.080   6.183   2.831 -0.1953 -0.4300 -0.3495
  292TIP3    H1  840   7.078   6.181   2.735  1.7769  0.0388 -0.4531
  292TIP3    H2  841   6.991   6.206   2.857 -0.7691 -0.5855 -2.0563
  293TIP3   OH2  842   1.649   6.742   1.365  0.8669 -0.6051 -0.1047
  293TIP3    H1  843   1.711   6.687   1.413  1.1818 -0.3032 -0.1678
  293TIP3    H2  844   1.646   6.704   1.277  0.9394 -0.6372 -0.0931
  294TIP3   OH2  845   3.457   2.565   3.586 -0.2543 -0.1864  0.1601
  294TIP3    H1  846   3.459   2.578   3.491 -1.6503 -0.6744  0.0442
  294TIP3    H2  847   3.497   2.479   3.600 -1.0302 -0.5974 -0.0980
  295TIP3   OH2  848   1.555   1.075   3.308  0.2340  0.3237  0.2757
  295TIP3    H1  849   1.481   1.123   3.344 -1.2089 -0.4060 -1.5661
  295TIP3    H2  850   1.549   0.987   3.346  0.5544  0.4513  0.6277
  296TIP3   OH2  851   1.864   1.349   3.880  0.1758 -0.0725  0.6224
  296TIP3    H1  852   1.917   1.403   3.938  0.7800 -1.0301  0.9811
  296TIP3    H2  853   1.921   1.328   3.807 -0.1522  0.0193  0.3371
  297TIP3   OH2  854   0.077   3.876   0.603  0.3326 -0.1156  0.4252
  297TIP3    H1  855   0.094   3.903   0.693  0.6232  1.1185  0.0208
  297TIP3    H2  856   0.152   3.909   0.553  0.0250 -0.5105 -0.3173
  298TIP3   OH2  857   5.529   5.585   0.322  0.2845 -0.2132 -0.3003
  298TIP3    H1  858   5.600   5.522   0.316 -0.9497 -1.6889 -0.1771
  298TIP3    H2  859   5.452   5.538   0.288 -1.1986  0.3654  1.9908
  299TIP3   OH2  860   5.834   6.630   1.824 -0.5414  0.2627 -0.1861
  299TIP3    H1  861   5.881   6.696   1.772  0.3944 -0.6679 -0.5579
  299TIP3    H2  862   5.785   6.580   1.759  0.1970 -0.5544 -0.1352
  300TIP3   OH2  863   4.298   6.146   5.016  0.5011 -0.0248  0.0896
  300TIP3    H1  864   4.275   6.055   5.000  0.5980 -0.1194  0.4623
  300TIP3    H2  865   4.309   6.151   5.111  0.1723  0.4516  0.1069
  301TIP3   OH2  866   3.387   6.302   5.397  0.2295 -0.0746  0.4759
  301TIP3    H1  867   3.439   6.382   5.403  0.6931 -0.2911 -0.4724
  301TIP3    H2  868   3.422   6.256   5.321 -1.9726  0.2371 -0.8197
  302TIP3   OH2  869   1.875   0.260   2.194 -0.2826 -0.1984  0.5594
  302TIP3    H1  870   1.946   0.323   2.178 -0.5412 -0.0453  0.0205
  302TIP3    H2  871   1.881   0.242   2.288 -0.4151  0.8890  0.7836
  303TIP3   OH2  872   2.143   2.401   3.847  0.8750  0.0169  0.0241
  303TIP3    H1  873   2.105   2.487   3.830  1.2068 -0.0650 -1.1789
  303TIP3    H2  874   2.133   2.353   3.765 -0.7847 -1.6814  1.1323
  304TIP3   OH2  875   1.339   4.539   0.448 -0.5311  0.5779  0.0468
  304TIP3    H1  876   1.421   4.528   0.399  0.0243  0.1054  1.0383
  304TIP3    H2  877   1.341   4.630   0.476  0.4018  0.1993  1.3053
  305TIP3   OH2  878   4.069   0.929   2.055 -0.2434  0.1981 -0.1684
  305TIP3    H1  879   4.137   0.908   2.120 -2.9249 -0.7176  2.5724
  305TIP3    H2  880   4.079   1.023   2.039  1.1486  0.2371  0.7702
  306TIP3   OH2  881   0.416   2.942   3.138 -0.2495  0.2440  0.5129
  306TIP3    H1  882   0.465   2.860   3.146  1.0220  1.1112  2.5462
  306TIP3    H2  883   0.346   2.934   3.203 -0.6016  0.4659  0.1637
  307TIP3   OH2  884   1.233   1.232   2.733 -0.1489 -0.1071  0.0877
  307TIP3    H1  885   1.280   1.307   2.696 -0.1887 -0.1831 -0.1126
  307TIP3    H2  886   1.162   1.215   2.672 -0.9576  0.5487  0.8197
  308TIP3   OH2  887   7.217   1.387   5.269 -0.1489  0.3107 -0.1937
  308TIP3    H1  888   7.177   1.411   5.186  1.3688  0.9421 -0.7594
  308TIP3    H2  889   7.233   1.471   5.313 -1.3475 -0.0284  0.9602
  309TIP3   OH2  890   3.646   5.248   2.443 -0.3192  0.7717  0.6174
  309TIP3    H1  891   3.604   5.279   2.363 -0.3783  0.7451  0.6377
  309TIP3    H2  892   3.719   5.193   2.412 -1.7157 -1.1498  0.5453
  310TIP3   OH2  893   5.841   3.088   1.356 -0.0849  0.3104 -0.3383
  310TIP3    H1  894   5.813   3.038   1.279  1.0720  0.3449 -0.7918
  310TIP3    H2  895   5.771   3.073   1.420 -0.5993 -0.4905 -1.0583
  311TIP3   OH2  896   3.785   0.197   0.702 -0.0281 -0.1429  0.3316
  311TIP3    H1  897   3.879   0.219   0.707 -0.0997  0.9052 -1.6150
  311TIP3    H2  898   3.783   0.102   0.709  1.1140 -0.1404  1.0880
  312TIP3   OH2  899   0.758   3.955   5.181 -1.1269  0.0463  0.4730
  312TIP3    H1  900   0.748   3.907   5.098  1.3910 -1.1438  0.7623
  312TIP3    H2  901   0.845   3.993   5.177 -2.0240  2.4365  1.4441
  313TIP3   OH2  902   3.186   6.743   0.673 -0.6237 -0.2853 -0.1341
  313TIP3    H1  903   3.121   6.762   0.605  0.3583 -0.0946 -1.0461
  313TIP3    H2  904   3.223   6.659   0.648 -0.7514 -0.5599  0.5740
  314TIP3   OH2  905   0.251   3.703   3.623  0.3818 -0.0645 -0.2027
  314TIP3    H1  906   0.272   3.612   3.647 -1.2261 -0.5502 -0.5136
  314TIP3    H2  907   0.206   3.738   3.700  0.2927  0.2140 -0.3810
  315TIP3   OH2  908   1.163   3.850   3.798  0.3007 -0.2345  0.6429
  315TIP3    H1  909   1.146   3.920   3.861 -0.8647  2.4776 -2.3676
  315TIP3    H2  910   1.077   3.810   3.782  0.5617 -0.8257  0.6919
  316TIP3   OH2  911   5.085   0.702   0.460 -0.0150  0.0032 -0.2663
  316TIP3    H1  912   5.042   0.648   0.527 -0.7671 -1.2193 -1.6709
  316TIP3    H2  913   5.145   0.758   0.509 -0.8118 -0.5750  1.4567
  317TIP3   OH2  914   5.215   6.069   3.797 -0.2466  0.0837  0.5063
  317TIP3    H1  915   5.146   6.005   3.815 -0.4801  0.2244  0.1121
  317TIP3    H2  916   5.189   6.147   3.845  0.3213 -0.2842  1.4433
  318TIP3   OH2  917   5.778   4.393   5.082  0.2858 -0.4523 -0.2140
  318TIP3    H1  918   5.738   4.308   5.098 -0.1804  0.1697  2.3078
  318TIP3    H2  919   5.756   4.446   5.159  0.0505  2.1730 -1.9348
  319TIP3   OH2  920   6.095   4.433   4.117  0.1924  0.2467  0.1898
  319TIP3    H1  921   6.005   4.402   4.113 -0.2566  1.4410  0.5131
  319TIP3    H2  922   6.128   4.425   4.028 -0.6054  0.8249 -0.1677
  320TIP3   OH2  923   6.277   4.891   3.427  0.3515  0.3465  0.1239
  320TIP3    H1  924   6.211   4.953   3.395 -0.8914 -0.5311  0.8868
  320TIP3    H2  925   6.359   4.919   3.386 -0.8579  0.1755 -2.6236
  321TIP3   OH2  926   1.192   0.501   2.634  0.2693  0.0184 -0.3882
  321TIP3    H1  927   1.195   0.521   2.540  0.2536  0.4451 -0.3017
  321TIP3    H2  928   1.119   0.440   2.643  1.2270 -1.2318 -0.8655
  322TIP3   OH2  929   6.117   6.761   5.243 -0.3522 -0.2625 -0.0999
  322TIP3    H1  930   6.168   6.785   5.166  0.0902 -0.2714  0.1865
  322TIP3    H2  931   6.178   6.712   5.298 -0.2561  0.8872  0.8639
  323TIP3   OH2  932   0.119   2.106   5.432  0.4823 -0.3109 -0.0274
  323TIP3    H1  933   0.122   2.016   5.464  0.6629 -0.6352 -0.9372
  323TIP3    H2  934   0.080   2.156   5.504 -0.6117 -1.2846  0.0854
  324TIP3   OH2  935   5.630   4.122   5.035  0.2027  0.0627 -0.3376
  324TIP3    H1  936   5.597   4.036   5.060 -1.7772  1.1241  0.9374
  324TIP3    H2  937   5.627   4.121   4.939 -1.7219 -0.6213 -0.3114
  325TIP3   OH2  938   6.249   3.314   4.720  0.0587  0.4145 -0.2105
  325TIP3    H1  939   6.157   3.339   4.711 -0.1204  0.0105  0.4237
  325TIP3    H2  940   6.249   3.244   4.785  1.1767  2.6724  2.4075
  326TIP3   OH2  941   0.524   6.726   4.835 -0.1824  0.3382 -0.3671
  326TIP3    H1  942   0.469   6.650   4.853  0.6767 -0.5122 -1.1707
  326TIP3    H2  943   0.589   6.694   4.772  0.1618  1.7618 -0.7803
  327TIP3   OH2  944   5.154   6.481   4.716  0.0594  0.0868  0.2081
  327TIP3    H1  945   5.187   6.433   4.640 -1.6752  1.2793 -1.4152
  327TIP3    H2  946   5.061   6.457   4.720 -0.1709  1.0596  1.1499
  328TIP3   OH2  947   6.549   6.659   2.814  0.1197 -0.0227  0.1705
  328TIP3    H1  948   6.512   6.701   2.737  0.5002 -2.1277 -1.2444
  328TIP3    H2  949   6.613   6.721   2.848  0.9687  0.3846 -2.0564
  329TIP3   OH2  950   4.167   4.970   1.796  0.7897 -0.1427 -0.2622
  329TIP3    H1  951   4.198   4.879   1.796 -1.8461 -1.1386  0.4250
  329TIP3    H2  952   4.165   4.994   1.703  3.4909  0.0502 -0.3612
  330TIP3   OH2  953   0.744   2.026   3.234 -0.2298 -0.2236 -0.5735
  330TIP3    H1  954   0.707   1.942   3.207 -2.3632  0.6606 -0.5544
  330TIP3    H2  955   0.779   2.009   3.322  2.1409 -1.8049 -1.7192
  331TIP3   OH2  956   5.240   2.688   5.027 -0.7477 -0.3044 -0.5103
  331TIP3    H1  957   5.161   2.707   4.977  0.1265 -0.5942 -2.0847
  331TIP3    H2  958   5.281   2.616   4.979 -0.0556 -0.8627  0.8769
  332TIP3   OH2  959   3.907   2.428   4.457 -0.1417  0.4084 -0.3840
  332TIP3    H1  960   3.868   2.468   4.535  0.9742  0.1240  0.3385
  332TIP3    H2  961   3.952   2.501   4.413  1.8616  0.0255  0.9140
  333TIP3   OH2  962   1.343   2.911   4.895  0.5626 -0.0306 -0.3265
  333TIP3    H1  963   1.417   2.862   4.930  0.3315 -0.2835 -0.1915
  333TIP3    H2  964   1.288   2.846   4.852 -0.1773 -0.0304  0.5896
  334TIP3   OH2  965   0.417   3.522   1.258 -0.0170 -0.5069 -0.2430
  334TIP3    H1  966   0.324   3.532   1.279 -0.0273 -0.5745 -0.2576
  334TIP3    H2  967   0.462   3.579   1.321 -0.1307  0.2677 -0.8560
  335TIP3   OH2  968   0.040   1.087   4.206  1.0958  0.3279  0.1500
  335TIP3    H1  969  -0.009   1.022   4.258  0.3876  1.4288  0.8905
  335TIP3    H2  970   0.044   1.049   4.118 -1.5430  0.3980 -0.0799
  336TIP3   OH2  971   1.205   1.164   4.583 -0.0003 -0.1729 -0.0793
  336TIP3    H1  972   1.161   1.147   4.499 -1.6847 -4.1295  1.3439
  336TIP3    H2  973   1.295   1.133   4.570 -0.1585 -0.4516 -0.5290
  337TIP3   OH2  974   1.108   1.573   1.476  0.1900 -0.0873  0.0897
  337TIP3    H1  975   1.184   1.525   1.509  0.5515  0.8267  0.6480
  337TIP3    H2  976   1.051   1.582   1.552 -1.2084 -2.0250 -0.6405
  338TIP3   OH2  977   5.325   0.488   3.330 -0.3003  0.3329 -0.1481
  338TIP3    H1  978   5.349   0.445   3.248 -2.6605  0.5430 -1.0249
  338TIP3    H2  979   5.260   0.430   3.370 -0.8582  1.3290  0.4451
  339TIP3   OH2  980   1.896   2.990   2.310  1.1711 -0.4099  0.2776
  339TIP3    H1  981   1.812   2.968   2.350  1.1691 -0.8274  0.0508
  339TIP3    H2  982   1.958   2.992   2.383  0.6228  1.9426  0.7932
  340TIP3   OH2  983   6.296   4.736   3.679 -0.6861 -0.1316 -0.1916
  340TIP3    H1  984   6.266   4.764   3.593 -1.6197  0.8677  0.4315
  340TIP3    H2  985   6.391   4.732   3.671 -0.6379  1.4413 -0.8584
  341TIP3   OH2  986   2.755   5.683   2.423  0.5656 -0.1352 -0.2669
  341TIP3    H1  987   2.755   5.740   2.346 -0.1386  0.9120  0.4769
  341TIP3    H2  988   2.686   5.618   2.405  1.1099 -0.5362 -0.9508
  342TIP3   OH2  989   3.003   5.030   5.583  0.5076 -0.4123  0.7163
  342TIP3    H1  990   3.014   4.940   5.615  1.0525 -0.6038  0.0202
  342TIP3    H2  991   2.965   5.077   5.657  0.7537 -1.0824  1.2853
  343TIP3   OH2  992   0.696   1.365   5.846 -0.1708 -0.1182  0.0066
  343TIP3    H1  993   0.697   1.357   5.750  0.9788 -0.3564  0.0253
  343TIP3    H2  994   0.746   1.445   5.863 -0.2467 -0.1586  0.4132
  344TIP3   OH2  995   2.404   0.539   1.262  0.1064  0.2028 -0.7985
  344TIP3    H1  996   2.471   0.564   1.326 -1.0442  0.8968  0.1552
  344TIP3    H2  997   2.322   0.569   1.299 -0.7712 -0.7064 -1.9209
  345TIP3   OH2  998   3.063   0.529   1.362 -0.3769 -0.4372  0.1630
  345TIP3    H1  999   3.148   0.573   1.352  0.6294 -2.6704 -2.9316
  345TIP3    H2 1000   2.999   0.600   1.369  1.3376  1.5016 -2.0958
  346TIP3   OH2 1001   1.644   0.906   4.894 -0.3016  0.1631 -0.1343
  346TIP3    H1 1002   1.603   0.842   4.953 -0.3660  0.3219 -0.0060
  346TIP3    H2 1003   1.729   0.923   4.933 -0.0297 -0.3203 -0.5114
  347TIP3   OH2 1004   6.550   5.863   1.006 -0.3669 -0.6189  0.1879
  347TIP3    H1 1005   6.565   5.916   1.084 -1.5420 -0.5926  0.4150
  347TIP3    H2 1006   6.470   5.815   1.025 -1.1795  0.0517 -1.3343
  348TIP3   OH2 1007   6.176   3.019   0.469 -0.9545 -0.4395  0.2107
  348TIP3    H1 1008   6.163   2.954   0.538 -0.5072 -1.0974 -0.3159
  348TIP3    H2 1009   6.268   3.008   0.443 -1.3762 -0.8831 -1.1737
  349TIP3   OH2 1010   6.794   1.963   2.029  0.0346  0.1843 -0.1669
  349TIP3    H1 1011   6.881   1.967   1.989 -0.3268  1.3883 -0.8681
  349TIP3    H2 1012   6.764   1.874   2.009  1.5009 -0.6245  1.0001
  350TIP3   OH2 1013   2.753   4.304   5.390 -0.5080 -0.6149  0.1463
  350TIP3    H1 1014   2.815   4.370   5.358 -0.9744  0.2284  0.9035
  350TIP3    H2 1015   2.800   4.222   5.386  0.2208 -0.1753 -0.4838
  351TIP3   OH2 1016   4.422   5.213   5.302 -0.3027  0.0296 -0.3444
  351TIP3    H1 1017   4.329   5.191   5.298 -0.0152 -1.2388 -0.7852
  351TIP3    H2 1018   4.445   5.237   5.212  0.1966 -1.5765 -0.6765
  352TIP3   OH2 1019   3.395   0.181   4.296  0.6365 -0.2523 -0.2229
  352TIP3    H1 1020   3.488   0.162   4.285  0.7359 -0.0085  0.1797
  352TIP3    H2 1021   3.352   0.095   4.294  0.7123 -0.2880 -1.7474
  353TIP3   OH2 1022   1.578   2.761   0.744  0.4991  0.7942 -0.1388
  353TIP3    H1 1023   1.511   2.820   0.712 -0.7604 -1.2346 -1.4577
  353TIP3    H2 1024   1.537   2.714   0.817  0.6810 -0.0365 -0.5578
  354TIP3   OH2 1025   3.624   3.042   3.192  0.6643 -0.1697  0.1692
  354TIP3    H1 1026   3.577   2.999   3.263 -0.3018  1.7082  0.7408
  354TIP3    H2 1027   3.567   3.033   3.116 -0.0293  0.9280  0.5351
  355TIP3   OH2 1028   0.436   4.983   3.086 -0.0439 -0.2386 -0.4768
  355TIP3    H1 1029   0.513   4.947   3.042  0.6864  0.0872  0.4795
  355TIP3    H2 1030   0.442   4.950   3.176 -1.5863 -1.0244 -0.6396
  356TIP3   OH2 1031   3.541   5.854   0.568  1.1153  0.1479 -0.1312
  356TIP3    H1 1032   3.603   5.832   0.499  1.6735 -1.1698  0.7378
  356TIP3    H2 1033   3.589   5.913   0.626  1.1150  0.1590 -0.1426
  357TIP3   OH2 1034   3.300   0.401   1.511  0.2489  0.2396 -0.0168
  357TIP3    H1 1035   3.326   0.369   1.424  0.4248  0.2702  0.0242
  357TIP3    H2 1036   3.222   0.454   1.494 -0.6256 -0.9725  0.0226
  358TIP3   OH2 1037   4.238   3.706   0.789 -0.1689  0.2839 -0.1448
  358TIP3    H1 1038   4.295   3.699   0.713 -2.0980 -0.1969 -1.6213
  358TIP3    H2 1039   4.190   3.788   0.775 -1.7289 -0.6351 -0.3494
  359TIP3   OH2 1040   0.400   5.657   2.537 -0.7296 -0.2721 -0.5589
  359TIP3    H1 1041   0.335   5.688   2.474 -0.2246  2.0075 -0.0796
  359TIP3    H2 1042   0.446   5.587   2.491 -1.2098  0.4568 -2.2636
  360TIP3   OH2 1043   2.157   3.635   1.148  0.4551  0.3800 -0.6408
  360TIP3    H1 1044   2.169   3.706   1.084 -0.0921  1.6784  0.6458
  360TIP3    H2 1045   2.062   3.626   1.155  0.5225 -0.4521 -0.7457
  361TIP3   OH2 1046   3.314   1.349   5.239 -0.0264 -0.2239 -0.4773
  361TIP3    H1 1047   3.392   1.326   5.188  0.6888 -0.2318  0.5916
  361TIP3    H2 1048   3.288   1.266   5.279  0.6057  0.1471  0.7493
  362TIP3   OH2 1049   5.146   0.733   3.552 -0.2039  0.0379  0.4649
  362TIP3    H1 1050   5.216   0.674   3.579 -0.7835 -0.5202  0.7791
  362TIP3    H2 1051   5.186   0.788   3.485  0.7928  0.3443  1.2761
  363TIP3   OH2 1052   3.108   5.545   1.744 -0.1946  0.7387  0.5220
  363TIP3    H1 1053   3.060   5.605   1.802  0.9799  2.2663 -0.0354
  363TIP3    H2 1054   3.060   5.463   1.751 -0.3267  0.9529  3.3725
  364TIP3   OH2 1055   4.125   2.952   3.873  0.1104  0.1593  0.0350
  364TIP3    H1 1056   4.041   2.978   3.834  1.1889  0.2901 -2.3331
  364TIP3    H2 1057   4.139   2.863   3.841 -0.3852 -0.9804  2.7135
  365TIP3   OH2 1058   3.249   6.377   5.074 -0.1517  0.2670  0.5888
  365TIP3    H1 1059   3.254   6.429   5.154 -0.6059  0.3722  0.5520
  365TIP3    H2 1060   3.340   6.368   5.045  0.1928 -1.2420  2.0435
  366TIP3   OH2 1061   3.028   1.154   4.251  0.5625  0.2796  0.1689
  366TIP3    H1 1062   3.018   1.248   4.238  0.9334  0.3252  0.2008
  366TIP3    H2 1063   3.067   1.145   4.338 -0.3783  0.0467  0.5908
  367TIP3   OH2 1064   3.252   2.394   5.353  0.2365  0.1023 -0.2192
  367TIP3    H1 1065   3.222   2.480   5.325 -0.6902 -0.1163  0.0765
  367TIP3    H2 1066   3.331   2.378   5.301 -0.9887  0.0527 -2.1446
  368TIP3   OH2 1067   3.479   5.301   4.959 -0.3011  0.5146  0.7616
  368TIP3    H1 1068   3.453   5.304   4.867 -0.3577  1.8901  0.8006
  368TIP3    H2 1069   3.404   5.263   5.004 -1.0616  1.6223  0.4738
  369TIP3   OH2 1070   6.544   1.773   1.073  0.0837 -0.2006 -0.8239
  369TIP3    H1 1071   6.533   1.724   0.991  0.5585 -0.3918 -0.7730
  369TIP3    H2 1072   6.619   1.733   1.115  0.2213  0.3069 -0.5852
  370TIP3   OH2 1073   2.081   6.720   1.995  0.0343 -0.1806 -0.1638
  370TIP3    H1 1074   2.122   6.678   2.070  0.4918 -0.7509 -0.7255
  370TIP3    H2 1075   2.005   6.665   1.975 -0.6779  0.5301  0.4902
  371TIP3   OH2 1076   7.182   4.535   4.353 -0.6269 -0.9195  0.0803
  371TIP3    H1 1077   7.151   4.448   4.330 -2.0026 -0.3522 -0.3306
  371TIP3    H2 1078   7.110   4.593   4.329  1.3659  0.6974 -2.5378
  372TIP3   OH2 1079   3.218   5.145   0.265 -0.1502  0.5039  0.6786
  372TIP3    H1 1080   3.289   5.199   0.230  2.1615 -2.4972  0.2691
  372TIP3    H2 1081   3.242   5.128   0.356 -1.1231  0.6007  0.9664
  373TIP3   OH2 1082   1.153   4.085   1.802  0.8013 -0.2657 -0.0154
  373TIP3    H1 1083   1.243   4.116   1.785  1.0844 -1.1140 -0.0893
  373TIP3    H2 1084   1.117   4.069   1.715  0.5397  0.1469  0.0107
  374TIP3   OH2 1085   3.908   0.988   1.030  0.7475  0.8529  0.5650
  374TIP3    H1 1086   3.838   1.016   0.970  1.7194 -0.6244 -1.3589
  374TIP3    H2 1087   3.875   1.012   1.117 -1.4314  1.6614 -0.3985
  375TIP3   OH2 1088   6.545   0.787   5.634 -0.8643  0.1244  0.1272
  375TIP3    H1 1089   6.527   0.794   5.540  1.3911 -0.9876 -0.4687
  375TIP3    H2 1090   6.571   0.696   5.646 -1.4201  0.1701  1.9251
  376TIP3   OH2 1091   5.896   2.800   3.109 -0.4270 -0.3926 -0.4023
  376TIP3    H1 1092   5.889   2.837   3.197  0.1356  0.2838 -0.6326
  376TIP3    H2 1093   5.920   2.708   3.122 -0.9756 -0.4646  0.1555
  377TIP3   OH2 1094   2.217   5.445   3.149  0.3383 -0.2078  0.1641
  377TIP3    H1 1095   2.297   5.429   3.198  0.7751 -0.7997 -0.7152
  377TIP3    H2 1096   2.150   5.461   3.216  0.8324 -1.3587  0.9559
  378TIP3   OH2 1097   1.024   0.805   2.389 -0.1753  0.6380 -0.0385
  378TIP3    H1 1098   0.966   0.756   2.447 -0.5463 -0.1762 -1.0628
  378TIP3    H2 1099   1.087   0.848   2.448 -2.1141  2.0011  1.1461
  379TIP3   OH2 1100   1.240   4.924   0.063 -0.2462  0.2265  0.0145
  379TIP3    H1 1101   1.181   4.894   0.132  1.3439 -0.7351  1.0098
  379TIP3    H2 1102   1.289   4.995   0.104  0.4168 -0.0725 -0.2591
  380TIP3   OH2 1103   5.467   4.223   5.709 -1.0258  0.0795 -0.0385
  380TIP3    H1 1104   5.558   4.253   5.705 -1.3219  1.0455  0.4351
  380TIP3    H2 1105   5.472   4.131   5.682  0.1515 -0.0067  0.4026
  381TIP3   OH2 1106   2.024   0.838   4.422 -0.3208  0.0391  0.1253
  381TIP3    H1 1107   2.060   0.843   4.510  0.1557  2.5165 -0.1196
  381TIP3    H2 1108   2.097   0.810   4.367 -0.3388 -0.5144  0.3823
  382TIP3   OH2 1109   0.032   5.449   3.301 -0.5923  0.6022  0.1511
  382TIP3    H1 1110  -0.028   5.488   3.365  0.8884  0.1453  1.9147
  382TIP3    H2 1111   0.063   5.369   3.344 -0.2945 -0.2616 -1.5963
  383TIP3   OH2 1112   4.375   5.701   0.217  0.5566 -0.1277  0.2122
  383TIP3    H1 1113   4.341   5.790   0.226 -0.5672 -0.4887 -0.3552
  383TIP3    H2 1114   4.311   5.646   0.261  0.4758 -0.8076 -0.7246
  384TIP3   OH2 1115   6.979   5.095   5.752  0.6418  0.6398 -0.2201
  384TIP3    H1 1116   6.929   5.022   5.713 -0.0203  1.2291 -0.4944
  384TIP3    H2 1117   6.915   5.166   5.759  1.0264  0.8827  0.9639
  385TIP3   OH2 1118   4.788   2.934   4.384 -0.3556  0.4376 -0.0010
  385TIP3    H1 1119   4.711   2.955   4.332 -0.1401 -1.2965 -1.0769
  385TIP3    H2 1120   4.862   2.962   4.330 -0.1428  3.1984  1.5079
  386TIP3   OH2 1121   3.526   3.274   1.242  0.2826 -0.4249 -0.0546
  386TIP3    H1 1122   3.610   3.293   1.200 -0.1666 -0.4472 -0.9722
  386TIP3    H2 1123   3.493   3.197   1.195 -1.3982  1.0271 -1.3617
  387TIP3   OH2 1124   2.912   2.826   4.402  0.0494  0.2652 -0.5201
  387TIP3    H1 1125   2.818   2.839   4.414  0.1574  0.7231 -0.1509
  387TIP3    H2 1126   2.947   2.827   4.491  0.4072  0.1067 -0.6588
  388TIP3   OH2 1127   2.432   4.703   0.140 -0.0328  0.0856  0.0505
  388TIP3    H1 1128   2.386   4.619   0.127 -0.7427  0.6485 -1.3246
  388TIP3    H2 1129   2.494   4.686   0.211 -2.3943 -0.6957  2.0694
  389TIP3   OH2 1130   4.349   0.576   3.937  0.3344 -0.1709  0.4196
  389TIP3    H1 1131   4.427   0.522   3.927  0.8679  0.2081  2.1367
  389TIP3    H2 1132   4.326   0.567   4.030 -0.5644  1.1943  0.3562
  390TIP3   OH2 1133   0.401   0.794   2.755  0.3969  0.2619  0.4184
  390TIP3    H1 1134   0.388   0.705   2.789 -0.0567  0.9806  2.2439
  390TIP3    H2 1135   0.473   0.786   2.692  0.1828 -1.4355  0.3551
  391TIP3   OH2 1136   0.841   2.023   1.894  0.1785  0.4914  0.1567
  391TIP3    H1 1137   0.904   2.073   1.946  0.2648 -0.1335  0.6611
  391TIP3    H2 1138   0.876   1.934   1.894 -0.5050  0.2202  0.1226
  392TIP3   OH2 1139   6.017   6.415   0.683  0.2432 -0.0651  0.1907
  392TIP3    H1 1140   5.960   6.385   0.612 -1.0229  0.5808  0.8808
  392TIP3    H2 1141   6.058   6.336   0.716 -0.3714 -0.5815 -0.2539
  393TIP3   OH2 1142   0.733   3.079   4.372  0.0198 -0.6480  0.1299
  393TIP3    H1 1143   0.717   2.995   4.331  0.5921 -1.2547  1.1162
  393TIP3    H2 1144   0.692   3.143   4.313  0.9963 -1.4468 -1.4643
  394TIP3   OH2 1145   1.311   1.408   5.074 -0.0856  0.0377  0.2224
  394TIP3    H1 1146   1.368   1.417   5.150  1.5881 -0.6444 -0.8914
  394TIP3    H2 1147   1.311   1.315   5.054 -0.8435  0.1518 -0.3856
  395TIP3   OH2 1148   6.349   0.149   1.047  0.0211 -0.0190 -0.4932
  395TIP3    H1 1149   6.443   0.165   1.053 -0.1443  0.9138 -0.0823
  395TIP3    H2 1150   6.309   0.224   1.091 -0.8654 -1.3307  1.0777
  396TIP3   OH2 1151   5.588   4.679   1.552  0.4681  0.1588 -0.0648
  396TIP3    H1 1152   5.574   4.768   1.519  0.0422 -0.3772 -1.4028
  396TIP3    H2 1153   5.517   4.628   1.513 -0.0722 -0.5388  1.7205
  397TIP3   OH2 1154   3.358   0.888   4.356  0.1774 -0.0737  0.3266
  397TIP3    H1 1155   3.387   0.963   4.409  0.4283 -0.0984  0.2236
  397TIP3    H2 1156   3.267   0.909   4.334  0.8742  1.2477 -1.5185
  398TIP3   OH2 1157   5.686   1.200   1.243 -0.7750 -0.4306 -0.6104
  398TIP3    H1 1158   5.716   1.271   1.299 -1.5791 -1.0325  0.6253
  398TIP3    H2 1159   5.691   1.236   1.154  2.6358 -0.1706 -0.4547
  399TIP3   OH2 1160   4.407   0.202   1.684  0.0561 -0.1928  0.3304
  399TIP3    H1 1161   4.464   0.215   1.760 -0.7346 -1.1420  1.1118
  399TIP3    H2 1162   4.353   0.281   1.680  0.4589  0.0878  0.4442
  400TIP3   OH2 1163   1.606   5.073   3.173 -0.5546  0.1004 -0.3759
  400TIP3    H1 1164   1.629   5.147   3.116  1.7065 -1.2242 -1.3093
  400TIP3    H2 1165   1.570   5.114   3.252  0.0910  2.1583 -1.0717
  401TIP3   OH2 1166   6.920   1.452   0.257 -0.5944 -0.0338  0.1206
  401TIP3    H1 1167   6.836   1.409   0.243 -1.1917  1.4955 -1.2607
  401TIP3    H2 1168   6.901   1.545   0.250  1.1763  0.3500 -0.0329
  402TIP3   OH2 1169   5.262   3.875   5.049  0.0776 -0.4482  0.0108
  402TIP3    H1 1170   5.356   3.860   5.058  0.3919 -0.7733 -3.0790
  402TIP3    H2 1171   5.255   3.968   5.027 -0.1080 -0.8879 -1.8959
  403TIP3   OH2 1172   3.651   2.583   0.011 -0.0293 -0.4144 -0.0255
  403TIP3    H1 1173   3.597   2.508  -0.011 -0.5167  0.1034 -0.6250
  403TIP3    H2 1174   3.689   2.561   0.097  0.4536 -1.6597 -0.5419
  404TIP3   OH2 1175   2.254   4.354   1.285 -0.3315 -0.8036  0.1717
  404TIP3    H1 1176   2.234   4.328   1.375 -0.4208  0.9424  0.6806
  404TIP3    H2 1177   2.217   4.442   1.277  1.3919 -0.1415 -0.9521
  405TIP3   OH2 1178   2.073   2.655   5.594 -0.0265 -0.2677 -0.4736
  405TIP3    H1 1179   2.040   2.706   5.519 -2.3001 -0.5193  0.2795
  405TIP3    H2 1180   2.110   2.721   5.653 -1.0046  0.2850 -0.4593
  406TIP3   OH2 1181   0.996   2.299   5.563 -0.4641 -0.5399 -0.3560
  406TIP3    H1 1182   1.066   2.266   5.507 -0.6433 -0.9528 -0.3459
  406TIP3    H2 1183   0.915   2.276   5.516 -0.5889  0.8446 -0.8761
  407TIP3   OH2 1184   4.479   0.656   0.961 -0.2262 -0.2928 -0.1280
  407TIP3    H1 1185   4.497   0.750   0.960 -1.9809  0.0883  0.2993
  407TIP3    H2 1186   4.542   0.618   0.899  1.3734  0.9717  0.6678
  408TIP3   OH2 1187   2.526   5.813   0.249 -0.0110  0.0760  0.2723
  408TIP3    H1 1188   2.529   5.907   0.264  2.8586  0.3204 -1.1213
  408TIP3    H2 1189   2.570   5.775   0.326 -1.2138 -0.1872  0.8607
  409TIP3   OH2 1190   2.891   2.302   2.032 -0.8396 -0.3640 -0.2913
  409TIP3    H1 1191   2.828   2.371   2.012  1.1147  1.9612  1.0577
  409TIP3    H2 1192   2.961   2.314   1.968  0.6880  0.6140  1.4624
  410TIP3   OH2 1193   1.252   6.330   3.161 -0.0825  0.3404 -0.0071
  410TIP3    H1 1194   1.312   6.278   3.215 -0.4595 -0.5253 -0.4108
  410TIP3    H2 1195   1.290   6.418   3.162  0.0353  0.3020  1.4920
  411TIP3   OH2 1196   3.409   6.738   5.600  0.2997 -0.3201 -0.2028
  411TIP3    H1 1197   3.491   6.787   5.606  1.2854 -1.6503 -1.9267
  411TIP3    H2 1198   3.423   6.661   5.655  0.3752 -0.7727 -0.8555
  412TIP3   OH2 1199   1.242   1.584   4.370  1.0455 -0.2074  0.4743
  412TIP3    H1 1200   1.290   1.606   4.290 -1.3532  0.5388 -0.8519
  412TIP3    H2 1201   1.273   1.496   4.393  1.0789 -0.8629 -1.8742
  413TIP3   OH2 1202   3.877   4.718   3.395 -0.5264 -0.4923  0.3756
  413TIP3    H1 1203   3.832   4.729   3.311  0.7116 -2.0589 -0.5605
  413TIP3    H2 1204   3.814   4.748   3.460 -1.5053  0.8217 -1.1061
  414TIP3   OH2 1205   2.437   3.361   5.551 -0.4840 -0.0148 -0.1217
  414TIP3    H1 1206   2.425   3.266   5.546 -1.0777  0.0598 -0.2384
  414TIP3    H2 1207   2.512   3.374   5.608 -0.7292 -0.5365  0.3173
  415TIP3   OH2 1208   3.164   2.099   3.024  0.7432 -0.2662 -0.5729
  415TIP3    H1 1209   3.165   2.050   2.942  0.0703  0.6775 -1.1751
  415TIP3    H2 1210   3.096   2.057   3.077  0.5018 -0.2845 -0.8941
  416TIP3   OH2 1211   0.181   5.501   0.439 -0.0274  0.2982  0.3918
  416TIP3    H1 1212   0.089   5.479   0.421 -0.0743  1.0125 -0.2749
  416TIP3    H2 1213   0.212   5.542   0.359  0.5002  1.2584  1.0708
  417TIP3   OH2 1214   4.576   2.675   4.582 -0.0766  0.2467  0.3832
  417TIP3    H1 1215   4.491   2.716   4.600 -0.3540 -0.4366  0.6702
  417TIP3    H2 1216   4.638   2.747   4.580 -0.6700  0.7592  0.1475
  418TIP3   OH2 1217   7.118   1.002   3.624  0.3013  0.7554 -0.3743
  418TIP3    H1 1218   7.190   0.941   3.634  0.3473  0.2895 -2.9261
  418TIP3    H2 1219   7.052   0.954   3.574 -1.6523  1.3177  1.4888
  419TIP3   OH2 1220   4.844   0.329   2.518  0.0449 -0.2776  0.3098
  419TIP3    H1 1221   4.760   0.348   2.477  0.0702 -0.2805  0.2565
  419TIP3    H2 1222   4.889   0.413   2.521  0.7489 -0.5697 -1.2494
  420TIP3   OH2 1223   2.448   5.934   5.559 -0.4267  0.1096  0.4449
  420TIP3    H1 1224   2.408   5.990   5.493  0.2192 -0.1664 -0.1870
  420TIP3    H2 1225   2.378   5.874   5.585 -0.8312  0.5590  0.4029
  421TIP3   OH2 1226   0.983   5.838   1.596 -0.3349 -0.8752 -0.5101
  421TIP3    H1 1227   0.973   5.764   1.537 -1.2046 -0.7223 -0.5678
  421TIP3    H2 1228   0.985   5.799   1.684  2.1683 -1.2093 -0.6686
  422TIP3   OH2 1229  -0.018   0.672   5.201 -0.1747  0.1491  0.3318
  422TIP3    H1 1230   0.052   0.631   5.253 -1.4696 -1.9606  0.5082
  422TIP3    H2 1231   0.006   0.765   5.199  1.5730 -0.1846  2.0528
  423TIP3   OH2 1232   4.807   3.967   5.502  0.0391 -0.1375 -0.6478
  423TIP3    H1 1233   4.724   3.954   5.456 -0.1481 -0.1201 -0.3185
  423TIP3    H2 1234   4.785   4.028   5.572  0.0995 -0.9377  0.0791
  424TIP3   OH2 1235   0.367   2.565   2.233  0.1786  0.4026 -0.0165
  424TIP3    H1 1236   0.318   2.627   2.180  0.3974  1.3408  0.8363
  424TIP3    H2 1237   0.432   2.528   2.174 -0.7548  0.0598 -0.8477
  425TIP3   OH2 1238   3.922   1.516   2.572  0.1522 -0.2103 -0.5763
  425TIP3    H1 1239   4.015   1.496   2.563  0.2424 -0.3551  0.5113
  425TIP3    H2 1240   3.918   1.586   2.638 -0.4371  0.6163 -1.4567
  426TIP3   OH2 1241   3.076   4.233   2.587  0.2160  0.3170 -0.0326
  426TIP3    H1 1242   3.160   4.202   2.553 -0.6446 -0.8794 -1.1553
  426TIP3    H2 1243   3.098   4.276   2.670  2.0193  0.7321 -0.6752
  427TIP3   OH2 1244   1.907   4.059   5.145  0.0028 -0.1961 -0.1896
  427TIP3    H1 1245   1.845   4.043   5.073 -0.5697 -0.7232  0.4011
  427TIP3    H2 1246   1.982   4.100   5.103  0.1230 -1.4278 -1.2708
  428TIP3   OH2 1247   0.145   6.223   4.790  0.1515 -0.3595 -0.5538
  428TIP3    H1 1248   0.198   6.267   4.723 -0.0243 -0.3931 -0.7158
  428TIP3    H2 1249   0.091   6.293   4.827 -1.0189 -0.6350 -1.6567
  429TIP3   OH2 1250   2.709   2.853   5.172 -0.1345 -0.4539  0.6829
  429TIP3    H1 1251   2.772   2.805   5.226  1.4477  2.1883  1.3414
  429TIP3    H2 1252   2.670   2.916   5.233 -0.9539  0.1941 -0.4901
  430TIP3   OH2 1253   6.148   2.096   3.441  0.0603  0.4221 -0.1698
  430TIP3    H1 1254   6.218   2.032   3.456  0.1988  1.0069  2.1995
  430TIP3    H2 1255   6.125   2.126   3.529 -2.8639  0.6160 -0.9127
  431TIP3   OH2 1256   5.575   2.053   5.316 -0.3554  0.4491 -0.2941
  431TIP3    H1 1257   5.583   1.973   5.266  0.8334  0.5878 -0.3477
  431TIP3    H2 1258   5.499   2.098   5.278 -0.1097  0.0639 -1.2538
  432TIP3   OH2 1259   2.292   4.270   0.402  0.3844  0.6564  0.5160
  432TIP3    H1 1260   2.341   4.349   0.421  0.7755  0.6299 -0.3521
  432TIP3    H2 1261   2.235   4.293   0.329 -0.3993  0.4853  1.0559
  433TIP3   OH2 1262   1.481   4.554   2.618  0.1818 -0.3304 -0.1842
  433TIP3    H1 1263   1.539   4.548   2.542  2.8556  2.0712  1.4607
  433TIP3    H2 1264   1.489   4.644   2.648 -0.8162 -1.1164  2.8986
  434TIP3   OH2 1265   5.406   4.392   3.768 -0.2162  0.1252  0.2720
  434TIP3    H1 1266   5.497   4.413   3.746  0.0392 -0.1893  0.9761
  434TIP3    H2 1267   5.371   4.473   3.805 -0.3721  0.3895 -0.4565
  435TIP3   OH2 1268   6.460   3.948   1.724 -0.8801 -0.2158 -0.3193
  435TIP3    H1 1269   6.520   3.912   1.659 -0.2668  2.3382 -1.3188
  435TIP3    H2 1270   6.517   3.997   1.784 -1.7052 -0.1046  0.3944
  436TIP3   OH2 1271   4.622   6.550   2.571  0.6165  0.0657 -0.0057
  436TIP3    H1 1272   4.584   6.635   2.547 -1.1322 -0.2943  1.2262
  436TIP3    H2 1273   4.552   6.507   2.621  2.1037 -1.3799  0.9083
  437TIP3   OH2 1274   6.380   5.402   1.438  0.1674 -0.1876  0.1098
  437TIP3    H1 1275   6.454   5.462   1.448  0.8855 -0.7723 -1.3676
  437TIP3    H2 1276   6.303   5.459   1.440  0.6933  0.5095  0.9850
  438TIP3   OH2 1277   0.648   5.699   4.425 -0.6714 -0.2930 -0.6391
  438TIP3    H1 1278   0.742   5.713   4.420 -0.6329 -0.8146 -1.6331
  438TIP3    H2 1279   0.630   5.633   4.358 -1.5128 -1.3922  0.6137
  439TIP3   OH2 1280   1.129   5.562   5.332 -0.4735  0.3008  0.2849
  439TIP3    H1 1281   1.156   5.485   5.282 -0.8335  0.6928 -0.5258
  439TIP3    H2 1282   1.150   5.636   5.275  0.1883  0.8294  1.1965
  440TIP3   OH2 1283   1.907   2.896   3.412 -0.2834 -0.2526 -0.0313
  440TIP3    H1 1284   1.886   2.856   3.328  1.3197  0.1763 -0.6832
  440TIP3    H2 1285   2.002   2.888   3.419 -0.4044 -0.4090  1.8223
  441TIP3   OH2 1286   5.789   3.919   0.820 -0.1708 -0.3152  0.0833
  441TIP3    H1 1287   5.864   3.862   0.808  0.6016  0.7055 -0.0566
  441TIP3    H2 1288   5.716   3.871   0.780  0.2655 -1.5859  0.7686
  442TIP3   OH2 1289   1.806   5.699   0.569  0.3481 -0.2635  0.4503
  442TIP3    H1 1290   1.725   5.673   0.614  0.6988 -1.5424  0.3842
  442TIP3    H2 1291   1.876   5.661   0.622  0.9147  0.6564  0.3921
  443TIP3   OH2 1292   6.950   0.062   4.013 -0.0696  0.0426  0.1845
  443TIP3    H1 1293   6.939   0.034   3.922  0.0847 -0.4150  0.3017
  443TIP3    H2 1294   6.882   0.127   4.027 -1.2334 -1.1453  0.2519
  444TIP3   OH2 1295   6.347   1.995   3.601  0.0362 -0.5000  0.1733
  444TIP3    H1 1296   6.410   2.067   3.597 -0.3833 -0.2026 -1.9146
  444TIP3    H2 1297   6.395   1.919   3.568  0.2353 -1.0279  1.6142
  445TIP3   OH2 1298   2.410   0.830   1.482 -0.0953  0.4916 -0.1873
  445TIP3    H1 1299   2.434   0.901   1.541  0.0158  1.4695 -1.3869
  445TIP3    H2 1300   2.329   0.795   1.520  0.6624  0.2250  1.2623
  446TIP3   OH2 1301   4.710   1.624   1.302 -0.4221  0.5919 -0.2339
  446TIP3    H1 1302   4.797   1.591   1.279 -0.7228 -0.0750 -0.4592
  446TIP3    H2 1303   4.717   1.719   1.296  0.5027  0.5798  0.5046
  447TIP3   OH2 1304   3.448   2.402  -0.008  0.0918  0.0087 -0.2772
  447TIP3    H1 1305   3.404   2.436   0.070  1.5139  3.3536 -0.7533
  447TIP3    H2 1306   3.464   2.310   0.012  2.8123  1.1656  4.7380
  448TIP3   OH2 1307   2.725   2.497   2.267  0.5377 -0.9014  0.1889
  448TIP3    H1 1308   2.769   2.564   2.214 -2.5320  1.8564  0.7966
  448TIP3    H2 1309   2.660   2.459   2.209 -1.6053  0.8343  1.3367
  449TIP3   OH2 1310   6.997   4.996   5.243  0.4043 -0.0587 -0.0334
  449TIP3    H1 1311   7.090   5.016   5.248  0.3268  0.9615 -1.8467
  449TIP3    H2 1312   6.993   4.900   5.239  1.1558 -0.2731  2.7296
  450TIP3   OH2 1313   0.526   0.519   3.028  0.2817 -0.2059  0.0692
  450TIP3    H1 1314   0.597   0.582   3.013  0.3884  0.1043  1.7037
  450TIP3    H2 1315   0.570   0.435   3.040  0.2858 -0.2324 -0.1349
  451TIP3   OH2 1316   5.300   1.873   4.884  0.5681  0.1645 -0.1528
  451TIP3    H1 1317   5.312   1.781   4.908  0.4306 -0.1244 -1.1383
  451TIP3    H2 1318   5.353   1.884   4.805  0.3360  0.8556 -0.2216
  452TIP3   OH2 1319   2.036   2.222   1.079 -0.7106  0.2308 -0.0721
  452TIP3    H1 1320   2.090   2.220   1.000  1.5465  0.9521  1.3509
  452TIP3    H2 1321   1.989   2.139   1.077 -0.4763  0.0832 -1.9978
  453TIP3   OH2 1322   2.084   6.719   5.402 -0.1736  0.4741  0.1400
  453TIP3    H1 1323   2.158   6.778   5.415 -0.1389  0.6466 -0.7460
  453TIP3    H2 1324   2.057   6.735   5.311  0.3139 -1.4266 -0.3679
  454TIP3   OH2 1325   2.378   1.229   1.733  0.3147 -0.2512  0.1503
  454TIP3    H1 1326   2.300   1.189   1.771  0.4247 -0.6430 -0.0307
  454TIP3    H2 1327   2.448   1.209   1.795  0.3235 -0.1124  0.1875
  455TIP3   OH2 1328   0.216   3.108   1.646  0.2008  0.0196  0.4325
  455TIP3    H1 1329   0.164   3.132   1.723 -0.9222  2.3901 -0.9344
  455TIP3    H2 1330   0.284   3.176   1.642  0.8458 -0.6514 -0.1294
  456TIP3   OH2 1331   4.761   2.250   0.207  0.1017  0.5192 -0.2557
  456TIP3    H1 1332   4.732   2.326   0.257  0.2704  0.3967  0.0308
  456TIP3    H2 1333   4.794   2.189   0.273  0.9589  0.6309 -0.5556
  457TIP3   OH2 1334   1.097   2.996   2.200  0.4207  0.1505 -0.4575
  457TIP3    H1 1335   1.096   2.935   2.273  0.3100  1.7569  0.9612
  457TIP3    H2 1336   1.046   2.954   2.131 -2.4449 -0.0192  1.6332
  458TIP3   OH2 1337   1.469   5.223   0.131 -0.3953  0.0309 -0.1363
  458TIP3    H1 1338   1.495   5.276   0.056 -1.3503  1.9875  0.8372
  458TIP3    H2 1339   1.551   5.204   0.177  0.0786 -0.2565 -1.0945
  459TIP3   OH2 1340   4.316   3.032   2.633  0.1562 -0.1574  0.1537
  459TIP3    H1 1341   4.274   3.100   2.580 -1.5154  1.3623  3.1455
  459TIP3    H2 1342   4.388   3.076   2.677 -1.2016 -0.0909  2.4576
  460TIP3   OH2 1343   0.591   0.775   1.058  0.2720  0.3480 -0.1339
  460TIP3    H1 1344   0.680   0.803   1.079 -0.2750  0.6041  2.1084
  460TIP3    H2 1345   0.574   0.811   0.971  2.5003 -0.0940 -0.8056
  461TIP3   OH2 1346   4.750   1.323   1.178 -0.1370 -0.2298  0.6999
  461TIP3    H1 1347   4.744   1.307   1.272 -0.6465 -0.5884  0.6125
  461TIP3    H2 1348   4.814   1.258   1.147 -1.6966 -1.7271  0.4506
  462TIP3   OH2 1349   3.480   0.694   0.403  0.1685 -0.3412 -0.2516
  462TIP3    H1 1350   3.447   0.658   0.485 -0.3991 -0.7176 -0.6418
  462TIP3    H2 1351   3.519   0.619   0.358  0.2057 -0.1945 -0.4637
  463TIP3   OH2 1352   0.078   1.714   1.844  0.3952  0.4869  0.3612
  463TIP3    H1 1353   0.039   1.789   1.889 -1.8351 -0.1462 -0.3673
  463TIP3    H2 1354   0.044   1.720   1.754  1.8109 -0.2884 -0.2613
  464TIP3   OH2 1355   5.343   6.029   1.092 -0.0118 -0.4741  0.0697
  464TIP3    H1 1356   5.437   6.049   1.096 -0.2052  0.4704 -0.0248
  464TIP3    H2 1357   5.301   6.098   1.144 -0.7594 -0.1234 -0.9690
  465TIP3   OH2 1358   4.472   4.105   0.591  0.1496 -0.1856  0.1520
  465TIP3    H1 1359   4.484   4.199   0.576 -0.5839 -0.2250 -0.7788
  465TIP3    H2 1360   4.556   4.066   0.565 -0.3322 -0.0057 -1.8563
  466TIP3   OH2 1361   6.612   0.147   2.393 -0.1225 -0.1196 -0.0155
  466TIP3    H1 1362   6.576   0.079   2.336 -0.7827  0.4780 -0.3301
  466TIP3    H2 1363   6.545   0.158   2.461  0.7250 -0.9377  0.9862
  467TIP3   OH2 1364   4.592   6.216   5.451  0.0112  0.0236  0.8850
  467TIP3    H1 1365   4.519   6.191   5.508 -0.5610 -1.3885 -0.3983
  467TIP3    H2 1366   4.620   6.134   5.411 -0.5927  1.1200 -1.9941
  468TIP3   OH2 1367   4.502   1.230   2.496  0.3853  0.4676  0.0339
  468TIP3    H1 1368   4.430   1.238   2.434  0.1538 -0.6704  0.1339
  468TIP3    H2 1369   4.580   1.217   2.442  0.3688  0.6935 -0.0455
  469TIP3   OH2 1370   3.665   0.468   0.318  0.2185  0.2695  0.7659
  469TIP3    H1 1371   3.719   0.399   0.280 -0.1299  0.1177  0.5419
  469TIP3    H2 1372   3.714   0.548   0.301  0.0523  0.2054 -0.0264
  470TIP3   OH2 1373   4.443   0.333   2.997 -0.3694 -0.7355  0.2099
  470TIP3    H1 1374   4.480   0.420   2.979  1.4329 -1.0271  2.0243
  470TIP3    H2 1375   4.369   0.350   3.055 -1.3255 -0.3034 -1.1161
  471TIP3   OH2 1376   4.552   1.494   0.542 -0.1218 -0.4178  0.2427
  471TIP3    H1 1377   4.463   1.459   0.547 -0.0192 -0.6713  0.2977
  471TIP3    H2 1378   4.551   1.569   0.602 -0.2952 -0.4246  0.2501
  472TIP3   OH2 1379   0.886   1.240   3.268  0.0211  0.0680  0.4684
  472TIP3    H1 1380   0.817   1.282   3.319  1.0056  0.6619  1.3385
  472TIP3    H2 1381   0.885   1.285   3.183  1.7093  2.6067  1.6969
  473TIP3   OH2 1382   2.199   2.681   4.017 -0.7677 -0.4146  0.0482
  473TIP3    H1 1383   2.199   2.587   4.031 -3.4421 -0.3454  1.0801
  473TIP3    H2 1384   2.186   2.719   4.104  0.3736  0.9412 -0.3332
  474TIP3   OH2 1385   2.182   5.801   3.243  0.0659 -0.3287  0.3614
  474TIP3    H1 1386   2.104   5.843   3.206  1.0651  1.1225 -0.1966
  474TIP3    H2 1387   2.155   5.773   3.330 -0.5935  1.8176  0.9160
  475TIP3   OH2 1388   6.941   0.578   0.779  0.0434 -0.0319  0.1115
  475TIP3    H1 1389   7.022   0.597   0.730  0.5978  1.4697  1.5077
  475TIP3    H2 1390   6.905   0.664   0.799 -0.4196 -0.6060  1.8870
  476TIP3   OH2 1391   0.286   0.461   2.146  0.0496 -0.4011  0.0656
  476TIP3    H1 1392   0.238   0.390   2.103  1.6285 -1.7825  0.5229
  476TIP3    H2 1393   0.295   0.528   2.078 -1.3459 -0.6446 -0.4066
  477TIP3   OH2 1394   4.125   5.205   3.795 -0.4375  0.4102  0.3400
  477TIP3    H1 1395   4.043   5.212   3.845 -1.7976 -0.9641 -1.5848
  477TIP3    H2 1396   4.172   5.132   3.836 -0.4081  0.8135  1.0590
  478TIP3   OH2 1397   0.394   6.776   3.897  0.6895 -0.2753 -0.1263
  478TIP3    H1 1398   0.304   6.749   3.914 -0.2228  3.0994  1.2548
  478TIP3    H2 1399   0.441   6.758   3.978  0.6737  0.0722 -0.0383
  479TIP3   OH2 1400   5.732   5.497   5.431 -0.5179 -0.1367 -0.0723
  479TIP3    H1 1401   5.639   5.495   5.409 -0.5575 -1.2671  0.1690
  479TIP3    H2 1402   5.777   5.503   5.347 -0.8104  1.7825 -0.1498
  480TIP3   OH2 1403   0.139   3.121   5.747 -0.5862 -0.1536  0.6940
  480TIP3    H1 1404   0.219   3.076   5.772 -0.4765 -0.4507 -0.1334
  480TIP3    H2 1405   0.131   3.194   5.807  1.7229  1.4779 -0.8276
  481TIP3   OH2 1406   3.997   5.930   2.101  0.6313  0.0594  0.6564
  481TIP3    H1 1407   3.912   5.894   2.077  0.6906  0.1215  0.3491
  481TIP3    H2 1408   3.986   6.024   2.096  0.4011  0.0957  1.7226
  482TIP3   OH2 1409   0.817   1.747   3.296  0.0292 -0.7134  0.1925
  482TIP3    H1 1410   0.726   1.758   3.267  0.0215  0.3517  0.5494
  482TIP3    H2 1411   0.810   1.696   3.377 -0.2379 -0.7930  0.1207
  483TIP3   OH2 1412   4.247   4.245   4.617 -0.4722 -0.1346  0.7691
  483TIP3    H1 1413   4.162   4.287   4.634 -0.3028  0.1650  0.8895
  483TIP3    H2 1414   4.305   4.283   4.683 -0.7685 -2.0212  2.1933
  484TIP3   OH2 1415   6.036   5.959   0.394 -1.3400 -0.4128  0.0550
  484TIP3    H1 1416   6.105   6.022   0.375 -1.7167 -0.7690 -3.1630
  484TIP3    H2 1417   6.018   5.970   0.487  1.6587  1.0490  0.5884
  485TIP3   OH2 1418   4.961   3.084   5.496 -0.5226  0.0945 -0.3568
  485TIP3    H1 1419   5.037   3.060   5.443  0.7605  1.6483  0.6990
  485TIP3    H2 1420   4.996   3.099   5.583 -1.9034  1.6685 -0.0288
  486TIP3   OH2 1421   4.480   3.954   2.217 -0.1340  0.0214  0.6601
  486TIP3    H1 1422   4.472   4.019   2.287 -0.9921  1.5514 -0.7886
  486TIP3    H2 1423   4.513   3.876   2.261 -3.1686  0.0308  3.2974
  487TIP3   OH2 1424   2.908   0.663   0.400  0.1767 -0.6754 -0.4175
  487TIP3    H1 1425   2.993   0.704   0.415  0.0840 -0.6567  0.0660
  487TIP3    H2 1426   2.915   0.623   0.313  0.2541  0.4089 -0.9278
  488TIP3   OH2 1427   0.228   2.150   4.166 -0.1549  0.4876 -0.8465
  488TIP3    H1 1428   0.289   2.077   4.170 -0.8870 -0.0851  0.9617
  488TIP3    H2 1429   0.192   2.157   4.255 -1.6153  1.7375 -1.4757
  489TIP3   OH2 1430   4.058   5.348   0.334  0.3464  0.3628 -0.2535
  489TIP3    H1 1431   4.140   5.300   0.331  0.0758 -0.2469  1.4057
  489TIP3    H2 1432   3.997   5.291   0.381 -0.3586  1.7597  0.6018
  490TIP3   OH2 1433   0.787   4.917   1.806  0.1309 -0.7390 -0.0591
  490TIP3    H1 1434   0.705   4.928   1.757  0.8462  1.5407 -0.8557
  490TIP3    H2 1435   0.849   4.882   1.742  0.6715  0.8389 -0.4331
  491TIP3   OH2 1436   7.189   3.017   3.403  0.0673 -0.0458 -0.5943
  491TIP3    H1 1437   7.125   2.948   3.418 -0.7054  0.6275 -0.6826
  491TIP3    H2 1438   7.171   3.081   3.472  0.1820  0.4782 -1.0457
  492TIP3   OH2 1439   1.568   6.647   4.160 -0.0990 -0.0412 -0.4648
  492TIP3    H1 1440   1.570   6.724   4.103  0.9435 -1.1829 -2.0533
  492TIP3    H2 1441   1.625   6.670   4.233 -0.5110  1.0257 -0.4654
  493TIP3   OH2 1442   6.661   5.352   3.275  0.5028  0.2278  0.4550
  493TIP3    H1 1443   6.599   5.423   3.291  1.7261  1.2139  0.8921
  493TIP3    H2 1444   6.618   5.299   3.207 -1.6745 -0.2130  2.0418
  494TIP3   OH2 1445   0.650   5.004   5.722  0.0688  0.1334 -0.1306
  494TIP3    H1 1446   0.641   4.997   5.817  1.1484 -1.6391 -0.1214
  494TIP3    H2 1447   0.632   4.916   5.689  0.0115  0.6500 -1.5522
  495TIP3   OH2 1448   4.829   1.831   4.891 -0.3437 -0.2655 -0.0630
  495TIP3    H1 1449   4.851   1.912   4.938  3.1550 -0.6348 -0.8282
  495TIP3    H2 1450   4.885   1.764   4.931 -0.6160 -1.5513 -1.7214
  496TIP3   OH2 1451   5.391   1.835   3.915  0.5708 -0.0129  0.2926
  496TIP3    H1 1452   5.446   1.826   3.837 -0.1003  1.1797 -0.3488
  496TIP3    H2 1453   5.414   1.921   3.950  0.3362 -0.2291  0.9864
  497TIP3   OH2 1454   3.845   4.986   2.560  0.0856  0.6316 -0.2102
  497TIP3    H1 1455   3.896   5.056   2.518  2.3933  0.4837  2.0827
  497TIP3    H2 1456   3.874   4.906   2.515  1.0667  0.6844  0.2884
  498TIP3   OH2 1457   6.003   0.402   2.693 -0.7306 -0.2345 -0.7152
  498TIP3    H1 1458   5.982   0.492   2.717 -1.0755 -0.7261  0.9361
  498TIP3    H2 1459   5.970   0.349   2.766  1.5569 -1.5146 -0.5270
  499TIP3   OH2 1460   5.639   5.360   3.528  0.2670  0.1287 -0.5503
  499TIP3    H1 1461   5.629   5.285   3.469 -1.1176  0.6335 -0.9896
  499TIP3    H2 1462   5.568   5.419   3.505 -0.0549  0.5487  1.3353
  500TIP3   OH2 1463   6.622   2.497   1.258 -0.4891  0.5385 -0.1450
  500TIP3    H1 1464   6.662   2.410   1.266  0.5932  1.0430  0.0768
  500TIP3    H2 1465   6.696   2.558   1.255 -1.0856  1.2774 -3.0408
  501TIP3   OH2 1466   4.870   3.320   5.330 -0.1112  0.2617 -0.4699
  501TIP3    H1 1467   4.854   3.228   5.350 -0.4599  0.1661 -1.1647
  501TIP3    H2 1468   4.836   3.332   5.241 -0.5284  1.1825 -0.1986
  502TIP3   OH2 1469   3.629   1.323   2.143 -0.4365 -0.3466  0.2647
  502TIP3    H1 1470   3.568   1.319   2.216 -0.9331  0.1407 -0.1119
  502TIP3    H2 1471   3.573   1.316   2.065  0.0775 -0.8076 -0.0676
  503TIP3   OH2 1472   3.245   3.312   5.745 -0.1937  0.3008 -0.1196
  503TIP3    H1 1473   3.163   3.340   5.704 -0.1090 -0.1185 -0.5853
  503TIP3    H2 1474   3.218   3.245   5.809 -0.1765 -0.1392 -0.5681
  504TIP3   OH2 1475   4.461   6.235   0.303 -0.1485 -0.1888 -0.0427
  504TIP3    H1 1476   4.475   6.265   0.393 -0.8038  1.2598 -0.3923
  504TIP3    H2 1477   4.531   6.172   0.287  0.1673 -0.2129  1.3742
  505TIP3   OH2 1478   1.928   5.711   1.458  0.8011  0.4955 -0.1810
  505TIP3    H1 1479   1.999   5.721   1.394  0.3413  1.4756 -0.5728
  505TIP3    H2 1480   1.848   5.730   1.408  0.5084  2.3742  0.8760
  506TIP3   OH2 1481   5.301   4.600   1.804 -0.5116 -0.8400  1.0425
  506TIP3    H1 1482   5.215   4.579   1.767 -0.4656  0.6084  0.0061
  506TIP3    H2 1483   5.340   4.516   1.825 -1.0141 -1.6803 -1.1984
  507TIP3   OH2 1484   0.600   3.292   1.222  0.5819 -0.0415 -0.4333
  507TIP3    H1 1485   0.512   3.303   1.259  0.0638 -2.7474 -0.6494
  507TIP3    H2 1486   0.651   3.252   1.293  1.4910  0.9611 -0.5059
  508TIP3   OH2 1487   3.606   0.352   0.560  0.0710 -0.4414 -0.4082
  508TIP3    H1 1488   3.676   0.293   0.588  0.2573 -0.6677 -1.3044
  508TIP3    H2 1489   3.631   0.378   0.471 -0.9204 -0.4525 -0.7032
  509TIP3   OH2 1490   5.903   5.752   1.581  0.3504  0.7324  1.0359
  509TIP3    H1 1491   5.950   5.764   1.664  0.2511  0.6403  1.1066
  509TIP3    H2 1492   5.940   5.817   1.522  0.3373  0.8794  1.1892
  510TIP3   OH2 1493   5.426   5.827   0.843 -0.5467 -0.3109 -0.5243
  510TIP3    H1 1494   5.415   5.805   0.936  1.2666  1.2265  0.1215
  510TIP3    H2 1495   5.466   5.750   0.804 -0.0164 -0.4726  0.3112
  511TIP3   OH2 1496   0.969   2.631   2.842  0.1183  0.6656 -0.7021
  511TIP3    H1 1497   0.960   2.705   2.902  0.7256  0.7958 -0.7579
  511TIP3    H2 1498   0.894   2.575   2.860 -0.8771  1.7624 -1.3114
  512TIP3   OH2 1499   4.527   5.123   3.814 -0.1819  0.4140 -0.5623
  512TIP3    H1 1500   4.555   5.053   3.873  0.1190  0.7197 -0.3403
  512TIP3    H2 1501   4.585   5.116   3.738  0.2440  0.8044 -0.2722
  513TIP3   OH2 1502   5.234   5.467   3.241  0.2573  1.1034  0.2627
  513TIP3    H1 1503   5.220   5.538   3.178 -0.6530 -0.5069 -1.4103
  513TIP3    H2 1504   5.149   5.455   3.283  0.0168  0.0819 -0.4840
  514TIP3   OH2 1505   2.561   4.385   1.500 -0.0880 -0.0137  0.1053
  514TIP3    H1 1506   2.560   4.476   1.528  0.4435 -0.1417  0.5700
  514TIP3    H2 1507   2.582   4.387   1.407 -2.0431  0.4375 -0.3724
  515TIP3   OH2 1508   5.696   4.526   4.784  0.5886  0.8275  0.3442
  515TIP3    H1 1509   5.779   4.515   4.830  0.3819 -0.4368  0.4446
  515TIP3    H2 1510   5.633   4.550   4.852  0.7474  1.2037  0.3588
  516TIP3   OH2 1511   5.136   2.747   3.792  0.3129  0.1417 -0.1809
  516TIP3    H1 1512   5.118   2.674   3.851 -0.5600  1.1078  0.7976
  516TIP3    H2 1513   5.213   2.719   3.742  1.1199 -0.6794  1.4609
  517TIP3   OH2 1514   3.813   6.496   5.244 -0.2895  0.3525 -0.2581
  517TIP3    H1 1515   3.757   6.524   5.171  0.3173  0.5798 -0.6442
  517TIP3    H2 1516   3.822   6.401   5.232 -2.3375 -0.0674  1.0466
  518TIP3   OH2 1517   5.761   1.000   0.209  0.7018 -0.3677  0.3141
  518TIP3    H1 1518   5.832   1.056   0.176 -1.3737  1.7330 -0.8217
  518TIP3    H2 1519   5.708   0.980   0.132 -0.5363 -1.0530  1.3075
  519TIP3   OH2 1520   2.309   2.722   4.555 -0.2219 -0.0958  0.1559
  519TIP3    H1 1521   2.288   2.687   4.641 -0.1989 -0.7808 -0.1093
  519TIP3    H2 1522   2.357   2.652   4.511  0.2013  0.4309 -0.2351
  520TIP3   OH2 1523   7.233   3.614   4.469  0.1584 -0.5326 -0.4358
  520TIP3    H1 1524   7.246   3.521   4.487 -0.5871 -0.7402 -0.8894
  520TIP3    H2 1525   7.142   3.631   4.496 -0.2844 -0.3535 -1.9206
  521TIP3   OH2 1526   6.801   0.513   4.850 -0.5040 -0.0638  0.5102
  521TIP3    H1 1527   6.735   0.445   4.837 -0.7951  0.3037  0.0482
  521TIP3    H2 1528   6.861   0.476   4.915  0.0981 -1.2968 -0.7078
  522TIP3   OH2 1529   6.207   3.479   0.819  0.0529 -0.0862 -0.0365
  522TIP3    H1 1530   6.274   3.411   0.816  0.9628  0.8271 -0.9306
  522TIP3    H2 1531   6.209   3.519   0.732 -0.5108  1.0480  0.4512
  523TIP3   OH2 1532   2.049   3.933   2.407  0.8184  0.0489 -0.0467
  523TIP3    H1 1533   2.034   3.904   2.317 -1.5649  0.1677  0.2381
  523TIP3    H2 1534   2.009   4.020   2.411  0.2465 -0.2451  1.2746
  524TIP3   OH2 1535   5.805   2.068   0.113  0.3006  0.5895  0.0834
  524TIP3    H1 1536   5.739   2.007   0.147  1.5990 -0.9882 -0.0973
  524TIP3    H2 1537   5.767   2.103   0.033  0.1495 -1.2795 -0.7145
  525TIP3   OH2 1538   0.135   0.354   5.913  0.3918  0.4470 -1.2777
  525TIP3    H1 1539   0.141   0.274   5.860 -0.2826  0.1381 -0.9032
  525TIP3    H2 1540   0.118   0.424   5.850 -1.7363 -0.1060 -1.3746
  526TIP3   OH2 1541   0.897   0.975   1.903  0.8108 -0.1669  0.1321
  526TIP3    H1 1542   0.884   1.067   1.880  0.8810  0.4233  2.3006
  526TIP3    H2 1543   0.809   0.938   1.905  0.8479 -0.4469 -1.7415
  527TIP3   OH2 1544   5.680   5.029   4.826  0.1925  0.2746 -0.1715
  527TIP3    H1 1545   5.722   4.998   4.747 -0.2015 -0.2147 -0.1924
  527TIP3    H2 1546   5.742   5.008   4.896 -0.6723 -1.9013  0.0019
  528TIP3   OH2 1547   6.626   4.689   2.899  0.2086 -0.1350  0.3352
  528TIP3    H1 1548   6.698   4.650   2.950  1.0298  0.3465 -0.4330
  528TIP3    H2 1549   6.564   4.617   2.888  0.8197 -0.7119  0.5502
  529TIP3   OH2 1550   4.269   4.993   3.498  0.2305 -0.3391  0.7461
  529TIP3    H1 1551   4.196   4.988   3.436 -0.0540  0.2191  1.0248
  529TIP3    H2 1552   4.251   4.923   3.561  1.1472 -1.6855 -0.4312
  530TIP3   OH2 1553   4.612   5.782   1.655 -0.8483 -0.3321  0.1898
  530TIP3    H1 1554   4.654   5.835   1.723 -1.9274  1.1141 -0.2070
  530TIP3    H2 1555   4.628   5.830   1.574  1.1508 -2.4717 -0.7812
  531TIP3   OH2 1556   1.398   0.965   5.348 -0.0449 -0.2110  0.0937
  531TIP3    H1 1557   1.464   0.962   5.417 -1.0226 -0.5084  1.0506
  531TIP3    H2 1558   1.439   1.014   5.277  1.0708 -0.1006  0.7944
  532TIP3   OH2 1559   4.420   3.688   1.598 -0.0138 -0.2146 -0.0388
  532TIP3    H1 1560   4.429   3.775   1.636 -0.0141 -0.2078 -0.0546
  532TIP3    H2 1561   4.345   3.696   1.538 -0.0950 -0.2593  0.0568
  533TIP3   OH2 1562   2.038   1.643   2.869 -0.3595 -0.7978 -0.2966
  533TIP3    H1 1563   2.005   1.732   2.885  2.2207  0.4873 -1.4539
  533TIP3    H2 1564   1.960   1.591   2.852 -1.8766  1.6940 -1.4749
  534TIP3   OH2 1565   5.317   3.561   2.104 -0.1063  0.3198  0.6433
  534TIP3    H1 1566   5.334   3.545   2.011 -0.0651  1.2408  0.4823
  534TIP3    H2 1567   5.401   3.547   2.147  0.3107  1.6441  0.2901
  535TIP3   OH2 1568   2.267   2.424   4.568 -0.1960  0.1720 -0.1595
  535TIP3    H1 1569   2.310   2.429   4.654 -1.1509  0.9904  0.3010
  535TIP3    H2 1570   2.336   2.444   4.505  0.6005 -0.7675  0.3839
  536TIP3   OH2 1571   0.695   2.484   3.324 -0.1352 -0.3167 -0.1783
  536TIP3    H1 1572   0.649   2.400   3.315  1.4039 -1.2386  0.1194
  536TIP3    H2 1573   0.770   2.464   3.380  0.5676  1.1588 -0.5381
  537TIP3   OH2 1574   6.713   1.278   3.154  0.5436 -0.1510 -0.5298
  537TIP3    H1 1575   6.641   1.299   3.214 -0.9640 -1.7051 -1.7072
  537TIP3    H2 1576   6.756   1.202   3.194 -0.0768 -0.7999 -1.0659
  538TIP3   OH2 1577   6.120   0.546   4.177  0.0141  0.0570 -0.1608
  538TIP3    H1 1578   6.044   0.566   4.124  0.7684  1.3575 -0.8150
  538TIP3    H2 1579   6.087   0.493   4.249 -1.2941 -0.3723 -1.0630
  539TIP3   OH2 1580   1.155   3.718   5.059 -0.3673 -0.3118  0.2172
  539TIP3    H1 1581   1.198   3.635   5.080 -0.4503 -0.2936  0.4568
  539TIP3    H2 1582   1.131   3.710   4.966 -0.0812 -0.4247  0.1522
  540TIP3   OH2 1583   0.095   5.276   4.704 -0.4662  0.5754 -0.4663
  540TIP3    H1 1584   0.015   5.224   4.691 -0.6882  1.2241 -1.8951
  540TIP3    H2 1585   0.137   5.236   4.781 -0.9078 -1.3805 -1.1621
  541TIP3   OH2 1586   1.795   0.079   4.400 -0.0110 -0.1167  0.1008
  541TIP3    H1 1587   1.885   0.092   4.370  0.1635 -3.7747 -1.5616
  541TIP3    H2 1588   1.740   0.110   4.328  0.0242 -0.2813  0.0037
  542TIP3   OH2 1589   4.672   6.249   2.942  0.3177 -0.3259 -0.3310
  542TIP3    H1 1590   4.686   6.155   2.952 -3.2051 -0.9958 -0.2495
  542TIP3    H2 1591   4.621   6.257   2.861 -1.0662  1.2447  0.6264
  543TIP3   OH2 1592   5.958   2.664   2.007  0.1631 -0.3425  0.6421
  543TIP3    H1 1593   5.945   2.664   2.102 -1.0500 -1.4141  0.5148
  543TIP3    H2 1594   5.981   2.574   1.986 -0.4380 -0.3187 -0.1712
  544TIP3   OH2 1595   3.485   3.755   3.133  0.5211 -0.1274  0.6013
  544TIP3    H1 1596   3.453   3.717   3.051 -0.9431 -0.9215  1.4863
  544TIP3    H2 1597   3.521   3.680   3.181 -0.9304 -0.1826  1.6932
  545TIP3   OH2 1598   2.542   5.742   4.788  0.1944 -0.0658  0.4143
  545TIP3    H1 1599   2.539   5.813   4.852 -0.1134 -0.4563  0.8359
  545TIP3    H2 1600   2.519   5.664   4.838 -0.8771 -0.2560 -0.3551
  546TIP3   OH2 1601   5.138   0.115   0.921  1.0780  0.6215 -0.7272
  546TIP3    H1 1602   5.095   0.200   0.933  1.1242  0.5394  0.0343
  546TIP3    H2 1603   5.232   0.135   0.922  1.1170  0.4442  0.4731
  547TIP3   OH2 1604   6.486   3.148   3.276 -0.1110 -0.1958 -0.4311
  547TIP3    H1 1605   6.470   3.057   3.298  1.3065 -0.3353  0.1279
  547TIP3    H2 1606   6.581   3.156   3.271 -0.1903  1.2833 -0.2808
  548TIP3   OH2 1607   2.593   6.267   1.327  0.4838  0.0638 -0.1610
  548TIP3    H1 1608   2.628   6.199   1.385 -0.3890 -0.2604  0.0063
  548TIP3    H2 1609   2.503   6.281   1.359  0.6925  1.3896 -0.1188
  549TIP3   OH2 1610   1.419   1.367   4.401 -0.0773  0.1145  0.4120
  549TIP3    H1 1611   1.442   1.368   4.494  0.3596 -2.7271  0.4086
  549TIP3    H2 1612   1.494   1.325   4.358 -1.0473 -0.2708 -0.9679
  550TIP3   OH2 1613   3.130   6.630   4.713  0.5534 -0.1234  0.1646
  550TIP3    H1 1614   3.204   6.688   4.698  1.7690 -1.3077  1.2719
  550TIP3    H2 1615   3.166   6.541   4.704 -0.2437 -0.7736  2.4731
  551TIP3   OH2 1616   2.459   0.562   5.164 -0.1158 -0.5054 -0.3233
  551TIP3    H1 1617   2.423   0.474   5.155  0.3127 -0.6863 -0.2812
  551TIP3    H2 1618   2.406   0.603   5.232 -0.1654 -0.8119 -0.1765
  552TIP3   OH2 1619   4.231   0.926   0.667 -0.9872 -0.0005 -0.1425
  552TIP3    H1 1620   4.295   0.998   0.668 -1.3648  0.3329  0.1445
  552TIP3    H2 1621   4.256   0.874   0.591  1.6983 -1.7627  1.7566
  553TIP3   OH2 1622   6.642   4.227   0.651 -0.3372  0.2009 -0.1826
  553TIP3    H1 1623   6.626   4.140   0.615 -2.3756  0.6426 -0.4693
  553TIP3    H2 1624   6.664   4.280   0.574  0.4697  0.0497 -0.0643
  554TIP3   OH2 1625   5.976   5.935   0.670 -0.3556  0.3014 -0.4838
  554TIP3    H1 1626   6.006   5.996   0.737  0.5462 -0.0333 -0.5725
  554TIP3    H2 1627   5.908   5.883   0.713 -0.4115  0.6864 -0.1055
  555TIP3   OH2 1628   4.066   6.212   0.123  0.1159  0.2946  0.3505
  555TIP3    H1 1629   4.157   6.238   0.111 -0.0988  1.1700  0.5141
  555TIP3    H2 1630   4.058   6.191   0.216  0.4412 -1.0080  0.0979
  556TIP3   OH2 1631   6.898   4.894   3.729 -0.3665 -0.3245 -0.5903
  556TIP3    H1 1632   6.962   4.907   3.660  1.4352 -0.1183  1.0452
  556TIP3    H2 1633   6.834   4.964   3.716  1.0005  0.9177 -0.9137
  557TIP3   OH2 1634   3.913   3.734   0.450 -0.0523  0.1788  0.0101
  557TIP3    H1 1635   3.904   3.773   0.537  1.3062  0.0247  0.2332
  557TIP3    H2 1636   3.996   3.687   0.452  0.1612  0.4211 -1.4741
  558TIP3   OH2 1637   1.029   4.819   2.462 -0.2540  0.2650  0.5894
  558TIP3    H1 1638   1.116   4.801   2.428 -0.6039  1.7225 -1.2787
  558TIP3    H2 1639   1.033   4.793   2.554  1.3392 -2.1080 -0.0600
  559TIP3   OH2 1640   5.380   0.558   5.180  0.0886  0.3713 -0.9162
  559TIP3    H1 1641   5.423   0.643   5.183 -0.0393  0.4116  0.3419
  559TIP3    H2 1642   5.390   0.522   5.269  0.5678 -1.1458 -1.5413
  560TIP3   OH2 1643   2.297   4.151   4.430 -0.0640 -0.4954  0.0624
  560TIP3    H1 1644   2.322   4.154   4.338  3.5029 -0.9673  0.8588
  560TIP3    H2 1645   2.331   4.233   4.467  1.1952 -1.5962  1.4496
  561TIP3   OH2 1646   1.415   2.436   2.005  0.4397 -0.5681 -0.4520
  561TIP3    H1 1647   1.507   2.454   2.024  0.5578 -1.5013 -0.1133
  561TIP3    H2 1648   1.412   2.418   1.911  0.4363  0.4136 -0.6555
  562TIP3   OH2 1649   7.177   4.310   5.837  0.2356  0.5903 -0.6795
  562TIP3    H1 1650   7.086   4.312   5.867 -0.0908 -1.9734 -1.2769
  562TIP3    H2 1651   7.192   4.397   5.801 -2.1888  0.9166 -1.0742
  563TIP3   OH2 1652   4.591   3.475   3.234  0.1768  0.1042 -0.6555
  563TIP3    H1 1653   4.577   3.552   3.178  0.2859 -0.6151 -1.6826
  563TIP3    H2 1654   4.590   3.511   3.323  1.4434  1.4989 -1.1498
  564TIP3   OH2 1655   0.052   3.056   2.613 -0.0137 -0.6030 -0.5269
  564TIP3    H1 1656   0.082   3.041   2.703 -0.7085 -2.0070 -0.5068
  564TIP3    H2 1657  -0.039   3.029   2.613  0.0729 -0.9541 -1.7343
  565TIP3   OH2 1658   1.940   5.243   3.126  0.2432 -0.4898  0.0591
  565TIP3    H1 1659   1.938   5.315   3.063  1.6064 -0.2400  0.2649
  565TIP3    H2 1660   2.002   5.180   3.089  0.0784 -0.9369  0.5256
  566TIP3   OH2 1661   3.665   3.904   5.150  0.0340 -0.1064  0.3666
  566TIP3    H1 1662   3.614   3.823   5.156  0.8330 -0.5319  1.8266
  566TIP3    H2 1663   3.745   3.879   5.102  0.4100 -0.2724  1.0627
  567TIP3   OH2 1664   1.511   2.078   4.785  0.5335 -0.0077  0.3721
  567TIP3    H1 1665   1.417   2.096   4.797  0.9124  0.3460  4.0048
  567TIP3    H2 1666   1.515   1.983   4.774 -0.2145 -0.0825  0.6523
  568TIP3   OH2 1667   1.395   6.603   2.709 -0.6671 -0.0352 -0.2785
  568TIP3    H1 1668   1.469   6.664   2.703  0.3895 -1.2786 -0.4733
  568TIP3    H2 1669   1.318   6.658   2.709  0.2526  1.2944 -0.5230
  569TIP3   OH2 1670   7.221   5.769   4.965  0.1464  0.5344  0.1481
  569TIP3    H1 1671   7.242   5.726   5.048  1.1057  0.0390 -0.3384
  569TIP3    H2 1672   7.127   5.754   4.953  0.5353 -1.9623 -0.2758
  570TIP3   OH2 1673   1.237   1.182   1.102 -0.1045  0.3305 -0.0984
  570TIP3    H1 1674   1.202   1.112   1.158 -0.4000  0.2879 -0.3338
  570TIP3    H2 1675   1.202   1.162   1.015  0.4605  0.3247 -0.3221
  571TIP3   OH2 1676   5.848   5.576   0.548  0.3424  0.2007  0.0795
  571TIP3    H1 1677   5.820   5.523   0.473  0.4098  0.5338 -0.1815
  571TIP3    H2 1678   5.899   5.516   0.601 -1.5585 -0.6870  1.0117
  572TIP3   OH2 1679   2.620   3.194   5.325  0.0072 -0.1329 -0.5193
  572TIP3    H1 1680   2.642   3.275   5.370 -1.5027 -0.0443  0.1391
  572TIP3    H2 1681   2.692   3.135   5.345 -0.1453  0.2256  1.2411
  573TIP3   OH2 1682   4.306   6.793   1.163 -0.0474  0.0096 -0.1613
  573TIP3    H1 1683   4.302   6.770   1.256  0.2064 -0.0559 -0.1667
  573TIP3    H2 1684   4.262   6.720   1.119  0.0094 -0.0574 -0.1082
  574TIP3   OH2 1685   6.910   2.400   1.894 -0.2716  0.2101  0.1142
  574TIP3    H1 1686   6.877   2.383   1.806  2.2243 -1.8095 -0.5243
  574TIP3    H2 1687   6.849   2.355   1.952 -1.0484  0.2236 -0.6791
  575TIP3   OH2 1688   5.581   2.434   1.790  0.2457 -0.1363 -0.2189
  575TIP3    H1 1689   5.535   2.511   1.758 -0.2591 -0.8149 -1.1868
  575TIP3    H2 1690   5.615   2.460   1.875 -0.5951  0.8965 -0.1747
  576TIP3   OH2 1691   2.564   3.129   3.164 -0.0533 -0.4229  0.0856
  576TIP3    H1 1692   2.599   3.040   3.171 -0.8027 -0.8954 -1.5549
  576TIP3    H2 1693   2.630   3.177   3.114 -0.8241 -0.8067 -1.3558
  577TIP3   OH2 1694   5.373   1.727   4.245  0.1047 -0.1470 -0.6716
  577TIP3    H1 1695   5.380   1.649   4.190 -0.7829 -0.3486 -0.5241
  577TIP3    H2 1696   5.323   1.789   4.192  0.5654  0.2214 -0.6774
  578TIP3   OH2 1697   4.383   3.690   3.809  0.1585 -0.1833  0.1498
  578TIP3    H1 1698   4.434   3.762   3.846  0.5720 -0.0689 -0.6078
  578TIP3    H2 1699   4.438   3.613   3.820 -0.1934 -0.3454  0.7711
  579TIP3   OH2 1700   5.890   0.525   4.036  0.0089 -0.5069  0.0111
  579TIP3    H1 1701   5.818   0.577   4.002  0.3787 -0.4932 -0.7709
  579TIP3    H2 1702   5.879   0.439   3.997  0.5473 -0.4368 -0.3128
  580TIP3   OH2 1703   0.294   6.101   0.056 -0.9544  0.2838 -0.0461
  580TIP3    H1 1704   0.305   6.008   0.034 -0.8200  0.1518  0.5596
  580TIP3    H2 1705   0.356   6.147  -0.000  0.1023 -0.1382  0.7487
  581TIP3   OH2 1706   1.214   1.973   1.285  0.1511 -0.7560 -0.1632
  581TIP3    H1 1707   1.252   1.975   1.198 -0.9132 -2.7724 -0.7386
  581TIP3    H2 1708   1.121   1.952   1.271 -0.0776 -0.9826  1.4327
  582TIP3   OH2 1709   1.071   5.550   1.241 -0.4093 -0.7222  0.4737
  582TIP3    H1 1710   1.139   5.610   1.209  0.1036 -0.2740  2.2678
  582TIP3    H2 1711   1.004   5.551   1.173  0.5375  0.2910 -0.4818
  583TIP3   OH2 1712   5.603   3.002   1.862 -0.3289 -0.2113 -0.2960
  583TIP3    H1 1713   5.594   3.097   1.868 -4.2421 -0.3817 -1.1037
  583TIP3    H2 1714   5.538   2.976   1.797  1.7890 -3.3759 -1.3886
  584TIP3   OH2 1715   4.806   2.559   3.763 -0.5953  0.3696  0.4817
  584TIP3    H1 1716   4.831   2.630   3.821 -2.0792  0.2631  1.2806
  584TIP3    H2 1717   4.719   2.582   3.732 -0.2838 -0.1277 -0.8470
  585TIP3   OH2 1718   0.553   6.695   2.290  0.4114 -0.1173  0.2123
  585TIP3    H1 1719   0.567   6.611   2.333 -0.1126 -1.0094 -1.3101
  585TIP3    H2 1720   0.482   6.736   2.341  1.0530 -0.3143  1.3035
  586TIP3   OH2 1721   0.783   5.663   5.053  0.2267 -0.1423  0.1667
  586TIP3    H1 1722   0.844   5.717   5.104  0.0584 -0.6713  0.9614
  586TIP3    H2 1723   0.797   5.574   5.087  1.6163 -0.8960 -2.1770
  587TIP3   OH2 1724   4.865   1.505   3.327 -0.9583 -0.0297  0.0923
  587TIP3    H1 1725   4.894   1.491   3.418 -2.5480 -0.7047  0.5352
  587TIP3    H2 1726   4.896   1.428   3.280 -0.9697 -0.1464  0.2759
  588TIP3   OH2 1727   4.151   1.632   0.138 -0.0297 -0.3966 -0.0241
  588TIP3    H1 1728   4.164   1.714   0.186  0.3415 -0.4145 -0.0924
  588TIP3    H2 1729   4.230   1.622   0.084 -0.3138 -0.5251 -0.4226
  589TIP3   OH2 1730   6.658   5.684   3.099  0.6870 -0.1820 -0.0004
  589TIP3    H1 1731   6.693   5.733   3.174  1.0265 -0.2557 -0.1113
  589TIP3    H2 1732   6.575   5.648   3.131  0.9743 -0.4659  0.4380
  590TIP3   OH2 1733   5.110   2.139   1.442 -0.2573 -0.1498 -0.0617
  590TIP3    H1 1734   5.189   2.086   1.429 -0.3627 -0.5986  1.0391
  590TIP3    H2 1735   5.141   2.218   1.486 -0.5709 -0.9285  1.6405
  591TIP3   OH2 1736   3.144   6.160   1.218  0.0770  0.2623  0.2490
  591TIP3    H1 1737   3.229   6.117   1.229  0.5750  1.4490  1.3166
  591TIP3    H2 1738   3.079   6.092   1.236  0.7864 -0.7257 -0.8424
  592TIP3   OH2 1739   6.985   2.270   2.916  0.3799  0.0191  0.3705
  592TIP3    H1 1740   7.019   2.311   2.836  0.7134  0.8649  0.9377
  592TIP3    H2 1741   7.041   2.194   2.929 -1.8511 -2.2788 -2.1586
  593TIP3   OH2 1742   0.996   5.026   4.449 -0.4952 -0.2087 -0.2282
  593TIP3    H1 1743   0.997   4.987   4.361  2.6529 -0.1014 -0.3632
  593TIP3    H2 1744   0.950   4.962   4.503 -0.3605 -1.4410 -1.5212
  594TIP3   OH2 1745   3.930   6.599   4.917  0.4395  0.1118 -0.1778
  594TIP3    H1 1746   3.942   6.505   4.931  1.2133  0.1138 -0.7855
  594TIP3    H2 1747   3.901   6.632   5.002 -0.7025 -0.8075 -0.1826
  595TIP3   OH2 1748   5.511   3.154   4.682  0.4744 -0.3421 -0.8510
  595TIP3    H1 1749   5.569   3.230   4.693  1.3778 -0.8414 -1.9252
  595TIP3    H2 1750   5.560   3.095   4.625 -0.0436 -1.9322  0.2990
  596TIP3   OH2 1751   0.352   0.763   4.986 -0.3420 -0.4677  0.2651
  596TIP3    H1 1752   0.370   0.810   5.067 -1.2571 -0.8616  0.7063
  596TIP3    H2 1753   0.259   0.744   4.989 -0.0027 -2.4099  0.1672
  597TIP3   OH2 1754   0.362   6.632   2.941  0.2977 -0.2763  0.0968
  597TIP3    H1 1755   0.338   6.720   2.968 -1.0764 -0.2856 -1.0338
  597TIP3    H2 1756   0.405   6.595   3.019  0.6172  1.2553  0.6908
  598TIP3   OH2 1757   0.633   6.687   5.562  0.1556 -0.0495  0.1972
  598TIP3    H1 1758   0.557   6.712   5.615  1.7837  0.1481  2.6197
  598TIP3    H2 1759   0.616   6.596   5.536 -1.1087  0.1566  0.2675
  599TIP3   OH2 1760   0.740  -0.005   3.842  0.5533  0.0254 -0.4996
  599TIP3    H1 1761   0.717   0.087   3.837  0.0032 -0.0552  0.3117
  599TIP3    H2 1762   0.806  -0.011   3.911  1.8266  0.0186 -1.6715
  600TIP3   OH2 1763   1.338   4.925   3.300 -0.1632  0.0295  0.8960
  600TIP3    H1 1764   1.324   4.924   3.205  1.8884  0.8948  0.5235
  600TIP3    H2 1765   1.390   4.847   3.318 -0.4356 -0.0629  1.3038
  601TIP3   OH2 1766   1.093   4.652   1.472  0.3415  0.5062 -0.0552
  601TIP3    H1 1767   1.159   4.587   1.447  0.0621  0.5166 -0.8239
  601TIP3    H2 1768   1.014   4.626   1.426 -0.1572  0.5991  0.7270
  602TIP3   OH2 1769   3.753   4.790   3.813  0.8904  0.1264  0.5032
  602TIP3    H1 1770   3.687   4.793   3.744  1.2205 -0.2814  0.1659
  602TIP3    H2 1771   3.770   4.881   3.834 -1.6803  0.3002  2.4470
  603TIP3   OH2 1772   2.373   4.685   0.840  0.1286 -0.0398  0.3335
  603TIP3    H1 1773   2.466   4.704   0.828  0.7342  0.6561  4.5624
  603TIP3    H2 1774   2.329   4.766   0.815  0.9145  0.5275  0.7513
  604TIP3   OH2 1775   2.364   2.277   4.808  0.0898  0.2866  0.0073
  604TIP3    H1 1776   2.390   2.187   4.826  0.6052  0.5032  0.4152
  604TIP3    H2 1777   2.435   2.330   4.846  1.2035  0.8021 -2.5891
  605TIP3   OH2 1778   4.444   4.820   4.250  0.2548  0.1253  0.1235
  605TIP3    H1 1779   4.392   4.885   4.298  0.6521  2.0567 -1.8978
  605TIP3    H2 1780   4.515   4.797   4.310  0.0634  1.5208  0.9331
  606TIP3   OH2 1781   5.332   0.065   1.554 -0.2547 -0.2125  0.0876
  606TIP3    H1 1782   5.327   0.087   1.461 -1.8078 -0.8226  0.0060
  606TIP3    H2 1783   5.328   0.150   1.599  2.6436  0.3007 -0.3749
  607TIP3   OH2 1784   3.680   1.403   3.664 -0.6044  0.2901  0.0100
  607TIP3    H1 1785   3.691   1.476   3.604 -3.0338  0.4913 -0.2826
  607TIP3    H2 1786   3.727   1.429   3.743  0.7507  0.9836 -0.9768
  608TIP3   OH2 1787   0.920   4.965   5.502  0.4911  0.0325 -0.5956
  608TIP3    H1 1788   0.915   5.053   5.465  0.9579  0.8181  1.1128
  608TIP3    H2 1789   0.986   4.972   5.572 -0.2636 -1.3948  0.3081
  609TIP3   OH2 1790   1.398   6.172   2.219 -0.5353 -0.3250  0.2028
  609TIP3    H1 1791   1.431   6.115   2.149 -0.9749 -0.4192  0.0681
  609TIP3    H2 1792   1.477   6.209   2.259 -0.2145 -1.6058  0.7805
  610TIP3   OH2 1793   7.164   0.095   2.675  0.5089 -0.5862  0.5442
  610TIP3    H1 1794   7.072   0.089   2.649  0.0426  1.2259  1.5591
  610TIP3    H2 1795   7.160   0.114   2.769  1.8556  0.8855  0.3398
  611TIP3   OH2 1796   6.381   1.609   2.777 -0.3411  0.1987 -0.0903
  611TIP3    H1 1797   6.409   1.563   2.857 -1.2984 -2.2174 -1.0327
  611TIP3    H2 1798   6.331   1.684   2.809 -1.5402 -1.2399  1.6666
  612TIP3   OH2 1799   6.920   3.543   4.011  0.1353  0.4134 -0.0403
  612TIP3    H1 1800   6.870   3.489   4.073  1.2966  0.3371  0.8687
  612TIP3    H2 1801   7.005   3.500   4.005  0.7515  1.5872 -0.0543
  613TIP3   OH2 1802   0.862   2.301   0.137  0.1405  0.5478  0.2281
  613TIP3    H1 1803   0.911   2.316   0.218 -0.3440 -0.0879  0.6393
  613TIP3    H2 1804   0.798   2.234   0.159  1.1814 -0.9787 -1.1577
  614TIP3   OH2 1805   2.642   4.867   3.982  0.1115 -0.2641  0.3701
  614TIP3    H1 1806   2.680   4.930   4.045  1.1579 -1.7829  1.3329
  614TIP3    H2 1807   2.547   4.878   3.992  0.2659  0.2154  1.5132
  615TIP3   OH2 1808   1.921   5.146   2.812 -0.0861  0.0681 -0.5106
  615TIP3    H1 1809   1.965   5.083   2.869 -1.1405 -0.5714 -0.3591
  615TIP3    H2 1810   1.881   5.092   2.744  2.0788  0.9109 -2.5696
  616TIP3   OH2 1811   0.244   0.236   0.531 -0.1423 -0.0017 -0.5221
  616TIP3    H1 1812   0.326   0.189   0.517 -0.7502 -1.0029 -0.8198
  616TIP3    H2 1813   0.207   0.246   0.444 -0.2442  0.6285 -0.4079
  617TIP3   OH2 1814   1.862   0.923   0.182 -0.0394  0.2349 -0.3306
  617TIP3    H1 1815   1.856   0.934   0.277  1.4996  0.0710 -0.1909
  617TIP3    H2 1816   1.945   0.878   0.168 -0.1996  0.3332 -1.7681
  618TIP3   OH2 1817   0.685   6.368   1.719 -0.6080 -0.1678  0.3801
  618TIP3    H1 1818   0.646   6.450   1.751  1.5721  0.1157  2.6340
  618TIP3    H2 1819   0.772   6.393   1.689 -0.5586 -1.3974 -0.5636
  619TIP3   OH2 1820   6.801   4.746   4.842  0.7208  0.4984  0.0145
  619TIP3    H1 1821   6.757   4.774   4.762 -3.2927 -1.3381  1.3058
  619TIP3    H2 1822   6.812   4.826   4.893 -2.1694  1.0287 -0.0249
  620TIP3   OH2 1823   2.128   2.490   1.143 -0.8815 -0.5160  0.1807
  620TIP3    H1 1824   2.119   2.501   1.048 -0.3685 -0.5603  0.1229
  620TIP3    H2 1825   2.104   2.398   1.158  1.0892 -1.1378 -0.2018
  621TIP3   OH2 1826   0.993   4.129   5.264  0.1599  0.2920 -0.1215
  621TIP3    H1 1827   1.067   4.070   5.250  0.0660  0.2717 -0.5655
  621TIP3    H2 1828   1.020   4.185   5.336  0.7127  0.4459 -0.4380
  622TIP3   OH2 1829   4.724   0.682   4.143  0.2255 -0.0980  0.3008
  622TIP3    H1 1830   4.795   0.653   4.086  0.1718  0.8479 -0.2727
  622TIP3    H2 1831   4.684   0.601   4.175  0.0731 -0.6755 -1.2586
  623TIP3   OH2 1832   6.418   2.280   2.195  0.5479 -0.0759 -0.0399
  623TIP3    H1 1833   6.413   2.209   2.131  1.6509 -0.6350  0.4618
  623TIP3    H2 1834   6.411   2.236   2.280 -2.6351  0.8012  0.3030
  624TIP3   OH2 1835   0.546   3.364   4.884  0.1460  0.1207 -0.2503
  624TIP3    H1 1836   0.599   3.375   4.805  1.2206  1.0888  0.5727
  624TIP3    H2 1837   0.585   3.290   4.930 -1.2529 -1.2624 -1.1911
  625TIP3   OH2 1838   0.726   3.840   4.952  0.0679 -0.1910 -0.0238
  625TIP3    H1 1839   0.764   3.759   4.983  1.0770 -0.1650 -1.1313
  625TIP3    H2 1840   0.668   3.814   4.880  0.2711  0.0487 -0.2769
  626TIP3   OH2 1841   5.685   4.226   3.034 -0.2833 -0.1667  0.0195
  626TIP3    H1 1842   5.592   4.227   3.058 -0.3427  0.5012 -0.2119
  626TIP3    H2 1843   5.685   4.214   2.939 -0.2749  2.9915 -0.4670
  627TIP3   OH2 1844   3.845   4.509   2.610  0.3339  0.0974 -0.2885
  627TIP3    H1 1845   3.867   4.543   2.524 -1.8836  0.4229 -0.8010
  627TIP3    H2 1846   3.778   4.569   2.643 -2.8898 -2.8904 -0.7116
  628TIP3   OH2 1847   1.966   2.741   1.656  0.4741 -0.2518 -0.2357
  628TIP3    H1 1848   1.873   2.719   1.655 -0.0228  1.5976 -1.4445
  628TIP3    H2 1849   2.009   2.664   1.693 -1.4912 -1.2844  0.0435
  629TIP3   OH2 1850   2.864   3.468   3.933 -0.4232 -0.1263  0.2527
  629TIP3    H1 1851   2.951   3.433   3.950  0.1969  0.6214 -1.1528
  629TIP3    H2 1852   2.806   3.393   3.943  0.4436 -0.7717  0.6398
  630TIP3   OH2 1853   6.686   1.892   2.611  0.5046  1.0087  0.4464
  630TIP3    H1 1854   6.720   1.906   2.522  0.5113 -1.2807  0.0274
  630TIP3    H2 1855   6.760   1.914   2.668  1.4755 -0.2494 -0.2803
  631TIP3   OH2 1856   2.493   4.025   5.497  0.0800 -0.4235  0.1036
  631TIP3    H1 1857   2.577   4.028   5.450 -0.4193  1.4018 -0.7538
  631TIP3    H2 1858   2.456   3.940   5.474  0.3712 -0.0479 -1.9758
  632TIP3   OH2 1859   2.152   0.282   1.338 -0.3626  0.3792 -0.0881
  632TIP3    H1 1860   2.163   0.214   1.404  1.1026  0.8026  0.1294
  632TIP3    H2 1861   2.141   0.363   1.388 -2.0457  0.3412 -0.3447
  633TIP3   OH2 1862   5.118   2.601   5.339 -0.6000  0.7758 -0.1076
  633TIP3    H1 1863   5.102   2.507   5.329  0.3979  0.3471  1.7323
  633TIP3    H2 1864   5.050   2.643   5.287 -1.8745 -0.9634  0.0739
  634TIP3   OH2 1865   2.497   4.838   5.324 -0.0653 -0.3358 -0.1749
  634TIP3    H1 1866   2.563   4.795   5.269  1.1520  1.3973 -0.1586
  634TIP3    H2 1867   2.482   4.777   5.395  3.2660  0.0673  1.0594
  635TIP3   OH2 1868   2.934   1.283   0.609  0.6616  0.2494 -0.6477
  635TIP3    H1 1869   2.951   1.278   0.703 -0.8382  0.3387 -0.3394
  635TIP3    H2 1870   2.882   1.363   0.599  0.0035 -0.2662 -1.4168
  636TIP3   OH2 1871   5.053   3.371   0.882  0.1316 -0.3079 -0.3256
  636TIP3    H1 1872   5.118   3.302   0.872 -1.5379 -1.7048 -2.3046
  636TIP3    H2 1873   4.992   3.337   0.948  1.1735  0.9015  1.3601
  637TIP3   OH2 1874   4.203   2.359   4.260  0.2711  0.4890 -0.1314
  637TIP3    H1 1875   4.245   2.329   4.180  0.7392 -1.7682  0.8633
  637TIP3    H2 1876   4.217   2.453   4.261 -0.9392  0.8233 -3.3266
  638TIP3   OH2 1877   5.644   1.588   2.670 -0.2066 -0.6926  0.5367
  638TIP3    H1 1878   5.678   1.581   2.760  1.2641  0.6049  0.1334
  638TIP3    H2 1879   5.721   1.608   2.617 -1.4508  1.6072 -0.5707
  639TIP3   OH2 1880   2.617   1.755   0.444  0.0971  0.0230 -0.0332
  639TIP3    H1 1881   2.615   1.725   0.535  0.4504 -0.1159 -0.0664
  639TIP3    H2 1882   2.688   1.703   0.405 -0.9391 -0.9008 -0.7277
  640TIP3   OH2 1883   3.869   6.751   2.189 -0.3813  0.2897  0.3166
  640TIP3    H1 1884   3.913   6.798   2.118  0.2974  1.1077  1.2574
  640TIP3    H2 1885   3.781   6.788   2.191 -0.6744 -0.3086 -0.6064
  641TIP3   OH2 1886   4.990   6.611   0.948 -0.5616  0.2543  0.1075
  641TIP3    H1 1887   4.922   6.606   1.015  1.5428 -0.2754  2.3258
  641TIP3    H2 1888   5.064   6.562   0.984  0.9225  0.5365 -2.3156
  642TIP3   OH2 1889   2.294   4.419   4.987 -0.5352  0.0432  0.3381
  642TIP3    H1 1890   2.367   4.470   5.021  0.0488 -0.7248  0.2498
  642TIP3    H2 1891   2.274   4.459   4.902 -1.3675  1.3552  1.1165
  643TIP3   OH2 1892   6.762   6.772   2.973 -0.7039 -0.2193 -0.4222
  643TIP3    H1 1893   6.856   6.771   2.988 -0.6927  0.9999 -0.3048
  643TIP3    H2 1894   6.724   6.775   3.061 -0.8281 -0.1910 -0.4763
  644TIP3   OH2 1895   5.978   2.087   3.245 -0.1779  0.3058 -0.5973
  644TIP3    H1 1896   6.031   2.114   3.169  0.9287  0.2723  0.1437
  644TIP3    H2 1897   6.042   2.074   3.315 -1.4191  3.1612  1.2072
  645TIP3   OH2 1898   3.212   3.905   4.002 -0.1210 -0.0116  0.1039
  645TIP3    H1 1899   3.159   3.982   4.020 -0.4830 -0.3544  0.5175
  645TIP3    H2 1900   3.172   3.835   4.053  2.3984  0.3201  2.8246
  646TIP3   OH2 1901   3.284   0.140   1.623 -0.3712 -0.2804  0.8241
  646TIP3    H1 1902   3.255   0.224   1.587 -0.5010 -0.7430 -0.2015
  646TIP3    H2 1903   3.259   0.143   1.715 -0.8403  0.5902  0.6815
  647TIP3   OH2 1904   6.805   3.339   4.236 -0.2835  0.1541 -0.4187
  647TIP3    H1 1905   6.882   3.337   4.292 -1.1347 -0.5080  0.7836
  647TIP3    H2 1906   6.737   3.294   4.286 -1.2667  0.0853 -1.7352
  648TIP3   OH2 1907   3.162   1.660   3.175 -0.6172  0.5359  0.0912
  648TIP3    H1 1908   3.093   1.669   3.110 -1.5887 -0.2646  0.9696
  648TIP3    H2 1909   3.195   1.749   3.186  2.4428  0.2568 -4.3763
  649TIP3   OH2 1910   1.490   2.294   4.005  0.0746 -0.1607 -0.1641
  649TIP3    H1 1911   1.470   2.386   4.024  3.0416  0.9467 -1.7412
  649TIP3    H2 1912   1.433   2.272   3.931  0.1333  0.8212 -0.5210
  650TIP3   OH2 1913   6.874   6.515   1.620 -0.1854 -0.2928  0.0054
  650TIP3    H1 1914   6.803   6.565   1.659  0.2185 -0.5966  1.1959
  650TIP3    H2 1915   6.948   6.575   1.620 -0.3929 -0.0329 -1.0651
  651TIP3   OH2 1916   1.429   2.980   4.538 -0.1418  0.3642 -0.1617
  651TIP3    H1 1917   1.477   2.903   4.507  0.2842  0.9747 -1.0808
  651TIP3    H2 1918   1.477   3.009   4.615  0.8620  0.8290 -0.9343
  652TIP3   OH2 1919   6.220   6.630   1.742  0.3450  0.6758  0.0267
  652TIP3    H1 1920   6.188   6.574   1.813  0.5152  0.2694 -0.2101
  652TIP3    H2 1921   6.154   6.699   1.733 -0.8908 -0.5598 -0.9640
  653TIP3   OH2 1922   2.618   3.360   0.494  0.3031  0.1204  0.6955
  653TIP3    H1 1923   2.608   3.350   0.399 -0.3043  1.7618  0.5545
  653TIP3    H2 1924   2.660   3.445   0.505 -0.0203  0.1420  1.9141
  654TIP3   OH2 1925   3.168   0.222   0.673 -0.1655  0.1226 -0.0825
  654TIP3    H1 1926   3.093   0.170   0.703  0.3409 -0.7976 -0.3776
  654TIP3    H2 1927   3.138   0.313   0.679 -0.6851 -0.1190  1.5590
  655TIP3   OH2 1928   3.314   3.367   4.133  0.0523  0.1192  0.0823
  655TIP3    H1 1929   3.346   3.283   4.165  3.4631  1.0702 -0.4111
  655TIP3    H2 1930   3.254   3.398   4.201  0.6944 -1.5725  1.4837
  656TIP3   OH2 1931   0.258   4.830   1.901 -0.5017  0.0153 -0.2570
  656TIP3    H1 1932   0.185   4.789   1.948 -0.3207  1.9116  1.7957
  656TIP3    H2 1933   0.337   4.790   1.940 -0.2833  2.7099  2.4133
  657TIP3   OH2 1934   1.715   4.536   4.277  0.3982  0.2215 -0.6802
  657TIP3    H1 1935   1.708   4.613   4.334 -1.3576 -0.2115 -0.2725
  657TIP3    H2 1936   1.708   4.572   4.188  1.2054  0.6850 -0.5691
  658TIP3   OH2 1937   2.506   0.965   2.118 -0.4462 -0.2680  0.3519
  658TIP3    H1 1938   2.506   0.869   2.124  0.6580 -0.1854  2.3147
  658TIP3    H2 1939   2.548   0.994   2.199  1.7109  1.7982 -1.3687
  659TIP3   OH2 1940   5.037   2.601   0.226 -0.4680 -0.7104 -0.9380
  659TIP3    H1 1941   5.037   2.508   0.247  0.3126 -0.6832 -0.8000
  659TIP3    H2 1942   5.079   2.642   0.301 -2.5613 -0.0191 -0.0721
  660TIP3   OH2 1943   4.058   6.014   3.998  0.4901  0.0906  0.6261
  660TIP3    H1 1944   4.062   6.108   3.981  0.1180  0.1140  0.6682
  660TIP3    H2 1945   4.027   6.006   4.088 -0.3021 -0.0817  0.3467
  661TIP3   OH2 1946   1.794   5.628   5.465  0.3957  0.0162  0.4515
  661TIP3    H1 1947   1.765   5.628   5.556 -2.4325 -2.1090 -0.3024
  661TIP3    H2 1948   1.875   5.576   5.465 -1.2001 -2.6706  1.4537
  662TIP3   OH2 1949   6.255   0.724   5.229  0.1264  0.1564 -0.2284
  662TIP3    H1 1950   6.340   0.733   5.271  0.5434  1.4615 -1.2952
  662TIP3    H2 1951   6.207   0.804   5.252 -1.1898 -0.9559  1.1154
  663TIP3   OH2 1952   7.033   0.514   1.084 -0.8628  0.5274 -0.0224
  663TIP3    H1 1953   7.019   0.608   1.097 -0.8703  0.4575  0.4603
  663TIP3    H2 1954   7.078   0.509   0.999 -1.4771  0.9207 -0.3808
  664TIP3   OH2 1955   4.124   3.259   3.952  0.1697  0.1842  0.0958
  664TIP3    H1 1956   4.176   3.300   3.882 -1.4969  0.6223 -0.9423
  664TIP3    H2 1957   4.090   3.179   3.912  2.1463 -1.5269  1.6183
  665TIP3   OH2 1958   5.813   1.175   0.477  0.3607 -0.5656  0.2768
  665TIP3    H1 1959   5.790   1.092   0.520  0.0463 -0.2826  0.6705
  665TIP3    H2 1960   5.898   1.198   0.513  0.7087 -0.9988 -0.2579
  666TIP3   OH2 1961   7.063   1.647   4.175  0.1880 -0.1535  0.0083
  666TIP3    H1 1962   7.012   1.670   4.097  0.2135  0.7082  0.2320
  666TIP3    H2 1963   7.148   1.687   4.160 -0.2016  1.1046  1.0238
  667TIP3   OH2 1964   0.036   3.033   1.437  0.0758  0.0521  0.3120
  667TIP3    H1 1965   0.081   3.065   1.515  0.2530 -0.0702  0.2608
  667TIP3    H2 1966  -0.050   3.004   1.469  1.2635 -3.0312  1.0893
  668TIP3   OH2 1967   1.937   3.891   0.261 -0.5851  0.2659  0.0064
  668TIP3    H1 1968   1.939   3.987   0.265 -0.8745  0.2991 -0.5344
  668TIP3    H2 1969   2.025   3.866   0.235 -0.5380  0.3931  0.0430
  669TIP3   OH2 1970   6.661   1.729   1.942  0.1339  0.0228 -0.1483
  669TIP3    H1 1971   6.636   1.657   1.999  1.5432 -0.3236  0.0786
  669TIP3    H2 1972   6.589   1.737   1.879  0.1284 -1.8424 -0.4244
  670TIP3   OH2 1973   2.794   3.045   5.709  0.1703 -0.2319  0.0476
  670TIP3    H1 1974   2.792   3.055   5.804  0.1339 -3.5026  0.5213
  670TIP3    H2 1975   2.709   3.008   5.687  0.6101 -0.6015 -1.0901
  671TIP3   OH2 1976   0.867   3.289   0.268 -0.0472  0.9371 -0.4076
  671TIP3    H1 1977   0.960   3.269   0.265 -0.1214  0.6615 -1.1879
  671TIP3    H2 1978   0.827   3.227   0.207 -0.5386  2.0523 -1.2694
  672TIP3   OH2 1979   0.979   1.419   2.040  0.1394 -0.1456 -0.0766
  672TIP3    H1 1980   0.981   1.510   2.009 -1.2544 -0.4084 -1.0228
  672TIP3    H2 1981   1.070   1.391   2.039  0.8054  1.6726  1.6285
  673TIP3   OH2 1982   2.922   6.589   1.579  0.0147 -0.7082  0.2319
  673TIP3    H1 1983   2.933   6.682   1.560  0.1503 -0.7981 -0.1592
  673TIP3    H2 1984   2.896   6.551   1.495 -2.7933 -0.6065  0.9584
  674TIP3   OH2 1985   6.737   3.157   1.250  0.7192 -0.5881  0.0673
  674TIP3    H1 1986   6.826   3.186   1.233  0.3040  0.0111 -1.2046
  674TIP3    H2 1987   6.686   3.190   1.175 -0.6254 -0.6312  0.9282
  675TIP3   OH2 1988   0.742   4.819   2.075 -0.3713 -0.1286  0.0936
  675TIP3    H1 1989   0.807   4.869   2.124 -0.8374  0.4626  0.1163
  675TIP3    H2 1990   0.758   4.841   1.983 -0.3901 -0.1607  0.0825
  676TIP3   OH2 1991   0.317   5.610   5.188  0.4440 -0.0315 -0.1871
  676TIP3    H1 1992   0.228   5.575   5.186  0.6229 -0.5604 -2.6735
  676TIP3    H2 1993   0.369   5.538   5.224 -0.0188 -0.0061  0.5569
  677TIP3   OH2 1994   0.810   0.601   4.716  0.2325  0.2664 -0.2304
  677TIP3    H1 1995   0.869   0.641   4.779  0.4107 -0.2495 -0.0603
  677TIP3    H2 1996   0.750   0.671   4.690 -0.0376  0.4095  0.7433
  678TIP3   OH2 1997   7.196   3.756   1.489 -0.1730 -0.6318 -0.1467
  678TIP3    H1 1998   7.224   3.704   1.414  2.3789  1.7575 -0.9990
  678TIP3    H2 1999   7.143   3.826   1.452 -0.5213 -0.5226  0.5378
  679TIP3   OH2 2000   6.162   1.891   2.046 -0.2980 -0.2344 -0.4569
  679TIP3    H1 2001   6.256   1.872   2.056 -0.6298 -1.0879  1.3733
  679TIP3    H2 2002   6.139   1.849   1.963  1.0604  0.5844 -1.2918
  680TIP3   OH2 2003   3.278   5.074   5.494 -0.3976 -0.1741  0.5099
  680TIP3    H1 2004   3.253   5.087   5.403 -0.3566 -0.7469  0.4152
  680TIP3    H2 2005   3.196   5.078   5.543 -0.6722 -1.7411  0.2353
  681TIP3   OH2 2006   4.419   2.140   5.447 -0.1127  0.3134  0.2904
  681TIP3    H1 2007   4.443   2.232   5.449 -0.4112  0.4069 -0.2367
  681TIP3    H2 2008   4.433   2.109   5.537 -0.4636  0.9933  0.5858
  682TIP3   OH2 2009   6.723   3.711   0.583 -0.7440 -0.3580  0.0365
  682TIP3    H1 2010   6.789   3.727   0.515 -0.2565  0.6767  0.7262
  682TIP3    H2 2011   6.763   3.647   0.640 -1.7683 -2.4376 -1.4472
  683TIP3   OH2 2012   0.376   1.501   5.672 -0.1799  0.0188  0.2157
  683TIP3    H1 2013   0.356   1.480   5.580 -0.7683  3.3880 -0.5711
  683TIP3    H2 2014   0.310   1.454   5.722 -0.4774 -1.0999 -1.1392
  684TIP3   OH2 2015   4.468   5.512   5.292 -0.4766  0.2291 -0.3278
  684TIP3    H1 2016   4.491   5.458   5.216  2.5081  0.5455  0.2557
  684TIP3    H2 2017   4.433   5.449   5.356  1.5859 -0.8913 -0.2066
  685TIP3   OH2 2018   3.263   2.928   0.193  0.0094  0.2681 -0.1292
  685TIP3    H1 2019   3.260   3.005   0.251  0.6604  0.1772  0.0350
  685TIP3    H2 2020   3.353   2.896   0.201 -0.3399 -0.6910  0.0296
  686TIP3   OH2 2021   6.016   6.197   1.605 -0.2531 -0.2470 -0.1238
  686TIP3    H1 2022   6.003   6.280   1.559 -0.3712 -0.8214 -1.1454
  686TIP3    H2 2023   5.995   6.130   1.540  0.2128 -1.0859  0.5735
  687TIP3   OH2 2024   3.614   4.011   5.407 -0.5449  0.1170 -0.1396
  687TIP3    H1 2025   3.652   3.982   5.323  0.2878  0.7999 -0.0104
  687TIP3    H2 2026   3.567   3.934   5.439  1.2485 -0.9979 -0.0198
  688TIP3   OH2 2027   1.501   4.161   5.177  0.1767 -0.1342 -0.0068
  688TIP3    H1 2028   1.571   4.223   5.159  0.3370 -0.6491 -1.2088
  688TIP3    H2 2029   1.488   4.114   5.095  0.4746 -2.1199  1.0199
  689TIP3   OH2 2030   4.259   1.929   2.190 -0.2049 -1.2763  0.9211
  689TIP3    H1 2031   4.250   1.889   2.276 -0.3895 -1.3585  0.8646
  689TIP3    H2 2032   4.345   1.971   2.191 -1.4267  1.4502  2.2679
  690TIP3   OH2 2033   6.263   2.973   4.532 -0.1499  0.4038  0.0529
  690TIP3    H1 2034   6.346   3.011   4.562  0.1491 -0.1192 -0.1106
  690TIP3    H2 2035   6.203   2.984   4.607  0.3000  0.0337  0.4714
  691TIP3   OH2 2036   5.353   1.365  -0.022 -0.3897  0.1700 -0.7687
  691TIP3    H1 2037   5.412   1.348   0.052 -0.8209 -0.7466 -0.6207
  691TIP3    H2 2038   5.283   1.301  -0.012 -1.4534  1.2828 -0.9131
  692TIP3   OH2 2039   5.528   3.238   2.204 -0.7670 -0.2331 -0.1200
  692TIP3    H1 2040   5.597   3.192   2.251  0.1839 -1.3292 -2.4318
  692TIP3    H2 2041   5.452   3.234   2.262  1.0099  0.9314  2.4826
  693TIP3   OH2 2042   5.038   1.436   0.777  0.2241  0.7577  0.2340
  693TIP3    H1 2043   4.967   1.474   0.828 -0.4390 -2.1305  1.6655
  693TIP3    H2 2044   5.105   1.415   0.841  0.5447 -0.4312 -0.4631
  694TIP3   OH2 2045   5.997   6.111   3.435  0.5023 -0.4139  0.4296
  694TIP3    H1 2046   5.908   6.094   3.405  1.0438 -1.2453 -0.7436
  694TIP3    H2 2047   5.986   6.173   3.508 -0.9020  1.0295 -0.9381
  695TIP3   OH2 2048   3.158   6.069   5.862  0.2770  0.4960  0.1102
  695TIP3    H1 2049   3.094   6.001   5.840  0.6983 -0.7314  2.3402
  695TIP3    H2 2050   3.134   6.144   5.808 -1.3230 -0.8357 -1.1269
  696TIP3   OH2 2051   0.245   4.623   1.329 -0.4621 -0.0563 -0.1829
  696TIP3    H1 2052   0.256   4.709   1.288 -0.7720  0.5522  0.9624
  696TIP3    H2 2053   0.301   4.564   1.278 -0.1306  0.8479 -0.8881
  697TIP3   OH2 2054   0.780   1.405   5.154 -0.2239 -0.5828 -0.1066
  697TIP3    H1 2055   0.728   1.465   5.208  0.9647  2.0188 -1.6703
  697TIP3    H2 2056   0.762   1.432   5.064  1.0039 -2.0670 -0.8440
  698TIP3   OH2 2057   2.678   1.052   2.317 -0.3677  0.4596 -0.2093
  698TIP3    H1 2058   2.767   1.019   2.302 -0.0370  1.5389 -0.6611
  698TIP3    H2 2059   2.689   1.125   2.378 -0.7238  1.7601 -1.6489
  699TIP3   OH2 2060   7.140   0.584   0.376  0.0099 -0.5263 -0.5959
  699TIP3    H1 2061   7.186   0.628   0.448 -1.4403  1.3171 -0.7117
  699TIP3    H2 2062   7.132   0.651   0.308 -1.5909 -1.1794 -1.1015
  700TIP3   OH2 2063   1.637   3.491   1.146 -0.0082  0.1294  0.4297
  700TIP3    H1 2064   1.552   3.500   1.103  0.1043 -0.4058  0.0838
  700TIP3    H2 2065   1.617   3.498   1.239 -0.4762 -0.2796  0.3654
  701TIP3   OH2 2066   6.488   3.975   1.173  0.3852  0.1444  0.6102
  701TIP3    H1 2067   6.582   3.980   1.155  0.1940 -0.0786 -0.5411
  701TIP3    H2 2068   6.481   3.977   1.269  1.3984  2.7914  0.7126
  702TIP3   OH2 2069   1.592   1.611   2.480 -0.4380 -0.3796  0.3762
  702TIP3    H1 2070   1.514   1.666   2.488  0.0619  0.1895  1.7458
  702TIP3    H2 2071   1.654   1.663   2.430 -1.5587 -1.6157 -2.4905
  703TIP3   OH2 2072   2.368   5.051   3.198  0.8364  0.0929 -0.4878
  703TIP3    H1 2073   2.390   4.958   3.194 -1.1787 -0.3812 -1.5250
  703TIP3    H2 2074   2.448   5.093   3.229  1.9048 -1.9335 -0.3562
  704TIP3   OH2 2075   0.653   0.804   0.008  0.3026 -0.3246  0.4516
  704TIP3    H1 2076   0.649   0.894  -0.023 -0.5469  0.2658  2.1651
  704TIP3    H2 2077   0.722   0.805   0.075 -0.1530 -0.7896  0.9338
  705TIP3   OH2 2078   5.195   4.966   0.296 -0.0682  0.0529 -0.3513
  705TIP3    H1 2079   5.222   5.057   0.283  2.1691 -0.1726  1.8424
  705TIP3    H2 2080   5.145   4.967   0.377  2.1138 -0.9073  1.1100
  706TIP3   OH2 2081   2.541   6.360   0.176  0.3473 -0.0813 -0.2706
  706TIP3    H1 2082   2.505   6.357   0.265  2.2167 -1.0345  0.5033
  706TIP3    H2 2083   2.464   6.353   0.119 -0.9342  0.9107  1.2332
  707TIP3   OH2 2084   6.414   3.150   4.308  1.0758 -0.2424 -0.4920
  707TIP3    H1 2085   6.492   3.198   4.334  2.1286 -2.3773  0.5205
  707TIP3    H2 2086   6.407   3.079   4.372 -0.3743 -1.4578 -1.9229
  708TIP3   OH2 2087   5.529   2.510   5.483 -0.0696 -0.2013  0.0283
  708TIP3    H1 2088   5.552   2.600   5.457 -1.0697 -0.2151 -0.9962
  708TIP3    H2 2089   5.522   2.514   5.578  1.4204  0.4246  0.1399
  709TIP3   OH2 2090   6.819   5.206   4.213  0.0118 -0.0085 -0.2535
  709TIP3    H1 2091   6.810   5.238   4.303 -0.1552 -0.4300 -0.1162
  709TIP3    H2 2092   6.893   5.254   4.177  0.3560 -0.1514  0.2558
  710TIP3   OH2 2093   4.479   3.484   1.821  0.6203 -0.2965  0.5861
  710TIP3    H1 2094   4.393   3.446   1.843  0.6370 -0.5270  0.2604
  710TIP3    H2 2095   4.462   3.538   1.744  1.0283 -1.4717 -0.3525
  711TIP3   OH2 2096   3.796   2.351   0.116  0.0156 -0.2107  0.4653
  711TIP3    H1 2097   3.766   2.312   0.198 -1.6653  2.6423  1.3663
  711TIP3    H2 2098   3.870   2.406   0.141  1.5247 -1.6927 -0.5477
  712TIP3   OH2 2099   7.035   5.208   4.542 -0.1826  0.2378  0.2412
  712TIP3    H1 2100   7.065   5.255   4.464 -2.0758  0.4827 -0.3790
  712TIP3    H2 2101   7.038   5.116   4.518  0.9112  0.1911  0.5099
  713TIP3   OH2 2102   7.102   0.152   2.949 -0.0749 -0.0388  0.1145
  713TIP3    H1 2103   7.156   0.153   3.028 -0.0468 -0.6910  0.1105
  713TIP3    H2 2104   7.020   0.112   2.977 -0.1530 -0.0520 -0.1355
  714TIP3   OH2 2105   4.691   1.896   3.837 -0.2174  0.2307  0.6983
  714TIP3    H1 2106   4.672   1.917   3.746 -0.7008 -0.5383  0.6160
  714TIP3    H2 2107   4.647   1.965   3.887  0.4625  0.9386  0.3434
  715TIP3   OH2 2108   5.198   3.062   0.502  0.0082 -0.2274  0.0485
  715TIP3    H1 2109   5.266   2.994   0.508  1.4593  1.1872  0.1894
  715TIP3    H2 2110   5.212   3.102   0.416 -3.4919 -2.7232 -1.9307
  716TIP3   OH2 2111   4.854   6.257   2.702  0.1109  0.0680 -0.5520
  716TIP3    H1 2112   4.845   6.351   2.717  0.9719 -0.0125  0.6085
  716TIP3    H2 2113   4.767   6.229   2.672  0.1808  1.4265 -2.1610
  717TIP3   OH2 2114   4.645   3.288   1.878 -0.7021  0.0868 -0.0366
  717TIP3    H1 2115   4.600   3.363   1.839 -0.1538  0.0592 -0.7408
  717TIP3    H2 2116   4.738   3.312   1.874 -0.6395  0.2559  1.6162
  718TIP3   OH2 2117   3.925   2.441   0.691  0.0795 -0.5374 -0.2638
  718TIP3    H1 2118   3.970   2.365   0.655  1.8828  1.2689 -2.1634
  718TIP3    H2 2119   3.849   2.453   0.634  0.8445  0.1269 -1.1788
  719TIP3   OH2 2120   5.525   1.244   1.628  0.1337  0.6784  0.0663
  719TIP3    H1 2121   5.541   1.168   1.571 -0.4436  0.7476 -0.1918
  719TIP3    H2 2122   5.504   1.314   1.567 -0.3293  0.7961  0.3647
  720TIP3   OH2 2123   4.131   5.624   0.370  0.1467 -0.1098  0.6536
  720TIP3    H1 2124   4.083   5.541   0.370  0.8576 -0.5318  0.4599
  720TIP3    H2 2125   4.068   5.688   0.340 -0.6104 -0.4598  1.4362
  721TIP3   OH2 2126   3.229   3.229   0.684 -0.3493 -0.4677  0.0983
  721TIP3    H1 2127   3.288   3.153   0.682  0.1576 -0.1570  1.7927
  721TIP3    H2 2128   3.229   3.257   0.775 -0.6008  1.5411 -0.4802
  722TIP3   OH2 2129   0.213   5.137   4.964 -0.1716  0.4703 -0.6847
  722TIP3    H1 2130   0.142   5.177   5.015 -1.5593 -0.5168 -1.7412
  722TIP3    H2 2131   0.291   5.187   4.988 -0.7865  0.2834  2.1317
  723TIP3   OH2 2132   4.828   3.673   2.847 -0.2721 -0.5887 -0.1107
  723TIP3    H1 2133   4.863   3.749   2.895 -1.7978  0.2231 -0.2122
  723TIP3    H2 2134   4.902   3.614   2.837  0.4736 -0.0631  1.8588
  724TIP3   OH2 2135   0.662   6.491   0.959 -0.0266 -0.0799  0.1314
  724TIP3    H1 2136   0.652   6.428   0.888 -1.3139  0.7344 -0.4287
  724TIP3    H2 2137   0.737   6.545   0.933  0.5774 -0.8448  0.2357
  725TIP3   OH2 2138   0.806   5.134   3.060  0.1100 -0.0301 -0.2288
  725TIP3    H1 2139   0.838   5.115   2.972  1.8242  0.2581  0.2937
  725TIP3    H2 2140   0.834   5.060   3.112  0.8907  0.7279  0.4623
  726TIP3   OH2 2141   2.969   1.400   3.576  0.4683  0.2934  0.2536
  726TIP3    H1 2142   2.908   1.462   3.616 -0.3467  0.3349 -1.0172
  726TIP3    H2 2143   2.990   1.339   3.647  1.7451  2.2873  1.7207
  727TIP3   OH2 2144   6.536   5.924   2.133  0.3544  0.4231 -0.4650
  727TIP3    H1 2145   6.534   5.954   2.224  1.8535  2.4971 -1.0499
  727TIP3    H2 2146   6.507   5.832   2.138 -1.6463  1.0749  1.7850
  728TIP3   OH2 2147   2.755   1.377   5.831  0.7137 -0.1472 -0.4365
  728TIP3    H1 2148   2.760   1.319   5.907 -0.2350 -0.8925 -0.9262
  728TIP3    H2 2149   2.813   1.337   5.767 -0.2407 -0.7914 -0.9161
  729TIP3   OH2 2150   2.694   1.794   0.841  0.7294  0.4027  0.4358
  729TIP3    H1 2151   2.698   1.703   0.870  0.6867  0.2525 -0.0199
  729TIP3    H2 2152   2.607   1.824   0.867 -0.6611 -0.7606 -2.4774
  730TIP3   OH2 2153   7.099   1.700   5.115 -0.2011  0.0912 -0.6330
  730TIP3    H1 2154   7.130   1.622   5.068 -0.4915 -0.7200  0.4935
  730TIP3    H2 2155   7.122   1.773   5.057  1.7305 -0.6591 -0.9146
  731TIP3   OH2 2156   4.652   5.027   1.201  0.4281  0.1687  0.4279
  731TIP3    H1 2157   4.627   5.118   1.212 -1.1943 -0.3121  1.0953
  731TIP3    H2 2158   4.746   5.025   1.219  0.4774  1.6801  0.4514
  732TIP3   OH2 2159   4.395   6.715   3.411 -0.2529 -0.4150  0.1515
  732TIP3    H1 2160   4.388   6.623   3.435 -0.8511 -0.2503  0.6041
  732TIP3    H2 2161   4.322   6.758   3.455  1.2246  0.6375  1.6818
  733TIP3   OH2 2162   1.818   4.926   0.526 -0.4630  0.3743 -0.4112
  733TIP3    H1 2163   1.734   4.899   0.565 -0.9834  1.1066 -0.9955
  733TIP3    H2 2164   1.795   4.997   0.466  0.4737  0.0316 -1.1995
  734TIP3   OH2 2165   1.086   3.628   0.060  0.1286  0.0682 -0.3288
  734TIP3    H1 2166   1.010   3.653   0.112  1.0277  2.0289  0.1447
  734TIP3    H2 2167   1.144   3.584   0.121  0.1067  0.1033 -0.2829
  735TIP3   OH2 2168   7.090   3.109   4.701 -0.3017 -0.0340  0.0044
  735TIP3    H1 2169   7.084   3.205   4.699 -0.4730 -0.0492 -0.2236
  735TIP3    H2 2170   7.112   3.089   4.792  1.5060  0.3094 -0.3233
  736TIP3   OH2 2171   6.354   3.048   2.344  0.3668  0.0002  0.0579
  736TIP3    H1 2172   6.436   3.010   2.313 -0.2894 -0.0741 -1.7014
  736TIP3    H2 2173   6.320   2.984   2.407  0.3370 -1.3225 -1.2517
  737TIP3   OH2 2174   5.574   3.355   4.987 -0.6410 -0.0684  0.0194
  737TIP3    H1 2175   5.614   3.270   5.006  1.3737  0.6143 -0.9607
  737TIP3    H2 2176   5.575   3.402   5.070 -3.9040 -1.7326  1.1744
  738TIP3   OH2 2177   5.443   1.946   3.115  0.5614  0.4166  0.3624
  738TIP3    H1 2178   5.527   1.957   3.159 -0.0951 -1.2217  2.1094
  738TIP3    H2 2179   5.458   1.877   3.050  0.6889  0.4940  0.3097
  739TIP3   OH2 2180   2.050   3.348   0.932 -0.2558 -0.1955 -0.3831
  739TIP3    H1 2181   2.009   3.375   1.014 -0.1646  0.0457 -0.4158
  739TIP3    H2 2182   2.143   3.341   0.954 -0.4249 -1.7538 -0.0380
  740TIP3   OH2 2183   3.089   2.507   0.038  0.0246 -0.0885 -0.0257
  740TIP3    H1 2184   3.150   2.566  -0.006 -0.1600 -0.6141 -1.0251
  740TIP3    H2 2185   3.052   2.559   0.109  0.1304  0.8926 -0.6686
  741TIP3   OH2 2186   4.381   4.442   1.011 -0.0137 -0.0824  0.3448
  741TIP3    H1 2187   4.450   4.427   0.946 -0.7870  0.9508 -0.7712
  741TIP3    H2 2188   4.428   4.460   1.093  1.0019 -0.6903 -0.0852
  742TIP3   OH2 2189   6.377   1.771   4.792  0.2131 -0.2266  0.1387
  742TIP3    H1 2190   6.296   1.722   4.774  0.4619 -0.4651 -0.3503
  742TIP3    H2 2191   6.445   1.721   4.748  0.7369 -0.4063  1.1321
  743TIP3   OH2 2192   3.535   4.290   4.093 -0.5356 -0.7036  0.0433
  743TIP3    H1 2193   3.503   4.255   4.176  0.0047  1.9789  1.4695
  743TIP3    H2 2194   3.630   4.297   4.105 -0.5221  0.2899 -0.5754
  744TIP3   OH2 2195   4.587   4.362   0.610 -0.1126 -0.0141 -0.3357
  744TIP3    H1 2196   4.638   4.425   0.559  0.6418  0.9901  1.5562
  744TIP3    H2 2197   4.644   4.338   0.683 -0.9682 -1.7718 -0.1773
  745TIP3   OH2 2198   6.400   3.347   2.442  0.4128  0.4817 -0.1186
  745TIP3    H1 2199   6.320   3.347   2.495 -1.1269  1.2920 -2.2783
  745TIP3    H2 2200   6.421   3.254   2.431  0.1153  0.2732  0.9203
  746TIP3   OH2 2201   3.134   3.072   3.106 -0.1420  0.2691  0.2053
  746TIP3    H1 2202   3.164   3.069   3.197  1.5897 -1.7436 -0.3733
  746TIP3    H2 2203   3.198   3.127   3.061  0.3841 -0.7155 -0.2579
  747TIP3   OH2 2204   1.319   4.700   1.723 -0.5513  0.4938  0.0555
  747TIP3    H1 2205   1.394   4.759   1.720  0.3750 -0.5910  0.8535
  747TIP3    H2 2206   1.261   4.738   1.788  0.5365 -0.0017  1.3628
  748TIP3   OH2 2207   1.019   5.392   4.967  0.4107  0.2458 -0.4595
  748TIP3    H1 2208   1.036   5.483   4.943 -1.8957  0.9811  0.4241
  748TIP3    H2 2209   0.988   5.351   4.886 -0.7868  0.9149 -0.3722
  749TIP3   OH2 2210   1.008   4.125   0.526  0.1944 -0.2611  0.9773
  749TIP3    H1 2211   1.009   4.220   0.534  0.2131 -0.3344  2.0584
  749TIP3    H2 2212   1.071   4.095   0.593 -1.3235 -1.1043  2.0863
  750TIP3   OH2 2213   0.354   6.265   5.006 -0.0945 -0.5570 -0.0301
  750TIP3    H1 2214   0.308   6.241   5.086 -0.2813 -0.5310 -0.1275
  750TIP3    H2 2215   0.284   6.275   4.941  0.1946 -2.6335 -0.7318
  751TIP3   OH2 2216   5.429   3.486   1.822 -0.1934 -0.0065 -0.0371
  751TIP3    H1 2217   5.396   3.457   1.737 -1.6961  0.9689  0.1822
  751TIP3    H2 2218   5.490   3.557   1.802  0.5816 -0.7413 -0.3544
  752TIP3   OH2 2219   4.602   5.502   4.789  0.0799 -0.1825  0.2394
  752TIP3    H1 2220   4.688   5.501   4.830  0.3548 -3.5599 -0.1324
  752TIP3    H2 2221   4.615   5.552   4.708  1.7139 -0.6158  0.1945
  753TIP3   OH2 2222   3.390   5.255   4.711 -0.3129 -0.3598 -0.1241
  753TIP3    H1 2223   3.296   5.249   4.730 -0.6475  2.7031 -0.2548
  753TIP3    H2 2224   3.405   5.191   4.642 -2.2682 -1.0715  0.0588
  754TIP3   OH2 2225   6.937   4.588   4.586  0.1872 -0.3950  0.0703
  754TIP3    H1 2226   6.851   4.553   4.611 -0.0084 -0.3613 -0.5184
  754TIP3    H2 2227   6.922   4.681   4.574  0.4178 -0.3119  0.4184
  755TIP3   OH2 2228   4.760   5.136   5.754 -0.0359 -0.1885  0.3116
  755TIP3    H1 2229   4.838   5.112   5.803 -0.6243 -1.4659  0.6729
  755TIP3    H2 2230   4.751   5.231   5.767  0.7592 -0.2283  1.2632
  756TIP3   OH2 2231   5.113   5.063   4.116  0.5005  0.0836  0.3963
  756TIP3    H1 2232   5.036   5.021   4.078  0.3144  1.4229 -0.7814
  756TIP3    H2 2233   5.169   4.990   4.143 -0.3834 -0.9139 -0.3745
  757TIP3   OH2 2234   2.575   1.432   0.411  0.3056 -0.0162 -0.1730
  757TIP3    H1 2235   2.644   1.432   0.477  0.5678 -0.5694 -0.4348
  757TIP3    H2 2236   2.618   1.398   0.332 -0.7819 -2.5092  0.2333
  758TIP3   OH2 2237   6.101   1.949   4.311 -0.1876  0.4726  0.2132
  758TIP3    H1 2238   6.081   1.866   4.267  0.8382  0.5712 -0.4797
  758TIP3    H2 2239   6.118   1.924   4.402  0.7406 -0.1879 -0.1187
  759TIP3   OH2 2240   5.442   1.798   5.498 -0.4864 -0.2287 -0.2001
  759TIP3    H1 2241   5.441   1.848   5.579  1.2500  0.3344 -0.4825
  759TIP3    H2 2242   5.522   1.746   5.503 -0.2972 -0.1160 -1.5727
  760TIP3   OH2 2243   1.346   0.727   2.795  0.3167 -0.1616  0.0199
  760TIP3    H1 2244   1.432   0.723   2.753  0.1002  2.0437 -0.7613
  760TIP3    H2 2245   1.296   0.658   2.752  1.2012 -0.3654 -0.7321
  761TIP3   OH2 2246   6.547   5.737   5.568  0.0768 -0.0919  0.6471
  761TIP3    H1 2247   6.553   5.642   5.552 -1.1624  0.0950 -1.2072
  761TIP3    H2 2248   6.472   5.765   5.516  0.2283  1.8864  1.4174
  762TIP3   OH2 2249   3.376   3.312   3.299 -0.3105 -0.1894 -0.1882
  762TIP3    H1 2250   3.471   3.315   3.309 -0.4507  1.7133  1.3232
  762TIP3    H2 2251   3.351   3.224   3.328  0.9213 -0.4377  0.1657
  763TIP3   OH2 2252   4.165   1.879   0.234  0.0940 -0.7619 -0.0552
  763TIP3    H1 2253   4.116   1.951   0.193  0.4043 -1.5340 -1.8653
  763TIP3    H2 2254   4.236   1.922   0.282  0.2800  0.1556 -1.1179
  764TIP3   OH2 2255   2.505   6.303   4.018  0.1850 -0.2351 -0.3341
  764TIP3    H1 2256   2.425   6.252   4.024  1.3172 -1.9624  0.6676
  764TIP3    H2 2257   2.512   6.325   3.925 -1.1797 -0.4686 -0.5093
  765TIP3   OH2 2258   0.798   1.206   4.184  0.1015 -0.0433  0.1583
  765TIP3    H1 2259   0.838   1.119   4.174  0.3824  0.2393 -1.4397
  765TIP3    H2 2260   0.777   1.233   4.094 -0.9519  1.0935  0.7248
  766TIP3   OH2 2261   3.131   6.006   1.684  0.4281  0.7272 -0.1424
  766TIP3    H1 2262   3.047   5.961   1.695  0.7184 -0.9673 -3.4902
  766TIP3    H2 2263   3.130   6.075   1.751 -1.8417 -1.6637  2.5632
  767TIP3   OH2 2264   5.787   3.748   1.958 -0.8124 -0.2030  0.3203
  767TIP3    H1 2265   5.844   3.671   1.956  0.5429  0.6242  3.1066
  767TIP3    H2 2266   5.833   3.813   1.904 -1.7418 -1.0855 -1.6625
  768TIP3   OH2 2267   5.551   5.966   1.796  0.3577  0.0082 -0.8273
  768TIP3    H1 2268   5.557   6.058   1.821 -2.5283  0.5110 -1.7014
  768TIP3    H2 2269   5.621   5.923   1.846 -1.1801  1.8960  3.4085
  769TIP3   OH2 2270   0.711   0.362   5.388 -0.7131 -0.4204 -0.1303
  769TIP3    H1 2271   0.637   0.347   5.329 -0.8330  1.8529 -0.6538
  769TIP3    H2 2272   0.678   0.338   5.474 -1.1553 -1.9787 -0.7031
  770TIP3   OH2 2273   5.043   2.737   3.307  0.8434 -0.8269  0.3064
  770TIP3    H1 2274   4.996   2.698   3.380 -0.9590 -0.8974 -0.8246
  770TIP3    H2 2275   5.039   2.671   3.238  0.9389 -0.0840 -0.4284
  771TIP3   OH2 2276   7.023   3.552   1.311  0.0690 -0.2506  0.5743
  771TIP3    H1 2277   7.018   3.531   1.218 -0.1652 -0.0012  0.5289
  771TIP3    H2 2278   6.960   3.623   1.323  0.0386 -0.3352  0.9374
  772TIP3   OH2 2279   1.572   6.687   2.121 -0.2833 -0.3538 -0.1642
  772TIP3    H1 2280   1.518   6.765   2.134  0.2900  0.2974 -1.4740
  772TIP3    H2 2281   1.571   6.673   2.026  0.0291 -1.6528  0.0089
  773TIP3   OH2 2282   0.953   5.345   5.448  0.5314  0.1499  0.4567
  773TIP3    H1 2283   0.950   5.407   5.375 -0.1269 -1.1082 -0.6327
  773TIP3    H2 2284   0.964   5.260   5.407 -0.1621 -0.6355  1.8140
  774TIP3   OH2 2285   6.079   1.704   3.876  0.1794  0.1039 -0.1308
  774TIP3    H1 2286   6.090   1.643   3.803  0.2298  0.1350 -0.1489
  774TIP3    H2 2287   5.993   1.743   3.861 -1.2418 -2.1284  1.4843
  775TIP3   OH2 2288   5.737   6.170   2.846  0.1975  0.2270  0.0481
  775TIP3    H1 2289   5.712   6.172   2.938  0.0996  2.6258  0.0119
  775TIP3    H2 2290   5.833   6.163   2.846  0.5194  3.4326  0.4707
  776TIP3   OH2 2291   1.279   4.297   5.263 -0.3680  0.2198 -0.1656
  776TIP3    H1 2292   1.292   4.392   5.261 -0.6879  0.2585 -0.8253
  776TIP3    H2 2293   1.365   4.260   5.244 -0.2952  0.3879 -0.1669
  777TIP3   OH2 2294   3.475   4.014   0.085 -0.2586  0.1392 -0.2381
  777TIP3    H1 2295   3.526   3.958   0.026 -0.9470  0.4638 -1.1668
  777TIP3    H2 2296   3.538   4.077   0.119  0.1240  0.0255 -0.7225
  778TIP3   OH2 2297   4.365   2.441   3.839 -0.1408  0.2529  0.2544
  778TIP3    H1 2298   4.273   2.461   3.820 -0.3335 -1.1065 -0.3122
  778TIP3    H2 2299   4.362   2.365   3.897  0.6367 -0.5840 -0.7568
  779TIP3   OH2 2300   1.839   2.804   2.699  0.1404  0.6307  0.5049
  779TIP3    H1 2301   1.793   2.867   2.755 -0.3711  0.6452  0.0776
  779TIP3    H2 2302   1.778   2.787   2.627 -0.0486 -0.9275  0.9994
  780TIP3   OH2 2303   7.000   2.694   3.035 -0.5938  0.2278 -0.2020
  780TIP3    H1 2304   6.959   2.717   2.952 -0.7225 -1.4281 -0.6352
  780TIP3    H2 2305   7.094   2.686   3.015 -0.6078 -0.0437 -0.1673
  781TIP3   OH2 2306   2.446   6.231   2.967  0.0825  0.0444 -0.4321
  781TIP3    H1 2307   2.445   6.252   2.873 -1.7304  0.4952 -0.3554
  781TIP3    H2 2308   2.535   6.201   2.984  0.7616  0.9677 -2.0785
  782TIP3   OH2 2309   1.247   5.071   3.494 -0.9484 -0.2995 -0.2876
  782TIP3    H1 2310   1.200   5.133   3.438 -0.8251 -1.4471 -1.7418
  782TIP3    H2 2311   1.288   5.010   3.432  0.8007 -0.5138  1.0041
  783TIP3   OH2 2312   5.612   0.870   3.555  0.8965  0.1850  0.3375
  783TIP3    H1 2313   5.634   0.955   3.517  0.9305 -0.5053 -1.2472
  783TIP3    H2 2314   5.686   0.814   3.532 -0.1235 -0.8352 -0.5889
  784TIP3   OH2 2315   6.936   6.152   2.265  0.0838 -0.3104  0.0427
  784TIP3    H1 2316   6.860   6.205   2.290 -0.3376  0.1703 -2.0445
  784TIP3    H2 2317   6.902   6.091   2.200  1.2059 -1.1190  0.1864
  785TIP3   OH2 2318   0.447   4.208   0.867 -0.1532  0.2151 -0.4464
  785TIP3    H1 2319   0.461   4.135   0.927  0.3574 -1.0083 -1.9684
  785TIP3    H2 2320   0.519   4.268   0.886  1.6708 -1.4619 -1.6309
  786TIP3   OH2 2321   5.599   0.379   2.832  0.1287  0.2373  0.0311
  786TIP3    H1 2322   5.683   0.366   2.876 -1.4081  1.2097  3.6675
  786TIP3    H2 2323   5.576   0.292   2.798  0.8580 -1.0534  2.5395
  787TIP3   OH2 2324   2.354   4.816   1.949 -0.0650 -0.7318  0.4415
  787TIP3    H1 2325   2.344   4.874   1.874 -0.0457 -1.0461  0.1941
  787TIP3    H2 2326   2.283   4.752   1.940 -0.3619 -0.4822  0.9569
  788TIP3   OH2 2327   0.372   6.512   0.069  0.3086  0.1686  0.4391
  788TIP3    H1 2328   0.328   6.585   0.113  1.9969  0.8046  1.1659
  788TIP3    H2 2329   0.392   6.450   0.140 -0.6491 -0.7888 -0.0952
  789TIP3   OH2 2330   6.633   6.277   5.529 -0.4247 -0.7357  0.2050
  789TIP3    H1 2331   6.560   6.216   5.521 -1.8597  0.8477  0.6113
  789TIP3    H2 2332   6.595   6.363   5.513  1.1764  0.2328  1.2498
  790TIP3   OH2 2333   5.447   4.433   4.954 -0.0944 -0.0352 -0.0827
  790TIP3    H1 2334   5.458   4.499   5.022  0.8010  0.1183 -0.3567
  790TIP3    H2 2335   5.503   4.360   4.982 -1.0251 -0.6564  0.1843
  791TIP3   OH2 2336   2.810   4.821   3.767  0.3777 -0.8589  0.1148
  791TIP3    H1 2337   2.744   4.825   3.697  0.8044 -1.8060 -0.3624
  791TIP3    H2 2338   2.758   4.816   3.848 -0.1447 -1.4936 -0.2481
  792TIP3   OH2 2339   6.124   1.013   0.772 -0.2054 -0.0929 -0.1285
  792TIP3    H1 2340   6.109   1.085   0.711 -0.5407  0.7923  0.9621
  792TIP3    H2 2341   6.041   0.966   0.775  0.0360 -0.5802 -0.8968
  793TIP3   OH2 2342   2.541   0.980   3.144  0.2099  0.7161 -0.0847
  793TIP3    H1 2343   2.462   1.034   3.158 -0.7762 -0.7677  0.3100
  793TIP3    H2 2344   2.507   0.891   3.133  1.8121  0.1361 -0.5013
  794TIP3   OH2 2345   2.232   1.306   2.062  0.4244  0.7527 -0.3759
  794TIP3    H1 2346   2.197   1.260   1.985  1.0363  0.3086 -0.3959
  794TIP3    H2 2347   2.229   1.242   2.132  0.8429  0.8235 -0.2873
  795TIP3   OH2 2348   1.975   4.064   5.444  0.4453 -0.2143 -1.0722
  795TIP3    H1 2349   1.957   3.970   5.439 -1.5358  0.1563 -2.0048
  795TIP3    H2 2350   1.975   4.084   5.538 -0.8536 -0.8855 -0.8999
  796TIP3   OH2 2351   2.449   3.911   4.408 -0.4438  0.0047  0.3116
  796TIP3    H1 2352   2.399   3.991   4.423 -0.8887  0.4967 -2.9282
  796TIP3    H2 2353   2.536   3.929   4.444 -1.0375  1.2757  1.1532
  797TIP3   OH2 2354   6.475   1.534   0.303 -0.8849  0.0735  0.4295
  797TIP3    H1 2355   6.432   1.449   0.308 -0.9592  0.1724  1.8381
  797TIP3    H2 2356   6.418   1.593   0.352 -0.9321  0.9907 -0.6866
  798TIP3   OH2 2357   4.506   6.147   3.445 -0.3720 -0.0557  0.3346
  798TIP3    H1 2358   4.563   6.223   3.433 -0.4105 -0.3134 -2.0132
  798TIP3    H2 2359   4.423   6.183   3.475  0.3986  0.5096  1.9167
  799TIP3   OH2 2360   3.122   2.799   3.024  0.6920  0.0337  0.4204
  799TIP3    H1 2361   3.123   2.893   3.044  0.8277  0.0511  0.3339
  799TIP3    H2 2362   3.181   2.790   2.949  1.7407 -0.3105  1.2736
  800TIP3   OH2 2363   0.187   3.218   2.422  0.0132 -0.3370  0.5013
  800TIP3    H1 2364   0.181   3.309   2.452  1.4856  0.5356 -1.6666
  800TIP3    H2 2365   0.130   3.170   2.482 -0.1693  1.8676  2.2193
  801TIP3   OH2 2366   0.848   4.524   3.406  0.3663  0.5977 -0.3242
  801TIP3    H1 2367   0.784   4.481   3.463 -0.4023  0.6023 -1.1549
  801TIP3    H2 2368   0.919   4.460   3.397  0.4975  0.5974  0.6171
  802TIP3   OH2 2369   0.554   4.473   1.386  0.3376  0.1477 -0.3679
  802TIP3    H1 2370   0.531   4.470   1.293  0.0097  1.1787 -0.3389
  802TIP3    H2 2371   0.477   4.511   1.428  0.5957 -0.0540  0.2879
  803TIP3   OH2 2372   2.261   5.917   2.621 -0.2487 -0.0307 -0.5948
  803TIP3    H1 2373   2.310   5.836   2.636 -1.0948 -1.1697 -3.3178
  803TIP3    H2 2374   2.327   5.980   2.593  0.1285 -0.4689 -0.7011
  804TIP3   OH2 2375   0.350   1.104   4.056 -0.2873  0.4720  0.2467
  804TIP3    H1 2376   0.360   1.088   3.962  0.4851  1.4574  0.1451
  804TIP3    H2 2377   0.315   1.022   4.091  1.3897 -0.6403 -0.5700
  805TIP3   OH2 2378   3.297   4.360   4.705 -1.0105 -0.1351  0.2892
  805TIP3    H1 2379   3.317   4.279   4.751 -1.2171  0.2168  1.0192
  805TIP3    H2 2380   3.216   4.342   4.658 -0.0758 -0.9393 -1.0896
  806TIP3   OH2 2381   2.073   1.341   1.195  0.0365 -0.3597  0.2226
  806TIP3    H1 2382   2.034   1.332   1.282 -0.6172  2.0086  0.2413
  806TIP3    H2 2383   2.167   1.327   1.209 -0.3363 -2.8405  0.7469
  807TIP3   OH2 2384   4.630   4.898   1.829 -0.4225 -0.1053  0.0415
  807TIP3    H1 2385   4.536   4.911   1.845 -0.7890 -2.4149  0.0305
  807TIP3    H2 2386   4.636   4.873   1.737 -0.1303 -2.3881  0.6189
  808TIP3   OH2 2387   0.645   4.785   4.965  0.0988 -0.1888  0.6543
  808TIP3    H1 2388   0.730   4.741   4.956 -0.7617 -1.6887 -0.6303
  808TIP3    H2 2389   0.616   4.762   5.054  0.6796 -0.3401  0.8112
  809TIP3   OH2 2390   6.898   4.390   5.562 -0.3691 -0.0229  0.1558
  809TIP3    H1 2391   6.926   4.298   5.569 -0.8183 -0.0493  2.2481
  809TIP3    H2 2392   6.808   4.385   5.530  0.5364 -0.1060 -2.6900
  810TIP3   OH2 2393   2.297   1.274   5.236 -0.6071 -0.0172 -0.4691
  810TIP3    H1 2394   2.209   1.282   5.200 -1.6114  1.6441  2.0176
  810TIP3    H2 2395   2.338   1.359   5.220  0.5649 -0.7367 -1.5089
  811TIP3   OH2 2396   3.026   4.892   3.611  0.2806 -0.2152 -0.3113
  811TIP3    H1 2397   2.939   4.908   3.647  0.1731  1.0509 -1.0633
  811TIP3    H2 2398   3.079   4.965   3.643  1.3978 -1.5820  1.0967
  812TIP3   OH2 2399   4.659   4.599   5.027 -0.2069 -0.0082 -0.3599
  812TIP3    H1 2400   4.638   4.639   4.943 -0.5471 -0.0563 -0.2977
  812TIP3    H2 2401   4.752   4.617   5.040 -0.1617  0.0199 -0.7343
  813TIP3   OH2 2402   6.733   5.342   5.865  0.2585 -0.4064  0.0313
  813TIP3    H1 2403   6.741   5.395   5.944  0.9034  0.6071 -0.6900
  813TIP3    H2 2404   6.646   5.363   5.831  0.5302  0.2401 -0.2778
  814TIP3   OH2 2405   5.240   0.879   5.703  0.1509  0.4532  0.4851
  814TIP3    H1 2406   5.277   0.802   5.660 -0.4971  0.1205  0.5079
  814TIP3    H2 2407   5.294   0.952   5.673 -0.0306  0.1703 -0.5707
  815TIP3   OH2 2408   0.203   6.441   4.271 -0.1121  0.7492 -0.3511
  815TIP3    H1 2409   0.233   6.528   4.244  2.1780  0.2390  0.2805
  815TIP3    H2 2410   0.244   6.381   4.207  0.2016 -0.0019  0.5295
  816TIP3   OH2 2411   0.441   5.442   0.189  0.0706  0.2516  0.2794
  816TIP3    H1 2412   0.460   5.364   0.241  1.8060  0.5866  0.1843
  816TIP3    H2 2413   0.524   5.489   0.183 -0.2169  0.5894 -2.1880
  817TIP3   OH2 2414   0.523   2.439   3.847  0.0881 -0.4489  0.1465
  817TIP3    H1 2415   0.560   2.493   3.917 -0.6381  0.0643  0.1478
  817TIP3    H2 2416   0.429   2.434   3.867  0.0475 -1.1831 -0.2072
  818TIP3   OH2 2417   6.143   1.448   2.653  0.3825 -0.4195 -0.1434
  818TIP3    H1 2418   6.197   1.527   2.652 -0.0847 -0.0749  0.7512
  818TIP3    H2 2419   6.196   1.382   2.609  0.6132  0.4933 -1.2814
  819TIP3   OH2 2420   1.892   0.981   5.014 -0.3956 -0.4681 -0.3946
  819TIP3    H1 2421   1.865   1.065   4.975 -0.9015  0.8386  2.5352
  819TIP3    H2 2422   1.930   1.005   5.099  0.7848 -3.1394 -0.0758
  820TIP3   OH2 2423   6.694   4.584   5.385 -0.0963  0.3987 -0.1612
  820TIP3    H1 2424   6.680   4.490   5.382  0.1152  0.3736 -0.4146
  820TIP3    H2 2425   6.677   4.609   5.475 -1.4923  0.3163 -0.3796
  821TIP3   OH2 2426   1.764   3.455   5.884  0.0601  0.3720 -0.2357
  821TIP3    H1 2427   1.732   3.390   5.946  0.2250 -0.4377 -0.9772
  821TIP3    H2 2428   1.685   3.485   5.838  0.1456 -0.3738 -0.8877
  822TIP3   OH2 2429   5.749   2.745   1.269 -0.1543 -0.8636  0.4793
  822TIP3    H1 2430   5.734   2.665   1.219 -1.6458  0.0886 -0.6679
  822TIP3    H2 2431   5.719   2.815   1.212  0.0081  0.4421  1.9321
  823TIP3   OH2 2432   3.544   0.172   0.001  0.5430 -0.2632 -0.3127
  823TIP3    H1 2433   3.549   0.099   0.063  0.9346  0.6914  0.7985
  823TIP3    H2 2434   3.451   0.175  -0.023 -0.0545  0.6365  1.8446
  824TIP3   OH2 2435   0.297   1.850   2.437 -0.4340 -0.0028 -0.1255
  824TIP3    H1 2436   0.321   1.826   2.526  0.9750  1.7992  0.0292
  824TIP3    H2 2437   0.293   1.766   2.390  2.6560 -0.7656  0.7290
  825TIP3   OH2 2438   0.984   3.922   3.181 -0.4887  0.3866 -0.6204
  825TIP3    H1 2439   1.036   3.957   3.109 -2.3150 -1.9369 -3.2726
  825TIP3    H2 2440   0.909   3.881   3.139 -2.3845  0.0166  2.7450
  826TIP3   OH2 2441   5.817   4.379   1.631  0.2602  0.2403 -0.3412
  826TIP3    H1 2442   5.885   4.410   1.571  1.2573  0.4816  0.8762
  826TIP3    H2 2443   5.779   4.459   1.668  0.7964  0.0799  0.5799
  827TIP3   OH2 2444   4.977   1.461   3.003 -0.1965  0.7026  0.0553
  827TIP3    H1 2445   5.056   1.458   3.056 -0.0580 -0.4398 -0.1874
  827TIP3    H2 2446   4.911   1.413   3.053 -0.5676  1.1093 -0.0280
  828TIP3   OH2 2447   4.227   4.771   5.131 -0.1964  0.4898  0.6242
  828TIP3    H1 2448   4.257   4.721   5.207  0.8632  1.6635  1.0213
  828TIP3    H2 2449   4.132   4.767   5.135 -0.1341 -0.5684  1.2527
  829TIP3   OH2 2450   0.506   3.925   0.700 -0.0136 -0.2031  0.1429
  829TIP3    H1 2451   0.592   3.951   0.669 -0.0227 -0.6943 -0.3042
  829TIP3    H2 2452   0.453   4.005   0.695  0.4161  0.0968  0.4204
  830TIP3   OH2 2453   2.975   5.369   3.563  0.0036  0.0801 -0.8047
  830TIP3    H1 2454   3.063   5.338   3.544  0.2794  1.5784 -2.1694
  830TIP3    H2 2455   2.931   5.293   3.601  1.9158 -0.6443  0.1259
  831TIP3   OH2 2456   4.348   4.004   5.632 -0.2574 -0.2493  0.8011
  831TIP3    H1 2457   4.300   3.926   5.606  0.4960 -0.2406 -0.7243
  831TIP3    H2 2458   4.435   3.994   5.593  0.3392  0.6858  1.7909
  832TIP3   OH2 2459   7.073   6.501   5.434 -0.1072  0.4857  0.1671
  832TIP3    H1 2460   7.091   6.552   5.512 -0.8464  1.4063 -0.2439
  832TIP3    H2 2461   7.013   6.432   5.463 -0.8062  1.1482  0.3088
  833TIP3   OH2 2462   2.171   4.048   3.368  0.6005  0.2127 -0.6518
  833TIP3    H1 2463   2.150   4.089   3.452 -1.3106  1.7970 -1.8041
  833TIP3    H2 2464   2.162   4.119   3.304  1.3481 -1.0965 -2.2756
  834TIP3   OH2 2465   3.537   2.374   4.869  0.4209  0.1091  0.2322
  834TIP3    H1 2466   3.628   2.365   4.899  0.8826 -1.0652 -1.3842
  834TIP3    H2 2467   3.529   2.467   4.845  1.2802  0.1743  0.1648
  835TIP3   OH2 2468   1.107   2.445   3.972  0.5016  0.8363 -0.3061
  835TIP3    H1 2469   1.194   2.483   3.957  1.3925 -0.5781  0.9837
  835TIP3    H2 2470   1.123   2.370   4.029 -1.5785  0.5021 -0.0776
  836TIP3   OH2 2471   5.571   6.428   0.970  0.0290 -0.2178  0.1242
  836TIP3    H1 2472   5.633   6.480   1.022  0.1492  0.7761 -0.9783
  836TIP3    H2 2473   5.517   6.383   1.035  1.0789 -0.1142  1.1059
  837TIP3   OH2 2474   3.323   4.105   3.509  0.4957  0.3059  0.4193
  837TIP3    H1 2475   3.258   4.104   3.579  1.5160  0.2970  1.3981
  837TIP3    H2 2476   3.297   4.178   3.453 -1.0179 -0.4224  0.1092
  838TIP3   OH2 2477   5.311   4.837   0.674  0.4178 -0.0665  0.2266
  838TIP3    H1 2478   5.321   4.824   0.768  0.9264 -2.2905 -0.0777
  838TIP3    H2 2479   5.311   4.932   0.663 -0.8541  0.2908  2.5690
  839TIP3   OH2 2480   6.220   2.356   3.299 -0.2402 -0.0371  0.1664
  839TIP3    H1 2481   6.289   2.323   3.356  1.4069  0.4938 -1.4052
  839TIP3    H2 2482   6.181   2.278   3.259  1.5665 -0.2917 -1.2276
  840TIP3   OH2 2483   6.812   1.533   1.754 -0.7832  0.3476  0.2038
  840TIP3    H1 2484   6.745   1.476   1.792 -0.2616 -1.7608 -1.8379
  840TIP3    H2 2485   6.771   1.571   1.677 -0.3687  0.9059  0.2522
  841TIP3   OH2 2486   0.814   0.295   0.751 -0.2250  0.4316 -0.2152
  841TIP3    H1 2487   0.908   0.310   0.759  0.0861 -1.3441 -0.2050
  841TIP3    H2 2488   0.780   0.306   0.839  0.2708 -0.7244  0.1300
  842TIP3   OH2 2489   6.585   2.893   1.012 -0.0915 -0.5187  0.8203
  842TIP3    H1 2490   6.546   2.866   1.095 -1.7849  0.2600  0.3247
  842TIP3    H2 2491   6.548   2.980   0.995 -1.8730 -1.6679 -1.9794
  843TIP3   OH2 2492   1.665   4.357   5.059 -0.4239 -0.5433 -0.0372
  843TIP3    H1 2493   1.757   4.386   5.056 -0.6771  0.2401 -1.2207
  843TIP3    H2 2494   1.632   4.375   4.970 -1.7973 -0.5601  0.4477
  844TIP3   OH2 2495   5.059   3.411   4.048  0.6991  0.0105 -0.2752
  844TIP3    H1 2496   5.039   3.473   3.978 -1.6836 -1.2881 -0.8746
  844TIP3    H2 2497   5.030   3.456   4.128  1.9310  0.8542 -0.2653
  845TIP3   OH2 2498   5.364   1.311   4.629 -0.3887  0.2401  0.0855
  845TIP3    H1 2499   5.328   1.372   4.564  0.3546 -0.1915 -0.7565
  845TIP3    H2 2500   5.389   1.233   4.578  1.2766  0.3314  0.6907
  846TIP3   OH2 2501   3.145   0.908   1.534  0.3792  0.1312  0.6602
  846TIP3    H1 2502   3.198   0.988   1.532 -0.5390  0.7504 -1.2620
  846TIP3    H2 2503   3.121   0.893   1.443 -1.1753 -1.1873  1.2383
  847TIP3   OH2 2504   1.722   1.423   5.501  0.2230  0.5509  0.1559
  847TIP3    H1 2505   1.703   1.517   5.501  1.2077  0.7566  0.5410
  847TIP3    H2 2506   1.813   1.417   5.472  0.5446 -0.1974  1.2734
  848TIP3   OH2 2507   2.766   4.709   2.879  0.0819  0.3220 -0.2941
  848TIP3    H1 2508   2.826   4.645   2.917 -0.8742 -0.6681 -0.4275
  848TIP3    H2 2509   2.755   4.681   2.788  0.0988  1.0143 -0.5157
  849TIP3   OH2 2510   0.288   5.637   3.965 -0.0551  0.7523  0.3037
  849TIP3    H1 2511   0.333   5.554   3.982 -0.5104  0.2703 -0.7569
  849TIP3    H2 2512   0.333   5.672   3.888 -1.1580  0.4903 -0.4903
  850TIP3   OH2 2513   4.403   1.627   4.765 -0.3813  0.2877  0.2034
  850TIP3    H1 2514   4.418   1.618   4.671 -0.3299  0.9220  0.1439
  850TIP3    H2 2515   4.490   1.631   4.803 -0.3243 -2.5155  0.5828
  851TIP3   OH2 2516   3.013   0.450   0.686 -0.3313 -0.2877 -0.0202
  851TIP3    H1 2517   2.933   0.465   0.636 -0.6219 -0.7386  0.3092
  851TIP3    H2 2518   2.988   0.461   0.777  0.4313  1.6133  0.0138
  852TIP3   OH2 2519   4.023   6.188   2.078  0.3585  0.4037  0.1200
  852TIP3    H1 2520   4.015   6.239   1.997  0.4959  2.1775  1.1646
  852TIP3    H2 2521   3.950   6.218   2.132  0.7340 -0.1783  0.9626
  853TIP3   OH2 2522   4.575   3.224   5.839 -0.1412 -0.3708 -0.0162
  853TIP3    H1 2523   4.605   3.137   5.866 -0.9507 -0.5600  0.2882
  853TIP3    H2 2524   4.516   3.206   5.766  1.1212  0.0566 -1.1926
  854TIP3   OH2 2525   4.727   6.596   3.865  0.4828 -0.1381 -0.2096
  854TIP3    H1 2526   4.668   6.589   3.791 -0.4630  1.4192  0.3602
  854TIP3    H2 2527   4.814   6.580   3.828  0.2970  2.5763 -2.1234
  855TIP3   OH2 2528   1.782   6.354   4.029 -0.6711 -0.2503 -0.5342
  855TIP3    H1 2529   1.808   6.421   4.091  0.0109 -1.1989  0.2412
  855TIP3    H2 2530   1.779   6.399   3.944  1.2005  0.4354 -0.2778
  856TIP3   OH2 2531   0.209   1.484   3.370 -0.1639  0.6171  0.5033
  856TIP3    H1 2532   0.160   1.565   3.384  0.8538  1.2118  0.7367
  856TIP3    H2 2533   0.221   1.447   3.457 -1.0494 -0.0561  0.3526
  857TIP3   OH2 2534   7.029   5.771   1.135 -0.0173  0.2469 -0.3057
  857TIP3    H1 2535   7.056   5.732   1.218  0.4613  0.4104 -0.3833
  857TIP3    H2 2536   7.110   5.806   1.097 -0.0997 -0.4534 -1.1695
  858TIP3   OH2 2537   2.504   4.702   2.243 -0.8588  0.3998 -1.3495
  858TIP3    H1 2538   2.504   4.794   2.268 -1.6530  0.2623 -0.8280
  858TIP3    H2 2539   2.578   4.664   2.291 -1.8379  0.3199  0.1485
  859TIP3   OH2 2540   2.900   4.614   4.837  0.1156  0.5670 -0.3461
  859TIP3    H1 2541   2.871   4.703   4.815  0.9405  0.1849 -3.3953
  859TIP3    H2 2542   2.949   4.585   4.760 -2.6093 -3.6363 -0.8082
  860TIP3   OH2 2543   5.489   3.925   3.013  0.2597 -0.7535 -0.2839
  860TIP3    H1 2544   5.461   3.973   3.091  1.8415  2.9525 -1.7440
  860TIP3    H2 2545   5.570   3.882   3.039  1.1799  1.0653  0.0356
  861TIP3   OH2 2546   0.941   4.623   2.972  0.2955 -0.5349 -0.3542
  861TIP3    H1 2547   0.867   4.570   3.001  2.1943 -3.3354 -0.2594
  861TIP3    H2 2548   1.011   4.604   3.034  0.7529  3.3466  0.5929
  862TIP3   OH2 2549   6.849   5.169   0.314 -0.5037  0.3840 -0.0467
  862TIP3    H1 2550   6.878   5.078   0.314 -2.3932 -0.2681 -0.0186
  862TIP3    H2 2551   6.764   5.167   0.270  0.2320  2.4432 -1.7351
  863TIP3   OH2 2552   5.148   6.031   3.291 -0.1824 -0.9392  0.1635
  863TIP3    H1 2553   5.103   5.994   3.367 -1.3126  0.2891  0.1268
  863TIP3    H2 2554   5.227   6.070   3.327 -1.7576  1.5703  1.1291
  864TIP3   OH2 2555   4.302   0.534   0.791  0.3384  0.4073  0.1557
  864TIP3    H1 2556   4.328   0.606   0.849  1.8125  0.5659 -0.6447
  864TIP3    H2 2557   4.374   0.471   0.798  1.0565  0.8665 -2.1937
  865TIP3   OH2 2558   2.558   1.802   1.176  0.5290 -0.4781 -0.3626
  865TIP3    H1 2559   2.607   1.883   1.168  0.7441 -0.6939 -1.4786
  865TIP3    H2 2560   2.621   1.734   1.152  0.2946 -0.9611  0.3614
  866TIP3   OH2 2561   4.522   5.429   2.325  0.2388  0.4630 -0.0628
  866TIP3    H1 2562   4.501   5.369   2.397  0.8281  0.6506  0.2705
  866TIP3    H2 2563   4.488   5.386   2.247  0.1102 -0.0162  0.2552
  867TIP3   OH2 2564   5.022   5.029   5.818  0.4730  0.0071 -0.1138
  867TIP3    H1 2565   5.034   4.937   5.792  1.2720 -0.0463  0.4043
  867TIP3    H2 2566   5.095   5.046   5.878  0.3844  1.0148 -0.2877
  868TIP3   OH2 2567   6.831   5.937   3.002  0.6452  0.2542  0.1438
  868TIP3    H1 2568   6.793   5.898   3.081  0.9447 -0.1816  0.0761
  868TIP3    H2 2569   6.866   6.021   3.032  1.6806 -0.3603  0.7068
  869TIP3   OH2 2570   5.444   6.286   5.629 -0.0383  0.3470  0.0948
  869TIP3    H1 2571   5.493   6.368   5.625  0.5624 -0.0437 -1.7188
  869TIP3    H2 2572   5.511   6.219   5.646  0.0623 -0.1458 -1.9898
  870TIP3   OH2 2573   6.462   3.076   3.663  0.4624 -0.0226  0.1424
  870TIP3    H1 2574   6.370   3.048   3.659  0.4290  0.1346 -0.2590
  870TIP3    H2 2575   6.507   3.018   3.601  0.5618  0.1845  0.0218
  871TIP3   OH2 2576   7.130   1.060   5.904  0.2567 -0.5032  0.2812
  871TIP3    H1 2577   7.081   0.978   5.906  0.1612 -0.5037 -1.1486
  871TIP3    H2 2578   7.084   1.114   5.840  1.4887 -0.0947 -0.2913
  872TIP3   OH2 2579   0.326   4.030   0.476 -0.4133  0.4189 -0.1006
  872TIP3    H1 2580   0.307   3.982   0.395 -1.3297 -0.4105  0.5893
  872TIP3    H2 2581   0.415   4.063   0.463 -0.9466  1.3108 -1.9327
  873TIP3   OH2 2582   3.185   4.305   3.108 -0.3716  0.1026 -0.2817
  873TIP3    H1 2583   3.240   4.384   3.108 -0.8439  0.4346 -0.9855
  873TIP3    H2 2584   3.248   4.233   3.117 -0.0184  0.6006  1.7492
  874TIP3   OH2 2585   1.922   3.807   4.730  0.1719  0.0618  0.1051
  874TIP3    H1 2586   1.975   3.878   4.766  1.4225  0.3771 -2.1766
  874TIP3    H2 2587   1.953   3.729   4.777  2.4269  0.3157 -0.8072
  875TIP3   OH2 2588   6.842   6.344   2.896  0.2148 -0.2076  0.1224
  875TIP3    H1 2589   6.846   6.431   2.855  0.8652 -0.8667 -1.3000
  875TIP3    H2 2590   6.749   6.321   2.894 -0.2048  1.0987  2.0178
  876TIP3   OH2 2591   6.446   3.092   5.584 -0.4845  0.2057 -0.0551
  876TIP3    H1 2592   6.496   3.077   5.504  0.9674  0.2955  0.8109
  876TIP3    H2 2593   6.466   3.182   5.608 -1.9010  0.5909 -0.2380
  877TIP3   OH2 2594   6.549   3.240   5.026 -0.2236  0.3823 -0.7552
  877TIP3    H1 2595   6.454   3.236   5.042 -0.3719  0.5895 -1.5533
  877TIP3    H2 2596   6.577   3.322   5.066 -0.7223  1.2768 -2.1769
  878TIP3   OH2 2597   4.612   5.307   1.435  0.4137 -0.3190 -0.4699
  878TIP3    H1 2598   4.638   5.310   1.343  1.0006 -0.6100 -0.3135
  878TIP3    H2 2599   4.692   5.322   1.484  0.1539 -0.4459  0.0022
  879TIP3   OH2 2600   1.389   4.276   0.531  0.1782  0.0272  0.0169
  879TIP3    H1 2601   1.406   4.364   0.496  2.1437 -0.4340 -0.2666
  879TIP3    H2 2602   1.342   4.292   0.613 -1.4193  1.2484 -1.0754
  880TIP3   OH2 2603   1.140   5.020   1.175  0.1308  0.0025 -0.3767
  880TIP3    H1 2604   1.207   5.047   1.111 -1.2227 -0.2527 -1.9722
  880TIP3    H2 2605   1.106   5.102   1.210  1.2113  0.1380  0.4047
  881TIP3   OH2 2606   5.564   1.529   1.567  0.2928 -0.4496 -0.4631
  881TIP3    H1 2607   5.594   1.592   1.502 -0.4843  0.3997 -0.0246
  881TIP3    H2 2608   5.481   1.565   1.598  0.5143 -0.9753  0.7865
  882TIP3   OH2 2609   6.381   3.982   4.040 -0.0130  0.3430  0.0132
  882TIP3    H1 2610   6.340   3.952   4.121 -0.0110  1.2616  0.3650
  882TIP3    H2 2611   6.475   3.985   4.060  0.3659 -2.2484 -0.9466
  883TIP3   OH2 2612   1.587   6.175   2.686 -0.0548  0.1774  0.1149
  883TIP3    H1 2613   1.667   6.180   2.739  0.7324 -0.6201 -0.9601
  883TIP3    H2 2614   1.590   6.254   2.631  0.0464  0.0916 -0.0021
  884TIP3   OH2 2615   1.530   3.020   2.636 -0.6762  0.0804 -0.3404
  884TIP3    H1 2616   1.574   2.960   2.576  0.9300 -1.7786  2.4459
  884TIP3    H2 2617   1.437   2.997   2.629 -0.4632 -0.4111 -1.7274
  885TIP3   OH2 2618   2.275   0.530   2.227 -0.2766 -0.2045 -0.8769
  885TIP3    H1 2619   2.349   0.508   2.171 -0.2834  0.0144 -0.9732
  885TIP3    H2 2620   2.245   0.614   2.195 -0.5409 -0.2726 -0.8103
  886TIP3   OH2 2621   2.998   3.591   2.346  0.1068  0.1945 -0.2302
  886TIP3    H1 2622   2.907   3.576   2.323 -0.1568 -0.6473  1.2294
  886TIP3    H2 2623   3.020   3.676   2.307 -1.6995  1.0424  0.5099
  887TIP3   OH2 2624   5.658   4.465   4.278  0.4028 -0.1649  0.4329
  887TIP3    H1 2625   5.723   4.535   4.278  1.7407 -1.3489  1.8449
  887TIP3    H2 2626   5.653   4.437   4.369 -2.4804  0.1883  0.4796
  888TIP3   OH2 2627   3.250   5.055   3.781 -0.4735 -0.3640  0.2540
  888TIP3    H1 2628   3.215   5.087   3.864 -1.0666  1.4601 -0.6576
  888TIP3    H2 2629   3.286   4.968   3.803 -0.6752  0.0207  2.3735
  889TIP3   OH2 2630   6.991   2.256   5.227  0.1625  0.4750  0.0695
  889TIP3    H1 2631   6.950   2.233   5.310  0.0904 -0.3232 -0.1811
  889TIP3    H2 2632   6.934   2.323   5.190 -1.9221 -1.7625 -1.0447
  890TIP3   OH2 2633   5.484   2.101   2.185  0.0573 -0.1916  0.3121
  890TIP3    H1 2634   5.464   2.117   2.093 -1.8204  0.0305  0.7285
  890TIP3    H2 2635   5.489   2.188   2.224  2.7232 -0.1597  0.1354
  891TIP3   OH2 2636   4.848   4.167   4.912 -0.3881  0.1689  0.1733
  891TIP3    H1 2637   4.806   4.099   4.965 -0.1564  0.1209  0.2960
  891TIP3    H2 2638   4.849   4.132   4.823 -1.3655  0.5147  0.0061
  892TIP3   OH2 2639   0.606   2.879   2.579  0.1050  0.1664 -0.5514
  892TIP3    H1 2640   0.548   2.905   2.650 -0.4761  0.0529 -0.9806
  892TIP3    H2 2641   0.656   2.958   2.559 -0.9000  0.6605 -1.1301
  893TIP3   OH2 2642   4.444   1.513   2.570  0.1042  0.0282  0.7402
  893TIP3    H1 2643   4.466   1.423   2.590  0.0554  0.0202  0.7606
  893TIP3    H2 2644   4.356   1.525   2.607 -0.3312 -0.2285 -0.1898
  894TIP3   OH2 2645   2.381   0.436   4.393  0.0051  0.0818 -0.5388
  894TIP3    H1 2646   2.346   0.493   4.325 -0.7574 -0.0928 -0.2987
  894TIP3    H2 2647   2.467   0.472   4.413 -0.1629  0.6981 -0.9180
  895TIP3   OH2 2648   1.811   0.202   0.245 -0.3379  0.3267 -0.6402
  895TIP3    H1 2649   1.816   0.263   0.319 -0.6299 -1.3343  0.8012
  895TIP3    H2 2650   1.851   0.121   0.278 -0.7774 -0.5602 -2.1983
  896TIP3   OH2 2651   4.405   3.677   3.433  0.2692 -0.1911  0.4483
  896TIP3    H1 2652   4.367   3.595   3.401  1.6845 -0.3813 -0.8492
  896TIP3    H2 2653   4.496   3.656   3.451  0.1250  0.5698  2.2877
  897TIP3   OH2 2654   2.032   2.919   4.525  0.3448 -0.0244 -0.1072
  897TIP3    H1 2655   2.008   2.842   4.577  1.8444  0.8864  2.0552
  897TIP3    H2 2656   2.048   2.988   4.590 -0.0186  1.8720 -1.9289
  898TIP3   OH2 2657   2.112   6.774   2.335 -0.4288 -0.0669  0.3750
  898TIP3    H1 2658   2.182   6.830   2.303 -0.1538  0.0530  1.1664
  898TIP3    H2 2659   2.147   6.685   2.329 -0.8554 -0.1738 -0.8551
  899TIP3   OH2 2660   3.870   4.100   5.581 -0.3352  0.3070 -0.0255
  899TIP3    H1 2661   3.942   4.073   5.638 -0.4952  0.2311  0.1398
  899TIP3    H2 2662   3.903   4.084   5.492 -0.3479 -0.2451  0.0630
  900TIP3   OH2 2663   5.149   4.725   3.053 -0.5588  0.4465 -0.0416
  900TIP3    H1 2664   5.071   4.777   3.035 -0.4704  1.1610  1.4738
  900TIP3    H2 2665   5.131   4.639   3.013 -1.8233  0.8012 -0.2735
  901TIP3   OH2 2666   5.228   4.034   1.364  0.4330 -0.1605 -0.0973
  901TIP3    H1 2667   5.197   4.124   1.362 -0.4033 -0.3508  2.1058
  901TIP3    H2 2668   5.299   4.032   1.300  2.2510  2.7295  1.6463
  902TIP3   OH2 2669   7.008   1.546   2.715  0.3016 -0.2925  0.5962
  902TIP3    H1 2670   6.914   1.561   2.727  0.0394 -1.7290  0.6047
  902TIP3    H2 2671   7.025   1.568   2.624 -0.6346 -2.5162 -0.1862
  903TIP3   OH2 2672   2.945   3.593   1.466  0.2959  0.3582 -0.2156
  903TIP3    H1 2673   2.993   3.567   1.387  0.0183 -0.4912 -0.1140
  903TIP3    H2 2674   2.910   3.511   1.500 -1.6102  1.0096 -0.5250
  904TIP3   OH2 2675   2.328   2.968   2.380 -0.1834  0.4406 -0.7627
  904TIP3    H1 2676   2.422   2.951   2.390 -0.1545 -0.7948 -2.6963
  904TIP3    H2 2677   2.321   3.064   2.384  1.0221  0.5222  0.2335
  905TIP3   OH2 2678   1.024   5.297   2.834 -0.1791 -0.4719 -0.1780
  905TIP3    H1 2679   0.964   5.235   2.792  0.5886 -0.9252 -0.6309
  905TIP3    H2 2680   1.096   5.242   2.865  2.2316  0.4817 -3.5376
  906TIP3   OH2 2681   5.207   1.038   3.676  0.4151 -0.1547  0.1305
  906TIP3    H1 2682   5.232   0.961   3.726  0.6221 -0.0837  0.1378
  906TIP3    H2 2683   5.289   1.087   3.664  0.0810  0.7219  1.2485
  907TIP3   OH2 2684   6.231   4.118   4.296  0.3071  0.2460 -0.0571
  907TIP3    H1 2685   6.233   4.213   4.298 -0.6856  0.2929  2.3348
  907TIP3    H2 2686   6.186   4.096   4.214  0.6810  1.7974 -0.7015
  908TIP3   OH2 2687   6.670   3.834   5.498  0.1574 -0.4292  0.2473
  908TIP3    H1 2688   6.602   3.794   5.553 -0.9977  0.9913 -0.1003
  908TIP3    H2 2689   6.628   3.910   5.458  1.2341 -0.8996 -1.9282
  909TIP3   OH2 2690   6.738   5.477   3.656 -0.0036  0.1900  0.1215
  909TIP3    H1 2691   6.831   5.501   3.655  0.3527 -0.7805  2.6383
  909TIP3    H2 2692   6.712   5.488   3.747 -2.1039 -0.5722 -0.3433
  910TIP3   OH2 2693   1.207   5.970   0.037 -0.5090 -0.6400 -0.3219
  910TIP3    H1 2694   1.289   6.016   0.055  0.9238 -2.9497 -0.5329
  910TIP3    H2 2695   1.147   6.003   0.104  1.3994 -0.8187  1.6231
  911TIP3   OH2 2696   0.369   3.521   2.729  0.4841 -0.1110  0.0007
  911TIP3    H1 2697   0.290   3.494   2.777  0.2237  1.5213  0.5702
  911TIP3    H2 2698   0.389   3.447   2.672 -0.8265 -0.9976  0.6323
  912TIP3   OH2 2699   4.202   0.127   3.253  0.1966  0.0132  0.4124
  912TIP3    H1 2700   4.225   0.069   3.180 -0.0399  1.2095 -0.6634
  912TIP3    H2 2701   4.113   0.100   3.277  0.6014 -0.9733  0.8852
  913TIP3   OH2 2702   1.488   4.532   3.724 -0.0342 -0.5268  0.0267
  913TIP3    H1 2703   1.532   4.481   3.656 -1.1370 -0.9391 -0.4042
  913TIP3    H2 2704   1.521   4.496   3.806  2.8494  1.2930 -0.1984
  914TIP3   OH2 2705   1.256   3.882   0.932 -0.4185  0.0318  0.4759
  914TIP3    H1 2706   1.190   3.819   0.961  1.9735 -2.1397  1.6416
  914TIP3    H2 2707   1.301   3.907   1.013  0.0651  1.6113 -0.2548
  915TIP3   OH2 2708   6.899   1.719   0.250 -0.0407 -0.2710 -0.4492
  915TIP3    H1 2709   6.964   1.773   0.205 -0.8779  0.3294 -0.9719
  915TIP3    H2 2710   6.864   1.777   0.319 -1.1296 -0.0261 -1.1760
  916TIP3   OH2 2711   2.262   5.881   4.634 -0.2947  0.1169  0.5139
  916TIP3    H1 2712   2.247   5.842   4.548 -1.2528 -0.6272  1.0124
  916TIP3    H2 2713   2.321   5.955   4.616  0.1615 -0.5055 -0.6675
  917TIP3   OH2 2714   5.517   4.560   3.977 -0.5479 -0.1946 -0.1510
  917TIP3    H1 2715   5.519   4.589   4.068  1.4204 -2.3536  0.5991
  917TIP3    H2 2716   5.579   4.617   3.932  0.8545 -1.0774  0.5951
  918TIP3   OH2 2717   3.939   1.467   0.906  0.2392  0.1316 -0.2338
  918TIP3    H1 2718   4.028   1.466   0.869  0.3583 -1.0616  0.0478
  918TIP3    H2 2719   3.891   1.404   0.852  0.0629 -0.6207  0.7803
  919TIP3   OH2 2720   2.103   5.721   3.469 -0.2100 -0.1382 -0.2076
  919TIP3    H1 2721   2.183   5.760   3.504 -0.2909 -1.0129  1.0162
  919TIP3    H2 2722   2.062   5.678   3.545 -0.9253 -1.2180 -1.1695
  920TIP3   OH2 2723   0.490   2.578   1.544  0.0163  0.4371  0.0805
  920TIP3    H1 2724   0.554   2.549   1.479 -0.0702 -0.7787  0.5074
  920TIP3    H2 2725   0.411   2.527   1.525 -0.0409  0.1332  1.0569
  921TIP3   OH2 2726   6.489   3.424   5.450  0.3239 -0.2214 -0.1489
  921TIP3    H1 2727   6.514   3.464   5.367  0.1293  0.7020  0.2241
  921TIP3    H2 2728   6.393   3.426   5.449  0.3219  0.1152  0.2362
  922TIP3   OH2 2729   0.773   4.668   1.283  0.6181  0.1259  0.0243
  922TIP3    H1 2730   0.805   4.579   1.299  0.7747  0.1365 -0.2169
  922TIP3    H2 2731   0.850   4.716   1.254  0.4323  0.2089 -0.3437
  923TIP3   OH2 2732   0.042   3.070   3.130  0.3889  0.6562 -0.0091
  923TIP3    H1 2733   0.016   3.037   3.216  2.4762 -0.4968  0.2595
  923TIP3    H2 2734   0.025   3.164   3.133 -0.2125  0.5162  1.4008
  924TIP3   OH2 2735   2.269   3.563   5.493  0.0736  0.3942 -0.7202
  924TIP3    H1 2736   2.319   3.617   5.431  0.6342 -1.3497 -1.8734
  924TIP3    H2 2737   2.333   3.500   5.526  0.2093  2.2029  2.9507
  925TIP3   OH2 2738   5.485   6.059   3.750 -0.1489  0.2570 -0.3199
  925TIP3    H1 2739   5.391   6.079   3.754 -0.4740 -1.2751  0.3296
  925TIP3    H2 2740   5.495   6.008   3.669  0.0872  0.2138 -0.2652
  926TIP3   OH2 2741   6.846   5.183   3.652 -0.1139 -0.2087  0.1933
  926TIP3    H1 2742   6.840   5.268   3.611  0.9963  0.1752  0.7943
  926TIP3    H2 2743   6.777   5.184   3.718  2.0900  1.6847  2.6925
  927TIP3   OH2 2744   3.714   5.066   4.951 -0.0204 -0.2434  0.3789
  927TIP3    H1 2745   3.764   4.985   4.963 -0.8405 -0.8031  0.0843
  927TIP3    H2 2746   3.661   5.073   5.031 -0.9650 -0.7433 -0.1783
  928TIP3   OH2 2747   0.547   5.099   3.505 -0.2089  0.3819 -0.5742
  928TIP3    H1 2748   0.520   5.175   3.557 -1.4639 -0.5570  0.1861
  928TIP3    H2 2749   0.642   5.092   3.520 -0.2504  1.2030  0.1203
  929TIP3   OH2 2750   6.846   3.937   4.765 -0.3385  0.1532  0.6349
  929TIP3    H1 2751   6.796   3.887   4.830  0.8030  0.1475  1.5321
  929TIP3    H2 2752   6.905   3.873   4.726 -0.6155  0.2830 -0.0121
  930TIP3   OH2 2753   2.896   0.720   1.453  0.1291  0.2936 -0.1015
  930TIP3    H1 2754   2.820   0.702   1.398  0.7971 -0.1687 -0.8865
  930TIP3    H2 2755   2.887   0.812   1.476  0.2554  0.7205 -1.6502
  931TIP3   OH2 2756   6.700   0.471   5.362 -0.0123 -0.2654  0.1233
  931TIP3    H1 2757   6.619   0.421   5.354  0.4914 -0.9705 -0.7317
  931TIP3    H2 2758   6.712   0.510   5.276  0.9640 -0.8073  0.0055
  932TIP3   OH2 2759   0.303   1.070   5.305  0.1666 -0.8321 -0.1213
  932TIP3    H1 2760   0.365   1.118   5.360  1.2744 -0.3752 -1.6748
  932TIP3    H2 2761   0.317   0.978   5.328 -0.7951 -0.5788  1.6978
  933TIP3   OH2 2762   2.660   1.378   3.693 -0.0768 -0.3139  0.1744
  933TIP3    H1 2763   2.685   1.468   3.675  1.9391 -1.0208 -0.8416
  933TIP3    H2 2764   2.716   1.325   3.636 -0.8350 -2.2394  1.1075
  934TIP3   OH2 2765   3.583   2.631   2.774  0.4491 -0.4558  0.6883
  934TIP3    H1 2766   3.519   2.651   2.842  0.9734 -0.7607  1.2899
  934TIP3    H2 2767   3.569   2.697   2.707  0.4829  0.3852  1.4841
  935TIP3   OH2 2768   6.004   0.612   3.197 -0.3173  0.8885  0.4208
  935TIP3    H1 2769   6.084   0.664   3.201  0.3742 -0.2055  1.0267
  935TIP3    H2 2770   5.948   0.650   3.265 -0.7184  2.2625 -0.6242
  936TIP3   OH2 2771   5.327   3.456   5.685  0.0456 -0.2159  0.2574
  936TIP3    H1 2772   5.256   3.517   5.667  0.7090  0.3540 -0.5174
  936TIP3    H2 2773   5.326   3.445   5.780 -0.6952  0.2495  0.3110
  937TIP3   OH2 2774   1.417   6.394   4.153 -0.1002 -0.7567  0.5995
  937TIP3    H1 2775   1.405   6.388   4.248  0.9133  1.2487  0.8918
  937TIP3    H2 2776   1.484   6.460   4.142 -2.1817  1.1301 -1.6488
  938TIP3   OH2 2777   1.587   2.281   0.054  0.3631 -0.3143 -0.8163
  938TIP3    H1 2778   1.513   2.250   0.001 -1.7140  1.9708  0.5114
  938TIP3    H2 2779   1.608   2.207   0.111 -1.4550 -0.8227 -0.7140
  939TIP3   OH2 2780   0.421   2.840   0.016 -0.0156  0.5305  0.1803
  939TIP3    H1 2781   0.404   2.825   0.109 -1.1120 -0.0749 -0.0931
  939TIP3    H2 2782   0.489   2.907   0.014  1.7145 -1.0864  1.4342
  940TIP3   OH2 2783   3.119   1.063   3.507 -0.9524  0.2735 -0.7745
  940TIP3    H1 2784   3.052   0.994   3.512  1.5637 -2.6262 -2.8563
  940TIP3    H2 2785   3.106   1.102   3.421 -1.8849  1.9954  0.1032
  941TIP3   OH2 2786   0.689   6.103   3.501  0.7990 -0.4069  0.1004
  941TIP3    H1 2787   0.717   6.130   3.413  2.0523  3.0418  1.3689
  941TIP3    H2 2788   0.614   6.159   3.519  1.6894  0.3029  1.8397
  942TIP3   OH2 2789   7.190   0.735   3.343 -0.2810  0.2134  0.3059
  942TIP3    H1 2790   7.122   0.780   3.293 -0.3854 -0.3147 -0.0403
  942TIP3    H2 2791   7.236   0.681   3.279  0.4579  0.5465  0.5417
  943TIP3   OH2 2792   4.199   2.852   2.800 -0.0809 -0.0356  0.4073
  943TIP3    H1 2793   4.215   2.765   2.762  0.1383  0.6060 -1.0361
  943TIP3    H2 2794   4.232   2.913   2.734  1.5548  1.1487  2.2232
  944TIP3   OH2 2795   2.877   5.979   3.461  0.3933  0.3881  0.5592
  944TIP3    H1 2796   2.923   5.921   3.521 -0.6830  0.8932  1.9106
  944TIP3    H2 2797   2.786   5.978   3.491 -0.0347  1.2205 -0.6213
  945TIP3   OH2 2798   0.187   0.867   0.719 -0.2016 -0.0146 -0.3091
  945TIP3    H1 2799   0.231   0.782   0.724 -1.9894 -0.9940 -0.5480
  945TIP3    H2 2800   0.247   0.927   0.764  0.7246 -1.5534  0.6153
  946TIP3   OH2 2801   1.570   6.118   4.814  0.0926 -0.0395 -0.4087
  946TIP3    H1 2802   1.568   6.040   4.869  1.1296  0.1756 -0.0347
  946TIP3    H2 2803   1.647   6.107   4.758 -0.0191  0.4932 -0.6799
  947TIP3   OH2 2804   4.760   4.513   2.544 -0.5486  0.5127  0.4978
  947TIP3    H1 2805   4.769   4.607   2.528 -0.3979  0.5844  1.0153
  947TIP3    H2 2806   4.719   4.506   2.630  0.5408  0.0929  1.0091
  948TIP3   OH2 2807   1.981   2.752   2.929 -0.0883  0.2222  0.3919
  948TIP3    H1 2808   1.948   2.779   2.843  2.6542  0.8671 -0.5781
  948TIP3    H2 2809   1.997   2.658   2.920  3.9625  0.8632 -1.3933
  949TIP3   OH2 2810   0.066   0.935   3.987  0.2087  0.0160  0.1058
  949TIP3    H1 2811   0.150   0.932   3.942 -0.3436  0.6522 -1.0218
  949TIP3    H2 2812   0.021   0.856   3.957  0.1434  0.0302  0.1674
  950TIP3   OH2 2813   6.107   1.090   2.192 -0.1836 -0.0534 -0.6784
  950TIP3    H1 2814   6.033   1.070   2.249 -0.7396 -1.2454 -1.7751
  950TIP3    H2 2815   6.088   1.177   2.157 -0.4286  0.1766  0.0050
  951TIP3   OH2 2816   0.388   1.606   2.338 -0.3023 -0.1100  0.1613
  951TIP3    H1 2817   0.428   1.662   2.272  0.3116 -0.4065  0.2788
  951TIP3    H2 2818   0.442   1.527   2.339  0.7357  0.5656  2.2333
  952TIP3   OH2 2819   0.181   6.146   5.192 -0.1284 -0.8500  0.0439
  952TIP3    H1 2820   0.197   6.201   5.268 -1.0440 -1.2583  0.5476
  952TIP3    H2 2821   0.226   6.064   5.212  1.6507 -0.1653 -0.9184
  953TIP3   OH2 2822   6.520   5.090   4.962 -0.0622 -0.3121 -0.5307
  953TIP3    H1 2823   6.608   5.058   4.982  0.2987  1.6344  1.4929
  953TIP3    H2 2824   6.466   5.011   4.957  1.0550 -1.4173  2.4939
  954TIP3   OH2 2825   0.719   4.909   1.400 -0.4369  0.5908 -0.3575
  954TIP3    H1 2826   0.710   4.985   1.343 -0.4810  1.0616  0.2608
  954TIP3    H2 2827   0.690   4.835   1.347 -0.9967  1.0944 -0.7628
  955TIP3   OH2 2828   5.571   0.134   2.727  0.3924 -0.0824 -0.4599
  955TIP3    H1 2829   5.623   0.085   2.664  0.9068 -0.3986  0.2103
  955TIP3    H2 2830   5.600   0.104   2.812  0.5268  1.1847 -0.0342
  956TIP3   OH2 2831   6.632   2.542   0.160 -0.0877 -0.3942  0.9935
  956TIP3    H1 2832   6.672   2.609   0.215  1.7697 -0.0331 -0.6572
  956TIP3    H2 2833   6.656   2.459   0.201  2.1038 -0.1640  0.3010
  957TIP3   OH2 2834   6.586   2.487   4.567  0.0413  0.0528 -0.0963
  957TIP3    H1 2835   6.677   2.516   4.569 -0.2442  1.4267 -2.7617
  957TIP3    H2 2836   6.577   2.438   4.486 -1.1423 -2.0233  1.1792
  958TIP3   OH2 2837   3.163   5.961   0.318 -0.3393  0.2726 -0.0292
  958TIP3    H1 2838   3.232   6.027   0.321  1.6805 -1.6305 -1.7670
  958TIP3    H2 2839   3.092   6.004   0.270  0.1860  1.7511  0.4322
  959TIP3   OH2 2840   2.343   0.311   4.652 -0.3018 -0.3573  0.0978
  959TIP3    H1 2841   2.356   0.342   4.562  0.2095  0.6278  0.4881
  959TIP3    H2 2842   2.253   0.335   4.673 -0.2830 -0.1890 -0.0125
  960TIP3   OH2 2843   4.406   6.075   0.595 -0.6809 -0.0291  0.1707
  960TIP3    H1 2844   4.432   6.056   0.505 -1.2695  1.3184 -0.2999
  960TIP3    H2 2845   4.478   6.126   0.630 -0.4488 -0.5602  0.4798
  961TIP3   OH2 2846   5.233   2.732   1.551  0.6064  0.0762 -0.2338
  961TIP3    H1 2847   5.217   2.808   1.608 -0.6740 -0.8888  0.7569
  961TIP3    H2 2848   5.151   2.720   1.504  0.6493 -0.9493 -0.0607
  962TIP3   OH2 2849   2.979   2.529   1.518  0.0386  0.0250 -0.5844
  962TIP3    H1 2850   2.960   2.525   1.425 -0.2377 -2.6231 -0.4844
  962TIP3    H2 2851   3.074   2.542   1.522 -0.0640  1.1169 -1.1794
  963TIP3   OH2 2852   4.198   6.302   0.381  0.0406 -0.2891  0.1887
  963TIP3    H1 2853   4.209   6.339   0.468  0.8509 -0.3654  0.1265
  963TIP3    H2 2854   4.287   6.288   0.349 -0.2369  0.2161 -0.8544
  964TIP3   OH2 2855   1.749   0.908   1.070  0.5504  0.3974 -0.0162
  964TIP3    H1 2856   1.774   0.921   0.978  1.4780  1.5232  0.3750
  964TIP3    H2 2857   1.657   0.881   1.066  1.1235 -1.5810 -1.3756
  965TIP3   OH2 2858   1.970   6.679   3.355  0.2238 -0.0704 -0.2233
  965TIP3    H1 2859   1.902   6.716   3.299 -0.1696  0.6854  0.7256
  965TIP3    H2 2860   1.993   6.596   3.313 -0.9932 -0.1498 -0.7793
  966TIP3   OH2 2861   1.590   0.396   3.976  0.5334  0.4212 -0.0262
  966TIP3    H1 2862   1.551   0.477   3.945 -0.2125 -0.4974 -1.5953
  966TIP3    H2 2863   1.683   0.416   3.987  0.3747  1.4517 -0.5104
  967TIP3   OH2 2864   7.148   6.641   1.579  0.1570  0.2349  0.8561
  967TIP3    H1 2865   7.204   6.643   1.657  1.8622 -0.4349 -0.3015
  967TIP3    H2 2866   7.209   6.650   1.505 -1.5439  2.3038 -0.3882
  968TIP3   OH2 2867   3.852   4.735   2.104 -1.0172 -0.2424 -0.3128
  968TIP3    H1 2868   3.757   4.746   2.110 -0.9206  0.2371  0.6448
  968TIP3    H2 2869   3.887   4.823   2.121 -0.3740 -0.6925  0.8107
  969TIP3   OH2 2870   6.120   5.648   2.188  0.4333  0.8039 -0.3438
  969TIP3    H1 2871   6.061   5.648   2.263 -0.1152 -0.3439 -0.7562
  969TIP3    H2 2872   6.105   5.564   2.145  2.4913  0.3798 -0.3700
  970TIP3   OH2 2873   0.188   3.034   0.676  0.2507 -0.0223  0.3612
  970TIP3    H1 2874   0.218   2.956   0.722  2.8893  0.4445 -0.3655
  970TIP3    H2 2875   0.210   3.106   0.735  1.1334  0.3818 -0.4278
  971TIP3   OH2 2876   3.796   0.405   2.123 -0.1584 -0.4175 -0.5307
  971TIP3    H1 2877   3.764   0.404   2.214  1.6871  0.1247  0.1580
  971TIP3    H2 2878   3.748   0.477   2.082 -0.8257 -0.4993  0.0723
  972TIP3   OH2 2879   6.871   4.041   4.376  0.0861  0.1620  0.4246
  972TIP3    H1 2880   6.823   4.121   4.353 -2.5359 -1.3409  0.3115
  972TIP3    H2 2881   6.817   3.999   4.443  1.5619 -1.4022  0.7109
  973TIP3   OH2 2882   4.312   6.296   1.613 -0.0119  0.5101  0.0256
  973TIP3    H1 2883   4.360   6.227   1.567 -0.1243  0.0122  0.6445
  973TIP3    H2 2884   4.307   6.265   1.704 -3.4900 -0.5601 -0.3843
  974TIP3   OH2 2885   2.870   0.101   1.287  0.0298 -0.3557 -0.1878
  974TIP3    H1 2886   2.904   0.179   1.242 -0.3492 -0.1155 -0.0650
  974TIP3    H2 2887   2.946   0.062   1.329 -0.1829  1.6195  2.2827
  975TIP3   OH2 2888   3.698   1.606   1.011 -0.4940 -0.2192  0.1810
  975TIP3    H1 2889   3.741   1.532   0.968 -0.1007  0.4073 -0.5094
  975TIP3    H2 2890   3.663   1.569   1.092 -0.7722 -1.2901 -0.4084
  976TIP3   OH2 2891   4.299   3.928   0.461  0.3752  0.6366  0.5025
  976TIP3    H1 2892   4.367   3.989   0.488 -0.3432  1.5734  0.2692
  976TIP3    H2 2893   4.263   3.967   0.381 -0.3103  0.0709  0.5289
  977TIP3   OH2 2894   4.407   0.483   2.628 -0.4527 -0.3945  0.0167
  977TIP3    H1 2895   4.418   0.389   2.645  0.5752 -0.3172 -0.1378
  977TIP3    H2 2896   4.468   0.501   2.556  2.0633  1.0452  2.3102
  978TIP3   OH2 2897   6.070   4.309   0.004 -0.6677  0.5804  0.2025
  978TIP3    H1 2898   6.135   4.254  -0.040 -1.7987 -0.0497 -0.7238
  978TIP3    H2 2899   6.088   4.297   0.098  1.0404  1.0580 -0.0359
  979TIP3   OH2 2900   4.242   1.581   5.651 -0.4577 -0.3648 -0.5062
  979TIP3    H1 2901   4.272   1.672   5.647 -0.9529 -0.2434 -2.2445
  979TIP3    H2 2902   4.304   1.533   5.596 -0.3929 -1.0415  0.1409
  980TIP3   OH2 2903   4.661   5.918   1.131 -0.0597 -0.2322  0.1844
  980TIP3    H1 2904   4.675   6.010   1.111 -0.3846 -0.3123 -0.4178
  980TIP3    H2 2905   4.677   5.872   1.049  0.1530 -0.7235  0.4927
  981TIP3   OH2 2906   6.626   4.609   5.658 -0.3405  0.1641  0.0273
  981TIP3    H1 2907   6.587   4.693   5.683 -0.3342  0.7280 -1.6970
  981TIP3    H2 2908   6.708   4.606   5.706  0.7728  2.2753 -1.5671
  982TIP3   OH2 2909   1.108   4.324   2.501  0.5730 -0.7609 -0.0046
  982TIP3    H1 2910   1.074   4.381   2.570 -1.8618 -3.2867  1.1045
  982TIP3    H2 2911   1.054   4.345   2.425  1.4904  0.2043 -0.4112
  983TIP3   OH2 2912   4.296   0.625   4.218  0.0964  0.1938 -0.3127
  983TIP3    H1 2913   4.369   0.688   4.218 -0.9279  1.5006 -2.7982
  983TIP3    H2 2914   4.218   0.679   4.226 -0.7607 -0.8521 -1.3726
  984TIP3   OH2 2915   0.730   0.785   5.600 -0.2131 -0.6079  0.2828
  984TIP3    H1 2916   0.786   0.731   5.655  0.2064  0.1644  0.6429
  984TIP3    H2 2917   0.776   0.790   5.516 -0.6361 -1.4285 -0.0062
  985TIP3   OH2 2918   4.199   1.295   4.983 -0.2893  0.0625 -0.1799
  985TIP3    H1 2919   4.190   1.381   5.024  2.3815 -0.3561  1.5701
  985TIP3    H2 2920   4.224   1.313   4.893 -0.1355  1.1430  0.0676
  986TIP3   OH2 2921   7.114   0.609   4.746 -0.0909 -0.0333 -0.1123
  986TIP3    H1 2922   7.029   0.627   4.786  0.2970  0.2404  0.6174
  986TIP3    H2 2923   7.126   0.515   4.755 -0.0719  0.0052  0.3016
  987TIP3   OH2 2924   0.694   4.509   1.063  0.2347  0.1342 -0.0308
  987TIP3    H1 2925   0.723   4.570   1.131  1.8751  0.2156 -0.7512
  987TIP3    H2 2926   0.743   4.429   1.079 -0.3188 -0.2843 -0.3688
  988TIP3   OH2 2927   5.026   3.830   3.494 -0.3925 -0.2625 -0.0276
  988TIP3    H1 2928   4.967   3.829   3.569 -1.1484 -0.5582 -0.6112
  988TIP3    H2 2929   4.972   3.861   3.421 -0.0456 -1.2745 -0.7391
  989TIP3   OH2 2930   4.984   2.636   3.562 -0.8991 -0.1305  0.5596
  989TIP3    H1 2931   5.041   2.689   3.617  1.0201 -2.1759  0.6490
  989TIP3    H2 2932   4.943   2.574   3.621  0.3320 -1.6262 -0.0946
  990TIP3   OH2 2933   2.201   2.431   4.164 -0.0007  0.1654 -0.1052
  990TIP3    H1 2934   2.259   2.361   4.195  2.4620  2.0388 -0.0775
  990TIP3    H2 2935   2.195   2.491   4.238  1.7795  2.1827 -1.4525
  991TIP3   OH2 2936   0.926   4.330   5.764  0.3760  0.2508 -0.3037
  991TIP3    H1 2937   0.851   4.386   5.782 -0.7292 -1.2300 -0.1318
  991TIP3    H2 2938   0.913   4.300   5.674  1.0121  0.3329 -0.4317
  992TIP3   OH2 2939   1.252   3.504   4.814  0.2203  0.1755  0.4564
  992TIP3    H1 2940   1.306   3.443   4.764  1.0722  1.5086 -0.2986
  992TIP3    H2 2941   1.312   3.543   4.877 -0.2863  0.3781  0.8265
  993TIP3   OH2 2942   0.499   0.227   4.024 -0.1237  0.4488 -0.0349
  993TIP3    H1 2943   0.539   0.313   4.011 -0.9603  0.9824  0.8075
  993TIP3    H2 2944   0.420   0.245   4.075  0.2810 -0.9434  1.1470
  994TIP3   OH2 2945  -0.017   2.500   0.854 -0.4598 -0.4540  0.0853
  994TIP3    H1 2946   0.051   2.499   0.786 -1.3916 -1.3744 -0.8839
  994TIP3    H2 2947  -0.021   2.591   0.882 -0.7993  0.1949 -1.8909
  995TIP3   OH2 2948   2.374   2.494   2.869  0.1167  0.0638 -0.2361
  995TIP3    H1 2949   2.360   2.588   2.877  0.8652  0.1494  0.1800
  995TIP3    H2 2950   2.468   2.485   2.850  0.2443 -0.6456  0.6791
  996TIP3   OH2 2951   5.079   1.103   0.404 -0.6463 -0.6058 -0.4620
  996TIP3    H1 2952   5.155   1.140   0.359 -0.2111 -0.9567 -0.0264
  996TIP3    H2 2953   5.111   1.020   0.440 -0.0108  1.0346  3.2117
  997TIP3   OH2 2954   6.978   4.618   3.802 -0.0886  0.0961  0.3142
  997TIP3    H1 2955   7.060   4.656   3.768 -0.4413  1.2160  0.6699
  997TIP3    H2 2956   6.916   4.691   3.799 -1.1143 -0.7777 -0.0621
  998TIP3   OH2 2957   3.451   1.386   4.933  0.6924 -0.2603  0.1456
  998TIP3    H1 2958   3.472   1.293   4.930  1.1582 -0.1472 -0.2596
  998TIP3    H2 2959   3.355   1.390   4.931  0.6811 -0.7195 -0.2060
  999TIP3   OH2 2960   0.500   6.090   1.798 -0.0050 -0.2726 -0.1577
  999TIP3    H1 2961   0.455   6.130   1.723 -0.4186 -0.8394 -0.2160
  999TIP3    H2 2962   0.443   6.109   1.872 -0.1924 -0.7269 -0.1821
 1000TIP3   OH2 2963   4.357   3.088   2.018  0.3945 -0.2977 -0.6406
 1000TIP3    H1 2964   4.266   3.076   1.993  0.8518 -1.1395 -2.0100
 1000TIP3    H2 2965   4.358   3.170   2.068 -0.9657  0.1913 -1.3692
 1001TIP3   OH2 2966   4.905   3.951   0.111  0.5663 -0.2310  0.3873
 1001TIP3    H1 2967   4.812   3.931   0.118  0.7392 -1.3609 -0.2339
 1001TIP3    H2 2968   4.909   4.032   0.060 -0.0735 -0.1430  0.4731
 1002TIP3   OH2 2969   5.295  -0.008   4.699  0.1577  0.1131  1.0136
 1002TIP3    H1 2970   5.325   0.080   4.677 -1.3851  0.3106 -0.4572
 1002TIP3    H2 2971   5.374  -0.062   4.694  0.8703  1.1609  0.5231
 1003TIP3   OH2 2972   4.355   0.725   5.803 -0.5507  0.5302  0.7181
 1003TIP3    H1 2973   4.407   0.665   5.749 -1.5478  0.7386 -0.4989
 1003TIP3    H2 2974   4.370   0.695   5.893  1.3682  0.3567  0.3932
 1004TIP3   OH2 2975   3.867   4.416   0.205 -0.0886  0.3693 -0.1266
 1004TIP3    H1 2976   3.777   4.408   0.238 -0.5746 -0.4760 -1.5917
 1004TIP3    H2 2977   3.860   4.476   0.132  0.5084  0.1477 -0.3664
 1005TIP3   OH2 2978   3.995   3.966   3.022 -0.3781  0.1569  0.0837
 1005TIP3    H1 2979   4.068   3.905   3.021  0.0747  0.6911  0.1142
 1005TIP3    H2 2980   3.964   3.967   2.931 -2.1906 -2.2197  0.5894
 1006TIP3   OH2 2981   3.441   5.274   5.288  0.0090 -0.1967  0.3064
 1006TIP3    H1 2982   3.351   5.251   5.268  0.6356  0.0349 -3.4597
 1006TIP3    H2 2983   3.451   5.364   5.257  0.9380  0.7550  3.0679
 1007TIP3   OH2 2984   6.091   4.615   3.155 -0.4893  0.5708  0.1416
 1007TIP3    H1 2985   6.092   4.586   3.246 -2.2963 -0.8076 -0.2245
 1007TIP3    H2 2986   6.129   4.542   3.106 -1.9145  0.1937 -0.4460
 1008TIP3   OH2 2987   3.854   0.813   5.726  0.5807  0.5266 -0.5023
 1008TIP3    H1 2988   3.897   0.735   5.690  0.2300  0.2167 -0.2663
 1008TIP3    H2 2989   3.818   0.857   5.649  1.7268  1.0542 -0.7549
 1009TIP3   OH2 2990   6.723   6.410   5.754 -0.0032 -0.6249  0.0243
 1009TIP3    H1 2991   6.734   6.338   5.692 -0.5178 -0.8361  0.1747
 1009TIP3    H2 2992   6.786   6.391   5.824  0.7860 -0.2312 -0.5660
 1010TIP3   OH2 2993   1.747   2.814   5.113 -0.6330 -0.4836  0.8306
 1010TIP3    H1 2994   1.670   2.793   5.061 -0.8451  0.5978  0.6691
 1010TIP3    H2 2995   1.817   2.759   5.077 -0.8157  0.1171 -0.4999
 1011TIP3   OH2 2996   5.276   0.564   1.767  0.6343 -0.2743  0.4327
 1011TIP3    H1 2997   5.230   0.643   1.737 -1.0091 -0.8401  1.3298
 1011TIP3    H2 2998   5.344   0.597   1.826 -0.1701  0.4632  0.9641
 1012TIP3   OH2 2999   5.339   3.453   1.561  0.8494 -0.0676  0.9058
 1012TIP3    H1 3000   5.361   3.506   1.484  0.1518  0.0622  0.7909
 1012TIP3    H2 3001   5.245   3.441   1.556  0.9563 -1.0563  1.1112
 1013TIP3   OH2 3002   2.316   4.335   5.384  0.1757  0.1928 -0.2593
 1013TIP3    H1 3003   2.289   4.252   5.345  0.8887  1.0749 -2.8479
 1013TIP3    H2 3004   2.393   4.314   5.435  0.8875 -0.6546 -1.6086
 1014TIP3   OH2 3005   0.324   6.232   1.656  0.2122  0.1664 -0.1768
 1014TIP3    H1 3006   0.267   6.156   1.642  0.0397  0.2343  0.1473
 1014TIP3    H2 3007   0.275   6.287   1.717 -0.0274  0.9279 -1.0503
 1015TIP3   OH2 3008   1.244   3.033   2.855  0.1496 -0.0465 -0.2958
 1015TIP3    H1 3009   1.293   3.014   2.775 -1.7501 -1.3084 -1.2416
 1015TIP3    H2 3010   1.218   2.947   2.889 -2.4930  0.5370 -0.6065
 1016TIP3   OH2 3011   1.890   4.858   4.636 -0.3421 -0.0942 -0.1858
 1016TIP3    H1 3012   1.895   4.884   4.728 -0.7557  2.7974 -0.8810
 1016TIP3    H2 3013   1.799   4.873   4.612 -0.3551 -1.2907 -0.9815
 1017TIP3   OH2 3014   2.488   2.983   1.633 -0.1378 -0.3109 -0.5068
 1017TIP3    H1 3015   2.529   2.928   1.567  0.1167  1.5190 -1.9764
 1017TIP3    H2 3016   2.401   2.947   1.645  0.0506 -1.0683 -1.3637
 1018TIP3   OH2 3017   3.713   5.466   5.296 -0.1508 -0.1561 -0.4255
 1018TIP3    H1 3018   3.768   5.490   5.222  2.4323 -0.2279  1.3159
 1018TIP3    H2 3019   3.735   5.375   5.315  0.0505  0.1644  1.0289
 1019TIP3   OH2 3020   0.232   6.549   5.177  0.1946  0.0953  0.3306
 1019TIP3    H1 3021   0.172   6.487   5.220 -0.9703 -0.3013 -1.7244
 1019TIP3    H2 3022   0.282   6.587   5.249 -1.1691 -1.0118  1.9640
 1020TIP3   OH2 3023   4.793   6.176   4.860 -0.1560  0.6438 -0.3121
 1020TIP3    H1 3024   4.819   6.262   4.826  1.2984  0.5857  0.5588
 1020TIP3    H2 3025   4.754   6.195   4.945  2.1460  0.3475  0.8928
 1021TIP3   OH2 3026   3.425   0.500   1.730  0.0141 -0.1552 -0.2308
 1021TIP3    H1 3027   3.391   0.430   1.786  1.2530 -0.2624  0.4095
 1021TIP3    H2 3028   3.382   0.486   1.645  0.1642 -1.6185 -0.0822
 1022TIP3   OH2 3029   3.061   6.805   4.077 -0.1006 -0.4998 -0.1433
 1022TIP3    H1 3030   2.997   6.810   4.006  1.0496 -1.0484 -1.2597
 1022TIP3    H2 3031   3.019   6.750   4.143 -0.8995 -0.6063 -0.7198
 1023TIP3   OH2 3032   0.747   2.026   1.255 -0.2910 -0.0684  0.2940
 1023TIP3    H1 3033   0.766   2.117   1.231 -1.4610  0.1933  0.3360
 1023TIP3    H2 3034   0.732   1.982   1.172 -0.6971  0.0020  0.3293
 1024TIP3   OH2 3035   2.026   3.476   2.696 -0.3001 -0.3739  0.4870
 1024TIP3    H1 3036   2.045   3.405   2.757  1.1956 -0.7902 -0.4061
 1024TIP3    H2 3037   1.980   3.541   2.748 -0.9328 -1.6144  1.5370
 1025TIP3   OH2 3038   2.621   4.368   4.448 -0.4396 -0.0239  0.5172
 1025TIP3    H1 3039   2.619   4.338   4.357  3.2536  1.2510 -0.1609
 1025TIP3    H2 3040   2.636   4.288   4.499  1.3331 -0.3700 -0.4582
 1026TIP3   OH2 3041   6.887   3.767   1.311  0.1724  0.0007  0.3245
 1026TIP3    H1 3042   6.820   3.751   1.245  0.5708 -1.0405  0.1596
 1026TIP3    H2 3043   6.894   3.863   1.315 -1.1757  0.1213  0.2070
 1027TIP3   OH2 3044   6.577   1.796   5.597 -0.1324  1.0248  0.1660
 1027TIP3    H1 3045   6.618   1.858   5.536 -0.3208  0.0469 -1.0069
 1027TIP3    H2 3046   6.650   1.758   5.646  0.0783  1.4482  0.1825
 1028TIP3   OH2 3047   4.065   4.232   0.137 -0.0460 -0.3628  0.1077
 1028TIP3    H1 3048   3.989   4.287   0.121  0.5750  0.4785  0.0071
 1028TIP3    H2 3049   4.088   4.247   0.229  0.5000  0.0328 -0.0873
 1029TIP3   OH2 3050   3.205   5.052   0.001  0.2523  0.0570 -0.3252
 1029TIP3    H1 3051   3.268   5.124  -0.004 -0.5626  0.8897  0.8305
 1029TIP3    H2 3052   3.180   5.049   0.093  0.2377 -1.7087 -0.3602
 1030TIP3   OH2 3053   5.034  -0.006   4.252  0.0256  0.0328  0.1296
 1030TIP3    H1 3054   4.983   0.059   4.301  0.6822  0.4612  0.2605
 1030TIP3    H2 3055   4.985  -0.019   4.171 -0.1003  0.7194  0.0908
 1031TIP3   OH2 3056   0.582   3.231   4.644 -0.1045 -0.1830  0.7699
 1031TIP3    H1 3057   0.625   3.177   4.711  0.6441 -0.7042 -0.1021
 1031TIP3    H2 3058   0.653   3.283   4.606 -0.4074 -0.3182 -0.0069
 1032TIP3   OH2 3059   6.598   0.555   3.720 -0.3235  0.5474 -0.4064
 1032TIP3    H1 3060   6.610   0.561   3.814  1.0276  0.0661 -0.5259
 1032TIP3    H2 3061   6.509   0.522   3.709 -0.4955  0.6178  0.6881
 1033TIP3   OH2 3062   1.336   6.041   4.446  0.1018  0.1513 -0.2119
 1033TIP3    H1 3063   1.416   6.044   4.499  0.7881 -0.9556 -1.1571
 1033TIP3    H2 3064   1.366   6.050   4.356 -0.9337  0.6104 -0.5247
 1034TIP3   OH2 3065   3.591   6.431   3.078  0.2956  0.1816  0.6976
 1034TIP3    H1 3066   3.519   6.493   3.094  0.1612 -0.1365  1.3451
 1034TIP3    H2 3067   3.595   6.424   2.982 -0.7748 -0.0609  0.6576
 1035TIP3   OH2 3068   5.696   4.195   1.447  0.3198 -0.1345 -0.0717
 1035TIP3    H1 3069   5.750   4.220   1.522 -0.0523 -3.0934  1.3525
 1035TIP3    H2 3070   5.615   4.161   1.487 -0.9154  0.4640 -1.9552
 1036TIP3   OH2 3071   5.232   6.245   1.447  0.4555 -0.5974 -0.4823
 1036TIP3    H1 3072   5.145   6.241   1.407  0.4098  0.1053 -0.4650
 1036TIP3    H2 3073   5.266   6.331   1.423  0.7829 -0.5111  0.2508
 1037TIP3   OH2 3074   2.001   2.622   2.078 -0.2010  0.6409  0.2803
 1037TIP3    H1 3075   2.000   2.550   2.016 -0.4856 -1.0051  2.0865
 1037TIP3    H2 3076   2.059   2.687   2.038 -0.2876 -0.3798 -1.6196
 1038TIP3   OH2 3077   2.469   3.267   4.026  0.7420  0.2133 -0.0404
 1038TIP3    H1 3078   2.499   3.358   4.025  1.2472  0.0591 -1.2750
 1038TIP3    H2 3079   2.393   3.267   3.967  0.1184  0.0240  0.7560
 1039TIP3   OH2 3080   6.777   4.706   1.087 -0.5177 -0.2952  0.0857
 1039TIP3    H1 3081   6.714   4.710   1.015  0.8554 -0.5444 -1.1603
 1039TIP3    H2 3082   6.732   4.655   1.155 -0.6668 -2.9412 -1.8499
 1040TIP3   OH2 3083  -0.008   0.175   4.760  0.2559 -0.0729 -0.0593
 1040TIP3    H1 3084   0.079   0.137   4.775 -0.5235 -1.2184  2.0868
 1040TIP3    H2 3085  -0.008   0.256   4.811 -0.3348 -0.7766  1.1169
 1041TIP3   OH2 3086   1.768   0.454   0.426  0.2579  0.1552  0.0563
 1041TIP3    H1 3087   1.736   0.464   0.516  1.4417 -0.3964  0.5623
 1041TIP3    H2 3088   1.695   0.483   0.372 -0.4754  0.5306  1.1917
 1042TIP3   OH2 3089   4.510   2.705   3.156  0.4184  0.3247  0.3032
 1042TIP3    H1 3090   4.479   2.626   3.112 -0.2356  0.3895  0.6410
 1042TIP3    H2 3091   4.585   2.676   3.209 -0.3307 -0.2261  1.0714
 1043TIP3   OH2 3092   1.232   0.899   1.185 -0.1567  0.5188 -0.4927
 1043TIP3    H1 3093   1.185   0.825   1.147 -1.6127  0.8020  0.6628
 1043TIP3    H2 3094   1.164   0.950   1.230  1.3009  0.6788  1.6678
 1044TIP3   OH2 3095   5.800   4.874   5.546  0.2729  0.4327 -0.1882
 1044TIP3    H1 3096   5.840   4.795   5.583  0.2760 -0.3510 -1.8122
 1044TIP3    H2 3097   5.865   4.943   5.561  0.7280 -0.0907  0.2985
 1045TIP3   OH2 3098   2.214   6.679   0.048 -0.4388  0.2830 -0.1433
 1045TIP3    H1 3099   2.241   6.767   0.075 -0.6500  0.2469  0.1962
 1045TIP3    H2 3100   2.146   6.694  -0.017  0.1154  0.3720 -0.7132
 1046TIP3   OH2 3101   6.236   0.573   2.525  0.4802  0.0300  0.3545
 1046TIP3    H1 3102   6.250   0.524   2.605  0.2588  0.2686  0.5396
 1046TIP3    H2 3103   6.315   0.626   2.515  0.3887  0.2068  0.5633
 1047TIP3   OH2 3104   6.328   5.451   0.693 -0.0949  0.2125  0.1073
 1047TIP3    H1 3105   6.304   5.358   0.696  1.1051 -0.1379 -0.6128
 1047TIP3    H2 3106   6.383   5.464   0.771  0.1585  0.1877 -0.0654
 1048TIP3   OH2 3107   5.207   4.178   2.255  0.1045  0.2015  0.2557
 1048TIP3    H1 3108   5.113   4.171   2.274  0.5790 -0.3409  2.6706
 1048TIP3    H2 3109   5.238   4.088   2.258  0.5723  0.2662 -1.5711
 1049TIP3   OH2 3110   0.262   3.244   1.329 -0.1832  0.1443 -0.4169
 1049TIP3    H1 3111   0.188   3.201   1.372  1.2439  0.5744  2.7141
 1049TIP3    H2 3112   0.229   3.330   1.303 -0.8801  0.2081  0.6468
 1050TIP3   OH2 3113   3.366   0.157   2.107 -0.0361  0.2462 -0.2809
 1050TIP3    H1 3114   3.311   0.105   2.166  1.0761 -1.9437 -1.0782
 1050TIP3    H2 3115   3.403   0.225   2.163 -2.7835  1.2845  0.4702
 1051TIP3   OH2 3116   1.739   5.917   5.757  0.2029  0.0056  0.2450
 1051TIP3    H1 3117   1.777   5.834   5.730  2.3564  0.6831  1.0252
 1051TIP3    H2 3118   1.780   5.936   5.841 -2.2219  0.6133  1.3752
 1052TIP3   OH2 3119   0.990   1.840   1.145  0.3791 -0.2758  0.0519
 1052TIP3    H1 3120   0.996   1.746   1.161 -2.3384 -0.4896  0.1739
 1052TIP3    H2 3121   0.899   1.855   1.121  1.4096  1.8768 -3.1871
 1053TIP3   OH2 3122   0.588   5.175   2.674  0.0396 -0.0964 -0.5001
 1053TIP3    H1 3123   0.571   5.239   2.743  2.9441 -0.1979  0.4751
 1053TIP3    H2 3124   0.517   5.187   2.612 -0.4308  2.9633  0.4415
 1054TIP3   OH2 3125   4.485   2.690   0.145  0.4637 -0.2969  0.1810
 1054TIP3    H1 3126   4.575   2.665   0.124  0.2208 -2.0950  1.1456
 1054TIP3    H2 3127   4.444   2.610   0.178 -2.1902 -0.1323 -2.3189
 1055TIP3   OH2 3128   5.568   5.699   2.884 -0.1325 -0.3310  0.2392
 1055TIP3    H1 3129   5.584   5.768   2.819  1.3358 -1.1012 -0.2792
 1055TIP3    H2 3130   5.572   5.744   2.968 -2.4356  0.7566 -0.1448
 1056TIP3   OH2 3131   1.270   4.669   2.379  1.1563  0.0374  0.1538
 1056TIP3    H1 3132   1.320   4.608   2.433  1.8858  1.1996  0.8558
 1056TIP3    H2 3133   1.223   4.614   2.317 -0.2814 -1.4057  2.4069
 1057TIP3   OH2 3134   6.454   1.349   4.081  0.6999 -0.0552  0.3101
 1057TIP3    H1 3135   6.466   1.432   4.126  1.2521  0.5992 -0.9775
 1057TIP3    H2 3136   6.362   1.350   4.053  0.3236 -0.5196  1.4885
 1058TIP3   OH2 3137   0.494   0.487   2.307 -0.1748  0.3917  0.0656
 1058TIP3    H1 3138   0.418   0.482   2.249  0.6033 -0.4897 -0.9247
 1058TIP3    H2 3139   0.460   0.468   2.394 -1.2622  1.0651 -0.1936
 1059TIP3   OH2 3140   2.230   5.075   5.298  0.0768 -0.0175  0.4766
 1059TIP3    H1 3141   2.298   5.065   5.230 -1.4271 -0.0808 -1.0972
 1059TIP3    H2 3142   2.199   4.986   5.314 -0.1762  0.0924  0.6034
 1060TIP3   OH2 3143   4.188   0.374   3.668  0.3695  0.3968 -0.0632
 1060TIP3    H1 3144   4.260   0.436   3.670 -0.7997  1.8244 -0.1367
 1060TIP3    H2 3145   4.211   0.312   3.598  2.6449 -0.7019  1.5348
 1061TIP3   OH2 3146   5.753   3.177   5.096  0.1853  0.1043 -0.5920
 1061TIP3    H1 3147   5.673   3.157   5.144  0.1667 -0.8535 -0.9979
 1061TIP3    H2 3148   5.795   3.092   5.083  0.5439  0.4245 -1.6442
 1062TIP3   OH2 3149   3.655   3.414   1.949 -0.5585  0.2340  0.0070
 1062TIP3    H1 3150   3.713   3.419   2.025 -2.2547  1.7148  1.2846
 1062TIP3    H2 3151   3.613   3.328   1.957 -0.0147 -0.0226  0.1667
 1063TIP3   OH2 3152   5.447   3.214   0.412 -0.2388 -0.1613  0.0648
 1063TIP3    H1 3153   5.438   3.140   0.471  0.4820 -0.4196 -0.1328
 1063TIP3    H2 3154   5.507   3.183   0.344 -2.7850 -0.6836 -2.1192
 1064TIP3   OH2 3155   5.701   6.532   4.083  0.5823  0.4311  0.5197
 1064TIP3    H1 3156   5.787   6.556   4.117  0.6655 -1.6430  1.9679
 1064TIP3    H2 3157   5.718   6.497   3.995  1.1348  0.4783  0.6088
 1065TIP3   OH2 3158   4.627   4.709   4.455  0.3153  0.6619 -0.2504
 1065TIP3    H1 3159   4.588   4.748   4.533 -0.6865  0.6047 -0.7107
 1065TIP3    H2 3160   4.712   4.752   4.447 -0.1219  1.6240  0.1264
 1066TIP3   OH2 3161   5.566   6.355   4.670 -0.4323 -0.0006  0.4837
 1066TIP3    H1 3162   5.617   6.403   4.736  0.8080 -1.0039  0.2836
 1066TIP3    H2 3163   5.527   6.282   4.719 -2.0214  0.9605  0.7119
 1067TIP3   OH2 3164   0.386   3.986   2.764 -0.0464  0.2627 -0.8824
 1067TIP3    H1 3165   0.436   4.037   2.828 -0.1325  1.5842 -1.8452
 1067TIP3    H2 3166   0.396   4.033   2.682 -0.9147 -0.7646 -1.6068
 1068TIP3   OH2 3167   4.611   5.972   3.928  0.4182  0.1133 -0.1871
 1068TIP3    H1 3168   4.588   6.033   3.858 -1.0513 -1.2388 -0.9602
 1068TIP3    H2 3169   4.546   5.901   3.920  1.2429 -0.8979  1.4949
 1069TIP3   OH2 3170   4.365   3.855   2.796  0.8034  0.3689 -0.1891
 1069TIP3    H1 3171   4.397   3.943   2.815 -2.3514  1.5777  0.1722
 1069TIP3    H2 3172   4.339   3.820   2.881 -0.3801  0.1464 -0.6236
 1070TIP3   OH2 3173   0.245   4.867   2.282 -0.2451 -0.5966 -0.0394
 1070TIP3    H1 3174   0.334   4.890   2.256 -0.3177 -1.1027 -0.7669
 1070TIP3    H2 3175   0.227   4.784   2.238 -1.8355  0.5231 -1.6368
 1071TIP3   OH2 3176   3.225   6.643   1.963 -0.2643  0.0913  0.3028
 1071TIP3    H1 3177   3.137   6.640   1.927  0.3418 -1.0769 -1.1964
 1071TIP3    H2 3178   3.245   6.552   1.986  0.0236  0.5492  2.0712
 1072TIP3   OH2 3179   6.073   1.461   1.701 -0.7111  0.1058  0.1822
 1072TIP3    H1 3180   6.057   1.370   1.676  0.4578 -0.2464  0.6532
 1072TIP3    H2 3181   6.007   1.511   1.654 -0.3643 -0.8226 -1.3602
 1073TIP3   OH2 3182   5.123   0.414   4.227 -0.3335 -0.1628  0.0348
 1073TIP3    H1 3183   5.078   0.492   4.258  0.5285  0.3767 -0.0401
 1073TIP3    H2 3184   5.202   0.409   4.281 -0.9435 -1.6443  0.8389
 1074TIP3   OH2 3185   5.998   5.520   0.203  0.0100  0.2861  0.2459
 1074TIP3    H1 3186   6.073   5.476   0.242  0.4500 -0.4591 -1.3565
 1074TIP3    H2 3187   6.030   5.607   0.181  0.1045  0.3053  0.4505
 1075TIP3   OH2 3188   3.225   2.028   4.521 -1.0011 -0.1759 -0.0084
 1075TIP3    H1 3189   3.305   1.976   4.532  0.2996  1.3663 -1.6934
 1075TIP3    H2 3190   3.220   2.081   4.601  0.7477  1.0608 -0.6565
 1076TIP3   OH2 3191   6.566   5.081   0.451 -0.1799 -0.2566 -0.0684
 1076TIP3    H1 3192   6.487   5.106   0.402 -0.0895  0.1316 -0.0203
 1076TIP3    H2 3193   6.611   5.019   0.395  0.1066  0.4581 -0.6313
 1077TIP3   OH2 3194   6.212   1.812   1.599  0.2295 -0.0074  0.2443
 1077TIP3    H1 3195   6.212   1.797   1.504 -0.3557  0.2854  0.1878
 1077TIP3    H2 3196   6.271   1.746   1.634  0.5881 -0.0044 -0.3442
 1078TIP3   OH2 3197   0.202   4.119   5.539 -0.2041 -0.5357  0.2605
 1078TIP3    H1 3198   0.257   4.097   5.614  0.3924  0.2957  0.0844
 1078TIP3    H2 3199   0.163   4.203   5.562  0.6359  0.1404 -0.6840
 1079TIP3   OH2 3200   1.878   4.460   1.818  0.1888  0.7189 -0.3280
 1079TIP3    H1 3201   1.835   4.479   1.901  0.4502  1.6452 -0.3972
 1079TIP3    H2 3202   1.919   4.543   1.793  0.5641  0.3005 -1.1106
 1080TIP3   OH2 3203   3.665   4.666   1.257 -0.0787  0.1002  0.2745
 1080TIP3    H1 3204   3.693   4.713   1.336  0.2546  0.8198 -0.2524
 1080TIP3    H2 3205   3.572   4.686   1.248  0.1034  0.8516 -0.0548
 1081TIP3   OH2 3206   3.182   3.800   0.141 -0.0091 -0.2666  0.0853
 1081TIP3    H1 3207   3.216   3.798   0.230  1.0518  1.8683 -0.2042
 1081TIP3    H2 3208   3.254   3.768   0.087 -0.1702 -0.2579 -0.1368
 1082TIP3   OH2 3209   1.388   4.954   3.929 -0.0381 -0.7969 -0.4746
 1082TIP3    H1 3210   1.468   4.975   3.978  0.6592  0.2358 -1.9708
 1082TIP3    H2 3211   1.324   4.930   3.996  1.2686 -0.7715  0.8277
 1083TIP3   OH2 3212   1.388   6.724   4.918 -0.0302 -0.0047 -0.4874
 1083TIP3    H1 3213   1.433   6.802   4.887  0.6601 -0.7804 -1.4884
 1083TIP3    H2 3214   1.406   6.723   5.012  2.0411 -0.2522 -0.8335
 1084TIP3   OH2 3215   7.127   2.183   1.000  0.3914  0.2470  0.1500
 1084TIP3    H1 3216   7.202   2.232   0.968  0.9046 -0.1692  0.6904
 1084TIP3    H2 3217   7.159   2.137   1.078 -0.5774  0.5136  0.7303
 1085TIP3   OH2 3218   5.976   5.496   3.245  0.2102 -0.3031  0.4693
 1085TIP3    H1 3219   6.004   5.583   3.273 -0.6038  0.4640 -0.9586
 1085TIP3    H2 3220   5.880   5.501   3.243  0.1323 -1.3577  0.6927
 1086TIP3   OH2 3221   7.216   5.009   5.620 -0.2802  0.3196 -0.0081
 1086TIP3    H1 3222   7.151   5.069   5.657 -0.3399  1.2432 -1.5557
 1086TIP3    H2 3223   7.247   4.959   5.696 -1.1348  1.4274  1.1255
 1087TIP3   OH2 3224   5.374   5.402   1.424 -0.2310  0.6033  0.1093
 1087TIP3    H1 3225   5.315   5.440   1.489 -0.9542 -1.3330  0.6476
 1087TIP3    H2 3226   5.320   5.390   1.346  0.2698  1.6124 -0.4118
 1088TIP3   OH2 3227   4.956   3.866   4.321  0.1653  0.1159  0.2910
 1088TIP3    H1 3228   5.045   3.896   4.334  0.7932 -1.7145  0.5231
 1088TIP3    H2 3229   4.948   3.853   4.226 -0.6542  2.4282 -0.0378
 1089TIP3   OH2 3230   2.834   2.555   0.594  0.4625  0.3012  0.9877
 1089TIP3    H1 3231   2.827   2.468   0.633 -1.8022 -0.1973 -0.3822
 1089TIP3    H2 3232   2.832   2.614   0.669 -1.6783 -0.7143  1.8015
 1090TIP3   OH2 3233   4.010   3.923   0.056 -0.0924  0.0049 -0.0454
 1090TIP3    H1 3234   3.941   3.952   0.116 -1.0625 -0.3951 -0.9363
 1090TIP3    H2 3235   4.036   3.837   0.089  0.4430  0.4302  0.6630
 1091TIP3   OH2 3236   2.276   2.200   0.081  0.0465  0.6034 -0.3188
 1091TIP3    H1 3237   2.189   2.226   0.053  0.1062  0.4388 -0.6711
 1091TIP3    H2 3238   2.261   2.139   0.154 -0.1035  1.2325  0.1801
 1092TIP3   OH2 3239   4.095   0.910   5.841 -0.6789 -0.3797  0.0171
 1092TIP3    H1 3240   4.152   0.846   5.886  1.1361  0.0365 -1.5466
 1092TIP3    H2 3241   4.014   0.863   5.825  0.1986 -1.9450 -0.0651
 1093TIP3   OH2 3242   4.923   4.856   4.707 -0.3289 -0.3422 -0.0287
 1093TIP3    H1 3243   4.945   4.773   4.664 -1.4472 -0.5450 -0.2427
 1093TIP3    H2 3244   4.927   4.836   4.801 -1.5480 -0.9162 -0.0828
 1094TIP3   OH2 3245   0.352   1.863   4.660 -0.0659  0.3370 -0.1610
 1094TIP3    H1 3246   0.289   1.935   4.660  1.2775  1.5765 -0.2293
 1094TIP3    H2 3247   0.334   1.815   4.741 -0.1922  1.5080  0.5305
 1095TIP3   OH2 3248   2.114   6.383   3.731 -0.0301 -0.0480 -0.0202
 1095TIP3    H1 3249   2.063   6.438   3.671 -1.0309  0.2375  1.0393
 1095TIP3    H2 3250   2.150   6.445   3.795  1.6849 -0.2505 -0.7478
 1096TIP3   OH2 3251   0.236   5.778   4.831 -0.1526 -0.5506  0.0026
 1096TIP3    H1 3252   0.221   5.707   4.769 -1.2260  0.7745 -1.3592
 1096TIP3    H2 3253   0.151   5.789   4.875 -0.4849  0.7866 -0.8759
 1097TIP3   OH2 3254   6.018   6.159   2.787 -0.1772 -0.1338 -0.0177
 1097TIP3    H1 3255   6.063   6.179   2.869  1.0996 -3.3225  0.1876
 1097TIP3    H2 3256   6.013   6.243   2.741 -2.1074  2.0651  3.7629
 1098TIP3   OH2 3257   3.540   2.742   1.376 -0.0382 -0.5185 -0.7821
 1098TIP3    H1 3258   3.552   2.759   1.469  0.5454  0.5073 -1.0320
 1098TIP3    H2 3259   3.468   2.678   1.372 -0.6572  0.0795  0.3206
 1099TIP3   OH2 3260   5.579   3.745   3.948 -0.3080 -0.2558 -0.0665
 1099TIP3    H1 3261   5.540   3.758   3.861 -1.7027 -0.8540  0.4359
 1099TIP3    H2 3262   5.635   3.667   3.937  0.5814  0.4543 -0.7325
 1100TIP3   OH2 3263   3.521   2.087   2.992 -0.0994  0.1123 -0.3443
 1100TIP3    H1 3264   3.562   2.157   2.940 -0.5164  1.3588  0.9536
 1100TIP3    H2 3265   3.455   2.132   3.044 -0.8482 -1.3785  0.0327
 1101TIP3   OH2 3266   4.148   6.469   3.700 -0.3541  0.2724 -0.6085
 1101TIP3    H1 3267   4.106   6.408   3.761  0.4841  0.6502  0.3688
 1101TIP3    H2 3268   4.149   6.553   3.747 -0.0100  0.6524 -1.2863
 1102TIP3   OH2 3269   2.288   0.225   4.141 -0.2013 -0.0953 -0.7388
 1102TIP3    H1 3270   2.229   0.153   4.161 -0.2741  0.4190  1.0997
 1102TIP3    H2 3271   2.367   0.206   4.191  0.7880 -0.1869 -2.2746
 1103TIP3   OH2 3272   4.889   0.232   4.962 -0.1789  0.1323  0.3436
 1103TIP3    H1 3273   4.984   0.218   4.952  0.1588 -0.1542  3.1543
 1103TIP3    H2 3274   4.878   0.327   4.953  0.3903  0.1914  0.2117
 1104TIP3   OH2 3275   0.180   1.835   0.329  0.6659 -0.0160  0.1125
 1104TIP3    H1 3276   0.247   1.897   0.298  0.8071  0.1476  0.7398
 1104TIP3    H2 3277   0.228   1.754   0.346  0.7184  0.1189  0.6196
 1105TIP3   OH2 3278   5.212   0.988   2.923  0.5063 -0.0466 -0.9663
 1105TIP3    H1 3279   5.170   1.039   2.992  0.0368 -0.9252 -0.5784
 1105TIP3    H2 3280   5.140   0.962   2.865  0.7537 -0.1637 -1.2234
 1106TIP3   OH2 3281   0.187   5.504   1.185 -0.2540  0.2050 -1.2253
 1106TIP3    H1 3282   0.202   5.414   1.157  0.4392 -0.0781 -0.0353
 1106TIP3    H2 3283   0.243   5.515   1.262 -1.6882  1.0537 -0.2400
 1107TIP3   OH2 3284   7.158   0.758   0.639  0.3436  0.2673  0.1259
 1107TIP3    H1 3285   7.125   0.802   0.560  1.6827  1.1405  0.0249
 1107TIP3    H2 3286   7.250   0.782   0.643  0.6907 -1.1315  1.0623
 1108TIP3   OH2 3287   2.219   3.513   0.482  0.2628  0.1092  0.1881
 1108TIP3    H1 3288   2.162   3.587   0.501 -0.6147 -0.7165  0.8634
 1108TIP3    H2 3289   2.204   3.496   0.389 -1.2093 -0.5724  0.5171
 1109TIP3   OH2 3290   1.980   1.123   5.226  0.9741 -0.2300 -1.1032
 1109TIP3    H1 3291   2.030   1.192   5.181  0.4409  0.5091 -0.5974
 1109TIP3    H2 3292   2.047   1.061   5.256  1.4467 -0.0503 -1.7516
 1110TIP3   OH2 3293   0.940   4.158   4.377  0.3121 -0.0448 -0.4959
 1110TIP3    H1 3294   0.913   4.243   4.411  0.7889 -0.3012  0.5748
 1110TIP3    H2 3295   0.891   4.148   4.295 -0.9290  0.5745  0.1386
 1111TIP3   OH2 3296   4.327   0.264   4.507 -0.3977 -0.1801  0.7453
 1111TIP3    H1 3297   4.348   0.194   4.444 -0.9665 -0.8027  1.2344
 1111TIP3    H2 3298   4.282   0.331   4.455  0.0555 -0.2231  0.2923
 1112TIP3   OH2 3299   3.433   6.599   0.118 -0.4072 -0.4918  0.2018
 1112TIP3    H1 3300   3.355   6.556   0.153 -1.4228  1.4575  0.4616
 1112TIP3    H2 3301   3.400   6.666   0.059  1.1033  0.0363 -0.1010
 1113TIP3   OH2 3302   2.983   1.598   5.477 -0.3655  0.2762 -0.6986
 1113TIP3    H1 3303   2.948   1.687   5.481 -1.1094 -0.0005 -0.8454
 1113TIP3    H2 3304   3.012   1.588   5.386 -0.6919  0.2157 -0.7957
 1114TIP3   OH2 3305   6.438   1.506   3.059 -0.1628  0.1578  0.4074
 1114TIP3    H1 3306   6.363   1.525   3.115 -0.0079  1.1238  0.3001
 1114TIP3    H2 3307   6.514   1.518   3.115 -0.0585 -0.1837  0.3418
 1115TIP3   OH2 3308   3.621   5.400   1.812 -0.3937 -0.5887  0.1131
 1115TIP3    H1 3309   3.598   5.441   1.729  0.9833  0.9019  0.4137
 1115TIP3    H2 3310   3.538   5.372   1.850 -1.5780  2.7560  0.2627
 1116TIP3   OH2 3311   2.929   5.729   1.453 -0.0114  0.2154  0.2582
 1116TIP3    H1 3312   2.838   5.721   1.425  0.2034 -2.3494  0.1173
 1116TIP3    H2 3313   2.970   5.647   1.426  2.4950  1.5104 -0.1417
 1117TIP3   OH2 3314   2.762   1.161   3.556 -0.4504 -0.0177  0.1709
 1117TIP3    H1 3315   2.834   1.098   3.561 -1.0273 -0.7791 -0.7962
 1117TIP3    H2 3316   2.760   1.187   3.464 -1.6458 -0.2903  0.1075
 1118TIP3   OH2 3317   5.299   5.075   3.475  0.6280  0.3106  0.0330
 1118TIP3    H1 3318   5.257   4.997   3.513  0.6849 -0.0013 -0.5319
 1118TIP3    H2 3319   5.290   5.142   3.542  0.0040 -0.0034  0.2699
 1119TIP3   OH2 3320   1.758   0.961   2.606 -0.4210  0.4245  0.1333
 1119TIP3    H1 3321   1.720   1.028   2.549  1.1804  0.9113 -0.4077
 1119TIP3    H2 3322   1.819   1.009   2.662  1.2277 -0.6225 -0.6768
 1120TIP3   OH2 3323   3.341   2.938   3.694  0.6502 -0.7499  0.3021
 1120TIP3    H1 3324   3.413   3.001   3.688  0.6699 -0.7321  0.7300
 1120TIP3    H2 3325   3.321   2.932   3.787  0.5973 -1.3242  0.2583
 1121TIP3   OH2 3326   4.957   5.725   1.242 -0.7595 -0.0258  0.0909
 1121TIP3    H1 3327   4.931   5.814   1.219  4.0846  1.3821 -1.1363
 1121TIP3    H2 3328   5.004   5.693   1.165  0.0870 -2.5438  1.5213
 1122TIP3   OH2 3329   6.838   4.598   0.097  0.5231  0.0910  0.4127
 1122TIP3    H1 3330   6.844   4.632   0.008  0.8307 -1.6121 -0.2721
 1122TIP3    H2 3331   6.913   4.636   0.143 -0.9737  2.8916  0.6953
 1123TIP3   OH2 3332   1.118   0.495   5.482 -0.7776 -0.1292  0.7639
 1123TIP3    H1 3333   1.173   0.423   5.450  0.2252  0.5137  0.9853
 1123TIP3    H2 3334   1.065   0.520   5.407 -0.4025 -0.4362  0.3920
 1124TIP3   OH2 3335   0.566   0.980   3.575 -0.1691  0.1105  0.0307
 1124TIP3    H1 3336   0.560   0.977   3.479 -0.9006  2.1566 -0.0613
 1124TIP3    H2 3337   0.636   0.920   3.597 -0.4731 -0.9723 -1.7276
 1125TIP3   OH2 3338   3.962   4.101   0.486  0.7859  0.2142 -0.1057
 1125TIP3    H1 3339   4.018   4.174   0.458 -0.3107  1.0238 -0.2628
 1125TIP3    H2 3340   3.899   4.091   0.416  0.4787 -0.4235  0.2528
 1126TIP3   OH2 3341   1.441   3.556   5.781  0.0059  0.4276  0.2594
 1126TIP3    H1 3342   1.396   3.482   5.740  0.1524  0.4050  0.1392
 1126TIP3    H2 3343   1.385   3.631   5.761 -0.3598  0.2843  0.7387
 1127TIP3   OH2 3344   0.684   1.836   0.762 -0.7618  0.1238 -0.7463
 1127TIP3    H1 3345   0.640   1.921   0.765  0.0673  0.6026 -1.6915
 1127TIP3    H2 3346   0.614   1.773   0.779 -1.2337  1.0203  0.8442
 1128TIP3   OH2 3347   6.362   6.213   2.676 -0.5495 -0.2454 -0.2836
 1128TIP3    H1 3348   6.277   6.236   2.639 -1.3180 -1.3888  0.6855
 1128TIP3    H2 3349   6.368   6.265   2.756  0.0422  0.4417 -0.7641
 1129TIP3   OH2 3350   0.380   0.089   0.210 -0.2504 -0.4986 -0.3935
 1129TIP3    H1 3351   0.418   0.157   0.266  1.2633 -1.1075 -0.6309
 1129TIP3    H2 3352   0.333   0.137   0.142  0.6591  0.3127 -0.4672
 1130TIP3   OH2 3353   3.316   1.337   4.172  0.1329  0.2717 -0.6441
 1130TIP3    H1 3354   3.299   1.380   4.087 -3.2291  0.0969 -0.2158
 1130TIP3    H2 3355   3.315   1.409   4.235  1.1253  0.2353 -0.5793
 1131TIP3   OH2 3356   6.383   2.588   5.831  0.1937 -0.3671 -0.0432
 1131TIP3    H1 3357   6.424   2.515   5.786  0.1147  1.1217 -2.7081
 1131TIP3    H2 3358   6.294   2.591   5.796 -0.6593 -0.5357  1.9780
 1132TIP3   OH2 3359   4.255   5.271   3.560 -0.3150 -0.3664  0.3498
 1132TIP3    H1 3360   4.178   5.284   3.616 -1.1685 -0.5535 -0.7302
 1132TIP3    H2 3361   4.271   5.177   3.563 -2.3176 -0.9268 -2.0668
 1133TIP3   OH2 3362   5.675   3.984   1.082 -0.2237  0.2315  0.0972
 1133TIP3    H1 3363   5.619   4.057   1.055  0.3341  0.1564 -1.3614
 1133TIP3    H2 3364   5.699   3.941   0.999 -0.5921 -1.6499  0.9154
 1134TIP3   OH2 3365   6.122   3.780   5.743 -0.0920  0.2894 -0.1136
 1134TIP3    H1 3366   6.101   3.690   5.768 -0.5028  0.0448 -1.2951
 1134TIP3    H2 3367   6.036   3.822   5.733  0.0979  0.8653  0.5622
 1135TIP3   OH2 3368   4.151   6.336   0.912 -0.1816 -0.0383 -0.0483
 1135TIP3    H1 3369   4.232   6.349   0.962  0.5503  1.6327 -1.5759
 1135TIP3    H2 3370   4.093   6.289   0.973  1.3597  0.1257  1.6415
 1136TIP3   OH2 3371   4.868   5.153   0.357  0.0926 -0.0502  0.2994
 1136TIP3    H1 3372   4.812   5.215   0.404 -0.4897 -0.1384 -0.2676
 1136TIP3    H2 3373   4.855   5.174   0.265  0.4244 -0.5648  0.1323
 1137TIP3   OH2 3374   5.933   4.001   3.195 -0.2875 -0.5921  0.5570
 1137TIP3    H1 3375   5.918   4.091   3.224 -1.0215 -1.0615  1.7180
 1137TIP3    H2 3376   5.909   4.000   3.103  1.4656  0.8114  0.0170
 1138TIP3   OH2 3377   6.208   6.338   5.202  0.4010 -0.4632  0.3695
 1138TIP3    H1 3378   6.260   6.413   5.174 -0.4429  0.0011 -0.0042
 1138TIP3    H2 3379   6.216   6.338   5.297  0.4656  0.0591  0.3695
 1139TIP3   OH2 3380   0.158   0.121   3.719  0.1375 -0.3795  0.1176
 1139TIP3    H1 3381   0.091   0.127   3.787  0.2781 -0.1790  0.2406
 1139TIP3    H2 3382   0.192   0.032   3.727 -1.8966 -1.4153 -1.6551
 1140TIP3   OH2 3383   3.557   3.926   3.642 -0.1306 -0.3760 -0.6866
 1140TIP3    H1 3384   3.466   3.948   3.621 -0.6830  0.6436  2.3308
 1140TIP3    H2 3385   3.577   3.980   3.719  3.3342  0.0742 -1.7449
 1141TIP3   OH2 3386   3.042   2.971   4.214 -0.1148 -0.4678  0.7713
 1141TIP3    H1 3387   3.016   2.919   4.290  2.4737 -0.9971  1.3918
 1141TIP3    H2 3388   3.094   3.042   4.250 -0.3612  0.3488 -0.3996
 1142TIP3   OH2 3389   6.944   1.300   1.437  0.2013  0.3889  0.2167
 1142TIP3    H1 3390   6.967   1.287   1.530 -0.5044 -0.0607  0.3381
 1142TIP3    H2 3391   6.880   1.231   1.419 -0.1909  0.9143 -0.4156
 1143TIP3   OH2 3392   3.405   6.812   2.929 -0.0668 -0.6435 -0.4990
 1143TIP3    H1 3393   3.336   6.817   2.996  1.7114  0.0925  1.3942
 1143TIP3    H2 3394   3.400   6.722   2.897 -1.6049 -0.7279 -0.1050
 1144TIP3   OH2 3395   2.357   0.136   5.320  0.1003  0.5527 -0.5324
 1144TIP3    H1 3396   2.424   0.093   5.267  0.7930  2.3822 -1.2131
 1144TIP3    H2 3397   2.350   0.224   5.284 -2.8523  0.3891 -0.5932
 1145TIP3   OH2 3398   1.676   4.010   0.208  0.0057 -0.1364 -0.6734
 1145TIP3    H1 3399   1.685   4.049   0.295 -2.3763  3.0477 -1.6626
 1145TIP3    H2 3400   1.766   3.985   0.184  1.3358  2.2271  1.3031
 1146TIP3   OH2 3401   7.036   6.463   0.616 -0.2490  0.0153  0.0516
 1146TIP3    H1 3402   7.024   6.399   0.686 -1.2529  0.0148 -0.1162
 1146TIP3    H2 3403   6.951   6.470   0.574  0.4052 -0.1709 -1.3536
 1147TIP3   OH2 3404   3.492   2.910   3.403  0.4810  0.6391  0.0544
 1147TIP3    H1 3405   3.523   2.950   3.485  0.8299  0.5173 -0.0166
 1147TIP3    H2 3406   3.524   2.821   3.407  0.6407  0.6822 -0.2985
 1148TIP3   OH2 3407   1.471   2.302   0.356 -0.0045  0.8050  0.2973
 1148TIP3    H1 3408   1.553   2.330   0.316 -0.9458  0.9933 -1.6251
 1148TIP3    H2 3409   1.405   2.314   0.287 -1.9202  2.0404  2.1945
 1149TIP3   OH2 3410   6.713   2.866   2.945 -0.2989 -0.5449  0.0796
 1149TIP3    H1 3411   6.763   2.806   2.889  0.5140  1.0847 -1.0107
 1149TIP3    H2 3412   6.631   2.819   2.963  0.1454 -1.8259 -1.0424
 1150TIP3   OH2 3413   2.236   3.140   5.788 -0.2431  0.2439 -0.5134
 1150TIP3    H1 3414   2.214   3.232   5.776  1.1297  0.7185  0.3474
 1150TIP3    H2 3415   2.283   3.116   5.709  0.1245  0.5255 -0.3828
 1151TIP3   OH2 3416   4.227   3.706   0.321 -0.0344 -0.1443 -0.5272
 1151TIP3    H1 3417   4.229   3.792   0.362 -4.0213 -0.6464  1.1121
 1151TIP3    H2 3418   4.231   3.644   0.394 -1.4834 -1.2184 -1.3209
 1152TIP3   OH2 3419   2.852   5.181   5.780 -0.3599 -0.1318  0.0730
 1152TIP3    H1 3420   2.788   5.131   5.830 -0.0528 -0.1469  0.4646
 1152TIP3    H2 3421   2.805   5.259   5.752 -1.8396 -2.0600 -3.3740
 1153TIP3   OH2 3422   1.174   5.092   2.167  0.2541 -0.3898 -0.1099
 1153TIP3    H1 3423   1.224   5.096   2.086  0.0683 -3.6543 -0.5494
 1153TIP3    H2 3424   1.235   5.057   2.232 -0.6468 -1.8218  0.0286
 1154TIP3   OH2 3425   0.894   6.610   5.697 -0.0335  0.2070 -0.2357
 1154TIP3    H1 3426   0.909   6.674   5.767  0.1431  0.2590 -0.3187
 1154TIP3    H2 3427   0.837   6.655   5.635  0.7435  0.5831 -0.6947
 1155TIP3   OH2 3428   5.446   5.374   4.483  0.7834  0.4923 -0.2417
 1155TIP3    H1 3429   5.468   5.407   4.396  1.1645 -0.6154 -0.5722
 1155TIP3    H2 3430   5.437   5.453   4.536 -0.1149  1.2356 -1.4243
 1156TIP3   OH2 3431   3.636   6.361   2.528 -0.6127  0.0477  0.2249
 1156TIP3    H1 3432   3.695   6.287   2.545 -0.2281  0.8795  2.9425
 1156TIP3    H2 3433   3.675   6.406   2.453 -0.2922 -1.8832 -0.8336
 1157TIP3   OH2 3434   6.625   0.295   0.195 -0.2113  0.4578 -0.2857
 1157TIP3    H1 3435   6.709   0.255   0.171  0.5501 -0.3807  3.2220
 1157TIP3    H2 3436   6.575   0.295   0.114  1.3048 -3.7588 -1.5009
 1158TIP3   OH2 3437   3.011   4.245   4.602 -0.0769  0.0982  0.4621
 1158TIP3    H1 3438   3.006   4.154   4.572  0.4694  0.6396 -1.4071
 1158TIP3    H2 3439   2.962   4.294   4.537  1.9690  1.4573 -0.1482
 1159TIP3   OH2 3440   6.210   0.890   3.087 -0.0486 -0.8050 -0.2284
 1159TIP3    H1 3441   6.207   0.855   2.998 -2.4235  0.0992 -0.6042
 1159TIP3    H2 3442   6.121   0.921   3.103  0.2311 -1.1594  2.5840
 1160TIP3   OH2 3443   6.379   6.470   2.113 -0.2833 -0.4797 -0.2143
 1160TIP3    H1 3444   6.286   6.494   2.122 -0.0856  1.3560 -2.2470
 1160TIP3    H2 3445   6.408   6.516   2.034  2.6332 -0.1845  0.8999
 1161TIP3   OH2 3446   1.302   1.314   1.334  0.7425 -0.2014 -0.5817
 1161TIP3    H1 3447   1.260   1.277   1.257  1.3095 -0.8868 -0.5760
 1161TIP3    H2 3448   1.237   1.303   1.404  0.9303 -1.3275 -0.5536
 1162TIP3   OH2 3449   2.408   2.414   1.239  0.4685  0.2614  0.1865
 1162TIP3    H1 3450   2.369   2.327   1.231  1.8474 -0.4468  0.7431
 1162TIP3    H2 3451   2.345   2.473   1.198 -0.6436 -0.9537  0.0822
 1163TIP3   OH2 3452   6.663   5.657   4.655 -0.2304 -0.5226 -0.3211
 1163TIP3    H1 3453   6.679   5.703   4.738 -3.4534 -0.3153  0.3330
 1163TIP3    H2 3454   6.716   5.704   4.591 -0.8293  2.0497  0.9219
 1164TIP3   OH2 3455   6.018   4.739   3.785 -0.3023 -0.7893 -0.5677
 1164TIP3    H1 3456   6.102   4.707   3.750  1.1045  1.1615  0.8390
 1164TIP3    H2 3457   6.038   4.825   3.821 -2.5230 -1.0335  1.4971
 1165TIP3   OH2 3458   1.664   5.756   1.371  0.4062  0.4043  0.2718
 1165TIP3    H1 3459   1.612   5.827   1.408  0.5945  0.0082  1.3108
 1165TIP3    H2 3460   1.628   5.743   1.283  0.2464  1.6479  0.1397
 1166TIP3   OH2 3461   6.423   0.670   3.179  0.0318 -0.3434 -0.2070
 1166TIP3    H1 3462   6.379   0.753   3.160  1.7643  0.1634 -2.4147
 1166TIP3    H2 3463   6.383   0.608   3.118 -1.4438 -1.2716  1.6147
 1167TIP3   OH2 3464   0.976   2.319   2.783  0.5698 -0.0768 -0.2822
 1167TIP3    H1 3465   0.917   2.266   2.729 -0.0417  0.3875 -0.0836
 1167TIP3    H2 3466   0.921   2.390   2.816  1.1473  0.1409  0.2349
 1168TIP3   OH2 3467   1.610   1.375   3.720  0.6370  0.2170  0.4437
 1168TIP3    H1 3468   1.646   1.286   3.716 -0.0032 -0.0039 -2.2090
 1168TIP3    H2 3469   1.682   1.431   3.691 -0.0416  0.1133 -1.5948
 1169TIP3   OH2 3470   1.452   0.401   2.747  0.2702  0.0922  0.3739
 1169TIP3    H1 3471   1.400   0.325   2.774  0.7447 -0.6963 -0.8427
 1169TIP3    H2 3472   1.389   0.457   2.701  0.5763 -1.2876 -1.9121
 1170TIP3   OH2 3473   2.113   5.702   5.195  0.1503 -0.5267 -0.2096
 1170TIP3    H1 3474   2.166   5.626   5.174  0.9473 -0.0173 -0.0808
 1170TIP3    H2 3475   2.136   5.723   5.286 -2.0956 -1.7623  0.7148
 1171TIP3   OH2 3476   1.155   0.666   1.029  0.1071  0.3336 -0.1501
 1171TIP3    H1 3477   1.106   0.667   0.947 -1.2974 -0.2386  0.6513
 1171TIP3    H2 3478   1.229   0.607   1.012 -1.3072 -1.4368 -0.4118
 1172TIP3   OH2 3479   0.081   2.982   2.877 -0.1814  0.1807  0.2003
 1172TIP3    H1 3480   0.065   3.024   2.962 -0.2525 -0.6081  0.5885
 1172TIP3    H2 3481   0.104   2.892   2.899  1.9880  0.5071 -0.4906
 1173TIP3   OH2 3482   0.438   5.977   3.310  0.2397  0.0739 -0.3209
 1173TIP3    H1 3483   0.405   5.891   3.335 -0.0971  0.1257 -0.5876
 1173TIP3    H2 3484   0.446   5.974   3.215  0.4456  0.2623 -0.3114
 1174TIP3   OH2 3485   6.201   1.484   4.249 -0.8086 -0.2265  0.1801
 1174TIP3    H1 3486   6.178   1.573   4.224 -0.3300 -0.6093 -1.7526
 1174TIP3    H2 3487   6.252   1.494   4.330  0.5096  1.3843 -0.7923
 1175TIP3   OH2 3488   5.751   2.490   4.260  0.1063 -0.0269  0.7719
 1175TIP3    H1 3489   5.699   2.476   4.339  1.4804 -0.0310  1.6975
 1175TIP3    H2 3490   5.811   2.561   4.283  0.5492 -0.0498 -0.2682
 1176TIP3   OH2 3491   1.062   5.737   0.716  0.0791  0.1574 -0.0505
 1176TIP3    H1 3492   1.074   5.655   0.667  1.4327  0.8273 -0.9020
 1176TIP3    H2 3493   1.021   5.797   0.653 -3.3600 -0.5286  1.3085
 1177TIP3   OH2 3494   1.141   3.007   4.601 -0.0985 -0.4815  0.3699
 1177TIP3    H1 3495   1.091   3.025   4.522 -0.1809 -1.0292  0.2921
 1177TIP3    H2 3496   1.216   2.955   4.570  0.3545  0.0651  0.5270
 1178TIP3   OH2 3497   4.794   6.115   0.033 -0.4938  0.0873 -0.2100
 1178TIP3    H1 3498   4.875   6.090  -0.011  0.3346  1.1519  0.6382
 1178TIP3    H2 3499   4.779   6.045   0.097  0.6485  0.6617  0.7137
 1179TIP3   OH2 3500   4.197   5.000   4.992  0.1143 -0.2869  0.4586
 1179TIP3    H1 3501   4.275   5.005   4.937  0.0369  0.0389  0.3733
 1179TIP3    H2 3502   4.194   4.910   5.022 -0.4473 -0.7844 -0.9695
 1180TIP3   OH2 3503   2.583   6.280   2.714  0.0704  0.0822  0.5173
 1180TIP3    H1 3504   2.625   6.366   2.724  0.4579 -0.0224 -0.1188
 1180TIP3    H2 3505   2.656   6.221   2.692 -0.4285 -0.0414 -0.9476
 1181TIP3   OH2 3506   4.016   0.388   4.115 -0.2504  0.1399 -0.1270
 1181TIP3    H1 3507   4.072   0.372   4.039  0.2232  0.3463  0.1787
 1181TIP3    H2 3508   3.978   0.302   4.135  0.2164 -0.0686 -0.1278
 1182TIP3   OH2 3509   2.375   3.407   1.051 -0.0486  0.0837  0.4009
 1182TIP3    H1 3510   2.414   3.462   1.118 -0.1615  2.8708 -1.6593
 1182TIP3    H2 3511   2.337   3.469   0.988 -1.3388 -2.3922 -1.4328
 1183TIP3   OH2 3512   2.730   5.848   1.060  0.5848 -0.0757  0.3108
 1183TIP3    H1 3513   2.706   5.785   0.992  1.6956  0.3033 -0.4490
 1183TIP3    H2 3514   2.814   5.884   1.032  0.0200  1.6981  0.7797
 1184TIP3   OH2 3515   0.047   2.483   1.368  0.2344  0.1109  0.2861
 1184TIP3    H1 3516  -0.022   2.540   1.403  0.3953  1.7818 -1.8744
 1184TIP3    H2 3517   0.002   2.428   1.303  0.5979 -0.2157  0.3089
 1185TIP3   OH2 3518   3.952   3.412   4.688  0.5660 -0.4057  0.3333
 1185TIP3    H1 3519   3.982   3.362   4.612 -0.0205 -0.1348 -0.0755
 1185TIP3    H2 3520   3.867   3.374   4.710 -0.9276  1.8016 -1.3163
 1186TIP3   OH2 3521   3.317   0.348   5.317 -0.4505  0.2992  0.1651
 1186TIP3    H1 3522   3.385   0.392   5.266 -0.8801  1.0640  0.2293
 1186TIP3    H2 3523   3.258   0.310   5.252 -0.8349  1.0183  0.0837
 1187TIP3   OH2 3524   5.019   3.634   3.883 -0.1078 -0.6027  0.2681
 1187TIP3    H1 3525   4.933   3.650   3.843 -0.0919  0.4862  0.6479
 1187TIP3    H2 3526   5.081   3.679   3.826  0.0712 -0.2878  0.7044
 1188TIP3   OH2 3527   0.819   5.315   4.058  0.2770 -0.0789  0.5125
 1188TIP3    H1 3528   0.751   5.275   4.112 -0.3457  1.2501  0.7815
 1188TIP3    H2 3529   0.901   5.281   4.092 -0.1828 -0.3758  1.3436
 1189TIP3   OH2 3530   4.766   0.803   0.803  0.3743  0.7340  0.6786
 1189TIP3    H1 3531   4.704   0.818   0.732  0.9650  0.7715  0.1651
 1189TIP3    H2 3532   4.777   0.888   0.845  0.5204  0.8559  0.3983
 1190TIP3   OH2 3533   1.475   5.583   3.019  0.8743 -0.5350 -0.0106
 1190TIP3    H1 3534   1.396   5.537   2.992  0.4823 -0.5460  1.1302
 1190TIP3    H2 3535   1.520   5.603   2.937 -0.7626  0.2967 -0.7614
 1191TIP3   OH2 3536   5.450   2.638   5.733 -0.1678  0.0610  0.2838
 1191TIP3    H1 3537   5.391   2.713   5.745  1.0276  0.9340  0.9921
 1191TIP3    H2 3538   5.441   2.587   5.814 -1.0417 -0.6281 -0.2314
 1192TIP3   OH2 3539   4.613   4.720   0.618 -0.3552 -0.4210  0.2782
 1192TIP3    H1 3540   4.595   4.794   0.677  0.7004 -0.3804  0.5716
 1192TIP3    H2 3541   4.591   4.643   0.670  0.1316 -0.3668  0.5734
 1193TIP3   OH2 3542   3.220   5.250   3.559 -0.0368  0.0591 -0.4038
 1193TIP3    H1 3543   3.271   5.201   3.494  1.4213  1.2639 -0.2237
 1193TIP3    H2 3544   3.226   5.196   3.638 -0.7145 -0.7649 -0.8989
 1194TIP3   OH2 3545   2.244   1.543   3.392  0.6792  0.1037 -0.3927
 1194TIP3    H1 3546   2.271   1.623   3.437 -1.3344  1.1826 -0.9201
 1194TIP3    H2 3547   2.206   1.488   3.460 -0.6964  0.9539 -0.4223
 1195TIP3   OH2 3548   0.689   2.230   1.907  0.0943  0.1204  0.1304
 1195TIP3    H1 3549   0.732   2.146   1.919 -2.0408 -1.2771 -1.2426
 1195TIP3    H2 3550   0.744   2.277   1.844 -1.1916 -2.4045 -3.1473
 1196TIP3   OH2 3551   2.386   1.416   3.655  0.2999  0.5010  0.4618
 1196TIP3    H1 3552   2.375   1.506   3.686  1.1497  0.7413  0.1026
 1196TIP3    H2 3553   2.479   1.397   3.670  0.4691  0.2180 -0.8271
 1197TIP3   OH2 3554   0.008   5.784   1.552  0.5872  0.3742  0.2057
 1197TIP3    H1 3555  -0.016   5.858   1.496  0.1652  0.1909  0.1429
 1197TIP3    H2 3556   0.029   5.713   1.490 -1.4094 -0.3213  0.2678
 1198TIP3   OH2 3557   5.570   5.657   5.877  0.4352  0.5963  0.5208
 1198TIP3    H1 3558   5.646   5.668   5.820  1.2036  1.9329  1.7031
 1198TIP3    H2 3559   5.529   5.744   5.879 -1.1029 -0.0931 -0.0505
 1199TIP3   OH2 3560   0.058   0.243   0.272  0.0030 -0.5392 -0.1354
 1199TIP3    H1 3561  -0.024   0.287   0.250  0.7127 -0.3169 -2.7184
 1199TIP3    H2 3562   0.032   0.158   0.308 -1.4055 -0.7949 -1.6544
 1200TIP3   OH2 3563   4.023   1.626   2.232  0.7126  0.0470 -0.2013
 1200TIP3    H1 3564   4.047   1.665   2.148 -0.0779 -0.2418 -0.5687
 1200TIP3    H2 3565   3.934   1.595   2.219  0.3910  0.4613  0.9077
 1201TIP3   OH2 3566   0.001   6.604   3.465 -0.3409 -0.1178 -0.6822
 1201TIP3    H1 3567   0.071   6.669   3.472 -1.2958  1.0435 -1.4828
 1201TIP3    H2 3568  -0.060   6.628   3.535  0.4990 -1.7478  0.6832
 1202TIP3   OH2 3569   6.098   2.563   5.369  0.1170 -0.2153 -0.0538
 1202TIP3    H1 3570   6.017   2.528   5.405  1.2118 -2.2583  0.5917
 1202TIP3    H2 3571   6.155   2.576   5.445 -0.0487  2.6398 -0.3193
 1203TIP3   OH2 3572   3.462   2.432   2.569 -0.1161 -0.1854  0.4041
 1203TIP3    H1 3573   3.521   2.451   2.497  1.9045 -0.6900  1.8529
 1203TIP3    H2 3574   3.469   2.509   2.626 -0.0753 -0.6969  1.0921
 1204TIP3   OH2 3575   4.783   5.824   5.564  0.0321 -0.7888 -0.0155
 1204TIP3    H1 3576   4.826   5.908   5.583 -1.5033  0.1908 -0.7182
 1204TIP3    H2 3577   4.844   5.758   5.597  0.5444  0.6283  2.0226
 1205TIP3   OH2 3578   4.218   2.312   0.985  0.5119 -0.0199  0.3822
 1205TIP3    H1 3579   4.272   2.363   1.045  0.1259  2.6950 -1.4438
 1205TIP3    H2 3580   4.131   2.350   0.994  0.3171  0.0016 -1.3812
 1206TIP3   OH2 3581   1.672   5.969   5.146 -0.3759  0.2086  0.2586
 1206TIP3    H1 3582   1.720   5.895   5.182 -0.3838 -0.1623 -0.4782
 1206TIP3    H2 3583   1.639   5.938   5.061 -3.5501 -0.2153  1.4931
 1207TIP3   OH2 3584   6.063   1.701   1.012 -0.3622 -0.1979  0.0259
 1207TIP3    H1 3585   5.970   1.710   0.990 -0.5586 -1.3574  0.3483
 1207TIP3    H2 3586   6.064   1.664   1.100  0.4241  0.6415  0.3932
 1208TIP3   OH2 3587   5.669   1.726   2.262  0.1805 -0.5160  0.2677
 1208TIP3    H1 3588   5.742   1.786   2.248 -0.2639 -0.2755 -1.1125
 1208TIP3    H2 3589   5.710   1.639   2.262  0.3398 -0.4927 -1.9459
 1209TIP3   OH2 3590   4.302   5.420   5.545 -0.3928  0.1192  0.4282
 1209TIP3    H1 3591   4.248   5.499   5.554 -1.2995 -0.0331 -2.5559
 1209TIP3    H2 3592   4.241   5.348   5.560 -0.4581 -0.0269 -0.4886
 1210TIP3   OH2 3593   4.587   5.483   0.384 -0.3106 -0.2774 -0.2742
 1210TIP3    H1 3594   4.528   5.507   0.455  1.0125 -0.3203  0.8792
 1210TIP3    H2 3595   4.646   5.417   0.422  1.5930  1.0108 -0.8189
 1211TIP3   OH2 3596   3.419   6.480   3.961  0.1390  0.2558 -0.6404
 1211TIP3    H1 3597   3.344   6.475   3.901 -0.2338  0.8029 -0.2379
 1211TIP3    H2 3598   3.404   6.410   4.024 -2.8089  3.2260  2.4746
 1212TIP3   OH2 3599   4.452   4.323   1.973  0.2294  0.3419 -0.5843
 1212TIP3    H1 3600   4.518   4.368   1.920  0.2306 -0.7325 -1.5389
 1212TIP3    H2 3601   4.388   4.391   1.995  1.7792  1.4602  0.6086
 1213TIP3   OH2 3602   6.443   0.815   1.920 -0.0500  0.5315  0.6249
 1213TIP3    H1 3603   6.354   0.841   1.897 -0.0022 -0.1313 -0.3200
 1213TIP3    H2 3604   6.440   0.803   2.015 -0.9644  0.5019  0.5987
 1214TIP3   OH2 3605   6.615   1.444   3.522  0.3630 -0.4486 -0.0285
 1214TIP3    H1 3606   6.626   1.351   3.501  0.1860 -0.6489  0.7273
 1214TIP3    H2 3607   6.659   1.454   3.607 -1.8812 -0.4332  1.2072
 1215TIP3   OH2 3608   0.404   2.677   4.456  0.5980  0.1124 -0.2945
 1215TIP3    H1 3609   0.458   2.747   4.418  1.2984 -0.9451 -1.3060
 1215TIP3    H2 3610   0.428   2.599   4.407  0.5176 -1.0478  1.4138
 1216TIP3   OH2 3611   2.761   5.262   1.583 -0.3688  0.3958 -0.3267
 1216TIP3    H1 3612   2.702   5.258   1.657 -0.1165 -2.2624 -0.1596
 1216TIP3    H2 3613   2.815   5.340   1.599 -0.1922 -0.1848  2.3824
 1217TIP3   OH2 3614   4.718   6.788   0.199  0.0773 -0.2959 -0.2328
 1217TIP3    H1 3615   4.709   6.693   0.190  2.6540 -0.7559  0.9820
 1217TIP3    H2 3616   4.768   6.814   0.121 -0.6066  0.0877 -0.5531
 1218TIP3   OH2 3617   6.117   4.346   1.328  0.1027  0.2424 -0.0149
 1218TIP3    H1 3618   6.190   4.285   1.329 -0.1117 -0.0435 -0.9576
 1218TIP3    H2 3619   6.069   4.328   1.409  0.4416 -0.3367  0.0594
 1219TIP3   OH2 3620   6.599   4.938   3.025  0.0725 -0.0236 -0.4670
 1219TIP3    H1 3621   6.576   4.884   3.101 -0.6991  0.5021 -0.3111
 1219TIP3    H2 3622   6.611   4.875   2.954  1.6971 -0.5999  0.2696
 1220TIP3   OH2 3623   3.737   5.723   1.144  0.1015 -0.0998  0.1626
 1220TIP3    H1 3624   3.786   5.656   1.097  0.6265  0.4111 -0.0257
 1220TIP3    H2 3625   3.703   5.678   1.222 -1.1028 -1.0424 -0.8764
 1221TIP3   OH2 3626   0.696   2.929   5.110  0.2488  0.2565 -0.7316
 1221TIP3    H1 3627   0.618   2.984   5.108  0.0106 -0.0741 -0.6163
 1221TIP3    H2 3628   0.715   2.916   5.203 -0.0331 -0.3233 -0.7489
 1222TIP3   OH2 3629   4.011   2.159   1.628 -0.0500  0.0994  0.0522
 1222TIP3    H1 3630   4.104   2.148   1.650 -0.5520 -1.4786  1.5992
 1222TIP3    H2 3631   3.982   2.230   1.686  0.0426  0.1437  0.0447
 1223TIP3   OH2 3632   0.512   4.165   4.462  0.2501  0.3579 -0.0376
 1223TIP3    H1 3633   0.541   4.230   4.526  2.6183  0.2037 -0.8677
 1223TIP3    H2 3634   0.502   4.084   4.512  0.3366  0.6497  0.4561
 1224TIP3   OH2 3635   5.817   1.553   0.679 -0.0596 -0.1176  0.2767
 1224TIP3    H1 3636   5.755   1.482   0.662 -2.0547  1.4962  0.3675
 1224TIP3    H2 3637   5.877   1.551   0.605 -2.2216  0.2435 -1.5946
 1225TIP3   OH2 3638   1.808   5.703   3.162 -0.6528  0.0586 -0.5885
 1225TIP3    H1 3639   1.844   5.615   3.160 -1.6824 -0.3724 -1.5570
 1225TIP3    H2 3640   1.781   5.720   3.072 -2.4721  0.4927 -0.0129
 1226TIP3   OH2 3641   7.020   2.562   4.957  0.0393 -0.3420 -0.2534
 1226TIP3    H1 3642   7.107   2.534   4.930  0.6070  1.3364 -0.2741
 1226TIP3    H2 3643   7.014   2.653   4.929 -2.0896 -0.6755 -1.1023
 1227TIP3   OH2 3644   0.015   4.384   5.148 -0.4014  0.3620  0.1695
 1227TIP3    H1 3645  -0.009   4.394   5.240  0.6568 -0.2733  0.5360
 1227TIP3    H2 3646   0.088   4.445   5.135 -0.3773  0.2629 -0.1686
 1228TIP3   OH2 3647   5.097   0.173   1.921  0.2521 -0.2550  0.1488
 1228TIP3    H1 3648   5.112   0.080   1.908  0.2121 -0.0891 -1.3034
 1228TIP3    H2 3649   5.165   0.200   1.983 -1.6068 -1.7968  3.0790
 1229TIP3   OH2 3650   4.201   4.254   4.986 -0.3114 -0.0043 -0.3770
 1229TIP3    H1 3651   4.237   4.207   5.061  0.9158  0.9804 -0.3184
 1229TIP3    H2 3652   4.146   4.190   4.941  0.1029 -1.0279  0.5414
 1230TIP3   OH2 3653   0.325   1.620   0.283  0.4104  0.2340  0.7638
 1230TIP3    H1 3654   0.347   1.532   0.314 -2.4896 -0.3462  1.4590
 1230TIP3    H2 3655   0.261   1.605   0.213 -0.4397  1.7867  1.1731
 1231TIP3   OH2 3656   6.648   0.702   0.770  0.0962 -0.0930  0.0631
 1231TIP3    H1 3657   6.634   0.652   0.690 -0.2267 -0.3038  0.2477
 1231TIP3    H2 3658   6.684   0.786   0.741 -0.7541  0.1340 -0.3617
 1232TIP3   OH2 3659   2.390   1.957   5.106 -0.9078  0.6457 -0.4387
 1232TIP3    H1 3660   2.478   1.975   5.141 -0.4844 -1.4751 -0.2712
 1232TIP3    H2 3661   2.331   2.004   5.165 -0.0448 -0.5465  1.4788
 1233TIP3   OH2 3662   5.686   6.214   1.463  0.2407 -0.2090 -0.0012
 1233TIP3    H1 3663   5.759   6.153   1.451  1.1886  1.1025 -1.4076
 1233TIP3    H2 3664   5.616   6.178   1.408  0.0966 -1.0433  0.7131
 1234TIP3   OH2 3665   4.953   2.793   5.107  0.6472  0.3881  0.4053
 1234TIP3    H1 3666   5.020   2.773   5.042  2.1084  1.4216  1.5279
 1234TIP3    H2 3667   4.915   2.876   5.076 -0.1382 -0.1896 -0.2224
 1235TIP3   OH2 3668   5.315   0.531   3.659  0.3245  0.1183 -0.5225
 1235TIP3    H1 3669   5.401   0.522   3.619 -0.3322 -1.8440 -1.6554
 1235TIP3    H2 3670   5.317   0.471   3.734  0.2764  0.8504  0.0706
 1236TIP3   OH2 3671   4.108   4.184   2.414  0.1577  0.3517 -0.2886
 1236TIP3    H1 3672   4.145   4.252   2.470  0.1214 -0.0354  0.2158
 1236TIP3    H2 3673   4.086   4.113   2.475  3.5456 -1.6565 -1.1174
 1237TIP3   OH2 3674   5.518   2.869   4.253  0.3764  0.0647  0.4032
 1237TIP3    H1 3675   5.533   2.848   4.161  0.0715 -2.1358  0.8170
 1237TIP3    H2 3676   5.437   2.920   4.252  0.0453 -0.4524 -0.4808
 1238TIP3   OH2 3677   0.538   5.948   1.469  0.0344 -0.6140  0.0764
 1238TIP3    H1 3678   0.568   6.034   1.440  2.1230 -2.1019 -2.6825
 1238TIP3    H2 3679   0.567   5.942   1.560  1.5874  0.8778 -0.2645
 1239TIP3   OH2 3680   7.050   6.811   4.411 -0.0482  0.0536 -0.1104
 1239TIP3    H1 3681   7.114   6.862   4.461  0.7771  0.4575 -1.5008
 1239TIP3    H2 3682   7.098   6.733   4.384 -0.0833  0.4149 -1.2685
 1240TIP3   OH2 3683   0.573   3.109   0.955  0.4235  0.3280  0.5423
 1240TIP3    H1 3684   0.572   3.176   0.886 -0.1982 -0.2718 -0.0477
 1240TIP3    H2 3685   0.486   3.112   0.993  0.5061  0.0940  0.7548
 1241TIP3   OH2 3686   1.642   4.197   4.715  0.5018  0.5357 -0.0416
 1241TIP3    H1 3687   1.675   4.275   4.670  0.5347 -0.0495 -1.0543
 1241TIP3    H2 3688   1.711   4.174   4.777  1.2993  0.2660 -1.0099
 1242TIP3   OH2 3689   0.750   4.080   4.843  0.0524 -0.7255  0.1016
 1242TIP3    H1 3690   0.798   4.134   4.907  1.5188 -1.9361  0.0895
 1242TIP3    H2 3691   0.728   4.001   4.891 -1.1447 -0.5799 -0.1818
 1243TIP3   OH2 3692   4.860   2.082   4.955 -0.5857 -0.8628  0.4950
 1243TIP3    H1 3693   4.954   2.081   4.972 -0.5870 -3.1945  0.5788
 1243TIP3    H2 3694   4.824   2.138   5.024  0.7135  0.1461  0.3948
 1244TIP3   OH2 3695   3.354   1.085   1.519  0.6170  0.1680 -0.0986
 1244TIP3    H1 3696   3.448   1.066   1.515  0.3938 -0.7964 -1.8319
 1244TIP3    H2 3697   3.337   1.139   1.442 -0.7627 -2.4498 -1.7797
 1245TIP3   OH2 3698   6.776   3.167   4.776  0.3524  0.2982 -0.1017
 1245TIP3    H1 3699   6.856   3.216   4.757  1.4611 -1.5157 -0.3025
 1245TIP3    H2 3700   6.713   3.234   4.802  2.0702  1.7470  0.5635
 1246TIP3   OH2 3701   2.292   1.316   4.794 -0.2941 -0.4005  0.6565
 1246TIP3    H1 3702   2.358   1.330   4.862 -0.2363 -2.9929  1.2407
 1246TIP3    H2 3703   2.224   1.380   4.812  0.2020 -0.3445  2.5333
 1247TIP3   OH2 3704   4.440   3.994   3.945  0.2274  0.8370 -0.6567
 1247TIP3    H1 3705   4.441   4.070   4.004 -0.0513 -0.7941  1.5423
 1247TIP3    H2 3706   4.349   3.965   3.944  0.3957  0.3134 -1.2001
 1248TIP3   OH2 3707   3.941   3.641   1.376  0.1176 -0.3505 -0.3309
 1248TIP3    H1 3708   3.983   3.687   1.304 -1.4905 -0.7920 -1.6444
 1248TIP3    H2 3709   3.908   3.560   1.336 -2.4581  0.2453  0.4079
 1249TIP3   OH2 3710   0.207   1.751   3.264 -0.1613  0.0263 -0.0677
 1249TIP3    H1 3711   0.287   1.701   3.242  0.8061  1.6040 -0.2944
 1249TIP3    H2 3712   0.207   1.753   3.360  0.0953  0.0580 -0.0655
 1250TIP3   OH2 3713   3.967   3.410   5.664 -0.3420 -0.3463 -0.4305
 1250TIP3    H1 3714   4.057   3.384   5.683  0.0643  0.3311 -1.4001
 1250TIP3    H2 3715   3.924   3.328   5.639 -0.3053 -0.8689  1.1276
 1251TIP3   OH2 3716   4.115   6.419   1.385 -0.8257  0.0932  0.2715
 1251TIP3    H1 3717   4.132   6.325   1.375  1.5706  0.6518 -1.9064
 1251TIP3    H2 3718   4.067   6.443   1.306 -1.2237  0.7585  0.7052
 1252TIP3   OH2 3719   6.869   5.881   3.295  0.3323  0.5962 -0.2275
 1252TIP3    H1 3720   6.811   5.851   3.365  1.9070 -1.2446  0.3620
 1252TIP3    H2 3721   6.909   5.961   3.328 -0.3782  0.8005  0.1588
 1253TIP3   OH2 3722   2.072   1.900   1.062  0.1245  0.6255 -0.2290
 1253TIP3    H1 3723   2.076   1.859   0.975 -0.8378 -0.8207  0.3644
 1253TIP3    H2 3724   1.995   1.957   1.057  1.0672  1.8988 -0.8379
 1254TIP3   OH2 3725   2.871   0.238   4.094 -0.0174  0.6423  0.0393
 1254TIP3    H1 3726   2.784   0.254   4.131 -1.1604 -2.6227 -0.9357
 1254TIP3    H2 3727   2.899   0.156   4.134  2.0932  1.0052 -0.6136
 1255TIP3   OH2 3728   0.466   0.432   4.235  0.0016 -0.2970 -0.2443
 1255TIP3    H1 3729   0.488   0.410   4.326 -2.3286  1.7617  0.9530
 1255TIP3    H2 3730   0.388   0.381   4.216  0.5544 -0.8126 -1.1570
 1256TIP3   OH2 3731   2.299   0.489   4.092  0.1912  0.0650 -0.3363
 1256TIP3    H1 3732   2.326   0.508   4.002 -1.1121 -0.2193 -0.8172
 1256TIP3    H2 3733   2.305   0.394   4.099 -2.5661 -0.2565 -1.1592
 1257TIP3   OH2 3734   6.160   1.050   4.908  0.1663  0.2859 -0.6420
 1257TIP3    H1 3735   6.252   1.066   4.932  0.2383 -1.1328  0.1373
 1257TIP3    H2 3736   6.162   0.967   4.861 -0.7872 -0.0728 -0.0790
 1258TIP3   OH2 3737   5.154   0.341   3.487 -0.4999 -0.3722  0.2390
 1258TIP3    H1 3738   5.111   0.259   3.464 -1.3622  0.4319 -1.1764
 1258TIP3    H2 3739   5.106   0.371   3.565  0.0789 -1.3669  1.0082
 1259TIP3   OH2 3740   2.227   2.583   4.826 -0.0506  0.3844  0.2134
 1259TIP3    H1 3741   2.267   2.621   4.904 -0.6548  0.3088  0.5674
 1259TIP3    H2 3742   2.225   2.489   4.843  1.1707  0.1941 -0.5376
 1260TIP3   OH2 3743   1.980   0.742   5.853  0.2430 -0.4100  0.0603
 1260TIP3    H1 3744   2.057   0.690   5.877  0.0862 -1.0784 -0.8458
 1260TIP3    H2 3745   2.010   0.833   5.863  0.4725 -0.6411  1.7838
 1261TIP3   OH2 3746   0.294   3.550   2.273 -0.0694 -0.0033  0.0300
 1261TIP3    H1 3747   0.341   3.485   2.221  0.7193  1.3813 -1.0715
 1261TIP3    H2 3748   0.224   3.501   2.316 -1.6536 -1.0792 -3.4123
 1262TIP3   OH2 3749   3.456   6.278   4.155 -0.0451  0.9037 -0.6131
 1262TIP3    H1 3750   3.491   6.339   4.219  0.9455 -0.5532  0.2946
 1262TIP3    H2 3751   3.464   6.192   4.197 -2.8519  0.2526 -1.1677
 1263TIP3   OH2 3752   1.396   6.562   0.434  0.5022  0.4511 -0.0782
 1263TIP3    H1 3753   1.329   6.545   0.500  0.6031  2.8220  0.7123
 1263TIP3    H2 3754   1.377   6.650   0.402  1.5558  0.0670 -1.9242
 1264TIP3   OH2 3755   4.300   1.777   3.995  0.0213  0.6109 -0.2488
 1264TIP3    H1 3756   4.304   1.848   4.059 -2.5778  1.6429 -1.1186
 1264TIP3    H2 3757   4.312   1.821   3.911 -0.5965 -0.1244 -0.7257
 1265TIP3   OH2 3758   4.343   4.365   4.360 -0.6020 -0.0243 -0.1391
 1265TIP3    H1 3759   4.277   4.425   4.324  1.1132  2.1942  0.2522
 1265TIP3    H2 3760   4.302   4.328   4.438 -2.8220 -1.7870 -1.9724
 1266TIP3   OH2 3761   6.183   6.201   0.799 -0.3393  0.1116 -0.3979
 1266TIP3    H1 3762   6.241   6.156   0.738 -1.1166 -1.8866  0.2406
 1266TIP3    H2 3763   6.130   6.131   0.837 -1.4726  1.5764  0.8462
 1267TIP3   OH2 3764   6.909   6.022   1.849 -0.2099 -0.2692  0.6424
 1267TIP3    H1 3765   7.002   6.045   1.849 -0.5711  1.3655 -0.3525
 1267TIP3    H2 3766   6.864   6.103   1.826 -1.8738 -1.1262  0.6829
 1268TIP3   OH2 3767   2.882   2.944   3.362  0.5874 -0.0965  0.9767
 1268TIP3    H1 3768   2.950   2.922   3.426 -0.8156 -3.1145  1.6304
 1268TIP3    H2 3769   2.805   2.963   3.415 -0.1876 -1.0922  0.2583
 1269TIP3   OH2 3770   5.631   4.407   4.549  0.0372  0.1547  0.1914
 1269TIP3    H1 3771   5.577   4.334   4.580 -0.3542  0.8834  1.2744
 1269TIP3    H2 3772   5.638   4.465   4.624  0.0144  1.4404 -0.7716
 1270TIP3   OH2 3773   3.919   1.704   1.526 -0.8216  0.1362 -0.4519
 1270TIP3    H1 3774   3.962   1.757   1.459  0.7056  1.3242  1.3828
 1270TIP3    H2 3775   3.964   1.726   1.607 -2.1832 -1.7295  0.8951
 1271TIP3   OH2 3776   1.266   6.383   5.564  0.3143  0.0165 -0.3803
 1271TIP3    H1 3777   1.234   6.385   5.473 -2.6465  0.3551  0.5642
 1271TIP3    H2 3778   1.295   6.293   5.577 -3.2213 -1.3139 -0.5427
 1272TIP3   OH2 3779   2.622   3.970   2.280  0.2921 -0.1612 -0.2667
 1272TIP3    H1 3780   2.668   3.898   2.324 -1.0829 -2.1961 -1.9799
 1272TIP3    H2 3781   2.541   3.981   2.330 -0.1332 -0.7907 -0.7962
 1273TIP3   OH2 3782   0.636   0.937   0.554  0.2855 -0.0511  0.6638
 1273TIP3    H1 3783   0.686   1.009   0.513 -0.2689  0.5753  1.0681
 1273TIP3    H2 3784   0.598   0.890   0.481 -0.6124  0.9976  0.4286
 1274TIP3   OH2 3785   3.335   5.222   1.618  0.2371 -0.4228  0.3080
 1274TIP3    H1 3786   3.414   5.274   1.604  1.6533 -2.5817 -0.1938
 1274TIP3    H2 3787   3.347   5.182   1.704 -0.1313 -1.0855  0.0542
 1275TIP3   OH2 3788   2.278   5.908   4.135 -0.0778 -0.0924 -0.2440
 1275TIP3    H1 3789   2.236   5.890   4.219  0.8839 -1.2928  0.0091
 1275TIP3    H2 3790   2.206   5.913   4.073 -0.7546  0.1787  0.5373
 1276TIP3   OH2 3791   0.454   1.290   5.047  0.1389 -0.3392 -0.0017
 1276TIP3    H1 3792   0.436   1.363   4.988 -0.5207 -0.5700 -0.0899
 1276TIP3    H2 3793   0.441   1.212   4.993 -0.0773 -0.5446  0.3458
 1277TIP3   OH2 3794   2.872   2.681   0.124  0.0342  0.0354  0.3576
 1277TIP3    H1 3795   2.781   2.711   0.124  0.1109  0.2690  0.2206
 1277TIP3    H2 3796   2.898   2.684   0.216  0.4245  1.5678  0.2106
 1278TIP3   OH2 3797   2.232   6.181   4.983 -0.4139 -0.0870  0.1938
 1278TIP3    H1 3798   2.149   6.141   4.958 -0.1294 -0.0347 -0.8891
 1278TIP3    H2 3799   2.285   6.177   4.903 -0.4234  2.5882 -0.0339
 1279TIP3   OH2 3800   4.759   5.126   3.109 -0.5503  0.4090  0.0735
 1279TIP3    H1 3801   4.761   5.203   3.165 -1.5449  0.7921 -0.4044
 1279TIP3    H2 3802   4.675   5.130   3.064 -1.0038 -1.3956  0.6574
 1280TIP3   OH2 3803   0.615   5.820   1.197 -0.2928 -0.2832 -0.3957
 1280TIP3    H1 3804   0.622   5.902   1.149  1.9362 -0.0854  0.1467
 1280TIP3    H2 3805   0.521   5.801   1.198 -1.3810  3.8177  2.0533
 1281TIP3   OH2 3806   3.415   3.530   5.789 -0.3934  0.3528 -0.2704
 1281TIP3    H1 3807   3.460   3.520   5.704  0.4618  0.1419  0.1930
 1281TIP3    H2 3808   3.334   3.481   5.779 -1.9035  2.9945 -2.0778
 1282TIP3   OH2 3809   2.687   5.998   3.995  0.0875 -0.1430 -0.2021
 1282TIP3    H1 3810   2.711   5.909   4.021 -0.0246 -0.3637 -0.8385
 1282TIP3    H2 3811   2.642   6.034   4.071  2.0038  0.1323  0.8729
 1283TIP3   OH2 3812   0.635   5.281   1.791  0.3177 -0.4900  0.0665
 1283TIP3    H1 3813   0.709   5.224   1.768  0.9510  0.3203  0.0556
 1283TIP3    H2 3814   0.671   5.369   1.790 -0.7700 -0.0285 -0.3888
 1284TIP3   OH2 3815   6.876   3.657   3.372  0.2264  0.2292  0.5706
 1284TIP3    H1 3816   6.970   3.644   3.363  0.3226  1.0959  0.2935
 1284TIP3    H2 3817   6.837   3.597   3.308  0.6482  0.9222 -0.3490
 1285TIP3   OH2 3818   4.801   5.467   0.133 -0.3510 -0.0536  0.5824
 1285TIP3    H1 3819   4.765   5.388   0.171 -0.1160  0.3474  1.6824
 1285TIP3    H2 3820   4.728   5.507   0.085  0.0066 -1.8752 -1.6280
 1286TIP3   OH2 3821   3.289   2.813   2.811 -0.1249  0.4054 -0.1320
 1286TIP3    H1 3822   3.278   2.718   2.801 -1.4953  0.4029  0.9989
 1286TIP3    H2 3823   3.312   2.844   2.724  2.0721 -1.1513 -0.1925
 1287TIP3   OH2 3824   0.948   5.971   3.561 -0.4323 -0.1372 -0.0350
 1287TIP3    H1 3825   0.868   6.023   3.567 -0.1360  0.1758  1.4616
 1287TIP3    H2 3826   1.019   6.035   3.555 -0.2042 -0.4017 -0.2408
 1288TIP3   OH2 3827   3.141   1.388   1.125 -0.3432  0.1315  0.5251
 1288TIP3    H1 3828   3.058   1.394   1.172  0.1296 -0.9006  1.5427
 1288TIP3    H2 3829   3.137   1.305   1.079 -0.6311  0.9496 -0.9652
 1289TIP3   OH2 3830   0.735   0.088   1.963  0.3050  0.1334  0.0637
 1289TIP3    H1 3831   0.673   0.016   1.950 -1.9525  1.7731  1.0025
 1289TIP3    H2 3832   0.819   0.054   1.933 -0.8252 -2.5899 -0.2587
 1290TIP3   OH2 3833   6.588   3.650   1.857  0.0962 -0.4931 -0.1813
 1290TIP3    H1 3834   6.678   3.677   1.839 -0.3312  0.3937 -1.0716
 1290TIP3    H2 3835   6.540   3.674   1.778 -0.9982 -0.6243  0.4301
 1291TIP3   OH2 3836   5.824   0.338   4.284 -0.0473  0.5311 -0.0209
 1291TIP3    H1 3837   5.769   0.389   4.225 -0.3284 -0.1156 -0.3293
 1291TIP3    H2 3838   5.797   0.248   4.270  1.3677  0.1447 -0.4952
 1292TIP3   OH2 3839   1.383   1.781   0.752  0.3763 -0.5843  0.1310
 1292TIP3    H1 3840   1.475   1.766   0.776  0.4103  0.2642  0.6003
 1292TIP3    H2 3841   1.363   1.712   0.689  1.7713  0.0690 -1.0953
 1293TIP3   OH2 3842   4.391   3.192   1.699 -0.3623  0.2101  0.2004
 1293TIP3    H1 3843   4.340   3.235   1.768 -0.2995 -1.9623  1.7001
 1293TIP3    H2 3844   4.480   3.190   1.733  0.2107  1.4216 -1.1433
 1294TIP3   OH2 3845   3.380   1.635   0.229 -0.0967 -0.1593 -0.2237
 1294TIP3    H1 3846   3.331   1.664   0.153 -1.1734  0.1568  0.5755
 1294TIP3    H2 3847   3.464   1.681   0.222 -0.9479  1.4665 -0.1349
 1295TIP3   OH2 3848   6.050   5.703   2.458  0.1695  0.4697  0.3032
 1295TIP3    H1 3849   6.022   5.650   2.533  1.5064  0.4357  0.8062
 1295TIP3    H2 3850   6.124   5.754   2.491  0.3091  1.0026 -0.7924
 1296TIP3   OH2 3851   4.347   3.393   4.737  0.3089 -0.1009 -0.3113
 1296TIP3    H1 3852   4.278   3.396   4.803  0.3570 -0.7923 -0.2169
 1296TIP3    H2 3853   4.326   3.316   4.684  1.8332 -1.2981  0.7004
 1297TIP3   OH2 3854   4.715   1.893   1.315  0.0196 -0.4384 -0.6291
 1297TIP3    H1 3855   4.774   1.945   1.370  0.5622 -0.1384 -1.4595
 1297TIP3    H2 3856   4.675   1.958   1.256 -1.8104 -0.5102  0.4730
 1298TIP3   OH2 3857   7.067   5.018   2.614 -0.2883  0.4722  0.7039
 1298TIP3    H1 3858   7.114   5.061   2.543 -0.5475 -0.5191 -0.0768
 1298TIP3    H2 3859   6.975   5.028   2.592 -0.4246  1.2515  1.5573
 1299TIP3   OH2 3860   6.614   3.412   1.093 -0.7603 -0.2355 -0.2061
 1299TIP3    H1 3861   6.578   3.500   1.098 -0.7838 -0.2215 -0.5848
 1299TIP3    H2 3862   6.543   3.356   1.125  0.0179  0.0446  2.1879
 1300TIP3   OH2 3863   4.577   3.531   2.791 -0.7615  0.0459 -0.5772
 1300TIP3    H1 3864   4.531   3.508   2.872 -1.9098  2.3221 -0.5058
 1300TIP3    H2 3865   4.642   3.596   2.818  0.0704 -0.5126 -1.2173
 1301TIP3   OH2 3866   4.776   3.264   0.216  0.1458  0.4811 -0.4352
 1301TIP3    H1 3867   4.723   3.201   0.168  0.9264 -0.3475 -0.2369
 1301TIP3    H2 3868   4.748   3.255   0.307  1.4904 -0.9117 -0.1132
 1302TIP3   OH2 3869   3.720   4.937   5.399 -0.6026 -0.7350  0.0188
 1302TIP3    H1 3870   3.787   4.872   5.422 -1.4557 -1.7355 -0.2090
 1302TIP3    H2 3871   3.638   4.887   5.399 -1.3400  0.4340  0.1868
 1303TIP3   OH2 3872   5.674   1.604   3.888 -0.2727 -0.0086  0.8909
 1303TIP3    H1 3873   5.686   1.677   3.948 -0.7036  0.4321  0.4538
 1303TIP3    H2 3874   5.677   1.526   3.943  1.8080  0.2098  1.1683
 1304TIP3   OH2 3875   3.785   3.038   0.577  0.2633 -0.1162  0.2842
 1304TIP3    H1 3876   3.721   2.978   0.616 -1.3949  0.1324 -1.8317
 1304TIP3    H2 3877   3.846   3.059   0.648 -0.8653 -1.9244  1.8691
 1305TIP3   OH2 3878   0.991   4.761   2.742  0.0632 -0.8101  0.4609
 1305TIP3    H1 3879   0.954   4.741   2.828  0.4873  0.1112  0.8696
 1305TIP3    H2 3880   1.055   4.830   2.758 -0.9276  0.4718 -0.7871
 1306TIP3   OH2 3881   2.243   5.074   0.434  0.1207 -0.0199  0.2990
 1306TIP3    H1 3882   2.177   5.143   0.433  0.3046  0.1667 -1.2986
 1306TIP3    H2 3883   2.239   5.036   0.347  0.5041 -1.5832  0.9269
 1307TIP3   OH2 3884   4.263   3.856   2.444 -0.3878  0.0880  0.0779
 1307TIP3    H1 3885   4.350   3.895   2.436 -0.5589  0.1937 -1.5294
 1307TIP3    H2 3886   4.220   3.908   2.512  0.8240 -0.0381  0.9808
 1308TIP3   OH2 3887   5.839   0.273   2.907  0.0072  0.2697 -0.1090
 1308TIP3    H1 3888   5.887   0.302   2.984  1.9733  0.5406 -1.3655
 1308TIP3    H2 3889   5.849   0.177   2.906 -1.8487  0.0125  1.0761
 1309TIP3   OH2 3890   1.168   1.767   2.606 -0.6308  0.4551  0.5208
 1309TIP3    H1 3891   1.113   1.822   2.551 -0.3834  0.4765  0.2897
 1309TIP3    H2 3892   1.248   1.754   2.555 -0.9714 -0.7264  0.2509
 1310TIP3   OH2 3893   1.259   5.841   2.811 -0.0212 -0.1340 -0.0029
 1310TIP3    H1 3894   1.218   5.816   2.894 -0.0656  2.6658  0.9223
 1310TIP3    H2 3895   1.200   5.806   2.744 -1.5746  0.0733  1.2036
 1311TIP3   OH2 3896   0.837   3.726   2.320 -0.3181 -0.4766  0.5051
 1311TIP3    H1 3897   0.879   3.718   2.234 -0.6008 -0.0267  0.3217
 1311TIP3    H2 3898   0.818   3.820   2.329 -0.7773 -0.5961  0.8243
 1312TIP3   OH2 3899   5.235   4.184   0.598 -0.4822 -0.1200 -0.8214
 1312TIP3    H1 3900   5.330   4.195   0.589 -0.4820  0.1695 -0.4867
 1312TIP3    H2 3901   5.224   4.144   0.685 -0.6586 -0.2781 -0.9148
 1313TIP3   OH2 3902   6.859   1.751   5.705 -0.6563  0.3465  0.5423
 1313TIP3    H1 3903   6.903   1.812   5.765 -0.6398 -0.0455  0.9358
 1313TIP3    H2 3904   6.838   1.675   5.759  0.8850 -0.7465 -0.3128
 1314TIP3   OH2 3905   3.307   2.996   5.409 -0.2406  0.2637  0.0720
 1314TIP3    H1 3906   3.332   3.088   5.415 -0.3867  0.3848 -1.0215
 1314TIP3    H2 3907   3.277   2.974   5.498  0.4257  1.0748  0.5137
 1315TIP3   OH2 3908   2.296   4.835   4.327  0.1615  0.0290 -0.5026
 1315TIP3    H1 3909   2.310   4.927   4.308  2.1475  0.3688  1.9977
 1315TIP3    H2 3910   2.268   4.833   4.419 -0.3240 -1.8187 -0.6365
 1316TIP3   OH2 3911   4.131   5.997   4.394  0.2669 -0.2611 -0.0566
 1316TIP3    H1 3912   4.055   6.024   4.342  0.1359 -1.6201 -0.6255
 1316TIP3    H2 3913   4.105   6.013   4.484 -1.3093 -2.0030 -0.1353
 1317TIP3   OH2 3914   2.932   6.003   4.245 -0.8013  0.3458 -0.1117
 1317TIP3    H1 3915   2.887   5.929   4.205  0.3653  0.2280 -1.2450
 1317TIP3    H2 3916   2.927   6.073   4.180  1.0922  0.1636 -0.5158
 1318TIP3   OH2 3917   6.619   4.439   0.175  0.6195 -0.0224  0.2444
 1318TIP3    H1 3918   6.551   4.413   0.114  0.3720 -0.6710  0.7901
 1318TIP3    H2 3919   6.680   4.491   0.122 -0.9987  1.7856  0.0397
 1319TIP3   OH2 3920   7.135   0.595   2.063  0.0704  0.0910  0.8663
 1319TIP3    H1 3921   7.158   0.503   2.073 -3.5765 -1.4636 -2.5495
 1319TIP3    H2 3922   7.110   0.623   2.151  2.6343 -1.6217  2.2535
 1320TIP3   OH2 3923   2.251   6.804   4.163  0.0897 -0.1594  0.7758
 1320TIP3    H1 3924   2.279   6.715   4.142  0.8359  0.3014 -0.3192
 1320TIP3    H2 3925   2.251   6.849   4.078  2.7035  1.6914  1.6429
 1321TIP3   OH2 3926   1.192   1.993   0.402  0.0487  0.5513 -0.3073
 1321TIP3    H1 3927   1.118   1.986   0.462 -0.5531 -0.4337 -1.1376
 1321TIP3    H2 3928   1.153   1.985   0.315  1.1675 -0.3924 -0.7423
 1322TIP3   OH2 3929   3.802   5.085   0.214  0.4479 -0.4016 -0.0697
 1322TIP3    H1 3930   3.824   5.125   0.130  1.8358 -1.7212 -0.3845
 1322TIP3    H2 3931   3.831   5.149   0.279  1.4373 -0.3045 -0.5813
 1323TIP3   OH2 3932   3.834   2.121   1.158 -0.1781 -0.2148 -0.0242
 1323TIP3    H1 3933   3.871   2.109   1.246  1.9980  0.4863 -0.7915
 1323TIP3    H2 3934   3.833   2.033   1.120  1.7317 -0.1360 -0.3422
 1324TIP3   OH2 3935   1.483   2.291   2.642  0.3588 -0.6861  0.0417
 1324TIP3    H1 3936   1.449   2.357   2.702  2.2844  0.6259 -0.2345
 1324TIP3    H2 3937   1.506   2.340   2.563  0.0947 -2.0107 -0.9023
 1325TIP3   OH2 3938   2.712   4.318   3.174 -0.4102  0.1810  0.7663
 1325TIP3    H1 3939   2.685   4.230   3.200 -0.6292 -0.3766 -1.2449
 1325TIP3    H2 3940   2.791   4.335   3.227  0.4349 -1.7723  0.2347
 1326TIP3   OH2 3941   2.573   0.702   2.617  0.8018  0.0748 -0.0554
 1326TIP3    H1 3942   2.563   0.638   2.687 -2.4405 -1.5378 -1.7547
 1326TIP3    H2 3943   2.561   0.787   2.660  1.5421 -0.6505  1.6871
 1327TIP3   OH2 3944   5.379   1.100   1.879  0.0579 -0.6535  0.0659
 1327TIP3    H1 3945   5.403   1.147   1.799 -1.0993 -1.3494 -0.7193
 1327TIP3    H2 3946   5.426   1.146   1.948  1.7462 -0.5305 -1.0918
 1328TIP3   OH2 3947   3.150   3.431   3.611 -0.2083 -0.3723  0.0669
 1328TIP3    H1 3948   3.206   3.473   3.545 -0.6618  3.2953  1.8010
 1328TIP3    H2 3949   3.187   3.459   3.695 -2.1926 -1.3237  1.3211
 1329TIP3   OH2 3950   0.722   6.021   3.916 -0.0021 -0.1290  0.2211
 1329TIP3    H1 3951   0.733   6.022   4.011 -0.2013  0.9171  0.2379
 1329TIP3    H2 3952   0.741   6.110   3.888 -0.0971 -0.3885 -0.7126
 1330TIP3   OH2 3953   4.757   2.682   0.655 -0.5778  0.3543  0.3933
 1330TIP3    H1 3954   4.823   2.734   0.700 -0.5458 -1.6833  2.9335
 1330TIP3    H2 3955   4.806   2.610   0.615 -0.9838  0.2415  0.0930
 1331TIP3   OH2 3956   4.965   5.159   3.548 -0.0817 -0.2972 -0.2361
 1331TIP3    H1 3957   4.976   5.117   3.462 -0.1862  0.9780 -0.8893
 1331TIP3    H2 3958   5.051   5.199   3.565  0.9096 -2.9284  1.6242
 1332TIP3   OH2 3959   4.808   2.349   4.306 -0.3151 -1.1086 -0.0506
 1332TIP3    H1 3960   4.841   2.272   4.352 -0.2691 -1.0101  0.0823
 1332TIP3    H2 3961   4.817   2.328   4.213 -0.3386 -1.2785 -0.0142
 1333TIP3   OH2 3962   5.026   6.639   3.754 -0.3374 -0.7017 -0.0489
 1333TIP3    H1 3963   5.116   6.611   3.769  0.2795  1.5355  0.9508
 1333TIP3    H2 3964   5.008   6.614   3.664  1.3686 -1.0075 -0.3497
 1334TIP3   OH2 3965   5.695   4.719   3.349  0.4818  0.2805  0.3133
 1334TIP3    H1 3966   5.744   4.660   3.406  1.7237 -0.6246 -1.5957
 1334TIP3    H2 3967   5.730   4.806   3.367  1.6118 -0.1362  0.1848
 1335TIP3   OH2 3968   5.542   4.079   0.024 -0.0163  0.0409  0.1453
 1335TIP3    H1 3969   5.583   4.008  -0.024  0.4311  1.4929 -1.7692
 1335TIP3    H2 3970   5.576   4.072   0.113  2.2431 -0.4413 -0.7050
 1336TIP3   OH2 3971   2.400   2.034   3.057 -0.4097  0.2267 -0.2157
 1336TIP3    H1 3972   2.398   2.026   3.153 -0.6239  1.4220 -0.1058
 1336TIP3    H2 3973   2.321   2.083   3.035 -1.4312 -1.7995 -1.2183
 1337TIP3   OH2 3974   4.833   4.453   1.582  0.2658 -0.4359 -0.4828
 1337TIP3    H1 3975   4.826   4.408   1.666  0.2729 -0.1346 -0.3241
 1337TIP3    H2 3976   4.825   4.382   1.517 -1.5347 -0.4514 -0.2771
 1338TIP3   OH2 3977   4.566   0.452   4.702 -0.5200 -0.1217 -0.6225
 1338TIP3    H1 3978   4.495   0.470   4.764  0.1156  3.1917 -0.6714
 1338TIP3    H2 3979   4.578   0.357   4.707 -3.7277 -0.5997  0.6803
 1339TIP3   OH2 3980   0.076   3.367   3.360 -0.1186  0.2846 -0.0000
 1339TIP3    H1 3981   0.167   3.363   3.387 -0.2287  0.3015  0.3756
 1339TIP3    H2 3982   0.034   3.292   3.403 -0.5610  1.0242  0.9016
 1340TIP3   OH2 3983   4.033   3.813   4.331  0.0969 -0.3446 -0.2446
 1340TIP3    H1 3984   4.091   3.889   4.338  0.7301 -0.6386 -1.8203
 1340TIP3    H2 3985   3.945   3.850   4.334  0.3629  0.2559  0.7389
 1341TIP3   OH2 3986   5.421   4.106   2.830 -0.1000 -0.2584 -0.4552
 1341TIP3    H1 3987   5.346   4.080   2.777 -0.1854 -0.4775 -0.2234
 1341TIP3    H2 3988   5.437   4.032   2.888 -0.3577  0.2061  0.2145
 1342TIP3   OH2 3989   1.985   0.504   2.485 -0.1142  0.0057  0.4518
 1342TIP3    H1 3990   1.973   0.409   2.492  0.0858  0.1114  3.3134
 1342TIP3    H2 3991   1.907   0.534   2.438 -1.1319 -1.4011  1.1525
 1343TIP3   OH2 3992   2.217   2.430   0.612  0.1806 -0.0163 -0.2189
 1343TIP3    H1 3993   2.252   2.507   0.567  0.8572 -0.7656 -1.0108
 1343TIP3    H2 3994   2.216   2.362   0.545 -0.8888 -0.5703  0.3394
 1344TIP3   OH2 3995   6.708   1.460   5.446 -0.2407 -0.5586  1.1026
 1344TIP3    H1 3996   6.620   1.496   5.441 -0.3096 -0.8457  0.0975
 1344TIP3    H2 3997   6.704   1.377   5.400  0.9996  0.3547 -0.8012
 1345TIP3   OH2 3998   4.697   0.376   5.529  0.6593  0.0093 -0.4619
 1345TIP3    H1 3999   4.675   0.383   5.622 -2.7451  0.9868 -1.2026
 1345TIP3    H2 4000   4.792   0.367   5.528  0.7594 -1.3728  3.1520
 1346TIP3   OH2 4001   1.018   0.649   0.802  0.1863  0.1693  0.5686
 1346TIP3    H1 4002   1.004   0.725   0.745  0.6240  1.4921  2.1595
 1346TIP3    H2 4003   0.929   0.618   0.822 -0.0547  0.9409  0.7590
 1347TIP3   OH2 4004   5.558   4.627   2.233  0.4356 -0.5509  0.0687
 1347TIP3    H1 4005   5.522   4.712   2.257  1.3470 -0.5229  1.4079
 1347TIP3    H2 4006   5.481   4.572   2.218 -0.1592  0.2869 -0.0234
 1348TIP3   OH2 4007   1.998   5.777  -0.001 -0.0985  0.7464  0.3988
 1348TIP3    H1 4008   1.962   5.772   0.087 -0.8303  0.5244  0.0939
 1348TIP3    H2 4009   1.970   5.863  -0.034  0.3796  0.9325  0.4637
 1349TIP3   OH2 4010   0.704   3.939   1.516 -0.3765  0.2708  0.4606
 1349TIP3    H1 4011   0.759   4.018   1.519 -1.0101  0.8489 -1.5772
 1349TIP3    H2 4012   0.765   3.870   1.491 -0.1258  0.4066  0.6751
 1350TIP3   OH2 4013   0.845   2.589   0.604  0.2660 -0.3359 -0.2627
 1350TIP3    H1 4014   0.915   2.573   0.668 -0.3710 -0.2160  0.4743
 1350TIP3    H2 4015   0.785   2.516   0.616 -1.2521  1.0729  1.2102
 1351TIP3   OH2 4016   5.602   1.407   4.064  0.2864 -0.4291 -0.2612
 1351TIP3    H1 4017   5.633   1.431   4.151 -1.4688  0.4735  0.1536
 1351TIP3    H2 4018   5.663   1.339   4.035  2.5162  1.1084  0.5514
 1352TIP3   OH2 4019   1.850   5.381   2.249  0.8372 -0.0352  0.0084
 1352TIP3    H1 4020   1.913   5.309   2.248  1.2257  0.2889  0.4048
 1352TIP3    H2 4021   1.791   5.360   2.322  1.2354  0.2758  0.4298
 1353TIP3   OH2 4022   1.061   3.928   1.195  0.2660 -0.2292 -0.1246
 1353TIP3    H1 4023   1.052   3.861   1.127  1.5662  1.2770 -1.8980
 1353TIP3    H2 4024   1.126   3.892   1.256  1.8696 -0.1858 -1.7046
 1354TIP3   OH2 4025   6.600   1.145   3.986 -0.1362 -0.4703  0.0011
 1354TIP3    H1 4026   6.563   1.233   3.984 -0.8391 -0.7634 -1.4812
 1354TIP3    H2 4027   6.534   1.093   4.032 -0.1103 -0.3883  0.1329
 1355TIP3   OH2 4028   6.192   3.498   2.995 -0.3651 -0.1933  0.3342
 1355TIP3    H1 4029   6.241   3.502   2.913 -0.9390 -1.1722 -0.0844
 1355TIP3    H2 4030   6.252   3.457   3.057 -1.0485 -2.7192 -0.5487
 1356TIP3   OH2 4031   1.800   6.732   0.682  0.3020 -0.2403 -0.6129
 1356TIP3    H1 4032   1.863   6.803   0.666 -0.1620  0.0197 -1.3180
 1356TIP3    H2 4033   1.782   6.696   0.595  0.5844 -1.2806 -0.2606
 1357TIP3   OH2 4034   1.946   0.553   1.223 -0.7848  0.1081 -0.3482
 1357TIP3    H1 4035   2.020   0.536   1.282 -0.6862  1.0931 -0.1785
 1357TIP3    H2 4036   1.872   0.569   1.282 -0.8615  0.3180 -0.5018
 1358TIP3   OH2 4037   0.481   4.523   4.679 -0.0044  0.2771 -0.2510
 1358TIP3    H1 4038   0.488   4.542   4.585  0.1583  0.6792 -0.1580
 1358TIP3    H2 4039   0.544   4.452   4.694 -0.3615 -0.1071 -0.5304
 1359TIP3   OH2 4040   1.807   5.525   0.812 -0.0141 -0.1282 -0.2973
 1359TIP3    H1 4041   1.846   5.465   0.876 -0.0419  0.9573  0.7558
 1359TIP3    H2 4042   1.718   5.492   0.801 -0.8441  1.0943  2.1413
 1360TIP3   OH2 4043   6.657   4.562   4.281 -0.1057  0.1793 -0.1186
 1360TIP3    H1 4044   6.562   4.552   4.274 -0.4955  2.1022  1.4996
 1360TIP3    H2 4045   6.676   4.646   4.240  0.6750  0.4988  0.8339
 1361TIP3   OH2 4046   0.608   0.770   4.639 -0.0476  0.0627 -0.2325
 1361TIP3    H1 4047   0.535   0.725   4.597 -0.2899  0.2724 -0.0399
 1361TIP3    H2 4048   0.629   0.843   4.580  0.5070 -0.4398 -0.6688
 1362TIP3   OH2 4049   3.295   1.747   3.517 -0.4106  0.5718 -0.4135
 1362TIP3    H1 4050   3.373   1.790   3.553 -0.1276 -1.4209  1.5007
 1362TIP3    H2 4051   3.320   1.725   3.427  1.0742  0.3915  0.0190
 1363TIP3   OH2 4052   1.973   1.161   0.348  0.2850 -0.3124 -0.1856
 1363TIP3    H1 4053   1.977   1.071   0.381 -0.7392 -0.8631 -1.4733
 1363TIP3    H2 4054   2.056   1.174   0.304  0.6365 -0.4470  0.4208
 1364TIP3   OH2 4055   2.020   0.446   4.124 -0.2921  0.3953  0.0165
 1364TIP3    H1 4056   2.039   0.400   4.206  0.9929  1.5391  0.3995
 1364TIP3    H2 4057   2.106   0.475   4.092 -0.9158  1.2471 -0.9628
 1365TIP3   OH2 4058   2.403   2.297   5.555  0.3568 -0.1180  0.2917
 1365TIP3    H1 4059   2.492   2.315   5.525 -0.5202  1.0801 -1.7865
 1365TIP3    H2 4060   2.354   2.375   5.531 -1.7009 -1.6126 -0.5543
 1366TIP3   OH2 4061   4.379   2.434   2.363 -0.1139  0.4749 -0.4030
 1366TIP3    H1 4062   4.444   2.378   2.321 -0.6806 -0.9529  0.5556
 1366TIP3    H2 4063   4.338   2.482   2.290  1.8090  1.2398 -1.0335
 1367TIP3   OH2 4064   5.750   2.233   1.185  1.1413 -0.2692  0.2661
 1367TIP3    H1 4065   5.815   2.289   1.142 -0.3207  0.9402 -0.4931
 1367TIP3    H2 4066   5.733   2.164   1.121  1.6583 -0.5820  0.4621
 1368TIP3   OH2 4067   2.660   2.666   5.843 -0.4031  0.0823  0.1043
 1368TIP3    H1 4068   2.718   2.686   5.917  1.4704 -0.7336 -1.0607
 1368TIP3    H2 4069   2.712   2.607   5.787 -2.5239 -1.0128 -0.8290
 1369TIP3   OH2 4070   6.638   2.508   0.492  0.0846  0.4294  0.4132
 1369TIP3    H1 4071   6.659   2.592   0.450  1.6549 -0.0351  0.1960
 1369TIP3    H2 4072   6.693   2.508   0.571  0.6789 -0.7153  0.0147
 1370TIP3   OH2 4073   4.970   4.665   0.569 -0.5061 -0.3730 -0.8501
 1370TIP3    H1 4074   5.059   4.636   0.549 -0.0159  0.5131 -0.0127
 1370TIP3    H2 4075   4.966   4.755   0.536 -0.3923  0.3265  0.9381
 1371TIP3   OH2 4076   3.234   0.658   2.232 -0.1232 -0.3929  0.6899
 1371TIP3    H1 4077   3.231   0.645   2.137  0.8324 -0.6192  0.6832
 1371TIP3    H2 4078   3.237   0.753   2.244  1.0299 -0.3820  0.4360
 1372TIP3   OH2 4079   6.963   6.125   0.141 -0.1175  0.6775  0.4752
 1372TIP3    H1 4080   7.039   6.124   0.083  1.3490 -0.7655  2.2826
 1372TIP3    H2 4081   6.919   6.042   0.124 -1.6886  1.7499 -0.9685
 1373TIP3   OH2 4082   0.863   4.575   5.601 -0.1440 -0.0570  0.0363
 1373TIP3    H1 4083   0.838   4.559   5.692  2.6927 -0.4863  0.8319
 1373TIP3    H2 4084   0.831   4.498   5.554 -0.9279 -0.2224  0.8159
 1374TIP3   OH2 4085   6.827   6.524   0.874  0.0889  0.1507 -0.4502
 1374TIP3    H1 4086   6.759   6.462   0.898 -0.3473  0.8270  0.1084
 1374TIP3    H2 4087   6.908   6.473   0.873 -0.0733 -0.1751  1.2125
 1375TIP3   OH2 4088   1.993   4.215   1.754  0.4398 -0.1396  0.0116
 1375TIP3    H1 4089   1.936   4.172   1.818  0.6493  0.0434  0.3255
 1375TIP3    H2 4090   1.972   4.308   1.762  1.8775  0.1226  1.2628
 1376TIP3   OH2 4091   1.939   6.674   4.183 -0.7318 -0.0848  0.1648
 1376TIP3    H1 4092   1.878   6.720   4.242 -1.0512 -0.9036  0.4886
 1376TIP3    H2 4093   2.025   6.713   4.203 -1.3695  2.6904 -1.8566
 1377TIP3   OH2 4094   5.016   6.583   3.448 -0.0069 -0.2839 -0.4471
 1377TIP3    H1 4095   4.943   6.615   3.395  0.6646 -0.0734 -1.2658
 1377TIP3    H2 4096   5.046   6.505   3.402  1.1334  0.3899 -0.8617
 1378TIP3   OH2 4097   4.870   3.640   0.720  0.8125 -0.2042  0.2102
 1378TIP3    H1 4098   4.938   3.608   0.661  0.5704  0.7802 -0.6377
 1378TIP3    H2 4099   4.917   3.689   0.787  0.9573  0.2835 -0.2463
 1379TIP3   OH2 4100   1.281   2.922   2.594 -0.2863  0.4288 -0.0605
 1379TIP3    H1 4101   1.187   2.908   2.597 -0.3262  0.7863  0.4986
 1379TIP3    H2 4102   1.301   2.933   2.501 -0.4840 -1.7118 -0.3986
 1380TIP3   OH2 4103   1.784   4.995   2.635 -0.3216 -0.2418  0.3786
 1380TIP3    H1 4104   1.692   4.968   2.639 -0.7982  1.1545 -0.5473
 1380TIP3    H2 4105   1.821   4.941   2.565 -0.3027 -1.1208  1.0449
 1381TIP3   OH2 4106   5.993   5.184   1.497 -0.5904 -0.3987  0.4760
 1381TIP3    H1 4107   5.996   5.167   1.403 -0.2083 -2.4093  0.8206
 1381TIP3    H2 4108   5.989   5.280   1.504  0.1787 -0.1795 -1.5569
 1382TIP3   OH2 4109   2.436   3.817   1.867 -0.0682 -0.3372  0.2049
 1382TIP3    H1 4110   2.457   3.854   1.781 -0.7048  1.1558  0.6588
 1382TIP3    H2 4111   2.436   3.893   1.925 -1.0344 -1.1327  1.2664
 1383TIP3   OH2 4112   3.291   3.832   3.384  0.0466  0.0318  0.2756
 1383TIP3    H1 4113   3.274   3.838   3.290  1.9894 -0.3005 -0.1435
 1383TIP3    H2 4114   3.309   3.921   3.412  1.0114 -0.0710 -0.0049
 1384TIP3   OH2 4115   4.765   4.029   1.545  0.5702  0.4342 -0.2037
 1384TIP3    H1 4116   4.696   4.003   1.607  0.6083 -0.8623 -0.6793
 1384TIP3    H2 4117   4.836   4.063   1.601 -0.4054  1.7628  0.2942
 1385TIP3   OH2 4118   1.550   1.071   1.552 -0.1931  0.1506 -0.0966
 1385TIP3    H1 4119   1.577   1.027   1.632  2.4914  1.4750 -0.1717
 1385TIP3    H2 4120   1.530   1.000   1.491 -0.8543 -0.8690  1.2605
 1386TIP3   OH2 4121   5.471   2.354   2.311  0.1434 -0.2200  0.3237
 1386TIP3    H1 4122   5.425   2.336   2.393 -0.6046  3.2719  0.8359
 1386TIP3    H2 4123   5.541   2.414   2.336 -0.2015  1.0434 -1.5630
 1387TIP3   OH2 4124   1.607   3.519   0.399  0.7308 -0.0191  0.3348
 1387TIP3    H1 4125   1.669   3.592   0.405  1.2374 -0.3161 -1.0322
 1387TIP3    H2 4126   1.523   3.561   0.381  0.9010  0.2708  0.2034
 1388TIP3   OH2 4127   5.621   0.917   5.168  0.1306 -0.0862 -0.8107
 1388TIP3    H1 4128   5.632   0.866   5.088 -1.7662  0.6833 -1.6272
 1388TIP3    H2 4129   5.635   1.008   5.140 -0.3628  0.1693 -0.2550
 1389TIP3   OH2 4130   4.299   2.705   1.374 -0.1733  0.3216 -0.5085
 1389TIP3    H1 4131   4.334   2.622   1.406  0.6475  0.9965  0.4380
 1389TIP3    H2 4132   4.276   2.689   1.283 -0.0052 -0.9302 -0.3399
 1390TIP3   OH2 4133   4.977   4.132   5.360  0.5315  0.7543  0.4094
 1390TIP3    H1 4134   4.894   4.096   5.393  0.0449  0.9822 -0.5091
 1390TIP3    H2 4135   4.949   4.201   5.300  1.3887  0.4512 -0.3425
 1391TIP3   OH2 4136   5.728   2.533   4.991 -0.2353  0.1530 -0.5989
 1391TIP3    H1 4137   5.648   2.483   4.973  0.4648 -0.8594 -0.9692
 1391TIP3    H2 4138   5.696   2.619   5.020 -1.4497 -0.1101 -1.0838
 1392TIP3   OH2 4139   3.930   0.716   1.905  0.3705  0.0414 -0.3871
 1392TIP3    H1 4140   3.971   0.788   1.953  0.9911 -1.2410  1.1219
 1392TIP3    H2 4141   3.969   0.720   1.818 -1.7999  3.2778 -1.3673
 1393TIP3   OH2 4142   0.126   0.573   5.419 -0.3417  1.2090 -0.3983
 1393TIP3    H1 4143   0.198   0.570   5.357 -0.3305  0.0398 -0.3378
 1393TIP3    H2 4144   0.164   0.544   5.502 -0.8418  0.7609 -0.3232
 1394TIP3   OH2 4145   1.294   4.416   4.470  0.1312 -0.5210 -0.4803
 1394TIP3    H1 4146   1.234   4.391   4.541  1.1448 -1.5467  0.0372
 1394TIP3    H2 4147   1.315   4.334   4.426 -0.3490  0.0791 -1.9071
 1395TIP3   OH2 4148   5.754   2.070   4.014  0.3166 -0.2917  0.1694
 1395TIP3    H1 4149   5.824   2.028   3.965  0.1125  0.2456 -0.5972
 1395TIP3    H2 4150   5.714   2.131   3.952  0.0851  0.4388  1.0099
 1396TIP3   OH2 4151   3.799   1.765   1.804  0.1528 -0.5790 -0.0612
 1396TIP3    H1 4152   3.853   1.813   1.741  2.1229 -0.6167  1.5236
 1396TIP3    H2 4153   3.754   1.833   1.854 -0.2195 -0.5124 -0.4794
 1397TIP3   OH2 4154   6.235   2.979   5.709  0.3047 -0.1922  1.0598
 1397TIP3    H1 4155   6.200   3.040   5.773 -1.8945  1.0968 -1.1682
 1397TIP3    H2 4156   6.322   3.012   5.689 -0.2761  1.3952  0.9922
 1398TIP3   OH2 4157   6.707   1.228   5.307  0.9712 -0.2395 -0.1333
 1398TIP3    H1 4158   6.617   1.250   5.280  1.1451  2.1368  0.9707
 1398TIP3    H2 4159   6.721   1.139   5.273 -1.7725 -0.6774 -0.3550
 1399TIP3   OH2 4160   2.512   2.644   0.716 -0.5611 -0.0221 -0.6754
 1399TIP3    H1 4161   2.474   2.625   0.802  0.2859 -0.7626 -0.4537
 1399TIP3    H2 4162   2.526   2.739   0.716  0.8994 -0.2086  0.6337
 1400TIP3   OH2 4163   0.234   5.507   4.715  0.3205 -0.1255  0.4574
 1400TIP3    H1 4164   0.180   5.429   4.729 -0.9110  0.8071  1.1940
 1400TIP3    H2 4165   0.255   5.506   4.622  1.9973 -2.3409  0.7769
 1401TIP3   OH2 4166   3.940   1.700   0.750  0.4490  0.3121 -0.3555
 1401TIP3    H1 4167   3.869   1.762   0.760  0.2215 -0.0178  0.0630
 1401TIP3    H2 4168   3.920   1.629   0.810  1.1700  0.2514 -0.1742
 1402TIP3   OH2 4169   4.644   2.293   2.965 -0.7610  0.6523  0.2971
 1402TIP3    H1 4170   4.734   2.264   2.953 -1.5209 -1.6449 -0.4309
 1402TIP3    H2 4171   4.603   2.224   3.017 -1.9421  2.0016  1.2314
 1403TIP3   OH2 4172   3.235   4.410   0.712  0.2258 -0.6808  0.0120
 1403TIP3    H1 4173   3.175   4.419   0.786 -0.1370 -0.8341 -0.2620
 1403TIP3    H2 4174   3.298   4.344   0.740  0.7452  0.0432  0.6103
 1404TIP3   OH2 4175   0.595   1.929   4.399  0.3846 -0.3162  0.3374
 1404TIP3    H1 4176   0.505   1.897   4.394 -0.3954  1.8518 -0.6248
 1404TIP3    H2 4177   0.611   1.969   4.314  0.9509  2.4939  1.6253
 1405TIP3   OH2 4178   4.965   5.806   0.814 -0.3247 -0.6467  0.1288
 1405TIP3    H1 4179   4.888   5.764   0.775 -1.5841  1.7875 -0.2059
 1405TIP3    H2 4180   5.022   5.825   0.740 -0.5393 -0.2406  0.0682
 1406TIP3   OH2 4181   6.463   3.674   1.061 -0.6755 -0.3137  0.5669
 1406TIP3    H1 4182   6.403   3.666   0.987  0.1990 -1.6049 -0.0239
 1406TIP3    H2 4183   6.455   3.765   1.088 -1.6357 -0.0337 -0.5748
 1407TIP3   OH2 4184   0.133   6.765   3.874  0.0964  0.0899  0.1072
 1407TIP3    H1 4185   0.077   6.717   3.935 -0.5529 -0.2215 -0.7300
 1407TIP3    H2 4186   0.098   6.854   3.875 -1.2426 -0.3916 -1.3759
 1408TIP3   OH2 4187   3.477   6.023   2.166 -0.0682 -0.4016 -0.2428
 1408TIP3    H1 4188   3.492   5.942   2.215  0.4647 -1.1760 -1.6043
 1408TIP3    H2 4189   3.465   6.090   2.233  0.2053 -1.4739  0.9301
 1409TIP3   OH2 4190   5.306   1.855   1.957  0.0704  0.1737  0.3452
 1409TIP3    H1 4191   5.377   1.791   1.964  0.5660  0.2821 -2.5033
 1409TIP3    H2 4192   5.346   1.931   1.916 -1.3095  0.9339  0.3445
 1410TIP3   OH2 4193   1.639   0.679   5.666 -0.2203 -0.1157  0.0783
 1410TIP3    H1 4194   1.544   0.672   5.677 -0.3330  1.1082  0.0556
 1410TIP3    H2 4195   1.651   0.703   5.574  0.0860  0.0476  0.1588
 1411TIP3   OH2 4196   6.259   3.880   0.568  0.5589 -0.6113 -0.1046
 1411TIP3    H1 4197   6.331   3.923   0.522  2.8783 -2.5775  1.4150
 1411TIP3    H2 4198   6.226   3.815   0.506 -0.9890  1.2393 -1.3300
 1412TIP3   OH2 4199   5.845   2.134   5.267 -0.4624 -0.1106 -0.0103
 1412TIP3    H1 4200   5.792   2.213   5.258  0.0964  0.3211  0.3828
 1412TIP3    H2 4201   5.781   2.063   5.272 -0.9547  0.2435 -0.9912
 1413TIP3   OH2 4202   2.995   5.303   1.044 -0.0275 -0.8436 -0.1841
 1413TIP3    H1 4203   2.941   5.355   0.984 -3.4431 -0.9797  2.4738
 1413TIP3    H2 4204   2.956   5.215   1.041 -1.1964 -0.5561  3.0144
 1414TIP3   OH2 4205   0.308   5.360   5.304  0.0260 -0.0309  0.2343
 1414TIP3    H1 4206   0.251   5.342   5.230  0.0297  1.4516 -0.1648
 1414TIP3    H2 4207   0.262   5.323   5.379 -1.3087  0.8088 -0.1309
 1415TIP3   OH2 4208   5.139   6.674   1.199 -0.1117 -0.3193  0.0769
 1415TIP3    H1 4209   5.207   6.679   1.132 -0.3591  0.0465 -0.1510
 1415TIP3    H2 4210   5.110   6.765   1.210 -0.4678 -0.4556  0.2696
 1416TIP3   OH2 4211   4.071   3.349   3.405  0.6321  0.2283 -0.8493
 1416TIP3    H1 4212   4.072   3.260   3.369  0.6353  0.4226 -1.3416
 1416TIP3    H2 4213   4.009   3.396   3.351 -1.7150 -0.2133  1.2908
 1417TIP3   OH2 4214   2.765   0.908   0.306 -0.0442 -0.0536  0.2790
 1417TIP3    H1 4215   2.803   0.984   0.261 -0.3095 -0.5907 -0.8880
 1417TIP3    H2 4216   2.837   0.847   0.317  0.4463  0.8172  2.3021
 1418TIP3   OH2 4217   5.701   2.843   3.348  0.0795 -0.1437  0.6455
 1418TIP3    H1 4218   5.608   2.852   3.369  0.6251  0.5794  3.0607
 1418TIP3    H2 4219   5.743   2.914   3.396  1.6357  1.5518 -2.8840
 1419TIP3   OH2 4220   5.424   3.117   3.218 -0.2853  0.1853 -0.4177
 1419TIP3    H1 4221   5.507   3.092   3.177  0.1512 -1.5987  1.4101
 1419TIP3    H2 4222   5.370   3.148   3.145  1.5290  0.1493 -1.8442
 1420TIP3   OH2 4223   1.639   2.869   2.439 -0.1209 -0.7208  0.2710
 1420TIP3    H1 4224   1.627   2.784   2.482  0.1475 -0.6084  0.5738
 1420TIP3    H2 4225   1.626   2.851   2.346 -0.4932 -1.0095  0.3753
 1421TIP3   OH2 4226   6.493   0.667   1.706  0.2238 -0.0327  0.3843
 1421TIP3    H1 4227   6.461   0.711   1.785 -0.8508 -0.3649  0.1419
 1421TIP3    H2 4228   6.588   0.677   1.711  0.2090 -0.3046  1.8797
 1422TIP3   OH2 4229   2.930   0.885   2.422  0.3323 -0.7193  0.1298
 1422TIP3    H1 4230   2.942   0.935   2.503  0.7075 -1.4761  0.5475
 1422TIP3    H2 4231   3.006   0.908   2.368 -0.9118  1.3504 -0.8715
 1423TIP3   OH2 4232   1.481   3.805   5.168  0.2441  0.0545 -0.3820
 1423TIP3    H1 4233   1.476   3.757   5.085  1.9526  0.5337 -0.8071
 1423TIP3    H2 4234   1.392   3.836   5.183 -0.5080 -1.6503 -1.0501
 1424TIP3   OH2 4235   4.255   6.180   3.550 -0.2345 -0.0993  0.2575
 1424TIP3    H1 4236   4.277   6.273   3.556  1.8394 -0.5413  0.3612
 1424TIP3    H2 4237   4.164   6.175   3.577 -1.0106  2.1277 -1.5630
 1425TIP3   OH2 4238   6.297   0.582   3.407  0.0985  0.2532  0.2712
 1425TIP3    H1 4239   6.248   0.649   3.455  1.6172 -0.3558  2.9226
 1425TIP3    H2 4240   6.353   0.631   3.347 -0.4881  1.1964  0.4640
 1426TIP3   OH2 4241   6.891   0.662   5.841  0.9495  0.0069  1.0068
 1426TIP3    H1 4242   6.859   0.752   5.852  1.0346  0.1177  0.3794
 1426TIP3    H2 4243   6.977   0.662   5.883  0.5523 -0.0319  1.8388
 1427TIP3   OH2 4244   7.197   3.915   2.631 -0.5689 -0.3400  0.1378
 1427TIP3    H1 4245   7.118   3.862   2.617 -1.5088  1.1556 -0.4842
 1427TIP3    H2 4246   7.269   3.854   2.620 -1.6340 -1.7798  0.8343
 1428TIP3   OH2 4247   2.653   3.508  -0.001  0.1384 -0.1017  0.1248
 1428TIP3    H1 4248   2.669   3.427  -0.049  1.8955 -0.6070  1.4816
 1428TIP3    H2 4249   2.667   3.485   0.091 -1.7084  1.1881  0.7968
 1429TIP3   OH2 4250   0.163   3.765   3.378  0.4087 -0.0037 -0.4336
 1429TIP3    H1 4251   0.085   3.711   3.366 -1.5622  2.2836  1.1362
 1429TIP3    H2 4252   0.204   3.731   3.457  1.3115 -1.4842 -1.4974
 1430TIP3   OH2 4253   1.761   1.192   4.847  0.1943  0.1197 -0.0223
 1430TIP3    H1 4254   1.827   1.252   4.814 -1.0704  2.2885  1.1510
 1430TIP3    H2 4255   1.698   1.184   4.776  0.7491 -0.4586 -0.4588
 1431TIP3   OH2 4256   3.640   2.567   5.505 -0.0590 -0.0940  0.0736
 1431TIP3    H1 4257   3.701   2.495   5.512  1.9797  1.5600  0.2297
 1431TIP3    H2 4258   3.575   2.537   5.441 -0.1647 -2.5861  1.2336
 1432TIP3   OH2 4259   1.924   0.834   2.154  0.1383 -0.1145  0.1541
 1432TIP3    H1 4260   1.889   0.923   2.157  2.7134  0.9598  0.3588
 1432TIP3    H2 4261   1.955   0.818   2.243  0.4718 -0.9046 -0.0955
 1433TIP3   OH2 4262   1.879   2.808   1.379  0.2837 -0.2192  0.4659
 1433TIP3    H1 4263   1.934   2.791   1.456  2.2407 -2.2418 -1.2272
 1433TIP3    H2 4264   1.934   2.861   1.322 -0.9961  0.9176  0.2464
 1434TIP3   OH2 4265   2.492   2.914   0.753  0.2557 -0.2947 -0.6653
 1434TIP3    H1 4266   2.400   2.927   0.732  0.4112 -1.3029 -2.0254
 1434TIP3    H2 4267   2.535   2.995   0.724 -0.0264 -0.2966 -1.0859
 1435TIP3   OH2 4268   5.738   5.820   5.060 -0.2596 -0.2053  0.0003
 1435TIP3    H1 4269   5.801   5.884   5.027  0.1489 -1.1464 -1.1527
 1435TIP3    H2 4270   5.764   5.803   5.150  0.1378  0.6216  0.0417
 1436TIP3   OH2 4271   0.014   6.389   0.280  0.2735  0.0287 -0.3253
 1436TIP3    H1 4272  -0.034   6.384   0.198  0.2803  1.7977 -0.4909
 1436TIP3    H2 4273   0.101   6.355   0.258  0.0881 -0.1088 -0.8789
 1437TIP3   OH2 4274   5.563   3.529   3.314 -0.4518  0.0486 -0.0903
 1437TIP3    H1 4275   5.617   3.494   3.244  1.4229 -0.7943  1.6602
 1437TIP3    H2 4276   5.584   3.622   3.318  0.8149 -0.2391  0.4612
 1438TIP3   OH2 4277   5.509   6.469   3.119 -0.1023  0.6305 -0.1536
 1438TIP3    H1 4278   5.447   6.404   3.085 -0.2447  0.3506  0.6091
 1438TIP3    H2 4279   5.567   6.487   3.045 -0.6030  0.2987 -0.6425
 1439TIP3   OH2 4280   7.182   5.448   2.484 -0.2085  0.8320 -0.0644
 1439TIP3    H1 4281   7.211   5.428   2.573  0.4107 -0.5542 -0.5541
 1439TIP3    H2 4282   7.218   5.535   2.467  0.5325  0.6924  0.6840
 1440TIP3   OH2 4283   5.173   0.476   3.018 -0.0998 -0.0803 -0.1927
 1440TIP3    H1 4284   5.109   0.491   3.087 -0.6164  0.2374 -0.7303
 1440TIP3    H2 4285   5.139   0.401   2.969  0.1092 -0.1218 -0.2765
 1441TIP3   OH2 4286   5.590   0.102   1.782 -0.2308  0.1921  0.0261
 1441TIP3    H1 4287   5.659   0.126   1.843  0.1389 -1.0213  0.1152
 1441TIP3    H2 4288   5.589   0.006   1.783 -1.0540  0.1682 -0.9363
 1442TIP3   OH2 4289   5.552   4.040   2.194 -0.1523  0.2104 -0.1885
 1442TIP3    H1 4290   5.621   4.085   2.145 -0.3842  0.2256 -0.5107
 1442TIP3    H2 4291   5.571   3.947   2.182  0.7156  0.2173  1.0403
 1443TIP3   OH2 4292   1.105   3.907   5.770  0.5089  0.4874 -0.8229
 1443TIP3    H1 4293   1.117   3.996   5.803  0.6439  0.5782 -1.1033
 1443TIP3    H2 4294   1.037   3.869   5.825  0.2439  0.8635 -0.8854
 1444TIP3   OH2 4295   5.365   0.079   5.427 -0.2391  0.5987 -0.2249
 1444TIP3    H1 4296   5.300   0.029   5.476  0.7003  0.1248  0.5764
 1444TIP3    H2 4297   5.446   0.068   5.477  0.6544  0.4909 -1.6410
 1445TIP3   OH2 4298   2.688   3.861   5.182 -0.0375  0.5017  0.0921
 1445TIP3    H1 4299   2.611   3.810   5.154 -1.0797  1.3605  1.3226
 1445TIP3    H2 4300   2.653   3.946   5.206  1.6435  1.7464 -1.6028
 1446TIP3   OH2 4301   1.396   6.363   1.970 -0.3453 -0.7361  0.1934
 1446TIP3    H1 4302   1.337   6.296   2.005 -0.8416 -0.8463 -0.8076
 1446TIP3    H2 4303   1.354   6.446   1.991 -0.2259 -0.7700  0.5720
 1447TIP3   OH2 4304   0.879   1.697   5.451  0.6747 -0.3529  0.2014
 1447TIP3    H1 4305   0.797   1.677   5.495  0.6994 -0.3235  0.2618
 1447TIP3    H2 4306   0.859   1.773   5.395  1.1371  0.9482  1.7234
 1448TIP3   OH2 4307   0.604   1.439   0.848  0.0960 -0.1751  0.4724
 1448TIP3    H1 4308   0.634   1.361   0.894  0.1779 -0.5469 -0.2016
 1448TIP3    H2 4309   0.591   1.410   0.758  1.5776  0.9235 -0.1417
 1449TIP3   OH2 4310   4.517   5.132   2.705  0.1301 -0.6325  0.2294
 1449TIP3    H1 4311   4.595   5.170   2.746  1.1825 -1.2593 -1.0778
 1449TIP3    H2 4312   4.502   5.051   2.753 -0.6765  0.2403  1.4856
 1450TIP3   OH2 4313   7.107   0.996   0.816 -0.4990  0.0387  0.3738
 1450TIP3    H1 4314   7.146   1.083   0.812  1.6362 -0.7704  1.8596
 1450TIP3    H2 4315   7.155   0.945   0.751 -0.7328 -0.3797  0.5264
 1451TIP3   OH2 4316   0.627   2.814   2.887 -0.0410 -0.4936  0.1510
 1451TIP3    H1 4317   0.616   2.779   2.976 -0.1642  1.4729  0.9768
 1451TIP3    H2 4318   0.639   2.737   2.832  1.3356 -1.7257  2.0461
 1452TIP3   OH2 4319   0.975   4.726   5.351  0.5561 -0.0680 -0.4548
 1452TIP3    H1 4320   0.960   4.765   5.265  0.4746 -0.7930 -0.7794
 1452TIP3    H2 4321   0.922   4.779   5.411 -1.6131 -1.1781 -1.2525
 1453TIP3   OH2 4322   1.233   0.887   2.572 -1.1940  0.0708  0.3036
 1453TIP3    H1 4323   1.303   0.901   2.508 -0.8239 -1.8991  0.2075
 1453TIP3    H2 4324   1.278   0.866   2.653 -1.6278  3.5840  1.6317
 1454TIP3   OH2 4325   7.250   2.473   3.947 -0.3797 -0.0050 -0.0771
 1454TIP3    H1 4326   7.178   2.535   3.961 -0.7601 -0.3893 -0.3092
 1454TIP3    H2 4327   7.219   2.391   3.984 -0.2171 -0.2697 -0.5251
 1455TIP3   OH2 4328   7.077   1.969   5.563 -0.9787  0.4402 -0.5161
 1455TIP3    H1 4329   7.004   1.927   5.609 -0.7120  1.5807  1.0459
 1455TIP3    H2 4330   7.147   1.903   5.563 -1.6842 -0.3200 -1.1849
 1456TIP3   OH2 4331   5.437   5.480   3.414  0.4714  0.0016 -0.1409
 1456TIP3    H1 4332   5.373   5.455   3.348 -0.6532  0.3190  0.7906
 1456TIP3    H2 4333   5.401   5.560   3.453  1.4019  0.1525  0.4444
 1457TIP3   OH2 4334   1.620   0.039   2.628  0.4973 -0.0060 -0.3312
 1457TIP3    H1 4335   1.545   0.065   2.574 -0.9991 -0.4244  1.4229
 1457TIP3    H2 4336   1.617   0.098   2.703  0.5051 -1.4809  0.8879
 1458TIP3   OH2 4337   3.969   4.595   0.856  0.0302 -0.1169 -0.1207
 1458TIP3    H1 4338   4.050   4.642   0.835 -0.5181  0.7455 -0.3555
 1458TIP3    H2 4339   3.949   4.620   0.946  1.6340 -2.7311  1.0744
 1459TIP3   OH2 4340   2.532   1.924   2.800  0.2923 -0.1772 -0.5050
 1459TIP3    H1 4341   2.452   1.917   2.852  0.1073 -2.6296 -1.0219
 1459TIP3    H2 4342   2.529   2.012   2.763 -2.6841 -0.5116 -1.3218
 1460TIP3   OH2 4343   0.098   3.964   0.856  0.0747 -0.1242 -0.0056
 1460TIP3    H1 4344   0.014   3.987   0.896  0.0161 -2.3628  1.2781
 1460TIP3    H2 4345   0.156   3.946   0.930  0.8408 -1.4719 -0.8982
 1461TIP3   OH2 4346   1.861   0.464   5.804  0.2889 -0.0395 -0.1066
 1461TIP3    H1 4347   1.907   0.457   5.720  0.7301 -0.7918  0.1820
 1461TIP3    H2 4348   1.906   0.401   5.861  0.2073  0.6977  0.7927
 1462TIP3   OH2 4349   2.124   0.869   0.076  0.4200 -0.4526 -1.0584
 1462TIP3    H1 4350   2.163   0.925   0.009 -2.3532  2.2689 -0.6225
 1462TIP3    H2 4351   2.170   0.893   0.156 -0.5508  1.1955 -0.9262
 1463TIP3   OH2 4352   5.130   2.789   2.976 -0.5515  0.4963 -0.5646
 1463TIP3    H1 4353   5.154   2.697   2.965 -0.3436  0.5089 -0.2500
 1463TIP3    H2 4354   5.213   2.832   2.999 -0.1732  1.1703 -2.9907
 1464TIP3   OH2 4355   0.213   2.205   3.019  0.0060  0.1829  0.7347
 1464TIP3    H1 4356   0.128   2.169   2.994  0.8312 -2.9955  1.9857
 1464TIP3    H2 4357   0.194   2.261   3.094 -1.0518  0.0837  0.5553
 1465TIP3   OH2 4358   7.069   0.394   0.183  0.5657  0.2449 -0.2727
 1465TIP3    H1 4359   7.006   0.422   0.116 -1.2653 -1.7852  0.4797
 1465TIP3    H2 4360   7.064   0.461   0.250 -0.5003  0.3324 -0.4245
 1466TIP3   OH2 4361   6.433   1.331   5.227  0.5958  0.4820  0.2982
 1466TIP3    H1 4362   6.356   1.282   5.198  0.1904  1.7911 -0.9692
 1466TIP3    H2 4363   6.414   1.355   5.318  1.1256 -2.2410  1.2131
 1467TIP3   OH2 4364   5.113   1.867   3.752 -0.7612 -0.4226  0.1529
 1467TIP3    H1 4365   5.208   1.864   3.763 -0.4528  0.7414 -1.6792
 1467TIP3    H2 4366   5.092   1.786   3.704 -0.3959  0.1462 -1.0175
 1468TIP3   OH2 4367   0.413   2.986   2.295  0.0649  0.0210 -0.1316
 1468TIP3    H1 4368   0.491   2.932   2.305  0.2251  0.4292  0.8489
 1468TIP3    H2 4369   0.347   2.945   2.352 -0.1799  0.1689 -0.3045
 1469TIP3   OH2 4370   0.901   2.186   2.310 -0.5969 -0.3335 -0.2773
 1469TIP3    H1 4371   0.812   2.166   2.281 -0.7955  2.2730 -1.7989
 1469TIP3    H2 4372   0.888   2.239   2.389 -0.4465  0.3954 -0.7324
 1470TIP3   OH2 4373   1.347   5.862   2.530 -0.1958 -0.1169 -0.6509
 1470TIP3    H1 4374   1.370   5.952   2.506  2.0823 -0.7327 -1.0255
 1470TIP3    H2 4375   1.399   5.844   2.609 -1.5054 -0.7511  0.0996
 1471TIP3   OH2 4376   1.456   0.493   4.925  0.8544  0.1452  0.0733
 1471TIP3    H1 4377   1.379   0.469   4.873  0.9637 -1.4953  0.6172
 1471TIP3    H2 4378   1.443   0.586   4.944 -1.1973 -0.1586  0.4450
 1472TIP3   OH2 4379   1.241   1.727   4.682 -0.2041  0.0358 -0.1977
 1472TIP3    H1 4380   1.287   1.767   4.609  0.3563  1.1097  0.7077
 1472TIP3    H2 4381   1.168   1.786   4.701  0.3417  0.4067  0.8437
 1473TIP3   OH2 4382   6.066   1.771   3.159  0.5010  0.3426 -0.2126
 1473TIP3    H1 4383   6.019   1.800   3.081 -0.3818  1.3467  0.6547
 1473TIP3    H2 4384   6.003   1.716   3.206  1.0949 -0.4173 -0.2840
 1474TIP3   OH2 4385   1.791   4.387   5.906 -0.1879  0.1438  0.3016
 1474TIP3    H1 4386   1.757   4.337   5.831 -1.2882  0.5666  0.4942
 1474TIP3    H2 4387   1.872   4.343   5.930 -0.0301 -0.2490 -0.8824
 1475TIP3   OH2 4388   3.447   4.167   1.239  0.3584  0.1410 -0.2180
 1475TIP3    H1 4389   3.392   4.139   1.312  2.9811 -1.5653  1.2606
 1475TIP3    H2 4390   3.448   4.262   1.245 -0.6612  0.1034  1.0513
 1476TIP3   OH2 4391   4.765   5.232   5.166  0.1828  0.2097  0.0155
 1476TIP3    H1 4392   4.672   5.250   5.151 -0.6547 -2.1793  1.7570
 1476TIP3    H2 4393   4.797   5.203   5.080 -0.3657  2.0243 -0.8599
 1477TIP3   OH2 4394   2.785   3.088   1.118 -0.1072 -0.3801  0.3902
 1477TIP3    H1 4395   2.767   3.123   1.031  1.2049  0.9009  0.6095
 1477TIP3    H2 4396   2.880   3.091   1.126 -0.1625 -1.1584  1.6105
 1478TIP3   OH2 4397   3.535   5.407   1.261  0.1889 -0.0420  0.1480
 1478TIP3    H1 4398   3.512   5.499   1.255 -1.2871 -0.4210 -0.1817
 1478TIP3    H2 4399   3.502   5.367   1.181  0.7819 -0.8788  0.2942
 1479TIP3   OH2 4400   4.085   2.390   2.895 -0.5121  0.1665 -0.4279
 1479TIP3    H1 4401   4.126   2.360   2.976  1.5594 -1.3929 -1.9005
 1479TIP3    H2 4402   4.008   2.439   2.922  1.0974  1.2744  2.5093
 1480TIP3   OH2 4403   2.779   6.289   1.108  0.4492 -0.4150  0.9655
 1480TIP3    H1 4404   2.750   6.267   1.197 -0.5593 -1.6285  0.3748
 1480TIP3    H2 4405   2.709   6.344   1.073  0.6336 -0.3010  0.7766
 1481TIP3   OH2 4406   5.749   2.039   0.975  0.2872 -0.3190 -0.6369
 1481TIP3    H1 4407   5.697   1.986   0.914 -0.1882 -0.0518 -0.4627
 1481TIP3    H2 4408   5.770   2.118   0.926 -1.4195  0.6122  0.0325
 1482TIP3   OH2 4409   0.829   0.158   5.703 -0.3440  0.5194 -0.0986
 1482TIP3    H1 4410   0.885   0.176   5.779  0.7733 -0.5029 -0.6584
 1482TIP3    H2 4411   0.805   0.066   5.712 -1.0439  0.6565 -0.4623
 1483TIP3   OH2 4412   1.732   5.631   3.667  0.6621  0.2766 -0.3342
 1483TIP3    H1 4413   1.748   5.702   3.605 -1.7921  0.8811 -0.3602
 1483TIP3    H2 4414   1.675   5.571   3.620  1.4572 -0.9592  0.2356
 1484TIP3   OH2 4415   2.784   1.983   2.509  0.1204 -0.4604 -0.4915
 1484TIP3    H1 4416   2.832   2.036   2.446 -0.6662  1.1572  0.1999
 1484TIP3    H2 4417   2.757   2.045   2.577  0.4775 -2.0432  1.1733
 1485TIP3   OH2 4418   5.062   2.771   1.274 -0.4170  0.1509 -0.3485
 1485TIP3    H1 4419   4.988   2.797   1.330  0.3208 -0.2072  0.8296
 1485TIP3    H2 4420   5.072   2.677   1.290  0.2288  0.1739 -0.5821
 1486TIP3   OH2 4421   3.588   5.769   2.839 -0.3153  0.0242  0.1071
 1486TIP3    H1 4422   3.632   5.796   2.920  0.2763 -0.5705  0.0024
 1486TIP3    H2 4423   3.642   5.807   2.770  0.3259 -1.0750 -0.0328
 1487TIP3   OH2 4424   5.881   1.216   1.615 -0.1377  0.0204 -0.0405
 1487TIP3    H1 4425   5.861   1.151   1.683  0.0800 -1.5155 -1.3626
 1487TIP3    H2 4426   5.800   1.224   1.565 -0.0264  0.4359 -0.1542
 1488TIP3   OH2 4427   6.364   4.103   0.410 -0.2864  0.0087 -0.2605
 1488TIP3    H1 4428   6.445   4.117   0.361 -0.8149 -0.1156 -1.1941
 1488TIP3    H2 4429   6.356   4.180   0.466 -0.3410  0.8121 -1.3396
 1489TIP3   OH2 4430   1.831   0.432   2.717  0.5143  0.2516  0.8204
 1489TIP3    H1 4431   1.914   0.458   2.678  0.6965 -0.4332  0.7272
 1489TIP3    H2 4432   1.787   0.514   2.739  1.3283  0.6162  1.1075
 1490TIP3   OH2 4433   5.226   2.368   1.520 -0.3464 -0.2136 -0.0867
 1490TIP3    H1 4434   5.314   2.332   1.509 -0.8672 -1.1482 -1.4572
 1490TIP3    H2 4435   5.231   2.416   1.602  1.6227  0.3017 -0.4343
 1491TIP3   OH2 4436   0.409   5.244   1.656 -0.3314 -0.1812 -0.0223
 1491TIP3    H1 4437   0.494   5.263   1.696 -0.3297  2.0315 -0.9346
 1491TIP3    H2 4438   0.345   5.278   1.718 -0.3609  2.1067 -1.1920
 1492TIP3   OH2 4439   6.326   2.404   2.943 -0.0025 -0.1837 -0.3282
 1492TIP3    H1 4440   6.232   2.392   2.937 -0.0214  0.4375 -1.5927
 1492TIP3    H2 4441   6.359   2.380   2.857  0.9079  0.3412 -0.1422
 1493TIP3   OH2 4442   3.112   1.700   2.223 -0.3424 -0.4400  0.2767
 1493TIP3    H1 4443   3.068   1.782   2.248  1.8098  1.1219 -0.7034
 1493TIP3    H2 4444   3.049   1.656   2.166 -2.6120 -0.8402  2.8817
 1494TIP3   OH2 4445   0.936   5.568   2.853 -0.6450  0.9890  0.0351
 1494TIP3    H1 4446   0.845   5.591   2.832 -1.2861 -0.1639  1.4161
 1494TIP3    H2 4447   0.948   5.482   2.813 -0.5895  0.5640  0.9536
 1495TIP3   OH2 4448   4.274   5.136   0.944 -0.1252  0.3233 -0.0219
 1495TIP3    H1 4449   4.290   5.043   0.961  1.5696  0.6786  0.4360
 1495TIP3    H2 4450   4.224   5.137   0.862 -0.8902 -1.0166  0.4022
 1496TIP3   OH2 4451   1.997   1.848   3.978  0.4409  0.4649 -0.2260
 1496TIP3    H1 4452   1.929   1.912   3.958  1.4726  1.3932 -0.9329
 1496TIP3    H2 4453   2.005   1.796   3.899 -0.0666 -0.2379  0.1800
 1497TIP3   OH2 4454   6.357   0.600   4.059 -0.2167  0.0262 -0.3181
 1497TIP3    H1 4455   6.264   0.595   4.078 -0.2587  0.9577 -0.2096
 1497TIP3    H2 4456   6.377   0.519   4.014 -0.8874 -0.5837  0.4524
 1498TIP3   OH2 4457   1.071   4.373   3.402  0.3546  0.5551 -0.2796
 1498TIP3    H1 4458   1.154   4.350   3.360  0.9020  1.1962  0.4307
 1498TIP3    H2 4459   1.037   4.290   3.435  0.4082  0.1950 -1.1153
 1499TIP3   OH2 4460   5.748   6.723   4.679 -0.0123  0.3889 -0.7188
 1499TIP3    H1 4461   5.820   6.667   4.710  0.8536  0.6321 -2.2051
 1499TIP3    H2 4462   5.778   6.812   4.697 -2.0319  0.5045  3.0664
 1500TIP3   OH2 4463   3.414   4.792   0.998 -0.0204  0.1778  0.3718
 1500TIP3    H1 4464   3.443   4.869   1.046  0.5919  1.0562 -1.3004
 1500TIP3    H2 4465   3.483   4.777   0.933 -0.8294 -0.8874 -0.2834
 1501TIP3   OH2 4466   4.776   3.535   1.921  0.8606  0.4213  0.0517
 1501TIP3    H1 4467   4.709   3.603   1.923  0.5851  0.2277 -1.4187
 1501TIP3    H2 4468   4.852   3.575   1.963  0.2559  1.1221  0.5027
 1502TIP3   OH2 4469   3.725   2.211   3.171 -0.3789 -0.1679  0.6903
 1502TIP3    H1 4470   3.631   2.223   3.181 -0.4413 -1.3251  1.8696
 1502TIP3    H2 4471   3.737   2.116   3.175  0.7095 -0.1382 -0.8645
 1503TIP3   OH2 4472   0.770   3.793   3.012 -0.1945  0.0535 -0.0576
 1503TIP3    H1 4473   0.687   3.833   3.036 -1.5862 -1.9240 -1.3044
 1503TIP3    H2 4474   0.774   3.712   3.064  1.4388  0.5474  0.6844
 1504TIP3   OH2 4475   3.150   1.191   3.267  0.1714  0.2182  0.4718
 1504TIP3    H1 4476   3.149   1.276   3.311 -0.6084  1.0809 -1.1265
 1504TIP3    H2 4477   3.136   1.212   3.175  0.9981 -1.5763 -0.1066
 1505TIP3   OH2 4478   1.243   3.859   0.537 -0.4273  0.2358  0.5214
 1505TIP3    H1 4479   1.319   3.888   0.588  0.3512 -0.2841 -0.2992
 1505TIP3    H2 4480   1.229   3.929   0.474 -1.5215  0.9764  1.5468
 1506TIP3   OH2 4481   0.894   3.837   4.095  0.3127 -0.1614 -0.1895
 1506TIP3    H1 4482   0.832   3.892   4.144  0.0591 -0.8867  0.3094
 1506TIP3    H2 4483   0.903   3.758   4.148 -0.8490 -1.4790 -1.8500
 1507TIP3   OH2 4484   4.065   6.526   5.757 -0.2184  0.3556 -0.2268
 1507TIP3    H1 4485   4.042   6.514   5.849  0.7183 -0.3382 -0.0717
 1507TIP3    H2 4486   3.982   6.516   5.711 -0.5548 -0.1973  0.4742
 1508TIP3   OH2 4487   0.187   0.883   3.403  0.8014 -0.4330  0.5646
 1508TIP3    H1 4488   0.206   0.853   3.491  0.4643  0.7477  1.0576
 1508TIP3    H2 4489   0.112   0.831   3.375  2.1070 -2.2116  0.1780
 1509TIP3   OH2 4490   1.017   6.530   1.137 -0.8767 -0.0127  0.1201
 1509TIP3    H1 4491   1.077   6.598   1.167 -1.3979  1.0976 -1.2420
 1509TIP3    H2 4492   1.004   6.474   1.213  1.3886  0.0444  0.6292
 1510TIP3   OH2 4493   6.943   3.924   5.379 -0.1282  0.0431 -0.1561
 1510TIP3    H1 4494   6.875   3.970   5.330  1.7915  1.6874 -1.5031
 1510TIP3    H2 4495   6.989   3.873   5.312  0.5072 -0.3019  0.5341
 1511TIP3   OH2 4496   3.047   4.397   1.842 -0.5080 -0.3023 -0.0222
 1511TIP3    H1 4497   2.954   4.420   1.833 -0.4289 -0.2589 -0.7727
 1511TIP3    H2 4498   3.067   4.346   1.764 -0.5767 -2.6698  1.4192
 1512TIP3   OH2 4499   0.733   2.343   0.504  0.3942 -0.2770 -0.8904
 1512TIP3    H1 4500   0.782   2.271   0.544 -0.1775 -0.0973  0.1724
 1512TIP3    H2 4501   0.649   2.304   0.479 -0.2273  0.1872  0.4166
 1513TIP3   OH2 4502   4.974   0.375   0.122  0.0871 -0.1359 -0.1581
 1513TIP3    H1 4503   5.056   0.326   0.127  0.7489  1.0097  0.9665
 1513TIP3    H2 4504   4.967   0.402   0.031  0.6492 -0.7690 -0.3906
 1514TIP3   OH2 4505   5.261   4.601   0.506  0.0551 -0.0816  0.2171
 1514TIP3    H1 4506   5.302   4.531   0.556 -0.4207 -0.5239 -0.0109
 1514TIP3    H2 4507   5.274   4.679   0.560  0.8964 -0.2705  0.3094
 1515TIP3   OH2 4508   7.186   3.599   3.400 -0.1294  0.4924 -0.2569
 1515TIP3    H1 4509   7.230   3.514   3.404  0.2424  0.5540 -2.0580
 1515TIP3    H2 4510   7.139   3.606   3.483  1.7034 -0.4243  0.9099
 1516TIP3   OH2 4511   4.303   1.868   1.028 -0.6338 -0.2215 -0.0536
 1516TIP3    H1 4512   4.223   1.883   0.978  0.1422 -0.4873 -1.4287
 1516TIP3    H2 4513   4.314   1.773   1.028  1.3454 -0.1097 -2.7287
 1517TIP3   OH2 4514   4.306   2.427   3.375 -0.6817  0.3136  0.3665
 1517TIP3    H1 4515   4.346   2.340   3.379  1.5688  1.2089 -0.8370
 1517TIP3    H2 4516   4.316   2.454   3.284 -1.8822  1.6153  0.5826
 1518TIP3   OH2 4517   4.659   1.369   2.057  0.3241 -0.4428  0.1802
 1518TIP3    H1 4518   4.597   1.377   2.129  0.6840 -2.3209  0.7543
 1518TIP3    H2 4519   4.637   1.441   1.998 -1.9154 -0.6315  0.7069
 1519TIP3   OH2 4520   0.444   2.605   0.458 -0.0030 -0.2067 -0.4383
 1519TIP3    H1 4521   0.502   2.582   0.386  1.2234 -2.7139  1.2145
 1519TIP3    H2 4522   0.503   2.616   0.533 -1.4813 -0.9438  0.8931
 1520TIP3   OH2 4523   1.593   0.760   2.699  0.4320  0.4242  0.4237
 1520TIP3    H1 4524   1.656   0.704   2.743  0.0076 -0.2630  0.1804
 1520TIP3    H2 4525   1.639   0.843   2.684  1.0588  0.1466  0.8089
 1521TIP3   OH2 4526   4.186   2.594   2.701 -0.4246  0.0175 -0.3456
 1521TIP3    H1 4527   4.104   2.552   2.675 -1.3035  0.2165  1.8750
 1521TIP3    H2 4528   4.224   2.534   2.766 -0.8476  1.7537  1.6078
 1522TIP3   OH2 4529   1.536   2.358   4.742  0.5835 -0.1028  0.1445
 1522TIP3    H1 4530   1.526   2.262   4.746  0.8409 -0.1852 -1.0907
 1522TIP3    H2 4531   1.449   2.391   4.767  1.3075 -0.5491  3.8553
 1523TIP3   OH2 4532   5.966   2.524   3.143  0.4669 -0.1200  0.0479
 1523TIP3    H1 4533   6.057   2.539   3.169  0.0737  0.6665  1.0504
 1523TIP3    H2 4534   5.969   2.445   3.090  1.7797  0.0702 -0.1905
 1524TIP3   OH2 4535   3.153   6.109   0.625  0.2755  0.0239 -0.0045
 1524TIP3    H1 4536   3.161   6.068   0.711  1.0628 -0.8030 -0.4616
 1524TIP3    H2 4537   3.059   6.102   0.605  0.4064 -1.7715 -0.1540
 1525TIP3   OH2 4538   0.718   0.044   0.325 -0.1708 -0.3698  0.6594
 1525TIP3    H1 4539   0.765  -0.005   0.258 -0.2692 -0.7010  0.8274
 1525TIP3    H2 4540   0.750   0.007   0.408  0.2144  0.2765  0.8038
 1526TIP3   OH2 4541   3.251   0.671   1.961  0.0863  0.2315 -0.2057
 1526TIP3    H1 4542   3.303   0.717   1.896  1.6538 -1.7099 -0.4299
 1526TIP3    H2 4543   3.212   0.597   1.913  0.1689 -0.4553  0.7512
 1527TIP3   OH2 4544   1.033   3.864   2.535 -0.0503 -0.1726  0.2598
 1527TIP3    H1 4545   0.989   3.891   2.454  2.1997  1.4916 -0.5086
 1527TIP3    H2 4546   1.066   3.946   2.572  1.3646 -1.2110  1.3804
 1528TIP3   OH2 4547   3.510   2.640   3.318 -0.2219 -0.3718  0.1671
 1528TIP3    H1 4548   3.437   2.606   3.265  0.3083 -0.6375 -0.4078
 1528TIP3    H2 4549   3.587   2.592   3.286 -0.0069 -1.1569  1.7470
 1529TIP3   OH2 4550   4.493   4.413   5.170 -0.1009 -0.3028 -0.2315
 1529TIP3    H1 4551   4.543   4.457   5.101 -2.5685 -0.6250 -2.4126
 1529TIP3    H2 4552   4.439   4.483   5.208  0.2377 -0.3849  0.4007
 1530TIP3   OH2 4553   5.894   5.465   1.275 -0.0794  0.0443  0.3689
 1530TIP3    H1 4554   5.881   5.497   1.186 -2.0402  1.2421  1.0363
 1530TIP3    H2 4555   5.839   5.521   1.329  1.1977 -0.5478  2.3829
 1531TIP3   OH2 4556   5.719   1.979   3.160 -0.3536  0.5495  0.0845
 1531TIP3    H1 4557   5.759   1.897   3.188 -0.8729  0.8759  1.8784
 1531TIP3    H2 4558   5.791   2.042   3.161 -0.6664  0.9380  2.4540
 1532TIP3   OH2 4559   2.896   3.931   2.560  0.5216  0.9507  0.4200
 1532TIP3    H1 4560   2.887   4.019   2.523  0.3030  1.4689  1.6534
 1532TIP3    H2 4561   2.851   3.874   2.497  1.1690  1.6203 -0.6927
 1533TIP3   OH2 4562   4.880   2.708   4.142 -0.2914 -0.1566 -0.4150
 1533TIP3    H1 4563   4.835   2.747   4.067  3.5439  1.2617 -2.2613
 1533TIP3    H2 4564   4.973   2.719   4.122  0.9848 -3.1639  2.8610
 1534TIP3   OH2 4565   7.040   0.404   3.768 -1.1000 -0.1958 -0.7433
 1534TIP3    H1 4566   7.125   0.409   3.724 -1.4998 -0.9148 -1.6320
 1534TIP3    H2 4567   7.059   0.365   3.853 -0.5292 -0.2620 -0.8963
 1535TIP3   OH2 4568   6.127   2.757   0.014 -0.0146 -0.2915 -0.1829
 1535TIP3    H1 4569   6.056   2.693   0.025 -1.1238  1.0061  0.6034
 1535TIP3    H2 4570   6.181   2.746   0.092  1.5545 -2.2696 -1.4502
 1536TIP3   OH2 4571   1.519   0.779   3.253 -0.5632  0.4677 -0.0048
 1536TIP3    H1 4572   1.488   0.713   3.192 -0.1656  0.4122 -0.1526
 1536TIP3    H2 4573   1.574   0.837   3.200  1.4300 -0.7069  0.6402
 1537TIP3   OH2 4574   0.543   0.506   3.989  0.3867 -0.2633 -0.4391
 1537TIP3    H1 4575   0.519   0.518   4.080 -0.5072  2.6942 -0.9889
 1537TIP3    H2 4576   0.639   0.508   3.989  0.3959 -0.4686  0.4174
 1538TIP3   OH2 4577   6.347   5.503   4.254  0.3313  0.0787  0.0428
 1538TIP3    H1 4578   6.276   5.442   4.236 -1.0695  1.6928 -0.1268
 1538TIP3    H2 4579   6.303   5.583   4.281  2.0495  1.4947 -1.1665
 1539TIP3   OH2 4580   4.642   1.592   4.917  0.6157 -0.0707 -0.1069
 1539TIP3    H1 4581   4.691   1.570   4.996  2.5048 -2.4502 -1.7747
 1539TIP3    H2 4582   4.679   1.675   4.888 -0.8794  1.4395  1.9716
 1540TIP3   OH2 4583   3.522   4.623   2.373 -0.7678  0.0766  0.3367
 1540TIP3    H1 4584   3.459   4.575   2.428  0.5207 -0.1356  1.6993
 1540TIP3    H2 4585   3.552   4.558   2.309  0.2644 -0.7222  1.5809
 1541TIP3   OH2 4586   6.528   2.215   2.766 -0.0950  0.0681 -0.4082
 1541TIP3    H1 4587   6.470   2.230   2.692  0.7876  2.0758 -0.7694
 1541TIP3    H2 4588   6.615   2.206   2.727  0.3623  0.9955  0.3526
 1542TIP3   OH2 4589   1.980   2.396   5.298 -0.1335  0.0366 -0.1300
 1542TIP3    H1 4590   2.070   2.419   5.275 -0.2858 -1.1871 -2.1680
 1542TIP3    H2 4591   1.988   2.343   5.378  1.1745 -1.5434 -1.2491
 1543TIP3   OH2 4592   6.810   1.532   0.510 -0.0191 -0.2879  0.3578
 1543TIP3    H1 4593   6.894   1.523   0.556 -1.0387 -2.8015  1.9384
 1543TIP3    H2 4594   6.810   1.622   0.478  2.4415  0.4062  2.0061
 1544TIP3   OH2 4595   0.459   0.856   3.022 -0.5662  0.1947  0.1888
 1544TIP3    H1 4596   0.540   0.811   3.045 -0.9123  0.6298  2.5764
 1544TIP3    H2 4597   0.442   0.831   2.932  1.5189 -0.9567  0.0492
 1545TIP3   OH2 4598   3.978   4.708   4.603 -0.1619 -0.3158  1.1571
 1545TIP3    H1 4599   3.937   4.783   4.646  1.0583  0.2698  1.3360
 1545TIP3    H2 4600   3.973   4.729   4.510 -0.6029 -0.4254  1.1551
 1546TIP3   OH2 4601   1.337   0.100   4.081  0.2366 -0.3394 -0.7330
 1546TIP3    H1 4602   1.261   0.149   4.112 -0.0965 -0.9656 -0.5474
 1546TIP3    H2 4603   1.331   0.103   3.986  1.8155  2.4711 -0.8639
 1547TIP3   OH2 4604   3.317   1.208   4.691 -0.5162  1.3442 -0.6161
 1547TIP3    H1 4605   3.376   1.278   4.663  1.3614 -0.4267 -1.3017
 1547TIP3    H2 4606   3.372   1.130   4.694 -2.2786  0.0737  1.1974
 1548TIP3   OH2 4607   7.192   0.267   4.481 -0.2563 -0.2286 -0.7471
 1548TIP3    H1 4608   7.158   0.233   4.564 -1.7332  0.1279 -1.1800
 1548TIP3    H2 4609   7.268   0.320   4.507 -0.9273  0.2062  0.4263
 1549TIP3   OH2 4610   1.223   3.398   2.017 -0.3053 -1.0703 -0.3578
 1549TIP3    H1 4611   1.167   3.406   1.940 -0.3382 -0.6370 -0.2894
 1549TIP3    H2 4612   1.219   3.484   2.059 -1.2632 -1.6499  0.7967
 1550TIP3   OH2 4613   3.560   2.389   2.954  0.1501 -0.4141  0.2143
 1550TIP3    H1 4614   3.625   2.409   3.021  0.9403 -1.9835 -0.0165
 1550TIP3    H2 4615   3.602   2.415   2.871  0.1421 -0.6352  0.1399
 1551TIP3   OH2 4616   0.619   4.348   4.997  0.2005  0.2857  0.1352
 1551TIP3    H1 4617   0.641   4.437   5.024  2.1863 -0.3299  0.6979
 1551TIP3    H2 4618   0.629   4.295   5.076  0.0937 -0.6096 -0.4291
 1552TIP3   OH2 4619   2.091   1.772   0.811  0.3596 -0.0594  0.5021
 1552TIP3    H1 4620   2.174   1.723   0.815 -0.2768 -1.1513  0.6544
 1552TIP3    H2 4621   2.085   1.800   0.719  0.6425 -0.4218  0.3689
 1553TIP3   OH2 4622   6.145   4.279   0.254  0.3173 -0.3104  0.1809
 1553TIP3    H1 4623   6.201   4.251   0.326  0.1039  1.4839  1.1215
 1553TIP3    H2 4624   6.070   4.320   0.297  0.0629  0.5869 -1.0584
 1554TIP3   OH2 4625   6.593   2.990   3.903  0.2777  0.1768  0.0849
 1554TIP3    H1 4626   6.683   3.016   3.885  0.2481 -0.3593 -0.9073
 1554TIP3    H2 4627   6.541   3.035   3.837  0.0338 -0.9300 -0.5170
 1555TIP3   OH2 4628   3.887   1.746   0.364 -0.1038 -0.0199  0.0730
 1555TIP3    H1 4629   3.962   1.740   0.305  1.4574 -1.0165  2.0384
 1555TIP3    H2 4630   3.896   1.670   0.422 -2.4500  0.0249  0.6005
 1556TIP3   OH2 4631   0.064   1.430   3.151  0.0153  0.1523  0.3584
 1556TIP3    H1 4632   0.130   1.441   3.219  0.7389 -0.6154 -0.2004
 1556TIP3    H2 4633   0.108   1.457   3.070 -0.8603  1.1509  0.1820
 1557TIP3   OH2 4634   4.460   2.475   5.185 -0.4858  0.2165  0.4069
 1557TIP3    H1 4635   4.420   2.562   5.178 -1.3072 -0.1839 -0.1173
 1557TIP3    H2 4636   4.526   2.474   5.116 -1.0478  0.1456 -0.1430
 1558TIP3   OH2 4637   5.845   3.488   2.239 -0.8174  0.7273 -0.2710
 1558TIP3    H1 4638   5.884   3.503   2.153  1.2015 -1.5960  0.1475
 1558TIP3    H2 4639   5.756   3.522   2.231 -0.1954  1.9688 -2.7647
 1559TIP3   OH2 4640   3.765   0.380   2.599 -0.2298 -0.2662  0.3206
 1559TIP3    H1 4641   3.721   0.413   2.520  0.3197  0.8321  0.4543
 1559TIP3    H2 4642   3.756   0.451   2.663  0.7456 -0.4865  0.7088
 1560TIP3   OH2 4643   1.895   4.528   5.020 -0.1723  0.0514  0.1367
 1560TIP3    H1 4644   1.924   4.597   4.960 -0.9265  0.5979  0.3872
 1560TIP3    H2 4645   1.957   4.531   5.092 -1.3671  1.9175  1.1850
 1561TIP3   OH2 4646   2.707   4.645   2.617 -0.1828  0.7456 -0.7391
 1561TIP3    H1 4647   2.711   4.723   2.562  0.0182 -0.1345 -2.0224
 1561TIP3    H2 4648   2.725   4.573   2.557  1.5554 -0.1445  0.7614
 1562TIP3   OH2 4649   3.792   2.410   3.516 -0.8855  0.0719  0.8374
 1562TIP3    H1 4650   3.886   2.397   3.508 -1.0058  0.3100 -1.7123
 1562TIP3    H2 4651   3.778   2.427   3.610  1.4007 -1.2068  1.4854
 1563TIP3   OH2 4652   0.880   4.868   5.127  0.5682  0.3546 -0.5958
 1563TIP3    H1 4653   0.931   4.903   5.054  0.8528  0.8564 -0.1643
 1563TIP3    H2 4654   0.813   4.934   5.144 -0.1522 -0.2412 -1.0726
 1564TIP3   OH2 4655   3.213   1.553   0.413  0.4245  0.0718 -0.0332
 1564TIP3    H1 4656   3.254   1.572   0.329  0.7203  1.0368  0.3166
 1564TIP3    H2 4657   3.273   1.589   0.478 -0.0091 -0.2831  0.5750
 1565TIP3   OH2 4658   2.388   6.104   4.545 -0.1464 -0.5133 -0.1947
 1565TIP3    H1 4659   2.315   6.154   4.508  0.0510 -0.3175 -0.3214
 1565TIP3    H2 4660   2.424   6.161   4.613 -2.2399 -1.9574  2.2930
 1566TIP3   OH2 4661   5.720   4.489   2.466 -0.0904  0.0250  0.1906
 1566TIP3    H1 4662   5.748   4.574   2.499  1.5221  0.0645 -1.1576
 1566TIP3    H2 4663   5.665   4.510   2.391  1.1314 -0.0912 -0.7671
 1567TIP3   OH2 4664   3.584   2.950   1.164  0.7011 -0.2786  0.0320
 1567TIP3    H1 4665   3.581   2.887   1.237  0.3963  0.1017  0.3531
 1567TIP3    H2 4666   3.655   3.010   1.187  0.4463 -0.0136  0.1400
 1568TIP3   OH2 4667   2.097   4.898   3.394  0.1067  0.4031 -0.1204
 1568TIP3    H1 4668   2.030   4.960   3.365 -1.4779 -1.7759 -1.4528
 1568TIP3    H2 4669   2.156   4.890   3.320 -0.3662 -0.5114 -0.4116
 1569TIP3   OH2 4670   5.035   3.286   1.407  0.1309  0.1649 -0.3647
 1569TIP3    H1 4671   4.964   3.245   1.457  0.2897 -1.5873 -1.5024
 1569TIP3    H2 4672   4.995   3.365   1.370 -0.7973 -0.0261  0.2016
 1570TIP3   OH2 4673   0.445   2.218   2.583 -0.1208 -0.0310 -0.1820
 1570TIP3    H1 4674   0.357   2.199   2.550 -0.8653 -2.1493  2.7192
 1570TIP3    H2 4675   0.436   2.304   2.625 -0.4788  0.2852 -0.8779
 1571TIP3   OH2 4676   5.780   2.125   2.428  0.1316 -0.5118 -0.2040
 1571TIP3    H1 4677   5.811   2.051   2.481  0.7964  1.5127  2.4042
 1571TIP3    H2 4678   5.685   2.126   2.443  0.0545 -1.0499 -0.6015
 1572TIP3   OH2 4679   2.168   4.766   5.570 -0.0749 -0.6558 -0.1700
 1572TIP3    H1 4680   2.083   4.751   5.613 -0.6444 -0.7629 -1.2787
 1572TIP3    H2 4681   2.222   4.691   5.597 -0.0899 -0.2340  1.0930
 1573TIP3   OH2 4682   0.471   2.151   2.185 -0.8464  0.2321  0.2575
 1573TIP3    H1 4683   0.499   2.079   2.242 -1.3749 -0.3223 -0.1745
 1573TIP3    H2 4684   0.460   2.111   2.099 -2.4771  0.5184  0.3011
 1574TIP3   OH2 4685   1.508   4.006   1.724  0.2258 -0.0672  0.1292
 1574TIP3    H1 4686   1.512   3.976   1.815  2.0196  1.7964  0.7416
 1574TIP3    H2 4687   1.529   3.928   1.672  0.3136 -0.8963  1.3693
 1575TIP3   OH2 4688   1.136   5.109   0.847  0.2247  0.1051 -0.5833
 1575TIP3    H1 4689   1.176   5.022   0.856 -1.7430 -0.9360 -1.3790
 1575TIP3    H2 4690   1.149   5.131   0.754  0.7649  0.7100 -0.3712
 1576TIP3   OH2 4691   1.507   4.442   0.778  0.4170  0.0424 -0.1715
 1576TIP3    H1 4692   1.458   4.365   0.807  0.3279 -0.1168 -0.7404
 1576TIP3    H2 4693   1.587   4.407   0.740 -0.1665  0.1436 -1.5379
 1577TIP3   OH2 4694   3.485   4.445   5.397 -0.0041 -0.1061 -0.2604
 1577TIP3    H1 4695   3.432   4.397   5.334 -0.0339  0.1037 -0.3977
 1577TIP3    H2 4696   3.429   4.518   5.424  0.7350  0.9784 -1.5113
 1578TIP3   OH2 4697   6.982   4.856   1.418 -0.1629  0.3689 -0.8295
 1578TIP3    H1 4698   7.041   4.783   1.404 -1.5536 -1.0562  0.3264
 1578TIP3    H2 4699   6.988   4.908   1.338  2.6941  0.3811 -0.7049
 1579TIP3   OH2 4700   6.628   3.968   0.563 -0.1910  0.6865 -0.0614
 1579TIP3    H1 4701   6.615   3.965   0.468  0.7748 -1.0980 -0.1761
 1579TIP3    H2 4702   6.643   3.877   0.589  1.8525  1.3659  1.4448
 1580TIP3   OH2 4703   0.178   5.573   0.168  0.5005  0.3424 -0.0593
 1580TIP3    H1 4704   0.257   5.518   0.171  2.4713  2.9445 -0.8978
 1580TIP3    H2 4705   0.120   5.528   0.107  2.1704 -0.6445 -1.0015
 1581TIP3   OH2 4706   0.891   6.536   2.415 -0.3126 -0.2623  0.6614
 1581TIP3    H1 4707   0.861   6.497   2.497 -1.0659 -0.5542  0.2617
 1581TIP3    H2 4708   0.948   6.608   2.441 -0.3340 -0.5206  1.4332
 1582TIP3   OH2 4709  -0.000   3.349   5.583 -0.4816 -0.1215 -0.8930
 1582TIP3    H1 4710  -0.000   3.275   5.643  0.6380  1.0139  0.5724
 1582TIP3    H2 4711   0.084   3.343   5.537 -0.4817  0.1238 -0.9261
 1583TIP3   OH2 4712   0.832   0.611   3.951 -0.3798  0.0892  0.4896
 1583TIP3    H1 4713   0.920   0.638   3.925  0.4539 -1.6834  1.3153
 1583TIP3    H2 4714   0.798   0.685   4.002 -0.2265  1.6517 -1.5298
 1584TIP3   OH2 4715   0.638   4.648   0.243 -0.0890 -0.2489 -0.6267
 1584TIP3    H1 4716   0.700   4.637   0.171 -0.0846 -1.0106 -0.5131
 1584TIP3    H2 4717   0.639   4.742   0.261 -0.3315 -0.0097 -1.8262
 1585TIP3   OH2 4718   2.444   6.167   3.268 -0.8796 -0.3590  0.4466
 1585TIP3    H1 4719   2.462   6.098   3.204 -1.8777 -0.2699  0.0570
 1585TIP3    H2 4720   2.362   6.141   3.309 -0.4445 -0.2149  1.4279
 1586TIP3   OH2 4721   6.902   3.124   1.828  0.1886  0.0773 -0.1550
 1586TIP3    H1 4722   6.824   3.177   1.837  0.5820  0.5547  0.5154
 1586TIP3    H2 4723   6.965   3.179   1.781 -0.3066 -0.7813 -1.9232
 1587TIP3   OH2 4724   1.810   0.200   0.610  0.2759 -0.6305 -0.0018
 1587TIP3    H1 4725   1.900   0.229   0.626  0.7323 -0.4015 -2.6745
 1587TIP3    H2 4726   1.759   0.281   0.608 -0.0045 -0.7439  1.2513
 1588TIP3   OH2 4727   6.897   5.901   4.873  0.2150 -0.0121 -0.3268
 1588TIP3    H1 4728   6.890   5.986   4.917  0.4633 -0.1515 -0.0209
 1588TIP3    H2 4729   6.807   5.869   4.869  0.1685  0.0882 -0.0918
 1589TIP3   OH2 4730   5.013   3.750   0.248 -0.2429  0.9328 -0.1134
 1589TIP3    H1 4731   4.943   3.743   0.314 -0.6338  0.6835 -0.5499
 1589TIP3    H2 4732   4.990   3.827   0.196 -0.4658  0.5690 -0.5639
 1590TIP3   OH2 4733   6.725   1.920   2.316  0.4704  0.1591  0.3790
 1590TIP3    H1 4734   6.801   1.976   2.322  0.4259  0.3238 -0.3909
 1590TIP3    H2 4735   6.749   1.854   2.250  0.4840 -0.6636  1.1822
 1591TIP3   OH2 4736   5.562   0.509   2.592  0.3299  0.4097  0.2807
 1591TIP3    H1 4737   5.471   0.488   2.570 -0.3388  2.3240  1.0242
 1591TIP3    H2 4738   5.574   0.475   2.680 -0.2659  1.7017  0.8851
 1592TIP3   OH2 4739   3.826   0.917   3.145  0.0428 -0.1034  0.5738
 1592TIP3    H1 4740   3.854   0.900   3.235 -0.4073  0.0549  0.7479
 1592TIP3    H2 4741   3.794   1.007   3.146  2.4616  0.8370 -0.3590
 1593TIP3   OH2 4742   2.185   0.876   2.050 -0.3039  0.6500 -0.1092
 1593TIP3    H1 4743   2.099   0.858   2.087  0.0614 -1.9302 -0.3758
 1593TIP3    H2 4744   2.168   0.933   1.975 -1.6195  1.1536  0.5462
 1594TIP3   OH2 4745   4.355   2.832   5.405  0.9359  0.3939  0.5104
 1594TIP3    H1 4746   4.268   2.803   5.430  1.5066 -0.9970  0.9777
 1594TIP3    H2 4747   4.362   2.810   5.312  1.0749 -0.3047  0.6746
 1595TIP3   OH2 4748   7.164   2.520   5.533  0.0013 -0.1114 -0.0696
 1595TIP3    H1 4749   7.232   2.586   5.544 -0.1522  0.2184 -0.9565
 1595TIP3    H2 4750   7.154   2.512   5.438 -1.2735 -0.0666  0.0426
 1596TIP3   OH2 4751   4.969   5.177   4.401 -0.1155 -0.8231  0.0912
 1596TIP3    H1 4752   5.004   5.093   4.432 -0.7282 -0.5476  1.5710
 1596TIP3    H2 4753   4.916   5.153   4.324  1.4129 -1.5085 -0.7991
 1597TIP3   OH2 4754   2.980   5.402   3.188 -0.0857 -0.1743 -0.5462
 1597TIP3    H1 4755   2.969   5.491   3.220  2.0498 -0.2340  0.5704
 1597TIP3    H2 4756   3.073   5.383   3.203 -0.7318 -3.0381  0.5094
 1598TIP3   OH2 4757   0.935   3.722   5.508  0.0391 -0.1563  0.2094
 1598TIP3    H1 4758   1.023   3.758   5.497  0.9985 -2.2195  0.6217
 1598TIP3    H2 4759   0.919   3.672   5.428 -0.1304 -1.0141  0.7690
 1599TIP3   OH2 4760   2.857   5.248   0.098 -0.0307  0.6229 -0.0626
 1599TIP3    H1 4761   2.764   5.265   0.114 -0.4502 -2.1953  1.1021
 1599TIP3    H2 4762   2.859   5.162   0.057  2.0974  0.1988  0.7896
 1600TIP3   OH2 4763   0.986   3.608   0.381  0.2280  0.3850  0.0949
 1600TIP3    H1 4764   0.996   3.612   0.476 -1.1444  0.9684  0.2434
 1600TIP3    H2 4765   0.900   3.647   0.365  0.4595  0.3255 -1.3928
 1601TIP3   OH2 4766   3.079   5.841   4.442  0.1074  0.0659 -0.4837
 1601TIP3    H1 4767   3.022   5.787   4.497  0.0037  2.1367  1.5646
 1601TIP3    H2 4768   3.019   5.892   4.388  0.1281  0.2098 -0.3686
 1602TIP3   OH2 4769   0.934   6.294   4.101 -0.7112 -0.1211 -0.2680
 1602TIP3    H1 4770   0.978   6.210   4.114  0.0122  0.1561 -0.8403
 1602TIP3    H2 4771   1.004   6.358   4.100 -1.2108  0.4348 -0.3718
 1603TIP3   OH2 4772   0.242   3.155   0.444  0.3000 -0.0145  0.3093
 1603TIP3    H1 4773   0.245   3.114   0.530 -0.0772 -0.6309  0.0412
 1603TIP3    H2 4774   0.165   3.116   0.402  1.9110 -1.7196 -1.2802
 1604TIP3   OH2 4775   3.262   1.238   2.557  0.3526 -0.1433 -0.0776
 1604TIP3    H1 4776   3.220   1.283   2.484  0.5356 -1.2331 -0.8703
 1604TIP3    H2 4777   3.298   1.309   2.610  2.7845  0.6767 -2.5734
 1605TIP3   OH2 4778   3.304   2.357   0.269 -0.1480 -0.2620 -0.2236
 1605TIP3    H1 4779   3.295   2.439   0.219  0.5182 -0.1129 -0.1115
 1605TIP3    H2 4780   3.216   2.337   0.298 -0.4633 -0.0612 -1.0090
 1606TIP3   OH2 4781   1.241   2.839   0.537  0.3231  0.1347 -0.6404
 1606TIP3    H1 4782   1.320   2.893   0.532  1.5911 -1.4348  0.9964
 1606TIP3    H2 4783   1.174   2.898   0.569  1.0417  1.2975 -1.1986
 1607TIP3   OH2 4784   0.215   1.788   5.743  0.2744 -0.1799  0.1637
 1607TIP3    H1 4785   0.224   1.876   5.778  2.6711  0.5779 -1.9862
 1607TIP3    H2 4786   0.221   1.731   5.819 -1.5105  1.4718  1.6289
 1608TIP3   OH2 4787   6.565   5.461   2.290 -0.1661  0.0833 -0.0481
 1608TIP3    H1 4788   6.636   5.397   2.298 -1.6280 -1.6733 -0.3414
 1608TIP3    H2 4789   6.554   5.495   2.379  1.7281  1.2444 -0.2019
 1609TIP3   OH2 4790   5.995   1.479   0.425  0.1679 -0.2591  0.3270
 1609TIP3    H1 4791   6.007   1.439   0.339  0.6871  1.6778 -0.5405
 1609TIP3    H2 4792   6.067   1.444   0.478  1.1426  0.1701 -0.6697
 1610TIP3   OH2 4793   6.506   5.304   3.515  0.1759  0.2547  0.0487
 1610TIP3    H1 4794   6.448   5.350   3.576 -0.6423  0.9906 -1.2601
 1610TIP3    H2 4795   6.584   5.359   3.511 -0.1122  0.6487 -0.2062
 1611TIP3   OH2 4796   4.304   5.452   0.502 -0.4597  0.1754 -0.4657
 1611TIP3    H1 4797   4.336   5.370   0.462  1.7247  0.8637 -0.2934
 1611TIP3    H2 4798   4.261   5.498   0.430  1.1929  0.2702 -1.4709
 1612TIP3   OH2 4799   6.135   4.859   2.476 -0.7227 -0.0412 -0.5489
 1612TIP3    H1 4800   6.041   4.866   2.494 -1.2044  1.6244 -3.2250
 1612TIP3    H2 4801   6.141   4.837   2.383  1.5788 -2.0258 -0.0383
 1613TIP3   OH2 4802   3.807   4.104   2.456 -0.5405  0.7568 -0.2878
 1613TIP3    H1 4803   3.820   4.136   2.545 -1.2681  1.0480 -0.2759
 1613TIP3    H2 4804   3.791   4.184   2.405 -0.7246  0.5479 -0.5612
 1614TIP3   OH2 4805   7.184   0.155   2.327 -0.2421 -0.1277 -0.7023
 1614TIP3    H1 4806   7.133   0.106   2.390  0.6770 -0.8190 -0.4776
 1614TIP3    H2 4807   7.147   0.243   2.329  0.6682  0.2935  1.8932
 1615TIP3   OH2 4808   4.835   0.395   0.521 -0.0993 -0.7128  0.5847
 1615TIP3    H1 4809   4.899   0.385   0.592 -0.7811 -0.3534  1.2622
 1615TIP3    H2 4810   4.859   0.478   0.478 -0.0485 -0.6268  0.7789
 1616TIP3   OH2 4811   0.142   1.691   3.532 -0.3858 -0.2081 -0.3859
 1616TIP3    H1 4812   0.194   1.660   3.606  0.4044  2.1304  0.1410
 1616TIP3    H2 4813   0.051   1.688   3.563 -0.0954  0.3949  0.5505
 1617TIP3   OH2 4814   4.700   2.228   5.128  0.0989  0.0711  0.4577
 1617TIP3    H1 4815   4.611   2.229   5.092  0.3890 -4.7808 -1.1134
 1617TIP3    H2 4816   4.690   2.187   5.214  0.7511 -0.0862  0.4637
 1618TIP3   OH2 4817   4.244   2.040   0.674  0.2207  0.2269 -0.3923
 1618TIP3    H1 4818   4.318   2.066   0.729  2.0080 -3.0445 -0.9972
 1618TIP3    H2 4819   4.174   2.019   0.736  0.7349  0.7099  0.3653
 1619TIP3   OH2 4820   4.379   6.488   1.335  0.1636  0.1869 -0.1284
 1619TIP3    H1 4821   4.295   6.445   1.353  0.7051 -0.6326  0.4915
 1619TIP3    H2 4822   4.373   6.572   1.381 -0.5705  0.4317 -0.6520
 1620TIP3   OH2 4823   1.454   4.313   1.784 -0.1357 -0.9903  0.3180
 1620TIP3    H1 4824   1.392   4.363   1.731  0.8361  1.9569  1.7653
 1620TIP3    H2 4825   1.517   4.278   1.720 -0.3127  0.4448 -0.6856
 1621TIP3   OH2 4826   5.376   4.753   1.147  0.2257  0.4922 -0.1434
 1621TIP3    H1 4827   5.421   4.792   1.222 -0.0358 -0.5616  0.5901
 1621TIP3    H2 4828   5.310   4.818   1.123  0.3763  0.8896  0.4804
 1622TIP3   OH2 4829   2.110   3.891   1.590  0.8479 -0.1016 -0.0262
 1622TIP3    H1 4830   2.178   3.929   1.535  1.9414  0.0137  1.3473
 1622TIP3    H2 4831   2.030   3.899   1.538  1.6540  0.8995 -1.1730
 1623TIP3   OH2 4832   0.694   0.236   1.447  0.2436 -0.8973 -0.1070
 1623TIP3    H1 4833   0.676   0.239   1.541  0.4312 -0.0216 -0.0919
 1623TIP3    H2 4834   0.697   0.328   1.420  3.0556 -0.9715 -0.3997
 1624TIP3   OH2 4835   5.998   3.798   4.872 -0.2359 -0.1332 -0.7926
 1624TIP3    H1 4836   5.960   3.710   4.870 -0.7437  0.0336  0.2164
 1624TIP3    H2 4837   6.092   3.784   4.881 -0.4980 -0.6819  2.5587
 1625TIP3   OH2 4838   0.016   5.712   3.842 -0.5905 -0.3800  0.4172
 1625TIP3    H1 4839   0.030   5.747   3.754  0.5698 -3.7281 -0.8859
 1625TIP3    H2 4840   0.087   5.650   3.855 -1.0368 -0.3871  3.5612
 1626TIP3   OH2 4841   6.383   4.524   3.311  0.2929 -0.2109  0.0414
 1626TIP3    H1 4842   6.436   4.489   3.382  3.5000  1.7405 -1.1520
 1626TIP3    H2 4843   6.386   4.457   3.243 -0.5632 -0.9687  0.7293
 1627TIP3   OH2 4844   6.310   6.248   1.326 -0.2899 -0.0384  0.6234
 1627TIP3    H1 4845   6.349   6.314   1.268  0.4437 -0.6908  0.3585
 1627TIP3    H2 4846   6.270   6.299   1.397 -0.2127  0.7145  0.1374
 1628TIP3   OH2 4847   3.548   0.044   5.084 -0.3208  0.2109  0.4795
 1628TIP3    H1 4848   3.598  -0.036   5.100 -1.2461 -0.1821  1.5185
 1628TIP3    H2 4849   3.462   0.027   5.123 -0.7246  1.4830  0.1823
 1629TIP3   OH2 4850   1.031   3.343   5.360  0.0159 -0.0727 -0.7872
 1629TIP3    H1 4851   1.123   3.325   5.380  0.5086  2.4558 -0.4110
 1629TIP3    H2 4852   0.984   3.312   5.437  0.5113 -1.5011 -1.0307
 1630TIP3   OH2 4853   3.807   4.047   0.242 -0.0124  0.7027  0.8911
 1630TIP3    H1 4854   3.779   4.125   0.193  0.4188 -0.2062 -0.8868
 1630TIP3    H2 4855   3.736   4.030   0.303 -0.8832  1.5264  0.1474
 1631TIP3   OH2 4856   4.096   5.941   1.537  0.6694 -0.4053  0.7798
 1631TIP3    H1 4857   4.121   5.902   1.454  1.4233 -0.7869  1.1721
 1631TIP3    H2 4858   4.073   5.867   1.593 -0.4064 -0.1171  0.7456
 1632TIP3   OH2 4859   2.154   1.185   5.780 -0.8601  0.1526  0.2956
 1632TIP3    H1 4860   2.109   1.105   5.753  0.3304 -0.6301  0.5455
 1632TIP3    H2 4861   2.227   1.154   5.835  0.0682  1.3576 -0.2101
 1633TIP3   OH2 4862   5.380   0.563   0.314 -0.0578 -0.0288 -0.2206
 1633TIP3    H1 4863   5.405   0.622   0.385  0.9815 -0.2375 -0.4004
 1633TIP3    H2 4864   5.324   0.617   0.257  0.0537  0.4799  0.1415
 1634TIP3   OH2 4865   4.538   0.534   2.096  0.1779  0.5674 -0.5572
 1634TIP3    H1 4866   4.533   0.439   2.086 -1.3189  0.7727 -2.2445
 1634TIP3    H2 4867   4.449   0.559   2.120  0.7852  1.4828  0.8537
 1635TIP3   OH2 4868   3.510   5.032   1.140  0.1812  0.2305  0.6330
 1635TIP3    H1 4869   3.457   5.043   1.219  1.2583 -1.5418  1.6811
 1635TIP3    H2 4870   3.599   5.054   1.169  0.5528 -0.2507 -0.1184
 1636TIP3   OH2 4871   2.001   5.559   3.660 -0.6435  0.1570  0.4414
 1636TIP3    H1 4872   1.912   5.592   3.666 -1.0396 -0.5582 -0.9927
 1636TIP3    H2 4873   1.993   5.465   3.680 -0.5548 -0.3002 -1.4356
 1637TIP3   OH2 4874   1.248   4.859   4.168 -0.1656  0.4068  0.0844
 1637TIP3    H1 4875   1.154   4.875   4.167 -0.2081  0.1504 -0.4051
 1637TIP3    H2 4876   1.265   4.821   4.254 -0.3251  1.4814  0.6092
 1638TIP3   OH2 4877   1.468   2.773   1.029  0.5738 -0.1210 -0.2023
 1638TIP3    H1 4878   1.468   2.789   1.123  0.6086 -0.1000 -0.2060
 1638TIP3    H2 4879   1.377   2.755   1.007  0.5532 -0.0429 -0.1793
 1639TIP3   OH2 4880   7.015   4.223   5.359 -0.2676  0.1289 -0.1131
 1639TIP3    H1 4881   6.928   4.218   5.319 -0.9065  0.8786  1.1154
 1639TIP3    H2 4882   7.013   4.157   5.429  0.7470 -0.9945 -1.0967
 1640TIP3   OH2 4883   4.000   2.401   2.330 -0.1812 -0.7779 -0.2889
 1640TIP3    H1 4884   4.013   2.490   2.295 -0.4418 -1.1702 -1.4370
 1640TIP3    H2 4885   3.916   2.374   2.293 -0.7909 -0.9955  1.1767
 1641TIP3   OH2 4886   6.608   6.116   1.162  0.0569 -0.5093  0.6218
 1641TIP3    H1 4887   6.695   6.080   1.176  0.5689  0.2122 -0.5460
 1641TIP3    H2 4888   6.587   6.161   1.244  0.3317 -1.5525  1.2818
 1642TIP3   OH2 4889   2.219   0.191   1.996 -0.7542  0.6245 -0.0888
 1642TIP3    H1 4890   2.133   0.232   1.995 -1.2907 -0.4853 -0.2936
 1642TIP3    H2 4891   2.264   0.228   1.920 -1.1614  0.9773 -0.1617
 1643TIP3   OH2 4892   4.841   0.419   4.671  0.0548  0.7580  0.1801
 1643TIP3    H1 4893   4.748   0.417   4.690  0.0215  1.0802  0.0541
 1643TIP3    H2 4894   4.881   0.462   4.747 -0.3368  4.3285 -1.4193
 1644TIP3   OH2 4895   4.626   3.547   0.450  0.1253  0.2624 -0.3811
 1644TIP3    H1 4896   4.690   3.479   0.473 -0.2336 -0.1618 -0.6295
 1644TIP3    H2 4897   4.631   3.553   0.354 -0.8828 -0.4439 -0.4854
 1645TIP3   OH2 4898   2.316   4.052   0.053 -0.4872  0.2022 -0.1433
 1645TIP3    H1 4899   2.383   4.098   0.104 -1.7412  1.3700  0.5282
 1645TIP3    H2 4900   2.313   4.099  -0.030 -1.0921  0.7634  0.1801
 1646TIP3   OH2 4901   1.149   3.289   4.554 -0.5900 -0.2852  0.1950
 1646TIP3    H1 4902   1.157   3.351   4.481  1.5133 -1.7017 -0.8594
 1646TIP3    H2 4903   1.129   3.205   4.513  0.9655 -1.1862  1.1782
 1647TIP3   OH2 4904   2.681   5.033   4.217 -0.4748 -0.5662 -0.4032
 1647TIP3    H1 4905   2.727   5.117   4.221 -1.2088 -0.1227 -1.0107
 1647TIP3    H2 4906   2.682   5.001   4.307 -0.9930  0.5500  0.0226
 1648TIP3   OH2 4907   5.601   6.419   0.704 -0.1401 -0.1955 -0.2870
 1648TIP3    H1 4908   5.671   6.355   0.687 -0.2993 -0.3687 -0.2848
 1648TIP3    H2 4909   5.598   6.427   0.799  0.2193  0.1919 -0.3007
 1649TIP3   OH2 4910   5.774   4.494   2.879 -0.0248 -0.3779 -0.0191
 1649TIP3    H1 4911   5.766   4.502   2.974 -0.7542  0.7123 -0.1561
 1649TIP3    H2 4912   5.702   4.437   2.854  0.3877 -0.9674  0.1083
 1650TIP3   OH2 4913   2.018   0.727   3.241  0.0852 -0.0667  0.1726
 1650TIP3    H1 4914   1.940   0.673   3.246 -0.4377  0.7731  2.2688
 1650TIP3    H2 4915   2.000   0.801   3.299  1.6709  1.1709 -0.8196
 1651TIP3   OH2 4916   0.264   3.952   4.478  0.6454 -0.3926 -0.1660
 1651TIP3    H1 4917   0.324   3.987   4.543  0.7542 -1.7265  0.4873
 1651TIP3    H2 4918   0.271   3.857   4.488  0.3709 -0.6102 -1.8693
 1652TIP3   OH2 4919   2.972   6.416   2.171  0.1602  0.6019  0.2348
 1652TIP3    H1 4920   2.991   6.371   2.089  0.0824 -1.3080  1.2073
 1652TIP3    H2 4921   3.047   6.474   2.184  0.2859  0.7533 -1.0601
 1653TIP3   OH2 4922   1.331   2.642   2.528  0.0665 -0.0619  0.2114
 1653TIP3    H1 4923   1.308   2.733   2.548 -0.2587 -0.3545  1.2051
 1653TIP3    H2 4924   1.423   2.645   2.504 -0.2735  0.7251 -1.1046
 1654TIP3   OH2 4925   5.570   1.025   0.422  0.0838 -0.0803  0.3576
 1654TIP3    H1 4926   5.642   1.010   0.483 -0.3231 -0.4281  0.7633
 1654TIP3    H2 4927   5.612   1.031   0.336  1.0965  3.8898  0.9406
 1655TIP3   OH2 4928   1.305   3.369   0.635 -0.7134  0.6307  0.2009
 1655TIP3    H1 4929   1.325   3.459   0.661 -0.4484  0.3830  0.8740
 1655TIP3    H2 4930   1.368   3.350   0.565 -0.6461  0.9101  0.1860
 1656TIP3   OH2 4931   7.123   4.170   3.255  0.0427 -0.0833  0.3595
 1656TIP3    H1 4932   7.094   4.254   3.220 -0.8773 -1.2830 -1.9628
 1656TIP3    H2 4933   7.054   4.144   3.316  0.1377  0.6454  0.7813
 1657TIP3   OH2 4934   3.274   0.547   2.860  0.4471 -0.4679 -0.5885
 1657TIP3    H1 4935   3.312   0.587   2.782 -0.8502  1.6875 -0.2031
 1657TIP3    H2 4936   3.226   0.471   2.828  2.9654 -1.8253 -1.3645
 1658TIP3   OH2 4937   3.938   6.160   3.595 -0.1898  0.4135 -0.2266
 1658TIP3    H1 4938   3.911   6.069   3.591  0.6611  0.1815 -1.0532
 1658TIP3    H2 4939   3.861   6.210   3.568 -0.6481 -0.0487  0.2092
 1659TIP3   OH2 4940   3.594   6.718   4.285  0.3111  0.5421  0.1307
 1659TIP3    H1 4941   3.569   6.732   4.194  1.6983  0.7964 -0.2418
 1659TIP3    H2 4942   3.660   6.785   4.303  2.4263 -1.4232  0.2926
 1660TIP3   OH2 4943   4.146   0.837   4.870  0.9319  0.1069  0.5971
 1660TIP3    H1 4944   4.158   0.764   4.930 -0.2078 -0.5374  0.0733
 1660TIP3    H2 4945   4.230   0.883   4.871  0.7771  0.4986  3.1738
 1661TIP3   OH2 4946   0.955   4.958   4.901 -0.3494 -0.0140  0.3171
 1661TIP3    H1 4947   0.867   4.970   4.864  0.2428  1.0155 -0.8468
 1661TIP3    H2 4948   1.012   5.007   4.842  0.9123  0.0188  1.5270
 1662TIP3   OH2 4949   5.597   2.095   3.420  0.6251 -0.5432  0.6192
 1662TIP3    H1 4950   5.614   2.084   3.327  1.3326 -0.4642  0.7319
 1662TIP3    H2 4951   5.684   2.107   3.459  0.2436  0.8369  1.1006
 1663TIP3   OH2 4952   6.954   6.809   2.560  0.1799  0.2542 -0.2404
 1663TIP3    H1 4953   6.891   6.761   2.614  1.5596 -0.3006  0.9469
 1663TIP3    H2 4954   7.032   6.754   2.560  0.6537  0.8824 -1.7509
 1664TIP3   OH2 4955   2.855   0.218   3.775 -0.0600  0.0582 -0.1383
 1664TIP3    H1 4956   2.811   0.140   3.807 -2.1506  1.2457  0.0646
 1664TIP3    H2 4957   2.920   0.238   3.842 -2.7485  1.1561  2.3913
 1665TIP3   OH2 4958   4.325   0.189   3.509  0.4904  0.5144 -0.6782
 1665TIP3    H1 4959   4.320   0.144   3.425  0.2357  3.6978 -2.5486
 1665TIP3    H2 4960   4.418   0.210   3.520  0.2115  2.5351 -1.6884
 1666TIP3   OH2 4961   0.288   1.817   4.939 -0.0951 -0.1505 -0.0914
 1666TIP3    H1 4962   0.310   1.901   4.979  1.0608 -0.9196  0.9914
 1666TIP3    H2 4963   0.194   1.809   4.949 -0.2805  1.1757 -0.5590
 1667TIP3   OH2 4964   7.082   3.550   2.112  0.0514 -0.0256 -0.2085
 1667TIP3    H1 4965   7.117   3.634   2.140  0.2890 -0.5181  1.0505
 1667TIP3    H2 4966   7.148   3.515   2.053  1.8032 -0.9263  2.1087
 1668TIP3   OH2 4967   5.417   2.135   4.980 -0.1815  0.0252  0.1351
 1668TIP3    H1 4968   5.407   2.163   5.071  2.0002 -1.7033  0.9814
 1668TIP3    H2 4969   5.406   2.040   4.982  0.9427 -0.1690 -1.1911
 1669TIP3   OH2 4970   5.460  -0.023   0.435  0.1573  0.0542  0.2277
 1669TIP3    H1 4971   5.436   0.069   0.445 -0.1368 -0.0998  1.0402
 1669TIP3    H2 4972   5.480  -0.033   0.342  0.2308  0.9453  0.1422
 1670TIP3   OH2 4973   4.524   2.295   4.591 -0.1409  0.2622 -0.1147
 1670TIP3    H1 4974   4.481   2.303   4.676  0.1383 -1.4468  0.2355
 1670TIP3    H2 4975   4.609   2.254   4.612  0.6057  1.3019 -1.0507
 1671TIP3   OH2 4976   2.215   5.798   5.640  0.8852  0.2862  0.2529
 1671TIP3    H1 4977   2.205   5.714   5.685 -0.3994  0.2786  0.0013
 1671TIP3    H2 4978   2.128   5.816   5.605  1.3375  1.3594 -0.3479
 1672TIP3   OH2 4979   1.541   3.555   4.396 -0.0957 -0.0774 -0.0542
 1672TIP3    H1 4980   1.562   3.538   4.488 -0.5222  0.8489  0.2302
 1672TIP3    H2 4981   1.555   3.471   4.352 -1.6178 -1.0306  1.1804
 1673TIP3   OH2 4982   0.637   2.450   2.390 -0.6138  0.5638 -0.1245
 1673TIP3    H1 4983   0.690   2.495   2.324  0.2697 -0.7597 -0.3665
 1673TIP3    H2 4984   0.576   2.516   2.422  0.9254  2.0248 -0.1276
 1674TIP3   OH2 4985   1.558   2.070   1.072  0.0248  0.5714  0.0276
 1674TIP3    H1 4986   1.505   1.991   1.073 -1.7117  1.4888 -3.5070
 1674TIP3    H2 4987   1.531   2.118   1.150 -0.1744 -1.4236  1.2729
 1675TIP3   OH2 4988   3.736   2.199   0.353  0.7048  0.0281 -0.2256
 1675TIP3    H1 4989   3.769   2.137   0.418 -1.6973  1.6701  2.8389
 1675TIP3    H2 4990   3.649   2.165   0.331 -0.2520  1.6951  0.7782
 1676TIP3   OH2 4991   2.786   2.744   1.528 -0.4672  0.0097 -0.7353
 1676TIP3    H1 4992   2.790   2.753   1.433 -2.2407 -1.5731 -1.0266
 1676TIP3    H2 4993   2.862   2.690   1.550  1.0458  1.9400 -0.9471
 1677TIP3   OH2 4994   2.322   3.189   2.720 -0.1837  0.2072  0.5840
 1677TIP3    H1 4995   2.378   3.234   2.783  1.3504 -2.3426  1.1618
 1677TIP3    H2 4996   2.271   3.127   2.773  0.2000 -1.0733 -0.4943
 1678TIP3   OH2 4997   0.683   5.367   3.807 -0.1827  0.1308  0.0178
 1678TIP3    H1 4998   0.714   5.410   3.727  0.1683 -0.3099 -0.0876
 1678TIP3    H2 4999   0.762   5.331   3.847 -0.3944  0.1190  0.4283
 1679TIP3   OH2 5000   0.281   3.360   3.095  0.6030  0.0934  0.3359
 1679TIP3    H1 5001   0.196   3.356   3.138 -1.4200  0.4536 -3.2386
 1679TIP3    H2 5002   0.307   3.452   3.103 -1.0584  0.7818 -1.2915
 1680TIP3   OH2 5003   4.308   0.612   2.221 -0.5867 -0.0554 -0.2730
 1680TIP3    H1 5004   4.227   0.581   2.180 -0.7116  1.5865 -1.3821
 1680TIP3    H2 5005   4.293   0.706   2.236  1.0194  0.2312 -0.2847
 1681TIP3   OH2 5006   3.469   4.711   5.149 -0.5132  0.2091  0.5125
 1681TIP3    H1 5007   3.469   4.721   5.244 -0.3480 -0.1377  0.5520
 1681TIP3    H2 5008   3.504   4.623   5.134 -1.4727 -0.1287  0.1709
 1682TIP3   OH2 5009   2.972   5.959   1.298  0.3326  0.2075  0.1260
 1682TIP3    H1 5010   2.994   5.872   1.331 -0.0934 -0.3181 -0.9371
 1682TIP3    H2 5011   2.906   5.943   1.230  0.3157  1.3506 -0.1429
 1683TIP3   OH2 5012   6.192   4.548   1.124 -0.0080  0.0837  0.2644
 1683TIP3    H1 5013   6.205   4.507   1.209 -1.1300 -0.0901  0.3695
 1683TIP3    H2 5014   6.144   4.483   1.072  2.8406 -0.8450 -1.3998
 1684TIP3   OH2 5015   3.443   4.738   1.867 -0.3702  0.6648 -0.9794
 1684TIP3    H1 5016   3.508   4.680   1.828 -1.3667 -0.0743 -1.5987
 1684TIP3    H2 5017   3.362   4.687   1.866 -0.6783  1.0373  1.0587
 1685TIP3   OH2 5018   0.560   2.946   1.788  0.1223 -0.2244  0.2971
 1685TIP3    H1 5019   0.587   2.873   1.843  0.5328 -0.5564 -0.3360
 1685TIP3    H2 5020   0.540   3.016   1.850  2.9375  0.2329  0.7809
 1686TIP3   OH2 5021   2.301   3.586   2.683  0.2127  0.4556 -0.7237
 1686TIP3    H1 5022   2.346   3.542   2.610  0.7636  1.1716 -0.8244
 1686TIP3    H2 5023   2.215   3.544   2.687  1.1092 -1.4444 -0.0910
 1687TIP3   OH2 5024   0.556   5.564   4.654 -0.0785 -0.0790 -0.5612
 1687TIP3    H1 5025   0.547   5.480   4.610  0.7713 -0.1569 -0.6073
 1687TIP3    H2 5026   0.566   5.627   4.582  1.0530 -0.1741 -0.5135
 1688TIP3   OH2 5027   6.500   4.140   4.366  0.3534  0.0262 -0.3560
 1688TIP3    H1 5028   6.422   4.150   4.312  1.2134 -0.9112 -1.8401
 1688TIP3    H2 5029   6.484   4.060   4.417 -0.5799  1.0648  1.0529
 1689TIP3   OH2 5030   2.545   2.128   3.686 -0.1274  0.2065 -0.0335
 1689TIP3    H1 5031   2.570   2.105   3.596 -1.2816 -0.3297 -0.2474
 1689TIP3    H2 5032   2.600   2.202   3.708 -0.5724  1.0577 -1.6086
 1690TIP3   OH2 5033   2.200   0.069   2.961 -0.2256  0.2416  0.2740
 1690TIP3    H1 5034   2.227   0.097   3.048  1.1824  1.8870 -0.6323
 1690TIP3    H2 5035   2.176   0.150   2.915 -0.6654 -0.5468 -0.9532
 1691TIP3   OH2 5036   2.913   6.660   5.769  0.3334 -0.1438 -0.6280
 1691TIP3    H1 5037   2.820   6.643   5.754  0.7197 -1.3820 -1.8822
 1691TIP3    H2 5038   2.950   6.575   5.792  1.2974  0.1735 -0.9351
 1692TIP3   OH2 5039   4.753   5.046   4.522 -0.3297  0.0279  0.0397
 1692TIP3    H1 5040   4.796   5.023   4.439 -2.0368 -1.1770 -0.5477
 1692TIP3    H2 5041   4.797   4.993   4.588 -0.1474 -0.3312 -0.3690
 1693TIP3   OH2 5042   3.038   1.425   1.702 -0.5163  0.0324 -0.2699
 1693TIP3    H1 5043   3.059   1.456   1.790 -1.5343 -0.6668  0.2342
 1693TIP3    H2 5044   3.092   1.347   1.691  1.1263  1.1982 -1.0751
 1694TIP3   OH2 5045   5.420   2.270   2.997  0.0910 -0.2286 -0.0828
 1694TIP3    H1 5046   5.484   2.254   2.927 -0.6052 -1.5583 -0.4584
 1694TIP3    H2 5047   5.348   2.210   2.977 -1.4763  1.5036  0.0936
 1695TIP3   OH2 5048   2.940   5.977   0.953  0.2593 -0.0001 -0.4581
 1695TIP3    H1 5049   2.998   5.943   0.885  0.0072  0.2400 -0.7974
 1695TIP3    H2 5050   2.970   6.067   0.967  0.0536  0.0812 -0.5395
 1696TIP3   OH2 5051   2.200   0.255   3.510  0.2337 -0.1512  0.2768
 1696TIP3    H1 5052   2.160   0.175   3.543 -0.3333 -0.9468 -2.1054
 1696TIP3    H2 5053   2.126   0.308   3.480  0.7176  0.2951 -0.1616
 1697TIP3   OH2 5054   0.662   3.153   1.503  0.0748  0.0838  0.4525
 1697TIP3    H1 5055   0.600   3.185   1.568 -0.8471  0.0903 -0.4103
 1697TIP3    H2 5056   0.621   3.074   1.467 -0.1255  0.8684 -1.1384
 1698TIP3   OH2 5057   3.190   2.299   1.415 -0.0008 -0.0593  0.2697
 1698TIP3    H1 5058   3.129   2.362   1.377  0.7882 -0.2089 -1.3147
 1698TIP3    H2 5059   3.138   2.219   1.425 -0.8116  0.5991  1.6307
 1699TIP3   OH2 5060   1.333   5.574   3.812 -0.3568  0.0578 -0.5014
 1699TIP3    H1 5061   1.291   5.596   3.728  1.7034  0.2822 -1.5323
 1699TIP3    H2 5062   1.261   5.574   3.875 -1.6925  1.7849 -1.9131
 1700TIP3   OH2 5063   6.770   3.265   0.915  0.2264  0.2824 -0.3019
 1700TIP3    H1 5064   6.708   3.314   0.968  0.7602  0.7845 -0.1336
 1700TIP3    H2 5065   6.724   3.249   0.832 -0.2852  0.2616 -0.0161
 1701TIP3   OH2 5066   0.274   3.719   2.009 -0.6367  0.2168  0.1722
 1701TIP3    H1 5067   0.284   3.783   1.939 -0.7242  0.0371 -0.0056
 1701TIP3    H2 5068   0.362   3.686   2.024 -0.3935  1.2195  1.0706
 1702TIP3   OH2 5069   5.177   3.671   5.639 -0.1784  0.1861  0.0903
 1702TIP3    H1 5070   5.254   3.714   5.677  1.5447 -2.0413 -0.6472
 1702TIP3    H2 5071   5.164   3.716   5.555  1.2795 -0.3466 -0.4563
 1703TIP3   OH2 5072   4.051   2.205   0.583  0.7320 -0.0215  0.0673
 1703TIP3    H1 5073   3.977   2.147   0.566  0.9072 -0.1571 -0.2329
 1703TIP3    H2 5074   4.124   2.146   0.604  0.8707  0.0963 -0.0832
 1704TIP3   OH2 5075   4.206   2.716   3.021  0.8498 -0.3488  0.0910
 1704TIP3    H1 5076   4.258   2.768   3.082 -2.8911  1.5458  2.0144
 1704TIP3    H2 5077   4.205   2.767   2.941 -1.9225  2.3193  1.6343
 1705TIP3   OH2 5078   2.939   5.855   0.589 -0.6404 -0.1748 -0.2927
 1705TIP3    H1 5079   3.010   5.795   0.612 -0.9244 -0.6423 -0.6325
 1705TIP3    H2 5080   2.937   5.854   0.493  0.2063  1.3763 -0.3761
 1706TIP3   OH2 5081   3.170   0.353   2.660  0.5872  0.4170 -0.7376
 1706TIP3    H1 5082   3.107   0.284   2.636 -0.8573  1.4338  0.0013
 1706TIP3    H2 5083   3.181   0.404   2.580  2.1451 -0.9587 -1.4777
 1707TIP3   OH2 5084   2.074   6.160   5.767 -0.3477  0.3047 -0.1516
 1707TIP3    H1 5085   2.033   6.190   5.686 -1.6739  1.4658  0.9022
 1707TIP3    H2 5086   2.019   6.195   5.836  1.9096  1.1213  1.3407
 1708TIP3   OH2 5087   6.440   4.358   4.793 -0.4741 -0.3848  0.5752
 1708TIP3    H1 5088   6.367   4.327   4.739  0.1536 -0.1928 -0.4060
 1708TIP3    H2 5089   6.517   4.349   4.737 -0.3688  4.4702 -0.5534
 1709TIP3   OH2 5090   5.012   3.949   0.517  0.1042  0.4768 -0.4301
 1709TIP3    H1 5091   5.106   3.949   0.501  0.1665 -1.5396 -0.3025
 1709TIP3    H2 5092   4.978   3.878   0.463 -1.3472  1.1093 -0.4115
 1710TIP3   OH2 5093   1.346   2.772   2.171  0.2658  0.3802  0.5574
 1710TIP3    H1 5094   1.277   2.747   2.109  0.4705 -0.9167  0.8078
 1710TIP3    H2 5095   1.427   2.754   2.123  0.5441  3.6073 -0.4284
 1711TIP3   OH2 5096   4.419   5.070   4.821  0.1289  0.0285  0.3022
 1711TIP3    H1 5097   4.435   5.126   4.745 -0.2621 -1.4999 -0.9580
 1711TIP3    H2 5098   4.505   5.061   4.863  0.6631 -0.3181 -0.8341
 1712TIP3   OH2 5099   2.691   6.106   4.890 -0.7973  0.5469 -0.1279
 1712TIP3    H1 5100   2.615   6.116   4.833 -2.9856 -1.0239  2.3146
 1712TIP3    H2 5101   2.697   6.188   4.938 -1.3846  0.4294  0.1517
 1713TIP3   OH2 5102   5.712   3.783   4.750  0.7664 -0.9563  0.6768
 1713TIP3    H1 5103   5.702   3.877   4.761  1.7045 -1.0966  3.8098
 1713TIP3    H2 5104   5.687   3.766   4.660 -1.5828  1.9645  0.6428
 1714TIP3   OH2 5105   6.106   3.764   2.760 -0.3973  0.0427 -0.1015
 1714TIP3    H1 5106   6.112   3.782   2.854 -0.5425 -0.0164 -0.0806
 1714TIP3    H2 5107   6.063   3.841   2.724 -2.1739 -0.7637  0.1650
 1715TIP3   OH2 5108   2.359   4.209   4.155  0.0294  0.1865 -0.3783
 1715TIP3    H1 5109   2.430   4.272   4.144  1.3865 -1.1492  0.3480
 1715TIP3    H2 5110   2.388   4.131   4.108 -0.4691 -0.7293  0.7709
 1716TIP3   OH2 5111   4.341   0.359   4.235  0.0936 -0.1699 -0.0983
 1716TIP3    H1 5112   4.433   0.386   4.230  0.5416 -1.4702  0.6332
 1716TIP3    H2 5113   4.292   0.441   4.236  1.2421  0.5447 -0.4573
 1717TIP3   OH2 5114   4.185   5.248   4.710  0.3481  0.2110  0.0726
 1717TIP3    H1 5115   4.196   5.177   4.647 -1.0435  0.0400 -0.0142
 1717TIP3    H2 5116   4.118   5.216   4.770  0.4509  1.0444  0.6507
 1718TIP3   OH2 5117   2.556   3.057   2.870 -0.4140 -0.0343  0.1038
 1718TIP3    H1 5118   2.575   2.963   2.872  2.0460  0.3854  1.1648
 1718TIP3    H2 5119   2.493   3.070   2.941 -1.5989 -0.9995 -0.7435
 1719TIP3   OH2 5120   3.347   5.487   0.199 -0.0941  0.2763  0.0467
 1719TIP3    H1 5121   3.278   5.487   0.265 -1.3856 -1.9521 -1.1808
 1719TIP3    H2 5122   3.324   5.560   0.141 -1.3258 -0.2892 -0.2110
 1720TIP3   OH2 5123   1.249   2.465   5.567  0.4766  0.0706  0.0318
 1720TIP3    H1 5124   1.339   2.482   5.538 -0.0066  0.4364 -1.3131
 1720TIP3    H2 5125   1.201   2.450   5.486 -0.8844  0.8902  0.6617
 1721TIP3   OH2 5126   2.491   1.820   5.446 -0.2109 -0.8921  0.4146
 1721TIP3    H1 5127   2.429   1.837   5.517  2.8070 -1.4779  3.4189
 1721TIP3    H2 5128   2.554   1.892   5.451  0.9807 -1.8201 -0.6373
 1722TIP3   OH2 5129   4.086   1.112   5.256 -0.0894 -0.0833 -0.1950
 1722TIP3    H1 5130   4.036   1.169   5.315 -0.2652  0.3923 -0.7879
 1722TIP3    H2 5131   4.051   1.131   5.169 -0.4193 -1.4002 -0.3669
 1723TIP3   OH2 5132   0.718   0.548   3.333 -0.7809  0.3385 -0.1428
 1723TIP3    H1 5133   0.742   0.458   3.357 -1.1008  0.1094 -0.6602
 1723TIP3    H2 5134   0.628   0.541   3.300 -0.8818  0.8841  0.0043
 1724TIP3   OH2 5135   3.720   5.416   2.665  0.5152 -0.0731 -0.7129
 1724TIP3    H1 5136   3.796   5.373   2.703 -0.5807 -1.0614  0.4342
 1724TIP3    H2 5137   3.703   5.368   2.584 -0.6029 -1.7997  0.4781
 1725TIP3   OH2 5138   2.481   2.324   0.352 -0.8153  0.7297  0.2598
 1725TIP3    H1 5139   2.530   2.394   0.396  2.1538 -0.1068 -1.4164
 1725TIP3    H2 5140   2.525   2.314   0.268 -4.3137  0.1823 -1.7064
 1726TIP3   OH2 5141   1.242   5.262   0.254 -0.0689 -0.0218 -0.1376
 1726TIP3    H1 5142   1.325   5.239   0.212  0.6545  1.5273  0.3825
 1726TIP3    H2 5143   1.268   5.312   0.332 -1.4766 -0.2170  0.4827
 1727TIP3   OH2 5144   6.799   4.274   5.888  0.4830  0.4005 -0.1899
 1727TIP3    H1 5145   6.729   4.222   5.850  0.8129 -0.7001  0.6337
 1727TIP3    H2 5146   6.774   4.365   5.871 -1.9485  0.1326  1.3965
 1728TIP3   OH2 5147   2.642   6.474   2.118 -0.3115 -0.0783 -0.0721
 1728TIP3    H1 5148   2.678   6.390   2.091  1.8637  0.7187  0.1091
 1728TIP3    H2 5149   2.637   6.469   2.214 -0.4395 -0.0902 -0.0787
 1729TIP3   OH2 5150   1.115   6.758   1.330  0.0310  0.3961 -0.0562
 1729TIP3    H1 5151   1.181   6.709   1.378  2.3891  1.4465 -2.0074
 1729TIP3    H2 5152   1.098   6.835   1.383  0.7297  0.3205  0.2871
 1730TIP3   OH2 5153   3.247   6.388   4.708 -0.0972 -0.5367  0.2715
 1730TIP3    H1 5154   3.209   6.304   4.734 -1.5683  0.2164  0.6488
 1730TIP3    H2 5155   3.330   6.365   4.666  0.5152 -2.0406  2.2011
 1731TIP3   OH2 5156   1.363   2.966   2.338  0.3765  0.3169 -0.3169
 1731TIP3    H1 5157   1.319   3.044   2.303  0.7961  0.3544 -0.7718
 1731TIP3    H2 5158   1.335   2.895   2.281  0.6728  0.2885 -0.4275
 1732TIP3   OH2 5159   0.564   3.737   2.733  0.4682  0.0401  0.1628
 1732TIP3    H1 5160   0.525   3.653   2.755  0.7545 -0.0991  0.1366
 1732TIP3    H2 5161   0.586   3.776   2.818 -2.1186  1.2898  0.3781
 1733TIP3   OH2 5162   6.186   0.843   1.837  0.1117 -0.3253 -0.1181
 1733TIP3    H1 5163   6.153   0.825   1.925  0.3926 -3.7624 -0.5887
 1733TIP3    H2 5164   6.117   0.812   1.779  0.7183  0.1628 -1.1297
 1734TIP3   OH2 5165   2.424   4.152   1.585  0.6846 -0.0230 -0.4246
 1734TIP3    H1 5166   2.480   4.227   1.604  1.2500 -0.9479  1.9267
 1734TIP3    H2 5167   2.342   4.190   1.553  0.9978  1.5815  0.5910
 1735TIP3   OH2 5168   3.535   2.804   5.560 -0.1836 -0.2889  0.7555
 1735TIP3    H1 5169   3.491   2.866   5.502 -0.8138  0.2128  1.7265
 1735TIP3    H2 5170   3.603   2.763   5.506  0.0467  1.0272  0.0006
 1736TIP3   OH2 5171   3.118   5.517   0.378  0.4341 -0.2558  0.7434
 1736TIP3    H1 5172   3.124   5.528   0.473 -1.5183  0.8420  0.8035
 1736TIP3    H2 5173   3.055   5.446   0.366  3.3143 -2.9332  0.2088
 1737TIP3   OH2 5174   5.749   0.026   2.526 -0.6406  0.0386 -0.1300
 1737TIP3    H1 5175   5.795  -0.055   2.548  0.7351  0.3894 -1.5082
 1737TIP3    H2 5176   5.819   0.092   2.520 -1.6993  1.2869  0.6930
 1738TIP3   OH2 5177   3.755   6.140   3.144  0.2554 -0.0305  0.2637
 1738TIP3    H1 5178   3.667   6.109   3.167  0.4617 -0.7364  0.1387
 1738TIP3    H2 5179   3.814   6.089   3.200  0.5156  1.7513  1.6941
 1739TIP3   OH2 5180   6.283   0.328   2.090  0.0675  0.4231 -0.1289
 1739TIP3    H1 5181   6.355   0.362   2.037 -0.6716  0.8688 -0.8793
 1739TIP3    H2 5182   6.222   0.402   2.097 -0.0655  0.2195  0.9562
 1740TIP3   OH2 5183   5.843   6.251   0.427  0.0288  0.1824  0.2654
 1740TIP3    H1 5184   5.807   6.217   0.509 -0.0699 -0.4538 -0.0344
 1740TIP3    H2 5185   5.809   6.192   0.360 -1.0185  1.5065 -0.4141
 1741TIP3   OH2 5186   4.090   1.787   1.721 -0.0586 -0.1321  0.3178
 1741TIP3    H1 5187   4.136   1.871   1.725  0.2743 -0.2918 -0.0614
 1741TIP3    H2 5188   4.158   1.721   1.735 -0.4506 -0.3218  1.4544
 1742TIP3   OH2 5189   3.472   0.593   4.123 -0.4315  0.5485  0.4487
 1742TIP3    H1 5190   3.522   0.538   4.182  0.6906  0.9101 -0.1365
 1742TIP3    H2 5191   3.415   0.532   4.076 -0.0901  0.0471  0.6792
 1743TIP3   OH2 5192   2.299   2.029   2.349 -0.3491 -0.0492 -0.1554
 1743TIP3    H1 5193   2.236   2.048   2.280 -2.0001 -0.8803  1.0724
 1743TIP3    H2 5194   2.276   1.942   2.380  0.3134  0.3318  1.4999
 1744TIP3   OH2 5195   5.268   0.340   0.181 -0.2059  0.1794 -0.0513
 1744TIP3    H1 5196   5.316   0.403   0.235 -0.3914 -0.2248  0.5791
 1744TIP3    H2 5197   5.245   0.269   0.240 -0.7992 -0.0567 -0.5564
 1745TIP3   OH2 5198   5.092   0.114   3.142  0.1754 -0.4265  0.4867
 1745TIP3    H1 5199   5.079   0.162   3.060 -1.7402  0.3126  1.1970
 1745TIP3    H2 5200   5.172   0.152   3.179 -0.4888  1.1920  0.3203
 1746TIP3   OH2 5201   4.059   0.066   3.584  0.0184 -0.0544 -0.4878
 1746TIP3    H1 5202   4.007   0.121   3.524  0.3501  1.3105  0.4254
 1746TIP3    H2 5203   4.149   0.093   3.569  0.1360  0.0480  0.3588
 1747TIP3   OH2 5204   4.925   0.508   4.912  0.3707  0.6643  0.5242
 1747TIP3    H1 5205   4.923   0.603   4.899 -1.2915  0.7612  1.2258
 1747TIP3    H2 5206   5.007   0.492   4.958 -0.0293  1.9674  1.7490
 1748TIP3   OH2 5207   1.807   1.066   3.449 -0.2264  0.5046  0.0939
 1748TIP3    H1 5208   1.732   1.044   3.394 -0.5245  0.3651  0.5419
 1748TIP3    H2 5209   1.785   1.027   3.534  0.7482 -0.2914 -0.0032
 1749TIP3   OH2 5210   2.588   6.297   5.797 -0.3072  0.3008 -0.0298
 1749TIP3    H1 5211   2.669   6.270   5.839  0.0689  0.5897 -0.5693
 1749TIP3    H2 5212   2.520   6.281   5.863 -0.0105 -1.2851 -0.0878
 1750TIP3   OH2 5213   1.039   0.891   5.808  0.1959 -0.1739 -0.4603
 1750TIP3    H1 5214   0.968   0.833   5.839 -0.1519  0.4184 -0.1333
 1750TIP3    H2 5215   1.047   0.957   5.877  1.9897 -0.9818  0.1873
 1751TIP3   OH2 5216   4.137   1.877   5.805 -0.4413  0.0080  0.0255
 1751TIP3    H1 5217   4.158   1.968   5.825  0.1608 -0.0249 -0.4493
 1751TIP3    H2 5218   4.132   1.874   5.710  2.0877 -0.9867 -0.1493
 1752TIP3   OH2 5219   0.460   5.356   2.813  0.4918  0.5382 -0.4037
 1752TIP3    H1 5220   0.386   5.406   2.779  0.4965  1.7206  1.1988
 1752TIP3    H2 5221   0.431   5.324   2.898  1.7627  0.9278  0.2085
 1753TIP3   OH2 5222   3.564   4.893   2.432  0.1901 -0.5901  0.0858
 1753TIP3    H1 5223   3.562   4.798   2.439  1.5174 -0.5761  0.9657
 1753TIP3    H2 5224   3.657   4.916   2.439 -0.2531  0.8928  1.9950
 1754TIP3   OH2 5225   6.507   2.010   1.784  0.1415  0.0647  0.7659
 1754TIP3    H1 5226   6.529   1.916   1.783  1.1621  0.2171  2.8303
 1754TIP3    H2 5227   6.459   2.024   1.703 -1.7358 -2.6476  1.2652
 1755TIP3   OH2 5228   4.527   5.639   3.822  0.2624  0.2089  0.1661
 1755TIP3    H1 5229   4.527   5.577   3.895 -0.1655 -1.4872 -1.2070
 1755TIP3    H2 5230   4.481   5.593   3.752  2.6597  0.7985 -1.9558
 1756TIP3   OH2 5231   1.858   3.995   5.898 -0.2074  0.2199  0.7167
 1756TIP3    H1 5232   1.934   3.947   5.929  1.0490  1.4056 -0.4108
 1756TIP3    H2 5233   1.806   3.930   5.851 -0.4286 -0.8160  2.3063
 1757TIP3   OH2 5234   1.491   3.304   2.650 -0.0065 -0.2648  0.3233
 1757TIP3    H1 5235   1.397   3.287   2.640 -0.2463  0.5723  1.0554
 1757TIP3    H2 5236   1.530   3.275   2.567 -1.2672  1.9195 -1.1231
 1758TIP3   OH2 5237   5.244   3.191   0.861  0.5143  0.0452  0.2176
 1758TIP3    H1 5238   5.323   3.218   0.814  0.7244 -0.7495  0.0964
 1758TIP3    H2 5239   5.262   3.101   0.888  0.0137  0.1708  0.9927
 1759TIP3   OH2 5240   6.511   5.374   2.857  0.3100  0.0990 -0.2764
 1759TIP3    H1 5241   6.502   5.338   2.945 -1.4024  2.7333  0.7799
 1759TIP3    H2 5242   6.598   5.414   2.856  1.5777 -2.4933 -0.9307
 1760TIP3   OH2 5243   7.005   0.510   5.075  0.0813  0.0354  0.0872
 1760TIP3    H1 5244   7.063   0.574   5.116  0.4444  0.7461 -1.4350
 1760TIP3    H2 5245   7.000   0.438   5.137  0.7256  0.9749  1.2708
 1761TIP3   OH2 5246   4.737   5.296   3.993 -1.0796 -0.0514 -0.0096
 1761TIP3    H1 5247   4.667   5.355   4.021 -2.4668 -1.9101  0.6473
 1761TIP3    H2 5248   4.717   5.278   3.901  0.5725  2.0832 -0.8643
 1762TIP3   OH2 5249   2.537   0.333   4.834  0.1901 -0.2248 -0.1482
 1762TIP3    H1 5250   2.528   0.425   4.810  0.5833 -0.2262 -0.3102
 1762TIP3    H2 5251   2.468   0.289   4.785 -0.6523  0.1155  0.7185
 1763TIP3   OH2 5252   2.773   1.895   2.981  0.1254 -0.6692 -0.4497
 1763TIP3    H1 5253   2.696   1.894   2.925 -0.6757 -0.5495  0.6116
 1763TIP3    H2 5254   2.803   1.804   2.982 -1.3354 -1.1797  0.8715
 1764TIP3   OH2 5255   6.942   0.819   4.116  0.3818 -0.3769 -0.1642
 1764TIP3    H1 5256   6.916   0.908   4.091 -1.0162 -0.9749 -0.9805
 1764TIP3    H2 5257   7.002   0.831   4.189 -1.8484  1.1829  1.5535
 1765TIP3   OH2 5258   6.052   3.265   5.611 -0.0646 -0.4034 -0.5379
 1765TIP3    H1 5259   5.957   3.273   5.613 -0.0071  0.3414  2.2789
 1765TIP3    H2 5260   6.069   3.171   5.614 -0.6718 -0.5476 -1.3147
 1766TIP3   OH2 5261   1.881   5.650   2.203  0.1203  0.6277  0.1776
 1766TIP3    H1 5262   1.961   5.665   2.152  1.2093 -2.5880  0.7251
 1766TIP3    H2 5263   1.874   5.555   2.209 -2.5071  0.8485  2.1316
 1767TIP3   OH2 5264   0.423   3.455   4.601  0.3689 -0.0747 -0.5366
 1767TIP3    H1 5265   0.494   3.398   4.573  1.0693  0.5256 -0.0045
 1767TIP3    H2 5266   0.386   3.411   4.678  2.3482  1.1990  1.2809
 1768TIP3   OH2 5267   3.704   6.206   1.865  0.1091  0.0298  0.3323
 1768TIP3    H1 5268   3.757   6.219   1.786  1.5079 -1.5438  0.9459
 1768TIP3    H2 5269   3.630   6.153   1.835  1.0955 -1.3257  0.1775
 1769TIP3   OH2 5270   4.651   1.940   2.707 -0.4258  0.6816  0.2552
 1769TIP3    H1 5271   4.721   1.877   2.723 -0.7953  0.4549  0.9838
 1769TIP3    H2 5272   4.592   1.896   2.645  0.7459  1.3746 -1.4203
 1770TIP3   OH2 5273   4.362   5.732   4.067  0.1196 -0.0028 -0.2988
 1770TIP3    H1 5274   4.367   5.810   4.122 -0.8949  0.7332 -1.2119
 1770TIP3    H2 5275   4.268   5.717   4.055  0.3130 -1.0338 -0.5978
 1771TIP3   OH2 5276   2.254   6.516   3.941 -0.6949 -0.4778  0.2955
 1771TIP3    H1 5277   2.161   6.536   3.949 -0.9949 -1.5619 -0.3593
 1771TIP3    H2 5278   2.275   6.464   4.019 -0.7346 -0.6125  0.2152
 1772TIP3   OH2 5279   3.446   2.018  -0.004 -0.0759 -0.4136  0.4381
 1772TIP3    H1 5280   3.502   2.031   0.072 -0.4532 -0.0763  0.6626
 1772TIP3    H2 5281   3.375   1.962   0.028  1.2734 -2.7326 -0.3961
 1773TIP3   OH2 5282   4.240   1.377   4.716 -0.0202  0.2391 -0.2370
 1773TIP3    H1 5283   4.238   1.303   4.655  0.9675  0.3360 -0.4016
 1773TIP3    H2 5284   4.325   1.418   4.702 -0.1074  0.7547  0.6331
 1774TIP3   OH2 5285   1.978   5.363   1.466 -0.5695  0.2273  0.1701
 1774TIP3    H1 5286   2.006   5.451   1.440  0.7486 -0.0742  0.4817
 1774TIP3    H2 5287   2.044   5.335   1.529  0.4578 -1.9396 -1.7270
 1775TIP3   OH2 5288   3.695   0.323   1.497  0.6078  0.0854 -0.0485
 1775TIP3    H1 5289   3.753   0.370   1.437 -0.4105  0.1483 -1.0144
 1775TIP3    H2 5290   3.698   0.373   1.578  0.4452  1.1556 -0.6882
 1776TIP3   OH2 5291   4.560   3.474   3.796  0.1332  0.0122  0.0186
 1776TIP3    H1 5292   4.621   3.506   3.730  1.4193 -2.8390 -0.3336
 1776TIP3    H2 5293   4.524   3.393   3.759 -2.4907  0.6322  1.0155
 1777TIP3   OH2 5294   1.058   1.514   2.665 -0.4351 -0.2115  0.0122
 1777TIP3    H1 5295   1.100   1.599   2.676  0.3093 -0.6229  0.4225
 1777TIP3    H2 5296   1.114   1.466   2.603  0.8887 -1.4938  2.0728
 1778TIP3   OH2 5297   3.852   6.646   2.731 -0.2096  0.0939 -0.4755
 1778TIP3    H1 5298   3.832   6.622   2.641 -1.8131  1.0911 -0.4152
 1778TIP3    H2 5299   3.797   6.722   2.749  1.7347  1.3046  0.6401
 1779TIP3   OH2 5300   5.948   5.116   5.638  0.2680 -0.3177 -0.0626
 1779TIP3    H1 5301   6.004   5.143   5.710  0.4645  1.4133 -0.8032
 1779TIP3    H2 5302   6.009   5.093   5.568  0.0839 -2.1990  0.3516
 1780TIP3   OH2 5303   6.167   1.587   5.722 -0.1562  0.2682 -0.2392
 1780TIP3    H1 5304   6.193   1.679   5.712  0.7825  0.0585  0.1911
 1780TIP3    H2 5305   6.136   1.581   5.812  2.3018 -0.4034  0.6311
 1781TIP3   OH2 5306   5.071   6.630   5.755 -0.1687  0.1470 -0.7866
 1781TIP3    H1 5307   4.995   6.688   5.758  1.0618  1.8156 -1.0982
 1781TIP3    H2 5308   5.083   6.610   5.662 -1.8805 -2.4608 -0.5527
 1782TIP3   OH2 5309   7.222   0.359   1.247  0.3101 -0.1037  0.1816
 1782TIP3    H1 5310   7.204   0.340   1.339  1.2378 -2.3533 -0.0417
 1782TIP3    H2 5311   7.156   0.424   1.222 -1.9870 -1.7678  1.5736
 1783TIP3   OH2 5312   7.139   0.658   3.994 -0.2512 -0.1930  0.2954
 1783TIP3    H1 5313   7.087   0.595   3.943 -1.3649  2.0757 -1.5872
 1783TIP3    H2 5314   7.074   0.716   4.034  0.7503  0.2536  1.3254
 1784TIP3   OH2 5315   1.102   6.069   4.164 -0.0928 -0.0230 -0.2268
 1784TIP3    H1 5316   1.197   6.066   4.177 -0.4436  0.1776  3.5444
 1784TIP3    H2 5317   1.077   5.978   4.149  0.4344 -0.6657  2.3385
 1785TIP3   OH2 5318   2.682   3.457   5.388 -0.6767  0.5716  0.0410
 1785TIP3    H1 5319   2.607   3.500   5.348 -0.2204  1.0582 -0.2937
 1785TIP3    H2 5320   2.751   3.462   5.322 -0.1542  0.7029  0.5911
 1786TIP3   OH2 5321   2.260   6.444   4.214 -0.1813 -0.1017  0.0105
 1786TIP3    H1 5322   2.314   6.513   4.253 -2.2062  1.4646  0.1810
 1786TIP3    H2 5323   2.233   6.390   4.289  0.4749 -0.4375  0.0172
 1787TIP3   OH2 5324   0.355   3.095   3.830 -0.1837 -0.0209  0.3700
 1787TIP3    H1 5325   0.307   3.013   3.820 -0.2946  0.2597 -1.6863
 1787TIP3    H2 5326   0.289   3.158   3.857 -0.1087 -0.5471  1.9122
 1788TIP3   OH2 5327   2.357   6.271   2.181 -0.4425  0.2582 -0.3885
 1788TIP3    H1 5328   2.313   6.200   2.228 -0.6060  0.1137 -0.7608
 1788TIP3    H2 5329   2.430   6.295   2.238 -1.1092  0.6409  0.3399
 1789TIP3   OH2 5330   3.985   6.783   2.428  0.1136 -0.7164 -0.2805
 1789TIP3    H1 5331   3.910   6.762   2.484 -1.5555  0.1166 -2.0713
 1789TIP3    H2 5332   3.948   6.789   2.340  2.2432  0.0977 -1.1917
 1790TIP3   OH2 5333   0.888   3.902   2.799  0.3781 -0.0560 -0.4517
 1790TIP3    H1 5334   0.835   3.855   2.863 -0.3070  0.8700 -0.3174
 1790TIP3    H2 5335   0.920   3.834   2.739 -1.2153 -0.6046 -0.7165
 1791TIP3   OH2 5336   0.747   4.622   1.662 -0.3175 -0.6494  0.1281
 1791TIP3    H1 5337   0.840   4.639   1.681 -0.3295 -0.7545  0.2828
 1791TIP3    H2 5338   0.748   4.572   1.581 -0.1539 -1.9536  0.9089
 1792TIP3   OH2 5339   2.624   4.548   4.888 -0.4662  0.0950  0.3419
 1792TIP3    H1 5340   2.716   4.573   4.877 -0.2889 -0.6899 -0.0360
 1792TIP3    H2 5341   2.622   4.502   4.972  0.0858 -2.4663 -0.9586
 1793TIP3   OH2 5342   7.211   3.355   3.091  0.0200  0.2121 -0.7374
 1793TIP3    H1 5343   7.134   3.385   3.043  0.4479 -0.0396 -1.6108
 1793TIP3    H2 5344   7.195   3.382   3.182 -0.7618  0.7946 -1.0333
 1794TIP3   OH2 5345   1.281   3.107   4.309 -0.3479  0.4858 -0.1859
 1794TIP3    H1 5346   1.325   3.069   4.385  1.2404 -1.4631 -1.9523
 1794TIP3    H2 5347   1.197   3.061   4.305  0.4399 -0.9473 -0.7647
 1795TIP3   OH2 5348   6.390   1.299   0.859 -0.5205 -0.1836 -0.3305
 1795TIP3    H1 5349   6.400   1.217   0.906  0.0020 -0.2302 -0.5123
 1795TIP3    H2 5350   6.327   1.349   0.911 -1.9715 -1.2618 -1.0093
 1796TIP3   OH2 5351   3.282   6.175   0.918 -0.0111 -0.6330  0.2678
 1796TIP3    H1 5352   3.196   6.206   0.947  0.0107 -1.2652  1.0449
 1796TIP3    H2 5353   3.317   6.247   0.866 -1.3242 -0.6641 -0.6934
 1797TIP3   OH2 5354   6.033   1.409   3.724 -0.4029 -0.3235  0.7869
 1797TIP3    H1 5355   5.998   1.321   3.706  0.2026 -0.4296  0.1120
 1797TIP3    H2 5356   6.092   1.396   3.799  1.5886 -0.9753 -0.8129
 1798TIP3   OH2 5357   1.560   5.453   3.557  0.3765  0.2874 -0.0118
 1798TIP3    H1 5358   1.513   5.493   3.484  0.5020  0.2067 -0.1374
 1798TIP3    H2 5359   1.589   5.368   3.524  0.6168  0.3387  0.0631
 1799TIP3   OH2 5360   7.188   5.782   4.103 -0.3810  0.2399 -0.2663
 1799TIP3    H1 5361   7.220   5.756   4.016  0.5357  0.6389 -0.0541
 1799TIP3    H2 5362   7.207   5.875   4.109 -0.9256  0.3285  0.1648
 1800TIP3   OH2 5363   1.946   6.841   5.631  0.4018  0.2727 -0.3620
 1800TIP3    H1 5364   1.923   6.771   5.692  0.1335  1.1648  0.5794
 1800TIP3    H2 5365   1.973   6.795   5.551 -1.2987 -0.8754 -0.3224
 1801TIP3   OH2 5366   2.604   3.615   3.523 -0.4459 -0.5676 -0.4130
 1801TIP3    H1 5367   2.580   3.685   3.584 -0.8697 -1.0637  0.0007
 1801TIP3    H2 5368   2.694   3.594   3.545 -0.2774 -0.0760 -0.6177
 1802TIP3   OH2 5369   3.733   0.598   4.655 -0.5150  0.0342 -0.1329
 1802TIP3    H1 5370   3.817   0.577   4.695 -1.0576 -1.4913  0.2710
 1802TIP3    H2 5371   3.716   0.688   4.681  0.3246 -0.1042  0.9750
 1803TIP3   OH2 5372   6.252   3.107   2.077  0.4603  0.4165  0.4431
 1803TIP3    H1 5373   6.243   3.083   2.170 -2.3690  0.5294  0.2935
 1803TIP3    H2 5374   6.284   3.027   2.035 -0.2550 -0.3131  1.2374
 1804TIP3   OH2 5375   0.271   3.792   2.996  0.9841 -0.7509 -0.0565
 1804TIP3    H1 5376   0.193   3.736   2.998  1.1473 -0.9465  1.2130
 1804TIP3    H2 5377   0.264   3.838   2.912 -0.3162 -1.0217 -0.1259
 1805TIP3   OH2 5378   4.457   1.410   3.376 -0.2484 -0.2097 -0.3131
 1805TIP3    H1 5379   4.507   1.329   3.380 -0.9858 -0.7125 -0.9496
 1805TIP3    H2 5380   4.403   1.410   3.455 -1.7863 -1.4011 -1.2982
 1806TIP3   OH2 5381   3.971   3.812   5.440 -0.2768 -0.1113  0.1078
 1806TIP3    H1 5382   3.910   3.749   5.478 -0.7163  0.3359  0.1539
 1806TIP3    H2 5383   4.042   3.817   5.504 -0.6086  0.0093  0.4726
 1807TIP3   OH2 5384   5.185   0.739   0.218 -0.1637  0.2771 -0.1024
 1807TIP3    H1 5385   5.128   0.804   0.176 -0.4161  0.7730  0.9690
 1807TIP3    H2 5386   5.150   0.730   0.306 -0.5189 -1.8040 -0.4076
 1808TIP3   OH2 5387   2.398   3.369   0.647 -0.7010  0.5025  0.3945
 1808TIP3    H1 5388   2.477   3.361   0.593 -0.3111 -1.3415  1.1601
 1808TIP3    H2 5389   2.339   3.423   0.595  0.1239 -0.1648 -1.3201
 1809TIP3   OH2 5390   5.673   0.105   4.210  0.2390 -0.1202  0.7068
 1809TIP3    H1 5391   5.720   0.022   4.210 -0.4996 -0.5961 -1.0248
 1809TIP3    H2 5392   5.603   0.093   4.146  0.0440  1.7925  0.4826
 1810TIP3   OH2 5393   4.256   0.070   2.173  0.1904  0.0612  0.0998
 1810TIP3    H1 5394   4.173   0.045   2.133  1.0305  0.0110 -1.7106
 1810TIP3    H2 5395   4.320   0.008   2.138  0.8376 -0.5918  2.3108
 1811TIP3   OH2 5396   3.395   3.995   1.518 -0.1818 -0.1514 -0.8111
 1811TIP3    H1 5397   3.404   4.083   1.555 -1.0602  0.1714 -1.3622
 1811TIP3    H2 5398   3.334   3.951   1.577  0.6060 -0.5517 -0.2747
 1812TIP3   OH2 5399   1.604   6.236   3.789  0.2387  0.0899  0.1970
 1812TIP3    H1 5400   1.520   6.272   3.820 -0.3815 -1.0996 -0.0589
 1812TIP3    H2 5401   1.668   6.304   3.812 -0.7506  0.9222  0.6115
 1813TIP3   OH2 5402   0.696   1.509   1.748 -0.5223  1.0677  0.0588
 1813TIP3    H1 5403   0.631   1.460   1.799  1.6456 -0.1728  1.8237
 1813TIP3    H2 5404   0.748   1.554   1.814  2.4470 -0.6376 -0.9573
 1814TIP3   OH2 5405   4.689   3.867   4.709 -0.2295  0.3480  0.0713
 1814TIP3    H1 5406   4.746   3.918   4.652 -0.0339  1.1491  0.9574
 1814TIP3    H2 5407   4.630   3.931   4.748  0.1382 -0.0463  1.3498
 1815TIP3   OH2 5408   2.496   1.278   2.264 -0.5856 -0.7283  0.3147
 1815TIP3    H1 5409   2.493   1.199   2.318 -1.8001 -1.1641 -0.3341
 1815TIP3    H2 5410   2.418   1.328   2.290  0.2042  0.3238  0.7706
 1816TIP3   OH2 5411   0.935   3.035   1.483  0.6664 -0.0805 -0.2607
 1816TIP3    H1 5412   0.859   3.091   1.500  1.6208  0.9550  0.7814
 1816TIP3    H2 5413   1.004   3.097   1.458  2.1231 -0.6158  2.1746
 1817TIP3   OH2 5414   2.352   1.539   0.266 -0.6557 -0.0393 -0.3997
 1817TIP3    H1 5415   2.419   1.503   0.325 -1.4125 -0.1619  0.4058
 1817TIP3    H2 5416   2.381   1.629   0.250 -0.2431 -0.1229 -0.1382
 1818TIP3   OH2 5417   4.295   2.161   4.474  0.4853 -0.5516  0.3499
 1818TIP3    H1 5418   4.386   2.190   4.484 -0.1315  1.8859 -0.5795
 1818TIP3    H2 5419   4.292   2.122   4.387  0.8347 -1.6020  0.7858
 1819TIP3   OH2 5420   1.013   2.609   1.692 -0.5564  0.5311  0.5575
 1819TIP3    H1 5421   1.079   2.578   1.630  0.4407 -2.9009  3.0688
 1819TIP3    H2 5422   1.033   2.702   1.703  1.5015  0.4272 -1.4789
 1820TIP3   OH2 5423   6.959   5.819   3.576  0.5635  0.1565 -0.1187
 1820TIP3    H1 5424   6.910   5.801   3.656 -0.1837  0.4456 -0.5079
 1820TIP3    H2 5425   7.022   5.886   3.602  1.7555 -1.2255  0.7397
 1821TIP3   OH2 5426   0.875   6.595   5.336  0.0469 -0.2555  0.2701
 1821TIP3    H1 5427   0.953   6.612   5.389 -0.9990  0.5649  1.6140
 1821TIP3    H2 5428   0.863   6.675   5.285 -0.1778 -0.2014  0.4086
 1822TIP3   OH2 5429   1.249   6.064   5.593 -0.1033 -0.0321 -0.4175
 1822TIP3    H1 5430   1.328   6.060   5.647 -0.9814 -0.6261  0.8828
 1822TIP3    H2 5431   1.187   6.005   5.636 -0.6028 -1.1428 -2.5291
 1823TIP3   OH2 5432   0.730   2.593   1.389  0.1388  0.5191 -0.6436
 1823TIP3    H1 5433   0.770   2.634   1.313  0.2135 -0.5596 -1.2032
 1823TIP3    H2 5434   0.744   2.655   1.460  1.2813  0.9272 -1.2043
 1824TIP3   OH2 5435   5.796   1.888   4.565 -0.5227  0.9956 -0.4635
 1824TIP3    H1 5436   5.782   1.858   4.475 -0.4539  3.2528 -1.2812
 1824TIP3    H2 5437   5.872   1.837   4.595 -1.5083 -0.9348 -1.0599
 1825TIP3   OH2 5438   6.335   0.458   2.790 -0.3197 -0.0459  0.1755
 1825TIP3    H1 5439   6.423   0.420   2.789 -1.0325 -1.7811 -1.1090
 1825TIP3    H2 5440   6.329   0.502   2.875  2.0264  0.7660 -0.0070
 1826TIP3   OH2 5441   7.144   5.576   4.547 -0.1524  0.4146  0.2819
 1826TIP3    H1 5442   7.176   5.499   4.500  1.3723  0.5451  1.0730
 1826TIP3    H2 5443   7.100   5.540   4.624  3.2554  0.3071  2.3495
 1827TIP3   OH2 5444   2.535   4.503   2.006  0.3007  0.0356 -0.2926
 1827TIP3    H1 5445   2.522   4.474   2.096  0.0469 -1.2741 -0.7219
 1827TIP3    H2 5446   2.545   4.597   2.012 -0.4134  0.0525  1.0374
 1828TIP3   OH2 5447   0.278   2.602   4.019 -0.2036  0.2382 -0.1168
 1828TIP3    H1 5448   0.199   2.567   3.977 -0.3359  0.4076 -0.0111
 1828TIP3    H2 5449   0.256   2.692   4.040 -0.4232 -0.0681  1.0421
 1829TIP3   OH2 5450   6.294   5.237   1.727  0.2912  0.0916 -0.5704
 1829TIP3    H1 5451   6.330   5.324   1.712 -1.7803  1.0233 -0.4988
 1829TIP3    H2 5452   6.360   5.192   1.781  1.1987  1.7446 -0.2443
 1830TIP3   OH2 5453   2.879   2.226   5.624  0.2103  0.2063  0.2168
 1830TIP3    H1 5454   2.847   2.170   5.695  0.0870  1.3411  1.0881
 1830TIP3    H2 5455   2.895   2.311   5.666  2.3971  0.2615 -0.6394
 1831TIP3   OH2 5456   3.110   6.265   5.518  0.0807 -0.5946  0.4871
 1831TIP3    H1 5457   3.201   6.286   5.494 -1.0461  1.7118 -2.5220
 1831TIP3    H2 5458   3.084   6.199   5.454 -0.2178 -1.7436  1.7659
 1832TIP3   OH2 5459   4.401   6.365   1.061  0.4591 -0.6308  0.2221
 1832TIP3    H1 5460   4.408   6.389   1.154  0.5344 -1.4448  0.4323
 1832TIP3    H2 5461   4.486   6.389   1.023 -0.1137  1.1704  0.0040
 1833TIP3   OH2 5462   6.793   5.071   4.722  0.1556  0.1046 -0.7869
 1833TIP3    H1 5463   6.807   5.148   4.666  3.2344 -0.9195 -1.6156
 1833TIP3    H2 5464   6.843   5.090   4.801 -1.9057  0.3256  0.5659
 1834TIP3   OH2 5465   2.331   0.202   2.644  0.0854 -0.1128  0.0972
 1834TIP3    H1 5466   2.295   0.283   2.608  1.2001  1.3102  1.9340
 1834TIP3    H2 5467   2.284   0.132   2.599 -1.5519  1.5573 -0.9438
 1835TIP3   OH2 5468   5.354   1.050   2.498 -0.0367  0.1794  0.0054
 1835TIP3    H1 5469   5.379   1.025   2.587 -2.2740 -0.0327  0.6189
 1835TIP3    H2 5470   5.386   0.979   2.444 -0.4809 -0.7349  0.9134
 1836TIP3   OH2 5471   0.116   3.135   1.872 -0.1330  0.0261 -0.2532
 1836TIP3    H1 5472   0.034   3.163   1.912  0.0909 -0.4421  0.5694
 1836TIP3    H2 5473   0.165   3.096   1.945  1.9925  2.7426 -0.0828
 1837TIP3   OH2 5474   1.634   4.913   4.548 -0.1351 -0.2878  0.3595
 1837TIP3    H1 5475   1.542   4.916   4.573 -0.0091  1.1334  0.6887
 1837TIP3    H2 5476   1.677   4.978   4.603  0.8935 -0.1853 -0.5197
 1838TIP3   OH2 5477   6.546   1.614   4.606 -0.3038 -0.2649 -0.0263
 1838TIP3    H1 5478   6.597   1.535   4.622 -1.2770 -0.5850  1.7155
 1838TIP3    H2 5479   6.611   1.679   4.576  1.0545 -0.8133  1.5647
 1839TIP3   OH2 5480   4.879   1.772   1.039 -0.0507 -0.0422 -0.1860
 1839TIP3    H1 5481   4.958   1.783   1.093  0.2367 -0.7306 -0.4444
 1839TIP3    H2 5482   4.857   1.679   1.048 -2.0266  0.5290  1.4927
 1840TIP3   OH2 5483   0.156   4.450   1.864 -0.5529 -0.0046 -0.1406
 1840TIP3    H1 5484   0.117   4.391   1.799  1.9248 -1.9622  0.0038
 1840TIP3    H2 5485   0.207   4.512   1.813  0.2394 -0.6492 -0.1437
 1841TIP3   OH2 5486   2.781   6.452   2.815  0.1512 -0.3325 -0.0267
 1841TIP3    H1 5487   2.757   6.493   2.898 -0.9011 -0.2917 -0.3330
 1841TIP3    H2 5488   2.833   6.518   2.770  2.8105 -1.1997  1.5386
 1842TIP3   OH2 5489   5.739   2.404   2.423 -0.1635 -1.1705  0.6225
 1842TIP3    H1 5490   5.759   2.313   2.401  0.5708 -1.1805  1.2747
 1842TIP3    H2 5491   5.730   2.404   2.518  0.0634 -0.5188  0.6486
 1843TIP3   OH2 5492   6.710   3.932   2.561  0.0688  0.4771  0.0855
 1843TIP3    H1 5493   6.626   3.891   2.584 -0.3227 -0.0495 -2.0327
 1843TIP3    H2 5494   6.700   4.023   2.587 -1.4412  0.5701 -0.7132
 1844TIP3   OH2 5495   1.992   3.576   5.378 -0.0957 -0.2259  0.3274
 1844TIP3    H1 5496   2.079   3.560   5.414 -0.3511  0.5936  1.3887
 1844TIP3    H2 5497   1.999   3.555   5.285  0.9701 -1.0977  0.5917
 1845TIP3   OH2 5498   4.421   3.976   5.151  0.5151 -0.1599 -0.0700
 1845TIP3    H1 5499   4.346   4.011   5.200  1.0476 -0.9621  1.3706
 1845TIP3    H2 5500   4.386   3.959   5.063 -0.4659  1.3122 -0.0023
 1846TIP3   OH2 5501   1.620   6.326   2.979 -0.2673  0.3873  0.6822
 1846TIP3    H1 5502   1.630   6.374   3.061  0.6119 -0.5956  1.1744
 1846TIP3    H2 5503   1.704   6.282   2.967 -0.1799  0.9431 -1.0408
 1847TIP3   OH2 5504   0.127   6.045   4.134 -0.4065  0.0096 -0.0571
 1847TIP3    H1 5505   0.207   5.993   4.132 -0.1396  0.4444 -1.3934
 1847TIP3    H2 5506   0.132   6.094   4.216  0.5949 -0.1293 -0.0302
 1848TIP3   OH2 5507   3.983   3.176   5.475  0.4953  0.2374 -0.2673
 1848TIP3    H1 5508   3.929   3.117   5.423  1.2639 -0.2245 -0.5659
 1848TIP3    H2 5509   4.073   3.147   5.458  0.8056  0.6291  0.6552
 1849TIP3   OH2 5510   0.691   5.992   2.266  0.0923  0.0818 -0.2194
 1849TIP3    H1 5511   0.599   5.970   2.281 -0.0995  0.9238 -0.1123
 1849TIP3    H2 5512   0.734   5.907   2.253 -1.0239 -0.2558 -2.1947
 1850TIP3   OH2 5513   5.151   4.274   2.717 -0.5211  0.3946 -0.1141
 1850TIP3    H1 5514   5.118   4.323   2.641  2.8490  2.8457 -0.2577
 1850TIP3    H2 5515   5.192   4.196   2.679 -0.3103  0.7559 -0.6369
 1851TIP3   OH2 5516   2.052   0.060   4.204 -0.5323 -0.6881 -0.3316
 1851TIP3    H1 5517   2.012  -0.010   4.152 -0.1824 -1.8494  0.9009
 1851TIP3    H2 5518   2.086   0.015   4.281 -0.7136  0.9221  0.7226
 1852TIP3   OH2 5519   6.105   2.722   4.478 -0.2288  0.0899  0.1856
 1852TIP3    H1 5520   6.140   2.806   4.508  0.2091  0.4884 -1.3174
 1852TIP3    H2 5521   6.111   2.727   4.382  0.4876 -1.9357  0.0801
 1853TIP3   OH2 5522   2.250   0.017   3.944 -0.2568 -0.0479 -0.7683
 1853TIP3    H1 5523   2.215   0.101   3.974  0.4395 -0.3255  0.9416
 1853TIP3    H2 5524   2.182  -0.046   3.967  0.4935 -0.3333  0.8480
 1854TIP3   OH2 5525   5.759   0.130   3.678  0.3879  0.4827  0.4575
 1854TIP3    H1 5526   5.797   0.044   3.660  1.9293  1.2942 -0.2812
 1854TIP3    H2 5527   5.803   0.160   3.757  0.0783  0.7301  0.5388
 1855TIP3   OH2 5528   0.905   4.163   2.739  0.0084  0.1854 -0.4188
 1855TIP3    H1 5529   0.901   4.071   2.762  0.0447  0.3003  0.0554
 1855TIP3    H2 5530   0.997   4.186   2.746 -0.0883  0.4240  0.1386
 1856TIP3   OH2 5531   2.448   3.502   4.767 -0.3852  0.5565 -0.1149
 1856TIP3    H1 5532   2.454   3.570   4.700 -0.7884  0.5821 -0.1222
 1856TIP3    H2 5533   2.444   3.420   4.717  1.3311  0.4238 -0.0998
 1857TIP3   OH2 5534   5.873   0.807   3.343 -0.0189 -0.7341 -0.4894
 1857TIP3    H1 5535   5.883   0.897   3.375  2.2971 -0.7208 -1.0837
 1857TIP3    H2 5536   5.807   0.814   3.274 -1.7772  0.0076  1.1672
 1858TIP3   OH2 5537   4.913   1.222   2.589  0.2149  0.7182 -0.1667
 1858TIP3    H1 5538   4.912   1.148   2.649  0.1389 -1.8087 -3.0495
 1858TIP3    H2 5539   4.998   1.264   2.603  0.2521  0.1289  1.5148
 1859TIP3   OH2 5540   6.255   4.316   4.617 -0.5172  0.2818  0.4261
 1859TIP3    H1 5541   6.293   4.353   4.537 -1.8302  0.4933 -0.1219
 1859TIP3    H2 5542   6.163   4.341   4.614 -0.6318  0.1356  1.9286
 1860TIP3   OH2 5543   5.973   2.356   1.090 -0.0203  0.4475  0.2785
 1860TIP3    H1 5544   6.032   2.312   1.029 -1.6680 -1.2524 -0.1790
 1860TIP3    H2 5545   5.996   2.321   1.176 -2.1452 -2.5155 -0.2021
 1861TIP3   OH2 5546   5.332   2.119   3.973 -0.1797  0.2144  0.1058
 1861TIP3    H1 5547   5.333   2.191   4.035 -1.8858 -0.2155  0.7013
 1861TIP3    H2 5548   5.349   2.159   3.888 -2.0629  1.5332  0.2803
 1862TIP3   OH2 5549   6.006   2.551   4.075  0.0263 -0.2646  0.3733
 1862TIP3    H1 5550   5.911   2.553   4.070  0.0549  2.4400 -0.7543
 1862TIP3    H2 5551   6.034   2.524   3.988  0.2808  0.0496  0.3552
 1863TIP3   OH2 5552   3.092   0.941   2.626  0.1494 -0.1558  0.0336
 1863TIP3    H1 5553   3.184   0.930   2.652  0.7421 -0.4267 -1.9893
 1863TIP3    H2 5554   3.067   1.026   2.662  1.1502 -0.1539  0.7486
 1864TIP3   OH2 5555   6.474   1.632   5.405 -0.7292  0.5141 -0.1336
 1864TIP3    H1 5556   6.484   1.697   5.475  1.3990  0.4209 -0.3036
 1864TIP3    H2 5557   6.514   1.672   5.329 -0.2433 -0.6171 -0.4927
 1865TIP3   OH2 5558   6.955   2.887   5.535 -0.0478  0.0484  0.1137
 1865TIP3    H1 5559   6.907   2.816   5.494 -0.2432  0.5454 -0.5321
 1865TIP3    H2 5560   7.031   2.845   5.576  0.3879 -0.4101 -1.1177
 1866TIP3   OH2 5561   1.381   0.677   5.725 -0.2203 -0.1475 -0.3130
 1866TIP3    H1 5562   1.324   0.693   5.650 -0.2669 -0.8324 -0.4325
 1866TIP3    H2 5563   1.323   0.639   5.791 -0.3234  1.0817  0.3293
 1867TIP3   OH2 5564   5.815   0.650   3.561 -0.1383 -0.1362  0.2516
 1867TIP3    H1 5565   5.889   0.631   3.619  1.0693 -0.7435 -1.4109
 1867TIP3    H2 5566   5.854   0.693   3.485 -1.5601 -0.1136 -0.5083
 1868TIP3   OH2 5567   5.243   4.776   5.701  0.4512 -0.1896  0.3185
 1868TIP3    H1 5568   5.285   4.757   5.618  0.2227 -1.9369  0.5493
 1868TIP3    H2 5569   5.155   4.738   5.693  0.2682  0.0186  1.1835
 1869TIP3   OH2 5570   2.401   6.553   2.869 -0.1864  0.5812 -0.1695
 1869TIP3    H1 5571   2.420   6.644   2.892 -0.0443  1.0723 -2.0230
 1869TIP3    H2 5572   2.442   6.502   2.938  2.0703  1.8512 -0.4785
 1870TIP3   OH2 5573   2.228   2.447   2.236  0.0585  0.5004 -0.1675
 1870TIP3    H1 5574   2.305   2.460   2.292  2.1550  0.3545 -2.7854
 1870TIP3    H2 5575   2.161   2.503   2.274  0.5835 -1.1535  3.6439
 1871TIP3   OH2 5576   0.953   3.059   3.556  0.1211 -0.0193 -0.2386
 1871TIP3    H1 5577   0.878   3.018   3.600 -0.0464  1.2792  0.7330
 1871TIP3    H2 5578   0.998   2.986   3.513 -0.4758 -1.1475  0.9733
 1872TIP3   OH2 5579   4.436   3.689   0.055 -0.3650 -0.0455  0.3006
 1872TIP3    H1 5580   4.474   3.774   0.080 -0.5162 -0.2688  1.3128
 1872TIP3    H2 5581   4.398   3.655   0.135 -0.3077 -1.0851 -0.0963
 1873TIP3   OH2 5582   4.721   6.016   4.645  0.0256 -0.0106 -0.5016
 1873TIP3    H1 5583   4.747   6.088   4.703 -1.7641 -0.5687  1.1003
 1873TIP3    H2 5584   4.663   5.962   4.699  1.2470 -2.6508 -1.6558
 1874TIP3   OH2 5585   6.988   6.545   1.257  0.0387  0.2919 -0.1361
 1874TIP3    H1 5586   6.909   6.566   1.209  0.7532 -1.1368 -2.0931
 1874TIP3    H2 5587   6.960   6.483   1.324 -0.7222  1.0468  0.2612
 1875TIP3   OH2 5588   4.888   3.016   0.421 -0.0055 -0.2539 -0.0654
 1875TIP3    H1 5589   4.981   2.998   0.418  0.2622  1.1512 -1.4348
 1875TIP3    H2 5590   4.854   2.989   0.336 -0.6365  0.2618  0.0077
 1876TIP3   OH2 5591   6.772   2.749   3.217  0.2748 -0.2754  0.0060
 1876TIP3    H1 5592   6.811   2.770   3.132  0.8364  1.1434  0.5884
 1876TIP3    H2 5593   6.834   2.688   3.257  0.4561 -0.2512 -0.2332
 1877TIP3   OH2 5594   4.529   6.129   4.147  0.2314  0.2891  0.1583
 1877TIP3    H1 5595   4.568   6.052   4.106  0.1101  0.5825 -0.5302
 1877TIP3    H2 5596   4.586   6.202   4.122  0.1974  0.4645  0.5776
 1878TIP3   OH2 5597   6.619   5.050   4.106 -0.5223 -0.3448 -0.1088
 1878TIP3    H1 5598   6.674   5.104   4.163  0.5237 -1.9263  0.4255
 1878TIP3    H2 5599   6.590   4.978   4.162 -2.7755  0.1550 -0.5074
 1879TIP3   OH2 5600   6.989   5.153   4.906 -0.6918  0.0467 -0.1412
 1879TIP3    H1 5601   7.027   5.087   4.847  0.0031  0.9287 -0.7052
 1879TIP3    H2 5602   7.064   5.185   4.956 -1.2297 -0.4684  1.0143
 1880TIP3   OH2 5603   5.702   3.696   3.545  0.2643 -0.0516 -0.0654
 1880TIP3    H1 5604   5.759   3.744   3.485  0.3884 -0.2104 -0.0744
 1880TIP3    H2 5605   5.737   3.607   3.546  1.6777  0.4784  2.0331
 1881TIP3   OH2 5606   0.280   4.528   2.808  0.1872 -0.0722 -0.3526
 1881TIP3    H1 5607   0.214   4.585   2.846  0.8645  1.1694 -0.9519
 1881TIP3    H2 5608   0.244   4.504   2.722  0.7332  1.1328 -0.9598
 1882TIP3   OH2 5609   2.618   4.444   5.175  0.2476  0.1828  0.6157
 1882TIP3    H1 5610   2.550   4.508   5.195  0.5910  0.3478  1.2872
 1882TIP3    H2 5611   2.638   4.403   5.260  0.6519 -0.1877  0.3438
 1883TIP3   OH2 5612   3.027   3.536   1.195 -0.4457  0.1370 -0.2759
 1883TIP3    H1 5613   3.096   3.592   1.159 -1.1404  0.7910 -0.5994
 1883TIP3    H2 5614   3.015   3.468   1.129  1.2658 -1.1571  0.6654
 1884TIP3   OH2 5615   6.241   6.449   1.494 -0.2355 -0.0081 -0.1114
 1884TIP3    H1 5616   6.276   6.507   1.561  0.9500  2.0940 -2.4019
 1884TIP3    H2 5617   6.157   6.486   1.470  0.4984  0.8207 -1.5426
 1885TIP3   OH2 5618   4.479   6.309   4.932  0.4634  0.4098 -0.4325
 1885TIP3    H1 5619   4.534   6.275   5.003 -0.8061 -0.2666  0.2810
 1885TIP3    H2 5620   4.392   6.273   4.951  0.3509 -1.0260 -3.1474
 1886TIP3   OH2 5621   3.691   1.617   4.494 -0.1970 -0.4988  0.5015
 1886TIP3    H1 5622   3.659   1.628   4.584 -0.7420 -0.1462  0.2695
 1886TIP3    H2 5623   3.749   1.693   4.480 -0.6357 -0.1881  0.3356
 1887TIP3   OH2 5624   4.279   6.496   0.126 -0.2374 -0.1617 -0.0408
 1887TIP3    H1 5625   4.362   6.536   0.153 -0.5249  0.4912 -0.0996
 1887TIP3    H2 5626   4.303   6.407   0.102  0.5485  0.1800 -0.5943
 1888TIP3   OH2 5627   3.769   4.277   1.281 -0.1197  0.3580 -0.0280
 1888TIP3    H1 5628   3.733   4.263   1.368 -1.4572  1.1058 -0.4149
 1888TIP3    H2 5629   3.695   4.310   1.230  0.1897 -1.5174 -1.8720
 1889TIP3   OH2 5630   3.600   4.422   3.291  0.1824 -0.4146  0.2811
 1889TIP3    H1 5631   3.584   4.366   3.367 -0.9508 -1.9855 -1.0316
 1889TIP3    H2 5632   3.539   4.495   3.302  0.0447 -0.6134  0.8949
 1890TIP3   OH2 5633   1.851   5.039   3.377  0.0576  0.0575 -0.5630
 1890TIP3    H1 5634   1.806   5.123   3.366 -0.4858 -0.0758  0.5167
 1890TIP3    H2 5635   1.782   4.974   3.367  0.1531 -0.1827  0.2949
 1891TIP3   OH2 5636   5.225   4.045   4.098 -0.2439 -0.1958  0.0975
 1891TIP3    H1 5637   5.231   4.085   4.011  2.5504 -1.1234 -0.2327
 1891TIP3    H2 5638   5.165   3.971   4.086  0.5288 -0.6511 -1.2145
 1892TIP3   OH2 5639   4.936   5.048   3.296  0.1635  0.5069 -0.1820
 1892TIP3    H1 5640   4.857   5.066   3.245 -0.4473 -0.8276  0.2511
 1892TIP3    H2 5641   4.998   5.012   3.233 -0.0809  0.2149 -0.2570
 1893TIP3   OH2 5642   5.308   1.298   3.783  0.0443 -0.2600 -0.1374
 1893TIP3    H1 5643   5.311   1.334   3.872  1.2540 -3.3182  1.1873
 1893TIP3    H2 5644   5.242   1.351   3.738 -1.3308  0.7925  2.8531
 1894TIP3   OH2 5645   1.330   2.497   2.762 -0.0320  0.3880  0.5166
 1894TIP3    H1 5646   1.292   2.543   2.687 -0.8262  0.0327  0.6890
 1894TIP3    H2 5647   1.335   2.564   2.830 -1.4555  0.1790  0.8592
 1895TIP3   OH2 5648   2.803   1.009   4.938  0.0476 -0.1627 -0.1665
 1895TIP3    H1 5649   2.839   0.959   4.865  1.9329  1.7850 -0.6824
 1895TIP3    H2 5650   2.780   0.943   5.004 -0.4553 -1.8637 -1.9629
 1896TIP3   OH2 5651  -0.002   1.798   2.520  0.0624  0.1471  0.1144
 1896TIP3    H1 5652  -0.001   1.713   2.475 -0.5412 -0.9988  2.1222
 1896TIP3    H2 5653   0.004   1.862   2.450 -1.8348 -1.4935 -1.7063
 1897TIP3   OH2 5654   0.752   4.429   3.057 -0.2855  0.0255  0.2758
 1897TIP3    H1 5655   0.818   4.363   3.077 -0.4089  0.0050  0.6219
 1897TIP3    H2 5656   0.694   4.428   3.132  0.1854  1.1114  0.6711
 1898TIP3   OH2 5657   3.127   1.552   0.073  0.3935 -0.9303  0.1560
 1898TIP3    H1 5658   3.034   1.554   0.094  0.8132 -0.3025  2.1134
 1898TIP3    H2 5659   3.146   1.640   0.040  0.4264 -0.8743  0.3269
 1899TIP3   OH2 5660   4.489   5.609   0.655 -0.3298  0.3222 -0.2907
 1899TIP3    H1 5661   4.491   5.669   0.580  0.3297 -1.8741 -2.1453
 1899TIP3    H2 5662   4.399   5.575   0.657 -0.1214 -0.2710 -0.6641
 1900TIP3   OH2 5663   2.996   1.924   4.426  0.0166 -0.7764  0.8213
 1900TIP3    H1 5664   3.085   1.953   4.445 -0.2703  1.4169 -0.7739
 1900TIP3    H2 5665   3.006   1.831   4.406  1.8191 -0.7729  1.4920
 1901TIP3   OH2 5666   6.511   3.650   2.474  0.5080 -0.2900  0.5940
 1901TIP3    H1 5667   6.557   3.621   2.553  1.7919  0.4765  0.1585
 1901TIP3    H2 5668   6.484   3.740   2.494 -1.1323 -0.8255  0.9591
 1902TIP3   OH2 5669   0.901   1.622   2.865  0.4634 -0.1632 -0.2747
 1902TIP3    H1 5670   0.925   1.583   2.781 -0.8717  0.2406 -0.8679
 1902TIP3    H2 5671   0.934   1.711   2.861  1.0785 -0.3742 -0.0432
 1903TIP3   OH2 5672   5.343   3.761   4.070  0.6481  0.1276  0.3879
 1903TIP3    H1 5673   5.422   3.752   4.017  0.2611  0.0585 -0.1947
 1903TIP3    H2 5674   5.374   3.759   4.160  1.1029 -2.1519  0.2471
 1904TIP3   OH2 5675   5.738   1.448   2.271  0.0934 -0.0657  0.5128
 1904TIP3    H1 5676   5.807   1.410   2.217 -0.1001  1.4789 -0.9030
 1904TIP3    H2 5677   5.659   1.399   2.246 -0.0002  0.6463 -0.6866
 1905TIP3   OH2 5678   2.987   6.650   4.955  0.0466 -0.2548 -0.9062
 1905TIP3    H1 5679   3.042   6.621   4.883  0.4461 -0.6216 -0.4608
 1905TIP3    H2 5680   3.039   6.718   4.998  0.1925 -0.6581 -0.4359
 1906TIP3   OH2 5681   6.564   3.807   3.182  0.2975  0.2814  0.1586
 1906TIP3    H1 5682   6.608   3.799   3.266  0.6471 -0.7328 -0.1031
 1906TIP3    H2 5683   6.588   3.727   3.135 -0.5092  0.4767 -0.6117
 1907TIP3   OH2 5684   5.180   4.396   5.164  0.1370  0.7715 -0.1303
 1907TIP3    H1 5685   5.265   4.353   5.175  0.1117  1.0040  1.1267
 1907TIP3    H2 5686   5.142   4.397   5.252 -0.4502  2.1288 -0.3701
 1908TIP3   OH2 5687   5.394   0.289   0.910  0.3714  0.1162 -0.3658
 1908TIP3    H1 5688   5.389   0.361   0.973  1.9726 -0.6077  0.6425
 1908TIP3    H2 5689   5.475   0.244   0.932  0.1995 -1.0600 -2.0073
 1909TIP3   OH2 5690   4.087   4.464   1.587  0.3667 -0.5219 -0.4658
 1909TIP3    H1 5691   4.018   4.459   1.653  0.6276  1.0914 -0.0399
 1909TIP3    H2 5692   4.051   4.417   1.511  0.0537 -2.3808  0.7572
 1910TIP3   OH2 5693   4.306   1.898   5.321 -0.4026  0.5273  0.4046
 1910TIP3    H1 5694   4.340   1.889   5.233  0.1288  1.1232  0.5447
 1910TIP3    H2 5695   4.336   1.985   5.350  0.6075 -0.2137  1.6731
 1911TIP3   OH2 5696   4.760   3.609   4.447 -0.1682 -0.6337 -0.1154
 1911TIP3    H1 5697   4.719   3.692   4.473 -0.1279 -0.3999 -0.7744
 1911TIP3    H2 5698   4.716   3.543   4.501 -0.5378 -0.2404  0.0745
 1912TIP3   OH2 5699   3.176   6.650   4.441  0.3506  0.4783 -0.0976
 1912TIP3    H1 5700   3.151   6.585   4.507 -0.3656 -0.2077 -1.0354
 1912TIP3    H2 5701   3.192   6.600   4.361 -0.7285  1.4921 -0.9783
 1913TIP3   OH2 5702   4.816   6.729   1.781 -0.7436  0.3268 -0.1937
 1913TIP3    H1 5703   4.906   6.697   1.792 -0.5281  0.5122 -1.2290
 1913TIP3    H2 5704   4.799   6.781   1.859 -1.0580 -2.1559  1.4965
 1914TIP3   OH2 5705   5.298   5.420   0.218  0.0965  0.4815 -0.6167
 1914TIP3    H1 5706   5.332   5.387   0.135  0.1996  2.3575 -1.3898
 1914TIP3    H2 5707   5.246   5.349   0.254  1.9788 -1.2427 -1.1069
 1915TIP3   OH2 5708   3.623   4.250   0.169 -0.7317 -0.0806  0.0381
 1915TIP3    H1 5709   3.570   4.277   0.243 -4.5642 -0.3384 -2.3221
 1915TIP3    H2 5710   3.615   4.322   0.106 -0.0764 -1.1040 -1.2755
 1916TIP3   OH2 5711   0.170   0.717   0.452  0.2128 -0.0992 -0.8535
 1916TIP3    H1 5712   0.246   0.772   0.435 -0.0935  0.7995  0.5334
 1916TIP3    H2 5713   0.193   0.667   0.530 -0.1789 -0.7080 -1.1133
 1917TIP3   OH2 5714   3.150   6.160   3.465 -0.3222 -0.1720 -0.5052
 1917TIP3    H1 5715   3.060   6.194   3.466  0.1143  0.9966  0.6642
 1917TIP3    H2 5716   3.188   6.195   3.384 -1.2430 -1.6804 -1.6640
 1918TIP3   OH2 5717   3.892   5.999   5.448  0.1629  0.3791 -0.3121
 1918TIP3    H1 5718   3.827   6.068   5.436  0.2803  0.1592 -2.5783
 1918TIP3    H2 5719   3.969   6.044   5.481 -0.1623  1.1254 -0.5531
 1919TIP3   OH2 5720   4.468   0.230   2.734  0.1449 -0.4686  0.7988
 1919TIP3    H1 5721   4.474   0.135   2.722  0.1813 -0.4716  0.8375
 1919TIP3    H2 5722   4.447   0.241   2.827 -0.6114 -0.4611  0.6271
 1920TIP3   OH2 5723   6.581   6.097   5.022 -0.8394 -0.5212 -0.0291
 1920TIP3    H1 5724   6.500   6.072   5.065 -0.5559 -0.0760  0.7984
 1920TIP3    H2 5725   6.650   6.074   5.085 -0.3519 -0.5970 -0.5797
 1921TIP3   OH2 5726   3.297   6.145   3.711 -0.3364 -0.0254  0.3539
 1921TIP3    H1 5727   3.276   6.171   3.621  3.7588  0.9299 -0.5058
 1921TIP3    H2 5728   3.296   6.050   3.710 -1.8028 -0.0301 -0.2426
 1922TIP3   OH2 5729   6.080   3.814   1.150 -0.6959  0.0771 -0.0627
 1922TIP3    H1 5730   6.082   3.852   1.062  0.3289  0.1250 -0.0376
 1922TIP3    H2 5731   6.100   3.721   1.136  0.0118  0.1885  0.1549
 1923TIP3   OH2 5732   1.458   2.005   2.308  0.4355  0.1934  0.1911
 1923TIP3    H1 5733   1.459   2.095   2.275 -0.0542 -0.1973 -0.9380
 1923TIP3    H2 5734   1.550   1.978   2.304  0.4836  0.3962 -0.2171
 1924TIP3   OH2 5735   4.279   1.752   3.428  0.5620 -0.3977 -0.0906
 1924TIP3    H1 5736   4.370   1.778   3.440 -0.3904  2.0609  3.1788
 1924TIP3    H2 5737   4.272   1.668   3.474  0.8574  0.2279  1.1307
 1925TIP3   OH2 5738   4.716   5.966   1.805  0.4327 -0.5028 -0.1692
 1925TIP3    H1 5739   4.632   6.012   1.806  0.2730 -0.7672 -1.1269
 1925TIP3    H2 5740   4.781   6.036   1.794  0.3944 -0.2424  1.0946
 1926TIP3   OH2 5741   5.295   4.420   4.463  0.6147 -0.4196  0.2721
 1926TIP3    H1 5742   5.218   4.377   4.427  0.0153 -1.1384  2.2333
 1926TIP3    H2 5743   5.363   4.352   4.463  1.8659  0.6619 -2.9862
 1927TIP3   OH2 5744   0.729   3.100   4.841  0.2855 -0.0409 -0.1986
 1927TIP3    H1 5745   0.809   3.152   4.848  0.0995  0.3732 -1.0731
 1927TIP3    H2 5746   0.714   3.069   4.930  0.5495  1.1811  0.3024
 1928TIP3   OH2 5747   2.750   3.953   3.647 -0.4177  0.2478 -0.2160
 1928TIP3    H1 5748   2.691   3.884   3.678  0.9723 -1.1025 -0.4493
 1928TIP3    H2 5749   2.698   4.001   3.583 -1.1564 -1.1829 -0.7487
 1929TIP3   OH2 5750   6.103   1.289   1.956  0.2760 -0.2227 -0.0305
 1929TIP3    H1 5751   6.040   1.219   1.939 -1.5224  1.3700 -0.2006
 1929TIP3    H2 5752   6.051   1.369   1.955  2.3384  1.1835 -0.2557
 1930TIP3   OH2 5753   6.162   5.896   0.917  0.1243  0.2602  0.8701
 1930TIP3    H1 5754   6.229   5.850   0.867  1.1140  1.3045  1.2056
 1930TIP3    H2 5755   6.210   5.941   0.986 -1.0783 -0.0877  1.9749
 1931TIP3   OH2 5756   0.208   1.170   3.361  0.3560 -0.0297  0.1670
 1931TIP3    H1 5757   0.229   1.083   3.392  0.7780 -0.3004 -0.8244
 1931TIP3    H2 5758   0.225   1.166   3.267 -0.1542  0.9583  0.0204
 1932TIP3   OH2 5759   5.599   4.307   3.425 -0.3940 -0.2348  0.4424
 1932TIP3    H1 5760   5.535   4.372   3.396  1.1013  1.5654  1.0127
 1932TIP3    H2 5761   5.558   4.265   3.500 -2.0180 -1.1047 -0.8486
 1933TIP3   OH2 5762   6.452   1.092   1.724  0.7603 -0.0217 -0.0777
 1933TIP3    H1 5763   6.406   1.112   1.806  1.4037  0.6654  0.1339
 1933TIP3    H2 5764   6.481   1.001   1.735  0.7935  0.0450  0.4361
 1934TIP3   OH2 5765   5.457   1.637   1.342  0.2193 -0.4643 -0.4646
 1934TIP3    H1 5766   5.385   1.573   1.341 -0.2872  0.0996 -0.2974
 1934TIP3    H2 5767   5.478   1.651   1.250 -2.4984  2.2610 -0.8233
 1935TIP3   OH2 5768   5.693   1.582   5.723  0.1542  0.0251 -0.0773
 1935TIP3    H1 5769   5.758   1.581   5.653  0.6326 -2.4136  0.3190
 1935TIP3    H2 5770   5.609   1.594   5.678  0.7161  2.5005 -0.6464
 1936TIP3   OH2 5771   6.965   3.726   0.460  0.0779  0.3557  0.1920
 1936TIP3    H1 5772   7.022   3.666   0.507 -0.2741 -1.2465 -1.3393
 1936TIP3    H2 5773   6.989   3.813   0.494  1.2447 -0.5419  1.7867
 1937TIP3   OH2 5774   6.311   3.378   3.959 -0.1867 -0.1647 -0.0632
 1937TIP3    H1 5775   6.398   3.377   4.001 -0.4496  0.2350  0.4946
 1937TIP3    H2 5776   6.286   3.470   3.957 -0.9771 -0.3545  0.5707
 1938TIP3   OH2 5777   6.705   2.485   1.631  0.3291 -0.2717 -0.3817
 1938TIP3    H1 5778   6.627   2.478   1.576  0.6579 -1.2781 -0.7447
 1938TIP3    H2 5779   6.679   2.446   1.714 -0.1742  1.2657  0.2277
 1939TIP3   OH2 5780   1.124   5.917   2.242  0.5354  0.1886  0.8343
 1939TIP3    H1 5781   1.186   5.924   2.170  0.1185 -1.7463  0.2483
 1939TIP3    H2 5782   1.168   5.861   2.306  0.1838  0.4317  1.2927
 1940TIP3   OH2 5783   1.534   2.702   4.886 -0.2350  0.4390 -0.0622
 1940TIP3    H1 5784   1.482   2.700   4.806  0.3439 -0.3144 -0.4342
 1940TIP3    H2 5785   1.625   2.692   4.856  0.0380  0.7066  0.6482
 1941TIP3   OH2 5786   1.215   0.725   3.118 -0.4241 -0.3738 -0.2123
 1941TIP3    H1 5787   1.240   0.804   3.071  1.5828 -1.4632 -1.0793
 1941TIP3    H2 5788   1.139   0.691   3.070 -0.2324  0.1120 -0.8696
 1942TIP3   OH2 5789   2.114   4.742   2.558  0.2327 -0.5897  0.3807
 1942TIP3    H1 5790   2.088   4.768   2.646  0.4133  1.7836 -0.1948
 1942TIP3    H2 5791   2.178   4.808   2.531 -1.1209 -0.1690 -2.1626
 1943TIP3   OH2 5792   4.015   2.182   4.961 -0.0105  0.4347  0.1960
 1943TIP3    H1 5793   4.091   2.125   4.977  0.9912  2.2456  2.3508
 1943TIP3    H2 5794   3.946   2.143   5.014  0.1643  0.2594  0.3012
 1944TIP3   OH2 5795   6.466   2.191   3.810  0.1874 -0.1427  0.4258
 1944TIP3    H1 5796   6.379   2.228   3.821  0.7846  0.7614  2.7173
 1944TIP3    H2 5797   6.520   2.265   3.783  0.6014 -0.2357  0.9794
 1945TIP3   OH2 5798   1.426   5.954   3.616 -0.5148 -0.0979 -0.4447
 1945TIP3    H1 5799   1.508   6.003   3.611 -1.4821  1.7269  0.2616
 1945TIP3    H2 5800   1.400   5.960   3.708 -2.0363  0.4729 -0.8710
 1946TIP3   OH2 5801   3.483   6.077   4.388 -0.6430  0.1362 -0.3247
 1946TIP3    H1 5802   3.413   6.141   4.402 -0.1936  1.4647 -3.3183
 1946TIP3    H2 5803   3.443   5.992   4.407 -2.1573  1.0615  0.8412
 1947TIP3   OH2 5804   0.875   5.907   0.881 -0.0098  0.2744 -0.4054
 1947TIP3    H1 5805   0.806   5.970   0.900 -1.5233 -1.3473 -0.2073
 1947TIP3    H2 5806   0.837   5.848   0.816  1.2550 -0.5505 -0.4378
 1948TIP3   OH2 5807   4.658   1.297   0.096  0.1599 -0.3625  0.2365
 1948TIP3    H1 5808   4.621   1.370   0.145 -1.9077 -1.5238  0.5412
 1948TIP3    H2 5809   4.698   1.241   0.163  0.8424 -0.0089  0.1250
 1949TIP3   OH2 5810   3.346   2.185   5.508  0.4400 -0.0722 -0.1690
 1949TIP3    H1 5811   3.434   2.220   5.524  0.1455  0.3091  0.6788
 1949TIP3    H2 5812   3.316   2.229   5.429  0.6366  0.5223  0.0875
 1950TIP3   OH2 5813   2.396   6.528   1.994 -0.2666 -0.3782 -0.5513
 1950TIP3    H1 5814   2.483   6.497   2.021  0.1621  1.3760  0.2111
 1950TIP3    H2 5815   2.346   6.448   1.981  0.5035 -1.4426  2.1974
 1951TIP3   OH2 5816   0.721   4.483   5.844  0.0364 -0.5153 -0.6219
 1951TIP3    H1 5817   0.718   4.510   5.936  0.4445  0.5666 -0.9113
 1951TIP3    H2 5818   0.629   4.470   5.820 -0.3247  1.7650 -0.7531
 1952TIP3   OH2 5819   1.073   0.365   0.772  0.1679  0.1177 -0.0004
 1952TIP3    H1 5820   1.111   0.358   0.685 -0.8354  0.6003 -0.4856
 1952TIP3    H2 5821   1.063   0.459   0.787 -0.5553  0.0047  0.2452
 1953TIP3   OH2 5822   2.964   0.913   4.720  0.1234  0.1582 -0.1570
 1953TIP3    H1 5823   2.923   0.902   4.634 -0.0397  1.6504 -0.2944
 1953TIP3    H2 5824   3.044   0.861   4.716  0.6773  1.0700 -1.6187
 1954TIP3   OH2 5825   3.485   2.478   5.729 -0.8012 -0.0756 -0.2089
 1954TIP3    H1 5826   3.416   2.420   5.696  0.4816 -1.5387 -0.3947
 1954TIP3    H2 5827   3.540   2.496   5.653  0.2972 -0.7851  0.3940
 1955TIP3   OH2 5828   3.971   4.626   0.414 -0.0116  0.0012 -1.1695
 1955TIP3    H1 5829   3.900   4.574   0.376 -0.5232  0.8972 -1.4552
 1955TIP3    H2 5830   4.041   4.621   0.349  0.4767 -1.4543 -0.5809
 1956TIP3   OH2 5831   2.308   3.915   2.318  0.3802  0.0988  0.3865
 1956TIP3    H1 5832   2.233   3.935   2.374  0.4389  1.0796  0.1303
 1956TIP3    H2 5833   2.313   3.988   2.256  1.1966 -0.2403  0.0293
 1957TIP3   OH2 5834   1.978   2.755   0.122 -0.2381  0.4826 -0.2437
 1957TIP3    H1 5835   1.965   2.796   0.207  0.4771  0.5558 -0.1664
 1957TIP3    H2 5836   1.944   2.819   0.059 -0.8398  0.3937 -0.0148
 1958TIP3   OH2 5837   6.998   0.277   5.255 -0.0479  0.3068 -0.2680
 1958TIP3    H1 5838   6.991   0.208   5.321 -0.6266 -0.1108 -0.7536
 1958TIP3    H2 5839   7.009   0.231   5.172  1.9285  0.8524 -0.3465
 1959TIP3   OH2 5840   5.473   4.519   1.003 -0.0581 -0.6558  0.8574
 1959TIP3    H1 5841   5.556   4.520   1.050  0.0757 -1.4198  0.6508
 1959TIP3    H2 5842   5.423   4.592   1.040  0.4735 -0.5642  1.3986
 1960TIP3   OH2 5843   0.729   4.409   3.619 -0.4244 -0.2471  0.0691
 1960TIP3    H1 5844   0.634   4.402   3.612 -0.3380 -0.9321 -0.5113
 1960TIP3    H2 5845   0.753   4.351   3.691 -0.1924 -2.3662 -1.6061
 1961TIP3   OH2 5846   4.921   4.746   0.253  0.1941 -0.6184 -0.1128
 1961TIP3    H1 5847   4.990   4.811   0.266  0.1529 -0.9506  2.2589
 1961TIP3    H2 5848   4.850   4.774   0.311 -0.4634 -1.9134 -0.2475
 1962TIP3   OH2 5849   2.664   6.044   1.457 -0.2206 -0.6191 -0.1616
 1962TIP3    H1 5850   2.715   5.966   1.476  0.5060  0.0402  0.6951
 1962TIP3    H2 5851   2.595   6.014   1.397  0.3354 -1.7992 -0.2365
 1963TIP3   OH2 5852   6.374   0.265   3.166 -0.0013  0.5806  0.2508
 1963TIP3    H1 5853   6.319   0.326   3.214 -0.4066  1.1763 -0.9178
 1963TIP3    H2 5854   6.316   0.192   3.145  0.8474 -0.9407  2.8818
 1964TIP3   OH2 5855   1.900   3.999   2.722 -0.1175  0.4716  0.1432
 1964TIP3    H1 5856   1.907   3.995   2.817  0.4319 -0.1264  0.0840
 1964TIP3    H2 5857   1.971   3.944   2.690 -2.1495 -1.9033 -0.5709
 1965TIP3   OH2 5858   1.554   5.769   0.719 -0.0271  0.2773 -0.1303
 1965TIP3    H1 5859   1.613   5.844   0.733  0.2457 -0.1394  1.0097
 1965TIP3    H2 5860   1.469   5.800   0.748  0.2411 -0.0945  1.1012
 1966TIP3   OH2 5861   3.158   0.641   1.651 -0.2341 -0.4665 -0.2479
 1966TIP3    H1 5862   3.171   0.734   1.636 -0.8301 -0.2180  0.6413
 1966TIP3    H2 5863   3.073   0.622   1.611 -0.4249 -0.4683  0.1492
 1967TIP3   OH2 5864   1.417   2.696   1.721  0.3867 -0.0777  0.2782
 1967TIP3    H1 5865   1.362   2.744   1.658 -0.0296 -0.3478  0.4332
 1967TIP3    H2 5866   1.398   2.604   1.705 -1.1361 -0.1259  2.0252
 1968TIP3   OH2 5867   1.987   3.642   5.777  0.2050  0.3845  0.2990
 1968TIP3    H1 5868   1.985   3.606   5.866  0.0915  1.5254  0.7685
 1968TIP3    H2 5869   1.930   3.583   5.727  0.0928 -0.1438  1.0265
 1969TIP3   OH2 5870   3.908   5.322   3.969  0.6926  0.2817  0.3872
 1969TIP3    H1 5871   3.849   5.378   4.020  0.4291  1.2502 -0.9242
 1969TIP3    H2 5872   3.965   5.383   3.923  1.2671 -0.5839 -0.0741
 1970TIP3   OH2 5873   0.201   6.109   5.457 -0.4452  0.1579  0.2976
 1970TIP3    H1 5874   0.219   6.092   5.550  3.9621  1.4138 -0.0729
 1970TIP3    H2 5875   0.234   6.031   5.412 -1.9872 -0.1713 -0.3315
 1971TIP3   OH2 5876   6.509   6.199   0.838  0.1491  0.1835  0.2061
 1971TIP3    H1 5877   6.427   6.150   0.830  0.4116 -0.0671 -1.3457
 1971TIP3    H2 5878   6.576   6.132   0.849  0.1612  0.3893  1.5045
 1972TIP3   OH2 5879   6.841   0.791   4.536 -0.1336  0.5923 -0.0979
 1972TIP3    H1 5880   6.790   0.710   4.530  2.7151 -1.3277 -0.9944
 1972TIP3    H2 5881   6.843   0.812   4.629  0.0352 -1.0885  0.3048
 1973TIP3   OH2 5882   6.993   5.425   4.718 -0.3819 -0.1205 -0.8192
 1973TIP3    H1 5883   7.029   5.341   4.689  0.4622  0.1494 -0.6003
 1973TIP3    H2 5884   6.899   5.415   4.709 -0.2321 -0.6437 -2.0092
 1974TIP3   OH2 5885   3.366   1.501   3.025 -0.2049  0.1930 -0.2531
 1974TIP3    H1 5886   3.460   1.519   3.035 -0.6268  1.9703  0.8368
 1974TIP3    H2 5887   3.323   1.563   3.083 -2.0576 -1.0880 -0.1710
 1975TIP3   OH2 5888   2.357   5.527   3.971  0.0010  0.3033  0.5368
 1975TIP3    H1 5889   2.403   5.535   3.887 -0.0535 -1.2606  0.3267
 1975TIP3    H2 5890   2.347   5.433   3.984 -0.3516  0.5310  2.1180
 1976TIP3   OH2 5891   6.973   2.979   1.445  0.0132  0.9637 -0.1434
 1976TIP3    H1 5892   6.925   2.977   1.362  1.4570 -0.5221 -1.0221
 1976TIP3    H2 5893   6.958   2.892   1.483 -0.1195  1.4121  0.8395
 1977TIP3   OH2 5894   1.240   6.731   4.152 -0.2904  0.2831  0.7314
 1977TIP3    H1 5895   1.332   6.749   4.172 -0.0678 -0.1457  0.1049
 1977TIP3    H2 5896   1.230   6.755   4.060 -0.5100 -0.7603  0.4649
 1978TIP3   OH2 5897   2.250   2.124   4.545  0.1449  0.3486 -0.8058
 1978TIP3    H1 5898   2.265   2.215   4.570  0.6823  0.6241 -2.0675
 1978TIP3    H2 5899   2.285   2.117   4.456 -0.9873 -0.7856 -1.1961
 1979TIP3   OH2 5900   4.547   2.632   0.824 -0.0168 -0.4988 -0.1731
 1979TIP3    H1 5901   4.605   2.623   0.900 -1.0060  0.5662  0.7418
 1979TIP3    H2 5902   4.606   2.644   0.750  0.9482  0.4654  0.7221
 1980TIP3   OH2 5903   6.537   5.736   5.916  0.1150  0.1817  0.9480
 1980TIP3    H1 5904   6.507   5.810   5.864 -0.9356 -1.2614 -0.5987
 1980TIP3    H2 5905   6.630   5.728   5.894 -0.2048 -0.1119 -0.3904
 1981TIP3   OH2 5906   6.003   0.418   3.596  0.5785  0.0162 -0.2538
 1981TIP3    H1 5907   5.931   0.404   3.535 -0.8413  0.3488  1.3060
 1981TIP3    H2 5908   6.058   0.340   3.584 -0.1508 -0.3703 -1.2824
 1982TIP3   OH2 5909   2.299   5.007   5.599 -0.4346 -0.1119 -0.5808
 1982TIP3    H1 5910   2.268   4.917   5.590  0.3876 -0.3538 -1.1193
 1982TIP3    H2 5911   2.300   5.041   5.510 -0.4068  0.3164 -0.4193
 1983TIP3   OH2 5912   5.699   4.034   2.786 -0.5119 -0.3076 -0.5975
 1983TIP3    H1 5913   5.707   3.985   2.704  0.3904  0.8931 -1.2578
 1983TIP3    H2 5914   5.605   4.054   2.793 -0.5536 -0.1185 -1.5393
 1984TIP3   OH2 5915   2.717   3.549   2.240 -0.2902 -0.3903  0.5471
 1984TIP3    H1 5916   2.670   3.466   2.248  0.2416 -0.6424  1.1288
 1984TIP3    H2 5917   2.677   3.592   2.165  0.5532 -1.8954 -0.8240
 1985TIP3   OH2 5918   3.667   4.535   0.912 -0.2585 -0.4571  0.2105
 1985TIP3    H1 5919   3.755   4.567   0.897 -0.6554  0.4261 -0.2986
 1985TIP3    H2 5920   3.611   4.591   0.858 -1.0714 -1.3765  0.0720
 1986TIP3   OH2 5921   6.843   2.028   3.244 -0.3658 -0.2991 -0.1890
 1986TIP3    H1 5922   6.870   1.957   3.186  1.2734 -1.7867  2.2255
 1986TIP3    H2 5923   6.750   2.011   3.262 -0.3596 -0.9787 -0.7556
 1987TIP3   OH2 5924   5.357   6.645   3.274 -0.1590 -0.1394 -0.3131
 1987TIP3    H1 5925   5.363   6.590   3.196 -0.5848  0.8852 -1.0931
 1987TIP3    H2 5926   5.262   6.658   3.286 -0.0708  0.2393 -0.0184
 1988TIP3   OH2 5927   2.959   4.028   1.582  0.2618  0.2999 -0.1736
 1988TIP3    H1 5928   2.899   3.954   1.592 -0.2057  0.8668  1.4056
 1988TIP3    H2 5929   2.904   4.099   1.549  0.2926  0.4951  0.1907
 1989TIP3   OH2 5930   6.605   0.978   5.118 -0.4823 -0.0100 -0.0012
 1989TIP3    H1 5931   6.696   1.008   5.110 -0.8106  0.7949 -0.9631
 1989TIP3    H2 5932   6.604   0.894   5.072 -0.6610  0.9991 -1.9471
 1990TIP3   OH2 5933   0.048   3.349   3.739  0.1217  0.4937 -0.3781
 1990TIP3    H1 5934   0.056   3.255   3.722 -1.4157 -0.1533  1.9595
 1990TIP3    H2 5935  -0.016   3.380   3.675 -1.4740 -0.6854  0.5809
 1991TIP3   OH2 5936   4.265   1.882   3.739 -0.1033  0.5221  0.6598
 1991TIP3    H1 5937   4.231   1.968   3.764  0.0559  0.3949  1.3521
 1991TIP3    H2 5938   4.188   1.834   3.709  0.2380  1.9400 -2.9695
 1992TIP3   OH2 5939   6.351   1.100   5.451 -0.2329 -0.2070 -0.0855
 1992TIP3    H1 5940   6.380   1.191   5.445  0.7872 -0.5690 -0.8433
 1992TIP3    H2 5941   6.337   1.085   5.545 -0.9742  0.8834  0.0016
 1993TIP3   OH2 5942   5.359   1.591   0.280  0.0152  0.1892 -0.3105
 1993TIP3    H1 5943   5.386   1.585   0.371 -1.3750  2.7539  0.3786
 1993TIP3    H2 5944   5.436   1.563   0.230  2.0863  2.0563  1.6107
 1994TIP3   OH2 5945   2.694   6.104   3.008 -0.6988  1.0290 -0.5913
 1994TIP3    H1 5946   2.715   6.047   3.082 -0.7589  1.0415 -0.5645
 1994TIP3    H2 5947   2.763   6.171   3.009 -2.3145  2.8093  1.2900
 1995TIP3   OH2 5948   5.066   0.748   5.235  0.1175 -0.1967 -0.3354
 1995TIP3    H1 5949   5.115   0.800   5.298  0.3594 -0.0506 -0.6434
 1995TIP3    H2 5950   5.096   0.658   5.250 -0.9279 -0.4004  0.7892
 1996TIP3   OH2 5951   0.315   0.648   3.176 -0.0404  0.5666 -0.3011
 1996TIP3    H1 5952   0.378   0.606   3.119  0.3957 -0.0971  0.6360
 1996TIP3    H2 5953   0.328   0.742   3.162  1.3113  0.4489  0.0177
 1997TIP3   OH2 5954   3.289   2.540   3.182  0.1965 -0.1966 -0.2467
 1997TIP3    H1 5955   3.221   2.601   3.152  1.2546  0.3303 -1.6762
 1997TIP3    H2 5956   3.241   2.474   3.232 -1.3475  0.2820 -1.0137
 1998TIP3   OH2 5957   5.417   0.890   0.199 -0.1753 -0.3472  0.2262
 1998TIP3    H1 5958   5.459   0.882   0.285 -1.5241  2.5846  1.2857
 1998TIP3    H2 5959   5.346   0.825   0.201  1.4096 -2.1401  0.2206
 1999TIP3   OH2 5960   6.092   1.719   4.148  0.2238 -0.8846 -0.3412
 1999TIP3    H1 5961   6.012   1.670   4.168 -0.7826 -1.0901 -4.1088
 1999TIP3    H2 5962   6.104   1.708   4.054  4.1860 -0.0050 -0.1315
 2000TIP3   OH2 5963   4.935   1.802   2.613  0.4243  0.0160 -0.0804
 2000TIP3    H1 5964   4.891   1.719   2.594  0.1972  0.3621 -1.1936
 2000TIP3    H2 5965   4.899   1.830   2.697 -3.0353  1.2408 -1.7776
 2001TIP3   OH2 5966   0.241   0.494   1.189  0.2097 -0.3332 -0.4914
 2001TIP3    H1 5967   0.154   0.459   1.206 -0.8867  2.2452 -0.3214
 2001TIP3    H2 5968   0.230   0.589   1.189  3.4461  0.2327  1.8039
 2002TIP3   OH2 5969   4.697   1.010   2.881  0.2371 -0.4957 -0.4915
 2002TIP3    H1 5970   4.607   0.984   2.900  0.6766 -1.2977  0.6067
 2002TIP3    H2 5971   4.689   1.100   2.850 -0.9312 -0.4909 -0.2474
 2003TIP3   OH2 5972   6.216   0.263   0.407  0.1543  0.0770 -0.9880
 2003TIP3    H1 5973   6.234   0.309   0.490 -2.4356 -0.7435  0.1378
 2003TIP3    H2 5974   6.194   0.174   0.434 -1.5716  0.0145 -2.4612
 2004TIP3   OH2 5975   2.461   4.043   1.342  0.1061  0.1276  0.6768
 2004TIP3    H1 5976   2.411   3.963   1.355 -2.3030  1.3946 -0.2674
 2004TIP3    H2 5977   2.459   4.087   1.427  0.0824 -0.0727  0.7795
 2005TIP3   OH2 5978   0.305   6.430   3.390 -0.0483  0.3432  0.1289
 2005TIP3    H1 5979   0.365   6.500   3.365 -1.4764  0.4431 -3.5381
 2005TIP3    H2 5980   0.218   6.468   3.381 -0.8208 -0.8819  1.7786
 2006TIP3   OH2 5981   1.367   1.535   1.584  0.0831 -0.1398 -0.1293
 2006TIP3    H1 5982   1.378   1.440   1.592 -1.0419 -0.2749  0.0650
 2006TIP3    H2 5983   1.452   1.571   1.605  0.5917 -1.1222 -0.4288
 2007TIP3   OH2 5984   5.623   5.355   2.008 -0.0953 -0.0044  0.0083
 2007TIP3    H1 5985   5.580   5.372   2.092  0.4267  2.8148 -0.2047
 2007TIP3    H2 5986   5.653   5.264   2.015 -1.9730 -0.5572  1.9749
 2008TIP3   OH2 5987   4.575   0.052   3.895 -0.2292  0.1706 -0.0667
 2008TIP3    H1 5988   4.632   0.101   3.836  0.2327  0.7261  0.8097
 2008TIP3    H2 5989   4.493   0.041   3.847 -0.4832  2.1422 -0.1589
 2009TIP3   OH2 5990   6.096   0.636   4.579 -0.0186  0.3649  0.0310
 2009TIP3    H1 5991   6.007   0.629   4.544 -0.5789  0.8235  1.2888
 2009TIP3    H2 5992   6.146   0.678   4.509 -1.1063  1.3216 -0.2096
 2010TIP3   OH2 5993   4.081   1.596   1.098 -0.0802  0.1718  0.3981
 2010TIP3    H1 5994   4.085   1.518   1.153 -1.6478 -0.3471 -0.1801
 2010TIP3    H2 5995   4.001   1.586   1.048  1.2441  0.6740 -1.9572
 2011TIP3   OH2 5996   1.181   5.395   2.609  0.2638  0.1505 -0.3965
 2011TIP3    H1 5997   1.212   5.480   2.639 -0.5748  0.3764 -0.1566
 2011TIP3    H2 5998   1.105   5.375   2.664 -0.3526 -0.1405 -1.3221
 2012TIP3   OH2 5999   3.294   4.067   4.489 -0.3803  0.1078  0.3670
 2012TIP3    H1 6000   3.272   3.975   4.502 -2.9052  0.7844  1.3540
 2012TIP3    H2 6001   3.282   4.107   4.575  2.0220  1.1844  0.2937
 2013TIP3   OH2 6002   6.599   3.468   5.187 -0.0345  0.2434 -0.2157
 2013TIP3    H1 6003   6.648   3.538   5.230  0.1166  0.8730 -1.3957
 2013TIP3    H2 6004   6.507   3.496   5.193 -0.4750 -1.3851  2.8518
 2014TIP3   OH2 6005   1.436   5.465   4.524  0.6503  0.1401  0.0571
 2014TIP3    H1 6006   1.454   5.514   4.444  1.6294 -0.0630  0.1400
 2014TIP3    H2 6007   1.463   5.376   4.504 -0.3264 -0.2002  0.1915
 2015TIP3   OH2 6008   1.240  -0.015   2.985  0.1215  0.3852  0.5340
 2015TIP3    H1 6009   1.234  -0.035   2.892 -0.4524 -1.2491  0.8867
 2015TIP3    H2 6010   1.276   0.074   2.989 -0.9034  0.9134 -1.2538
 2016TIP3   OH2 6011   0.031   2.747   0.698 -0.2650  0.2449  0.2918
 2016TIP3    H1 6012   0.083   2.769   0.775  0.2388 -0.4195  0.1469
 2016TIP3    H2 6013   0.094   2.745   0.626 -0.4503 -0.7083  0.1405
 2017TIP3   OH2 6014   6.606   6.343   1.658 -0.1354  0.3809 -0.2094
 2017TIP3    H1 6015   6.614   6.306   1.571 -0.3191 -0.6010  0.1817
 2017TIP3    H2 6016   6.682   6.309   1.706 -1.4001 -1.2595  0.7611
 2018TIP3   OH2 6017   3.274   2.394   1.945 -0.2270 -0.1259 -0.0349
 2018TIP3    H1 6018   3.205   2.381   1.879  0.3975 -2.5086 -0.3367
 2018TIP3    H2 6019   3.289   2.306   1.980  1.1308  0.7084  1.6083
 2019TIP3   OH2 6020   4.081   5.187   4.352 -0.2183  0.1774  0.5138
 2019TIP3    H1 6021   4.144   5.117   4.371 -0.4773  0.1838  1.4653
 2019TIP3    H2 6022   3.997   5.152   4.382 -0.6517  0.2302 -0.6094
 2020TIP3   OH2 6023   6.606   2.713   5.657 -0.0353 -0.0982 -0.2489
 2020TIP3    H1 6024   6.629   2.651   5.587  0.5231  0.1666 -0.2987
 2020TIP3    H2 6025   6.567   2.787   5.611  1.1432  0.4679 -0.3687
 2021TIP3   OH2 6026   6.970   5.659   0.306  0.0326  0.0864 -0.6412
 2021TIP3    H1 6027   6.937   5.722   0.241 -0.0024  0.0366 -0.6720
 2021TIP3    H2 6028   6.904   5.659   0.375  1.1259  1.7945  0.4766
 2022TIP3   OH2 6029   2.847   5.515   4.960  0.3545  0.1436 -0.3538
 2022TIP3    H1 6030   2.928   5.566   4.962  0.9013 -0.7212  0.0804
 2022TIP3    H2 6031   2.855   5.453   5.032 -0.6610 -0.0224 -0.3629
 2023TIP3   OH2 6032   4.955   3.738   5.806 -0.4275 -0.0560  0.7882
 2023TIP3    H1 6033   4.889   3.669   5.801 -0.6563  0.2519 -1.2157
 2023TIP3    H2 6034   5.031   3.702   5.761 -0.7812  1.1930 -0.8978
 2024TIP3   OH2 6035   2.490   6.093   2.014 -0.2658  0.4718  0.2625
 2024TIP3    H1 6036   2.446   6.160   2.066 -1.1859 -0.7692  1.1320
 2024TIP3    H2 6037   2.504   6.021   2.075 -0.6377 -0.7156 -1.0168
 2025TIP3   OH2 6038   3.984   0.049   2.715  0.3810 -0.3577  0.1299
 2025TIP3    H1 6039   3.993   0.085   2.627  2.2121 -1.4794 -0.2015
 2025TIP3    H2 6040   3.977   0.126   2.772  0.8775  0.4258 -0.8352
 2026TIP3   OH2 6041   6.287   5.629   0.391 -0.1194 -0.0088  0.0524
 2026TIP3    H1 6042   6.231   5.646   0.467  0.4555 -1.0866  0.7522
 2026TIP3    H2 6043   6.255   5.546   0.356  0.7645 -0.4374  0.2267
 2027TIP3   OH2 6044   0.039   4.476   2.708 -0.2200 -0.2489  0.1241
 2027TIP3    H1 6045   0.001   4.524   2.782 -0.2832  0.0321 -0.0901
 2027TIP3    H2 6046   0.036   4.538   2.635  1.0873 -0.0597  0.2178
 2028TIP3   OH2 6047   0.694   3.840   5.654  0.0552 -0.0152  0.4183
 2028TIP3    H1 6048   0.764   3.817   5.592  1.6807  1.8605  1.4158
 2028TIP3    H2 6049   0.619   3.788   5.626  1.8730 -2.3006 -0.6235
 2029TIP3   OH2 6050   1.205   6.247   2.750 -0.2724  0.1432  0.4259
 2029TIP3    H1 6051   1.115   6.278   2.736 -0.4951 -0.9429 -0.7711
 2029TIP3    H2 6052   1.221   6.186   2.678  0.5573 -1.5792  1.9655
 2030TIP3   OH2 6053   6.937   4.076   5.602  0.7705 -0.0760  0.2132
 2030TIP3    H1 6054   6.946   4.004   5.539  2.5450  0.1014  0.2043
 2030TIP3    H2 6055   6.996   4.053   5.674 -1.0107 -0.1340  1.7267
 2031TIP3   OH2 6056   5.093   5.934   2.188 -0.7426 -0.1943  0.2923
 2031TIP3    H1 6057   5.188   5.942   2.181 -0.7376 -1.3151 -1.3958
 2031TIP3    H2 6058   5.077   5.914   2.281  0.4244  2.3704  1.1272
 2032TIP3   OH2 6059   3.718   6.675   5.844  0.1386 -0.0705 -0.4780
 2032TIP3    H1 6060   3.783   6.740   5.872 -0.2764  0.2198 -0.1661
 2032TIP3    H2 6061   3.758   6.591   5.864 -0.7023  0.0986  2.4921
 2033TIP3   OH2 6062   5.746   5.775   3.202  0.0704 -0.2537  0.7187
 2033TIP3    H1 6063   5.805   5.848   3.223 -1.2141  0.7206  1.1205
 2033TIP3    H2 6064   5.775   5.744   3.117  0.6533  0.7545  0.5354
 2034TIP3   OH2 6065   2.225   6.103   3.429 -0.1183 -0.7386  0.4223
 2034TIP3    H1 6066   2.252   6.012   3.419  0.1594 -0.4635 -1.5750
 2034TIP3    H2 6067   2.231   6.119   3.524  0.2930 -2.6265  0.7589
 2035TIP3   OH2 6068   1.247   2.200   2.432 -0.7790  0.1929 -0.4399
 2035TIP3    H1 6069   1.245   2.292   2.404 -2.4862  0.5683  0.7978
 2035TIP3    H2 6070   1.317   2.196   2.497 -1.1347  0.7880 -0.0093
 2036TIP3   OH2 6071   6.406   3.750   2.895  0.1700  0.4399 -0.4991
 2036TIP3    H1 6072   6.464   3.820   2.863  0.9782  2.1438  3.9343
 2036TIP3    H2 6073   6.338   3.796   2.943 -0.8331 -1.8039  0.3306
 2037TIP3   OH2 6074   3.489   6.610   2.286  0.1740 -0.2116  0.6382
 2037TIP3    H1 6075   3.526   6.695   2.265  0.7408  0.1461  2.7993
 2037TIP3    H2 6076   3.488   6.562   2.203 -1.3827  2.2994 -0.9154
 2038TIP3   OH2 6077   4.756   4.562   3.853  0.6242  0.1943  0.1250
 2038TIP3    H1 6078   4.704   4.497   3.806 -0.7292  1.5676 -0.3361
 2038TIP3    H2 6079   4.693   4.628   3.881  1.5808  0.0585  2.8215
 2039TIP3   OH2 6080   5.644   2.159   1.778 -0.1587 -0.1225 -0.1684
 2039TIP3    H1 6081   5.735   2.135   1.797 -0.3912 -2.0544 -1.2177
 2039TIP3    H2 6082   5.640   2.253   1.796  1.3119 -0.4649  2.6217
 2040TIP3   OH2 6083   6.314   3.795   0.857 -0.5547 -0.3789  0.2256
 2040TIP3    H1 6084   6.304   3.779   0.763  0.0971 -0.7557  0.2151
 2040TIP3    H2 6085   6.265   3.876   0.873 -0.6646 -0.3087 -0.4405
 2041TIP3   OH2 6086   3.459   2.258   3.210 -0.2667  0.6828  0.2099
 2041TIP3    H1 6087   3.379   2.251   3.261  0.6274  3.3045  2.1690
 2041TIP3    H2 6088   3.435   2.313   3.135 -0.4450  0.9283  0.4483
 2042TIP3   OH2 6089   3.453   4.346   0.431  0.0331 -0.4574 -0.2258
 2042TIP3    H1 6090   3.420   4.340   0.520 -0.3383 -2.7268 -0.4577
 2042TIP3    H2 6091   3.381   4.313   0.376  1.6038 -2.9172 -0.9695
 2043TIP3   OH2 6092   1.401   6.589   3.187 -0.0423 -0.4790  0.2700
 2043TIP3    H1 6093   1.440   6.585   3.274 -1.0265  0.4269  0.7675
 2043TIP3    H2 6094   1.315   6.627   3.201 -1.0275 -2.1856 -0.8389
 2044TIP3   OH2 6095   4.205   6.432   0.610  0.2017 -0.2542  0.6026
 2044TIP3    H1 6096   4.200   6.394   0.697  1.7896  0.2025  0.9297
 2044TIP3    H2 6097   4.140   6.502   0.610 -1.5624 -1.8362  0.5508
 2045TIP3   OH2 6098   4.466   5.467   1.957 -0.0715  0.1154 -0.0230
 2045TIP3    H1 6099   4.392   5.527   1.966 -0.8544 -0.6060 -1.3976
 2045TIP3    H2 6100   4.439   5.389   2.005  1.6651  1.3544  3.3318
 2046TIP3   OH2 6101   6.689   3.864   4.568  0.3411 -0.1863  0.2749
 2046TIP3    H1 6102   6.755   3.887   4.634 -0.4409  1.4616  0.5263
 2046TIP3    H2 6103   6.610   3.909   4.597 -0.1585  0.1379 -1.5151
 2047TIP3   OH2 6104   6.813   5.841   4.473  1.1829  0.0336  0.0413
 2047TIP3    H1 6105   6.795   5.921   4.523  3.2213  0.2565  0.5097
 2047TIP3    H2 6106   6.908   5.839   4.464  1.0641 -1.5066 -1.3894
 2048TIP3   OH2 6107   1.900   3.214   2.992 -0.7371 -0.5934 -0.2708
 2048TIP3    H1 6108   1.907   3.163   2.911  0.3243  1.0832 -1.3037
 2048TIP3    H2 6109   1.847   3.160   3.050  1.9280 -3.8067 -0.5504
 2049TIP3   OH2 6110   5.043   0.955   3.316 -0.1881  0.3495 -0.1502
 2049TIP3    H1 6111   4.977   0.987   3.255  0.7790  2.1662 -0.3326
 2049TIP3    H2 6112   5.029   0.861   3.320 -1.8193  0.5019 -1.3085
 2050TIP3   OH2 6113   0.805   2.590   4.207  0.1964  0.1554  0.6842
 2050TIP3    H1 6114   0.849   2.505   4.210  1.6725  0.8365 -0.5294
 2050TIP3    H2 6115   0.735   2.579   4.143  0.6459 -0.0507  0.2204
 2051TIP3   OH2 6116   7.035   2.973   1.039  0.4452 -0.3685  0.2834
 2051TIP3    H1 6117   6.982   2.958   0.961 -0.9636 -0.5772  1.2480
 2051TIP3    H2 6118   7.063   3.064   1.031 -1.3574  0.2440  0.4774
 2052TIP3   OH2 6119   2.925   5.954   4.827  0.7368  0.3119  0.6407
 2052TIP3    H1 6120   2.984   6.022   4.794  0.5508  0.7498  1.2061
 2052TIP3    H2 6121   2.850   6.001   4.863 -1.1442 -0.2582 -2.1705
 2053TIP3   OH2 6122   2.927   5.004   3.978 -0.7296 -0.1540  0.0069
 2053TIP3    H1 6123   2.870   4.980   3.905  0.4844  0.6942 -1.2740
 2053TIP3    H2 6124   2.946   5.097   3.965 -0.5766  0.0434  1.4782
 2054TIP3   OH2 6125   0.666   3.599   4.388 -0.0375  0.2086  0.2780
 2054TIP3    H1 6126   0.622   3.601   4.303 -0.0253 -0.3754  0.2539
 2054TIP3    H2 6127   0.647   3.685   4.427 -0.5955  0.2281 -0.0333
 2055TIP3   OH2 6128   1.549   0.696   2.409 -0.5101 -0.0282 -0.0055
 2055TIP3    H1 6129   1.515   0.783   2.391  0.2652 -0.0539 -1.7776
 2055TIP3    H2 6130   1.544   0.687   2.504 -0.0580  2.1724  0.2659
 2056TIP3   OH2 6131   1.635   2.640   2.599 -0.4284  0.3350 -0.0329
 2056TIP3    H1 6132   1.661   2.604   2.684 -1.0610 -0.0913 -0.0123
 2056TIP3    H2 6133   1.641   2.566   2.539  1.7213  1.0244 -0.7538
 2057TIP3   OH2 6134   3.155   3.306   1.808 -0.2943  0.1127  0.0103
 2057TIP3    H1 6135   3.102   3.245   1.757  0.7099 -0.9059  0.1404
 2057TIP3    H2 6136   3.235   3.316   1.756 -0.9003  2.3074 -0.6292
 2058TIP3   OH2 6137   1.725   2.141   2.678 -0.0693 -0.5419 -0.7998
 2058TIP3    H1 6138   1.687   2.056   2.656 -0.6467 -0.5973  0.3463
 2058TIP3    H2 6139   1.652   2.202   2.673  0.0798 -0.3293 -0.3837
 2059TIP3   OH2 6140   3.005   0.060   0.811 -0.3199 -0.0570  0.2788
 2059TIP3    H1 6141   2.938  -0.001   0.840 -0.7551  0.3873  0.2143
 2059TIP3    H2 6142   3.044   0.094   0.891 -1.0907  0.6933  0.3444
 2060TIP3   OH2 6143   0.712   5.382   3.135 -0.6235 -0.4472  0.2453
 2060TIP3    H1 6144   0.791   5.418   3.097 -0.2650  0.4728  1.7663
 2060TIP3    H2 6145   0.711   5.290   3.107  0.7197 -0.3444 -0.1844
 2061TIP3   OH2 6146   6.911   2.181   5.473  0.5770  0.4401 -0.0114
 2061TIP3    H1 6147   6.859   2.193   5.553 -1.9866 -1.7598 -1.1833
 2061TIP3    H2 6148   6.970   2.109   5.495  1.0769  0.9633  0.3958
 2062TIP3   OH2 6149   2.709   5.814   0.749  0.2675  0.1800 -0.3776
 2062TIP3    H1 6150   2.780   5.832   0.687  0.4474  0.6340 -0.0401
 2062TIP3    H2 6151   2.720   5.878   0.818  0.2629 -0.5292  0.2976
 2063TIP3   OH2 6152   5.942   1.287   2.704 -0.0939 -0.0689  0.3242
 2063TIP3    H1 6153   6.016   1.348   2.707 -0.9468  1.0449 -0.4563
 2063TIP3    H2 6154   5.976   1.210   2.659  0.0191  1.3499 -2.2144
 2064TIP3   OH2 6155   6.916   2.283   3.182  0.0775  0.2289 -0.2310
 2064TIP3    H1 6156   6.905   2.191   3.208  0.0856 -0.2578 -1.8583
 2064TIP3    H2 6157   6.910   2.282   3.087 -1.4906  2.1361 -0.2243
 2065TIP3   OH2 6158   6.144   0.231   1.511  0.4254 -0.3503  0.0743
 2065TIP3    H1 6159   6.121   0.201   1.599 -1.6762  1.7094  0.3087
 2065TIP3    H2 6160   6.150   0.151   1.459 -0.2735 -1.4815  1.6619
 2066TIP3   OH2 6161   2.305   6.006   2.967  0.4460 -0.4500  0.1282
 2066TIP3    H1 6162   2.338   6.090   3.000  0.7739 -1.1515  1.6581
 2066TIP3    H2 6163   2.368   5.980   2.900  1.3922 -0.3475  0.9498
 2067TIP3   OH2 6164   1.161   2.149   5.413  0.2088  0.0280 -0.0643
 2067TIP3    H1 6165   1.247   2.189   5.401 -0.2510  1.1843  0.3849
 2067TIP3    H2 6166   1.141   2.108   5.328 -0.0662  2.2959 -1.1717
 2068TIP3   OH2 6167   6.766   5.445   2.946  0.3343 -0.2224  0.4307
 2068TIP3    H1 6168   6.755   5.522   3.002  0.2707 -1.5626  2.3821
 2068TIP3    H2 6169   6.845   5.403   2.978  1.8963  0.3578 -2.3606
 2069TIP3   OH2 6170   5.817   2.804   2.493 -0.4969 -0.5155  0.4438
 2069TIP3    H1 6171   5.885   2.835   2.554  1.1186 -4.0401  0.6844
 2069TIP3    H2 6172   5.739   2.796   2.547 -0.7979  2.0439  0.5431
 2070TIP3   OH2 6173   3.218   3.965   2.845  0.2591 -0.2831 -0.4374
 2070TIP3    H1 6174   3.123   3.951   2.842  0.2288 -0.5957  1.0850
 2070TIP3    H2 6175   3.238   4.014   2.765 -1.3125  0.5295 -0.3724
 2071TIP3   OH2 6176   2.154   4.214   1.531 -0.1909 -0.1355  0.0050
 2071TIP3    H1 6177   2.112   4.186   1.612 -1.4830  1.3685 -0.0972
 2071TIP3    H2 6178   2.101   4.175   1.462 -0.6450  0.6673 -0.1139
 2072TIP3   OH2 6179   5.545   1.238   2.387 -0.8613  0.0278 -0.1115
 2072TIP3    H1 6180   5.478   1.183   2.428 -1.5514  0.1198 -1.0833
 2072TIP3    H2 6181   5.608   1.255   2.457 -1.7319 -0.2493  0.7616
 2073TIP3   OH2 6182   1.667   1.988   5.358  0.2629  0.3220  0.2222
 2073TIP3    H1 6183   1.658   2.044   5.281  0.3338  0.9067  0.6404
 2073TIP3    H2 6184   1.753   1.947   5.348  0.7206  1.1946  0.5144
 2074TIP3   OH2 6185   4.760   2.775   2.074 -1.1162  0.4317 -0.4222
 2074TIP3    H1 6186   4.847   2.814   2.068 -0.3854 -1.0781 -0.2758
 2074TIP3    H2 6187   4.704   2.831   2.020  0.0436  1.1432 -0.9286
 2075TIP3   OH2 6188   2.308   1.004   0.272  0.5690 -0.7288  0.6705
 2075TIP3    H1 6189   2.390   0.967   0.241  0.2901 -1.1857  0.4648
 2075TIP3    H2 6190   2.329   1.095   0.293  0.5031  0.0062 -2.0627
 2076TIP3   OH2 6191   0.703   0.929   2.807 -0.3409  0.0649 -0.4313
 2076TIP3    H1 6192   0.771   0.941   2.740 -0.9346  1.5177 -0.8208
 2076TIP3    H2 6193   0.629   0.890   2.760 -0.8202  1.2447 -0.6949
 2077TIP3   OH2 6194   3.775   0.095   2.352 -0.1634  0.3342  0.4087
 2077TIP3    H1 6195   3.762   0.003   2.332  1.8672 -0.0884  0.8540
 2077TIP3    H2 6196   3.711   0.114   2.420 -0.8082 -0.6607  0.0940
 2078TIP3   OH2 6197   4.941   5.555   2.813  0.3092 -0.4708 -0.1139
 2078TIP3    H1 6198   4.938   5.544   2.908  0.2640 -1.6976 -0.2314
 2078TIP3    H2 6199   5.035   5.552   2.791  0.2660 -1.3438 -0.2093
 2079TIP3   OH2 6200   6.411   5.486   1.740  0.8887  0.1767 -0.3056
 2079TIP3    H1 6201   6.410   5.485   1.836  2.4796  1.1545 -0.2431
 2079TIP3    H2 6202   6.385   5.575   1.717  0.2572 -0.1287 -0.8182
 2080TIP3   OH2 6203   5.281   4.472   2.263 -0.4472  0.3276 -0.0130
 2080TIP3    H1 6204   5.254   4.380   2.262 -0.3502  0.2964 -0.9173
 2080TIP3    H2 6205   5.199   4.522   2.263 -0.5459  0.2830  2.3719
 2081TIP3   OH2 6206   2.105   2.478   0.217  0.1986 -0.1681 -0.6097
 2081TIP3    H1 6207   2.148   2.494   0.134 -0.6333 -0.3211 -1.0817
 2081TIP3    H2 6208   2.123   2.386   0.237 -1.3881 -0.7514 -1.7090
 2082TIP3   OH2 6209   5.879   4.267   2.739 -0.1617 -0.4799  0.3886
 2082TIP3    H1 6210   5.807   4.240   2.681 -2.1487  0.3112  2.3747
 2082TIP3    H2 6211   5.869   4.362   2.747  0.6277 -0.4683  1.3334
 2083TIP3   OH2 6212   0.667   1.256   3.926 -0.0135 -0.0836 -0.0715
 2083TIP3    H1 6213   0.701   1.250   3.836 -1.4455  0.6143 -0.7042
 2083TIP3    H2 6214   0.607   1.182   3.933  2.0914 -1.7680  1.2978
 2084TIP3   OH2 6215   2.509   5.279   4.164  0.3033 -0.0090  0.7114
 2084TIP3    H1 6216   2.571   5.255   4.095  0.4968 -0.0469  0.8992
 2084TIP3    H2 6217   2.451   5.203   4.171 -1.3776  0.9963 -1.2486
 2085TIP3   OH2 6218   6.253   0.479   1.462 -0.4038  0.6306 -0.3324
 2085TIP3    H1 6219   6.197   0.404   1.480 -1.5221  1.2300 -1.1613
 2085TIP3    H2 6220   6.276   0.513   1.548  0.6489 -1.0035  0.0785
 2086TIP3   OH2 6221   0.564   1.306   4.659 -0.1261 -0.2038 -0.4908
 2086TIP3    H1 6222   0.631   1.255   4.614  0.1090 -0.9600  0.6563
 2086TIP3    H2 6223   0.612   1.377   4.702  0.1840 -1.4918  1.4135
 2087TIP3   OH2 6224   3.226   4.279   0.294 -0.8284 -0.4464 -0.5874
 2087TIP3    H1 6225   3.193   4.349   0.237 -0.1066  1.4680  1.2236
 2087TIP3    H2 6226   3.149   4.250   0.343 -0.7926  0.4279 -0.0009
 2088TIP3   OH2 6227   1.002   4.773   1.703  0.4366  0.2320 -0.0234
 2088TIP3    H1 6228   1.059   4.747   1.775  0.3443 -1.3716 -0.4864
 2088TIP3    H2 6229   1.034   4.722   1.628 -0.4693  0.6673 -0.7228
 2089TIP3   OH2 6230   5.973   3.342   2.431  0.0458  0.5751  0.3888
 2089TIP3    H1 6231   6.032   3.409   2.467 -0.6350  1.5221 -0.2432
 2089TIP3    H2 6232   5.943   3.378   2.348 -0.2513 -0.5708 -0.0149
 2090TIP3   OH2 6233   3.941   6.506   3.431 -0.2354 -0.6721 -0.0260
 2090TIP3    H1 6234   4.014   6.469   3.380  0.2695 -0.9829  0.9106
 2090TIP3    H2 6235   3.864   6.490   3.376  0.4822  0.4064 -1.4255
 2091TIP3   OH2 6236   1.220   6.695   5.846 -0.3407  0.2480  0.3597
 2091TIP3    H1 6237   1.244   6.727   5.759 -2.2922 -0.2355 -0.4184
 2091TIP3    H2 6238   1.233   6.600   5.840 -1.4683  0.0885  0.2195
 2092TIP3   OH2 6239   5.389   4.299   3.153  0.0776  0.3146 -0.0563
 2092TIP3    H1 6240   5.349   4.337   3.075  0.7297  0.2303 -0.4394
 2092TIP3    H2 6241   5.376   4.366   3.221 -0.5337  0.3678 -0.2218
 2093TIP3   OH2 6242   4.597   2.714   3.692  0.2041  0.1129 -0.2249
 2093TIP3    H1 6243   4.597   2.778   3.622 -2.0169 -1.8073 -2.1528
 2093TIP3    H2 6244   4.520   2.660   3.675  1.0340 -2.0457  2.2313
 2094TIP3   OH2 6245   1.739   4.462   4.555  0.6886  0.4276  0.3533
 2094TIP3    H1 6246   1.665   4.481   4.613  0.8743 -3.0521  2.0184
 2094TIP3    H2 6247   1.700   4.453   4.468 -0.2708  1.7745  0.6133
 2095TIP3   OH2 6248   5.263   4.805   3.896  0.0689  0.1940 -0.5672
 2095TIP3    H1 6249   5.253   4.812   3.991  2.4722 -2.3238 -0.0267
 2095TIP3    H2 6250   5.248   4.712   3.877  4.0911 -0.3791 -1.8840
 2096TIP3   OH2 6251   1.734   5.706   4.165 -0.2803  0.5372 -0.6442
 2096TIP3    H1 6252   1.727   5.612   4.144 -1.0241  0.7719 -1.5320
 2096TIP3    H2 6253   1.753   5.748   4.082  3.2393  0.9200  0.2259
 2097TIP3   OH2 6254   5.374   2.088   0.955  0.0665  0.5850  0.1646
 2097TIP3    H1 6255   5.308   2.139   0.906 -1.7555 -0.2966  1.5878
 2097TIP3    H2 6256   5.367   2.121   1.045  0.7274 -0.3796  0.5748
 2098TIP3   OH2 6257   2.029   2.658   3.817 -0.4390  0.3991  0.2351
 2098TIP3    H1 6258   2.075   2.660   3.901  1.4941 -0.0826 -0.7394
 2098TIP3    H2 6259   2.030   2.749   3.787  3.1552  0.0311 -1.3324
 2099TIP3   OH2 6260   4.696   2.235   2.096 -0.5571 -0.3469 -0.4175
 2099TIP3    H1 6261   4.753   2.311   2.103 -0.4196 -0.3268 -1.4690
 2099TIP3    H2 6262   4.730   2.187   2.021 -1.3007 -0.8733 -0.4338
 2100TIP3   OH2 6263   7.004   2.587   3.863  0.2140 -0.1873  0.8516
 2100TIP3    H1 6264   6.926   2.551   3.905 -0.5493  0.0697 -0.2965
 2100TIP3    H2 6265   6.995   2.563   3.770  1.8694 -0.7761  0.8047
 2101TIP3   OH2 6266   4.747   6.301   2.026 -0.0547 -0.6011 -0.0018
 2101TIP3    H1 6267   4.733   6.246   2.103 -0.9965  1.2195  1.2012
 2101TIP3    H2 6268   4.835   6.337   2.038 -0.2882 -0.1407  0.3556
 2102TIP3   OH2 6269   6.280   0.720   5.715 -0.2292  0.4915  0.6021
 2102TIP3    H1 6270   6.374   0.730   5.700 -0.3498 -1.0068 -1.6601
 2102TIP3    H2 6271   6.239   0.749   5.634 -1.6017 -0.3823  0.9410
 2103TIP3   OH2 6272   5.154   1.548   4.853  0.1915 -0.1850  0.1788
 2103TIP3    H1 6273   5.234   1.549   4.905  1.3293 -2.2852 -1.3581
 2103TIP3    H2 6274   5.169   1.613   4.785  0.4167 -0.2602  0.1566
 2104TIP3   OH2 6275   0.481   2.243   0.868 -0.0094  0.3945  0.3276
 2104TIP3    H1 6276   0.559   2.284   0.904  0.0340  0.1812  0.4811
 2104TIP3    H2 6277   0.511   2.199   0.789  0.8424 -2.7935  2.2505
 2105TIP3   OH2 6278   6.785   3.104   5.096 -0.2174  0.0897  0.1171
 2105TIP3    H1 6279   6.731   3.166   5.046 -1.5198 -0.1099  1.2202
 2105TIP3    H2 6280   6.833   3.159   5.158 -0.4919  0.1124  0.3124
 2106TIP3   OH2 6281   0.638   6.686   3.650 -0.6181 -0.1556  0.0377
 2106TIP3    H1 6282   0.672   6.775   3.651  0.4684 -0.4964 -1.4954
 2106TIP3    H2 6283   0.714   6.632   3.626 -1.5639 -1.3294 -0.4393
 2107TIP3   OH2 6284   7.100   1.465   3.625 -0.1534  0.1468 -0.2979
 2107TIP3    H1 6285   7.037   1.396   3.648  1.7551 -1.2214  1.1924
 2107TIP3    H2 6286   7.162   1.422   3.566 -0.7294  1.5594 -2.0176
 2108TIP3   OH2 6287   1.289   3.488   5.443  0.2915 -0.1049 -0.1289
 2108TIP3    H1 6288   1.289   3.584   5.453 -0.9345  0.1053 -1.6813
 2108TIP3    H2 6289   1.257   3.455   5.527 -0.4941  0.9285  0.0044
 2109TIP3   OH2 6290   2.700   3.049   2.199  0.5236  0.3601  0.5592
 2109TIP3    H1 6291   2.777   3.013   2.154  0.1382  1.6499 -1.2575
 2109TIP3    H2 6292   2.650   2.971   2.226 -0.3619 -0.7122 -3.3657
 2110TIP3   OH2 6293   2.698   0.063   3.032  0.1072 -0.2390  0.5575
 2110TIP3    H1 6294   2.628   0.112   2.988  1.0377 -0.0535 -0.7877
 2110TIP3    H2 6295   2.700   0.099   3.120  1.1691  2.7072 -0.5310
 2111TIP3   OH2 6296   2.801   2.687   4.886 -0.0123  0.2565 -0.4389
 2111TIP3    H1 6297   2.823   2.780   4.895 -0.2289  0.2259  0.5831
 2111TIP3    H2 6298   2.842   2.645   4.962  0.5288 -0.5785 -1.1688
 2112TIP3   OH2 6299   5.533   1.952   3.638 -0.6929  0.3904  0.4573
 2112TIP3    H1 6300   5.606   1.893   3.619  0.7917  1.9219  1.1189
 2112TIP3    H2 6301   5.541   2.022   3.573 -0.6015  1.3530  1.4503
 2113TIP3   OH2 6302  -0.030   3.240   4.261 -0.7112 -0.1108  0.3817
 2113TIP3    H1 6303  -0.002   3.171   4.321 -0.0574  1.4487  1.9740
 2113TIP3    H2 6304   0.052   3.276   4.227 -1.0610 -0.4455 -0.8711
 2114TIP3   OH2 6305   5.281   5.392   1.132 -0.3085 -0.2649  0.0849
 2114TIP3    H1 6306   5.351   5.407   1.069  0.5095 -0.1921  0.9892
 2114TIP3    H2 6307   5.218   5.462   1.114  0.8834  1.0025  0.6690
 2115TIP3   OH2 6308   0.583   0.061   1.188  0.0206  0.7023  0.1180
 2115TIP3    H1 6309   0.540   0.025   1.110  0.0547  2.6236 -0.8452
 2115TIP3    H2 6310   0.621   0.144   1.158  1.1941  0.8409  1.8710
 2116TIP3   OH2 6311   2.753   3.757   0.206  0.6461 -0.0330  0.0679
 2116TIP3    H1 6312   2.687   3.753   0.136 -0.5787  0.4906  1.1555
 2116TIP3    H2 6313   2.827   3.705   0.172  0.6280  1.2550 -2.1522
 2117TIP3   OH2 6314   2.162   4.605   3.278  0.4416  0.8705  0.3782
 2117TIP3    H1 6315   2.092   4.631   3.338 -1.0655 -0.9270 -0.4914
 2117TIP3    H2 6316   2.242   4.619   3.328 -0.6376  1.1284  2.1528
 2118TIP3   OH2 6317   3.246   4.840   4.837  0.2881 -0.2802  0.3417
 2118TIP3    H1 6318   3.325   4.875   4.878  0.5840  0.1975 -0.6066
 2118TIP3    H2 6319   3.178   4.851   4.903  1.0898 -1.1446  1.3636
 2119TIP3   OH2 6320   4.545   3.510   5.051 -0.6389  0.5346 -0.2188
 2119TIP3    H1 6321   4.506   3.423   5.044  0.2357 -0.1196  2.1316
 2119TIP3    H2 6322   4.597   3.519   4.970  0.3538 -1.7268  0.1013
 2120TIP3   OH2 6323   4.448   3.217   0.628 -0.1673  0.4661 -0.3292
 2120TIP3    H1 6324   4.392   3.175   0.694 -0.5115 -0.3621 -1.1261
 2120TIP3    H2 6325   4.440   3.310   0.646 -1.4724  0.3365 -0.1623
 2121TIP3   OH2 6326   4.272   5.256   1.716 -0.7079  0.3245 -0.2011
 2121TIP3    H1 6327   4.330   5.180   1.710  0.3952  1.2529 -2.4547
 2121TIP3    H2 6328   4.198   5.235   1.659  1.1513  2.0720 -3.5781
 2122TIP3   OH2 6329   6.546   2.266   3.054  0.8334  0.0796 -0.7789
 2122TIP3    H1 6330   6.468   2.316   3.030  0.7591  0.2210 -0.2502
 2122TIP3    H2 6331   6.581   2.234   2.971 -0.8909 -1.6686 -0.8875
 2123TIP3   OH2 6332   2.518   0.851   5.287 -0.6045  0.1540  0.0267
 2123TIP3    H1 6333   2.533   0.934   5.242  1.7554 -0.1562  0.1243
 2123TIP3    H2 6334   2.423   0.846   5.297 -0.8120  2.8382  0.0509
 2124TIP3   OH2 6335   5.583   5.260   1.220 -0.4476  0.6055 -0.2124
 2124TIP3    H1 6336   5.609   5.345   1.183 -2.5896  1.6913  0.5884
 2124TIP3    H2 6337   5.594   5.270   1.314  2.0578 -1.0919 -0.2292
 2125TIP3   OH2 6338   6.574   6.541   5.455  0.0226  0.0270 -0.0363
 2125TIP3    H1 6339   6.588   6.596   5.532  0.2209 -0.5250  0.3224
 2125TIP3    H2 6340   6.545   6.603   5.387 -2.5268  0.2435  1.1222
 2126TIP3   OH2 6341   0.972   0.440   1.868  0.1074 -0.2010  0.6321
 2126TIP3    H1 6342   0.883   0.472   1.884 -0.6654 -1.2962 -1.2100
 2126TIP3    H2 6343   1.027   0.518   1.876 -1.1041  0.6498  1.0234
 2127TIP3   OH2 6344   4.003   4.415   1.239 -0.0038  0.7690  0.2310
 2127TIP3    H1 6345   4.073   4.357   1.208 -0.9149  0.9609 -2.4123
 2127TIP3    H2 6346   3.928   4.358   1.253 -0.4521  1.0803 -0.8477
 2128TIP3   OH2 6347   3.229   3.096   0.432  0.9702 -0.1047 -0.4440
 2128TIP3    H1 6348   3.264   3.149   0.504  1.0746 -0.7829  0.0120
 2128TIP3    H2 6349   3.139   3.126   0.422  1.5869  1.5698 -1.5411
 2129TIP3   OH2 6350   6.389   1.382   5.494 -0.1213 -0.3756 -0.6036
 2129TIP3    H1 6351   6.397   1.475   5.471  0.8959 -0.4956 -0.7744
 2129TIP3    H2 6352   6.420   1.377   5.584  2.8305 -0.9799 -1.5448
 2130TIP3   OH2 6353   3.648   1.624   3.120  0.3698 -0.2161 -0.0524
 2130TIP3    H1 6354   3.723   1.570   3.095  1.2104 -0.5149  2.7589
 2130TIP3    H2 6355   3.653   1.701   3.064  2.8447 -0.1928  0.1111
 2131TIP3   OH2 6356   0.574   5.326   0.595 -0.0512 -0.2973  0.0501
 2131TIP3    H1 6357   0.630   5.372   0.658 -0.5524  0.4371 -0.0242
 2131TIP3    H2 6358   0.500   5.385   0.582  0.4028 -0.0897 -1.7916
 2132TIP3   OH2 6359   3.580   3.981   1.896  0.3493  0.0063  0.1923
 2132TIP3    H1 6360   3.543   4.067   1.875  0.1380 -0.2949 -0.7108
 2132TIP3    H2 6361   3.505   3.922   1.894  0.6058 -0.3187  0.0886
 2133TIP3   OH2 6362   6.268   2.021   4.084 -0.3291  0.4224 -0.2463
 2133TIP3    H1 6363   6.235   2.011   3.995 -1.2707 -0.2803  0.1681
 2133TIP3    H2 6364   6.189   2.023   4.139  0.2658  0.1914  0.6337
 2134TIP3   OH2 6365   4.831   5.663   2.256 -0.4377  0.0742 -0.0500
 2134TIP3    H1 6366   4.755   5.702   2.211  0.7918  1.6089 -0.9029
 2134TIP3    H2 6367   4.871   5.737   2.302  1.3029 -0.4016 -0.7324
 2135TIP3   OH2 6368   2.311   3.681   4.936  0.1624  0.5006 -0.3018
 2135TIP3    H1 6369   2.217   3.663   4.935  0.3729 -0.6604 -0.3696
 2135TIP3    H2 6370   2.342   3.652   4.850  0.4778  1.5457 -0.5575
 2136TIP3   OH2 6371   2.653   6.782   1.278  0.4497 -0.5395 -0.2697
 2136TIP3    H1 6372   2.645   6.704   1.332 -1.3114 -1.5816 -1.9208
 2136TIP3    H2 6373   2.572   6.831   1.294  0.0627 -0.6908 -1.6189
 2137TIP3   OH2 6374   0.111   3.483   2.539  0.2300  0.0354  0.1383
 2137TIP3    H1 6375   0.135   3.462   2.630  0.9224  0.9027  0.1726
 2137TIP3    H2 6376   0.031   3.536   2.547  0.9537  1.1400  0.3444
 2138TIP3   OH2 6377   3.119   2.848   3.490 -0.2127 -0.4117 -0.3535
 2138TIP3    H1 6378   3.190   2.840   3.554  0.0714 -0.8697 -0.7159
 2138TIP3    H2 6379   3.124   2.767   3.438 -0.8884 -0.3709 -0.4985
 2139TIP3   OH2 6380   4.695   2.911   3.197 -0.5207 -0.5436 -0.6105
 2139TIP3    H1 6381   4.619   2.874   3.151  0.6544  0.8913 -3.9992
 2139TIP3    H2 6382   4.770   2.887   3.143  0.9928  1.4215  0.4807
 2140TIP3   OH2 6383   4.437   2.150   4.943 -0.4955  0.5336  0.4129
 2140TIP3    H1 6384   4.486   2.082   4.989  0.3139  0.3847 -0.6424
 2140TIP3    H2 6385   4.414   2.111   4.859  1.6964  2.1664 -1.0627
 2141TIP3   OH2 6386   4.755   6.685   5.121 -0.3171 -0.3581  0.4439
 2141TIP3    H1 6387   4.823   6.620   5.138 -1.1321 -1.1523  0.7509
 2141TIP3    H2 6388   4.705   6.650   5.047  0.0359  0.5785 -0.2684
 2142TIP3   OH2 6389   4.450   5.135   2.443  0.3969 -0.4230 -0.1407
 2142TIP3    H1 6390   4.354   5.132   2.452  0.2639 -1.4822 -1.6604
 2142TIP3    H2 6391   4.482   5.109   2.530 -0.6902 -0.6793  0.2036
 2143TIP3   OH2 6392   3.290   0.836   0.198 -0.2170 -0.4464  0.0687
 2143TIP3    H1 6393   3.383   0.856   0.182 -0.6186  3.0013  1.3401
 2143TIP3    H2 6394   3.289   0.794   0.284  0.2939 -3.0334 -1.0745
 2144TIP3   OH2 6395   6.387   5.694   2.222  0.2633  0.8810 -0.5020
 2144TIP3    H1 6396   6.305   5.645   2.219 -0.1482  1.5619 -0.5765
 2144TIP3    H2 6397   6.450   5.633   2.260 -0.7275  0.9759  1.4203
 2145TIP3   OH2 6398   2.354   6.291   3.641 -0.2097  0.3143 -0.0557
 2145TIP3    H1 6399   2.271   6.329   3.668  0.0768  1.0653 -0.2252
 2145TIP3    H2 6400   2.377   6.231   3.712  0.0117  1.4751  0.8880
 2146TIP3   OH2 6401   7.161   5.406   1.485 -0.1896  0.3318 -0.4058
 2146TIP3    H1 6402   7.250   5.373   1.469  0.4419  1.7479  0.0417
 2146TIP3    H2 6403   7.116   5.333   1.529  0.7051 -0.4524 -0.7610
 2147TIP3   OH2 6404   1.535   0.960   2.907 -0.7809 -0.0724 -0.1647
 2147TIP3    H1 6405   1.452   0.949   2.952 -0.2204 -0.3374  0.8405
 2147TIP3    H2 6406   1.536   0.892   2.840 -1.7061  0.4448 -0.7180
 2148TIP3   OH2 6407   6.611   4.934   3.814  0.0361 -0.8033  0.5379
 2148TIP3    H1 6408   6.542   4.966   3.756  1.8024 -0.0025 -1.2787
 2148TIP3    H2 6409   6.644   5.013   3.858  0.4741 -1.0144  0.5957
 2149TIP3   OH2 6410   6.067   4.316   3.424  0.3956 -0.4638  0.3517
 2149TIP3    H1 6411   6.043   4.292   3.513 -1.0416 -1.0283 -0.1693
 2149TIP3    H2 6412   5.986   4.310   3.374  1.2484 -0.5334 -1.0832
 2150TIP3   OH2 6413   4.693   5.109   3.619 -0.1449  0.3038 -0.2104
 2150TIP3    H1 6414   4.787   5.123   3.609 -0.2682  0.3699 -1.3929
 2150TIP3    H2 6415   4.663   5.087   3.531 -1.4396  1.4797 -0.0915
 2151TIP3   OH2 6416   0.556   2.180   4.888 -0.2967 -0.6568  0.0218
 2151TIP3    H1 6417   0.463   2.177   4.865 -0.1243 -1.4519 -0.5681
 2151TIP3    H2 6418   0.560   2.247   4.957 -0.9231  1.2485 -1.6791
 2152TIP3   OH2 6419   5.959   5.470   2.958  0.0691 -0.2596 -0.5182
 2152TIP3    H1 6420   5.965   5.429   3.044  0.8887  0.5885 -0.1456
 2152TIP3    H2 6421   5.933   5.560   2.976 -1.0617 -0.4191 -1.2680
 2153TIP3   OH2 6422   2.791   3.819   3.095 -0.3217 -0.7169 -0.2198
 2153TIP3    H1 6423   2.778   3.827   3.189 -2.0155 -2.8013 -0.2072
 2153TIP3    H2 6424   2.885   3.836   3.083 -0.3317  1.0734  1.5905
 2154TIP3   OH2 6425   6.668   1.685   0.825  0.0506 -0.2307 -0.4521
 2154TIP3    H1 6426   6.760   1.659   0.830 -0.1395 -0.7454  0.5138
 2154TIP3    H2 6427   6.670   1.781   0.827  0.4151 -0.1103  4.2688
 2155TIP3   OH2 6428   4.343   1.702   2.788  0.2721  0.2903 -0.3594
 2155TIP3    H1 6429   4.402   1.662   2.851  0.2811  0.3585 -0.3245
 2155TIP3    H2 6430   4.392   1.704   2.706  0.7238  1.3403 -0.0814
 2156TIP3   OH2 6431   3.683   4.722   4.270 -0.2188 -0.1858  0.6006
 2156TIP3    H1 6432   3.656   4.661   4.201  0.0653 -0.4316  0.7082
 2156TIP3    H2 6433   3.619   4.708   4.340 -1.8071  1.5399 -0.4000
 2157TIP3   OH2 6434   3.056   6.206   1.483  0.2413 -0.5261  0.5509
 2157TIP3    H1 6435   3.030   6.190   1.392 -0.2437 -1.0183  0.7644
 2157TIP3    H2 6436   3.093   6.122   1.512  1.4166 -0.0457  0.4788
 2158TIP3   OH2 6437   2.871   1.760   3.852 -0.4651  0.2433  0.3189
 2158TIP3    H1 6438   2.906   1.826   3.911 -1.1525  0.8163  0.1044
 2158TIP3    H2 6439   2.867   1.680   3.905  0.1846  0.4224  0.6377
 2159TIP3   OH2 6440   5.849   1.914   2.178  0.5804 -0.1358 -0.0864
 2159TIP3    H1 6441   5.932   1.884   2.140  0.5046 -0.4865  0.0258
 2159TIP3    H2 6442   5.875   1.970   2.251  0.7310  0.6704 -0.7443
 2160TIP3   OH2 6443   3.822   6.520   3.723  0.4128  0.0940 -0.4388
 2160TIP3    H1 6444   3.769   6.441   3.712  0.5704 -0.5825  2.6010
 2160TIP3    H2 6445   3.899   6.505   3.668 -0.1357 -1.3067 -0.8765
 2161TIP3   OH2 6446   4.919   3.121   1.931 -0.3756 -0.4856  0.5166
 2161TIP3    H1 6447   4.913   3.123   2.027  0.0362  2.0488  0.5608
 2161TIP3    H2 6448   5.013   3.125   1.913 -0.4933  0.6222  0.0543
 2162TIP3   OH2 6449   0.181   4.035   4.810  0.0057 -0.0652 -0.7127
 2162TIP3    H1 6450   0.250   4.062   4.871  0.5554 -1.0445 -0.8930
 2162TIP3    H2 6451   0.197   3.943   4.793 -2.0376 -0.6328  0.1336
 2163TIP3   OH2 6452   0.393   1.913   1.994  0.1335  0.4508  0.3147
 2163TIP3    H1 6453   0.312   1.931   2.041 -0.4583  0.7069 -0.7663
 2163TIP3    H2 6454   0.438   1.849   2.048  0.8449  2.7672  2.7006
 2164TIP3   OH2 6455   2.699   4.751   0.585  0.0533 -0.2122  0.5873
 2164TIP3    H1 6456   2.605   4.746   0.606 -0.3290  0.2654 -0.9232
 2164TIP3    H2 6457   2.739   4.682   0.638 -1.1381 -0.4200  1.2582
 2165TIP3   OH2 6458   0.211   4.088   1.872  0.3897 -0.0040 -0.0148
 2165TIP3    H1 6459   0.294   4.046   1.849  0.1504 -0.1562 -0.6199
 2165TIP3    H2 6460   0.165   4.098   1.788 -1.3848 -2.4266  0.5441
 2166TIP3   OH2 6461   5.497   0.204   1.219 -0.3760 -0.3067  0.1590
 2166TIP3    H1 6462   5.537   0.120   1.243 -3.0640 -1.6163  0.4267
 2166TIP3    H2 6463   5.408   0.181   1.191 -0.9886  2.4110 -0.3962
 2167TIP3   OH2 6464   6.640   6.016   3.820  0.0272 -0.3862  0.2902
 2167TIP3    H1 6465   6.687   5.958   3.761  0.6045  0.6391 -0.3023
 2167TIP3    H2 6466   6.683   6.006   3.904  1.3970  0.5924 -0.2614
 2168TIP3   OH2 6467   0.740   1.222   3.664  0.0676  0.3495 -0.3093
 2168TIP3    H1 6468   0.810   1.271   3.620 -0.6814  1.8571  0.0964
 2168TIP3    H2 6469   0.766   1.131   3.657  1.3178  0.7633 -1.4971
 2169TIP3   OH2 6470   4.652   1.346   5.243 -0.6820 -0.2450 -0.3825
 2169TIP3    H1 6471   4.674   1.439   5.243 -0.3865 -0.2295  2.4155
 2169TIP3    H2 6472   4.712   1.308   5.179 -0.4467  1.4083 -1.1998
 2170TIP3   OH2 6473   2.135   5.135   5.787 -0.1739  0.0416 -0.1721
 2170TIP3    H1 6474   2.195   5.198   5.825 -0.3816  1.0619 -1.4514
 2170TIP3    H2 6475   2.188   5.087   5.723 -0.0736 -0.9485  0.6262
 2171TIP3   OH2 6476   4.770   1.591   2.335 -0.3217 -0.8247  0.0367
 2171TIP3    H1 6477   4.806   1.555   2.253 -0.0186  1.7383 -1.0336
 2171TIP3    H2 6478   4.676   1.571   2.330 -0.3642 -0.4316 -1.1211
 2172TIP3   OH2 6479   1.611   1.190   2.513 -0.0233  0.2847  0.0184
 2172TIP3    H1 6480   1.641   1.246   2.441  0.1652  0.7325  0.4374
 2172TIP3    H2 6481   1.579   1.252   2.579  2.6849  0.1151  1.6540
 2173TIP3   OH2 6482   2.185   4.785   4.589 -0.1441  0.0955  0.3008
 2173TIP3    H1 6483   2.253   4.803   4.655  1.2356  0.3479 -1.1342
 2173TIP3    H2 6484   2.125   4.725   4.633  0.7370  0.2336  1.7855
 2174TIP3   OH2 6485   6.815   6.527   2.532  0.1602  0.0292  0.1576
 2174TIP3    H1 6486   6.730   6.502   2.568  1.3530 -2.2019  1.7319
 2174TIP3    H2 6487   6.866   6.555   2.608  0.8148  1.5349 -0.7796
 2175TIP3   OH2 6488   6.673   4.855   5.280  0.6907 -0.2330  0.0271
 2175TIP3    H1 6489   6.581   4.851   5.306  0.3801  1.4056 -0.6685
 2175TIP3    H2 6490   6.707   4.767   5.297 -0.7971 -0.6584  1.0104
 2176TIP3   OH2 6491   4.496   5.342   5.064 -0.2685 -0.6146 -0.0210
 2176TIP3    H1 6492   4.406   5.360   5.037 -0.0862 -1.0035 -0.9109
 2176TIP3    H2 6493   4.540   5.314   4.984  0.6562 -0.3941  0.4016
 2177TIP3   OH2 6494   3.159   4.171   4.256 -0.2159  0.2173 -0.0624
 2177TIP3    H1 6495   3.121   4.093   4.217 -0.3873  0.5525 -0.5755
 2177TIP3    H2 6496   3.189   4.143   4.343  1.4813 -0.9121 -0.9684
 2178TIP3   OH2 6497   5.045   1.939   1.700  0.1800  0.1021 -0.1658
 2178TIP3    H1 6498   4.962   1.926   1.654  0.9032 -1.0119 -1.2022
 2178TIP3    H2 6499   5.095   1.859   1.684  1.8209  1.1123 -0.3266
 2179TIP3   OH2 6500   2.181   5.560   5.778 -0.4384 -0.6160 -0.3912
 2179TIP3    H1 6501   2.106   5.507   5.749 -1.0712 -0.9115  1.6201
 2179TIP3    H2 6502   2.251   5.497   5.790 -0.0552 -0.4407 -1.5391
 2180TIP3   OH2 6503   0.407   4.613   5.592  0.2382  0.3140 -0.4210
 2180TIP3    H1 6504   0.483   4.653   5.635 -0.1289  1.6961 -1.0081
 2180TIP3    H2 6505   0.344   4.684   5.582 -0.6839 -0.5454 -0.9986
 2181TIP3   OH2 6506   4.647   0.327   1.277  0.5397  0.4541  0.2273
 2181TIP3    H1 6507   4.716   0.263   1.292  0.0901  0.3450  2.0180
 2181TIP3    H2 6508   4.566   0.281   1.299  0.1690  1.4856  1.1092
 2182TIP3   OH2 6509   4.599   3.648   1.395  0.2061  0.1010 -0.7246
 2182TIP3    H1 6510   4.651   3.579   1.437 -0.3819 -0.2238 -0.5146
 2182TIP3    H2 6511   4.538   3.677   1.463  1.3881  1.8494 -0.3492
 2183TIP3   OH2 6512   6.730   4.282   1.720 -0.7654 -0.4483  0.1347
 2183TIP3    H1 6513   6.716   4.345   1.791  1.1721 -1.4988  1.5435
 2183TIP3    H2 6514   6.730   4.335   1.641  1.4582  1.5146  1.3094
 2184TIP3   OH2 6515   6.253   0.767   3.850 -0.4882  0.2239  0.5556
 2184TIP3    H1 6516   6.250   0.860   3.872  1.3152  0.6292 -0.6534
 2184TIP3    H2 6517   6.322   0.731   3.906 -0.4912 -0.1612  0.3186
 2185TIP3   OH2 6518   6.234   5.752   1.960 -0.2984 -0.8745  0.4460
 2185TIP3    H1 6519   6.325   5.770   1.984  0.0604 -0.4199 -1.0950
 2185TIP3    H2 6520   6.196   5.711   2.037  0.6611  0.6917  1.8336
 2186TIP3   OH2 6521   4.763   4.288   2.157  0.8583  0.1091  0.2989
 2186TIP3    H1 6522   4.747   4.377   2.128  1.7707  0.6136  1.3097
 2186TIP3    H2 6523   4.733   4.286   2.248  0.3527 -0.7668  0.1264
 2187TIP3   OH2 6524   3.137   4.694   1.577 -0.1489 -0.3137  0.4652
 2187TIP3    H1 6525   3.102   4.762   1.635  1.1414  0.7544  0.0581
 2187TIP3    H2 6526   3.060   4.650   1.542 -1.0379  1.0984  0.5736
 2188TIP3   OH2 6527   6.546   1.992   0.340 -0.3943  0.1063  0.3296
 2188TIP3    H1 6528   6.475   1.998   0.405 -1.9109  0.1529 -1.2502
 2188TIP3    H2 6529   6.579   2.082   0.333 -2.1418  0.7024 -0.9537
 2189TIP3   OH2 6530   2.202   4.359   0.887 -1.0037  0.2168  0.3719
 2189TIP3    H1 6531   2.295   4.355   0.864 -0.6529  0.2212  1.6938
 2189TIP3    H2 6532   2.160   4.400   0.812 -0.1659 -1.0711 -0.8622
 2190TIP3   OH2 6533   6.853   2.716   1.571 -0.0982  0.1865 -0.4813
 2190TIP3    H1 6534   6.813   2.630   1.582 -0.0470  0.2664  0.4089
 2190TIP3    H2 6535   6.788   2.777   1.604  0.7014  0.3208  0.9325
 2191TIP3   OH2 6536   4.289   1.683   1.443  0.3445  0.1873 -0.1370
 2191TIP3    H1 6537   4.340   1.725   1.512 -0.2943 -0.4199  0.7378
 2191TIP3    H2 6538   4.352   1.664   1.374  1.1335  0.2010  0.5660
 2192TIP3   OH2 6539   1.114   0.272   4.114  0.6223 -0.0606 -0.0039
 2192TIP3    H1 6540   1.032   0.278   4.065 -0.4675 -1.8501  1.4585
 2192TIP3    H2 6541   1.128   0.361   4.147 -0.6392  0.3160 -0.4157
 2193TIP3   OH2 6542   2.314   1.146   3.111  0.4869  0.9215  0.5074
 2193TIP3    H1 6543   2.249   1.076   3.112  0.1558  1.1980 -0.5841
 2193TIP3    H2 6544   2.275   1.215   3.166  0.4778  0.5503  0.9709
 2194TIP3   OH2 6545   3.668   1.101   1.284 -0.5076 -0.1808 -0.1462
 2194TIP3    H1 6546   3.699   1.189   1.305 -0.7427 -0.3294  0.8793
 2194TIP3    H2 6547   3.717   1.043   1.343 -0.6718 -0.6920 -0.5030
 2195TIP3   OH2 6548   2.213   6.635   5.079 -0.3116  0.0003 -0.3678
 2195TIP3    H1 6549   2.205   6.542   5.099  1.2936 -0.2031 -0.5387
 2195TIP3    H2 6550   2.296   6.661   5.118 -0.4261  1.2190 -0.8815
 2196TIP3   OH2 6551   2.871   2.802   3.129 -0.3054 -0.4985 -0.8942
 2196TIP3    H1 6552   2.887   2.831   3.219  0.7370 -0.5068 -1.0652
 2196TIP3    H2 6553   2.958   2.780   3.095 -0.8015 -1.5745 -1.5381
 2197TIP3   OH2 6554   3.010   0.613   4.443  0.0127  0.7076 -0.2102
 2197TIP3    H1 6555   3.103   0.629   4.431  0.0912  1.1227  0.8879
 2197TIP3    H2 6556   2.988   0.547   4.377  1.2858 -0.1133  0.1707
 2198TIP3   OH2 6557   2.594   2.861   2.371  0.2950 -0.2640  0.6849
 2198TIP3    H1 6558   2.647   2.898   2.442 -0.6896 -1.0739  1.8787
 2198TIP3    H2 6559   2.580   2.770   2.396 -0.1709 -0.5436 -0.5152
 2199TIP3   OH2 6560   2.980   4.153   4.861 -0.1507 -0.0514  0.1678
 2199TIP3    H1 6561   2.895   4.180   4.895 -0.3684 -1.1896  0.5937
 2199TIP3    H2 6562   2.984   4.191   4.774 -1.1289 -0.0262  0.1193
 2200TIP3   OH2 6563   4.906   1.441   2.131 -0.3486 -0.2152 -0.2895
 2200TIP3    H1 6564   4.983   1.384   2.132 -0.6532 -0.6780 -1.7950
 2200TIP3    H2 6565   4.832   1.381   2.118 -0.9254  0.2820  0.6140
 2201TIP3   OH2 6566   3.819   5.060   3.899  0.1229  0.1362 -0.1952
 2201TIP3    H1 6567   3.836   5.151   3.920 -0.1836  0.4015 -1.0224
 2201TIP3    H2 6568   3.897   5.013   3.927  0.8292  0.8414 -0.9395
 2202TIP3   OH2 6569   5.086   5.278   0.933 -0.3964  0.1649  0.3697
 2202TIP3    H1 6570   5.099   5.273   1.027  1.7500 -2.4627  0.0801
 2202TIP3    H2 6571   5.159   5.330   0.901 -1.1006  1.0219  0.1160
 2203TIP3   OH2 6572   0.750   0.275   1.743 -0.0219  0.3779  0.5602
 2203TIP3    H1 6573   0.846   0.283   1.745 -0.1553  2.6581  2.0580
 2203TIP3    H2 6574   0.727   0.238   1.828 -0.4601 -1.1052 -0.1729
 2204TIP3   OH2 6575   5.599   3.765   2.147  0.6681  0.1887  0.1872
 2204TIP3    H1 6576   5.577   3.674   2.166 -1.6748  0.5203 -0.5778
 2204TIP3    H2 6577   5.657   3.761   2.072 -1.3636 -0.6654 -1.4364
 2205TIP3   OH2 6578   3.468   4.200   0.690 -0.0430 -0.0040  0.3183
 2205TIP3    H1 6579   3.439   4.109   0.702 -0.6876  0.2432  0.6860
 2205TIP3    H2 6580   3.539   4.211   0.754  0.7044 -0.5328 -0.3997
 2206TIP3   OH2 6581   1.385   1.823   3.814 -0.1357 -0.2128  0.3799
 2206TIP3    H1 6582   1.408   1.834   3.906 -1.5350 -0.6173  0.7993
 2206TIP3    H2 6583   1.368   1.729   3.804  1.5502 -0.4435 -0.6879
 2207TIP3   OH2 6584   5.016   5.188   0.679  0.7200 -0.5438  0.3684
 2207TIP3    H1 6585   5.107   5.158   0.679  0.7919 -0.4360  2.2521
 2207TIP3    H2 6586   4.995   5.202   0.771 -0.9647  0.2142 -0.0857
 2208TIP3   OH2 6587   0.189   5.523   0.908  0.2752  0.4401  0.4907
 2208TIP3    H1 6588   0.176   5.519   1.003  2.3555 -1.2663  0.7576
 2208TIP3    H2 6589   0.109   5.486   0.872  0.2002 -0.5978  1.6554
 2209TIP3   OH2 6590   1.187   3.489   0.270  0.2052 -0.2836 -0.3350
 2209TIP3    H1 6591   1.171   3.394   0.264  0.1552 -0.3775  0.9722
 2209TIP3    H2 6592   1.105   3.525   0.302  0.4592  0.1113 -0.1194
 2210TIP3   OH2 6593   2.095   4.292   2.036  0.5626  0.0001  0.0749
 2210TIP3    H1 6594   2.164   4.324   1.978  1.0646  0.4064  0.8763
 2210TIP3    H2 6595   2.033   4.365   2.041  0.0535 -0.3703 -0.6570
 2211TIP3   OH2 6596   6.554   6.741   3.221 -0.4921 -0.3954 -0.2651
 2211TIP3    H1 6597   6.620   6.789   3.272  1.0667 -1.5385 -1.1064
 2211TIP3    H2 6598   6.500   6.810   3.182 -0.2073  0.5687  0.9672
 2212TIP3   OH2 6599   5.935   1.831   2.928 -0.3390 -0.3297  0.5557
 2212TIP3    H1 6600   5.886   1.903   2.887 -0.7372 -0.0199  1.5193
 2212TIP3    H2 6601   5.896   1.752   2.893 -0.6414 -0.0746  0.3068
 2213TIP3   OH2 6602   5.134   6.303   3.920  0.4125  0.0519 -0.0840
 2213TIP3    H1 6603   5.043   6.295   3.946 -0.0015  0.5195 -1.3152
 2213TIP3    H2 6604   5.182   6.308   4.002 -0.5685 -1.1414  0.5884
 2214TIP3   OH2 6605   5.201   3.599   5.001 -0.1708 -0.3199  0.5510
 2214TIP3    H1 6606   5.225   3.691   5.003  0.8558 -0.5855  0.8160
 2214TIP3    H2 6607   5.108   3.598   5.024 -0.2496  0.6585  0.3064
 2215TIP3   OH2 6608   5.562   1.576   0.111 -0.3692 -0.2617 -0.4999
 2215TIP3    H1 6609   5.633   1.520   0.143 -0.1252  1.0769  1.4836
 2215TIP3    H2 6610   5.606   1.638   0.053  0.2520  0.9227  1.1650
 2216TIP3   OH2 6611   2.714   4.290   3.565  0.1565 -0.7303 -0.4433
 2216TIP3    H1 6612   2.791   4.235   3.553  0.1201 -0.9684  0.3249
 2216TIP3    H2 6613   2.743   4.358   3.626  0.0819 -0.1469 -1.0553
 2217TIP3   OH2 6614   1.068   3.017   5.439 -0.0153  0.2360  0.2569
 2217TIP3    H1 6615   1.015   3.083   5.484 -0.6345 -1.1304  1.6238
 2217TIP3    H2 6616   1.146   3.008   5.494 -0.6339 -1.2299  0.9393
 2218TIP3   OH2 6617   4.698   2.191   5.747  0.3432 -0.1521 -0.2687
 2218TIP3    H1 6618   4.615   2.146   5.735 -0.0809  0.3597  0.6538
 2218TIP3    H2 6619   4.760   2.122   5.769 -0.1077 -0.4015  0.2460
 2219TIP3   OH2 6620   5.877   6.703   1.365 -0.4514 -0.2515 -0.5088
 2219TIP3    H1 6621   5.879   6.750   1.448 -1.7109  0.2540 -0.7396
 2219TIP3    H2 6622   5.927   6.758   1.305  1.3153 -1.0970  0.1105
 2220TIP3   OH2 6623   0.802   1.082   0.357  0.4402 -0.3816 -0.1150
 2220TIP3    H1 6624   0.849   1.047   0.281 -0.6558  0.5187 -1.2637
 2220TIP3    H2 6625   0.861   1.148   0.393  1.0396 -0.9245 -0.1113
 2221TIP3   OH2 6626   4.314   5.207   0.384 -0.2023  0.1170 -0.4235
 2221TIP3    H1 6627   4.318   5.112   0.375 -1.2664  0.1665 -1.8448
 2221TIP3    H2 6628   4.358   5.241   0.306  1.1425  0.8183  0.6181
 2222TIP3   OH2 6629   3.141   2.118   4.833  0.1323 -0.2205  0.4514
 2222TIP3    H1 6630   3.103   2.198   4.869 -0.6181 -0.6914  0.7159
 2222TIP3    H2 6631   3.236   2.132   4.842  0.2421  2.1003 -2.6312
 2223TIP3   OH2 6632   2.353   6.709   2.472 -0.4103 -0.0123 -0.2787
 2223TIP3    H1 6633   2.434   6.684   2.515 -1.0246  0.3735  1.1546
 2223TIP3    H2 6634   2.371   6.699   2.379  0.9483 -0.9101  0.0540
 2224TIP3   OH2 6635   5.511   5.155   0.472  0.3837 -0.0600  0.0961
 2224TIP3    H1 6636   5.587   5.197   0.430  0.1250 -1.0202 -1.4262
 2224TIP3    H2 6637   5.499   5.073   0.423 -0.8824 -0.5211  1.1179
 2225TIP3   OH2 6638   0.687   6.360   0.062  0.3645 -0.2771 -0.1063
 2225TIP3    H1 6639   0.674   6.450   0.032  1.5216 -0.0709 -0.0062
 2225TIP3    H2 6640   0.638   6.307  -0.002  1.1699  0.2949 -1.2381
 2226TIP3   OH2 6641   0.976   5.730   3.439  0.0396  0.3912  0.0222
 2226TIP3    H1 6642   0.999   5.812   3.482  1.0409 -1.2523  2.8724
 2226TIP3    H2 6643   0.880   5.732   3.435  0.0810  2.1387 -0.9966
 2227TIP3   OH2 6644   3.314   1.334   0.260 -0.0704 -0.3179 -0.1786
 2227TIP3    H1 6645   3.355   1.420   0.265 -1.1663  0.3140 -1.4877
 2227TIP3    H2 6646   3.226   1.348   0.295  0.0636 -1.1556  0.5323
 2228TIP3   OH2 6647   0.428   1.518   1.871  0.2927 -0.0169  0.1079
 2228TIP3    H1 6648   0.430   1.548   1.780 -0.2396  0.8488  0.3694
 2228TIP3    H2 6649   0.336   1.514   1.893  0.4087 -0.5908  0.5009
 2229TIP3   OH2 6650   5.609   1.906   0.205 -0.4742  0.3112  0.7421
 2229TIP3    H1 6651   5.632   1.833   0.147 -0.8008  0.5583  0.2980
 2229TIP3    H2 6652   5.514   1.900   0.214 -0.4887  0.6089  0.8020
 2230TIP3   OH2 6653   3.388   5.871   1.170 -0.6561  0.4198 -0.1095
 2230TIP3    H1 6654   3.432   5.895   1.088  0.8963 -1.6858 -0.0010
 2230TIP3    H2 6655   3.319   5.811   1.143 -0.4410  0.0903  0.0606
 2231TIP3   OH2 6656   1.888   4.837   0.260 -0.9082  0.0114 -0.2313
 2231TIP3    H1 6657   1.845   4.849   0.344  1.1939 -1.1647  1.1095
 2231TIP3    H2 6658   1.835   4.772   0.214 -0.0038 -2.3974  1.8894
 2232TIP3   OH2 6659   6.257   3.166   0.122  0.4263  0.1274  0.8483
 2232TIP3    H1 6660   6.283   3.103   0.189 -0.6165 -2.0172 -0.6501
 2232TIP3    H2 6661   6.193   3.119   0.069  0.0686  2.2718 -0.7501
 2233TIP3   OH2 6662   5.301   1.872   1.394 -0.4454  0.1397 -0.1641
 2233TIP3    H1 6663   5.303   1.840   1.484  3.1054  1.2367  0.3205
 2233TIP3    H2 6664   5.368   1.822   1.349  0.7621  2.3876 -1.0396
 2234TIP3   OH2 6665   6.373   2.924   3.383 -0.2848 -0.2673 -0.1381
 2234TIP3    H1 6666   6.279   2.926   3.398 -0.5111 -0.3765 -1.4455
 2234TIP3    H2 6667   6.407   2.867   3.452 -1.2300 -0.6289  0.0465
 2235TIP3   OH2 6668   4.271   1.719   4.331 -0.3039  0.2714 -0.7660
 2235TIP3    H1 6669   4.278   1.806   4.290 -3.3606  0.4882 -1.0745
 2235TIP3    H2 6670   4.230   1.736   4.416  0.9501 -0.7257  0.0690
 2236TIP3   OH2 6671   1.780   2.176   1.352  0.3189  0.2212 -0.2801
 2236TIP3    H1 6672   1.827   2.236   1.409 -0.2787 -1.8299  2.5936
 2236TIP3    H2 6673   1.829   2.094   1.357 -0.6257 -0.4590 -1.4919
 2237TIP3   OH2 6674   5.362   5.112   1.770 -1.2036 -0.0428  0.0939
 2237TIP3    H1 6675   5.457   5.100   1.774 -1.1265  0.3958 -0.2653
 2237TIP3    H2 6676   5.328   5.069   1.849 -0.7798 -0.8706 -0.1562
 2238TIP3   OH2 6677   0.529   5.894   2.569 -0.1995 -0.0902 -0.1046
 2238TIP3    H1 6678   0.495   5.941   2.493  1.4087 -0.7158 -1.2656
 2238TIP3    H2 6679   0.489   5.808   2.564  0.0258 -0.1819 -0.3350
 2239TIP3   OH2 6680   5.229   4.694   0.243  0.0206  0.0376  0.2875
 2239TIP3    H1 6681   5.250   4.787   0.231 -0.0058  0.4803  3.0855
 2239TIP3    H2 6682   5.243   4.678   0.336 -2.9041 -2.0285  0.5010
 2240TIP3   OH2 6683   2.246   0.431   2.506  0.4893 -0.6525 -0.1212
 2240TIP3    H1 6684   2.276   0.494   2.440 -0.0286  0.1546  0.3805
 2240TIP3    H2 6685   2.150   0.431   2.496  0.1120  1.5561  2.3445
 2241TIP3   OH2 6686   0.405   5.850   4.354 -0.3462  0.3230 -0.6773
 2241TIP3    H1 6687   0.382   5.928   4.404 -0.1022  0.9845 -1.5848
 2241TIP3    H2 6688   0.498   5.835   4.374 -0.3734  0.2998 -0.5653
 2242TIP3   OH2 6689   2.903   3.071   2.807 -0.1275 -0.3875 -0.3244
 2242TIP3    H1 6690   2.987   3.117   2.801  1.0752 -2.0848  1.7614
 2242TIP3    H2 6691   2.843   3.134   2.846  1.2663 -0.2533  1.7359
 2243TIP3   OH2 6692   4.812   4.472   3.260  0.3615  0.1970 -0.1684
 2243TIP3    H1 6693   4.785   4.387   3.223 -0.0158 -0.2545  1.1074
 2243TIP3    H2 6694   4.897   4.455   3.299  1.0286  0.8219 -1.2961
 2244TIP3   OH2 6695   1.697   3.352   0.206 -0.4974 -0.2974 -0.0208
 2244TIP3    H1 6696   1.691   3.431   0.260 -1.0816 -0.7029  0.5219
 2244TIP3    H2 6697   1.791   3.344   0.186 -0.3294  0.1101  0.5586
 2245TIP3   OH2 6698   1.390   1.465   1.060 -0.0202  0.1576  0.1582
 2245TIP3    H1 6699   1.481   1.493   1.071 -0.2995  2.5351 -2.3867
 2245TIP3    H2 6700   1.340   1.522   1.119 -0.1015  1.1972 -0.8861
 2246TIP3   OH2 6701   2.895   2.794   5.607  0.1976 -0.0940  0.1210
 2246TIP3    H1 6702   2.946   2.799   5.687 -1.9231  1.2195  1.4910
 2246TIP3    H2 6703   2.847   2.877   5.603  0.1186 -0.1674 -2.4556
 2247TIP3   OH2 6704   5.350   3.768   2.408  0.2679 -0.0032  0.1181
 2247TIP3    H1 6705   5.281   3.730   2.462 -0.3988  0.7723 -0.1684
 2247TIP3    H2 6706   5.396   3.827   2.467  0.2421  0.0043  0.1311
 2248TIP3   OH2 6707   4.811   5.645   0.348 -0.0820  0.4507 -0.0535
 2248TIP3    H1 6708   4.726   5.622   0.387  0.5600 -0.3503  0.9095
 2248TIP3    H2 6709   4.817   5.590   0.270 -0.1873  0.0666  0.2052
 2249TIP3   OH2 6710   4.784   5.118   4.202 -0.0042  0.4832  0.1302
 2249TIP3    H1 6711   4.770   5.187   4.137 -0.0123 -0.2842 -0.7044
 2249TIP3    H2 6712   4.846   5.059   4.160 -1.5975 -1.1391 -0.0586
 2250TIP3   OH2 6713   5.369   1.603   2.361 -0.2389 -0.3137  0.3871
 2250TIP3    H1 6714   5.452   1.626   2.401  0.3434 -0.0667 -0.8990
 2250TIP3    H2 6715   5.309   1.673   2.388  0.2955  0.1672  0.3495
 2251TIP3   OH2 6716   5.117   1.531   5.316 -1.2474 -0.0679  0.1581
 2251TIP3    H1 6717   5.114   1.464   5.248 -1.4964  1.1908 -1.1200
 2251TIP3    H2 6718   5.205   1.569   5.309 -0.7088 -0.9633  1.6182
 2252TIP3   OH2 6719   0.127   1.436   1.534 -0.1097 -0.0228 -0.0680
 2252TIP3    H1 6720   0.092   1.361   1.581 -2.1379  0.0041 -1.4058
 2252TIP3    H2 6721   0.149   1.401   1.447 -0.0459  0.6867 -0.3422
 2253TIP3   OH2 6722   2.817   5.002   0.536 -0.6429  0.0245 -0.7180
 2253TIP3    H1 6723   2.782   4.916   0.516 -0.2062 -0.6177  1.0982
 2253TIP3    H2 6724   2.899   4.985   0.582 -0.7388  1.3943  0.0256
 2254TIP3   OH2 6725   7.127   1.822   3.717  0.2898  0.0115 -0.0461
 2254TIP3    H1 6726   7.104   1.915   3.712 -2.2545 -0.5691 -0.6055
 2254TIP3    H2 6727   7.208   1.820   3.767 -0.2336  2.4439  1.0381
 2255TIP3   OH2 6728   0.491   5.605   3.066 -0.1039  0.0363 -0.4955
 2255TIP3    H1 6729   0.560   5.572   3.008  0.0290  0.3591 -0.5252
 2255TIP3    H2 6730   0.412   5.604   3.012 -0.0221  0.1390 -0.6166
 2256TIP3   OH2 6731   5.541   1.896   1.706  0.4365 -0.4989 -0.0828
 2256TIP3    H1 6732   5.510   1.986   1.711 -0.1806 -0.5417 -2.1502
 2256TIP3    H2 6733   5.622   1.895   1.757  1.2703  1.6064 -1.2326
 2257TIP3   OH2 6734   3.871   0.986   1.524 -0.3308 -0.0971 -0.4514
 2257TIP3    H1 6735   3.938   0.974   1.591 -1.9402 -1.0646  1.0695
 2257TIP3    H2 6736   3.914   0.961   1.442  1.0975 -0.8252  0.4854
 2258TIP3   OH2 6737   3.615   1.242   4.176 -0.2240 -0.3096 -0.1379
 2258TIP3    H1 6738   3.657   1.159   4.151  0.1214 -0.0399 -0.4644
 2258TIP3    H2 6739   3.688   1.302   4.193 -0.4062 -0.7057  2.4115
 2259TIP3   OH2 6740   5.550   1.198   3.746  0.4868  0.5347 -0.2659
 2259TIP3    H1 6741   5.456   1.212   3.758  0.5110 -0.5102  1.5808
 2259TIP3    H2 6742   5.591   1.261   3.805  0.9334  0.8662 -0.9319
 2260TIP3   OH2 6743   1.940   5.877   4.791  0.2609  0.0588  0.3626
 2260TIP3    H1 6744   2.029   5.853   4.817  0.3455 -0.2516 -0.1841
 2260TIP3    H2 6745   1.944   5.972   4.778  0.0426  0.3340  2.0786
 2261TIP3   OH2 6746   5.781   3.638   3.032 -0.2302 -0.0947 -0.0139
 2261TIP3    H1 6747   5.726   3.621   2.955 -1.1630  0.1058  0.5917
 2261TIP3    H2 6748   5.863   3.593   3.013 -0.3794  0.1008 -1.2080
 2262TIP3   OH2 6749   1.430   4.898   1.953  0.2071 -0.4552 -0.7096
 2262TIP3    H1 6750   1.466   4.965   2.012 -0.2741 -2.4818  2.1148
 2262TIP3    H2 6751   1.497   4.888   1.885  1.7469  0.6951  0.5384
 2263TIP3   OH2 6752   2.098   6.092   4.683 -0.4386  0.2903 -0.0676
 2263TIP3    H1 6753   2.135   6.004   4.691  0.5447  0.6490 -0.5089
 2263TIP3    H2 6754   2.116   6.117   4.592 -0.8523  0.8905  0.0101
 2264TIP3   OH2 6755   6.052   2.868   5.278 -0.3109  0.1912  0.2248
 2264TIP3    H1 6756   6.113   2.797   5.302  0.0547 -0.0957 -1.4299
 2264TIP3    H2 6757   6.011   2.893   5.361  2.0541  0.3953  1.4139
 2265TIP3   OH2 6758   2.068   1.615   2.320 -0.1336  0.8286  0.1989
 2265TIP3    H1 6759   2.057   1.550   2.250  1.0024 -0.5914  1.2956
 2265TIP3    H2 6760   1.985   1.612   2.368  0.3820 -0.8284  1.0453
 2266TIP3   OH2 6761   0.264   6.716   3.387 -0.2650 -0.0795 -0.4306
 2266TIP3    H1 6762   0.267   6.806   3.355 -0.2783 -0.2930 -1.0538
 2266TIP3    H2 6763   0.289   6.722   3.479 -0.9688  0.6512 -0.2734
 2267TIP3   OH2 6764   2.638   3.841   4.661  0.4034 -0.0521 -0.0372
 2267TIP3    H1 6765   2.556   3.794   4.645  0.0851 -0.1703  1.6788
 2267TIP3    H2 6766   2.705   3.773   4.666  0.3523 -0.0963  0.0420
 2268TIP3   OH2 6767   6.978   1.167   5.701 -0.4336 -0.6320  0.1001
 2268TIP3    H1 6768   6.999   1.170   5.607 -0.9152  0.7984  0.0161
 2268TIP3    H2 6769   6.896   1.215   5.709  0.7351  1.2667  1.5286
 2269TIP3   OH2 6770   5.906   3.047   2.225 -0.6190  0.0414 -0.4000
 2269TIP3    H1 6771   5.953   2.990   2.286  0.8582 -0.5137 -1.9865
 2269TIP3    H2 6772   5.825   3.070   2.271  0.5848 -0.0561  1.8907
 2270TIP3   OH2 6773   0.407   4.542   2.290  0.5801 -0.5721  0.0198
 2270TIP3    H1 6774   0.424   4.561   2.383  2.8765  3.5399 -0.9895
 2270TIP3    H2 6775   0.312   4.539   2.283  0.2634  1.1186  2.2716
 2271TIP3   OH2 6776   4.916   1.512   5.756 -0.3496 -0.0990 -0.0250
 2271TIP3    H1 6777   4.836   1.539   5.710  0.0417  1.1529 -0.0275
 2271TIP3    H2 6778   4.886   1.481   5.841 -0.8861 -0.1100 -0.2168
 2272TIP3   OH2 6779   4.110   4.035   3.400 -0.1550  0.3323 -0.4228
 2272TIP3    H1 6780   4.035   4.047   3.343  1.1324  0.3323 -2.1970
 2272TIP3    H2 6781   4.178   4.000   3.343  1.9853  2.6569  0.5103
 2273TIP3   OH2 6782   6.027   2.177   3.715  0.3385  0.0731 -0.8023
 2273TIP3    H1 6783   6.104   2.155   3.767  0.1671  0.3196 -0.4399
 2273TIP3    H2 6784   5.999   2.263   3.748  0.2887  0.2833 -1.3691
 2274TIP3   OH2 6785   1.459   0.354   5.207  0.0869  0.2463  0.5517
 2274TIP3    H1 6786   1.366   0.356   5.184  0.1066  1.7979  0.5007
 2274TIP3    H2 6787   1.504   0.378   5.126  0.4840  0.3050  0.7858
 2275TIP3   OH2 6788   0.517   3.871   3.079 -0.0532 -0.0299 -0.2039
 2275TIP3    H1 6789   0.534   3.959   3.113 -0.3996 -0.3052  0.7069
 2275TIP3    H2 6790   0.432   3.878   3.037  0.5217  0.3929 -1.3503
 2276TIP3   OH2 6791   4.726   0.064   5.465 -0.5769 -0.2547 -0.2157
 2276TIP3    H1 6792   4.726   0.115   5.547  1.5918 -1.0250  0.3437
 2276TIP3    H2 6793   4.734   0.130   5.396  0.9532  0.2903  0.4278
 2277TIP3   OH2 6794   5.908   2.881   5.034  0.1384  0.7511  0.0057
 2277TIP3    H1 6795   5.968   2.861   5.106  0.7457 -1.2087 -0.9775
 2277TIP3    H2 6796   5.949   2.841   4.957 -1.9222  0.2526 -0.8854
 2278TIP3   OH2 6797   3.322   1.291   5.893 -0.3329  0.2519 -0.2385
 2278TIP3    H1 6798   3.234   1.262   5.915 -0.2062  0.0919  0.0787
 2278TIP3    H2 6799   3.319   1.311   5.800 -0.9770  1.2779 -0.0068
 2279TIP3   OH2 6800   3.752   6.727   4.705  0.0051  0.5704  0.2507
 2279TIP3    H1 6801   3.744   6.819   4.727 -2.0090  0.7220 -0.8673
 2279TIP3    H2 6802   3.819   6.693   4.765 -0.0541  2.4738  1.4669
 2280TIP3   OH2 6803   1.611   5.844   2.628  0.0199  0.1766  0.6559
 2280TIP3    H1 6804   1.682   5.866   2.688  0.7927 -2.4474  0.8345
 2280TIP3    H2 6805   1.654   5.797   2.556 -1.2591  0.7178 -0.5134
 2281TIP3   OH2 6806   6.540   2.350   4.924 -0.2491 -0.3514  0.7583
 2281TIP3    H1 6807   6.456   2.305   4.926 -0.2949 -0.3930 -0.7449
 2281TIP3    H2 6808   6.579   2.324   4.840  1.3864 -0.5519  1.5397
 2282TIP3   OH2 6809   1.240   2.454   3.057  0.2313  0.8260 -0.0273
 2282TIP3    H1 6810   1.236   2.392   2.984 -1.5962  0.3662  0.4373
 2282TIP3    H2 6811   1.188   2.414   3.126  1.8380  1.3087  1.5353
 2283TIP3   OH2 6812   2.971   4.786   4.173  0.0414  0.4903 -0.1767
 2283TIP3    H1 6813   2.954   4.849   4.103 -2.9378  0.2479  0.1957
 2283TIP3    H2 6814   3.002   4.839   4.247  1.8983  0.9001 -1.1878
 2284TIP3   OH2 6815   2.635   1.611   2.242  0.1920 -0.4458  0.3244
 2284TIP3    H1 6816   2.632   1.706   2.252  0.9564 -0.4422  0.6384
 2284TIP3    H2 6817   2.562   1.590   2.184  0.1435  0.3570  0.0801
 2285TIP3   OH2 6818   3.712   5.832   3.054  0.7168  0.4304 -0.0437
 2285TIP3    H1 6819   3.666   5.865   3.132 -0.6660  0.8498 -1.0013
 2285TIP3    H2 6820   3.790   5.789   3.089 -0.2636 -0.0760  1.6432
 2286TIP3   OH2 6821   1.463   5.440   1.443  0.7385 -0.0616  0.0224
 2286TIP3    H1 6822   1.545   5.402   1.474  1.3593 -0.7370 -2.2300
 2286TIP3    H2 6823   1.488   5.525   1.408  0.4196 -0.1142 -0.3386
 2287TIP3   OH2 6824   4.600   3.079   4.215  0.8510  0.2645  0.0849
 2287TIP3    H1 6825   4.530   3.024   4.249  0.6284  0.9097  0.6710
 2287TIP3    H2 6826   4.557   3.139   4.154  1.2199 -0.7738 -1.2660
 2288TIP3   OH2 6827   1.826   4.286   4.212  0.1793  0.2658 -0.0145
 2288TIP3    H1 6828   1.761   4.354   4.231  0.2888  0.4828 -0.3875
 2288TIP3    H2 6829   1.778   4.204   4.220 -0.1699  0.4297 -0.3702
 2289TIP3   OH2 6830   5.346   1.864   0.250  0.1941  0.4811  0.1415
 2289TIP3    H1 6831   5.258   1.886   0.220 -0.1881  0.9909  1.5837
 2289TIP3    H2 6832   5.343   1.770   0.270 -0.3009  0.6882  1.0790
 2290TIP3   OH2 6833   6.286   3.340   5.756 -0.0202  0.6705 -0.6325
 2290TIP3    H1 6834   6.213   3.316   5.700  1.2464 -0.8645 -1.6917
 2290TIP3    H2 6835   6.268   3.296   5.839 -0.5682  0.7618 -0.6976
 2291TIP3   OH2 6836   3.759   5.344   4.947 -0.2560  0.3680 -0.1168
 2291TIP3    H1 6837   3.789   5.256   4.924  0.7703  0.7393 -0.2528
 2291TIP3    H2 6838   3.667   5.333   4.969  0.6313 -1.3492  3.3516
 2292TIP3   OH2 6839   7.060   2.960   0.138  0.2064  0.3756 -0.6533
 2292TIP3    H1 6840   6.965   2.955   0.125  0.1676  2.6298 -1.6180
 2292TIP3    H2 6841   7.091   3.016   0.067  2.1954  0.1930  0.0190
 2293TIP3   OH2 6842   6.268   2.114   3.058  0.3170 -1.0161  0.9027
 2293TIP3    H1 6843   6.200   2.177   3.033  1.0396  0.8983  3.3701
 2293TIP3    H2 6844   6.349   2.165   3.062  1.4358 -2.6658  0.6264
 2294TIP3   OH2 6845   6.334   5.575   2.801 -0.3032 -0.1780 -0.0014
 2294TIP3    H1 6846   6.261   5.515   2.785 -0.0697 -0.4005 -0.2733
 2294TIP3    H2 6847   6.412   5.519   2.792 -0.1029  0.0535  0.2958
 2295TIP3   OH2 6848   2.207   5.862   2.136 -0.0065  0.3731  0.2419
 2295TIP3    H1 6849   2.179   5.939   2.087  0.0776  0.5666  0.4958
 2295TIP3    H2 6850   2.215   5.892   2.226  1.6637  0.4958  0.0738
 2296TIP3   OH2 6851   4.832   2.834   4.671 -0.0299 -0.3166  0.0852
 2296TIP3    H1 6852   4.838   2.794   4.585  1.1242 -1.0071  0.4684
 2296TIP3    H2 6853   4.857   2.925   4.657 -3.1778  0.5286 -0.8863
 2297TIP3   OH2 6854   2.269   1.839   2.925  0.1046 -0.0959 -0.2468
 2297TIP3    H1 6855   2.308   1.906   2.981 -0.6766  0.0536  0.1375
 2297TIP3    H2 6856   2.201   1.799   2.979  0.8146 -1.4846 -0.3384
 2298TIP3   OH2 6857   4.624   5.243   0.796  0.4740 -0.1551  0.0193
 2298TIP3    H1 6858   4.585   5.157   0.810 -0.4529  0.1686 -0.4604
 2298TIP3    H2 6859   4.689   5.252   0.866  1.0223 -1.4830 -0.3031
 2299TIP3   OH2 6860   3.567   2.825   1.671 -0.3732  0.4515  0.3770
 2299TIP3    H1 6861   3.639   2.888   1.673 -0.4340  0.5175  0.5321
 2299TIP3    H2 6862   3.497   2.868   1.720 -0.3754  0.2160  0.5830
 2300TIP3   OH2 6863   1.021   1.026   3.348  0.2998  0.2219 -0.0746
 2300TIP3    H1 6864   1.109   1.058   3.367 -0.0746  0.6511  0.9635
 2300TIP3    H2 6865   0.969   1.104   3.332 -0.2107  0.0641  0.7314
 2301TIP3   OH2 6866   2.563   6.302   5.497  0.0097 -0.2777  0.0794
 2301TIP3    H1 6867   2.512   6.303   5.578 -1.7164  1.0977 -0.9756
 2301TIP3    H2 6868   2.654   6.295   5.526 -0.4721  1.4152  2.1898
 2302TIP3   OH2 6869   0.965   5.287   0.961 -0.2127 -0.4095  0.3399
 2302TIP3    H1 6870   0.937   5.261   1.049  0.3873 -0.5511  0.4933
 2302TIP3    H2 6871   1.023   5.216   0.933  0.4317  0.1530  0.2483
 2303TIP3   OH2 6872   4.557   2.902   2.950 -0.1545 -0.2371  0.3470
 2303TIP3    H1 6873   4.547   2.817   2.995 -0.6278  0.0436  0.7820
 2303TIP3    H2 6874   4.578   2.879   2.860 -1.2033 -0.8391  0.2353
 2304TIP3   OH2 6875   5.932   5.490   4.562  0.6004 -0.8265  0.6502
 2304TIP3    H1 6876   5.891   5.504   4.648 -0.5907 -0.1238  0.0011
 2304TIP3    H2 6877   5.866   5.442   4.512  1.5004 -1.7113  0.2899
 2305TIP3   OH2 6878   2.432   2.049   4.350 -0.0303 -0.1072  0.2752
 2305TIP3    H1 6879   2.421   1.992   4.274 -1.0791 -0.9959  1.0561
 2305TIP3    H2 6880   2.450   2.135   4.313 -3.0038  0.0495 -1.1114
 2306TIP3   OH2 6881   6.780   0.437   1.580  0.0717 -0.6398 -0.0332
 2306TIP3    H1 6882   6.830   0.519   1.582 -1.6453  0.4908 -1.2581
 2306TIP3    H2 6883   6.790   0.401   1.669  2.2907 -0.0478  0.0337
 2307TIP3   OH2 6884   3.540   0.770   0.855 -0.2474  0.1610 -0.3188
 2307TIP3    H1 6885   3.626   0.765   0.897 -0.6538 -0.6054  0.4559
 2307TIP3    H2 6886   3.558   0.808   0.769  1.0603 -1.2452 -0.7203
 2308TIP3   OH2 6887   6.358   2.366   4.207  0.1466  0.6465 -0.3105
 2308TIP3    H1 6888   6.290   2.314   4.164  0.4999  0.5019 -0.6973
 2308TIP3    H2 6889   6.338   2.358   4.301  0.3708 -0.4375 -0.3455
 2309TIP3   OH2 6890   6.978   4.548   0.911 -0.3235 -0.6905  0.0999
 2309TIP3    H1 6891   6.904   4.524   0.856 -0.8775  0.0357  0.5154
 2309TIP3    H2 6892   6.939   4.580   0.992  0.4412 -0.3053  0.3308
 2310TIP3   OH2 6893   2.913   1.370   1.268  0.1506  0.0359 -0.3370
 2310TIP3    H1 6894   2.884   1.461   1.269 -1.7768 -0.4593  2.4634
 2310TIP3    H2 6895   2.835   1.320   1.291  1.9582 -1.9431  2.0925
 2311TIP3   OH2 6896   5.055   6.607   4.038  0.3880  0.3658 -0.2873
 2311TIP3    H1 6897   5.005   6.638   3.962  1.5236 -0.5874 -1.4724
 2311TIP3    H2 6898   5.147   6.624   4.014  0.7026  1.2802  1.4627
 2312TIP3   OH2 6899   0.692   4.172   0.166 -0.4155  0.2873 -0.8085
 2312TIP3    H1 6900   0.694   4.240   0.233 -2.4092  2.0049 -2.3436
 2312TIP3    H2 6901   0.733   4.213   0.089 -1.3247 -0.3372 -1.6503
 2313TIP3   OH2 6902   2.106   0.743   0.638 -0.7212 -0.6622 -0.1636
 2313TIP3    H1 6903   2.164   0.814   0.612 -1.7854 -0.2110 -1.4231
 2313TIP3    H2 6904   2.136   0.668   0.588 -0.8697 -0.5660 -0.4009
 2314TIP3   OH2 6905   2.982   3.610   0.145  0.0140 -0.4204 -0.0536
 2314TIP3    H1 6906   3.055   3.671   0.136 -0.0348 -0.3194  0.2430
 2314TIP3    H2 6907   3.024   3.524   0.152  0.1554 -0.2627  1.1790
 2315TIP3   OH2 6908   1.579   3.637   2.679  0.1652 -0.0304  0.0198
 2315TIP3    H1 6909   1.639   3.701   2.640 -0.5007  0.7152  0.1846
 2315TIP3    H2 6910   1.495   3.653   2.636 -0.1454 -0.4219  0.4648
 2316TIP3   OH2 6911   6.521   0.265   5.024  0.1033 -0.2390  0.4396
 2316TIP3    H1 6912   6.519   0.347   5.073 -0.4192 -0.2590  0.4545
 2316TIP3    H2 6913   6.549   0.290   4.936 -0.2329 -0.0206  0.3952
 2317TIP3   OH2 6914   5.976   4.418   4.562  0.0396  0.0394 -0.0516
 2317TIP3    H1 6915   5.993   4.477   4.636 -1.9388 -0.9094  1.2364
 2317TIP3    H2 6916   5.925   4.471   4.501  0.6390  0.4568 -0.2093
 2318TIP3   OH2 6917   0.819   4.120   3.467 -0.2561 -0.4861 -0.1479
 2318TIP3    H1 6918   0.812   4.025   3.472 -0.5620 -0.5124 -0.8891
 2318TIP3    H2 6919   0.834   4.148   3.557 -1.6097 -1.1110  0.2862
 2319TIP3   OH2 6920   6.076   3.546   1.046  0.1534 -0.1336  1.0118
 2319TIP3    H1 6921   6.138   3.526   0.975  2.2821  1.9028  2.1384
 2319TIP3    H2 6922   6.086   3.474   1.107 -0.4292 -1.0491  0.0564
 2320TIP3   OH2 6923   6.075   2.190   2.291  0.5635 -0.6982 -0.8096
 2320TIP3    H1 6924   6.084   2.183   2.196  2.4617  1.2954 -0.8583
 2320TIP3    H2 6925   6.094   2.102   2.324  0.7235 -1.2098 -2.2206
 2321TIP3   OH2 6926   1.954   3.543   4.013 -0.4208 -0.1695  0.3451
 2321TIP3    H1 6927   1.922   3.632   4.021  0.3026  0.1774 -0.5055
 2321TIP3    H2 6928   2.030   3.539   4.072 -0.4561 -0.2283  0.3875
 2322TIP3   OH2 6929   4.913   0.994   5.286  0.1167  0.6314 -0.1317
 2322TIP3    H1 6930   4.983   0.979   5.350 -1.1878 -1.6563  0.8761
 2322TIP3    H2 6931   4.949   0.962   5.204 -0.1701 -1.9776  0.6697
 2323TIP3   OH2 6932   3.087   0.463   4.919 -0.2372 -0.2293 -0.5771
 2323TIP3    H1 6933   3.077   0.429   5.008 -1.1673  1.5749  0.0646
 2323TIP3    H2 6934   3.142   0.541   4.929 -0.6967  0.2366 -1.5219
 2324TIP3   OH2 6935   3.996   4.908   1.195  0.3574  0.0908  0.7146
 2324TIP3    H1 6936   4.060   4.881   1.261  0.4568 -1.6632 -0.0400
 2324TIP3    H2 6937   3.960   4.826   1.161 -0.6000  0.9779 -0.5363
 2325TIP3   OH2 6938   4.663   2.371   2.328 -0.2245 -0.1366 -0.1454
 2325TIP3    H1 6939   4.685   2.321   2.250 -0.9643  0.2699 -0.6224
 2325TIP3    H2 6940   4.745   2.414   2.353 -0.5034  1.7442 -2.1767
 2326TIP3   OH2 6941   0.199   2.809   5.377 -0.4527  0.3140 -0.1162
 2326TIP3    H1 6942   0.208   2.746   5.305 -1.0143  0.6722 -0.4996
 2326TIP3    H2 6943   0.191   2.754   5.455 -1.9631 -0.1325 -0.5560
 2327TIP3   OH2 6944   0.370   0.723   5.862 -0.2532 -0.3025  0.5209
 2327TIP3    H1 6945   0.445   0.667   5.881 -0.0868 -0.9670 -1.8079
 2327TIP3    H2 6946   0.391   0.807   5.901  1.2902 -0.7454  0.6819
 2328TIP3   OH2 6947   6.016   5.219   3.822 -0.2805  0.2804 -0.1559
 2328TIP3    H1 6948   6.052   5.160   3.889 -0.2683  1.5184  0.9793
 2328TIP3    H2 6949   5.952   5.166   3.775 -1.7682 -0.1083  2.1508
 2329TIP3   OH2 6950   1.307   5.830   0.823 -0.3525 -0.0616 -0.4968
 2329TIP3    H1 6951   1.276   5.788   0.903  0.4633 -1.7148 -1.0154
 2329TIP3    H2 6952   1.230   5.833   0.766 -1.0672  1.5696  0.4671
 2330TIP3   OH2 6953   3.792   1.835   5.344 -0.3168  0.1135  0.3488
 2330TIP3    H1 6954   3.824   1.746   5.357 -0.1758  0.2433  0.9271
 2330TIP3    H2 6955   3.699   1.831   5.365 -0.6389 -0.2048 -1.0627
 2331TIP3   OH2 6956   3.555   4.130   5.035 -0.2179 -0.1859 -0.0061
 2331TIP3    H1 6957   3.578   4.039   5.052  0.2436 -0.2547 -0.9539
 2331TIP3    H2 6958   3.594   4.179   5.108 -0.0854 -0.6909  0.2615
 2332TIP3   OH2 6959   5.086   2.998   3.271 -0.2443 -0.2527  0.2727
 2332TIP3    H1 6960   5.067   2.904   3.261 -3.6198  0.1420  1.7279
 2332TIP3    H2 6961   5.093   3.011   3.365 -0.3813  1.0531  0.1165
 2333TIP3   OH2 6962   6.964   2.548   3.292  0.2430  0.5323 -0.2623
 2333TIP3    H1 6963   6.948   2.461   3.255 -3.2107  0.6419  0.6929
 2333TIP3    H2 6964   6.993   2.601   3.217 -0.1452 -0.8155 -1.3967
 2334TIP3   OH2 6965   3.898   4.654   1.115 -0.0232 -0.2180  0.2003
 2334TIP3    H1 6966   3.824   4.660   1.175 -0.3992  0.2983 -0.2977
 2334TIP3    H2 6967   3.957   4.589   1.154 -0.4168 -0.1283  0.9435
 2335TIP3   OH2 6968   3.260   5.894   3.467 -0.1929  0.4704 -0.4828
 2335TIP3    H1 6969   3.283   5.848   3.548 -1.8251 -0.9683 -0.7804
 2335TIP3    H2 6970   3.215   5.973   3.497 -2.3075 -0.8771  0.0706
 2336TIP3   OH2 6971   0.615   2.099   0.683  0.7394 -0.3338 -0.5072
 2336TIP3    H1 6972   0.705   2.112   0.653  0.2465  1.0413 -1.4956
 2336TIP3    H2 6973   0.570   2.062   0.606  0.7031 -2.2048  0.3574
 2337TIP3   OH2 6974   6.611   4.762   0.856  0.8538 -0.5665  1.0473
 2337TIP3    H1 6975   6.544   4.784   0.792 -0.8268  0.2023  2.9529
 2337TIP3    H2 6976   6.680   4.827   0.843 -0.9503  1.6901  2.0830
 2338TIP3   OH2 6977   5.302   1.205   5.798  0.2833 -1.0445 -0.0795
 2338TIP3    H1 6978   5.316   1.205   5.892  0.6554  0.9996 -0.0953
 2338TIP3    H2 6979   5.388   1.185   5.761  0.3344 -0.9653 -0.0038
 2339TIP3   OH2 6980   7.034   3.706   1.037 -0.4044  0.2409  0.0865
 2339TIP3    H1 6981   6.972   3.776   1.014  1.2366  1.7279 -0.0075
 2339TIP3    H2 6982   7.043   3.655   0.956 -0.6310  0.7202 -0.2486
 2340TIP3   OH2 6983   1.349   0.930   3.911 -0.1615 -0.7105 -0.4076
 2340TIP3    H1 6984   1.314   0.965   3.993  0.6761  1.4886 -0.9116
 2340TIP3    H2 6985   1.330   0.836   3.915 -2.4881 -0.2657  1.0915
 2341TIP3   OH2 6986   3.413   5.246   2.634  0.2678 -0.7169 -0.0623
 2341TIP3    H1 6987   3.424   5.322   2.691 -0.5464 -0.1851 -0.5822
 2341TIP3    H2 6988   3.496   5.238   2.588 -0.1430  0.8665 -1.1755
 2342TIP3   OH2 6989   4.530   2.094   3.920 -0.0773  0.7792  0.2090
 2342TIP3    H1 6990   4.531   2.129   4.009  0.0229  4.0387 -0.9468
 2342TIP3    H2 6991   4.437   2.096   3.895 -0.0416  0.4030  0.0404
 2343TIP3   OH2 6992   6.612   5.211   0.176 -0.7652 -0.2316 -0.0868
 2343TIP3    H1 6993   6.617   5.237   0.085  2.6674  0.1298  0.1071
 2343TIP3    H2 6994   6.586   5.291   0.223  2.6556  1.1216 -0.2708
 2344TIP3   OH2 6995   5.608   3.178   3.422  0.3628  0.6066  0.1619
 2344TIP3    H1 6996   5.594   3.271   3.407  1.0653  0.3973 -2.2854
 2344TIP3    H2 6997   5.531   3.135   3.385 -0.2178  0.2106  1.7710
 2345TIP3   OH2 6998   2.887   1.206   5.666  0.4371  0.1940 -0.4842
 2345TIP3    H1 6999   2.885   1.132   5.727 -2.0931 -0.4846 -1.2392
 2345TIP3    H2 7000   2.980   1.223   5.652  1.0996 -1.8936  0.8427
 2346TIP3   OH2 7001   5.172   6.214   5.621 -0.0736  0.0819  0.4440
 2346TIP3    H1 7002   5.242   6.268   5.659  0.7607 -0.6367 -0.0219
 2346TIP3    H2 7003   5.195   6.125   5.648 -0.3310 -0.2599 -0.4517
 2347TIP3   OH2 7004   1.400   5.264   3.261  0.6157 -0.2661  0.1470
 2347TIP3    H1 7005   1.392   5.230   3.172  1.1332  0.4474 -0.1788
 2347TIP3    H2 7006   1.309   5.279   3.289  0.3927 -1.6798  0.2174
 2348TIP3   OH2 7007   3.210   1.167   5.402  0.2408 -0.0786 -0.0706
 2348TIP3    H1 7008   3.216   1.092   5.461 -0.2875  0.1649  0.3093
 2348TIP3    H2 7009   3.119   1.165   5.371  0.7565 -0.7351 -1.6128
 2349TIP3   OH2 7010   7.225   2.851   2.142 -0.2827 -0.1832 -0.3908
 2349TIP3    H1 7011   7.147   2.868   2.089 -1.9688  0.2168  2.0342
 2349TIP3    H2 7012   7.262   2.937   2.159  0.2996 -0.3159 -0.9607
 2350TIP3   OH2 7013   3.030   5.963  -0.009 -1.2741  0.2816 -0.3508
 2350TIP3    H1 7014   3.110   5.914   0.011 -0.8246  1.0515 -0.2341
 2350TIP3    H2 7015   2.960   5.914   0.036 -0.9496 -0.6678 -0.8555
 2351TIP3   OH2 7016   6.850   4.838   4.572 -0.0379 -0.4322 -0.1959
 2351TIP3    H1 7017   6.811   4.905   4.628 -1.4787 -0.6586 -0.8848
 2351TIP3    H2 7018   6.926   4.881   4.533 -1.2968  1.0470 -1.1210
 2352TIP3   OH2 7019   6.332   1.014   0.513  0.4610  0.3835  0.1607
 2352TIP3    H1 7020   6.367   1.029   0.425 -0.0892 -0.1916 -0.1694
 2352TIP3    H2 7021   6.352   0.922   0.531 -0.1405  0.2753  0.3047
 2353TIP3   OH2 7022   1.061   2.825   3.147  0.2614  0.3508 -0.1297
 2353TIP3    H1 7023   0.966   2.836   3.141  0.4171  3.6003  1.1841
 2353TIP3    H2 7024   1.078   2.808   3.239  0.9048 -2.4258 -0.6712
 2354TIP3   OH2 7025   0.373   1.068   2.438  0.3392  0.0479 -0.2713
 2354TIP3    H1 7026   0.344   0.977   2.436  0.1036  0.0463  1.3875
 2354TIP3    H2 7027   0.292   1.119   2.431  0.3545  0.1051 -0.0520
 2355TIP3   OH2 7028   6.531   4.384   5.827  0.2800 -0.3484 -0.3990
 2355TIP3    H1 7029   6.528   4.456   5.764 -0.7143  0.5496  0.6339
 2355TIP3    H2 7030   6.552   4.307   5.774  3.7437  0.9861 -1.1981
 2356TIP3   OH2 7031   6.288   5.969   4.202  0.1210  0.2953 -0.4376
 2356TIP3    H1 7032   6.368   6.007   4.238 -0.0850  1.9634 -1.6065
 2356TIP3    H2 7033   6.310   5.952   4.110 -1.4956  2.9993 -1.4345
 2357TIP3   OH2 7034   1.160   5.952   5.908  0.3430 -0.3608  0.7648
 2357TIP3    H1 7035   1.093   5.918   5.849  0.4492  0.0873  0.3816
 2357TIP3    H2 7036   1.225   5.881   5.914  0.4837 -0.2968  0.0974
 2358TIP3   OH2 7037   6.830   4.097   3.892  0.3398 -0.2965 -0.2353
 2358TIP3    H1 7038   6.807   4.011   3.927 -2.2150 -0.3094 -1.7274
 2358TIP3    H2 7039   6.825   4.156   3.967 -2.1970 -0.7805  0.0542
 2359TIP3   OH2 7040   0.743   6.030   4.214 -0.4104  0.6258  0.2458
 2359TIP3    H1 7041   0.819   5.979   4.186 -1.4183 -0.0731 -1.3683
 2359TIP3    H2 7042   0.767   6.063   4.301  1.0134 -1.0292  0.5344
 2360TIP3   OH2 7043   3.358   2.792   0.568 -0.2918 -0.3062 -0.3013
 2360TIP3    H1 7044   3.303   2.715   0.552  1.3537 -1.6437  0.1604
 2360TIP3    H2 7045   3.297   2.865   0.573 -2.0016 -1.7111  0.1309
 2361TIP3   OH2 7046   4.397   5.647   0.953 -0.3842  0.1022  0.5000
 2361TIP3    H1 7047   4.387   5.558   0.987 -0.6049  0.8571  2.5292
 2361TIP3    H2 7048   4.423   5.634   0.862 -1.0845 -2.0294  0.5328
 2362TIP3   OH2 7049   2.564   1.163   2.949 -0.0321  0.2497 -0.2979
 2362TIP3    H1 7050   2.629   1.120   3.004  0.3307  0.9715 -0.1530
 2362TIP3    H2 7051   2.480   1.128   2.981  0.1894  0.4604  0.5445
 2363TIP3   OH2 7052   4.192   0.617   4.541 -0.3921 -0.4665 -0.4832
 2363TIP3    H1 7053   4.130   0.594   4.611  0.4228 -0.0372  0.4125
 2363TIP3    H2 7054   4.165   0.564   4.466 -1.0232 -1.2659  0.2869
 2364TIP3   OH2 7055   4.699   5.747   0.810 -0.0598 -0.0885  0.5491
 2364TIP3    H1 7056   4.639   5.701   0.751  1.2731 -0.4608 -0.5739
 2364TIP3    H2 7057   4.654   5.829   0.830 -0.3060  0.3476 -1.5149
 2365TIP3   OH2 7058   4.238   0.222   0.069 -1.1599  0.1392  0.1844
 2365TIP3    H1 7059   4.230   0.290   0.135  1.3468  0.2458  0.4710
 2365TIP3    H2 7060   4.150   0.214   0.032 -1.5006  3.7950 -0.1327
 2366TIP3   OH2 7061   5.439   5.123   1.504 -0.0961  0.5620  0.3149
 2366TIP3    H1 7062   5.422   5.117   1.598  0.5986 -0.8786  0.3762
 2366TIP3    H2 7063   5.464   5.214   1.490  0.7888  0.5649  1.7157
 2367TIP3   OH2 7064   2.212   1.776   2.645 -0.3178  0.0890 -0.1045
 2367TIP3    H1 7065   2.180   1.691   2.674  0.3522 -0.3787 -0.7079
 2367TIP3    H2 7066   2.228   1.824   2.726  1.0040 -1.0023  0.3162
 2368TIP3   OH2 7067   3.307   5.821   3.734  0.3995 -0.0961 -0.2793
 2368TIP3    H1 7068   3.254   5.741   3.730 -0.4350  0.4705 -1.1265
 2368TIP3    H2 7069   3.389   5.793   3.774  0.7562 -1.7612 -1.9782
 2369TIP3   OH2 7070   2.298   2.052   3.314  0.1698  0.0910 -0.2585
 2369TIP3    H1 7071   2.206   2.038   3.291 -0.3414  0.9405  1.1511
 2369TIP3    H2 7072   2.298   2.133   3.365  1.6131 -0.2733  0.3635
 2370TIP3   OH2 7073   1.025   4.678   0.486 -0.0892 -0.1517 -0.3049
 2370TIP3    H1 7074   1.082   4.703   0.559 -0.8304 -1.7510  0.8865
 2370TIP3    H2 7075   1.040   4.745   0.419 -0.5589  2.2844  1.9020
 2371TIP3   OH2 7076   1.679   1.687   5.540  0.2495  0.4650 -0.1627
 2371TIP3    H1 7077   1.650   1.770   5.576  2.7216  1.7947 -1.0548
 2371TIP3    H2 7078   1.709   1.708   5.451 -1.2260 -1.8364 -1.3409
 2372TIP3   OH2 7079   1.664   0.427   0.669 -0.4410  0.2260 -0.1939
 2372TIP3    H1 7080   1.699   0.452   0.755 -0.4617  2.1606 -0.6968
 2372TIP3    H2 7081   1.574   0.459   0.670 -0.4182  0.3274 -0.9471
 2373TIP3   OH2 7082   6.401   1.553   1.217  0.4963  0.0734 -0.1484
 2373TIP3    H1 7083   6.373   1.636   1.178  1.6785 -0.5227 -2.4624
 2373TIP3    H2 7084   6.343   1.487   1.178  0.8958 -0.4010  0.0400
 2374TIP3   OH2 7085   6.504   5.738   3.800  0.0844 -0.5551  0.0290
 2374TIP3    H1 7086   6.462   5.820   3.827  1.4086  0.4522 -0.8104
 2374TIP3    H2 7087   6.461   5.713   3.719  0.9056  0.3611 -0.7181
 2375TIP3   OH2 7088   0.484   5.724   0.551  0.4218 -0.0589 -0.5114
 2375TIP3    H1 7089   0.408   5.775   0.521  1.4997  0.8704 -1.7828
 2375TIP3    H2 7090   0.446   5.643   0.586 -1.1843  0.5969 -0.6299
 2376TIP3   OH2 7091   2.623   2.326   0.113 -0.0675  0.3864  0.1621
 2376TIP3    H1 7092   2.600   2.384   0.040 -0.1402 -0.1992 -0.2918
 2376TIP3    H2 7093   2.718   2.328   0.117 -0.0888  0.9425  0.4905
 2377TIP3   OH2 7094   6.835   0.060   2.975 -0.2601  0.0265 -0.3702
 2377TIP3    H1 7095   6.769  -0.007   2.956 -0.7854  0.3129  0.3920
 2377TIP3    H2 7096   6.811   0.134   2.919 -1.6871  0.7950  1.1440
 2378TIP3   OH2 7097   0.749   5.316   0.236 -0.2156  0.0132 -0.2259
 2378TIP3    H1 7098   0.779   5.272   0.157 -0.3669 -2.0836  0.7969
 2378TIP3    H2 7099   0.829   5.348   0.278 -0.1855  1.7322 -1.4883
 2379TIP3   OH2 7100   0.113   0.847   3.674  0.2730 -0.4604 -0.1481
 2379TIP3    H1 7101   0.182   0.850   3.740 -0.5426 -0.7932  0.7439
 2379TIP3    H2 7102   0.077   0.759   3.681  0.6819 -0.7630 -1.5890
 2380TIP3   OH2 7103   2.139   4.092   0.577  0.0345  0.5803 -0.6706
 2380TIP3    H1 7104   2.211   4.112   0.518  0.5060 -3.2769 -1.7014
 2380TIP3    H2 7105   2.148   3.998   0.595 -3.7471  0.2571  0.5045
 2381TIP3   OH2 7106   2.652   0.927   2.774  0.2251  0.0983 -0.4122
 2381TIP3    H1 7107   2.603   1.007   2.790  0.0754  0.5412 -2.8170
 2381TIP3    H2 7108   2.743   0.955   2.766  0.3618 -0.1766  0.1359
 2382TIP3   OH2 7109   0.926   6.220   2.671  0.5027  0.1749 -0.0685
 2382TIP3    H1 7110   0.856   6.215   2.606  1.2298 -1.4528 -0.7856
 2382TIP3    H2 7111   0.942   6.129   2.696  1.4441  0.6308  1.0838
 2383TIP3   OH2 7112   6.085   4.557   0.140  0.0807  0.6357 -0.3565
 2383TIP3    H1 7113   6.078   4.474   0.092  2.6067  1.2972 -2.0721
 2383TIP3    H2 7114   6.124   4.532   0.224 -1.5960 -0.1605  0.2442
 2384TIP3   OH2 7115   0.957   1.919   1.493 -0.5096  0.4538  0.2261
 2384TIP3    H1 7116   0.924   1.963   1.415 -0.0890 -1.0668 -0.8627
 2384TIP3    H2 7117   0.900   1.842   1.503  0.7274 -0.5196  0.1208
 2385TIP3   OH2 7118   3.114   0.275   5.173 -0.6975  0.1259  0.3377
 2385TIP3    H1 7119   3.056   0.257   5.099 -1.6809 -0.1769  1.1560
 2385TIP3    H2 7120   3.069   0.237   5.249  0.9472 -0.8400  0.8906
 2386TIP3   OH2 7121   6.266   2.599   5.159 -0.3640 -0.1496  0.0848
 2386TIP3    H1 7122   6.192   2.611   5.099 -0.1361  0.8567 -0.0092
 2386TIP3    H2 7123   6.224   2.581   5.244 -0.7573  1.1848  0.1989
 2387TIP3   OH2 7124   2.695   6.083   0.865 -0.2502  0.2631  0.3305
 2387TIP3    H1 7125   2.650   6.122   0.941 -1.1047 -2.0013  1.0797
 2387TIP3    H2 7126   2.787   6.078   0.892 -0.2871  0.8576  0.5949
 2388TIP3   OH2 7127   2.703   2.377   3.727 -0.0766 -0.0773 -0.2462
 2388TIP3    H1 7128   2.780   2.393   3.781  0.0243 -0.2809 -0.3256
 2388TIP3    H2 7129   2.739   2.346   3.643 -0.2523 -0.5566 -0.1500
 2389TIP3   OH2 7130   4.793   3.152   2.946  0.3001  0.1915 -0.4088
 2389TIP3    H1 7131   4.788   3.173   2.853  1.6578  0.0547 -0.5383
 2389TIP3    H2 7132   4.777   3.058   2.950  2.8197 -0.3378 -0.8558
 2390TIP3   OH2 7133   5.262   5.000   3.183 -0.0329 -0.2979 -0.2980
 2390TIP3    H1 7134   5.284   5.025   3.272 -0.1973 -0.6532 -0.1568
 2390TIP3    H2 7135   5.276   5.080   3.131 -1.3292  0.3219  0.2623
 2391TIP3   OH2 7136   1.936   3.939   3.262  0.4310  0.4157  0.4235
 2391TIP3    H1 7137   1.948   3.913   3.170  0.4866  0.3554  0.4478
 2391TIP3    H2 7138   2.020   3.977   3.287  0.8326 -0.6987  0.8228
 2392TIP3   OH2 7139   0.860   6.447   4.563  0.4122 -0.0740  0.0409
 2392TIP3    H1 7140   0.839   6.356   4.541  0.0991  0.0792 -0.3103
 2392TIP3    H2 7141   0.945   6.462   4.523  0.4520 -0.2035  0.0750
 2393TIP3   OH2 7142   0.461   3.919   3.510  0.2616 -0.1384 -0.6670
 2393TIP3    H1 7143   0.452   3.932   3.416  0.1734  2.3352 -0.3826
 2393TIP3    H2 7144   0.377   3.882   3.537  0.4252 -1.2397 -1.5731
 2394TIP3   OH2 7145   6.314   2.197   2.560 -0.5758  0.3870 -0.6240
 2394TIP3    H1 7146   6.262   2.208   2.481  0.5238 -0.7537 -1.5530
 2394TIP3    H2 7147   6.250   2.183   2.630 -1.5571  1.3086 -1.3021
 2395TIP3   OH2 7148   3.322   1.091   0.764 -1.0100 -0.1432  0.6374
 2395TIP3    H1 7149   3.384   1.102   0.691 -1.1501  0.3490  0.5933
 2395TIP3    H2 7150   3.261   1.024   0.733 -0.8502 -0.2035  0.4462
 2396TIP3   OH2 7151   6.623   4.169   5.703 -0.1514  0.1421 -0.1471
 2396TIP3    H1 7152   6.602   4.098   5.763 -0.8620 -0.1975 -0.7787
 2396TIP3    H2 7153   6.709   4.146   5.668 -0.8816 -1.0550 -1.2446
 2397TIP3   OH2 7154   0.386   3.463   5.552 -0.0836 -0.0088 -0.5202
 2397TIP3    H1 7155   0.358   3.384   5.505 -0.9659  0.1087 -0.2214
 2397TIP3    H2 7156   0.350   3.452   5.640 -0.3681  0.8012 -0.5243
 2398TIP3   OH2 7157   6.805   5.287   5.088 -0.1061  0.3804 -0.0962
 2398TIP3    H1 7158   6.868   5.258   5.022  1.0947  0.1481  1.1026
 2398TIP3    H2 7159   6.733   5.324   5.038  0.6927  0.0570 -1.5341
 2399TIP3   OH2 7160   2.230   4.944   1.122 -0.3540 -0.1845 -0.2271
 2399TIP3    H1 7161   2.253   5.032   1.092 -1.1392 -0.3796 -1.4641
 2399TIP3    H2 7162   2.248   4.945   1.216  0.6969  0.9479 -0.4167
 2400TIP3   OH2 7163   6.406   2.597   1.129  0.4011 -0.5067  0.2456
 2400TIP3    H1 7164   6.493   2.572   1.161  0.1405 -0.6757  0.8298
 2400TIP3    H2 7165   6.386   2.679   1.173  0.2590 -0.4700  0.1161
 2401TIP3   OH2 7166   5.071   5.720   1.762  0.3360  0.4183  0.0305
 2401TIP3    H1 7167   5.144   5.764   1.806 -0.4864  1.7654  0.1125
 2401TIP3    H2 7168   5.074   5.753   1.672  0.7627 -0.7417 -0.4002
 2402TIP3   OH2 7169   2.360   1.647   3.748 -0.1949 -0.5269  0.3332
 2402TIP3    H1 7170   2.309   1.715   3.793 -1.2569 -1.3301  0.3759
 2402TIP3    H2 7171   2.421   1.696   3.693 -0.0381  0.4622  1.3449
 2403TIP3   OH2 7172   4.531   2.492   5.517 -0.0356  0.4523 -0.7670
 2403TIP3    H1 7173   4.569   2.531   5.595  1.5543 -0.6514 -0.9426
 2403TIP3    H2 7174   4.592   2.513   5.447 -1.1175  0.8840 -1.6012
 2404TIP3   OH2 7175   6.102   5.694   0.608 -0.6661  0.3517 -0.7275
 2404TIP3    H1 7176   6.034   5.627   0.607 -1.1582  0.6552  2.0899
 2404TIP3    H2 7177   6.055   5.777   0.602 -0.4044  0.5181 -0.5558
 2405TIP3   OH2 7178   1.233   4.651   1.115  0.4009 -0.5522 -0.7839
 2405TIP3    H1 7179   1.287   4.644   1.194 -1.2500  0.6757  0.5286
 2405TIP3    H2 7180   1.242   4.566   1.072  0.9491 -1.4405  0.9968
 2406TIP3   OH2 7181   6.805   6.469   3.560  0.5491  0.3878 -0.1591
 2406TIP3    H1 7182   6.754   6.550   3.571  0.0243  0.0949 -0.4256
 2406TIP3    H2 7183   6.848   6.457   3.645 -1.0183 -0.1680  0.5964
 2407TIP3   OH2 7184   3.283   4.368   3.434  1.0962 -0.3811  0.4410
 2407TIP3    H1 7185   3.288   4.458   3.402 -2.7003 -0.7989 -1.9456
 2407TIP3    H2 7186   3.237   4.375   3.517  0.1131 -0.1132 -0.1082
 2408TIP3   OH2 7187   1.914   0.975   1.771  0.9111  0.1505 -0.0337
 2408TIP3    H1 7188   1.843   0.990   1.708  2.2865  1.9435 -1.2679
 2408TIP3    H2 7189   1.960   0.897   1.738  0.2458 -0.3071  0.1040
 2409TIP3   OH2 7190   6.451   6.400   0.669  0.5118  0.2945 -0.6741
 2409TIP3    H1 7191   6.389   6.447   0.724  1.4383 -0.8622  1.4508
 2409TIP3    H2 7192   6.465   6.316   0.714  2.4762 -0.0882 -1.8665
 2410TIP3   OH2 7193   0.098   6.360   5.380 -0.2704 -0.2720  0.1277
 2410TIP3    H1 7194   0.110   6.285   5.438 -1.6748 -1.5038 -1.0803
 2410TIP3    H2 7195   0.018   6.402   5.412 -1.9586 -1.8590 -1.7058
 2411TIP3   OH2 7196   4.165   1.513   2.450  0.1164 -0.0191 -0.0401
 2411TIP3    H1 7197   4.118   1.549   2.374  0.1281 -0.5072 -0.2771
 2411TIP3    H2 7198   4.196   1.428   2.422  2.1053  0.7204 -0.2643
 2412TIP3   OH2 7199   1.510   5.328   2.559  0.6633 -0.4182 -0.2518
 2412TIP3    H1 7200   1.432   5.286   2.595  0.2533  0.6194  0.1088
 2412TIP3    H2 7201   1.493   5.422   2.567  1.7732 -0.1703 -0.5578
 2413TIP3   OH2 7202   1.847   6.006   2.149 -0.5557 -0.4972 -0.1854
 2413TIP3    H1 7203   1.917   6.051   2.101 -1.7178 -1.0010 -2.4679
 2413TIP3    H2 7204   1.893   5.948   2.210  1.0429 -0.9793 -1.7774
 2414TIP3   OH2 7205   5.224   0.218   1.321 -0.6309  0.1332 -0.1617
 2414TIP3    H1 7206   5.150   0.161   1.300 -0.3367 -0.4258  0.2731
 2414TIP3    H2 7207   5.192   0.306   1.306 -2.0150  0.0283  1.8417
 2415TIP3   OH2 7208   6.944   6.676   2.272  0.5550 -0.3820  0.6721
 2415TIP3    H1 7209   6.996   6.702   2.347  0.2605  0.0215  0.7381
 2415TIP3    H2 7210   6.899   6.596   2.300  2.1774 -1.5385  0.1523
 2416TIP3   OH2 7211   4.293   6.043   0.932 -0.0723  0.3596 -0.2204
 2416TIP3    H1 7212   4.385   6.022   0.944  0.1575  0.7982 -1.1339
 2416TIP3    H2 7213   4.293   6.132   0.896 -0.7457 -0.3790 -2.1604
 2417TIP3   OH2 7214   0.238   5.769   2.308 -0.7043  0.2968  0.3489
 2417TIP3    H1 7215   0.174   5.770   2.380 -1.5489  3.1895 -0.2970
 2417TIP3    H2 7216   0.203   5.832   2.245  0.1947 -1.8307 -2.4867
 2418TIP3   OH2 7217   2.690   2.035   5.443 -0.3670  0.2185 -0.4013
 2418TIP3    H1 7218   2.679   2.062   5.352 -0.8425  0.3906 -0.2951
 2418TIP3    H2 7219   2.742   2.104   5.483 -0.3928  0.2821 -0.4769
 2419TIP3   OH2 7220   1.440   4.035   2.768 -0.5727  0.6805  0.6715
 2419TIP3    H1 7221   1.492   3.957   2.790  0.7273  1.0612 -0.8460
 2419TIP3    H2 7222   1.452   4.094   2.843 -1.0515 -0.3099  1.5458
 2420TIP3   OH2 7223   5.131   4.696   3.352 -0.5730  0.1067 -0.1639
 2420TIP3    H1 7224   5.193   4.623   3.355  1.7524  1.9006 -1.2920
 2420TIP3    H2 7225   5.127   4.720   3.260  1.2036  3.2729  0.4312
 2421TIP3   OH2 7226   4.331   1.567   2.102  0.6153 -0.0980 -0.3356
 2421TIP3    H1 7227   4.321   1.620   2.023  0.0709  0.2614 -0.0339
 2421TIP3    H2 7228   4.299   1.623   2.173 -0.3794 -0.9717 -0.0576
 2422TIP3   OH2 7229   6.386   2.028   5.371  0.9546 -0.1053  0.1604
 2422TIP3    H1 7230   6.466   1.976   5.365  0.1372 -1.8127  2.7245
 2422TIP3    H2 7231   6.414   2.110   5.412  1.6007 -0.0600 -0.3415
 2423TIP3   OH2 7232   1.805   3.081   5.335 -0.0186 -0.1231  0.5766
 2423TIP3    H1 7233   1.790   2.997   5.379 -3.9107  0.8086  1.3835
 2423TIP3    H2 7234   1.848   3.135   5.402 -1.3500 -0.2392  1.5734
 2424TIP3   OH2 7235   6.701   0.603   5.121 -0.3916 -0.2688 -0.4994
 2424TIP3    H1 7236   6.658   0.657   5.055 -1.2187  1.6498  1.4639
 2424TIP3    H2 7237   6.777   0.654   5.148  0.0366 -1.0969 -0.1041
 2425TIP3   OH2 7238   3.757   1.004   3.524  0.0368 -0.1281  0.5677
 2425TIP3    H1 7239   3.677   0.953   3.538 -0.0052  0.2776  1.9445
 2425TIP3    H2 7240   3.819   0.941   3.487 -0.3787 -0.8943  1.1358
 2426TIP3   OH2 7241   0.490   1.365   4.212 -0.9366 -0.3759 -0.1944
 2426TIP3    H1 7242   0.490   1.458   4.192  0.4862 -0.2725  0.2470
 2426TIP3    H2 7243   0.557   1.328   4.154 -0.3311 -0.8566  0.8010
 2427TIP3   OH2 7244   1.533   0.864   1.365  0.6075  0.2654  0.0606
 2427TIP3    H1 7245   1.532   0.898   1.276 -1.4019  1.2845  0.3873
 2427TIP3    H2 7246   1.490   0.779   1.359 -1.9343  1.4271  0.3224
 2428TIP3   OH2 7247   0.425   2.023   3.301 -0.2175  0.0125  0.0633
 2428TIP3    H1 7248   0.480   1.962   3.252 -0.2394 -0.4275  0.5714
 2428TIP3    H2 7249   0.336   1.991   3.287 -0.2632  0.1602  0.0147
 2429TIP3   OH2 7250   2.211   5.592   4.435 -0.4954 -0.1358 -0.1203
 2429TIP3    H1 7251   2.258   5.575   4.517  0.1356 -1.4165 -0.7186
 2429TIP3    H2 7252   2.200   5.505   4.396 -0.1456  0.5281 -1.7464
 2430TIP3   OH2 7253   4.716   1.228   3.570  0.0338  0.3167  0.3288
 2430TIP3    H1 7254   4.733   1.317   3.601  0.6434  0.2269  0.2712
 2430TIP3    H2 7255   4.801   1.184   3.577 -0.0766 -0.0259 -0.4100
 2431TIP3   OH2 7256   5.583   3.276   1.938  0.2925  0.0225  0.1802
 2431TIP3    H1 7257   5.564   3.280   2.031  0.2512  0.3757  0.1606
 2431TIP3    H2 7258   5.540   3.354   1.902  2.6874  1.5227  0.3024
 2432TIP3   OH2 7259   5.883   1.701   5.018 -0.1508  0.5425  0.6037
 2432TIP3    H1 7260   5.807   1.657   4.981  0.1001  0.3746  0.2811
 2432TIP3    H2 7261   5.853   1.733   5.103 -0.9144  1.4442  0.0141
 2433TIP3   OH2 7262   1.812   1.584   3.661  0.5669 -0.2837 -0.5627
 2433TIP3    H1 7263   1.908   1.582   3.661  0.5903  0.3959 -1.3613
 2433TIP3    H2 7264   1.789   1.612   3.750  1.1906  1.9386 -1.0472
 2434TIP3   OH2 7265   5.166   3.361   0.412  0.0404  0.5827  0.1432
 2434TIP3    H1 7266   5.201   3.295   0.471 -0.7199  0.5819  0.6047
 2434TIP3    H2 7267   5.216   3.350   0.331  1.2062  0.6994  0.8343
 2435TIP3   OH2 7268   0.236   2.898   3.315  0.0866 -0.1661 -0.5692
 2435TIP3    H1 7269   0.162   2.956   3.336 -1.0388 -1.3043 -1.2704
 2435TIP3    H2 7270   0.196   2.813   3.299  1.8649 -1.8395  2.8092
 2436TIP3   OH2 7271   1.791   4.664   2.837 -0.1541 -0.3999  0.2958
 2436TIP3    H1 7272   1.810   4.592   2.897  1.5502 -0.6500 -0.4826
 2436TIP3    H2 7273   1.813   4.743   2.886  2.9040 -0.6641 -0.4512
 2437TIP3   OH2 7274   5.713   5.209   0.235  0.4908 -0.3296  1.2911
 2437TIP3    H1 7275   5.689   5.117   0.225 -1.5016  0.2158  0.5177
 2437TIP3    H2 7276   5.762   5.229   0.155 -1.9370  0.0352 -0.2454
 2438TIP3   OH2 7277   1.425   2.203   5.342  0.3905  0.5801  0.0802
 2438TIP3    H1 7278   1.450   2.111   5.336 -0.1083  0.4854 -0.7077
 2438TIP3    H2 7279   1.487   2.249   5.285 -1.2738  0.3079 -2.1310
 2439TIP3   OH2 7280   0.325   4.094   2.480 -0.6592 -0.2040  0.4288
 2439TIP3    H1 7281   0.317   4.032   2.408 -0.4727 -1.7188  1.6329
 2439TIP3    H2 7282   0.235   4.111   2.507 -0.8614  1.9558 -1.3720
 2440TIP3   OH2 7283   3.672   1.854   2.348 -0.4627 -0.6549  0.6615
 2440TIP3    H1 7284   3.607   1.904   2.396  0.4175  0.1953  1.0015
 2440TIP3    H2 7285   3.689   1.777   2.402 -0.5032 -0.4092  1.0202
 2441TIP3   OH2 7286   3.324   5.478   3.451  0.5227 -0.0878 -0.0638
 2441TIP3    H1 7287   3.306   5.536   3.524 -0.3920  1.2959 -1.3266
 2441TIP3    H2 7288   3.279   5.396   3.473  0.3862  0.2563  0.9712
 2442TIP3   OH2 7289   1.376   3.459   2.355  0.0091 -0.0864  0.0616
 2442TIP3    H1 7290   1.367   3.385   2.295 -1.5920 -1.0176  1.3612
 2442TIP3    H2 7291   1.319   3.437   2.429 -0.8887  2.6606  0.2942
 2443TIP3   OH2 7292   1.076   1.245   2.269  0.2897 -0.2525  0.7209
 2443TIP3    H1 7293   1.073   1.157   2.233  2.1878 -0.6194  1.3262
 2443TIP3    H2 7294   1.017   1.296   2.214 -1.1734 -1.9634  0.6276
 2444TIP3   OH2 7295   7.103   3.079   4.981  0.2942 -0.2432  0.0978
 2444TIP3    H1 7296   7.143   3.103   5.065 -0.2367  2.0396 -0.2433
 2444TIP3    H2 7297   7.014   3.114   4.986  0.9299  1.9452 -2.2090
 2445TIP3   OH2 7298   1.317   3.110   5.730 -0.4844 -0.3778 -0.2943
 2445TIP3    H1 7299   1.408   3.088   5.749 -0.0511  0.1335 -1.6636
 2445TIP3    H2 7300   1.293   3.053   5.657 -1.9382 -1.9559  1.3304
 2446TIP3   OH2 7301   6.830   6.222   0.759  0.2829 -0.4358  0.4791
 2446TIP3    H1 7302   6.794   6.133   0.754  1.5184 -0.9643  0.5116
 2446TIP3    H2 7303   6.806   6.262   0.676  0.2901 -1.0475  0.1737
 2447TIP3   OH2 7304   5.704   2.721   5.665 -0.2426  0.4601  0.4780
 2447TIP3    H1 7305   5.617   2.691   5.690 -1.0919  0.7294 -1.9216
 2447TIP3    H2 7306   5.764   2.661   5.708 -1.7129 -1.3492  0.1086
 2448TIP3   OH2 7307   0.032   1.234   0.826  0.2016 -0.4640 -0.5306
 2448TIP3    H1 7308   0.111   1.260   0.873 -0.6517  1.5446 -0.1407
 2448TIP3    H2 7309   0.028   1.292   0.750 -0.2830 -1.3544 -1.2111
 2449TIP3   OH2 7310   4.597   0.104   3.134 -0.1382  0.5478  0.3414
 2449TIP3    H1 7311   4.551   0.020   3.128  1.1536 -0.1412 -0.5001
 2449TIP3    H2 7312   4.540   0.165   3.087  0.2046 -0.4956 -1.5506
 2450TIP3   OH2 7313   0.240   4.859   1.225 -0.4074 -0.0559 -0.1825
 2450TIP3    H1 7314   0.202   4.931   1.275 -0.5784  0.9478 -1.6876
 2450TIP3    H2 7315   0.289   4.902   1.154 -2.0163 -1.3755 -2.2256
 2451TIP3   OH2 7316   2.841   1.729   2.612  0.2545 -0.1596 -0.3830
 2451TIP3    H1 7317   2.856   1.801   2.550  0.6896  0.1802  0.1054
 2451TIP3    H2 7318   2.756   1.750   2.652 -0.2077 -0.5820 -1.1289
 2452TIP3   OH2 7319   4.857   1.654   4.241 -0.6532  0.5496  0.3653
 2452TIP3    H1 7320   4.849   1.734   4.293  1.0351  0.9689  0.0497
 2452TIP3    H2 7321   4.861   1.685   4.150  3.3916  0.5324  0.3663
 2453TIP3   OH2 7322   1.011   2.737   5.393 -0.0959  0.5987  0.5667
 2453TIP3    H1 7323   1.042   2.827   5.402 -1.8688  1.1162  1.9131
 2453TIP3    H2 7324   1.056   2.705   5.315  1.5583  2.2093  0.7834
 2454TIP3   OH2 7325   3.860   2.045   3.804  0.6592  0.0344 -0.0373
 2454TIP3    H1 7326   3.766   2.028   3.814 -0.1024  3.3803 -0.3245
 2454TIP3    H2 7327   3.902   1.985   3.865 -1.6571 -1.5278  0.1441
 2455TIP3   OH2 7328   3.122   6.741   3.405 -0.6170 -0.5941 -0.6590
 2455TIP3    H1 7329   3.120   6.828   3.445  0.1560  0.7788 -3.3309
 2455TIP3    H2 7330   3.146   6.682   3.477 -2.0483  1.2259  1.4497
 2456TIP3   OH2 7331   2.941   3.333   1.575  0.2119  0.3692  0.4271
 2456TIP3    H1 7332   2.942   3.290   1.661 -1.8003  0.6471  0.6259
 2456TIP3    H2 7333   2.855   3.314   1.539  1.4259 -0.7671 -2.1260
 2457TIP3   OH2 7334   2.164   5.662   0.226 -0.0457 -0.3326 -0.2630
 2457TIP3    H1 7335   2.088   5.693   0.274 -0.2758 -0.7450 -0.3603
 2457TIP3    H2 7336   2.224   5.737   0.226 -0.2914 -0.1307  0.1389
 2458TIP3   OH2 7337   4.044   1.315   1.182 -0.0655  0.3804  0.0941
 2458TIP3    H1 7338   4.110   1.264   1.136  0.3924 -0.2812  1.4415
 2458TIP3    H2 7339   4.052   1.289   1.274 -0.4368  2.2076  0.6913
 2459TIP3   OH2 7340   3.325   5.075   2.811  0.1279  0.8383  0.2201
 2459TIP3    H1 7341   3.337   5.150   2.753 -0.8285  0.6322 -0.2691
 2459TIP3    H2 7342   3.339   4.999   2.754 -1.3410  0.6250  0.1137
 2460TIP3   OH2 7343   7.167   4.458   5.412 -0.0445  0.7438  0.2794
 2460TIP3    H1 7344   7.096   4.395   5.404  0.2758  0.5078 -0.8416
 2460TIP3    H2 7345   7.123   4.543   5.422 -0.5403  0.7324 -1.3988
 2461TIP3   OH2 7346   3.923   0.357   5.744 -0.3183  0.7622  0.0545
 2461TIP3    H1 7347   4.002   0.403   5.773  0.2876  1.0824 -1.9723
 2461TIP3    H2 7348   3.952   0.268   5.727  0.0457  1.2432 -2.1852
 2462TIP3   OH2 7349   1.322   3.692   3.984  0.2424 -0.0945  0.3933
 2462TIP3    H1 7350   1.376   3.760   4.024  0.8061  0.3409 -1.0256
 2462TIP3    H2 7351   1.264   3.739   3.925 -0.8744 -0.6770  0.9905
 2463TIP3   OH2 7352   6.268   4.372   3.839 -0.1430 -0.5180 -0.3924
 2463TIP3    H1 7353   6.273   4.298   3.778 -0.7433  0.3884 -1.5885
 2463TIP3    H2 7354   6.313   4.443   3.793 -0.5861  0.1767  0.2327
 2464TIP3   OH2 7355   7.186   2.013   0.757  0.7099  0.6324 -0.5112
 2464TIP3    H1 7356   7.143   2.070   0.821  0.8888  0.6097 -0.3679
 2464TIP3    H2 7357   7.273   2.052   0.745  0.7768  0.4772 -0.5299
 2465TIP3   OH2 7358   5.896   1.932   3.819 -0.5210 -0.3744  0.4954
 2465TIP3    H1 7359   5.985   1.965   3.809 -0.2918 -0.9833  0.5235
 2465TIP3    H2 7360   5.850   1.964   3.741 -0.7738  1.5072  1.3676
 2466TIP3   OH2 7361   3.802   5.987   1.062  0.4004  0.1295  0.1556
 2466TIP3    H1 7362   3.792   5.894   1.082  1.5624  0.0452  0.4593
 2466TIP3    H2 7363   3.718   6.014   1.026  0.6201 -1.4846 -1.6907
 2467TIP3   OH2 7364   1.881   0.027   1.172 -0.0439 -0.0076  0.4932
 2467TIP3    H1 7365   1.791   0.031   1.204 -0.3893  0.1687 -0.4768
 2467TIP3    H2 7366   1.886   0.094   1.105  1.0083  0.4328  0.9886
 2468TIP3   OH2 7367   4.977   6.305   1.279  0.0895  0.2536  0.1553
 2468TIP3    H1 7368   5.026   6.331   1.201  0.4238  1.4955  0.7582
 2468TIP3    H2 7369   4.945   6.388   1.316 -1.4694 -0.4395  0.4313
 2469TIP3   OH2 7370   2.868   6.130   0.637  0.1662 -0.0892 -0.0047
 2469TIP3    H1 7371   2.861   6.074   0.560  0.0185  1.0869 -0.8643
 2469TIP3    H2 7372   2.788   6.114   0.686  0.1388 -0.6386 -0.2144
 2470TIP3   OH2 7373   5.690   1.807   4.103 -0.3672 -0.0978 -0.7589
 2470TIP3    H1 7374   5.606   1.817   4.149  1.2311 -0.8100  2.6580
 2470TIP3    H2 7375   5.718   1.897   4.086 -0.1554  0.3614  1.5983
 2471TIP3   OH2 7376   5.368   2.532   2.637 -0.0275 -0.7788 -0.0763
 2471TIP3    H1 7377   5.295   2.590   2.618 -0.9140 -0.4898  3.4603
 2471TIP3    H2 7378   5.446   2.582   2.610 -0.9604 -0.2075 -1.9082
 2472TIP3   OH2 7379   0.298   5.230   0.832  0.3827  0.6316  0.2880
 2472TIP3    H1 7380   0.332   5.319   0.820 -0.2058  0.8811  0.4295
 2472TIP3    H2 7381   0.323   5.206   0.921 -1.5210  1.5934  1.1270
 2473TIP3   OH2 7382   3.613   4.144   3.428  0.2105  0.0790 -0.1916
 2473TIP3    H1 7383   3.529   4.118   3.466  0.3654 -0.6697 -0.3474
 2473TIP3    H2 7384   3.668   4.165   3.503 -0.2313  0.9654 -0.1017
 2474TIP3   OH2 7385   0.810   2.968   3.773  0.2265 -0.0219 -0.3928
 2474TIP3    H1 7386   0.748   2.997   3.839  0.9573  1.1791 -0.2150
 2474TIP3    H2 7387   0.893   2.962   3.819  0.3739 -1.0819 -0.7561
 2475TIP3   OH2 7388   7.093   3.870   4.275  0.4106 -0.0129 -0.3983
 2475TIP3    H1 7389   7.165   3.919   4.315  1.1915  1.6297 -3.4965
 2475TIP3    H2 7390   7.013   3.910   4.311  1.0573  1.0237 -0.0705
 2476TIP3   OH2 7391   4.945   1.314   3.730 -0.1506  0.7166 -0.2156
 2476TIP3    H1 7392   4.889   1.349   3.799 -0.1017  1.1359 -0.3844
 2476TIP3    H2 7393   4.977   1.231   3.765 -1.5964  0.0151 -0.4762
 2477TIP3   OH2 7394   6.446   4.529   0.904  0.3599  0.3282 -0.4718
 2477TIP3    H1 7395   6.504   4.605   0.905 -0.4832  0.9838  1.0020
 2477TIP3    H2 7396   6.378   4.550   0.968 -0.0689 -1.5372 -0.2774
 2478TIP3   OH2 7397   6.034   0.046   2.210  0.0630  0.1959  0.1420
 2478TIP3    H1 7398   6.016   0.139   2.220 -0.7714  0.0440  0.1358
 2478TIP3    H2 7399   5.977   0.018   2.138 -0.8335 -0.6314  1.1469
 2479TIP3   OH2 7400   6.534   4.748   3.228 -0.2756 -0.0104 -0.0709
 2479TIP3    H1 7401   6.453   4.700   3.247  0.1668 -0.7100  0.0638
 2479TIP3    H2 7402   6.581   4.749   3.311  0.6825 -1.1974 -0.5661
 2480TIP3   OH2 7403   1.707   5.408   4.087 -0.0832 -0.4306 -0.2909
 2480TIP3    H1 7404   1.696   5.329   4.139 -0.4807 -0.5127 -0.4991
 2480TIP3    H2 7405   1.658   5.392   4.006  0.4192 -0.2556 -0.6411
 2481TIP3   OH2 7406   5.374   5.204   2.570  0.1445  0.2219  0.4288
 2481TIP3    H1 7407   5.426   5.126   2.589  0.2202 -0.0024 -0.6096
 2481TIP3    H2 7408   5.351   5.195   2.477 -0.0082  1.3478  0.3436
 2482TIP3   OH2 7409   6.364   2.981   0.775  0.4156  0.5383 -0.5996
 2482TIP3    H1 7410   6.450   3.015   0.753  0.1819  0.8136 -1.1003
 2482TIP3    H2 7411   6.381   2.895   0.814  0.8630  0.1519 -1.6086
 2483TIP3   OH2 7412   0.543   5.445   2.412  0.0422 -0.1557  0.0800
 2483TIP3    H1 7413   0.523   5.356   2.441  0.9942 -0.2333  0.5194
 2483TIP3    H2 7414   0.638   5.451   2.417  0.0132  0.7655 -0.3240
 2484TIP3   OH2 7415   1.853   3.298   0.533  0.1095  0.4594  0.2460
 2484TIP3    H1 7416   1.921   3.316   0.597 -0.6049  0.1961  1.0980
 2484TIP3    H2 7417   1.821   3.385   0.508  1.7505  0.6711 -1.3023
 2485TIP3   OH2 7418   3.375   0.928   2.623  0.4529  0.1570  0.5135
 2485TIP3    H1 7419   3.378   0.921   2.527 -0.4295  0.7304  0.4314
 2485TIP3    H2 7420   3.456   0.972   2.646  0.0021  1.3501 -0.1128
 2486TIP3   OH2 7421   2.463   6.269   4.751  0.0882 -0.2374  0.1137
 2486TIP3    H1 7422   2.528   6.304   4.690 -0.0883 -0.6251 -0.3034
 2486TIP3    H2 7423   2.444   6.342   4.810  0.4794  0.0526 -0.1110
 2487TIP3   OH2 7424   4.200  -0.021   4.845 -0.4009 -0.0046 -0.3340
 2487TIP3    H1 7425   4.112   0.011   4.866 -0.0212  1.3187 -0.6790
 2487TIP3    H2 7426   4.250   0.058   4.825  0.8231 -0.7591 -0.3378
 2488TIP3   OH2 7427   3.535   6.551   5.391 -0.0414  0.9670 -0.0457
 2488TIP3    H1 7428   3.551   6.562   5.485  0.7053 -0.7004  0.0559
 2488TIP3    H2 7429   3.611   6.589   5.349  0.3658  0.3367  0.1048
 2489TIP3   OH2 7430   6.691   0.656   2.697 -0.4976  0.2344 -0.4849
 2489TIP3    H1 7431   6.634   0.715   2.747  0.8217  1.7157 -0.6225
 2489TIP3    H2 7432   6.759   0.631   2.759 -2.0363 -2.8446  0.1792
 2490TIP3   OH2 7433   5.887   3.452   0.363 -0.4361  0.4357  0.0621
 2490TIP3    H1 7434   5.877   3.495   0.278  0.9475  0.9529  0.1334
 2490TIP3    H2 7435   5.944   3.377   0.346  1.1628  1.4374  0.7721
 2491TIP3   OH2 7436   2.398   4.621   4.196  0.0307  0.5731 -0.3533
 2491TIP3    H1 7437   2.343   4.681   4.246  0.0196  0.4972 -0.2746
 2491TIP3    H2 7438   2.437   4.676   4.127  1.9053  1.2362  1.1340
 2492TIP3   OH2 7439   6.610   0.073   4.624  0.0454 -0.2437  0.2895
 2492TIP3    H1 7440   6.582  -0.004   4.674 -2.1287  0.0352 -0.4022
 2492TIP3    H2 7441   6.617   0.042   4.534 -1.8744  0.5645 -0.1686
 2493TIP3   OH2 7442   0.357   6.747   3.621 -0.1660  0.1795  0.1055
 2493TIP3    H1 7443   0.301   6.760   3.698 -1.2127  0.4137 -0.6753
 2493TIP3    H2 7444   0.445   6.738   3.657 -0.7685 -0.8589  1.4138
 2494TIP3   OH2 7445   4.254   6.620   2.461  0.4521  0.0155 -0.4203
 2494TIP3    H1 7446   4.195   6.679   2.415  1.0277  0.0392 -1.1477
 2494TIP3    H2 7447   4.314   6.588   2.394  1.8682  0.7347  0.4434
 2495TIP3   OH2 7448   4.051   6.343   4.950  0.0017 -0.0474  0.1783
 2495TIP3    H1 7449   4.119   6.295   4.902 -0.0321  1.4496 -1.4654
 2495TIP3    H2 7450   4.070   6.327   5.042  2.0019 -0.4498 -0.2666
 2496TIP3   OH2 7451   4.056   2.367   3.484  0.2460 -0.2835 -0.0258
 2496TIP3    H1 7452   4.088   2.413   3.406 -0.1101 -2.5341 -1.5799
 2496TIP3    H2 7453   4.122   2.299   3.500  0.1574 -0.0479  1.4922
 2497TIP3   OH2 7454   4.915   4.043   3.895 -0.2474  0.1111  0.2849
 2497TIP3    H1 7455   4.885   4.092   3.971 -1.9563 -1.5883  0.7943
 2497TIP3    H2 7456   4.978   3.980   3.930 -0.4838 -0.1816  0.1940
 2498TIP3   OH2 7457   3.331   5.963   2.536  0.3703 -0.0901  0.4342
 2498TIP3    H1 7458   3.306   5.929   2.450  0.9524 -1.3375  0.7267
 2498TIP3    H2 7459   3.358   5.885   2.586  1.7123  0.7868  1.1655
 2499TIP3   OH2 7460   2.066   5.552   4.890  0.0943  0.5846  0.0577
 2499TIP3    H1 7461   2.104   5.636   4.916 -0.0821  0.8752 -0.6101
 2499TIP3    H2 7462   1.976   5.556   4.921 -0.8448  1.9052 -2.5605
 2500TIP3   OH2 7463   0.698   5.920   1.945 -0.2787 -0.1840  0.3301
 2500TIP3    H1 7464   0.731   5.863   2.014 -1.8688  0.1284  1.3943
 2500TIP3    H2 7465   0.606   5.935   1.967 -0.4275  1.1942 -1.0084
 2501TIP3   OH2 7466   0.887   6.045   5.334 -0.3256  0.4099 -0.2173
 2501TIP3    H1 7467   0.911   5.981   5.268  0.6515  0.4818  0.0385
 2501TIP3    H2 7468   0.900   6.130   5.291 -1.2904  0.4518 -0.4490
 2502TIP3   OH2 7469   1.640   6.506   1.647 -0.2761  0.2275  0.2559
 2502TIP3    H1 7470   1.621   6.581   1.703  1.4701 -0.0085  1.2380
 2502TIP3    H2 7471   1.695   6.542   1.577  0.4139 -0.0690  0.6304
 2503TIP3   OH2 7472   1.317   3.750   2.593  0.6499 -0.0144 -0.3534
 2503TIP3    H1 7473   1.255   3.821   2.607 -1.3940 -1.3158 -2.0465
 2503TIP3    H2 7474   1.291   3.682   2.655  1.3993  0.0086 -0.0030
 2504TIP3   OH2 7475   2.556   5.982   2.446 -0.2504 -0.2637 -0.0341
 2504TIP3    H1 7476   2.477   6.011   2.400 -0.6212 -1.2313 -0.0236
 2504TIP3    H2 7477   2.621   5.970   2.377 -0.8556 -1.8872 -0.3690
 2505TIP3   OH2 7478   1.749   3.953   4.939  0.1387 -0.0034  0.2334
 2505TIP3    H1 7479   1.789   3.869   4.913 -3.1486 -0.9730 -2.3237
 2505TIP3    H2 7480   1.671   3.928   4.987 -1.8812  1.3947 -2.0826
 2506TIP3   OH2 7481   1.718   4.799   4.317 -0.6472  0.4357  0.3119
 2506TIP3    H1 7482   1.684   4.835   4.400 -0.0135  1.9249 -0.0459
 2506TIP3    H2 7483   1.800   4.757   4.341  0.1515  1.9174  0.2915
 2507TIP3   OH2 7484   7.063   1.223   2.963 -0.4153  0.0949 -0.1709
 2507TIP3    H1 7485   7.124   1.228   2.890 -1.7890 -0.0355 -1.3810
 2507TIP3    H2 7486   7.003   1.296   2.950 -1.5547 -0.7815 -0.0136
 2508TIP3   OH2 7487   6.927   5.514   1.717  0.2885  0.7150 -0.3546
 2508TIP3    H1 7488   7.021   5.514   1.699 -0.1823  1.6214 -3.4596
 2508TIP3    H2 7489   6.904   5.607   1.723 -0.5240  0.5283 -0.4594
 2509TIP3   OH2 7490   3.962   0.215   4.610  0.0744 -0.1621  0.0564
 2509TIP3    H1 7491   3.960   0.243   4.702  1.1931 -0.9260  0.3404
 2509TIP3    H2 7492   3.959   0.120   4.614 -0.9175 -0.1840 -0.7707
 2510TIP3   OH2 7493   6.635   3.603   2.709  0.1185 -0.3939  0.1338
 2510TIP3    H1 7494   6.685   3.528   2.742 -1.5659 -1.2053  1.0119
 2510TIP3    H2 7495   6.672   3.678   2.755  0.4882 -0.9692  0.8136
 2511TIP3   OH2 7496   1.887   1.833   5.121  0.0364 -0.5145 -0.0392
 2511TIP3    H1 7497   1.944   1.873   5.187 -1.1548  0.7195  0.2785
 2511TIP3    H2 7498   1.903   1.884   5.042 -1.8388  0.9641  0.4895
 2512TIP3   OH2 7499   6.007   1.937   4.923 -0.1721 -0.5557 -0.0561
 2512TIP3    H1 7500   5.918   1.902   4.921 -0.0344 -0.9049 -2.0735
 2512TIP3    H2 7501   5.998   2.023   4.964 -1.3739 -0.7569  0.1392
 2513TIP3   OH2 7502   6.274   3.869   5.034 -0.9213  0.2425 -0.3587
 2513TIP3    H1 7503   6.230   3.908   5.110 -0.7307  0.0677 -0.1573
 2513TIP3    H2 7504   6.276   3.940   4.969 -0.3236  0.6632  0.1067
 2514TIP3   OH2 7505   6.068   5.452   2.027 -0.2502 -0.4515  0.0590
 2514TIP3    H1 7506   6.134   5.409   1.973  0.2560 -1.4872  1.4562
 2514TIP3    H2 7507   5.985   5.422   1.991  0.0631 -0.4643 -0.6677
 2515TIP3   OH2 7508   4.832   4.342   1.874  0.2429  0.3275 -0.3570
 2515TIP3    H1 7509   4.762   4.295   1.918  0.3864 -0.0567 -0.5381
 2515TIP3    H2 7510   4.905   4.339   1.936 -0.0562  1.1760  0.0523
 2516TIP3   OH2 7511   1.281   3.888   1.948 -0.7211  0.3100  0.2808
 2516TIP3    H1 7512   1.232   3.956   1.902  1.0861  1.2072 -0.3802
 2516TIP3    H2 7513   1.271   3.810   1.893  2.1322  1.5655 -2.2972
 2517TIP3   OH2 7514   2.088   1.773   3.664 -0.0544  0.0431 -0.2811
 2517TIP3    H1 7515   2.075   1.867   3.675 -1.7051 -0.0743 -1.0033
 2517TIP3    H2 7516   2.127   1.764   3.577  1.4238  0.1255  0.3432
 2518TIP3   OH2 7517   4.729   6.177   1.104  0.1633  0.1389  0.2945
 2518TIP3    H1 7518   4.696   6.249   1.157  0.0826  1.7232 -1.8254
 2518TIP3    H2 7519   4.810   6.210   1.065 -0.1059 -0.7379 -1.0667
 2519TIP3   OH2 7520   1.443   4.039   4.928 -0.5188 -0.5012 -0.2450
 2519TIP3    H1 7521   1.497   4.009   4.855 -0.5661 -0.7565 -0.1739
 2519TIP3    H2 7522   1.393   4.112   4.892 -0.5263 -0.6138 -0.4622
 2520TIP3   OH2 7523   3.446   6.393   0.532  0.9421 -0.0390 -0.2970
 2520TIP3    H1 7524   3.434   6.305   0.496  0.7714  0.5201 -1.6618
 2520TIP3    H2 7525   3.514   6.433   0.477 -0.4640  1.3976 -1.0863
 2521TIP3   OH2 7526   1.875   4.243   3.893 -0.0065  0.0941  0.3353
 2521TIP3    H1 7527   1.816   4.168   3.893  0.1658 -0.0435  0.0196
 2521TIP3    H2 7528   1.926   4.233   3.973  1.0066 -0.9220 -0.4087
 2522TIP3   OH2 7529   6.833   0.945   5.833 -0.5486 -0.3533 -0.0479
 2522TIP3    H1 7530   6.739   0.953   5.819 -0.5507  0.9290  0.5795
 2522TIP3    H2 7531   6.872   0.994   5.761 -0.4310  0.9669  0.8787
 2523TIP3   OH2 7532   6.089   1.168   0.511  0.2408 -0.5517  0.1251
 2523TIP3    H1 7533   6.140   1.087   0.508  1.7859  0.3371  1.0498
 2523TIP3    H2 7534   6.155   1.237   0.523 -0.9957  0.8979 -1.0796
 2524TIP3   OH2 7535   3.196   5.939   4.668  0.0900 -0.4792  0.0630
 2524TIP3    H1 7536   3.161   5.909   4.584  1.5427 -1.8429 -0.1049
 2524TIP3    H2 7537   3.150   6.021   4.685 -1.1087 -0.7802 -1.4707
 2525TIP3   OH2 7538   3.984   2.963   2.955  0.2023  0.1251 -0.3636
 2525TIP3    H1 7539   4.023   2.942   2.870  0.4231 -0.2940 -0.1646
 2525TIP3    H2 7540   4.049   3.018   2.998 -0.7445  2.0134 -1.2268
 2526TIP3   OH2 7541   4.347   5.284   2.150  0.2577 -0.2146  0.1836
 2526TIP3    H1 7542   4.317   5.330   2.228  0.9381 -1.1386  1.0189
 2526TIP3    H2 7543   4.323   5.192   2.165  1.4832 -0.6156 -0.1082
 2527TIP3   OH2 7544   6.476   4.855   0.609  0.7575  0.6263 -0.3046
 2527TIP3    H1 7545   6.539   4.905   0.558 -1.2861  3.1712 -0.4990
 2527TIP3    H2 7546   6.395   4.857   0.558  0.3794 -2.5732 -0.0890
 2528TIP3   OH2 7547   1.882   3.815   3.529  0.5976  0.2219  0.1321
 2528TIP3    H1 7548   1.797   3.796   3.489  0.2259  0.6973  0.6820
 2528TIP3    H2 7549   1.931   3.861   3.461  0.6927 -0.6903 -0.4374
 2529TIP3   OH2 7550   5.274   3.799   1.507  0.5523  0.9994  0.0324
 2529TIP3    H1 7551   5.255   3.884   1.468 -1.0914  0.2537 -0.8517
 2529TIP3    H2 7552   5.286   3.740   1.433 -1.4538 -0.1854  0.5944
 2530TIP3   OH2 7553   2.861   3.212   2.461  0.3201  0.3698 -0.2311
 2530TIP3    H1 7554   2.800   3.242   2.394  0.2917  0.4445 -0.1724
 2530TIP3    H2 7555   2.872   3.288   2.519  2.1310  1.0582 -1.4138
 2531TIP3   OH2 7556   3.587   0.087   0.275 -0.0727  0.0204  0.2123
 2531TIP3    H1 7557   3.637   0.022   0.325  3.3869  2.8184  0.7879
 2531TIP3    H2 7558   3.544   0.141   0.342  0.5762  0.8381 -0.0107
 2532TIP3   OH2 7559   4.563   0.570   0.470  0.1721  0.2619  0.4051
 2532TIP3    H1 7560   4.475   0.539   0.450 -0.2257  1.8110 -0.3786
 2532TIP3    H2 7561   4.620   0.519   0.413 -0.3436  0.1402 -0.0129
 2533TIP3   OH2 7562   5.811   1.363   5.042  0.2720 -0.1429  0.8526
 2533TIP3    H1 7563   5.728   1.323   5.068 -0.1959 -0.5673 -1.1246
 2533TIP3    H2 7564   5.872   1.289   5.036  0.4416 -0.0124  0.9444
 2534TIP3   OH2 7565   1.490   4.271   4.232  0.4448  0.4008 -0.3104
 2534TIP3    H1 7566   1.417   4.241   4.179 -0.0410 -0.9195  1.0370
 2534TIP3    H2 7567   1.534   4.191   4.260  0.7609  1.0440  1.1260
 2535TIP3   OH2 7568   4.754   4.703   2.864  0.1008 -0.0928  0.0989
 2535TIP3    H1 7569   4.846   4.684   2.880  0.2663 -0.6177 -1.2970
 2535TIP3    H2 7570   4.756   4.767   2.792 -0.6111  0.2959  0.4228
 2536TIP3   OH2 7571   5.837   6.349   5.818 -0.3097  0.0144  0.6946
 2536TIP3    H1 7572   5.858   6.431   5.863 -2.3892 -0.5311  2.8538
 2536TIP3    H2 7573   5.920   6.303   5.812  0.6242  1.6025  0.8653
 2537TIP3   OH2 7574   6.130   2.837   0.675 -0.4191 -0.1345  0.4025
 2537TIP3    H1 7575   6.212   2.841   0.724 -0.5773 -2.1617  0.9377
 2537TIP3    H2 7576   6.062   2.831   0.743 -0.6369 -3.1452  0.0691
 2538TIP3   OH2 7577   5.723   1.845   5.539  0.1379  0.1798 -0.0642
 2538TIP3    H1 7578   5.783   1.841   5.613 -0.6131  0.6289  0.5866
 2538TIP3    H2 7579   5.675   1.927   5.552 -1.0718 -0.4867 -0.2059
 2539TIP3   OH2 7580   4.602   4.616   1.492  0.1911  0.2708  0.4853
 2539TIP3    H1 7581   4.570   4.582   1.408  0.7148  2.3934 -0.6224
 2539TIP3    H2 7582   4.687   4.574   1.504  1.4808  2.1091 -1.5645
 2540TIP3   OH2 7583   2.505   5.537   4.397  0.1913 -0.4431 -0.5539
 2540TIP3    H1 7584   2.494   5.573   4.309 -2.3867 -0.0242 -0.1464
 2540TIP3    H2 7585   2.593   5.564   4.423  1.1953 -0.9459 -3.1222
 2541TIP3   OH2 7586   5.195   3.151   2.797  0.2666 -0.8384 -0.1185
 2541TIP3    H1 7587   5.146   3.136   2.878 -0.7687 -0.2309 -0.6137
 2541TIP3    H2 7588   5.265   3.212   2.823 -0.5734  0.0386  0.1667
 2542TIP3   OH2 7589   5.543   0.705   0.509 -0.1926 -0.5234  0.4227
 2542TIP3    H1 7590   5.619   0.650   0.528 -1.2120 -1.4126  2.1990
 2542TIP3    H2 7591   5.566   0.791   0.544 -0.2234 -0.9605  1.5739
 2543TIP3   OH2 7592   4.537   4.936   0.777  0.1070  0.7080  0.2769
 2543TIP3    H1 7593   4.444   4.931   0.755  0.0578 -3.0939  0.6282
 2543TIP3    H2 7594   4.545   4.887   0.859  2.3103  1.8428  0.8302
 2544TIP3   OH2 7595   6.142   3.276   4.415  0.0006  0.0455 -0.1257
 2544TIP3    H1 7596   6.106   3.328   4.487 -0.2260  0.1721 -0.3317
 2544TIP3    H2 7597   6.229   3.313   4.400  0.0492  0.0191  0.0805
 2545TIP3   OH2 7598   3.702   2.377   5.156 -0.1958  0.0594 -0.0686
 2545TIP3    H1 7599   3.759   2.370   5.080  1.6976  0.9172  1.2091
 2545TIP3    H2 7600   3.749   2.332   5.226 -0.2106  2.2828  1.4641
 2546TIP3   OH2 7601   5.156   4.592   4.979 -0.0123 -0.0461  0.0363
 2546TIP3    H1 7602   5.196   4.547   4.905  0.6114  0.0385  0.3157
 2546TIP3    H2 7603   5.169   4.534   5.053 -0.3656  0.0080  0.1470
 2547TIP3   OH2 7604   3.780   6.076   2.623 -0.4698 -0.2031  0.2479
 2547TIP3    H1 7605   3.724   6.082   2.699  0.9458  2.0400  1.2384
 2547TIP3    H2 7606   3.869   6.089   2.657  0.1802  1.1986 -1.7686
 2548TIP3   OH2 7607   6.956   3.917   3.642 -0.2899  0.9120 -0.4675
 2548TIP3    H1 7608   6.867   3.927   3.606  0.1789 -1.6837 -2.6695
 2548TIP3    H2 7609   6.942   3.898   3.735 -2.0098  0.7657 -0.7196
 2549TIP3   OH2 7610   4.943   0.524   1.406  0.5806 -0.2687  0.5263
 2549TIP3    H1 7611   4.914   0.492   1.491  0.5699 -3.5075 -0.5722
 2549TIP3    H2 7612   4.862   0.553   1.363  0.2271 -0.9239  0.7346
 2550TIP3   OH2 7613   0.411   5.063   0.117  0.4245 -0.3878 -0.6586
 2550TIP3    H1 7614   0.356   5.107   0.181  1.9082 -1.6449  1.6640
 2550TIP3    H2 7615   0.365   4.982   0.097  1.0271 -1.1245  0.7662
 2551TIP3   OH2 7616   4.810   2.666   4.398 -0.0884  0.3349  0.0664
 2551TIP3    H1 7617   4.831   2.663   4.305 -0.1290  0.6973  0.0450
 2551TIP3    H2 7618   4.812   2.759   4.421 -0.3290  0.2697  0.3698
 2552TIP3   OH2 7619   1.697   6.286   2.259 -0.4672  0.2834 -0.2707
 2552TIP3    H1 7620   1.686   6.207   2.311  0.0185  0.3754 -0.0307
 2552TIP3    H2 7621   1.649   6.353   2.307 -1.9469 -0.1219 -1.1067
 2553TIP3   OH2 7622   4.570   5.645   3.031 -0.1919  0.6830 -0.4073
 2553TIP3    H1 7623   4.631   5.636   3.104  2.2834  0.6934 -2.3676
 2553TIP3    H2 7624   4.489   5.675   3.072  1.3601  1.6080  2.2245
 2554TIP3   OH2 7625   0.071   5.640   3.097  0.0564 -0.1293 -0.3366
 2554TIP3    H1 7626  -0.020   5.647   3.070 -0.1516 -0.3807  0.2818
 2554TIP3    H2 7627   0.072   5.569   3.162  0.8845 -0.9337 -1.1850
 2555TIP3   OH2 7628   5.752   2.853   1.515  0.2180  0.1120 -0.1853
 2555TIP3    H1 7629   5.779   2.815   1.431  0.8669 -0.3109  0.2062
 2555TIP3    H2 7630   5.826   2.837   1.574  0.4733  1.8968  0.0293
 2556TIP3   OH2 7631   5.838   3.648   2.528 -0.4250  0.1723 -0.0503
 2556TIP3    H1 7632   5.893   3.612   2.597  0.0004  1.3728  0.2687
 2556TIP3    H2 7633   5.881   3.621   2.447  0.9453  1.4729  0.1953
 2557TIP3   OH2 7634   2.568   5.650   3.318  0.0062  0.0167 -0.2773
 2557TIP3    H1 7635   2.518   5.717   3.365 -0.9739 -1.1967  0.5158
 2557TIP3    H2 7636   2.644   5.633   3.374  0.4760  0.7410 -0.6863
 2558TIP3   OH2 7637   4.227   2.136   3.493 -0.2169  0.1475 -0.1286
 2558TIP3    H1 7638   4.189   2.159   3.578  0.5670  2.1350 -0.2588
 2558TIP3    H2 7639   4.241   2.041   3.498 -2.1266 -0.1330  1.1260
 2559TIP3   OH2 7640   6.811   2.261   2.658 -0.0531  0.3571 -0.0500
 2559TIP3    H1 7641   6.807   2.189   2.722 -2.0850  1.5481  1.2923
 2559TIP3    H2 7642   6.904   2.282   2.652  0.7387 -2.7649 -1.0278
 2560TIP3   OH2 7643   2.554   5.548   0.662 -0.1687 -0.4401  0.0157
 2560TIP3    H1 7644   2.620   5.617   0.654  0.9881 -1.3273  1.4654
 2560TIP3    H2 7645   2.493   5.565   0.590  1.7159  0.3079 -1.4879
 2561TIP3   OH2 7646   6.891   4.643   2.153  0.3646 -0.4868  0.7406
 2561TIP3    H1 7647   6.889   4.738   2.160  0.4228 -0.4587  0.3737
 2561TIP3    H2 7648   6.922   4.613   2.239  4.1948 -0.0195 -0.3095
 2562TIP3   OH2 7649   4.331   4.443   0.573 -0.2848 -0.2796 -0.0315
 2562TIP3    H1 7650   4.341   4.505   0.501 -1.2022 -0.4021 -0.2766
 2562TIP3    H2 7651   4.420   4.413   0.591  0.0205  0.1584 -0.7547
 2563TIP3   OH2 7652   1.798   0.937   3.184  0.3999  0.0933  0.1256
 2563TIP3    H1 7653   1.879   0.927   3.134 -0.5651 -1.2468 -1.2135
 2563TIP3    H2 7654   1.751   1.008   3.140 -0.9893 -1.8571 -1.7388
 2564TIP3   OH2 7655   1.397   3.310   2.945  0.6406 -0.5508  0.1841
 2564TIP3    H1 7656   1.353   3.233   2.909  0.3998 -0.5037  0.3791
 2564TIP3    H2 7657   1.349   3.330   3.025  1.4281 -0.9015  0.7487
 2565TIP3   OH2 7658   5.545   4.238   3.979 -0.0510 -0.1405  0.6094
 2565TIP3    H1 7659   5.501   4.322   3.971 -0.4502 -0.4010  0.0770
 2565TIP3    H2 7660   5.532   4.213   4.071 -3.5953 -1.5955 -0.1172
 2566TIP3   OH2 7661   3.545   5.593   4.906 -0.5782 -0.0485 -0.0143
 2566TIP3    H1 7662   3.526   5.499   4.913  0.3482 -0.4130 -1.9593
 2566TIP3    H2 7663   3.632   5.598   4.868 -0.6985  1.6158 -0.1515
 2567TIP3   OH2 7664   3.838   3.733   2.238  0.0776  0.0100  0.0388
 2567TIP3    H1 7665   3.934   3.737   2.239  0.0774 -0.0734  1.0673
 2567TIP3    H2 7666   3.816   3.726   2.145  0.9690  2.2915 -0.4036
 2568TIP3   OH2 7667   6.265   6.183   3.610 -0.2082  0.1690 -0.1158
 2568TIP3    H1 7668   6.273   6.133   3.691 -3.4419 -1.8607 -0.8760
 2568TIP3    H2 7669   6.337   6.151   3.555 -0.4868 -1.5959  0.4834
 2569TIP3   OH2 7670   1.621   6.266   1.451  0.1645 -0.0511  0.2493
 2569TIP3    H1 7671   1.709   6.247   1.419  0.7795  2.2991  0.4223
 2569TIP3    H2 7672   1.630   6.269   1.546 -0.0364  0.4482  0.2559
 2570TIP3   OH2 7673   4.515   4.759   5.492  0.2436 -0.2776  0.3107
 2570TIP3    H1 7674   4.577   4.711   5.438 -0.2602 -1.8602  1.0596
 2570TIP3    H2 7675   4.506   4.844   5.450  0.7692 -1.0304 -1.3935
 2571TIP3   OH2 7676   3.231   4.134   0.031 -0.2022 -0.0140  0.3922
 2571TIP3    H1 7677   3.241   4.044   0.000 -1.2919  0.4779 -1.5733
 2571TIP3    H2 7678   3.281   4.137   0.113 -0.5026 -2.5042  0.7499
 2572TIP3   OH2 7679   5.166   0.302   1.690  0.4504 -0.1140  0.6398
 2572TIP3    H1 7680   5.188   0.393   1.710 -0.7539  0.2009  0.6267
 2572TIP3    H2 7681   5.126   0.269   1.770  1.1003 -0.7260  0.7281
 2573TIP3   OH2 7682   6.560   4.916   4.350 -0.1783 -0.2703  0.1488
 2573TIP3    H1 7683   6.513   4.833   4.349 -1.7181  0.4855 -2.9815
 2573TIP3    H2 7684   6.492   4.983   4.357  0.8003  0.7965 -0.1423
 2574TIP3   OH2 7685   4.608   2.852   5.568 -0.4079 -0.6933  0.4130
 2574TIP3    H1 7686   4.636   2.942   5.555 -0.6015 -0.4328  1.6953
 2574TIP3    H2 7687   4.575   2.824   5.482 -0.8817  0.6415  0.1489
 2575TIP3   OH2 7688   2.160   3.046   3.479 -0.3568  0.4083 -0.1936
 2575TIP3    H1 7689   2.217   3.104   3.428  0.5806  0.6141  1.0501
 2575TIP3    H2 7690   2.073   3.088   3.474  0.0676  1.3052 -0.2637
 2576TIP3   OH2 7691   1.438   0.120   4.444  0.1706  0.2444  0.2257
 2576TIP3    H1 7692   1.367   0.063   4.415  1.6342 -1.4079 -0.2919
 2576TIP3    H2 7693   1.395   0.204   4.463 -2.0290 -0.9215  0.7711
 2577TIP3   OH2 7694   4.866   0.668   2.236  0.1372 -0.1971 -0.0950
 2577TIP3    H1 7695   4.866   0.628   2.322 -1.3757  0.2053  0.1260
 2577TIP3    H2 7696   4.857   0.594   2.175 -1.3695 -0.3265  0.2448
 2578TIP3   OH2 7697   6.157   6.479   3.024  0.1428  0.5952  0.2111
 2578TIP3    H1 7698   6.154   6.467   3.119 -1.7195 -0.2400  0.0811
 2578TIP3    H2 7699   6.071   6.516   3.002  0.4860  0.6150 -1.1679
 2579TIP3   OH2 7700   2.279   4.345   5.820 -0.1703 -0.4344  0.1628
 2579TIP3    H1 7701   2.249   4.395   5.745 -3.2593 -1.8697  0.2783
 2579TIP3    H2 7702   2.306   4.261   5.784  0.0168 -0.5092  0.4700
 2580TIP3   OH2 7703   7.186   1.657   5.374 -0.4795 -0.6904  0.0631
 2580TIP3    H1 7704   7.151   1.693   5.292 -0.3327 -1.4191 -0.3330
 2580TIP3    H2 7705   7.111   1.616   5.416 -0.6829  0.2040  0.5975
 2581TIP3   OH2 7706   7.104   3.665   3.653 -0.8034 -0.7219 -0.3667
 2581TIP3    H1 7707   7.169   3.681   3.722 -0.1239 -0.6612 -1.0179
 2581TIP3    H2 7708   7.060   3.750   3.642 -0.3864 -0.5289 -0.5484
 2582TIP3   OH2 7709   2.288   0.613   1.013  0.6452  0.0891  0.4871
 2582TIP3    H1 7710   2.280   0.538   0.953  1.5125  0.5006 -0.1625
 2582TIP3    H2 7711   2.342   0.581   1.085  0.5271 -0.0805  0.5015
 2583TIP3   OH2 7712   6.335   5.834   3.600 -0.4393  0.2169  0.1702
 2583TIP3    H1 7713   6.292   5.902   3.547  0.3584 -0.1329 -0.9607
 2583TIP3    H2 7714   6.420   5.822   3.558 -0.0196 -0.5044  1.1990
 2584TIP3   OH2 7715   4.644   2.683   2.313 -1.0481  0.5962  0.1436
 2584TIP3    H1 7716   4.671   2.706   2.224  0.1781 -0.4339  0.2138
 2584TIP3    H2 7717   4.554   2.654   2.305 -0.6477 -0.3924 -0.9423
 2585TIP3   OH2 7718   4.607   5.675   2.500  0.0932 -0.1493  0.2525
 2585TIP3    H1 7719   4.514   5.688   2.515  0.0009  0.5474 -0.8232
 2585TIP3    H2 7720   4.646   5.676   2.588 -0.9254 -0.6930  0.7283
 2586TIP3   OH2 7721   4.615   5.646   4.557 -0.0478 -0.7670  0.5975
 2586TIP3    H1 7722   4.579   5.701   4.487 -0.9146 -1.3783  0.5503
 2586TIP3    H2 7723   4.697   5.611   4.521  0.4352  0.3466  0.5695
 2587TIP3   OH2 7724   1.949   4.368   2.978  0.5025  0.2645 -0.3364
 2587TIP3    H1 7725   1.971   4.371   2.884 -0.1170  1.0831 -0.4660
 2587TIP3    H2 7726   2.002   4.437   3.017 -0.3932  0.9804 -0.3478
 2588TIP3   OH2 7727   3.360   2.543   1.686  0.2594  0.1376  0.2465
 2588TIP3    H1 7728   3.406   2.464   1.657 -1.7180 -0.9652 -0.0320
 2588TIP3    H2 7729   3.329   2.523   1.774 -0.6555  0.4021  0.0004
 2589TIP3   OH2 7730   6.298   2.542   2.250  0.5030  0.7658  0.2056
 2589TIP3    H1 7731   6.212   2.524   2.287 -0.1656  0.8973 -1.2343
 2589TIP3    H2 7732   6.348   2.461   2.264 -0.5184 -0.0586 -0.7404
 2590TIP3   OH2 7733   0.551   3.611   5.844 -0.1348 -0.0227 -0.0287
 2590TIP3    H1 7734   0.530   3.666   5.920 -0.3427  0.7168 -0.6118
 2590TIP3    H2 7735   0.496   3.534   5.854 -1.1272  0.6610 -0.1072
 2591TIP3   OH2 7736   6.020   6.264   3.685  0.0334  0.0620  0.5296
 2591TIP3    H1 7737   6.015   6.358   3.699  0.9199  0.1019  0.6786
 2591TIP3    H2 7738   6.105   6.251   3.642  0.2590 -0.7393  1.1927
 2592TIP3   OH2 7739   4.338   5.259   5.778 -0.2273  0.2476 -0.9463
 2592TIP3    H1 7740   4.383   5.313   5.713 -0.5856  0.8195 -0.7283
 2592TIP3    H2 7741   4.286   5.321   5.829  0.7257 -0.0647  0.4709
 2593TIP3   OH2 7742   7.215   6.655   4.107  0.2015  0.1092  0.4269
 2593TIP3    H1 7743   7.211   6.644   4.202  0.2318 -0.1914  0.3934
 2593TIP3    H2 7744   7.150   6.722   4.088 -0.0470 -0.0746  0.6226
 2594TIP3   OH2 7745   1.614   3.873   1.107 -0.0835 -0.6804 -0.2258
 2594TIP3    H1 7746   1.632   3.944   1.168 -1.3171 -1.0654  0.6208
 2594TIP3    H2 7747   1.521   3.855   1.118 -1.0246  0.8012 -3.8949
 2595TIP3   OH2 7748   3.110   1.580   1.901 -0.6291 -0.3453 -0.1859
 2595TIP3    H1 7749   3.027   1.599   1.944 -0.2720  0.2422  0.2619
 2595TIP3    H2 7750   3.174   1.582   1.971  0.0979  1.5010 -0.8501
 2596TIP3   OH2 7751   4.439   5.681   5.850 -0.4143  0.0192 -0.5551
 2596TIP3    H1 7752   4.468   5.677   5.759 -0.1052 -2.0071 -0.4151
 2596TIP3    H2 7753   4.389   5.763   5.856 -1.5243 -0.4141 -2.8736
 2597TIP3   OH2 7754   1.769   5.134   4.666  0.9349 -0.0527  0.6064
 2597TIP3    H1 7755   1.730   5.190   4.598  3.4456  0.3509 -0.6142
 2597TIP3    H2 7756   1.828   5.193   4.713  1.6173 -1.0825  1.0503
 2598TIP3   OH2 7757   2.638   1.162   4.783  0.0217  0.3715  0.1568
 2598TIP3    H1 7758   2.683   1.099   4.840 -1.5176  0.6176  1.7185
 2598TIP3    H2 7759   2.565   1.112   4.746  0.6823  0.3759 -1.1796
 2599TIP3   OH2 7760   0.426   6.227   5.636  0.3195 -0.7349  0.1275
 2599TIP3    H1 7761   0.510   6.264   5.664 -0.2237  0.4745  0.2241
 2599TIP3    H2 7762   0.408   6.270   5.552  0.0800 -1.4421 -0.1922
 2600TIP3   OH2 7763   2.751   6.127   2.584 -0.0007  0.3749 -0.3480
 2600TIP3    H1 7764   2.661   6.104   2.560 -0.2074  0.6096  0.1856
 2600TIP3    H2 7765   2.787   6.168   2.505 -0.6244  1.0140 -0.3097
 2601TIP3   OH2 7766   1.075   5.969   2.554  1.1196  0.0327  0.1247
 2601TIP3    H1 7767   1.121   6.023   2.490  2.1222 -1.1474 -0.2046
 2601TIP3    H2 7768   0.990   5.951   2.513  1.1052  0.6487 -0.1283
 2602TIP3   OH2 7769   2.888   4.111   2.348 -0.1648 -0.3577 -0.2174
 2602TIP3    H1 7770   2.926   4.031   2.312  1.3918  0.2213  0.0221
 2602TIP3    H2 7771   2.947   4.181   2.317 -2.5256  0.9747 -2.0387
 2603TIP3   OH2 7772   0.204   4.899   3.009  0.4764 -0.0340 -0.3629
 2603TIP3    H1 7773   0.192   4.948   2.928  1.3677 -1.1073 -1.1732
 2603TIP3    H2 7774   0.294   4.921   3.037  0.2708  0.1208  0.1929
 2604TIP3   OH2 7775   5.968   5.765   1.045  0.5051  0.4660  0.2397
 2604TIP3    H1 7776   6.018   5.829   0.995 -0.4406 -0.2584 -1.7239
 2604TIP3    H2 7777   6.009   5.681   1.027 -1.2988 -0.1387 -1.3894
 2605TIP3   OH2 7778   5.471   4.153   3.614 -0.0134 -0.2603 -0.0946
 2605TIP3    H1 7779   5.428   4.238   3.626  0.3790 -0.3055  2.0312
 2605TIP3    H2 7780   5.399   4.091   3.602 -0.2858  0.4052 -2.3280
 2606TIP3   OH2 7781   4.946   4.052   1.028  0.0024 -0.0647  0.0453
 2606TIP3    H1 7782   4.899   4.136   1.028  0.0108 -0.0602  0.0628
 2606TIP3    H2 7783   5.024   4.068   1.080  0.4635  0.1749 -0.7052
 2607TIP3   OH2 7784   6.646   4.254   4.594  0.6625 -0.3470  0.2072
 2607TIP3    H1 7785   6.701   4.332   4.588 -0.4998  0.7352  2.4572
 2607TIP3    H2 7786   6.618   4.238   4.503  0.3145  2.3245 -0.2545
 2608TIP3   OH2 7787   2.497   5.290   3.022 -0.9913 -0.1217  0.3624
 2608TIP3    H1 7788   2.410   5.279   3.059 -0.8417 -0.3695  0.6473
 2608TIP3    H2 7789   2.482   5.324   2.934 -1.3156  1.1379  0.8975
 2609TIP3   OH2 7790   4.297   4.063   0.816 -0.0710 -0.1911 -0.1800
 2609TIP3    H1 7791   4.357   4.075   0.742 -0.1079 -1.9353 -0.5311
 2609TIP3    H2 7792   4.214   4.037   0.776 -0.1272 -1.0261  0.4731
 2610TIP3   OH2 7793   2.525   4.400   2.951  0.3008 -0.0235  0.2940
 2610TIP3    H1 7794   2.433   4.374   2.962  0.0707  1.2362  1.6444
 2610TIP3    H2 7795   2.567   4.372   3.032  1.0336 -0.2287 -0.1521
 2611TIP3   OH2 7796   3.660   1.709   5.783 -0.2040  0.1206  0.0525
 2611TIP3    H1 7797   3.583   1.663   5.751  0.4574 -0.1867 -1.1576
 2611TIP3    H2 7798   3.733   1.650   5.764  0.1983 -0.3791  2.7330
 2612TIP3   OH2 7799   3.924   5.671   2.657  0.1397  0.1012  0.1922
 2612TIP3    H1 7800   3.940   5.577   2.644  0.0811  0.4000 -2.6217
 2612TIP3    H2 7801   3.836   5.685   2.624  0.0896  1.1540  0.7283
 2613TIP3   OH2 7802   1.285   4.741   3.763 -0.0965  0.1335  0.2387
 2613TIP3    H1 7803   1.332   4.821   3.785 -0.5430  0.4866 -0.0521
 2613TIP3    H2 7804   1.350   4.671   3.771 -0.0949  0.2962  2.1300
 2614TIP3   OH2 7805   6.384   2.460   1.761  0.3962  0.0750 -0.1440
 2614TIP3    H1 7806   6.295   2.495   1.767  0.5524  0.5835 -0.6913
 2614TIP3    H2 7807   6.414   2.484   1.673  1.6359  1.2978  0.5679
 2615TIP3   OH2 7808   0.177   4.961   0.787  0.6146 -0.3912 -0.3054
 2615TIP3    H1 7809   0.173   5.050   0.822  1.4808 -0.3006 -0.4064
 2615TIP3    H2 7810   0.146   4.906   0.859 -1.4811  0.0911 -0.7790
 2616TIP3   OH2 7811   7.192   5.346   3.756 -0.3152  0.0031 -0.2497
 2616TIP3    H1 7812   7.178   5.296   3.676 -0.6219  0.4180 -0.4574
 2616TIP3    H2 7813   7.155   5.291   3.826  0.6430 -0.7098 -0.2810
 2617TIP3   OH2 7814   3.662   3.516   5.283  0.5004  0.0348  0.0558
 2617TIP3    H1 7815   3.618   3.461   5.218  0.3177 -1.0163  1.0460
 2617TIP3    H2 7816   3.753   3.487   5.280  0.5862  0.3234 -0.0805
 2618TIP3   OH2 7817   4.664   1.883   3.190  0.1650  0.3841  0.2186
 2618TIP3    H1 7818   4.642   1.819   3.258 -1.0125  0.6571  0.1250
 2618TIP3    H2 7819   4.643   1.968   3.229  1.7574  0.7340  0.3556
 2619TIP3   OH2 7820   0.562   1.031   5.596 -0.2728 -0.2758 -0.7819
 2619TIP3    H1 7821   0.605   1.117   5.588 -1.0287  0.0608 -1.3109
 2619TIP3    H2 7822   0.634   0.969   5.606  0.2671  0.4865  0.2075
 2620TIP3   OH2 7823   0.542   1.993   2.398 -0.0100 -0.0572 -0.0606
 2620TIP3    H1 7824   0.466   1.938   2.416 -1.3255  1.1529 -1.6350
 2620TIP3    H2 7825   0.527   2.072   2.450 -1.4855  1.4881 -2.6433
 2621TIP3   OH2 7826   3.099   2.521   2.103  0.2084  0.4076 -0.0625
 2621TIP3    H1 7827   3.142   2.460   2.043 -0.1930  0.6700 -0.6271
 2621TIP3    H2 7828   3.130   2.495   2.190 -0.4923 -1.0484 -0.2235
 2622TIP3   OH2 7829   3.748   1.350   1.178  0.1469  0.6873 -0.6208
 2622TIP3    H1 7830   3.842   1.359   1.190 -0.0191  2.4682 -0.4360
 2622TIP3    H2 7831   3.738   1.271   1.124  1.6894  0.2199 -0.2769
 2623TIP3   OH2 7832   1.077   6.085   2.991 -0.2076 -0.3442  0.0308
 2623TIP3    H1 7833   1.006   6.147   2.973  0.6456  0.9686  0.9343
 2623TIP3    H2 7834   1.055   6.007   2.941 -3.2444 -0.7167  1.7174
 2624TIP3   OH2 7835   0.250   5.097   3.332 -0.1096 -0.1282  0.0157
 2624TIP3    H1 7836   0.307   5.155   3.382 -0.1100  0.2796 -0.4415
 2624TIP3    H2 7837   0.296   5.014   3.329  1.3152  0.6477 -1.7954
 2625TIP3   OH2 7838   5.970   2.162   5.038 -0.3145 -0.1891  0.2637
 2625TIP3    H1 7839   5.920   2.152   5.119 -2.2266 -0.5293 -0.8948
 2625TIP3    H2 7840   5.998   2.253   5.039  0.8265 -0.5112  1.8990
 2626TIP3   OH2 7841   2.379   0.806   2.374  0.1866  0.5460 -0.2565
 2626TIP3    H1 7842   2.449   0.777   2.315 -0.2460 -0.9900 -0.0599
 2626TIP3    H2 7843   2.384   0.746   2.449 -0.2876  1.4697  0.5452
 2627TIP3   OH2 7844   6.118   0.405   4.731  0.3079 -0.0689  0.1546
 2627TIP3    H1 7845   6.148   0.468   4.796  1.0004 -0.2037 -0.0271
 2627TIP3    H2 7846   6.084   0.459   4.660  0.1487  0.0877  0.3474
 2628TIP3   OH2 7847   2.148   6.231   4.456 -0.5187 -0.1012 -0.1003
 2628TIP3    H1 7848   2.135   6.323   4.480 -0.9008 -0.1761 -0.0111
 2628TIP3    H2 7849   2.086   6.216   4.384 -1.5958 -0.6996  0.9111
 2629TIP3   OH2 7850   4.634   5.956   3.267  0.1306  0.3603 -0.2098
 2629TIP3    H1 7851   4.609   6.034   3.317 -1.3377 -0.8065  0.9877
 2629TIP3    H2 7852   4.601   5.883   3.319  1.1107 -1.0628 -1.4953
 2630TIP3   OH2 7853   2.436   6.682   0.506 -0.0192 -0.1590  0.1816
 2630TIP3    H1 7854   2.406   6.741   0.575  1.0046  0.2977  0.2478
 2630TIP3    H2 7855   2.363   6.678   0.444  0.1805  1.8517 -0.2573
 2631TIP3   OH2 7856   0.543   1.805   0.218  0.1103 -0.3649  0.0632
 2631TIP3    H1 7857   0.456   1.776   0.192 -0.1840  0.3534  0.2147
 2631TIP3    H2 7858   0.528   1.885   0.269  0.8827  0.0521 -0.3360
 2632TIP3   OH2 7859   4.753   1.976   0.749  0.1853 -0.4107  0.4765
 2632TIP3    H1 7860   4.774   2.054   0.800 -1.4728 -0.2009  0.8907
 2632TIP3    H2 7861   4.694   1.925   0.805 -1.0987 -0.5316 -0.9005
 2633TIP3   OH2 7862   3.324   1.553   1.555  0.6591  0.6273  0.1317
 2633TIP3    H1 7863   3.390   1.566   1.623  0.5914 -0.2010  0.3638
 2633TIP3    H2 7864   3.253   1.506   1.598  0.8631 -0.4345 -0.6230
 2634TIP3   OH2 7865   6.436   2.591   4.084  0.4451  0.1689 -0.2113
 2634TIP3    H1 7866   6.357   2.633   4.119 -0.2746 -2.6771  2.0055
 2634TIP3    H2 7867   6.440   2.507   4.130  3.1370 -1.0992 -2.5007
 2635TIP3   OH2 7868   1.566   4.798   2.705 -0.2142  0.8322  0.3991
 2635TIP3    H1 7869   1.644   4.753   2.738 -0.6787  1.0431  1.8445
 2635TIP3    H2 7870   1.531   4.844   2.781 -2.8257 -0.7776  0.2589
 2636TIP3   OH2 7871   5.123   4.544   5.778  0.4345  0.0385  0.2373
 2636TIP3    H1 7872   5.201   4.571   5.827  0.0211  1.6512  0.0539
 2636TIP3    H2 7873   5.157   4.493   5.705  1.5092  2.3459 -0.9547
 2637TIP3   OH2 7874   1.722   4.464   2.026 -0.5028  0.3468 -0.4627
 2637TIP3    H1 7875   1.654   4.514   1.981 -0.5548  0.4930 -0.2231
 2637TIP3    H2 7876   1.682   4.379   2.042 -0.9326  0.7109  0.4371
 2638TIP3   OH2 7877   4.338   1.027   1.782 -0.0282 -0.3913  0.0289
 2638TIP3    H1 7878   4.295   1.110   1.803  0.0702 -0.1707 -0.6291
 2638TIP3    H2 7879   4.393   1.009   1.859 -0.7157 -0.2993  0.5526
 2639TIP3   OH2 7880   5.116   3.285   2.568 -0.3504  0.2688  0.6643
 2639TIP3    H1 7881   5.187   3.346   2.590  0.1713  0.7788 -2.0090
 2639TIP3    H2 7882   5.130   3.210   2.625  2.4599  0.3058  0.1575
 2640TIP3   OH2 7883   4.435   2.745   5.144  0.5176 -0.2918 -0.1930
 2640TIP3    H1 7884   4.396   2.784   5.065  1.1910 -1.4697 -1.1336
 2640TIP3    H2 7885   4.529   2.751   5.130  0.6429 -0.4623  0.5489
 2641TIP3   OH2 7886   0.789   1.395   0.481 -0.1318  0.6474  0.0437
 2641TIP3    H1 7887   0.734   1.408   0.403 -0.8577 -0.8985  0.2610
 2641TIP3    H2 7888   0.869   1.443   0.462  0.0252 -0.2964 -2.0029
 2642TIP3   OH2 7889   2.177   0.069   1.524 -0.8480  0.6303  0.3015
 2642TIP3    H1 7890   2.223  -0.012   1.545 -1.8392 -0.1464 -0.4520
 2642TIP3    H2 7891   2.086   0.043   1.511 -1.0041  1.6881 -0.9754
 2643TIP3   OH2 7892   2.522   0.693   5.715 -0.0482 -0.0993 -0.4716
 2643TIP3    H1 7893   2.613   0.723   5.716  0.1709 -0.6620 -1.4299
 2643TIP3    H2 7894   2.471   0.770   5.691  0.2540  0.0794 -0.5419
 2644TIP3   OH2 7895   1.221   1.075   1.879 -0.3328 -0.3548 -0.0842
 2644TIP3    H1 7896   1.129   1.079   1.902 -0.4176 -2.0474 -0.0329
 2644TIP3    H2 7897   1.258   1.158   1.911 -1.9441  0.6564 -0.7450
 2645TIP3   OH2 7898   2.677   1.097   3.868  0.6841  0.1339 -0.3637
 2645TIP3    H1 7899   2.647   1.012   3.901 -0.5099  0.2149 -1.1475
 2645TIP3    H2 7900   2.754   1.077   3.815  0.5741 -0.4316 -0.3147
 2646TIP3   OH2 7901   5.662   0.130   0.884 -0.1067  0.3838 -0.1860
 2646TIP3    H1 7902   5.658   0.069   0.958  1.0022  0.4325 -0.0807
 2646TIP3    H2 7903   5.648   0.075   0.807 -0.6470  0.2386  0.0134
 2647TIP3   OH2 7904   3.590   4.470   5.089  0.3692  0.0461  0.2347
 2647TIP3    H1 7905   3.678   4.451   5.058 -0.0861  0.4504 -1.4086
 2647TIP3    H2 7906   3.533   4.444   5.017 -0.7585  1.0398  0.7280
 2648TIP3   OH2 7907   5.233   3.651   3.505  0.4067 -0.2228  0.0723
 2648TIP3    H1 7908   5.201   3.580   3.560  1.7338 -0.8123  0.1035
 2648TIP3    H2 7909   5.174   3.724   3.524 -2.5303 -1.9255 -1.7049
 2649TIP3   OH2 7910   1.230   6.732   0.634 -0.0190 -0.0840 -0.1993
 2649TIP3    H1 7911   1.257   6.660   0.691  2.6962  2.1300  1.5657
 2649TIP3    H2 7912   1.160   6.775   0.682  0.0815 -0.0945 -0.0393
 2650TIP3   OH2 7913   2.300   2.059   0.922 -0.1984 -0.4511  0.1255
 2650TIP3    H1 7914   2.362   2.030   0.856  0.7257 -2.0912  1.6265
 2650TIP3    H2 7915   2.214   2.047   0.882  0.3577  1.3957 -1.8036
 2651TIP3   OH2 7916   2.707   0.914   5.693 -0.2385  0.7562 -0.2909
 2651TIP3    H1 7917   2.719   0.978   5.622  1.2236  2.7672  1.6180
 2651TIP3    H2 7918   2.786   0.860   5.691  1.7268  3.2713  1.9965
 2652TIP3   OH2 7919   3.206   6.486   4.212  0.2235  0.3957 -0.3043
 2652TIP3    H1 7920   3.136   6.476   4.148  2.0777 -1.6951 -2.1903
 2652TIP3    H2 7921   3.285   6.497   4.159  1.4192  2.2973  1.7313
 2653TIP3   OH2 7922   2.179   1.933   5.780  0.2240  0.0047 -0.1025
 2653TIP3    H1 7923   2.264   1.969   5.753  0.6293  0.6145  1.8442
 2653TIP3    H2 7924   2.200   1.860   5.837 -0.6195 -2.1334 -2.3762
 2654TIP3   OH2 7925   3.634   1.127   1.598  1.0322  0.4277 -0.4471
 2654TIP3    H1 7926   3.707   1.065   1.592  1.3354  0.5114  1.6004
 2654TIP3    H2 7927   3.674   1.213   1.584  0.9982  0.3501 -1.0612
 2655TIP3   OH2 7928   1.875   6.787   2.496  0.1907  0.4371 -0.6452
 2655TIP3    H1 7929   1.796   6.830   2.462  0.4241 -0.5529 -2.5673
 2655TIP3    H2 7930   1.936   6.787   2.423  1.2342 -0.6562  0.1836
 2656TIP3   OH2 7931   4.750   0.896   1.203 -0.4463 -0.0097  0.6202
 2656TIP3    H1 7932   4.765   0.808   1.169  1.6939 -0.9698  3.6372
 2656TIP3    H2 7933   4.802   0.953   1.147  0.4991 -1.0587  0.3996
 2657TIP3   OH2 7934   1.373   6.023   4.177 -0.5224 -0.3298 -1.0547
 2657TIP3    H1 7935   1.390   5.950   4.118 -0.6416 -0.3924 -1.0115
 2657TIP3    H2 7936   1.448   6.081   4.166  0.5339 -1.3687  0.3065
 2658TIP3   OH2 7937   5.352   6.107   5.334 -0.2120 -0.1785 -0.2988
 2658TIP3    H1 7938   5.315   6.133   5.418 -0.6963 -1.0003 -0.2417
 2658TIP3    H2 7939   5.279   6.111   5.273  0.3980  1.5942 -0.9735
 2659TIP3   OH2 7940   7.034   6.102   3.367  1.3114  0.0073  0.7469
 2659TIP3    H1 7941   7.024   6.095   3.462 -0.5135  1.0661  0.6567
 2659TIP3    H2 7942   7.118   6.147   3.355  0.6857  1.5608  1.9293
 2660TIP3   OH2 7943   2.890   2.320   0.168 -0.1232 -0.0242  0.5251
 2660TIP3    H1 7944   2.911   2.228   0.154 -0.9703 -0.1353 -0.1293
 2660TIP3    H2 7945   2.950   2.367   0.110 -0.2629 -0.2167  0.2221
 2661TIP3   OH2 7946   0.831   4.832   3.562  0.0130  0.2942  0.0278
 2661TIP3    H1 7947   0.807   4.856   3.652 -1.4263 -1.2697  0.1034
 2661TIP3    H2 7948   0.884   4.753   3.572 -0.2507  0.0472 -0.5101
 2662TIP3   OH2 7949   2.713   1.414   4.862 -0.2024  0.5075 -0.0246
 2662TIP3    H1 7950   2.703   1.319   4.853 -0.4233  0.5065  0.2439
 2662TIP3    H2 7951   2.643   1.440   4.922 -0.2771  0.8696 -0.2671
 2663TIP3   OH2 7952   4.242   0.475   5.406 -0.2766 -0.2288  0.0752
 2663TIP3    H1 7953   4.330   0.452   5.375 -0.8424 -2.5666  0.0136
 2663TIP3    H2 7954   4.223   0.409   5.473 -1.4983  1.0294  1.0038
 2664TIP3   OH2 7955   3.376   3.343   1.657  0.2026 -0.5008  0.3936
 2664TIP3    H1 7956   3.378   3.278   1.587  2.8972 -1.6383  1.3811
 2664TIP3    H2 7957   3.375   3.427   1.611 -1.5243 -1.1770 -0.9245
 2665TIP3   OH2 7958   6.910   1.265   3.896 -0.3372  0.2984  0.4822
 2665TIP3    H1 7959   6.849   1.214   3.950  0.4084 -1.5219 -0.2867
 2665TIP3    H2 7960   6.993   1.260   3.942  0.2412 -1.0465 -0.6296
 2666TIP3   OH2 7961   6.900   6.483   4.984 -0.1286  0.3780 -0.1587
 2666TIP3    H1 7962   6.850   6.440   5.054 -0.6651  0.8505 -0.2465
 2666TIP3    H2 7963   6.991   6.475   5.012 -0.1345 -1.4522 -0.5025
 2667TIP3   OH2 7964   2.555   1.617   4.039 -0.0449  0.2503 -0.1532
 2667TIP3    H1 7965   2.467   1.594   4.069  0.1864 -0.5662 -0.0680
 2667TIP3    H2 7966   2.584   1.540   3.989  0.4767  0.6612 -0.4940
 2668TIP3   OH2 7967   0.339   6.714   2.671 -0.4820 -0.3259  0.0286
 2668TIP3    H1 7968   0.364   6.627   2.638 -0.6870  0.1972 -1.6278
 2668TIP3    H2 7969   0.353   6.709   2.765  1.2837 -1.5649 -0.2477
 2669TIP3   OH2 7970   3.479   6.591   2.574  0.3236 -0.2615 -0.3114
 2669TIP3    H1 7971   3.491   6.505   2.534 -0.3097 -0.8868  0.7934
 2669TIP3    H2 7972   3.562   6.636   2.560 -0.1377 -0.1161 -3.0571
 2670TIP3   OH2 7973   4.838   2.951   5.839 -0.0518 -0.1419 -0.1107
 2670TIP3    H1 7974   4.751   2.968   5.803  0.5062  1.5623 -0.7730
 2670TIP3    H2 7975   4.897   3.001   5.782  1.1905  0.0416  1.2868
 2671TIP3   OH2 7976   0.508   6.165   4.143 -0.6930  0.0322 -0.1749
 2671TIP3    H1 7977   0.595   6.126   4.136 -0.7509 -0.0762 -0.2801
 2671TIP3    H2 7978   0.448   6.091   4.149 -0.7396  0.1075  0.4011
 2672TIP3   OH2 7979   2.010   4.772   1.047 -0.1677 -0.0471 -0.1842
 2672TIP3    H1 7980   2.099   4.807   1.038 -0.6168  0.8353 -1.5860
 2672TIP3    H2 7981   1.954   4.850   1.046 -0.9293 -0.4727  2.0320
 2673TIP3   OH2 7982   4.712   2.600   3.303  0.2262  0.3106 -0.0286
 2673TIP3    H1 7983   4.713   2.538   3.375  0.3403  0.1592 -0.1595
 2673TIP3    H2 7984   4.801   2.634   3.299  0.2155  0.3327 -0.0854
 2674TIP3   OH2 7985   5.148   1.975   5.834  0.0795  0.0412 -0.4520
 2674TIP3    H1 7986   5.184   1.981   5.922  0.1844  0.4645 -0.5217
 2674TIP3    H2 7987   5.188   1.897   5.796  0.2328  0.0071 -0.2194
 2675TIP3   OH2 7988   1.521   0.168   5.395  0.7488  0.2576  0.2015
 2675TIP3    H1 7989   1.588   0.216   5.444  1.5737  1.1127 -1.6320
 2675TIP3    H2 7990   1.522   0.209   5.308  1.0476 -2.6764 -1.3035
 2676TIP3   OH2 7991   3.963   1.917   4.161  0.4261  0.2947 -0.0215
 2676TIP3    H1 7992   4.058   1.922   4.171  0.2913 -0.1304  2.0481
 2676TIP3    H2 7993   3.949   1.840   4.105  1.2906 -0.1355  0.3303
 2677TIP3   OH2 7994   4.009   6.721   1.756 -0.4971 -0.1850  0.1684
 2677TIP3    H1 7995   4.067   6.646   1.768  1.6998  1.0484 -1.9575
 2677TIP3    H2 7996   3.961   6.702   1.675 -0.8713  0.1504  0.3080
 2678TIP3   OH2 7997   0.995   4.967   3.821  0.5723 -0.2676 -0.3463
 2678TIP3    H1 7998   0.923   5.010   3.777  1.3225 -0.0848 -1.4420
 2678TIP3    H2 7999   1.070   5.025   3.809  1.0897 -0.8210  0.0746
 2679TIP3   OH2 8000   4.049   0.555   2.110 -0.1770 -0.1036 -0.2354
 2679TIP3    H1 8001   4.043   0.469   2.068  0.7697 -0.4590  0.3318
 2679TIP3    H2 8002   3.985   0.609   2.063 -0.1211 -0.8571 -1.2098
 2680TIP3   OH2 8003   1.583   0.962   1.811 -0.2388 -0.3544 -0.0607
 2680TIP3    H1 8004   1.627   0.885   1.848 -1.1681 -0.5263  0.7223
 2680TIP3    H2 8005   1.595   1.030   1.877 -1.8534 -0.6435  0.5597
 2681TIP3   OH2 8006   5.908   3.918   5.634  0.3361  0.0092 -0.3743
 2681TIP3    H1 8007   5.932   3.870   5.555  0.4107  0.7126 -0.7878
 2681TIP3    H2 8008   5.816   3.940   5.622  0.0067 -0.9213  0.2928
 2682TIP3   OH2 8009   4.760   0.390   5.843  0.0060  0.3227 -0.5211
 2682TIP3    H1 8010   4.794   0.302   5.859 -1.6625  0.0861  2.5111
 2682TIP3    H2 8011   4.770   0.435   5.927 -0.3066  2.6439 -1.6554
 2683TIP3   OH2 8012   1.221   4.620   5.374  0.2888  0.4969  0.4274
 2683TIP3    H1 8013   1.224   4.596   5.467  2.4332  0.3441  0.3739
 2683TIP3    H2 8014   1.128   4.632   5.355 -0.1903  0.6287  2.6111
 2684TIP3   OH2 8015   5.209   4.507   2.860  0.2576 -0.1900  0.2963
 2684TIP3    H1 8016   5.176   4.582   2.810  0.4323 -0.0631  0.3674
 2684TIP3    H2 8017   5.195   4.431   2.804 -0.3562 -0.1698  0.4120
 2685TIP3   OH2 8018   0.750   0.600   0.854  0.1153 -0.1817 -0.1981
 2685TIP3    H1 8019   0.730   0.597   0.760 -2.3123  1.6431  0.1629
 2685TIP3    H2 8020   0.729   0.689   0.880  0.2210 -0.7932  2.1956
 2686TIP3   OH2 8021   0.462   1.191   5.832 -0.1173  0.1412  0.2849
 2686TIP3    H1 8022   0.527   1.248   5.873  0.5543  0.3240 -0.9711
 2686TIP3    H2 8023   0.511   1.113   5.807 -0.6425 -0.2198  0.3647
 2687TIP3   OH2 8024   5.780   1.741   0.888  0.0122 -0.4100  0.3129
 2687TIP3    H1 8025   5.796   1.827   0.849 -1.6161 -0.0537  0.3586
 2687TIP3    H2 8026   5.771   1.683   0.813  2.2013 -0.8089  0.2873
 2688TIP3   OH2 8027   1.083   1.209   5.147 -0.0070  0.8145 -0.0036
 2688TIP3    H1 8028   0.991   1.202   5.121 -0.3893  0.9004  1.2318
 2688TIP3    H2 8029   1.080   1.257   5.230  1.3099  2.4111 -0.8274
 2689TIP3   OH2 8030   1.375   6.048   3.128 -0.3095  0.6552 -0.4652
 2689TIP3    H1 8031   1.338   5.970   3.168 -1.3929  1.1242 -0.5366
 2689TIP3    H2 8032   1.387   6.024   3.036  1.2748 -0.0929 -0.0992
 2690TIP3   OH2 8033   2.802   3.644   4.140  0.1899  0.0977 -0.0729
 2690TIP3    H1 8034   2.813   3.733   4.106  0.1114 -0.2103 -0.9238
 2690TIP3    H2 8035   2.830   3.587   4.068  1.7992 -0.5569  1.0320
 2691TIP3   OH2 8036   4.088   4.405   2.994  0.3187  0.0446  0.2450
 2691TIP3    H1 8037   4.131   4.484   3.025  0.8116 -1.0730  2.6637
 2691TIP3    H2 8038   4.030   4.379   3.065 -0.0226 -1.6304 -0.5746
 2692TIP3   OH2 8039   5.364   2.690   0.924 -0.1466  0.3446 -0.5304
 2692TIP3    H1 8040   5.283   2.736   0.947  0.2184  0.3574  0.8048
 2692TIP3    H2 8041   5.426   2.759   0.904 -0.2472  0.3541 -0.8205
 2693TIP3   OH2 8042   2.481   6.702   3.995  0.1240  0.8329  0.1938
 2693TIP3    H1 8043   2.470   6.752   3.915  1.4001 -0.4499 -0.8227
 2693TIP3    H2 8044   2.413   6.635   3.991 -0.6843  1.5790  0.8807
 2694TIP3   OH2 8045   5.307   3.345   4.907  0.6378  0.4089  0.0177
 2694TIP3    H1 8046   5.283   3.433   4.936  0.8992  1.1868 -1.9901
 2694TIP3    H2 8047   5.394   3.330   4.945  1.1939  1.5963 -0.7352
 2695TIP3   OH2 8048   6.743   6.343   2.349 -0.3600 -0.2583  0.1750
 2695TIP3    H1 8049   6.650   6.367   2.349  0.0179  1.6000 -2.0509
 2695TIP3    H2 8050   6.784   6.410   2.403 -0.2373 -0.8908  0.8860
 2696TIP3   OH2 8051   4.236   5.948   4.679 -0.0668 -0.5886 -0.0085
 2696TIP3    H1 8052   4.283   5.900   4.611 -0.5834  0.1865 -0.9354
 2696TIP3    H2 8053   4.190   5.880   4.728 -0.2869 -1.1095 -0.9129
 2697TIP3   OH2 8054   0.176   0.678   2.608  0.3899  0.0125  0.1096
 2697TIP3    H1 8055   0.224   0.709   2.685  1.4517 -0.4522 -0.3361
 2697TIP3    H2 8056   0.085   0.705   2.624  0.4301 -0.7324  1.8770
 2698TIP3   OH2 8057   0.670   5.000   0.152  0.0657 -0.8027 -0.3085
 2698TIP3    H1 8058   0.579   5.013   0.127  0.9873  1.9774 -2.8163
 2698TIP3    H2 8059   0.677   5.035   0.240 -0.6983  2.3442 -1.3870
 2699TIP3   OH2 8060   1.547   6.000   2.058 -0.1765 -0.8505 -0.0004
 2699TIP3    H1 8061   1.572   5.986   1.967  0.7571  1.5172 -0.1747
 2699TIP3    H2 8062   1.631   6.013   2.104 -0.7218  0.6746  0.6476
 2700TIP3   OH2 8063   3.804   3.691   2.737  0.1188  0.0814  0.5201
 2700TIP3    H1 8064   3.713   3.665   2.737  0.1962 -0.1909  0.5862
 2700TIP3    H2 8065   3.817   3.735   2.653  0.5392 -2.0074 -0.5841
 2701TIP3   OH2 8066   3.988   5.129   4.882 -0.2478  0.3790  0.2636
 2701TIP3    H1 8067   4.057   5.073   4.917  2.3817  1.4719 -2.6820
 2701TIP3    H2 8068   3.942   5.074   4.819  1.3870  0.9613 -1.5446
 2702TIP3   OH2 8069   5.883   2.961   1.956 -0.3097 -0.4732 -0.4036
 2702TIP3    H1 8070   5.788   2.953   1.944 -0.2421 -0.5675 -0.8806
 2702TIP3    H2 8071   5.893   2.988   2.048 -0.7416 -1.8264  0.0666
 2703TIP3   OH2 8072   2.896   3.421   2.649 -0.4336  0.4742  0.1257
 2703TIP3    H1 8073   2.810   3.461   2.636 -0.1794  0.9372 -0.1374
 2703TIP3    H2 8074   2.929   3.458   2.731 -0.8451 -0.3512  0.6800
 2704TIP3   OH2 8075   0.291   0.806   2.391  0.2042 -0.0625  0.4884
 2704TIP3    H1 8076   0.243   0.790   2.309  0.8062  2.9326 -0.5849
 2704TIP3    H2 8077   0.261   0.737   2.450 -1.1126 -1.6725 -1.8902
 2705TIP3   OH2 8078   3.673   4.270   0.862  0.6574 -0.3969  0.0655
 2705TIP3    H1 8079   3.767   4.265   0.848  0.5979 -1.6889  0.0564
 2705TIP3    H2 8080   3.656   4.363   0.877  2.2882 -0.4292  2.6115
 2706TIP3   OH2 8081   5.446   2.211   1.559 -0.2920 -0.4468  0.0389
 2706TIP3    H1 8082   5.500   2.258   1.623 -0.0905 -0.5282 -0.0714
 2706TIP3    H2 8083   5.509   2.171   1.500 -0.3802 -2.4113  1.1945
 2707TIP3   OH2 8084   0.212   0.883   1.350 -0.1027  0.3549  0.0799
 2707TIP3    H1 8085   0.188   0.848   1.264 -0.7269  2.3666 -0.6116
 2707TIP3    H2 8086   0.303   0.854   1.362 -0.3328 -0.8052 -0.7885
 2708TIP3   OH2 8087   7.020   6.429   4.539  0.1028 -0.1713  0.3912
 2708TIP3    H1 8088   6.944   6.466   4.494 -0.8872  0.7800  2.6938
 2708TIP3    H2 8089   6.990   6.345   4.571 -0.1085  0.3222  1.5361
 2709TIP3   OH2 8090   0.547   0.757   2.352  0.1842  0.3129 -0.2280
 2709TIP3    H1 8091   0.533   0.666   2.326  1.7011  0.6805 -2.6304
 2709TIP3    H2 8092   0.460   0.791   2.370 -0.4641 -1.4287  0.1258
 2710TIP3   OH2 8093   3.410   1.052   1.814  0.1345  0.6387 -0.2781
 2710TIP3    H1 8094   3.438   0.960   1.812  0.2902  0.6870 -0.3630
 2710TIP3    H2 8095   3.382   1.070   1.724  1.0763  0.9692 -0.5174
 2711TIP3   OH2 8096   3.787   2.555   4.669 -0.4268  0.2418 -0.0637
 2711TIP3    H1 8097   3.802   2.603   4.751 -1.2211  0.2113  0.1022
 2711TIP3    H2 8098   3.706   2.592   4.634  0.0070  0.3811 -0.9360
 2712TIP3   OH2 8099   1.792   2.792   4.745  0.5584 -0.3352 -0.2913
 2712TIP3    H1 8100   1.822   2.863   4.802 -0.9015  0.2992 -0.2537
 2712TIP3    H2 8101   1.859   2.724   4.753  1.1012  0.3194  1.0529
 2713TIP3   OH2 8102   3.939   0.495   1.416 -0.1251  0.5472  0.1586
 2713TIP3    H1 8103   3.983   0.455   1.341  1.2730 -0.3713  1.4131
 2713TIP3    H2 8104   4.002   0.557   1.452  0.0259 -0.4295  1.6971
 2714TIP3   OH2 8105   2.351   2.944   4.407 -0.0380  0.0914  0.6988
 2714TIP3    H1 8106   2.292   3.006   4.449 -0.9984 -0.3633  0.0654
 2714TIP3    H2 8107   2.348   2.866   4.463 -0.1710  0.0030  0.5669
 2715TIP3   OH2 8108   1.130   4.500   2.209  0.0929  0.3571 -0.5387
 2715TIP3    H1 8109   1.162   4.433   2.149  1.5590  0.1459  0.4431
 2715TIP3    H2 8110   1.052   4.535   2.165 -1.3966 -2.6853 -0.5868
 2716TIP3   OH2 8111   0.692   3.363   5.139  0.2968  0.1375 -0.1086
 2716TIP3    H1 8112   0.649   3.444   5.109  0.3309  0.2213  0.0671
 2716TIP3    H2 8113   0.782   3.372   5.110  0.4748  0.4940  0.5461
 2717TIP3   OH2 8114   5.956   3.534   1.980  0.0016  0.0044  0.5091
 2717TIP3    H1 8115   5.996   3.449   1.999  0.4622  0.1635  0.2552
 2717TIP3    H2 8116   6.029   3.596   1.980 -0.2655  0.3244  0.1989
 2718TIP3   OH2 8117   6.645   3.102   5.852  0.0813 -0.1616 -0.3577
 2718TIP3    H1 8118   6.615   3.103   5.762  0.8985 -1.1888 -0.6666
 2718TIP3    H2 8119   6.731   3.144   5.849  0.9282 -1.8179 -0.4057
 2719TIP3   OH2 8120   0.441   4.118   4.916  0.2186  0.1899  0.0090
 2719TIP3    H1 8121   0.406   4.096   5.002  0.0075  1.4159  0.2604
 2719TIP3    H2 8122   0.513   4.179   4.934 -0.6456  1.4672 -0.7196
 2720TIP3   OH2 8123   0.631   5.159   5.471 -0.7070  0.0284  0.0201
 2720TIP3    H1 8124   0.659   5.249   5.489  1.6908 -0.7299  0.4425
 2720TIP3    H2 8125   0.620   5.120   5.558 -0.5867 -0.4121 -0.1604
 2721TIP3   OH2 8126   1.047   1.797   5.014  0.3191  0.3655 -0.3376
 2721TIP3    H1 8127   1.047   1.835   4.926  1.2762 -1.4424 -1.1797
 2721TIP3    H2 8128   1.082   1.709   5.001 -1.3729 -0.6524  1.5768
 2722TIP3   OH2 8129   6.890   0.841   5.131 -0.4556 -0.4051  0.2627
 2722TIP3    H1 8130   6.907   0.840   5.225 -0.2395 -1.0285  0.2205
 2722TIP3    H2 8131   6.870   0.932   5.111 -0.3091 -0.2356  0.8777
 2723TIP3   OH2 8132   0.462   3.325   0.773  0.0850  0.2793 -0.0533
 2723TIP3    H1 8133   0.512   3.274   0.710  0.9358 -0.0737  0.8641
 2723TIP3    H2 8134   0.512   3.407   0.783  1.1487 -0.5094  1.6638
 2724TIP3   OH2 8135   5.082   4.400   3.227  0.0514 -0.0486 -0.1159
 2724TIP3    H1 8136   5.104   4.308   3.208  1.5824  0.1163  0.6376
 2724TIP3    H2 8137   5.144   4.425   3.296  1.0976  2.1490 -1.7091
 2725TIP3   OH2 8138   3.537   5.179   4.007  0.0196  0.1523  0.1255
 2725TIP3    H1 8139   3.550   5.148   3.917  0.6087  2.5978 -0.7270
 2725TIP3    H2 8140   3.621   5.219   4.030 -0.4453  0.4350  1.3946
 2726TIP3   OH2 8141   0.596   5.795   0.280  0.0481  0.8866 -0.4340
 2726TIP3    H1 8142   0.603   5.708   0.240 -0.3596  0.4733  0.3821
 2726TIP3    H2 8143   0.563   5.779   0.368 -3.1694  2.0902 -1.2768
 2727TIP3   OH2 8144   6.548   3.284   3.007 -0.2042  0.1547  0.4465
 2727TIP3    H1 8145   6.485   3.274   3.078  0.3506 -1.8872  0.7303
 2727TIP3    H2 8146   6.541   3.203   2.957  1.5662  0.2296 -0.0078
 2728TIP3   OH2 8147   0.093   0.527   2.345 -0.2255 -0.2977 -0.4436
 2728TIP3    H1 8148   0.135   0.508   2.429 -1.6587  0.3305  0.4710
 2728TIP3    H2 8149   0.152   0.491   2.279  0.9614 -0.7712  0.8324
 2729TIP3   OH2 8150   7.139   3.608   4.844 -0.4269  0.4620 -0.4540
 2729TIP3    H1 8151   7.120   3.569   4.929 -0.3447 -1.4363 -1.2531
 2729TIP3    H2 8152   7.214   3.665   4.859 -2.1984  2.5376  1.3004
 2730TIP3   OH2 8153   0.904   6.222   0.774 -0.2853 -0.3764  0.3716
 2730TIP3    H1 8154   0.949   6.142   0.748  0.7714  0.4238 -0.3590
 2730TIP3    H2 8155   0.833   6.193   0.831  0.8929 -1.7201  1.2023
 2731TIP3   OH2 8156   2.400   1.237   0.455  0.5572 -0.7835  0.5217
 2731TIP3    H1 8157   2.475   1.293   0.438  2.2272 -3.0924 -0.2580
 2731TIP3    H2 8158   2.435   1.164   0.507 -1.0081 -2.1703 -0.2407
 2732TIP3   OH2 8159   1.046   3.443   0.724 -0.0378  0.5015  0.0270
 2732TIP3    H1 8160   1.137   3.417   0.714 -0.3273 -0.1282 -1.0714
 2732TIP3    H2 8161   1.044   3.535   0.697  0.6511  1.2162  2.1967
 2733TIP3   OH2 8162   4.117   2.506   3.790  0.1186  0.2737 -0.2486
 2733TIP3    H1 8163   4.086   2.457   3.714  0.1581 -0.5806  0.2716
 2733TIP3    H2 8164   4.081   2.594   3.778  0.5855  0.3022 -1.5239
 2734TIP3   OH2 8165   4.072   6.439   5.397  0.1499  0.0836 -0.1478
 2734TIP3    H1 8166   4.037   6.407   5.314  1.4230 -0.2276 -0.5836
 2734TIP3    H2 8167   4.151   6.387   5.411 -0.0272  0.1515  1.2536
 2735TIP3   OH2 8168   4.760   4.310   0.834  0.2782  0.0366  0.3106
 2735TIP3    H1 8169   4.792   4.231   0.790  1.0119 -0.2434  1.3165
 2735TIP3    H2 8170   4.821   4.324   0.907  0.9245  2.2511 -0.5647
 2736TIP3   OH2 8171   0.558   3.782   0.114  0.1075 -0.1109 -0.1498
 2736TIP3    H1 8172   0.486   3.817   0.166  1.9654  0.5872  2.1866
 2736TIP3    H2 8173   0.548   3.687   0.119 -1.4529 -0.0184 -1.1557
 2737TIP3   OH2 8174   3.660   0.386   5.790 -0.1263  0.1156 -0.2178
 2737TIP3    H1 8175   3.630   0.456   5.849  1.9574  0.0314  1.0327
 2737TIP3    H2 8176   3.751   0.408   5.771  0.2437 -1.6867 -0.6890
 2738TIP3   OH2 8177   2.176   3.789   5.610 -0.4832  0.4349  0.4952
 2738TIP3    H1 8178   2.215   3.712   5.568  0.2055 -0.0708  2.0010
 2738TIP3    H2 8179   2.100   3.755   5.657 -0.7590  0.8497  0.3527
 2739TIP3   OH2 8180   1.533   4.934   2.933 -0.0873  0.1573 -0.3874
 2739TIP3    H1 8181   1.450   4.894   2.959 -0.1439  0.6048  0.1685
 2739TIP3    H2 8182   1.546   5.004   2.997  1.3717 -0.7301  0.3448
 2740TIP3   OH2 8183   1.362   6.361   3.860  0.3870 -0.0212 -0.5319
 2740TIP3    H1 8184   1.285   6.304   3.860  0.6765 -0.4118 -0.4431
 2740TIP3    H2 8185   1.385   6.372   3.952 -0.1186  0.8584 -0.4962
 2741TIP3   OH2 8186   1.053   4.557   4.448  0.1980 -0.1585 -0.0134
 2741TIP3    H1 8187   1.089   4.605   4.522 -1.3262  1.3332 -0.1897
 2741TIP3    H2 8188   1.129   4.514   4.408  1.3794  0.8656  1.0610
 2742TIP3   OH2 8189   0.311   1.193   0.586  0.1024  0.5152 -0.3968
 2742TIP3    H1 8190   0.225   1.233   0.598 -0.3679 -0.7548  0.6792
 2742TIP3    H2 8191   0.296   1.122   0.524 -0.0332 -0.8525  1.1453
 2743TIP3   OH2 8192   3.167   2.436   2.355  0.3642  0.1498 -0.0946
 2743TIP3    H1 8193   3.081   2.419   2.395 -0.4993  1.6220 -1.2193
 2743TIP3    H2 8194   3.204   2.505   2.409 -0.3837  1.4528 -1.1878
 2744TIP3   OH2 8195   3.292   0.643   4.976  0.2122 -0.6907  0.1815
 2744TIP3    H1 8196   3.379   0.658   5.011  1.3611 -0.9192 -2.3408
 2744TIP3    H2 8197   3.294   0.681   4.888 -2.2201 -0.7525  0.0172
 2745TIP3   OH2 8198   4.893   0.575   1.010 -0.3038  0.0461 -0.0624
 2745TIP3    H1 8199   4.832   0.568   1.084 -2.0249 -2.0947 -1.5265
 2745TIP3    H2 8200   4.836   0.583   0.933  1.3904  0.9020 -1.2843
 2746TIP3   OH2 8201   5.772   2.478   5.780  0.2502 -0.0707 -0.2188
 2746TIP3    H1 8202   5.707   2.412   5.806 -1.8073  1.1296 -1.9307
 2746TIP3    H2 8203   5.830   2.486   5.855  0.2260 -3.3500  0.2657
 2747TIP3   OH2 8204   5.666   0.188   5.765 -0.0395 -0.1055  0.0241
 2747TIP3    H1 8205   5.757   0.166   5.745  0.0463 -0.9970  1.2633
 2747TIP3    H2 8206   5.669   0.219   5.856 -0.8659  0.6539 -0.1919
 2748TIP3   OH2 8207   7.030   1.526   3.133 -0.5609  0.3381 -0.0669
 2748TIP3    H1 8208   6.986   1.475   3.201 -0.4782  1.6856  1.0294
 2748TIP3    H2 8209   7.121   1.497   3.138 -0.8935 -0.9857 -0.9772
 2749TIP3   OH2 8210   2.507   4.860   1.541 -0.6144  0.0515  0.0832
 2749TIP3    H1 8211   2.438   4.800   1.511 -1.5873  0.4618  1.3887
 2749TIP3    H2 8212   2.516   4.924   1.471 -0.8638 -0.5760 -0.5320
 2750TIP3   OH2 8213   6.609   3.909   0.832  0.1409  0.0896  0.4830
 2750TIP3    H1 8214   6.520   3.890   0.861 -0.0970  0.1080 -0.2291
 2750TIP3    H2 8215   6.599   3.948   0.745  0.9087 -1.0445 -0.1375
 2751TIP3   OH2 8216   6.917   2.544   4.351  0.4620  0.3136  0.0140
 2751TIP3    H1 8217   6.932   2.450   4.340  1.2794  0.2145  1.7825
 2751TIP3    H2 8218   6.988   2.585   4.301  1.0246 -0.0372  0.5139
 2752TIP3   OH2 8219   1.938   3.115   0.301 -0.1240 -0.5948 -0.0544
 2752TIP3    H1 8220   1.914   3.136   0.391 -1.2061 -1.0143 -0.2284
 2752TIP3    H2 8221   2.033   3.108   0.303 -0.0785  0.0207  0.9165
 2753TIP3   OH2 8222   5.992   5.464   1.584 -0.4454 -0.1296  0.1393
 2753TIP3    H1 8223   5.946   5.548   1.576  0.2046  0.2471  0.2987
 2753TIP3    H2 8224   6.075   5.478   1.540 -0.4812 -0.8124 -0.1500
 2754TIP3   OH2 8225   4.720   1.605   5.228 -0.0113  0.1565  0.2567
 2754TIP3    H1 8226   4.665   1.624   5.304  0.7393  0.1824  0.8023
 2754TIP3    H2 8227   4.763   1.688   5.207  0.3595 -0.0280  0.2757
 2755TIP3   OH2 8228   1.522   1.394   4.052  0.0282  0.3611 -0.2076
 2755TIP3    H1 8229   1.596   1.392   3.992  1.4392  1.0826  1.4402
 2755TIP3    H2 8230   1.536   1.320   4.111  0.1862  1.2565  0.9281
 2756TIP3   OH2 8231   0.485   1.649   4.912  0.0604  0.0218  0.1107
 2756TIP3    H1 8232   0.449   1.592   4.844  2.4229  1.5380 -2.6066
 2756TIP3    H2 8233   0.419   1.716   4.925 -0.8372 -0.8367  0.1220
 2757TIP3   OH2 8234   1.348   3.865   2.330 -0.4352  0.2564  0.4568
 2757TIP3    H1 8235   1.263   3.908   2.322  0.0610  1.4906  1.6022
 2757TIP3    H2 8236   1.334   3.798   2.396 -0.1649  1.4480  1.7564
 2758TIP3   OH2 8237   1.465   4.449   4.718 -0.2844 -0.5052  0.3074
 2758TIP3    H1 8238   1.450   4.395   4.795 -0.7865 -1.4437 -0.4225
 2758TIP3    H2 8239   1.379   4.460   4.679 -0.0660  0.1267 -0.0088
 2759TIP3   OH2 8240   6.196   3.431   5.437  0.0912 -0.1927  0.1708
 2759TIP3    H1 8241   6.151   3.383   5.507 -0.9413  1.2308  0.5119
 2759TIP3    H2 8242   6.145   3.411   5.359 -1.7017  2.0217  0.6824
 2760TIP3   OH2 8243   4.707   4.156   4.361  0.1097 -0.1527  0.0907
 2760TIP3    H1 8244   4.702   4.204   4.444 -1.6777 -0.8458  0.4409
 2760TIP3    H2 8245   4.691   4.222   4.294 -3.4012 -0.2747  0.6196
 2761TIP3   OH2 8246   5.727   2.519   3.986  0.0593  0.5824 -0.0849
 2761TIP3    H1 8247   5.673   2.457   3.936 -0.4707  0.0844  1.0587
 2761TIP3    H2 8248   5.747   2.472   4.067  0.4036  1.5949  0.4269
 2762TIP3   OH2 8249   3.883   0.990   2.784 -0.2026  0.8529  0.1347
 2762TIP3    H1 8250   3.901   1.070   2.834 -0.2652  0.9757 -0.0379
 2762TIP3    H2 8251   3.927   0.920   2.834 -0.3851  0.9520  0.4397
 2763TIP3   OH2 8252   1.024   3.018   5.791 -0.4937  0.0672  0.2464
 2763TIP3    H1 8253   0.939   3.062   5.790 -0.7335 -0.4058 -0.1108
 2763TIP3    H2 8254   1.006   2.929   5.818 -0.0503  0.0771  0.5985
 2764TIP3   OH2 8255   7.000   5.534   3.828  0.3488  0.2330  0.3787
 2764TIP3    H1 8256   7.070   5.598   3.841  1.0034  0.4104 -3.2182
 2764TIP3    H2 8257   7.044   5.457   3.793 -1.0013 -0.4741  0.1730
 2765TIP3   OH2 8258   3.007   2.385   2.637  0.2402  0.3614  0.0407
 2765TIP3    H1 8259   2.981   2.334   2.714  0.4850  0.7887  0.4137
 2765TIP3    H2 8260   3.041   2.467   2.673  1.4112  0.1122 -0.4681
 2766TIP3   OH2 8261   4.433   0.190   1.385 -0.2971 -0.8265 -0.0365
 2766TIP3    H1 8262   4.361   0.245   1.354 -0.2285 -1.0655 -0.6403
 2766TIP3    H2 8263   4.424   0.190   1.480 -1.2036 -0.9970 -0.1112
 2767TIP3   OH2 8264   0.755   5.392   1.411 -0.0224  0.1596  0.3361
 2767TIP3    H1 8265   0.829   5.366   1.465 -1.0191 -1.0586  1.1582
 2767TIP3    H2 8266   0.762   5.488   1.406  1.2099  0.1208  0.9543
 2768TIP3   OH2 8267   2.005   5.483   3.304 -0.4022 -0.4432  0.3288
 2768TIP3    H1 8268   2.035   5.563   3.347  1.9669 -1.3357  0.5178
 2768TIP3    H2 8269   1.939   5.447   3.363  2.3563 -1.3443  3.1389
 2769TIP3   OH2 8270   3.718   1.216   0.106 -0.6137  0.8321  0.2666
 2769TIP3    H1 8271   3.637   1.210   0.155  0.1634 -0.2228  1.4830
 2769TIP3    H2 8272   3.781   1.252   0.169  0.7852 -1.9550  0.6002
 2770TIP3   OH2 8273   6.778   3.752   4.327  0.7169 -0.0197 -0.0638
 2770TIP3    H1 8274   6.835   3.683   4.362  1.0001  0.8217  1.2348
 2770TIP3    H2 8275   6.747   3.798   4.405  0.2169  1.0616 -0.8851
 2771TIP3   OH2 8276   7.155   4.045   1.942 -0.2779 -0.3926  0.1755
 2771TIP3    H1 8277   7.148   3.951   1.927  1.6945 -0.2898 -1.9062
 2771TIP3    H2 8278   7.247   4.060   1.963 -0.1809  1.2443 -1.2173
 2772TIP3   OH2 8279   6.059   3.495   4.936  0.5020 -0.2596 -0.5514
 2772TIP3    H1 8280   5.978   3.464   4.895 -1.3990  3.9328 -0.3826
 2772TIP3    H2 8281   6.108   3.536   4.864 -0.0320  1.8097  0.2092
 2773TIP3   OH2 8282   3.650   0.532   2.410  0.0485 -0.1133 -0.9307
 2773TIP3    H1 8283   3.601   0.530   2.327  0.4642  0.4997 -1.1947
 2773TIP3    H2 8284   3.718   0.597   2.396  0.2395 -0.1421 -0.1627
 2774TIP3   OH2 8285   6.540   2.430   2.453 -0.0582 -0.2662 -0.2853
 2774TIP3    H1 8286   6.565   2.476   2.373 -0.1398 -1.4518 -1.0296
 2774TIP3    H2 8287   6.551   2.337   2.431  1.2330 -0.5950  1.5260
 2775TIP3   OH2 8288   3.498   2.792   2.591 -0.0549  0.2331  0.5670
 2775TIP3    H1 8289   3.517   2.884   2.610  1.3006 -0.2530  1.7583
 2775TIP3    H2 8290   3.527   2.779   2.501 -2.1122  1.4116 -0.3480
 2776TIP3   OH2 8291   3.268   5.767   2.253 -0.3261  0.0289 -0.1678
 2776TIP3    H1 8292   3.308   5.731   2.174  2.6206 -0.4532  1.3760
 2776TIP3    H2 8293   3.237   5.690   2.302  0.7329 -0.0010  0.5064
 2777TIP3   OH2 8294   5.521   0.165   3.547  0.0608 -0.2744 -0.0834
 2777TIP3    H1 8295   5.475   0.241   3.583 -0.5371  1.1286 -3.3873
 2777TIP3    H2 8296   5.607   0.166   3.589 -0.8607  0.6288  1.8728
 2778TIP3   OH2 8297   5.333   2.857   1.269  0.1409  0.3244  0.0268
 2778TIP3    H1 8298   5.389   2.782   1.286  2.1077  1.1938 -2.0452
 2778TIP3    H2 8299   5.244   2.824   1.282  1.0112 -1.5455  1.8855
 2779TIP3   OH2 8300   2.681   0.156   0.719 -0.1287 -0.2321  0.0640
 2779TIP3    H1 8301   2.753   0.144   0.780  1.4453  0.3175 -1.5786
 2779TIP3    H2 8302   2.663   0.069   0.685  0.4807 -0.2377 -0.2620
 2780TIP3   OH2 8303   3.688   3.763   0.315 -0.2034 -0.0798  0.5167
 2780TIP3    H1 8304   3.662   3.854   0.333  1.7530  0.7228 -0.4701
 2780TIP3    H2 8305   3.768   3.751   0.365  1.1603 -0.2624 -1.5921
 2781TIP3   OH2 8306   1.940   4.175   0.313  0.2470  0.6260  0.0095
 2781TIP3    H1 8307   1.967   4.254   0.265  0.6462  0.4394 -0.0765
 2781TIP3    H2 8308   1.848   4.190   0.334 -0.1207  0.4545 -1.3631
 2782TIP3   OH2 8309   3.479   5.740   4.605 -0.2432  0.1257  0.3193
 2782TIP3    H1 8310   3.429   5.791   4.541 -1.5393 -0.0153  1.1895
 2782TIP3    H2 8311   3.429   5.660   4.616 -0.0411  0.1481  1.5189
 2783TIP3   OH2 8312   0.351   5.889   4.092  0.3503 -1.0361 -0.7586
 2783TIP3    H1 8313   0.351   5.859   4.183 -0.5228 -0.1733 -0.4568
 2783TIP3    H2 8314   0.341   5.809   4.040  0.4011 -1.4906 -0.0865
 2784TIP3   OH2 8315   4.667   2.894   3.483 -0.3244 -0.1359  0.1216
 2784TIP3    H1 8316   4.751   2.898   3.529 -0.4095 -2.6235  0.6583
 2784TIP3    H2 8317   4.691   2.884   3.390 -0.1263  2.2772 -0.1452
 2785TIP3   OH2 8318   5.215   6.048   4.663 -0.0035  0.0460 -0.6352
 2785TIP3    H1 8319   5.130   6.013   4.637 -0.4039 -0.2441  0.9384
 2785TIP3    H2 8320   5.198   6.092   4.746  1.0323  1.6297 -1.2229
 2786TIP3   OH2 8321   1.566   0.888   0.705  0.1949 -0.0271 -0.1725
 2786TIP3    H1 8322   1.639   0.927   0.657  0.4942  0.8645  0.9765
 2786TIP3    H2 8323   1.516   0.963   0.738  0.6459 -0.5686  1.8780
 2787TIP3   OH2 8324   3.018   4.895   1.755 -0.9031 -0.4014  0.3718
 2787TIP3    H1 8325   2.964   4.891   1.834 -1.6330 -0.1683 -0.1067
 2787TIP3    H2 8326   3.038   4.988   1.744  0.1227 -0.5490  0.8882
 2788TIP3   OH2 8327   6.866   1.954   2.813  0.3644  0.1943  0.4081
 2788TIP3    H1 8328   6.884   1.875   2.864 -0.9305 -0.2028  0.2995
 2788TIP3    H2 8329   6.911   2.024   2.859  1.2490 -0.5504  0.7018
 2789TIP3   OH2 8330   4.050   0.698   1.102 -0.0969 -0.9501  0.1961
 2789TIP3    H1 8331   4.080   0.608   1.094  1.0884 -0.7295  1.6608
 2789TIP3    H2 8332   4.111   0.749   1.049 -1.6285 -1.1048 -1.8302
 2790TIP3   OH2 8333   4.325   3.417   3.399 -1.0686  0.7008 -0.4443
 2790TIP3    H1 8334   4.234   3.396   3.421 -0.2815 -2.0200  0.7264
 2790TIP3    H2 8335   4.343   3.365   3.320  0.0678 -0.7496  0.6956
 2791TIP3   OH2 8336   4.340   4.751   1.869 -0.1251 -0.1324 -0.6170
 2791TIP3    H1 8337   4.342   4.695   1.792  0.2245 -0.0280 -0.6875
 2791TIP3    H2 8338   4.363   4.693   1.942  2.5809  0.3375 -0.9734
 2792TIP3   OH2 8339   6.732   0.820   2.365  0.1198 -0.0386 -0.3077
 2792TIP3    H1 8340   6.766   0.863   2.286 -0.8164  1.7407  0.2198
 2792TIP3    H2 8341   6.781   0.859   2.437  1.0285 -1.7177  0.0334
 2793TIP3   OH2 8342   0.053   5.764   5.868  0.3822  0.0663  0.0203
 2793TIP3    H1 8343   0.034   5.687   5.814  0.4731  1.0527 -1.4766
 2793TIP3    H2 8344   0.002   5.751   5.948  0.0709 -1.3418 -0.3894
 2794TIP3   OH2 8345   5.687   3.034   4.488 -0.2054  0.2069 -0.6200
 2794TIP3    H1 8346   5.647   3.002   4.407 -0.8951 -2.0102  0.5206
 2794TIP3    H2 8347   5.780   3.042   4.467 -0.6657  1.9964 -2.2761
 2795TIP3   OH2 8348   1.008   1.487   5.589 -0.5449  0.2799 -0.7108
 2795TIP3    H1 8349   1.050   1.517   5.670  0.1076 -1.1926 -0.4709
 2795TIP3    H2 8350   0.998   1.566   5.536  0.7486  0.9772  0.0406
 2796TIP3   OH2 8351   0.443   0.561   1.657 -0.2409 -0.2398 -0.0904
 2796TIP3    H1 8352   0.420   0.527   1.570  0.4773  0.1900 -0.4623
 2796TIP3    H2 8353   0.361   0.558   1.706 -0.8717  0.3633 -1.0672
 2797TIP3   OH2 8354   6.310   4.127   3.729 -0.3128 -0.1185  0.3993
 2797TIP3    H1 8355   6.308   4.091   3.818 -1.5090  1.4023  1.0257
 2797TIP3    H2 8356   6.342   4.054   3.675  0.4252 -1.0812  2.0499
 2798TIP3   OH2 8357   2.590   5.374   0.291  0.4897 -0.3791  0.3508
 2798TIP3    H1 8358   2.591   5.285   0.326 -0.1845  0.2370  2.0868
 2798TIP3    H2 8359   2.643   5.425   0.353 -0.1503  0.6448  0.0946
 2799TIP3   OH2 8360   6.505   5.418   5.742 -0.2785 -0.2140  0.4845
 2799TIP3    H1 8361   6.495   5.394   5.650 -3.4980 -1.5986  1.0418
 2799TIP3    H2 8362   6.486   5.512   5.744  1.5241  0.2055 -0.4067
 2800TIP3   OH2 8363   2.516   5.249   1.736  0.3699  0.3865 -0.1690
 2800TIP3    H1 8364   2.471   5.299   1.804 -0.5515 -1.5798  0.7702
 2800TIP3    H2 8365   2.496   5.296   1.655 -0.5964  1.4203  0.6236
 2801TIP3   OH2 8366   1.830   2.377   3.902  1.3104 -0.0484  0.4110
 2801TIP3    H1 8367   1.780   2.319   3.960 -0.5957  1.0121 -0.0889
 2801TIP3    H2 8368   1.921   2.366   3.930  0.5583 -0.1012  3.1314
 2802TIP3   OH2 8369   6.057   6.580   1.974  0.0998  0.2548 -0.2399
 2802TIP3    H1 8370   5.971   6.573   1.932  0.9101  0.4325 -2.0475
 2802TIP3    H2 8371   6.067   6.673   1.993 -0.7738  0.0223  1.5678
 2803TIP3   OH2 8372   4.022   4.471   4.027 -0.5049  0.0397  0.4914
 2803TIP3    H1 8373   4.086   4.518   4.080 -0.5573  0.6931 -0.0112
 2803TIP3    H2 8374   3.937   4.496   4.064 -0.4750 -1.0494  1.3392
 2804TIP3   OH2 8375   6.001   5.382   0.651 -0.6152 -0.3107 -0.1908
 2804TIP3    H1 8376   6.057   5.366   0.727 -1.2006 -0.8492  0.1386
 2804TIP3    H2 8377   5.976   5.295   0.620 -1.3669 -0.0881 -0.2460
 2805TIP3   OH2 8378   4.289   4.106   1.512  0.7125 -0.0880  0.1246
 2805TIP3    H1 8379   4.207   4.058   1.507 -0.2496  1.5468 -1.0434
 2805TIP3    H2 8380   4.293   4.140   1.601 -0.0775  0.1380  0.0759
 2806TIP3   OH2 8381   2.898   4.916   3.367 -0.2447  0.5465  0.0158
 2806TIP3    H1 8382   2.962   4.939   3.435 -1.5762 -0.4305  1.6592
 2806TIP3    H2 8383   2.940   4.944   3.285  1.6458  1.2711  1.1598
 2807TIP3   OH2 8384   5.281   0.679   1.175  0.3487 -0.0189 -0.0641
 2807TIP3    H1 8385   5.353   0.731   1.212 -0.7577  2.8283 -1.6079
 2807TIP3    H2 8386   5.202   0.730   1.196 -1.4860 -3.4468  2.3409
 2808TIP3   OH2 8387   3.285   1.034   1.215 -0.3139  0.2475 -0.1065
 2808TIP3    H1 8388   3.376   1.003   1.214 -0.8197 -1.7312  2.7193
 2808TIP3    H2 8389   3.292   1.125   1.244  0.7661 -0.1020  0.8111
 2809TIP3   OH2 8390   1.606   5.145   1.298  0.6890 -0.5038 -0.1784
 2809TIP3    H1 8391   1.522   5.188   1.282  0.7478  0.4674  1.8224
 2809TIP3    H2 8392   1.583   5.056   1.326  0.2388  0.0977  1.4377
 2810TIP3   OH2 8393   0.267   2.563   0.198  0.1178  0.0447  0.4065
 2810TIP3    H1 8394   0.336   2.599   0.142 -0.3057  0.7253  0.3125
 2810TIP3    H2 8395   0.301   2.572   0.287  0.8111 -1.0785  0.2668
 2811TIP3   OH2 8396   2.494   4.275   4.808 -0.4991 -0.2715 -0.7658
 2811TIP3    H1 8397   2.565   4.319   4.855  0.7850 -0.2445 -2.6291
 2811TIP3    H2 8398   2.421   4.337   4.811  0.4605  0.9112 -1.1720
 2812TIP3   OH2 8399   2.358   4.537   0.498 -0.3147 -0.0619 -0.1448
 2812TIP3    H1 8400   2.293   4.588   0.450 -1.0859 -0.7982  0.1045
 2812TIP3    H2 8401   2.442   4.565   0.461 -0.6568  1.8159  0.3776
 2813TIP3   OH2 8402   5.487   4.670   4.260 -0.5765  0.3447  0.3830
 2813TIP3    H1 8403   5.557   4.733   4.276 -1.9311  1.8488  0.5933
 2813TIP3    H2 8404   5.528   4.585   4.276  1.3301  1.1325 -0.0027
 2814TIP3   OH2 8405   6.542   4.860   5.777  0.0044  0.5905 -0.3386
 2814TIP3    H1 8406   6.491   4.939   5.762 -0.2997  0.2607 -1.0707
 2814TIP3    H2 8407   6.520   4.833   5.866 -0.9179  0.5839 -0.5635
 2815TIP3   OH2 8408   6.687   1.143   3.728  0.5550  0.5744 -0.2046
 2815TIP3    H1 8409   6.689   1.048   3.739  3.0173  0.6012  0.2076
 2815TIP3    H2 8410   6.663   1.177   3.815 -0.1984  0.3482 -0.3195
 2816TIP3   OH2 8411   0.157   3.347   4.809  0.5341 -0.2221  0.3621
 2816TIP3    H1 8412   0.077   3.322   4.854 -0.4729  0.3533 -1.0210
 2816TIP3    H2 8413   0.200   3.408   4.869 -1.3794  1.5016  0.1077
 2817TIP3   OH2 8414   1.741   5.700   2.447 -0.3417 -0.1234  0.1878
 2817TIP3    H1 8415   1.667   5.645   2.425  0.2822 -1.1437  0.5524
 2817TIP3    H2 8416   1.799   5.695   2.371  0.2107 -0.8614  0.6370
 2818TIP3   OH2 8417   2.177   5.907   0.365  0.0704  0.2736  0.0481
 2818TIP3    H1 8418   2.142   5.898   0.454 -0.6418  0.1142 -0.2419
 2818TIP3    H2 8419   2.150   5.995   0.337  0.2947  0.3249 -0.0111
 2819TIP3   OH2 8420   0.377   2.915   0.325  0.1276  0.2916 -0.0430
 2819TIP3    H1 8421   0.460   2.901   0.372  0.7388 -0.4072 -1.2737
 2819TIP3    H2 8422   0.350   3.003   0.350  0.9239  0.3065  0.8500
 2820TIP3   OH2 8423   0.326   2.540   0.888  0.4659 -0.4571  0.5362
 2820TIP3    H1 8424   0.268   2.470   0.919  1.6055 -1.4365  0.5250
 2820TIP3    H2 8425   0.399   2.539   0.950  0.2588  1.0809  0.8282
 2821TIP3   OH2 8426   3.628   6.717   3.795 -0.2437 -0.1368  0.2454
 2821TIP3    H1 8427   3.549   6.672   3.765 -2.1501 -0.2319  4.6400
 2821TIP3    H2 8428   3.698   6.652   3.786 -1.0543 -0.8005 -1.7138
 2822TIP3   OH2 8429   0.722   4.927   3.794 -0.1649 -0.0772  0.1666
 2822TIP3    H1 8430   0.773   4.962   3.867 -0.2673  0.5306 -0.0467
 2822TIP3    H2 8431   0.632   4.924   3.827 -0.4096  1.3163 -0.3073
 2823TIP3   OH2 8432   5.569   6.719   1.336  0.0229  0.2730  0.2935
 2823TIP3    H1 8433   5.664   6.725   1.323 -0.0686  1.5014  0.1504
 2823TIP3    H2 8434   5.531   6.767   1.263 -0.6686  1.0541  1.1507
 2824TIP3   OH2 8435   4.102   1.435   5.439 -0.8599 -0.0481  0.1800
 2824TIP3    H1 8436   4.134   1.452   5.528 -2.0341 -0.2584  0.6558
 2824TIP3    H2 8437   4.181   1.409   5.390 -0.0831  0.7560  0.9652
 2825TIP3   OH2 8438   0.555   3.111   5.514 -0.6596 -0.3945  0.7158
 2825TIP3    H1 8439   0.644   3.105   5.479 -1.7336 -0.7743 -2.2587
 2825TIP3    H2 8440   0.515   3.181   5.464 -1.9860 -0.0222  2.2247
 2826TIP3   OH2 8441   0.465   1.799   5.502 -0.1239 -0.2204 -0.0141
 2826TIP3    H1 8442   0.516   1.746   5.441 -1.2327 -0.1258 -1.0642
 2826TIP3    H2 8443   0.459   1.746   5.581 -1.8957 -2.1247 -1.2952
 2827TIP3   OH2 8444   6.304   5.077   0.722 -0.3760  0.5715 -0.1059
 2827TIP3    H1 8445   6.394   5.081   0.756  1.1724 -0.7708 -3.5644
 2827TIP3    H2 8446   6.272   4.991   0.750 -0.0895  0.5224  0.0757
 2828TIP3   OH2 8447   1.519   5.580   2.301  0.2237  0.1445  0.5352
 2828TIP3    H1 8448   1.554   5.639   2.234 -0.4041 -0.3702 -0.2580
 2828TIP3    H2 8449   1.491   5.502   2.253 -1.9718  0.4981  1.1398
 2829TIP3   OH2 8450   2.343   2.129   1.177 -0.0493  0.0509 -0.1345
 2829TIP3    H1 8451   2.251   2.112   1.198  0.2605 -0.6713  0.6682
 2829TIP3    H2 8452   2.359   2.079   1.097 -0.9835  2.0834 -1.6905
 2830TIP3   OH2 8453   3.285   1.149   3.716 -0.7100 -0.0989 -0.0796
 2830TIP3    H1 8454   3.230   1.122   3.642 -1.2248 -0.5563  0.4655
 2830TIP3    H2 8455   3.320   1.068   3.751 -1.5974 -0.0245  1.0485
 2831TIP3   OH2 8456   6.007   4.457   0.905 -0.3679 -0.0959 -0.3758
 2831TIP3    H1 8457   5.916   4.486   0.912 -0.4931 -0.6205  0.1723
 2831TIP3    H2 8458   6.011   4.377   0.957  0.5620  0.2757  0.1424
 2832TIP3   OH2 8459   4.944   1.268   3.209 -0.5559  0.4014  0.1278
 2832TIP3    H1 8460   5.012   1.262   3.277  0.8554 -0.5401 -1.2718
 2832TIP3    H2 8461   4.967   1.198   3.147 -2.5959  0.3332 -0.6252
 2833TIP3   OH2 8462   0.878   0.070   5.441  0.1361 -0.0775  0.4831
 2833TIP3    H1 8463   0.969   0.101   5.444 -0.3096  1.3261  0.0657
 2833TIP3    H2 8464   0.844   0.088   5.528  0.0778 -0.0641  0.4573
 2834TIP3   OH2 8465   1.367   4.354   4.950 -0.3158 -0.1442 -0.2488
 2834TIP3    H1 8466   1.286   4.311   4.978  0.0938  0.4133  2.0607
 2834TIP3    H2 8467   1.378   4.425   5.013  0.8997  1.0986 -1.7911
 2835TIP3   OH2 8468   4.516   2.585   1.123 -0.3924  0.1112  0.1420
 2835TIP3    H1 8469   4.467   2.666   1.116 -0.1106  0.2298 -0.5467
 2835TIP3    H2 8470   4.477   2.539   1.198 -0.3118  1.0346  0.7623
 2836TIP3   OH2 8471   6.212   0.749   2.845  0.1510 -0.0631 -0.2108
 2836TIP3    H1 8472   6.193   0.809   2.773 -0.1411 -0.8712 -0.8225
 2836TIP3    H2 8473   6.135   0.692   2.850 -0.0562  0.2969  1.0725
 2837TIP3   OH2 8474   0.021   4.703   3.530 -0.1441  0.3035  0.5860
 2837TIP3    H1 8475   0.043   4.651   3.607  0.2515 -1.4517 -0.6653
 2837TIP3    H2 8476   0.103   4.711   3.481 -1.0080 -1.6377 -1.3660
 2838TIP3   OH2 8477   4.877   4.295   5.154 -0.2922 -0.1410  0.3858
 2838TIP3    H1 8478   4.848   4.251   5.074 -0.2808 -0.6528  0.6512
 2838TIP3    H2 8479   4.925   4.372   5.125 -1.1359  0.2212 -0.0789
 2839TIP3   OH2 8480   3.149   6.704   1.376  0.2832  0.2894 -0.6782
 2839TIP3    H1 8481   3.140   6.680   1.284  1.1183  1.0090 -0.9688
 2839TIP3    H2 8482   3.134   6.623   1.424 -1.5101  0.1659 -1.3576
 2840TIP3   OH2 8483   5.228   0.360   5.410 -0.2593  0.5377 -0.3700
 2840TIP3    H1 8484   5.264   0.443   5.441 -0.4185  0.7294 -0.6900
 2840TIP3    H2 8485   5.288   0.293   5.443 -1.5780  0.5261  2.2459
 2841TIP3   OH2 8486   0.754   1.735   1.016 -0.1427  0.2281  0.4256
 2841TIP3    H1 8487   0.673   1.766   1.056 -0.2502 -1.1167  1.2913
 2841TIP3    H2 8488   0.755   1.776   0.929 -1.5348  0.5927  0.5633
 2842TIP3   OH2 8489   0.538   2.574   4.089  0.2803 -0.0821 -0.6328
 2842TIP3    H1 8490   0.557   2.530   4.172  0.2546  2.1002  0.6238
 2842TIP3    H2 8491   0.443   2.587   4.091  0.4484  1.2802 -0.2470
 2843TIP3   OH2 8492   2.686   5.749   3.665  0.0968 -0.5339 -0.1253
 2843TIP3    H1 8493   2.690   5.690   3.590 -2.0672 -1.8343  0.6709
 2843TIP3    H2 8494   2.604   5.797   3.653 -0.4631 -1.0078  1.5273
 2844TIP3   OH2 8495   2.155   5.207   4.013  0.5982  0.2006 -0.0417
 2844TIP3    H1 8496   2.107   5.285   3.985  0.5557  0.0032 -0.5161
 2844TIP3    H2 8497   2.161   5.152   3.935  0.1653 -0.5123  0.4160
 2845TIP3   OH2 8498   4.275   5.246   2.747 -0.3465  0.0419  0.8446
 2845TIP3    H1 8499   4.267   5.187   2.822 -1.2527  0.4346  1.0692
 2845TIP3    H2 8500   4.360   5.224   2.708 -0.5268 -1.1985  1.0999
 2846TIP3   OH2 8501   0.286   4.069   5.810  0.9625  0.1520  0.3496
 2846TIP3    H1 8502   0.378   4.053   5.829  0.8550 -1.2384 -0.1872
 2846TIP3    H2 8503   0.244   3.983   5.817 -0.1377  0.6125 -0.2605
 2847TIP3   OH2 8504   1.879   5.797   4.399  0.9292 -0.2031 -0.1319
 2847TIP3    H1 8505   1.894   5.756   4.484 -0.0010  1.4330  0.8742
 2847TIP3    H2 8506   1.812   5.742   4.358  1.0324 -0.7429  0.3943
 2848TIP3   OH2 8507   3.335   5.227   0.518 -0.2946  0.3047  0.4219
 2848TIP3    H1 8508   3.403   5.275   0.470 -0.2992  1.1910  1.2892
 2848TIP3    H2 8509   3.350   5.249   0.610 -0.0301 -1.7004  0.9017
 2849TIP3   OH2 8510   0.056   5.721   2.760  0.2672  0.5604  0.4526
 2849TIP3    H1 8511   0.032   5.630   2.775  1.0441  0.5952  2.1609
 2849TIP3    H2 8512   0.006   5.770   2.825 -0.1710  1.3753 -0.4802
 2850TIP3   OH2 8513   1.114   5.114   4.696 -0.0916 -0.1938 -0.7657
 2850TIP3    H1 8514   1.203   5.078   4.693  1.0393  2.3953 -2.1192
 2850TIP3    H2 8515   1.072   5.081   4.617  0.1161 -0.4115 -0.7849
 2851TIP3   OH2 8516   1.897   5.058   4.349 -0.5131 -0.1864 -0.0018
 2851TIP3    H1 8517   1.842   4.980   4.353 -0.0027 -0.5407  0.1836
 2851TIP3    H2 8518   1.840   5.125   4.312 -0.7321 -0.8400 -0.8785
 2852TIP3   OH2 8519   5.884   0.231   3.939 -0.2386  0.1484 -0.0977
 2852TIP3    H1 8520   5.980   0.229   3.947 -0.2297 -1.9542 -0.3461
 2852TIP3    H2 8521   5.854   0.151   3.981 -1.9435  0.9344  0.2743
 2853TIP3   OH2 8522  -0.034   3.647   0.602  0.3984 -0.7331 -0.2915
 2853TIP3    H1 8523   0.031   3.716   0.592  0.5355 -0.7935  0.1432
 2853TIP3    H2 8524   0.011   3.578   0.651  0.5383 -1.5084 -1.4716
 2854TIP3   OH2 8525   0.794   3.298   3.477  0.7508  0.4620 -0.3738
 2854TIP3    H1 8526   0.772   3.329   3.565  1.2467  1.3231 -0.5421
 2854TIP3    H2 8527   0.866   3.237   3.490  0.1158 -0.2309 -0.0849
 2855TIP3   OH2 8528   1.960   2.085   5.863 -0.4527  0.9153 -0.0481
 2855TIP3    H1 8529   2.034   2.138   5.894  0.2378 -0.9943  1.7660
 2855TIP3    H2 8530   1.999   2.024   5.801 -0.8556  1.1392 -0.5226
 2856TIP3   OH2 8531   1.286   3.107   0.740  0.3195  0.9501  0.2639
 2856TIP3    H1 8532   1.357   3.082   0.681 -1.4497 -0.5100 -1.3876
 2856TIP3    H2 8533   1.248   3.186   0.700 -0.1078  0.6765  0.1245
 2857TIP3   OH2 8534   3.423   6.059   3.044 -0.1889 -0.1421  0.4198
 2857TIP3    H1 8535   3.425   5.984   3.104 -0.3394 -1.2347 -0.8774
 2857TIP3    H2 8536   3.364   6.121   3.085 -0.0567 -0.7299  1.5409
 2858TIP3   OH2 8537   2.174   2.828   5.771 -0.2792 -0.1995 -0.2639
 2858TIP3    H1 8538   2.180   2.923   5.782 -0.0370 -0.2506  0.0609
 2858TIP3    H2 8539   2.248   2.794   5.821 -1.5677 -0.6969  1.3710
 2859TIP3   OH2 8540   3.195   0.201   0.967  0.7800 -0.0097 -0.0794
 2859TIP3    H1 8541   3.207   0.130   1.031 -0.5744  0.2060  0.4399
 2859TIP3    H2 8542   3.263   0.265   0.990  1.0422 -0.4591  0.4200
 2860TIP3   OH2 8543   6.572   2.398   5.194 -0.3302  0.0006 -0.1363
 2860TIP3    H1 8544   6.527   2.382   5.111 -1.1627  1.3919  0.0072
 2860TIP3    H2 8545   6.662   2.417   5.169 -0.4211 -0.2523 -0.6675
 2861TIP3   OH2 8546   5.453   0.204   4.650  0.3203 -0.2850 -0.9337
 2861TIP3    H1 8547   5.529   0.156   4.616  1.3578  0.4947  0.2202
 2861TIP3    H2 8548   5.467   0.294   4.622 -0.7941 -0.3278 -1.6927
 2862TIP3   OH2 8549   2.541   6.723   3.259  0.4587 -0.2510  0.2714
 2862TIP3    H1 8550   2.590   6.792   3.214 -2.5694 -0.0916 -3.2694
 2862TIP3    H2 8551   2.583   6.642   3.229 -0.4635 -0.0770 -1.6417
 2863TIP3   OH2 8552   5.897   0.367   2.167 -0.5822 -0.4141 -0.6383
 2863TIP3    H1 8553   5.885   0.445   2.112  0.1764  0.2932  0.1608
 2863TIP3    H2 8554   5.936   0.401   2.248 -1.4083 -1.4625  0.2323
 2864TIP3   OH2 8555   2.883   6.677   4.268 -0.5188  0.1736 -0.0683
 2864TIP3    H1 8556   2.803   6.728   4.257 -0.1011  1.4012  2.0970
 2864TIP3    H2 8557   2.856   6.602   4.321 -0.1136  1.0715  1.4645
 2865TIP3   OH2 8558   2.735   3.893   1.962  0.5044  0.1368 -0.3178
 2865TIP3    H1 8559   2.676   3.818   1.973  1.1547 -0.3515 -0.1228
 2865TIP3    H2 8560   2.693   3.946   1.894 -1.0471  0.6832  1.0023
 2866TIP3   OH2 8561   1.621   1.595   0.557 -0.1791  0.0953  0.8383
 2866TIP3    H1 8562   1.634   1.678   0.603 -0.1663  0.4852  0.1454
 2866TIP3    H2 8563   1.656   1.528   0.617  1.4226  0.7410  0.6866
 2867TIP3   OH2 8564   2.802   1.629   1.306 -0.0368  0.7057  0.2383
 2867TIP3    H1 8565   2.732   1.644   1.370 -1.6954  2.3139 -1.8261
 2867TIP3    H2 8566   2.875   1.683   1.338 -0.5043  0.7680  1.2379
 2868TIP3   OH2 8567   6.983   5.385   4.088  0.1422 -0.1662 -0.6725
 2868TIP3    H1 8568   7.073   5.359   4.067 -0.3911 -0.7531 -2.3921
 2868TIP3    H2 8569   6.982   5.480   4.078  0.6278 -0.1324 -0.4174
 2869TIP3   OH2 8570   7.034   1.148   4.742  0.1187 -0.2275  0.4978
 2869TIP3    H1 8571   7.092   1.216   4.775  0.8540 -0.1352 -0.9104
 2869TIP3    H2 8572   7.030   1.084   4.812  0.5806  0.5742  1.2712
 2870TIP3   OH2 8573   0.371   3.995   5.162 -0.3339  0.3660 -0.4496
 2870TIP3    H1 8574   0.297   3.946   5.198  2.5227 -2.4693  2.0840
 2870TIP3    H2 8575   0.402   4.050   5.234  1.8436 -0.8353 -0.4007
 2871TIP3   OH2 8576   2.865   0.114   5.689 -0.8038  0.3802  0.2170
 2871TIP3    H1 8577   2.884   0.186   5.628 -1.9572  1.0396  0.5939
 2871TIP3    H2 8578   2.834   0.158   5.769 -0.3633 -0.5059  0.8920
 2872TIP3   OH2 8579   4.718   4.051   2.802 -0.4049  0.4124 -0.5377
 2872TIP3    H1 8580   4.751   4.061   2.713 -0.5849 -0.6676 -0.7398
 2872TIP3    H2 8581   4.627   4.083   2.797 -0.3794  0.4597 -0.7155
 2873TIP3   OH2 8582   4.606   0.032   3.410 -0.2165  0.1857 -0.6779
 2873TIP3    H1 8583   4.629   0.066   3.323 -2.4009  3.3614 -0.1700
 2873TIP3    H2 8584   4.522  -0.013   3.396 -0.3151  0.2504 -0.2903
 2874TIP3   OH2 8585   2.468   4.176   3.236 -0.4871  0.0214 -0.6067
 2874TIP3    H1 8586   2.374   4.158   3.240 -0.4177 -0.7888 -1.9616
 2874TIP3    H2 8587   2.503   4.107   3.181  1.3931 -1.3823  2.1550
 2875TIP3   OH2 8588   0.916   4.168   1.948 -0.7655  0.9767 -0.2722
 2875TIP3    H1 8589   0.896   4.228   2.020  1.4070 -0.2632  1.4899
 2875TIP3    H2 8590   1.004   4.193   1.920 -0.7776  0.1141 -1.1246
 2876TIP3   OH2 8591   3.007   0.665   2.608  0.4027  0.0533  0.3913
 2876TIP3    H1 8592   3.094   0.627   2.593 -0.0501 -0.6567 -0.5031
 2876TIP3    H2 8593   3.021   0.759   2.604  0.8969 -0.0579 -1.2370
 2877TIP3   OH2 8594   2.782   0.626   2.443  0.0412 -0.0130  0.1737
 2877TIP3    H1 8595   2.855   0.686   2.460 -0.4635  1.0062 -1.0037
 2877TIP3    H2 8596   2.718   0.647   2.510  0.2483  0.1277  0.3290
 2878TIP3   OH2 8597   2.896   5.307   4.258 -0.4930 -0.5926  0.7017
 2878TIP3    H1 8598   2.930   5.220   4.278  0.5922 -0.3061  0.1540
 2878TIP3    H2 8599   2.957   5.367   4.301 -1.7974 -0.0912  1.9407
 2879TIP3   OH2 8600   1.752   1.553   3.398 -0.1104  0.0401 -0.0176
 2879TIP3    H1 8601   1.793   1.474   3.362  0.6748  0.3582  0.1465
 2879TIP3    H2 8602   1.786   1.559   3.487  0.9774  1.3281 -0.4862
 2880TIP3   OH2 8603   0.858   1.289   1.659  0.1956  0.5288  0.2428
 2880TIP3    H1 8604   0.856   1.382   1.682 -2.3010  0.6856 -0.3008
 2880TIP3    H2 8605   0.808   1.246   1.729  0.2833 -0.2298 -0.1477
 2881TIP3   OH2 8606   3.318   3.262   3.027 -0.0034 -0.1813 -0.3266
 2881TIP3    H1 8607   3.327   3.269   3.122  0.7601  0.9000 -0.4604
 2881TIP3    H2 8608   3.326   3.352   2.996 -1.8309 -0.3059 -1.2956
 2882TIP3   OH2 8609   4.724   5.378   3.674  0.4629  0.2941  0.0398
 2882TIP3    H1 8610   4.642   5.422   3.653  0.9750  0.1021 -2.9010
 2882TIP3    H2 8611   4.710   5.287   3.648  1.6665  0.3338 -0.8366
 2883TIP3   OH2 8612   3.054   3.175   3.565 -0.0255  0.2388  0.2699
 2883TIP3    H1 8613   2.960   3.170   3.583 -0.0752  0.2207  0.0078
 2883TIP3    H2 8614   3.078   3.265   3.588 -0.2642  0.4836 -0.4003
 2884TIP3   OH2 8615   3.071   2.039   1.259  0.1039 -0.2274  0.6826
 2884TIP3    H1 8616   3.088   2.037   1.353 -0.2503 -1.1906  0.7375
 2884TIP3    H2 8617   3.044   1.950   1.237  2.1714 -0.5733 -0.7233
 2885TIP3   OH2 8618   3.136   0.737   3.468 -0.1977  0.6946  0.0294
 2885TIP3    H1 8619   3.063   0.698   3.515  0.9133 -0.6387  0.7412
 2885TIP3    H2 8620   3.096   0.782   3.394 -1.6530 -0.8094 -0.1490
 2886TIP3   OH2 8621   2.889   4.885   1.224 -0.0811 -0.3291  0.1492
 2886TIP3    H1 8622   2.876   4.970   1.266 -5.0845 -0.1402 -1.1485
 2886TIP3    H2 8623   2.893   4.823   1.297 -1.9539  0.6052  1.1348
 2887TIP3   OH2 8624   0.227   2.871   2.476  0.9437 -0.5687  0.4309
 2887TIP3    H1 8625   0.136   2.841   2.467  0.5751  0.6103  0.0232
 2887TIP3    H2 8626   0.224   2.933   2.549  1.2244  0.1621 -0.1666
 2888TIP3   OH2 8627   3.433   6.306   5.901 -0.1133 -0.2823 -0.0199
 2888TIP3    H1 8628   3.408   6.243   5.834 -0.6678  0.8515 -0.9239
 2888TIP3    H2 8629   3.459   6.384   5.852  1.9015 -0.2295  1.0015
 2889TIP3   OH2 8630   3.600   2.462   1.928 -0.2462  0.0189  0.4315
 2889TIP3    H1 8631   3.569   2.395   1.988  0.4795 -0.4156  0.3385
 2889TIP3    H2 8632   3.631   2.413   1.851 -0.6099  0.5264 -0.0497
 2890TIP3   OH2 8633   0.653   2.622   2.703  0.6072  0.0580 -0.1075
 2890TIP3    H1 8634   0.590   2.674   2.653 -0.5499 -0.3264  0.8982
 2890TIP3    H2 8635   0.739   2.653   2.673 -0.0484  1.5725 -0.5212
 2891TIP3   OH2 8636   1.114   4.315   2.851  0.0591 -0.1558 -0.3752
 2891TIP3    H1 8637   1.205   4.328   2.825  0.2249 -1.4569 -0.5068
 2891TIP3    H2 8638   1.064   4.374   2.794  0.8373  0.8750 -0.0125
 2892TIP3   OH2 8639   3.329   1.524   2.080 -0.0450  0.1133 -0.5469
 2892TIP3    H1 8640   3.341   1.598   2.139 -0.7017  0.7123 -1.1424
 2892TIP3    H2 8641   3.417   1.505   2.048  0.4920 -0.8888  1.3672
 2893TIP3   OH2 8642   2.436   5.014   4.912 -0.3235 -0.3687  0.2758
 2893TIP3    H1 8643   2.526   4.990   4.888 -0.3439  0.7039 -0.9601
 2893TIP3    H2 8644   2.380   4.962   4.855 -0.4469  0.1550 -0.0828
 2894TIP3   OH2 8645   6.609   4.153   2.317 -0.3544  0.7727 -0.7428
 2894TIP3    H1 8646   6.518   4.135   2.336 -0.2538  1.1228  0.1517
 2894TIP3    H2 8647   6.637   4.212   2.388  0.7990 -0.0279 -0.4978
 2895TIP3   OH2 8648   0.893   0.825   0.634 -0.0602  0.4865  0.2671
 2895TIP3    H1 8649   0.805   0.861   0.625 -0.0649  0.8044  1.5010
 2895TIP3    H2 8650   0.934   0.842   0.549 -0.6310  1.8770  0.2400
 2896TIP3   OH2 8651   0.150   6.796   1.376  0.1873  0.2429 -0.5547
 2896TIP3    H1 8652   0.184   6.711   1.347  0.3345  0.1450 -0.0974
 2896TIP3    H2 8653   0.061   6.800   1.340  0.5336  0.3303 -1.4210
 2897TIP3   OH2 8654   2.945   1.906   0.899 -0.2532 -0.2699  0.7423
 2897TIP3    H1 8655   2.939   1.892   0.994  0.7380 -1.4355  0.6569
 2897TIP3    H2 8656   2.864   1.870   0.864 -0.3244 -0.4567  1.0956
 2898TIP3   OH2 8657   1.022   5.756   1.858 -0.3486  0.2659 -0.0060
 2898TIP3    H1 8658   1.039   5.699   1.933  0.3667  0.7227  0.1824
 2898TIP3    H2 8659   1.010   5.843   1.895 -2.1649  0.1457 -0.2226
 2899TIP3   OH2 8660   3.851   3.990   1.270  0.2289 -0.2066  0.4084
 2899TIP3    H1 8661   3.848   4.070   1.217  1.0842 -0.0112  0.6456
 2899TIP3    H2 8662   3.774   3.998   1.327 -1.5027 -1.0665 -1.6598
 2900TIP3   OH2 8663   4.344   1.229   0.247  0.5498  0.1644 -0.1880
 2900TIP3    H1 8664   4.262   1.226   0.197  1.5235  1.2042 -1.9463
 2900TIP3    H2 8665   4.338   1.310   0.298  1.6607  1.9174 -2.6303
 2901TIP3   OH2 8666   3.211   6.808   3.126 -0.0293 -0.1651 -0.3934
 2901TIP3    H1 8667   3.126   6.816   3.082  0.0083  1.1797 -0.2677
 2901TIP3    H2 8668   3.189   6.791   3.218 -0.1564 -0.3616 -0.4605
 2902TIP3   OH2 8669   6.377   0.416   3.620 -0.8003 -0.5714 -0.0950
 2902TIP3    H1 8670   6.309   0.391   3.683 -2.3050 -1.2547 -1.8848
 2902TIP3    H2 8671   6.331   0.469   3.555  0.8960  0.9026 -0.1733
 2903TIP3   OH2 8672   3.802   6.605   1.926  0.4746  0.1275 -0.2269
 2903TIP3    H1 8673   3.847   6.688   1.913  1.9727 -0.5214  0.6006
 2903TIP3    H2 8674   3.774   6.578   1.839  1.9489  0.4181 -0.8148
 2904TIP3   OH2 8675   5.944   3.893   1.786  0.3163  0.0713  0.4305
 2904TIP3    H1 8676   5.892   3.920   1.710  1.5416  2.1199  0.2698
 2904TIP3    H2 8677   6.033   3.923   1.767  0.7679  0.1378  2.4277
 2905TIP3   OH2 8678   3.194   2.644   5.606  0.0607  0.4545  0.1014
 2905TIP3    H1 8679   3.186   2.670   5.515  2.7368  0.4663 -0.2032
 2905TIP3    H2 8680   3.231   2.721   5.650  4.9251 -1.3570 -0.1823
 2906TIP3   OH2 8681   6.615   1.545   3.269  0.2479 -0.5506 -0.1487
 2906TIP3    H1 8682   6.603   1.496   3.350 -2.8919  1.5733  0.8980
 2906TIP3    H2 8683   6.645   1.632   3.298  0.2273 -0.1195 -1.3630
 2907TIP3   OH2 8684   5.372   0.628   5.495  0.1151 -0.0695  0.1375
 2907TIP3    H1 8685   5.463   0.655   5.503  0.3299 -1.1314  1.5632
 2907TIP3    H2 8686   5.353   0.581   5.576 -2.2960  1.7702  0.7479
 2908TIP3   OH2 8687   2.869   1.090   2.757 -0.1558  0.1275 -0.2316
 2908TIP3    H1 8688   2.846   1.142   2.834 -1.6525 -0.8134  0.0004
 2908TIP3    H2 8689   2.863   1.151   2.684 -3.0228  0.1203 -0.1132
 2909TIP3   OH2 8690   0.843   1.610   0.743 -0.0399 -0.5314  0.3809
 2909TIP3    H1 8691   0.790   1.532   0.729  0.5104 -0.9200  0.4153
 2909TIP3    H2 8692   0.783   1.683   0.728 -0.5101 -0.9576  0.1511
 2910TIP3   OH2 8693   1.586   2.075   4.505 -0.2631 -0.2928 -0.0260
 2910TIP3    H1 8694   1.515   2.019   4.473  0.8488 -0.9617 -1.4539
 2910TIP3    H2 8695   1.560   2.100   4.593 -1.4289 -1.9744  0.1364
 2911TIP3   OH2 8696   3.233   2.085   0.587  1.0639 -0.7486  0.1919
 2911TIP3    H1 8697   3.161   2.077   0.525  0.6412 -0.1971  0.6059
 2911TIP3    H2 8698   3.294   2.015   0.563 -0.1687 -1.9999  0.5935
 2912TIP3   OH2 8699   2.216   0.518   0.541  0.0409  0.0216  0.3494
 2912TIP3    H1 8700   2.157   0.475   0.480  0.2169  0.0887  0.1305
 2912TIP3    H2 8701   2.294   0.539   0.489  0.0370  0.4295  0.4977
 2913TIP3   OH2 8702   4.176   0.261   5.537  0.4848 -0.5970  0.0514
 2913TIP3    H1 8703   4.237   0.192   5.563 -1.2430 -2.3120 -0.1804
 2913TIP3    H2 8704   4.102   0.214   5.498 -0.7148  1.4132 -0.2602
 2914TIP3   OH2 8705   4.116   4.679   3.874  0.2417  0.2825  0.5379
 2914TIP3    H1 8706   4.052   4.610   3.894  0.9628 -0.3453  0.7249
 2914TIP3    H2 8707   4.199   4.645   3.908  0.6717  1.0969  0.3189
 2915TIP3   OH2 8708   0.675   4.711   3.319 -0.4549  0.1865  0.6692
 2915TIP3    H1 8709   0.607   4.645   3.311 -0.6246  0.1002  2.4844
 2915TIP3    H2 8710   0.755   4.661   3.335 -0.1415  0.3472 -0.2827
 2916TIP3   OH2 8711   1.887   6.296   3.406  0.0299  0.3963 -0.0914
 2916TIP3    H1 8712   1.808   6.345   3.382  0.8246  1.4216 -0.6821
 2916TIP3    H2 8713   1.959   6.346   3.367  0.8177 -1.8185 -1.6941
 2917TIP3   OH2 8714   0.562   3.689   1.648 -0.2618  0.7719  0.0493
 2917TIP3    H1 8715   0.641   3.635   1.647 -0.0586  1.0729 -0.0459
 2917TIP3    H2 8716   0.590   3.775   1.616 -0.6565  0.8401 -0.1210
 2918TIP3   OH2 8717   3.474   6.748   4.025 -0.6355  0.3499 -0.0175
 2918TIP3    H1 8718   3.480   6.653   4.036  2.2988  0.5906  1.2880
 2918TIP3    H2 8719   3.527   6.766   3.947  0.5915  1.0504  0.9420
 2919TIP3   OH2 8720   3.054   2.608   3.335 -1.0307 -0.4329  0.1444
 2919TIP3    H1 8721   2.972   2.646   3.368 -0.2224  0.1324  1.5937
 2919TIP3    H2 8722   3.059   2.522   3.376 -0.8220 -0.3996  0.1914
 2920TIP3   OH2 8723   1.490   2.571   5.178  0.2067 -0.1128  0.7269
 2920TIP3    H1 8724   1.491   2.582   5.083 -0.8996  0.6235  0.7890
 2920TIP3    H2 8725   1.575   2.532   5.198  0.9132  0.7603 -0.4390
 2921TIP3   OH2 8726   1.803   0.599   4.242 -0.5529 -0.0660 -0.3812
 2921TIP3    H1 8727   1.870   0.535   4.219 -0.3299  0.3525 -0.9170
 2921TIP3    H2 8728   1.726   0.546   4.264 -0.4020 -0.5130 -0.9131
 2922TIP3   OH2 8729   0.056   1.837   4.118 -0.8351 -0.0228 -0.1150
 2922TIP3    H1 8730   0.044   1.931   4.136  0.1785  0.5082 -1.9868
 2922TIP3    H2 8731   0.071   1.833   4.023  1.9327 -1.7768  0.3053
 2923TIP3   OH2 8732   0.034   6.450   4.904  0.1700 -0.3469 -0.2364
 2923TIP3    H1 8733   0.010   6.411   4.987 -2.1528  0.2236 -0.5807
 2923TIP3    H2 8734   0.100   6.516   4.926 -0.3872 -0.2333  1.1594
 2924TIP3   OH2 8735   5.186   6.519   0.550  0.2796 -0.0184 -0.0870
 2924TIP3    H1 8736   5.229   6.456   0.606 -0.0729  0.3626  0.6265
 2924TIP3    H2 8737   5.229   6.602   0.570 -2.1944  0.8372  2.3425
 2925TIP3   OH2 8738   1.841   0.497   5.468  0.1598 -0.2564  0.3444
 2925TIP3    H1 8739   1.778   0.451   5.524 -1.9380  1.5121 -0.4444
 2925TIP3    H2 8740   1.789   0.562   5.421  2.2205 -0.1800 -2.0352
 2926TIP3   OH2 8741   1.308   1.844   4.089 -0.3499 -0.6077  0.1242
 2926TIP3    H1 8742   1.336   1.760   4.126 -0.3143  1.0182  4.2260
 2926TIP3    H2 8743   1.215   1.832   4.068 -0.3373 -1.6555  0.6369
 2927TIP3   OH2 8744   6.617   0.509   0.411 -0.1084 -0.1557 -0.4722
 2927TIP3    H1 8745   6.713   0.509   0.413 -0.1054 -1.0452  1.6736
 2927TIP3    H2 8746   6.595   0.474   0.324  1.4698  0.8563 -1.3264
 2928TIP3   OH2 8747   5.102   2.138   0.770 -0.0481  0.0352 -0.2974
 2928TIP3    H1 8748   5.024   2.143   0.827 -0.6824 -0.2435 -1.1225
 2928TIP3    H2 8749   5.112   2.045   0.752  0.7340  0.0264  0.1294
 2929TIP3   OH2 8750   5.536   4.235   0.993  0.0442  0.5245 -0.1892
 2929TIP3    H1 8751   5.514   4.321   1.029 -1.3357  0.3679 -0.6028
 2929TIP3    H2 8752   5.458   4.182   1.009  0.3926 -0.2806 -1.0953
 2930TIP3   OH2 8753   4.338   0.916   3.350  0.5808  0.2407 -0.2003
 2930TIP3    H1 8754   4.413   0.863   3.325 -0.1525 -0.0017 -2.0601
 2930TIP3    H2 8755   4.350   0.933   3.443  1.8163 -1.5804  0.0194
 2931TIP3   OH2 8756   4.383   1.162   4.057  0.8747  0.0559 -0.9135
 2931TIP3    H1 8757   4.419   1.136   4.142 -0.0832 -0.3557 -0.6269
 2931TIP3    H2 8758   4.360   1.080   4.015  0.9656  0.2808 -1.4100
 2932TIP3   OH2 8759   2.641   5.110   0.374  0.0807  0.4067  0.3417
 2932TIP3    H1 8760   2.726   5.076   0.399  0.5454 -0.4644 -2.1609
 2932TIP3    H2 8761   2.579   5.065   0.431  1.1161 -0.5604  0.7344
 2933TIP3   OH2 8762   7.080   0.591   4.465  0.0664 -0.1997 -0.3211
 2933TIP3    H1 8763   7.111   0.614   4.553  1.5728 -0.3249 -0.7832
 2933TIP3    H2 8764   7.053   0.674   4.426  3.1095  0.5565 -1.0875
 2934TIP3   OH2 8765   3.047   4.695   3.876 -0.5868  0.5091 -0.2657
 2934TIP3    H1 8766   2.973   4.738   3.833 -1.6097 -0.1536  0.7695
 2934TIP3    H2 8767   3.007   4.640   3.943  0.7964 -0.6282 -0.3282
 2935TIP3   OH2 8768   5.414   4.607   5.867 -0.1572  0.2159  0.1934
 2935TIP3    H1 8769   5.495   4.603   5.817 -0.3431  0.9860 -0.1858
 2935TIP3    H2 8770   5.378   4.694   5.848 -0.1442  0.6019  1.8062
 2936TIP3   OH2 8771   3.714   6.189   1.419  0.5421  1.0547  0.0509
 2936TIP3    H1 8772   3.692   6.203   1.327  3.2700  0.9286 -0.7077
 2936TIP3    H2 8773   3.722   6.094   1.428 -2.3212  0.8155  1.1848
 2937TIP3   OH2 8774   3.224   0.829   2.974  0.3981  0.0899 -0.2281
 2937TIP3    H1 8775   3.253   0.750   2.928  0.7460 -0.8441  1.5121
 2937TIP3    H2 8776   3.128   0.828   2.965  0.4424 -0.2302 -0.6914
 2938TIP3   OH2 8777   4.307   3.188   1.447 -0.3610 -0.0843 -0.1778
 2938TIP3    H1 8778   4.336   3.186   1.538 -2.8052 -0.4601  0.6689
 2938TIP3    H2 8779   4.360   3.257   1.407  0.0370  0.8405  1.7884
 2939TIP3   OH2 8780   4.808   5.474   2.010  0.4663  0.0974  0.5621
 2939TIP3    H1 8781   4.824   5.566   2.034 -0.7105  0.3247  0.5711
 2939TIP3    H2 8782   4.745   5.479   1.938  0.2838 -0.7096  0.6555
 2940TIP3   OH2 8783   2.693   0.689   4.166 -0.1746  0.2692  0.4278
 2940TIP3    H1 8784   2.773   0.719   4.123  1.0939 -0.6407  2.0187
 2940TIP3    H2 8785   2.676   0.604   4.127 -1.0034  0.9155 -0.6623
 2941TIP3   OH2 8786   5.495   4.191   0.713  0.1328 -0.0876  0.6204
 2941TIP3    H1 8787   5.564   4.200   0.647 -1.0553 -0.1566 -0.6738
 2941TIP3    H2 8788   5.529   4.126   0.774  1.0802 -0.3508 -0.1624
 2942TIP3   OH2 8789   0.157   1.116   1.211  0.4895 -0.3422  0.2982
 2942TIP3    H1 8790   0.210   1.059   1.266  1.3505 -0.2099 -0.3897
 2942TIP3    H2 8791   0.079   1.064   1.191  0.3766 -0.5585  1.2487
 2943TIP3   OH2 8792   2.711   5.474   1.788  0.0079 -0.7256  0.4445
 2943TIP3    H1 8793   2.798   5.495   1.756  0.3529 -1.1967  1.0554
 2943TIP3    H2 8794   2.726   5.430   1.871 -0.8823  0.7014  1.4014
 2944TIP3   OH2 8795   2.118   0.754   1.703  0.1165 -0.4379 -0.0921
 2944TIP3    H1 8796   2.119   0.701   1.623  0.2814  0.5275 -0.7434
 2944TIP3    H2 8797   2.155   0.838   1.676  1.4205 -0.5280  1.2998
 2945TIP3   OH2 8798   5.866   2.347   3.386 -0.2868  0.2957  0.8165
 2945TIP3    H1 8799   5.886   2.277   3.323  1.7939  1.1702  0.4273
 2945TIP3    H2 8800   5.899   2.426   3.344 -2.1912  1.4850  1.4557
 2946TIP3   OH2 8801   3.510   2.206   2.327 -0.0693  0.2895 -0.5476
 2946TIP3    H1 8802   3.552   2.166   2.403  1.2807  2.4863 -0.0356
 2946TIP3    H2 8803   3.417   2.193   2.341  0.2516 -1.2107  0.3847
 2947TIP3   OH2 8804   2.849   1.770   1.769  0.3271 -0.1034  0.4702
 2947TIP3    H1 8805   2.882   1.687   1.734  2.6461  1.1313 -0.5171
 2947TIP3    H2 8806   2.755   1.755   1.782  0.9149 -3.3984  2.0137
 2948TIP3   OH2 8807   3.677   5.817   0.336  0.5698 -0.0491  0.4555
 2948TIP3    H1 8808   3.619   5.810   0.260  1.7110 -0.2715 -0.4254
 2948TIP3    H2 8809   3.713   5.729   0.346  1.5039  0.3187  0.3730
 2949TIP3   OH2 8810   2.505   4.624   5.550 -0.2853 -0.6650 -0.3018
 2949TIP3    H1 8811   2.457   4.664   5.622 -1.2075  0.3350 -1.4310
 2949TIP3    H2 8812   2.493   4.529   5.562 -1.0029 -0.4775  0.4650
 2950TIP3   OH2 8813   1.535   2.216   1.307  0.3612  0.0894  0.3585
 2950TIP3    H1 8814   1.627   2.188   1.317  0.4283  1.1095  4.1991
 2950TIP3    H2 8815   1.540   2.299   1.260  1.3267 -0.2216 -0.1127
 2951TIP3   OH2 8816   0.390   1.924   4.168  0.3130 -0.1955  0.2590
 2951TIP3    H1 8817   0.357   1.853   4.223  2.2313 -0.2566  1.4316
 2951TIP3    H2 8818   0.467   1.888   4.126  0.3812  0.6999 -0.4141
 2952TIP3   OH2 8819   6.960   2.860   4.191  0.7149 -0.0806  0.1867
 2952TIP3    H1 8820   6.967   2.883   4.284  1.0448 -2.0687  0.6958
 2952TIP3    H2 8821   6.868   2.876   4.169 -0.0546 -2.1283  1.6209
 2953TIP3   OH2 8822   6.236   0.521   1.741  0.3058  1.1908 -0.4281
 2953TIP3    H1 8823   6.309   0.580   1.721 -0.3077  2.3989  0.7605
 2953TIP3    H2 8824   6.208   0.547   1.829 -0.9909  0.1481 -0.5119
 2954TIP3   OH2 8825   2.214   4.080   5.305 -0.3248  0.0224  0.0509
 2954TIP3    H1 8826   2.121   4.092   5.322 -0.3918 -1.4491  0.8931
 2954TIP3    H2 8827   2.220   3.994   5.262  0.5628  0.4937 -0.8171
 2955TIP3   OH2 8828   4.178   1.241   2.717 -0.3778  0.4052  0.2955
 2955TIP3    H1 8829   4.161   1.299   2.792 -0.0182  0.1074  0.6081
 2955TIP3    H2 8830   4.272   1.226   2.719 -0.3882  0.2853 -0.1379
 2956TIP3   OH2 8831   2.552   1.376   1.592  0.0162  0.1778 -0.2321
 2956TIP3    H1 8832   2.471   1.334   1.620  0.8119 -1.2224  0.0451
 2956TIP3    H2 8833   2.611   1.367   1.667 -0.6408  4.4724  1.0754
 2957TIP3   OH2 8834   2.848   1.662   0.306 -0.4540  0.3991  0.1344
 2957TIP3    H1 8835   2.896   1.597   0.357  1.7959  0.2185 -2.0004
 2957TIP3    H2 8836   2.826   1.616   0.225 -0.2124  1.8043 -0.7615
 2958TIP3   OH2 8837   0.444   6.134   1.044  0.0387 -0.1654  0.2618
 2958TIP3    H1 8838   0.416   6.189   1.117 -1.3062  0.5035 -0.7095
 2958TIP3    H2 8839   0.417   6.183   0.966 -0.0610 -1.6308 -0.6498
 2959TIP3   OH2 8840   3.829   1.282   0.721 -0.1333 -0.0249 -0.8527
 2959TIP3    H1 8841   3.745   1.325   0.702 -0.0622  2.7341  3.5956
 2959TIP3    H2 8842   3.806   1.190   0.734 -1.9400  0.1704 -2.2300
 2960TIP3   OH2 8843   5.046   2.334   2.420  0.5695  0.5077 -0.6152
 2960TIP3    H1 8844   5.085   2.305   2.338  3.3529  2.0728  0.0333
 2960TIP3    H2 8845   4.985   2.403   2.394 -0.2915 -0.5395 -1.4914
 2961TIP3   OH2 8846   0.399   0.184   1.425 -0.5540  0.0164 -0.0355
 2961TIP3    H1 8847   0.492   0.166   1.410 -0.0885  0.7253  1.7074
 2961TIP3    H2 8848   0.354   0.141   1.353  0.9217 -2.7543  0.5407
 2962TIP3   OH2 8849   2.124   1.524   4.850  0.1079 -0.0886  0.6260
 2962TIP3    H1 8850   2.032   1.546   4.838  0.2849 -0.5906 -2.5539
 2962TIP3    H2 8851   2.161   1.599   4.897 -1.2212  1.9795 -1.4057
 2963TIP3   OH2 8852   2.018   3.869   1.311  0.3187 -0.1896  0.2525
 2963TIP3    H1 8853   1.988   3.802   1.372 -0.2376 -0.8330 -0.6860
 2963TIP3    H2 8854   1.951   3.870   1.242  0.0676  1.6780  0.4739
 2964TIP3   OH2 8855   3.393   1.723   1.117  0.3001  0.3136  0.4690
 2964TIP3    H1 8856   3.359   1.764   1.196  1.7323  1.3674  0.5806
 2964TIP3    H2 8857   3.465   1.667   1.148  0.5134  0.3106 -0.0175
 2965TIP3   OH2 8858   4.483   3.821   4.506 -0.2855  0.5448 -0.2577
 2965TIP3    H1 8859   4.542   3.865   4.444  0.9065  0.4444  0.7718
 2965TIP3    H2 8860   4.529   3.825   4.590 -0.2781 -2.3271 -0.0325
 2966TIP3   OH2 8861   5.537   5.661   2.258  0.3479  0.1121  0.0318
 2966TIP3    H1 8862   5.541   5.702   2.172  2.2805  0.5840  0.3110
 2966TIP3    H2 8863   5.626   5.665   2.291 -0.1348 -1.0640  1.6076
 2967TIP3   OH2 8864   6.507   3.784   0.230  0.6506 -0.2465 -0.0029
 2967TIP3    H1 8865   6.601   3.764   0.239  0.6850  0.7434  2.9812
 2967TIP3    H2 8866   6.463   3.711   0.272  0.2672  0.7299  1.3429
 2968TIP3   OH2 8867   5.248   2.172   1.784 -0.3237 -0.4565  0.5034
 2968TIP3    H1 8868   5.289   2.181   1.698 -1.2055 -0.6979  0.0454
 2968TIP3    H2 8869   5.168   2.122   1.767 -1.8564  1.6815  1.0338
 2969TIP3   OH2 8870   2.646   5.587   5.381  0.1094 -0.0291  0.1419
 2969TIP3    H1 8871   2.657   5.672   5.339 -0.2328  0.5458  1.1758
 2969TIP3    H2 8872   2.649   5.524   5.309 -0.7545  0.9442 -0.7791
 2970TIP3   OH2 8873   6.590   3.118   0.200  0.5549 -0.3698 -0.0831
 2970TIP3    H1 8874   6.532   3.179   0.154 -0.8419 -0.4892  1.4310
 2970TIP3    H2 8875   6.665   3.171   0.226 -1.3656  1.2539  2.6537
 2971TIP3   OH2 8876   3.701   6.753   3.454  0.2300 -0.4415 -0.1637
 2971TIP3    H1 8877   3.718   6.718   3.542 -1.4815  0.3936  0.5495
 2971TIP3    H2 8878   3.627   6.702   3.422 -0.3732  0.5015 -0.3197
 2972TIP3   OH2 8879   6.851   5.698   2.165  0.2359  0.0288  0.1670
 2972TIP3    H1 8880   6.822   5.784   2.195  1.9003  0.4280  0.7163
 2972TIP3    H2 8881   6.885   5.656   2.243  0.1568 -0.8359 -0.2598
 2973TIP3   OH2 8882   5.595   5.615   1.958  0.1009  0.6374  0.0019
 2973TIP3    H1 8883   5.627   5.525   1.957 -0.8492  0.2805 -0.6009
 2973TIP3    H2 8884   5.538   5.620   1.881 -0.0908  1.6681  0.1986
 2974TIP3   OH2 8885   0.049   3.723   1.219  0.2378  0.1203 -0.5859
 2974TIP3    H1 8886  -0.030   3.744   1.169 -0.4078 -1.5415 -0.3284
 2974TIP3    H2 8887   0.120   3.764   1.169 -0.6743  0.8828 -1.3081
 2975TIP3   OH2 8888   6.729   2.678   3.667  0.6576  0.0307 -0.1107
 2975TIP3    H1 8889   6.680   2.671   3.748 -0.6595 -1.3285 -0.9858
 2975TIP3    H2 8890   6.728   2.772   3.647 -0.2680  0.2042  0.6778
 2976TIP3   OH2 8891   2.908   1.160   0.228  0.5138 -0.1754 -0.1509
 2976TIP3    H1 8892   2.967   1.181   0.156  0.8859 -1.0407 -0.1086
 2976TIP3    H2 8893   2.964   1.152   0.304  0.3657 -1.0876 -0.1257
 2977TIP3   OH2 8894   7.061   4.734   5.201 -0.8333  0.6041 -0.3506
 2977TIP3    H1 8895   7.047   4.717   5.108 -1.4144  3.3617 -0.8592
 2977TIP3    H2 8896   7.154   4.714   5.215 -0.7646  0.0552 -1.4899
 2978TIP3   OH2 8897   1.227   0.813   0.192  0.1027 -0.0407  0.0641
 2978TIP3    H1 8898   1.164   0.881   0.168  2.2289  1.8469 -0.5896
 2978TIP3    H2 8899   1.299   0.861   0.232  0.7456 -2.2003  1.6747
 2979TIP3   OH2 8900   4.204   2.304   5.610 -0.3326 -0.2730  0.3439
 2979TIP3    H1 8901   4.131   2.315   5.671 -0.6626  1.5262 -0.3266
 2979TIP3    H2 8902   4.167   2.325   5.524  1.0823  1.3437  0.0709
 2980TIP3   OH2 8903   1.901   3.493   3.457  0.2267  0.1517 -0.0424
 2980TIP3    H1 8904   1.816   3.477   3.498 -0.0606  0.4907 -0.5011
 2980TIP3    H2 8905   1.958   3.521   3.529 -0.7266  2.4652 -0.1137
 2981TIP3   OH2 8906   0.710   5.015   2.444 -0.8834 -0.1764 -0.1878
 2981TIP3    H1 8907   0.779   5.081   2.436  1.2771 -2.3096 -0.2747
 2981TIP3    H2 8908   0.658   5.044   2.518  2.7410 -0.5804  2.8121
 2982TIP3   OH2 8909   4.252   4.798   2.710  0.2574  0.1965 -0.1610
 2982TIP3    H1 8910   4.294   4.788   2.796  0.7316  0.8880 -0.3102
 2982TIP3    H2 8911   4.319   4.770   2.647  0.9313  2.3336 -0.4697
 2983TIP3   OH2 8912   4.794   0.433   2.090  0.2807 -0.1915  0.2003
 2983TIP3    H1 8913   4.760   0.344   2.082  2.0928 -0.9457  0.3453
 2983TIP3    H2 8914   4.717   0.489   2.083 -0.9946 -1.7884  0.8088
 2984TIP3   OH2 8915   1.198   5.133   0.556 -0.6505 -0.1074  0.2976
 2984TIP3    H1 8916   1.177   5.150   0.464  0.8545 -0.5877 -0.1650
 2984TIP3    H2 8917   1.233   5.043   0.556 -2.2299 -0.7778  1.6284
 2985TIP3   OH2 8918   0.419   0.879   2.017  0.7307  0.0464 -0.0775
 2985TIP3    H1 8919   0.365   0.856   1.941  0.2357  1.7692 -0.3117
 2985TIP3    H2 8920   0.391   0.819   2.085 -0.8246  0.2378 -0.4896
 2986TIP3   OH2 8921   2.929   1.006   3.816  0.1921  0.3184  0.3369
 2986TIP3    H1 8922   2.948   0.917   3.786 -0.4237  0.8092 -1.6432
 2986TIP3    H2 8923   2.973   1.012   3.901  1.1807 -1.5071  0.0143
 2987TIP3   OH2 8924   1.867   1.411   4.698 -0.2418  0.2546 -0.3209
 2987TIP3    H1 8925   1.873   1.506   4.709  0.6549  0.1976 -0.2340
 2987TIP3    H2 8926   1.958   1.382   4.694 -0.4450 -0.7972  1.3816
 2988TIP3   OH2 8927   4.909   4.910   4.027 -0.0016  0.1868  0.4679
 2988TIP3    H1 8928   4.868   4.898   3.941  1.7196  0.8013 -0.5045
 2988TIP3    H2 8929   4.937   4.822   4.053 -2.3441 -0.3474  1.4394
 2989TIP3   OH2 8930   3.173   1.805   5.089 -0.1765  0.2416 -0.0207
 2989TIP3    H1 8931   3.090   1.838   5.124  0.5914  1.3114  0.8625
 2989TIP3    H2 8932   3.239   1.837   5.150  1.1339  1.3717 -1.9307
 2990TIP3   OH2 8933   1.932   2.040   4.270 -0.0090 -0.1497  0.4923
 2990TIP3    H1 8934   1.857   2.047   4.211  0.0772 -0.5492  0.3319
 2990TIP3    H2 8935   1.972   2.127   4.268 -1.2313  0.4630  1.6140
 2991TIP3   OH2 8936   2.675   0.622   5.330 -0.1660  0.0952 -0.5483
 2991TIP3    H1 8937   2.582   0.626   5.306 -0.4702  0.3495  0.6342
 2991TIP3    H2 8938   2.702   0.713   5.339 -0.3589  0.0182  1.1245
 2992TIP3   OH2 8939   5.612   1.467   1.836  0.1561  0.0189 -0.2123
 2992TIP3    H1 8940   5.645   1.388   1.794  0.7870  0.5025 -0.6419
 2992TIP3    H2 8941   5.553   1.506   1.772  1.1864  0.8021 -0.7077
 2993TIP3   OH2 8942   5.738   1.584   2.924 -0.0454  0.0983  0.4541
 2993TIP3    H1 8943   5.747   1.524   2.998 -0.8144 -0.7501 -0.1242
 2993TIP3    H2 8944   5.701   1.664   2.963 -0.6239 -0.4018  0.9630
 2994TIP3   OH2 8945   1.660   5.622   2.817  0.2209 -0.1154  0.0839
 2994TIP3    H1 8946   1.731   5.558   2.813  0.2187 -0.0923 -0.3303
 2994TIP3    H2 8947   1.702   5.706   2.800  0.3818  0.1298  1.5108
 2995TIP3   OH2 8948   2.720   1.062   1.507  0.2533  0.1268 -0.2353
 2995TIP3    H1 8949   2.695   1.148   1.474 -1.0513 -0.1509 -0.0038
 2995TIP3    H2 8950   2.789   1.081   1.571 -0.1931  1.0251 -0.0005
 2996TIP3   OH2 8951   4.666   4.877   2.096 -0.2651  0.6002 -0.0093
 2996TIP3    H1 8952   4.656   4.884   2.001 -0.1749  1.3816  0.0331
 2996TIP3    H2 8953   4.732   4.943   2.118  1.3523 -1.0421  0.3278
 2997TIP3   OH2 8954   4.777   5.359   0.598 -0.0452 -0.2805 -0.0254
 2997TIP3    H1 8955   4.844   5.302   0.636  0.6964  0.6660  0.1367
 2997TIP3    H2 8956   4.707   5.359   0.663  1.3421  1.5623  1.5956
 2998TIP3   OH2 8957  -0.027   4.043   5.786 -0.4179  0.5210  0.9144
 2998TIP3    H1 8958  -0.029   4.135   5.813  0.7141  1.1513 -1.0194
 2998TIP3    H2 8959   0.064   4.016   5.796 -0.3370  0.2299 -0.4306
 2999TIP3   OH2 8960   0.768   3.392   4.513  0.5754 -0.3002 -0.3826
 2999TIP3    H1 8961   0.736   3.474   4.478 -0.9292 -1.6725 -2.4343
 2999TIP3    H2 8962   0.808   3.416   4.597 -2.8969  2.0637  0.8305
 3000TIP3   OH2 8963   0.889   6.731   1.950 -0.0929 -0.3639 -0.2207
 3000TIP3    H1 8964   0.977   6.705   1.924 -0.4517 -1.8351 -0.0276
 3000TIP3    H2 8965   0.903   6.801   2.015  1.0523 -2.3594  1.8272
 3001TIP3   OH2 8966   0.515   6.146   0.288  0.0644 -0.5461  0.0267
 3001TIP3    H1 8967   0.569   6.070   0.264 -0.8842 -0.2305 -3.7867
 3001TIP3    H2 8968   0.437   6.138   0.233 -0.1316  3.1156 -0.4598
 3002TIP3   OH2 8969   3.701   6.728   2.491  0.4076  0.0961 -0.5711
 3002TIP3    H1 8970   3.689   6.674   2.412 -0.5012 -0.2834 -0.1970
 3002TIP3    H2 8971   3.664   6.813   2.467  0.8220  0.2126 -0.8000
 3003TIP3   OH2 8972   7.195   0.138   3.199 -0.0772  0.3564  0.0345
 3003TIP3    H1 8973   7.237   0.118   3.282  1.3092 -1.0862 -0.9471
 3003TIP3    H2 8974   7.110   0.095   3.204  0.3300 -0.4199  0.4068
 3004TIP3   OH2 8975   1.063   0.621   4.616 -0.3359 -0.1964  0.5667
 3004TIP3    H1 8976   0.974   0.592   4.631 -0.3452 -0.7972 -0.5889
 3004TIP3    H2 8977   1.058   0.678   4.539  0.2854 -0.3212  0.4228
 3005TIP3   OH2 8978   4.908   6.124   5.159  0.2894  0.5258  0.1818
 3005TIP3    H1 8979   4.923   6.036   5.125  1.4956  0.5287  0.6330
 3005TIP3    H2 8980   4.825   6.152   5.121 -0.7038 -1.2464  0.9211
 3006TIP3   OH2 8981   0.963   3.447   2.294  0.4868  0.6493  0.2870
 3006TIP3    H1 8982   0.968   3.543   2.294  2.4626  0.6199 -1.1788
 3006TIP3    H2 8983   0.893   3.427   2.232 -0.5095  1.1236  1.2307
 3007TIP3   OH2 8984   5.676   2.236   3.816  0.3430  0.1308 -0.0988
 3007TIP3    H1 8985   5.738   2.276   3.754 -1.8846  1.1361 -1.8261
 3007TIP3    H2 8986   5.602   2.210   3.762 -1.8753  1.3255  2.1627
 3008TIP3   OH2 8987   0.996   4.899   4.085  0.3933  0.2990  0.2475
 3008TIP3    H1 8988   0.913   4.943   4.106 -0.2105 -0.6522 -0.0839
 3008TIP3    H2 8989   1.010   4.918   3.993 -1.1399 -2.1544 -0.5685
 3009TIP3   OH2 8990   5.450   0.291   5.646  0.6941  0.1210  0.2013
 3009TIP3    H1 8991   5.463   0.306   5.552  2.0634 -0.5574  0.2487
 3009TIP3    H2 8992   5.539   0.280   5.680  0.1338 -1.5098  1.2499
 3010TIP3   OH2 8993   5.826   4.703   4.291 -0.2693 -0.0092  0.2921
 3010TIP3    H1 8994   5.819   4.783   4.239  0.5181 -0.6735 -0.8740
 3010TIP3    H2 8995   5.889   4.724   4.360 -1.0681  0.7693  0.8111
 3011TIP3   OH2 8996   1.515   2.416   5.539  1.1255 -0.2872  0.0632
 3011TIP3    H1 8997   1.605   2.447   5.534  1.1262 -0.1527  0.7718
 3011TIP3    H2 8998   1.514   2.335   5.489  1.2595  0.5329 -1.3269
 3012TIP3   OH2 8999   3.309   5.760   4.854  0.4613  0.0557  0.0733
 3012TIP3    H1 9000   3.311   5.827   4.785  0.3066 -1.6658 -1.7114
 3012TIP3    H2 9001   3.401   5.745   4.876  0.4657  1.2875  0.9746
 3013TIP3   OH2 9002   2.917   3.522   5.254  0.4691 -0.3575 -0.1049
 3013TIP3    H1 9003   2.970   3.556   5.182 -1.0768 -1.3482 -1.8015
 3013TIP3    H2 9004   2.963   3.443   5.283  0.7813 -0.2887 -0.4086
 3014TIP3   OH2 9005   3.008   6.334  -0.000  0.0004  0.2451  0.1876
 3014TIP3    H1 9006   3.015   6.355   0.093 -0.4927  0.1315  0.2527
 3014TIP3    H2 9007   3.001   6.239  -0.003 -0.4723  0.2826  0.0663
 3015TIP3   OH2 9008   0.160   0.338   0.771  0.2324  0.0246  0.2685
 3015TIP3    H1 9009   0.238   0.327   0.825  0.4864  1.3260  0.1914
 3015TIP3    H2 9010   0.184   0.300   0.686  0.1335 -1.2239  0.7727
 3016TIP3   OH2 9011   4.112   2.142   2.414 -0.3004  0.0135  0.2995
 3016TIP3    H1 9012   4.093   2.213   2.353 -1.5535  0.6684  1.3995
 3016TIP3    H2 9013   4.061   2.068   2.383 -0.3301  0.1099  0.1225
 3017TIP3   OH2 9014   1.193   6.089   3.531 -0.4333  0.5572 -0.5991
 3017TIP3    H1 9015   1.168   6.080   3.440  1.0916  0.8203 -1.0754
 3017TIP3    H2 9016   1.276   6.041   3.539 -0.8510  0.0005  0.7967
 3018TIP3   OH2 9017   7.216   5.286   5.037 -0.4324  0.2510  0.5014
 3018TIP3    H1 9018   7.237   5.372   5.000  0.7996 -0.0664  0.4157
 3018TIP3    H2 9019   7.167   5.306   5.117 -0.2764  1.0329  0.4114
 3019TIP3   OH2 9020   0.717   2.822   1.567  1.1153  0.0630 -0.0048
 3019TIP3    H1 9021   0.761   2.900   1.535 -0.7610  1.0522 -0.2738
 3019TIP3    H2 9022   0.647   2.854   1.624 -1.2444 -1.1998 -1.9551
 3020TIP3   OH2 9023   5.106   2.676   2.271  0.1313 -0.1430 -0.2356
 3020TIP3    H1 9024   5.096   2.771   2.257  0.2964  0.0662  0.9504
 3020TIP3    H2 9025   5.027   2.651   2.319 -0.5839 -0.8878 -1.7557
 3021TIP3   OH2 9026   7.033   3.321   0.078  0.2882 -0.0963 -0.7075
 3021TIP3    H1 9027   7.038   3.410   0.114  0.7571  0.3126 -1.7375
 3021TIP3    H2 9028   7.123   3.290   0.079 -0.1872 -1.7647  2.4432
 3022TIP3   OH2 9029   4.659   2.828   4.890 -0.0269 -0.1817  0.2492
 3022TIP3    H1 9030   4.706   2.824   4.807 -4.2266  1.4648 -2.5876
 3022TIP3    H2 9031   4.671   2.918   4.919 -1.0499  0.1577 -0.3282
 3023TIP3   OH2 9032   7.181   2.732   2.410 -0.5665 -0.3455 -0.4963
 3023TIP3    H1 9033   7.181   2.768   2.322 -0.0625 -0.6921 -0.6402
 3023TIP3    H2 9034   7.090   2.741   2.440 -0.7217 -0.1628 -1.0195
 3024TIP3   OH2 9035   1.088   1.131   4.850 -0.8452  0.0950 -0.2149
 3024TIP3    H1 9036   1.134   1.136   4.766  0.5471 -1.1993  0.4336
 3024TIP3    H2 9037   1.127   1.202   4.902 -0.1430 -0.4871  0.0613
 3025TIP3   OH2 9038   5.559   3.985   1.888  0.4395 -0.2149  0.5004
 3025TIP3    H1 9039   5.482   3.947   1.845  0.9408 -1.3977  0.5988
 3025TIP3    H2 9040   5.550   4.079   1.875 -0.3473 -0.4222 -0.6219
 3026TIP3   OH2 9041   1.914   4.294   4.864 -0.1299 -0.0586  0.3114
 3026TIP3    H1 9042   1.992   4.274   4.917  0.1603  0.2086 -0.0100
 3026TIP3    H2 9043   1.884   4.379   4.896 -0.3148 -0.1813  0.4636
 3027TIP3   OH2 9044   2.180   1.500   2.637  0.1181 -0.7556  0.6315
 3027TIP3    H1 9045   2.233   1.431   2.597 -0.6558 -1.3547  0.6175
 3027TIP3    H2 9046   2.101   1.503   2.583  0.6383  0.9823 -0.1051
 3028TIP3   OH2 9047   4.720   4.149   5.683 -0.4382 -0.2036 -0.0353
 3028TIP3    H1 9048   4.709   4.101   5.765 -0.8275 -0.8632 -0.4637
 3028TIP3    H2 9049   4.640   4.202   5.675  0.4280  1.3261  0.9380
 3029TIP3   OH2 9050   3.127   1.224   1.881  0.1546  0.2011  0.2315
 3029TIP3    H1 9051   3.145   1.136   1.850  0.4317  0.4815 -0.4040
 3029TIP3    H2 9052   3.156   1.223   1.973  0.5377 -0.2420  0.1077
 3030TIP3   OH2 9053   1.265   0.214   2.832 -0.1665 -0.4265 -0.1806
 3030TIP3    H1 9054   1.203   0.264   2.885  0.5964  1.2404 -0.8132
 3030TIP3    H2 9055   1.210   0.151   2.785 -1.2807  0.4104 -0.0465
 3031TIP3   OH2 9056   4.595   0.827   3.288 -0.5774 -0.2309  0.2073
 3031TIP3    H1 9057   4.595   0.739   3.325 -0.4539 -1.4623 -2.4652
 3031TIP3    H2 9058   4.649   0.879   3.348 -1.2951 -1.7319  2.2728
 3032TIP3   OH2 9059   1.928   2.558   2.541  0.2137  0.0310  0.4431
 3032TIP3    H1 9060   1.938   2.592   2.629  1.2440  0.7984  0.0514
 3032TIP3    H2 9061   1.928   2.463   2.551  1.4388  0.0858  1.1849
 3033TIP3   OH2 9062   2.148   0.309   4.401  0.3749 -0.0292  0.3426
 3033TIP3    H1 9063   2.164   0.218   4.375 -0.0353  0.1722 -0.6819
 3033TIP3    H2 9064   2.233   0.352   4.391  0.3313 -0.0673 -0.2367
 3034TIP3   OH2 9065   3.018   6.364   0.405  0.2865  0.0073  0.0142
 3034TIP3    H1 9066   3.017   6.275   0.369  1.3026  0.4501 -1.1830
 3034TIP3    H2 9067   2.947   6.409   0.359 -1.0088 -0.4528  1.4627
 3035TIP3   OH2 9068   0.236   1.388   3.980  0.2105 -0.7928 -0.2363
 3035TIP3    H1 9069   0.276   1.303   3.998  1.8614 -0.0066  0.0427
 3035TIP3    H2 9070   0.198   1.379   3.893 -0.7519 -2.1854  0.2991
 3036TIP3   OH2 9071   4.727   0.078   1.623  0.2847  0.0912 -0.5279
 3036TIP3    H1 9072   4.634   0.064   1.641 -0.4129  1.6570 -2.5076
 3036TIP3    H2 9073   4.773   0.020   1.685 -1.8723  1.5616  2.7554
 3037TIP3   OH2 9074   0.095   3.506   1.943 -0.0605  0.8167  0.4011
 3037TIP3    H1 9075   0.153   3.436   1.913 -0.6133  1.2906 -2.0109
 3037TIP3    H2 9076   0.152   3.582   1.954 -0.1450  1.3188 -2.1014
 3038TIP3   OH2 9077   0.446   1.154   3.780 -0.5545  0.0501  0.0863
 3038TIP3    H1 9078   0.503   1.113   3.716 -0.3234 -1.9217  1.4494
 3038TIP3    H2 9079   0.454   1.248   3.764  0.9115 -0.3143 -1.5350
 3039TIP3   OH2 9080   6.020   6.469   2.380 -0.1634 -0.1728  0.2885
 3039TIP3    H1 9081   6.043   6.426   2.298 -0.6767 -0.3528  0.2379
 3039TIP3    H2 9082   6.063   6.555   2.375  0.4931 -0.5023  0.1997
 3040TIP3   OH2 9083   5.409   2.425   1.201 -0.1480 -0.1740 -0.5263
 3040TIP3    H1 9084   5.435   2.469   1.119  0.5209  0.6561  0.1082
 3040TIP3    H2 9085   5.405   2.495   1.265  3.1831 -1.2607  1.0698
 3041TIP3   OH2 9086   0.579   4.135   3.162  0.4802 -0.3460 -0.9937
 3041TIP3    H1 9087   0.565   4.145   3.257  1.4487  0.6510 -0.9377
 3041TIP3    H2 9088   0.529   4.206   3.123  1.3022  0.1649 -1.1246
 3042TIP3   OH2 9089   1.350   6.253   4.726 -0.4956 -0.3599 -0.0466
 3042TIP3    H1 9090   1.280   6.188   4.736  0.3131 -1.2916 -0.3058
 3042TIP3    H2 9091   1.427   6.212   4.765  0.3360 -0.0699 -1.3062
 3043TIP3   OH2 9092   4.464   2.385   0.520 -0.2594 -0.3677 -0.3060
 3043TIP3    H1 9093   4.465   2.290   0.534 -2.8955 -0.5980 -1.0761
 3043TIP3    H2 9094   4.426   2.420   0.600 -1.2883 -0.2027 -0.8507
 3044TIP3   OH2 9095   2.438   5.662   1.176 -0.1434  0.3338  0.6644
 3044TIP3    H1 9096   2.408   5.750   1.153  0.8186  1.0563  2.0383
 3044TIP3    H2 9097   2.476   5.628   1.095 -1.5046  0.7448 -0.1743
 3045TIP3   OH2 9098   6.167   5.377   0.396  0.0117 -0.0121  0.7369
 3045TIP3    H1 9099   6.205   5.289   0.387 -0.5229 -0.1107 -0.9390
 3045TIP3    H2 9100   6.127   5.377   0.482  1.9145 -0.6472  1.6826
 3046TIP3   OH2 9101   2.026   4.281   2.725 -0.0883  0.6657  0.0539
 3046TIP3    H1 9102   1.941   4.298   2.685 -0.7150 -0.7608  0.6764
 3046TIP3    H2 9103   2.073   4.228   2.661  0.6170  2.0146 -0.5710
 3047TIP3   OH2 9104   6.524   5.709   1.909  0.2000 -1.2534 -0.2585
 3047TIP3    H1 9105   6.615   5.709   1.878 -0.4111 -0.4958 -2.1414
 3047TIP3    H2 9106   6.476   5.659   1.843 -1.0947  0.1185 -0.3988
 3048TIP3   OH2 9107   1.495   3.101   2.121 -0.0088  0.6313 -0.5215
 3048TIP3    H1 9108   1.429   3.156   2.163  0.4633  1.0071 -0.2636
 3048TIP3    H2 9109   1.579   3.136   2.151  0.3069 -0.6899  0.2498
 3049TIP3   OH2 9110   1.109   5.060   5.712  0.1208 -0.1119  0.7440
 3049TIP3    H1 9111   1.186   5.117   5.713  0.1419  0.1792 -3.1967
 3049TIP3    H2 9112   1.144   4.974   5.689 -0.6715 -0.0478 -0.7685
 3050TIP3   OH2 9113   1.795   6.283   1.737  0.0952  0.3486 -0.1955
 3050TIP3    H1 9114   1.727   6.326   1.685  0.2107  0.5444 -0.1894
 3050TIP3    H2 9115   1.782   6.315   1.826  0.6307  0.9456 -0.3217
 3051TIP3   OH2 9116   0.206   2.165   1.421  0.4467 -0.1703 -0.4825
 3051TIP3    H1 9117   0.199   2.248   1.469 -0.1777  0.0063 -0.8611
 3051TIP3    H2 9118   0.265   2.112   1.473 -0.2612 -0.0048  0.5185
 3052TIP3   OH2 9119   1.240   6.806   3.871  0.4365  0.3645  0.4171
 3052TIP3    H1 9120   1.146   6.821   3.866 -0.2034 -2.0318  2.8613
 3052TIP3    H2 9121   1.258   6.739   3.805  0.7918  1.8754 -1.0947
 3053TIP3   OH2 9122   2.552   1.674   2.736 -0.2080 -0.0118  0.4131
 3053TIP3    H1 9123   2.532   1.766   2.757 -1.0300 -0.3560  1.1841
 3053TIP3    H2 9124   2.482   1.624   2.777 -0.3530 -0.9287 -0.9130
 3054TIP3   OH2 9125   3.634   6.387   2.814 -0.6572 -0.4455  0.0921
 3054TIP3    H1 9126   3.652   6.294   2.828  1.0642 -0.0453  0.7279
 3054TIP3    H2 9127   3.604   6.391   2.723 -2.3628 -1.7978  0.5227
 3055TIP3   OH2 9128   3.262   3.558   3.324 -0.1066 -0.1514 -0.1272
 3055TIP3    H1 9129   3.314   3.635   3.348  0.4767 -0.0035 -1.7323
 3055TIP3    H2 9130   3.326   3.487   3.315 -0.3739 -0.3374 -0.6196
 3056TIP3   OH2 9131   5.649   4.145   0.485  0.4945  0.1294  0.0423
 3056TIP3    H1 9132   5.637   4.051   0.471 -0.0310  0.0169  1.1314
 3056TIP3    H2 9133   5.741   4.154   0.511  0.6280 -0.0368 -0.3612
 3057TIP3   OH2 9134   6.378   5.456   4.797  0.9427  0.4245  0.3964
 3057TIP3    H1 9135   6.375   5.546   4.765  1.3601  0.4359  0.3811
 3057TIP3    H2 9136   6.374   5.402   4.718  0.2963  0.4178  0.4273
 3058TIP3   OH2 9137   6.340   4.370   0.482  0.0810  0.1684  0.4217
 3058TIP3    H1 9138   6.267   4.368   0.543  0.3895  0.9061  0.8276
 3058TIP3    H2 9139   6.398   4.439   0.516  0.8929 -0.3037  0.0328
 3059TIP3   OH2 9140   2.545   0.125   0.987  0.0905  0.4773 -0.3439
 3059TIP3    H1 9141   2.563   0.130   0.893  0.1780 -1.1474 -0.4304
 3059TIP3    H2 9142   2.611   0.065   1.021  0.0773  1.0699  0.7858
 3060TIP3   OH2 9143   1.930   0.233   3.172 -0.5106  0.0722  0.0286
 3060TIP3    H1 9144   1.947   0.161   3.232 -2.4177 -0.8649 -0.4724
 3060TIP3    H2 9145   1.845   0.268   3.199  0.5022  2.4139  0.4764
 3061TIP3   OH2 9146   4.760   1.132   5.663  0.0595  0.6779 -0.2310
 3061TIP3    H1 9147   4.853   1.129   5.682  0.0128  0.9028  0.0492
 3061TIP3    H2 9148   4.735   1.041   5.648 -0.2576  0.2306  2.5438
 3062TIP3   OH2 9149   6.773   5.314   1.434  0.1625  0.2996  0.6286
 3062TIP3    H1 9150   6.708   5.243   1.436  0.5889 -0.0925  1.0023
 3062TIP3    H2 9151   6.842   5.283   1.492  0.2665  1.1157  0.9430
 3063TIP3   OH2 9152   1.254   6.429   0.636 -0.1599 -0.0568  0.5145
 3063TIP3    H1 9153   1.292   6.341   0.631  1.4252  0.5929  0.4656
 3063TIP3    H2 9154   1.257   6.451   0.729  0.1889  0.2503  0.4318
 3064TIP3   OH2 9155   6.571   0.370   2.971 -0.5466 -0.2071 -0.6439
 3064TIP3    H1 9156   6.583   0.310   2.897  0.2346  0.5953 -1.1938
 3064TIP3    H2 9157   6.511   0.324   3.030  0.2941 -1.6765 -0.8821
 3065TIP3   OH2 9158   1.877   1.827   5.780 -0.3557  0.1868 -0.2304
 3065TIP3    H1 9159   1.813   1.865   5.719 -1.2112  0.9441  1.0824
 3065TIP3    H2 9160   1.828   1.816   5.861  0.5600 -1.4784  0.1514
 3066TIP3   OH2 9161   6.524   6.534   4.511  0.0566 -0.1998 -0.1348
 3066TIP3    H1 9162   6.463   6.599   4.544 -0.7339 -1.3450  0.7305
 3066TIP3    H2 9163   6.481   6.497   4.434 -0.5062 -1.2059  0.6384
 3067TIP3   OH2 9164   4.230   3.081   5.450  0.7808 -0.3796 -0.0086
 3067TIP3    H1 9165   4.237   3.124   5.364 -1.1105  0.7083  0.3030
 3067TIP3    H2 9166   4.269   2.995   5.438 -0.3882 -0.6703 -2.3075
 3068TIP3   OH2 9167   1.487   4.573   2.929  0.1393  0.4144 -0.8327
 3068TIP3    H1 9168   1.563   4.516   2.938  0.3548  0.7513 -0.4725
 3068TIP3    H2 9169   1.461   4.564   2.837  1.1355  0.9464 -1.1867
 3069TIP3   OH2 9170   2.204   3.683   3.070 -0.2065  0.4291  0.5361
 3069TIP3    H1 9171   2.154   3.764   3.067  0.6728  1.1622  3.1366
 3069TIP3    H2 9172   2.266   3.690   2.998 -1.5191  1.0658 -0.5671
 3070TIP3   OH2 9173   0.297   2.628   3.707  0.0843  0.3743  0.1380
 3070TIP3    H1 9174   0.226   2.563   3.703 -1.3910  1.9563 -0.8277
 3070TIP3    H2 9175   0.359   2.600   3.639  0.4238 -1.0284  0.9890
 3071TIP3   OH2 9176   2.692   1.234   3.275 -0.5812 -0.2732 -0.7234
 3071TIP3    H1 9177   2.598   1.248   3.267 -1.3315 -4.0643 -0.7721
 3071TIP3    H2 9178   2.723   1.233   3.184 -0.7631 -0.3249 -0.7863
 3072TIP3   OH2 9179   6.780   1.544   1.454 -0.4657 -0.3094  0.7398
 3072TIP3    H1 9180   6.734   1.526   1.372 -0.2797 -1.3779  0.8507
 3072TIP3    H2 9181   6.856   1.485   1.452  0.2402  0.5761  1.1009
 3073TIP3   OH2 9182   4.230   3.654   5.857  0.0471  0.0288  0.4597
 3073TIP3    H1 9183   4.254   3.562   5.843 -1.8303 -0.3562 -0.6503
 3073TIP3    H2 9184   4.252   3.671   5.948  1.0309 -1.3232  0.5048
 3074TIP3   OH2 9185   2.435   4.167   1.109 -0.4740  0.0556  0.2991
 3074TIP3    H1 9186   2.448   4.252   1.152 -0.7601  0.6281 -0.7322
 3074TIP3    H2 9187   2.443   4.103   1.181 -3.5414  1.1073  1.7553
 3075TIP3   OH2 9188  -0.009   1.870   1.101  0.4260 -0.2395  0.2777
 3075TIP3    H1 9189   0.044   1.806   1.148 -0.6033 -1.1220  0.2576
 3075TIP3    H2 9190  -0.006   1.948   1.156  2.2208 -0.0417 -0.0127
 3076TIP3   OH2 9191   4.501   3.168   3.353  0.6069 -0.2992 -0.3908
 3076TIP3    H1 9192   4.562   3.119   3.408  1.2741  1.8305  0.8805
 3076TIP3    H2 9193   4.556   3.228   3.303 -0.2031 -0.6173 -1.7179
 3077TIP3   OH2 9194   4.896   3.203   0.634 -0.2378 -0.3913 -0.0317
 3077TIP3    H1 9195   4.923   3.124   0.588  3.3316  0.1615  0.8303
 3077TIP3    H2 9196   4.874   3.265   0.565 -1.2133 -1.4912 -0.7496
 3078TIP3   OH2 9197   5.254   5.931   5.724  0.3403 -0.0487 -0.5625
 3078TIP3    H1 9198   5.284   5.872   5.654 -0.2756 -0.6832 -0.3020
 3078TIP3    H2 9199   5.325   5.930   5.787  0.2734 -0.6562 -0.4821
 3079TIP3   OH2 9200   0.155   6.450   2.790 -0.4530  0.3114 -0.3442
 3079TIP3    H1 9201   0.159   6.528   2.845 -0.8858  0.3871 -0.4158
 3079TIP3    H2 9202   0.227   6.461   2.728 -0.3529  0.5298 -0.1911
 3080TIP3   OH2 9203   0.422   0.211   3.739 -0.0593 -0.2128 -0.0363
 3080TIP3    H1 9204   0.420   0.197   3.834  1.5362 -1.4978 -0.1474
 3080TIP3    H2 9205   0.330   0.207   3.713 -0.4250 -1.3305  1.2838
 3081TIP3   OH2 9206   3.134   0.504   5.495  0.2809  0.0653 -0.4633
 3081TIP3    H1 9207   3.068   0.443   5.529  0.5100 -0.6271 -1.2383
 3081TIP3    H2 9208   3.198   0.448   5.452  1.1992  0.7642 -0.0206
 3082TIP3   OH2 9209   5.684   3.505   3.938  0.1659 -0.0491 -0.0625
 3082TIP3    H1 9210   5.686   3.488   4.033  1.1719 -1.4903 -0.3113
 3082TIP3    H2 9211   5.748   3.445   3.902 -0.5144  0.1840 -1.7255
 3083TIP3   OH2 9212   4.858   4.819   3.453  0.2677 -0.3989  0.3449
 3083TIP3    H1 9213   4.868   4.902   3.407 -0.2169 -0.2090  0.5780
 3083TIP3    H2 9214   4.918   4.759   3.407 -0.2825 -0.2456 -0.6166
 3084TIP3   OH2 9215   3.508   1.995   0.270 -0.3409 -0.0826  0.0630
 3084TIP3    H1 9216   3.512   1.911   0.315 -0.2853 -1.0082 -1.6104
 3084TIP3    H2 9217   3.415   2.019   0.272 -0.3584 -0.1733  0.5319
 3085TIP3   OH2 9218   6.466   6.754   0.552 -0.2099 -0.1572  0.0971
 3085TIP3    H1 9219   6.541   6.702   0.582  0.3113 -0.8082 -2.1207
 3085TIP3    H2 9220   6.488   6.844   0.576  0.4341 -0.5491  1.0522
 3086TIP3   OH2 9221   6.528   4.428   3.530  0.0339  0.7343 -0.0935
 3086TIP3    H1 9222   6.555   4.504   3.582 -1.3601 -0.5593  2.7373
 3086TIP3    H2 9223   6.584   4.357   3.560 -0.6905 -0.0229 -0.5012
 3087TIP3   OH2 9224   0.693   3.284   3.751  0.3192 -0.6165 -0.6307
 3087TIP3    H1 9225   0.777   3.307   3.792  0.1334 -0.1047 -0.5298
 3087TIP3    H2 9226   0.630   3.344   3.792 -0.2730 -1.6631  0.0359
 3088TIP3   OH2 9227   6.107   4.467   2.224 -0.1870  0.0761 -0.4178
 3088TIP3    H1 9228   6.056   4.426   2.293  0.8134 -0.8023 -0.1657
 3088TIP3    H2 9229   6.111   4.401   2.155  1.3135 -0.2500 -0.0701
 3089TIP3   OH2 9230   4.845   1.721   3.977 -0.0543  0.7937 -0.0888
 3089TIP3    H1 9231   4.805   1.780   3.913 -3.3519  0.3670  1.4048
 3089TIP3    H2 9232   4.813   1.634   3.954 -0.8177  0.5478  1.6996
 3090TIP3   OH2 9233   6.379   3.638   5.150  0.2745 -0.0979 -0.0478
 3090TIP3    H1 9234   6.321   3.566   5.126  0.6810 -0.6156  0.5250
 3090TIP3    H2 9235   6.330   3.717   5.125 -0.2404 -0.5625 -0.5148
 3091TIP3   OH2 9236   5.185   2.660   4.117  0.6414 -0.0375  0.5397
 3091TIP3    H1 9237   5.233   2.685   4.196 -0.0058  1.9650  0.3318
 3091TIP3    H2 9238   5.162   2.742   4.075 -0.1124 -1.0357 -1.1075
 3092TIP3   OH2 9239   6.716   6.671   5.660 -0.0735 -0.5821 -0.5868
 3092TIP3    H1 9240   6.736   6.729   5.734  1.3958  0.7092 -1.9237
 3092TIP3    H2 9241   6.728   6.583   5.696  0.0274 -0.0120  0.8577
 3093TIP3   OH2 9242   0.884   2.325   3.126 -0.2031  0.4961 -0.3593
 3093TIP3    H1 9243   0.888   2.349   3.218 -0.7829 -0.6135 -0.0326
 3093TIP3    H2 9244   0.965   2.276   3.110 -0.9686 -0.9653  0.0700
 3094TIP3   OH2 9245   3.776   1.565   2.114 -0.2293 -0.2500  0.1486
 3094TIP3    H1 9246   3.797   1.567   2.021 -0.5064 -0.0207  0.0916
 3094TIP3    H2 9247   3.754   1.473   2.131  3.3068 -1.1689  0.7736
 3095TIP3   OH2 9248   1.647   1.834   3.491 -0.0858 -0.2775 -0.1668
 3095TIP3    H1 9249   1.556   1.831   3.462 -0.1691 -1.2914  0.1446
 3095TIP3    H2 9250   1.676   1.743   3.488  1.5983  0.2455 -2.3416
 3096TIP3   OH2 9251   6.660   0.421   3.995  0.2639 -0.5141  0.0254
 3096TIP3    H1 9252   6.732   0.466   4.039  0.1273  1.6128 -1.7530
 3096TIP3    H2 9253   6.703   0.357   3.938  0.6224 -0.8266  0.6431
 3097TIP3   OH2 9254   0.883   0.433   1.017  0.1062  0.1686  0.0562
 3097TIP3    H1 9255   0.847   0.493   0.952  0.9973  0.0090 -0.6219
 3097TIP3    H2 9256   0.942   0.487   1.070  1.6087 -0.2227 -1.1227
 3098TIP3   OH2 9257   3.000   2.066   0.110  0.4185  0.0257  0.1020
 3098TIP3    H1 9258   3.046   1.985   0.132  0.6880  0.0627 -0.3036
 3098TIP3    H2 9259   3.068   2.122   0.073  0.0306  0.0543 -0.5836
 3099TIP3   OH2 9260   2.336   5.603   1.421  0.3274 -0.4922  0.0116
 3099TIP3    H1 9261   2.253   5.647   1.438  2.1721  2.5956  1.7879
 3099TIP3    H2 9262   2.350   5.615   1.327 -0.6920 -0.0586 -0.0976
 3100TIP3   OH2 9263   2.584   5.687   1.922  0.1577  0.0503 -0.0342
 3100TIP3    H1 9264   2.644   5.618   1.893  2.2181  1.9535 -0.5987
 3100TIP3    H2 9265   2.573   5.743   1.845  1.7166  2.4590  1.3597
 3101TIP3   OH2 9266   3.096   5.374   0.625 -0.3942  0.3319 -0.3646
 3101TIP3    H1 9267   3.140   5.304   0.671 -3.9733 -1.0381  1.3254
 3101TIP3    H2 9268   3.075   5.337   0.539 -0.8411 -0.0892 -0.0767
 3102TIP3   OH2 9269   2.851   2.812   1.250 -0.6685 -0.0910  0.3477
 3102TIP3    H1 9270   2.916   2.878   1.226 -0.9350 -0.5108 -1.7170
 3102TIP3    H2 9271   2.768   2.846   1.216 -0.9673 -1.0733  0.0580
 3103TIP3   OH2 9272   6.444   5.678   0.110 -0.3829 -0.2603 -0.6384
 3103TIP3    H1 9273   6.406   5.746   0.165 -0.7969 -0.3308 -0.8352
 3103TIP3    H2 9274   6.426   5.707   0.020 -0.6992 -0.7018 -0.7227
 3104TIP3   OH2 9275   6.725   6.776   0.372  0.1149 -0.1418  0.5898
 3104TIP3    H1 9276   6.648   6.720   0.385 -0.3181  0.7132  1.9531
 3104TIP3    H2 9277   6.783   6.725   0.316 -0.3505 -1.8669  1.6194
 3105TIP3   OH2 9278   0.419   2.701   5.763 -0.0690 -0.4636  0.0146
 3105TIP3    H1 9279   0.507   2.676   5.790 -0.1020 -0.3198  0.2575
 3105TIP3    H2 9280   0.374   2.725   5.845 -0.2408 -0.2485 -0.1395
 3106TIP3   OH2 9281   1.270   2.729   2.984 -0.9501 -0.5951  0.2204
 3106TIP3    H1 9282   1.266   2.635   2.996 -1.4601 -0.5815  0.1472
 3106TIP3    H2 9283   1.185   2.762   3.013 -1.6412 -0.3969 -1.8601
 3107TIP3   OH2 9284   3.201   0.471   0.068  0.3023 -0.5734  0.6164
 3107TIP3    H1 9285   3.194   0.535   0.138  2.5465 -0.7162  1.0561
 3107TIP3    H2 9286   3.295   0.461   0.054 -0.0536 -1.4816 -1.5731
 3108TIP3   OH2 9287   6.428   6.673   4.867 -0.4475 -0.3185  0.2418
 3108TIP3    H1 9288   6.396   6.584   4.857  1.3310 -0.9095 -0.8103
 3108TIP3    H2 9289   6.408   6.715   4.783 -2.6220  0.7990  1.2468
 3109TIP3   OH2 9290   1.796   0.990   4.466 -0.9695  0.6651 -0.1319
 3109TIP3    H1 9291   1.871   0.950   4.422 -1.9981 -0.3894 -0.9808
 3109TIP3    H2 9292   1.811   0.973   4.559 -0.3274  0.1715 -0.3190
 3110TIP3   OH2 9293   1.415   5.826   3.989 -0.2612 -0.1492 -0.2635
 3110TIP3    H1 9294   1.506   5.814   3.961 -0.6374 -1.6005 -0.9895
 3110TIP3    H2 9295   1.370   5.747   3.958 -1.9753  0.9750 -0.7598
 3111TIP3   OH2 9296   6.012   2.999   3.770 -0.0676 -1.0414 -0.2910
 3111TIP3    H1 9297   5.958   2.996   3.849 -2.1715  0.9095 -1.5092
 3111TIP3    H2 9298   6.062   3.080   3.778  0.0971 -1.0999 -0.6951
 3112TIP3   OH2 9299   2.282   6.639   3.584 -0.1208  0.3495  0.4246
 3112TIP3    H1 9300   2.192   6.629   3.612 -0.8969  1.1673 -1.5886
 3112TIP3    H2 9301   2.280   6.710   3.520  1.7428 -0.4309 -0.5933
 3113TIP3   OH2 9302   3.183   6.747   1.094  0.6997 -0.4037  0.7466
 3113TIP3    H1 9303   3.203   6.662   1.054  1.1218 -0.1843  0.4866
 3113TIP3    H2 9304   3.087   6.752   1.092  0.6721 -0.8613  0.7376
 3114TIP3   OH2 9305   0.474   5.848   0.894  0.0331 -0.4262  0.3428
 3114TIP3    H1 9306   0.556   5.848   0.845  1.0015  1.1027  1.8650
 3114TIP3    H2 9307   0.453   5.940   0.908 -0.8210 -0.8004  1.7922
 3115TIP3   OH2 9308   3.430   5.609   0.649 -0.3929 -0.1882 -0.2848
 3115TIP3    H1 9309   3.513   5.563   0.660 -0.9681 -1.1315  0.1685
 3115TIP3    H2 9310   3.453   5.687   0.597  1.0854  0.5261  1.3477
 3116TIP3   OH2 9311   7.155   1.312   4.030 -0.9060 -0.1258 -0.0915
 3116TIP3    H1 9312   7.211   1.381   4.064 -0.2709 -0.0431 -1.2370
 3116TIP3    H2 9313   7.182   1.233   4.078  1.4529 -0.4491 -1.7666
 3117TIP3   OH2 9314   0.432   3.095   5.756 -0.2490 -0.5863 -0.2309
 3117TIP3    H1 9315   0.474   3.091   5.670  0.9736 -2.5298  0.3868
 3117TIP3    H2 9316   0.484   3.036   5.810 -1.2429  0.2759  1.7483
 3118TIP3   OH2 9317   6.129   2.068   1.222 -0.2055  0.2386  0.5637
 3118TIP3    H1 9318   6.146   2.161   1.235  1.3708 -0.1074  1.1988
 3118TIP3    H2 9319   6.216   2.028   1.219 -0.8293 -1.1206 -0.5274
 3119TIP3   OH2 9320   5.844   4.259   4.774 -0.1690  0.3432 -0.1189
 3119TIP3    H1 9321   5.857   4.303   4.691  0.0446 -0.9301 -0.7803
 3119TIP3    H2 9322   5.769   4.201   4.759 -3.7368  3.8539  2.1154
 3120TIP3   OH2 9323   5.930   6.482   3.436 -0.4251 -0.0016  0.2596
 3120TIP3    H1 9324   5.952   6.541   3.363  1.2169 -2.1422 -1.0766
 3120TIP3    H2 9325   6.002   6.494   3.499  0.3884 -1.1359 -0.4150
 3121TIP3   OH2 9326   6.221   2.271   3.881  0.4016 -0.0482  0.3207
 3121TIP3    H1 9327   6.170   2.343   3.844  0.5375 -0.2295 -0.2369
 3121TIP3    H2 9328   6.187   2.260   3.970 -0.9208 -0.5310 -0.2129
 3122TIP3   OH2 9329   5.283   6.287   3.618  0.4543 -0.0702 -0.1216
 3122TIP3    H1 9330   5.345   6.333   3.674  0.6489  3.0898 -2.6689
 3122TIP3    H2 9331   5.197   6.309   3.655  0.6087  1.4712 -0.5958
 3123TIP3   OH2 9332   4.967   4.860   4.977 -0.0874 -0.4571  0.0475
 3123TIP3    H1 9333   5.051   4.818   4.999  0.9208  1.2082 -0.4320
 3123TIP3    H2 9334   4.925   4.873   5.062  0.1657 -1.2439  0.3031
 3124TIP3   OH2 9335   5.456   6.175   1.974 -0.4694  0.2274 -0.1886
 3124TIP3    H1 9336   5.433   6.089   2.009  0.4015  0.3142  0.6418
 3124TIP3    H2 9337   5.377   6.227   1.984 -0.6618 -0.1552  0.3444
 3125TIP3   OH2 9338   1.257   0.977   4.186  0.0010  0.0854  0.5252
 3125TIP3    H1 9339   1.240   1.049   4.247  0.5864 -0.1058  0.9246
 3125TIP3    H2 9340   1.171   0.946   4.161 -0.2773  1.3534 -0.1676
 3126TIP3   OH2 9341   1.589   3.683   3.470 -0.2908  0.4107  0.4960
 3126TIP3    H1 9342   1.556   3.744   3.403  1.6151  0.1645 -0.7543
 3126TIP3    H2 9343   1.601   3.600   3.423  1.3126  0.2942  1.0417
 3127TIP3   OH2 9344   3.211   6.662   5.812  0.6921 -0.1492  0.4491
 3127TIP3    H1 9345   3.117   6.647   5.806  0.5900  0.3641  0.7007
 3127TIP3    H2 9346   3.222   6.755   5.794  1.3216 -0.5022 -1.1541
 3128TIP3   OH2 9347   6.411   6.728   5.653 -0.1872  0.2290 -0.0159
 3128TIP3    H1 9348   6.340   6.778   5.692  0.9969  1.0117  1.2221
 3128TIP3    H2 9349   6.491   6.774   5.680  0.7902 -0.3015 -1.7939
 3129TIP3   OH2 9350   1.481   2.856   5.212 -0.4300  0.3731 -0.0910
 3129TIP3    H1 9351   1.393   2.885   5.188 -1.7876 -1.2122  2.5279
 3129TIP3    H2 9352   1.480   2.761   5.200  1.7989  0.5176 -2.3044
 3130TIP3   OH2 9353   7.127   4.146   4.821 -0.0817  0.5225 -0.4466
 3130TIP3    H1 9354   7.122   4.222   4.763  0.1842 -1.3361 -3.0646
 3130TIP3    H2 9355   7.217   4.115   4.811 -0.3735 -0.5151  0.0612
 3131TIP3   OH2 9356   6.118   0.190   1.905  0.6844 -0.1361 -0.3452
 3131TIP3    H1 9357   6.154   0.203   1.993  2.3905 -1.6709 -0.7591
 3131TIP3    H2 9358   6.135   0.098   1.885 -2.7118 -0.7691 -1.0023
 3132TIP3   OH2 9359   6.264   1.351   1.102  0.2877 -0.4331  0.2574
 3132TIP3    H1 9360   6.337   1.295   1.126  0.9882 -0.1902 -1.1827
 3132TIP3    H2 9361   6.186   1.301   1.124  0.8942 -1.3082  0.4521
 3133TIP3   OH2 9362   5.087   5.362   5.053 -0.3493 -0.2118 -0.0177
 3133TIP3    H1 9363   5.117   5.445   5.089 -0.7947 -0.3852  0.7865
 3133TIP3    H2 9364   5.053   5.314   5.129 -2.7254  0.0125 -0.8432
 3134TIP3   OH2 9365   5.585   5.220   5.897  0.0118  0.1788 -0.0424
 3134TIP3    H1 9366   5.640   5.234   5.820 -0.4911 -1.0853 -0.6501
 3134TIP3    H2 9367   5.495   5.233   5.866 -0.2798 -1.4129  0.0373
 3135TIP3   OH2 9368   4.628   6.356   2.372 -0.3745  0.0805 -0.1410
 3135TIP3    H1 9369   4.637   6.407   2.452 -1.6496 -0.3743  0.3109
 3135TIP3    H2 9370   4.680   6.403   2.307  0.6518  0.4791  0.9257
 3136TIP3   OH2 9371   0.794   6.508   4.302 -0.3383 -0.5021 -0.0143
 3136TIP3    H1 9372   0.791   6.479   4.393 -1.7383 -1.0841 -0.2199
 3136TIP3    H2 9373   0.814   6.428   4.253  0.6199 -0.1509 -0.2196
 3137TIP3   OH2 9374   5.640   6.472   0.438  0.3353  0.3240 -0.3626
 3137TIP3    H1 9375   5.700   6.401   0.420  0.6703  0.3762  0.5241
 3137TIP3    H2 9376   5.613   6.459   0.529  0.0305  1.0510 -0.3404
 3138TIP3   OH2 9377   3.994   6.211   1.090  0.0636 -0.5032 -0.1981
 3138TIP3    H1 9378   4.057   6.170   1.148 -0.3358 -2.2519 -0.9523
 3138TIP3    H2 9379   3.914   6.160   1.101 -0.8161  0.7979 -0.3081
 3139TIP3   OH2 9380   0.012   6.156   3.909  0.4269 -0.0252 -0.0875
 3139TIP3    H1 9381   0.045   6.109   3.985 -0.6949  1.1820  1.1898
 3139TIP3    H2 9382   0.090   6.180   3.860  1.0804 -2.6465 -0.5079
 3140TIP3   OH2 9383   4.400   5.670   4.861 -0.1412 -0.2154  0.1378
 3140TIP3    H1 9384   4.486   5.630   4.850  0.8473  2.0977 -1.3159
 3140TIP3    H2 9385   4.352   5.647   4.782  0.2454  0.9520 -0.4561
 3141TIP3   OH2 9386   0.256   3.259   5.423  0.4209 -0.3463 -0.0382
 3141TIP3    H1 9387   0.201   3.182   5.436 -2.2481  1.3468 -0.3400
 3141TIP3    H2 9388   0.255   3.274   5.328 -1.2354  1.3912  0.1862
 3142TIP3   OH2 9389   6.961   3.383   4.699 -0.2101 -0.0441  0.7506
 3142TIP3    H1 9390   6.966   3.364   4.605 -3.1354  1.9148  0.0553
 3142TIP3    H2 9391   7.008   3.466   4.709 -0.2654 -0.0344  0.9365
 3143TIP3   OH2 9392   3.378   5.899   5.854  0.1918  0.4452 -0.0642
 3143TIP3    H1 9393   3.324   5.976   5.869  0.4458  0.4696  0.7906
 3143TIP3    H2 9394   3.350   5.836   5.920  1.0848  0.4066  0.3027
 3144TIP3   OH2 9395   3.578   4.748   0.767  0.3169  0.1596 -0.2782
 3144TIP3    H1 9396   3.626   4.813   0.716 -0.2117  1.0143  0.2960
 3144TIP3    H2 9397   3.486   4.763   0.744  0.2181 -0.6115 -0.3997
 3145TIP3   OH2 9398   6.185   1.165   2.914  0.4919  0.7267  0.6228
 3145TIP3    H1 9399   6.188   1.137   2.823  0.4424  0.5963  0.6607
 3145TIP3    H2 9400   6.122   1.106   2.955 -1.1689  2.1531  0.2678
 3146TIP3   OH2 9401   0.142   2.386   4.688 -0.8028  0.0579  0.0209
 3146TIP3    H1 9402   0.094   2.467   4.705  3.5836  3.3073 -1.2378
 3146TIP3    H2 9403   0.119   2.363   4.598  0.9827  2.6435 -1.2481
 3147TIP3   OH2 9404   1.297   5.901   4.969  0.8095 -0.2007 -0.0652
 3147TIP3    H1 9405   1.296   5.929   5.061 -0.1396 -0.0767 -0.0961
 3147TIP3    H2 9406   1.251   5.972   4.923  0.2004 -0.8302 -0.4476
 3148TIP3   OH2 9407   0.901   3.238   5.567  0.0230  0.0524 -0.4015
 3148TIP3    H1 9408   0.841   3.312   5.578 -3.0571 -1.8549 -2.5941
 3148TIP3    H2 9409   0.864   3.169   5.622  0.9162 -0.8381 -0.8817
 3149TIP3   OH2 9410   1.251   1.305   2.001  0.7981  0.2094  0.2695
 3149TIP3    H1 9411   1.276   1.283   2.091  1.6966 -1.4596 -0.3447
 3149TIP3    H2 9412   1.317   1.369   1.973  1.5887 -0.6010  0.2352
 3150TIP3   OH2 9413   0.687   5.519   2.728 -0.0590  0.5614  0.6102
 3150TIP3    H1 9414   0.717   5.446   2.675 -0.2211  2.5661 -2.4918
 3150TIP3    H2 9415   0.601   5.491   2.761  0.4454 -1.0886  0.5813
 3151TIP3   OH2 9416   0.867   1.139   0.700 -0.1223  0.0922  0.3421
 3151TIP3    H1 9417   0.874   1.223   0.744 -2.6836 -0.5625  2.2455
 3151TIP3    H2 9418   0.772   1.123   0.695  0.2695 -2.2591 -0.8033
 3152TIP3   OH2 9419   4.801   2.460   4.652 -0.1949  0.5013 -0.2347
 3152TIP3    H1 9420   4.866   2.399   4.617 -1.0138  0.2171 -1.3219
 3152TIP3    H2 9421   4.816   2.460   4.747  1.5540  0.6551 -0.4798
 3153TIP3   OH2 9422   4.430   4.527   2.281  0.1179  0.4894 -0.2470
 3153TIP3    H1 9423   4.478   4.555   2.203 -1.3267  0.2304 -1.2790
 3153TIP3    H2 9424   4.356   4.477   2.247 -0.1111 -0.3186  1.3401
 3154TIP3   OH2 9425   2.426   5.622   3.064  0.0644 -0.1586  0.1723
 3154TIP3    H1 9426   2.377   5.575   3.132  0.9958  0.1456  1.0828
 3154TIP3    H2 9427   2.366   5.626   2.989 -0.8537 -0.8119  0.8526
 3155TIP3   OH2 9428   6.779   2.940   0.091 -0.6061 -0.0866 -0.3404
 3155TIP3    H1 9429   6.780   3.013   0.029 -0.1805 -0.5859 -0.9348
 3155TIP3    H2 9430   6.694   2.946   0.134 -0.5869  0.7382 -0.4087
 3156TIP3   OH2 9431   4.438   0.945   5.678 -0.1075  0.1786 -0.0205
 3156TIP3    H1 9432   4.532   0.940   5.695 -0.2791  0.4093  1.0490
 3156TIP3    H2 9433   4.400   0.876   5.732 -0.6578  0.8196  0.4261
 3157TIP3   OH2 9434   3.286   4.026   3.098 -0.3834  0.1771  0.1839
 3157TIP3    H1 9435   3.376   3.998   3.112  0.0719  2.5895  3.0601
 3157TIP3    H2 9436   3.268   4.005   3.007  2.2398 -2.5236  0.1471
 3158TIP3   OH2 9437   5.270   5.896   1.815 -0.0354 -0.0455 -0.0815
 3158TIP3    H1 9438   5.364   5.916   1.824 -0.2210  0.3966  1.1520
 3158TIP3    H2 9439   5.226   5.974   1.851 -0.8513 -0.6939  0.3574
 3159TIP3   OH2 9440   0.813   0.672   0.277 -0.1734 -0.1914  0.1508
 3159TIP3    H1 9441   0.855   0.690   0.362  0.1010 -2.3743  0.5431
 3159TIP3    H2 9442   0.886   0.666   0.215 -0.0248 -1.9644  0.4472
 3160TIP3   OH2 9443   6.269   5.567   3.498 -0.3964  0.5675  0.0419
 3160TIP3    H1 9444   6.175   5.550   3.502 -0.9561  2.6070 -1.9370
 3160TIP3    H2 9445   6.278   5.657   3.529  1.0378  0.1438  0.9330
 3161TIP3   OH2 9446   6.727   0.292   1.866  0.1375  0.0759 -0.5842
 3161TIP3    H1 9447   6.777   0.277   1.945 -0.0066  1.1600 -0.2640
 3161TIP3    H2 9448   6.719   0.206   1.825  0.1533 -0.5123  0.6054
 3162TIP3   OH2 9449   4.721   3.955   5.880  0.6004 -0.2356  0.0018
 3162TIP3    H1 9450   4.805   3.916   5.905  0.3171 -1.1719 -0.4550
 3162TIP3    H2 9451   4.663   3.880   5.867 -0.3705  0.4064  0.5018
 3163TIP3   OH2 9452   1.729   0.690   3.472  0.2741 -0.3495  0.1564
 3163TIP3    H1 9453   1.651   0.746   3.461 -0.1198 -0.7019  1.0181
 3163TIP3    H2 9454   1.788   0.743   3.526  0.7079 -0.0275 -0.6119
 3164TIP3   OH2 9455   0.323   3.263   3.512  0.2667 -0.6662  0.2805
 3164TIP3    H1 9456   0.397   3.268   3.452  0.3583  1.0849  0.4809
 3164TIP3    H2 9457   0.341   3.187   3.568  1.8202 -0.3677  0.2112
 3165TIP3   OH2 9458   6.114   1.108   3.763 -0.4714  0.0659 -0.1461
 3165TIP3    H1 9459   6.180   1.048   3.798 -0.4387 -0.8882 -1.7200
 3165TIP3    H2 9460   6.066   1.055   3.699 -0.2322  1.7720 -1.8340
 3166TIP3   OH2 9461   2.971   2.065   0.484 -0.4279 -0.1980  0.2057
 3166TIP3    H1 9462   2.897   2.038   0.429  0.1963  1.0869 -1.3201
 3166TIP3    H2 9463   2.931   2.086   0.568 -1.6761 -0.4620 -0.2961
 3167TIP3   OH2 9464   1.700   1.112   3.714 -0.1869  0.0193  0.0843
 3167TIP3    H1 9465   1.646   1.081   3.787  0.6036 -1.8413 -0.0660
 3167TIP3    H2 9466   1.790   1.096   3.742  0.1157 -1.2358 -1.4500
 3168TIP3   OH2 9467   3.649   1.508   5.314 -0.7967 -0.1116  0.1699
 3168TIP3    H1 9468   3.633   1.416   5.293 -0.3389 -0.4257  1.1661
 3168TIP3    H2 9469   3.721   1.507   5.376  0.2489  1.0288 -0.9658
 3169TIP3   OH2 9470   6.414   0.316   4.006  0.1634  0.2604 -0.0697
 3169TIP3    H1 9471   6.444   0.226   4.018 -1.2243 -0.4736 -1.6548
 3169TIP3    H2 9472   6.494   0.368   4.001  1.1828 -1.4095 -2.8085
 3170TIP3   OH2 9473   4.614   0.817   0.590  0.2233 -0.9150 -0.5073
 3170TIP3    H1 9474   4.685   0.818   0.526  1.1878 -0.4446  0.5271
 3170TIP3    H2 9475   4.557   0.746   0.562  0.3082 -0.3519 -2.2033
 3171TIP3   OH2 9476   0.494   4.986   4.803  0.4908  0.3922  0.6882
 3171TIP3    H1 9477   0.401   4.966   4.815  0.6200 -0.1675  0.7858
 3171TIP3    H2 9478   0.539   4.904   4.825  0.9184  0.1703 -0.9008
 3172TIP3   OH2 9479   3.814   5.692   5.474 -0.1359  0.8698 -0.0800
 3172TIP3    H1 9480   3.875   5.659   5.541  2.5037  2.4649 -1.5300
 3172TIP3    H2 9481   3.786   5.614   5.426 -1.1921 -0.1628  2.0830
 3173TIP3   OH2 9482   5.544   4.950   0.278 -0.0139  0.5793 -0.0045
 3173TIP3    H1 9483   5.577   4.862   0.298 -0.2858  0.0217 -1.8097
 3173TIP3    H2 9484   5.550   4.957   0.183 -1.9034  1.7518 -0.0833
 3174TIP3   OH2 9485   1.109   1.818   4.431  0.2784 -0.1543  0.0191
 3174TIP3    H1 9486   1.027   1.826   4.481 -0.5057 -1.4382 -0.9907
 3174TIP3    H2 9487   1.129   1.725   4.433  1.3579  0.0585 -0.3275
 3175TIP3   OH2 9488   2.187   1.007   1.595  0.0906  0.4154  0.1799
 3175TIP3    H1 9489   2.185   1.100   1.616  0.3929  0.6749 -0.8658
 3175TIP3    H2 9490   2.197   1.004   1.499 -0.0743 -0.6871  0.1790
 3176TIP3   OH2 9491   1.478   0.907   1.088 -0.6019 -0.7618 -0.0566
 3176TIP3    H1 9492   1.458   0.998   1.066 -1.1080 -0.4680  1.4808
 3176TIP3    H2 9493   1.404   0.879   1.142 -0.6602 -2.2357 -0.8354
 3177TIP3   OH2 9494   2.422   1.026   1.102  0.1029 -0.1349 -0.2049
 3177TIP3    H1 9495   2.389   0.968   1.034 -1.5982 -0.3082  0.7229
 3177TIP3    H2 9496   2.486   0.974   1.150  0.0069 -0.5883 -0.5658
 3178TIP3   OH2 9497   5.635   2.197   2.817 -0.0466 -0.5679  0.0599
 3178TIP3    H1 9498   5.568   2.176   2.751 -0.1799 -0.5251  0.1824
 3178TIP3    H2 9499   5.674   2.278   2.786  0.2415 -0.8157 -0.2390
 3179TIP3   OH2 9500   3.551   3.734   1.181 -0.3354 -0.1067  0.5168
 3179TIP3    H1 9501   3.544   3.810   1.123  1.0315  0.3795  0.9556
 3179TIP3    H2 9502   3.608   3.763   1.252 -2.5207 -0.4562  2.5429
 3180TIP3   OH2 9503   3.822   6.815   3.202  0.6660 -0.2641 -0.3069
 3180TIP3    H1 9504   3.894   6.753   3.212  0.7088 -0.1892 -0.1468
 3180TIP3    H2 9505   3.773   6.808   3.284 -0.7327 -1.8663 -1.2207
 3181TIP3   OH2 9506   0.044   3.654   3.080  0.2439 -0.2934  0.3085
 3181TIP3    H1 9507   0.016   3.715   3.149  0.0208 -0.6014  0.4909
 3181TIP3    H2 9508  -0.033   3.600   3.063  0.6855 -1.0693  0.7220
 3182TIP3   OH2 9509   5.016   5.411   4.528  0.2037 -0.4003 -0.5880
 3182TIP3    H1 9510   5.018   5.332   4.475  0.9391 -0.1207 -0.9995
 3182TIP3    H2 9511   5.055   5.386   4.611 -0.1547 -0.6264 -0.4868
 3183TIP3   OH2 9512   5.195   0.363   3.860  0.4684  0.8411 -0.1751
 3183TIP3    H1 9513   5.263   0.318   3.910  1.6073  0.1552 -2.2568
 3183TIP3    H2 9514   5.119   0.305   3.866  0.7055  0.5740  0.3794
 3184TIP3   OH2 9515   3.386   0.919   5.814  0.4522  0.3651  0.3685
 3184TIP3    H1 9516   3.367   0.887   5.902  2.5801 -1.3517  0.2791
 3184TIP3    H2 9517   3.469   0.966   5.823 -0.5728  2.4173 -0.3032
 3185TIP3   OH2 9518   4.480   1.156   3.116  0.3162  0.1008  0.1053
 3185TIP3    H1 9519   4.510   1.067   3.100  1.6227  0.6904 -0.8806
 3185TIP3    H2 9520   4.537   1.190   3.185  0.5328  0.5198 -0.2728
 3186TIP3   OH2 9521   5.010   4.726   1.266 -0.1535 -0.7719 -0.3188
 3186TIP3    H1 9522   4.990   4.714   1.359 -0.7732  1.4728 -0.1245
 3186TIP3    H2 9523   5.052   4.811   1.261  0.9488 -1.3645 -1.9857
 3187TIP3   OH2 9524   1.123   6.693   4.826 -0.3731  0.3714 -0.1925
 3187TIP3    H1 9525   1.196   6.708   4.885 -0.8856  0.4631  0.4381
 3187TIP3    H2 9526   1.052   6.746   4.863 -0.6372  0.5947 -1.0144
 3188TIP3   OH2 9527   4.106   2.100   3.737 -0.0023  0.4096 -0.4658
 3188TIP3    H1 9528   4.016   2.074   3.717  0.5346 -2.4808  0.3567
 3188TIP3    H2 9529   4.098   2.168   3.804 -1.5688  0.9756 -1.2007
 3189TIP3   OH2 9530   6.920   5.337   3.413  0.6139 -0.1177  0.1846
 3189TIP3    H1 9531   6.956   5.426   3.415  0.1423  0.0742  0.4378
 3189TIP3    H2 9532   6.839   5.346   3.363  0.3488 -0.3211  0.5760
 3190TIP3   OH2 9533   6.140   2.636   2.557  0.8732  0.3431  0.0077
 3190TIP3    H1 9534   6.066   2.638   2.618 -0.0369  1.4840 -1.0463
 3190TIP3    H2 9535   6.105   2.591   2.480  1.2793  0.8745 -0.4925
 3191TIP3   OH2 9536   0.463   6.196   5.296  0.4102  0.1550  0.0382
 3191TIP3    H1 9537   0.491   6.130   5.232 -1.3711  0.9819 -1.6861
 3191TIP3    H2 9538   0.539   6.207   5.353  0.8610 -3.2325  0.3147
 3192TIP3   OH2 9539   6.866   3.073   4.008 -0.1056  0.3773 -0.1814
 3192TIP3    H1 9540   6.834   3.160   4.032 -1.4581 -0.2086  0.2422
 3192TIP3    H2 9541   6.839   3.016   4.080  2.1119 -0.1612  0.2974
 3193TIP3   OH2 9542   0.136   4.955   4.290 -0.3423  0.2840 -0.0592
 3193TIP3    H1 9543   0.204   4.891   4.269 -0.0391  1.2784 -2.4580
 3193TIP3    H2 9544   0.073   4.948   4.218 -0.9517  1.7978  0.2802
 3194TIP3   OH2 9545   6.483   2.255   5.446  0.3818  0.4142  0.3561
 3194TIP3    H1 9546   6.506   2.301   5.366  1.8777  1.6289  1.4259
 3194TIP3    H2 9547   6.461   2.324   5.509 -1.8848 -0.5367  0.7284
 3195TIP3   OH2 9548   2.608   6.094   4.241  0.2854  0.0177 -0.4402
 3195TIP3    H1 9549   2.644   6.182   4.232 -0.8405  0.4950 -0.4591
 3195TIP3    H2 9550   2.520   6.108   4.276  0.1236 -1.1064 -0.3797
 3196TIP3   OH2 9551   2.218   1.943   1.784 -0.2252 -0.0192 -0.2463
 3196TIP3    H1 9552   2.208   2.029   1.823 -3.0625  0.6921 -2.2257
 3196TIP3    H2 9553   2.286   1.954   1.717 -0.2541  0.5521 -0.1842
 3197TIP3   OH2 9554   3.183   5.925   0.860  0.6126 -0.1094 -0.0049
 3197TIP3    H1 9555   3.249   5.857   0.861  1.6911  0.9031 -0.2104
 3197TIP3    H2 9556   3.229   6.004   0.888 -0.4815  0.6390 -0.2313
 3198TIP3   OH2 9557   6.066   2.614   1.138 -0.1276  0.1386 -0.5322
 3198TIP3    H1 9558   6.043   2.534   1.091  1.1456 -1.4797  1.4109
 3198TIP3    H2 9559   6.045   2.685   1.077 -1.3937 -1.6431 -2.2986
 3199TIP3   OH2 9560   3.257   3.359   0.957 -0.2259 -0.0553  0.1212
 3199TIP3    H1 9561   3.296   3.389   1.039 -0.4929  0.8906 -0.0847
 3199TIP3    H2 9562   3.163   3.355   0.975 -0.1068 -2.1488  0.5612
 3200TIP3   OH2 9563   3.451  -0.035   2.422 -0.0245 -0.4602  0.3881
 3200TIP3    H1 9564   3.384   0.015   2.375  2.1017  1.1459 -1.1969
 3200TIP3    H2 9565   3.479   0.024   2.493  1.0852 -0.2003 -0.2376
 3201TIP3   OH2 9566   1.422   3.050   0.235 -0.1716 -0.0869 -0.1339
 3201TIP3    H1 9567   1.517   3.045   0.247  0.2229  1.5558 -2.0643
 3201TIP3    H2 9568   1.407   3.010   0.149 -1.1535  0.3062 -0.1503
 3202TIP3   OH2 9569   5.958   4.976   2.852  0.0453  0.0602  0.0916
 3202TIP3    H1 9570   5.875   5.001   2.811  0.1051  0.8396  0.4318
 3202TIP3    H2 9571   5.934   4.911   2.917 -0.3999  0.8039  0.6854
 3203TIP3   OH2 9572   5.889   2.458   0.480  0.5228  0.6153 -0.1931
 3203TIP3    H1 9573   5.954   2.393   0.509  0.6137  0.2710 -1.1309
 3203TIP3    H2 9574   5.932   2.542   0.491  0.7547  0.4550  0.1397
 3204TIP3   OH2 9575   6.215   0.089   0.792 -0.0710 -0.4082  0.0123
 3204TIP3    H1 9576   6.189   0.001   0.819 -0.1370  0.0024  1.3504
 3204TIP3    H2 9577   6.266   0.123   0.865  0.4110  0.4725 -0.7133
 3205TIP3   OH2 9578   6.091   4.153   5.179 -0.3637 -0.2665  0.2034
 3205TIP3    H1 9579   5.997   4.149   5.197 -0.7536 -1.1595 -1.7555
 3205TIP3    H2 9580   6.098   4.209   5.102  0.4618 -1.7557 -0.8532
 3206TIP3   OH2 9581   1.375   3.680   0.352  0.4894 -0.4082  0.6042
 3206TIP3    H1 9582   1.316   3.735   0.404  0.3950  0.5821 -0.5096
 3206TIP3    H2 9583   1.319   3.609   0.320  0.3395 -0.5143  1.0951
 3207TIP3   OH2 9584   0.789   6.622   3.318  0.2089 -0.5515 -0.2173
 3207TIP3    H1 9585   0.795   6.557   3.388 -0.3806 -0.1610  0.2017
 3207TIP3    H2 9586   0.874   6.618   3.274  1.1729  0.2790  1.4774
 3208TIP3   OH2 9587   0.746   1.618   4.952  0.4925  0.4959 -0.2778
 3208TIP3    H1 9588   0.658   1.657   4.945 -0.6504 -1.2352  2.5510
 3208TIP3    H2 9589   0.771   1.599   4.862 -1.5798  1.9588 -1.2549
 3209TIP3   OH2 9590   1.698   1.285   0.484 -0.1244  0.3400 -0.5402
 3209TIP3    H1 9591   1.731   1.362   0.438 -1.8113  1.4459  0.0061
 3209TIP3    H2 9592   1.604   1.285   0.467 -0.4383 -0.5358  1.0010
 3210TIP3   OH2 9593   2.061   2.935   4.252 -0.3314 -0.0922  0.4693
 3210TIP3    H1 9594   2.073   2.952   4.345 -0.8832  2.1130  0.2126
 3210TIP3    H2 9595   2.143   2.966   4.212  0.4248 -2.1828  0.2803
 3211TIP3   OH2 9596   6.425   2.134   1.135  0.3079 -0.7170  0.2102
 3211TIP3    H1 9597   6.418   2.213   1.080 -1.7806 -0.0039  1.3824
 3211TIP3    H2 9598   6.433   2.168   1.224 -0.3536 -1.8383  0.7067
 3212TIP3   OH2 9599   0.906   6.092   4.797  0.7074 -0.3505 -0.3784
 3212TIP3    H1 9600   0.865   6.166   4.752 -0.6439 -0.1110  1.1520
 3212TIP3    H2 9601   0.864   6.015   4.757  2.3194 -0.3700 -2.1702
 3213TIP3   OH2 9602   2.827   1.833   5.582 -0.4564  0.1400 -0.0825
 3213TIP3    H1 9603   2.776   1.901   5.536  0.2220  0.1902 -0.7843
 3213TIP3    H2 9604   2.784   1.825   5.667 -0.7429  1.2295 -0.0981
 3214TIP3   OH2 9605   0.175   2.882   4.029 -0.0795 -0.1236  0.0117
 3214TIP3    H1 9606   0.088   2.910   4.000  0.0352  0.6491  0.3992
 3214TIP3    H2 9607   0.220   2.963   4.053  0.3091 -0.6226  1.0372
 3215TIP3   OH2 9608   3.451   0.118   5.389  0.0690  0.1141  0.2744
 3215TIP3    H1 9609   3.506   0.114   5.311  1.0979 -0.3092  1.0032
 3215TIP3    H2 9610   3.384   0.182   5.367 -0.2370 -0.6920 -1.3115
 3216TIP3   OH2 9611   3.153   3.795   0.780  0.2919 -0.1569 -0.5655
 3216TIP3    H1 9612   3.163   3.701   0.766 -0.5602 -0.2175 -0.8290
 3216TIP3    H2 9613   3.128   3.803   0.872  0.9788 -0.1390 -0.3794
 3217TIP3   OH2 9614   2.285   5.595   2.777 -0.2350 -0.2856 -0.4097
 3217TIP3    H1 9615   2.341   5.640   2.712 -0.0521  0.5522  0.3058
 3217TIP3    H2 9616   2.197   5.626   2.758 -0.0545  0.7572  0.3592
 3218TIP3   OH2 9617   2.266   2.312   3.407 -0.0951 -0.2565  0.4718
 3218TIP3    H1 9618   2.261   2.300   3.502 -0.5833  1.2540  0.6594
 3218TIP3    H2 9619   2.271   2.407   3.395  0.0071 -0.4264 -1.0193
 3219TIP3   OH2 9620   6.813   5.590   1.103 -0.1122 -0.1434  0.1553
 3219TIP3    H1 9621   6.744   5.652   1.078 -1.5042 -0.7082  2.3392
 3219TIP3    H2 9622   6.894   5.642   1.100 -0.8048  0.9378 -0.9812
 3220TIP3   OH2 9623   2.289   0.726   5.362  0.1069  0.1954 -0.4275
 3220TIP3    H1 9624   2.201   0.696   5.385  0.0624  0.6217 -0.0154
 3220TIP3    H2 9625   2.326   0.758   5.444  0.8262 -0.4164 -0.5086
 3221TIP3   OH2 9626   0.055   1.549   0.528  0.0307 -0.1927 -0.1074
 3221TIP3    H1 9627   0.012   1.632   0.549  0.8195  0.2358 -0.1635
 3221TIP3    H2 9628   0.135   1.549   0.580 -0.8928 -1.8123  1.4210
 3222TIP3   OH2 9629   5.470   3.794   3.660  0.0612  0.1114  0.0418
 3222TIP3    H1 9630   5.563   3.783   3.640 -0.2029 -0.8134 -0.7477
 3222TIP3    H2 9631   5.425   3.758   3.584 -0.9514  0.3522  0.5160
 3223TIP3   OH2 9632   5.412   5.189   0.061 -0.6989 -0.0356 -0.2334
 3223TIP3    H1 9633   5.482   5.210  -0.000  0.8488  0.8496  1.7640
 3223TIP3    H2 9634   5.429   5.097   0.085  0.2574  0.3921  0.8000
 3224TIP3   OH2 9635   1.803   0.152   0.924  0.2592 -0.0819  0.4506
 3224TIP3    H1 9636   1.852   0.168   0.843 -0.7444  2.8583  0.3219
 3224TIP3    H2 9637   1.767   0.064   0.913  2.9159 -1.1431 -0.7609
 3225TIP3   OH2 9638   4.920   5.148   4.934  0.1170 -0.1975 -0.4261
 3225TIP3    H1 9639   4.991   5.205   4.963  0.0313 -0.5731  0.5510
 3225TIP3    H2 9640   4.953   5.060   4.947  0.0728 -0.3870 -1.4951
 3226TIP3   OH2 9641   5.954   6.442   1.400 -0.5291  0.3428 -0.3789
 3226TIP3    H1 9642   5.919   6.529   1.383  1.2481  0.6967 -2.7926
 3226TIP3    H2 9643   5.968   6.405   1.313  0.8239 -1.4775  0.5591
 3227TIP3   OH2 9644   0.591   6.706   5.168  0.3292 -0.0025  0.2745
 3227TIP3    H1 9645   0.568   6.630   5.221  1.3667  0.3258  1.2319
 3227TIP3    H2 9646   0.608   6.776   5.232  0.7564  0.6456 -0.5265
 3228TIP3   OH2 9647   6.833   6.294   1.825 -0.1323  0.2021  0.2893
 3228TIP3    H1 9648   6.775   6.327   1.893  0.6235  0.2361  0.9188
 3228TIP3    H2 9649   6.851   6.369   1.769 -1.0842  0.0817 -0.2023
 3229TIP3   OH2 9650   2.602   1.702   1.905  0.5381 -0.8239 -0.2025
 3229TIP3    H1 9651   2.507   1.709   1.895  0.3049 -1.0109  1.4998
 3229TIP3    H2 9652   2.622   1.611   1.880  0.4770 -0.4484 -1.7246
 3230TIP3   OH2 9653   1.910   6.204   4.882  0.3826 -0.0321 -0.1322
 3230TIP3    H1 9654   1.942   6.240   4.799  3.4860  1.1516  1.4316
 3230TIP3    H2 9655   1.897   6.280   4.938 -1.9380 -0.7924  0.4902
 3231TIP3   OH2 9656   1.608   6.066   0.255  0.1476  0.0257  0.0139
 3231TIP3    H1 9657   1.587   6.119   0.178 -0.9651 -1.4459 -0.7574
 3231TIP3    H2 9658   1.525   6.055   0.301  1.0941  2.4763  2.5830
 3232TIP3   OH2 9659   4.669   3.366   2.418  0.0876 -0.7648  0.3275
 3232TIP3    H1 9660   4.587   3.393   2.460  0.7503  2.7929 -0.4092
 3232TIP3    H2 9661   4.650   3.369   2.325  0.8548 -0.5894  0.1719
 3233TIP3   OH2 9662   6.228   3.940   0.230  0.5593  0.6208 -0.0441
 3233TIP3    H1 9663   6.244   4.020   0.280  1.3963 -0.2285  1.1090
 3233TIP3    H2 9664   6.304   3.932   0.172  0.4755  0.6702 -0.1599
 3234TIP3   OH2 9665   3.888   4.450   5.593  0.0523  0.2780 -0.1398
 3234TIP3    H1 9666   3.863   4.358   5.584 -0.7795  0.4917 -0.0557
 3234TIP3    H2 9667   3.913   4.459   5.685  0.1309  0.1416 -0.1473
 3235TIP3   OH2 9668   2.916   2.540   5.111 -0.8319 -0.3062  0.2559
 3235TIP3    H1 9669   2.980   2.559   5.179 -0.2609  0.6171 -0.5181
 3235TIP3    H2 9670   2.959   2.476   5.055 -1.0202 -0.5101  0.3404
 3236TIP3   OH2 9671   4.579   1.919   0.563  0.2089  0.0156  0.0876
 3236TIP3    H1 9672   4.643   1.971   0.611 -0.8723 -0.4543  2.2048
 3236TIP3    H2 9673   4.565   1.842   0.618 -1.5253 -0.2902 -0.7026
 3237TIP3   OH2 9674   7.061   0.876   4.364 -0.6837  0.1029 -0.6506
 3237TIP3    H1 9675   7.124   0.895   4.433  0.3492  0.2254 -1.5948
 3237TIP3    H2 9676   6.976   0.889   4.405 -0.2108 -2.3608  1.3638
 3238TIP3   OH2 9677   3.935   6.063   4.239  0.5867  0.9282  0.8462
 3238TIP3    H1 9678   3.911   6.152   4.213 -1.5048 -0.1923 -1.4257
 3238TIP3    H2 9679   3.852   6.015   4.239  1.9987 -1.8103 -1.4171
 3239TIP3   OH2 9680   3.864   4.127   4.923  0.2030  0.2349 -0.4691
 3239TIP3    H1 9681   3.875   4.033   4.935 -1.2049  0.1104  0.0751
 3239TIP3    H2 9682   3.798   4.135   4.853  0.3681  0.8107 -0.5664
 3240TIP3   OH2 9683   6.261   3.526   0.561 -0.0628 -0.5099  0.0059
 3240TIP3    H1 9684   6.341   3.490   0.522 -0.2423 -0.3225 -0.5456
 3240TIP3    H2 9685   6.241   3.602   0.506  0.8953  1.0776  1.7416
 3241TIP3   OH2 9686   2.711   1.268   2.495  0.4921 -0.1294 -0.4212
 3241TIP3    H1 9687   2.796   1.300   2.527 -0.2371  0.6044  0.8535
 3241TIP3    H2 9688   2.653   1.343   2.501 -0.4693 -0.8531 -0.4408
 3242TIP3   OH2 9689   3.216   6.335   2.838 -0.3736 -0.1129 -0.3414
 3242TIP3    H1 9690   3.259   6.269   2.783 -1.4937 -0.7928 -0.4136
 3242TIP3    H2 9691   3.236   6.308   2.928 -2.1888 -1.5129 -0.3248
 3243TIP3   OH2 9692   1.178   2.106   0.992  0.2896  0.0966 -0.3601
 3243TIP3    H1 9693   1.168   2.011   0.994  0.6801  0.0741  0.6011
 3243TIP3    H2 9694   1.209   2.125   0.903 -0.2231 -0.6218 -0.7035
 3244TIP3   OH2 9695   0.992   1.394   3.660  0.3700  0.6148  0.4268
 3244TIP3    H1 9696   1.028   1.458   3.720  0.9909 -0.6270  1.4295
 3244TIP3    H2 9697   1.062   1.329   3.649 -0.5668 -0.3982  0.2427
 3245TIP3   OH2 9698   0.386   4.441   1.138  0.8387  0.8566 -0.1725
 3245TIP3    H1 9699   0.423   4.430   1.051  0.7153 -0.5886 -0.0772
 3245TIP3    H2 9700   0.334   4.361   1.152 -1.1445  2.1613  0.2663
 3246TIP3   OH2 9701   1.374   5.067   1.001 -0.0453  0.5143  0.0230
 3246TIP3    H1 9702   1.319   5.111   0.936 -0.2133 -0.6564 -0.6490
 3246TIP3    H2 9703   1.447   5.128   1.015  0.8875  0.1176 -2.5294
 3247TIP3   OH2 9704   6.565   3.883   3.802 -0.1957 -0.0051  0.2741
 3247TIP3    H1 9705   6.587   3.957   3.858  2.9072  0.4041 -1.2351
 3247TIP3    H2 9706   6.553   3.810   3.862 -0.6491  1.1539  1.6468
 3248TIP3   OH2 9707   0.329   6.288   2.352 -0.1110  0.1019 -0.3694
 3248TIP3    H1 9708   0.253   6.254   2.399  0.9781 -1.3214  0.4350
 3248TIP3    H2 9709   0.292   6.332   2.275 -1.7167 -0.9801 -0.2618
 3249TIP3   OH2 9710   1.388   4.061   0.091  0.2010 -0.3013  0.4661
 3249TIP3    H1 9711   1.462   4.005   0.116  0.0103  0.1732  2.2565
 3249TIP3    H2 9712   1.400   4.077  -0.002  1.3737 -1.6665  0.3474
 3250TIP3   OH2 9713   2.473   2.719   3.422  0.0778 -0.2797  0.0355
 3250TIP3    H1 9714   2.404   2.773   3.462  0.4898 -0.7907  1.5245
 3250TIP3    H2 9715   2.491   2.652   3.488  1.8731 -0.2714 -0.4106
 3251TIP3   OH2 9716   6.051   1.715   1.849  0.4917 -0.6481  0.3055
 3251TIP3    H1 9717   6.076   1.626   1.823 -0.4022 -0.1963 -2.3485
 3251TIP3    H2 9718   6.086   1.771   1.780  1.5104  1.1883  2.2008
 3252TIP3   OH2 9719   6.078   1.605   1.286 -0.4834 -0.7894  0.6018
 3252TIP3    H1 9720   5.997   1.635   1.327 -0.2484 -0.5892  0.9153
 3252TIP3    H2 9721   6.100   1.524   1.331 -1.0076 -1.3389 -0.1085
 3253TIP3   OH2 9722   4.112   3.452   0.797  0.2093 -0.4039  0.2107
 3253TIP3    H1 9723   4.161   3.534   0.799 -1.7020  0.8250 -0.4208
 3253TIP3    H2 9724   4.108   3.428   0.705  0.8841 -1.3150  0.4035
 3254TIP3   OH2 9725   1.731   1.125   5.357 -0.3429 -0.5204 -0.0715
 3254TIP3    H1 9726   1.800   1.067   5.325 -1.9189 -1.1694 -2.5987
 3254TIP3    H2 9727   1.777   1.200   5.394  1.7131 -0.9837 -1.5507
 3255TIP3   OH2 9728   5.527   1.383   3.522  0.0862  0.2167  0.3035
 3255TIP3    H1 9729   5.492   1.456   3.471  0.7654 -0.4686 -1.2190
 3255TIP3    H2 9730   5.480   1.387   3.605 -0.4287  1.9176 -0.0236
 3256TIP3   OH2 9731   3.147   6.112   2.646 -0.5317  0.5434 -0.2299
 3256TIP3    H1 9732   3.098   6.061   2.583 -1.6480 -1.3481  2.0218
 3256TIP3    H2 9733   3.237   6.079   2.640 -1.1028 -1.3223  0.7274
 3257TIP3   OH2 9734   6.154   6.074   4.693  0.3374 -0.1770  0.0676
 3257TIP3    H1 9735   6.186   6.107   4.777  0.1594  0.3402 -0.0639
 3257TIP3    H2 9736   6.130   6.153   4.644 -0.4309 -0.5238 -0.1219
 3258TIP3   OH2 9737   4.573   0.022   4.584 -0.1779 -0.4745 -0.1626
 3258TIP3    H1 9738   4.488  -0.010   4.612 -0.0128  0.7608  1.9304
 3258TIP3    H2 9739   4.554   0.079   4.509 -0.9105 -1.9130 -1.1151
 3259TIP3   OH2 9740   2.476   1.491   4.979  0.2371 -0.5113  0.1678
 3259TIP3    H1 9741   2.487   1.582   4.953  0.6153 -0.8893 -1.0675
 3259TIP3    H2 9742   2.447   1.495   5.070  0.5183  0.8279  0.2147
 3260TIP3   OH2 9743   2.527   2.324   2.495 -0.1588  0.2667  0.4618
 3260TIP3    H1 9744   2.549   2.321   2.402 -1.8712  0.2574  0.0112
 3260TIP3    H2 9745   2.476   2.405   2.505 -1.3436 -0.5125  1.0268
 3261TIP3   OH2 9746   6.482   4.021   4.627  0.2392  0.0935  0.2939
 3261TIP3    H1 9747   6.400   4.029   4.677  0.0011 -0.3875 -0.0131
 3261TIP3    H2 9748   6.519   4.109   4.628  0.1910  0.1133  1.2423
 3262TIP3   OH2 9749   6.126   0.970   5.315  0.2757 -0.1563  0.3273
 3262TIP3    H1 9750   6.203   1.003   5.362  0.1463  0.6322 -0.0033
 3262TIP3    H2 9751   6.052   1.008   5.362  0.0702 -0.9523  0.6730
 3263TIP3   OH2 9752   4.083   1.615   4.123 -0.0952 -0.1741 -0.2475
 3263TIP3    H1 9753   4.159   1.670   4.141 -0.7815 -0.0142  2.6895
 3263TIP3    H2 9754   4.118   1.527   4.113  0.4836 -0.4273  2.9042
 3264TIP3   OH2 9755   1.392   1.717   0.264  0.5738 -0.4456  0.2679
 3264TIP3    H1 9756   1.465   1.702   0.204  0.2474 -0.2664 -0.1686
 3264TIP3    H2 9757   1.314   1.707   0.211  0.2906  2.3808  0.0104
 3265TIP3   OH2 9758   1.813   2.549   2.302  0.3491  0.5175 -0.2263
 3265TIP3    H1 9759   1.866   2.586   2.231 -0.5593  1.5076 -0.4117
 3265TIP3    H2 9760   1.860   2.574   2.382  1.8236 -1.2988 -0.4425
 3266TIP3   OH2 9761  -0.016   0.998   2.538  0.2428 -0.3655 -0.5836
 3266TIP3    H1 9762   0.028   1.077   2.507 -0.2657 -0.1218 -0.6846
 3266TIP3    H2 9763   0.028   0.977   2.621  0.8254 -0.3622 -0.8821
 3267TIP3   OH2 9764   1.873   5.014   5.815 -0.0798 -0.0926  0.1747
 3267TIP3    H1 9765   1.964   5.033   5.792 -0.0151  0.4413  0.8385
 3267TIP3    H2 9766   1.878   4.950   5.885 -0.2947 -2.3405 -1.7400
 3268TIP3   OH2 9767   5.677   3.865   0.477  0.5868 -0.0150 -0.1156
 3268TIP3    H1 9768   5.772   3.862   0.491  0.6720  2.4197  0.2974
 3268TIP3    H2 9769   5.663   3.816   0.397  1.9219 -2.0495  0.8004
 3269TIP3   OH2 9770   1.840   5.710   1.729 -0.4646 -0.0768 -0.2080
 3269TIP3    H1 9771   1.862   5.623   1.761 -1.1634 -0.4816 -0.8098
 3269TIP3    H2 9772   1.844   5.703   1.634  0.5548  0.8426 -0.2665
 3270TIP3   OH2 9773   6.340   5.078   4.315  0.4936  0.1659  0.3992
 3270TIP3    H1 9774   6.266   5.136   4.333  0.7426  0.9286 -0.8814
 3270TIP3    H2 9775   6.411   5.136   4.290  0.5949 -0.6677 -1.4487
 3271TIP3   OH2 9776   5.571   3.517   2.492 -0.2287 -0.4120 -0.2130
 3271TIP3    H1 9777   5.621   3.436   2.504 -0.4754 -0.5480 -0.0840
 3271TIP3    H2 9778   5.617   3.582   2.544 -0.3115 -0.5885  0.0828
 3272TIP3   OH2 9779   2.878   4.235   2.907 -0.6829  0.2973  0.0249
 3272TIP3    H1 9780   2.801   4.181   2.925 -2.0134  1.6154 -1.4084
 3272TIP3    H2 9781   2.902   4.214   2.817  0.7913 -0.2538  0.5274
 3273TIP3   OH2 9782   2.336   2.648   1.711 -0.3770 -0.2139  0.0640
 3273TIP3    H1 9783   2.302   2.736   1.693 -1.1398 -0.7588 -1.2877
 3273TIP3    H2 9784   2.261   2.600   1.747 -0.5874 -0.9317 -1.2956
 3274TIP3   OH2 9785   1.712   5.163   3.890  0.0174 -0.0065  0.2660
 3274TIP3    H1 9786   1.694   5.091   3.950 -1.2080  0.2704  0.2472
 3274TIP3    H2 9787   1.627   5.201   3.871  0.6536  1.5876  0.4306
 3275TIP3   OH2 9788   4.739   2.027   4.141  0.2079 -0.2245 -0.6354
 3275TIP3    H1 9789   4.684   2.105   4.143 -0.2577 -0.4040 -3.0660
 3275TIP3    H2 9790   4.677   1.954   4.139  0.6249 -0.6317  0.7128
 3276TIP3   OH2 9791   4.064   5.259   2.155 -0.0466  0.0131  0.1762
 3276TIP3    H1 9792   4.123   5.260   2.080  0.5682 -0.2393  0.6413
 3276TIP3    H2 9793   4.031   5.348   2.162 -0.0570  0.0493 -0.3550
 3277TIP3   OH2 9794   6.544   2.672   0.794  0.2505 -0.2259  0.3222
 3277TIP3    H1 9795   6.579   2.712   0.874 -1.4072  0.2078  0.8679
 3277TIP3    H2 9796   6.598   2.594   0.781  1.4630  0.4633  1.0483
 3278TIP3   OH2 9797   2.614   2.772   0.116  0.5108 -0.1485 -1.1579
 3278TIP3    H1 9798   2.536   2.765   0.171  1.3107 -0.0787  0.0266
 3278TIP3    H2 9799   2.602   2.854   0.068 -0.7048 -0.7476 -1.9293
 3279TIP3   OH2 9800   1.730   3.713   2.186 -0.6860 -0.0525  0.3358
 3279TIP3    H1 9801   1.676   3.704   2.107 -2.3939  0.5595  1.3905
 3279TIP3    H2 9802   1.688   3.655   2.250 -0.3841  0.7857  1.3192
 3280TIP3   OH2 9803   1.132   2.874   3.417 -0.0003 -0.6761 -0.5675
 3280TIP3    H1 9804   1.180   2.791   3.424  0.7956 -0.1497  0.6807
 3280TIP3    H2 9805   1.200   2.939   3.395 -0.4179 -0.1820 -0.4126
 3281TIP3   OH2 9806   4.371   4.635   3.573  0.8151  0.2541 -0.7029
 3281TIP3    H1 9807   4.424   4.613   3.496  1.1562 -0.6561 -0.2232
 3281TIP3    H2 9808   4.322   4.555   3.591  2.2168 -0.2467  1.1996
 3282TIP3   OH2 9809   5.963   1.947   5.754  0.2694 -0.3386  0.2069
 3282TIP3    H1 9810   6.014   1.992   5.822 -0.6266  0.3125  0.4643
 3282TIP3    H2 9811   6.019   1.952   5.676  0.6624  0.2429  0.5126
 3283TIP3   OH2 9812   7.224   1.994   4.585  0.1479 -0.0670  0.0966
 3283TIP3    H1 9813   7.134   1.986   4.617  0.3160  0.4624  0.7118
 3283TIP3    H2 9814   7.240   1.911   4.539 -1.0506  0.3041 -1.0711
 3284TIP3   OH2 9815   1.215   5.733   4.296  0.1745  0.3614  0.2805
 3284TIP3    H1 9816   1.231   5.825   4.320 -1.5650  1.2894 -1.7661
 3284TIP3    H2 9817   1.214   5.686   4.379  2.2151  1.9816  1.3070
 3285TIP3   OH2 9818   3.182   2.303   3.262  0.2748  0.0579 -0.4945
 3285TIP3    H1 9819   3.123   2.268   3.329  1.1074 -1.6542 -0.5993
 3285TIP3    H2 9820   3.150   2.264   3.180  1.3374 -0.6596 -0.5870
 3286TIP3   OH2 9821   2.136   4.871   1.678 -0.5347  0.3532 -0.2615
 3286TIP3    H1 9822   2.075   4.943   1.693  0.1535  1.0006 -0.4843
 3286TIP3    H2 9823   2.222   4.906   1.703 -0.2050 -0.4299 -0.2522
 3287TIP3   OH2 9824   7.106   4.846   2.259 -0.5790  0.0752  0.3040
 3287TIP3    H1 9825   7.194   4.842   2.222 -1.0119  0.3561 -0.8001
 3287TIP3    H2 9826   7.078   4.936   2.243 -2.8060 -1.1055 -3.6405
 3288TIP3   OH2 9827   5.969   0.491   5.866  0.2196 -0.0942  0.3055
 3288TIP3    H1 9828   5.944   0.398   5.867  0.1925 -0.0924 -0.1976
 3288TIP3    H2 9829   6.059   0.492   5.898 -0.1453 -0.1754  1.4064
 3289TIP3   OH2 9830   4.368   6.115   5.605  0.3612  0.2538  0.2466
 3289TIP3    H1 9831   4.372   6.189   5.665 -0.5671 -0.5428  1.3504
 3289TIP3    H2 9832   4.423   6.048   5.646  0.4391  0.0039 -0.2609
 3290TIP3   OH2 9833   3.121   4.735   5.467 -0.3708  0.5880  0.0216
 3290TIP3    H1 9834   3.100   4.767   5.380 -1.5781 -0.4449 -0.0963
 3290TIP3    H2 9835   3.170   4.654   5.452  0.3470  0.9569  0.3136
 3291TIP3   OH2 9836   4.178   0.644   2.605  0.2434  0.6807 -0.3198
 3291TIP3    H1 9837   4.156   0.626   2.514 -0.1098 -1.3129  0.0949
 3291TIP3    H2 9838   4.256   0.591   2.621  0.5199  1.3055  0.4410
 3292TIP3   OH2 9839   1.419   6.104   0.646  0.3010 -0.8736  0.5411
 3292TIP3    H1 9840   1.413   6.148   0.562 -1.0558  0.5039  1.3000
 3292TIP3    H2 9841   1.511   6.079   0.654  0.5251 -0.6757 -1.1523
 3293TIP3   OH2 9842   5.713   3.384   4.174 -0.0228  0.3403  0.7368
 3293TIP3    H1 9843   5.768   3.307   4.159 -0.5534  0.1143 -0.1560
 3293TIP3    H2 9844   5.741   3.418   4.259  0.0119 -1.0287  1.2968
 3294TIP3   OH2 9845   2.556   6.728   0.035  0.4421 -0.2563  0.0426
 3294TIP3    H1 9846   2.561   6.712   0.129  0.6331 -0.7108 -0.0451
 3294TIP3    H2 9847   2.484   6.791   0.026  0.6568  0.0663  0.5241
 3295TIP3   OH2 9848   1.553   5.390   1.784 -0.1769 -1.2121 -0.4788
 3295TIP3    H1 9849   1.605   5.353   1.856 -0.6560 -0.5036  0.2504
 3295TIP3    H2 9850   1.615   5.397   1.711  1.2777  1.1835  0.8474
 3296TIP3   OH2 9851   2.350   5.342   3.512 -0.4708 -0.0770  0.1112
 3296TIP3    H1 9852   2.387   5.364   3.426 -0.7256  0.1328  0.0552
 3296TIP3    H2 9853   2.267   5.299   3.492 -0.8131  0.5066  0.2685
 3297TIP3   OH2 9854   6.382   1.547   3.682  0.0617  0.3081  0.1155
 3297TIP3    H1 9855   6.385   1.453   3.664  4.6593  0.2293 -0.1288
 3297TIP3    H2 9856   6.335   1.584   3.607 -0.4375 -1.6702 -0.6199
 3298TIP3   OH2 9857   4.068   0.650   5.653 -0.4444 -0.6531 -0.5766
 3298TIP3    H1 9858   4.116   0.626   5.574 -0.9955  0.1373 -1.1739
 3298TIP3    H2 9859   4.105   0.596   5.722  1.0015 -0.3759 -1.1099
 3299TIP3   OH2 9860   4.701   4.835   0.387 -0.2368  0.0277  0.8582
 3299TIP3    H1 9861   4.691   4.929   0.401 -3.2215 -0.2041  1.0354
 3299TIP3    H2 9862   4.667   4.795   0.467 -2.8113 -1.1531 -0.6842
 3300TIP3   OH2 9863   2.687   3.906   1.277  0.5917  0.4310  0.5443
 3300TIP3    H1 9864   2.614   3.968   1.277 -0.4130 -0.6309 -1.5710
 3300TIP3    H2 9865   2.699   3.881   1.369 -1.9790  0.3786  0.9211
 3301TIP3   OH2 9866   0.273   4.293   4.698 -0.6264  0.2828  0.6316
 3301TIP3    H1 9867   0.358   4.315   4.738 -0.7975  0.1628  1.0670
 3301TIP3    H2 9868   0.242   4.218   4.749 -0.7944  0.0546  0.1923
 3302TIP3   OH2 9869   2.909   5.988   5.829  0.1337  0.4959  0.1321
 3302TIP3    H1 9870   2.934   6.072   5.867  2.6776 -0.3701  0.5312
 3302TIP3    H2 9871   2.821   6.003   5.795 -0.8082  2.3669  3.0483
 3303TIP3   OH2 9872   1.715   3.067   0.667  0.4427  0.2808 -0.1798
 3303TIP3    H1 9873   1.779   3.124   0.624  1.4436 -0.1583  0.7072
 3303TIP3    H2 9874   1.716   3.093   0.758 -0.0936 -0.2361 -0.0191
 3304TIP3   OH2 9875   3.310   1.460   3.674 -0.3392 -0.2749 -0.4053
 3304TIP3    H1 9876   3.229   1.411   3.659  0.1141 -0.8722 -0.9340
 3304TIP3    H2 9877   3.287   1.550   3.650 -0.7491 -0.5039 -0.9039
 3305TIP3   OH2 9878   0.608   3.811   2.060 -0.5190  0.0181 -0.0861
 3305TIP3    H1 9879   0.630   3.826   1.968  0.9102  0.9763  0.3747
 3305TIP3    H2 9880   0.559   3.889   2.085  1.0753  0.8893  0.5228
 3306TIP3   OH2 9881   7.177   2.209   4.842 -0.0420 -0.1554 -0.6322
 3306TIP3    H1 9882   7.082   2.216   4.853  0.1450 -0.8321  1.9455
 3306TIP3    H2 9883   7.187   2.147   4.769 -1.5931 -1.2186 -0.0026
 3307TIP3   OH2 9884   1.327   5.309   4.114 -0.3057  0.4536  0.1179
 3307TIP3    H1 9885   1.390   5.371   4.150  0.8384 -0.5358 -0.1032
 3307TIP3    H2 9886   1.281   5.357   4.044 -0.3984  1.4373  0.8470
 3308TIP3   OH2 9887   7.093   4.948   4.768 -0.6944 -0.8249  0.6941
 3308TIP3    H1 9888   7.156   4.886   4.805  0.6159  0.1782  0.1946
 3308TIP3    H2 9889   7.113   4.950   4.675 -0.4569  0.6432  0.7571
 3309TIP3   OH2 9890   4.336   3.328   2.181  0.1178 -0.3603  0.2380
 3309TIP3    H1 9891   4.248   3.305   2.212  0.4199 -0.8419  0.7497
 3309TIP3    H2 9892   4.335   3.423   2.176 -0.5604 -0.3761 -0.1429
 3310TIP3   OH2 9893   7.173   0.644   3.606  0.0258 -0.1364 -0.0402
 3310TIP3    H1 9894   7.098   0.586   3.619 -1.9897  2.3589  0.4467
 3310TIP3    H2 9895   7.181   0.651   3.510  0.1900 -1.0455 -0.1015
 3311TIP3   OH2 9896   2.395   3.749   5.348 -0.1084 -0.0387  0.2177
 3311TIP3    H1 9897   2.461   3.706   5.293 -0.7405 -2.5768  1.2958
 3311TIP3    H2 9898   2.320   3.763   5.289 -0.0376 -0.8479 -0.0780
 3312TIP3   OH2 9899   4.273   2.572   4.970  0.4615  0.2042 -0.2224
 3312TIP3    H1 9900   4.270   2.654   5.020 -0.5960  0.4498 -0.6572
 3312TIP3    H2 9901   4.223   2.510   5.024 -0.3460  0.3637 -0.7700
 3313TIP3   OH2 9902   4.938   2.226   2.907 -0.3634  0.0503  0.2434
 3313TIP3    H1 9903   5.032   2.209   2.916 -0.6698 -1.2138  1.4260
 3313TIP3    H2 9904   4.924   2.238   2.813  0.6318 -1.9458 -0.2028
 3314TIP3   OH2 9905   6.648   2.643   5.918 -0.1882 -1.0602 -0.5344
 3314TIP3    H1 9906   6.647   2.670   5.826 -2.7790  0.9223 -0.0267
 3314TIP3    H2 9907   6.558   2.617   5.937  0.8523 -4.2997  0.7708
 3315TIP3   OH2 9908   2.505   5.078   2.722 -0.4213  0.1416  0.4472
 3315TIP3    H1 9909   2.467   5.161   2.751 -0.8016  0.0992  0.0916
 3315TIP3    H2 9910   2.536   5.036   2.802  1.7715  1.5774  0.4354
 3316TIP3   OH2 9911   6.803   2.236   2.079  0.2697 -0.6572 -0.8844
 3316TIP3    H1 9912   6.823   2.252   2.171  0.4531  2.3432 -1.3483
 3316TIP3    H2 9913   6.799   2.141   2.072 -3.3198 -1.0935  2.9824
 3317TIP3   OH2 9914   5.788   4.372   2.026  0.2746  0.1439 -0.7694
 3317TIP3    H1 9915   5.864   4.328   1.986  0.9598  0.1362  0.5093
 3317TIP3    H2 9916   5.799   4.359   2.120 -2.0924 -1.1226 -0.5855
 3318TIP3   OH2 9917   3.462   5.203   0.917  0.1950 -0.1176 -0.0101
 3318TIP3    H1 9918   3.493   5.166   0.834  0.5685 -0.1062  0.1201
 3318TIP3    H2 9919   3.497   5.144   0.983 -0.8814 -0.6608  0.1004
 3319TIP3   OH2 9920   0.800   1.180   5.346 -0.3008 -0.3383 -0.8068
 3319TIP3    H1 9921   0.775   1.217   5.261  1.1752 -0.0766 -1.1451
 3319TIP3    H2 9922   0.772   1.089   5.341  0.9068 -0.6632 -2.0850
 3320TIP3   OH2 9923   0.833   2.290   4.276 -0.3757 -0.5208 -0.4505
 3320TIP3    H1 9924   0.909   2.233   4.276 -2.2111 -3.1572  0.3981
 3320TIP3    H2 9925   0.827   2.322   4.366 -1.3916 -2.0291  0.0538
 3321TIP3   OH2 9926   6.874   2.228   4.380 -0.0185 -0.3684  0.0453
 3321TIP3    H1 9927   6.836   2.264   4.300 -0.0637 -2.7857 -1.0971
 3321TIP3    H2 9928   6.816   2.156   4.404  1.1572 -1.0190  1.0582
 3322TIP3   OH2 9929   1.335   1.575   1.851 -0.0863  0.7868  0.0563
 3322TIP3    H1 9930   1.429   1.590   1.842 -0.1606  1.5025  0.4491
 3322TIP3    H2 9931   1.296   1.621   1.777 -0.0899 -0.0537 -0.4824
 3323TIP3   OH2 9932   2.124   0.174   5.696 -0.1099  0.3043  0.3132
 3323TIP3    H1 9933   2.061   0.173   5.768 -0.7434 -1.1594 -0.2244
 3323TIP3    H2 9934   2.206   0.204   5.735 -0.7857  0.8666  1.3279
 3324TIP3   OH2 9935   1.366   0.763  -0.018 -0.2983 -0.2723 -0.3162
 3324TIP3    H1 9936   1.450   0.744   0.026 -0.4859 -0.3916 -0.0029
 3324TIP3    H2 9937   1.302   0.764   0.053 -0.4299  0.7074 -0.4290
 3325TIP3   OH2 9938   0.399   3.420   4.295 -0.3900  0.9655 -0.1564
 3325TIP3    H1 9939   0.442   3.410   4.380 -1.9446  2.9867  0.9630
 3325TIP3    H2 9940   0.415   3.512   4.272  1.4919  0.0906 -2.9863
 3326TIP3   OH2 9941   1.700   2.845   5.421 -0.2838 -0.3146 -0.3503
 3326TIP3    H1 9942   1.639   2.860   5.349  1.4366  3.1086 -1.2809
 3326TIP3    H2 9943   1.644   2.818   5.494 -2.7140  0.9608 -1.6054
 3327TIP3   OH2 9944   2.710   3.912   4.045  0.0634 -0.3224 -0.1058
 3327TIP3    H1 9945   2.619   3.942   4.049  0.2648  0.1877  1.0332
 3327TIP3    H2 9946   2.748   3.942   4.128  0.8752 -1.8002  0.0809
 3328TIP3   OH2 9947   1.546   1.423   0.166 -0.1840  0.0987  0.3744
 3328TIP3    H1 9948   1.639   1.405   0.169 -0.1598 -0.6197 -2.4554
 3328TIP3    H2 9949   1.536   1.492   0.101 -1.6029  0.5817  1.0493
 3329TIP3   OH2 9950   1.811   1.088   2.074 -0.0662 -0.1198  0.2507
 3329TIP3    H1 9951   1.843   1.093   1.984 -0.2398 -0.9914  0.1319
 3329TIP3    H2 9952   1.719   1.113   2.069  0.0148  0.1780  0.2426
 3330TIP3   OH2 9953   6.508   6.614   0.312 -0.2666 -0.2099 -0.1693
 3330TIP3    H1 9954   6.438   6.677   0.292 -1.2645 -1.1991  0.1294
 3330TIP3    H2 9955   6.509   6.608   0.407  0.7779  0.3811 -0.1269
 3331TIP3   OH2 9956   5.490   4.992   2.655  0.3310 -0.0602  0.7119
 3331TIP3    H1 9957   5.422   4.970   2.717 -0.1336 -0.1860  0.1657
 3331TIP3    H2 9958   5.493   4.919   2.594  0.1673  0.4532  0.0714
 3332TIP3   OH2 9959   6.201   4.808   5.796 -0.2255 -0.3128  0.0093
 3332TIP3    H1 9960   6.203   4.887   5.849  1.4578  0.6032 -1.3036
 3332TIP3    H2 9961   6.195   4.737   5.859 -0.5423  0.8081  1.2929
 3333TIP3   OH2 9962   4.692   1.691   0.098 -0.0848 -0.0400  0.2180
 3333TIP3    H1 9963   4.634   1.683   0.022 -0.2686 -0.2070  0.3727
 3333TIP3    H2 9964   4.684   1.606   0.142 -0.1240  0.1216  0.5248
 3334TIP3   OH2 9965   3.586   3.509   2.764  0.0987 -0.7350 -0.2024
 3334TIP3    H1 9966   3.500   3.515   2.806 -0.1231 -0.3161 -0.6996
 3334TIP3    H2 9967   3.566   3.500   2.671  0.5987  1.1679 -0.5379
 3335TIP3   OH2 9968   6.485   3.150   1.043 -0.3173  0.0310 -0.2703
 3335TIP3    H1 9969   6.468   3.209   0.969 -0.8219 -1.3568 -1.2972
 3335TIP3    H2 9970   6.417   3.172   1.107 -2.5881 -1.5722 -1.9874
 3336TIP3   OH2 9971   3.122   4.203   1.984 -0.3950  0.5072  0.0139
 3336TIP3    H1 9972   3.092   4.112   1.974 -2.7612  0.9685  1.8807
 3336TIP3    H2 9973   3.089   4.247   1.905 -2.2930  0.3852  0.6813
 3337TIP3   OH2 9974   6.268   1.253   2.523  0.0552 -0.1853  0.3015
 3337TIP3    H1 9975   6.350   1.205   2.516 -0.9648 -1.8456 -1.0562
 3337TIP3    H2 9976   6.204   1.186   2.548 -1.2327  0.6482 -0.6533
 3338TIP3   OH2 9977   3.032   1.796   3.629  0.3827  0.6510  0.2151
 3338TIP3    H1 9978   3.008   1.742   3.704 -0.3581 -0.4905 -0.7953
 3338TIP3    H2 9979   3.125   1.780   3.616  1.0150  2.4708  2.1130
 3339TIP3   OH2 9980   1.229   4.933   1.415 -0.2752 -0.1521 -0.4314
 3339TIP3    H1 9981   1.221   4.951   1.322 -1.0027 -0.8481 -0.5087
 3339TIP3    H2 9982   1.160   4.871   1.434 -0.1011 -0.0619  0.5677
 3340TIP3   OH2 9983   2.061   0.407   0.094 -0.0533  0.2468  0.3777
 3340TIP3    H1 9984   2.035   0.495   0.066  0.1457 -0.3209 -1.8174
 3340TIP3    H2 9985   2.061   0.356   0.013 -0.9959 -2.0040  1.6982
 3341TIP3   OH2 9986   6.365   0.943   3.622  0.1837 -0.3368  0.2447
 3341TIP3    H1 9987   6.425   0.960   3.550 -0.5331  1.6156  0.0427
 3341TIP3    H2 9988   6.420   0.905   3.691  1.6217  1.0714 -0.0585
 3342TIP3   OH2 9989   6.037   6.676   3.254 -0.0123 -0.4067  0.2075
 3342TIP3    H1 9990   6.085   6.728   3.319 -1.1817  1.5322 -0.4025
 3342TIP3    H2 9991   6.043   6.727   3.174 -2.7919 -0.2132  0.0392
 3343TIP3   OH2 9992   5.097   2.821   0.990 -0.3061 -0.0702  0.3539
 3343TIP3    H1 9993   5.037   2.889   1.020 -0.7485  0.0580 -0.8021
 3343TIP3    H2 9994   5.110   2.766   1.067 -2.9121 -0.8573  0.3237
 3344TIP3   OH2 9995   1.070   2.711   3.677  0.5504 -0.1642  0.8496
 3344TIP3    H1 9996   1.043   2.693   3.767 -0.2571 -0.4138  0.5658
 3344TIP3    H2 9997   1.122   2.791   3.683  0.3884 -0.1019  1.5166
 3345TIP3   OH2 9998   2.554   5.642   5.666  0.2884 -0.5642 -0.4179
 3345TIP3    H1 9999   2.483   5.630   5.729 -0.0630 -3.6296 -1.2003
 3345TIP3    H210000   2.538   5.727   5.626 -1.5288 -0.1251  1.1382
 3346TIP3   OH210001   4.567   5.349   2.995  0.0829  0.3145  0.1409
 3346TIP3    H110002   4.510   5.337   3.071 -1.2971 -0.7102 -1.0009
 3346TIP3    H210003   4.556   5.441   2.971  0.6544  0.6892  1.2487
 3347TIP3   OH210004   1.819   0.532   3.936 -0.2305 -0.4500  0.0695
 3347TIP3    H110005   1.862   0.528   3.851 -0.5861  1.0994 -0.2080
 3347TIP3    H210006   1.891   0.526   3.999  0.1104 -0.7986 -0.3428
 3348TIP3   OH210007   4.839   2.204   0.628  0.2607 -0.3529  0.2731
 3348TIP3    H110008   4.749   2.182   0.649  0.9246 -2.4688  1.1546
 3348TIP3    H210009   4.869   2.134   0.571  1.1788  0.6491 -0.5259
 3349TIP3   OH210010   4.551   4.777   1.124  0.2821  0.2491 -0.0677
 3349TIP3    H110011   4.618   4.710   1.106 -0.3943 -0.7436  0.9544
 3349TIP3    H210012   4.601   4.856   1.142  1.2203 -0.5086  0.8462
 3350TIP3   OH210013   2.275   5.448   5.199  0.3011  0.4468  0.0450
 3350TIP3    H110014   2.335   5.402   5.257 -1.3206 -1.5235  0.2935
 3350TIP3    H210015   2.253   5.384   5.131 -1.2847  1.1558 -0.1699
 3351TIP3   OH210016   6.386   3.493   2.794 -0.3833  0.0279 -0.3650
 3351TIP3    H110017   6.415   3.572   2.840  0.9980 -1.1052  0.8606
 3351TIP3    H210018   6.430   3.497   2.709  0.0514  0.3657 -0.1292
 3352TIP3   OH210019   5.007   4.644   4.007 -0.4868  0.6962  0.0398
 3352TIP3    H110020   4.958   4.619   3.928 -1.1725  0.8100  0.4202
 3352TIP3    H210021   4.957   4.606   4.079  0.2189  0.4717  0.4185
 3353TIP3   OH210022   4.703   6.525   0.154 -0.4195  0.0343 -0.6750
 3353TIP3    H110023   4.624   6.513   0.207  0.6375 -1.2035  0.7214
 3353TIP3    H210024   4.672   6.526   0.064 -1.9064 -1.6416 -0.2356
 3354TIP3   OH210025   6.709   4.301   1.364  0.1775 -0.5697 -0.5232
 3354TIP3    H110026   6.758   4.378   1.336 -0.5644  0.8084  1.7548
 3354TIP3    H210027   6.771   4.228   1.354  1.8314  0.7349 -0.1358
 3355TIP3   OH210028   3.675   5.979   2.379  0.3464 -0.4698  0.3068
 3355TIP3    H110029   3.745   5.999   2.316  0.8890 -0.5463  0.8839
 3355TIP3    H210030   3.712   6.001   2.464  0.6704 -3.0351  0.9166
 3356TIP3   OH210031   4.053   0.211   1.475 -0.0517  0.4904  0.0215
 3356TIP3    H110032   4.011   0.264   1.406 -1.4481  0.7756  1.0395
 3356TIP3    H210033   4.066   0.126   1.435 -0.4502  0.7747 -0.7392
 3357TIP3   OH210034   6.161   2.075  -0.022  0.0446 -0.1491 -0.0775
 3357TIP3    H110035   6.256   2.069  -0.006 -0.0253  2.3656  1.9890
 3357TIP3    H210036   6.122   2.068   0.065 -1.4630  1.2317 -0.5868
 3358TIP3   OH210037   5.861   5.319   4.125 -0.0777 -0.3294 -0.0997
 3358TIP3    H110038   5.923   5.326   4.053 -0.0600 -1.4133 -0.2169
 3358TIP3    H210039   5.782   5.282   4.085 -0.6001  0.4730  0.1627
 3359TIP3   OH210040   2.940   2.726   0.387  0.4155  0.5730  0.0536
 3359TIP3    H110041   2.980   2.646   0.422  1.7411  0.6039 -1.2818
 3359TIP3    H210042   2.948   2.790   0.458  0.7042 -0.0657  0.6074
 3360TIP3   OH210043   2.193   4.412   3.592 -0.1117 -0.1838  0.2083
 3360TIP3    H110044   2.204   4.496   3.547 -1.3454 -0.9357 -1.6156
 3360TIP3    H210045   2.275   4.365   3.574  0.1891  0.2553  0.4126
 3361TIP3   OH210046   0.607   3.698   4.731 -0.5843 -0.4898 -0.0029
 3361TIP3    H110047   0.659   3.621   4.754  1.0084  0.6045  0.2679
 3361TIP3    H210048   0.528   3.663   4.690 -1.9077 -2.4240  3.7758
 3362TIP3   OH210049   5.702   2.384   5.217 -0.3974  0.6324  0.3336
 3362TIP3    H110050   5.616   2.420   5.240 -0.4175  1.7120 -1.2348
 3362TIP3    H210051   5.741   2.451   5.161  2.1445  0.8658  2.2553
 3363TIP3   OH210052   0.822   2.777   0.412 -0.3214 -0.6523 -0.1596
 3363TIP3    H110053   0.915   2.801   0.415 -0.4696  0.0584 -0.8904
 3363TIP3    H210054   0.816   2.700   0.468  0.2064  0.9072  2.2085
 3364TIP3   OH210055   5.162   4.830   5.220 -0.3181  0.0514  0.0077
 3364TIP3    H110056   5.208   4.762   5.269 -0.3816 -0.1287 -0.1807
 3364TIP3    H210057   5.230   4.895   5.200  0.1104 -0.7610 -1.2520
 3365TIP3   OH210058   2.482   2.957   1.072  0.3684 -0.2773 -0.2076
 3365TIP3    H110059   2.492   2.994   0.984 -4.4073 -0.6614 -1.1447
 3365TIP3    H210060   2.510   2.866   1.063  0.4462 -0.1737 -1.1599
 3366TIP3   OH210061   5.488   3.254   0.746 -0.4006  0.5940  0.1673
 3366TIP3    H110062   5.565   3.223   0.697 -0.4297  1.1765 -0.2606
 3366TIP3    H210063   5.489   3.349   0.733 -1.6043  0.5307 -0.4420
 3367TIP3   OH210064   2.464   0.306   3.573 -0.0008  0.3954  0.6509
 3367TIP3    H110065   2.371   0.299   3.551 -0.4201 -1.3094  2.6845
 3367TIP3    H210066   2.509   0.262   3.501 -0.3970  3.9062 -2.0006
 3368TIP3   OH210067   1.026   6.155   0.494 -0.1427  0.3438 -0.2708
 3368TIP3    H110068   1.081   6.152   0.573  0.6326  0.2635 -0.8048
 3368TIP3    H210069   1.004   6.248   0.484 -1.5192  0.1772  0.8864
 3369TIP3   OH210070   3.879   3.195   1.936  0.2437 -0.0039 -0.1254
 3369TIP3    H110071   3.883   3.237   1.851 -0.0838 -0.8582 -0.5764
 3369TIP3    H210072   3.787   3.172   1.948  0.4972 -1.1126 -0.1724
 3370TIP3   OH210073   3.969   2.683   1.787  0.2490 -0.0092  0.5151
 3370TIP3    H110074   4.007   2.728   1.712 -1.1984 -0.0540 -0.2839
 3370TIP3    H210075   3.986   2.740   1.862 -1.6458  1.9935 -0.4860
 3371TIP3   OH210076   6.351   3.366   1.188  0.3744 -0.6908  0.1256
 3371TIP3    H110077   6.261   3.368   1.219  0.0271  0.2354 -0.8766
 3371TIP3    H210078   6.373   3.457   1.172  1.1711 -0.9842 -0.5261
 3372TIP3   OH210079   6.605   5.507   3.899 -0.3483 -0.7826  0.3179
 3372TIP3    H110080   6.610   5.532   3.991 -0.9231 -0.1179  0.1743
 3372TIP3    H210081   6.552   5.575   3.858  0.4614 -0.7159 -0.6387
 3373TIP3   OH210082   6.415   5.103   2.807 -0.3325  0.1768 -0.0355
 3373TIP3    H110083   6.402   5.068   2.895 -1.3506 -1.3447 -0.7415
 3373TIP3    H210084   6.469   5.181   2.820  2.7292 -1.9596  1.6406
 3374TIP3   OH210085   6.273   3.464   3.565 -0.1728  0.4895 -0.2862
 3374TIP3    H110086   6.285   3.533   3.500  0.9031  0.5811 -0.0129
 3374TIP3    H210087   6.247   3.510   3.645  0.2718  0.5522 -0.1774
 3375TIP3   OH210088   6.873   3.745   2.982  0.2843  0.2650  0.8015
 3375TIP3    H110089   6.939   3.806   3.015 -0.0738  0.9106  0.3354
 3375TIP3    H210090   6.790   3.780   3.012 -0.0053  0.5577 -0.2808
 3376TIP3   OH210091   2.319   0.272   1.080  0.0190 -0.1746 -0.2808
 3376TIP3    H110092   2.281   0.266   1.167 -1.4328 -0.7639 -0.9075
 3376TIP3    H210093   2.389   0.208   1.079  0.9880  0.8261  0.8729
 3377TIP3   OH210094   3.575   5.700   3.787  0.5588  0.2989 -0.4229
 3377TIP3    H110095   3.630   5.742   3.853  1.5521 -0.9037 -0.4527
 3377TIP3    H210096   3.581   5.606   3.807  0.6374 -0.0659 -2.0395
 3378TIP3   OH210097   5.594   3.976   5.375 -0.1790 -0.5772  0.2610
 3378TIP3    H110098   5.517   4.021   5.411 -0.1851  0.2633 -0.7567
 3378TIP3    H210099   5.642   3.947   5.452 -0.9755 -0.1845  0.9293
 3379TIP3   OH210100   5.174   1.185   4.821  0.3412  0.0016  0.6303
 3379TIP3    H110101   5.247   1.237   4.787  0.9345 -0.8363  0.6090
 3379TIP3    H210102   5.096   1.231   4.789  0.7680  2.2001  2.5464
 3380TIP3   OH210103   2.706   5.685   0.430  0.2047 -0.0437  0.8068
 3380TIP3    H110104   2.773   5.713   0.368  0.6698 -0.7176  0.9913
 3380TIP3    H210105   2.740   5.604   0.468 -0.3681  0.0081  1.4674
 3381TIP3   OH210106   1.299   1.271   5.531  0.3001 -0.5839 -0.2483
 3381TIP3    H110107   1.305   1.190   5.581  0.9547 -1.0679 -1.0852
 3381TIP3    H210108   1.213   1.268   5.489 -0.4404  0.0293  1.1457
 3382TIP3   OH210109   3.824   1.281   2.417 -0.6451 -0.8497  0.9446
 3382TIP3    H110110   3.852   1.367   2.447 -0.4399  0.4222 -2.4672
 3382TIP3    H210111   3.729   1.287   2.411 -0.6865 -1.1023  1.3166
 3383TIP3   OH210112  -0.018   0.053   2.043  0.0758  0.4662  0.0449
 3383TIP3    H110113   0.078   0.049   2.044  0.1359  1.6216  1.1897
 3383TIP3    H210114  -0.043   0.048   2.135 -0.8154  2.3191 -0.0468
 3384TIP3   OH210115   5.214   4.838   3.576  0.2786  0.1393  0.2008
 3384TIP3    H110116   5.174   4.787   3.505 -0.9864  1.5247 -0.1239
 3384TIP3    H210117   5.233   4.773   3.644 -2.1508 -0.7016  0.1875
 3385TIP3   OH210118   1.988   1.419   5.423  0.1777  0.1391  0.6688
 3385TIP3    H110119   2.024   1.485   5.363  1.1915 -1.6988 -0.8579
 3385TIP3    H210120   2.045   1.422   5.500  1.1835  0.0024 -0.0483
 3386TIP3   OH210121   3.168   5.609   0.694  0.2322 -0.2236  0.4210
 3386TIP3    H110122   3.261   5.615   0.674  0.2163 -1.4487 -0.1172
 3386TIP3    H210123   3.142   5.522   0.663 -1.2306  0.3366 -0.0337
 3387TIP3   OH210124   0.749   3.488   4.094 -0.4470  0.5359 -0.0343
 3387TIP3    H110125   0.795   3.541   4.030 -0.4711 -0.3246 -0.7851
 3387TIP3    H210126   0.818   3.450   4.148 -0.1017 -1.6944 -1.8843
 3388TIP3   OH210127   2.467   4.467   3.242  0.2309  0.2426 -0.2712
 3388TIP3    H110128   2.421   4.387   3.265  1.1980 -0.3567 -0.4033
 3388TIP3    H210129   2.557   4.440   3.223 -0.3127  0.6233 -4.5452
 3389TIP3   OH210130   1.109   6.525   2.931 -0.4639 -0.4110  0.4082
 3389TIP3    H110131   1.124   6.597   2.870 -2.7297  2.1309  2.5883
 3389TIP3    H210132   1.196   6.486   2.943  0.6074  0.9800 -1.9576
 3390TIP3   OH210133   4.847   6.144   3.218  0.1778 -0.5403 -0.5115
 3390TIP3    H110134   4.802   6.060   3.223 -0.2359 -0.2400  2.7787
 3390TIP3    H210135   4.792   6.204   3.268  0.6366  1.6751 -2.4713
 3391TIP3   OH210136   4.146   1.053   4.347 -0.0450  0.3989  0.2959
 3391TIP3    H110137   4.202   1.010   4.410  0.3899 -0.5244 -0.6867
 3391TIP3    H210138   4.186   1.139   4.333 -1.0104  1.2472  2.3903
 3392TIP3   OH210139   3.494   6.560   3.409 -0.1010 -0.2220  0.1401
 3392TIP3    H110140   3.511   6.466   3.417 -0.6619 -0.2661  0.9476
 3392TIP3    H210141   3.441   6.568   3.330 -1.1563 -0.7495  0.7725
 3393TIP3   OH210142   4.128   1.301   5.756  0.4961 -0.0469 -0.0514
 3393TIP3    H110143   4.222   1.291   5.742  0.5164  0.7769 -0.5275
 3393TIP3    H210144   4.117   1.391   5.787 -0.2579  0.2696 -1.1873
 3394TIP3   OH210145   2.782   2.384   3.436 -0.2034 -0.2092  0.8362
 3394TIP3    H110146   2.704   2.361   3.386 -0.2147 -1.7605  1.4950
 3394TIP3    H210147   2.783   2.480   3.437 -1.9763 -0.1556  0.6311
 3395TIP3   OH210148   2.353   1.197   5.501 -0.1135 -0.6367  0.0439
 3395TIP3    H110149   2.429   1.255   5.507 -0.6165  0.1029 -0.5423
 3395TIP3    H210150   2.328   1.199   5.409  0.2771 -2.3517 -0.1170
 3396TIP3   OH210151   4.233   3.120   3.375  0.4683  0.1366  0.2741
 3396TIP3    H110152   4.313   3.156   3.413  0.9537 -0.4564 -0.1624
 3396TIP3    H210153   4.248   3.123   3.281 -1.6306  3.7500 -0.1039
 3397TIP3   OH210154   3.781   5.204   5.393  0.4539 -0.0525 -0.1426
 3397TIP3    H110155   3.723   5.175   5.463  0.9416  0.9147  0.6971
 3397TIP3    H210156   3.831   5.126   5.368  0.7566 -0.2587  1.0763
 3398TIP3   OH210157   1.830   1.766   2.666 -0.5506  0.0905 -0.5729
 3398TIP3    H110158   1.748   1.795   2.628  0.1590  1.5238 -1.1071
 3398TIP3    H210159   1.822   1.786   2.759 -0.5506  0.8787 -0.7374
 3399TIP3   OH210160   3.163   1.416   3.385 -0.4828  0.1163 -0.1452
 3399TIP3    H110161   3.081   1.415   3.435  1.3217  0.1368  3.0637
 3399TIP3    H210162   3.173   1.507   3.356 -0.2806  0.7673  1.8691
 3400TIP3   OH210163   4.443   3.473   0.722 -0.4332  0.3719 -0.1995
 3400TIP3    H110164   4.442   3.446   0.814 -0.8063 -1.9155 -0.7988
 3400TIP3    H210165   4.535   3.491   0.703 -0.1662 -0.3422  0.3334
 3401TIP3   OH210166   6.863   2.553   4.620  0.1781 -0.3184 -0.5592
 3401TIP3    H110167   6.897   2.544   4.531  2.1616  1.0189  0.0113
 3401TIP3    H210168   6.865   2.647   4.638 -0.3047 -0.5488  0.8696
 3402TIP3   OH210169   2.455   2.745   5.410  0.4209 -0.1092 -0.0623
 3402TIP3    H110170   2.444   2.825   5.359  1.7527  0.4869  0.5379
 3402TIP3    H210171   2.504   2.686   5.352  0.5122 -0.0322 -0.0640
 3403TIP3   OH210172   4.582   6.614   0.612  0.9023 -0.1713 -0.6749
 3403TIP3    H110173   4.655   6.674   0.597  0.1855  0.7434 -0.5822
 3403TIP3    H210174   4.534   6.652   0.686  1.0968 -1.4996  0.1695
 3404TIP3   OH210175   4.527   6.534   5.266 -0.2137  0.3074 -0.3708
 3404TIP3    H110176   4.572   6.604   5.219 -0.9205  0.4662 -0.8319
 3404TIP3    H210177   4.589   6.507   5.334  0.8265  0.0819 -1.3725
 3405TIP3   OH210178   5.069   4.545   1.689  0.4317  0.5710  0.1077
 3405TIP3    H110179   5.002   4.594   1.738  0.8493 -0.9986  2.4147
 3405TIP3    H210180   5.019   4.483   1.636 -0.0094  0.1965  0.9352
 3406TIP3   OH210181   6.563   1.070   4.677  0.1529 -0.4617 -0.0749
 3406TIP3    H110182   6.532   1.071   4.768 -1.1442  0.2841 -0.4962
 3406TIP3    H210183   6.612   0.989   4.669  0.9803 -0.1469  1.5184
 3407TIP3   OH210184   1.291   1.585   3.580 -0.1523  0.4517  0.0913
 3407TIP3    H110185   1.286   1.518   3.648 -1.0401 -0.0225 -0.4225
 3407TIP3    H210186   1.346   1.545   3.512 -1.4529 -0.1739 -0.6375
 3408TIP3   OH210187   6.767   4.326   1.036 -0.1791  0.0480  0.0059
 3408TIP3    H110188   6.684   4.283   1.016  0.0872 -0.5344  0.1421
 3408TIP3    H210189   6.813   4.330   0.952 -0.6714  1.0969 -0.2290
 3409TIP3   OH210190   6.793   5.123   3.126  0.3219  0.5096 -0.4024
 3409TIP3    H110191   6.735   5.067   3.074 -0.0725 -0.0391  0.5834
 3409TIP3    H210192   6.736   5.160   3.193  0.5778  2.1502 -1.0447
 3410TIP3   OH210193   6.347   1.021   3.938 -0.3387  0.2291  0.2555
 3410TIP3    H110194   6.331   1.014   4.032 -0.4109  2.0636  0.4098
 3410TIP3    H210195   6.392   1.104   3.927 -0.8109  0.3084 -1.4032
 3411TIP3   OH210196   2.125   0.124   0.479 -0.2975 -0.1754 -0.0886
 3411TIP3    H110197   2.114   0.212   0.442  0.2866 -1.2007 -2.9552
 3411TIP3    H210198   2.043   0.079   0.460 -0.0060 -0.7174 -0.0723
 3412TIP3   OH210199   2.969   0.340   0.005 -0.0917 -0.8395 -0.1740
 3412TIP3    H110200   2.896   0.402   0.004 -0.8995 -1.6095  2.4431
 3412TIP3    H210201   3.045   0.393   0.029 -0.6988 -0.6988  1.6399
 3413TIP3   OH210202   0.019   4.319   2.421 -0.0410 -0.3574 -0.1228
 3413TIP3    H110203   0.089   4.262   2.452  1.1180  1.1817  0.2592
 3413TIP3    H210204  -0.016   4.276   2.344  1.1938 -1.2771 -0.1956
 3414TIP3   OH210205   6.467   2.846   1.242  0.1354  0.4684  0.6571
 3414TIP3    H110206   6.420   2.927   1.261  1.2053  1.4161 -0.6066
 3414TIP3    H210207   6.544   2.849   1.299 -0.2130 -0.0571  1.1728
 3415TIP3   OH210208   3.199   4.672   1.116 -0.5250 -0.1805 -0.4763
 3415TIP3    H110209   3.262   4.701   1.050 -0.0854  0.8701  0.3751
 3415TIP3    H210210   3.240   4.694   1.199 -1.3278 -0.9563  0.1343
 3416TIP3   OH210211   3.781   6.187   3.980 -1.3528  0.2586 -0.4702
 3416TIP3    H110212   3.712   6.162   3.919 -1.5989  1.7101 -0.8424
 3416TIP3    H210213   3.734   6.206   4.062 -1.5566  2.0410 -0.9512
 3417TIP3   OH210214   0.556   6.320   3.201  0.3023  0.2075 -0.2091
 3417TIP3    H110215   0.568   6.415   3.196 -2.4466  0.7314  1.2654
 3417TIP3    H210216   0.486   6.300   3.140 -1.4913 -0.2707  1.8772
 3418TIP3   OH210217   4.122   3.059   1.902  0.4445  0.0074 -0.2755
 3418TIP3    H110218   4.091   2.970   1.921  0.3901  0.0633 -0.1001
 3418TIP3    H210219   4.043   3.109   1.886  0.4660  0.0613 -0.2149
 3419TIP3   OH210220   6.040   4.529   1.529 -0.5124 -0.0039  0.3570
 3419TIP3    H110221   5.986   4.608   1.524 -0.9673 -0.3090  0.4371
 3419TIP3    H210222   6.104   4.539   1.459 -0.6710  0.3603  0.2617
 3420TIP3   OH210223   6.087   5.234   4.290 -0.1222  0.4870 -0.6198
 3420TIP3    H110224   6.140   5.268   4.218 -1.2320  0.1332 -1.6383
 3420TIP3    H210225   6.004   5.281   4.283  0.1238  1.2342  1.1157
 3421TIP3   OH210226   5.154   5.918   3.035 -0.2482  0.1449  0.0273
 3421TIP3    H110227   5.076   5.939   2.984  0.2263 -0.5056 -1.0016
 3421TIP3    H210228   5.151   5.977   3.110 -0.6244  1.6234 -1.1078
 3422TIP3   OH210229   2.382   6.473   4.921  0.0843  0.2296  0.2603
 3422TIP3    H110230   2.326   6.549   4.937  0.2938  0.3000  0.6555
 3422TIP3    H210231   2.421   6.453   5.006 -2.1518 -2.0868  0.8412
 3423TIP3   OH210232   5.544   1.306   4.858  0.0554 -0.0529 -0.3401
 3423TIP3    H110233   5.582   1.393   4.868 -1.6242  0.4899  2.6734
 3423TIP3    H210234   5.491   1.312   4.779 -1.5974  2.4199  0.8056
 3424TIP3   OH210235   2.927   0.350   2.910 -0.2167 -0.4963 -0.3548
 3424TIP3    H110236   2.901   0.260   2.890 -2.1462 -0.2693  0.8349
 3424TIP3    H210237   2.909   0.398   2.829 -0.3365 -0.9625 -0.6104
 3425TIP3   OH210238   0.984   0.230   3.824  0.2895 -0.0831  0.4422
 3425TIP3    H110239   1.020   0.298   3.767 -0.4025 -0.9478 -1.0928
 3425TIP3    H210240   0.914   0.273   3.872 -0.3137  0.2571 -0.6994
 3426TIP3   OH210241   1.778   1.145   4.084  0.1280 -0.0203  0.0725
 3426TIP3    H110242   1.803   1.199   4.009  0.9969 -0.3626  0.0977
 3426TIP3    H210243   1.710   1.087   4.051  0.7140 -0.3717 -0.5416
 3427TIP3   OH210244   3.808   0.539   4.328  0.4262  0.4184  0.1816
 3427TIP3    H110245   3.805   0.550   4.423 -3.5196 -0.4432  0.3154
 3427TIP3    H210246   3.792   0.626   4.293 -0.7960  0.3126  0.4312
 3428TIP3   OH210247   2.794   6.256   5.127 -0.0908  0.0142  0.4271
 3428TIP3    H110248   2.781   6.185   5.190  1.1289 -0.5340  0.0970
 3428TIP3    H210249   2.875   6.233   5.082 -0.4668  0.8646 -0.7245
 3429TIP3   OH210250   4.062   6.048   2.792 -0.0128 -0.7981  0.1708
 3429TIP3    H110251   4.016   6.131   2.797  0.4927 -0.5564  1.1994
 3429TIP3    H210252   4.055   6.011   2.881  0.0676 -1.6855 -0.1810
 3430TIP3   OH210253   1.794   6.549   0.890 -0.1382  0.1376 -0.3750
 3430TIP3    H110254   1.755   6.479   0.838  1.0612 -0.0351 -1.0737
 3430TIP3    H210255   1.820   6.615   0.827 -1.1578  1.1954  0.2715
 3431TIP3   OH210256   5.242   4.177   3.868  0.1473 -0.3260  0.6405
 3431TIP3    H110257   5.315   4.231   3.837  0.1927 -0.1014  1.1378
 3431TIP3    H210258   5.235   4.107   3.803  0.4214 -0.0126  0.2715
 3432TIP3   OH210259   5.319   5.553   5.113  0.8261  0.3833  0.3069
 3432TIP3    H110260   5.379   5.514   5.177  1.9128  0.6081 -0.5380
 3432TIP3    H210261   5.376   5.600   5.052 -0.1808  0.2923 -0.7537
 3433TIP3   OH210262   4.200   6.476   4.458 -0.1592 -0.3805 -0.3533
 3433TIP3    H110263   4.225   6.403   4.402 -0.2886 -1.6081  1.1096
 3433TIP3    H210264   4.282   6.522   4.474 -0.4794  1.6126 -3.5915
 3434TIP3   OH210265   2.747   1.979   0.343 -0.4705 -0.3676 -0.0369
 3434TIP3    H110266   2.692   1.914   0.387 -0.8272 -0.0881 -0.0633
 3434TIP3    H210267   2.728   1.968   0.250 -2.6344  1.5862  0.0791
 3435TIP3   OH210268   2.685   5.255   2.521  0.3581  0.2765  0.5405
 3435TIP3    H110269   2.745   5.243   2.447  1.1918  1.6169  0.9594
 3435TIP3    H210270   2.607   5.204   2.497  1.2540 -0.6702 -0.4870
 3436TIP3   OH210271   6.064   1.344   5.652 -0.8111  0.3100  0.0536
 3436TIP3    H110272   6.098   1.422   5.697 -0.8352  0.1074  0.4203
 3436TIP3    H210273   6.085   1.271   5.710 -0.7070  0.0257 -0.3328
 3437TIP3   OH210274   2.011   4.458   4.569  0.1996  0.2391  0.0126
 3437TIP3    H110275   1.923   4.434   4.597 -0.5122  1.4064 -1.1203
 3437TIP3    H210276   2.015   4.431   4.477  1.7436 -1.5979  0.5585
 3438TIP3   OH210277   5.491   1.728   2.937 -0.1430  0.4090  0.4256
 3438TIP3    H110278   5.491   1.729   2.841  0.4363  1.8051  0.4112
 3438TIP3    H210279   5.437   1.653   2.960 -0.9616  0.5182 -0.9939
 3439TIP3   OH210280   1.346   4.117   3.946 -0.0649  0.4512  0.0006
 3439TIP3    H110281   1.260   4.087   3.977  0.5758  0.3274  1.8143
 3439TIP3    H210282   1.326   4.181   3.878 -1.5627 -0.3553 -0.3661
 3440TIP3   OH210283   4.546   1.912   4.347  0.3145  0.9678 -0.2710
 3440TIP3    H110284   4.466   1.955   4.315  0.6959  0.1679 -2.4900
 3440TIP3    H210285   4.571   1.854   4.275  2.0304  0.0344  1.0352
 3441TIP3   OH210286   5.085   3.332   4.448 -0.8006 -0.0319 -0.7760
 3441TIP3    H110287   5.146   3.309   4.518  1.2258  2.1855 -1.6853
 3441TIP3    H210288   5.096   3.263   4.383 -0.9059 -0.7910 -0.0118
 3442TIP3   OH210289   3.579   3.765   0.823  0.5439 -0.5967 -0.5283
 3442TIP3    H110290   3.659   3.811   0.799  0.4002  0.5912  1.1145
 3442TIP3    H210291   3.600   3.672   0.809  1.1908 -0.1557 -2.8696
 3443TIP3   OH210292   4.947   4.294   5.714 -0.3816 -0.2611 -0.2270
 3443TIP3    H110293   4.866   4.249   5.689 -0.7814  1.5547 -2.5220
 3443TIP3    H210294   4.930   4.387   5.695  1.4193  0.5106  1.5412
 3444TIP3   OH210295   4.260   2.391   1.815  0.1807 -0.0382  0.4752
 3444TIP3    H110296   4.232   2.427   1.730 -1.2621 -2.8473 -0.3529
 3444TIP3    H210297   4.180   2.386   1.866  0.1716 -2.4501  0.3352
 3445TIP3   OH210298   2.418   6.053   0.357  0.5449  0.4351 -0.6098
 3445TIP3    H110299   2.359   6.125   0.338  0.6563  0.5420 -0.5472
 3445TIP3    H210300   2.359   5.979   0.376  0.3557  1.1242  1.8668
 3446TIP3   OH210301   6.050   2.502   3.814  0.1077 -0.2603 -0.5473
 3446TIP3    H110302   5.971   2.505   3.759 -0.4859 -0.8285  0.2451
 3446TIP3    H210303   6.112   2.560   3.770 -0.9309  0.6106 -0.9083
 3447TIP3   OH210304   6.986   0.146   5.838 -0.2703  0.9046  0.0031
 3447TIP3    H110305   7.035   0.089   5.779 -1.0449 -0.1608  0.3760
 3447TIP3    H210306   7.034   0.229   5.835  0.6083  0.3900 -0.8980
 3448TIP3   OH210307   6.611   2.358   0.858  0.3428  0.1984 -0.2824
 3448TIP3    H110308   6.591   2.362   0.765 -2.0716 -1.0809  0.1097
 3448TIP3    H210309   6.526   2.354   0.901  1.4037  0.0303  1.9511
 3449TIP3   OH210310   5.760   4.642   2.039 -0.0439 -0.5920 -0.7647
 3449TIP3    H110311   5.676   4.636   2.086  0.2119  2.6092  0.2964
 3449TIP3    H210312   5.802   4.557   2.056 -1.2588 -0.7245  2.3054
 3450TIP3   OH210313   5.877   0.730   5.419  0.2415 -0.0303 -0.1752
 3450TIP3    H110314   5.920   0.663   5.473 -0.1140 -0.6631 -0.6618
 3450TIP3    H210315   5.937   0.805   5.421  0.2228 -0.0366  1.1063
 3451TIP3   OH210316   4.959   4.760   5.764 -0.1382 -0.3086 -0.6597
 3451TIP3    H110317   5.001   4.674   5.760  0.0945 -0.2862  0.9255
 3451TIP3    H210318   4.870   4.744   5.730  0.0002 -1.1131 -0.6644
 3452TIP3   OH210319   3.788   2.776   2.965 -0.6697 -0.2776  0.1380
 3452TIP3    H110320   3.721   2.809   3.026  0.7448  0.8212  1.1653
 3452TIP3    H210321   3.867   2.826   2.987  0.1748 -0.6396 -1.8891
 3453TIP3   OH210322   5.951   4.794   0.766  0.2103 -0.1753 -0.0824
 3453TIP3    H110323   5.903   4.793   0.683  0.9714  0.3120 -0.5366
 3453TIP3    H210324   5.923   4.714   0.811 -0.2648 -0.4011 -0.7723
 3454TIP3   OH210325   2.172   4.110   1.110 -0.0530  0.4040 -0.5749
 3454TIP3    H110326   2.242   4.131   1.048 -0.7304 -0.2667 -1.6040
 3454TIP3    H210327   2.170   4.184   1.170 -0.2337  1.7059 -2.1282
 3455TIP3   OH210328   1.001   3.682   2.101 -0.0443 -1.0773 -0.1222
 3455TIP3    H110329   1.074   3.718   2.150 -0.7878 -1.6008  1.4360
 3455TIP3    H210330   1.011   3.718   2.013  0.4489  1.2085  0.7925
 3456TIP3   OH210331   4.450   5.319   0.194 -0.2415 -0.5526 -0.6350
 3456TIP3    H110332   4.421   5.361   0.113 -0.9993 -2.6100 -1.4903
 3456TIP3    H210333   4.512   5.381   0.232  0.2701  0.4151 -2.8753
 3457TIP3   OH210334   5.637   3.021   0.622  0.3833 -0.0137  0.1768
 3457TIP3    H110335   5.722   3.013   0.667  1.1837  1.3077 -1.0226
 3457TIP3    H210336   5.653   3.085   0.552 -1.3134 -0.6036 -0.7993
 3458TIP3   OH210337   3.049   0.510   0.965  0.2977 -0.1077  0.5294
 3458TIP3    H110338   3.137   0.541   0.945  0.2153 -0.4213 -0.3656
 3458TIP3    H210339   2.995   0.589   0.963  0.0603 -0.2695 -1.8826
 3459TIP3   OH210340   5.614   4.416   0.446 -0.1932 -0.2043  0.2523
 3459TIP3    H110341   5.683   4.440   0.508 -0.4555 -0.1912  0.5391
 3459TIP3    H210342   5.630   4.323   0.428 -0.7235 -0.4793  1.1304
 3460TIP3   OH210343   3.972   2.363   5.752 -0.3371 -0.3934  0.6145
 3460TIP3    H110344   3.983   2.451   5.714 -1.8416 -0.6537 -0.5431
 3460TIP3    H210345   3.881   2.362   5.783 -1.7333 -2.7489 -2.9678
 3461TIP3   OH210346   0.703   2.794   3.348 -0.5554  0.0804 -0.1043
 3461TIP3    H110347   0.632   2.826   3.404 -1.7754 -1.0535 -0.9369
 3461TIP3    H210348   0.751   2.733   3.403 -0.6081  0.3719  0.2695
 3462TIP3   OH210349   1.351   3.928   1.193 -0.3462 -0.7603  0.1351
 3462TIP3    H110350   1.351   4.022   1.213 -0.9919 -0.6716 -0.2468
 3462TIP3    H210351   1.330   3.886   1.276  1.2300 -0.6543  0.6205
 3463TIP3   OH210352   4.732   1.432   3.905  0.0044 -0.2214 -0.1717
 3463TIP3    H110353   4.774   1.397   3.983 -1.6721  0.9279  1.3123
 3463TIP3    H210354   4.644   1.455   3.933 -0.3818  1.0267 -2.1883
 3464TIP3   OH210355   4.504   1.562   3.025 -0.0380 -0.0768 -0.6650
 3464TIP3    H110356   4.579   1.546   2.969  0.6583 -0.5938  0.3727
 3464TIP3    H210357   4.540   1.605   3.103 -0.8884  0.1450 -0.3760
 3465TIP3   OH210358   6.058   6.216   1.215 -0.4348  0.1018  0.2015
 3465TIP3    H110359   6.148   6.225   1.247  0.6631 -0.9160 -2.3145
 3465TIP3    H210360   6.025   6.136   1.256 -1.7727  2.4124  4.2224
 3466TIP3   OH210361   1.492   1.170   1.030 -0.0785  0.2468  0.4217
 3466TIP3    H110362   1.413   1.223   1.023  0.9199  1.8509  0.7207
 3466TIP3    H210363   1.512   1.168   1.124 -0.4437 -1.2167  0.4870
 3467TIP3   OH210364   2.172   6.390   1.369 -0.4833  0.1864  0.0570
 3467TIP3    H110365   2.212   6.395   1.282  1.5503 -1.4990  0.8132
 3467TIP3    H210366   2.180   6.479   1.403  3.1244 -0.0860  0.2779
 3468TIP3   OH210367   0.560   0.775   0.345 -0.3990 -0.2387 -1.0074
 3468TIP3    H110368   0.553   0.847   0.283  1.1509  1.0169  0.1720
 3468TIP3    H210369   0.624   0.715   0.307 -0.1417  0.0639 -1.0529
 3469TIP3   OH210370   7.095   5.284   0.278 -0.4086  0.3168  0.4571
 3469TIP3    H110371   7.105   5.266   0.184 -0.6952  1.8052  0.1258
 3469TIP3    H210372   7.027   5.222   0.307  0.6947 -1.1611  0.0269
 3470TIP3   OH210373   5.714   1.220   2.600  0.3298  0.2343 -0.4636
 3470TIP3    H110374   5.780   1.274   2.643  2.0646 -1.2883 -1.0938
 3470TIP3    H210375   5.708   1.141   2.654 -0.5107  0.0918 -0.7540
 3471TIP3   OH210376   2.301   5.175   0.989  0.1660  0.5798 -0.5955
 3471TIP3    H110377   2.206   5.190   0.985 -0.1385 -0.8697  0.4452
 3471TIP3    H210378   2.335   5.251   1.036 -0.8519 -0.0709  1.3050
 3472TIP3   OH210379   2.930   0.763   5.766 -0.8969  0.3764 -0.0527
 3472TIP3    H110380   2.978   0.743   5.686  0.3987  4.5972 -0.5443
 3472TIP3    H210381   2.993   0.751   5.836 -0.0140  2.7039 -0.3777
 3473TIP3   OH210382   2.877   6.767   1.111 -0.2413 -0.2187 -1.0625
 3473TIP3    H110383   2.860   6.741   1.020  2.5248  2.3575 -2.4834
 3473TIP3    H210384   2.790   6.780   1.148 -1.5007  0.7850 -4.0520
 3474TIP3   OH210385   0.860   1.855   4.555  0.0809 -0.1395 -0.4542
 3474TIP3    H110386   0.839   1.765   4.529 -1.4725 -0.2957  1.1561
 3474TIP3    H210387   0.797   1.909   4.507 -1.6873 -0.2928  1.5926
 3475TIP3   OH210388   1.032   4.882   3.046 -0.2283  0.0814 -0.5917
 3475TIP3    H110389   1.012   4.789   3.032  1.5913 -0.6075  0.8916
 3475TIP3    H210390   0.999   4.901   3.134 -0.2877  0.7405 -0.7557
 3476TIP3   OH210391   1.666   4.373   2.862 -0.0684  0.0129  0.3809
 3476TIP3    H110392   1.715   4.347   2.784 -1.6565  0.4879 -0.8230
 3476TIP3    H210393   1.727   4.358   2.935  2.0342  1.0864 -1.0644
 3477TIP3   OH210394   0.925   5.024   1.555  0.3622 -0.2085  0.3347
 3477TIP3    H110395   0.856   4.962   1.530 -0.6888  0.4676  1.4471
 3477TIP3    H210396   0.992   4.969   1.595 -0.3389 -0.7033  0.8601
 3478TIP3   OH210397   2.105   1.116   4.814 -0.5645  0.4001 -0.4074
 3478TIP3    H110398   2.080   1.159   4.896  0.6730  2.0648 -0.8503
 3478TIP3    H210399   2.189   1.154   4.792 -0.4432 -0.6993 -1.9977
 3479TIP3   OH210400   4.409   6.334   4.644  0.2984  0.0875 -0.6129
 3479TIP3    H110401   4.428   6.412   4.592  1.1104  0.8599  0.7700
 3479TIP3    H210402   4.419   6.363   4.735  0.6802 -1.6454 -0.0635
 3480TIP3   OH210403   6.440   4.385   1.318  0.1429 -0.1534 -0.3938
 3480TIP3    H110404   6.396   4.304   1.291  1.2316 -0.8662 -0.1235
 3480TIP3    H210405   6.517   4.355   1.367 -0.9954  1.0469  2.3597
 3481TIP3   OH210406   2.647   2.110   3.164 -0.3167 -0.3452  0.4846
 3481TIP3    H110407   2.729   2.085   3.122 -0.6993 -0.0350 -0.4621
 3481TIP3    H210408   2.580   2.060   3.118 -0.9489  1.3825 -0.5614
 3482TIP3   OH210409   3.738   0.711   1.485  0.4268  0.4742  0.4098
 3482TIP3    H110410   3.777   0.797   1.502  0.3214  0.6352 -0.1595
 3482TIP3    H210411   3.812   0.650   1.489  0.5460  0.6282  0.5350
 3483TIP3   OH210412   0.300   6.257   3.974  0.4615  0.1253 -0.0285
 3483TIP3    H110413   0.393   6.250   3.993  0.4876  0.2327 -0.1154
 3483TIP3    H210414   0.292   6.334   3.917  0.5489 -0.8415 -1.4101
 3484TIP3   OH210415   1.214   6.380   0.208 -0.0542 -0.3117  0.6264
 3484TIP3    H110416   1.179   6.393   0.296 -0.0701  1.9613  0.3455
 3484TIP3    H210417   1.139   6.389   0.150  0.4282  1.3233  0.2198
 3485TIP3   OH210418   5.041   1.831   0.422 -0.0110 -0.5732 -0.0177
 3485TIP3    H110419   5.029   1.763   0.488  1.6380 -1.0917 -0.1985
 3485TIP3    H210420   5.080   1.785   0.348  1.4291  0.5882 -0.0273
 3486TIP3   OH210421   5.116   1.440   2.455 -0.2963 -0.2276  0.3916
 3486TIP3    H110422   5.130   1.485   2.372 -0.8969  0.4398  0.6380
 3486TIP3    H210423   5.040   1.484   2.494 -0.0414 -0.5460  1.2845
 3487TIP3   OH210424   4.927   6.594   4.552  0.4036  0.0479 -0.1501
 3487TIP3    H110425   4.860   6.645   4.506 -0.0347 -0.9965 -0.6968
 3487TIP3    H210426   4.997   6.582   4.488  0.0979 -0.8135 -0.3324
 3488TIP3   OH210427   2.416   0.360   5.576 -0.1313 -0.5739 -0.1626
 3488TIP3    H110428   2.391   0.423   5.643  0.7133 -0.2530 -0.1327
 3488TIP3    H210429   2.352   0.371   5.506  0.4309  0.8392 -0.4795
 3489TIP3   OH210430   0.341   6.266   1.313 -0.5303 -0.0109  0.3091
 3489TIP3    H110431   0.296   6.194   1.357 -1.4774 -0.4832 -1.3307
 3489TIP3    H210432   0.274   6.335   1.306 -1.0880 -0.7040 -2.1084
 3490TIP3   OH210433   5.284   3.707   0.235  0.2542  0.2457 -0.2889
 3490TIP3    H110434   5.273   3.683   0.143  0.8580 -0.4939 -0.1711
 3490TIP3    H210435   5.196   3.701   0.272 -0.2805  2.0406 -1.1564
 3491TIP3   OH210436   0.687   3.569   2.507 -0.7350 -0.3816  0.2925
 3491TIP3    H110437   0.731   3.627   2.445 -0.5603 -2.6824 -1.9496
 3491TIP3    H210438   0.626   3.625   2.554  0.2223  1.7770 -0.8858
 3492TIP3   OH210439   6.351   1.679   0.084  0.3247 -0.0918 -0.0971
 3492TIP3    H110440   6.376   1.590   0.059  0.1327  0.2836 -1.7924
 3492TIP3    H210441   6.430   1.732   0.069  0.1359  0.1896 -0.1147
 3493TIP3   OH210442   5.600   4.285   1.848  0.8236 -0.4948  0.0044
 3493TIP3    H110443   5.653   4.302   1.770 -1.1870 -0.4477 -1.4090
 3493TIP3    H210444   5.644   4.335   1.917  1.1927  1.6394 -1.6668
 3494TIP3   OH210445   1.290   0.963   3.052 -0.1854  0.3065 -0.1695
 3494TIP3    H110446   1.335   0.984   3.134 -1.7640 -1.8933  1.3966
 3494TIP3    H210447   1.234   1.038   3.035  0.9809  1.2763  0.1377
 3495TIP3   OH210448   0.295   1.367   0.885 -0.2073 -0.1453 -0.5691
 3495TIP3    H110449   0.288   1.436   0.819  2.1975 -0.4446 -1.2198
 3495TIP3    H210450   0.356   1.401   0.950 -0.9666 -0.6717  0.4407
 3496TIP3   OH210451   6.123   0.400   0.174  0.2283  0.2191  0.2031
 3496TIP3    H110452   6.157   0.334   0.235 -1.0710 -1.5031 -0.8636
 3496TIP3    H210453   6.030   0.407   0.195  0.0776  0.7164 -0.5803
 3497TIP3   OH210454   1.650   4.752   2.232  0.3682  0.0104 -0.3204
 3497TIP3    H110455   1.609   4.697   2.165  2.3472 -1.6577 -0.2534
 3497TIP3    H210456   1.735   4.775   2.195 -0.3984  3.2240 -0.3792
 3498TIP3   OH210457   4.842   0.987   3.125  0.0980 -0.1046  0.0712
 3498TIP3    H110458   4.817   1.034   3.045 -0.0439 -1.8981 -1.0107
 3498TIP3    H210459   4.761   0.947   3.155 -0.0994  1.5172  1.8633
 3499TIP3   OH210460   3.818   0.265   4.256 -0.9229 -0.6715  0.0888
 3499TIP3    H110461   3.754   0.243   4.324 -0.8581 -0.4346  0.2276
 3499TIP3    H210462   3.840   0.356   4.273 -3.3172  0.4672 -2.1783
 3500TIP3   OH210463   3.869   1.577   5.469 -0.5426  0.2307 -0.0001
 3500TIP3    H110464   3.964   1.561   5.472 -0.1948  2.1440  0.4818
 3500TIP3    H210465   3.837   1.550   5.555 -0.6708 -1.5498 -0.5705
 3501TIP3   OH210466   1.970   6.354   2.126 -0.5837 -0.0860 -0.2936
 3501TIP3    H110467   1.876   6.361   2.143 -0.6132  1.9743 -0.9747
 3501TIP3    H210468   1.976   6.323   2.035 -0.6525  0.6735 -0.5688
 3502TIP3   OH210469   4.159   0.989   0.941 -0.2304 -0.2584  0.0409
 3502TIP3    H110470   4.158   0.948   0.855 -0.4049 -0.4588  0.1361
 3502TIP3    H210471   4.069   0.978   0.974 -0.3092  0.2964  0.0235
 3503TIP3   OH210472   3.792   2.493   3.780 -0.3323  0.1354  0.1492
 3503TIP3    H110473   3.735   2.512   3.855 -0.5843 -1.5938  0.4349
 3503TIP3    H210474   3.863   2.440   3.818  1.1630  1.6944 -0.3179
 3504TIP3   OH210475   3.128   0.887   3.222  0.1924 -0.4576 -0.4429
 3504TIP3    H110476   3.129   0.983   3.222  0.1144 -0.4519 -0.9420
 3504TIP3    H210477   3.178   0.863   3.144  3.4483 -0.9107  1.5930
 3505TIP3   OH210478   5.297   5.096   5.100  0.0006  0.4110  0.6339
 3505TIP3    H110479   5.245   5.153   5.045  0.8467  0.3518 -0.2493
 3505TIP3    H210480   5.345   5.040   5.039 -1.3217 -1.7580  1.4583
 3506TIP3   OH210481   6.180   4.110   0.674  0.0261 -0.3916 -0.8680
 3506TIP3    H110482   6.207   4.031   0.627  0.6217 -0.9853  0.4362
 3506TIP3    H210483   6.190   4.088   0.766  0.6059  1.3471 -0.4773
 3507TIP3   OH210484   6.070   2.242   5.801 -0.4642  0.0967 -0.1628
 3507TIP3    H110485   6.054   2.266   5.709 -0.2652 -2.5550 -0.9717
 3507TIP3    H210486   6.165   2.238   5.809 -0.4885 -0.2842 -0.0291
 3508TIP3   OH210487   1.326   2.053   0.759  0.4339  0.0178  0.2722
 3508TIP3    H110488   1.397   2.092   0.707  0.7053 -1.4891 -0.5270
 3508TIP3    H210489   1.354   1.963   0.775 -0.5638 -0.1263  1.3716
 3509TIP3   OH210490   5.104   5.612   4.799 -0.3778 -0.3978 -0.0487
 3509TIP3    H110491   5.135   5.532   4.756  0.6520  0.2117 -0.4785
 3509TIP3    H210492   5.135   5.683   4.742 -0.7000  0.3394  0.6793
 3510TIP3   OH210493   4.921   4.596   5.114 -0.7579  0.0018  0.7567
 3510TIP3    H110494   4.988   4.594   5.045 -1.4665 -0.7815  0.0712
 3510TIP3    H210495   4.947   4.668   5.171 -0.8732  1.5526 -1.0680
 3511TIP3   OH210496   1.601   2.544   4.522  0.6698  0.4746  0.7007
 3511TIP3    H110497   1.614   2.462   4.476  0.4478  1.2191 -0.7454
 3511TIP3    H210498   1.570   2.518   4.609  0.5533 -0.9555  0.2534
 3512TIP3   OH210499   6.422   4.634   1.715  0.3744 -0.0464 -0.0738
 3512TIP3    H110500   6.381   4.718   1.732  0.3108  0.1739 -1.2624
 3512TIP3    H210501   6.485   4.623   1.787  0.8349  1.3095 -0.2466
 3513TIP3   OH210502   2.701   1.590   3.135  0.8164  0.1030  0.3334
 3513TIP3    H110503   2.627   1.540   3.099 -0.0154  0.6522  1.2121
 3513TIP3    H210504   2.702   1.567   3.228  0.7053  1.3475  0.6608
 3514TIP3   OH210505   1.464   6.285   1.714 -0.0816 -0.0579 -0.6904
 3514TIP3    H110506   1.425   6.298   1.801 -0.3094 -1.3893 -0.5723
 3514TIP3    H210507   1.455   6.370   1.671  2.2727  1.4333  1.4476
 3515TIP3   OH210508   1.234   2.561   1.511  1.1576 -0.0550  0.1576
 3515TIP3    H110509   1.302   2.589   1.450 -1.0490 -0.9780 -2.9959
 3515TIP3    H210510   1.239   2.465   1.511  0.7010 -0.0917  0.9677
 3516TIP3   OH210511   6.100   5.781   1.280 -0.2664  0.2719  0.1881
 3516TIP3    H110512   6.054   5.753   1.201  0.5592  1.2005 -0.6467
 3516TIP3    H210513   6.043   5.849   1.317 -0.9989 -0.6547  0.7974
 3517TIP3   OH210514   2.657   5.803   5.237  0.1374  0.0696 -0.1256
 3517TIP3    H110515   2.738   5.815   5.187  0.2845 -0.2473  0.0304
 3517TIP3    H210516   2.642   5.887   5.280 -0.7063  0.7725 -1.7373
 3518TIP3   OH210517   0.919   5.725   4.431  0.1490  0.2098  0.6617
 3518TIP3    H110518   0.987   5.658   4.436  1.6156  1.4888 -0.9165
 3518TIP3    H210519   0.964   5.806   4.459 -0.4073  1.2582 -1.3121
 3519TIP3   OH210520   6.318   2.753   1.513  0.4272  0.1549  0.3144
 3519TIP3    H110521   6.304   2.808   1.436 -0.5111  0.7955  0.9317
 3519TIP3    H210522   6.335   2.815   1.584  0.4470 -0.3967  0.7942
 3520TIP3   OH210523   5.535   3.851   0.703 -0.7083 -0.4232 -0.1127
 3520TIP3    H110524   5.579   3.864   0.619  0.2807 -1.1244  0.2810
 3520TIP3    H210525   5.442   3.852   0.681 -0.4956  0.3508 -1.0676
 3521TIP3   OH210526   0.876   5.110   2.004  0.6677  0.3838 -0.0280
 3521TIP3    H110527   0.850   5.045   1.939 -0.9476  1.0375 -0.0964
 3521TIP3    H210528   0.907   5.059   2.079 -0.1981 -0.4731 -0.2327
 3522TIP3   OH210529   0.890   6.676   0.425  0.2795  0.5740 -0.4541
 3522TIP3    H110530   0.803   6.688   0.464 -0.1445 -0.2820 -1.1076
 3522TIP3    H210531   0.944   6.743   0.466 -0.1902 -0.1758  1.4811
 3523TIP3   OH210532   1.931   6.683   4.604  0.1195 -0.2713  0.1829
 3523TIP3    H110533   1.893   6.670   4.691 -1.1508  0.6220 -0.2078
 3523TIP3    H210534   1.861   6.725   4.554  1.5638  1.2568 -0.6409
 3524TIP3   OH210535   6.548   1.916   3.833  0.0142  0.0429  0.3313
 3524TIP3    H110536   6.493   1.845   3.867  0.9508 -1.4877 -1.2013
 3524TIP3    H210537   6.486   1.986   3.811 -1.3866 -1.5898 -1.2384
 3525TIP3   OH210538   2.815   3.968   0.427 -0.2010 -0.0665 -0.0634
 3525TIP3    H110539   2.867   3.916   0.488 -1.3252  2.0891  2.9333
 3525TIP3    H210540   2.775   3.903   0.368  1.4833 -2.1866  0.9876
 3526TIP3   OH210541   4.474   5.262   4.587 -0.0938 -0.5466 -0.0839
 3526TIP3    H110542   4.570   5.259   4.589 -0.1108 -2.0650  1.7554
 3526TIP3    H210543   4.452   5.354   4.594  1.2021 -0.1063 -1.2290
 3527TIP3   OH210544   6.027   4.007   2.630  0.0665  0.5498 -0.2079
 3527TIP3    H110545   5.933   3.997   2.645 -0.4739  2.4400 -1.9034
 3527TIP3    H210546   6.040   4.101   2.619  1.4388  0.0954 -3.8470
 3528TIP3   OH210547   5.809   1.733   5.306  0.1562  0.3465 -0.3957
 3528TIP3    H110548   5.777   1.777   5.384 -0.8379  0.0948 -0.6430
 3528TIP3    H210549   5.825   1.643   5.334  0.6749  0.4763 -0.2681
 3529TIP3   OH210550   4.403   6.698   0.802  0.4120 -0.7029  0.2389
 3529TIP3    H110551   4.317   6.694   0.760  0.7803 -1.0872 -0.5029
 3529TIP3    H210552   4.412   6.790   0.830 -0.7964 -0.9547  1.5662
 3530TIP3   OH210553   6.512   6.690   0.873  0.0536  0.2764 -0.6582
 3530TIP3    H110554   6.510   6.605   0.917 -0.2171  0.8378  0.4732
 3530TIP3    H210555   6.566   6.677   0.796  1.6050 -0.4461  0.5104
 3531TIP3   OH210556   6.958   2.917   2.587  0.3768 -0.4229 -0.5440
 3531TIP3    H110557   6.906   2.967   2.649  1.0758 -1.9453  1.4014
 3531TIP3    H210558   6.910   2.922   2.505 -1.1308  0.8608  0.3664
 3532TIP3   OH210559   3.896   1.373   0.278 -0.4427  0.2281 -0.3707
 3532TIP3    H110560   3.921   1.443   0.217  0.5079  0.8982  0.7477
 3532TIP3    H210561   3.869   1.419   0.357 -1.8548 -0.6235 -0.3206
 3533TIP3   OH210562   5.075   5.772   1.504  0.4853  0.2092  0.0593
 3533TIP3    H110563   5.165   5.787   1.473  0.0529 -0.1299 -1.4579
 3533TIP3    H210564   5.026   5.749   1.425 -0.5318 -1.5778  1.1407
 3534TIP3   OH210565   2.574   2.873   5.647  0.0431  0.2091  0.0855
 3534TIP3    H110566   2.531   2.829   5.573 -0.4521 -0.2201  0.6182
 3534TIP3    H210567   2.594   2.803   5.709  1.4555  0.4104 -0.0997
 3535TIP3   OH210568   6.560   0.581   4.512 -0.1674  0.2972  0.4523
 3535TIP3    H110569   6.511   0.512   4.467 -1.5774  1.4428  0.1410
 3535TIP3    H210570   6.651   0.551   4.511 -0.6773 -1.3244 -0.0738
 3536TIP3   OH210571   5.368   6.229   3.019  0.2953 -0.2938  0.0452
 3536TIP3    H110572   5.273   6.222   3.030  0.4164 -1.3387  0.5658
 3536TIP3    H210573   5.382   6.216   2.925 -0.1763  1.3855 -0.2913
 3537TIP3   OH210574   5.380   6.325   1.167 -0.2440 -0.6328 -0.1729
 3537TIP3    H110575   5.401   6.401   1.220  0.6911 -0.8597 -0.1950
 3537TIP3    H210576   5.392   6.250   1.226  0.2659 -0.8501 -0.5397
 3538TIP3   OH210577   3.261   6.547   5.274 -0.0587 -0.5522  0.2254
 3538TIP3    H110578   3.314   6.626   5.264  2.5215 -2.2566 -0.6007
 3538TIP3    H210579   3.285   6.513   5.361  0.1031 -1.2459 -0.0801
 3539TIP3   OH210580   2.189   6.376   5.171 -0.5105 -0.0040 -0.1926
 3539TIP3    H110581   2.200   6.299   5.114 -0.1369 -1.9411  2.3359
 3539TIP3    H210582   2.273   6.386   5.215 -1.4769 -0.0703  1.7556
 3540TIP3   OH210583   3.687   5.349   0.092 -0.1799  0.3273  0.3658
 3540TIP3    H110584   3.664   5.397   0.013 -0.6617 -1.0650 -0.3691
 3540TIP3    H210585   3.744   5.279   0.062 -1.5804 -1.1393  1.0035
 3541TIP3   OH210586   3.508   2.222   2.040 -0.0732 -0.4239  0.0564
 3541TIP3    H110587   3.491   2.146   1.984  0.4106 -0.5359  0.0554
 3541TIP3    H210588   3.519   2.184   2.128 -1.3666 -0.1999  0.3411
 3542TIP3   OH210589   2.665   1.615   5.354  0.1900 -0.3362  0.0142
 3542TIP3    H110590   2.608   1.689   5.371  0.5876 -0.1948  0.7895
 3542TIP3    H210591   2.706   1.596   5.439  1.0406 -0.6389 -0.4471
 3543TIP3   OH210592   6.691   0.937   1.886 -0.9672  0.1611  0.4171
 3543TIP3    H110593   6.616   0.881   1.905 -1.2963  0.2038 -0.6626
 3543TIP3    H210594   6.693   1.001   1.956 -0.2917 -1.4747  1.9759
 3544TIP3   OH210595   6.125   4.596   3.442 -0.5387 -0.1712  0.1178
 3544TIP3    H110596   6.125   4.501   3.431  0.2242 -0.1181 -0.3886
 3544TIP3    H210597   6.209   4.624   3.407 -1.0194  0.7575 -0.3217
 3545TIP3   OH210598   4.056   1.992   0.859  0.0848 -0.0100 -0.2834
 3545TIP3    H110599   4.003   2.063   0.895  0.1331 -0.4463  0.6791
 3545TIP3    H210600   3.992   1.931   0.822 -0.2369 -1.1974  2.0657
 3546TIP3   OH210601   3.158   6.454   1.519  0.5838  0.3181  0.4344
 3546TIP3    H110602   3.146   6.360   1.509  1.8715  0.2091 -0.2085
 3546TIP3    H210603   3.070   6.487   1.542 -0.2178 -0.8203 -0.8633
 3547TIP3   OH210604   1.660   0.437   1.277 -0.0296  0.1338 -0.3620
 3547TIP3    H110605   1.678   0.360   1.331  1.1827  0.4732 -0.2642
 3547TIP3    H210606   1.576   0.469   1.308  0.0219 -0.4494  0.4092
 3548TIP3   OH210607   1.839   3.492   5.587  0.1031 -0.3432 -0.6081
 3548TIP3    H110608   1.885   3.545   5.522 -1.0523 -0.6220 -1.6906
 3548TIP3    H210609   1.748   3.492   5.558 -0.5201 -0.1935  1.2224
 3549TIP3   OH210610   5.302   1.836   3.527 -0.0045  0.2990 -0.0567
 3549TIP3    H110611   5.272   1.892   3.456 -2.5720  0.0257  0.6923
 3549TIP3    H210612   5.374   1.884   3.567  0.3644  1.2418 -1.7548
 3550TIP3   OH210613   1.090   1.190   1.537  0.7159  0.4866  0.9905
 3550TIP3    H110614   1.009   1.211   1.582 -1.2650  0.2240 -2.1342
 3550TIP3    H210615   1.106   1.098   1.556  0.0498  0.4365  1.3174
 3551TIP3   OH210616   4.317   6.185   2.983  0.7761  0.1116  0.0137
 3551TIP3    H110617   4.328   6.176   3.077 -1.3248 -0.4711  0.2458
 3551TIP3    H210618   4.337   6.098   2.948 -2.4557 -0.9293  0.4291
 3552TIP3   OH210619   2.044   5.461   2.434 -0.4285 -0.0250 -0.1098
 3552TIP3    H110620   1.964   5.412   2.416 -1.1539  0.1463  2.2793
 3552TIP3    H210621   2.107   5.395   2.463 -0.2097  0.0379 -0.4303
 3553TIP3   OH210622   4.196   3.750   3.613  0.0740  0.3015  0.1783
 3553TIP3    H110623   4.236   3.688   3.552  0.8316  1.0036 -0.0485
 3553TIP3    H210624   4.248   3.744   3.692 -1.6369 -1.5146  1.2789
 3554TIP3   OH210625   6.369   4.102   1.971 -0.2831 -0.0569  0.3830
 3554TIP3    H110626   6.457   4.139   1.965 -0.5178  0.7719  1.5421
 3554TIP3    H210627   6.359   4.048   1.893  2.1267 -2.1319  1.3809
 3555TIP3   OH210628   2.505   2.633   4.141 -0.2839 -0.6892  0.9546
 3555TIP3    H110629   2.566   2.651   4.069 -1.1193  1.5978  0.7629
 3555TIP3    H210630   2.431   2.588   4.099 -1.5590  2.1252 -0.0632
 3556TIP3   OH210631   1.335   0.303   1.683 -0.2876  0.1905  0.1126
 3556TIP3    H110632   1.289   0.341   1.608  0.5889  0.0584 -0.5110
 3556TIP3    H210633   1.428   0.312   1.661  0.0077 -2.7778 -0.3784
 3557TIP3   OH210634   1.620  -0.028   4.601  0.2915  0.0533 -0.1578
 3557TIP3    H110635   1.702   0.011   4.571 -0.4216  1.1588 -0.7548
 3557TIP3    H210636   1.552   0.028   4.564 -0.6946  0.4278  2.0619
 3558TIP3   OH210637   2.465   5.000   0.574 -0.6198 -1.1109  0.0536
 3558TIP3    H110638   2.391   5.028   0.520 -0.5623 -1.3302 -0.1422
 3558TIP3    H210639   2.429   4.989   0.662 -0.2325  1.6512  0.6523
 3559TIP3   OH210640   5.555   2.957   5.559 -0.3416  0.1649  0.2717
 3559TIP3    H110641   5.514   3.027   5.610 -0.8508 -0.8847  1.3401
 3559TIP3    H210642   5.594   2.899   5.624 -0.0240 -0.6237 -0.5914
 3560TIP3   OH210643   3.275   4.121   3.815  0.2456 -0.1167 -0.0437
 3560TIP3    H110644   3.254   4.050   3.874  1.4448  0.3873  1.0313
 3560TIP3    H210645   3.368   4.110   3.795  1.0749  2.3640  1.9427
 3561TIP3   OH210646   3.154   3.814   1.092  0.3334  0.2841 -0.6214
 3561TIP3    H110647   3.155   3.791   1.185  0.0315 -1.3878 -0.9986
 3561TIP3    H210648   3.241   3.791   1.061 -0.4139 -1.8389 -1.3117
 3562TIP3   OH210649   6.444   0.775   4.664  0.0604 -0.1578  0.3786
 3562TIP3    H110650   6.430   0.838   4.594 -2.4297 -0.0489  0.9015
 3562TIP3    H210651   6.482   0.698   4.620 -1.2546 -0.0098 -1.0760
 3563TIP3   OH210652   2.673   6.806   3.529 -0.1286 -0.0330  0.1670
 3563TIP3    H110653   2.642   6.750   3.457 -0.4183  0.4766 -0.1097
 3563TIP3    H210654   2.763   6.777   3.544  0.1385  0.2551 -0.8126
 3564TIP3   OH210655   5.230   3.769   3.798  0.3745  0.0628  0.0733
 3564TIP3    H110656   5.309   3.788   3.747  1.2491 -1.1011  0.9331
 3564TIP3    H210657   5.260   3.769   3.889 -1.1142  1.9177  0.6282
 3565TIP3   OH210658   1.219   0.177   0.918  0.2557 -0.2239  0.1673
 3565TIP3    H110659   1.290   0.144   0.863 -0.0953 -0.1375 -0.3457
 3565TIP3    H210660   1.160   0.221   0.857 -0.4794 -0.6942  0.5200
 3566TIP3   OH210661   5.037   1.354   0.121  0.3621 -0.0727  0.2210
 3566TIP3    H110662   5.037   1.266   0.083 -0.3282  0.3473 -0.8326
 3566TIP3    H210663   5.115   1.358   0.175  1.3676 -0.7568 -1.1160
 3567TIP3   OH210664   7.023   4.738   3.012 -0.3422 -0.1718  0.3532
 3567TIP3    H110665   6.943   4.709   3.057 -0.5887 -2.0977 -1.2011
 3567TIP3    H210666   6.993   4.768   2.926  0.6613 -2.3537 -0.8545
 3568TIP3   OH210667   2.167   5.855   4.944  0.2195 -0.1220  0.1358
 3568TIP3    H110668   2.260   5.842   4.928  0.3819  1.5868 -0.4832
 3568TIP3    H210669   2.155   5.836   5.037  1.6350  1.7638  0.7602
 3569TIP3   OH210670   1.761   1.536   1.970 -0.4896 -0.3714 -0.9681
 3569TIP3    H110671   1.749   1.622   1.929 -1.6312 -0.8387 -1.6614
 3569TIP3    H210672   1.673   1.507   1.992 -0.2820 -2.0158 -2.1224
 3570TIP3   OH210673   2.459   1.880   4.128  0.0779 -0.4237  0.3806
 3570TIP3    H110674   2.474   1.789   4.102  0.1425 -0.3347  0.1033
 3570TIP3    H210675   2.396   1.913   4.064  1.8838  0.4506 -1.0515
 3571TIP3   OH210676   1.404   0.037   3.410  0.0455  0.0078 -0.7662
 3571TIP3    H110677   1.439   0.116   3.369 -1.0801  0.2283 -1.3513
 3571TIP3    H210678   1.361   0.068   3.489  4.1326 -0.6488  2.0128
 3572TIP3   OH210679   1.182   4.800   1.941  0.2741 -0.1433 -0.2271
 3572TIP3    H110680   1.153   4.784   2.030 -1.2709  0.5158 -0.5860
 3572TIP3    H210681   1.251   4.866   1.950  0.6415 -0.6128  0.5135
 3573TIP3   OH210682   7.068   4.906   3.507 -0.2680 -0.3436  0.0448
 3573TIP3    H110683   7.072   4.937   3.417  0.5107 -1.9639 -0.5081
 3573TIP3    H210684   7.134   4.838   3.513 -0.4818 -0.4615  1.7817
 3574TIP3   OH210685   6.531   6.434   0.979  0.2219  0.1485 -0.4512
 3574TIP3    H110686   6.524   6.346   0.941 -0.5337  0.9861 -2.4015
 3574TIP3    H210687   6.456   6.441   1.037 -0.0896 -0.2743 -0.7939
 3575TIP3   OH210688   5.743   3.302   2.595 -0.1279 -0.2502  0.2436
 3575TIP3    H110689   5.743   3.206   2.600 -0.4577 -0.3111 -0.8144
 3575TIP3    H210690   5.808   3.322   2.528  0.4871  0.3117  0.9859
 3576TIP3   OH210691   4.241   3.490   0.516 -0.2194  0.2639 -0.1890
 3576TIP3    H110692   4.297   3.482   0.594 -1.3757 -4.0741  0.4257
 3576TIP3    H210693   4.297   3.459   0.444 -0.8284 -1.1256 -0.0851
 3577TIP3   OH210694   6.114   2.307   0.555  0.1539 -0.0257 -0.3563
 3577TIP3    H110695   6.184   2.263   0.508  0.7071  1.1290 -0.6601
 3577TIP3    H210696   6.159   2.364   0.617 -0.5454 -0.3006  0.4353
 3578TIP3   OH210697   0.303   2.343   3.468 -0.3657 -0.1534 -0.4795
 3578TIP3    H110698   0.353   2.423   3.453  0.3991 -0.4886  0.2180
 3578TIP3    H210699   0.364   2.285   3.512 -1.7607 -0.0965  1.6272
 3579TIP3   OH210700   4.624   1.920   4.645  0.4628 -0.1983  0.2873
 3579TIP3    H110701   4.708   1.873   4.654  0.5892 -0.1307 -0.4830
 3579TIP3    H210702   4.595   1.900   4.556 -0.3900 -0.2889  0.5750
 3580TIP3   OH210703   2.407   3.743   0.258  0.0128  0.1856  0.1798
 3580TIP3    H110704   2.443   3.657   0.278  0.9551  0.7277  0.8962
 3580TIP3    H210705   2.444   3.765   0.172 -1.1866 -0.6130 -0.5748
 3581TIP3   OH210706   3.983   2.632   4.894 -0.0766  0.3962  0.2719
 3581TIP3    H110707   3.989   2.711   4.841  0.4626  0.8450  0.9843
 3581TIP3    H210708   4.074   2.602   4.902 -0.2948 -0.3882 -0.1296
 3582TIP3   OH210709   5.532   5.920   3.497  0.1951  0.0285  0.2174
 3582TIP3    H110710   5.483   5.845   3.532 -2.1338  0.8721 -0.9728
 3582TIP3    H210711   5.477   5.952   3.425  3.2793  0.1944 -2.2680
 3583TIP3   OH210712   0.325   0.926   4.439 -0.3743 -0.0880 -0.1260
 3583TIP3    H110713   0.296   0.899   4.352 -1.2733 -0.0632  0.1526
 3583TIP3    H210714   0.388   0.996   4.423 -1.7127  1.0120 -0.7370
 3584TIP3   OH210715   0.789   3.968   4.559 -0.6312  0.3710  0.3189
 3584TIP3    H110716   0.849   4.041   4.542 -0.1114  0.1466  1.1524
 3584TIP3    H210717   0.738   3.995   4.636 -1.8684  0.7074 -0.5780
 3585TIP3   OH210718   0.942   0.022   4.058  0.1534  0.6900  0.0764
 3585TIP3    H110719   1.003  -0.051   4.062  1.3543  1.6228 -0.4866
 3585TIP3    H210720   0.989   0.095   4.098 -0.1940  1.6722 -1.2099
 3586TIP3   OH210721   5.362   5.977   2.182 -0.1617 -0.1881  0.1328
 3586TIP3    H110722   5.341   6.014   2.267 -3.8336  0.6835 -0.9597
 3586TIP3    H210723   5.457   5.981   2.176  0.1361  0.6790  3.7159
 3587TIP3   OH210724   4.693   0.478   5.127 -0.7229  0.0109 -0.2927
 3587TIP3    H110725   4.696   0.571   5.150  1.7750  0.5867 -2.4262
 3587TIP3    H210726   4.677   0.476   5.033  2.8386 -1.3905 -1.0518
 3588TIP3   OH210727   3.184   3.100   4.657 -0.3891  0.0899  0.0704
 3588TIP3    H110728   3.256   3.163   4.657 -0.9993  0.7932 -0.6592
 3588TIP3    H210729   3.193   3.054   4.741  1.1973 -0.1779 -0.2092
 3589TIP3   OH210730   1.349   4.317   2.684  0.7257  0.0932  0.9804
 3589TIP3    H110731   1.377   4.403   2.653 -1.9682  0.0320 -2.1845
 3589TIP3    H210732   1.410   4.256   2.642 -0.1144  0.2818 -0.5930
 3590TIP3   OH210733   3.106   1.884   5.521 -0.0022  0.5018  0.0709
 3590TIP3    H110734   3.014   1.883   5.546  0.1386 -0.4803  0.6172
 3590TIP3    H210735   3.154   1.869   5.602  0.6381  0.9335 -0.2173
 3591TIP3   OH210736   4.063   3.098   1.548 -0.2837  0.0125 -0.1817
 3591TIP3    H110737   4.004   3.173   1.540  0.0723  0.2362 -0.7324
 3591TIP3    H210738   4.148   3.131   1.521 -0.3394 -0.8681 -1.5216
 3592TIP3   OH210739   1.000   3.227   4.770 -0.1849 -0.1174 -0.3425
 3592TIP3    H110740   1.064   3.249   4.703  0.5150  3.2262  1.2282
 3592TIP3    H210741   1.043   3.162   4.825 -0.3255 -1.9933 -2.3043
 3593TIP3   OH210742   2.920   4.208   0.728 -0.0253 -0.3359 -0.0701
 3593TIP3    H110743   2.864   4.132   0.712 -1.5598  0.4435  1.3103
 3593TIP3    H210744   2.967   4.188   0.808  0.1604 -0.1527 -0.1319
 3594TIP3   OH210745   6.565   1.221   2.537  0.2118  0.0290  0.1987
 3594TIP3    H110746   6.569   1.126   2.547 -1.1906  0.0189  1.0042
 3594TIP3    H210747   6.602   1.256   2.619 -0.5361  0.1389  0.4995
 3595TIP3   OH210748   3.154   0.371   2.072 -0.0632  0.4599 -0.7262
 3595TIP3    H110749   3.123   0.413   2.153  0.4307 -0.3683 -0.0824
 3595TIP3    H210750   3.095   0.296   2.060 -0.9885  1.3378 -1.9079
 3596TIP3   OH210751   6.783   2.723   2.444 -0.6847  0.0737 -0.4082
 3596TIP3    H110752   6.773   2.664   2.518 -1.7694  0.5714 -0.1349
 3596TIP3    H210753   6.760   2.670   2.367  1.7218 -0.8253 -0.5822
 3597TIP3   OH210754   6.921   4.909   3.992 -0.2850 -0.2828  0.2509
 3597TIP3    H110755   6.928   4.874   3.903  0.0674 -2.1940  0.9665
 3597TIP3    H210756   6.834   4.881   4.021  0.2426 -1.1454  1.0544
 3598TIP3   OH210757   4.240   2.137   5.892  0.3963  0.3692  0.3728
 3598TIP3    H110758   4.272   2.211   5.841 -0.2905  1.1531  1.0603
 3598TIP3    H210759   4.169   2.173   5.946  0.2329 -0.7228  0.9205
 3599TIP3   OH210760   0.625   3.674   3.718 -0.0127 -0.5394 -0.0448
 3599TIP3    H110761   0.590   3.608   3.778 -0.2178 -1.7651 -1.4808
 3599TIP3    H210762   0.591   3.650   3.632 -0.6970  1.8666 -0.5178
 3600TIP3   OH210763   0.014   0.939   5.275  0.5685 -0.1013  0.2672
 3600TIP3    H110764   0.091   0.992   5.297 -0.2461  1.0238  0.4750
 3600TIP3    H210765  -0.051   0.962   5.341 -0.3254 -0.2040 -0.5549
 3601TIP3   OH210766   4.007   4.988   3.314  0.0764 -0.3112 -0.3661
 3601TIP3    H110767   3.994   4.979   3.220 -1.1967  0.5532 -0.2985
 3601TIP3    H210768   3.953   4.919   3.352  1.4646 -1.3947 -0.2687
 3602TIP3   OH210769   2.719   4.233   4.982  0.1424  0.5133 -0.4274
 3602TIP3    H110770   2.733   4.290   5.057  0.4295  0.8799 -0.7574
 3602TIP3    H210771   2.667   4.160   5.017 -0.9201  1.3743 -0.1812
 3603TIP3   OH210772   4.214   0.375   1.626  0.2990 -0.1343  0.0413
 3603TIP3    H110773   4.168   0.325   1.559  2.0156 -2.1529  0.2760
 3603TIP3    H210774   4.151   0.382   1.698 -0.3948 -0.8660 -0.4801
 3604TIP3   OH210775   3.031   0.320   1.694 -0.3391  0.2870 -0.3425
 3604TIP3    H110776   3.097   0.388   1.680 -0.4611  0.4291 -0.2398
 3604TIP3    H210777   2.995   0.339   1.781  0.5975 -0.7484  0.2925
 3605TIP3   OH210778   6.929   4.198   1.205  0.2367  0.3401 -0.4862
 3605TIP3    H110779   6.876   4.251   1.146 -0.2105 -0.3170 -0.6844
 3605TIP3    H210780   7.009   4.249   1.219  0.6724  0.1782 -2.2302
 3606TIP3   OH210781   0.507   0.588   0.555  0.0324 -0.0615  0.8413
 3606TIP3    H110782   0.540   0.656   0.496 -1.8910  1.5399  1.5169
 3606TIP3    H210783   0.585   0.541   0.584  1.3919  1.6598  0.1009
 3607TIP3   OH210784   2.925   2.497   5.615  0.0231 -0.1283 -0.7222
 3607TIP3    H110785   3.018   2.507   5.597 -0.0099  1.0149 -0.3491
 3607TIP3    H210786   2.887   2.581   5.590 -0.5043  0.3809  1.6014
 3608TIP3   OH210787   3.124   3.262   2.820  0.1420  0.6812  0.8690
 3608TIP3    H110788   3.059   3.297   2.881  0.1562  3.2743 -0.4624
 3608TIP3    H210789   3.204   3.255   2.872 -0.4850  0.2944  1.7953
 3609TIP3   OH210790   3.298   0.624   0.958 -0.1491  0.0433 -0.1094
 3609TIP3    H110791   3.296   0.669   1.043 -2.0130  2.1957 -1.1778
 3609TIP3    H210792   3.363   0.672   0.907  1.1629 -1.4135  0.1300
 3610TIP3   OH210793   4.394   2.466   1.371  0.1799  0.0971 -0.0102
 3610TIP3    H110794   4.302   2.442   1.365  0.0466  0.4268  0.6627
 3610TIP3    H210795   4.429   2.411   1.441  0.4326  0.1559 -0.0881
 3611TIP3   OH210796   6.914   4.088   3.389  0.4414  0.2747 -0.0584
 3611TIP3    H110797   6.848   4.025   3.416 -1.1447  1.2486 -1.5141
 3611TIP3    H210798   6.918   4.151   3.461  0.6283 -0.4132  0.5399
 3612TIP3   OH210799   0.578   3.005   4.016 -0.0928  0.4571  0.3738
 3612TIP3    H110800   0.508   3.014   3.952  1.3601  0.5706 -1.2852
 3612TIP3    H210801   0.567   3.080   4.075 -1.9464 -0.1016  0.7871
 3613TIP3   OH210802   6.553   3.446   4.121  0.4381 -0.4722 -0.3276
 3613TIP3    H110803   6.463   3.463   4.150  0.2785  0.5083 -1.3103
 3613TIP3    H210804   6.599   3.417   4.200 -0.2273  1.0773  0.6907
 3614TIP3   OH210805   1.654   2.989   1.032  0.1248 -0.1488 -0.5022
 3614TIP3    H110806   1.614   3.031   1.109 -0.7596  1.4686 -1.7656
 3614TIP3    H210807   1.614   2.902   1.029  1.0096 -0.6762  1.4611
 3615TIP3   OH210808   0.531   6.445   3.821  0.1230 -0.2384 -0.3328
 3615TIP3    H110809   0.438   6.469   3.821 -0.1491 -0.9013  2.7766
 3615TIP3    H210810   0.577   6.528   3.830 -0.3019 -0.0599  0.2745
 3616TIP3   OH210811   0.443   1.753   1.497 -0.4033  0.0337 -0.4376
 3616TIP3    H110812   0.454   1.662   1.523 -1.5440  0.4731  1.8636
 3616TIP3    H210813   0.348   1.765   1.491 -0.2521  0.7494 -2.1536
 3617TIP3   OH210814   1.020   1.072   0.945 -0.3878 -0.5847 -0.2825
 3617TIP3    H110815   0.989   1.160   0.925 -2.2770 -1.0325  0.4287
 3617TIP3    H210816   1.029   1.030   0.859 -0.9448 -0.1678 -0.5498
 3618TIP3   OH210817   0.744   5.678   1.420 -0.3666 -0.0355  0.5696
 3618TIP3    H110818   0.712   5.701   1.507 -4.0022 -0.9918 -0.3440
 3618TIP3    H210819   0.702   5.742   1.362 -0.1314 -1.0048 -0.7118
 3619TIP3   OH210820   7.156   6.076   5.347  0.3811  0.0922  0.3559
 3619TIP3    H110821   7.146   6.013   5.419 -2.1003 -1.7553 -1.4365
 3619TIP3    H210822   7.248   6.101   5.350  0.4444  0.0717  4.0788
 3620TIP3   OH210823   6.371   4.658   0.361 -0.2674  0.8402  0.2738
 3620TIP3    H110824   6.384   4.573   0.319  0.2128  1.6924 -1.3344
 3620TIP3    H210825   6.368   4.637   0.455  3.4853 -0.5380  0.2277
 3621TIP3   OH210826   5.991   3.670   4.489  0.0056 -0.5041  0.3334
 3621TIP3    H110827   5.913   3.690   4.437  0.3350 -3.2196 -1.4058
 3621TIP3    H210828   6.051   3.743   4.471 -1.3296  0.5601  0.0276
 3622TIP3   OH210829   6.433   6.613   3.793 -1.0196  0.3747 -0.1097
 3622TIP3    H110830   6.481   6.545   3.839 -0.1488  1.1362  0.1412
 3622TIP3    H210831   6.443   6.592   3.700 -0.4476  0.3584 -0.0479
 3623TIP3   OH210832   5.744   2.300   0.787  0.3184 -0.5705 -0.3252
 3623TIP3    H110833   5.731   2.291   0.693  1.6947 -1.8262 -0.4196
 3623TIP3    H210834   5.668   2.352   0.816 -1.2132 -1.8458 -1.8005
 3624TIP3   OH210835   6.329   6.476   5.736  0.2363  0.0121  0.5358
 3624TIP3    H110836   6.379   6.556   5.720  0.5817 -0.3586 -0.3267
 3624TIP3    H210837   6.376   6.432   5.807  0.6767  0.0687  0.2881
 3625TIP3   OH210838   5.110   4.952   4.525  0.3694 -0.1028 -0.2105
 3625TIP3    H110839   5.040   4.957   4.590 -0.5252  0.2441 -1.1669
 3625TIP3    H210840   5.147   4.864   4.536 -0.1918 -0.2737  0.3389
 3626TIP3   OH210841   6.615   5.595   0.848 -0.1397  0.1850  0.2299
 3626TIP3    H110842   6.608   5.675   0.795  0.6790  0.8453  1.0940
 3626TIP3    H210843   6.532   5.590   0.895 -1.2242 -0.8552 -1.6907
 3627TIP3   OH210844   0.115   1.628   2.351 -0.1233  0.1163  0.2767
 3627TIP3    H110845   0.111   1.588   2.265 -1.2764 -0.1032  0.4246
 3627TIP3    H210846   0.185   1.580   2.396  0.1765 -0.0670 -0.3780
 3628TIP3   OH210847   1.891   4.451   1.249 -0.2986 -0.2087  0.0944
 3628TIP3    H110848   1.892   4.438   1.154 -0.2062  1.0562 -0.0894
 3628TIP3    H210849   1.800   4.435   1.274 -0.6685  1.0018 -0.4428
 3629TIP3   OH210850   0.096   0.101   3.450 -0.4842  0.3187 -0.3750
 3629TIP3    H110851   0.132   0.185   3.422 -1.2073  1.3929  1.7252
 3629TIP3    H210852   0.081   0.111   3.544 -1.9967 -1.6448 -0.3385
 3630TIP3   OH210853   4.744   5.115   2.329 -0.6454  0.4019  0.4005
 3630TIP3    H110854   4.685   5.157   2.391  0.2195  1.6702  0.4148
 3630TIP3    H210855   4.776   5.187   2.274  0.1827 -0.3795 -0.1764
 3631TIP3   OH210856   6.888   3.011   0.821  0.1042 -0.4654 -0.7660
 3631TIP3    H110857   6.797   3.030   0.847 -0.1706 -0.9045 -1.3850
 3631TIP3    H210858   6.919   3.094   0.785 -0.0972 -0.3522 -0.6861
 3632TIP3   OH210859   5.936   3.988   0.342 -0.2951  0.0759  0.0494
 3632TIP3    H110860   5.940   4.067   0.395  1.0535  0.6457 -0.8384
 3632TIP3    H210861   6.019   3.987   0.294 -0.1287 -2.0730  0.2987
 3633TIP3   OH210862   3.106   1.085   4.902 -0.5144  0.4990  0.3006
 3633TIP3    H110863   3.046   1.041   4.843  0.8817 -0.8125 -0.1876
 3633TIP3    H210864   3.140   1.159   4.852 -0.5633  0.3485  0.0468
 3634TIP3   OH210865   0.934   6.302   5.220  0.4531  0.0313  0.1654
 3634TIP3    H110866   0.919   6.318   5.127  1.2003 -0.2402 -0.0070
 3634TIP3    H210867   0.891   6.375   5.264  0.1676  0.2080 -0.3923
 3635TIP3   OH210868   5.715   0.506   1.929 -0.2221 -0.4395 -0.1826
 3635TIP3    H110869   5.647   0.443   1.906  0.1633 -1.3243  1.0041
 3635TIP3    H210870   5.794   0.473   1.887  0.2395 -1.4502  1.3715
 3636TIP3   OH210871   5.969   3.068   4.427 -0.1900 -0.7653  1.1596
 3636TIP3    H110872   5.977   3.040   4.518  0.4823 -1.7862  0.8115
 3636TIP3    H210873   6.037   3.134   4.416 -1.2411  0.4511  1.7720
 3637TIP3   OH210874   1.356   1.271   1.603 -0.5596 -0.2955 -0.5879
 3637TIP3    H110875   1.262   1.255   1.602 -0.1859 -3.0643  0.7369
 3637TIP3    H210876   1.395   1.191   1.570  1.4264 -0.7059  2.3551
 3638TIP3   OH210877   3.123   3.439   4.296  0.2339  0.4447  0.3532
 3638TIP3    H110878   3.116   3.354   4.338 -3.8244  0.2392 -0.3333
 3638TIP3    H210879   3.117   3.502   4.368  3.9703  0.3396  0.9432
 3639TIP3   OH210880   2.421   3.439   1.764 -0.3867 -0.1872  0.3194
 3639TIP3    H110881   2.362   3.446   1.839  1.9102 -0.0251  2.2406
 3639TIP3    H210882   2.479   3.366   1.787  0.1265 -0.3974 -1.5125
 3640TIP3   OH210883   5.786   5.853   3.652  0.4436 -0.3525 -0.5822
 3640TIP3    H110884   5.698   5.841   3.615 -0.4562  1.0579  0.9817
 3640TIP3    H210885   5.803   5.772   3.700 -0.8607  0.1186  0.7317
 3641TIP3   OH210886   1.699   6.554   5.451  0.0237 -0.3804 -0.0943
 3641TIP3    H110887   1.675   6.475   5.500 -1.7662 -0.3440 -0.8205
 3641TIP3    H210888   1.792   6.543   5.432 -0.0559 -2.0465  0.3064
 3642TIP3   OH210889   2.783   3.208   0.869  0.3168 -0.2158 -0.4585
 3642TIP3    H110890   2.866   3.256   0.862  2.1830 -3.1662 -0.1896
 3642TIP3    H210891   2.771   3.168   0.783 -0.9012  0.2389 -0.5134
 3643TIP3   OH210892   5.333   4.120   4.488  0.0822 -0.0769 -0.4764
 3643TIP3    H110893   5.370   4.069   4.560 -1.9109  0.9754  1.4141
 3643TIP3    H210894   5.366   4.077   4.409  2.1222 -1.4649  1.0320
 3644TIP3   OH210895   3.789   4.240   2.917  0.0234 -0.2468 -0.1094
 3644TIP3    H110896   3.838   4.302   2.971  1.0034 -1.9052  1.0111
 3644TIP3    H210897   3.699   4.246   2.949 -0.0556  1.0509 -0.4995
 3645TIP3   OH210898   3.714   5.739   4.453  0.6776 -0.0849  0.1104
 3645TIP3    H110899   3.643   5.737   4.518  0.8023 -0.7056  0.2389
 3645TIP3    H210900   3.736   5.646   4.440  2.3646  0.1377  1.0790
 3646TIP3   OH210901   6.194   3.180   4.111  0.0269  0.3355  0.3394
 3646TIP3    H110902   6.242   3.164   4.192  2.3743 -2.2646 -1.3779
 3646TIP3    H210903   6.235   3.258   4.074 -0.4199  0.9717  1.1404
 3647TIP3   OH210904   6.772   1.034   0.675 -0.1124  0.1273 -0.0002
 3647TIP3    H110905   6.748   1.106   0.616 -1.3109  0.5272  0.9279
 3647TIP3    H210906   6.793   0.961   0.616 -0.7628  0.6642 -0.9380
 3648TIP3   OH210907   6.814   6.309   4.711  0.4987 -0.0725 -0.2770
 3648TIP3    H110908   6.823   6.265   4.795 -0.5567 -2.9754 -1.5413
 3648TIP3    H210909   6.799   6.401   4.733  0.8552 -0.6160  2.6355
 3649TIP3   OH210910   1.593   0.152   3.855 -1.0946 -0.2910  0.3519
 3649TIP3    H110911   1.508   0.109   3.866 -2.4545  1.4455 -2.3179
 3649TIP3    H210912   1.589   0.229   3.911 -0.6307 -0.9835  1.3679
 3650TIP3   OH210913   6.148   6.736   0.084  0.0251 -0.5812 -0.4807
 3650TIP3    H110914   6.134   6.687   0.165  1.4213  0.1755  0.2591
 3650TIP3    H210915   6.237   6.769   0.091 -0.3479  0.7830 -1.6362
 3651TIP3   OH210916   6.893   2.995   0.420  0.1039  0.0727 -0.0020
 3651TIP3    H110917   6.977   2.955   0.446  0.4480  0.8709  0.1309
 3651TIP3    H210918   6.853   3.022   0.502 -1.2829 -2.1668  0.1514
 3652TIP3   OH210919   1.892   1.537   2.550  0.2414 -0.0488  0.3786
 3652TIP3    H110920   1.886   1.631   2.568 -1.0182  0.1969 -1.2019
 3652TIP3    H210921   1.819   1.498   2.597 -0.4769  0.0420 -0.6450
 3653TIP3   OH210922   7.135   1.025   1.083  0.1925 -1.2486  0.5407
 3653TIP3    H110923   7.069   0.965   1.118 -0.0036 -1.0731  0.4779
 3653TIP3    H210924   7.125   1.018   0.988  0.2036 -1.1585  0.5321
 3654TIP3   OH210925   3.239   2.350   5.691  0.3204 -0.5107 -0.0898
 3654TIP3    H110926   3.220   2.427   5.637 -1.2918 -0.0022  1.1350
 3654TIP3    H210927   3.258   2.281   5.628 -0.5553  0.3044 -1.2926
 3655TIP3   OH210928   4.027   5.810   1.794 -0.2026 -0.2287  0.2504
 3655TIP3    H110929   3.962   5.876   1.769  0.5176  0.4725  0.1841
 3655TIP3    H210930   4.064   5.843   1.876  2.3959  1.1404 -1.3442
 3656TIP3   OH210931   1.862   4.608   2.576 -0.3089  0.4833  0.1247
 3656TIP3    H110932   1.942   4.655   2.550  0.3302 -0.6319  0.0059
 3656TIP3    H210933   1.863   4.610   2.671  0.6189 -0.7281  0.1575
 3657TIP3   OH210934   3.285   5.529   5.781 -0.1276 -0.0663  0.0920
 3657TIP3    H110935   3.316   5.608   5.825  3.2158 -0.8259 -0.6299
 3657TIP3    H210936   3.228   5.487   5.845 -1.3361  2.4535  0.8037
 3658TIP3   OH210937   6.617   2.217   4.684 -0.2307 -0.0262  0.0751
 3658TIP3    H110938   6.650   2.150   4.624 -0.8688 -1.4603  1.2683
 3658TIP3    H210939   6.640   2.300   4.642 -0.4339 -0.9673 -2.0030
 3659TIP3   OH210940   7.196   4.563   5.699  0.3808  0.1264 -0.7126
 3659TIP3    H110941   7.147   4.583   5.619 -0.3045  1.1645 -0.0533
 3659TIP3    H210942   7.226   4.649   5.731 -0.7012 -0.0870  0.9840
 3660TIP3   OH210943   4.607   0.620   3.492  0.1918  0.2534  0.6568
 3660TIP3    H110944   4.574   0.683   3.556 -0.2392 -0.5255  1.2054
 3660TIP3    H210945   4.641   0.547   3.544 -0.5080 -0.5610 -0.0046
 3661TIP3   OH210946   7.064   4.265   4.353 -0.1290 -0.5669  0.7509
 3661TIP3    H110947   7.092   4.180   4.388  1.8959  0.2011  1.1196
 3661TIP3    H210948   6.969   4.258   4.346  0.0176 -3.0502  0.2863
 3662TIP3   OH210949   5.090   2.292   0.108 -0.4415 -0.2682 -0.9721
 3662TIP3    H110950   5.167   2.347   0.124 -1.0779  0.2083  0.6921
 3662TIP3    H210951   5.050   2.329   0.029  0.3071  0.3025 -1.0979
 3663TIP3   OH210952   0.544   2.450   2.032  0.3223  0.4767  0.3381
 3663TIP3    H110953   0.602   2.520   2.060  1.3694 -0.0962 -0.3458
 3663TIP3    H210954   0.601   2.374   2.021 -0.5858 -0.1584 -0.1460
 3664TIP3   OH210955   2.609   6.695   0.306 -0.2004 -0.3911 -0.4168
 3664TIP3    H110956   2.543   6.693   0.375 -0.2779  1.1070 -0.4058
 3664TIP3    H210957   2.670   6.626   0.329 -1.6074 -1.6365 -0.2758
 3665TIP3   OH210958   1.232   2.614   1.099  0.2584  0.2308 -0.2943
 3665TIP3    H110959   1.143   2.641   1.076 -0.2393  0.0116  1.2746
 3665TIP3    H210960   1.254   2.547   1.034 -1.6537 -1.4163  0.6483
 3666TIP3   OH210961   5.418   3.412   4.123 -0.0349  0.1867 -0.8950
 3666TIP3    H110962   5.420   3.508   4.118 -0.7942  0.5693  2.7426
 3666TIP3    H210963   5.507   3.387   4.148  0.0129  0.0154 -1.2401
 3667TIP3   OH210964   6.982   5.300   3.060  0.0188 -0.4221  0.7635
 3667TIP3    H110965   7.045   5.297   3.133 -0.9556  0.5895  1.6761
 3667TIP3    H210966   6.918   5.232   3.082  0.2956 -0.8404  0.2937
 3668TIP3   OH210967   4.425   4.240   3.396 -0.9523 -0.8465 -0.8145
 3668TIP3    H110968   4.499   4.298   3.376 -1.2573 -0.1872 -0.1067
 3668TIP3    H210969   4.353   4.300   3.415 -0.6666 -1.3480  2.3830
 3669TIP3   OH210970   0.265   1.673   5.269  0.4220  0.4545  0.3892
 3669TIP3    H110971   0.345   1.703   5.225  0.2477  2.0316  1.0821
 3669TIP3    H210972   0.253   1.734   5.342 -0.5350 -0.7468  1.2727
 3670TIP3   OH210973   4.055   3.425   2.103  0.3345  0.2989  0.0225
 3670TIP3    H110974   3.976   3.371   2.089  0.0196  0.6219  0.5270
 3670TIP3    H210975   4.071   3.420   2.197 -0.0295  1.5318  0.1676
 3671TIP3   OH210976   3.801   6.400   3.228  0.1870 -0.0392 -0.1649
 3671TIP3    H110977   3.732   6.431   3.169 -0.2813  0.3091  0.5515
 3671TIP3    H210978   3.814   6.308   3.203 -2.8821 -1.1835  1.7692
 3672TIP3   OH210979   6.223   4.832   0.819  0.2264 -0.0389  0.4865
 3672TIP3    H110980   6.136   4.793   0.819  0.2085 -0.0474 -0.7280
 3672TIP3    H210981   6.257   4.817   0.907 -1.0245  0.0264  0.9960
 3673TIP3   OH210982   6.292   1.077   1.281  0.4065  0.5202 -0.3693
 3673TIP3    H110983   6.213   1.024   1.268  0.3117  0.7305 -0.6537
 3673TIP3    H210984   6.276   1.124   1.363  0.4883  0.1205 -0.1166
 3674TIP3   OH210985   2.136   4.523   0.663  0.2118  0.3245  0.5636
 3674TIP3    H110986   2.111   4.613   0.680 -1.4296  0.4106 -1.7405
 3674TIP3    H210987   2.215   4.529   0.609 -0.6706  0.5093 -0.7680
 3675TIP3   OH210988   3.549   6.079   0.969 -0.0377 -0.1727 -0.6279
 3675TIP3    H110989   3.455   6.094   0.957  0.1374  1.6485 -0.0086
 3675TIP3    H210990   3.578   6.153   1.023  1.2319 -2.1979  1.6412
 3676TIP3   OH210991   2.256   2.156   5.279 -0.2880 -0.6370 -0.3458
 3676TIP3    H110992   2.214   2.203   5.350 -3.5058 -0.3350 -2.2712
 3676TIP3    H210993   2.333   2.209   5.257 -0.8044  0.7580  1.0526
 3677TIP3   OH210994   2.069   4.547   5.903 -0.4056 -0.7416  0.0119
 3677TIP3    H110995   2.007   4.592   5.845 -0.6977 -0.5213  0.4911
 3677TIP3    H210996   2.152   4.551   5.856 -0.4011  0.4028  0.0902
 3678TIP3   OH210997   1.521   4.263   2.046 -0.1377  0.0681  0.8174
 3678TIP3    H110998   1.557   4.175   2.055  0.3904  0.2744  0.7121
 3678TIP3    H210999   1.500   4.271   1.953 -0.0149  0.1227  0.7949
 3679TIP3   OH211000   1.398   1.904   2.028  0.1311  0.3971  0.6288
 3679TIP3    H111001   1.305   1.905   2.009  0.2655  1.5775 -0.0425
 3679TIP3    H211002   1.405   1.943   2.115  0.0692  1.1557  0.2975
 3680TIP3   OH211003   1.083   1.577   1.205 -0.9594  0.3186  0.4875
 3680TIP3    H111004   1.082   1.581   1.300 -1.7937  1.4591  0.4393
 3680TIP3    H211005   1.060   1.486   1.185 -1.9363  0.3571  1.3617
 3681TIP3   OH211006   3.678   0.900   0.668 -0.2086  0.0554  0.2158
 3681TIP3    H111007   3.635   0.925   0.586 -1.5506 -0.7375  0.6540
 3681TIP3    H211008   3.753   0.847   0.641 -1.0042 -0.7427 -0.4944
 3682TIP3   OH211009   2.906   0.637   3.606  0.1633 -0.3798 -0.0351
 3682TIP3    H111010   2.834   0.667   3.550  0.4257  2.1273  0.8098
 3682TIP3    H211011   2.896   0.542   3.610 -1.7306 -0.3258 -1.7461
 3683TIP3   OH211012   6.494   5.189   3.077  0.2621  0.4793 -0.0591
 3683TIP3    H111013   6.537   5.118   3.029  0.1927  0.4976 -0.1469
 3683TIP3    H211014   6.465   5.147   3.158  0.1204  0.3808 -0.1611
 3684TIP3   OH211015   3.514   0.875   1.191 -0.2949  0.1565 -0.2159
 3684TIP3    H111016   3.566   0.806   1.149 -0.3883 -0.6036  0.8961
 3684TIP3    H211017   3.578   0.942   1.213 -0.5066  1.6732 -3.5703
 3685TIP3   OH211018   5.025   4.491   0.207  0.4083  0.1753 -0.0908
 3685TIP3    H111019   5.020   4.581   0.238 -0.7979 -0.0800  0.4999
 3685TIP3    H211020   5.056   4.441   0.282  1.4093  0.1257 -0.5162
 3686TIP3   OH211021   6.100   1.212   0.225  0.2003 -0.5607  0.1736
 3686TIP3    H111022   6.146   1.295   0.229 -0.1059 -0.4368  1.3894
 3686TIP3    H211023   6.070   1.195   0.315 -0.8831 -1.3337 -0.2941
 3687TIP3   OH211024   3.278   2.641   4.375  0.1851  0.4384  0.0625
 3687TIP3    H111025   3.299   2.603   4.289  0.1163  1.9500 -0.6568
 3687TIP3    H211026   3.212   2.582   4.412  0.2032 -0.2303 -0.9249
 3688TIP3   OH211027   4.593   2.829   0.397 -0.2569  0.0418  0.4197
 3688TIP3    H111028   4.652   2.811   0.470 -1.4104 -0.8121  1.1543
 3688TIP3    H211029   4.652   2.848   0.324  0.9393 -0.8848  1.1055
 3689TIP3   OH211030   0.682   6.278   2.880 -0.3910 -0.1669  0.6756
 3689TIP3    H111031   0.731   6.197   2.865  0.6010  0.5952 -0.2646
 3689TIP3    H211032   0.594   6.259   2.846  0.0090 -0.6469 -0.1068
 3690TIP3   OH211033   4.900   6.218   5.695  0.0145 -0.3695  0.5172
 3690TIP3    H111034   4.901   6.276   5.771  0.8625  0.1562  0.1184
 3690TIP3    H211035   4.990   6.219   5.663  0.5905 -3.5084  1.6787
 3691TIP3   OH211036   6.550   4.841   2.669 -0.3581 -0.2214  0.1878
 3691TIP3    H111037   6.589   4.814   2.753  0.4462  0.3388  0.0058
 3691TIP3    H211038   6.459   4.862   2.691 -0.3139 -0.6277  0.8102
 3692TIP3   OH211039   3.206   2.072   2.008  0.1004 -0.5286  0.2605
 3692TIP3    H111040   3.226   2.008   2.075 -0.4135 -0.3363  0.6031
 3692TIP3    H211041   3.119   2.048   1.976  0.5353 -0.9073 -0.6754
 3693TIP3   OH211042   2.393   0.882   5.591  0.3748  0.0554  0.1077
 3693TIP3    H111043   2.444   0.959   5.616  0.4813  0.0246 -0.0171
 3693TIP3    H211044   2.303   0.905   5.615  0.4922 -0.0274  0.6443
 3694TIP3   OH211045   4.581   0.143   1.880 -0.3638  0.2656  0.5978
 3694TIP3    H111046   4.671   0.162   1.906  0.4375 -0.4714 -1.4144
 3694TIP3    H211047   4.562   0.058   1.919  0.7607 -0.7553 -0.9415
 3695TIP3   OH211048   5.724   4.257   5.802 -0.3652  0.0714 -0.4238
 3695TIP3    H111049   5.728   4.220   5.890  1.0551  0.0828 -0.4582
 3695TIP3    H211050   5.745   4.350   5.814 -1.3865  0.3420 -0.6413
 3696TIP3   OH211051   2.158   3.418   0.216 -0.6554  0.4167 -0.2036
 3696TIP3    H111052   2.083   3.360   0.228  0.2741 -0.9537 -0.8636
 3696TIP3    H211053   2.159   3.438   0.122 -0.6911  1.1424 -0.0602
 3697TIP3   OH211054   1.048   0.342   2.267 -0.0270  0.2438  0.7510
 3697TIP3    H111055   1.045   0.285   2.191  0.7912  1.3155 -0.1263
 3697TIP3    H211056   1.038   0.284   2.342  0.2809 -0.9676 -0.1301
 3698TIP3   OH211057   6.782   4.131   5.228  0.2832  0.0119 -0.4316
 3698TIP3    H111058   6.764   4.193   5.158  2.1303 -2.4791 -3.3957
 3698TIP3    H211059   6.722   4.058   5.211  0.9268 -0.7487  0.4364
 3699TIP3   OH211060   1.250   6.420   5.852 -0.1239  0.5359 -0.1739
 3699TIP3    H111061   1.293   6.334   5.857 -1.2182 -0.1166 -1.3315
 3699TIP3    H211062   1.208   6.420   5.766  0.9438  2.7875 -0.7699
 3700TIP3   OH211063   4.866   6.439   3.039  0.1945 -0.4103 -0.0910
 3700TIP3    H111064   4.895   6.478   2.957  1.3309 -0.0223  0.4681
 3700TIP3    H211065   4.810   6.366   3.012 -0.2266  0.2899 -1.1814
 3701TIP3   OH211066   0.045   4.255   1.680 -0.3660  0.0459  0.5432
 3701TIP3    H111067  -0.049   4.270   1.690 -0.2165  0.6288  1.0920
 3701TIP3    H211068   0.051   4.164   1.650 -1.1076  0.0444  0.3786
 3702TIP3   OH211069   5.048   3.893   2.548  0.6406 -0.4920 -0.3329
 3702TIP3    H111070   4.984   3.822   2.554  0.0696 -0.2436 -2.5363
 3702TIP3    H211071   4.996   3.973   2.559  1.3842 -0.3269  2.8722
 3703TIP3   OH211072   5.224   3.688   3.099  0.0764  0.0957 -0.1704
 3703TIP3    H111073   5.148   3.649   3.141  0.3855 -0.7159 -0.3500
 3703TIP3    H211074   5.290   3.693   3.167  0.6892 -1.5268 -0.5955
 3704TIP3   OH211075   6.946   4.202   2.935 -0.4906  0.2491  0.0610
 3704TIP3    H111076   6.973   4.127   2.882 -0.2072 -0.5939  1.3316
 3704TIP3    H211077   6.880   4.166   2.995 -0.7189  1.1340  0.3550
 3705TIP3   OH211078   5.004   3.060   4.697  0.5148  0.0969  0.0325
 3705TIP3    H111079   5.026   3.054   4.605 -0.0753  0.3549 -0.1316
 3705TIP3    H211080   5.085   3.039   4.743  1.2801  1.6036 -0.5512
 3706TIP3   OH211081   6.305   5.830   5.426 -0.0253 -0.2672  0.3545
 3706TIP3    H111082   6.217   5.801   5.401 -0.4089 -1.4614  2.7870
 3706TIP3    H211083   6.302   5.925   5.416 -1.0093 -0.4260 -1.2115
 3707TIP3   OH211084   3.082   1.121   0.433  0.0918  0.1173  0.1330
 3707TIP3    H111085   3.136   1.048   0.463 -1.5031 -0.3903  1.9621
 3707TIP3    H211086   3.040   1.154   0.513 -2.9944 -0.1267 -1.2628
 3708TIP3   OH211087   6.227   0.729   4.357 -0.4955 -0.3164 -0.3511
 3708TIP3    H111088   6.247   0.657   4.297  1.1094 -0.6035  0.4659
 3708TIP3    H211089   6.313   0.767   4.377 -1.1227  0.5098  0.8477
 3709TIP3   OH211090   0.365   6.646   5.682  0.9599  0.1360 -0.3990
 3709TIP3    H111091   0.393   6.674   5.769  0.8164 -0.5456 -0.1254
 3709TIP3    H211092   0.279   6.608   5.695  0.1706  1.5988 -1.1286
 3710TIP3   OH211093   6.427   5.180   2.523  0.1642 -0.2347  0.1688
 3710TIP3    H111094   6.412   5.124   2.598  0.0336 -0.8021 -0.2732
 3710TIP3    H211095   6.453   5.265   2.560  0.0000 -0.4792  0.8437
 3711TIP3   OH211096   1.726   1.663   5.234 -0.7499  0.1365 -0.3744
 3711TIP3    H111097   1.777   1.728   5.186  0.8452 -1.6578 -1.2578
 3711TIP3    H211098   1.724   1.586   5.176 -0.1448 -1.5657  1.7253
 3712TIP3   OH211099   4.706   0.029   0.696  0.3057 -0.4000 -0.8746
 3712TIP3    H111100   4.665   0.113   0.677 -0.3637 -0.3930  0.4633
 3712TIP3    H211101   4.761   0.046   0.772 -0.2004 -1.2560 -0.2983
 3713TIP3   OH211102   4.336   2.839   0.766  0.5454  0.0204  0.1584
 3713TIP3    H111103   4.268   2.774   0.782  0.5237 -0.3580 -1.3398
 3713TIP3    H211104   4.415   2.802   0.807 -0.1749  0.6271  2.2127
 3714TIP3   OH211105   7.191   1.441   0.284  0.4634  0.3460  0.0435
 3714TIP3    H111106   7.096   1.436   0.276  0.5055  0.4196 -0.5787
 3714TIP3    H211107   7.206   1.506   0.352  0.0683  0.4320  0.0503
 3715TIP3   OH211108   1.527   6.606   4.711  0.0162 -0.3922  0.1618
 3715TIP3    H111109   1.572   6.529   4.747 -1.7469 -2.0305 -0.9041
 3715TIP3    H211110   1.461   6.628   4.776  0.3368  0.0497  0.3392
 3716TIP3   OH211111   1.640   6.313   5.598 -0.1506  0.6184  0.1807
 3716TIP3    H111112   1.609   6.236   5.645 -1.1364  0.7528 -0.2372
 3716TIP3    H211113   1.685   6.278   5.521 -0.7490  0.4522 -0.1005
 3717TIP3   OH211114   6.998   5.640   4.304 -0.3885 -0.5182  0.0549
 3717TIP3    H111115   7.074   5.596   4.342  1.3433  0.8341 -1.6026
 3717TIP3    H211116   7.004   5.730   4.336 -2.9289 -0.9624  2.0755
 3718TIP3   OH211117   4.353   5.712   5.130 -0.0936  0.8007  0.7281
 3718TIP3    H111118   4.395   5.653   5.193  1.8400  2.1174  0.7581
 3718TIP3    H211119   4.373   5.675   5.044 -2.3566 -0.7518  0.7892
 3719TIP3   OH211120   4.545   0.947   0.931 -0.2420  0.3749  0.1440
 3719TIP3    H111121   4.528   0.990   0.847 -1.4777  0.5770  0.4763
 3719TIP3    H211122   4.521   1.013   0.996 -1.7417 -0.6495  0.6616
 3720TIP3   OH211123   0.389   6.177   2.047 -0.4531 -0.2038 -0.1462
 3720TIP3    H111124   0.475   6.219   2.060  0.1090 -1.5614  0.7584
 3720TIP3    H211125   0.326   6.242   2.079  0.4215 -0.2305  1.8094
 3721TIP3   OH211126   4.855   2.598   2.704 -0.0828 -0.1999  0.4481
 3721TIP3    H111127   4.833   2.583   2.796 -0.8679 -0.8522  0.1662
 3721TIP3    H211128   4.849   2.512   2.664  1.0606 -0.0517 -0.0609
 3722TIP3   OH211129   5.282   3.484   1.019  0.3474 -0.3644 -0.3593
 3722TIP3    H111130   5.277   3.404   1.071 -0.6225 -1.7240 -2.4323
 3722TIP3    H211131   5.229   3.466   0.942  1.2911  1.7565 -1.5925
 3723TIP3   OH211132   6.063   5.753   3.265  0.0511 -0.3849 -0.3571
 3723TIP3    H111133   6.079   5.830   3.320 -0.7821  0.1425 -0.8243
 3723TIP3    H211134   6.120   5.765   3.189  0.4493 -0.5922 -0.0910
 3724TIP3   OH211135   5.653   5.129   1.771  0.4494 -0.1914 -0.3618
 3724TIP3    H111136   5.689   5.125   1.860  1.8124  1.2865 -0.8039
 3724TIP3    H211137   5.692   5.054   1.726 -0.2539 -0.9521  0.2707
 3725TIP3   OH211138   4.789   3.809   3.729  0.1074 -0.3687 -0.3821
 3725TIP3    H111139   4.826   3.898   3.732  2.8443 -1.3979 -1.0167
 3725TIP3    H211140   4.735   3.804   3.808 -1.7896  2.4659 -1.3248
 3726TIP3   OH211141   4.073   0.409   4.441  0.2063  0.2717  0.2291
 3726TIP3    H111142   4.048   0.333   4.493 -0.4861  0.4088  0.1050
 3726TIP3    H211143   4.023   0.399   4.360 -0.0576  0.9708  0.3013
 3727TIP3   OH211144   5.208   1.927   4.158  0.1559 -0.6919  0.0739
 3727TIP3    H111145   5.231   1.994   4.094 -0.4235 -0.1086  0.4618
 3727TIP3    H211146   5.112   1.931   4.164 -0.0464 -2.6143 -1.0228
 3728TIP3   OH211147   7.126   4.376   4.627 -0.2725  0.4178  0.8428
 3728TIP3    H111148   7.060   4.445   4.618  0.6736  1.2489  0.0499
 3728TIP3    H211149   7.138   4.343   4.538 -0.1935 -0.2802  1.1094
 3729TIP3   OH211150   0.068   0.702   1.171  0.1140 -0.0403 -0.5328
 3729TIP3    H111151   0.053   0.672   1.081  0.5595  0.2447 -0.7061
 3729TIP3    H211152  -0.017   0.735   1.200 -0.2806 -1.0489 -0.4909
 3730TIP3   OH211153   6.562   0.704   1.426 -0.2136 -0.3502 -0.2030
 3730TIP3    H111154   6.477   0.684   1.387 -0.5909 -0.4185  0.6139
 3730TIP3    H211155   6.547   0.698   1.521  0.4836  0.5179 -0.0162
 3731TIP3   OH211156   6.050   2.227   1.677 -0.2147  0.1820 -0.4979
 3731TIP3    H111157   5.978   2.289   1.686 -0.1371  0.0350  1.5015
 3731TIP3    H211158   6.129   2.279   1.689 -0.1043 -0.1272  0.1310
 3732TIP3   OH211159   4.646   6.371   1.263 -0.0315 -0.0823  0.1587
 3732TIP3    H111160   4.571   6.388   1.319  0.5034  0.7493  0.6467
 3732TIP3    H211161   4.666   6.456   1.223  1.9312  0.2256  1.6621
 3733TIP3   OH211162   0.648   1.602   2.644  0.1855 -0.1471  0.0644
 3733TIP3    H111163   0.703   1.664   2.597  0.0406 -0.8513 -1.0982
 3733TIP3    H211164   0.644   1.635   2.733 -1.0924  2.3192 -0.8313
 3734TIP3   OH211165   1.402   4.231   0.907 -0.6255 -0.3189 -0.0424
 3734TIP3    H111166   1.321   4.180   0.914 -0.0901 -1.1332  0.3243
 3734TIP3    H211167   1.472   4.168   0.922  0.0162  0.7655  1.8973
 3735TIP3   OH211168   4.488   4.305   5.671  0.6871  0.2402  0.3804
 3735TIP3    H111169   4.418   4.266   5.723  1.3698 -1.4232  0.0972
 3735TIP3    H211170   4.443   4.355   5.603 -0.2619 -1.5137 -0.3255
 3736TIP3   OH211171   2.726   0.685   2.876 -0.1186  0.7823  0.0235
 3736TIP3    H111172   2.704   0.766   2.831 -1.0523  1.0468  0.9088
 3736TIP3    H211173   2.810   0.703   2.919  0.7537  0.5369 -1.5344
 3737TIP3   OH211174   2.248   3.068   4.091  0.5457  0.2704  0.1161
 3737TIP3    H111175   2.326   3.121   4.078  0.3024  0.4374 -0.7468
 3737TIP3    H211176   2.175   3.130   4.087  0.3507  0.0795  0.6351
 3738TIP3   OH211177   2.732   6.750   5.251 -0.4914  0.1778 -0.2388
 3738TIP3    H111178   2.715   6.763   5.344  0.7288  0.5755 -0.0454
 3738TIP3    H211179   2.812   6.697   5.249  1.7302  3.2687 -0.9720
 3739TIP3   OH211180   4.247   3.408   5.361 -0.0081 -0.3944 -0.3559
 3739TIP3    H111181   4.152   3.418   5.361  0.0912  0.7193 -0.7207
 3739TIP3    H211182   4.264   3.344   5.292 -0.2491  2.8479 -3.7372
 3740TIP3   OH211183   5.875   1.524   5.507  0.0201 -0.0032  0.0498
 3740TIP3    H111184   5.962   1.503   5.540  0.6281  2.0774 -0.0746
 3740TIP3    H211185   5.844   1.443   5.467  0.5163 -1.7370  2.9305
 3741TIP3   OH211186   5.815   1.583   4.192 -0.6019 -0.2628  0.5974
 3741TIP3    H111187   5.801   1.574   4.286 -1.7620  1.4742  0.6519
 3741TIP3    H211188   5.771   1.665   4.170  3.4328  1.8587 -0.6459
 3742TIP3   OH211189   5.105   4.247   4.330  0.2588 -0.1617  0.2317
 3742TIP3    H111190   5.180   4.198   4.365  0.8956  0.6101 -0.0027
 3742TIP3    H211191   5.090   4.211   4.243 -0.0729 -0.7692  0.5377
 3743TIP3   OH211192   4.948   3.405   2.126  0.0199  0.1648 -0.2378
 3743TIP3    H111193   4.968   3.345   2.198  0.8914  0.8523  0.0986
 3743TIP3    H211194   4.852   3.402   2.119 -0.0085 -0.6441  0.3008
 3744TIP3   OH211195   4.313   4.222   1.768 -0.0460  0.5791  0.1888
 3744TIP3    H111196   4.356   4.258   1.846 -0.2156  1.7208 -0.2207
 3744TIP3    H211197   4.220   4.230   1.787 -0.0884 -0.1898  0.3228
 3745TIP3   OH211198   6.998   4.433   4.064  0.0177 -0.3948  0.1162
 3745TIP3    H111199   6.976   4.492   4.136  2.4982 -1.1785  1.6210
 3745TIP3    H211200   6.973   4.482   3.985 -0.6623  1.4474  1.4032
 3746TIP3   OH211201   4.313   2.760   3.839  0.5942  0.6758  0.4350
 3746TIP3    H111202   4.386   2.797   3.890  1.5546 -0.1473 -0.3081
 3746TIP3    H211203   4.341   2.671   3.819 -0.5193  0.4364 -0.0907
 3747TIP3   OH211204   3.303   0.358   4.100 -0.3371 -0.4224  0.6426
 3747TIP3    H111205   3.236   0.412   4.142 -0.3207 -0.3831  0.6184
 3747TIP3    H211206   3.314   0.283   4.159 -0.5093 -0.5038  0.5719
 3748TIP3   OH211207   5.836   1.103   1.869  0.4217  0.6302 -0.3682
 3748TIP3    H111208   5.788   1.050   1.933  0.5933  2.8447  1.7217
 3748TIP3    H211209   5.832   1.192   1.903  1.7044  1.7220 -2.7891
 3749TIP3   OH211210   6.455   5.123   5.773 -0.1554  0.3003  0.0594
 3749TIP3    H111211   6.435   5.165   5.689  2.2085 -1.3389 -1.4674
 3749TIP3    H211212   6.484   5.194   5.830 -0.7175  1.3062 -0.8775
 3750TIP3   OH211213   2.632   4.835   5.031 -0.5295 -0.4448  0.2314
 3750TIP3    H111214   2.641   4.929   5.050  1.0702 -0.1258 -1.7536
 3750TIP3    H211215   2.709   4.795   5.070  0.7337 -0.3371 -2.0164
 3751TIP3   OH211216   3.088   5.315   1.513 -0.8736 -0.1468  0.3361
 3751TIP3    H111217   3.098   5.295   1.606 -0.0150  2.4422  0.8841
 3751TIP3    H211218   3.164   5.273   1.471  1.0884  2.0134  1.4751
 3752TIP3   OH211219   5.121   2.040   4.603 -0.4075  0.6463 -0.2785
 3752TIP3    H111220   5.194   2.012   4.547  0.3148 -1.4915  1.5401
 3752TIP3    H211221   5.162   2.097   4.668 -0.7690  1.1017 -0.4451
 3753TIP3   OH211222   3.448   1.799   1.844 -0.0651  0.2561  0.7266
 3753TIP3    H111223   3.472   1.873   1.788  0.3384 -0.2339  0.2568
 3753TIP3    H211224   3.509   1.805   1.918 -0.8212  1.1084  1.3171
 3754TIP3   OH211225   1.075   2.208   4.093 -0.2680 -0.8048 -0.0043
 3754TIP3    H111226   1.039   2.126   4.125 -0.1065 -0.1283  2.0573
 3754TIP3    H211227   1.008   2.242   4.034 -1.3749 -1.3270  0.9027
 3755TIP3   OH211228   1.537   3.572   3.030  0.5139  0.1217 -0.4582
 3755TIP3    H111229   1.595   3.552   3.103 -0.9288 -1.5792  0.2738
 3755TIP3    H211230   1.462   3.617   3.070 -1.6875 -3.3284 -0.2775
 3756TIP3   OH211231   3.402   3.659   0.017  0.3224 -0.2245 -0.3954
 3756TIP3    H111232   3.427   3.625   0.103  1.7582  1.1095 -0.2257
 3756TIP3    H211233   3.481   3.649  -0.036 -0.7360 -1.6061 -1.7760
 3757TIP3   OH211234   5.414   0.829   2.332  0.5208 -0.0195  1.2039
 3757TIP3    H111235   5.502   0.792   2.335  0.7936  0.6307  1.5996
 3757TIP3    H211236   5.369   0.780   2.263  1.4416  0.1824  0.4436
 3758TIP3   OH211237   2.885   5.020   3.095 -0.7734  0.2332 -0.1895
 3758TIP3    H111238   2.967   5.005   3.048  0.2041  1.0177  1.2031
 3758TIP3    H211239   2.817   5.011   3.028  0.4828  0.2511 -1.5164
 3759TIP3   OH211240   2.470   5.595   2.352  0.1198  0.0744 -0.1185
 3759TIP3    H111241   2.500   5.634   2.270  1.8445  0.8245  0.8165
 3759TIP3    H211242   2.400   5.535   2.326 -1.6168  2.6293 -1.7917
 3760TIP3   OH211243   0.872   2.117   5.781  0.1818  0.6443  0.0811
 3760TIP3    H111244   0.802   2.055   5.800  0.5017  0.3209  0.2080
 3760TIP3    H211245   0.918   2.080   5.706  0.1747  0.8912 -0.0466
 3761TIP3   OH211246   1.192   1.173   3.735 -0.4828 -0.1297  0.1407
 3761TIP3    H111247   1.155   1.099   3.685 -1.5547  0.6369 -0.2454
 3761TIP3    H211248   1.168   1.154   3.826 -1.1737 -0.0212 -0.0154
 3762TIP3   OH211249   3.199   2.957   5.665 -0.0275  0.0664  0.0739
 3762TIP3    H111250   3.256   2.970   5.740  0.7091  0.3350 -0.5183
 3762TIP3    H211251   3.111   2.948   5.702  0.1359  1.5532  0.8791
 3763TIP3   OH211252   5.152   5.302   2.000 -0.3815 -0.1560 -0.0991
 3763TIP3    H111253   5.137   5.354   1.922  2.6500 -0.6317 -1.1297
 3763TIP3    H211254   5.217   5.351   2.050  1.1939 -1.9974 -0.2097
 3764TIP3   OH211255   1.263   3.524   2.785  0.4038 -0.4790  0.0506
 3764TIP3    H111256   1.212   3.508   2.864  0.1257 -1.0651 -0.2402
 3764TIP3    H211257   1.234   3.456   2.724  0.4980  0.0624 -0.6078
 3765TIP3   OH211258   4.185   0.449   0.314  0.4586 -0.2277 -0.4786
 3765TIP3    H111259   4.271   0.488   0.297 -0.8687  2.3778 -1.8167
 3765TIP3    H211260   4.155   0.491   0.395  0.0250 -0.3640 -0.5653
 3766TIP3   OH211261   0.320   5.698   2.813  0.0774  0.1207 -0.4308
 3766TIP3    H111262   0.354   5.697   2.724  0.0996 -1.4734 -0.4195
 3766TIP3    H211263   0.225   5.692   2.803  0.0554  0.3232 -0.3528
 3767TIP3   OH211264   0.447   4.468   5.255 -0.4929  0.5338  0.3625
 3767TIP3    H111265   0.480   4.378   5.251  1.5565  1.2686 -0.5224
 3767TIP3    H211266   0.473   4.500   5.341 -2.1635 -0.0042  1.1139
 3768TIP3   OH211267   5.550   5.108   0.924 -0.2430  0.1895  0.4073
 3768TIP3    H111268   5.506   5.129   1.006  0.3516 -0.6882  0.9661
 3768TIP3    H211269   5.643   5.113   0.945 -0.0855 -0.6826 -0.0486
 3769TIP3   OH211270   6.288   4.855   2.701 -0.1052 -0.2689  0.4837
 3769TIP3    H111271   6.220   4.871   2.636  0.2397 -2.0681 -0.3788
 3769TIP3    H211272   6.297   4.938   2.747 -1.7757  0.4655 -0.4185
 3770TIP3   OH211273   6.552   0.924   3.437 -0.0468  0.0430  0.1653
 3770TIP3    H111274   6.512   0.923   3.350 -0.0709  0.2087  0.1740
 3770TIP3    H211275   6.587   1.012   3.446 -0.0113  0.0144  0.3096
 3771TIP3   OH211276   0.116   5.000   2.755  0.5488 -0.5033 -0.2249
 3771TIP3    H111277   0.177   4.952   2.698  0.3475  0.3302 -1.1616
 3771TIP3    H211278   0.033   4.997   2.709  0.3402  0.0492  0.1036
 3772TIP3   OH211279   4.050   3.012   0.091 -0.0658 -0.0834 -0.2289
 3772TIP3    H111280   3.978   2.953   0.113  0.5293 -1.3462 -1.4833
 3772TIP3    H211281   4.128   2.967   0.123  0.3259  0.4137 -0.4661
 3773TIP3   OH211282   5.060   3.829   4.068  0.1846  0.2620  0.1221
 3773TIP3    H111283   5.154   3.819   4.087  0.1063 -0.7426  0.0241
 3773TIP3    H211284   5.035   3.745   4.030 -1.1885 -0.2171  1.9442
 3774TIP3   OH211285   1.338   1.022   2.148 -0.0770 -0.6722 -0.0677
 3774TIP3    H111286   1.243   1.017   2.136 -0.3735 -2.3607  2.2337
 3774TIP3    H211287   1.370   0.938   2.115  0.5930 -0.2358 -0.5459
 3775TIP3   OH211288   5.247   0.200   5.161  0.1933  0.4315  0.1432
 3775TIP3    H111289   5.246   0.258   5.238 -0.1708 -1.0174  1.2806
 3775TIP3    H211290   5.211   0.117   5.194 -2.4793  0.5126 -2.2156
 3776TIP3   OH211291   4.031   4.207   1.809  0.0302  0.1616  0.3376
 3776TIP3    H111292   4.002   4.263   1.881  0.6801  1.9680 -0.7499
 3776TIP3    H211293   3.972   4.230   1.737 -1.7089 -2.8095  0.6576
 3777TIP3   OH211294   3.713   5.558   0.316 -0.4954  0.3646  0.1051
 3777TIP3    H111295   3.686   5.538   0.406 -1.2349 -0.6024 -0.3106
 3777TIP3    H211296   3.703   5.475   0.269 -1.1446  1.0979 -1.1059
 3778TIP3   OH211297   4.246   3.975   4.921 -0.7016  0.2178  0.1088
 3778TIP3    H111298   4.249   3.993   4.827 -0.0250  0.5159  0.1781
 3778TIP3    H211299   4.248   3.879   4.926 -0.3499  0.2042 -0.1783
 3779TIP3   OH211300   2.113   4.741   3.752 -0.0689  0.2539  0.2418
 3779TIP3    H111301   2.042   4.801   3.772  0.5189  0.9784  0.1859
 3779TIP3    H211302   2.084   4.694   3.674 -0.9508 -0.2436  0.8486
 3780TIP3   OH211303   3.825   4.232   3.727  0.7330  0.1281 -0.1758
 3780TIP3    H111304   3.780   4.316   3.731  1.4158  0.5346 -0.6828
 3780TIP3    H211305   3.914   4.252   3.755  1.0056 -0.3375 -0.6849
 3781TIP3   OH211306   1.337   4.940   2.361  0.2043 -0.2494  0.1066
 3781TIP3    H111307   1.320   4.846   2.358 -0.7982 -0.0660 -1.2810
 3781TIP3    H211308   1.430   4.948   2.343  0.9448 -1.0843  3.1338
 3782TIP3   OH211309   1.613   1.259   1.783 -0.2940  0.7909  0.1569
 3782TIP3    H111310   1.545   1.241   1.718  0.4266 -0.1342 -0.3648
 3782TIP3    H211311   1.573   1.234   1.866  0.2191 -2.2113 -0.4027
 3783TIP3   OH211312   1.873   0.483   1.846 -0.1354 -0.0104 -0.1094
 3783TIP3    H111313   1.960   0.505   1.879 -0.9504  0.2111  2.1327
 3783TIP3    H211314   1.887   0.455   1.756  2.3325 -0.6497  0.4020
 3784TIP3   OH211315   4.120   3.362   2.378 -0.1497 -0.0120 -0.2831
 3784TIP3    H111316   4.080   3.308   2.445 -3.0321  1.3198 -0.7794
 3784TIP3    H211317   4.212   3.369   2.404 -0.6318 -1.5683  2.0980
 3785TIP3   OH211318   5.226   4.010   5.286  0.3666  0.1599  0.1571
 3785TIP3    H111319   5.227   3.983   5.194  4.1500  2.2240 -0.6283
 3785TIP3    H211320   5.140   4.050   5.299 -0.7257 -1.2602 -2.0704
 3786TIP3   OH211321   4.558   1.272   0.985  0.5223 -0.3054 -0.4638
 3786TIP3    H111322   4.610   1.301   0.910 -0.2497  2.4703 -0.0117
 3786TIP3    H211323   4.612   1.294   1.062 -0.6877  1.3822 -0.0498
 3787TIP3   OH211324   5.686   4.210   2.529 -0.0601 -0.2467 -0.0749
 3787TIP3    H111325   5.614   4.150   2.508 -0.6543  0.4849 -0.1481
 3787TIP3    H211326   5.673   4.285   2.472 -1.0722  1.2818  2.0640
 3788TIP3   OH211327   3.050   0.649   5.211 -0.1294  0.1864  0.0695
 3788TIP3    H111328   3.095   0.627   5.293 -1.7089 -2.3637  0.3500
 3788TIP3    H211329   3.103   0.719   5.173  0.9922  1.0377  2.9587
 3789TIP3   OH211330   6.553   1.353   1.705 -0.2363  0.2055 -0.1935
 3789TIP3    H111331   6.562   1.377   1.613  0.4797  3.6667  0.6249
 3789TIP3    H211332   6.527   1.261   1.704  0.9083 -0.2195 -3.7885
 3790TIP3   OH211333   0.565   6.638   1.186  0.0654 -0.3947 -0.0100
 3790TIP3    H111334   0.539   6.585   1.261 -1.0303  0.6013  0.3543
 3790TIP3    H211335   0.599   6.575   1.122  0.7209 -1.2933  1.1859
 3791TIP3   OH211336   1.703   6.517   0.442  0.2250 -0.3269 -0.5440
 3791TIP3    H111337   1.610   6.541   0.437  0.1632 -0.4312  0.0223
 3791TIP3    H211338   1.706   6.447   0.507  0.7957  0.1646 -0.0327
 3792TIP3   OH211339   0.635   6.309   2.035 -0.1636 -0.1102  0.1471
 3792TIP3    H111340   0.662   6.396   2.006 -0.4033  0.2706  1.0345
 3792TIP3    H211341   0.696   6.286   2.105  1.5102 -1.7652 -1.7243
 3793TIP3   OH211342   1.074   0.135   0.379 -0.0363  0.2327  0.3958
 3793TIP3    H111343   1.009   0.065   0.381 -3.4511  3.0414 -0.7622
 3793TIP3    H211344   1.107   0.135   0.289 -0.5037  0.4534  0.2200
 3794TIP3   OH211345   5.128   5.622   0.264  0.0821 -0.1024  0.5641
 3794TIP3    H111346   5.203   5.562   0.266 -0.7141 -1.2987 -1.6981
 3794TIP3    H211347   5.063   5.582   0.321  0.2700 -0.3797  0.5853
 3795TIP3   OH211348   0.733   1.810   2.494 -0.3847  0.0257  0.0991
 3795TIP3    H111349   0.666   1.873   2.467 -1.3366 -0.5463  1.0734
 3795TIP3    H211350   0.786   1.797   2.415 -0.5610  1.5341 -0.3029
 3796TIP3   OH211351   7.201   2.197   4.031  1.0884  0.0895  0.5379
 3796TIP3    H111352   7.277   2.165   4.079  1.1125 -0.1993  0.3121
 3796TIP3    H211353   7.130   2.140   4.058  1.4131 -1.0624 -0.8785
 3797TIP3   OH211354   3.649   1.728   0.733 -0.0052  0.4967  0.0906
 3797TIP3    H111355   3.596   1.672   0.790  2.4322  0.2829  2.3248
 3797TIP3    H211356   3.636   1.816   0.766 -0.3006  0.6788 -0.4949
 3798TIP3   OH211357   4.845   2.453   5.705 -0.5201  0.4529  0.2772
 3798TIP3    H111358   4.845   2.484   5.614  1.6320 -0.6561 -0.1751
 3798TIP3    H211359   4.786   2.378   5.705  0.9701 -0.7851 -0.7525
 3799TIP3   OH211360   1.432   1.955   1.649 -0.3259  0.6593 -0.6737
 3799TIP3    H111361   1.460   2.042   1.623  0.8806  0.2532 -0.8019
 3799TIP3    H211362   1.336   1.959   1.647 -0.3464  2.4789  1.0869
 3800TIP3   OH211363   3.285   2.037   3.807  0.7945 -0.2772 -0.0544
 3800TIP3    H111364   3.297   1.942   3.811 -3.9660 -1.1605 -1.0414
 3800TIP3    H211365   3.284   2.065   3.899 -3.6132 -2.4060  0.8159
 3801TIP3   OH211366   5.335   0.236   0.506  0.1269  0.3568  0.3742
 3801TIP3    H111367   5.269   0.207   0.444  0.7744 -1.4119  0.4313
 3801TIP3    H211368   5.292   0.305   0.557 -2.1661 -1.5864  1.2797
 3802TIP3   OH211369   2.789   5.225   0.695  0.0775 -0.2891  0.6503
 3802TIP3    H111370   2.779   5.166   0.621  1.9698 -0.1233  0.2281
 3802TIP3    H211371   2.732   5.189   0.763 -0.7188 -1.1484 -0.4504
 3803TIP3   OH211372   2.954   4.923   2.670 -0.0538  0.2633  0.2074
 3803TIP3    H111373   2.988   4.978   2.599  1.4269  0.1533  0.7834
 3803TIP3    H211374   2.868   4.896   2.641  0.8801 -0.5391 -1.9814
 3804TIP3   OH211375   5.104   2.279   5.047 -0.4452  0.4817 -0.1973
 3804TIP3    H111376   5.096   2.295   5.141  1.9651  0.0552  0.1667
 3804TIP3    H211377   5.138   2.189   5.041  3.4179  1.7978 -1.1268
 3805TIP3   OH211378   2.502   2.321   5.822 -1.0022 -0.1492 -0.7614
 3805TIP3    H111379   2.536   2.231   5.825  1.8898  0.8194 -1.4276
 3805TIP3    H211380   2.456   2.326   5.738 -0.5783 -0.8020 -1.0449
 3806TIP3   OH211381   5.592   1.037   1.431  0.0281 -0.0423 -0.0207
 3806TIP3    H111382   5.629   0.959   1.472 -2.9246 -1.6311 -0.0932
 3806TIP3    H211383   5.664   1.074   1.381  2.4389 -0.8024  2.5960
 3807TIP3   OH211384   0.042   0.593   0.899 -0.0200 -0.2577 -0.2036
 3807TIP3    H111385   0.030   0.640   0.816 -1.3805 -0.3503 -0.0905
 3807TIP3    H211386   0.051   0.501   0.873  0.9789 -0.1322 -0.3248
 3808TIP3   OH211387   5.200   2.226   2.193 -0.0332 -0.2913  0.2761
 3808TIP3    H111388   5.180   2.199   2.103 -0.9019 -1.0400  0.6801
 3808TIP3    H211389   5.263   2.297   2.183 -2.0784  1.4689 -1.0556
 3809TIP3   OH211390   3.895   1.291   3.895 -0.4207  0.1076 -0.4023
 3809TIP3    H111391   3.913   1.233   3.821  1.3913 -0.0903  0.1507
 3809TIP3    H211392   3.847   1.235   3.957  1.0792 -0.7730  0.0133
 3810TIP3   OH211393   5.944   0.334   3.137 -0.2438 -0.6070 -0.0488
 3810TIP3    H111394   5.979   0.408   3.187 -1.2386 -0.3364  0.2643
 3810TIP3    H211395   5.971   0.257   3.186 -0.3680 -0.3860  0.3670
 3811TIP3   OH211396   5.260   4.690   4.493 -0.3513 -0.3064  0.8008
 3811TIP3    H111397   5.335   4.747   4.508  1.1628 -1.9198 -0.1151
 3811TIP3    H211398   5.300   4.604   4.474 -2.3423 -0.7645 -1.7616
 3812TIP3   OH211399   0.728   4.080   4.189 -0.3814 -0.4017 -0.1554
 3812TIP3    H111400   0.664   4.091   4.260  2.4123  2.6962  2.1884
 3812TIP3    H211401   0.692   4.131   4.117 -0.3656  2.0219  1.4162
 3813TIP3   OH211402   3.859   2.227   2.037 -0.2473 -0.4826 -0.1627
 3813TIP3    H111403   3.790   2.182   1.986 -0.5218  0.0458 -0.2630
 3813TIP3    H211404   3.811   2.271   2.107  0.1821 -1.6616  0.9128
 3814TIP3   OH211405   1.387   3.451   4.080  0.0453 -0.1011  0.5654
 3814TIP3    H111406   1.380   3.504   4.160  0.2687 -0.3752  0.7705
 3814TIP3    H211407   1.368   3.512   4.009 -3.6394 -0.5468  0.9589
 3815TIP3   OH211408   1.664   3.434   3.633 -0.2982 -0.2650 -0.0335
 3815TIP3    H111409   1.724   3.482   3.690 -0.5613  0.0267  0.0052
 3815TIP3    H211410   1.585   3.489   3.631 -0.2900 -0.2665 -0.6773
 3816TIP3   OH211411   3.476   3.677   5.123 -0.3749  0.3980  0.2599
 3816TIP3    H111412   3.403   3.717   5.076  0.0243  0.3862 -0.3802
 3816TIP3    H211413   3.462   3.583   5.113 -0.5971  0.3845  0.6562
 3817TIP3   OH211414   1.985   5.845   5.455 -0.1516  0.4768 -0.7056
 3817TIP3    H111415   1.963   5.752   5.448 -0.8030  0.6970 -1.7413
 3817TIP3    H211416   1.908   5.891   5.424 -0.3109  1.4225  0.9982
 3818TIP3   OH211417   0.916   1.280   1.231  0.3028 -0.2597  0.1684
 3818TIP3    H111418   0.835   1.252   1.274  0.9881 -0.8632  1.1152
 3818TIP3    H211419   0.889   1.353   1.176 -0.8998 -0.4909  0.4026
 3819TIP3   OH211420   7.072   4.592   1.678 -0.2081  0.1125 -0.1705
 3819TIP3    H111421   7.114   4.561   1.599 -0.4295  0.4664 -0.4306
 3819TIP3    H211422   7.051   4.513   1.727  0.8775 -0.0605  0.0295
 3820TIP3   OH211423   2.062   0.689   2.679  0.5697  0.2322 -0.7162
 3820TIP3    H111424   2.114   0.764   2.653  1.1434 -0.8734 -3.0275
 3820TIP3    H211425   2.035   0.649   2.596 -0.3713 -1.6505  0.4346
 3821TIP3   OH211426   1.340   5.720   1.287  0.4044 -0.0773  0.4677
 3821TIP3    H111427   1.416   5.673   1.252  0.0157  0.8059 -1.7421
 3821TIP3    H211428   1.297   5.755   1.209 -2.6777 -1.1179  1.5808
 3822TIP3   OH211429   6.890   1.788   3.068  0.0693 -0.3914  0.4276
 3822TIP3    H111430   6.823   1.731   3.031  0.5411 -0.1001 -0.9625
 3822TIP3    H211431   6.959   1.728   3.097 -0.3486 -0.6335  0.9373
 3823TIP3   OH211432   4.462   0.578   4.470 -0.0366  0.4643  0.1601
 3823TIP3    H111433   4.511   0.531   4.538  0.4250  1.6015  0.6496
 3823TIP3    H211434   4.372   0.578   4.501 -0.2281 -0.8804 -0.3113
 3824TIP3   OH211435   0.580   6.415   2.384 -0.5030 -0.2565  0.0348
 3824TIP3    H111436   0.650   6.371   2.336  0.4934  1.2957 -0.0080
 3824TIP3    H211437   0.499   6.379   2.348  0.2588 -1.1994 -0.7750
 3825TIP3   OH211438   2.034   0.050   3.639  0.0612 -0.0026 -0.0563
 3825TIP3    H111439   1.959   0.066   3.697 -0.4337  0.3383 -0.7745
 3825TIP3    H211440   2.098   0.006   3.695 -0.4269  0.2632  0.7310
 3826TIP3   OH211441   0.352   5.241   3.068  0.4229 -0.6542  0.1756
 3826TIP3    H111442   0.369   5.276   3.155 -1.4801 -0.8585  0.6615
 3826TIP3    H211443   0.392   5.154   3.069  2.5001  0.2186 -0.0197
 3827TIP3   OH211444   4.064   2.829   1.575 -0.5504 -0.5996  0.3152
 3827TIP3    H111445   4.000   2.803   1.508 -1.5172 -2.8019  1.9641
 3827TIP3    H211446   4.053   2.924   1.582 -2.5967 -0.7207 -0.5076
 3828TIP3   OH211447   4.529   5.545   3.365 -0.2544  0.1056  0.0569
 3828TIP3    H111448   4.519   5.629   3.320  0.6875 -0.4428 -1.2516
 3828TIP3    H211449   4.475   5.484   3.314  1.2704 -0.6468 -0.7005
 3829TIP3   OH211450   2.327   5.079   4.184  0.6090  0.1657 -0.7443
 3829TIP3    H111451   2.244   5.107   4.146 -0.1904 -1.3589 -0.2317
 3829TIP3    H211452   2.361   5.014   4.123 -0.3497 -1.7977  0.6988
 3830TIP3   OH211453   3.596   4.658   4.838 -0.0323 -0.4140 -0.1695
 3830TIP3    H111454   3.585   4.614   4.753  0.5360 -0.8141 -0.0388
 3830TIP3    H211455   3.525   4.623   4.892 -1.0557  0.6298 -0.7849
 3831TIP3   OH211456   4.099   1.447   2.905 -0.3312 -0.5220 -0.3231
 3831TIP3    H111457   4.113   1.540   2.920 -1.4200 -0.5917  1.4779
 3831TIP3    H211458   4.185   1.407   2.920 -0.0833  0.0932 -0.0803
 3832TIP3   OH211459   6.822   3.337   3.050 -0.1612 -0.1872  0.3505
 3832TIP3    H111460   6.743   3.287   3.028 -1.2137  1.9473 -1.0833
 3832TIP3    H211461   6.862   3.357   2.966  1.1158  0.0184  0.9900
 3833TIP3   OH211462   0.768   6.155   3.211 -0.0801  0.3025 -0.6994
 3833TIP3    H111463   0.831   6.197   3.152 -0.3489 -1.9519 -2.7931
 3833TIP3    H211464   0.696   6.218   3.218  0.6946  1.3142 -1.4830
 3834TIP3   OH211465   6.509   3.661   4.797 -0.1411  0.3090  0.5327
 3834TIP3    H111466   6.535   3.715   4.872  3.0232 -0.9041  0.4582
 3834TIP3    H211467   6.459   3.589   4.835  0.8525  0.0697  1.4329
 3835TIP3   OH211468   0.440   1.143   1.452 -0.0102  0.0811  0.1115
 3835TIP3    H111469   0.443   1.058   1.497 -0.0995  0.3965  0.7176
 3835TIP3    H211470   0.352   1.177   1.470 -0.0106  0.2600 -0.2149
 3836TIP3   OH211471   0.301   3.681   4.535 -0.6486  0.0922  0.2525
 3836TIP3    H111472   0.215   3.669   4.495 -1.6724 -1.3463  2.6818
 3836TIP3    H211473   0.338   3.593   4.539 -0.1472  0.3401  1.4883
 3837TIP3   OH211474   1.325   6.064   3.850 -0.0982  0.5151  0.2377
 3837TIP3    H111475   1.243   6.072   3.801 -0.0950 -2.5113 -0.5029
 3837TIP3    H211476   1.303   6.007   3.924  0.9292  1.3241  1.2111
 3838TIP3   OH211477   6.525   1.303   1.438 -0.5818  0.5154 -0.0818
 3838TIP3    H111478   6.558   1.362   1.369 -0.6070  0.9011  0.2310
 3838TIP3    H211479   6.542   1.215   1.405 -0.7358  0.6946 -0.6551
 3839TIP3   OH211480   2.894   2.214   1.612 -0.5983 -0.1611 -0.0725
 3839TIP3    H111481   2.881   2.227   1.519  2.3308  1.8270 -0.3311
 3839TIP3    H211482   2.806   2.203   1.648 -1.9393  0.8972 -2.7983
 3840TIP3   OH211483   3.411   2.094   4.986 -0.4662 -0.3459 -0.2659
 3840TIP3    H111484   3.411   2.004   5.017  0.5078 -0.1457  0.3861
 3840TIP3    H211485   3.495   2.104   4.940 -0.4328  0.2994 -0.0850
 3841TIP3   OH211486   2.182   2.166   2.976 -0.1579  0.1877 -0.2673
 3841TIP3    H111487   2.210   2.204   2.893 -1.1304  0.3328 -0.5375
 3841TIP3    H211488   2.096   2.128   2.958  0.5284 -1.6544  0.1322
 3842TIP3   OH211489   0.818   4.905   0.528 -0.2137  0.1354 -0.1206
 3842TIP3    H111490   0.724   4.917   0.511 -0.0935 -0.3073 -1.1525
 3842TIP3    H211491   0.859   4.986   0.500 -0.0921 -0.3462 -1.3768
 3843TIP3   OH211492   1.967   5.697   2.616  0.0339 -0.4119 -0.0436
 3843TIP3    H111493   2.006   5.621   2.573 -1.6734 -0.9490 -0.7198
 3843TIP3    H211494   1.879   5.704   2.578  0.5446  2.6724 -1.0064
 3844TIP3   OH211495   0.702   0.073   0.608  0.4300  0.1727 -0.0873
 3844TIP3    H111496   0.753   0.147   0.640 -1.9335  1.0908  1.8251
 3844TIP3    H211497   0.684   0.020   0.686 -0.9234 -0.4859 -0.7992
 3845TIP3   OH211498   4.063   2.628   4.391  0.0671  0.0749  1.0494
 3845TIP3    H111499   4.107   2.641   4.475  1.9092  0.9404  0.0219
 3845TIP3    H211500   4.067   2.713   4.348 -0.0968 -0.5367 -0.2331
 3846TIP3   OH211501   2.622   5.390   5.161 -0.1674  0.2232  0.4708
 3846TIP3    H111502   2.632   5.421   5.072  1.3339  1.1813  0.9376
 3846TIP3    H211503   2.671   5.308   5.164  0.4263  0.5799  0.6006
 3847TIP3   OH211504   4.769   0.824   2.588  0.3825  0.0718 -0.2441
 3847TIP3    H111505   4.817   0.868   2.518  0.3286  0.2032 -0.1986
 3847TIP3    H211506   4.677   0.843   2.570  0.3866  0.4089  0.0631
 3848TIP3   OH211507   4.246   3.738   3.047  0.4110  0.5146  0.0647
 3848TIP3    H111508   4.277   3.753   3.136 -1.4079  0.4354  0.7716
 3848TIP3    H211509   4.198   3.655   3.053 -2.0022  1.7985 -0.3077
 3849TIP3   OH211510   2.555   0.952   1.700  0.4497 -0.3835 -0.0886
 3849TIP3    H111511   2.559   1.021   1.767 -1.2277  2.1967 -2.3969
 3849TIP3    H211512   2.625   0.975   1.639 -0.8915  0.1117 -1.5135
 3850TIP3   OH211513   2.655   1.356   3.955  0.7985  0.4866  0.3820
 3850TIP3    H111514   2.642   1.263   3.973  1.7863  0.5294  1.3897
 3850TIP3    H211515   2.665   1.361   3.860  2.6534 -0.6999  0.4781
 3851TIP3   OH211516   0.361   5.635   5.540 -0.3809 -0.2248 -0.0329
 3851TIP3    H111517   0.357   5.567   5.607 -0.2607 -0.7006 -0.5049
 3851TIP3    H211518   0.433   5.609   5.483  1.4266  1.6716  1.2336
 3852TIP3   OH211519   1.664   4.551   2.409  0.2386 -0.5460  0.5897
 3852TIP3    H111520   1.747   4.572   2.451  1.4180  0.6992 -2.1025
 3852TIP3    H211521   1.636   4.634   2.370 -2.0513 -1.0585  1.0089
 3853TIP3   OH211522   6.791   1.876   3.597  0.8589  0.4972  0.5882
 3853TIP3    H111523   6.861   1.921   3.643  1.0089  1.4123 -0.5039
 3853TIP3    H211524   6.834   1.799   3.559  0.9368  0.2562  1.1441
 3854TIP3   OH211525   1.652   3.467   4.643  0.0596  0.8059  0.7456
 3854TIP3    H111526   1.746   3.460   4.658  0.3617  0.9224 -0.8994
 3854TIP3    H211527   1.616   3.387   4.680  1.1342 -0.4314 -0.7236
 3855TIP3   OH211528   3.496   2.601   0.786  0.5038 -0.1877  0.1343
 3855TIP3    H111529   3.495   2.661   0.861 -0.8208 -0.0511  0.0464
 3855TIP3    H211530   3.403   2.579   0.772  0.9397 -2.4131  0.2862
 3856TIP3   OH211531   6.246   4.771   5.272 -0.1556  0.0494  0.5517
 3856TIP3    H111532   6.315   4.711   5.244 -0.6411 -0.3541  0.2069
 3856TIP3    H211533   6.269   4.794   5.362 -0.2786 -1.1352  0.8987
 3857TIP3   OH211534   2.727   5.486   1.228 -0.6025 -0.6605  0.0520
 3857TIP3    H111535   2.809   5.532   1.247 -0.0842 -1.1333 -0.9514
 3857TIP3    H211536   2.659   5.552   1.242  0.1974  0.9282 -2.6581
 3858TIP3   OH211537   1.845   2.085   0.003  0.3982 -0.3820 -0.0378
 3858TIP3    H111538   1.894   2.167  -0.005 -0.5304  0.0903 -1.2817
 3858TIP3    H211539   1.789   2.098   0.080  0.9135 -0.2269  0.3193
 3859TIP3   OH211540   6.766   4.048   3.114 -0.0851 -0.4074  0.0997
 3859TIP3    H111541   6.837   4.039   3.177  0.7749  3.3136 -0.0754
 3859TIP3    H211542   6.687   4.054   3.167  0.2052 -0.8364  0.5798
 3860TIP3   OH211543   2.972   2.949   0.067 -0.1338  0.7153  0.3729
 3860TIP3    H111544   3.028   2.925   0.141 -1.4625 -0.1210  1.1560
 3860TIP3    H211545   2.925   2.868   0.046  0.6795  0.7459 -1.8577
 3861TIP3   OH211546   5.585   3.245   1.472 -0.6668  0.0889  0.2125
 3861TIP3    H111547   5.570   3.187   1.547  2.2737 -0.2890  0.6290
 3861TIP3    H211548   5.622   3.324   1.510 -0.2674  0.3730 -0.7486
 3862TIP3   OH211549   2.772   2.086   0.718 -0.0489  0.0092  0.4108
 3862TIP3    H111550   2.705   2.035   0.763  0.2917 -0.7979  0.0323
 3862TIP3    H211551   2.725   2.136   0.651 -0.1479 -1.5868 -0.7714
 3863TIP3   OH211552   6.306   0.957   4.200  0.0578 -0.3329  0.1073
 3863TIP3    H111553   6.221   0.927   4.233 -0.4416 -0.6217 -1.3587
 3863TIP3    H211554   6.366   0.886   4.222 -0.0673 -0.1271  1.1583
 3864TIP3   OH211555   5.232   5.340   5.451 -0.1647 -0.0955 -0.2906
 3864TIP3    H111556   5.170   5.304   5.514  0.4365 -0.0651  0.3405
 3864TIP3    H211557   5.190   5.419   5.417  0.4747  1.2542  1.8798
 3865TIP3   OH211558   5.082   0.373   0.991  0.4651  0.2660 -0.0513
 3865TIP3    H111559   5.131   0.392   1.071  0.4965 -0.7484  0.1879
 3865TIP3    H211560   5.014   0.441   0.987  0.2050  0.0871  1.0567
 3866TIP3   OH211561   3.393   2.046   1.364  0.3033  0.2109 -0.0792
 3866TIP3    H111562   3.338   2.058   1.287 -3.5117 -1.9357  2.0263
 3866TIP3    H211563   3.396   2.132   1.406  0.8040  0.9450 -1.5702
 3867TIP3   OH211564   4.568   6.196   4.453  0.0369 -0.1390 -0.4915
 3867TIP3    H111565   4.598   6.107   4.472 -2.5321 -1.1879 -0.9797
 3867TIP3    H211566   4.554   6.235   4.540 -1.0778 -1.0706 -0.2246
 3868TIP3   OH211567   2.538   4.187   0.144  0.1340  0.9301  0.4093
 3868TIP3    H111568   2.615   4.149   0.102 -0.5918  1.2617 -1.3184
 3868TIP3    H211569   2.542   4.280   0.122 -0.8529  0.9161  0.1125
 3869TIP3   OH211570   5.141   4.345   1.989  0.3630  0.0758 -0.2950
 3869TIP3    H111571   5.200   4.341   1.914 -1.2519 -2.0442 -1.5833
 3869TIP3    H211572   5.169   4.271   2.044  0.7294  0.8464  0.5702
 3870TIP3   OH211573   3.621   4.883   0.156 -0.3709  0.0086  0.1295
 3870TIP3    H111574   3.558   4.885   0.229 -1.3869  0.2339 -0.7228
 3870TIP3    H211575   3.682   4.954   0.175  0.2220 -0.8106  1.4568
 3871TIP3   OH211576   5.089   4.327   0.418  0.1752 -0.9631  0.3420
 3871TIP3    H111577   5.105   4.255   0.479  0.3507 -1.7844 -0.6489
 3871TIP3    H211578   5.176   4.354   0.389  0.1626  0.2557  1.3646
 3872TIP3   OH211579   2.458   3.434   3.685  0.3650  0.5915 -0.7049
 3872TIP3    H111580   2.533   3.456   3.740  0.8491 -1.5072 -0.4416
 3872TIP3    H211581   2.489   3.446   3.596  1.7988 -2.2536 -0.6868
 3873TIP3   OH211582   2.140   6.395   2.951 -0.4239 -0.5096  0.3210
 3873TIP3    H111583   2.121   6.305   2.978  1.7469 -0.6878  1.4841
 3873TIP3    H211584   2.235   6.403   2.962 -0.6344  2.0813  0.7043
 3874TIP3   OH211585   5.773   1.002   2.138  0.1958 -0.1492  0.5804
 3874TIP3    H111586   5.763   0.908   2.122  1.5495 -0.0039 -1.5689
 3874TIP3    H211587   5.813   1.007   2.224 -1.2550 -1.4340  1.3929
 3875TIP3   OH211588   5.616   5.130   3.409 -0.1774 -0.2641 -0.3089
 3875TIP3    H111589   5.547   5.070   3.437 -0.5175  0.5355  0.6138
 3875TIP3    H211590   5.689   5.073   3.384 -0.8200 -1.0857 -0.3628
 3876TIP3   OH211591   2.249   5.386   5.573 -0.1290 -0.2291 -0.2304
 3876TIP3    H111592   2.291   5.321   5.630 -0.4544  0.2264  0.5461
 3876TIP3    H211593   2.302   5.385   5.493  0.4686 -0.7328  0.1589
 3877TIP3   OH211594   3.633   1.075   0.915 -0.0848 -0.1678  0.8819
 3877TIP3    H111595   3.641   1.004   0.851 -0.4755 -1.6013  2.3642
 3877TIP3    H211596   3.544   1.108   0.902  0.7466  1.4640 -1.1673
 3878TIP3   OH211597   6.654   1.404   0.840 -0.2175 -0.1116  0.5020
 3878TIP3    H111598   6.565   1.375   0.825 -0.3290  0.1524  0.6487
 3878TIP3    H211599   6.648   1.499   0.844  0.5296  0.1965 -2.7863
 3879TIP3   OH211600   6.278   4.390   4.355  0.6985 -0.1124 -0.0747
 3879TIP3    H111601   6.216   4.460   4.376  2.8371  1.5927  0.9895
 3879TIP3    H211602   6.326   4.423   4.280  1.7487 -0.3969  0.4517
 3880TIP3   OH211603   5.122   2.051   2.644  0.0261 -0.0732  0.5862
 3880TIP3    H111604   5.049   1.989   2.650 -0.0278 -0.3450 -1.7595
 3880TIP3    H211605   5.156   2.038   2.555 -0.3878  3.6521 -0.3000
 3881TIP3   OH211606   7.119   6.149   0.735  0.2387 -0.5304 -0.3346
 3881TIP3    H111607   7.100   6.131   0.643  0.4127 -2.8702  0.0223
 3881TIP3    H211608   7.034   6.161   0.776 -0.1206 -2.9318 -0.2250
 3882TIP3   OH211609   1.037   1.182   2.567 -0.5033 -0.7474  0.2011
 3882TIP3    H111610   1.040   1.217   2.478  1.3188  0.7841  0.8122
 3882TIP3    H211611   0.981   1.105   2.561 -3.0384  1.0886 -1.6412
 3883TIP3   OH211612   2.513   1.436   3.034  0.1719 -0.0924  0.9926
 3883TIP3    H111613   2.505   1.362   2.973  0.3614  0.7866 -0.1206
 3883TIP3    H211614   2.458   1.504   2.996 -0.3602  0.1979  2.2511
 3884TIP3   OH211615   6.695   1.163   0.222 -0.1823 -0.0102  0.4514
 3884TIP3    H111616   6.687   1.094   0.287 -0.9108 -0.4050 -0.0383
 3884TIP3    H211617   6.764   1.133   0.163 -0.6602 -0.4321  0.1061
 3885TIP3   OH211618   1.701   3.784   5.821  0.0239 -0.3154 -0.5744
 3885TIP3    H111619   1.624   3.731   5.837  0.3197 -0.4505  0.5097
 3885TIP3    H211620   1.703   3.797   5.727 -1.1138 -0.6154 -0.6471
 3886TIP3   OH211621   3.048   2.358   1.801 -0.2651 -0.2724 -0.1023
 3886TIP3    H111622   3.042   2.435   1.746  1.3832 -0.1088 -0.1202
 3886TIP3    H211623   2.995   2.291   1.757 -1.1621  0.6356 -0.4274
 3887TIP3   OH211624   3.667   3.871   2.927  0.1262  0.3701  0.2425
 3887TIP3    H111625   3.643   3.903   3.014  1.1689  0.0128  0.6864
 3887TIP3    H211626   3.663   3.776   2.935  0.8074  0.3245  0.0829
 3888TIP3   OH211627   2.765   4.035   5.659  0.0889  0.8130  0.1583
 3888TIP3    H111628   2.807   4.055   5.576 -0.6697  0.3794 -0.3426
 3888TIP3    H211629   2.745   4.120   5.697  0.6621  1.0159  0.0205
 3889TIP3   OH211630   0.899   4.524   5.151 -0.6281 -0.2027 -0.2072
 3889TIP3    H111631   0.886   4.580   5.228  0.8237 -1.9918  1.4454
 3889TIP3    H211632   0.984   4.552   5.117  0.7195 -2.0955  1.3788
 3890TIP3   OH211633   0.250   5.740   0.763 -0.2193  0.0143  0.0447
 3890TIP3    H111634   0.222   5.670   0.821 -0.1816 -0.0747 -0.0442
 3890TIP3    H211635   0.327   5.778   0.805  0.7153 -1.0256 -0.6897
 3891TIP3   OH211636   3.200   2.990   1.958  0.7665 -0.7087 -0.0940
 3891TIP3    H111637   3.248   2.916   1.994  1.7498  0.1257  0.3310
 3891TIP3    H211638   3.249   3.014   1.879  0.4194 -0.5334 -0.2586
 3892TIP3   OH211639   1.704   3.099   0.140 -0.1993  0.7203 -0.2027
 3892TIP3    H111640   1.768   3.081   0.209 -0.2123 -0.1158 -0.3955
 3892TIP3    H211641   1.701   3.194   0.134 -0.6486  0.8315  1.3773
 3893TIP3   OH211642   0.087   2.502   0.515 -0.1259  0.3450  0.3706
 3893TIP3    H111643   0.136   2.427   0.548  2.5498  1.6372 -0.3400
 3893TIP3    H211644   0.135   2.578   0.548 -2.5883  1.7972  0.8479
 3894TIP3   OH211645   4.744   2.758   5.259  0.0735 -0.4794 -0.1318
 3894TIP3    H111646   4.696   2.841   5.262 -1.0559 -1.1426  1.3014
 3894TIP3    H211647   4.821   2.777   5.206  0.6553  1.9030  1.4268
 3895TIP3   OH211648   2.298   3.783   3.427 -0.2010 -0.1562  0.0742
 3895TIP3    H111649   2.233   3.838   3.383 -1.4834 -0.6310  1.2911
 3895TIP3    H211650   2.313   3.710   3.367 -0.4209  0.2106 -0.4286
 3896TIP3   OH211651   7.207   1.876   2.169  0.5612 -0.8312  0.3074
 3896TIP3    H111652   7.145   1.889   2.097  1.2557 -0.4139 -0.2244
 3896TIP3    H211653   7.197   1.784   2.193  2.0479 -1.6617 -1.9630
 3897TIP3   OH211654   5.881   0.800   1.882 -0.2460  0.4888 -0.5873
 3897TIP3    H111655   5.791   0.777   1.906 -0.4085 -0.2528 -1.8530
 3897TIP3    H211656   5.882   0.895   1.882 -0.7172  0.5171  0.5137
 3898TIP3   OH211657   3.756   5.464   3.130  0.2384 -0.7429  0.2977
 3898TIP3    H111658   3.834   5.412   3.113  0.3739 -0.5464  0.3167
 3898TIP3    H211659   3.713   5.420   3.203  0.0485 -1.1580 -0.0568
 3899TIP3   OH211660   4.140   5.826   1.286 -0.2677 -0.1858 -0.3082
 3899TIP3    H111661   4.142   5.737   1.321 -0.7981  0.0670  0.3911
 3899TIP3    H211662   4.218   5.832   1.230 -0.6361 -1.3230 -0.9764
 3900TIP3   OH211663   6.452   1.484   2.524 -0.0514 -0.0905 -0.0273
 3900TIP3    H111664   6.474   1.391   2.523  1.3438  0.2172  0.4732
 3900TIP3    H211665   6.426   1.502   2.614 -0.3500  0.0068 -0.1304
 3901TIP3   OH211666   3.913   4.436   4.375  0.2954  0.3515 -0.6557
 3901TIP3    H111667   3.987   4.402   4.426 -0.0970 -0.0561 -0.3519
 3901TIP3    H211668   3.836   4.409   4.424 -0.1874 -1.4853 -2.2804
 3902TIP3   OH211669   5.863   3.288   4.869  0.0423  0.1150 -0.2578
 3902TIP3    H111670   5.783   3.315   4.823 -0.0123 -0.3959 -0.4741
 3902TIP3    H211671   5.832   3.228   4.937  0.2520 -0.1688 -0.4110
 3903TIP3   OH211672   6.454   1.109   4.942 -0.4740 -0.1323  0.5377
 3903TIP3    H111673   6.494   1.045   5.001  1.0391  1.6108  1.5354
 3903TIP3    H211674   6.472   1.193   4.984 -2.5661  0.9541 -0.6097
 3904TIP3   OH211675   6.345   3.472   4.481 -0.3232 -0.3280  0.2471
 3904TIP3    H111676   6.342   3.566   4.498 -1.4017 -0.3623  0.3176
 3904TIP3    H211677   6.299   3.433   4.556 -1.3403 -0.7816 -0.5914
 3905TIP3   OH211678   6.981   5.813   5.199  0.4221 -0.6049 -0.9454
 3905TIP3    H111679   7.022   5.899   5.185  0.3815 -0.4476 -0.1828
 3905TIP3    H211680   6.990   5.798   5.294  1.2215 -1.8486 -1.1892
 3906TIP3   OH211681   6.480   6.128   1.925 -0.2381  0.5508 -0.1003
 3906TIP3    H111682   6.512   6.039   1.933 -0.5412  0.4682  0.2223
 3906TIP3    H211683   6.450   6.151   2.013 -0.1965  0.9561 -0.1899
 3907TIP3   OH211684   1.419   5.584   2.671  0.5231 -0.1883  0.1212
 3907TIP3    H111685   1.504   5.619   2.698  0.1672  0.6093  0.2372
 3907TIP3    H211686   1.368   5.662   2.646 -0.1468 -0.6657 -0.0163
 3908TIP3   OH211687   0.071   3.122   4.498 -0.2317  0.2938  0.2478
 3908TIP3    H111688   0.148   3.069   4.518  0.2420  0.9830  0.2754
 3908TIP3    H211689   0.002   3.087   4.555  0.4102  0.5348  1.1758
 3909TIP3   OH211690   2.463   5.744   2.567 -0.1708  0.3265 -0.2349
 3909TIP3    H111691   2.469   5.676   2.500  1.4188  0.3319 -0.1290
 3909TIP3    H211692   2.525   5.811   2.540 -0.3228  0.8514  0.6624
 3910TIP3   OH211693   2.017   0.727   5.000  1.0111 -0.2975 -0.5830
 3910TIP3    H111694   1.947   0.686   4.949  2.0364 -0.8564 -1.5763
 3910TIP3    H211695   1.981   0.813   5.025 -0.1280 -0.6843 -0.8186
 3911TIP3   OH211696   0.725   4.260   1.439 -0.0004 -0.0596 -0.1776
 3911TIP3    H111697   0.639   4.300   1.426  1.0733  1.8763 -1.7803
 3911TIP3    H211698   0.736   4.260   1.534 -1.7510 -0.3597  0.0678
 3912TIP3   OH211699   2.797   1.125   1.072  0.0896  0.4268  0.1758
 3912TIP3    H111700   2.867   1.070   1.108 -0.2286  0.8797  1.5419
 3912TIP3    H211701   2.722   1.109   1.129 -1.4739 -1.2642 -2.1899
 3913TIP3   OH211702   2.458   4.368   0.780  0.9960  0.2157  0.1871
 3913TIP3    H111703   2.441   4.435   0.714  0.6314 -0.2336 -0.1797
 3913TIP3    H211704   2.523   4.310   0.740 -0.2065 -0.8242 -0.3284
 3914TIP3   OH211705   0.589   1.521   0.314  0.1031  0.6643 -0.0240
 3914TIP3    H111706   0.666   1.575   0.301 -0.4610  1.1688 -1.5480
 3914TIP3    H211707   0.517   1.574   0.279 -0.7091 -0.3562  0.0649
 3915TIP3   OH211708   1.966   2.653   5.008 -0.3382  0.3891 -0.4328
 3915TIP3    H111709   2.045   2.682   5.053  0.7914 -0.4014 -1.8485
 3915TIP3    H211710   1.995   2.584   4.949 -2.2307 -0.5055 -0.3942
 3916TIP3   OH211711   2.456   6.713   1.820 -0.0551 -0.2450  0.2215
 3916TIP3    H111712   2.456   6.627   1.861  0.4705 -0.7798 -0.8524
 3916TIP3    H211713   2.549   6.738   1.816  0.0316 -0.7322 -1.6461
 3917TIP3   OH211714   4.254   5.371   4.421  0.3634 -0.1597 -0.2197
 3917TIP3    H111715   4.185   5.316   4.383 -0.2664  0.5750 -0.1496
 3917TIP3    H211716   4.241   5.364   4.515  0.1884  0.2225 -0.2134
 3918TIP3   OH211717   6.368   3.937   3.497 -0.7284  0.7229 -0.2504
 3918TIP3    H111718   6.314   3.892   3.432  1.2289 -0.6800 -1.0109
 3918TIP3    H211719   6.407   3.866   3.548 -0.2952  1.7161  0.8419
 3919TIP3   OH211720   3.719   4.811   5.695 -0.9774  0.0529 -0.4935
 3919TIP3    H111721   3.734   4.746   5.627 -0.8760 -0.7111  0.2437
 3919TIP3    H211722   3.803   4.856   5.704  0.0391 -1.9955  1.3122
 3920TIP3   OH211723   4.374   4.339   0.182  0.0013 -0.1201  0.0486
 3920TIP3    H111724   4.463   4.315   0.157 -0.3417 -1.0122 -0.3632
 3920TIP3    H211725   4.381   4.367   0.273  0.7997  0.4044 -0.1715
 3921TIP3   OH211726   6.811   5.965   5.474  0.0003 -0.0964  0.1555
 3921TIP3    H111727   6.904   5.951   5.492 -0.1291  0.3614  1.2480
 3921TIP3    H211728   6.772   5.981   5.560 -1.0642 -0.1154 -0.3078
 3922TIP3   OH211729   4.294   4.520   5.646  0.3740  0.0586  0.0729
 3922TIP3    H111730   4.349   4.578   5.699  1.2202 -2.5407  2.2747
 3922TIP3    H211731   4.246   4.468   5.710 -2.8607  0.5079 -1.8031
 3923TIP3   OH211732   2.792   5.597   4.362 -0.4579 -0.4977  0.0045
 3923TIP3    H111733   2.824   5.660   4.427  1.1123 -1.0725 -0.1964
 3923TIP3    H211734   2.771   5.519   4.412 -0.5300 -0.4867 -0.0084
 3924TIP3   OH211735   0.682   4.767   5.555  0.0629 -0.3653  0.4192
 3924TIP3    H111736   0.740   4.834   5.520 -0.5840  0.2507  0.4896
 3924TIP3    H211737   0.740   4.695   5.580  0.7268 -0.0106 -0.0567
 3925TIP3   OH211738   5.978   0.190   4.505 -0.0632  0.6731  0.4136
 3925TIP3    H111739   6.021   0.192   4.419  0.1379  0.1432  0.4950
 3925TIP3    H211740   6.048   0.210   4.567 -0.2074  1.0516  0.4562
 3926TIP3   OH211741   5.938   2.872   5.532 -0.0247  0.0854 -0.0940
 3926TIP3    H111742   5.952   2.961   5.565  1.3009 -0.7062  1.6638
 3926TIP3    H211743   5.861   2.840   5.580  0.8840 -0.4740  1.0505
 3927TIP3   OH211744   0.908   1.364   0.868  0.1010  0.3497  0.6198
 3927TIP3    H111745   0.837   1.368   0.932  0.7968 -0.0666  1.4298
 3927TIP3    H211746   0.956   1.446   0.881 -0.7061  1.0468 -0.5284
 3928TIP3   OH211747   3.304   2.237   2.665  0.1108  0.1075  0.2390
 3928TIP3    H111748   3.228   2.272   2.620 -0.1715 -1.4445 -0.5655
 3928TIP3    H211749   3.375   2.296   2.642 -0.0299 -0.5674 -2.2533
 3929TIP3   OH211750   0.626   6.649   1.965  0.0457  0.4221 -0.1772
 3929TIP3    H111751   0.719   6.645   1.988  0.3527  1.7118 -1.0735
 3929TIP3    H211752   0.626   6.664   1.871 -1.0675  0.7059 -0.1378
 3930TIP3   OH211753   2.243   5.376   4.268  0.4190  0.2755  0.4353
 3930TIP3    H111754   2.330   5.401   4.237 -0.4796  3.4529  0.1859
 3930TIP3    H211755   2.195   5.354   4.188  0.8216 -1.0431  0.5349
 3931TIP3   OH211756   5.833   2.413   3.660  0.1467 -0.1951 -0.0323
 3931TIP3    H111757   5.786   2.492   3.636  0.1462  0.0146  0.6400
 3931TIP3    H211758   5.868   2.379   3.578 -0.2169  0.2669 -0.3778
 3932TIP3   OH211759   2.472   0.991   5.883 -0.1443 -0.3407 -0.1800
 3932TIP3    H111760   2.522   1.031   5.954  0.1474 -0.5446 -0.2707
 3932TIP3    H211761   2.530   0.998   5.806  0.9923 -3.1642  0.2900
 3933TIP3   OH211762   1.296   4.241   2.310  0.5183 -0.0491  0.7584
 3933TIP3    H111763   1.239   4.295   2.365 -2.6435 -1.2539 -1.1095
 3933TIP3    H211764   1.354   4.197   2.372 -0.4942  1.2949  2.7808
 3934TIP3   OH211765   6.472   0.028   1.990 -0.0320 -0.2684  0.5661
 3934TIP3    H111766   6.550   0.083   1.992 -0.3859  0.2308  1.0001
 3934TIP3    H211767   6.458   0.008   1.897 -0.5515  1.3255  0.2784
 3935TIP3   OH211768   6.572   3.497   3.380  0.0695  0.6567 -0.1181
 3935TIP3    H111769   6.561   3.569   3.442 -0.8542  0.5161 -0.1137
 3935TIP3    H211770   6.575   3.419   3.435 -0.0232  0.5922 -0.2065
 3936TIP3   OH211771   2.318   6.370   0.030  0.9408  0.1251  0.1933
 3936TIP3    H111772   2.313   6.466   0.030 -0.0426  0.1022 -1.2679
 3936TIP3    H211773   2.231   6.342   0.001  1.5081 -1.1886 -0.2762
 3937TIP3   OH211774   0.779   3.447   2.908 -0.1944 -0.2928 -0.6164
 3937TIP3    H111775   0.868   3.468   2.937  0.0315 -3.0680  1.0874
 3937TIP3    H211776   0.788   3.426   2.815  0.7706  0.2739 -0.6615
 3938TIP3   OH211777   0.044   6.549   0.491 -0.1914  0.4603  0.2037
 3938TIP3    H111778  -0.018   6.529   0.561  1.5575  0.0555  1.7378
 3938TIP3    H211779   0.024   6.486   0.422 -2.7113  1.6083 -0.2251
 3939TIP3   OH211780   4.835   2.479   5.166  0.2593 -0.5403 -0.0296
 3939TIP3    H111781   4.771   2.534   5.122 -1.0373 -0.7140  1.5513
 3939TIP3    H211782   4.807   2.389   5.146  0.2112 -0.6184  0.3872
 3940TIP3   OH211783   5.792   5.804   5.328  0.1355  0.2516  0.6035
 3940TIP3    H111784   5.881   5.830   5.352  0.0722  0.4874  0.5806
 3940TIP3    H211785   5.751   5.780   5.411  0.8162 -1.7223  0.4248
 3941TIP3   OH211786   3.323   0.349   4.777 -0.1574  0.3958  0.2140
 3941TIP3    H111787   3.333   0.353   4.682  0.6561 -1.9871  0.1292
 3941TIP3    H211788   3.229   0.359   4.792 -0.2460  1.2483 -0.7735
 3942TIP3   OH211789   2.522   4.529   3.698  0.1438 -0.2335  0.3742
 3942TIP3    H111790   2.614   4.554   3.697  0.3848 -1.0778  0.6196
 3942TIP3    H211791   2.518   4.448   3.648 -0.8161  0.8845 -1.4700
 3943TIP3   OH211792   4.529   5.713   5.585  0.1113  0.2607  0.3885
 3943TIP3    H111793   4.482   5.745   5.508  0.7078 -1.5452 -0.7853
 3943TIP3    H211794   4.605   5.771   5.591  0.2718  0.1869 -0.6463
 3944TIP3   OH211795   0.049   4.987   3.710  0.1462  0.3967 -0.5439
 3944TIP3    H111796   0.129   4.941   3.684  0.1303  0.2982 -0.4193
 3944TIP3    H211797  -0.017   4.958   3.647 -0.0230 -0.2517 -0.0791
 3945TIP3   OH211798   6.533   6.566   1.479 -0.3414 -0.0195 -0.1567
 3945TIP3    H111799   6.462   6.589   1.419 -0.0084 -2.5398 -1.6509
 3945TIP3    H211800   6.510   6.478   1.511  1.4224 -0.3218  0.3855
 3946TIP3   OH211801   3.545   2.748   2.335 -0.4746  0.6442  0.8179
 3946TIP3    H111802   3.506   2.672   2.292 -0.6961  0.7493  0.8311
 3946TIP3    H211803   3.483   2.819   2.319 -1.1615  0.4315  2.2792
 3947TIP3   OH211804   6.586   2.610   3.377  0.2263  0.1180  0.3790
 3947TIP3    H111805   6.620   2.525   3.348 -2.2951 -1.0366  0.6037
 3947TIP3    H211806   6.620   2.672   3.312 -1.0876 -1.6522 -2.1888
 3948TIP3   OH211807   6.920   3.457   5.138 -0.1932  0.0480  0.4202
 3948TIP3    H111808   6.876   3.412   5.210  0.9830  0.0427  1.1531
 3948TIP3    H211809   6.849   3.477   5.076 -1.1027 -0.6361  1.2025
 3949TIP3   OH211810   3.581   5.559   2.201 -0.5635 -0.6340 -0.4947
 3949TIP3    H111811   3.582   5.468   2.172  1.7256 -0.9633  0.4388
 3949TIP3    H211812   3.559   5.556   2.293 -0.5415 -0.2505 -0.4727
 3950TIP3   OH211813   0.451   3.750   0.486  0.4363 -0.0432  0.0045
 3950TIP3    H111814   0.458   3.819   0.552 -3.4673  1.3116 -0.7401
 3950TIP3    H211815   0.447   3.797   0.403 -1.7380 -1.0925 -0.5613
 3951TIP3   OH211816   0.685   3.542   0.755  1.0762 -0.4448 -0.4380
 3951TIP3    H111817   0.700   3.509   0.667 -0.1325 -0.3993 -0.6709
 3951TIP3    H211818   0.751   3.497   0.809  0.2791 -2.3007 -0.9520
 3952TIP3   OH211819   3.519   0.963   0.436  0.2262  0.2472 -0.0322
 3952TIP3    H111820   3.495   1.021   0.363 -0.3563 -0.4824 -0.4442
 3952TIP3    H211821   3.507   0.875   0.400 -0.8460 -0.1262  1.1921
 3953TIP3   OH211822   4.335   6.739   1.503 -0.2185  0.3324 -0.1174
 3953TIP3    H111823   4.314   6.687   1.581 -0.1272  0.9810  0.3524
 3953TIP3    H211824   4.285   6.820   1.515 -1.9220 -0.4010 -1.7897
 3954TIP3   OH211825   4.905   3.919   2.949 -0.2287 -0.3686 -0.4670
 3954TIP3    H111826   4.839   3.959   2.893  0.1238 -0.7240 -1.1405
 3954TIP3    H211827   4.982   3.975   2.942 -0.4169  0.0038  0.2611
 3955TIP3   OH211828   2.163   6.439   2.655 -0.4174  0.6462  0.0716
 3955TIP3    H111829   2.186   6.451   2.747 -1.2208  1.0085  0.2401
 3955TIP3    H211830   2.149   6.528   2.622  1.0553  0.6063 -0.7436
 3956TIP3   OH211831   1.670   5.857   4.895  0.8580 -0.2546  0.5744
 3956TIP3    H111832   1.612   5.815   4.832 -1.9732  1.9066  1.5402
 3956TIP3    H211833   1.758   5.846   4.857 -0.3735 -1.6062 -2.2018
 3957TIP3   OH211834   4.556   1.431   1.568  0.0048 -0.3028  0.6027
 3957TIP3    H111835   4.463   1.424   1.546  0.3335  0.9035 -1.3849
 3957TIP3    H211836   4.599   1.364   1.515  0.4025  0.0654  0.4521
 3958TIP3   OH211837   1.815   3.677   0.415  0.0499  0.0769 -0.9490
 3958TIP3    H111838   1.880   3.693   0.484 -0.5336  1.0691 -0.6157
 3958TIP3    H211839   1.833   3.744   0.349 -1.1801  0.9257 -0.4490
 3959TIP3   OH211840   7.036   2.770   3.457 -0.0325  0.4654  0.1168
 3959TIP3    H111841   6.973   2.697   3.456  0.5970 -0.2904  3.1992
 3959TIP3    H211842   7.122   2.728   3.449  0.2727  1.0230  0.4126
 3960TIP3   OH211843   1.914   0.889   0.472 -0.3157  0.0797 -0.1803
 3960TIP3    H111844   1.888   0.955   0.536  0.4280  1.6093 -1.3769
 3960TIP3    H211845   1.946   0.816   0.524 -2.0180  0.2671  1.2054
 3961TIP3   OH211846   1.610   4.653   1.429  0.4983 -0.5242  0.6324
 3961TIP3    H111847   1.638   4.590   1.494  0.5192 -0.3859  0.7584
 3961TIP3    H211848   1.690   4.677   1.382  0.4433 -0.8162  0.3825
 3962TIP3   OH211849   1.055   5.977   3.865 -0.5712 -0.1655 -0.4254
 3962TIP3    H111850   1.031   5.894   3.824  0.4194 -0.6668 -0.0266
 3962TIP3    H211851   1.022   5.969   3.955 -2.0362  0.6098 -0.8591
 3963TIP3   OH211852   3.378   1.714   2.292 -0.1796 -0.4510 -0.1468
 3963TIP3    H111853   3.420   1.778   2.350  2.3132  0.4222 -2.6754
 3963TIP3    H211854   3.285   1.738   2.293  0.0318  0.5751  2.0670
 3964TIP3   OH211855   6.057   1.300   4.843 -0.3244 -0.0050 -0.1846
 3964TIP3    H111856   6.087   1.209   4.853  1.7212  0.6347  0.0397
 3964TIP3    H211857   6.104   1.348   4.911 -0.0592  1.4919 -1.3662
 3965TIP3   OH211858   3.350   4.526   4.926 -0.0575  0.0613  0.3059
 3965TIP3    H111859   3.263   4.545   4.962 -0.1358 -0.9890  0.6890
 3965TIP3    H211860   3.332   4.484   4.841  0.1127  1.3404 -0.3910
 3966TIP3   OH211861   2.708   6.603   4.917 -0.0176 -0.3508  0.0296
 3966TIP3    H111862   2.655   6.667   4.870  0.6623 -1.0474 -1.7495
 3966TIP3    H211863   2.790   6.649   4.935  0.6539 -0.8205 -1.6678
 3967TIP3   OH211864   0.370   0.317   4.778  0.0840 -0.0802  0.2739
 3967TIP3    H111865   0.319   0.297   4.857  0.3237 -0.4893  0.3235
 3967TIP3    H211866   0.415   0.399   4.799 -1.7066  1.1452 -0.3103
 3968TIP3   OH211867   2.755   0.311   0.514 -0.1211 -0.4598 -0.0430
 3968TIP3    H111868   2.727   0.271   0.597  0.6954 -1.0686 -0.0437
 3968TIP3    H211869   2.708   0.262   0.447 -0.4561 -0.2514  0.0384
 3969TIP3   OH211870   2.975   3.182   0.369  0.6164  0.0579 -0.0714
 3969TIP3    H111871   3.008   3.250   0.310 -0.3215  0.4871 -0.1104
 3969TIP3    H211872   2.905   3.140   0.320 -0.6303  0.8603  0.9661
 3970TIP3   OH211873   1.174   4.662   4.678 -0.1238  0.3855 -0.3546
 3970TIP3    H111874   1.229   4.739   4.662  0.9462 -0.4235 -0.5886
 3970TIP3    H211875   1.094   4.699   4.716  0.7042  1.5534  0.3312
 3971TIP3   OH211876   2.327   5.336   5.866 -0.2030  0.7093  0.4700
 3971TIP3    H111877   2.388   5.269   5.838 -0.8345  0.2911  0.0853
 3971TIP3    H211878   2.330   5.333   5.962 -2.3406 -1.8740  0.5639
 3972TIP3   OH211879   5.854   2.166   4.517 -0.5855  0.0590 -0.0702
 3972TIP3    H111880   5.802   2.086   4.518  0.4143 -0.6122  0.7841
 3972TIP3    H211881   5.856   2.192   4.425 -1.8480 -0.2607 -0.2078
 3973TIP3   OH211882   6.021   2.721   0.460 -0.1678 -0.2970  0.3153
 3973TIP3    H111883   6.070   2.761   0.532  2.4438 -0.1323 -1.4444
 3973TIP3    H211884   5.979   2.794   0.416  1.6289  0.1559 -0.7299
 3974TIP3   OH211885   1.143   4.285   5.487 -0.7007  0.1651  0.3176
 3974TIP3    H111886   1.200   4.301   5.412  0.7799 -0.8557  1.1760
 3974TIP3    H211887   1.198   4.239   5.550 -2.6088 -1.3609  0.9919
 3975TIP3   OH211888   6.774   2.283   4.141 -0.1360  0.6662 -0.1772
 3975TIP3    H111889   6.705   2.221   4.119 -0.2136  0.8389 -0.4160
 3975TIP3    H211890   6.786   2.336   4.063 -0.5534  1.4087  0.2486
 3976TIP3   OH211891   4.963   0.150   5.827 -0.3265 -0.0423 -0.4474
 3976TIP3    H111892   5.051   0.143   5.790  0.2236  1.6334  0.4655
 3976TIP3    H211893   4.977   0.166   5.920 -1.5515  1.3954 -0.4760
 3977TIP3   OH211894   4.327   5.024   2.015  0.0588  0.1232 -0.4557
 3977TIP3    H111895   4.279   4.966   2.073  0.5890  1.5051  1.4506
 3977TIP3    H211896   4.278   5.023   1.933 -1.0396 -1.4234  0.1853
 3978TIP3   OH211897   1.920   6.227   0.893  0.1890  0.2925 -0.2975
 3978TIP3    H111898   1.931   6.278   0.812  0.5824  1.9429  0.7459
 3978TIP3    H211899   2.010   6.212   0.923  0.0320 -0.1369 -0.0370
 3979TIP3   OH211900   6.473   4.217   2.863 -0.5471  0.5339 -0.2853
 3979TIP3    H111901   6.551   4.168   2.838 -0.0225 -0.5971  3.1211
 3979TIP3    H211902   6.400   4.157   2.843 -0.3202  0.3769 -0.6601
 3980TIP3   OH211903   3.706   3.350   0.296 -0.7941  0.3669 -0.3349
 3980TIP3    H111904   3.787   3.368   0.345  0.2843 -3.5557 -0.3655
 3980TIP3    H211905   3.664   3.279   0.345 -2.1902 -0.3434 -2.4447
 3981TIP3   OH211906   6.060   2.070   0.677 -0.0326 -0.0078 -0.3723
 3981TIP3    H111907   5.982   2.017   0.659  0.4496 -0.8274 -0.0968
 3981TIP3    H211908   6.038   2.157   0.644 -0.6236 -0.5155 -1.3554
 3982TIP3   OH211909   4.713   0.861   5.653 -0.0927 -0.6172  0.2050
 3982TIP3    H111910   4.805   0.852   5.632 -0.3795 -2.3350 -0.5313
 3982TIP3    H211911   4.668   0.803   5.591 -1.5336 -0.8897  1.4170
 3983TIP3   OH211912   4.068   3.687   3.895 -0.0383  0.2034 -0.3418
 3983TIP3    H111913   4.108   3.608   3.859 -0.6643 -0.1952 -0.1816
 3983TIP3    H211914   4.042   3.662   3.984 -1.0457  0.3007 -0.5900
 3984TIP3   OH211915   6.165   5.004   1.618  0.1806 -0.0714 -0.4739
 3984TIP3    H111916   6.224   5.079   1.623  2.0017 -1.5408  2.2719
 3984TIP3    H211917   6.077   5.042   1.623  0.9353  1.9584 -1.3430
 3985TIP3   OH211918  -0.012   6.706   2.603  0.0658  0.0947  0.2758
 3985TIP3    H111919   0.050   6.763   2.557 -0.2096 -0.4676 -0.8409
 3985TIP3    H211920   0.009   6.717   2.696 -1.0463  3.2493  0.2689
 3986TIP3   OH211921   5.808   1.088   5.713 -0.1114  0.3652 -0.3637
 3986TIP3    H111922   5.816   1.003   5.755  1.2966 -0.0754 -1.4439
 3986TIP3    H211923   5.843   1.150   5.778 -0.0627 -0.0192 -0.0204
 3987TIP3   OH211924   1.610   1.536   5.784 -0.0662  0.0756  0.0602
 3987TIP3    H111925   1.600   1.441   5.777 -0.9022  0.2642 -1.7987
 3987TIP3    H211926   1.652   1.562   5.702 -0.7007  1.4132  0.1281
 3988TIP3   OH211927   1.243   6.318   1.149 -0.0816  0.0919  0.1727
 3988TIP3    H111928   1.266   6.225   1.145  0.0243  0.1384 -0.3638
 3988TIP3    H211929   1.169   6.327   1.089  0.3901  0.4923 -0.3553
 3989TIP3   OH211930   1.341   0.729   3.662  0.0127 -0.5754  0.5333
 3989TIP3    H111931   1.310   0.685   3.582  1.2963 -0.1613 -0.2173
 3989TIP3    H211932   1.410   0.673   3.696  0.1796 -0.2322  0.7717
 3990TIP3   OH211933   4.544   4.810   4.709  0.5911 -0.2705 -0.4824
 3990TIP3    H111934   4.448   4.814   4.713  0.5484 -1.0204 -0.4755
 3990TIP3    H211935   4.573   4.899   4.728 -0.0085 -0.6230  2.6971
 3991TIP3   OH211936   1.110   0.253   3.285 -0.3475 -0.4622 -0.3034
 3991TIP3    H111937   1.203   0.271   3.269  0.0785 -1.4834  0.8224
 3991TIP3    H211938   1.108   0.220   3.375 -1.7976 -0.5662 -0.3548
 3992TIP3   OH211939   7.232   5.863   3.303  0.4428 -0.8590 -0.2828
 3992TIP3    H111940   7.235   5.864   3.207  0.4941  1.0962 -0.2997
 3992TIP3    H211941   7.170   5.933   3.325 -0.0351 -1.6885  1.1148
 3993TIP3   OH211942   2.130   4.207   5.010  0.3199 -0.1726  0.6470
 3993TIP3    H111943   2.180   4.288   5.023  0.9010 -0.8648  3.3837
 3993TIP3    H211944   2.182   4.157   4.947  1.1222  0.6595  0.6206
 3994TIP3   OH211945   6.627   1.293   2.785  0.0083 -0.5470  0.2299
 3994TIP3    H111946   6.564   1.267   2.852 -1.9620  4.6660  0.8930
 3994TIP3    H211947   6.693   1.344   2.833  0.1722  0.8340 -1.3623
 3995TIP3   OH211948   3.829   0.754   2.323  0.8022 -1.0456 -0.2224
 3995TIP3    H111949   3.829   0.834   2.375  0.9779 -0.9655 -0.3435
 3995TIP3    H211950   3.752   0.761   2.266  1.7958 -0.1284 -1.5003
 3996TIP3   OH211951   3.747   4.567   4.011 -0.1134 -0.2790 -0.0162
 3996TIP3    H111952   3.655   4.566   4.036 -0.3310  0.1566 -0.7604
 3996TIP3    H211953   3.759   4.651   3.966  0.7968 -0.0578  0.6039
 3997TIP3   OH211954   3.549   0.419   3.840 -0.1487 -0.5485 -0.0972
 3997TIP3    H111955   3.566   0.482   3.770  0.1320  1.4448  1.6892
 3997TIP3    H211956   3.628   0.420   3.894  0.1099 -2.9288 -0.3158
 3998TIP3   OH211957   2.093   4.911   2.193 -0.0755  0.4313 -0.1479
 3998TIP3    H111958   2.117   4.823   2.222  0.9136  1.3180  1.9297
 3998TIP3    H211959   2.161   4.935   2.132  0.5002  0.2995  0.4277
 3999TIP3   OH211960   0.831   3.606   5.013  0.3531  0.1680  0.1385
 3999TIP3    H111961   0.871   3.591   5.098  0.8584 -1.3932 -0.3357
 3999TIP3    H211962   0.905   3.627   4.955  0.0441  0.9849  0.0392
 4000TIP3   OH211963   3.290   0.845   5.306  0.7847  0.0123 -0.7772
 4000TIP3    H111964   3.223   0.843   5.374  1.0280  1.1198 -0.4894
 4000TIP3    H211965   3.356   0.782   5.335  0.4073 -0.2669 -0.5119
 4001TIP3   OH211966   0.634   4.828   3.005  0.4083  0.1744  0.2180
 4001TIP3    H111967   0.720   4.804   3.041 -0.1943  0.5943  2.0432
 4001TIP3    H211968   0.597   4.744   2.976  2.0373  0.1719 -2.1611
 4002TIP3   OH211969   5.854   1.581   2.500  0.3291 -0.8924  0.2665
 4002TIP3    H111970   5.918   1.524   2.543  1.3918  0.3370  0.3451
 4002TIP3    H211971   5.839   1.540   2.415  4.4315  0.8861 -1.5647
 4003TIP3   OH211972   0.703   2.246   4.683 -0.2590 -0.3088  0.2417
 4003TIP3    H111973   0.648   2.232   4.606 -0.3355  0.7956  0.0813
 4003TIP3    H211974   0.654   2.208   4.755  0.1829 -2.1131 -0.3495
 4004TIP3   OH211975   0.337   0.500   3.813  0.2304  0.0709 -0.1862
 4004TIP3    H111976   0.276   0.521   3.884  0.3391 -1.5127  0.4029
 4004TIP3    H211977   0.419   0.480   3.857  0.4810 -0.2813 -0.8075
 4005TIP3   OH211978   5.426   3.174   5.823 -1.0369 -0.3364  0.0176
 4005TIP3    H111979   5.379   3.162   5.741 -0.3755  0.1700 -0.4428
 4005TIP3    H211980   5.362   3.210   5.883 -1.1162  0.8478 -0.7532
 4006TIP3   OH211981   5.167   2.204   4.304  0.4405  0.6282 -0.1757
 4006TIP3    H111982   5.222   2.126   4.312  1.8946  1.4782 -1.4366
 4006TIP3    H211983   5.226   2.272   4.273 -0.6272  2.4649  1.6192
 4007TIP3   OH211984   0.130   3.947   5.324  0.5229  0.2589  0.0028
 4007TIP3    H111985   0.066   3.985   5.264  2.3941  2.2985 -0.8172
 4007TIP3    H211986   0.131   4.005   5.400  0.0643 -0.8406  0.8822
 4008TIP3   OH211987   2.961   1.313   2.612  0.1214 -0.7964 -0.2279
 4008TIP3    H111988   3.055   1.297   2.610  0.1844 -0.3704 -0.7483
 4008TIP3    H211989   2.951   1.394   2.663  0.1874  0.1324 -1.6345
 4009TIP3   OH211990   2.555   0.309   1.328 -0.3873  0.1535 -0.5902
 4009TIP3    H111991   2.595   0.322   1.242 -0.4222  0.4641 -0.5614
 4009TIP3    H211992   2.465   0.342   1.317 -0.2700  0.5733 -0.3252
 4010TIP3   OH211993   5.893   0.349   5.468 -0.4409 -0.1557 -0.0594
 4010TIP3    H111994   5.873   0.339   5.375  4.7455  1.9176 -1.7505
 4010TIP3    H211995   5.910   0.260   5.499  2.2948 -0.6134 -2.5049
 4011TIP3   OH211996   5.552   1.594   0.488 -0.1688  0.0657 -0.0179
 4011TIP3    H111997   5.509   1.547   0.560  2.0982 -0.1953  1.2678
 4011TIP3    H211998   5.646   1.576   0.501  0.4118  1.2249 -2.2022
 4012TIP3   OH211999   5.238   4.814   4.176  0.2267  0.2904  0.2601
 4012TIP3    H112000   5.306   4.814   4.245  0.0769  0.3486  0.4090
 4012TIP3    H212001   5.195   4.729   4.185  0.1837  0.3124  0.2607
 4013TIP3   OH212002   2.341   4.729   1.346  0.0437 -0.6458 -0.1633
 4013TIP3    H112003   2.253   4.703   1.374 -1.1967  2.5960 -0.5408
 4013TIP3    H212004   2.342   4.713   1.252 -0.6099  0.3387 -0.3542
 4014TIP3   OH212005   0.359   3.091   4.773  1.0558 -0.3466  0.1282
 4014TIP3    H112006   0.421   3.164   4.766  2.0989 -1.2327 -0.1248
 4014TIP3    H212007   0.411   3.020   4.811  0.4211 -1.3679 -0.8778
 4015TIP3   OH212008   5.200   2.128   2.911 -0.0353  0.0388 -0.5306
 4015TIP3    H112009   5.202   2.110   2.817  0.0864 -0.6690 -0.4012
 4015TIP3    H212010   5.218   2.043   2.951 -1.8828 -0.0641  0.1732
 4016TIP3   OH212011   2.672   2.076   3.457  0.0978  0.0775  0.3491
 4016TIP3    H112012   2.767   2.066   3.466 -0.0247 -1.2507  0.4116
 4016TIP3    H212013   2.658   2.084   3.362  0.1551 -1.5383  0.1744
 4017TIP3   OH212014   6.042   4.246   1.088 -0.1360  0.4025 -0.6119
 4017TIP3    H112015   5.980   4.226   1.158 -1.0445 -0.0472 -1.5268
 4017TIP3    H212016   6.128   4.226   1.126 -0.6317 -0.1448  0.2615
 4018TIP3   OH212017   2.359   1.250   0.948 -0.0833 -0.2852 -0.0050
 4018TIP3    H112018   2.290   1.197   0.908 -1.3201  1.4345 -0.2603
 4018TIP3    H212019   2.401   1.191   1.011 -1.2907 -1.6033 -0.3835
 4019TIP3   OH212020   1.962   0.762   2.962 -0.1288  0.2695  0.3130
 4019TIP3    H112021   1.962   0.708   2.882 -1.1989  0.5972  0.0756
 4019TIP3    H212022   1.933   0.702   3.031 -0.4681  0.3180  0.2131
 4020TIP3   OH212023   5.909   6.101   5.338  0.0129  0.1528  0.8469
 4020TIP3    H112024   5.931   6.188   5.370  1.6675 -0.0194  0.2861
 4020TIP3    H212025   5.815   6.105   5.320  0.0079  1.7276  1.0736
 4021TIP3   OH212026   3.576   3.150   2.002 -0.3330 -0.0076 -0.4113
 4021TIP3    H112027   3.486   3.159   2.032 -0.2889  0.3507 -0.3733
 4021TIP3    H212028   3.612   3.077   2.053  0.0598  1.2447  1.2115
 4022TIP3   OH212029   2.257   1.192   3.423 -0.2765  0.3890 -0.7277
 4022TIP3    H112030   2.278   1.162   3.512 -0.2656  1.7360 -0.2532
 4022TIP3    H212031   2.336   1.236   3.393  0.8890 -2.6715 -2.6841
 4023TIP3   OH212032   4.862   2.564   2.411  0.7948  0.3275 -0.3742
 4023TIP3    H112033   4.870   2.620   2.487  1.1739 -2.4869  1.8353
 4023TIP3    H212034   4.783   2.595   2.366 -0.4773  1.0122  2.1459
 4024TIP3   OH212035   1.167   4.179   1.163 -0.9864 -0.7561 -0.5764
 4024TIP3    H112036   1.168   4.086   1.186 -1.5648 -1.2640 -2.3784
 4024TIP3    H212037   1.076   4.196   1.138 -0.5056 -0.2180 -2.0629
 4025TIP3   OH212038   1.690   6.397   4.793 -0.3500 -0.2412  0.0981
 4025TIP3    H112039   1.690   6.306   4.823 -2.1946 -0.2956  0.0525
 4025TIP3    H212040   1.772   6.433   4.824  1.2798 -2.4032 -1.4043
 4026TIP3   OH212041   1.969   4.189   5.698  0.1092 -0.0612 -0.3374
 4026TIP3    H112042   1.964   4.138   5.779 -2.1430 -0.2611 -0.5473
 4026TIP3    H212043   2.063   4.200   5.683  0.6015 -1.0337  1.6509
 4027TIP3   OH212044   1.437   4.039   0.653 -0.0274 -0.1958  0.4985
 4027TIP3    H112045   1.453   4.128   0.623 -1.6705  0.7208  2.1240
 4027TIP3    H212046   1.521   4.010   0.689  1.0220 -0.0542 -1.6796
 4028TIP3   OH212047   0.276   1.650   4.029 -0.6838  0.5113 -0.3346
 4028TIP3    H112048   0.215   1.700   4.084 -1.1776 -0.1068 -0.3185
 4028TIP3    H212049   0.229   1.570   4.007  1.5962 -2.1334  3.3168
 4029TIP3   OH212050   1.890   4.343   3.623 -0.4051 -0.3830 -0.3881
 4029TIP3    H112051   1.880   4.313   3.713  0.4159  1.2229  0.2986
 4029TIP3    H212052   1.958   4.411   3.629 -0.0484 -0.5336 -2.2841
 4030TIP3   OH212053   0.180   5.612   1.749  0.1758 -0.3621  0.1316
 4030TIP3    H112054   0.256   5.670   1.749  1.3234 -1.8023  0.5232
 4030TIP3    H212055   0.111   5.662   1.704  1.2857  1.0436 -0.0694
 4031TIP3   OH212056   0.294   5.126   5.606 -0.4180  0.0303 -0.1980
 4031TIP3    H112057   0.312   5.070   5.530  0.2097  1.3488 -1.0670
 4031TIP3    H212058   0.310   5.069   5.682  2.0946 -0.4800 -1.0068
 4032TIP3   OH212059   3.471   3.838   4.264  0.3396 -0.1422  0.4459
 4032TIP3    H112060   3.392   3.811   4.309 -0.4907  1.1175 -0.2007
 4032TIP3    H212061   3.483   3.772   4.195  1.0024 -1.4492  1.7558
 4033TIP3   OH212062   6.565   3.342   4.726  0.0159  0.0110 -0.0145
 4033TIP3    H112063   6.486   3.291   4.712  0.3279 -0.5604  0.2708
 4033TIP3    H212064   6.563   3.368   4.818 -0.3804  0.9376 -0.2711
 4034TIP3   OH212065   1.244   0.755   5.500 -0.2071 -1.0062  0.2378
 4034TIP3    H112066   1.181   0.684   5.482  0.6604 -1.4236 -1.2513
 4034TIP3    H212067   1.290   0.768   5.418  0.1479  0.8379  0.6901
 4035TIP3   OH212068   1.200   2.243   1.489 -0.1229  0.7333  0.3219
 4035TIP3    H112069   1.268   2.190   1.447 -1.5899  0.1320 -1.4708
 4035TIP3    H212070   1.156   2.182   1.548  1.7649  1.5110  2.7229
 4036TIP3   OH212071   4.747   2.302   1.523  0.6742  0.0166  0.2292
 4036TIP3    H112072   4.752   2.388   1.480 -1.0074 -0.4253 -0.9498
 4036TIP3    H212073   4.653   2.289   1.538  0.9794 -1.2872  1.1001
 4037TIP3   OH212074   4.630   1.809   3.533 -0.1513  0.6970 -0.0955
 4037TIP3    H112075   4.621   1.784   3.441  0.6560 -1.1315  0.2912
 4037TIP3    H212076   4.708   1.865   3.535 -0.0006  0.5012 -0.4691
 4038TIP3   OH212077   1.647   2.324   3.325 -0.5836 -0.2102  0.4227
 4038TIP3    H112078   1.573   2.285   3.371  0.9000 -3.1732  0.5503
 4038TIP3    H212079   1.707   2.350   3.394 -0.7770  0.6832  0.2688
 4039TIP3   OH212080   4.805   5.015   5.477  0.1526 -0.2025  0.1575
 4039TIP3    H112081   4.788   5.049   5.565  0.1831 -0.7996  0.3992
 4039TIP3    H212082   4.859   5.083   5.436 -0.2217  0.2826  0.4447
 4040TIP3   OH212083   5.159   4.509   0.895 -0.1646 -0.6321  0.7424
 4040TIP3    H112084   5.230   4.497   0.831  0.2389  0.7842  0.8882
 4040TIP3    H212085   5.079   4.510   0.843  0.1039 -0.2159  0.3304
 4041TIP3   OH212086   2.541   4.572   4.638 -0.0955 -0.5876 -0.0416
 4041TIP3    H112087   2.531   4.481   4.611 -0.6431 -0.9674  1.3455
 4041TIP3    H212088   2.592   4.568   4.719  0.2120  0.3709 -0.1717
 4042TIP3   OH212089   0.053   4.669   2.896 -0.4554 -0.2082 -0.0980
 4042TIP3    H112090   0.103   4.727   2.953  0.0714 -1.6692  0.9826
 4042TIP3    H212091  -0.038   4.682   2.922 -0.4594  0.9363 -0.6409
 4043TIP3   OH212092   6.574   2.911   2.605 -0.0530 -0.0460 -0.0641
 4043TIP3    H112093   6.618   2.944   2.527  1.3169  1.4856  1.2606
 4043TIP3    H212094   6.595   2.818   2.606  0.0508 -0.0606 -1.4035
 4044TIP3   OH212095   5.303   0.193   2.694 -0.0841  0.0230  0.1801
 4044TIP3    H112096   5.304   0.232   2.606 -0.3831  0.0178  0.1749
 4044TIP3    H212097   5.395   0.174   2.712  0.1553  1.3538  0.4566
 4045TIP3   OH212098   2.898   0.088   1.604  0.2510 -0.1766 -0.2213
 4045TIP3    H112099   2.940   0.165   1.644 -0.4911 -0.7061  1.6723
 4045TIP3    H212100   2.967   0.049   1.549  1.5438  0.2168  1.0617
 4046TIP3   OH212101   2.190   1.244   0.199 -0.2438 -0.2662  0.0675
 4046TIP3    H112102   2.249   1.204   0.136 -1.8990  0.1524 -1.8299
 4046TIP3    H212103   2.234   1.325   0.226  0.9361 -0.9597  0.2621
 4047TIP3   OH212104   5.933   3.970   0.036 -0.1228  0.2888  0.0310
 4047TIP3    H112105   5.882   3.973   0.117 -0.3837  1.7641 -0.1618
 4047TIP3    H212106   5.869   3.954  -0.033 -0.3707  2.1488 -0.2124
 4048TIP3   OH212107   6.562   5.590   2.555  0.2889 -0.8411 -0.1176
 4048TIP3    H112108   6.481   5.539   2.561  0.7597 -1.8289 -1.7056
 4048TIP3    H212109   6.569   5.633   2.640 -0.4668 -2.9290  1.0794
 4049TIP3   OH212110   6.636   2.678   4.288 -0.1537  0.3075  0.5774
 4049TIP3    H112111   6.709   2.626   4.255  0.3471 -0.4865  2.8048
 4049TIP3    H212112   6.567   2.666   4.223  0.4722 -1.9154  0.2387
 4050TIP3   OH212113   1.969   1.561   0.563  0.1639  0.1253  0.3553
 4050TIP3    H112114   2.015   1.482   0.593 -0.0723 -0.7238 -1.4063
 4050TIP3    H212115   1.900   1.574   0.628  2.3439  1.0399  2.6887
 4051TIP3   OH212116   4.174   4.595   2.380  0.0049  0.6764 -0.0474
 4051TIP3    H112117   4.221   4.512   2.376 -0.5263  0.3041  0.9727
 4051TIP3    H212118   4.235   4.655   2.424 -0.5744  0.0819  1.6597
 4052TIP3   OH212119   5.017   0.880   0.058 -0.0110 -0.3351  0.2232
 4052TIP3    H112120   4.922   0.882   0.055  0.0174  0.0054 -1.1091
 4052TIP3    H212121   5.042   0.822  -0.014  0.8431  1.6529 -1.1438
 4053TIP3   OH212122   2.789   5.148   2.011  0.2571 -0.8814  0.0544
 4053TIP3    H112123   2.753   5.236   2.008  1.7929 -0.2076  0.3499
 4053TIP3    H212124   2.734   5.097   1.952 -0.3465  0.3964 -0.5116
 4054TIP3   OH212125   4.713   3.132   2.664 -0.1932  0.4004 -0.6484
 4054TIP3    H112126   4.627   3.154   2.700  0.2172 -0.8304  1.2096
 4054TIP3    H212127   4.705   3.040   2.638  0.5275  0.2983 -0.5361
 4055TIP3   OH212128   6.188   4.481   5.757 -0.0123 -0.4759 -0.6517
 4055TIP3    H112129   6.149   4.515   5.838 -0.9514 -1.8047 -0.5192
 4055TIP3    H212130   6.249   4.413   5.787  2.4230  1.4779 -0.8620
 4056TIP3   OH212131   3.114   3.336   3.894  1.3370 -0.0369 -0.5440
 4056TIP3    H112132   3.193   3.344   3.948  1.1902  1.6841 -0.5412
 4056TIP3    H212133   3.143   3.284   3.818  2.4113  0.3545 -0.4220
 4057TIP3   OH212134   6.043   4.591   4.757  0.0694  0.2004 -0.5756
 4057TIP3    H112135   6.078   4.680   4.758  1.1456 -0.1278 -2.7561
 4057TIP3    H212136   6.096   4.543   4.821  0.2797  0.8496 -0.2623
 4058TIP3   OH212137   1.288   5.994   1.527 -0.0096  0.1025  0.5289
 4058TIP3    H112138   1.203   5.952   1.514 -0.1767  0.6726 -0.3462
 4058TIP3    H212139   1.296   6.004   1.622 -0.2350 -1.3118  0.7193
 4059TIP3   OH212140   4.992   6.483   2.011 -0.4527  0.3053 -0.3172
 4059TIP3    H112141   5.032   6.527   1.936  1.9510 -0.7217  0.2816
 4059TIP3    H212142   5.047   6.406   2.027 -2.4274 -0.9510  0.8980
 4060TIP3   OH212143   6.879   0.543   4.104  0.0240  0.3132  0.2881
 4060TIP3    H112144   6.941   0.528   4.175  0.1057  2.5921  0.7717
 4060TIP3    H212145   6.847   0.632   4.118 -0.3701  0.6475 -2.2169
 4061TIP3   OH212146   6.062   4.152   5.476  0.0726  0.1935  0.4987
 4061TIP3    H112147   6.142   4.130   5.524 -0.3608  0.3628  1.3229
 4061TIP3    H212148   6.078   4.121   5.387  0.6316 -0.7588  0.9121
 4062TIP3   OH212149   2.727   3.966   0.710  0.3923  0.1514  0.3769
 4062TIP3    H112150   2.796   3.919   0.758  0.8647 -0.0672 -0.4843
 4062TIP3    H212151   2.661   3.899   0.691 -0.0286  0.3434  1.1322
 4063TIP3   OH212152   3.114   4.236   1.644 -0.1529  0.4301 -0.0208
 4063TIP3    H112153   3.137   4.271   1.558 -0.2344  1.4370  0.3423
 4063TIP3    H212154   3.072   4.152   1.626 -0.1897  0.6383 -0.9608
 4064TIP3   OH212155   4.685   4.652   5.320  0.1942  0.1314  0.1108
 4064TIP3    H112156   4.635   4.615   5.247  0.7832 -0.2721 -0.0922
 4064TIP3    H212157   4.734   4.724   5.281  1.1828 -0.6321 -0.0898
 4065TIP3   OH212158   6.539   2.124   2.399  0.4667  0.0514  0.2477
 4065TIP3    H112159   6.506   2.083   2.479  0.0906  1.3618  0.8008
 4065TIP3    H212160   6.544   2.053   2.336 -3.8159 -0.3000 -0.0453
 4066TIP3   OH212161   2.332   2.347   1.606  0.1724 -0.0144  0.6065
 4066TIP3    H112162   2.330   2.436   1.641 -0.1493 -0.0938  0.8004
 4066TIP3    H212163   2.336   2.290   1.683  0.3701 -0.1682  0.4845
 4067TIP3   OH212164   5.333   4.497   1.492 -0.4344  0.0317  0.4232
 4067TIP3    H112165   5.295   4.553   1.424  1.9360 -0.3342 -1.3305
 4067TIP3    H212166   5.288   4.523   1.572 -1.0720  2.7825 -0.7020
 4068TIP3   OH212167   7.138   1.734   5.900 -0.2282  0.1563 -0.4318
 4068TIP3    H112168   7.185   1.721   5.817  0.9219  0.9840  0.0582
 4068TIP3    H212169   7.169   1.819   5.931 -0.4195 -0.2698  0.9896
 4069TIP3   OH212170   1.685   3.462   0.822 -0.1279  0.5264  0.2559
 4069TIP3    H112171   1.630   3.435   0.895 -1.2677 -1.6474 -1.2750
 4069TIP3    H212172   1.733   3.383   0.798  0.2841  1.2012 -1.2822
 4070TIP3   OH212173   2.461   5.397   3.282  0.0134  0.0330 -0.2903
 4070TIP3    H112174   2.498   5.484   3.298  0.4520 -0.2295  0.1279
 4070TIP3    H212175   2.533   5.347   3.244 -0.2736 -0.1150 -0.6430
 4071TIP3   OH212176   6.760   5.278   2.340  0.2295 -0.3539 -0.4539
 4071TIP3    H112177   6.707   5.202   2.316  0.2178 -0.3532 -0.4309
 4071TIP3    H212178   6.768   5.272   2.435 -0.5602  0.1829 -0.3391
 4072TIP3   OH212179   5.568   6.660   2.628  0.0315 -0.3755 -0.4039
 4072TIP3    H112180   5.488   6.606   2.624 -1.3605  1.6315 -1.9919
 4072TIP3    H212181   5.627   6.611   2.685 -2.9935 -1.1070  2.4118
 4073TIP3   OH212182   1.172   3.190   3.638 -0.3689  0.4684 -0.1766
 4073TIP3    H112183   1.095   3.145   3.603  0.2389 -0.7479  0.0131
 4073TIP3    H212184   1.136   3.260   3.692 -1.3482 -0.0962 -0.0742
 4074TIP3   OH212185   1.319   0.049   2.061  0.2768  0.3925  0.1237
 4074TIP3    H112186   1.411   0.058   2.086 -0.0494  0.4964  1.3881
 4074TIP3    H212187   1.295   0.135   2.026  0.8646  0.1188 -0.9704
 4075TIP3   OH212188   7.180   4.752   0.467 -0.0393  0.4941 -0.1440
 4075TIP3    H112189   7.159   4.743   0.560 -0.8537  2.9389 -0.0176
 4075TIP3    H212190   7.265   4.797   0.467 -0.0404  0.4927 -0.5863
 4076TIP3   OH212191   1.383   1.836   5.164  0.6389 -0.3044  0.7581
 4076TIP3    H112192   1.472   1.857   5.192  0.7685 -0.5998  0.5787
 4076TIP3    H212193   1.395   1.790   5.081  0.3325 -0.5382  0.8434
 4077TIP3   OH212194   1.054   5.268   4.180  0.3844 -0.0749 -0.3418
 4077TIP3    H112195   1.149   5.269   4.184  0.4387  1.8873 -1.1955
 4077TIP3    H212196   1.025   5.289   4.269  0.6189 -3.3694  0.6484
 4078TIP3   OH212197   3.731   1.491   3.987  0.5853  0.2478 -0.1456
 4078TIP3    H112198   3.657   1.434   3.963  0.8494 -0.0095 -0.3493
 4078TIP3    H212199   3.808   1.445   3.955  1.1241 -0.8763  2.4866
 4079TIP3   OH212200   3.680   0.635   1.199 -0.5185 -0.2158  0.3526
 4079TIP3    H112201   3.719   0.556   1.163  1.9126  1.1801 -0.3140
 4079TIP3    H212202   3.719   0.644   1.286  1.1520  1.4493 -0.5011
 4080TIP3   OH212203   6.929   5.322   1.172  0.1266  0.2131  0.6358
 4080TIP3    H112204   6.928   5.292   1.263  1.5536  1.8519  1.2490
 4080TIP3    H212205   6.856   5.384   1.166 -1.1293 -1.2425  0.1021
 4081TIP3   OH212206   6.180   6.325   3.286 -0.0947  0.3572  0.3818
 4081TIP3    H112207   6.265   6.339   3.327  0.8551  0.4548 -1.5178
 4081TIP3    H212208   6.119   6.313   3.360  1.3736  1.2171  1.7935
 4082TIP3   OH212209   5.195   3.246   1.150  0.4278 -0.0125 -0.4366
 4082TIP3    H112210   5.142   3.250   1.229  2.1372  2.4593  0.6922
 4082TIP3    H212211   5.152   3.179   1.096 -0.1090 -2.7527  3.0273
 4083TIP3   OH212212   1.435   6.223   3.352 -0.7503 -0.3501 -0.3146
 4083TIP3    H112213   1.490   6.184   3.420 -1.1223  0.3451  0.4019
 4083TIP3    H212214   1.423   6.153   3.288  2.0088 -0.1442 -1.1696
 4084TIP3   OH212215   3.713   2.369   5.840 -0.7110  0.1170  0.2944
 4084TIP3    H112216   3.637   2.411   5.798 -2.3413 -3.4993 -0.7688
 4084TIP3    H212217   3.690   2.366   5.933 -2.1145 -1.2027 -0.0496
 4085TIP3   OH212218   0.470   5.354   4.469  0.1688 -0.6522 -0.3351
 4085TIP3    H112219   0.413   5.370   4.394 -1.5956  0.4287  1.1434
 4085TIP3    H212220   0.425   5.287   4.520 -0.7563  1.3859  1.7096
 4086TIP3   OH212221   0.313   4.960   3.900 -0.0868 -0.1774  0.0026
 4086TIP3    H112222   0.307   4.893   3.832 -0.3031  1.3116 -1.4910
 4086TIP3    H212223   0.227   4.961   3.941  0.0986 -1.1991  0.4657
 4087TIP3   OH212224   1.695   1.942   5.623 -0.0972  0.3645  0.1473
 4087TIP3    H112225   1.677   1.950   5.530 -0.1949  0.0479  0.1380
 4087TIP3    H212226   1.656   2.021   5.662 -0.6398  0.1751  0.0028
 4088TIP3   OH212227   4.160   1.854   2.932  0.7284 -0.1056 -0.4654
 4088TIP3    H112228   4.228   1.817   2.876  0.5681  0.9087 -1.3471
 4088TIP3    H212229   4.207   1.905   2.997  0.9081 -1.2035  0.2972
 4089TIP3   OH212230   5.055   2.033   0.041 -0.0922  0.2333  0.0346
 4089TIP3    H112231   5.061   2.116   0.088  0.2222  1.2110 -1.6523
 4089TIP3    H212232   4.967   2.001   0.060 -0.5564  1.4303 -0.0374
 4090TIP3   OH212233   4.990   0.972   2.735  0.1336  0.2143 -0.4119
 4090TIP3    H112234   5.001   0.934   2.648  1.8629 -1.3909  0.4235
 4090TIP3    H212235   4.900   0.953   2.760  0.0300 -0.5186 -1.3185
 4091TIP3   OH212236   4.162   5.955   3.111 -0.3323  0.1015  0.5571
 4091TIP3    H112237   4.219   6.029   3.129 -0.4482  0.4699 -0.5297
 4091TIP3    H212238   4.090   5.964   3.174  0.0298  0.4923  0.9174
 4092TIP3   OH212239   2.513   2.295   2.214  0.3935  0.2171  0.9582
 4092TIP3    H112240   2.457   2.236   2.265 -2.2051  0.1002 -1.7119
 4092TIP3    H212241   2.560   2.238   2.154 -0.1485  0.5957  0.1387
 4093TIP3   OH212242   0.192   4.466   3.100 -0.0293  0.1660  0.4544
 4093TIP3    H112243   0.145   4.462   3.016  1.1973  2.8589 -0.4802
 4093TIP3    H212244   0.151   4.538   3.147  2.0599  1.6158  0.2260
 4094TIP3   OH212245   0.510   1.351   3.082  0.5309 -0.2835  0.3493
 4094TIP3    H112246   0.509   1.272   3.136 -1.3852 -0.8914 -0.4967
 4094TIP3    H212247   0.550   1.324   3.000 -1.2134 -0.7435 -0.3888
 4095TIP3   OH212248   5.104   2.837   0.713 -0.3191  0.2372  1.5917
 4095TIP3    H112249   5.126   2.835   0.806  1.8572  0.9262  1.1487
 4095TIP3    H212250   5.119   2.928   0.687 -0.1461 -0.1118  0.4072
 4096TIP3   OH212251   0.759   5.372   4.432  0.0903  0.1975  0.7755
 4096TIP3    H112252   0.675   5.362   4.477  1.1450  2.4992  3.4971
 4096TIP3    H212253   0.738   5.425   4.355 -0.9720  0.8443  1.4739
 4097TIP3   OH212254   5.905   3.084   5.765 -0.0106  0.5809  0.0574
 4097TIP3    H112255   5.883   3.007   5.818 -0.1840  0.1364 -0.6466
 4097TIP3    H212256   5.822   3.131   5.756 -0.1664  0.2119 -0.5127
 4098TIP3   OH212257   1.935   5.385   5.194  0.2122  0.5718 -0.1395
 4098TIP3    H112258   1.842   5.408   5.195  0.2109  0.5548  1.1152
 4098TIP3    H212259   1.936   5.290   5.189  0.1222  0.4651  1.4742
 4099TIP3   OH212260   2.015   0.315   1.100  0.0925 -0.4928  0.0709
 4099TIP3    H112261   2.064   0.299   1.181 -0.7706 -1.0169  0.5079
 4099TIP3    H212262   1.971   0.399   1.116  0.2739 -0.3744 -0.0409
 4100TIP3   OH212263   4.663   1.582   5.672 -0.7699 -0.0935 -0.1689
 4100TIP3    H112264   4.600   1.588   5.744 -0.8366 -1.6604 -0.0684
 4100TIP3    H212265   4.635   1.505   5.622  2.0915 -2.0331  0.9536
 4101TIP3   OH212266   2.840   2.648   3.520  0.1519  0.8333 -0.5119
 4101TIP3    H112267   2.890   2.649   3.601  0.6445  2.0342 -0.8195
 4101TIP3    H212268   2.784   2.725   3.524 -1.2438 -0.1400 -0.4605
 4102TIP3   OH212269   5.599   6.015   5.574  0.1772 -0.1834 -0.2627
 4102TIP3    H112270   5.649   6.023   5.493  0.3003  1.1345 -0.0796
 4102TIP3    H212271   5.545   5.938   5.561  1.2923 -0.8840 -0.9932
 4103TIP3   OH212272   0.509   3.915   5.854 -0.2878 -0.5516  0.0288
 4103TIP3    H112273   0.574   3.883   5.791 -0.2009  2.1374 -1.3897
 4103TIP3    H212274   0.518   3.857   5.929  3.9317 -0.2451  0.0226
 4104TIP3   OH212275   4.477   2.458   4.350 -0.3142  0.3184  0.5471
 4104TIP3    H112276   4.432   2.388   4.398 -0.2365  0.4488  0.8135
 4104TIP3    H212277   4.419   2.533   4.357  0.5043  0.8515  1.9758
 4105TIP3   OH212278   3.012   4.842   0.966  0.3504 -0.3040  0.2897
 4105TIP3    H112279   3.066   4.782   1.016  1.4711 -0.1866 -0.7430
 4105TIP3    H212280   2.945   4.872   1.028 -0.5338 -2.9331  0.7191
 4106TIP3   OH212281   0.975   2.397   0.776 -0.5175 -0.8107  0.4893
 4106TIP3    H112282   1.057   2.349   0.767 -0.6921 -1.2847  1.3206
 4106TIP3    H212283   1.002   2.487   0.793 -0.1902 -0.4836 -1.6011
 4107TIP3   OH212284   4.375   6.456   2.680  0.1399 -0.2156  0.0587
 4107TIP3    H112285   4.340   6.377   2.639  0.6314 -0.4159  0.0112
 4107TIP3    H212286   4.338   6.527   2.628 -1.2305 -0.3425  0.8106
 4108TIP3   OH212287   6.568   5.190   5.246  0.4689 -0.7612 -0.1072
 4108TIP3    H112288   6.650   5.236   5.228 -0.1598  0.8049  0.8721
 4108TIP3    H212289   6.538   5.160   5.160  0.8040  0.8431 -0.8135
 4109TIP3   OH212290   5.053   4.301   4.017  0.6962 -0.2217  0.2196
 4109TIP3    H112291   5.109   4.245   3.963  1.1354 -1.0229  1.4695
 4109TIP3    H212292   5.114   4.357   4.065  0.4399 -0.8593  1.3289
 4110TIP3   OH212293   6.918   5.859   0.869 -0.0580 -0.1189 -0.1815
 4110TIP3    H112294   6.938   5.831   0.780 -1.1488 -1.3513 -0.0826
 4110TIP3    H212295   6.967   5.797   0.924  0.9641  0.9118  0.0945
 4111TIP3   OH212296   0.478   3.144   1.946  0.0082 -0.0510  0.3499
 4111TIP3    H112297   0.387   3.159   1.969  0.1853  0.2723  0.8442
 4111TIP3    H212298   0.523   3.128   2.029  0.5483  0.6002  0.1971
 4112TIP3   OH212299   0.922   5.831   4.147  0.1449  0.4266  0.2559
 4112TIP3    H112300   0.934   5.799   4.236 -0.5545  0.1762  0.2662
 4112TIP3    H212301   0.913   5.753   4.093  1.3523  0.5513 -0.1750
 4113TIP3   OH212302   1.348   3.814   5.787 -0.0645 -0.1040  0.2693
 4113TIP3    H112303   1.366   3.799   5.880 -0.3672 -2.9721 -0.0334
 4113TIP3    H212304   1.256   3.841   5.784 -0.2233 -0.5587  0.7926
 4114TIP3   OH212305   2.569   3.014   0.022 -0.3418 -0.0267  0.3339
 4114TIP3    H112306   2.495   3.070   0.046  0.9486  1.6579  0.5800
 4114TIP3    H212307   2.626   3.071  -0.028 -0.6449 -2.1419 -2.6644
 4115TIP3   OH212308   6.088   5.519   1.026  0.6164 -0.1999 -0.3272
 4115TIP3    H112309   6.149   5.515   1.100  1.6704 -0.1666 -1.1795
 4115TIP3    H212310   6.097   5.435   0.982  0.5749  0.0725 -0.8683
 4116TIP3   OH212311   4.505   1.091   4.325 -0.2882  0.3054 -0.3812
 4116TIP3    H112312   4.593   1.110   4.294  0.2053 -1.4248 -0.1630
 4116TIP3    H212313   4.505   0.996   4.342 -1.3462  0.6913  2.2866
 4117TIP3   OH212314   6.134   2.664   5.678 -0.0969  0.1696  0.1223
 4117TIP3    H112315   6.086   2.612   5.742 -0.4917  1.2897  0.7481
 4117TIP3    H212316   6.100   2.752   5.688  0.3308  0.4967 -1.1637
 4118TIP3   OH212317   6.009   6.566   5.639  0.5498 -0.3169 -0.1888
 4118TIP3    H112318   5.945   6.627   5.676  0.8470 -0.0966 -0.0369
 4118TIP3    H212319   6.056   6.532   5.715  0.4741 -0.6351 -0.2846
 4119TIP3   OH212320   5.637   6.126   5.324  0.1640  0.0263 -0.3798
 4119TIP3    H112321   5.602   6.204   5.367  0.8717 -0.2462  0.7251
 4119TIP3    H212322   5.565   6.095   5.269 -0.7583  0.4221  0.5710
 4120TIP3   OH212323   4.418   0.630   1.241 -0.7304  0.1569 -0.0381
 4120TIP3    H112324   4.452   0.718   1.257 -1.5369  0.6263 -0.7968
 4120TIP3    H212325   4.451   0.607   1.154  1.6324 -1.3825  1.1826
 4121TIP3   OH212326   2.075   3.067   2.526 -0.4058 -0.4330  0.1426
 4121TIP3    H112327   2.115   3.117   2.597 -1.2415  1.2583 -0.5450
 4121TIP3    H212328   2.148   3.021   2.485  0.4615  0.5805  0.5078
 4122TIP3   OH212329   4.383   1.399   5.189 -0.1611  0.4519  0.2735
 4122TIP3    H112330   4.342   1.326   5.142 -0.5863 -0.9036  2.5686
 4122TIP3    H212331   4.477   1.379   5.186 -0.2411  0.0331  0.5510
 4123TIP3   OH212332   1.576   0.389  -0.004 -0.5224 -0.3207  0.0010
 4123TIP3    H112333   1.643   0.320  -0.013  0.2158 -0.0015  2.2276
 4123TIP3    H212334   1.502   0.344   0.037 -0.7739 -0.1949 -0.3202
 4124TIP3   OH212335   4.199   2.676   5.867  0.1151 -0.4696  0.4514
 4124TIP3    H112336   4.236   2.590   5.850  0.7179 -0.0353 -0.5106
 4124TIP3    H212337   4.192   2.681   5.962  1.3477 -1.0570  0.5855
 4125TIP3   OH212338   4.918   0.266   4.122  0.6780  0.8328 -0.5752
 4125TIP3    H112339   5.001   0.291   4.163  0.8118  0.9505 -0.9131
 4125TIP3    H212340   4.853   0.274   4.192  0.8657  1.2673 -0.4496
 4126TIP3   OH212341   2.751   5.522   3.832 -0.5042 -0.1347  0.5530
 4126TIP3    H112342   2.726   5.463   3.762  0.9218 -0.0198 -0.0832
 4126TIP3    H212343   2.722   5.609   3.803 -0.2315 -0.1405  0.2616
 4127TIP3   OH212344   3.303   5.840   1.538  0.1639  0.9635  0.1400
 4127TIP3    H112345   3.212   5.865   1.554 -0.2073  1.2635 -2.1201
 4127TIP3    H212346   3.304   5.745   1.548 -0.0701  1.0709  1.4326
 4128TIP3   OH212347   2.113   4.588   2.992 -0.0071  0.0460  0.2016
 4128TIP3    H112348   2.206   4.606   2.981  0.2189 -0.0129  1.7399
 4128TIP3    H212349   2.093   4.622   3.079 -1.9355  1.9863 -0.9180
 4129TIP3   OH212350   2.525   0.228   2.860 -0.4179  0.9008  0.6091
 4129TIP3    H112351   2.443   0.218   2.811 -0.2287  0.3797  0.3923
 4129TIP3    H212352   2.546   0.321   2.852 -1.2808  1.1509  1.1365
 4130TIP3   OH212353   3.549   0.228   3.438  0.1407  0.2545 -0.0838
 4130TIP3    H112354   3.470   0.218   3.385 -0.8724  0.8687  1.2559
 4130TIP3    H212355   3.620   0.238   3.374 -0.9464  0.3652 -1.3110
 4131TIP3   OH212356   3.734   5.165   3.245 -0.2457 -0.6122 -0.3178
 4131TIP3    H112357   3.709   5.086   3.293 -0.6632  0.3182  1.0317
 4131TIP3    H212358   3.814   5.195   3.287  1.0860 -1.4047 -2.1363
 4132TIP3   OH212359   4.245   3.693   4.504  0.0286  0.0407 -0.2649
 4132TIP3    H112360   4.207   3.766   4.456 -0.7153  0.2130  0.5583
 4132TIP3    H212361   4.340   3.709   4.502 -0.0406  0.3870 -1.0959
 4133TIP3   OH212362   6.227   3.220   3.411  0.4679  0.6180  0.0705
 4133TIP3    H112363   6.321   3.231   3.425  0.7306  1.2897 -1.9407
 4133TIP3    H212364   6.187   3.292   3.460  0.9981  0.4892  0.7123
 4134TIP3   OH212365   5.865   5.055   4.500  0.4036 -0.1574  0.3264
 4134TIP3    H112366   5.769   5.060   4.501  0.3052 -1.5477  0.0538
 4134TIP3    H212367   5.894   5.133   4.547 -0.8735  0.0483  0.7997
 4135TIP3   OH212368   1.308   3.058   3.332 -0.0702  0.3934 -0.4093
 4135TIP3    H112369   1.279   3.056   3.240 -0.4781 -0.7728 -0.2768
 4135TIP3    H212370   1.340   3.147   3.345 -0.7502  0.8159 -1.4565
 4136TIP3   OH212371   5.292   3.337   3.064 -0.4076  0.3960  0.5931
 4136TIP3    H112372   5.213   3.286   3.078  0.0141 -0.2580  0.6104
 4136TIP3    H212373   5.279   3.415   3.119 -1.3836  0.6900 -0.0327
 4137TIP3   OH212374   4.978   0.306   5.501  0.1402 -0.0247 -0.0954
 4137TIP3    H112375   5.061   0.331   5.461  1.1071 -1.3329  1.0098
 4137TIP3    H212376   4.971   0.212   5.487 -1.4498  0.1373 -0.6504
 4138TIP3   OH212377   4.190   3.925   3.990  0.7464 -0.1883 -0.4353
 4138TIP3    H112378   4.159   3.844   3.949  0.0325  0.5307 -1.3607
 4138TIP3    H212379   4.112   3.965   4.028  0.9861  0.3495 -0.4885
 4139TIP3   OH212380   6.952   3.374   1.688  0.4107  0.4205 -0.1193
 4139TIP3    H112381   6.872   3.368   1.635  0.5485  2.1846 -0.5892
 4139TIP3    H212382   7.023   3.374   1.624  0.7302 -0.1018  0.2347
 4140TIP3   OH212383   2.763   2.057   4.518 -0.0854  0.3946  0.4875
 4140TIP3    H112384   2.849   2.024   4.491  0.5797  1.8817  0.7151
 4140TIP3    H212385   2.754   2.029   4.609  0.3921  0.6753  0.6228
 4141TIP3   OH212386   1.216   6.350   3.537  0.1401  0.4640 -0.1490
 4141TIP3    H112387   1.299   6.340   3.491  0.4221  1.9723 -0.0361
 4141TIP3    H212388   1.195   6.263   3.569  2.9859  0.4560  2.0606
 4142TIP3   OH212389   5.303   6.723   4.692  0.1393 -0.2621 -0.1753
 4142TIP3    H112390   5.256   6.640   4.707 -1.8581  0.3547 -2.4097
 4142TIP3    H212391   5.341   6.713   4.604  1.8114  0.3729  0.4459
 4143TIP3   OH212392   3.316   0.285   1.869 -0.5856  0.7460  0.0658
 4143TIP3    H112393   3.248   0.332   1.917  0.0486  0.7821  0.9561
 4143TIP3    H212394   3.353   0.225   1.933  1.1233  1.6589 -0.0091
 4144TIP3   OH212395   4.070   3.127   5.015  0.4109 -0.6283  0.4170
 4144TIP3    H112396   4.064   3.032   5.004 -0.4535 -0.4951 -0.4761
 4144TIP3    H212397   3.994   3.150   5.067 -0.7343 -0.1916 -1.3465
 4145TIP3   OH212398   3.166   2.267   1.114  0.0309  0.2457 -0.0682
 4145TIP3    H112399   3.130   2.189   1.156 -0.1869  1.0294  1.2828
 4145TIP3    H212400   3.124   2.340   1.161  1.9399  1.1845  0.2782
 4146TIP3   OH212401   0.071   5.301   5.674 -0.0439  0.3414 -0.2674
 4146TIP3    H112402   0.139   5.234   5.666  0.0338  0.3432  0.3347
 4146TIP3    H212403   0.037   5.290   5.764  0.9585  2.0570  0.3623
 4147TIP3   OH212404   3.567   5.490   5.817  0.1152  0.4550 -0.3996
 4147TIP3    H112405   3.477   5.480   5.787  0.2803 -0.1197 -0.7143
 4147TIP3    H212406   3.558   5.513   5.909 -0.3587  0.3834 -0.4217
 4148TIP3   OH212407   4.811   5.867   4.119 -0.6928 -0.2429 -0.3447
 4148TIP3    H112408   4.770   5.891   4.036  1.8994  1.8047 -1.1644
 4148TIP3    H212409   4.767   5.921   4.185  0.6967  2.1354 -1.2449
 4149TIP3   OH212410   4.132   2.643   0.706 -0.3162 -0.5737 -0.2499
 4149TIP3    H112411   4.082   2.588   0.767  1.1499 -1.1587  0.4557
 4149TIP3    H212412   4.193   2.583   0.664  0.0091  0.1841 -0.8771
 4150TIP3   OH212413   3.867   1.257   5.777  0.2367  0.2456 -0.7617
 4150TIP3    H112414   3.861   1.252   5.872  1.0670 -0.2854 -0.7377
 4150TIP3    H212415   3.959   1.245   5.757 -0.0562 -0.6265 -1.6947
 4151TIP3   OH212416   2.582   5.094   5.398 -0.0989 -0.0871  0.3101
 4151TIP3    H112417   2.548   5.006   5.384 -1.4009  0.4404  0.0080
 4151TIP3    H212418   2.635   5.112   5.321  0.0218 -0.5419  0.2871
 4152TIP3   OH212419   0.852   4.245   2.420  0.0725  0.2636 -0.1323
 4152TIP3    H112420   0.900   4.230   2.501 -1.1614  0.9457  0.7594
 4152TIP3    H212421   0.772   4.290   2.447 -1.2865 -1.1995 -1.5106
 4153TIP3   OH212422   1.088   3.687   1.028 -0.1629 -0.0718 -0.4296
 4153TIP3    H112423   1.021   3.659   0.965  0.6137  1.6380 -2.1182
 4153TIP3    H212424   1.121   3.606   1.067 -0.4974 -1.2275 -2.4456
 4154TIP3   OH212425   4.257   5.644   1.877 -0.1904  0.0359  0.4037
 4154TIP3    H112426   4.306   5.624   1.798 -2.3260 -0.8044 -0.7809
 4154TIP3    H212427   4.266   5.739   1.887  0.0466  0.1637 -0.8916
 4155TIP3   OH212428   5.618   2.397   0.547  0.6879  0.0630 -0.1326
 4155TIP3    H112429   5.586   2.486   0.562  0.8913 -0.0186  0.8663
 4155TIP3    H212430   5.699   2.410   0.496  0.8299  0.4597  0.1889
 4156TIP3   OH212431   0.024   5.287   5.391  0.2785  0.5543 -0.0431
 4156TIP3    H112432   0.027   5.193   5.371  1.0477  0.4847  0.3805
 4156TIP3    H212433   0.013   5.291   5.486  0.2032  0.8964 -0.0662
 4157TIP3   OH212434   6.167   5.436   5.512  1.0720  0.0579 -0.1830
 4157TIP3    H112435   6.088   5.459   5.560  2.0162  2.2448  0.4500
 4157TIP3    H212436   6.154   5.344   5.487 -1.8644  0.4731 -0.5889
 4158TIP3   OH212437   3.336   4.190   5.333  0.5757  0.2342 -0.0032
 4158TIP3    H112438   3.318   4.159   5.244  0.1426  0.2486  0.0793
 4158TIP3    H212439   3.398   4.126   5.368 -1.3257 -1.3547  0.6412
 4159TIP3   OH212440   6.971   6.804   4.999 -0.4260  0.0795  0.0956
 4159TIP3    H112441   7.057   6.833   4.969  0.0964  1.0036  2.2342
 4159TIP3    H212442   6.991   6.747   5.074 -1.6518 -0.6603 -0.1231
 4160TIP3   OH212443   0.775   5.610   3.595  0.1284 -0.7718 -0.2897
 4160TIP3    H112444   0.700   5.669   3.599  0.4465 -0.1464 -2.1669
 4160TIP3    H212445   0.757   5.555   3.519  0.0316 -2.8859  1.1899
 4161TIP3   OH212446   1.225   1.762   5.361 -0.3239 -0.2406 -0.4162
 4161TIP3    H112447   1.301   1.787   5.308 -0.1207 -1.4642 -0.7222
 4161TIP3    H212448   1.184   1.691   5.311 -1.3469  0.0310  0.0278
 4162TIP3   OH212449   6.840   5.148   5.422 -0.0276  0.4830  0.3529
 4162TIP3    H112450   6.756   5.115   5.391  0.1071 -2.0506  2.3887
 4162TIP3    H212451   6.905   5.110   5.363 -0.1194 -0.1620  0.6593
 4163TIP3   OH212452   3.226   1.628   2.548  0.0239 -0.1850  0.1152
 4163TIP3    H112453   3.179   1.558   2.502  0.3104 -1.1084  1.1749
 4163TIP3    H212454   3.310   1.588   2.573 -0.2741  0.1287  1.7681
 4164TIP3   OH212455   2.822   3.023   5.385 -0.0834 -0.4106  0.1749
 4164TIP3    H112456   2.882   3.077   5.437 -1.2758 -0.4449  1.6639
 4164TIP3    H212457   2.869   2.940   5.372  1.8684  0.9388 -2.3500
 4165TIP3   OH212458   3.791   0.692   0.207  0.4080  0.3529 -0.2339
 4165TIP3    H112459   3.753   0.775   0.236 -0.6402 -0.3201  0.3584
 4165TIP3    H212460   3.884   0.700   0.230  0.1666  1.0400  0.5602
 4166TIP3   OH212461   0.207   3.659   5.367 -0.3079  0.3084 -0.2504
 4166TIP3    H112462   0.135   3.722   5.368 -0.7063 -0.1005 -1.1177
 4166TIP3    H212463   0.191   3.603   5.443  0.0099  1.1944  0.4800
 4167TIP3   OH212464   2.372   4.997   1.724  0.0447 -0.5433  0.2424
 4167TIP3    H112465   2.435   4.952   1.667 -0.9702 -0.5881 -0.8984
 4167TIP3    H212466   2.403   5.087   1.728 -0.4205 -0.2924 -1.2567
 4168TIP3   OH212467   0.494   5.343   1.422 -0.1191  0.8858  0.1611
 4168TIP3    H112468   0.589   5.345   1.419 -0.1158  1.5400  0.4760
 4168TIP3    H212469   0.473   5.299   1.505 -0.0576  2.7132  1.2050
 4169TIP3   OH212470   5.127   4.203   0.107  0.2211 -0.0549  0.0834
 4169TIP3    H112471   5.150   4.207   0.014 -0.8465 -1.0666 -0.2567
 4169TIP3    H212472   5.053   4.264   0.115  0.1672 -0.1375  0.2143
 4170TIP3   OH212473   5.986   0.873   4.231  0.0236 -0.7610 -0.0132
 4170TIP3    H112474   6.031   0.819   4.297  0.8958 -1.2325 -0.9676
 4170TIP3    H212475   5.958   0.951   4.280  0.1432 -1.3517  1.0363
 4171TIP3   OH212476   5.698   3.462   1.578 -0.0558  0.0982 -0.7359
 4171TIP3    H112477   5.774   3.470   1.635 -0.0031 -1.6487 -0.4977
 4171TIP3    H212478   5.633   3.521   1.616  0.3106 -0.3294  0.5934
 4172TIP3   OH212479   5.387   1.462   2.643  0.4522 -0.1964  0.5092
 4172TIP3    H112480   5.378   1.480   2.550 -0.5579 -2.5355  0.0892
 4172TIP3    H212481   5.482   1.462   2.658  0.6597 -0.6267 -0.7050
 4173TIP3   OH212482   6.970   4.372   3.592  0.4507  0.0105  0.2636
 4173TIP3    H112483   6.973   4.434   3.519 -1.9237  1.1710  1.0438
 4173TIP3    H212484   7.031   4.407   3.656  0.7578  0.3242 -0.1979
 4174TIP3   OH212485   6.262   3.214   2.808  0.0628 -0.0862 -0.1751
 4174TIP3    H112486   6.234   3.213   2.717  1.4005 -3.3230 -0.6765
 4174TIP3    H212487   6.335   3.276   2.810 -0.8858  1.0909 -0.9369
 4175TIP3   OH212488   0.713   2.744   5.330  0.0246 -0.2608  0.4328
 4175TIP3    H112489   0.669   2.742   5.415  0.6413  3.2011  0.9616
 4175TIP3    H212490   0.800   2.709   5.347  0.4925  1.3399  1.5309
 4176TIP3   OH212491   6.276   3.324   1.829 -0.3135 -0.0495 -0.1838
 4176TIP3    H112492   6.202   3.355   1.776  0.3612  1.0159 -0.5290
 4176TIP3    H212493   6.251   3.235   1.855 -1.2978 -0.0586 -1.0838
 4177TIP3   OH212494   2.322   3.693   3.898  0.7479  0.4475  0.1190
 4177TIP3    H112495   2.289   3.661   3.814  0.3610 -1.0683  0.8233
 4177TIP3    H212496   2.255   3.753   3.929  0.8299  0.9132 -0.5751
 4178TIP3   OH212497   6.148   3.715   2.040  0.5157 -0.4160  0.1196
 4178TIP3    H112498   6.224   3.730   1.984 -1.5420 -0.8399 -3.0499
 4178TIP3    H212499   6.105   3.801   2.045 -1.8966 -1.1970 -3.3211
 4179TIP3   OH212500   1.364   4.724   4.924  0.1764  0.1980 -0.3046
 4179TIP3    H112501   1.332   4.770   4.846  0.7871 -1.0257 -1.3117
 4179TIP3    H212502   1.458   4.741   4.925  0.1306  0.4512  0.3544
 4180TIP3   OH212503   5.871   0.152   0.616  0.3722 -0.6010 -0.7219
 4180TIP3    H112504   5.784   0.169   0.579  0.6408  0.4346 -0.9152
 4180TIP3    H212505   5.894   0.234   0.660  0.9364 -1.1254 -0.0165
 4181TIP3   OH212506   2.602   1.629   1.505 -0.5298  0.0150 -0.5666
 4181TIP3    H112507   2.520   1.672   1.529  0.6709  0.8406  2.7345
 4181TIP3    H212508   2.598   1.543   1.547  0.6894  0.5568  0.8016
 4182TIP3   OH212509   4.973   4.947   3.002 -0.7572 -0.4181  0.1115
 4182TIP3    H112510   5.037   5.010   2.969 -0.8028 -1.3339 -1.9178
 4182TIP3    H212511   4.895   4.999   3.021  0.2986  0.6058  1.9434
 4183TIP3   OH212512   0.312   1.868   0.930 -0.1811 -0.2228  0.7812
 4183TIP3    H112513   0.385   1.810   0.910 -0.3446 -0.5446  1.1107
 4183TIP3    H212514   0.235   1.812   0.925 -0.3702  0.0342  0.7944
 4184TIP3   OH212515   4.171   2.815   2.446 -0.1466  0.6572 -0.4994
 4184TIP3    H112516   4.234   2.754   2.484  0.9853  2.0184 -0.0982
 4184TIP3    H212517   4.222   2.865   2.382 -1.2691  0.5583 -1.4972
 4185TIP3   OH212518   5.769   5.801   0.093 -0.0242  0.1163  0.3254
 4185TIP3    H112519   5.830   5.804   0.020  0.2217 -1.3546  0.4426
 4185TIP3    H212520   5.822   5.768   0.166 -0.9958 -1.4972  0.3471
 4186TIP3   OH212521   3.888   1.518   3.101 -0.3374 -0.4733 -0.1081
 4186TIP3    H112522   3.941   1.458   3.049 -1.3525 -0.3415 -1.3288
 4186TIP3    H212523   3.950   1.555   3.164  1.1272 -0.0396 -1.7152
 4187TIP3   OH212524   3.224   2.667   1.488  0.5402 -0.4312 -0.2208
 4187TIP3    H112525   3.282   2.645   1.561 -0.4278  1.0147  1.0642
 4187TIP3    H212526   3.215   2.762   1.492 -2.3543 -0.6137  0.0521
 4188TIP3   OH212527   5.372   5.744   0.489  0.1393  0.9408 -0.3309
 4188TIP3    H112528   5.416   5.828   0.501  1.3770  0.0803  1.5464
 4188TIP3    H212529   5.425   5.697   0.425  0.7412  0.7339  0.3141
 4189TIP3   OH212530   7.042   1.516   2.371  0.6791  0.0807  0.7470
 4189TIP3    H112531   7.121   1.537   2.320  1.4172  0.2603  1.9401
 4189TIP3    H212532   7.032   1.421   2.361 -0.2151  0.3210 -1.1560
 4190TIP3   OH212533   1.076   0.320   4.433  0.1405 -0.1004 -0.1478
 4190TIP3    H112534   1.073   0.409   4.467 -0.2016  0.1820 -0.9043
 4190TIP3    H212535   0.990   0.306   4.393  1.1371  0.2659 -2.6127
 4191TIP3   OH212536   3.187   4.396   5.439  0.5992 -0.5320  0.0616
 4191TIP3    H112537   3.226   4.408   5.526  0.9964  0.2881 -0.2165
 4191TIP3    H212538   3.217   4.310   5.411  2.0446 -0.0294 -0.0379
 4192TIP3   OH212539   0.848   6.619   1.416 -0.0548  0.2184  0.6115
 4192TIP3    H112540   0.883   6.535   1.445 -0.1973 -0.1287 -0.1904
 4192TIP3    H212541   0.922   6.664   1.375 -0.0017  0.4458  0.9524
 4193TIP3   OH212542   4.683   3.875   0.744 -0.2192  0.3969 -0.4355
 4193TIP3    H112543   4.754   3.810   0.746  0.7088  1.3655 -1.3708
 4193TIP3    H212544   4.612   3.832   0.695 -0.2932 -0.5563  0.4643
 4194TIP3   OH212545   0.041   0.956   0.154 -0.1321  0.3126  0.8125
 4194TIP3    H112546   0.068   1.042   0.184  1.1946  0.0025  0.5650
 4194TIP3    H212547  -0.018   0.974   0.080  1.1818  1.0142 -0.1065
 4195TIP3   OH212548   4.505   6.010   2.108 -0.1580  0.7626 -0.6798
 4195TIP3    H112549   4.590   6.042   2.140 -0.2499  0.2774  0.0787
 4195TIP3    H212550   4.459   5.982   2.187  1.0231 -4.0445 -1.3833
 4196TIP3   OH212551   3.027   2.553   4.408 -0.0050 -0.7577  0.4212
 4196TIP3    H112552   2.967   2.506   4.349  0.7706 -0.1036 -0.9485
 4196TIP3    H212553   2.999   2.644   4.403  0.8994 -0.4891 -0.0108
 4197TIP3   OH212554   5.096   0.309   4.623  0.2916 -0.4551 -0.3343
 4197TIP3    H112555   5.117   0.283   4.713  0.2691  2.6803  0.7264
 4197TIP3    H212556   5.001   0.322   4.623  0.1908 -1.0987 -1.0500
 4198TIP3   OH212557   0.813   1.755   5.176  0.2949  0.0219  0.1093
 4198TIP3    H112558   0.772   1.717   5.098  0.1791  2.3861 -1.0911
 4198TIP3    H212559   0.903   1.772   5.149  0.8901 -1.1104  1.2724
 4199TIP3   OH212560   2.412   2.097   2.599 -0.6538  0.3000  0.4401
 4199TIP3    H112561   2.478   2.157   2.565  2.1335 -2.6973  0.1097
 4199TIP3    H212562   2.366   2.065   2.521 -0.9336  0.6295  0.4640
 4200TIP3   OH212563   3.367   6.771   0.408 -0.2253 -0.1989 -0.0115
 4200TIP3    H112564   3.280   6.756   0.445  0.2773 -1.6713  0.6755
 4200TIP3    H212565   3.352   6.774   0.313 -1.0179 -0.6006  0.0903
 4201TIP3   OH212566   5.412   3.503   0.706  0.1141 -0.2971 -0.7722
 4201TIP3    H112567   5.322   3.536   0.713  0.0006 -0.8722  1.5920
 4201TIP3    H212568   5.448   3.545   0.628 -1.8092  0.9348 -1.0516
 4202TIP3   OH212569   5.959   6.336   5.493  0.0022 -0.2934  0.5312
 4202TIP3    H112570   5.954   6.280   5.571 -3.3193 -0.0572  0.6422
 4202TIP3    H212571   5.990   6.420   5.527 -1.1043 -0.2856  1.6016
 4203TIP3   OH212572   5.242   3.296   2.308  0.0665 -0.2735 -0.0683
 4203TIP3    H112573   5.193   3.267   2.385  1.6823 -1.7440  0.4601
 4203TIP3    H212574   5.203   3.247   2.235  2.4032 -3.7134  0.7311
 4204TIP3   OH212575   3.578   2.107   0.606 -0.0704  0.1801  0.0640
 4204TIP3    H112576   3.555   2.182   0.551  1.7282  0.0833 -0.8854
 4204TIP3    H212577   3.595   2.145   0.692  1.4298  0.9861 -0.5556
 4205TIP3   OH212578   5.903   6.099   4.497 -0.4765  0.3337 -0.0243
 4205TIP3    H112579   5.895   6.010   4.530 -0.2001 -0.3411 -1.6670
 4205TIP3    H212580   5.902   6.154   4.575  0.9673 -1.2016  1.1422
 4206TIP3   OH212581   6.227   6.562   3.495 -0.0323  0.5612 -0.6663
 4206TIP3    H112582   6.294   6.499   3.467  0.7025  0.4673  1.1185
 4206TIP3    H212583   6.230   6.631   3.429  1.4997  0.3121 -0.8993
 4207TIP3   OH212584   6.945   2.625   5.681 -0.4575  0.7292  0.0009
 4207TIP3    H112585   6.951   2.687   5.753  0.5451 -0.6386  1.1583
 4207TIP3    H212586   7.034   2.620   5.646 -0.1458 -1.1063  0.9012
 4208TIP3   OH212587   1.094   5.751   4.828  0.1142 -0.1872  0.0381
 4208TIP3    H112588   1.118   5.843   4.838 -0.5462  0.0232 -0.2443
 4208TIP3    H212589   1.166   5.702   4.869  0.5421  0.4466  0.0526
 4209TIP3   OH212590   5.444   3.409   0.112 -0.3498  0.0224 -0.3798
 4209TIP3    H112591   5.445   3.417   0.208  1.3516 -0.2239 -0.3498
 4209TIP3    H212592   5.495   3.484   0.081  0.9200 -1.0566 -0.9725
 4210TIP3   OH212593   0.166   2.686   3.016 -0.4476 -0.3566  0.1075
 4210TIP3    H112594   0.147   2.613   2.957 -2.9670  0.9311 -0.8415
 4210TIP3    H212595   0.101   2.678   3.085 -0.1330  0.4258  0.5094
 4211TIP3   OH212596   3.406   6.653   3.651  0.2036 -0.5676  0.0415
 4211TIP3    H112597   3.439   6.632   3.563 -1.4392 -1.5925 -0.3879
 4211TIP3    H212598   3.314   6.629   3.647 -0.5624  1.8587  1.2567
 4212TIP3   OH212599   5.757   0.731   4.207 -0.2934 -0.7020 -0.0984
 4212TIP3    H112600   5.851   0.752   4.207  0.5113 -3.8778  0.5223
 4212TIP3    H212601   5.731   0.739   4.115  1.1216 -1.8060 -0.6286
 4213TIP3   OH212602   3.589   1.978   3.919 -0.5095  0.5170 -0.1128
 4213TIP3    H112603   3.562   1.886   3.914 -1.2378  0.6300  1.3414
 4213TIP3    H212604   3.596   1.996   4.013 -0.8704  2.0883 -0.3592
 4214TIP3   OH212605   5.355   4.339   1.767 -0.1224 -0.0435 -0.5242
 4214TIP3    H112606   5.444   4.309   1.783 -0.7209 -2.0003 -0.6765
 4214TIP3    H212607   5.315   4.271   1.713 -1.9733  0.3714  0.2175
 4215TIP3   OH212608   0.859   5.645   4.704  0.3424 -0.0253 -0.6702
 4215TIP3    H112609   0.871   5.686   4.619  1.2124 -0.7679 -0.9241
 4215TIP3    H212610   0.941   5.662   4.751 -0.1339  0.3889  0.0235
 4216TIP3   OH212611   2.394   1.825   1.413 -0.1782  0.5795 -0.0232
 4216TIP3    H112612   2.313   1.778   1.393  0.5926 -0.4828 -0.7808
 4216TIP3    H212613   2.436   1.835   1.328  0.4776  1.1346  0.3622
 4217TIP3   OH212614   0.353   4.553   5.884  0.2531 -0.4738  0.3462
 4217TIP3    H112615   0.299   4.493   5.935 -0.4640 -0.2158 -0.0872
 4217TIP3    H212616   0.357   4.514   5.797 -0.1165  0.0327  0.0958
 4218TIP3   OH212617   1.415   0.381   4.658  0.2267 -0.0688 -0.3109
 4218TIP3    H112618   1.400   0.467   4.618  0.2024  0.3301  0.5311
 4218TIP3    H212619   1.510   0.374   4.664  0.2399  1.3068  2.4963
 4219TIP3   OH212620   5.567   1.255   5.501 -0.0919  0.2717  0.0736
 4219TIP3    H112621   5.549   1.330   5.557 -1.4262 -0.4305  0.6253
 4219TIP3    H212622   5.659   1.265   5.476  0.9700 -0.0883  3.4199
 4220TIP3   OH212623   1.632   6.145   4.438  0.0429 -0.2965 -0.0119
 4220TIP3    H112624   1.631   6.147   4.343 -0.1899  0.8711  0.0042
 4220TIP3    H212625   1.678   6.225   4.464 -1.6021  0.4282  0.8580
 4221TIP3   OH212626   0.093   6.182   3.374 -0.6380  0.0873  0.6655
 4221TIP3    H112627   0.052   6.239   3.439  0.6381  1.7707  0.0617
 4221TIP3    H212628   0.184   6.212   3.370  0.0184 -1.8415  0.1192
 4222TIP3   OH212629   2.421   2.069   2.032 -0.3317  0.2132  0.3216
 4222TIP3    H112630   2.360   1.997   2.045 -1.4184  1.2541  1.1931
 4222TIP3    H212631   2.371   2.148   2.053  0.9744  1.1932 -0.0802
 4223TIP3   OH212632   6.819   3.758   5.803 -0.2613 -0.4666 -0.3490
 4223TIP3    H112633   6.754   3.819   5.768 -1.5155 -2.4210 -1.5677
 4223TIP3    H212634   6.768   3.684   5.837  1.2154 -0.8778  1.1211
 4224TIP3   OH212635   6.799   6.236   3.861 -0.5297 -0.0137 -0.5925
 4224TIP3    H112636   6.794   6.199   3.773  0.9281  0.5175 -0.9439
 4224TIP3    H212637   6.789   6.162   3.920 -1.3144 -0.4057 -1.2121
 4225TIP3   OH212638   1.056   1.917   3.243  0.3026 -0.2160  0.1581
 4225TIP3    H112639   0.993   1.846   3.257  1.2730 -1.0087  0.5286
 4225TIP3    H212640   1.133   1.874   3.207  0.8628  0.6758  0.2817
 4226TIP3   OH212641   4.410   1.456   5.456 -0.0427  0.0227  0.1637
 4226TIP3    H112642   4.478   1.398   5.492  0.4063  0.3821 -0.1076
 4226TIP3    H212643   4.383   1.414   5.374 -0.4224 -0.3172  0.4553
 4227TIP3   OH212644   6.460   0.180   4.273 -0.0757  0.2635  0.6004
 4227TIP3    H112645   6.445   0.106   4.333  0.3604 -0.0912  0.2749
 4227TIP3    H212646   6.490   0.139   4.192  1.6914  0.8785  0.9017
 4228TIP3   OH212647   2.550   1.363   5.631  0.6597 -0.2252  0.0371
 4228TIP3    H112648   2.511   1.350   5.717  1.2748  0.8101  0.4898
 4228TIP3    H212649   2.643   1.376   5.648  0.6881  0.6808 -0.6975
 4229TIP3   OH212650   7.040   3.955   5.007 -0.4065  0.3431  0.0673
 4229TIP3    H112651   7.004   3.958   4.919  2.5162 -1.7677 -1.3577
 4229TIP3    H212652   7.074   4.044   5.022  0.4535  0.3225 -1.6069
 4230TIP3   OH212653   5.860   4.313   4.072 -0.3053  0.7262 -0.1196
 4230TIP3    H112654   5.817   4.357   4.145 -1.5768 -0.7683  0.0773
 4230TIP3    H212655   5.788   4.278   4.020  0.6408 -1.0960 -0.2675
 4231TIP3   OH212656   4.536   1.682   4.515 -0.4396  0.0139 -0.2425
 4231TIP3    H112657   4.563   1.607   4.463  3.5842  0.0813  1.3940
 4231TIP3    H212658   4.545   1.757   4.455  1.4510 -0.2098 -0.2958
 4232TIP3   OH212659   2.142   5.046   4.801 -0.3766 -0.3393  0.7682
 4232TIP3    H112660   2.111   5.103   4.730  0.7077  0.4937  0.9481
 4232TIP3    H212661   2.122   4.958   4.770  0.6354 -0.0401 -0.8963
 4233TIP3   OH212662   2.881   4.645   4.505  0.4529 -0.0028  0.1102
 4233TIP3    H112663   2.907   4.723   4.554  1.5716  1.2875 -2.3178
 4233TIP3    H212664   2.805   4.672   4.453 -0.2635 -1.0954  0.5422
 4234TIP3   OH212665   4.050   2.700   4.018  0.0521 -0.3677  0.4514
 4234TIP3    H112666   4.101   2.627   3.983  0.6739  0.4252 -0.3462
 4234TIP3    H212667   4.115   2.768   4.035 -0.3756 -0.3597  2.2045
 4235TIP3   OH212668   1.501   1.879   2.945  0.0629  0.0555  0.1475
 4235TIP3    H112669   1.462   1.966   2.933  1.2644  0.4773 -0.9119
 4235TIP3    H212670   1.595   1.896   2.956  0.1202 -1.0124  1.5514
 4236TIP3   OH212671   5.483   0.588   4.494 -0.1587 -0.2478  0.3587
 4236TIP3    H112672   5.486   0.627   4.407 -0.4813  0.8613  0.8262
 4236TIP3    H212673   5.457   0.498   4.479  1.7665 -0.6681 -0.8587
 4237TIP3   OH212674   4.652   3.611   3.496  0.0637  0.1567  0.2596
 4237TIP3    H112675   4.653   3.699   3.533 -1.5778  0.4085 -0.2206
 4237TIP3    H212676   4.722   3.565   3.541  2.0761  2.1547 -0.6557
 4238TIP3   OH212677   4.265   0.007   0.355 -0.1047 -0.3134 -0.0439
 4238TIP3    H112678   4.248  -0.037   0.271 -2.8657 -2.8676  1.6456
 4238TIP3    H212679   4.189   0.065   0.367 -0.9486 -1.6701  1.5915
 4239TIP3   OH212680   0.860   6.059   1.670  0.8014 -0.0033  0.1963
 4239TIP3    H112681   0.944   6.103   1.661  0.7632 -0.1364 -0.9511
 4239TIP3    H212682   0.875   5.970   1.640  0.8142 -0.7486  2.2732
 4240TIP3   OH212683   3.625   4.017   0.453 -0.5100  0.2063  0.1182
 4240TIP3    H112684   3.576   4.098   0.465  0.8662  1.0069  0.5307
 4240TIP3    H212685   3.669   4.002   0.537  1.0036  0.2541 -0.6355
 4241TIP3   OH212686   3.054   5.686   3.355  0.7427  0.2120  0.0599
 4241TIP3    H112687   3.059   5.733   3.438 -0.1340 -0.6658  0.6314
 4241TIP3    H212688   3.141   5.693   3.317  1.0684  0.8727  0.9166
 4242TIP3   OH212689   5.726   3.342   3.158  0.6093  0.4673  0.1382
 4242TIP3    H112690   5.803   3.319   3.105  0.8112 -1.5653  1.1994
 4242TIP3    H212691   5.664   3.271   3.141 -0.4465  1.3028  0.4387
 4243TIP3   OH212692   5.801   1.688   1.341  0.0069 -0.1243  0.2587
 4243TIP3    H112693   5.823   1.773   1.303 -0.2785  0.2873  0.9938
 4243TIP3    H212694   5.734   1.652   1.283  0.2431  0.0738 -0.1449
 4244TIP3   OH212695   1.368   5.181   5.771  0.3277  0.1716  0.3731
 4244TIP3    H112696   1.434   5.111   5.777  1.1668  0.9908  1.1177
 4244TIP3    H212697   1.327   5.181   5.857 -1.4214 -1.0244 -0.4090
 4245TIP3   OH212698   5.709   5.245   5.620 -0.5980  0.1112 -0.3968
 4245TIP3    H112699   5.719   5.306   5.547 -0.7106 -1.3419 -1.6881
 4245TIP3    H212700   5.797   5.210   5.634 -0.3371  1.2463  0.9959
 4246TIP3   OH212701   6.683   3.789   4.964 -1.2878 -0.1102 -0.4000
 4246TIP3    H112702   6.669   3.878   4.998 -0.7768 -0.2711  0.2610
 4246TIP3    H212703   6.705   3.737   5.041  0.6112 -0.3415 -1.0294
 4247TIP3   OH212704   1.081   0.170   4.716 -0.1518  0.1080  0.1524
 4247TIP3    H112705   1.083   0.215   4.631  4.2170 -0.3385 -0.2177
 4247TIP3    H212706   1.087   0.240   4.781  0.5434  0.3508 -0.1569
 4248TIP3   OH212707   6.029   3.674   4.154 -0.5968  0.0477  0.6083
 4248TIP3    H112708   5.950   3.709   4.194 -1.5800 -0.1096 -1.1057
 4248TIP3    H212709   6.002   3.646   4.067  0.7300 -2.5249  0.9032
 4249TIP3   OH212710   6.088   1.196   3.184 -0.5572 -0.0939 -0.2776
 4249TIP3    H112711   6.137   1.249   3.121 -0.8577 -0.5473 -0.8917
 4249TIP3    H212712   6.042   1.131   3.131 -0.0632 -1.0813  0.4754
 4250TIP3   OH212713   2.124   0.542   5.143 -0.3768 -0.8173 -0.0990
 4250TIP3    H112714   2.113   0.458   5.097  0.3076 -1.0363  0.1253
 4250TIP3    H212715   2.061   0.600   5.102  1.0815 -0.6293 -2.2598
 4251TIP3   OH212716   0.641   5.111   0.399  0.0802  0.0724  0.6429
 4251TIP3    H112717   0.607   5.153   0.478 -0.1527  1.2418 -0.0460
 4251TIP3    H212718   0.661   5.184   0.341 -2.2510 -0.7773 -1.4140
 4252TIP3   OH212719   2.770   1.838   5.859  0.7794  0.3225 -0.4935
 4252TIP3    H112720   2.715   1.759   5.861 -1.9076  2.0537  1.0891
 4252TIP3    H212721   2.852   1.811   5.900 -1.0144 -1.0890  2.4889
 4253TIP3   OH212722   4.585   6.505   0.935 -0.3239 -0.6021  0.2800
 4253TIP3    H112723   4.528   6.555   0.877  0.3251 -0.3599 -0.1590
 4253TIP3    H212724   4.662   6.485   0.882 -0.2230 -1.3773  0.7038
 4254TIP3   OH212725   2.983   6.803   2.972  0.2808 -0.3581 -0.3139
 4254TIP3    H112726   3.018   6.719   2.941  1.1514 -0.4647  0.8709
 4254TIP3    H212727   2.892   6.784   2.995  0.3813 -0.8974 -0.3396
 4255TIP3   OH212728   5.241   0.996   1.565  0.0314  0.2141 -0.8226
 4255TIP3    H112729   5.289   0.913   1.566  0.9346  0.6342 -3.2251
 4255TIP3    H212730   5.238   1.023   1.657  0.2499 -2.1473 -0.0514
 4256TIP3   OH212731   3.550   1.164   2.446 -0.0519  0.1439 -0.0783
 4256TIP3    H112732   3.601   1.165   2.527 -2.5533 -0.2963  1.6057
 4256TIP3    H212733   3.478   1.225   2.462 -0.6692 -0.0229 -1.9597
 4257TIP3   OH212734   0.121   0.240   5.630  0.0999  0.9379  0.3820
 4257TIP3    H112735   0.043   0.293   5.648 -1.1389 -0.3811 -0.8893
 4257TIP3    H212736   0.190   0.305   5.615 -1.5365  2.3163 -1.9381
 4258TIP3   OH212737   6.036   3.914   3.598  0.5388 -0.1758  0.5557
 4258TIP3    H112738   6.081   3.955   3.524 -0.4577  0.7061  0.3939
 4258TIP3    H212739   6.022   3.824   3.571  2.4969 -0.5851  0.7702
 4259TIP3   OH212740   5.255   2.387   4.137  0.0681 -0.0526 -0.2136
 4259TIP3    H112741   5.309   2.412   4.062  0.9090 -0.8063  0.1264
 4259TIP3    H212742   5.227   2.470   4.174  3.9009  0.6100  1.6909
 4260TIP3   OH212743   1.769   4.054   1.910  0.4387  0.3460  0.1886
 4260TIP3    H112744   1.820   3.976   1.888  1.8483  1.1837  0.3673
 4260TIP3    H212745   1.718   4.029   1.988 -0.9929 -1.1332 -1.1439
 4261TIP3   OH212746   2.760   1.624   3.652  0.1096  0.0834  0.2416
 4261TIP3    H112747   2.811   1.675   3.589  0.3475 -1.0905 -0.5341
 4261TIP3    H212748   2.763   1.677   3.732  0.6531  1.1083 -0.4243
 4262TIP3   OH212749   1.000   2.937   2.567  0.3951 -0.4737 -0.1503
 4262TIP3    H112750   0.977   3.025   2.537  1.0904  0.0563  0.8020
 4262TIP3    H212751   0.957   2.929   2.652 -0.6450 -1.5260 -0.7532
 4263TIP3   OH212752   6.139   6.351   2.592 -0.2658 -0.2330 -0.3946
 4263TIP3    H112753   6.093   6.392   2.519 -0.5687  0.6093  0.2497
 4263TIP3    H212754   6.184   6.423   2.635  2.6419 -1.1741 -1.6416
 4264TIP3   OH212755   6.232   0.517   3.031 -0.7199 -0.7095  0.3327
 4264TIP3    H112756   6.155   0.569   3.006 -0.6598 -0.9587 -0.3945
 4264TIP3    H212757   6.195   0.435   3.065 -0.7860 -0.7363  0.1984
 4265TIP3   OH212758   5.690   3.294   5.751  0.2984  0.3043  0.1160
 4265TIP3    H112759   5.619   3.257   5.805  1.2886 -0.0351  1.2212
 4265TIP3    H212760   5.689   3.388   5.773  0.7249  0.1610  0.7697
 4266TIP3   OH212761   4.064   0.743   0.292 -0.4502 -0.6733  0.8951
 4266TIP3    H112762   4.117   0.664   0.303 -0.2737 -0.7153 -0.1580
 4266TIP3    H212763   4.121   0.814   0.320  0.3856 -0.6638 -0.7022
 4267TIP3   OH212764   2.302   5.236   5.000  0.5385 -0.7154  0.0212
 4267TIP3    H112765   2.294   5.251   4.905  0.9034  0.1637  0.1202
 4267TIP3    H212766   2.363   5.162   5.007 -0.2238 -1.3997 -0.4490
 4268TIP3   OH212767   5.542   6.361   1.659  0.0019 -0.0257  0.3507
 4268TIP3    H112768   5.585   6.322   1.735  0.7818  0.2706  0.0776
 4268TIP3    H212769   5.585   6.320   1.584  0.2065  0.6871  0.0689
 4269TIP3   OH212770   1.769   2.038   1.754 -0.5754 -0.0012  0.9353
 4269TIP3    H112771   1.805   2.103   1.813  3.3475 -1.5284  0.4901
 4269TIP3    H212772   1.771   1.956   1.803  0.9031 -0.9251 -0.5421
 4270TIP3   OH212773   3.158   2.966   1.497  0.5388 -0.8002 -0.5456
 4270TIP3    H112774   3.070   2.948   1.532  0.4016 -1.7521 -1.3363
 4270TIP3    H212775   3.159   3.060   1.481  0.6395 -0.2786  2.0671
 4271TIP3   OH212776   6.548   2.041   2.130  0.0899  0.2208  0.7308
 4271TIP3    H112777   6.625   1.994   2.097 -0.9531 -0.1547 -1.3338
 4271TIP3    H212778   6.584   2.123   2.165  1.4202  0.1398 -0.3583
 4272TIP3   OH212779   3.980   0.504   3.766  0.5278 -0.3815  0.6338
 4272TIP3    H112780   3.977   0.592   3.729  1.5373 -0.2723  0.7790
 4272TIP3    H212781   4.050   0.460   3.716 -0.5098 -1.3700 -0.0086
 4273TIP3   OH212782   3.070   6.179   5.024 -0.0688 -0.3415  0.0270
 4273TIP3    H112783   3.114   6.259   5.053  0.1580 -0.9553  1.5145
 4273TIP3    H212784   3.142   6.119   5.005 -0.2351 -0.7185  0.5596
 4274TIP3   OH212785   4.807   4.204   3.129 -0.1477  0.0851 -0.4693
 4274TIP3    H112786   4.892   4.198   3.086  0.2824 -0.9044  0.4861
 4274TIP3    H212787   4.753   4.137   3.087 -0.1798  0.1004 -0.4537
 4275TIP3   OH212788   0.965   0.406   4.909  0.1095  0.1255  0.3765
 4275TIP3    H112789   1.042   0.422   4.855 -0.1081  0.6756  0.2175
 4275TIP3    H212790   0.960   0.482   4.968 -0.9045  0.6517 -0.3453
 4276TIP3   OH212791   6.532   3.878  -0.024  0.1222  0.1053  0.5243
 4276TIP3    H112792   6.503   3.848   0.062  0.2713  1.2512  0.9870
 4276TIP3    H212793   6.625   3.856  -0.027 -0.1593 -1.0940  0.1306
 4277TIP3   OH212794   2.025   3.658   5.082 -0.3861  0.6116  0.4305
 4277TIP3    H112795   2.066   3.579   5.117  1.3341  1.7421  1.1065
 4277TIP3    H212796   2.041   3.653   4.988  2.4776  1.5208  0.7415
 4278TIP3   OH212797   4.029   0.823   5.293  0.9726  0.1640  0.0629
 4278TIP3    H112798   3.951   0.776   5.324  1.0106  0.1261  0.1020
 4278TIP3    H212799   3.996   0.886   5.229  1.1601 -1.3694 -1.6089
 4279TIP3   OH212800   5.932   4.214   1.837  0.6673  0.5616 -0.3258
 4279TIP3    H112801   5.898   4.258   1.759  1.6720  0.5691 -0.7819
 4279TIP3    H212802   6.022   4.189   1.813  1.3353  1.4034  1.1397
 4280TIP3   OH212803   3.209   0.535   0.354  0.7633  0.0705 -0.0013
 4280TIP3    H112804   3.227   0.571   0.441 -1.7991  0.2273  0.5592
 4280TIP3    H212805   3.135   0.475   0.368  0.4353 -0.0670 -2.0428
 4281TIP3   OH212806   4.513   1.059   0.383 -0.6628  0.3169  0.1928
 4281TIP3    H112807   4.477   1.118   0.317  0.7864 -0.3048 -1.2095
 4281TIP3    H212808   4.603   1.089   0.397  0.1056 -1.4692 -0.5203
 4282TIP3   OH212809   3.724   2.553   4.133  0.1801 -0.4272  0.4691
 4282TIP3    H112810   3.739   2.476   4.188 -0.1219 -1.0533 -0.3136
 4282TIP3    H212811   3.812   2.587   4.115  0.3161 -0.5943  0.7939
 4283TIP3   OH212812   7.096   3.463   0.854  0.4155  0.2399  0.2439
 4283TIP3    H112813   7.013   3.428   0.823  0.8029 -1.5159  1.0891
 4283TIP3    H212814   7.162   3.418   0.801  0.8918  0.7903  0.3533
 4284TIP3   OH212815   2.141   4.266   3.184 -0.0016 -0.0825 -0.0519
 4284TIP3    H112816   2.079   4.332   3.213 -2.2387 -2.3024  0.5642
 4284TIP3    H212817   2.142   4.274   3.089 -0.1090  0.9225  0.0214
 4285TIP3   OH212818   5.339   6.302   0.654  0.2177  0.0253  0.2542
 4285TIP3    H112819   5.412   6.354   0.687  1.5997 -1.0494 -0.9959
 4285TIP3    H212820   5.351   6.215   0.693  1.6689 -1.1651 -2.5516
 4286TIP3   OH212821   2.104   2.645   4.346  0.6171  0.2312 -0.8107
 4286TIP3    H112822   2.119   2.736   4.369  1.3757  0.0349 -0.5089
 4286TIP3    H212823   2.019   2.645   4.301 -0.9611  0.6159  1.9812
 4287TIP3   OH212824   3.302   3.449   1.250  0.2291 -0.2540 -0.2024
 4287TIP3    H112825   3.320   3.532   1.294 -0.1132  0.3256 -1.1314
 4287TIP3    H212826   3.386   3.404   1.249 -0.2984 -1.7399  3.8559
 4288TIP3   OH212827   6.421   2.051   4.828 -0.5014 -0.1023 -0.1941
 4288TIP3    H112828   6.422   1.961   4.795  2.3076 -1.1134  2.2118
 4288TIP3    H212829   6.499   2.091   4.789  0.7442 -0.1760  2.0305
 4289TIP3   OH212830   6.786   4.027   0.160 -0.1430 -0.3021 -0.4217
 4289TIP3    H112831   6.802   3.933   0.159  1.5127 -0.1031 -2.8749
 4289TIP3    H212832   6.841   4.060   0.232  0.2348 -1.0947 -0.3355
 4290TIP3   OH212833   1.989   2.290   2.583  0.1760  0.1653  0.3877
 4290TIP3    H112834   1.917   2.240   2.621  0.4673 -2.3967 -2.1215
 4290TIP3    H212835   2.058   2.288   2.650 -0.6754 -0.7549  1.2714
 4291TIP3   OH212836   4.970   0.689   3.357  0.4672 -0.1326  1.1920
 4291TIP3    H112837   4.973   0.607   3.308  1.7184  1.2163 -1.1416
 4291TIP3    H212838   5.042   0.683   3.419  2.6756  0.3910 -1.1709
 4292TIP3   OH212839   5.380   5.879   5.480  0.1739 -0.6584 -0.2606
 4292TIP3    H112840   5.295   5.837   5.473  0.7130 -1.5816 -1.7020
 4292TIP3    H212841   5.377   5.951   5.416  1.8642 -3.3239 -3.6875
 4293TIP3   OH212842   7.124   5.980   1.416  0.0624 -0.1662 -0.0733
 4293TIP3    H112843   7.044   5.931   1.433 -0.3613  0.5141 -0.0720
 4293TIP3    H212844   7.094   6.068   1.392  0.6880 -0.4555 -2.2050
 4294TIP3   OH212845   2.061   0.227   3.940  0.2923 -0.1320  0.8842
 4294TIP3    H112846   2.032   0.280   4.014 -0.7566  0.9446 -0.2517
 4294TIP3    H212847   2.004   0.253   3.867  0.4279 -2.0847  0.0043
 4295TIP3   OH212848   6.625   3.675   3.997 -0.0589  0.0377  0.1105
 4295TIP3    H112849   6.592   3.589   4.026  0.5520 -0.4543 -0.6011
 4295TIP3    H212850   6.711   3.682   4.039  0.8757 -0.7192 -1.5741
 4296TIP3   OH212851   4.830   1.493   0.944  0.2014 -0.4456  0.1410
 4296TIP3    H112852   4.773   1.453   0.879 -0.5756 -0.5328  0.8634
 4296TIP3    H212853   4.817   1.442   1.024  1.4718 -0.6191  0.2704
 4297TIP3   OH212854   4.186   5.914   0.149 -0.1659  0.0614 -0.4466
 4297TIP3    H112855   4.128   5.840   0.170  0.1612  0.0616  0.5010
 4297TIP3    H212856   4.170   5.977   0.219  2.7565 -0.9602  1.3308
 4298TIP3   OH212857   4.602   4.496   4.248  0.3589 -0.2697  0.4869
 4298TIP3    H112858   4.531   4.432   4.262 -0.6012  0.5041 -0.6122
 4298TIP3    H212859   4.598   4.553   4.324  1.4580 -1.6684  1.6649
 4299TIP3   OH212860   5.640   4.775   2.799  0.2943  0.1947 -0.3746
 4299TIP3    H112861   5.586   4.834   2.851  2.3473  1.3971  0.4997
 4299TIP3    H212862   5.604   4.688   2.816 -1.2206  0.9180  0.3127
 4300TIP3   OH212863   4.044   2.796   5.441  0.3952 -0.8079  0.0360
 4300TIP3    H112864   3.963   2.846   5.445  1.2270  0.5201  1.2758
 4300TIP3    H212865   4.037   2.731   5.510  0.2882 -0.8519 -0.0165
 4301TIP3   OH212866   1.949   2.969   1.147  0.0840 -0.2751  0.0725
 4301TIP3    H112867   1.888   2.926   1.088 -0.1122 -1.6123  1.2051
 4301TIP3    H212868   2.028   2.985   1.095 -0.6929  0.1406 -0.9918
 4302TIP3   OH212869   6.265   6.245   4.939  0.3618 -0.2257 -0.0755
 4302TIP3    H112870   6.340   6.187   4.952  1.2742  0.9245 -0.0697
 4302TIP3    H212871   6.246   6.281   5.025  0.6438  0.4777 -0.2986
 4303TIP3   OH212872   7.036   0.035   5.396 -0.1319  0.1857 -0.4661
 4303TIP3    H112873   7.013  -0.015   5.474  0.2883 -0.4173 -0.7186
 4303TIP3    H212874   7.128   0.014   5.381 -0.2294  0.2295 -1.1645
 4304TIP3   OH212875   6.360   2.496   2.688 -0.0731  0.7641  0.3109
 4304TIP3    H112876   6.275   2.527   2.657  0.3406  0.4231 -1.2433
 4304TIP3    H212877   6.408   2.474   2.608  1.2985  0.4778  1.1843
 4305TIP3   OH212878   5.407   2.236   3.674 -0.0154  0.5483 -0.0883
 4305TIP3    H112879   5.443   2.253   3.587  2.4650 -0.9784  0.5424
 4305TIP3    H212880   5.313   2.224   3.659  0.3890 -0.0151 -2.5961
 4306TIP3   OH212881   7.101   0.901   0.383 -0.2081  0.2141  0.5392
 4306TIP3    H112882   7.028   0.963   0.377  1.1760  1.9000  0.4953
 4306TIP3    H212883   7.145   0.907   0.298 -1.1723 -2.3660 -0.2468
 4307TIP3   OH212884   5.752   5.433   1.000 -0.1311  0.2433  0.4573
 4307TIP3    H112885   5.744   5.340   0.981  2.6941 -0.7106  3.1092
 4307TIP3    H212886   5.764   5.474   0.914 -1.8335 -1.7247 -0.8028
 4308TIP3   OH212887   2.420   1.512   5.236 -0.2614 -0.1099 -0.0064
 4308TIP3    H112888   2.357   1.558   5.291 -1.0224 -1.5041  0.3050
 4308TIP3    H212889   2.505   1.540   5.270 -0.7023  0.5639  0.5811
 4309TIP3   OH212890   3.375   0.132   3.014 -0.2662 -0.2193  0.4184
 4309TIP3    H112891   3.294   0.081   3.020 -2.1677  2.5257 -0.2390
 4309TIP3    H212892   3.377   0.185   3.094  0.7314 -0.0123  0.2747
 4310TIP3   OH212893   6.064   6.487   4.714 -0.8842  0.4565 -0.9994
 4310TIP3    H112894   6.156   6.472   4.735 -1.1665  0.2669  0.1975
 4310TIP3    H212895   6.050   6.580   4.735 -0.8964  0.5627 -1.4693
 4311TIP3   OH212896   2.934   3.252   0.060 -0.1969  0.2648  0.9209
 4311TIP3    H112897   2.899   3.166   0.084 -0.4252  0.4804  1.3769
 4311TIP3    H212898   2.924   3.256  -0.035  3.8174 -1.9889  0.1601
 4312TIP3   OH212899   0.345   0.533   2.824  0.2718  0.4481  0.5198
 4312TIP3    H112900   0.387   0.489   2.898 -1.2530 -1.3593  0.3869
 4312TIP3    H212901   0.262   0.486   2.812 -0.4665  2.0396 -1.0221
 4313TIP3   OH212902   0.121   6.337   5.717  0.4316 -0.1144  0.0425
 4313TIP3    H112903   0.073   6.420   5.707  0.5774 -0.2184 -1.9090
 4313TIP3    H212904   0.197   6.346   5.660  0.7410 -1.4040  0.2128
 4314TIP3   OH212905   2.517   5.967   2.788  0.3525 -0.0848  0.5119
 4314TIP3    H112906   2.565   5.901   2.739 -0.7513  1.0525 -2.2968
 4314TIP3    H212907   2.585   6.024   2.825  1.2296 -0.1965 -0.8713
 4315TIP3   OH212908   3.830   3.193   5.132  0.3059 -0.1392 -0.5341
 4315TIP3    H112909   3.741   3.161   5.117  0.1966 -1.0287  1.5840
 4315TIP3    H212910   3.823   3.248   5.210  1.2856  1.5390 -1.5689
 4316TIP3   OH212911   3.297   5.126   4.137  0.4260 -0.0227  0.2889
 4316TIP3    H112912   3.379   5.165   4.108  0.8442  0.9346  2.5372
 4316TIP3    H212913   3.318   5.034   4.155  0.7823  0.0105  0.0494
 4317TIP3   OH212914   2.738   1.092   5.472  0.1227  0.1804  0.0781
 4317TIP3    H112915   2.687   1.165   5.437  0.2318  0.8206  1.2296
 4317TIP3    H212916   2.799   1.132   5.533 -0.2693 -0.9439  1.2496
 4318TIP3   OH212917   0.293   5.933   2.970  0.4369 -0.0406 -0.2017
 4318TIP3    H112918   0.316   5.860   2.912 -1.0040  0.4339 -1.4250
 4318TIP3    H212919   0.374   5.984   2.978  0.3780  0.5724 -2.8580
 4319TIP3   OH212920   1.127   0.043   1.153 -0.1498  0.1707  0.0185
 4319TIP3    H112921   1.118   0.125   1.202 -0.0338 -1.0580  2.2047
 4319TIP3    H212922   1.159   0.070   1.067  0.6607  2.3487  0.9353
 4320TIP3   OH212923   5.972   0.475   2.424  0.2577 -0.5626  0.0958
 4320TIP3    H112924   5.978   0.395   2.478  0.4840 -1.4457 -1.1967
 4320TIP3    H212925   6.058   0.517   2.434  0.6616 -1.2569 -0.3617
 4321TIP3   OH212926   0.101   1.625   1.271 -0.6265  0.1355 -0.3773
 4321TIP3    H112927   0.153   1.544   1.280  0.6055  0.7929 -1.1539
 4321TIP3    H212928   0.014   1.601   1.301 -0.4738 -1.6882 -1.2227
 4322TIP3   OH212929   1.497   4.910   1.437  0.7609 -0.3834 -0.1151
 4322TIP3    H112930   1.403   4.909   1.456  0.7529  1.2674  0.0831
 4322TIP3    H212931   1.521   4.818   1.430 -0.9813 -0.8336 -0.7118
 4323TIP3   OH212932   2.218   1.717   5.014  0.0008 -0.2059 -0.5979
 4323TIP3    H112933   2.249   1.808   5.012  1.2263 -0.6170 -0.8439
 4323TIP3    H212934   2.162   1.713   5.091 -1.4403  1.1812 -1.5181
 4324TIP3   OH212935   3.047   2.049   5.179  0.0880 -0.0010  0.5566
 4324TIP3    H112936   2.996   2.096   5.245  0.5242  0.4998  0.5460
 4324TIP3    H212937   3.134   2.042   5.219  0.4496  0.6094 -0.1010
 4325TIP3   OH212938   5.529   2.916   0.855  0.0126  0.2213 -0.2095
 4325TIP3    H112939   5.472   2.972   0.907 -1.7055 -1.4762 -0.1631
 4325TIP3    H212940   5.547   2.967   0.775  0.0863  1.5604  0.6377
 4326TIP3   OH212941   2.901   2.689   2.140  0.3723  0.4501 -0.0995
 4326TIP3    H112942   2.911   2.687   2.236  0.5810 -0.2129 -0.1304
 4326TIP3    H212943   2.969   2.630   2.108 -0.0810  0.2176 -0.6319
 4327TIP3   OH212944   4.022   1.097   4.603 -0.1202  0.0731  0.0495
 4327TIP3    H112945   4.094   1.042   4.572 -0.5921 -0.3393 -0.3443
 4327TIP3    H212946   4.004   1.156   4.530 -1.1087 -0.7747 -0.4360
 4328TIP3   OH212947   2.202   1.936   0.292 -0.4996 -0.5655  0.3315
 4328TIP3    H112948   2.282   1.884   0.280 -0.2566 -0.1514  0.1615
 4328TIP3    H212949   2.145   1.908   0.221 -0.3327 -0.5323  0.1834
 4329TIP3   OH212950   3.092   5.701   4.054 -0.6694  0.3822 -0.4102
 4329TIP3    H112951   3.024   5.638   4.031 -1.3609 -0.2534  2.9243
 4329TIP3    H212952   3.046   5.783   4.069 -0.2136  0.8253 -1.3223
 4330TIP3   OH212953   0.993   2.702   2.398 -0.0760 -0.0926  0.0240
 4330TIP3    H112954   0.988   2.788   2.440 -1.5414 -1.0423  1.9633
 4330TIP3    H212955   0.999   2.641   2.471  0.1793 -1.6932 -1.2938
 4331TIP3   OH212956   5.785   6.399   2.617  0.3567  0.2750  0.4527
 4331TIP3    H112957   5.765   6.441   2.533 -0.6622  1.6076  1.3045
 4331TIP3    H212958   5.798   6.307   2.596 -1.0869  0.3563 -1.0059
 4332TIP3   OH212959   6.456   4.480   2.909  0.4920 -0.3558 -0.4159
 4332TIP3    H112960   6.418   4.469   2.996  0.1523 -1.1473 -0.6573
 4332TIP3    H212961   6.479   4.392   2.881  0.2412 -0.1611 -1.2795
 4333TIP3   OH212962   2.557   5.243   4.744  0.4484 -0.1469 -0.2104
 4333TIP3    H112963   2.651   5.228   4.751  0.1983 -0.9934  2.0441
 4333TIP3    H212964   2.517   5.177   4.800 -1.6816 -1.1716 -2.6827
 4334TIP3   OH212965   0.880   3.726   1.356 -0.0997 -0.3711 -0.0276
 4334TIP3    H112966   0.971   3.732   1.386 -0.4941 -1.9237  1.7343
 4334TIP3    H212967   0.879   3.647   1.302 -0.6104 -1.0726  0.9764
 4335TIP3   OH212968   3.748   2.343   2.255  0.5474  0.6546  0.5748
 4335TIP3    H112969   3.736   2.422   2.307 -0.8475 -0.0765  1.4070
 4335TIP3    H212970   3.672   2.289   2.275  1.2990 -0.7613 -0.2402
 4336TIP3   OH212971   3.296   2.940   1.111 -0.4484  0.1280 -0.2591
 4336TIP3    H112972   3.266   2.852   1.134 -0.4211  0.5843  1.6321
 4336TIP3    H212973   3.391   2.933   1.108 -0.4529  0.0611 -0.2465
 4337TIP3   OH212974   6.037   3.279   2.078  0.1924 -0.4224  0.2506
 4337TIP3    H112975   5.996   3.208   2.126 -1.3380 -1.1536 -1.9980
 4337TIP3    H212976   6.125   3.246   2.057  0.2918 -0.7202  1.0673
 4338TIP3   OH212977   3.129   3.373   0.193  0.1789 -0.1343 -1.0469
 4338TIP3    H112978   3.082   3.325   0.125 -0.3302 -0.2584 -0.6066
 4338TIP3    H212979   3.211   3.326   0.203  0.0792 -0.3587 -1.2793
 4339TIP3   OH212980   5.145   1.160   2.379  0.0308  0.2515  0.3487
 4339TIP3    H112981   5.221   1.148   2.435  0.5337  0.7212 -0.2228
 4339TIP3    H212982   5.123   1.253   2.387  0.0449  0.3022 -0.1430
 4340TIP3   OH212983   2.695   1.898   4.281  0.5588  0.2590  0.0005
 4340TIP3    H112984   2.612   1.892   4.233  0.9575 -1.0547 -0.5684
 4340TIP3    H212985   2.672   1.942   4.363 -0.0173  3.2203 -1.6131
 4341TIP3   OH212986   6.667   2.804   2.088 -0.9972 -0.0361 -0.2846
 4341TIP3    H112987   6.624   2.864   2.027  0.4737  1.5852  0.1917
 4341TIP3    H212988   6.733   2.759   2.034 -0.9382  0.0511 -0.2859
 4342TIP3   OH212989   6.983   5.214   2.803  0.0706 -0.1548 -0.0653
 4342TIP3    H112990   6.996   5.240   2.894 -0.0925  1.8514 -0.5586
 4342TIP3    H212991   7.054   5.152   2.785  1.5928  1.2625  0.7562
 4343TIP3   OH212992   0.856   5.189   0.740 -0.4850 -0.0776 -0.4120
 4343TIP3    H112993   0.860   5.096   0.760 -0.6391  0.0709  0.3501
 4343TIP3    H212994   0.893   5.232   0.817 -1.4668  0.5393 -0.2659
 4344TIP3   OH212995   0.157   0.447   4.550  0.0696  0.2687 -0.6661
 4344TIP3    H112996   0.215   0.420   4.622  1.2412 -0.1614 -1.7281
 4344TIP3    H212997   0.169   0.541   4.544 -0.5584  0.4074  0.1317
 4345TIP3   OH212998   5.103   3.459   3.636  0.5634 -0.2113 -0.0052
 4345TIP3    H112999   5.080   3.393   3.571  0.3584  0.0200 -0.1677
 4345TIP3    H213000   5.150   3.411   3.704  0.3814 -0.5281 -0.1067
 4346TIP3   OH213001   5.442   2.421   3.919 -0.4542 -0.5282 -0.5724
 4346TIP3    H113002   5.425   2.514   3.905 -2.2032 -0.7025  0.0282
 4346TIP3    H213003   5.494   2.393   3.844  0.4171  0.9977 -0.5661
 4347TIP3   OH213004   1.293   0.249   3.622 -0.5239 -0.3697 -0.0429
 4347TIP3    H113005   1.312   0.342   3.612 -1.6243  0.0003  0.9974
 4347TIP3    H213006   1.203   0.240   3.591 -0.6925 -0.9245  0.5778
 4348TIP3   OH213007   2.328   0.807   3.259  0.0896  0.2866 -0.1450
 4348TIP3    H113008   2.274   0.874   3.216 -1.0660 -1.1292 -1.0308
 4348TIP3    H213009   2.265   0.741   3.288  1.1558 -0.2477  1.0445
 4349TIP3   OH213010   6.530   0.538   1.124  0.4548  0.0881  0.3884
 4349TIP3    H113011   6.609   0.539   1.178  0.8593  3.5596 -0.0249
 4349TIP3    H213012   6.554   0.487   1.047  1.9787  0.2845  0.7036
 4350TIP3   OH213013   0.671   1.966  -0.015  0.6233  0.3827 -0.5055
 4350TIP3    H113014   0.622   1.885  -0.026  1.1974 -0.3160  1.6929
 4350TIP3    H213015   0.650   1.996   0.073  2.7278  1.0258 -0.1623
 4351TIP3   OH213016   3.107   1.412   5.646 -0.3704  0.1488 -0.3306
 4351TIP3    H113017   3.047   1.467   5.595 -0.0674 -1.7039 -2.9000
 4351TIP3    H213018   3.185   1.404   5.590  0.0222 -1.9522  0.4509
 4352TIP3   OH213019   5.490   5.679   4.936  0.2143  0.3437 -0.1144
 4352TIP3    H113020   5.564   5.729   4.970 -0.0839  2.2576 -2.0925
 4352TIP3    H213021   5.428   5.745   4.905 -0.3661 -1.2043 -2.5706
 4353TIP3   OH213022   4.498   2.004   2.987 -0.0530  0.6045  0.3869
 4353TIP3    H113023   4.511   2.028   2.896  0.0527  0.0858  0.2647
 4353TIP3    H213024   4.575   1.954   3.011 -0.4192  0.1063  0.5433
 4354TIP3   OH213025   3.876   4.025   2.758 -0.8565  0.1140 -0.1247
 4354TIP3    H113026   3.811   3.963   2.792  0.1555 -0.0493  1.6222
 4354TIP3    H213027   3.851   4.109   2.795 -1.7423  0.6371 -1.8270
 4355TIP3   OH213028   0.217   4.854   5.578  0.3645  0.2087 -0.4917
 4355TIP3    H113029   0.192   4.798   5.504  0.1806  2.3729 -2.1793
 4355TIP3    H213030   0.136   4.898   5.604  0.5759  0.0151  0.5496
 4356TIP3   OH213031   4.679   3.524   0.863  0.2153  0.3571  0.2399
 4356TIP3    H113032   4.749   3.562   0.809  0.2258  0.3634  0.2578
 4356TIP3    H213033   4.672   3.583   0.938  0.8512 -0.1743  0.7306
 4357TIP3   OH213034   0.856   2.986   2.831  0.8717  0.1699  0.2381
 4357TIP3    H113035   0.794   3.046   2.791  1.4337  2.0941  2.0780
 4357TIP3    H213036   0.802   2.921   2.877  0.2338 -1.7765 -2.9672
 4358TIP3   OH213037   0.988   4.006   1.521 -0.0360  0.8105 -0.2499
 4358TIP3    H113038   1.017   4.004   1.430  1.1795 -1.0043  0.1152
 4358TIP3    H213039   1.007   3.918   1.554 -0.2928  1.4684  1.8071
 4359TIP3   OH213040   3.818   4.792   4.937  0.4373  0.5787  0.1760
 4359TIP3    H113041   3.752   4.751   4.880  0.4588  0.9045 -0.0845
 4359TIP3    H213042   3.894   4.733   4.931 -0.1836 -0.3828  1.3273
 4360TIP3   OH213043   4.270   0.026   2.870  0.1390 -0.2690  0.2614
 4360TIP3    H113044   4.228   0.107   2.897  0.6687  0.2230 -0.3464
 4360TIP3    H213045   4.233   0.007   2.783  0.4777 -0.3299  0.1249
 4361TIP3   OH213046   4.149   2.324   1.304  0.2264 -0.0886  0.2352
 4361TIP3    H113047   4.078   2.365   1.256  0.9130  0.4623 -0.3351
 4361TIP3    H213048   4.145   2.232   1.280  1.2431  0.3375 -1.8262
 4362TIP3   OH213049   2.104   4.145   4.109 -0.4479 -0.4496 -0.2471
 4362TIP3    H113050   2.049   4.222   4.097 -1.0988 -0.5875  1.5802
 4362TIP3    H213051   2.190   4.180   4.133 -0.2511 -0.2846 -1.1357
 4363TIP3   OH213052   1.757   3.300   4.893  0.3050  0.1934  0.0859
 4363TIP3    H113053   1.800   3.375   4.851  3.9629 -0.5487  2.0699
 4363TIP3    H213054   1.829   3.246   4.924 -2.1824 -2.0324  2.4688
 4364TIP3   OH213055   5.307   3.816   4.350 -0.2920 -0.5593 -0.5192
 4364TIP3    H113056   5.369   3.816   4.424  0.3484  0.4200 -1.0365
 4364TIP3    H213057   5.256   3.736   4.362  0.4014 -0.8748  0.4862
 4365TIP3   OH213058   0.735   0.035   3.142  0.3728 -0.1803  0.0047
 4365TIP3    H113059   0.676   0.008   3.213  0.9276 -0.2289  0.4618
 4365TIP3    H213060   0.687   0.018   3.062  0.5847 -2.2713  0.2813
 4366TIP3   OH213061   3.096   0.469   3.344 -0.3114  0.4272 -0.8416
 4366TIP3    H113062   3.116   0.561   3.362  0.8985  0.0544 -0.1406
 4366TIP3    H213063   3.067   0.434   3.428  0.8550 -0.2126 -0.6858
 4367TIP3   OH213064   3.391   3.284   0.197 -0.7772 -0.2515  0.2897
 4367TIP3    H113065   3.430   3.199   0.215 -0.8877  0.1108  2.6267
 4367TIP3    H213066   3.459   3.347   0.220 -1.8721  0.3292  2.2018
 4368TIP3   OH213067   6.929   0.964   2.485 -0.0236  0.3625  0.3685
 4368TIP3    H113068   6.908   1.038   2.542  1.9496  0.9294  0.4494
 4368TIP3    H213069   7.025   0.958   2.489 -0.0658 -1.5224 -0.4950
 4369TIP3   OH213070   5.373   5.736   2.599  0.0216 -0.8328  0.1899
 4369TIP3    H113071   5.462   5.761   2.572 -0.0994 -0.7735 -0.1500
 4369TIP3    H213072   5.319   5.810   2.572 -0.2831 -1.2904 -0.4760
 4370TIP3   OH213073   0.541   4.442   3.259  0.2396 -0.6502 -0.4672
 4370TIP3    H113074   0.445   4.440   3.252  0.1245 -2.6107  0.9593
 4370TIP3    H213075   0.562   4.374   3.322  2.3396  2.4825  2.5603
 4371TIP3   OH213076   0.740   5.564   2.088 -0.0483 -0.2949  0.1013
 4371TIP3    H113077   0.770   5.475   2.103  1.0848  0.2241  1.0599
 4371TIP3    H213078   0.673   5.579   2.154 -2.3228 -1.3504 -1.8460
 4372TIP3   OH213079   4.800   0.926   2.230  0.3528 -0.2696  0.4799
 4372TIP3    H113080   4.746   0.927   2.151  0.8302  0.3776  0.1554
 4372TIP3    H213081   4.819   0.833   2.245  2.4365 -0.3040 -1.6955
 4373TIP3   OH213082   6.393   3.611   5.881 -0.1766 -0.4249 -0.2280
 4373TIP3    H113083   6.368   3.524   5.851  1.6806 -0.5049 -1.6933
 4373TIP3    H213084   6.347   3.671   5.823 -1.7695 -0.3635  1.0303
 4374TIP3   OH213085   2.200   2.232   0.395 -0.4656  0.0264 -0.2184
 4374TIP3    H113086   2.214   2.137   0.400 -0.3630  0.0279 -0.4428
 4374TIP3    H213087   2.286   2.267   0.371  0.0073  0.3704  1.8221
 4375TIP3   OH213088   4.320   2.247   2.550 -0.2665  0.3626 -0.0870
 4375TIP3    H113089   4.341   2.311   2.482  0.5157 -1.2731 -1.4575
 4375TIP3    H213090   4.257   2.188   2.509  0.5316 -0.8975  0.4130
 4376TIP3   OH213091   1.441   6.420   1.335  1.1531  0.1152 -0.3577
 4376TIP3    H113092   1.497   6.349   1.365 -0.4197 -0.9296  0.2100
 4376TIP3    H213093   1.390   6.383   1.264  0.2219  0.6363  0.0250
 4377TIP3   OH213094   3.282   0.316   4.504  0.3573  0.2742 -0.3718
 4377TIP3    H113095   3.333   0.278   4.432  0.7848  0.3206 -0.0930
 4377TIP3    H213096   3.258   0.403   4.472 -0.9778 -0.3666 -1.1791
 4378TIP3   OH213097   3.603   6.432   2.024  0.0950 -0.1575  0.0085
 4378TIP3    H113098   3.600   6.342   1.994 -0.4317 -0.7899  1.8256
 4378TIP3    H213099   3.691   6.462   2.001  0.7246 -1.5539  0.4682
 4379TIP3   OH213100   0.475   0.544   4.883 -0.0771 -0.5399  0.5972
 4379TIP3    H113101   0.429   0.617   4.926  2.2205  0.6090  1.2314
 4379TIP3    H213102   0.544   0.586   4.832  0.0451 -2.1856 -0.6791
 4380TIP3   OH213103   7.052   0.284   1.843  0.3109  0.0188 -1.0503
 4380TIP3    H113104   7.000   0.307   1.920 -0.7980  2.7323 -2.4611
 4380TIP3    H213105   7.020   0.197   1.818 -0.1089 -0.4218  0.8368
 4381TIP3   OH213106   1.527   4.118   3.480  0.5275  0.2679  0.0271
 4381TIP3    H113107   1.552   4.039   3.431 -0.4078  0.2664 -0.4676
 4381TIP3    H213108   1.433   4.108   3.496  0.5192  1.0078  0.4815
 4382TIP3   OH213109   4.860   1.915   3.583 -0.4105  0.3120 -0.4024
 4382TIP3    H113110   4.899   1.901   3.670 -1.0909 -1.2124 -0.3012
 4382TIP3    H213111   4.922   1.873   3.523  0.3834  1.9270 -0.7525
 4383TIP3   OH213112   3.824   3.956   3.444  0.0947 -0.0460 -0.1324
 4383TIP3    H113113   3.734   3.979   3.465  0.6776  1.5485  0.7505
 4383TIP3    H213114   3.848   4.015   3.372 -0.2286 -1.9630 -1.9138
 4384TIP3   OH213115   0.444   0.066   0.486  0.8869  0.7905  0.3187
 4384TIP3    H113116   0.527   0.066   0.535  1.4981  2.2128 -0.6597
 4384TIP3    H213117   0.467   0.034   0.399 -0.0638 -1.0076  0.6588
 4385TIP3   OH213118   2.751   1.593   1.022  0.0719 -0.4040 -0.6849
 4385TIP3    H113119   2.693   1.517   1.031 -0.7867  0.3140 -0.0392
 4385TIP3    H213120   2.783   1.609   1.111  1.0615 -0.6248 -0.9924
 4386TIP3   OH213121   2.112   6.161   3.104  0.7457  0.0735  0.1307
 4386TIP3    H113122   2.164   6.098   3.053 -0.3214 -0.4753 -0.3001
 4386TIP3    H213123   2.087   6.114   3.183  2.3803  0.9202  1.2217
 4387TIP3   OH213124   2.225   2.988   4.779  0.2608  0.5032  0.6559
 4387TIP3    H113125   2.305   2.935   4.775 -0.4610 -0.5706 -0.4693
 4387TIP3    H213126   2.233   3.049   4.706  0.9842  1.8374  1.8115
 4388TIP3   OH213127   0.778   5.883   3.157 -0.0408  0.3204 -0.1169
 4388TIP3    H113128   0.770   5.805   3.212  0.8584 -1.1202 -1.9110
 4388TIP3    H213129   0.787   5.955   3.218  0.0823 -1.1018  1.6142
 4389TIP3   OH213130   1.800   0.559   3.212  0.0514  0.0528  0.0205
 4389TIP3    H113131   1.776   0.615   3.286 -1.0588  1.5415 -1.3958
 4389TIP3    H213132   1.764   0.473   3.235 -2.5881  1.0964  0.1466
 4390TIP3   OH213133   6.295   4.007   2.800 -0.1919  0.2271  0.0693
 4390TIP3    H113134   6.246   3.964   2.870 -0.9644 -3.5485 -2.4680
 4390TIP3    H213135   6.229   4.061   2.755 -0.5807 -0.1255  0.2059
 4391TIP3   OH213136   4.116   4.669   1.356  0.2529  0.0255  0.4769
 4391TIP3    H113137   4.056   4.596   1.371  0.1951 -0.0312 -0.0017
 4391TIP3    H213138   4.202   4.628   1.346  0.1323 -0.0361 -0.3728
 4392TIP3   OH213139   1.312   4.057   3.235  0.1951  0.2527  0.5495
 4392TIP3    H113140   1.227   4.086   3.203  0.1018 -0.7870 -0.2070
 4392TIP3    H213141   1.293   4.012   3.317  0.1179  0.6807  0.7698
 4393TIP3   OH213142   6.295   2.500   4.646 -0.7769 -0.1546  0.1246
 4393TIP3    H113143   6.387   2.496   4.620 -0.2578 -1.5166  1.9531
 4393TIP3    H213144   6.259   2.572   4.594  1.4974  0.9113 -0.1266
 4394TIP3   OH213145   2.872   3.542   3.654 -0.2049  0.1598 -0.2793
 4394TIP3    H113146   2.875   3.508   3.744  2.3391  3.1672  0.9487
 4394TIP3    H213147   2.949   3.504   3.612 -0.3537  0.2035 -0.5893
 4395TIP3   OH213148   4.575   6.062   0.900  0.2337  0.3121  0.6365
 4395TIP3    H113149   4.580   6.103   0.814  2.0775 -0.2741  0.4125
 4395TIP3    H213150   4.628   6.118   0.957  1.5441 -0.8767  0.6587
 4396TIP3   OH213151   1.688   4.243   0.719  0.4424  0.1503  0.2866
 4396TIP3    H113152   1.683   4.222   0.812  0.6905  3.1598  1.1027
 4396TIP3    H213153   1.779   4.271   0.705  0.4160 -0.2852 -0.8848
 4397TIP3   OH213154   1.812   4.635   3.108 -0.1171  0.2755  0.2820
 4397TIP3    H113155   1.778   4.546   3.120 -4.7696  1.5705 -1.3592
 4397TIP3    H213156   1.770   4.686   3.177  2.0920  1.4107  0.8789
 4398TIP3   OH213157   6.766   3.697   2.357 -0.4481 -0.0790  0.1697
 4398TIP3    H113158   6.755   3.611   2.316  1.1488 -1.4526  2.3620
 4398TIP3    H213159   6.685   3.711   2.406 -0.8431 -0.1589 -0.4478
 4399TIP3   OH213160   7.065   6.601   4.766 -0.3383  0.1732 -0.3640
 4399TIP3    H113161   7.140   6.555   4.805  0.4402 -0.8027 -2.8325
 4399TIP3    H213162   7.051   6.557   4.682 -2.5958  1.4816 -0.7438
 4400TIP3   OH213163   5.051   3.497   2.878 -0.6113 -0.4437  0.1475
 4400TIP3    H113164   5.009   3.438   2.815 -1.5032  0.6840 -0.3539
 4400TIP3    H213165   5.115   3.442   2.923 -0.4296 -1.4454 -1.2675
 4401TIP3   OH213166   6.115   0.490   5.103  0.1612 -0.2031 -0.0548
 4401TIP3    H113167   6.196   0.482   5.153 -0.1754 -0.4199  0.4638
 4401TIP3    H213168   6.071   0.566   5.141  0.2313  0.0622 -0.4966
 4402TIP3   OH213169   1.322   2.909   3.636  0.2704  0.5787 -0.2179
 4402TIP3    H113170   1.296   2.991   3.592 -0.4270 -0.0071 -0.9245
 4402TIP3    H213171   1.399   2.880   3.588  1.6506  1.7315  1.1740
 4403TIP3   OH213172   2.608   4.272   2.678  0.1720 -0.5714  0.0999
 4403TIP3    H113173   2.689   4.323   2.674 -0.0351 -0.2786 -0.5101
 4403TIP3    H213174   2.583   4.276   2.770  0.6258 -0.3039  0.2195
 4404TIP3   OH213175   6.938   0.866   3.492  0.5593  0.0173  0.2876
 4404TIP3    H113176   6.985   0.786   3.469  0.6089  0.2333 -0.3763
 4404TIP3    H213177   6.853   0.835   3.524  0.8306 -0.3291  0.6896
 4405TIP3   OH213178   5.163   6.190   5.187  0.4035 -0.1525 -0.1026
 4405TIP3    H113179   5.067   6.184   5.186  0.3098 -0.7174  2.7716
 4405TIP3    H213180   5.182   6.277   5.222  0.9984  0.3490 -1.6056
 4406TIP3   OH213181   0.877   6.102   1.376  0.3707  0.4135  0.0511
 4406TIP3    H113182   0.877   6.076   1.469 -0.3597  0.2453  0.0131
 4406TIP3    H213183   0.789   6.136   1.361  0.4615  0.3706 -0.6034
 4407TIP3   OH213184   0.311   5.892   5.300 -0.0089  0.4096  0.5321
 4407TIP3    H113185   0.299   5.800   5.276 -2.0986 -0.0297  2.8157
 4407TIP3    H213186   0.396   5.915   5.264  0.1560 -2.1206 -0.9611
 4408TIP3   OH213187   4.478   4.191   3.709  0.3527 -0.2301  0.0560
 4408TIP3    H113188   4.453   4.122   3.649 -2.2192  0.5427  0.0978
 4408TIP3    H213189   4.503   4.146   3.790 -0.3488 -1.1258 -0.2210
 4409TIP3   OH213190   6.744   1.324   5.684 -0.7496 -0.3667  0.4011
 4409TIP3    H113191   6.753   1.373   5.602 -0.8411 -2.1148 -0.7111
 4409TIP3    H213192   6.667   1.363   5.727  0.0521  1.4262  0.3198
 4410TIP3   OH213193   4.240   2.193   2.807 -0.5221  0.3444  0.0903
 4410TIP3    H113194   4.272   2.211   2.719  0.5920 -0.6328  0.2767
 4410TIP3    H213195   4.210   2.278   2.839  2.7217  1.5578  0.2366
 4411TIP3   OH213196   0.055   3.599   5.629  0.4596 -0.5804  0.8482
 4411TIP3    H113197   0.044   3.503   5.630 -0.6002 -0.4627  1.9841
 4411TIP3    H213198  -0.034   3.633   5.628  0.8311  0.4060  0.8486
 4412TIP3   OH213199   1.639   3.915   3.678  0.4004 -0.2219 -0.5693
 4412TIP3    H113200   1.613   3.985   3.618 -1.3584 -0.9255 -0.7120
 4412TIP3    H213201   1.709   3.868   3.632  0.9279  0.8523 -0.8836
 4413TIP3   OH213202   6.704   5.360   1.769 -0.0176  0.3914 -0.7291
 4413TIP3    H113203   6.791   5.389   1.741  0.0311 -0.8618 -1.9752
 4413TIP3    H213204   6.689   5.406   1.852  1.6167  1.0055 -0.7367
 4414TIP3   OH213205   4.582   3.743   1.988  0.6142 -0.2001 -0.4476
 4414TIP3    H113206   4.549   3.826   1.955  0.4492 -0.3921 -0.7738
 4414TIP3    H213207   4.511   3.681   1.974  0.0919 -0.0689  1.3153
 4415TIP3   OH213208   6.472   5.429   0.299 -0.3585  0.4773  0.1643
 4415TIP3    H113209   6.436   5.505   0.253 -1.8377 -0.7851 -0.8428
 4415TIP3    H213210   6.415   5.417   0.375 -0.0093  0.4840  0.4300
 4416TIP3   OH213211   7.110   3.290   1.910  0.2648  0.1324 -0.3112
 4416TIP3    H113212   7.173   3.359   1.929 -0.1184  0.5074 -0.4106
 4416TIP3    H213213   7.045   3.330   1.852  0.6927 -0.6330 -1.3617
 4417TIP3   OH213214   6.574   6.702   2.170  0.2166 -0.1474 -0.2947
 4417TIP3    H113215   6.605   6.637   2.233 -1.4827  0.9924  1.8683
 4417TIP3    H213216   6.510   6.654   2.116  0.0019 -0.6172  0.3635
 4418TIP3   OH213217   0.510   0.508   1.119  0.1460  0.2116  0.3006
 4418TIP3    H113218   0.416   0.519   1.133  0.4137  1.6097  1.1912
 4418TIP3    H213219   0.536   0.589   1.075  0.5800 -1.1007 -2.0496
 4419TIP3   OH213220   5.147   2.160   3.646 -0.1197 -0.1405 -0.4709
 4419TIP3    H113221   5.109   2.205   3.571  2.3735 -2.0105 -3.0927
 4419TIP3    H213222   5.108   2.072   3.645  0.7839 -0.5643 -0.3475
 4420TIP3   OH213223   3.292   4.810   3.910  1.1449 -0.7934 -0.0738
 4420TIP3    H113224   3.205   4.770   3.902  0.2417  1.1816 -0.7965
 4420TIP3    H213225   3.315   4.799   4.002 -0.7952  0.3721  0.5986
 4421TIP3   OH213226   0.514   4.339   2.156 -0.5790  0.1601  0.3903
 4421TIP3    H113227   0.427   4.307   2.134 -0.7975  0.4242  0.8567
 4421TIP3    H213228   0.502   4.432   2.177 -0.2893  0.0621  1.0303
 4422TIP3   OH213229   5.128   2.649   2.694 -0.3713  0.1249 -0.4582
 4422TIP3    H113230   5.125   2.737   2.658  0.6638  0.3637  0.0231
 4422TIP3    H213231   5.036   2.620   2.692 -0.8826  1.5826  0.3169
 4423TIP3   OH213232   5.002   4.954   0.503 -0.0897 -0.7300 -0.0387
 4423TIP3    H113233   4.932   4.998   0.454  0.1464 -1.0128 -0.6417
 4423TIP3    H213234   5.020   5.013   0.576  0.1558  0.1410 -0.7837
 4424TIP3   OH213235   7.007   2.889   3.782  0.3455 -0.6312  0.7211
 4424TIP3    H113236   7.007   2.799   3.816  0.2047 -0.8807  0.0660
 4424TIP3    H213237   7.036   2.881   3.692 -0.6278 -0.1420  0.3528
 4425TIP3   OH213238   4.887   3.389   3.120 -0.8271 -0.0075  0.0118
 4425TIP3    H113239   4.906   3.459   3.183  2.7870 -0.1729 -0.6830
 4425TIP3    H213240   4.904   3.428   3.034  1.4892 -1.6536 -0.3799
 4426TIP3   OH213241   0.746   2.210   5.442 -0.2959 -0.0470 -0.7667
 4426TIP3    H113242   0.753   2.190   5.348 -0.5213  0.5591 -0.9168
 4426TIP3    H213243   0.706   2.131   5.480 -0.4641 -0.1886 -1.2225
 4427TIP3   OH213244   5.624   1.686   3.573  0.0388  0.6104  0.0089
 4427TIP3    H113245   5.716   1.690   3.598 -0.3944  1.1990  1.6078
 4427TIP3    H213246   5.579   1.658   3.653 -1.4881  3.1914  0.1524
 4428TIP3   OH213247   2.109   5.796   2.859  0.3058  0.0882 -0.6563
 4428TIP3    H113248   2.176   5.841   2.910 -2.5024  1.2211  2.4456
 4428TIP3    H213249   2.100   5.846   2.779  1.4914  1.3542 -0.0208
 4429TIP3   OH213250   6.745   0.369   3.396  0.3784 -0.0935  0.4185
 4429TIP3    H113251   6.798   0.436   3.353 -1.3084  2.0362  1.4485
 4429TIP3    H213252   6.765   0.380   3.489 -1.1243  0.0916  0.7366
 4430TIP3   OH213253   6.660   5.322   0.782  0.1452  0.3805 -0.2946
 4430TIP3    H113254   6.636   5.414   0.782  2.2682  0.9910  0.5410
 4430TIP3    H213255   6.694   5.306   0.693  1.3175  0.8919  0.0346
 4431TIP3   OH213256   4.124   3.644   0.082  0.3929 -0.6105  0.1484
 4431TIP3    H113257   4.144   3.671   0.171  1.3044 -3.2864  0.8677
 4431TIP3    H213258   4.049   3.585   0.091 -1.1975  1.0830 -1.2336
 4432TIP3   OH213259   5.560   3.645   1.191 -0.0359 -0.2646 -0.3598
 4432TIP3    H113260   5.644   3.605   1.168 -0.0665 -0.5960  0.1022
 4432TIP3    H213261   5.538   3.699   1.115 -0.7961 -2.3639 -1.7217
 4433TIP3   OH213262   2.535   1.757   4.970 -0.4271 -0.1759 -0.2316
 4433TIP3    H113263   2.471   1.815   5.011  0.7559  1.5437 -0.7334
 4433TIP3    H213264   2.609   1.755   5.031 -0.1602 -0.5852 -0.5610
 4434TIP3   OH213265   1.889   1.305   3.307  0.1649  0.0894 -0.2221
 4434TIP3    H113266   1.981   1.328   3.297  0.2357  1.2170  2.3277
 4434TIP3    H213267   1.884   1.259   3.390 -1.4886 -0.6089 -0.6639
 4435TIP3   OH213268   6.749   2.520   2.621  0.3341  0.1100 -0.0816
 4435TIP3    H113269   6.672   2.507   2.565  1.4015  1.3270 -1.9585
 4435TIP3    H213270   6.766   2.434   2.658 -2.4273 -0.0104  1.1308
 4436TIP3   OH213271   4.558   6.507   2.055  0.1724 -0.4740  0.4802
 4436TIP3    H113272   4.620   6.450   2.012  1.0702  0.7317  0.1165
 4436TIP3    H213273   4.611   6.559   2.116 -0.0620  1.9901 -1.2560
 4437TIP3   OH213274   2.640   0.448   1.095  0.9426 -0.0025  0.5602
 4437TIP3    H113275   2.709   0.514   1.097 -0.8286  2.2236 -2.5903
 4437TIP3    H213276   2.562   0.494   1.126  0.3082 -1.7270  1.6736
 4438TIP3   OH213277   3.198   3.868   1.640  0.5302  0.0004 -0.0147
 4438TIP3    H113278   3.133   3.898   1.577  1.1224 -1.2650 -1.2769
 4438TIP3    H213279   3.158   3.792   1.682  0.9964 -0.5249 -0.4953
 4439TIP3   OH213280   0.539   3.554   2.057  0.3753  0.3079 -0.4399
 4439TIP3    H113281   0.624   3.533   2.019  0.8001  1.6041 -0.2798
 4439TIP3    H213282   0.549   3.645   2.087 -1.8058  1.4153 -2.6557
 4440TIP3   OH213283   0.721   2.628   5.068  0.8432  0.0956 -0.0328
 4440TIP3    H113284   0.721   2.720   5.093  1.0874 -0.3374  1.7374
 4440TIP3    H213285   0.677   2.625   4.983 -0.6485  1.6460  0.6420
 4441TIP3   OH213286   6.905   0.563   3.218 -0.2909 -0.2031 -0.4685
 4441TIP3    H113287   6.847   0.524   3.152 -1.2665 -2.0726  1.3694
 4441TIP3    H213288   6.885   0.656   3.216  0.5203 -0.0040 -3.5204
 4442TIP3   OH213289   3.604   4.374   2.268  0.1875 -0.0416 -0.2211
 4442TIP3    H113290   3.645   4.366   2.354  1.4741  0.8610 -0.7160
 4442TIP3    H213291   3.546   4.298   2.262  2.5480 -1.9952  0.1218
 4443TIP3   OH213292   7.178   4.396   1.178  0.0954 -0.0003 -0.1756
 4443TIP3    H113293   7.168   4.489   1.156  2.0017  0.5856  1.2311
 4443TIP3    H213294   7.220   4.396   1.264 -2.5426 -2.1927  1.2571
 4444TIP3   OH213295   1.755   3.252   1.843 -0.3354  0.3503 -0.8948
 4444TIP3    H113296   1.720   3.178   1.794 -0.5410 -1.3594  1.6348
 4444TIP3    H213297   1.849   3.234   1.850 -0.5321 -0.2456  0.5513
 4445TIP3   OH213298   1.714   4.927   5.398 -0.0939  0.1561  0.1030
 4445TIP3    H113299   1.792   4.963   5.357 -0.8663  1.6162 -0.1748
 4445TIP3    H213300   1.659   4.899   5.325 -0.6000  0.8540  0.2068
 4446TIP3   OH213301   2.947   3.773   0.589 -0.4000  0.0005 -0.2863
 4446TIP3    H113302   2.999   3.801   0.664 -0.8508  0.1786 -0.0407
 4446TIP3    H213303   3.000   3.705   0.547 -0.4273 -0.5396  0.5501
 4447TIP3   OH213304   3.132   5.549   4.318  0.1582  0.6494  0.5146
 4447TIP3    H113305   3.208   5.607   4.323  1.9290 -1.4870  0.0685
 4447TIP3    H213306   3.084   5.578   4.240  1.2000  1.2915  0.0988
 4448TIP3   OH213307   0.035   4.846   5.837 -0.1783 -0.6274 -0.3215
 4448TIP3    H113308  -0.025   4.816   5.906  0.1313  2.1691  1.3159
 4448TIP3    H213309   0.122   4.823   5.870 -0.1056 -0.5306 -0.4478
 4449TIP3   OH213310   6.228   0.686   0.129  0.7284 -0.3481  0.1112
 4449TIP3    H113311   6.246   0.735   0.048  2.0315 -0.9885 -0.0119
 4449TIP3    H213312   6.199   0.600   0.100  0.1281 -0.2329  0.3401
 4450TIP3   OH213313   0.462   3.687   0.826  0.6182 -0.1483  0.1223
 4450TIP3    H113314   0.542   3.642   0.801  1.5393  1.1102  0.7165
 4450TIP3    H213315   0.469   3.774   0.787 -1.8866 -0.9265 -2.4409
 4451TIP3   OH213316   0.302   3.443   3.712  0.3898  0.6450  0.3194
 4451TIP3    H113317   0.324   3.395   3.632 -1.4494  0.5352 -0.1720
 4451TIP3    H213318   0.209   3.425   3.726  0.7763  0.1362  2.8657
 4452TIP3   OH213319   2.203   6.060   5.406 -0.1608 -0.4868  0.1591
 4452TIP3    H113320   2.177   6.123   5.472  0.7120 -1.2545  1.2684
 4452TIP3    H213321   2.150   5.982   5.424 -1.3014 -0.0976 -1.2589
 4453TIP3   OH213322   1.627   0.405   4.341 -0.3392  0.2947  0.4281
 4453TIP3    H113323   1.639   0.322   4.295  0.9883  0.5043  0.3735
 4453TIP3    H213324   1.620   0.381   4.433 -2.7907 -0.1066  0.2070
 4454TIP3   OH213325   6.949   4.121   1.618  0.1280 -0.1195 -0.2342
 4454TIP3    H113326   6.872   4.162   1.657 -0.1517 -0.9131  0.0764
 4454TIP3    H213327   6.968   4.172   1.540 -1.6631 -0.8523 -1.1989
 4455TIP3   OH213328   1.256   4.146   3.505  0.0234 -0.4588 -0.0232
 4455TIP3    H113329   1.244   4.212   3.573 -1.5449  0.0561 -0.7280
 4455TIP3    H213330   1.221   4.065   3.543 -1.3492 -0.0555 -0.3403
 4456TIP3   OH213331   2.940   4.520   4.024  0.4013  0.2889  0.4177
 4456TIP3    H113332   2.864   4.549   4.074 -0.3803 -0.3749 -0.3514
 4456TIP3    H213333   2.992   4.469   4.087 -1.4720 -2.1000  0.2095
 4457TIP3   OH213334   6.578   4.836   4.626  0.6520  0.6402 -0.2163
 4457TIP3    H113335   6.500   4.877   4.589  0.4454 -0.0045 -0.5220
 4457TIP3    H213336   6.643   4.841   4.556  1.1107  1.7945  0.2826
 4458TIP3   OH213337   2.828   4.477   0.675 -0.4250  0.3610  0.1160
 4458TIP3    H113338   2.824   4.384   0.696 -0.8685  0.2599 -0.4085
 4458TIP3    H213339   2.894   4.512   0.736 -0.1567 -0.3143  0.2268
 4459TIP3   OH213340   6.755   5.537   0.426  0.3325 -0.0018 -0.2122
 4459TIP3    H113341   6.716   5.515   0.341 -1.5885  0.5010  0.4959
 4459TIP3    H213342   6.728   5.466   0.484  3.5820 -1.6217 -0.4447
 4460TIP3   OH213343   5.417   2.275   1.977 -0.4022 -0.3659 -0.3589
 4460TIP3    H113344   5.366   2.240   1.903  1.4854 -1.7882 -1.0722
 4460TIP3    H213345   5.459   2.353   1.942  1.4448 -1.6835 -1.2843
 4461TIP3   OH213346   4.242   2.463   4.587 -0.7713  0.3685  0.7416
 4461TIP3    H113347   4.247   2.557   4.600  0.4203  0.2006  1.7120
 4461TIP3    H213348   4.283   2.426   4.666 -0.2609 -0.9189 -0.0973
 4462TIP3   OH213349   6.177   5.583   1.440 -0.2469 -0.4898  0.1695
 4462TIP3    H113350   6.188   5.645   1.512 -1.2707 -0.6017  0.4468
 4462TIP3    H213351   6.142   5.636   1.368 -0.4841 -0.6139  0.1906
 4463TIP3   OH213352   5.415   1.258   2.930 -0.6930 -0.2228  0.1762
 4463TIP3    H113353   5.493   1.245   2.876 -0.7580 -0.8732  0.2336
 4463TIP3    H213354   5.424   1.195   3.001 -1.4153 -0.5157  0.0187
 4464TIP3   OH213355   5.164   4.124   3.265 -0.4019  0.5935  0.5354
 4464TIP3    H113356   5.173   4.116   3.170 -1.1758 -1.1114  0.5726
 4464TIP3    H213357   5.241   4.078   3.300 -0.4448  0.6775  0.7409
 4465TIP3   OH213358   3.944   5.738   0.174  0.4413  0.5957 -0.2355
 4465TIP3    H113359   3.889   5.662   0.191  1.6247  0.1196  1.8635
 4465TIP3    H213360   3.902   5.783   0.101 -2.5958  0.1467  1.1039
 4466TIP3   OH213361   6.793   0.928   4.764  0.5999  0.3053 -0.4186
 4466TIP3    H113362   6.798   0.989   4.690  0.3515  0.2085 -0.5171
 4466TIP3    H213363   6.882   0.926   4.799  1.0512 -0.6795 -1.5447
 4467TIP3   OH213364   2.288   4.448   4.404  0.1812 -0.1224  0.1653
 4467TIP3    H113365   2.203   4.436   4.361 -0.3480  2.2525  0.4136
 4467TIP3    H213366   2.348   4.469   4.333 -0.0614  0.9462  0.2687
 4468TIP3   OH213367   1.026   2.750   1.398  0.2216  0.0210 -0.1301
 4468TIP3    H113368   1.057   2.666   1.431  0.4048  0.2245  0.2217
 4468TIP3    H213369   1.047   2.812   1.467  0.5689  0.4500 -0.6098
 4469TIP3   OH213370   6.665   5.676   2.800  0.2112  0.0465  0.3883
 4469TIP3    H113371   6.671   5.622   2.879  2.1462 -0.0448  0.2285
 4469TIP3    H213372   6.636   5.762   2.832 -0.5178 -0.3967  0.9642
 4470TIP3   OH213373   1.040   0.876   4.922 -0.3904 -0.1844 -0.4418
 4470TIP3    H113374   1.105   0.854   4.856  1.6263 -0.9431  1.6359
 4470TIP3    H213375   1.047   0.972   4.930  1.2280 -0.3227  0.3734
 4471TIP3   OH213376   4.021   1.078   0.371  0.5837 -0.8281  0.0058
 4471TIP3    H113377   3.996   1.162   0.409 -1.6091 -0.6492 -1.6448
 4471TIP3    H213378   4.110   1.062   0.404 -0.0338  0.7032  2.6867
 4472TIP3   OH213379   3.941   6.494   4.398 -0.3243 -0.7208 -0.1621
 4472TIP3    H113380   4.029   6.475   4.429 -0.4435  0.4716  0.9660
 4472TIP3    H213381   3.938   6.589   4.388 -1.2141 -0.8128 -1.0667
 4473TIP3   OH213382   4.698   5.677   5.307 -0.1301  0.2000  0.4757
 4473TIP3    H113383   4.627   5.629   5.265  0.4510 -0.6591  0.4538
 4473TIP3    H213384   4.696   5.649   5.399  1.5363 -1.5545  0.0495
 4474TIP3   OH213385   4.328   2.489   3.108 -0.6562  0.3006 -0.1626
 4474TIP3    H113386   4.361   2.438   3.034 -0.6832  0.4664 -0.2898
 4474TIP3    H213387   4.279   2.561   3.067 -0.5632  0.4638  0.0156
 4475TIP3   OH213388   4.765   2.160   4.710 -0.1425 -0.4957  0.1552
 4475TIP3    H113389   4.702   2.088   4.717 -0.1096 -0.4486  1.1298
 4475TIP3    H213390   4.806   2.164   4.796  0.5817  0.0400 -0.2009
 4476TIP3   OH213391   4.538   3.706   3.129  0.7885  0.6703 -0.5286
 4476TIP3    H113392   4.595   3.779   3.103  1.8048  0.0291 -0.1690
 4476TIP3    H213393   4.458   3.718   3.078  1.3426  1.4501 -1.2365
 4477TIP3   OH213394   0.337   1.334   0.314 -0.3444  0.0030 -0.4307
 4477TIP3    H113395   0.333   1.304   0.405 -1.3150 -1.2041 -0.8330
 4477TIP3    H213396   0.409   1.284   0.275  1.1505  1.7124  0.0503
 4478TIP3   OH213397   5.936   4.073   2.939 -0.1525 -0.1367 -0.2005
 4478TIP3    H113398   5.967   4.158   2.908 -0.2853  0.5884  1.5546
 4478TIP3    H213399   5.855   4.057   2.890  0.0470  0.5722 -0.7781
 4479TIP3   OH213400   6.384   3.629   1.635 -0.1661  0.1785 -0.4786
 4479TIP3    H113401   6.462   3.609   1.582  0.4115 -1.7067  0.9611
 4479TIP3    H213402   6.311   3.618   1.575  0.6310  3.5667 -2.3093
 4480TIP3   OH213403   6.334   5.754   0.721 -0.5792  0.4049  0.1657
 4480TIP3    H113404   6.405   5.694   0.702  1.6031  3.1448 -1.1806
 4480TIP3    H213405   6.263   5.727   0.663 -0.9931 -2.7000  1.8973
 4481TIP3   OH213406   5.809   6.164   0.842  0.1114 -0.4848 -0.0687
 4481TIP3    H113407   5.801   6.198   0.931  1.4471  0.7377 -0.3674
 4481TIP3    H213408   5.789   6.071   0.849 -0.6833 -0.2314  1.3394
 4482TIP3   OH213409   0.833   4.415   4.461  0.1081  0.0624  0.4402
 4482TIP3    H113410   0.912   4.469   4.471 -1.1508  1.7599  1.8459
 4482TIP3    H213411   0.763   4.467   4.500 -1.6850 -1.5258 -0.4825
 4483TIP3   OH213412   6.756   0.001   0.344  0.0520  0.2815  0.2528
 4483TIP3    H113413   6.663   0.003   0.324  0.0681  1.7511  0.2439
 4483TIP3    H213414   6.795   0.064   0.283  0.9156  0.3838  0.8943
 4484TIP3   OH213415   1.712   0.354   4.620  0.0169 -0.5319  0.0711
 4484TIP3    H113416   1.781   0.302   4.660  0.5565 -0.6545 -0.9827
 4484TIP3    H213417   1.753   0.437   4.598 -0.6735  0.1289  1.1406
 4485TIP3   OH213418   2.686   3.323   1.480 -0.2119  0.0623  0.0615
 4485TIP3    H113419   2.599   3.305   1.515 -0.2416 -0.0863 -0.0869
 4485TIP3    H213420   2.670   3.352   1.390 -0.3088  2.6277  0.8336
 4486TIP3   OH213421   0.433   4.144   0.074  0.5896  0.2189 -0.3147
 4486TIP3    H113422   0.524   4.156   0.100  0.4782  0.4012  0.0038
 4486TIP3    H213423   0.427   4.183  -0.013  1.0470 -0.6987 -0.7726
 4487TIP3   OH213424   2.652   0.771   3.466  0.2819  0.3071  0.2079
 4487TIP3    H113425   2.598   0.805   3.395 -0.8080 -0.6238  0.5761
 4487TIP3    H213426   2.597   0.777   3.544  1.2118  0.6351  0.8615
 4488TIP3   OH213427   3.688   1.630   2.520 -0.4926  0.2940  0.0501
 4488TIP3    H113428   3.649   1.626   2.608  1.4858  0.0131  0.9678
 4488TIP3    H213429   3.774   1.589   2.530  0.6550  2.1546 -1.5296
 4489TIP3   OH213430   7.109   6.050   3.646  0.3769  0.1217  0.5762
 4489TIP3    H113431   7.201   6.077   3.644  0.9362 -1.6066  0.9670
 4489TIP3    H213432   7.081   6.069   3.736  0.5892 -0.0259  0.6760
 4490TIP3   OH213433   3.428   3.062   1.788  0.3627  0.3587  0.3450
 4490TIP3    H113434   3.440   3.126   1.718  0.5244  0.4539  0.4598
 4490TIP3    H213435   3.491   3.087   1.855  0.5761 -0.0513  0.2978
 4491TIP3   OH213436   1.946   4.090   0.880  0.2410  0.3719  0.1495
 4491TIP3    H113437   1.982   4.135   0.803 -0.1525 -1.2561 -1.0234
 4491TIP3    H213438   2.022   4.077   0.936  0.9292 -0.1644 -0.8640
 4492TIP3   OH213439   2.878   5.884   5.099  0.0815  0.2645  0.4910
 4492TIP3    H113440   2.964   5.918   5.120  2.1868 -3.7489 -0.6440
 4492TIP3    H213441   2.879   5.874   5.004 -0.4882 -2.4383  0.7086
 4493TIP3   OH213442   0.991   5.449   0.227  0.6632 -0.3752  0.7791
 4493TIP3    H113443   1.040   5.371   0.201 -0.3416 -1.0871  0.9658
 4493TIP3    H213444   1.032   5.520   0.178 -0.8539 -1.5584 -2.5953
 4494TIP3   OH213445   3.939   6.192   1.634 -0.0091  0.8199  0.3974
 4494TIP3    H113446   3.883   6.204   1.558 -1.6266  1.5520  1.6344
 4494TIP3    H213447   4.010   6.136   1.604 -2.9460 -2.7458 -0.5688
 4495TIP3   OH213448   3.254   0.552   2.483 -0.2873  0.0451 -0.3132
 4495TIP3    H113449   3.338   0.587   2.513 -0.2562 -0.1581 -0.1631
 4495TIP3    H213450   3.247   0.581   2.392 -0.6673  1.1889  0.0577
 4496TIP3   OH213451   4.963   1.055   3.577  0.3012  0.1754  0.6488
 4496TIP3    H113452   5.041   1.076   3.628  0.4406  2.5145 -0.4072
 4496TIP3    H213453   4.997   1.019   3.495  0.3062  1.3719  0.1122
 4497TIP3   OH213454   1.251   2.395   4.675 -0.3722  0.3317  0.0538
 4497TIP3    H113455   1.235   2.347   4.594 -1.5043 -2.0718  1.5486
 4497TIP3    H213456   1.185   2.463   4.677 -1.9215 -1.1031 -0.0148
 4498TIP3   OH213457   1.297   3.028   1.935  0.6015 -0.6853  0.2038
 4498TIP3    H113458   1.277   2.941   1.971 -0.2367 -0.6553 -0.1718
 4498TIP3    H213459   1.371   3.059   1.988  1.0964 -1.7389  0.1540
 4499TIP3   OH213460   4.271   3.814   2.064 -0.2575  0.1189 -0.0633
 4499TIP3    H113461   4.333   3.884   2.084  0.3773 -0.6181  0.6044
 4499TIP3    H213462   4.189   3.860   2.044  0.5882  1.1261 -1.4108
 4500TIP3   OH213463   6.065   5.968   5.164 -0.3515  0.4162 -0.1463
 4500TIP3    H113464   6.035   5.963   5.073 -1.0174 -1.6902  0.1211
 4500TIP3    H213465   5.990   6.001   5.212 -0.6338 -0.2429 -0.1262
 4501TIP3   OH213466   5.762   5.083   2.046 -0.0317 -0.1133  0.1332
 4501TIP3    H113467   5.769   5.052   2.137  2.4551  0.8140  0.3207
 4501TIP3    H213468   5.821   5.026   1.997 -0.4055  0.2043 -0.7033
 4502TIP3   OH213469   1.483   0.096   0.807  0.3788 -0.2045  0.5171
 4502TIP3    H113470   1.555   0.038   0.831  0.4589  0.0049  0.7916
 4502TIP3    H213471   1.467   0.077   0.715  0.4691 -0.5919  0.5758
 4503TIP3   OH213472   0.111   2.430   0.019  0.1514  0.1751 -0.0056
 4503TIP3    H113473   0.029   2.478   0.010 -0.6183 -1.0381  0.2455
 4503TIP3    H213474   0.135   2.440   0.111  1.4239  2.2508 -0.5025
 4504TIP3   OH213475   3.675   0.218   4.519 -0.8386  0.5158  0.3102
 4504TIP3    H113476   3.634   0.133   4.507  1.1846 -0.3184 -1.2644
 4504TIP3    H213477   3.745   0.203   4.583 -1.6001  1.4478  1.4072
 4505TIP3   OH213478   3.782   1.057   4.061  0.1482 -0.7592  0.3578
 4505TIP3    H113479   3.782   0.974   4.015 -2.4650 -2.3085  2.7740
 4505TIP3    H213480   3.824   1.038   4.145  0.2403  0.5893  0.6469
 4506TIP3   OH213481   6.067   4.809   1.144 -0.5419 -0.2662  0.0136
 4506TIP3    H113482   6.113   4.729   1.117 -0.5274 -0.0424 -0.6435
 4506TIP3    H213483   6.104   4.830   1.230 -1.2393 -1.5100  0.6440
 4507TIP3   OH213484   0.437   6.134   2.712  0.2407 -0.4542 -0.3055
 4507TIP3    H113485   0.342   6.126   2.700 -0.0538 -0.6499  1.7805
 4507TIP3    H213486   0.471   6.048   2.689 -0.3175 -0.9375  0.6122
 4508TIP3   OH213487   1.598   5.359   5.592 -0.1041 -0.1448 -0.5650
 4508TIP3    H113488   1.611   5.265   5.585  1.1681  0.0704 -1.5398
 4508TIP3    H213489   1.683   5.397   5.568 -0.3145  1.2289  0.6938
 4509TIP3   OH213490   6.965   2.084   4.111 -0.1268 -0.1796 -0.1794
 4509TIP3    H113491   6.917   2.162   4.137  1.5731  1.3689 -1.4741
 4509TIP3    H213492   6.985   2.039   4.193  2.1084  2.7453  1.0596
 4510TIP3   OH213493   4.559   4.485   3.389  0.2652  0.5913 -0.4482
 4510TIP3    H113494   4.597   4.468   3.475 -0.1715  0.2521 -0.3201
 4510TIP3    H213495   4.635   4.498   3.332  0.5463  1.4058  0.1025
 4511TIP3   OH213496   3.921   4.116   3.226  0.5090  0.0772 -0.3338
 4511TIP3    H113497   3.901   4.200   3.185 -0.7087 -0.4730 -0.9166
 4511TIP3    H213498   3.927   4.054   3.153 -2.2073 -1.0214  0.2556
 4512TIP3   OH213499   6.181   5.508   5.825 -0.0734 -0.2134  0.1444
 4512TIP3    H113500   6.249   5.536   5.765  1.3862 -0.8263  1.4514
 4512TIP3    H213501   6.177   5.578   5.891 -1.7632  0.5337 -0.6738
 4513TIP3   OH213502   0.550   0.972   1.663 -0.2402  0.3750 -0.3467
 4513TIP3    H113503   0.482   1.022   1.709  0.3710  0.0554  0.9500
 4513TIP3    H213504   0.600   0.930   1.733  0.4502 -0.4998 -1.3383
 4514TIP3   OH213505   5.622   3.060   3.046  0.0155  0.0450 -0.6205
 4514TIP3    H113506   5.584   2.989   2.994 -1.4376  0.5939 -0.3747
 4514TIP3    H213507   5.714   3.061   3.022  0.4363 -2.8664  0.4209
 4515TIP3   OH213508  -0.029   6.083   0.006 -0.5632 -0.3373 -0.1146
 4515TIP3    H113509   0.040   6.018  -0.001 -1.1302 -1.1658  1.4833
 4515TIP3    H213510   0.016   6.167  -0.001  0.5044 -0.8713  0.1611
 4516TIP3   OH213511   4.443   3.257   4.032  0.7150 -0.3293  0.1360
 4516TIP3    H113512   4.388   3.224   4.103  1.2077 -0.3605  0.5051
 4516TIP3    H213513   4.423   3.350   4.027 -1.2681 -0.7654 -1.4228
 4517TIP3   OH213514   4.903   1.372   5.409  0.9124  1.0706  0.0740
 4517TIP3    H113515   4.913   1.344   5.318  0.0928 -1.1641  0.6197
 4517TIP3    H213516   4.987   1.413   5.431  0.9901  1.9890 -1.7580
 4518TIP3   OH213517   4.915   1.194   0.640  0.1173  0.2000 -0.0129
 4518TIP3    H113518   4.968   1.150   0.573 -0.7609 -0.1979 -0.4644
 4518TIP3    H213519   4.968   1.269   0.667  1.3565 -0.7661  0.3042
 4519TIP3   OH213520   4.647   6.416   5.717  0.4472  0.0882  0.0232
 4519TIP3    H113521   4.651   6.325   5.688 -2.3364  0.0888 -0.6642
 4519TIP3    H213522   4.642   6.411   5.813  0.9610 -0.4048  0.0316
 4520TIP3   OH213523   3.515   6.141   3.892 -0.1052  0.7614  0.3172
 4520TIP3    H113524   3.442   6.111   3.837  1.0266 -1.2334 -0.2114
 4520TIP3    H213525   3.473   6.180   3.968 -1.9511 -3.7955  1.9899
 4521TIP3   OH213526   5.344   1.210   0.729  0.5085  0.5928 -0.2906
 4521TIP3    H113527   5.308   1.125   0.754  0.7423 -0.0514 -2.0146
 4521TIP3    H213528   5.357   1.256   0.812 -3.3119  0.5019  0.5391
 4522TIP3   OH213529   4.086   1.781   4.563  0.9238 -0.4705  0.2267
 4522TIP3    H113530   4.037   1.708   4.601  0.2788  0.2285  0.7574
 4522TIP3    H213531   4.114   1.833   4.638 -2.1514  2.0972 -0.1963
 4523TIP3   OH213532   3.209   5.200   0.803  0.3861  0.1041 -0.1549
 4523TIP3    H113533   3.151   5.242   0.866 -1.0247 -0.4478 -1.0434
 4523TIP3    H213534   3.284   5.172   0.855 -0.0054  1.0498  0.9822
 4524TIP3   OH213535   4.391   4.939   1.309 -0.6739 -0.1399 -0.3869
 4524TIP3    H113536   4.411   4.860   1.259  0.1059 -0.2150  0.0223
 4524TIP3    H213537   4.468   4.994   1.297  1.0785 -1.4647  3.2984
 4525TIP3   OH213538   1.488   1.227   2.897 -0.1438 -0.1653 -0.2429
 4525TIP3    H113539   1.414   1.209   2.839 -1.6005 -1.0949  1.7705
 4525TIP3    H213540   1.537   1.145   2.899  0.8241  0.3586 -1.3412
 4526TIP3   OH213541   3.916   4.789   1.644  0.5856 -0.3874 -0.2364
 4526TIP3    H113542   3.964   4.719   1.687 -1.3614 -1.4160  0.3755
 4526TIP3    H213543   3.889   4.847   1.715 -0.8039 -0.9368 -0.2854
 4527TIP3   OH213544   6.255   4.555   2.728 -0.1429 -0.0749 -0.7727
 4527TIP3    H113545   6.341   4.535   2.765  0.0838  0.0234 -1.2298
 4527TIP3    H213546   6.255   4.651   2.719 -0.3403 -0.0657 -0.6745
 4528TIP3   OH213547   6.185   3.861   1.416 -0.1781  0.2284 -0.1291
 4528TIP3    H113548   6.158   3.785   1.467  1.0104  0.0289  0.2279
 4528TIP3    H213549   6.149   3.846   1.328  0.9487 -1.2784 -0.3597
 4529TIP3   OH213550   3.146   3.227   1.387  0.4807 -0.5886 -0.1816
 4529TIP3    H113551   3.080   3.263   1.447 -0.0560 -0.6130 -0.7444
 4529TIP3    H213552   3.209   3.298   1.377 -0.1456 -0.0848 -0.6493
 4530TIP3   OH213553   2.488   4.122   2.489 -0.2995  0.1600  0.0801
 4530TIP3    H113554   2.526   4.170   2.563 -0.9487  0.0686  0.4811
 4530TIP3    H213555   2.419   4.179   2.456 -0.1529  0.1055 -0.3293
 4531TIP3   OH213556   4.828   2.817   3.867  0.0823 -0.3052  0.5491
 4531TIP3    H113557   4.748   2.805   3.815  0.7652 -1.9909 -0.1989
 4531TIP3    H213558   4.866   2.898   3.834 -0.5765 -0.2487 -0.1062
 4532TIP3   OH213559   2.771   1.352   2.195 -0.2552 -0.1829  0.3808
 4532TIP3    H113560   2.682   1.363   2.230  0.0137  0.5096  0.8556
 4532TIP3    H213561   2.824   1.417   2.242  0.6688 -1.1261  0.6704
 4533TIP3   OH213562   4.022   6.699   5.424  0.4992  0.0086 -0.2476
 4533TIP3    H113563   4.032   6.604   5.417  1.1824  0.0022  0.6612
 4533TIP3    H213564   4.097   6.735   5.377  0.6755  0.0792  0.0821
 4534TIP3   OH213565   4.186   1.042   3.156 -0.0321  0.4472  0.2684
 4534TIP3    H113566   4.244   1.101   3.108  1.1214 -1.5793 -0.9910
 4534TIP3    H213567   4.243   0.996   3.217 -0.4910 -0.7544 -0.1752
 4535TIP3   OH213568   3.044   4.277   5.129  0.6230  0.7044  0.0023
 4535TIP3    H113569   3.012   4.187   5.120 -1.1542  1.3481 -0.4882
 4535TIP3    H213570   3.129   4.277   5.085  0.2567 -0.5395 -0.7563
 4536TIP3   OH213571   0.266   6.477   3.791  0.1642 -0.0985 -0.4635
 4536TIP3    H113572   0.253   6.501   3.699  0.5555  1.2757 -0.1851
 4536TIP3    H213573   0.184   6.503   3.834  0.4953  0.5493 -0.2030
 4537TIP3   OH213574   7.030   0.866   3.158 -0.4239 -0.1047  0.2475
 4537TIP3    H113575   6.971   0.926   3.113  1.1543  1.2170 -0.1146
 4537TIP3    H213576   7.084   0.829   3.089 -1.7186 -2.4419  0.3801
 4538TIP3   OH213577   4.880   5.906   2.412  0.6214 -0.0776  0.1183
 4538TIP3    H113578   4.828   5.830   2.440 -1.0044 -0.3137 -2.9885
 4538TIP3    H213579   4.932   5.929   2.488 -2.7148 -0.9936  2.9754
 4539TIP3   OH213580   6.883   3.102   2.380 -0.1349  0.1498  0.3367
 4539TIP3    H113581   6.904   3.149   2.300  1.9539 -0.2576  0.5973
 4539TIP3    H213582   6.929   3.150   2.449 -1.2767  0.0489  1.2062
 4540TIP3   OH213583   3.983   1.098   3.709 -0.2414  0.0911  0.5919
 4540TIP3    H113584   3.910   1.058   3.662 -0.2077  0.0810  0.5480
 4540TIP3    H213585   4.047   1.027   3.718 -0.3954 -0.0031  0.9682
 4541TIP3   OH213586   5.160   5.256   0.418 -0.3220  0.0544 -0.3728
 4541TIP3    H113587   5.078   5.215   0.442 -1.1980  1.6601 -0.4928
 4541TIP3    H213588   5.172   5.327   0.482  1.2990 -0.5356  0.0404
 4542TIP3   OH213589   4.018   1.623   3.318 -0.2864 -0.0649  0.3047
 4542TIP3    H113590   4.055   1.709   3.300  0.1143  0.1919  2.1833
 4542TIP3    H213591   4.087   1.561   3.292 -0.6818  0.1116 -1.3105
 4543TIP3   OH213592   0.518   1.109   4.329 -0.2498 -0.2438  0.3956
 4543TIP3    H113593   0.538   1.201   4.350  1.0454 -0.6484  1.0639
 4543TIP3    H213594   0.485   1.112   4.240  0.3379  0.8200  0.1933
 4544TIP3   OH213595   2.771   2.821   2.889 -0.3217  0.7160  0.1085
 4544TIP3    H113596   2.807   2.791   2.972 -0.1701  0.7781  0.0666
 4544TIP3    H213597   2.815   2.905   2.873 -0.3186  0.6832 -0.0550
 4545TIP3   OH213598   1.644   4.537   0.354  0.0990 -0.1311 -0.0229
 4545TIP3    H113599   1.639   4.442   0.364  0.3767 -0.1699 -0.2166
 4545TIP3    H213600   1.717   4.563   0.411  0.4056 -0.1100 -0.4218
 4546TIP3   OH213601   3.516   2.860   2.980 -0.2768 -0.4795 -0.2334
 4546TIP3    H113602   3.433   2.858   2.932  0.0483 -0.6446 -0.7989
 4546TIP3    H213603   3.504   2.798   3.052  0.1861 -2.4339 -1.7413
 4547TIP3   OH213604   5.223   2.450   0.771 -0.1583 -0.2703  0.4220
 4547TIP3    H113605   5.138   2.478   0.803 -0.7765 -0.0057 -1.3344
 4547TIP3    H213606   5.286   2.488   0.833 -1.3209 -2.3400  3.0744
 4548TIP3   OH213607   7.233   3.914   0.194 -0.1876 -0.0645 -0.5677
 4548TIP3    H113608   7.185   3.879   0.270 -0.2642 -1.0808 -1.0732
 4548TIP3    H213609   7.181   3.989   0.166 -1.6455 -1.2843 -1.2513
 4549TIP3   OH213610   0.613   3.212   4.164  0.6382  0.1506  0.6916
 4549TIP3    H113611   0.664   3.272   4.110  0.1877 -0.9084 -0.9842
 4549TIP3    H213612   0.554   3.269   4.214  1.6760  1.2137  0.7455
 4550TIP3   OH213613   6.551   5.140   1.828  0.3548  0.1741  0.1777
 4550TIP3    H113614   6.590   5.226   1.814  0.4835 -0.0868 -1.1435
 4550TIP3    H213615   6.625   5.082   1.847  0.2060  0.4693  1.8782
 4551TIP3   OH213616   5.730   4.144   3.769 -0.0627  0.2238 -0.1988
 4551TIP3    H113617   5.680   4.189   3.837 -0.0847 -0.0583 -0.0229
 4551TIP3    H213618   5.663   4.107   3.711 -0.0364  1.0641 -0.7812
 4552TIP3   OH213619   3.016   3.613   2.847 -0.3204  0.2071 -0.0583
 4552TIP3    H113620   2.994   3.706   2.837 -1.8305 -0.1624 -0.4785
 4552TIP3    H213621   3.046   3.605   2.938 -0.0331  1.1262 -0.0611
 4553TIP3   OH213622   6.325   6.157   2.174 -0.2126 -0.4908 -0.1373
 4553TIP3    H113623   6.332   6.086   2.237 -0.9878  0.6285  1.2680
 4553TIP3    H213624   6.363   6.233   2.218 -1.8741  0.6131 -0.4855
 4554TIP3   OH213625   6.057   1.336   1.389 -0.0167 -0.4420 -0.4440
 4554TIP3    H113626   6.143   1.334   1.430  0.3490  1.0355 -1.0384
 4554TIP3    H213627   6.046   1.250   1.349  0.7578 -0.9706  0.4709
 4555TIP3   OH213628   6.218   1.780   4.497 -0.1106 -0.1406  0.7658
 4555TIP3    H113629   6.254   1.700   4.458 -0.9866 -0.5354  0.7480
 4555TIP3    H213630   6.184   1.753   4.582  0.5160  0.4339  1.2159
 4556TIP3   OH213631   1.220   3.479   5.165  0.0646  0.3352  0.6288
 4556TIP3    H113632   1.214   3.435   5.250 -1.2512 -2.0475 -0.5854
 4556TIP3    H213633   1.290   3.434   5.119 -1.5383 -0.8827 -0.7790
 4557TIP3   OH213634   3.968   2.063   3.488 -0.0460  0.3755 -0.4488
 4557TIP3    H113635   3.989   2.151   3.456 -1.6260  0.9023 -0.1325
 4557TIP3    H213636   4.012   2.004   3.427  0.6044  1.3784 -0.9766
 4558TIP3   OH213637   7.144   2.688   2.743 -0.3124 -0.2738 -0.6662
 4558TIP3    H113638   7.237   2.679   2.721  0.1923  1.5818  0.4480
 4558TIP3    H213639   7.113   2.756   2.684 -0.6219  0.0172 -0.1749
 4559TIP3   OH213640   4.227   3.422   4.453  0.2143  0.4655 -0.1063
 4559TIP3    H113641   4.218   3.417   4.548  1.3898 -0.7127 -0.0253
 4559TIP3    H213642   4.258   3.511   4.437 -1.6199  1.2413  0.4363
 4560TIP3   OH213643   4.926   0.880   4.567 -0.0057 -0.6701  0.1519
 4560TIP3    H113644   4.955   0.843   4.484  0.4681 -1.4075  0.6368
 4560TIP3    H213645   5.006   0.915   4.606 -0.4805  1.2168 -0.4420
 4561TIP3   OH213646   5.610   1.408   4.332  0.1303  0.1699  0.2702
 4561TIP3    H113647   5.626   1.334   4.391  0.8356  0.4150  0.3981
 4561TIP3    H213648   5.516   1.424   4.339 -0.0204 -0.6472  0.3161
 4562TIP3   OH213649   2.899   0.941   0.661 -0.9413  0.2514  0.5230
 4562TIP3    H113650   2.865   1.019   0.616  1.2057  1.1881  0.4018
 4562TIP3    H213651   2.847   0.869   0.626 -0.1507  1.0869 -2.6805
 4563TIP3   OH213652   4.240   3.388   5.751 -0.2300  0.3318 -0.1680
 4563TIP3    H113653   4.257   3.457   5.686 -1.2407 -0.5764 -1.4576
 4563TIP3    H213654   4.298   3.316   5.726  0.1101  0.3432  0.5665
 4564TIP3   OH213655   2.369   3.637   2.279 -0.2546  0.0971 -0.0511
 4564TIP3    H113656   2.357   3.731   2.267 -1.0676  0.1687  1.1422
 4564TIP3    H213657   2.283   3.599   2.260  0.3871 -0.5754 -1.8085
 4565TIP3   OH213658   6.129   2.164   2.039 -0.4142 -0.4902  0.1409
 4565TIP3    H113659   6.150   2.072   2.030  0.3007 -0.2133 -1.1667
 4565TIP3    H213660   6.210   2.210   2.018 -0.9213  0.4554  0.1964
 4566TIP3   OH213661   2.241   1.529   1.472  0.3975 -0.1103  0.4895
 4566TIP3    H113662   2.316   1.553   1.525  0.9779 -0.6878 -0.0451
 4566TIP3    H213663   2.204   1.612   1.442  0.3221  0.1984  1.4322
 4567TIP3   OH213664   3.374   1.534   4.354  0.0028  0.0972  0.6388
 4567TIP3    H113665   3.365   1.549   4.449 -0.5980  1.0183  0.4446
 4567TIP3    H213666   3.466   1.552   4.336  0.0111  0.4094  0.9703
 4568TIP3   OH213667   3.632   4.076   1.033  0.5085 -0.1720 -0.3776
 4568TIP3    H113668   3.586   4.112   1.109  2.2768 -1.3163  1.3226
 4568TIP3    H213669   3.670   4.152   0.990  1.3095  0.3620  1.1853
 4569TIP3   OH213670   0.672   1.626   5.623  0.2389 -0.4124  0.1459
 4569TIP3    H113671   0.636   1.538   5.612 -2.2829  0.4615  0.8629
 4569TIP3    H213672   0.708   1.626   5.712 -3.2740  0.3290  1.7154
 4570TIP3   OH213673   3.298   2.735   2.077  0.5228 -0.0254  0.8496
 4570TIP3    H113674   3.256   2.661   2.036  1.5891 -1.0139  1.4710
 4570TIP3    H213675   3.392   2.716   2.071  0.8702  1.6895  0.2439
 4571TIP3   OH213676   1.856   6.140   0.316  0.5163  0.0806 -0.0270
 4571TIP3    H113677   1.894   6.122   0.230  0.4322 -3.4222  0.5181
 4571TIP3    H213678   1.764   6.114   0.307  0.4398 -0.0533  1.0299
 4572TIP3   OH213679   6.383   1.729   0.747 -0.2637  0.5663  0.1375
 4572TIP3    H113680   6.364   1.639   0.722  1.2483 -0.1815  1.4658
 4572TIP3    H213681   6.479   1.734   0.749 -0.3163  1.9388  0.9422
 4573TIP3   OH213682   2.143   5.057   4.485 -0.0945 -0.0345  0.2706
 4573TIP3    H113683   2.134   4.971   4.526 -0.3589 -0.8702 -1.4512
 4573TIP3    H213684   2.059   5.072   4.442  0.0555  0.9600  0.3082
 4574TIP3   OH213685   5.666   2.796   4.611  0.1368  0.3202  1.4992
 4574TIP3    H113686   5.688   2.883   4.577 -2.1349  0.2570 -0.3522
 4574TIP3    H213687   5.747   2.745   4.599  1.0019  1.7223  1.1181
 4575TIP3   OH213688   4.750   0.666   2.821 -0.1500  0.0945 -0.5433
 4575TIP3    H113689   4.781   0.711   2.742 -1.1627  1.5307 -0.1779
 4575TIP3    H213690   4.814   0.689   2.889  0.0675 -0.1393 -0.6686
 4576TIP3   OH213691   0.932   0.490   3.037  0.7662  0.2433 -0.8132
 4576TIP3    H113692   1.023   0.461   3.034 -0.1933 -3.2032 -2.1743
 4576TIP3    H213693   0.888   0.425   3.092 -1.3875 -0.2368 -2.9125
 4577TIP3   OH213694   0.810   6.815   1.163 -0.4242 -0.0765  0.1968
 4577TIP3    H113695   0.866   6.756   1.113 -1.5471  0.1206 -1.3736
 4577TIP3    H213696   0.729   6.766   1.178 -0.5683  0.3136  0.7586
 4578TIP3   OH213697   3.501   4.138   4.309  0.3942 -0.1808  0.0390
 4578TIP3    H113698   3.541   4.070   4.255  0.4966 -1.4387  1.6500
 4578TIP3    H213699   3.439   4.092   4.365  1.2612  0.8489  1.9558
 4579TIP3   OH213700   6.257   0.013   0.130  0.1202 -0.1311  0.0693
 4579TIP3    H113701   6.169   0.033   0.163 -0.4993 -2.8816  0.3489
 4579TIP3    H213702   6.256   0.043   0.039 -1.0445  0.0997  0.1478
 4580TIP3   OH213703   5.348   5.695   3.536  0.4659 -0.2970 -0.1205
 4580TIP3    H113704   5.263   5.717   3.573  0.1889  1.8801 -1.7940
 4580TIP3    H213705   5.404   5.676   3.611 -1.1207 -0.3857  1.0842
 4581TIP3   OH213706   4.869   5.074   1.739 -0.3824 -1.0314 -0.3609
 4581TIP3    H113707   4.848   5.155   1.694  1.1272 -0.9561 -0.9883
 4581TIP3    H213708   4.788   5.049   1.783 -0.6648  1.1976  0.4699
 4582TIP3   OH213709   6.152   5.264   0.847 -0.6963 -0.3449 -0.7556
 4582TIP3    H113710   6.086   5.203   0.880  1.1929 -1.6111  0.9212
 4582TIP3    H213711   6.230   5.210   0.831  0.6728  1.4214 -0.3989
 4583TIP3   OH213712   6.591   3.958   5.177  0.8386  0.5919 -0.1599
 4583TIP3    H113713   6.514   4.008   5.204 -0.8839 -0.4452 -2.7426
 4583TIP3    H213714   6.576   3.870   5.211  1.1113  0.4966 -0.2871
 4584TIP3   OH213715   3.707   6.463   4.554  0.3045  0.2724  0.1320
 4584TIP3    H113716   3.689   6.547   4.596  1.2216  0.9461 -0.7666
 4584TIP3    H213717   3.794   6.473   4.517  1.4835 -1.9247  2.0426
 4585TIP3   OH213718   3.678   1.115   4.498 -0.1032  0.1851 -0.3932
 4585TIP3    H113719   3.714   1.195   4.536 -0.8611  0.9046 -1.1304
 4585TIP3    H213720   3.595   1.143   4.458 -0.2818 -0.9322 -0.8478
 4586TIP3   OH213721   0.673   5.807   1.681 -0.0598  0.1079  0.1522
 4586TIP3    H113722   0.708   5.720   1.701  1.6639  0.0987 -2.3992
 4586TIP3    H213723   0.686   5.857   1.762  0.2546 -1.5847  1.2063
 4587TIP3   OH213724   1.019   3.384   1.812  0.3215 -0.7636 -0.0557
 4587TIP3    H113725   0.939   3.417   1.853  0.0373 -3.0603  1.4060
 4587TIP3    H213726   1.009   3.406   1.720 -2.3589 -1.5912 -0.0525
 4588TIP3   OH213727   2.372   1.642   1.060 -0.3644  0.3381  0.3786
 4588TIP3    H113728   2.421   1.697   1.122  0.4302 -0.8872  0.8663
 4588TIP3    H213729   2.322   1.705   1.007  0.7149  1.5470  0.7426
 4589TIP3   OH213730   4.007   3.310   4.204 -0.1716 -0.1402 -0.3497
 4589TIP3    H113731   3.917   3.295   4.175 -0.4153  0.7837 -0.1178
 4589TIP3    H213732   4.060   3.294   4.127 -0.8030  2.2395 -1.3818
 4590TIP3   OH213733   2.269   3.048   5.068 -0.3727 -0.4084 -0.6977
 4590TIP3    H113734   2.272   3.034   4.973  0.2761  0.9625 -0.9096
 4590TIP3    H213735   2.279   3.142   5.078  2.4727 -0.7750  0.8311
 4591TIP3   OH213736   4.679   5.930   1.431  0.5262  0.6072  0.5077
 4591TIP3    H113737   4.745   5.998   1.443 -0.1489  1.3804 -0.0310
 4591TIP3    H213738   4.679   5.912   1.337  0.2036  0.3753  0.5461
 4592TIP3   OH213739   5.196   2.272   3.328  0.0949 -0.0061 -0.2129
 4592TIP3    H113740   5.174   2.317   3.409  0.4878  0.1445 -0.1857
 4592TIP3    H213741   5.285   2.301   3.308  0.2222 -0.4950 -0.3849
 4593TIP3   OH213742   1.066   1.991   2.428 -0.5408  0.5159 -0.1479
 4593TIP3    H113743   1.132   2.061   2.428 -0.8477  0.8768  1.8886
 4593TIP3    H213744   0.985   2.034   2.401 -0.0820  0.1589 -2.2556
 4594TIP3   OH213745   3.146   0.893   0.701 -0.0671 -0.7675 -0.3413
 4594TIP3    H113746   3.155   0.804   0.667 -0.0839 -0.7329 -0.4360
 4594TIP3    H213747   3.051   0.909   0.702 -0.0535 -0.6753 -0.5178
 4595TIP3   OH213748   3.926   5.946   3.273  0.4915 -0.2513  0.6285
 4595TIP3    H113749   3.951   5.936   3.365  1.6356 -0.8519  0.2671
 4595TIP3    H213750   3.895   5.859   3.247  1.2594 -0.3807  0.1343
 4596TIP3   OH213751   3.312   5.654   5.512  0.2667 -0.7315  0.1624
 4596TIP3    H113752   3.384   5.718   5.506  0.3673 -0.8848 -0.3319
 4596TIP3    H213753   3.311   5.628   5.604 -1.3170  1.7295  0.9323
 4597TIP3   OH213754   4.127   5.187   5.572 -0.2035 -0.1452 -0.0101
 4597TIP3    H113755   4.098   5.120   5.509  1.0898  1.4902 -2.5321
 4597TIP3    H213756   4.188   5.141   5.629  1.3827 -1.0296 -2.2656
 4598TIP3   OH213757   2.143   2.042   1.433 -0.4899 -0.4932  0.1408
 4598TIP3    H113758   2.200   1.969   1.409  0.0885  0.5557 -1.9350
 4598TIP3    H213759   2.058   2.002   1.448 -0.0453 -1.6693 -0.3393
 4599TIP3   OH213760   1.383   5.629   1.827  0.5353  0.6587 -0.3448
 4599TIP3    H113761   1.360   5.675   1.746  0.7873  0.8669 -0.2999
 4599TIP3    H213762   1.431   5.552   1.798 -0.9164 -0.2320 -0.4871
 4600TIP3   OH213763   3.488   2.654   4.915  0.2852  0.3669  0.4978
 4600TIP3    H113764   3.552   2.724   4.926  0.8808 -0.0511 -0.2112
 4600TIP3    H213765   3.431   2.660   4.992  0.9395  0.9890  0.9372
 4601TIP3   OH213766   4.210   0.666   5.045  0.7836  0.1490 -0.7258
 4601TIP3    H113767   4.138   0.629   5.096  1.7564  0.0152  0.6350
 4601TIP3    H213768   4.253   0.727   5.106  2.4917 -0.6189 -1.0884
 4602TIP3   OH213769   1.611   3.448   5.447 -0.1982  0.3405 -0.2812
 4602TIP3    H113770   1.520   3.442   5.417  0.0446 -0.6740 -0.8498
 4602TIP3    H213771   1.651   3.512   5.388 -0.7601  1.5409  0.5861
 4603TIP3   OH213772   3.623   4.391   1.995  0.0955 -0.3956 -0.0883
 4603TIP3    H113773   3.553   4.326   2.009 -1.4254  0.8948 -1.2719
 4603TIP3    H213774   3.619   4.447   2.072  0.7260 -1.0888  0.4591
 4604TIP3   OH213775   1.389   4.569   5.168  0.1237 -0.8870  0.0492
 4604TIP3    H113776   1.352   4.619   5.096  0.0451 -0.9606  0.0383
 4604TIP3    H213777   1.329   4.583   5.241 -0.4276 -1.7417 -0.2249
 4605TIP3   OH213778   1.308   5.811   0.333  0.1368 -0.3959  0.1659
 4605TIP3    H113779   1.403   5.803   0.328  0.2470  0.8670 -0.1618
 4605TIP3    H213780   1.292   5.905   0.344 -1.1180 -0.3793 -1.3405
 4606TIP3   OH213781   6.643   2.299   0.308  0.1685  0.5774 -0.1488
 4606TIP3    H113782   6.721   2.243   0.302 -0.8141 -0.9369  0.5941
 4606TIP3    H213783   6.656   2.348   0.389 -1.4175 -2.6469  2.2578
 4607TIP3   OH213784   2.384   3.004   0.311  0.4325  0.3738 -0.0522
 4607TIP3    H113785   2.336   3.029   0.389  0.8414  2.0268 -0.2755
 4607TIP3    H213786   2.455   2.948   0.342 -0.4647 -0.4631  0.5125
 4608TIP3   OH213787   1.922   5.284   0.165  0.6061 -0.4393 -0.2910
 4608TIP3    H113788   1.855   5.260   0.228  0.5180  0.8769  0.1358
 4608TIP3    H213789   1.968   5.202   0.147 -0.1139 -1.0519  0.5895
 4609TIP3   OH213790   0.048   4.737   4.804  0.6761 -0.0949  0.6193
 4609TIP3    H113791   0.092   4.677   4.744 -2.2135 -1.9788  0.2166
 4609TIP3    H213792   0.006   4.680   4.868 -0.5574  1.6241  1.4022
 4610TIP3   OH213793   5.743   4.630   1.778 -0.8762  0.6070 -0.1846
 4610TIP3    H113794   5.679   4.688   1.736  1.1893  1.4985 -2.3219
 4610TIP3    H213795   5.738   4.653   1.871 -0.9746  3.4345 -0.8041
 4611TIP3   OH213796   1.246   2.134   4.822  0.3266  0.2426 -0.0471
 4611TIP3    H113797   1.237   2.175   4.908 -1.1518  0.4567 -0.2757
 4611TIP3    H213798   1.186   2.183   4.766  1.0061 -0.1213 -1.1194
 4612TIP3   OH213799   1.961   2.006   2.326  0.0510 -0.4387 -0.0844
 4612TIP3    H113800   2.007   1.991   2.408 -1.8926 -2.5310  0.7265
 4612TIP3    H213801   1.935   2.098   2.331 -1.0376 -0.7830  2.2785
 4613TIP3   OH213802   1.102   3.383   4.046  0.0411 -0.3792  0.4256
 4613TIP3    H113803   1.086   3.406   4.137 -1.0820  3.0633 -0.5016
 4613TIP3    H213804   1.191   3.414   4.028 -0.3674  0.5863 -0.0385
 4614TIP3   OH213805   4.931   5.959   3.839  0.1847  0.2418  0.4126
 4614TIP3    H113806   4.863   5.977   3.775 -0.7338 -1.5243  0.8366
 4614TIP3    H213807   4.928   5.864   3.852  1.3065  0.3765  2.0030
 4615TIP3   OH213808   4.346   1.343   2.966  0.2999 -0.2776 -0.7050
 4615TIP3    H113809   4.391   1.280   3.022 -1.5620  0.6812  2.0676
 4615TIP3    H213810   4.405   1.418   2.963  1.5207 -1.2169 -2.2128
 4616TIP3   OH213811   2.235   6.303   1.891 -0.2093 -0.1026 -0.2624
 4616TIP3    H113812   2.317   6.276   1.851 -0.0930 -0.4996  0.2340
 4616TIP3    H213813   2.187   6.346   1.820  0.1705 -0.4024 -0.7095
 4617TIP3   OH213814   6.322   4.193   3.365  0.1781  0.3751 -0.2592
 4617TIP3    H113815   6.334   4.117   3.422  0.4101  0.2462 -0.4771
 4617TIP3    H213816   6.242   4.235   3.397 -0.2442 -0.2509 -0.4655
 4618TIP3   OH213817   3.470   1.460   2.354  0.4691  0.1631 -0.1708
 4618TIP3    H113818   3.503   1.482   2.441 -0.2577 -1.5618  0.5762
 4618TIP3    H213819   3.453   1.545   2.313  1.7555  1.0257  0.9848
 4619TIP3   OH213820   2.530   4.475   1.053 -0.0591 -0.3803  0.5003
 4619TIP3    H113821   2.441   4.505   1.070  0.4792  0.8896  1.1520
 4619TIP3    H213822   2.529   4.451   0.960 -1.4330 -1.7354  0.8254
 4620TIP3   OH213823   5.097   5.560   5.347 -0.0211 -0.6356  0.1897
 4620TIP3    H113824   5.104   5.639   5.400 -0.7999  0.7820 -1.7008
 4620TIP3    H213825   5.129   5.587   5.261  1.2342 -2.8537 -0.1136
 4621TIP3   OH213826   1.959   0.037   3.372  0.2511  0.1267 -0.2726
 4621TIP3    H113827   1.985  -0.053   3.351  0.4493  0.0149  0.4055
 4621TIP3    H213828   1.962   0.040   3.468  2.1521  1.4161 -0.3244
 4622TIP3   OH213829   5.136   4.117   5.050 -0.3676 -0.1091 -0.1145
 4622TIP3    H113830   5.156   4.211   5.053  1.7753 -0.5268  0.5210
 4622TIP3    H213831   5.057   4.111   4.996  0.5843  1.8921 -1.8959
 4623TIP3   OH213832   6.846   5.188   2.032 -0.5005  0.3461 -0.2934
 4623TIP3    H113833   6.779   5.256   2.024  0.1561  1.2916  1.4721
 4623TIP3    H213834   6.911   5.227   2.091  0.8138 -1.1426 -0.7031
 4624TIP3   OH213835   2.231   1.650   5.347  0.1556  0.5684  0.0785
 4624TIP3    H113836   2.296   1.716   5.371  1.6015 -1.1639  1.2238
 4624TIP3    H213837   2.151   1.676   5.392  0.5884  1.6922  0.2247
 4625TIP3   OH213838   3.094   3.102   2.349 -0.1301  0.1692 -0.0359
 4625TIP3    H113839   3.135   3.184   2.321 -1.4917  0.8785 -0.0487
 4625TIP3    H213840   3.013   3.130   2.391 -0.4445 -1.1703  0.2757
 4626TIP3   OH213841   6.245   5.094   1.180 -0.1578 -0.2423  0.6787
 4626TIP3    H113842   6.264   5.083   1.273  0.1720  1.1193  0.7916
 4626TIP3    H213843   6.268   5.010   1.141  0.3208 -0.6183  1.7333
 4627TIP3   OH213844   2.237   2.887   1.679 -0.2479  0.0876 -0.6881
 4627TIP3    H113845   2.167   2.871   1.615 -1.7860  1.1368  0.6610
 4627TIP3    H213846   2.192   2.887   1.764  1.3872  0.9145  0.2166
 4628TIP3   OH213847   1.898   2.057   0.516  0.1827  0.0932 -0.4576
 4628TIP3    H113848   1.882   2.018   0.430 -1.7017  2.3933 -1.2646
 4628TIP3    H213849   1.921   2.148   0.497  1.5343  0.1983  1.4297
 4629TIP3   OH213850   1.060   6.451   0.435  0.7832 -0.1280  0.1392
 4629TIP3    H113851   1.011   6.533   0.433 -0.1683 -0.6649 -2.4506
 4629TIP3    H213852   1.128   6.465   0.502 -0.3457  2.1387  0.9123
 4630TIP3   OH213853   3.212   5.754   5.284  0.0213  0.0864  0.3035
 4630TIP3    H113854   3.253   5.720   5.364  1.4616 -0.7127 -0.7164
 4630TIP3    H213855   3.249   5.842   5.274  0.6762 -0.2198 -0.0352
 4631TIP3   OH213856   6.734   4.773   1.554  0.0419 -0.1671  0.3156
 4631TIP3    H113857   6.809   4.807   1.505 -1.1658  1.9932 -0.1639
 4631TIP3    H213858   6.764   4.771   1.645  0.7686  0.4492  0.1008
 4632TIP3   OH213859   1.185   0.404   1.476 -0.7614  0.7250 -0.2591
 4632TIP3    H113860   1.195   0.395   1.381 -1.2445  1.1348 -0.3590
 4632TIP3    H213861   1.091   0.418   1.488 -0.6423  1.1537  0.2358
 4633TIP3   OH213862   4.901   3.132   4.238 -0.1601  0.7492 -0.7360
 4633TIP3    H113863   4.931   3.152   4.150 -0.0752  0.9406 -0.6638
 4633TIP3    H213864   4.818   3.180   4.247  0.6193  2.0511 -0.1493
 4634TIP3   OH213865   5.996   5.882   4.298 -0.1172 -0.0852 -0.0517
 4634TIP3    H113866   6.062   5.918   4.239  0.2884  1.2364  1.1632
 4634TIP3    H213867   5.965   5.957   4.349  0.1552 -1.2993  1.9893
 4635TIP3   OH213868   0.159   0.576   5.755 -0.6035 -0.1324  0.6508
 4635TIP3    H113869   0.239   0.628   5.766 -0.3094 -0.2353 -0.8269
 4635TIP3    H213870   0.090   0.641   5.737 -0.3444 -0.1940 -0.6318
 4636TIP3   OH213871   5.610   5.532   4.288 -0.0128  0.7244 -0.8179
 4636TIP3    H113872   5.671   5.605   4.302 -0.6705  0.9358  1.3893
 4636TIP3    H213873   5.544   5.567   4.229  0.4904  1.4272 -0.9852
 4637TIP3   OH213874   1.371   2.527   3.918 -0.2432  0.0399  0.0947
 4637TIP3    H113875   1.435   2.599   3.920 -1.3602  1.0533  0.2081
 4637TIP3    H213876   1.376   2.494   3.828 -0.6666  1.1475 -0.3529
 4638TIP3   OH213877   2.888   6.380   4.821  0.4278 -0.1059 -0.5066
 4638TIP3    H113878   2.934   6.347   4.898  2.7594 -0.3162 -1.9181
 4638TIP3    H213879   2.816   6.433   4.858  0.9472 -0.8641  1.7775
 4639TIP3   OH213880   2.152   5.798   1.312  0.2269  0.3384  0.0320
 4639TIP3    H113881   2.194   5.873   1.354  1.5843  0.0238 -0.7014
 4639TIP3    H213882   2.163   5.814   1.218  0.7397 -0.8742 -0.1380
 4640TIP3   OH213883   6.244   2.294   4.470 -0.4484 -0.3641  0.1379
 4640TIP3    H113884   6.185   2.246   4.528 -2.1364  0.1219 -1.1030
 4640TIP3    H213885   6.252   2.381   4.509 -1.2758 -0.1566 -0.1457
 4641TIP3   OH213886   3.344   0.240   3.269  0.4557  0.2518  0.2370
 4641TIP3    H113887   3.293   0.161   3.285  0.6550  0.0876  0.0730
 4641TIP3    H213888   3.291   0.311   3.304  0.3129  0.0350  0.4609
 4642TIP3   OH213889   3.893   3.417   0.017  0.4194  0.0976 -0.0165
 4642TIP3    H113890   3.823   3.401   0.080 -0.7295  1.3392 -0.9081
 4642TIP3    H213891   3.969   3.373   0.053 -0.8102 -1.2624  1.0102
 4643TIP3   OH213892   1.612   2.446   2.424  0.1221 -0.4456  0.2076
 4643TIP3    H113893   1.568   2.394   2.357 -1.4754  0.3212  0.6212
 4643TIP3    H213894   1.685   2.487   2.378 -1.3529  0.6499 -1.2715
 4644TIP3   OH213895   2.912   3.229   2.048  0.7797 -0.0029 -0.6497
 4644TIP3    H113896   2.947   3.143   2.071 -1.1075 -0.6538 -0.0378
 4644TIP3    H213897   2.856   3.213   1.973 -0.7415  0.3849  0.3533
 4645TIP3   OH213898   2.250   1.063   3.793  0.0166 -0.6848 -0.2880
 4645TIP3    H113899   2.219   1.139   3.844 -2.3535 -1.2536 -0.7989
 4645TIP3    H213900   2.324   1.097   3.743  0.3664  0.7185  1.0882
 4646TIP3   OH213901   2.375   3.707   4.588  0.2738 -0.1934 -0.0073
 4646TIP3    H113902   2.290   3.670   4.563 -0.6041  0.5587  1.7122
 4646TIP3    H213903   2.413   3.739   4.506 -2.2236  1.7188 -0.5206
 4647TIP3   OH213904   4.398   2.383   4.808  0.2155  0.7512 -0.1337
 4647TIP3    H113905   4.410   2.303   4.859  0.4331  0.5465 -0.5016
 4647TIP3    H213906   4.362   2.446   4.870 -1.9034 -0.2194 -0.2948
 4648TIP3   OH213907   4.322   6.573   5.612 -0.4539  0.2159  0.2186
 4648TIP3    H113908   4.309   6.525   5.531  1.4239 -1.6585  0.9309
 4648TIP3    H213909   4.234   6.580   5.651 -1.3968  1.2479 -1.9530
 4649TIP3   OH213910   2.263   4.170   2.220  0.2443  0.3534 -0.1817
 4649TIP3    H113911   2.194   4.211   2.168 -0.0610  1.0157  0.7232
 4649TIP3    H213912   2.259   4.215   2.305  1.0490 -0.3721  0.2528
 4650TIP3   OH213913   6.851   3.911   0.914  0.2585 -0.1151  0.2159
 4650TIP3    H113914   6.773   3.867   0.880  0.8969 -1.0098 -0.1108
 4650TIP3    H213915   6.863   3.987   0.857  1.4009 -1.6692 -1.7218
 4651TIP3   OH213916   4.452   1.530   1.239 -0.0344 -0.4503 -0.8984
 4651TIP3    H113917   4.543   1.547   1.262 -0.3212  0.4810 -0.3783
 4651TIP3    H213918   4.427   1.454   1.292 -0.0915  0.4385  0.4021
 4652TIP3   OH213919   3.486   1.012   5.528  0.0169 -0.1541  0.0499
 4652TIP3    H113920   3.520   1.094   5.563 -2.3181  0.1728  1.7397
 4652TIP3    H213921   3.472   0.956   5.604 -0.2741 -1.4195 -0.8877
 4653TIP3   OH213922   0.276   4.296   3.450 -1.0380 -0.0149 -0.2920
 4653TIP3    H113923   0.281   4.246   3.368  1.5288 -1.5647  0.7153
 4653TIP3    H213924   0.227   4.240   3.510  1.5151 -1.2639  0.7242
 4654TIP3   OH213925   3.554   2.948   4.498 -0.5926 -0.0940 -0.7313
 4654TIP3    H113926   3.468   2.915   4.521 -0.7145  1.1870  0.8276
 4654TIP3    H213927   3.606   2.870   4.481 -1.2692 -1.0517  1.3078
 4655TIP3   OH213928   3.794   0.028   0.433 -0.0520  0.6093  0.5168
 4655TIP3    H113929   3.761   0.005   0.520 -1.7828  0.1214 -0.2216
 4655TIP3    H213930   3.860   0.095   0.449  0.6770 -0.4975  2.2893
 4656TIP3   OH213931   4.053   3.959   1.517 -0.1504  0.1650  0.8786
 4656TIP3    H113932   4.030   3.931   1.606 -0.1815  0.9515  1.1202
 4656TIP3    H213933   3.969   3.970   1.473 -0.1254 -1.1531  0.4417
 4657TIP3   OH213934   2.829   5.845   3.159 -0.0095 -0.0719  0.4252
 4657TIP3    H113935   2.846   5.883   3.245  0.1551  1.1898 -0.1337
 4657TIP3    H213936   2.915   5.844   3.116 -0.0666 -0.8258  0.3223
 4658TIP3   OH213937   1.228   5.320   2.332 -0.0487  0.2321 -0.3660
 4658TIP3    H113938   1.170   5.248   2.309 -1.1446  0.7053  0.8606
 4658TIP3    H213939   1.218   5.331   2.426  1.9018  0.4523 -0.1389
 4659TIP3   OH213940   1.409   2.566   1.313  0.4366  0.3504  0.3998
 4659TIP3    H113941   1.456   2.491   1.278  1.1469  0.9521  0.0196
 4659TIP3    H213942   1.332   2.576   1.257  0.4877  0.0755  0.2839
 4660TIP3   OH213943   7.085   3.047   5.333 -0.4257  0.1905  0.1616
 4660TIP3    H113944   7.178   3.048   5.354 -0.5424  1.0776  0.6792
 4660TIP3    H213945   7.047   2.986   5.396 -0.6808  2.3592  2.2234
 4661TIP3   OH213946   4.007   5.348   2.653 -0.0806  0.0932 -0.2623
 4661TIP3    H113947   4.101   5.334   2.654 -0.0153  0.4629 -0.7657
 4661TIP3    H213948   3.978   5.311   2.570 -0.4463 -0.3980  0.0737
 4662TIP3   OH213949   1.582   1.909   4.032 -0.2806 -0.4201  0.2618
 4662TIP3    H113950   1.488   1.912   4.052 -0.3531 -1.0474  0.0335
 4662TIP3    H213951   1.617   1.988   4.072 -1.0099  0.1232 -0.1546
 4663TIP3   OH213952   0.222   3.243   0.863  0.1490 -0.1891  0.1609
 4663TIP3    H113953   0.226   3.201   0.949  0.3265  0.6381  0.5659
 4663TIP3    H213954   0.313   3.268   0.844  0.0733 -0.1507 -0.1622
 4664TIP3   OH213955   5.156   1.333   1.224  0.7343  0.2902  0.7773
 4664TIP3    H113956   5.100   1.257   1.213 -0.4429  1.0731  1.1716
 4664TIP3    H213957   5.211   1.312   1.299  0.6469 -0.2982  0.6780
 4665TIP3   OH213958   4.859   5.489   4.868 -0.2496 -0.1191 -0.6759
 4665TIP3    H113959   4.887   5.403   4.899  1.0057  0.2173 -0.8435
 4665TIP3    H213960   4.935   5.525   4.824 -0.5796  1.3044 -0.1408
 4666TIP3   OH213961   4.904   3.197   3.948  0.3094  0.1034 -0.0318
 4666TIP3    H113962   4.815   3.221   3.920  0.7026  1.7614  0.0234
 4666TIP3    H213963   4.938   3.276   3.989  1.8478 -0.4874 -0.1015
 4667TIP3   OH213964   1.553   2.731   3.030  0.2229  0.4933 -0.2309
 4667TIP3    H113965   1.483   2.771   2.979  0.2818 -0.5960 -1.1963
 4667TIP3    H213966   1.533   2.755   3.121 -0.6778  1.2616 -0.6194
 4668TIP3   OH213967   3.068   5.261   2.674 -0.1636  0.1301  0.0357
 4668TIP3    H113968   3.133   5.326   2.700  0.1130 -0.5453  1.0990
 4668TIP3    H213969   3.043   5.218   2.756 -0.1444 -1.2770 -0.6648
 4669TIP3   OH213970   4.522   5.438   4.348  0.1295  0.0447  0.8887
 4669TIP3    H113971   4.580   5.409   4.418 -0.6724 -1.0199  1.1311
 4669TIP3    H213972   4.436   5.404   4.372 -0.0801 -0.7502 -0.8075
 4670TIP3   OH213973   6.274   5.176   2.049 -0.1293 -0.1017  0.0905
 4670TIP3    H113974   6.193   5.151   2.004  0.0091 -0.8179  0.2206
 4670TIP3    H213975   6.248   5.187   2.140 -0.6392  2.4402 -0.2810
 4671TIP3   OH213976   6.442   2.635   4.956  0.6383 -0.1101  0.2643
 4671TIP3    H113977   6.392   2.599   5.029  0.8352 -1.1406 -0.1006
 4671TIP3    H213978   6.493   2.561   4.922  2.8902  1.0118  0.9952
 4672TIP3   OH213979   1.487   5.165   0.598  0.0563 -0.1515  0.3732
 4672TIP3    H113980   1.395   5.170   0.572 -0.1489 -3.2188  0.0678
 4672TIP3    H213981   1.535   5.182   0.517 -0.2155  1.1578  0.4654
 4673TIP3   OH213982   1.778   2.718   0.559 -0.0853 -0.1745 -0.2214
 4673TIP3    H113983   1.742   2.761   0.637 -1.1959 -0.5415 -0.5074
 4673TIP3    H213984   1.842   2.656   0.593  0.5010  0.6971  0.2964
 4674TIP3   OH213985   5.566   0.530   2.219  0.4445  0.0582 -0.0157
 4674TIP3    H113986   5.602   0.581   2.292 -0.1916 -0.1757  0.4740
 4674TIP3    H213987   5.575   0.588   2.143 -0.0190  0.8060  0.4810
 4675TIP3   OH213988   2.035   3.798   3.755 -0.1667  0.8365 -0.2348
 4675TIP3    H113989   2.111   3.747   3.729 -1.3288 -0.4136 -1.3707
 4675TIP3    H213990   1.976   3.794   3.679 -1.0703  2.3806  0.3179
 4676TIP3   OH213991   0.053   5.618   5.197  0.1453  0.7865 -0.0987
 4676TIP3    H113992   0.055   5.640   5.290 -0.6898 -0.4032  0.2225
 4676TIP3    H213993  -0.027   5.567   5.186  1.5275 -1.3703 -0.9153
 4677TIP3   OH213994   5.319   6.509   1.390 -0.3487  0.1899  0.1430
 4677TIP3    H113995   5.238   6.546   1.357 -0.9605 -1.0733  0.1761
 4677TIP3    H213996   5.367   6.584   1.426 -1.9153  0.8297  1.0066
 4678TIP3   OH213997   4.269   5.403   4.940  0.0088  0.1757  0.1285
 4678TIP3    H113998   4.254   5.351   4.861 -2.0827  1.6849 -0.5420
 4678TIP3    H213999   4.182   5.415   4.978  0.5133  2.3883  0.7392
 4679TIP3   OH214000   6.742   5.452   2.034 -0.3833  0.2447 -0.4832
 4679TIP3    H114001   6.659   5.464   2.081 -0.7211  0.8243 -1.2073
 4679TIP3    H214002   6.798   5.522   2.067  0.6192 -1.4670  1.6596
 4680TIP3   OH214003   2.249   0.583   5.711 -0.4105 -0.1270 -0.2164
 4680TIP3    H114004   2.336   0.622   5.712  0.0104 -1.0154 -0.7214
 4680TIP3    H214005   2.222   0.580   5.803  0.0571  0.2201 -0.0673
 4681TIP3   OH214006   3.701   2.730   4.370 -0.1517 -0.2012 -0.1312
 4681TIP3    H114007   3.756   2.653   4.384  0.4049  0.3405  0.7477
 4681TIP3    H214008   3.643   2.705   4.298  0.8177 -1.0081 -0.6561
 4682TIP3   OH214009   2.673   1.360   0.152  0.1710 -0.2552  0.1825
 4682TIP3    H114010   2.600   1.319   0.104  1.1859 -0.8784 -0.8731
 4682TIP3    H214011   2.735   1.288   0.166  1.0411  0.4838  0.1631
 4683TIP3   OH214012   6.334   1.954   0.489  0.4248 -0.0096 -0.5392
 4683TIP3    H114013   6.305   2.022   0.429 -2.2793 -0.1586  0.4817
 4683TIP3    H214014   6.310   1.872   0.446  0.5215 -0.2038 -0.2315
 4684TIP3   OH214015   6.989   1.935   4.350  0.0976  0.0831 -0.0337
 4684TIP3    H114016   6.976   1.954   4.443  0.2126 -0.7972  0.1731
 4684TIP3    H214017   6.902   1.911   4.318 -0.2942  2.1198 -0.5935
 4685TIP3   OH214018   1.799   2.360   3.607  0.1651 -0.0256  0.1148
 4685TIP3    H114019   1.848   2.440   3.588  1.2392 -1.0306 -1.5841
 4685TIP3    H214020   1.796   2.356   3.703  1.2059  1.3788  0.2357
 4686TIP3   OH214021   6.347   4.890   1.787  0.2177 -0.5533 -0.6082
 4686TIP3    H114022   6.273   4.925   1.737 -0.1506  1.9919  1.4840
 4686TIP3    H214023   6.400   4.967   1.807  1.3790 -1.7537  1.1808
 4687TIP3   OH214024   1.263   2.168   5.102  0.1596  0.5332 -0.4410
 4687TIP3    H114025   1.245   2.076   5.122  0.1167  0.4862 -0.7004
 4687TIP3    H214026   1.337   2.190   5.159 -0.4698  0.6261  0.3650
 4688TIP3   OH214027   3.749   3.603   3.003  0.3592 -0.2323  0.7721
 4688TIP3    H114028   3.682   3.557   2.952 -0.9019 -0.2383  2.3575
 4688TIP3    H214029   3.819   3.621   2.940 -1.2322  0.0106 -1.0188
 4689TIP3   OH214030   2.168   1.025   1.275 -0.4377 -0.3135 -0.1063
 4689TIP3    H114031   2.179   1.114   1.309 -1.1083 -0.5446  0.7503
 4689TIP3    H214032   2.241   1.013   1.214  0.9397  0.0465  1.4210
 4690TIP3   OH214033   2.084   4.429   2.368 -0.2368  0.0142  0.5711
 4690TIP3    H114034   2.062   4.432   2.275  1.9826  1.5463  0.0082
 4690TIP3    H214035   2.027   4.495   2.408  0.7733  1.4494 -0.2494
 4691TIP3   OH214036   3.371   0.449   3.510 -0.4751  0.2201 -0.1427
 4691TIP3    H114037   3.445   0.390   3.526  0.2781  1.4654  1.2872
 4691TIP3    H214038   3.398   0.502   3.436  0.9733  1.9275  1.4910
 4692TIP3   OH214039   4.366   4.514   1.316  0.9404 -0.5607 -0.3866
 4692TIP3    H114040   4.291   4.457   1.295  0.4976  0.0170 -0.4045
 4692TIP3    H214041   4.427   4.500   1.244  0.3003 -0.0968 -1.0313
 4693TIP3   OH214042   1.174   4.861   0.756  0.7522  0.0015 -0.8326
 4693TIP3    H114043   1.195   4.774   0.787  0.9277  0.6827  1.0559
 4693TIP3    H214044   1.239   4.879   0.688  2.3188 -0.3763  0.5067
 4694TIP3   OH214045   0.032   5.915   3.035  0.3035  0.1313  0.2333
 4694TIP3    H114046   0.117   5.879   3.012  0.9473  1.5667  0.3105
 4694TIP3    H214047   0.045   6.010   3.038 -1.8380  0.6287 -2.1442
 4695TIP3   OH214048   4.037   0.553   2.892 -0.0328  0.1326 -0.4274
 4695TIP3    H114049   4.018   0.641   2.923  1.7580  0.7311 -0.9106
 4695TIP3    H214050   4.054   0.563   2.798  2.1382 -0.3458 -0.1390
 4696TIP3   OH214051   5.693   2.608   3.025 -0.3183  0.6224  0.1925
 4696TIP3    H114052   5.775   2.579   3.065 -0.3713  0.2664  0.0528
 4696TIP3    H214053   5.626   2.552   3.064 -0.1755 -0.9097 -1.5681
 4697TIP3   OH214054   2.717   3.224   3.944 -0.0622  0.2840  0.4860
 4697TIP3    H114055   2.635   3.257   3.982  0.6388  0.3418  1.9968
 4697TIP3    H214056   2.738   3.146   3.995  0.4513 -0.1561 -0.3804
 4698TIP3   OH214057   3.010   2.725   0.926  0.1852  0.0611  0.0147
 4698TIP3    H114058   2.935   2.780   0.901  0.6896  1.9173  2.2645
 4698TIP3    H214059   2.970   2.650   0.970 -0.4204 -0.3451 -1.1710
 4699TIP3   OH214060   4.348   3.607   2.203  0.2360  0.6568 -0.2175
 4699TIP3    H114061   4.312   3.686   2.165  1.5805  0.4664 -2.0024
 4699TIP3    H214062   4.424   3.637   2.254  0.3754  0.5970 -0.3868
 4700TIP3   OH214063   6.535   3.696   2.132 -0.2974  0.1735 -0.0209
 4700TIP3    H114064   6.561   3.650   2.052  1.4796  1.3802 -0.1990
 4700TIP3    H214065   6.563   3.787   2.117  1.6431  0.1112  2.5887
 4701TIP3   OH214066   5.951   3.383   5.294  0.4173 -0.0502  0.8534
 4701TIP3    H114067   5.909   3.333   5.223 -1.3093 -0.1300  1.8520
 4701TIP3    H214068   5.908   3.350   5.374  1.9162  0.4201  1.8937
 4702TIP3   OH214069   1.651   2.520   4.145  0.9788  0.0936 -0.7474
 4702TIP3    H114070   1.582   2.572   4.186 -0.0452  0.9142 -3.2983
 4702TIP3    H214071   1.641   2.433   4.182 -2.4657 -0.2019 -2.0279
 4703TIP3   OH214072   6.975   0.588   2.483  0.3395  0.1031 -0.1042
 4703TIP3    H114073   6.986   0.624   2.571 -0.6105 -1.5449  0.7424
 4703TIP3    H214074   6.889   0.545   2.485  0.0212  0.5115 -2.0369
 4704TIP3   OH214075   2.010   1.061   1.015  0.7428 -0.8568  0.1709
 4704TIP3    H114076   2.057   1.135   1.052  0.6736 -1.1452  0.8416
 4704TIP3    H214077   2.013   1.075   0.920  0.1711  0.3500  0.3178
 4705TIP3   OH214078   6.237   2.515   0.748  0.5114  0.1808  0.4180
 4705TIP3    H114079   6.145   2.537   0.752  0.8321  1.3103  2.6909
 4705TIP3    H214080   6.274   2.578   0.686 -0.0799  0.2899  0.1675
 4706TIP3   OH214081   3.041   0.084   5.350 -0.1506 -0.1928 -0.7293
 4706TIP3    H114082   3.064   0.045   5.434  0.6321  3.4691  0.9790
 4706TIP3    H214083   2.959   0.131   5.367  0.8781  1.9970 -1.4208
 4707TIP3   OH214084   4.207   1.559   3.831  0.1405 -0.2461  0.4503
 4707TIP3    H114085   4.209   1.637   3.886 -1.9858 -0.0365  0.3266
 4707TIP3    H214086   4.126   1.567   3.781 -0.4374 -2.7744  0.8366
 4708TIP3   OH214087   5.297   5.136   0.673  0.2257 -0.1057 -0.0611
 4708TIP3    H114088   5.332   5.216   0.712  1.6388 -1.7639  2.3600
 4708TIP3    H214089   5.316   5.144   0.580  2.5305  1.3355  0.4596
 4709TIP3   OH214090   1.886   2.286   2.316  0.5209  0.4659 -0.2105
 4709TIP3    H114091   1.873   2.377   2.289  1.8407  1.0072  0.9089
 4709TIP3    H214092   1.929   2.291   2.401 -0.8533 -1.2179  0.6450
 4710TIP3   OH214093   0.055   3.747   2.190  0.0700 -0.2400 -0.0842
 4710TIP3    H114094   0.104   3.803   2.131 -1.0277  1.2190  0.3207
 4710TIP3    H214095   0.115   3.675   2.211  0.7071 -0.4875 -2.4402
 4711TIP3   OH214096   4.520   0.502   5.747 -0.0027 -0.8616  0.6171
 4711TIP3    H114097   4.504   0.408   5.753 -0.5880 -0.7647  0.6098
 4711TIP3    H214098   4.613   0.511   5.768 -0.3675 -1.2476  2.5972
 4712TIP3   OH214099   6.388   2.115   0.780  0.0303 -0.3125 -0.2960
 4712TIP3    H114100   6.416   2.188   0.723 -2.3323 -1.3340 -3.0221
 4712TIP3    H214101   6.330   2.156   0.844  1.3693  0.6170  0.3843
 4713TIP3   OH214102   5.371   2.877   3.049  0.9950 -0.5018 -0.6257
 4713TIP3    H114103   5.403   2.801   3.097 -1.0874  0.3286  2.3579
 4713TIP3    H214104   5.369   2.947   3.114  0.3248  1.4053 -2.5875
 4714TIP3   OH214105   4.486   4.083   2.452 -0.7377  0.4013 -0.0704
 4714TIP3    H114106   4.550   4.153   2.442  0.6125 -0.9792 -1.4382
 4714TIP3    H214107   4.427   4.114   2.522  1.6274  1.5419  1.5300
 4715TIP3   OH214108   0.498   3.507   3.899  0.3752  0.0221 -0.5713
 4715TIP3    H114109   0.498   3.499   3.994  1.6752  0.8089 -0.4679
 4715TIP3    H214110   0.411   3.479   3.872 -1.0914  2.5539  1.1177
 4716TIP3   OH214111   5.915   1.096   5.069 -0.3891 -0.0002 -0.7505
 4716TIP3    H114112   5.886   1.007   5.088 -0.2678  0.1163  0.0193
 4716TIP3    H214113   6.010   1.091   5.070 -0.3691  0.3428  0.3713
 4717TIP3   OH214114   3.184   1.968   0.824 -0.3068  0.0856  0.4349
 4717TIP3    H114115   3.203   2.045   0.770 -0.8240 -0.4627 -0.5443
 4717TIP3    H214116   3.092   1.977   0.847 -0.2551 -0.0210  0.6925
 4718TIP3   OH214117   1.973   6.713   1.694 -0.3256 -0.2328 -0.2175
 4718TIP3    H114118   1.911   6.678   1.758  0.3848 -0.4722  0.3573
 4718TIP3    H214119   2.006   6.793   1.735 -1.5393  0.8699 -1.2874
 4719TIP3   OH214120   0.909   6.258   3.821 -0.1851  0.8817  0.4143
 4719TIP3    H114121   0.934   6.167   3.810  2.9447  1.5018  1.2920
 4719TIP3    H214122   0.938   6.280   3.910 -0.0702  2.9102 -0.0589
 4720TIP3   OH214123   0.960   1.001   3.916  0.1399  0.1345 -0.9547
 4720TIP3    H114124   0.922   0.956   3.991  0.1677 -0.9895 -1.5886
 4720TIP3    H214125   1.019   1.066   3.954  0.9454 -1.0976  0.0190
 4721TIP3   OH214126   5.019   6.193   2.065  0.2560  0.3762 -0.1425
 4721TIP3    H114127   4.994   6.101   2.071 -0.6013  0.6328  0.3594
 4721TIP3    H214128   5.032   6.221   2.155  1.4348  0.5162 -0.3380
 4722TIP3   OH214129   7.087   6.173   2.535  0.4252 -0.1091 -0.3916
 4722TIP3    H114130   7.122   6.262   2.535 -0.7118  0.4556  2.2452
 4722TIP3    H214131   7.050   6.161   2.448  2.1056  1.3429 -1.3568
 4723TIP3   OH214132   5.137   4.013   0.831  0.0426 -0.2175  0.2025
 4723TIP3    H114133   5.172   3.933   0.792  1.3945  0.4931 -0.0917
 4723TIP3    H214134   5.046   4.017   0.802 -0.1333 -1.7983  0.4769
 4724TIP3   OH214135   7.069   5.829   5.487  0.1380 -0.4256  0.1345
 4724TIP3    H114136   7.000   5.766   5.509  0.7698 -1.2205 -0.1400
 4724TIP3    H214137   7.148   5.776   5.478  0.2919  0.1094 -2.1734
 4725TIP3   OH214138   0.243   0.083   1.991 -0.5454 -0.4219  0.3248
 4725TIP3    H114139   0.296   0.044   1.922 -0.0887  0.7206  0.0065
 4725TIP3    H214140   0.291   0.066   2.071  1.9412  2.9996 -0.1877
 4726TIP3   OH214141   1.587   0.146   4.216 -0.1478  0.4698  0.2387
 4726TIP3    H114142   1.527   0.132   4.142  0.6091 -4.1298  0.1874
 4726TIP3    H214143   1.538   0.115   4.292  1.1090 -0.6573  0.6208
 4727TIP3   OH214144   1.151   3.878   5.434  0.7399  0.1884  0.0360
 4727TIP3    H114145   1.230   3.842   5.475  1.5530  1.2603 -0.5338
 4727TIP3    H214146   1.183   3.918   5.353 -0.4734  0.2093 -0.4479
 4728TIP3   OH214147   2.165   1.096   4.405 -0.5536 -0.1786 -0.4575
 4728TIP3    H114148   2.210   1.039   4.468 -3.0268 -2.6055 -0.7054
 4728TIP3    H214149   2.138   1.172   4.456  0.5349 -0.4160  0.5265
 4729TIP3   OH214150   2.925   1.282   2.996 -0.5682  0.0553 -0.0782
 4729TIP3    H114151   2.888   1.346   2.936 -1.7388 -1.4573 -1.0660
 4729TIP3    H214152   3.015   1.272   2.967 -0.7604  0.2777 -0.7777
 4730TIP3   OH214153   1.609   5.478   5.870  0.4718 -0.1136  0.2505
 4730TIP3    H114154   1.678   5.511   5.813 -0.8691  0.8373 -0.9171
 4730TIP3    H214155   1.645   5.399   5.910  1.7159 -0.4342 -1.4106
 4731TIP3   OH214156   1.310   5.359   1.640  0.0824 -0.5615  0.1299
 4731TIP3    H114157   1.378   5.377   1.705 -1.7139  0.4261  1.8982
 4731TIP3    H214158   1.332   5.415   1.566  0.9432  0.1048  0.8564
 4732TIP3   OH214159   6.966   1.231   2.372 -0.3916 -0.2015  0.1053
 4732TIP3    H114160   6.976   1.136   2.361 -2.8000 -0.5222  0.1981
 4732TIP3    H214161   6.934   1.241   2.461 -2.5499  0.4513 -0.6923
 4733TIP3   OH214162   0.989   2.840   4.744 -0.3432 -0.4387 -0.0102
 4733TIP3    H114163   0.910   2.827   4.692 -0.6450  0.0870  0.3050
 4733TIP3    H214164   1.031   2.917   4.705  0.3371 -1.0833 -0.5627
 4734TIP3   OH214165   5.387   5.922   4.887  0.3389 -0.0052  0.6810
 4734TIP3    H114166   5.297   5.954   4.884  0.0849 -0.7353  0.1653
 4734TIP3    H214167   5.440   6.000   4.900 -0.0918  0.9133 -2.2931
 4735TIP3   OH214168   3.150   0.979   2.252  0.5382 -0.1441 -0.1366
 4735TIP3    H114169   3.116   1.048   2.195 -0.9494  0.0183  0.8833
 4735TIP3    H214170   3.240   1.005   2.270  0.0565  1.4733  0.1289
 4736TIP3   OH214171   2.758   1.636   4.218  0.0974  0.0664 -0.2835
 4736TIP3    H114172   2.744   1.726   4.248  0.5097  0.1258 -0.2633
 4736TIP3    H214173   2.682   1.617   4.164 -1.0413 -0.3007  1.3826
 4737TIP3   OH214174   6.489   3.715   3.613 -0.0376  0.2484  0.0844
 4737TIP3    H114175   6.498   3.792   3.669  0.4168  0.5189 -0.3464
 4737TIP3    H214176   6.570   3.666   3.626 -0.2268 -0.0388  0.1841
 4738TIP3   OH214177   1.144   1.559   0.773  0.7096 -0.1428 -0.2092
 4738TIP3    H114178   1.187   1.592   0.694 -1.5524 -0.1152 -1.5070
 4738TIP3    H214179   1.051   1.559   0.751  0.1485 -1.7082  1.8959
 4739TIP3   OH214180   2.557   5.302   2.127  0.0549 -0.5304 -0.0639
 4739TIP3    H114181   2.547   5.211   2.153 -0.1866 -0.3119  0.6431
 4739TIP3    H214182   2.477   5.345   2.156 -0.1063 -0.2073 -0.9490
 4740TIP3   OH214183   0.792   0.390   2.064  0.2400 -0.3725  0.3743
 4740TIP3    H114184   0.808   0.399   2.158  1.5511 -2.6852  0.4457
 4740TIP3    H214185   0.718   0.329   2.058 -0.4063  0.4258 -0.1389
 4741TIP3   OH214186   5.563   1.137   5.899  0.0590  0.1567  0.1453
 4741TIP3    H114187   5.608   1.179   5.826 -2.4299  0.2833 -1.4654
 4741TIP3    H214188   5.599   1.049   5.903  0.1564  0.1115 -1.3518
 4742TIP3   OH214189   3.825   6.337   0.592 -0.7805 -0.3864  0.7917
 4742TIP3    H114190   3.768   6.290   0.532  1.3249 -0.1417 -1.5973
 4742TIP3    H214191   3.874   6.268   0.638 -0.8581 -0.5815  0.5852
 4743TIP3   OH214192   1.291   2.813   4.177 -0.4228 -0.1312  0.2871
 4743TIP3    H114193   1.278   2.850   4.090 -3.3579  1.8121  1.3987
 4743TIP3    H214194   1.385   2.796   4.182  0.1539  1.5607 -2.5269
 4744TIP3   OH214195   3.456   5.552   5.244 -0.1930 -0.2654 -0.0962
 4744TIP3    H114196   3.426   5.577   5.331  0.3944  0.7766 -0.1751
 4744TIP3    H214197   3.548   5.530   5.255 -0.6894 -2.5827 -0.0246
 4745TIP3   OH214198   5.985   5.191   1.210 -0.1854  0.1669 -0.8358
 4745TIP3    H114199   6.074   5.158   1.198 -0.2218 -0.0443 -0.5313
 4745TIP3    H214200   5.997   5.283   1.232  0.1546 -0.4726  2.1748
 4746TIP3   OH214201   4.630   3.815   3.977 -0.1720  0.6124  0.0911
 4746TIP3    H114202   4.619   3.759   4.055  1.0395  0.4059  0.1290
 4746TIP3    H214203   4.556   3.876   3.982 -1.9357 -1.3664 -0.3061
 4747TIP3   OH214204   0.945   5.345   1.850 -0.2459  0.8151  0.4885
 4747TIP3    H114205   1.015   5.387   1.900 -0.7060  0.2689  1.6238
 4747TIP3    H214206   0.925   5.265   1.899 -1.3580  0.7364 -0.0598
 4748TIP3   OH214207   5.131   1.105   2.108 -0.5237 -0.4064 -0.3049
 4748TIP3    H114208   5.147   1.103   2.203 -0.6891 -0.3967 -0.2750
 4748TIP3    H214209   5.171   1.186   2.078 -0.4598 -0.4158 -0.2438
 4749TIP3   OH214210   6.115   5.188   5.164 -0.2548 -0.6007  0.4630
 4749TIP3    H114211   6.149   5.277   5.167  0.5304 -0.8885  0.3626
 4749TIP3    H214212   6.044   5.190   5.099  1.1688 -0.5176 -1.1406
 4750TIP3   OH214213   3.381   4.855   4.183  0.1459 -0.8808  0.0421
 4750TIP3    H114214   3.428   4.771   4.181 -0.5719 -1.3151  0.7560
 4750TIP3    H214215   3.330   4.851   4.264 -1.3638 -0.5483 -0.8691
 4751TIP3   OH214216   4.744   1.896   2.336  0.2639  1.0288 -0.3009
 4751TIP3    H114217   4.762   1.927   2.425  1.7179 -0.4673 -0.0212
 4751TIP3    H214218   4.826   1.854   2.308 -0.6998 -0.0323 -1.6887
 4752TIP3   OH214219   3.045   0.175   4.890  0.2622 -0.4646  0.3543
 4752TIP3    H114220   2.971   0.235   4.883  0.4799 -0.4269 -2.3675
 4752TIP3    H214221   3.005   0.088   4.887  0.2868 -0.4455 -1.2320
 4753TIP3   OH214222   1.831   4.589   0.821  0.4760  0.3912 -0.1760
 4753TIP3    H114223   1.857   4.648   0.892  2.0444 -0.8626  0.3457
 4753TIP3    H214224   1.850   4.502   0.854 -0.7787 -0.3733 -1.3462
 4754TIP3   OH214225   2.584   6.455   5.102  0.0937  0.2308 -0.4063
 4754TIP3    H114226   2.630   6.507   5.036  0.3319 -0.9385 -1.1947
 4754TIP3    H214227   2.647   6.388   5.128 -0.1571  0.4098  0.7009
 4755TIP3   OH214228   6.868   5.369   5.627  0.1098  1.1002  0.5118
 4755TIP3    H114229   6.861   5.296   5.565  1.9870 -0.8335  2.4125
 4755TIP3    H214230   6.816   5.342   5.702 -0.2440  2.3538  0.7422
 4756TIP3   OH214231   6.898   1.204   2.626  0.1125 -0.4637 -0.4727
 4756TIP3    H114232   6.988   1.205   2.658 -0.4136 -0.5853  1.1026
 4756TIP3    H214233   6.851   1.262   2.686 -1.3048 -2.1600  0.1153
 4757TIP3   OH214234   6.820   2.895   1.183 -0.3114 -0.3040 -0.4193
 4757TIP3    H114235   6.894   2.925   1.130 -0.4902 -2.1139 -1.7585
 4757TIP3    H214236   6.752   2.961   1.168  1.0646  1.6042  1.1406
 4758TIP3   OH214237   4.797   1.946   0.060 -0.3846  0.6376 -0.5079
 4758TIP3    H114238   4.751   1.862   0.060  0.7156  0.0200  0.1252
 4758TIP3    H214239   4.739   2.005   0.108 -0.1747 -0.3413  1.0117
 4759TIP3   OH214240   0.063   3.829   4.972  0.3456 -0.8267 -0.0616
 4759TIP3    H114241   0.109   3.912   4.958 -0.4090 -0.5544 -0.9790
 4759TIP3    H214242  -0.026   3.854   4.994 -0.3364 -1.4015 -2.0450
 4760TIP3   OH214243   0.919   4.380   4.763  0.3311  0.2957  0.4425
 4760TIP3    H114244   0.995   4.381   4.705  0.1899  1.4965  0.2481
 4760TIP3    H214245   0.954   4.359   4.849  0.6509 -0.7401  0.0671
 4761TIP3   OH214246   6.672   2.577   2.242 -0.3021 -0.1392  0.1500
 4761TIP3    H114247   6.660   2.664   2.202  1.1506  0.3027  0.6162
 4761TIP3    H214248   6.647   2.516   2.173 -0.3211  0.6368 -0.5523
 4762TIP3   OH214249   6.429   0.625   2.161 -0.0832  0.3060 -0.4040
 4762TIP3    H114250   6.461   0.558   2.101  1.3853  0.7810 -0.2065
 4762TIP3    H214251   6.408   0.578   2.241 -0.5201 -0.1181 -0.7648
 4763TIP3   OH214252   2.933   3.975   5.164  0.6434  0.1608 -0.3201
 4763TIP3    H114253   2.849   3.931   5.149  0.1978  0.2582  1.6722
 4763TIP3    H214254   2.988   3.946   5.091 -0.9635 -0.2521 -1.4280
 4764TIP3   OH214255   0.325   1.544   4.701 -0.6398  0.2910 -0.5872
 4764TIP3    H114256   0.233   1.570   4.707 -0.0812  2.9497 -1.9973
 4764TIP3    H214257   0.354   1.576   4.616  1.7018 -0.1348 -0.0185
 4765TIP3   OH214258   1.379   3.241   3.816  0.1969 -0.0191 -0.9356
 4765TIP3    H114259   1.366   3.335   3.800 -0.2558  0.3767  1.4657
 4765TIP3    H214260   1.312   3.199   3.762 -3.2492  1.4010  1.8355
 4766TIP3   OH214261   0.305   1.591   3.731  0.2335 -0.5207  0.1958
 4766TIP3    H114262   0.232   1.571   3.789  0.7879 -2.8735  0.2004
 4766TIP3    H214263   0.379   1.606   3.789 -0.0120  0.8774  0.1656
 4767TIP3   OH214264   0.743   0.491   0.591 -0.4427 -0.3776  0.5259
 4767TIP3    H114265   0.797   0.494   0.513 -1.4070 -0.7120 -0.1811
 4767TIP3    H214266   0.759   0.405   0.629 -1.1451 -0.8483 -0.1989
 4768TIP3   OH214267   4.467   3.733   0.980 -0.0589  0.3085 -0.0958
 4768TIP3    H114268   4.392   3.737   0.920 -1.0230  0.2944  1.0522
 4768TIP3    H214269   4.505   3.821   0.977  0.7868 -0.0847 -1.7678
 4769TIP3   OH214270   1.083   5.597   2.122 -0.4234  0.1061  0.4696
 4769TIP3    H114271   1.169   5.614   2.162  0.2551 -0.5115 -0.6512
 4769TIP3    H214272   1.088   5.505   2.094 -1.0283  0.3870 -0.6137
 4770TIP3   OH214273   6.846   6.667   4.026 -0.4353  0.0601 -0.2496
 4770TIP3    H114274   6.787   6.669   3.951 -1.6340 -0.2613  0.6514
 4770TIP3    H214275   6.846   6.576   4.054 -0.4354  0.2664  0.4490
 4771TIP3   OH214276   6.173   5.169   5.430 -0.0205 -0.0349 -0.0444
 4771TIP3    H114277   6.154   5.140   5.341 -1.0478 -3.3173  1.1251
 4771TIP3    H214278   6.265   5.146   5.443 -0.2904 -0.9847  0.2256
 4772TIP3   OH214279   1.510   3.961   4.572  0.1503  0.8273 -0.7667
 4772TIP3    H114280   1.553   4.042   4.597  1.4744  0.3751 -1.4763
 4772TIP3    H214281   1.575   3.893   4.589 -0.2742  0.1126 -1.8861
 4773TIP3   OH214282   4.780   6.009   4.357 -0.0229 -0.3158 -0.6034
 4773TIP3    H114283   4.859   6.057   4.331 -0.0132  0.1216  0.2257
 4773TIP3    H214284   4.776   6.018   4.452  0.8559 -3.2949 -0.1695
 4774TIP3   OH214285   0.619   2.661   0.235 -1.0824  0.0421  0.2866
 4774TIP3    H114286   0.670   2.648   0.155 -2.1770  0.5288 -0.5182
 4774TIP3    H214287   0.677   2.709   0.293 -0.2715 -0.3077 -0.2169
 4775TIP3   OH214288   6.647   1.445   1.221 -0.0843  0.2243  0.3171
 4775TIP3    H114289   6.634   1.359   1.180  0.0396 -0.4301  1.6122
 4775TIP3    H214290   6.558   1.479   1.232 -0.2100 -0.2398  0.8115
 4776TIP3   OH214291   1.260   1.526   2.908  0.1925 -0.3232  0.0935
 4776TIP3    H114292   1.199   1.454   2.927  1.5181 -1.4685  0.2216
 4776TIP3    H214293   1.299   1.502   2.823 -0.1624  0.8321 -0.4070
 4777TIP3   OH214294   6.536   5.735   0.494 -0.1180  0.2642 -0.6704
 4777TIP3    H114295   6.611   5.682   0.465 -0.2651 -0.2140 -0.1799
 4777TIP3    H214296   6.461   5.698   0.446 -0.2116  0.0608 -0.3681
 4778TIP3   OH214297   6.820   1.492   3.749 -0.2303  0.1878 -0.4874
 4778TIP3    H114298   6.882   1.546   3.799  0.5583 -1.6433  0.6218
 4778TIP3    H214299   6.837   1.403   3.779 -2.4869 -0.5345 -1.1947
 4779TIP3   OH214300   1.434   0.141   2.379 -0.0230 -0.4214  0.0004
 4779TIP3    H114301   1.498   0.161   2.310  2.1229 -1.4319  1.5916
 4779TIP3    H214302   1.392   0.225   2.397  1.4791  0.4953 -0.5391
 4780TIP3   OH214303   2.284   6.153   4.037  0.6242  0.3183 -0.0835
 4780TIP3    H114304   2.295   6.068   4.079  0.0293 -0.0563 -0.6618
 4780TIP3    H214305   2.195   6.180   4.062  1.4294  1.6123  1.5660
 4781TIP3   OH214306   4.088   5.856   3.768 -0.2320 -0.2565 -0.2177
 4781TIP3    H114307   4.030   5.833   3.695 -0.6793  0.9721 -0.2801
 4781TIP3    H214308   4.035   5.914   3.823  0.0709 -1.2264  1.1468
 4782TIP3   OH214309   4.408   2.089   0.435  0.0216 -0.5492 -0.2298
 4782TIP3    H114310   4.332   2.055   0.483  0.0349  0.6461  0.6729
 4782TIP3    H214311   4.484   2.051   0.480 -0.0060 -0.5219 -0.1598
 4783TIP3   OH214312   1.013   5.557   1.515 -0.4456  0.7033  0.5117
 4783TIP3    H114313   0.993   5.467   1.540 -0.5501  0.6674  0.2990
 4783TIP3    H214314   1.020   5.555   1.419 -1.5924  1.1467  0.4054
 4784TIP3   OH214315   1.056   1.915   4.731  0.0238 -0.6426 -0.6875
 4784TIP3    H114316   0.963   1.902   4.711 -0.0124 -1.4482 -0.0774
 4784TIP3    H214317   1.070   2.009   4.723 -1.4616 -0.1413  1.6628
 4785TIP3   OH214318   1.169   2.393   3.351  0.0826  0.0303 -0.7397
 4785TIP3    H114319   1.079   2.410   3.375 -0.3273  0.2016 -2.2734
 4785TIP3    H214320   1.180   2.298   3.361 -0.4501 -0.0718 -1.1181
 4786TIP3   OH214321   6.509   0.761   4.313 -0.1885 -0.1626 -0.0246
 4786TIP3    H114322   6.566   0.836   4.331  0.6478 -1.1470  1.7565
 4786TIP3    H214323   6.525   0.701   4.386 -2.0160 -1.3856 -0.5571
 4787TIP3   OH214324   5.640   5.936   2.130  0.7628  0.0842  0.3631
 4787TIP3    H114325   5.697   6.004   2.167  0.3719  1.4488 -1.4224
 4787TIP3    H214326   5.690   5.899   2.058  0.8594 -1.3872  1.1454
 4788TIP3   OH214327   6.704   2.003   4.530  0.0836 -0.0462 -0.3571
 4788TIP3    H114328   6.618   1.968   4.551 -0.1543  1.1641  0.7911
 4788TIP3    H214329   6.728   1.959   4.448 -0.5151 -2.2657  0.5928
 4789TIP3   OH214330   2.913   6.040   0.252 -0.0032  0.2970 -0.5730
 4789TIP3    H114331   2.862   6.095   0.192 -1.2794 -0.1735  0.0409
 4789TIP3    H214332   2.847   5.989   0.299  0.8257  1.5863  2.1934
 4790TIP3   OH214333   0.623   0.756   2.607 -0.0096  0.1422 -0.1566
 4790TIP3    H114334   0.675   0.676   2.615  0.8009  0.5560 -0.9733
 4790TIP3    H214335   0.620   0.773   2.512 -0.9624  0.5681 -0.0594
 4791TIP3   OH214336   1.224   2.115   3.423 -0.1263 -0.0462  0.4887
 4791TIP3    H114337   1.152   2.138   3.482  0.6686  0.8457  1.1250
 4791TIP3    H214338   1.286   2.068   3.478  0.1945 -0.0326  0.1392
 4792TIP3   OH214339   5.505   4.288   5.240 -0.0945 -0.5257  0.2523
 4792TIP3    H114340   5.564   4.220   5.209 -2.4243 -0.9940 -3.9295
 4792TIP3    H214341   5.451   4.244   5.305  1.7973 -1.0574  1.5464
 4793TIP3   OH214342   6.882   4.774   0.511 -0.4618 -0.5739  0.2004
 4793TIP3    H114343   6.833   4.803   0.434 -0.8935  0.6810  0.9273
 4793TIP3    H214344   6.969   4.812   0.499 -0.7070  0.1248  0.6235
 4794TIP3   OH214345   3.285   2.418   4.164  0.2207  0.0718 -0.1096
 4794TIP3    H114346   3.190   2.423   4.169  0.0282 -1.1015 -1.6541
 4794TIP3    H214347   3.304   2.419   4.070  1.8171  1.3298  0.1938
 4795TIP3   OH214348   7.110   1.455   5.008  0.8907 -0.0356  0.0628
 4795TIP3    H114349   7.186   1.421   4.960  0.7886  0.2716 -0.3235
 4795TIP3    H214350   7.039   1.456   4.943  1.1424  1.8543 -0.2390
 4796TIP3   OH214351   1.816   1.059   2.889  0.6561  0.2559 -0.2340
 4796TIP3    H114352   1.802   0.966   2.906  2.4237  0.1317  0.7275
 4796TIP3    H214353   1.733   1.101   2.912 -1.0365 -1.2948 -3.0006
 4797TIP3   OH214354   3.225   2.662   2.509 -0.1290  0.1953  0.3885
 4797TIP3    H114355   3.308   2.700   2.536 -0.1614  0.3035  0.3358
 4797TIP3    H214356   3.206   2.702   2.424 -0.5222  0.6078  0.6663
 4798TIP3   OH214357   4.838   0.774   4.795  0.1338  0.4347  0.8744
 4798TIP3    H114358   4.868   0.799   4.707  1.5948  2.5289  1.8786
 4798TIP3    H214359   4.913   0.791   4.851 -1.0406 -0.0747  2.6852
 4799TIP3   OH214360   0.406   2.464   3.122 -0.0538 -0.7646 -0.3889
 4799TIP3    H114361   0.438   2.395   3.181  0.9237 -0.8163 -0.9638
 4799TIP3    H214362   0.432   2.435   3.035 -0.2722 -0.0051 -0.7123
 4800TIP3   OH214363   0.485   3.248   1.664  0.6622 -0.3159 -0.4658
 4800TIP3    H114364   0.504   3.198   1.743 -0.2518  0.3008  0.1670
 4800TIP3    H214365   0.434   3.323   1.694  0.9212  0.3342 -1.5484
 4801TIP3   OH214366   7.079   6.405   0.920 -0.3808  0.6348 -0.3708
 4801TIP3    H114367   7.075   6.310   0.936 -1.3961  0.8413  0.7710
 4801TIP3    H214368   7.150   6.436   0.976 -1.5222  0.8360  1.0249
 4802TIP3   OH214369   5.004   5.464   1.810  0.0556 -0.0492 -0.6419
 4802TIP3    H114370   4.932   5.453   1.872 -0.1682 -0.9386 -1.0507
 4802TIP3    H214371   5.030   5.556   1.820 -0.5380  0.0416  0.1520
 4803TIP3   OH214372   4.368   6.196   0.053  0.7523 -0.5166 -0.4905
 4803TIP3    H114373   4.453   6.200   0.010  0.4525 -1.2923 -1.1755
 4803TIP3    H214374   4.387   6.210   0.146  1.3629  1.6908 -0.8950
 4804TIP3   OH214375   6.786   0.445   1.235  0.0735 -0.2428 -0.0172
 4804TIP3    H114376   6.797   0.508   1.306 -1.7533  0.1078  0.0011
 4804TIP3    H214377   6.855   0.468   1.172 -0.6414  1.9269 -0.0928
 4805TIP3   OH214378   6.134   3.621   3.341  0.1656 -0.1379  0.3404
 4805TIP3    H114379   6.047   3.660   3.326  0.7348  1.1384  0.2579
 4805TIP3    H214380   6.126   3.532   3.307 -1.3997 -0.3654  1.2157
 4806TIP3   OH214381   1.203   2.472   2.345 -0.4375 -0.7608 -0.5999
 4806TIP3    H114382   1.127   2.529   2.355  1.0616  1.2457 -0.0127
 4806TIP3    H214383   1.269   2.509   2.404  1.6844 -1.1598 -2.5852
 4807TIP3   OH214384   5.245   5.661   3.040  0.1279  0.2276  0.2668
 4807TIP3    H114385   5.209   5.750   3.044  0.9882  0.5275  3.4059
 4807TIP3    H214386   5.330   5.667   3.084  0.0402 -2.2188  0.9025
 4808TIP3   OH214387   0.343   0.371   5.542 -0.0470 -0.0721  0.3877
 4808TIP3    H114388   0.438   0.376   5.527 -0.0959  0.2749  0.1808
 4808TIP3    H214389   0.305   0.361   5.455 -0.2259  0.2310  0.4278
 4809TIP3   OH214390   3.432   6.106   1.762 -0.1337 -0.6647 -0.3256
 4809TIP3    H114391   3.402   6.028   1.714  0.7316 -0.8843 -0.5189
 4809TIP3    H214392   3.445   6.172   1.694 -2.9313  0.3824  0.0187
 4810TIP3   OH214393   1.426   1.614   4.185 -0.3175 -0.0592  0.3251
 4810TIP3    H114394   1.440   1.531   4.139  0.5233  0.3428 -0.1802
 4810TIP3    H214395   1.509   1.631   4.228 -0.3363  0.7353  0.0575
 4811TIP3   OH214396   1.691   2.791   4.483 -0.4042  0.2206  0.3814
 4811TIP3    H114397   1.737   2.812   4.565  1.1153 -0.7555 -0.1888
 4811TIP3    H214398   1.668   2.699   4.491 -1.2368  0.3944  0.1413
 4812TIP3   OH214399   1.849   5.241   5.472  0.2989 -0.2894 -0.1425
 4812TIP3    H114400   1.820   5.172   5.411  0.1489 -0.7473  0.4306
 4812TIP3    H214401   1.892   5.306   5.417 -1.5217  0.2578 -1.0033
 4813TIP3   OH214402   4.310   6.237   4.299  0.4480  0.4508 -0.4220
 4813TIP3    H114403   4.334   6.234   4.392  1.2012 -0.2490 -0.6269
 4813TIP3    H214404   4.394   6.251   4.254  0.1586  0.2054 -1.0336
 4814TIP3   OH214405   4.283   4.926   0.672 -0.5845 -0.2099  0.3238
 4814TIP3    H114406   4.212   4.978   0.710 -0.3928  0.0389  0.3496
 4814TIP3    H214407   4.259   4.917   0.580 -0.2856  0.5083  0.1687
 4815TIP3   OH214408   4.975   3.610   3.291  0.3841  0.6633 -0.5087
 4815TIP3    H114409   4.893   3.657   3.278  0.0299  0.0365 -0.5752
 4815TIP3    H214410   5.006   3.640   3.376 -0.5415  0.0071  0.0889
 4816TIP3   OH214411   5.236   4.472   0.021  0.4910 -0.0488  0.0074
 4816TIP3    H114412   5.222   4.542   0.086  0.5542  0.3699 -0.4199
 4816TIP3    H214413   5.255   4.394   0.073 -1.8217 -0.2937  0.5806
 4817TIP3   OH214414   5.939   2.385   1.961  0.0365 -0.2725  0.1192
 4817TIP3    H114415   6.022   2.347   1.988 -0.4579  0.7365  3.5061
 4817TIP3    H214416   5.874   2.342   2.016 -1.3016  1.0948 -0.3203
 4818TIP3   OH214417   4.597   3.778   5.170 -0.5763  0.4028  0.0893
 4818TIP3    H114418   4.518   3.822   5.202 -0.3260  0.6865  0.3312
 4818TIP3    H214419   4.566   3.697   5.131 -1.0628  0.8615 -0.4942
 4819TIP3   OH214420   1.021   4.701   3.744 -0.9636 -0.6690  0.1150
 4819TIP3    H114421   1.001   4.790   3.773  0.2808  0.4490 -2.1815
 4819TIP3    H214422   1.117   4.696   3.746 -0.9899 -1.7107 -0.4139
 4820TIP3   OH214423   4.939   3.802   0.932  1.1572  0.0233  0.2533
 4820TIP3    H114424   4.889   3.753   0.997  1.6057 -1.3807 -0.4091
 4820TIP3    H214425   4.950   3.889   0.970 -0.1172 -0.2184  1.2471
 4821TIP3   OH214426   6.875   4.519   1.295 -0.1366  0.1054  0.2704
 4821TIP3    H114427   6.787   4.556   1.304 -1.8010 -3.0523 -1.3739
 4821TIP3    H214428   6.920   4.580   1.236 -0.9386  2.0804  1.5821
 4822TIP3   OH214429   0.394   6.205   3.503  0.3524  0.3200  0.6259
 4822TIP3    H114430   0.381   6.296   3.476 -0.6290  0.7295  2.3441
 4822TIP3    H214431   0.417   6.159   3.422  0.4926  2.0135 -0.3413
 4823TIP3   OH214432   6.120   6.405   5.879  0.1819 -0.4853 -0.2278
 4823TIP3    H114433   6.188   6.426   5.815 -1.6584 -1.1029 -2.5576
 4823TIP3    H214434   6.150   6.324   5.921  0.5730 -1.1637 -1.7402
 4824TIP3   OH214435   1.344   1.961   4.347 -0.5913  0.3714  0.2965
 4824TIP3    H114436   1.285   1.896   4.384 -0.1259 -0.3390 -0.1840
 4824TIP3    H214437   1.324   1.962   4.254 -0.5022  0.8179  0.2814
 4825TIP3   OH214438   4.072   3.564   2.785 -0.1554  0.3853  0.6436
 4825TIP3    H114439   3.981   3.579   2.760 -0.4202  3.4113  2.8705
 4825TIP3    H214440   4.123   3.599   2.712 -0.6022 -2.3717 -1.1582
 4826TIP3   OH214441   0.960   6.509   1.677 -0.3695 -0.7495  0.2567
 4826TIP3    H114442   1.050   6.480   1.665 -0.5758 -0.6892 -1.8976
 4826TIP3    H214443   0.966   6.604   1.689 -0.1099 -0.8580  1.0509
 4827TIP3   OH214444   0.976   0.801   2.974  0.0089 -0.5376  0.1111
 4827TIP3    H114445   0.973   0.892   2.943  0.2530 -0.8380 -0.8360
 4827TIP3    H214446   0.967   0.749   2.895 -1.4480 -1.3641  0.7732
 4828TIP3   OH214447   1.726   5.371   4.464 -0.4364 -0.0384 -0.1092
 4828TIP3    H114448   1.770   5.398   4.384  0.1249 -1.0991 -0.1827
 4828TIP3    H214449   1.741   5.442   4.526  0.5594  0.0516 -0.4364
 4829TIP3   OH214450   3.554   3.658   2.360 -0.1780 -0.0455 -0.8895
 4829TIP3    H114451   3.471   3.664   2.406  1.1568 -1.0343  1.8246
 4829TIP3    H214452   3.564   3.743   2.317 -1.8977  0.6071 -0.0818
 4830TIP3   OH214453   7.165   1.244   3.300 -0.0529  0.1336  0.3339
 4830TIP3    H114454   7.212   1.275   3.222  0.1065  2.3750  1.2469
 4830TIP3    H214455   7.233   1.206   3.355 -0.2080 -1.7574 -0.6738
 4831TIP3   OH214456   3.574   6.636   5.110  0.2502  1.0421 -0.3044
 4831TIP3    H114457   3.542   6.622   5.021 -1.1060  0.5779  0.2361
 4831TIP3    H214458   3.512   6.696   5.149 -0.5393 -0.5930  1.0620
 4832TIP3   OH214459   0.486   4.428   4.125 -0.2875  0.0079 -0.4473
 4832TIP3    H114460   0.494   4.464   4.036 -0.9305  0.0305 -0.4998
 4832TIP3    H214461   0.433   4.349   4.114  0.1521 -0.3294 -0.1658
 4833TIP3   OH214462   5.227   5.287   3.645  0.6053  0.7688 -0.4407
 4833TIP3    H114463   5.241   5.382   3.644 -0.6738  0.9797 -1.3753
 4833TIP3    H214464   5.181   5.270   3.727 -0.3272  1.1706 -0.8643
 4834TIP3   OH214465   1.657   3.774   4.277 -0.1196  0.2006 -0.5755
 4834TIP3    H114466   1.730   3.781   4.339  0.8051 -0.8329 -1.4872
 4834TIP3    H214467   1.603   3.703   4.312 -0.6198  0.8718  0.0262
 4835TIP3   OH214468   0.053   5.414   4.053  0.8012  0.3261 -0.1391
 4835TIP3    H114469   0.072   5.419   4.147 -0.0094 -1.2527  0.1566
 4835TIP3    H214470   0.101   5.336   4.024  0.7408  0.5880 -0.9628
 4836TIP3   OH214471   5.791   6.158   5.059  0.3921  0.2695  0.5069
 4836TIP3    H114472   5.857   6.227   5.070 -0.6787  1.2385  1.1449
 4836TIP3    H214473   5.729   6.173   5.131 -1.1298  0.1177 -0.7269
 4837TIP3   OH214474   3.985   3.247   4.482 -0.1410 -0.3140  0.1691
 4837TIP3    H114475   3.901   3.202   4.470 -0.7057  0.6160  0.4550
 4837TIP3    H214476   4.006   3.282   4.396 -1.6240  2.0337  0.6454
 4838TIP3   OH214477   0.254   4.337   0.134 -0.0222  0.0825 -0.3005
 4838TIP3    H114478   0.291   4.397   0.198 -2.4832 -1.0095  2.3500
 4838TIP3    H214479   0.321   4.269   0.122  0.6923  0.5860  0.7293
 4839TIP3   OH214480   1.602   0.963   5.525  0.3013 -0.4852 -0.6365
 4839TIP3    H114481   1.648   1.016   5.460  1.4612 -0.0918  0.4680
 4839TIP3    H214482   1.666   0.948   5.593 -1.1489 -0.0730  0.8921
 4840TIP3   OH214483   3.671   2.922   2.138 -0.0581  0.1226 -0.0222
 4840TIP3    H114484   3.590   2.942   2.185 -0.6896 -0.3357 -0.8758
 4840TIP3    H214485   3.675   2.827   2.137  0.5972  0.1473  0.1826
 4841TIP3   OH214486   1.047   4.018   4.766 -0.2259 -0.0419  0.0028
 4841TIP3    H114487   0.951   4.014   4.765 -0.4071  1.1786  2.9157
 4841TIP3    H214488   1.075   3.928   4.781 -1.0897 -0.0349  1.9148
 4842TIP3   OH214489   5.280   5.425   0.838 -0.2093  0.0730 -0.3387
 4842TIP3    H114490   5.256   5.458   0.751  0.6244  0.6647 -0.3566
 4842TIP3    H214491   5.346   5.486   0.869 -1.4775  0.6941  1.3126
 4843TIP3   OH214492   5.061   1.720   0.167 -0.2134 -0.4136  0.1646
 4843TIP3    H114493   5.090   1.643   0.117 -0.4626  0.1903 -0.9371
 4843TIP3    H214494   5.030   1.781   0.101  1.4303  1.2884  0.8876
 4844TIP3   OH214495   1.645   0.173   3.588 -0.1261  0.1527 -0.0275
 4844TIP3    H114496   1.650   0.137   3.677  0.8901  0.0347 -0.1151
 4844TIP3    H214497   1.606   0.259   3.599 -0.7562 -0.1771  0.4290
 4845TIP3   OH214498   3.418   2.719   5.786 -0.0801  0.9392  0.0871
 4845TIP3    H114499   3.406   2.624   5.778  0.9087  0.6664  1.3366
 4845TIP3    H214500   3.463   2.744   5.706 -1.7326  0.6532 -0.9803
 4846TIP3   OH214501   3.295   5.118   5.862  0.0337  0.3426 -0.4227
 4846TIP3    H114502   3.364   5.082   5.806  1.3210  2.0125  0.0187
 4846TIP3    H214503   3.214   5.080   5.828  0.7246  1.3545 -3.5027
 4847TIP3   OH214504   1.753   5.160   1.842  0.2059 -0.1570 -0.3574
 4847TIP3    H114505   1.708   5.124   1.765 -0.8356  0.4971 -0.0750
 4847TIP3    H214506   1.701   5.130   1.916  0.3401  0.4592 -0.0092
 4848TIP3   OH214507   6.864   2.713   2.789  1.0216  0.4354 -0.1509
 4848TIP3    H114508   6.823   2.632   2.760 -0.7648  1.0489  0.5326
 4848TIP3    H214509   6.917   2.742   2.715 -2.1249  1.1286 -2.3044
 4849TIP3   OH214510   6.989   3.724   5.599  0.3434 -0.5587  0.3629
 4849TIP3    H114511   6.955   3.794   5.544  0.9952  1.0077  1.8608
 4849TIP3    H214512   6.922   3.712   5.666  0.5868 -0.8240  0.5603
 4850TIP3   OH214513   5.580   2.726   2.660 -0.5713 -0.1546  0.7909
 4850TIP3    H114514   5.534   2.808   2.677 -1.1370 -0.1779 -0.5562
 4850TIP3    H214515   5.654   2.727   2.721 -0.8601  1.1102  1.1423
 4851TIP3   OH214516   2.100   1.811   0.540  0.7328 -0.2535 -0.2378
 4851TIP3    H114517   2.055   1.728   0.525 -1.5129  0.4469  2.0263
 4851TIP3    H214518   2.076   1.864   0.463 -0.5769 -0.6316 -0.1266
 4852TIP3   OH214519   3.494   6.161   5.166 -0.1215 -0.1631 -0.1450
 4852TIP3    H114520   3.408   6.135   5.133 -0.4270  2.2037 -1.4791
 4852TIP3    H214521   3.557   6.122   5.105 -0.5531  1.8255 -1.9910
 4853TIP3   OH214522   4.272   0.412   1.341  0.0525  0.4334  0.1640
 4853TIP3    H114523   4.305   0.493   1.301  1.7910 -0.8124 -1.0661
 4853TIP3    H214524   4.305   0.413   1.430  0.2664  0.9660  0.0808
 4854TIP3   OH214525   1.861   6.116   1.537  0.5676 -0.0665  0.1025
 4854TIP3    H114526   1.815   6.166   1.605  0.0067 -0.4365  0.0028
 4854TIP3    H214527   1.873   6.029   1.576 -0.9057 -0.6787 -0.7260
 4855TIP3   OH214528   0.144   2.165   0.092  0.0679 -0.0655  0.1791
 4855TIP3    H114529   0.148   2.258   0.068 -0.5737  0.0667  0.5698
 4855TIP3    H214530   0.125   2.165   0.186 -0.0425 -0.5949  0.1592
 4856TIP3   OH214531   3.572   0.715   5.644  0.6665 -0.2772 -0.0295
 4856TIP3    H114532   3.509   0.772   5.690  0.0788 -1.2877  0.4526
 4856TIP3    H214533   3.638   0.695   5.711  0.4009 -0.8586  0.0643
 4857TIP3   OH214534   1.862   1.147   1.264 -0.1529 -0.3411  0.2121
 4857TIP3    H114535   1.770   1.143   1.236  0.3107 -0.7548 -1.3232
 4857TIP3    H214536   1.866   1.223   1.322 -0.9145  1.4102 -1.9192
 4858TIP3   OH214537   6.697   6.638   1.831 -0.2248 -1.0038  0.1384
 4858TIP3    H114538   6.724   6.562   1.882  2.2517  0.3687  1.0633
 4858TIP3    H214539   6.701   6.711   1.893  2.1683  0.6108 -1.6936
 4859TIP3   OH214540   2.273   2.336   0.901 -0.1708 -0.0941 -0.3969
 4859TIP3    H114541   2.242   2.350   0.812 -2.6869 -0.2229  0.3847
 4859TIP3    H214542   2.288   2.241   0.908 -0.9934 -0.2260 -0.3900
 4860TIP3   OH214543   0.251   5.249   3.845 -0.4751 -0.3058  0.3696
 4860TIP3    H114544   0.276   5.157   3.848 -1.4256 -0.5683  0.7865
 4860TIP3    H214545   0.158   5.247   3.822 -0.9183  0.4690  1.9439
 4861TIP3   OH214546   1.967   6.279   2.579 -0.5741  0.5647  0.2009
 4861TIP3    H114547   1.906   6.323   2.521 -0.2129 -0.5593 -1.0897
 4861TIP3    H214548   2.031   6.346   2.603 -2.0382  1.6401  1.2293
 4862TIP3   OH214549   2.719   0.289   4.318 -0.0048  0.2000 -0.4308
 4862TIP3    H114550   2.744   0.249   4.401  0.3047  1.3009  0.0183
 4862TIP3    H214551   2.675   0.371   4.342  1.1048  1.1021 -1.3606
 4863TIP3   OH214552   1.985   6.774   5.141 -0.3484 -0.2485 -0.1709
 4863TIP3    H114553   2.045   6.739   5.075 -1.5934 -1.3950 -0.7411
 4863TIP3    H214554   1.975   6.866   5.118  0.9123 -0.1100 -0.2512
 4864TIP3   OH214555   4.555   4.002   0.948 -0.3640  0.5018 -0.0941
 4864TIP3    H114556   4.615   3.999   0.874 -0.2916  0.1238 -0.0209
 4864TIP3    H214557   4.483   4.057   0.918 -0.7179 -0.2901 -0.7316
 4865TIP3   OH214558   4.472   3.743   0.622 -0.3365  0.0856 -0.1792
 4865TIP3    H114559   4.472   3.772   0.531 -3.0477 -2.1086 -1.0014
 4865TIP3    H214560   4.527   3.665   0.622  1.8357  1.4851  0.7515
 4866TIP3   OH214561   1.845   1.894   0.283 -0.3341  0.1768 -0.6062
 4866TIP3    H114562   1.808   1.806   0.292 -0.3168  0.1420 -0.8792
 4866TIP3    H214563   1.900   1.889   0.206  0.8301  0.0261  0.2152
 4867TIP3   OH214564   5.545   3.548   5.213 -0.1296 -0.4558  0.5363
 4867TIP3    H114565   5.491   3.525   5.289 -1.3195  1.3583  0.2862
 4867TIP3    H214566   5.519   3.637   5.191  1.2102 -0.4392 -1.1536
 4868TIP3   OH214567   4.102   3.939   0.666  0.3079 -0.2958  0.3886
 4868TIP3    H114568   4.191   3.939   0.629  0.7718  2.2046  1.2774
 4868TIP3    H214569   4.051   3.992   0.604 -0.1912 -0.4704  0.6486
 4869TIP3   OH214570   5.788   5.827   2.372 -0.0542 -0.4257 -0.3077
 4869TIP3    H114571   5.801   5.906   2.320 -1.3998 -0.2445 -0.3858
 4869TIP3    H214572   5.873   5.782   2.368  1.0608  1.4571  0.5206
 4870TIP3   OH214573   2.109   0.801   3.810  0.2959  0.5672 -0.2701
 4870TIP3    H114574   2.096   0.775   3.902  0.3787  0.8385 -0.1800
 4870TIP3    H214575   2.200   0.832   3.807  0.4763  0.0206 -0.5750
 4871TIP3   OH214576   0.821   2.992   0.185 -0.1493 -0.3271  0.6139
 4871TIP3    H114577   0.889   2.965   0.123 -0.1421  0.3955  0.3072
 4871TIP3    H214578   0.822   2.923   0.252  0.8106 -0.3860  0.5553
 4872TIP3   OH214579   2.761   5.752   4.124 -0.3071 -0.5172  0.2292
 4872TIP3    H114580   2.789   5.700   4.199  0.3041 -0.7489 -0.1571
 4872TIP3    H214581   2.666   5.742   4.122 -0.2828 -0.8773  0.6968
 4873TIP3   OH214582   0.810   5.395   2.496  0.6286 -0.0387  0.1974
 4873TIP3    H114583   0.853   5.465   2.447 -1.6321  1.7370  0.5792
 4873TIP3    H214584   0.832   5.315   2.449  1.9930  1.1108 -1.2073
 4874TIP3   OH214585   2.431   5.559   4.984  0.0082 -0.5437 -0.0991
 4874TIP3    H114586   2.375   5.491   5.022 -1.1530 -0.4141 -1.5124
 4874TIP3    H214587   2.442   5.623   5.055  0.1543 -1.6086  0.8707
 4875TIP3   OH214588   0.459   5.859   2.080 -0.1940 -0.1492 -0.2465
 4875TIP3    H114589   0.423   5.925   2.139 -0.1519 -0.4082  0.0696
 4875TIP3    H214590   0.482   5.785   2.137  1.3722  0.2257 -0.3515
 4876TIP3   OH214591   4.723   5.981   3.583  0.4300  0.2707  0.3122
 4876TIP3    H114592   4.653   5.921   3.560  0.7750 -1.1647  2.6983
 4876TIP3    H214593   4.687   6.068   3.567 -0.5006 -0.4671 -2.0777
 4877TIP3   OH214594   4.234   3.463   3.736 -0.3747 -0.0771  0.1030
 4877TIP3    H114595   4.259   3.553   3.713 -0.2421 -0.0012  0.5207
 4877TIP3    H214596   4.318   3.418   3.748 -0.4210 -0.6048 -1.3653
 4878TIP3   OH214597   4.305   2.597   2.127 -0.0245  0.1341  0.1854
 4878TIP3    H114598   4.356   2.520   2.099  0.7997  1.3029 -1.7413
 4878TIP3    H214599   4.321   2.662   2.059 -2.5779  1.2390  0.5340
 4879TIP3   OH214600   5.286   5.137   2.316  0.4037  0.6577 -0.1231
 4879TIP3    H114601   5.352   5.131   2.247  1.2339 -0.4944  0.7322
 4879TIP3    H214602   5.208   5.097   2.279  0.9470 -0.2615 -0.2996
 4880TIP3   OH214603   2.976   1.263   0.893  0.8576 -1.2021 -0.1635
 4880TIP3    H114604   3.057   1.217   0.915  1.0480 -1.0953 -0.6325
 4880TIP3    H214605   2.916   1.241   0.964  2.2656  1.3631  1.9932
 4881TIP3   OH214606   7.137   2.319   4.517  0.5062  0.1481 -0.1699
 4881TIP3    H114607   7.073   2.277   4.460  0.0311  0.4127  0.1609
 4881TIP3    H214608   7.085   2.364   4.583  0.9350  2.3777 -1.2695
 4882TIP3   OH214609   6.802   3.065   2.761  0.2008 -0.2804 -0.8870
 4882TIP3    H114610   6.714   3.083   2.728  0.3294  2.1261 -0.1519
 4882TIP3    H214611   6.788   3.012   2.839 -0.5134 -0.8043 -1.3597
 4883TIP3   OH214612   2.438   4.645   5.113 -0.0178 -0.5735  0.6315
 4883TIP3    H114613   2.370   4.712   5.120 -0.1399 -0.3430 -1.8621
 4883TIP3    H214614   2.500   4.680   5.049  1.0499 -1.9486  0.8506
 4884TIP3   OH214615   1.721   3.781   2.996 -0.2136  0.6342 -0.1427
 4884TIP3    H114616   1.650   3.843   3.011 -0.1132  0.2816  2.2609
 4884TIP3    H214617   1.680   3.695   3.003 -0.0049  0.4140 -1.4631
 4885TIP3   OH214618   4.227   5.393   3.015  0.7628 -0.4099 -0.1625
 4885TIP3    H114619   4.195   5.483   3.015  2.3785  0.2031  0.6760
 4885TIP3    H214620   4.271   5.383   2.931 -0.9919 -1.0539 -1.0501
 4886TIP3   OH214621   2.595   4.104   4.601  0.0389 -0.1230  0.0459
 4886TIP3    H114622   2.627   4.020   4.632  0.7146  0.6177  1.4297
 4886TIP3    H214623   2.549   4.142   4.676  0.5110  1.1250 -0.2675
 4887TIP3   OH214624   3.141   1.704   4.292  0.5717 -0.1993 -0.2711
 4887TIP3    H114625   3.233   1.681   4.303  0.4305 -0.3358  0.7135
 4887TIP3    H214626   3.093   1.625   4.315  0.1906  0.0709 -0.1237
 4888TIP3   OH214627   1.090   6.644   5.504 -0.4245 -0.5103  0.0761
 4888TIP3    H114628   1.108   6.738   5.498 -1.2260 -0.4211 -1.4180
 4888TIP3    H214629   1.044   6.634   5.587 -0.5468  0.4591  0.1429
 4889TIP3   OH214630   2.691   6.012   0.439  0.6284  0.1107 -0.7081
 4889TIP3    H114631   2.600   6.041   0.441  1.3758  2.6341  1.6462
 4889TIP3    H214632   2.689   5.924   0.478 -0.6649  0.7383  0.7277
 4890TIP3   OH214633   7.054   6.248   4.081 -0.4292  0.0753  0.0732
 4890TIP3    H114634   7.104   6.207   4.010  0.1353  0.2336  0.3729
 4890TIP3    H214635   7.083   6.203   4.160 -0.9245  0.0232  0.2287
 4891TIP3   OH214636   6.008   5.117   0.544 -0.1291  0.5456  0.2587
 4891TIP3    H114637   5.928   5.114   0.492 -1.2093 -1.7737  1.9080
 4891TIP3    H214638   6.055   5.037   0.521  1.0748  1.1981  0.3506
 4892TIP3   OH214639   4.743   4.325   4.035  0.0560 -0.0349 -0.0702
 4892TIP3    H114640   4.829   4.287   4.054  0.3967  0.4508 -0.6115
 4892TIP3    H214641   4.762   4.414   4.007 -0.8316  1.1634  2.7699
 4893TIP3   OH214642   2.428   5.853   1.758 -0.5706  0.1862  0.2987
 4893TIP3    H114643   2.461   5.942   1.771  1.2381 -0.2992 -0.6421
 4893TIP3    H214644   2.336   5.857   1.786 -0.2459  2.0779  1.2453
 4894TIP3   OH214645   5.800   2.627   2.286  0.2889  0.1952  0.5588
 4894TIP3    H114646   5.743   2.557   2.319 -2.4986  1.8757 -0.4268
 4894TIP3    H214647   5.805   2.690   2.358 -1.9149  1.6088 -0.4373
 4895TIP3   OH214648   0.305   0.875   3.843  0.1722 -0.2158 -0.4939
 4895TIP3    H114649   0.358   0.797   3.856  2.7040  1.6569  1.4057
 4895TIP3    H214650   0.367   0.941   3.811 -1.5617  1.4401 -0.6176
 4896TIP3   OH214651   1.363   1.757   2.412  0.4075 -0.5766  0.3484
 4896TIP3    H114652   1.394   1.845   2.394  0.4247 -0.3203  1.5986
 4896TIP3    H214653   1.291   1.744   2.349  1.2102 -0.1626 -0.6878
 4897TIP3   OH214654   6.853   0.833   0.095  0.4153 -0.3695  0.0975
 4897TIP3    H114655   6.923   0.767   0.093  1.0703  0.3378 -0.9462
 4897TIP3    H214656   6.890   0.909   0.052  0.0212  1.0892  2.1734
 4898TIP3   OH214657   4.782   3.466   3.961 -0.2928  0.2107  0.5443
 4898TIP3    H114658   4.692   3.484   3.935 -0.1109 -0.6735 -0.8329
 4898TIP3    H214659   4.785   3.484   4.055 -1.2682  2.6733  0.1727
 4899TIP3   OH214660   2.969   6.255   3.797  0.4555 -0.1999 -0.0184
 4899TIP3    H114661   2.878   6.287   3.794  0.5884  0.3605  1.2781
 4899TIP3    H214662   2.986   6.223   3.708 -1.2347 -0.9467 -0.1183
 4900TIP3   OH214663   3.648   1.657   1.496 -0.4281  0.0322  0.3203
 4900TIP3    H114664   3.635   1.736   1.444 -0.5292 -0.2706 -0.1324
 4900TIP3    H214665   3.737   1.663   1.529  0.5491 -0.8954 -1.9266
 4901TIP3   OH214666   4.648   1.230   3.307 -0.1516  0.3479  0.2236
 4901TIP3    H114667   4.723   1.274   3.267 -0.3593 -0.7762 -1.5033
 4901TIP3    H214668   4.681   1.200   3.392  1.4660 -0.3384 -0.5987
 4902TIP3   OH214669   5.435   4.879   2.382 -0.1209  0.2261  0.0136
 4902TIP3    H114670   5.513   4.926   2.353  2.1993 -3.0567  0.3399
 4902TIP3    H214671   5.367   4.906   2.320  1.7466  1.8290 -1.4815
 4903TIP3   OH214672   5.870   6.573   5.302 -0.1569  0.1541  0.0179
 4903TIP3    H114673   5.948   6.623   5.323  1.0133 -1.9054  0.9230
 4903TIP3    H214674   5.882   6.490   5.348 -2.4231 -0.6077 -0.6344
 4904TIP3   OH214675   4.976   3.028   3.739 -0.1745 -0.6903 -0.2539
 4904TIP3    H114676   4.985   3.086   3.815 -0.4456 -1.3549  0.2867
 4904TIP3    H214677   4.991   3.086   3.664  3.3123 -0.6056  0.3473
 4905TIP3   OH214678   5.058   5.623   0.982 -0.2547 -0.0115  0.3098
 4905TIP3    H114679   5.130   5.670   1.025  1.8640 -0.5528 -2.3751
 4905TIP3    H214680   5.029   5.681   0.913  0.3025 -1.3389 -1.0939
 4906TIP3   OH214681   5.181   2.698   0.497  0.2942  0.5419 -0.0745
 4906TIP3    H114682   5.144   2.717   0.584 -0.5177  1.6886 -0.6426
 4906TIP3    H214683   5.264   2.744   0.496  0.8583 -0.4293  0.4984
 4907TIP3   OH214684   2.413   6.386   0.403 -0.1341 -0.0612  0.3446
 4907TIP3    H114685   2.398   6.382   0.498 -2.5840  0.5387  0.0354
 4907TIP3    H214686   2.377   6.470   0.377  1.8918  0.4637 -0.9490
 4908TIP3   OH214687   3.718   6.651   0.834  0.2248 -0.2362  0.2028
 4908TIP3    H114688   3.732   6.557   0.843  0.9648 -0.2639 -0.8690
 4908TIP3    H214689   3.634   6.659   0.789 -0.4716 -0.3180  1.4555
 4909TIP3   OH214690   2.701   2.393   4.382  0.5522  0.0453 -0.4277
 4909TIP3    H114691   2.763   2.324   4.405 -0.3707 -0.8873 -0.7159
 4909TIP3    H214692   2.707   2.401   4.287  0.3370  0.0649 -0.4402
 4910TIP3   OH214693   4.666   4.548   4.691 -0.1120 -0.7286  0.3529
 4910TIP3    H114694   4.651   4.554   4.596  0.7943  1.9556  0.3182
 4910TIP3    H214695   4.601   4.606   4.729  0.6011 -0.5199  1.2693
 4911TIP3   OH214696   5.291   3.891  -0.016  0.0527  0.1290  0.1726
 4911TIP3    H114697   5.263   3.981  -0.030 -0.5298 -0.1785 -0.7743
 4911TIP3    H214698   5.311   3.886   0.077 -3.2489  0.3569  1.0292
 4912TIP3   OH214699   6.180   3.235   3.770  0.0687  0.2056  0.9530
 4912TIP3    H114700   6.237   3.272   3.837  1.9655  1.3120 -1.1720
 4912TIP3    H214701   6.127   3.309   3.739  0.6828  0.1962 -0.1782
 4913TIP3   OH214702   6.579   0.781   4.903  0.0279  0.6865  0.2113
 4913TIP3    H114703   6.518   0.785   4.829  1.3534  0.7959 -0.9345
 4913TIP3    H214704   6.665   0.796   4.863  1.2169 -2.5953  1.2347
 4914TIP3   OH214705   1.962   4.531   2.131  0.2571  0.2701 -0.3476
 4914TIP3    H114706   1.950   4.625   2.138 -1.8066  0.1156 -1.0896
 4914TIP3    H214707   1.873   4.496   2.123  1.0079 -1.6848 -0.7345
 4915TIP3   OH214708   1.455   0.604   5.331  0.1869  0.2383 -0.0719
 4915TIP3    H114709   1.374   0.639   5.294  0.5959  0.3269 -0.9183
 4915TIP3    H214710   1.454   0.511   5.308  0.7342  0.4180 -0.8725
 4916TIP3   OH214711   4.972   0.232   2.292  0.3675  0.4308  0.1841
 4916TIP3    H114712   5.002   0.148   2.326 -0.8698 -0.4685 -0.8173
 4916TIP3    H214713   4.957   0.286   2.370 -0.3103 -0.8174  0.9451
 4917TIP3   OH214714   4.454   2.193   0.162  0.5198 -0.2844 -0.0032
 4917TIP3    H114715   4.389   2.171   0.229 -1.1321  1.5658 -0.8789
 4917TIP3    H214716   4.531   2.220   0.212  0.1281 -1.1393  1.1122
 4918TIP3   OH214717   5.408   3.458   5.426  0.0487 -0.4287  0.4077
 4918TIP3    H114718   5.341   3.409   5.379  2.5663 -3.9862  0.1667
 4918TIP3    H214719   5.384   3.450   5.518 -2.4808  2.8148  0.2328
 4919TIP3   OH214720   5.293   6.690   0.960  0.1835 -0.2413 -0.7741
 4919TIP3    H114721   5.227   6.721   0.898  0.4347  0.4935 -0.6855
 4919TIP3    H214722   5.373   6.682   0.908  0.1775 -0.5012 -0.7427
 4920TIP3   OH214723   4.666   4.026   0.436  0.6533 -0.1067 -0.2159
 4920TIP3    H114724   4.728   4.090   0.403  0.7634 -0.8788 -1.5988
 4920TIP3    H214725   4.611   4.005   0.360 -0.6199 -0.2159  0.7079
 4921TIP3   OH214726   3.334   3.517   2.892  0.0901  0.3386 -0.0850
 4921TIP3    H114727   3.355   3.608   2.873 -1.4627  0.5633 -0.8295
 4921TIP3    H214728   3.239   3.512   2.886 -0.0642 -0.8310  2.2368
 4922TIP3   OH214729   2.065   0.984   3.396 -0.0684  0.4039 -0.1756
 4922TIP3    H114730   2.126   1.051   3.366  1.4728 -0.2598  1.3254
 4922TIP3    H214731   1.980   1.027   3.395  0.9959  2.8459  1.9128
 4923TIP3   OH214732   2.757   1.718   5.123  0.2295 -0.1581  0.1666
 4923TIP3    H114733   2.816   1.659   5.075  1.3404  1.1428 -0.1332
 4923TIP3    H214734   2.737   1.671   5.204  2.0502 -0.4729  0.4829
 4924TIP3   OH214735   1.555   1.716   1.155  0.0930 -0.8942 -0.2258
 4924TIP3    H114736   1.548   1.797   1.206  1.5675 -0.6581 -0.3781
 4924TIP3    H214737   1.498   1.654   1.201 -2.3786  0.6343 -0.9969
 4925TIP3   OH214738   5.900   3.920   3.897 -0.0286  0.0338  0.5230
 4925TIP3    H114739   5.872   3.951   3.810  1.0059  0.1433  0.2162
 4925TIP3    H214740   5.949   3.840   3.879 -0.1719 -0.1742  1.0544
 4926TIP3   OH214741   1.501   3.449   0.040 -0.0850 -0.0188 -0.7550
 4926TIP3    H114742   1.518   3.543   0.041 -1.5643  0.2896  0.7807
 4926TIP3    H214743   1.565   3.412   0.101 -0.8434  0.3060  0.2697
 4927TIP3   OH214744   5.983   4.674   5.656  0.2719  0.3734 -0.3315
 4927TIP3    H114745   5.973   4.614   5.583 -0.0016  1.3616 -1.1274
 4927TIP3    H214746   6.078   4.684   5.667  0.3184  0.8936 -1.1314
 4928TIP3   OH214747   1.014   0.275   1.254  0.0318  0.4721  0.4294
 4928TIP3    H114748   0.928   0.265   1.213  0.5282  0.0776 -0.5389
 4928TIP3    H214749   1.030   0.369   1.252 -0.2808  0.5272  0.4151
 4929TIP3   OH214750   5.363   0.812   5.004 -0.2181  0.2061 -0.5564
 4929TIP3    H114751   5.406   0.886   5.048 -0.0741 -0.9109  1.2857
 4929TIP3    H214752   5.436   0.757   4.975 -0.2841 -0.9398  1.2496
 4930TIP3   OH214753   5.791   6.239   1.147  0.0732 -1.0734 -0.2685
 4930TIP3    H114754   5.742   6.302   1.199  1.9448  0.3808 -0.1345
 4930TIP3    H214755   5.875   6.230   1.193  0.7413 -1.8489 -1.5691
 4931TIP3   OH214756   5.772   6.691   0.313 -0.1474 -0.4340  0.3100
 4931TIP3    H114757   5.740   6.622   0.371 -1.2472 -1.2321 -1.1748
 4931TIP3    H214758   5.860   6.663   0.289  0.9524  0.6643  2.6814
 4932TIP3   OH214759   0.350   4.195   4.247 -0.3491 -0.3514 -0.1756
 4932TIP3    H114760   0.282   4.239   4.298  0.7163 -0.4657  1.4081
 4932TIP3    H214761   0.416   4.169   4.311  0.8057 -0.9907 -1.5505
 4933TIP3   OH214762   5.207   4.825   4.833 -0.0368  0.2812  0.1990
 4933TIP3    H114763   5.119   4.812   4.798  0.1340 -1.1604  0.2441
 4933TIP3    H214764   5.229   4.741   4.874  0.8719  1.0129  1.2862
 4934TIP3   OH214765   3.877   2.812   0.116  0.3815 -0.3944  0.0876
 4934TIP3    H114766   3.911   2.724   0.131 -0.2319 -0.7090 -0.3417
 4934TIP3    H214767   3.877   2.852   0.203  0.9370 -0.7156  0.2406
 4935TIP3   OH214768   1.925   6.508   2.448 -0.3323 -0.3578  0.0985
 4935TIP3    H114769   1.902   6.600   2.460 -0.4405 -0.2427 -0.8987
 4935TIP3    H214770   1.993   6.508   2.381  1.1889 -0.8595  1.5933
 4936TIP3   OH214771   0.081   2.645   3.323 -0.1728 -0.3722 -0.0281
 4936TIP3    H114772   0.062   2.579   3.257  1.0893 -0.3670 -0.4238
 4936TIP3    H214773   0.106   2.595   3.401 -0.7109 -0.3618  0.1607
 4937TIP3   OH214774   0.572   2.253   3.239 -0.0704 -0.1172 -0.1999
 4937TIP3    H114775   0.650   2.197   3.230 -1.0910 -1.4688 -1.0775
 4937TIP3    H214776   0.505   2.196   3.276 -0.5262  1.1713  1.0392
 4938TIP3   OH214777   2.959   6.454   4.018 -0.3383  0.0422 -0.2852
 4938TIP3    H114778   2.932   6.363   4.032  0.6019 -0.5043 -1.8093
 4938TIP3    H214779   2.884   6.495   3.976 -0.5281 -0.2072 -0.1918
 4939TIP3   OH214780   1.231   6.303   1.501  0.6622 -0.0764 -0.3486
 4939TIP3    H114781   1.291   6.298   1.427 -0.6710  1.4880 -1.6348
 4939TIP3    H214782   1.242   6.392   1.535 -1.8828  0.8053 -1.5731
 4940TIP3   OH214783   2.174   0.550   1.876  0.3295  0.4734 -0.5679
 4940TIP3    H114784   2.140   0.627   1.831  0.0955 -0.2278 -1.6303
 4940TIP3    H214785   2.263   0.540   1.844 -0.2107 -0.6928 -1.8228
 4941TIP3   OH214786   5.196   4.580   3.685  0.3892  0.3977  0.3946
 4941TIP3    H114787   5.104   4.583   3.657  0.1543  0.2526  1.1275
 4941TIP3    H214788   5.235   4.511   3.631 -0.1698 -0.2003  0.7370
 4942TIP3   OH214789   5.376   0.890   1.326  0.0621  0.1560  0.3898
 4942TIP3    H114790   5.449   0.940   1.361  0.0927  0.5694 -0.2664
 4942TIP3    H214791   5.320   0.872   1.403  0.4781  0.4552  0.7635
 4943TIP3   OH214792   3.005   4.550   0.883  0.5840  0.0958  0.0087
 4943TIP3    H114793   2.974   4.640   0.874 -0.3467 -0.2303 -0.1899
 4943TIP3    H214794   2.962   4.517   0.962 -0.0503 -0.5474 -0.5878
 4944TIP3   OH214795   5.160   1.507   1.859  0.0017 -0.4439 -0.1600
 4944TIP3    H114796   5.186   1.550   1.940 -0.6189  0.2346 -0.3115
 4944TIP3    H214797   5.187   1.416   1.870 -1.2605 -0.6654  1.3760
 4945TIP3   OH214798   3.278   4.357   2.376 -0.3528 -0.5032  0.7910
 4945TIP3    H114799   3.184   4.345   2.365 -0.5528 -0.8258  2.6080
 4945TIP3    H214800   3.287   4.443   2.417  0.2710  0.1774 -0.6883
 4946TIP3   OH214801   6.498   6.529   3.068  0.3233 -0.3401  0.1153
 4946TIP3    H114802   6.523   6.587   2.996 -0.4534 -1.0355 -0.7326
 4946TIP3    H214803   6.506   6.584   3.146  3.4494 -0.2242 -0.1625
 4947TIP3   OH214804   1.191   0.472   4.790 -0.1340  0.3261  0.2268
 4947TIP3    H114805   1.263   0.425   4.746 -1.6092 -0.3309 -1.6566
 4947TIP3    H214806   1.165   0.539   4.727 -1.4695  0.2249  0.6468
 4948TIP3   OH214807   6.274   2.919   2.573  0.3130  0.0320 -0.0647
 4948TIP3    H114808   6.213   2.845   2.576  0.7955 -0.4721 -1.9460
 4948TIP3    H214809   6.353   2.886   2.615 -0.3080  0.3461  1.4221
 4949TIP3   OH214810   6.098   0.065   2.953 -0.4266 -0.5220 -0.5363
 4949TIP3    H114811   6.005   0.046   2.959 -0.4894  0.2556  1.7279
 4949TIP3    H214812   6.139   0.006   3.017  0.1747  1.6625  1.2173
 4950TIP3   OH214813   3.127   3.355   2.197 -0.1541 -0.5249  0.5770
 4950TIP3    H114814   3.048   3.341   2.144 -0.1051 -1.2804  0.6894
 4950TIP3    H214815   3.103   3.423   2.259 -0.0447  0.7911 -0.7595
 4951TIP3   OH214816   2.160   5.935   1.743  0.5776  0.6665  0.0093
 4951TIP3    H114817   2.073   5.960   1.775  1.0142  1.1601  0.8309
 4951TIP3    H214818   2.157   5.955   1.649 -0.8556 -1.1617 -0.3917
 4952TIP3   OH214819   3.551   3.061   2.581 -0.0853  0.1641 -0.4358
 4952TIP3    H114820   3.634   3.087   2.620 -0.3690  1.1796 -0.4795
 4952TIP3    H214821   3.516   3.142   2.542 -1.6319  0.0415  0.5953
 4953TIP3   OH214822   0.050   1.280   0.539 -0.5204  0.0925  0.4046
 4953TIP3    H114823   0.042   1.342   0.467 -0.6060 -0.0869  0.2578
 4953TIP3    H214824  -0.022   1.219   0.526  1.0231 -1.5608 -0.9483
 4954TIP3   OH214825   2.266   0.378   0.795  0.0195 -0.1088 -0.1108
 4954TIP3    H114826   2.358   0.358   0.814  0.3360  1.1069 -0.2740
 4954TIP3    H214827   2.268   0.425   0.712 -0.8797 -1.0658 -0.6970
 4955TIP3   OH214828   5.372   0.730   1.555  0.2247 -0.6374 -0.4684
 4955TIP3    H114829   5.465   0.725   1.576  0.1870 -2.6300 -0.5624
 4955TIP3    H214830   5.341   0.639   1.560 -1.8669  0.0411  0.1863
 4956TIP3   OH214831   1.543   3.671   1.975  0.0150 -0.5678 -0.1592
 4956TIP3    H114832   1.548   3.577   1.958  3.7269 -0.5228 -0.0757
 4956TIP3    H214833   1.491   3.706   1.902 -3.7836 -2.8087  1.1919
 4957TIP3   OH214834   4.483   3.269   4.994 -0.2692 -0.5290  0.0766
 4957TIP3    H114835   4.553   3.205   5.008  0.5778  0.1790 -0.7629
 4957TIP3    H214836   4.465   3.265   4.900 -2.4039 -1.7159  0.4683
 4958TIP3   OH214837   5.202   2.517   2.913 -0.2510 -0.2397  0.3424
 4958TIP3    H114838   5.186   2.554   2.826 -2.6820 -0.4915  0.6289
 4958TIP3    H214839   5.251   2.436   2.895  2.3177  1.3844 -0.4829
 4959TIP3   OH214840   2.675   5.266   3.939  0.5182 -0.1536  0.3573
 4959TIP3    H114841   2.697   5.350   3.898  2.0021 -1.8473 -2.6443
 4959TIP3    H214842   2.622   5.221   3.873 -0.2552 -1.6045  1.9048
 4960TIP3   OH214843   5.224   5.477   1.636  0.3485  0.4069  0.1614
 4960TIP3    H114844   5.195   5.386   1.631  1.4799 -0.0445  1.1770
 4960TIP3    H214845   5.145   5.526   1.657  0.0980 -0.6552  1.9451
 4961TIP3   OH214846   5.668   0.105   1.504 -0.0389  0.0421 -0.2605
 4961TIP3    H114847   5.591   0.136   1.550  1.5217  1.1334  1.7630
 4961TIP3    H214848   5.638   0.028   1.456 -2.0757 -0.3762  1.5490
 4962TIP3   OH214849   3.483   6.543   5.777  0.1009  0.1807  0.1896
 4962TIP3    H114850   3.577   6.560   5.785  0.1769  0.1220 -0.4975
 4962TIP3    H214851   3.443   6.604   5.838  0.5187  1.1233 -0.4523
 4963TIP3   OH214852   1.948   2.936   4.911  0.4037 -0.0888  0.2255
 4963TIP3    H114853   2.042   2.937   4.895  0.0559  1.4178 -2.3542
 4963TIP3    H214854   1.938   2.976   4.997  2.0563  1.6363 -0.3046
 4964TIP3   OH214855   0.587   1.203   0.197  0.3548 -0.1621  0.1436
 4964TIP3    H114856   0.668   1.173   0.239 -0.0834 -2.5491 -0.5663
 4964TIP3    H214857   0.610   1.210   0.104 -0.5929 -2.4562 -0.3234
 4965TIP3   OH214858   4.762   6.184   0.334 -0.8226  0.0838  0.0059
 4965TIP3    H114859   4.790   6.270   0.364  0.8022 -0.4368  0.0777
 4965TIP3    H214860   4.792   6.179   0.243 -1.0449 -0.3443 -0.0467
 4966TIP3   OH214861   1.488   5.223   5.129 -0.4572  0.0340 -0.0065
 4966TIP3    H114862   1.465   5.153   5.190 -0.5950 -0.1540 -0.2734
 4966TIP3    H214863   1.473   5.185   5.042 -0.9949  0.5485 -0.1472
 4967TIP3   OH214864   7.029   0.317   1.448 -0.0977  0.4626 -0.3323
 4967TIP3    H114865   7.004   0.233   1.410  0.8956 -0.3372  0.7079
 4967TIP3    H214866   6.948   0.353   1.482 -0.4652 -0.3148 -0.3544
 4968TIP3   OH214867   1.064   3.708   3.411 -0.1103  0.5053 -1.1907
 4968TIP3    H114868   0.976   3.669   3.412 -0.8731  2.1175 -0.1051
 4968TIP3    H214869   1.053   3.789   3.360  0.5069  1.2096 -0.2241
 4969TIP3   OH214870   6.102   0.473   0.986 -0.0090 -0.3144 -0.1256
 4969TIP3    H114871   6.180   0.453   0.934  0.1440 -1.0370  0.3766
 4969TIP3    H214872   6.125   0.449   1.075 -0.6537 -0.1028  0.1033
 4970TIP3   OH214873   4.873   4.669   0.820 -0.0509  0.2640 -0.1143
 4970TIP3    H114874   4.921   4.646   0.740  1.3378  1.6009  0.2888
 4970TIP3    H214875   4.869   4.764   0.819 -1.8117  0.2326  0.4333
 4971TIP3   OH214876   7.075   4.409   2.139 -0.3935  0.1388  0.3414
 4971TIP3    H114877   7.026   4.456   2.207 -0.6307 -0.8460  0.8788
 4971TIP3    H214878   7.069   4.317   2.165  0.4612 -0.1462 -0.4197
 4972TIP3   OH214879   5.102   5.691   5.077 -0.1021  0.2613 -0.0200
 4972TIP3    H114880   5.088   5.701   4.983 -0.6488  0.5368  0.0876
 4972TIP3    H214881   5.188   5.649   5.084 -1.0814 -2.0288 -0.7339
 4973TIP3   OH214882   2.606   2.559   1.341 -0.2069  0.1365 -0.0540
 4973TIP3    H114883   2.552   2.489   1.305 -0.4048  0.2671 -0.0118
 4973TIP3    H214884   2.667   2.514   1.400  0.4641 -0.1429 -0.9325
 4974TIP3   OH214885   6.716   0.561   2.301  0.2569  0.0278 -0.5002
 4974TIP3    H114886   6.727   0.651   2.331  1.0443 -0.9053  2.3039
 4974TIP3    H214887   6.751   0.561   2.212  1.7314  2.1771 -0.0054
 4975TIP3   OH214888   0.756   6.400   3.640 -0.7013  0.2001 -0.1834
 4975TIP3    H114889   0.670   6.425   3.673 -0.5713  0.6797 -0.2029
 4975TIP3    H214890   0.808   6.383   3.719 -0.7964 -0.0344 -0.1708
 4976TIP3   OH214891   2.065   1.696   5.572 -0.4519  0.0052  0.3763
 4976TIP3    H114892   2.149   1.688   5.618  0.1258  4.0565  0.4371
 4976TIP3    H214893   2.009   1.745   5.633 -2.9927 -2.5584  0.3321
 4977TIP3   OH214894   3.551   0.103   1.560  0.1064  0.2466 -0.0244
 4977TIP3    H114895   3.462   0.135   1.576  1.3487  2.7635  2.5711
 4977TIP3    H214896   3.597   0.178   1.522  0.9468 -1.3358 -2.3186
 4978TIP3   OH214897   5.838   4.951   5.041 -0.1510 -0.5761  0.1893
 4978TIP3    H114898   5.932   4.940   5.027 -0.1335  0.2658 -0.4725
 4978TIP3    H214899   5.819   4.901   5.120  0.9089 -0.5192  0.4932
 4979TIP3   OH214900   1.220   0.110   0.625 -0.0051 -0.2044 -0.5507
 4979TIP3    H114901   1.208   0.176   0.556  0.8350  0.8854  0.3087
 4979TIP3    H214902   1.247   0.032   0.578 -1.0492  0.0228 -1.6030
 4980TIP3   OH214903   2.851   4.618   2.161 -0.5851  0.0561 -0.3951
 4980TIP3    H114904   2.772   4.617   2.107 -0.9024  2.1079 -0.0526
 4980TIP3    H214905   2.900   4.695   2.131  0.3226 -0.0433  0.7419
 4981TIP3   OH214906   2.362   5.403   1.157 -0.1213  0.8754  0.5053
 4981TIP3    H114907   2.394   5.493   1.169 -1.3742  1.2082  1.6901
 4981TIP3    H214908   2.401   5.354   1.230  0.7261  0.3964 -0.2578
 4982TIP3   OH214909   4.602   0.391   0.282  0.1158 -0.1630 -0.0806
 4982TIP3    H114910   4.620   0.404   0.189 -0.5402 -2.2052 -0.5590
 4982TIP3    H214911   4.604   0.296   0.293 -2.5972 -0.1599  1.3781
 4983TIP3   OH214912   6.646   2.337   3.287  0.0517 -0.7543 -0.1661
 4983TIP3    H114913   6.603   2.288   3.218 -0.7474 -0.1436 -0.1233
 4983TIP3    H214914   6.740   2.330   3.267 -0.1281 -1.1498 -0.9138
 4984TIP3   OH214915   1.278   2.651   3.296 -0.0417  0.1957  0.0498
 4984TIP3    H114916   1.248   2.565   3.327 -1.3220  1.2881  2.0825
 4984TIP3    H214917   1.278   2.644   3.200 -1.6156 -1.5885  0.1333
 4985TIP3   OH214918   6.868   4.523   0.640 -1.3615 -0.0302 -0.0008
 4985TIP3    H114919   6.916   4.605   0.623  0.6632 -1.1654 -0.1139
 4985TIP3    H214920   6.833   4.497   0.555 -0.6054 -0.1053 -0.2955
 4986TIP3   OH214921   1.537   0.898   3.555 -0.3248 -0.1622 -0.0065
 4986TIP3    H114922   1.458   0.848   3.575 -0.6265  0.3317  0.0705
 4986TIP3    H214923   1.554   0.949   3.634  0.5857 -0.9130  0.2985
 4987TIP3   OH214924   1.636   6.128   4.170 -0.6204 -0.0519 -0.4268
 4987TIP3    H114925   1.643   6.195   4.102  0.0979  0.1116 -0.2065
 4987TIP3    H214926   1.698   6.060   4.143 -1.2174 -0.5572 -0.5580
 4988TIP3   OH214927   3.270   4.832   4.539  0.5681 -0.1404 -0.2308
 4988TIP3    H114928   3.261   4.822   4.634  0.6854 -0.5833 -0.2625
 4988TIP3    H214929   3.300   4.746   4.509 -3.1386 -1.2887 -1.1579
 4989TIP3   OH214930   6.221   0.259   5.200  0.5575  0.0719  0.0347
 4989TIP3    H114931   6.185   0.318   5.133  1.1988  0.8769  0.3809
 4989TIP3    H214932   6.234   0.176   5.154 -0.4575  0.1580 -0.4358
 4990TIP3   OH214933   1.320   3.786   3.350  0.0228  0.3396  0.6128
 4990TIP3    H114934   1.279   3.700   3.363  2.5801 -0.8952  1.3129
 4990TIP3    H214935   1.351   3.811   3.437 -1.8460  2.7165  0.6976
 4991TIP3   OH214936   3.059   5.643   4.692 -0.6782  0.3915 -0.0309
 4991TIP3    H114937   3.124   5.703   4.728 -1.0850  2.0179 -1.8285
 4991TIP3    H214938   2.974   5.680   4.717 -1.1547 -2.4585  3.5371
 4992TIP3   OH214939   1.823   2.102   3.524  0.1114  0.2304 -0.0676
 4992TIP3    H114940   1.811   2.197   3.524 -1.8282  0.0286  0.4949
 4992TIP3    H214941   1.792   2.074   3.439  3.7083  0.3288 -1.5807
 4993TIP3   OH214942   1.972   3.301   3.795 -0.1695  0.3187 -0.1981
 4993TIP3    H114943   1.913   3.374   3.813 -0.3785  0.6319 -1.9273
 4993TIP3    H214944   1.920   3.223   3.815  0.1899  0.5898  2.0480
 4994TIP3   OH214945   6.817   6.070   5.761  0.3059  0.3302  0.0006
 4994TIP3    H114946   6.851   6.129   5.829  1.2060 -0.5909  0.3800
 4994TIP3    H214947   6.861   5.986   5.778 -0.6566 -0.3515 -0.7550
 4995TIP3   OH214948   3.088   1.537   5.244  0.6029 -0.0061  0.4732
 4995TIP3    H114949   3.147   1.462   5.244 -0.4746 -0.8933 -0.5771
 4995TIP3    H214950   3.016   1.512   5.186 -0.3680  1.3898  0.9969
 4996TIP3   OH214951   5.724   4.924   2.296 -0.6902  0.0560  0.1599
 4996TIP3    H114952   5.782   4.925   2.373  1.6287 -0.1890 -1.4634
 4996TIP3    H214953   5.752   4.846   2.247 -0.3296  1.5549 -2.1445
 4997TIP3   OH214954   2.489   5.381   2.771  0.1386 -0.5733  0.0273
 4997TIP3    H114955   2.571   5.397   2.723  1.1173  0.4614  1.9011
 4997TIP3    H214956   2.424   5.435   2.727  1.1455  0.8133  0.1831
 4998TIP3   OH214957   3.546   3.106   3.623 -0.2257 -0.2319  0.6113
 4998TIP3    H114958   3.638   3.123   3.643  0.6239 -0.9385 -2.1312
 4998TIP3    H214959   3.505   3.192   3.620  0.0487  0.0344  2.8138
 4999TIP3   OH214960   2.795   4.097   3.881 -0.4561  0.2624 -0.3468
 4999TIP3    H114961   2.806   4.052   3.797  1.8688 -0.6668  0.3617
 4999TIP3    H214962   2.782   4.027   3.944  1.4585  0.6355  0.5356
 5000TIP3   OH214963   2.125   3.037   2.860 -0.6237  0.1518 -0.0076
 5000TIP3    H114964   2.154   3.030   2.951 -0.6784 -1.5041 -0.0876
 5000TIP3    H214965   2.058   2.969   2.850 -1.9108  1.4731 -0.8258
 5001TIP3   OH214966   2.600   2.710   1.118 -0.3633 -0.6707  0.0599
 5001TIP3    H114967   2.555   2.644   1.066 -1.1073 -0.2616  0.1744
 5001TIP3    H214968   2.598   2.676   1.208  0.8787 -1.3541 -0.1399
 5002TIP3   OH214969   6.113   2.083   2.746 -0.7196 -0.1352  0.2280
 5002TIP3    H114970   6.077   2.119   2.828  0.4675  2.6165 -0.3587
 5002TIP3    H214971   6.062   2.125   2.677  1.1122  1.0086 -0.5091
 5003TIP3   OH214972   5.853   2.984   0.273 -0.3425 -0.2780 -0.1617
 5003TIP3    H114973   5.850   2.909   0.213 -1.0724  0.5320 -1.1622
 5003TIP3    H214974   5.946   3.004   0.282 -0.2543  1.0658 -2.9525
 5004TIP3   OH214975   3.006   2.312   4.990  0.2326 -0.1686 -0.0306
 5004TIP3    H114976   3.098   2.334   5.000  0.2383 -0.1901 -0.0359
 5004TIP3    H214977   2.999   2.223   5.024 -0.3704  0.8936  2.9187
 5005TIP3   OH214978   4.088   3.596   1.900 -0.0944 -0.0447  0.4760
 5005TIP3    H114979   4.160   3.653   1.928  1.1603 -1.3853  0.1327
 5005TIP3    H214980   4.064   3.548   1.979  0.0780 -0.3060  0.3714
 5006TIP3   OH214981   5.033   1.860   0.737  0.1298 -0.6439 -0.1982
 5006TIP3    H114982   5.004   1.781   0.690 -1.7493 -1.7934  2.6481
 5006TIP3    H214983   4.959   1.884   0.793  2.6467 -0.3044  3.3309
 5007TIP3   OH214984   2.419   2.710   0.295  0.2537 -0.6039 -0.3937
 5007TIP3    H114985   2.334   2.738   0.329  1.2520  0.2938  1.5479
 5007TIP3    H214986   2.436   2.626   0.339  0.6366 -0.4574 -0.2504
 5008TIP3   OH214987   6.404   4.428   2.137  0.7164  0.0269 -0.0480
 5008TIP3    H114988   6.425   4.515   2.169  0.0415  0.1566  0.0540
 5008TIP3    H214989   6.308   4.426   2.133  0.6278 -1.3465  1.7707
 5009TIP3   OH214990   0.185   5.332   1.776  0.3798  0.5623  0.0256
 5009TIP3    H114991   0.165   5.425   1.784  0.8891  0.7221 -0.4987
 5009TIP3    H214992   0.100   5.289   1.778 -0.0506  1.2216 -2.1095
 5010TIP3   OH214993   3.991   1.313   4.431 -0.2459  0.8130  0.1003
 5010TIP3    H114994   4.073   1.358   4.409  0.1848  0.5679  1.1832
 5010TIP3    H214995   3.923   1.370   4.394  0.4172  0.6345 -1.4850
 5011TIP3   OH214996   6.311   5.385   1.166 -0.8273  0.3451 -0.2556
 5011TIP3    H114997   6.289   5.292   1.164 -0.2074  0.1830 -3.0469
 5011TIP3    H214998   6.383   5.391   1.229 -0.4883 -1.1750 -0.4614
 5012TIP3   OH214999   0.849   2.398   5.847  0.2385 -0.1675  0.3859
 5012TIP3    H115000   0.881   2.440   5.768  1.6664 -0.4095  0.8056
 5012TIP3    H215001   0.833   2.307   5.822 -0.3947  0.0083  0.1182
 5013TIP3   OH215002   1.223   0.864   4.708  0.2782 -0.3084 -0.4166
 5013TIP3    H115003   1.310   0.897   4.687 -0.6170  1.4249 -1.6237
 5013TIP3    H215004   1.188   0.833   4.624 -0.1678 -1.2972  0.1072
 5014TIP3   OH215005   4.619   0.259   0.596  0.2119  0.0177 -0.1995
 5014TIP3    H115006   4.687   0.313   0.557 -0.5955  1.1010 -0.1600
 5014TIP3    H215007   4.572   0.222   0.521 -0.7071  1.2905 -0.2834
 5015TIP3   OH215008   2.635   3.310   0.229  0.6059 -0.0941 -0.2045
 5015TIP3    H115009   2.695   3.241   0.198  1.0732 -0.2285  0.9699
 5015TIP3    H215010   2.548   3.274   0.212  0.8375 -1.2145  0.8369
 5016TIP3   OH215011   0.831   6.309   1.113  0.4637 -0.2195 -0.0128
 5016TIP3    H115012   0.902   6.286   1.173 -0.1187 -0.8596  0.4511
 5016TIP3    H215013   0.833   6.404   1.109  1.1995 -0.2177  0.1738
 5017TIP3   OH215014   0.778   6.773   3.006  0.6532  0.3273  1.0575
 5017TIP3    H115015   0.697   6.749   3.052 -0.1500 -0.3245 -0.5927
 5017TIP3    H215016   0.801   6.695   2.956  0.5131  1.4873 -0.9478
 5018TIP3   OH215017   2.617   0.706   2.213  0.0488  0.4943 -0.0917
 5018TIP3    H115018   2.671   0.717   2.135 -1.0010 -0.3242 -0.9736
 5018TIP3    H215019   2.680   0.701   2.285  1.2828 -1.7186 -1.2000
 5019TIP3   OH215020   4.139   1.336   4.079 -0.0513 -0.0075 -0.1315
 5019TIP3    H115021   4.077   1.314   4.010  0.0621 -3.0374  0.6085
 5019TIP3    H215022   4.216   1.282   4.061  0.7890  0.6752  1.2188
 5020TIP3   OH215023   6.622   6.364   4.955  0.0721 -0.3990 -0.1143
 5020TIP3    H115024   6.600   6.271   4.964 -1.6074  0.0357  0.5511
 5020TIP3    H215025   6.636   6.395   5.045 -1.4762  0.4471 -0.1297
 5021TIP3   OH215026   3.615   5.689   3.499  0.1569  0.0669  0.0129
 5021TIP3    H115027   3.618   5.679   3.594  1.3976 -0.0739 -0.0260
 5021TIP3    H215028   3.655   5.610   3.465 -2.0542 -0.8087 -0.7248
 5022TIP3   OH215029   0.232   1.241   2.804 -0.0352  0.0963  0.1831
 5022TIP3    H115030   0.315   1.233   2.758  0.3798 -0.9927  1.0650
 5022TIP3    H215031   0.245   1.314   2.865  0.6530 -0.6975  1.0222
 5023TIP3   OH215032   4.830   2.029   0.382  0.0589  0.3587 -0.1120
 5023TIP3    H115033   4.881   1.948   0.391  0.9458  0.7824 -1.0451
 5023TIP3    H215034   4.741   2.000   0.365  0.0878 -0.4085  0.9446
 5024TIP3   OH215035   6.391   2.293   0.140  0.2157  0.0815  0.2569
 5024TIP3    H115036   6.470   2.300   0.193  0.3629 -0.1245  0.0680
 5024TIP3    H215037   6.410   2.222   0.078  0.3080  0.7650 -0.5159
 5025TIP3   OH215038   4.852   4.172   3.664 -0.1356  0.3438 -1.0383
 5025TIP3    H115039   4.871   4.166   3.758 -0.8002 -1.7712 -0.9884
 5025TIP3    H215040   4.934   4.203   3.625  0.8174 -0.7591  0.0186
 5026TIP3   OH215041   5.242   5.685   4.504  0.1121  0.1826  0.1173
 5026TIP3    H115042   5.287   5.621   4.559 -0.1771 -0.3458 -0.2507
 5026TIP3    H215043   5.274   5.770   4.534 -0.2505 -0.0780  1.2878
 5027TIP3   OH215044   2.595   5.584   0.952  0.2121  0.4904  0.1752
 5027TIP3    H115045   2.561   5.570   0.864  0.9628  1.4145 -0.2710
 5027TIP3    H215046   2.659   5.514   0.965  0.9488  1.0260 -0.4716
 5028TIP3   OH215047   6.365   1.275   4.646 -0.7551  0.6753 -0.0267
 5028TIP3    H115048   6.421   1.199   4.659  1.0188  1.8018 -0.7344
 5028TIP3    H215049   6.352   1.312   4.734  2.7710  2.4921 -0.1071
 5029TIP3   OH215050   0.134   0.483   3.291  0.2694 -0.0099  0.2528
 5029TIP3    H115051   0.206   0.543   3.271  1.7634 -2.2384 -1.4483
 5029TIP3    H215052   0.166   0.430   3.364 -0.1157 -0.2403  0.2602
 5030TIP3   OH215053   0.149   1.874   3.875  0.1283  0.0354 -0.0954
 5030TIP3    H115054   0.186   1.956   3.844 -0.3884  0.8076  1.2631
 5030TIP3    H215055   0.225   1.819   3.896  0.4699  0.3390 -0.5258
 5031TIP3   OH215056   5.398   1.086   4.442 -0.2172  0.1963 -0.1221
 5031TIP3    H115057   5.373   0.999   4.475 -0.5099  0.6697  0.9196
 5031TIP3    H215058   5.420   1.070   4.350 -1.3079 -0.8040 -0.2426
 5032TIP3   OH215059   3.808   4.261   4.152  0.0460  0.2598 -0.1339
 5032TIP3    H115060   3.829   4.184   4.204 -2.4748  0.7115  1.7424
 5032TIP3    H215061   3.834   4.335   4.208 -1.1867  0.7488 -0.1828
 5033TIP3   OH215062   0.473   6.608   1.688 -0.1773 -0.1626  0.1875
 5033TIP3    H115063   0.406   6.602   1.619 -0.6120 -0.8284  0.6570
 5033TIP3    H215064   0.475   6.701   1.710 -0.4560 -0.0312 -0.3157
 5034TIP3   OH215065   1.104   6.169   1.738 -0.4980 -0.7180 -0.0600
 5034TIP3    H115066   1.139   6.197   1.653 -1.1985  0.3773 -0.0055
 5034TIP3    H215067   1.168   6.105   1.770  1.4362  1.1442  0.0093
 5035TIP3   OH215068   4.013   6.272   3.849 -0.1269  0.3845 -0.3624
 5035TIP3    H115069   3.946   6.257   3.915 -1.1476 -0.6463 -1.5935
 5035TIP3    H215070   3.974   6.243   3.767  0.5027  3.0816 -1.7441
 5036TIP3   OH215071   5.081   4.240   3.524  0.6427 -0.1443  0.2877
 5036TIP3    H115072   5.171   4.272   3.525  1.3987 -2.0784  0.0658
 5036TIP3    H215073   5.066   4.213   3.434  0.0860 -0.4773  0.4751
 5037TIP3   OH215074   2.813   3.755   5.419 -0.0318 -0.0909 -0.6801
 5037TIP3    H115075   2.830   3.674   5.371  2.4829 -0.4734  0.6829
 5037TIP3    H215076   2.826   3.824   5.354  0.2333 -0.7028 -1.2971
 5038TIP3   OH215077   3.165   1.627   0.964 -0.1791  0.1876  0.3866
 5038TIP3    H115078   3.162   1.550   1.021  1.0293 -0.3655 -0.2625
 5038TIP3    H215079   3.249   1.668   0.984  0.6008 -0.4087 -1.4732
 5039TIP3   OH215080   5.299   2.920   2.460 -0.3912 -0.0167  0.1999
 5039TIP3    H115081   5.380   2.969   2.475  0.4213 -1.3602  0.3410
 5039TIP3    H215082   5.250   2.930   2.542  0.1459 -0.1322  0.5419
 5040TIP3   OH215083   2.956   3.207   3.236  0.5278 -0.2386  0.1064
 5040TIP3    H115084   3.024   3.185   3.172 -0.4001 -0.6817 -0.7508
 5040TIP3    H215085   2.941   3.126   3.284 -0.1014 -0.4158 -0.3848
 5041TIP3   OH215086   0.060   0.326   2.089  0.0236  0.0293  0.0714
 5041TIP3    H115087  -0.000   0.268   2.135 -0.0515 -0.4888 -0.6458
 5041TIP3    H215088   0.090   0.273   2.014  1.0949  0.3970  0.2256
 5042TIP3   OH215089   5.748   4.613   0.840  0.6740  0.9061  0.4151
 5042TIP3    H115090   5.747   4.599   0.934 -0.1151  2.5914  0.6959
 5042TIP3    H215091   5.680   4.679   0.824 -2.3798 -2.3997 -1.9109
 5043TIP3   OH215092   5.044   0.662   2.797 -0.4147 -0.2792 -0.0185
 5043TIP3    H115093   5.002   0.722   2.858  0.2941  0.4162 -0.2088
 5043TIP3    H215094   5.092   0.600   2.852 -1.1125 -0.6623  0.1741
 5044TIP3   OH215095   2.119   3.875   5.878  0.6466  0.1074  0.4306
 5044TIP3    H115096   2.101   3.788   5.842 -0.1642  0.0240  0.9945
 5044TIP3    H215097   2.166   3.921   5.809 -0.6185 -0.1415 -0.6426
 5045TIP3   OH215098   6.060   3.264   0.331 -0.2407 -0.0802  0.3647
 5045TIP3    H115099   6.099   3.188   0.373 -1.9266 -1.8188 -0.9921
 5045TIP3    H215100   6.109   3.274   0.249 -0.4166 -0.1186  0.2525
 5046TIP3   OH215101   1.220   4.118   4.452  0.4256  0.2445 -0.5424
 5046TIP3    H115102   1.129   4.113   4.424  0.0516 -2.7292  0.9373
 5046TIP3    H215103   1.262   4.041   4.414  1.5392 -0.1542  1.3567
 5047TIP3   OH215104   6.332   6.050   5.137 -0.3378  0.1516  0.4233
 5047TIP3    H115105   6.372   6.075   5.220 -1.3535 -0.9575  1.2794
 5047TIP3    H215106   6.239   6.040   5.157 -0.2149 -3.0316 -0.0840
 5048TIP3   OH215107   3.655   4.347   4.413  0.1740  0.7378  0.8957
 5048TIP3    H115108   3.568   4.311   4.394  0.3036  1.0401 -0.3112
 5048TIP3    H215109   3.701   4.276   4.457  0.1611 -0.3253 -0.7417
 5049TIP3   OH215110   3.030   1.251   3.796  0.5536 -0.1260  0.0146
 5049TIP3    H115111   3.113   1.203   3.790  0.8159  0.2858  0.2638
 5049TIP3    H215112   2.963   1.183   3.802  0.9875 -0.4752  1.3185
 5050TIP3   OH215113   3.373   3.258   5.485  0.1725 -0.0979  1.0907
 5050TIP3    H115114   3.326   3.262   5.569 -1.1800  0.0293  0.3541
 5050TIP3    H215115   3.322   3.313   5.426  0.3487 -1.2273 -0.1757
 5051TIP3   OH215116   2.938   3.418   0.653  0.1982  0.5220 -0.0033
 5051TIP3    H115117   2.991   3.472   0.595  0.5855 -0.3651 -0.4944
 5051TIP3    H215118   2.912   3.342   0.600  2.1175 -1.2635  1.4185
 5052TIP3   OH215119   7.132   2.134   3.394 -0.0776 -0.1256  0.0087
 5052TIP3    H115120   7.180   2.140   3.477  0.2072 -0.0611 -0.1574
 5052TIP3    H215121   7.142   2.043   3.367 -0.7439 -0.3133  0.3803
 5053TIP3   OH215122   6.685   2.861   5.074  0.3775 -0.1885 -0.1545
 5053TIP3    H115123   6.747   2.788   5.079  0.2245 -0.3498 -0.5617
 5053TIP3    H215124   6.739   2.939   5.088  0.7361 -0.3040 -0.8385
 5054TIP3   OH215125   0.592   3.968   3.740 -0.7730  0.0489  0.4912
 5054TIP3    H115126   0.600   3.873   3.753  1.0438 -0.1051 -1.1928
 5054TIP3    H215127   0.561   3.977   3.650  0.8482  1.0247 -0.0073
 5055TIP3   OH215128   1.942   3.613   2.967 -0.3309 -0.3536  0.1157
 5055TIP3    H115129   2.030   3.613   3.004  0.1381 -0.0980 -0.9394
 5055TIP3    H215130   1.912   3.704   2.975 -0.1941 -0.2786 -0.1742
 5056TIP3   OH215131   2.212   4.543   1.630 -0.4199 -0.5861 -0.2070
 5056TIP3    H115132   2.242   4.633   1.641  1.7020 -1.2165 -0.3516
 5056TIP3    H215133   2.157   4.545   1.551 -2.2796  0.9303  1.0192
 5057TIP3   OH215134   1.256   5.959   1.809  0.1531 -0.2912  0.3637
 5057TIP3    H115135   1.233   5.874   1.773 -2.1917 -0.3566  1.8355
 5057TIP3    H215136   1.259   5.945   1.904 -1.3366  1.4437  0.7139
 5058TIP3   OH215137   6.130   1.619   5.277  0.2673  0.0177 -0.2456
 5058TIP3    H115138   6.098   1.704   5.307  1.0531  0.1850  0.1434
 5058TIP3    H215139   6.221   1.616   5.306  0.1158 -1.1587  0.1872
 5059TIP3   OH215140   5.097   1.624   2.788 -0.1083 -0.2200 -0.3653
 5059TIP3    H115141   5.095   1.689   2.859 -1.3999  0.2072 -0.7604
 5059TIP3    H215142   5.120   1.542   2.832 -2.3393 -0.2780  0.8586
 5060TIP3   OH215143   4.811   6.612   3.283 -0.3260  0.0222 -0.1810
 5060TIP3    H115144   4.810   6.562   3.201 -2.0126 -1.3780  0.6390
 5060TIP3    H215145   4.733   6.668   3.278  0.8474  1.7162 -0.5201
 5061TIP3   OH215146   2.101   4.362   0.194 -0.0434  0.0943  0.2858
 5061TIP3    H115147   2.071   4.453   0.200  2.7404  1.2408 -1.2591
 5061TIP3    H215148   2.069   4.332   0.108 -0.1161 -0.0426  0.3609
 5062TIP3   OH215149   3.784   0.486   3.956 -0.1254  0.0069 -0.4185
 5062TIP3    H115150   3.842   0.492   4.032 -0.3794 -0.4703 -0.1838
 5062TIP3    H215151   3.841   0.502   3.881  0.6398 -1.9155 -0.3039
 5063TIP3   OH215152   2.221   3.853   0.980  0.5290 -0.0913 -0.1202
 5063TIP3    H115153   2.310   3.881   0.958  0.7160 -1.9329 -1.9371
 5063TIP3    H215154   2.190   3.921   1.041  2.4986  1.5592 -0.8188
 5064TIP3   OH215155   4.714   4.537   0.465 -0.4538 -0.5394 -0.1276
 5064TIP3    H115156   4.676   4.599   0.527  0.8341 -0.3650  0.5235
 5064TIP3    H215157   4.807   4.560   0.461 -0.1571 -1.7253 -0.7061
 5065TIP3   OH215158   5.485   5.331   4.848  0.5057  0.4305  0.1261
 5065TIP3    H115159   5.579   5.312   4.843  0.3141 -0.2791 -1.3518
 5065TIP3    H215160   5.473   5.367   4.935  1.9847 -0.4165  0.7279
 5066TIP3   OH215161   2.481   1.665   4.678  0.4368 -0.9074 -0.0583
 5066TIP3    H115162   2.520   1.745   4.642  0.9317 -0.8874  0.5092
 5066TIP3    H215163   2.456   1.690   4.767 -0.6737 -0.9874 -0.3281
 5067TIP3   OH215164   2.411   2.636   5.022  0.3461 -0.8662 -0.1190
 5067TIP3    H115165   2.484   2.584   4.990  2.1076  1.0733  0.5715
 5067TIP3    H215166   2.429   2.725   4.992 -1.4788 -0.2329  0.5084
 5068TIP3   OH215167   1.107   6.294   2.116 -0.3175  0.6962 -0.0493
 5068TIP3    H115168   1.065   6.225   2.167  0.0748 -0.5561 -1.3603
 5068TIP3    H215169   1.163   6.340   2.180  0.2216 -0.8587  0.6463
 5069TIP3   OH215170   1.557   0.563   1.872  0.0767  0.0380 -0.1939
 5069TIP3    H115171   1.570   0.490   1.933  0.7803  0.3989  0.1038
 5069TIP3    H215172   1.645   0.598   1.858 -0.4591  2.4086  1.6207
 5070TIP3   OH215173   2.757   5.418   2.721 -0.0100 -0.2544  0.2188
 5070TIP3    H115174   2.742   5.372   2.638  2.0897  0.4171 -0.6285
 5070TIP3    H215175   2.823   5.365   2.765 -0.7557 -0.3357  1.2584
 5071TIP3   OH215176   3.297   4.533   2.840  0.8072  0.0966  0.2448
 5071TIP3    H115177   3.374   4.537   2.783  0.8439  0.6044  0.3193
 5071TIP3    H215178   3.230   4.583   2.792  0.1857 -1.2092 -0.3080
 5072TIP3   OH215179   0.268   6.699   4.264 -0.5533  0.1620 -0.3570
 5072TIP3    H115180   0.358   6.716   4.235 -0.4083  1.7970  0.9351
 5072TIP3    H215181   0.219   6.775   4.235 -1.8768 -1.2822 -2.1939
 5073TIP3   OH215182   7.140   4.722   0.741  0.2964  0.3589  0.0484
 5073TIP3    H115183   7.213   4.760   0.791  0.2021  0.4556  0.1125
 5073TIP3    H215184   7.104   4.656   0.800  1.7644 -1.3343 -0.8325
 5074TIP3   OH215185   4.507   0.343   3.943 -0.1406  0.5097  0.0247
 5074TIP3    H115186   4.508   0.255   3.905 -0.2280  0.6542 -0.3232
 5074TIP3    H215187   4.570   0.392   3.890 -0.4892  0.7940 -0.1319
 5075TIP3   OH215188   6.892   4.153   2.030 -0.5288 -0.3571 -0.2036
 5075TIP3    H115189   6.956   4.149   2.101 -1.6950 -0.7774  0.8559
 5075TIP3    H215190   6.939   4.119   1.954  0.6795 -0.0960  0.4034
 5076TIP3   OH215191   0.553   0.316   4.464 -1.0102  0.0603  0.0736
 5076TIP3    H115192   0.487   0.247   4.464 -0.7749 -0.1697 -0.1435
 5076TIP3    H215193   0.596   0.309   4.549 -0.1449 -0.8867 -0.4247
 5077TIP3   OH215194   0.885   1.493   4.751 -0.3968 -0.6125  0.2825
 5077TIP3    H115195   0.961   1.504   4.807  0.0548 -0.0921 -0.4180
 5077TIP3    H215196   0.920   1.460   4.668 -0.4593  2.6055 -1.1911
 5078TIP3   OH215197   6.361   6.683   4.040  0.2968  0.0698  0.1934
 5078TIP3    H115198   6.285   6.740   4.025  1.4531  1.3451 -1.1016
 5078TIP3    H215199   6.385   6.652   3.953 -0.0448 -2.1451  0.8241
 5079TIP3   OH215200   5.914   2.060   1.841 -0.1019 -0.4337 -0.5897
 5079TIP3    H115201   5.931   2.100   1.927 -0.0868 -0.0803 -0.7559
 5079TIP3    H215202   5.968   2.111   1.780 -1.2993  0.3364 -1.0436
 5080TIP3   OH215203   7.028   3.980   0.562  0.0619 -0.3761 -0.0551
 5080TIP3    H115204   7.045   4.064   0.604  0.7721 -0.7604  0.4617
 5080TIP3    H215205   7.098   3.923   0.593  0.0518 -0.9468 -1.0205
 5081TIP3   OH215206   4.972   1.630   0.596  0.0693  0.3303  0.5035
 5081TIP3    H115207   4.995   1.563   0.660 -1.3234  1.2446  2.0266
 5081TIP3    H215208   4.939   1.580   0.520  0.7175 -0.7431  0.9090
 5082TIP3   OH215209   1.694   2.710   1.681 -0.2352 -0.0763 -0.9808
 5082TIP3    H115210   1.723   2.742   1.767  0.2389  0.2038 -1.2451
 5082TIP3    H215211   1.608   2.673   1.698  0.1559 -0.6610 -0.2470
 5083TIP3   OH215212   3.257   2.162   2.396 -0.2030 -0.5734 -0.0429
 5083TIP3    H115213   3.236   2.255   2.381 -0.5977 -0.3573  1.6908
 5083TIP3    H215214   3.177   2.126   2.434  0.3498 -1.3458  0.3987
 5084TIP3   OH215215   0.593   3.923   2.509 -0.3273  0.0622 -0.3684
 5084TIP3    H115216   0.497   3.923   2.514 -0.3480 -2.3320  0.3137
 5084TIP3    H215217   0.621   3.881   2.590  1.2727 -0.0014 -0.9223
 5085TIP3   OH215218   5.852   4.731   1.508 -0.5706 -0.3036  0.7385
 5085TIP3    H115219   5.865   4.740   1.414  0.1574  0.3772  0.8998
 5085TIP3    H215220   5.766   4.690   1.516 -0.5159 -0.6320 -0.2260
 5086TIP3   OH215221   4.463   4.037   1.942  0.4866 -0.0073  0.1685
 5086TIP3    H115222   4.464   4.014   2.035 -0.1837 -0.1355  0.1519
 5086TIP3    H215223   4.433   4.128   1.941 -2.3933 -0.8438 -0.0412
 5087TIP3   OH215224   6.933   1.554   4.821  0.3006  0.2003  0.0685
 5087TIP3    H115225   6.989   1.625   4.791  1.0117 -0.4113 -0.0759
 5087TIP3    H215226   6.844   1.588   4.813  0.6545  1.3042  0.6172
 5088TIP3   OH215227   7.114   0.390   5.698  0.0777 -0.2909 -0.0299
 5088TIP3    H115228   7.110   0.478   5.733 -0.1268 -0.9223  1.6158
 5088TIP3    H215229   7.050   0.390   5.627 -0.8168  0.5627  0.7468
 5089TIP3   OH215230   2.943   3.848   2.208  0.0240  0.6071  0.2265
 5089TIP3    H115231   2.871   3.851   2.144  0.1876  0.2405  0.0268
 5089TIP3    H215232   3.020   3.873   2.158  0.4698 -1.4133 -0.1587
 5090TIP3   OH215233   2.130   4.478   5.565  0.9434  0.8851 -0.2332
 5090TIP3    H115234   2.192   4.425   5.515  0.5744  1.7632 -1.6640
 5090TIP3    H215235   2.047   4.469   5.518  0.3680  1.0726  0.7094
 5091TIP3   OH215236   3.628   2.837   5.255 -0.6670 -0.4638 -0.2370
 5091TIP3    H115237   3.619   2.744   5.277  2.1288 -1.0839 -1.2389
 5091TIP3    H215238   3.575   2.847   5.175 -0.8602 -1.2262 -0.2171
 5092TIP3   OH215239   5.431   5.610   1.730 -0.5631  0.2519  0.0370
 5092TIP3    H115240   5.415   5.703   1.710 -1.2510  0.2181  0.3945
 5092TIP3    H215241   5.353   5.565   1.698 -0.1542 -0.2292 -0.2915
 5093TIP3   OH215242   6.159   4.898   0.468 -0.0480  0.1326 -0.0752
 5093TIP3    H115243   6.207   4.845   0.405 -0.8883  1.9310 -2.3697
 5093TIP3    H215244   6.113   4.834   0.523  0.1876 -1.5335 -1.7267
 5094TIP3   OH215245   2.097   4.853   4.105  0.0874 -0.4243  0.7735
 5094TIP3    H115246   2.007   4.882   4.088 -0.3689 -2.1755 -0.0997
 5094TIP3    H215247   2.097   4.831   4.199 -0.1438  0.3629  0.9663
 5095TIP3   OH215248   4.465   0.897   3.045  0.0020  0.4612 -0.1005
 5095TIP3    H115249   4.518   0.881   3.123 -0.2064  1.3086  0.2218
 5095TIP3    H215250   4.397   0.829   3.048 -0.5897  1.0703  0.9858
 5096TIP3   OH215251   3.057   3.441   5.614  0.5283 -0.6491 -0.2221
 5096TIP3    H115252   3.007   3.466   5.692 -1.1392 -2.5647 -0.5882
 5096TIP3    H215253   3.108   3.519   5.592  1.1862 -0.1075  2.8502
 5097TIP3   OH215254   5.194   3.089   0.211  0.3734  0.5505  0.6172
 5097TIP3    H115255   5.154   3.021   0.158  0.2643 -0.1598  1.5908
 5097TIP3    H215256   5.152   3.170   0.182  0.7486  0.2614 -0.7803
 5098TIP3   OH215257   5.335   1.777   5.777 -0.3971 -0.1067  0.3745
 5098TIP3    H115258   5.314   1.698   5.727 -2.5300 -0.5565  1.8015
 5098TIP3    H215259   5.340   1.747   5.868  1.5841  0.9700  0.6735
 5099TIP3   OH215260   2.959   6.384   0.737 -0.1505 -0.1682  0.0082
 5099TIP3    H115261   2.980   6.297   0.704  0.1021  0.5326 -1.7980
 5099TIP3    H215262   2.972   6.442   0.662 -1.9454  1.2072  0.6797
 5100TIP3   OH215263   0.743   2.005   4.981  0.0637  0.0105 -0.5734
 5100TIP3    H115264   0.674   2.068   4.964  0.4847  0.5542 -0.2971
 5100TIP3    H215265   0.724   1.931   4.922  0.6697  1.2167 -2.3698
 5101TIP3   OH215266   6.454   0.077   1.336 -0.2939 -0.2299  0.1239
 5101TIP3    H115267   6.479   0.146   1.274  0.4881 -1.5426 -1.0823
 5101TIP3    H215268   6.487   0.108   1.421  0.4812  0.6572 -0.4823
 5102TIP3   OH215269   4.213   4.404  -0.033  0.5253 -0.1325 -0.1904
 5102TIP3    H115270   4.123   4.396  -0.003  0.0723  2.3509 -0.6775
 5102TIP3    H215271   4.266   4.378   0.043 -0.5804 -0.6122  0.4302
 5103TIP3   OH215272   6.038   2.766   4.813  0.0557 -0.1231  0.5776
 5103TIP3    H115273   6.019   2.702   4.744  0.5161  0.8184 -0.4488
 5103TIP3    H215274   6.133   2.762   4.823  0.1668  0.8299  0.0518
 5104TIP3   OH215275   4.362   5.346   3.902  0.2650  0.0835  0.0409
 5104TIP3    H115276   4.439   5.365   3.956 -0.2968 -1.0309  1.2830
 5104TIP3    H215277   4.394   5.284   3.837  0.1257 -1.5766  1.4919
 5105TIP3   OH215278   5.113   3.179   1.691  0.1340  0.3021 -0.6744
 5105TIP3    H115279   5.165   3.158   1.613  0.3482  0.5240 -0.5906
 5105TIP3    H215280   5.084   3.269   1.677 -1.9026 -0.4176 -1.6658
 5106TIP3   OH215281   5.126   5.943   0.366 -0.3961  0.7460  0.0044
 5106TIP3    H115282   5.134   5.996   0.287  0.1842  1.5168  0.5664
 5106TIP3    H215283   5.141   5.853   0.335  0.9706  1.1480 -0.5948
 5107TIP3   OH215284   3.482   5.805   5.098 -0.3083  0.2845  0.3828
 5107TIP3    H115285   3.543   5.758   5.041  0.0400  0.6613  0.4425
 5107TIP3    H215286   3.432   5.737   5.142 -0.4620 -0.0161 -0.2486
 5108TIP3   OH215287   0.749   6.658   4.711 -0.5272 -0.3518 -0.1367
 5108TIP3    H115288   0.818   6.703   4.759  0.3886 -3.2124  1.5158
 5108TIP3    H215289   0.795   6.595   4.656 -1.7379  0.4776 -2.2108
 5109TIP3   OH215290   5.638   3.079   3.697 -0.0761 -0.9375  0.2004
 5109TIP3    H115291   5.560   3.118   3.658 -0.4531 -0.6367  1.2025
 5109TIP3    H215292   5.706   3.088   3.631 -0.6873 -0.4484 -0.3732
 5110TIP3   OH215293   0.813   1.469   2.292  0.0246  0.4467 -0.5646
 5110TIP3    H115294   0.750   1.401   2.267 -1.7166  2.0307 -0.7378
 5110TIP3    H215295   0.886   1.457   2.231 -1.0393 -0.1546 -1.7902
 5111TIP3   OH215296   1.944   6.067   3.524  0.4915  0.5740 -0.2285
 5111TIP3    H115297   1.933   6.152   3.482 -0.4965 -0.2427 -1.7093
 5111TIP3    H215298   1.986   6.087   3.608 -3.5534  2.9905  1.4748
 5112TIP3   OH215299   6.206   5.336   4.066 -0.2732 -0.1777  0.5169
 5112TIP3    H115300   6.296   5.308   4.048  0.6949  1.3950  2.4595
 5112TIP3    H215301   6.188   5.403   4.001  1.5008  2.2824  2.3667
 5113TIP3   OH215302   3.855   0.982   2.516  0.2976 -0.1486 -0.4511
 5113TIP3    H115303   3.848   0.979   2.611 -4.0812  0.2994 -0.5113
 5113TIP3    H215304   3.885   1.071   2.497  0.8603 -0.1318  0.4776
 5114TIP3   OH215305   4.407   1.506   4.169  0.2350 -0.0938 -0.1970
 5114TIP3    H115306   4.354   1.581   4.195  0.7040 -0.0315  0.6124
 5114TIP3    H215307   4.353   1.459   4.106 -0.7696  0.0026  0.5569
 5115TIP3   OH215308   0.673   5.828   0.714 -0.0057  0.1358 -0.2491
 5115TIP3    H115309   0.732   5.877   0.657 -0.3429  1.1505  0.2528
 5115TIP3    H215310   0.605   5.795   0.655  1.1429 -1.2231 -0.8679
 5116TIP3   OH215311   4.273   0.891   2.716 -0.2255 -0.5717 -0.4134
 5116TIP3    H115312   4.242   0.803   2.693 -1.2362 -0.0058 -1.3164
 5116TIP3    H215313   4.208   0.923   2.779  0.2612 -0.5400  0.0831
 5117TIP3   OH215314   4.528   2.633   5.764 -0.4075  0.5264  0.2708
 5117TIP3    H115315   4.515   2.698   5.695  0.5789  0.5563  0.1051
 5117TIP3    H215316   4.611   2.657   5.805  0.5005 -1.1960 -0.4424
 5118TIP3   OH215317   0.769   3.988   0.627 -0.0331  0.0800 -0.2454
 5118TIP3    H115318   0.821   3.941   0.692 -0.6119  0.0663  0.2218
 5118TIP3    H215319   0.832   4.039   0.577  0.3330  0.9250  1.0279
 5119TIP3   OH215320   6.031   5.025   0.894 -0.1783 -0.5597  0.4167
 5119TIP3    H115321   6.087   4.985   0.960 -1.0833 -0.4263  1.2905
 5119TIP3    H215322   6.014   4.956   0.830  0.9040 -0.6195  0.1769
 5120TIP3   OH215323   6.875   4.173   0.795  0.5054  0.8030 -0.7075
 5120TIP3    H115324   6.938   4.209   0.732  0.1004  0.2262 -1.4700
 5120TIP3    H215325   6.790   4.183   0.751  0.2012  0.5412 -0.1798
 5121TIP3   OH215326   2.645   6.526   1.414  0.3173  0.7042 -0.4088
 5121TIP3    H115327   2.618   6.457   1.353  0.0061  0.6434 -0.2026
 5121TIP3    H215328   2.738   6.510   1.429 -0.3068 -1.3973  1.8534
 5122TIP3   OH215329   6.270   1.247   1.512 -0.1171 -0.3795  0.1836
 5122TIP3    H115330   6.338   1.293   1.462 -0.9048 -0.4028 -0.9447
 5122TIP3    H215331   6.316   1.211   1.588  0.8419  0.8281  0.1967
 5123TIP3   OH215332   1.869   2.147   3.170 -0.1085  0.0897 -0.3088
 5123TIP3    H115333   1.777   2.148   3.198 -0.1184 -1.7015 -0.1252
 5123TIP3    H215334   1.865   2.158   3.075 -0.5459 -0.3745 -0.3457
 5124TIP3   OH215335   4.266   0.883   2.254 -0.4131  0.2561  0.3759
 5124TIP3    H115336   4.337   0.946   2.245  0.1024 -0.1255  1.5134
 5124TIP3    H215337   4.204   0.924   2.315 -1.7065  1.0157 -1.3738
 5125TIP3   OH215338   3.680   4.332   2.528 -0.4873 -0.2719 -0.3402
 5125TIP3    H115339   3.744   4.387   2.572 -0.7471  2.0621 -2.6100
 5125TIP3    H215340   3.614   4.313   2.595  1.6517 -1.3415  1.5858
 5126TIP3   OH215341   0.273   4.874   2.564  0.0774 -0.1989  0.6260
 5126TIP3    H115342   0.314   4.788   2.551  2.7736  0.9943  0.7241
 5126TIP3    H215343   0.279   4.917   2.479 -0.5207  0.2060  0.7825
 5127TIP3   OH215344   1.281   1.422   0.077  0.6081  0.0458  0.0921
 5127TIP3    H115345   1.311   1.386  -0.006  0.5445 -3.0180  1.2537
 5127TIP3    H215346   1.357   1.413   0.136 -0.1962 -0.5140  1.0777
 5128TIP3   OH215347   5.173   3.008   2.171  0.0611 -0.1764 -0.1272
 5128TIP3    H115348   5.251   2.990   2.223  0.3754 -3.9669 -1.6432
 5128TIP3    H215349   5.205   3.059   2.097  0.8543 -0.5228 -0.0348
 5129TIP3   OH215350   7.207   3.354   5.038  0.6647  0.6299  0.3416
 5129TIP3    H115351   7.247   3.431   5.078  0.7616  0.5163  0.4642
 5129TIP3    H215352   7.114   3.360   5.062  1.0143 -0.4183  2.1977
 5130TIP3   OH215353   2.268   4.973   0.790 -0.4002  0.0822  0.7937
 5130TIP3    H115354   2.246   5.040   0.854 -0.4970  0.5189  0.3087
 5130TIP3    H215355   2.185   4.929   0.771 -0.1296 -1.0458  2.0657
 5131TIP3   OH215356   3.898   3.274   1.356 -0.1771  0.0246 -0.9407
 5131TIP3    H115357   3.880   3.242   1.268 -0.5555 -0.0964 -0.8226
 5131TIP3    H215358   3.986   3.310   1.351  0.9437 -2.4730 -0.7151
 5132TIP3   OH215359   6.423   4.270   4.052  0.4187  0.3234  0.1887
 5132TIP3    H115360   6.351   4.317   4.010  0.9466  1.3124  0.3611
 5132TIP3    H215361   6.392   4.180   4.059  0.0813  0.2489 -1.7723
 5133TIP3   OH215362   5.884   0.302   1.495  0.0739  0.1898 -0.4492
 5133TIP3    H115363   5.827   0.225   1.488 -0.4515  0.5502 -0.2263
 5133TIP3    H215364   5.973   0.267   1.487 -0.1322 -0.4952  0.1140
 5134TIP3   OH215365   2.543   3.163   4.825 -1.1314  0.0843  0.8544
 5134TIP3    H115366   2.542   3.249   4.868 -1.1939  0.9836 -0.8322
 5134TIP3    H215367   2.493   3.177   4.744 -0.8329 -1.4508  0.3796
 5135TIP3   OH215368   1.829   4.899   2.968  0.2891 -0.2503 -0.4067
 5135TIP3    H115369   1.756   4.958   2.955  0.3514 -0.1318 -0.2200
 5135TIP3    H215370   1.816   4.862   3.055 -1.0985 -2.3979 -1.4292
 5136TIP3   OH215371   4.445   6.580   4.527 -0.2703 -0.6864  0.0851
 5136TIP3    H115372   4.455   6.654   4.467 -0.9951 -1.0867 -0.5517
 5136TIP3    H215373   4.424   6.621   4.611  0.6717 -0.1247  0.0595
 5137TIP3   OH215374   5.273   2.962   4.229  0.3891 -0.2487 -0.3949
 5137TIP3    H115375   5.215   2.935   4.158  0.6981 -0.5416 -0.5427
 5137TIP3    H215376   5.287   3.055   4.215  0.1600 -0.2324 -0.5103
 5138TIP3   OH215377   0.229   1.365   1.293  0.4933 -0.0540 -0.1362
 5138TIP3    H115378   0.291   1.403   1.230 -2.3720  3.9101 -0.9659
 5138TIP3    H215379   0.204   1.282   1.254  1.4383  0.6672 -2.4706
 5139TIP3   OH215380   5.811   4.711   2.594  0.3289 -0.1049  0.1252
 5139TIP3    H115381   5.864   4.639   2.627 -1.9309 -2.1046 -0.3152
 5139TIP3    H215382   5.766   4.745   2.671 -2.5684 -2.7264 -0.2272
 5140TIP3   OH215383   6.148   2.272   5.237 -0.4684 -1.0698 -0.4509
 5140TIP3    H115384   6.154   2.178   5.253 -1.8048 -0.9572  0.8972
 5140TIP3    H215385   6.188   2.284   5.151 -0.4433 -2.8842 -0.7311
 5141TIP3   OH215386   5.439   4.714   3.296 -0.1579 -0.2002  0.5309
 5141TIP3    H115387   5.415   4.629   3.331 -2.6238  0.7136  1.2265
 5141TIP3    H215388   5.533   4.721   3.314 -0.1605 -2.1970  1.6537
 5142TIP3   OH215389   3.186   4.772   5.195 -0.2107  0.5228 -0.0548
 5142TIP3    H115390   3.125   4.721   5.141 -0.1384  1.2447 -0.8367
 5142TIP3    H215391   3.269   4.768   5.147  0.7108 -1.3800  1.5464
 5143TIP3   OH215392   2.106   2.904   1.979  0.2908  0.2989 -0.2804
 5143TIP3    H115393   2.059   2.976   2.021 -1.5916 -1.2280  0.3414
 5143TIP3    H215394   2.185   2.893   2.032 -0.3277  0.6870  0.7614
 5144TIP3   OH215395   4.363   4.591   0.353  0.1621 -0.4246  0.0327
 5144TIP3    H115396   4.428   4.633   0.296 -1.8835  0.9938 -1.3635
 5144TIP3    H215397   4.280   4.604   0.309 -1.3919 -0.3593  2.7467
 5145TIP3   OH215398   2.325   0.502   3.319 -0.3660  0.4163  0.4196
 5145TIP3    H115399   2.410   0.514   3.277 -0.6932  4.3739  0.5950
 5145TIP3    H215400   2.276   0.447   3.258  2.0772 -1.5873  0.1079
 5146TIP3   OH215401   5.560   4.846   0.876 -0.7806 -0.0794  0.0621
 5146TIP3    H115402   5.554   4.942   0.876  3.0393  0.3282 -1.0622
 5146TIP3    H215403   5.576   4.824   0.967  1.5712  0.7851 -0.0762
 5147TIP3   OH215404   0.667   1.137   2.163 -0.7064  0.3074  0.2249
 5147TIP3    H115405   0.579   1.117   2.193 -0.7266 -1.7035 -0.9396
 5147TIP3    H215406   0.715   1.055   2.175  0.3953  0.7065 -1.1716
 5148TIP3   OH215407   5.769   1.363   1.427 -0.3519  0.4621 -0.0139
 5148TIP3    H115408   5.765   1.419   1.504 -0.4966 -0.5061  0.6891
 5148TIP3    H215409   5.863   1.346   1.415 -0.2402  1.4360 -0.6755
 5149TIP3   OH215410   5.962   5.987   4.895 -0.1516 -0.6524 -0.2323
 5149TIP3    H115411   5.993   6.038   4.820 -0.6546  0.1119  0.0669
 5149TIP3    H215412   5.890   6.038   4.930 -0.3940 -1.3735  0.3354
 5150TIP3   OH215413   1.369   2.087   3.184  0.2938  0.1547  0.5694
 5150TIP3    H115414   1.334   2.078   3.273  0.1980 -1.1003  0.4273
 5150TIP3    H215415   1.300   2.132   3.135  0.2826  0.7075  1.0792
 5151TIP3   OH215416   4.173   6.535   1.630 -0.3497 -0.0562  0.0504
 5151TIP3    H115417   4.137   6.509   1.545 -1.4870 -2.4065  1.1546
 5151TIP3    H215418   4.217   6.456   1.663 -0.9140  0.4273  2.1231
 5152TIP3   OH215419   2.679   2.581   5.249 -0.3918 -0.2766  0.0663
 5152TIP3    H115420   2.766   2.571   5.210 -0.6443 -0.0288 -0.5899
 5152TIP3    H215421   2.644   2.660   5.207 -1.4213 -1.0771 -0.6390
 5153TIP3   OH215422   3.877   1.761   4.832 -0.2723  0.1609 -0.0799
 5153TIP3    H115423   3.955   1.719   4.797 -0.1249  0.6908 -0.4046
 5153TIP3    H215424   3.901   1.788   4.920 -0.1793  0.0882 -0.0835
 5154TIP3   OH215425   0.936   2.209   1.013  0.1029  0.1427  0.1749
 5154TIP3    H115426   0.910   2.224   0.922 -2.6862 -2.1469  0.4737
 5154TIP3    H215427   1.022   2.166   1.006  0.3410  0.7962 -1.2964
 5155TIP3   OH215428   2.242   5.054   3.766  0.0327  0.3351 -0.4894
 5155TIP3    H115429   2.176   4.991   3.793  0.7445 -0.4167 -0.4586
 5155TIP3    H215430   2.196   5.114   3.708 -0.6679 -0.1949 -0.4902
 5156TIP3   OH215431   0.791   4.301   5.497 -0.1693  0.3905 -0.1124
 5156TIP3    H115432   0.768   4.309   5.405  0.9859 -1.1861 -0.5875
 5156TIP3    H215433   0.836   4.217   5.503  0.1406  0.6466  1.8219
 5157TIP3   OH215434   1.613   1.812   4.773  0.8625  0.1794 -0.0770
 5157TIP3    H115435   1.560   1.749   4.822 -0.2366 -0.1160 -1.5667
 5157TIP3    H215436   1.639   1.765   4.694 -0.0032  1.5740 -1.2351
 5158TIP3   OH215437   5.036   1.794   5.400 -0.4560  0.0961  0.1619
 5158TIP3    H115438   5.032   1.700   5.388 -1.0338  0.0060  0.9345
 5158TIP3    H215439   5.115   1.822   5.355  0.9841 -1.0699  1.8373
 5159TIP3   OH215440   3.864   1.550   5.745  0.2024 -0.0277  0.3744
 5159TIP3    H115441   3.901   1.619   5.800  0.1241  0.2140  0.1271
 5159TIP3    H215442   3.881   1.469   5.793  0.6425  0.1267  0.4803
 5160TIP3   OH215443   1.611   5.074   2.367  0.4808  0.2633 -0.0865
 5160TIP3    H115444   1.680   5.008   2.361  0.4930  0.2685 -0.0121
 5160TIP3    H215445   1.656   5.152   2.400  0.7129  0.6796 -1.3505
 5161TIP3   OH215446   6.809   1.576   4.296 -0.5947 -0.3943  0.0406
 5161TIP3    H115447   6.733   1.608   4.248 -0.6986 -0.6027  0.0656
 5161TIP3    H215448   6.884   1.606   4.245 -0.5557  2.2813  1.4683
 5162TIP3   OH215449   0.580   2.410   5.542 -0.1429 -0.3931 -0.0355
 5162TIP3    H115450   0.665   2.380   5.575  0.5201 -0.2183 -1.5204
 5162TIP3    H215451   0.573   2.370   5.456 -1.5147 -0.2706  0.0096
 5163TIP3   OH215452   5.413   2.761   4.528  0.3998  0.0650 -0.4335
 5163TIP3    H115453   5.499   2.764   4.570  0.3624 -0.3391 -0.3219
 5163TIP3    H215454   5.426   2.805   4.443  0.1998  1.9232  0.4466
 5164TIP3   OH215455   5.853   1.603   3.667  0.1427 -0.4941  0.6562
 5164TIP3    H115456   5.911   1.528   3.656  0.9262  0.2176 -0.1850
 5164TIP3    H215457   5.794   1.577   3.738  2.5608 -0.6150  2.8054
 5165TIP3   OH215458   0.078   2.404   5.005  0.2838  0.1103 -0.2680
 5165TIP3    H115459   0.112   2.342   5.069 -0.9292  0.0583  0.3589
 5165TIP3    H215460   0.022   2.351   4.948 -1.0561  0.6433  0.4947
 5166TIP3   OH215461   2.647   6.679   4.583 -0.6193 -0.2540  0.3350
 5166TIP3    H115462   2.611   6.746   4.525 -0.1570 -1.3133 -1.2516
 5166TIP3    H215463   2.727   6.718   4.619 -0.5612  0.1936 -0.2689
 5167TIP3   OH215464   6.389   5.671   4.615  0.2972 -0.6997  0.0180
 5167TIP3    H115465   6.480   5.648   4.629  0.7545 -1.4760 -3.3396
 5167TIP3    H215466   6.390   5.765   4.597  0.3414 -0.6029  0.5134
 5168TIP3   OH215467   3.200   1.280   3.001 -0.1342 -0.1182 -0.0811
 5168TIP3    H115468   3.261   1.354   2.998 -1.1490  0.8088  0.9434
 5168TIP3    H215469   3.249   1.207   2.964  1.5425  0.6279  0.5517
 5169TIP3   OH215470   5.030   5.060   2.140 -0.0771 -0.2436  0.1892
 5169TIP3    H115471   4.942   5.097   2.134 -0.2704 -0.8098 -0.5989
 5169TIP3    H215472   5.083   5.114   2.081  0.0605 -0.0649  0.4688
 5170TIP3   OH215473   4.516   1.509   2.288  0.0387 -0.6343 -0.8227
 5170TIP3    H115474   4.478   1.448   2.351 -0.2575 -1.1338 -1.4677
 5170TIP3    H215475   4.443   1.530   2.230  0.6913 -1.4728 -1.9855
 5171TIP3   OH215476   1.742   6.505   3.779 -0.4062 -0.3456 -0.0876
 5171TIP3    H115477   1.707   6.591   3.802 -0.4205 -0.5920  0.8364
 5171TIP3    H215478   1.769   6.515   3.688 -1.5859  0.2558 -0.3971
 5172TIP3   OH215479   6.606   4.240   3.288  0.1613 -0.0279  0.2407
 5172TIP3    H115480   6.574   4.295   3.360  0.0050  0.0050  0.1470
 5172TIP3    H215481   6.592   4.150   3.319  0.9302 -0.0222  0.6234
 5173TIP3   OH215482   6.718   4.290   4.049 -0.1268  0.7153  0.6373
 5173TIP3    H115483   6.622   4.286   4.044 -0.0403 -0.4718 -0.9745
 5173TIP3    H215484   6.741   4.366   3.995 -0.1043 -0.0788 -0.5021
 5174TIP3   OH215485   3.874   6.108   4.853 -0.3728  0.0200 -0.0690
 5174TIP3    H115486   3.923   6.068   4.781 -0.4361 -0.1443 -0.0213
 5174TIP3    H215487   3.915   6.193   4.866  2.8572 -1.7411  2.8853
 5175TIP3   OH215488   2.962   0.837   2.910 -0.0443 -0.4992  0.0157
 5175TIP3    H115489   2.946   0.872   2.822  1.4518  0.7136  0.1894
 5175TIP3    H215490   2.904   0.888   2.967  2.9373  2.7775  0.4378
 5176TIP3   OH215491   1.747   0.780   1.953 -0.5848  0.4330  0.3866
 5176TIP3    H115492   1.796   0.791   2.034 -1.7674 -1.5544  1.4706
 5176TIP3    H215493   1.814   0.760   1.887  0.2816  0.6155  1.1866
 5177TIP3   OH215494   0.322   5.143   4.591 -0.7139  0.1643  0.3014
 5177TIP3    H115495   0.357   5.071   4.643  0.3898  0.3385 -0.1739
 5177TIP3    H215496   0.242   5.109   4.553 -0.7281 -0.4722  0.8889
 5178TIP3   OH215497   5.435   2.186   0.305  0.3076  0.0357 -0.2001
 5178TIP3    H115498   5.417   2.093   0.289 -2.1730  0.1870  1.1845
 5178TIP3    H215499   5.458   2.221   0.219 -0.9973 -1.4257 -1.1976
 5179TIP3   OH215500   2.782   6.001   2.226 -0.5120 -0.1989 -0.2467
 5179TIP3    H115501   2.844   6.035   2.291  1.3933 -1.9824 -1.0588
 5179TIP3    H215502   2.790   6.061   2.152  0.2896 -0.4367 -0.3610
 5180TIP3   OH215503   0.873   5.816   0.267  0.3556 -0.0907 -0.1351
 5180TIP3    H115504   0.930   5.751   0.226 -1.7712 -1.7048 -0.7630
 5180TIP3    H215505   0.784   5.783   0.250 -0.7278  0.8354  3.0537
 5181TIP3   OH215506   2.015   1.337   1.472  0.3592 -0.1264  0.2469
 5181TIP3    H115507   2.091   1.393   1.487 -0.3707  1.5440 -1.7752
 5181TIP3    H215508   1.955   1.358   1.543  0.5559  0.8721  0.1327
 5182TIP3   OH215509   4.559   3.314   3.018 -0.7466 -0.3019  0.2022
 5182TIP3    H115510   4.576   3.383   3.081 -1.8611 -2.0203  2.5544
 5182TIP3    H215511   4.641   3.265   3.013 -0.7428 -0.3475  0.6256
 5183TIP3   OH215512   0.208   0.501   0.205 -0.4360  0.5087  0.0249
 5183TIP3    H115513   0.273   0.442   0.244  0.6843  2.0543  0.5732
 5183TIP3    H215514   0.154   0.529   0.278  0.8308  2.3615  0.3095
 5184TIP3   OH215515   7.159   0.010   4.433  0.2697  0.6032  0.8853
 5184TIP3    H115516   7.213   0.090   4.427  2.0183 -0.4381  1.8676
 5184TIP3    H215517   7.167  -0.030   4.346  1.8823  0.0212  1.2617
 5185TIP3   OH215518   4.089   1.891   2.625  0.6794  0.3449  0.3576
 5185TIP3    H115519   4.089   1.890   2.721 -0.1895  0.3839  0.3617
 5185TIP3    H215520   4.024   1.957   2.602  1.2259  0.6721 -0.2643
 5186TIP3   OH215521   0.746   5.531   0.706  0.5563  0.4553  0.2353
 5186TIP3    H115522   0.734   5.626   0.703  0.3984  0.5161  1.7529
 5186TIP3    H215523   0.730   5.508   0.798  0.3302 -1.0789 -0.1618
 5187TIP3   OH215524   2.531   4.258   3.827  0.0908  0.4344  0.0035
 5187TIP3    H115525   2.615   4.213   3.840  1.8229  1.7431 -4.6380
 5187TIP3    H215526   2.542   4.342   3.870 -0.0129 -0.4323  1.8036
 5188TIP3   OH215527   1.795   6.704   3.117  0.2922 -0.2972 -0.0755
 5188TIP3    H115528   1.866   6.697   3.053  0.0344 -1.4107 -0.2570
 5188TIP3    H215529   1.716   6.685   3.068 -0.0702  0.3098  0.2648
 5189TIP3   OH215530   6.445   2.507   1.484  0.2365 -0.3262 -0.0136
 5189TIP3    H115531   6.388   2.583   1.491 -2.7917 -2.4410  0.5177
 5189TIP3    H215532   6.487   2.516   1.399  0.3493  2.1018  0.2355
 5190TIP3   OH215533   7.189   4.123   5.179 -0.2961  0.0818  0.7534
 5190TIP3    H115534   7.242   4.201   5.162  0.7373 -0.8517 -0.4411
 5190TIP3    H215535   7.113   4.157   5.226  0.1641  1.8094  0.3438
 5191TIP3   OH215536   2.065   6.076   1.996  0.2140  0.2406 -0.7606
 5191TIP3    H115537   1.993   6.062   1.934  0.8189 -2.4711 -0.9769
 5191TIP3    H215538   2.124   6.136   1.951 -1.3883  1.6987 -0.9957
 5192TIP3   OH215539   4.598   6.480   3.557 -0.6343 -0.0352  0.1379
 5192TIP3    H115540   4.506   6.477   3.582 -1.1596 -1.2180 -1.7282
 5192TIP3    H215541   4.614   6.572   3.536 -1.1928  0.2892  1.0476
 5193TIP3   OH215542   1.193   3.206   0.301 -0.5604  0.0257  0.2428
 5193TIP3    H115543   1.237   3.151   0.237  0.1731 -0.4222  1.1149
 5193TIP3    H215544   1.263   3.241   0.356 -0.9289  2.3234 -0.6052
 5194TIP3   OH215545   3.527   6.288   4.739  0.1642  0.2961  0.1542
 5194TIP3    H115546   3.598   6.304   4.676  1.0942  1.3384  1.4248
 5194TIP3    H215547   3.520   6.193   4.743  1.4726  0.1748 -0.0234
 5195TIP3   OH215548   0.754   0.095   2.495  0.2850 -0.3352 -0.8838
 5195TIP3    H115549   0.707   0.146   2.560  0.9049  0.4973 -1.0680
 5195TIP3    H215550   0.771   0.011   2.538 -0.6696 -0.3667 -0.5453
 5196TIP3   OH215551   4.311   5.021   3.966 -0.0672  0.1318  0.2005
 5196TIP3    H115552   4.371   5.051   3.898  1.2435  0.1870  1.3514
 5196TIP3    H215553   4.350   5.051   4.048 -1.2212 -0.5931  1.0517
 5197TIP3   OH215554   0.294   4.878   3.614  0.0589 -0.1814  0.6273
 5197TIP3    H115555   0.318   4.785   3.617  0.0139 -0.1829  0.9516
 5197TIP3    H215556   0.367   4.920   3.569 -0.5095 -0.5575 -0.6830
 5198TIP3   OH215557   2.968   3.185   5.549  0.5459 -0.1321  0.2940
 5198TIP3    H115558   2.917   3.159   5.626 -1.5132  2.0594 -0.2050
 5198TIP3    H215559   3.018   3.262   5.578 -0.5686  0.9704 -0.6033
 5199TIP3   OH215560   6.369   6.184   5.665 -0.2812  0.4416 -0.0843
 5199TIP3    H115561   6.395   6.254   5.725  2.4894  1.1255 -1.8665
 5199TIP3    H215562   6.390   6.104   5.712 -0.7493  0.8560  0.8694
 5200TIP3   OH215563   0.531   6.773   4.193 -0.4847  0.3602  0.7392
 5200TIP3    H115564   0.622   6.770   4.163 -0.3720  1.3769  0.9310
 5200TIP3    H215565   0.537   6.773   4.288 -0.7735 -1.2744  0.7815
 5201TIP3   OH215566   1.140   4.566   5.628  0.1286 -0.5245  0.6743
 5201TIP3    H115567   1.141   4.470   5.618 -0.6342 -0.4921  0.2541
 5201TIP3    H215568   1.049   4.590   5.616  0.7615  0.6590 -2.9360
 5202TIP3   OH215569   1.689   4.048   4.241 -0.2342  0.0054 -0.0786
 5202TIP3    H115570   1.712   4.029   4.332  2.0436 -0.4820 -0.6991
 5202TIP3    H215571   1.673   3.962   4.202 -2.0745  0.2598  0.0146
 5203TIP3   OH215572   4.976   1.962   4.286  0.2800  0.2234  0.2749
 5203TIP3    H115573   4.904   1.966   4.223  1.1222 -0.9754 -0.8295
 5203TIP3    H215574   4.971   2.044   4.334 -1.5869  0.3302 -0.0213
 5204TIP3   OH215575   6.810   4.926   0.798  0.1395 -0.0731 -0.5552
 5204TIP3    H115576   6.866   4.915   0.721  0.7576  0.1759 -0.1440
 5204TIP3    H215577   6.868   4.962   0.865 -0.3415 -0.5141  0.1045
 5205TIP3   OH215578   6.209   5.261   3.166  0.1242  0.3695  0.3890
 5205TIP3    H115579   6.214   5.357   3.166 -0.2746  0.4098 -0.6786
 5205TIP3    H215580   6.296   5.233   3.137  0.2697  0.4018  0.7906
 5206TIP3   OH215581   0.742   2.676   3.935  0.6258  0.1621  0.0707
 5206TIP3    H115582   0.700   2.724   3.863  0.4982 -3.4696 -2.5705
 5206TIP3    H215583   0.670   2.639   3.985  0.7294  0.8488  0.7438
 5207TIP3   OH215584   1.189   3.202   0.965 -0.1426 -0.2431  0.3628
 5207TIP3    H115585   1.237   3.180   0.884 -2.0965  0.9691 -1.2203
 5207TIP3    H215586   1.110   3.148   0.961 -0.4328  0.1068  1.2795
 5208TIP3   OH215587   0.625   2.592   4.826  0.0990 -0.3781 -0.2953
 5208TIP3    H115588   0.569   2.546   4.763 -2.1205  2.4269 -0.5845
 5208TIP3    H215589   0.713   2.584   4.790 -0.8689 -0.2242 -2.9440
 5209TIP3   OH215590   3.211   6.547   2.348  0.5023 -0.2101  0.3201
 5209TIP3    H115591   3.294   6.593   2.334  0.2249  0.0995 -0.3626
 5209TIP3    H215592   3.230   6.456   2.329  0.5389 -0.0424 -0.4820
 5210TIP3   OH215593   6.234   3.633   2.296  0.5010 -0.3611 -0.4864
 5210TIP3    H115594   6.196   3.712   2.333  2.0219  0.1439  0.0740
 5210TIP3    H215595   6.218   3.640   2.202  3.5414  2.4150 -1.0063
 5211TIP3   OH215596   0.567   6.463   5.410 -0.1123  0.1938  0.1792
 5211TIP3    H115597   0.485   6.454   5.362 -0.5720  2.1768  0.4935
 5211TIP3    H215598   0.610   6.379   5.400 -1.4554 -0.3680 -1.3518
 5212TIP3   OH215599   0.157   2.152   0.418 -0.2996  0.3280  0.1596
 5212TIP3    H115600   0.240   2.105   0.416 -0.3796  0.1656  0.5926
 5212TIP3    H215601   0.180   2.238   0.456  0.0682  1.0995 -1.7092
 5213TIP3   OH215602   6.334   1.502   4.479 -0.3776  0.0123 -0.0138
 5213TIP3    H115603   6.406   1.555   4.513 -0.4604 -1.4510  2.7917
 5213TIP3    H215604   6.337   1.422   4.533 -3.4569 -0.5240 -0.4965
 5214TIP3   OH215605   6.394   2.880   3.072 -0.7703  0.3470  0.3153
 5214TIP3    H115606   6.453   2.910   3.142 -1.9447  0.1353  1.4297
 5214TIP3    H215607   6.363   2.795   3.102 -1.4514  0.3520 -0.3684
 5215TIP3   OH215608   6.619   2.833   0.594 -0.0305  0.0021 -0.1994
 5215TIP3    H115609   6.625   2.922   0.627 -0.3216 -0.0292 -0.0611
 5215TIP3    H215610   6.632   2.777   0.670 -0.3752 -0.0702 -0.1893
 5216TIP3   OH215611   3.504   1.669   4.011 -0.7495  0.2055  0.0680
 5216TIP3    H115612   3.570   1.602   3.993 -3.1069 -1.9059 -1.3040
 5216TIP3    H215613   3.529   1.705   4.096  2.5632  0.1234 -0.7457
 5217TIP3   OH215614   4.055   4.863   5.728  0.3288 -0.2954 -0.1166
 5217TIP3    H115615   4.062   4.793   5.663  1.4588 -0.5401  0.2390
 5217TIP3    H215616   4.139   4.909   5.722 -0.3258  0.9306 -0.2247
 5218TIP3   OH215617   2.423   3.887   5.868 -0.0103 -0.3631 -0.6710
 5218TIP3    H115618   2.403   3.832   5.944  1.8494  0.1844  0.2738
 5218TIP3    H215619   2.473   3.830   5.809  0.3245 -0.2234 -0.5278
 5219TIP3   OH215620   6.721   4.744   3.446  0.2342  0.5977 -0.4534
 5219TIP3    H115621   6.753   4.833   3.461  0.6835  0.0610  2.3645
 5219TIP3    H215622   6.796   4.688   3.467 -1.2753 -0.5434  2.4831
 5220TIP3   OH215623   3.715   5.564   0.605 -0.4117  0.4898 -0.5789
 5220TIP3    H115624   3.783   5.625   0.633 -1.6213  1.4090  0.4923
 5220TIP3    H215625   3.748   5.478   0.630 -0.1937  1.0363  1.1906
 5221TIP3   OH215626   6.056   2.236   5.495  0.0794  0.3842 -0.2222
 5221TIP3    H115627   5.963   2.254   5.499  0.0208  0.2513 -0.8685
 5221TIP3    H215628   6.084   2.269   5.409  0.0397 -2.1342 -1.2974
 5222TIP3   OH215629   3.880   1.596   0.097 -0.4172 -0.1169 -0.1876
 5222TIP3    H115630   3.970   1.627   0.097 -0.0017 -1.2619 -0.1261
 5222TIP3    H215631   3.828   1.673   0.075  0.6017  0.4666 -0.6462
 5223TIP3   OH215632   5.069   0.777   1.664 -0.4300 -0.5140 -0.5913
 5223TIP3    H115633   5.140   0.796   1.604 -0.0621 -0.0504 -0.0232
 5223TIP3    H215634   4.989   0.787   1.611 -0.0740 -1.0625 -1.2312
 5224TIP3   OH215635   2.206   5.242   2.482  0.3282  0.2930 -0.0122
 5224TIP3    H115636   2.294   5.205   2.472  0.0991 -0.3948  0.4700
 5224TIP3    H215637   2.199   5.263   2.575 -0.1643 -0.0308  0.0259
 5225TIP3   OH215638   2.691   5.154   3.305  0.4126 -0.0697 -0.3569
 5225TIP3    H115639   2.744   5.224   3.267 -0.8310  1.1023 -0.0373
 5225TIP3    H215640   2.739   5.074   3.285  1.7597  0.8438 -0.9578
 5226TIP3   OH215641   2.564   5.109   0.888  0.3319  0.6591  0.1233
 5226TIP3    H115642   2.469   5.112   0.898  0.2370  0.6449 -0.7353
 5226TIP3    H215643   2.596   5.180   0.945 -0.2232  1.0394 -0.0303
 5227TIP3   OH215644   4.313   1.049   4.896  0.2313  0.0105 -0.0480
 5227TIP3    H115645   4.293   1.131   4.940  0.0722  0.1737 -0.4137
 5227TIP3    H215646   4.367   1.075   4.821  1.0968 -0.3344  0.4383
 5228TIP3   OH215647   2.389   3.702   4.211  0.3687  0.2481  0.2869
 5228TIP3    H115648   2.348   3.758   4.145  0.6536  0.0428 -0.0666
 5228TIP3    H215649   2.422   3.763   4.277  2.5692  0.7089 -1.1324
 5229TIP3   OH215650   3.196   4.357   1.411  0.1078  0.2804  0.2596
 5229TIP3    H115651   3.125   4.421   1.400  0.2962  0.8475  2.0633
 5229TIP3    H215652   3.174   4.287   1.349 -1.7152  0.7126  0.3473
 5230TIP3   OH215653   5.518   4.905   1.383 -0.1117 -0.4028 -0.1011
 5230TIP3    H115654   5.590   4.929   1.324 -0.6198  0.5296 -0.3563
 5230TIP3    H215655   5.493   4.987   1.425 -1.0495 -0.7071 -0.0447
 5231TIP3   OH215656   1.455   1.991   0.376 -0.3049 -0.4798 -0.3195
 5231TIP3    H115657   1.447   1.899   0.349 -1.5940  0.0170 -1.6965
 5231TIP3    H215658   1.368   2.016   0.404  0.0256  0.3630 -0.0103
 5232TIP3   OH215659   5.123   2.403   3.546 -0.0268 -0.5915  0.0351
 5232TIP3    H115660   5.088   2.489   3.519  3.3777  0.6880 -0.8275
 5232TIP3    H215661   5.136   2.412   3.640  1.6644  0.4616 -0.2602
 5233TIP3   OH215662   3.925   4.997   2.162 -0.1096 -0.0699 -0.2346
 5233TIP3    H115663   4.011   5.040   2.164 -0.9092  1.5782 -0.1871
 5233TIP3    H215664   3.892   5.014   2.074  0.6212 -2.8919 -1.1789
 5234TIP3   OH215665   6.318   5.467   2.530  0.0036  0.2151 -0.0538
 5234TIP3    H115666   6.304   5.474   2.435  1.5549  1.6303 -0.2228
 5234TIP3    H215667   6.230   5.454   2.566 -0.4537 -2.1065 -1.7884
 5235TIP3   OH215668   1.220   5.084   1.660  0.3288 -0.3853  0.3271
 5235TIP3    H115669   1.242   5.019   1.593  2.3675  0.7519 -0.1792
 5235TIP3    H215670   1.227   5.168   1.615 -0.1191  0.3243  1.5247
 5236TIP3   OH215671   5.554   3.068   5.308  0.5751  0.0174 -0.5258
 5236TIP3    H115672   5.472   3.029   5.277  0.6984 -0.1154 -0.6859
 5236TIP3    H215673   5.562   3.040   5.399  1.0250 -0.9312 -0.8419
 5237TIP3   OH215674   0.948   0.804   2.677  0.0069  0.2741 -0.6524
 5237TIP3    H115675   0.896   0.851   2.612 -1.2635  0.0284  0.1357
 5237TIP3    H215676   1.027   0.856   2.688 -0.1599  0.7715 -1.7484
 5238TIP3   OH215677   0.577   3.855   4.428  0.5789 -0.2458 -0.3071
 5238TIP3    H115678   0.667   3.882   4.447  1.0759 -1.3823 -0.9217
 5238TIP3    H215679   0.528   3.876   4.508  1.7315 -1.0768  0.6699
 5239TIP3   OH215680   5.126   6.259   2.327  0.4908  0.3600 -0.0308
 5239TIP3    H115681   5.189   6.209   2.275 -0.6049 -1.7444  0.5261
 5239TIP3    H215682   5.162   6.347   2.332  1.5905  0.1560 -2.7126
 5240TIP3   OH215683   2.955   1.493   4.367  0.5912  0.5428 -0.1778
 5240TIP3    H115684   2.873   1.539   4.351  0.6672  0.7407 -0.0040
 5240TIP3    H215685   2.958   1.482   4.462 -0.4094 -1.6248 -0.3274
 5241TIP3   OH215686   0.882   5.160   5.838 -0.0380 -0.2531  0.1197
 5241TIP3    H115687   0.953   5.139   5.778  0.0044  1.0263 -0.3005
 5241TIP3    H215688   0.802   5.139   5.790  0.0281 -0.6964  0.2014
 5242TIP3   OH215689   6.393   2.351   0.997 -0.5797  0.1076  0.1657
 5242TIP3    H115690   6.405   2.430   1.050  0.3387  0.7187 -0.9176
 5242TIP3    H215691   6.300   2.348   0.979 -0.5254  1.3222 -0.3490
 5243TIP3   OH215692   3.631   5.402   3.778  0.4015  0.2399  0.2287
 5243TIP3    H115693   3.717   5.372   3.749  0.0254 -1.4264  0.7135
 5243TIP3    H215694   3.577   5.323   3.776  0.0048  0.2174  4.1145
 5244TIP3   OH215695   3.097   3.634   3.105  0.3171  0.2899 -0.2883
 5244TIP3    H115696   3.187   3.607   3.124 -0.1348 -2.2272 -1.3291
 5244TIP3    H215697   3.053   3.631   3.191  0.9119  0.2322  0.0202
 5245TIP3   OH215698   5.161   6.389   1.703  0.3111  0.3041  0.1664
 5245TIP3    H115699   5.164   6.325   1.774  0.1897 -0.4958 -0.5401
 5245TIP3    H215700   5.206   6.346   1.630  0.2612  1.0391 -0.3053
 5246TIP3   OH215701   0.656   4.334   4.704 -0.4778 -0.3523  0.0751
 5246TIP3    H115702   0.630   4.313   4.794  0.9711 -1.4733  0.2667
 5246TIP3    H215703   0.750   4.351   4.709 -0.2689 -0.9361 -1.3102
 5247TIP3   OH215704   4.921   5.511   3.071  0.6394 -0.2515  0.6424
 5247TIP3    H115705   4.860   5.440   3.091 -0.2852  0.3155 -0.1193
 5247TIP3    H215706   4.894   5.582   3.129 -0.1870  0.3982 -0.5123
 5248TIP3   OH215707   0.697   0.536   1.789 -0.3072 -0.4872  0.1095
 5248TIP3    H115708   0.612   0.547   1.747  0.5258  1.1594 -1.2262
 5248TIP3    H215709   0.721   0.444   1.772 -0.9612 -0.4377 -1.1499
 5249TIP3   OH215710   3.648   3.651   1.826 -0.3044 -0.5809  0.6371
 5249TIP3    H115711   3.669   3.635   1.734 -1.4403 -0.2373  0.2969
 5249TIP3    H215712   3.650   3.564   1.867 -0.2990 -0.8045  0.1699
 5250TIP3   OH215713   1.251   5.373   5.164 -0.4533  0.1361  0.1288
 5250TIP3    H115714   1.241   5.441   5.097 -0.0659  1.4444  1.3506
 5250TIP3    H215715   1.342   5.344   5.156 -0.1071  1.0182  0.7339
 5251TIP3   OH215716   2.507   3.191   1.840 -0.3208  0.2218 -0.2822
 5251TIP3    H115717   2.451   3.181   1.916 -0.7275 -1.2522 -0.7548
 5251TIP3    H215718   2.504   3.106   1.796  1.7432  0.3189 -0.6968
 5252TIP3   OH215719   4.934   5.391   2.282  0.7499 -0.4494 -0.1145
 5252TIP3    H115720   5.024   5.365   2.261  0.7031  1.4834 -3.3108
 5252TIP3    H215721   4.920   5.471   2.231 -3.1348 -1.2094 -0.4880
 5253TIP3   OH215722   1.668   2.219   5.705 -0.0943  0.1529 -0.8224
 5253TIP3    H115723   1.687   2.172   5.787 -2.0507 -2.6652 -1.8085
 5253TIP3    H215724   1.589   2.269   5.724  0.0827  0.3818 -0.6877
 5254TIP3   OH215725   5.870   1.320   2.980 -0.0555  0.3288  0.1664
 5254TIP3    H115726   5.937   1.386   2.965 -0.2999  0.4765 -0.2945
 5254TIP3    H215727   5.878   1.260   2.906  1.9955 -1.7539  1.9228
 5255TIP3   OH215728   5.314   5.325   4.022  0.0263  0.1919 -0.4547
 5255TIP3    H115729   5.408   5.310   4.013  0.1311  0.7045 -0.2080
 5255TIP3    H215730   5.295   5.397   3.962  0.0382  1.0053  0.5015
 5256TIP3   OH215731   2.122   1.412   3.689  0.4670  0.1995  0.2925
 5256TIP3    H115732   2.213   1.383   3.678  0.3679  0.0470 -0.1817
 5256TIP3    H215733   2.127   1.484   3.752  1.0405  0.7952 -0.4115
 5257TIP3   OH215734   6.998   0.771   1.183 -0.4498  0.2986 -0.3508
 5257TIP3    H115735   6.942   0.794   1.109 -1.3062 -0.8121 -0.0669
 5257TIP3    H215736   6.938   0.738   1.249  0.5966 -1.7604 -0.3618
 5258TIP3   OH215737   7.028   2.272   0.139 -0.0037  0.4883 -0.4992
 5258TIP3    H115738   6.973   2.222   0.200  1.3796  0.7381  1.0306
 5258TIP3    H215739   7.060   2.207   0.077  2.2276 -0.7661  1.7928
 5259TIP3   OH215740   0.876   4.918   3.269  0.4371  0.2705  0.0638
 5259TIP3    H115741   0.817   4.849   3.297 -0.2598  0.5843 -0.6145
 5259TIP3    H215742   0.901   4.963   3.350 -0.8888  0.6363  0.2831
 5260TIP3   OH215743   0.029   5.831   0.259  0.4812  0.2253  0.2048
 5260TIP3    H115744   0.075   5.749   0.243  0.1701  0.3375 -1.5703
 5260TIP3    H215745  -0.059   5.805   0.287  0.5165 -0.0456  0.0659
 5261TIP3   OH215746   1.339   3.489   1.000  0.1976  0.1042 -0.2835
 5261TIP3    H115747   1.302   3.401   0.996 -0.1015  0.2114  0.0444
 5261TIP3    H215748   1.327   3.524   0.912 -1.4409  0.5178  0.0790
 5262TIP3   OH215749   0.071   2.080   1.833  0.3886 -0.9741 -0.1951
 5262TIP3    H115750   0.034   2.164   1.806  0.9230 -1.6190 -3.2995
 5262TIP3    H215751   0.126   2.101   1.908  1.3559  1.6743 -1.5052
 5263TIP3   OH215752   1.385   1.865   1.022 -0.3478 -0.5605 -0.0264
 5263TIP3    H115753   1.353   1.838   0.936 -0.9592 -1.0279  0.3423
 5263TIP3    H215754   1.445   1.796   1.049 -0.4937 -0.6310  0.1157
 5264TIP3   OH215755   0.099   0.781   4.861  0.1835 -0.0179  0.3639
 5264TIP3    H115756   0.085   0.850   4.796 -0.2531  0.5316  1.0224
 5264TIP3    H215757   0.089   0.700   4.813 -0.5147  0.3843 -0.1829
 5265TIP3   OH215758   1.371   6.197   0.077  0.2944 -0.2406  0.4104
 5265TIP3    H115759   1.309   6.262   0.112  0.7804 -0.0904  1.0078
 5265TIP3    H215760   1.442   6.250   0.040  0.9104 -0.4271  1.3012
 5266TIP3   OH215761   5.504   3.708   5.516  0.4167 -0.6943 -0.4021
 5266TIP3    H115762   5.470   3.738   5.432  0.3620 -0.1821 -0.2027
 5266TIP3    H215763   5.480   3.616   5.521  0.5199 -0.7525 -0.9965
 5267TIP3   OH215764   0.835   2.498   4.686  0.3247 -0.6843  0.3285
 5267TIP3    H115765   0.914   2.499   4.740  0.8651  0.2069 -0.4631
 5267TIP3    H215766   0.787   2.421   4.716  1.8048 -1.6246  0.3833
 5268TIP3   OH215767   0.383   5.356   4.202 -0.2700  0.0310  0.2173
 5268TIP3    H115768   0.298   5.314   4.193  1.0793 -2.8345 -0.2349
 5268TIP3    H215769   0.415   5.365   4.113  2.1032 -4.1538  0.3732
 5269TIP3   OH215770   5.097   2.927   2.653  0.7017 -0.0891  0.4685
 5269TIP3    H115771   5.005   2.922   2.628  0.4732  1.2463  0.9607
 5269TIP3    H215772   5.102   3.002   2.713  2.1171 -0.0844  0.3826
 5270TIP3   OH215773   4.142   5.384   1.899  0.2616  0.3464 -0.2435
 5270TIP3    H115774   4.194   5.337   1.833 -1.7673  0.5967 -2.1448
 5270TIP3    H215775   4.187   5.467   1.910  1.1898 -0.0952 -0.5635
 5271TIP3   OH215776   1.918   4.722   1.796  0.5679  0.1396 -0.3297
 5271TIP3    H115777   2.005   4.728   1.835 -0.2266  1.3358  1.4063
 5271TIP3    H215778   1.930   4.751   1.706  1.5565  3.0048  0.6105
 5272TIP3   OH215779   1.485   1.371   5.351 -0.0274 -0.0632  0.3858
 5272TIP3    H115780   1.411   1.339   5.404 -1.1290 -1.3081 -1.7574
 5272TIP3    H215781   1.549   1.399   5.415 -1.9442  0.0984  2.3660
 5273TIP3   OH215782   0.221   0.147   1.182 -0.2097 -0.3391  0.1500
 5273TIP3    H115783   0.133   0.183   1.173 -0.4366 -0.9611 -0.2087
 5273TIP3    H215784   0.273   0.192   1.116 -0.7125 -1.3244 -0.9640
 5274TIP3   OH215785   5.119   5.200   1.672 -0.2890 -0.4633  0.1033
 5274TIP3    H115786   5.198   5.183   1.725  0.1347 -1.6590 -0.8574
 5274TIP3    H215787   5.047   5.168   1.727 -0.0375 -0.0704  0.6758
 5275TIP3   OH215788   4.615   4.547   0.869 -0.4222  0.4218 -0.3149
 5275TIP3    H115789   4.687   4.610   0.861 -0.0142 -0.0392 -0.2819
 5275TIP3    H215790   4.653   4.464   0.842 -0.3537 -0.2525  1.7102
 5276TIP3   OH215791   0.037   3.993   2.359  0.4449  0.0028  0.2327
 5276TIP3    H115792   0.012   3.968   2.447  1.7328 -2.7216 -0.0755
 5276TIP3    H215793   0.069   3.912   2.319  3.6566  1.8642 -1.4030
 5277TIP3   OH215794   5.475   5.530   1.011  0.3011 -0.5313 -0.5515
 5277TIP3    H115795   5.467   5.578   1.093  0.8992 -2.7300  0.8937
 5277TIP3    H215796   5.561   5.488   1.016  0.4645 -0.5023 -2.4450
 5278TIP3   OH215797   6.927   6.608   2.753 -0.8997 -0.1374  0.2958
 5278TIP3    H115798   7.020   6.618   2.773 -0.3047  3.7233 -3.1320
 5278TIP3    H215799   6.883   6.669   2.812 -0.6406  1.4159 -1.0516
 5279TIP3   OH215800   5.687   6.082   5.824  0.0800 -0.8763  0.4365
 5279TIP3    H115801   5.657   6.080   5.732  1.3389 -0.1249 -0.0027
 5279TIP3    H215802   5.733   6.165   5.833  1.4761 -1.7173  1.2740
 5280TIP3   OH215803   0.032   5.760   2.489 -0.2589 -0.1285 -0.3439
 5280TIP3    H115804  -0.050   5.803   2.467  0.5507  2.0457  0.6273
 5280TIP3    H215805   0.042   5.772   2.583  1.1576 -0.3893 -0.4335
 5281TIP3   OH215806   1.961   0.792   4.050 -0.8172 -0.1026  0.3360
 5281TIP3    H115807   1.922   0.733   4.115 -1.7832  1.5290  1.2942
 5281TIP3    H215808   2.007   0.858   4.102  1.2417 -0.5878 -0.7417
 5282TIP3   OH215809   1.567   0.466   2.145  0.0111 -0.2861 -0.0485
 5282TIP3    H115810   1.595   0.380   2.112  0.7580 -0.5381  1.1606
 5282TIP3    H215811   1.598   0.467   2.235 -0.2895  1.1340  0.0498
 5283TIP3   OH215812   5.783   6.242   1.824  0.4870 -0.4678 -0.7932
 5283TIP3    H115813   5.850   6.207   1.882  0.3887 -2.0534 -1.5746
 5283TIP3    H215814   5.806   6.208   1.737 -1.0173 -0.6194 -1.1696
 5284TIP3   OH215815   6.299   2.619   3.133 -0.2215 -0.0286  0.3403
 5284TIP3    H115816   6.332   2.580   3.214  1.6744 -0.0538 -0.4126
 5284TIP3    H215817   6.276   2.545   3.078 -1.6587 -0.0116  0.8683
 5285TIP3   OH215818   0.437   6.011   2.355  0.2907  0.7769  0.4268
 5285TIP3    H115819   0.354   5.964   2.350  0.3250  0.4266  2.2902
 5285TIP3    H215820   0.412   6.103   2.363  0.1979  1.0176 -1.8757
 5286TIP3   OH215821   3.994   4.976   0.905  0.5772 -0.3876 -0.2725
 5286TIP3    H115822   3.999   4.962   0.999 -0.1450 -1.2225 -0.3394
 5286TIP3    H215823   4.030   4.896   0.866  1.6547  0.2900 -0.7225
 5287TIP3   OH215824   0.195   4.603   3.983 -0.2381  0.4844 -0.5363
 5287TIP3    H115825   0.201   4.511   4.012  0.2966  1.1736  1.7419
 5287TIP3    H215826   0.286   4.628   3.965  0.0420  1.3720  1.7733
 5288TIP3   OH215827   5.163   4.963   1.270 -0.3191 -0.2998  0.1668
 5288TIP3    H115828   5.145   4.972   1.364 -1.4282 -1.4960  0.0987
 5288TIP3    H215829   5.228   5.031   1.252  1.2635 -1.1653  2.1593
 5289TIP3   OH215830   3.006   1.541   2.736 -0.3937 -0.2335  0.2877
 5289TIP3    H115831   3.075   1.607   2.734 -0.1800 -0.4563 -1.7553
 5289TIP3    H215832   2.932   1.583   2.692 -0.3845 -1.2016 -0.6761
 5290TIP3   OH215833   0.928   6.431   3.445 -0.5279  0.1154  0.2861
 5290TIP3    H115834   0.859   6.401   3.504 -0.6039  1.4129  0.8904
 5290TIP3    H215835   1.009   6.425   3.496 -0.1195 -1.6546 -0.5087
 5291TIP3   OH215836   1.594   5.895   4.557  0.3112 -0.2000 -0.1415
 5291TIP3    H115837   1.635   5.973   4.518 -0.8139  0.3892 -0.1881
 5291TIP3    H215838   1.656   5.825   4.540  0.1104  0.1176 -2.6310
 5292TIP3   OH215839   0.781   0.436   3.725 -0.4172  0.5821 -0.4443
 5292TIP3    H115840   0.779   0.524   3.762  0.1539  0.2600  0.3622
 5292TIP3    H215841   0.867   0.429   3.683 -0.2655  0.2427 -0.0850
 5293TIP3   OH215842   3.226   2.158   5.885  0.5031 -0.4087 -0.3003
 5293TIP3    H115843   3.208   2.223   5.817 -1.6223 -0.8806 -0.2544
 5293TIP3    H215844   3.252   2.210   5.961 -0.9031  0.4186 -0.3399
 5294TIP3   OH215845   0.824   3.569   3.393  0.3205  0.3344 -0.0418
 5294TIP3    H115846   0.817   3.483   3.435 -0.2090  1.4793  2.4158
 5294TIP3    H215847   0.765   3.564   3.318 -0.1527 -1.2781  0.3907
 5295TIP3   OH215848   1.302   3.736   3.083  0.0306  0.0360 -0.1292
 5295TIP3    H115849   1.209   3.718   3.073  0.3299 -0.7793 -1.9647
 5295TIP3    H215850   1.310   3.776   3.170 -1.8387 -1.0716  0.6206
 5296TIP3   OH215851   2.074   6.787   1.229 -0.1249 -0.0916 -0.0566
 5296TIP3    H115852   2.117   6.737   1.298  0.4196  0.9955  0.4213
 5296TIP3    H215853   2.026   6.856   1.275 -0.3860  0.1794 -0.7169
 5297TIP3   OH215854   5.476   4.048   4.248  0.2533  0.0975 -0.0848
 5297TIP3    H115855   5.394   4.036   4.202 -0.6659 -1.3427  1.7758
 5297TIP3    H215856   5.543   4.018   4.187 -0.7948 -0.6953 -0.8781
 5298TIP3   OH215857   6.274   2.737   0.903 -0.4805  0.6067  0.0269
 5298TIP3    H115858   6.338   2.728   0.974 -0.9625 -0.6211  0.3372
 5298TIP3    H215859   6.271   2.650   0.862 -0.9162  1.0363 -0.8870
 5299TIP3   OH215860   0.801   3.064   5.366 -0.4418 -0.2593 -0.4369
 5299TIP3    H115861   0.868   2.999   5.388  0.1615  0.1497 -1.0570
 5299TIP3    H215862   0.849   3.137   5.329 -1.1851  0.2708 -0.3785
 5300TIP3   OH215863   6.289   3.924   5.883  0.5926  0.1737 -0.1320
 5300TIP3    H115864   6.230   3.982   5.932  0.3709  0.3329 -0.5844
 5300TIP3    H215865   6.230   3.863   5.837  0.8098 -0.1579  0.0234
 5301TIP3   OH215866   2.299   3.002   3.777 -0.3879 -0.2400 -0.0112
 5301TIP3    H115867   2.328   3.062   3.708  1.2822 -1.6456 -0.6142
 5301TIP3    H215868   2.291   3.056   3.855 -0.3870  1.0308 -0.8704
 5302TIP3   OH215869   5.323   5.991   2.800 -0.4372  0.4096 -0.2468
 5302TIP3    H115870   5.274   5.962   2.878  0.8129 -1.5264 -0.1009
 5302TIP3    H215871   5.264   5.975   2.727 -1.0619  0.8026  0.1632
 5303TIP3   OH215872   6.865   6.064   0.413  0.4282  0.2605  0.3036
 5303TIP3    H115873   6.922   6.000   0.455  2.0740  1.9218  0.6992
 5303TIP3    H215874   6.916   6.097   0.339 -0.6806  0.6070 -0.3301
 5304TIP3   OH215875   2.353   1.227   4.211  0.5542 -0.0158 -0.1727
 5304TIP3    H115876   2.445   1.222   4.237 -0.0790 -0.4640  2.2265
 5304TIP3    H215877   2.305   1.191   4.285 -1.6102  0.7605 -1.1069
 5305TIP3   OH215878   4.589   0.194   3.625  0.3368  0.1927 -0.0138
 5305TIP3    H115879   4.668   0.247   3.635 -0.1681  0.8722  0.4724
 5305TIP3    H215880   4.603   0.145   3.544  1.7828 -0.6400  0.6869
 5306TIP3   OH215881   3.332   6.533   3.173 -0.1320 -0.3563  0.5673
 5306TIP3    H115882   3.282   6.608   3.139 -0.9930 -1.4351 -0.6733
 5306TIP3    H215883   3.268   6.462   3.176 -0.1117 -0.3950  4.5761
 5307TIP3   OH215884   0.534   3.091   3.635 -0.0027 -0.2201 -0.0811
 5307TIP3    H115885   0.464   3.103   3.700  0.1397  1.2049 -0.1627
 5307TIP3    H215886   0.612   3.127   3.677  0.3797 -0.5102 -0.5348
 5308TIP3   OH215887   3.861   6.771   5.157 -0.7726  0.1593  0.3866
 5308TIP3    H115888   3.767   6.780   5.171 -0.5460 -0.5291  2.6002
 5308TIP3    H215889   3.884   6.688   5.199  1.0564  1.0382  1.2113
 5309TIP3   OH215890   3.121   3.732   2.576 -0.3020 -0.0616  0.0429
 5309TIP3    H115891   3.070   3.794   2.628 -1.2142  0.1929 -1.1142
 5309TIP3    H215892   3.062   3.706   2.506  0.8241 -0.5649 -0.7379
 5310TIP3   OH215893   4.979   6.032   2.623  0.1018 -0.3267 -0.1723
 5310TIP3    H115894   4.941   6.119   2.609  0.0275 -0.0807  1.4033
 5310TIP3    H215895   4.996   6.028   2.717  1.9370 -1.2793 -0.5019
 5311TIP3   OH215896   1.251   2.410   0.196  0.6340  0.1017  0.9758
 5311TIP3    H115897   1.270   2.503   0.204  1.6067  0.0193 -0.1540
 5311TIP3    H215898   1.166   2.399   0.240 -1.0687  2.0740 -1.5213
 5312TIP3   OH215899   3.412   1.590   5.686 -0.0816  0.5328 -0.1293
 5312TIP3    H115900   3.363   1.652   5.633  0.4516 -0.1355 -1.4304
 5312TIP3    H215901   3.399   1.505   5.643  2.1945  0.3343 -0.5420
 5313TIP3   OH215902   0.154   4.583   2.264  0.4576 -0.2452  0.2559
 5313TIP3    H115903   0.105   4.597   2.184 -0.2253 -0.2685  0.6649
 5313TIP3    H215904   0.092   4.542   2.324  0.7911  0.2941  0.9869
 5314TIP3   OH215905   7.024   3.680   5.250  0.0308  0.1969 -0.1133
 5314TIP3    H115906   7.112   3.687   5.212 -0.4969  0.0943 -1.4065
 5314TIP3    H215907   6.997   3.590   5.230 -0.4716  0.3097  0.0568
 5315TIP3   OH215908   2.691   0.388   2.080  0.1386 -0.3297  0.3380
 5315TIP3    H115909   2.680   0.353   2.168 -0.4275  0.2703  0.5144
 5315TIP3    H215910   2.608   0.432   2.061  0.1286 -0.7592 -0.6354
 5316TIP3   OH215911   4.861   2.297   3.704 -0.4586 -0.4532  0.5061
 5316TIP3    H115912   4.832   2.386   3.724 -0.0863  0.0435 -1.0064
 5316TIP3    H215913   4.896   2.264   3.787 -1.6187  0.3852  1.3655
 5317TIP3   OH215914   3.611   1.314   3.014 -0.1611 -0.2536  0.0979
 5317TIP3    H115915   3.561   1.267   2.948  1.0526 -1.0433 -0.2949
 5317TIP3    H215916   3.703   1.294   2.994  0.3270  1.1190  0.8068
 5318TIP3   OH215917   0.074   5.665   5.464 -0.1361 -0.0370 -0.2237
 5318TIP3    H115918   0.054   5.611   5.541  2.5888 -0.8068  0.0610
 5318TIP3    H215919   0.170   5.668   5.462 -0.1612  1.2680 -2.7245
 5319TIP3   OH215920   1.996   3.369   2.362 -0.3211 -0.3378  0.1045
 5319TIP3    H115921   1.969   3.313   2.289  0.7426 -0.0991 -0.5030
 5319TIP3    H215922   1.917   3.382   2.413 -1.1418 -0.3885 -1.1014
 5320TIP3   OH215923   3.274   5.690   3.202 -0.5707  0.3492 -0.1615
 5320TIP3    H115924   3.232   5.749   3.140 -2.1799 -1.7872 -1.2658
 5320TIP3    H215925   3.349   5.654   3.154  0.0247  0.9968  0.2739
 5321TIP3   OH215926   0.103   4.726   0.991 -0.1565 -0.0960  0.0126
 5321TIP3    H115927   0.152   4.663   0.937 -0.0370  0.9313 -1.1118
 5321TIP3    H215928   0.167   4.760   1.053  0.3184  0.4756 -0.7767
 5322TIP3   OH215929   4.219   1.775   4.896  0.2300 -0.6102  0.6112
 5322TIP3    H115930   4.296   1.737   4.853 -0.8387 -0.4855 -1.5177
 5322TIP3    H215931   4.170   1.699   4.929  0.6842 -0.7477  0.9860
 5323TIP3   OH215932   4.117   6.167   5.532  0.1189  0.1456 -0.2630
 5323TIP3    H115933   4.193   6.123   5.568 -0.2827 -0.9324 -0.7132
 5323TIP3    H215934   4.121   6.256   5.568  0.2875 -0.5925  1.6169
 5324TIP3   OH215935   4.874   2.331   2.628 -0.0715  0.1044 -0.0145
 5324TIP3    H115936   4.788   2.295   2.610  0.6424 -1.0729 -1.2488
 5324TIP3    H215937   4.926   2.311   2.550  1.2655  0.9758  0.6018
 5325TIP3   OH215938   6.626   1.826   5.179  0.7656 -0.0024 -0.4155
 5325TIP3    H115939   6.564   1.883   5.134  0.4079 -0.6170 -0.7243
 5325TIP3    H215940   6.694   1.884   5.211  1.2325  0.4027 -2.0717
 5326TIP3   OH215941   0.717   3.685   0.442 -0.1417 -0.2547 -0.4466
 5326TIP3    H115942   0.749   3.774   0.460 -0.0349 -0.4934  0.6767
 5326TIP3    H215943   0.623   3.690   0.457 -0.2132 -0.2048 -0.9213
 5327TIP3   OH215944   2.339   4.645   3.514 -0.1693  0.0936 -0.4730
 5327TIP3    H115945   2.313   4.734   3.536 -0.7729 -0.3977  0.8898
 5327TIP3    H215946   2.407   4.623   3.578 -0.9901 -0.8949  0.0823
 5328TIP3   OH215947   3.098   0.034   1.409  0.1943  0.3993  0.0868
 5328TIP3    H115948   3.175   0.081   1.439  0.3097  0.1030  0.2598
 5328TIP3    H215949   3.127  -0.056   1.398 -0.2838  0.1429  0.7951
 5329TIP3   OH215950   0.867   4.896   0.820  0.1535  0.0544 -0.0818
 5329TIP3    H115951   0.955   4.857   0.819  0.4345  0.6758 -0.1656
 5329TIP3    H215952   0.840   4.895   0.729  1.3591  2.6556 -0.5649
 5330TIP3   OH215953   6.758   2.461   3.933  0.0034 -0.0718 -0.4843
 5330TIP3    H115954   6.729   2.409   3.858 -2.3957 -1.1532  1.0418
 5330TIP3    H215955   6.694   2.532   3.939  1.0058  0.8385 -0.2590
 5331TIP3   OH215956   4.209   1.031   2.497  0.2509 -0.1096 -0.3957
 5331TIP3    H115957   4.245   1.000   2.581  0.3691 -0.9025 -0.7398
 5331TIP3    H215958   4.139   1.091   2.523 -0.7905 -1.5715  0.2790
 5332TIP3   OH215959   0.434   3.310   2.164  0.5356  0.5145  0.1916
 5332TIP3    H115960   0.463   3.311   2.255 -0.3068 -0.8103  0.5056
 5332TIP3    H215961   0.482   3.382   2.122  1.8117  0.4057  1.3988
 5333TIP3   OH215962   6.298   0.438   5.571  0.4401  0.1538 -0.1365
 5333TIP3    H115963   6.226   0.497   5.595 -0.6784 -0.3796 -1.9597
 5333TIP3    H215964   6.377   0.485   5.597 -0.5242  0.6912  2.0706
 5334TIP3   OH215965   6.300   6.410   5.462  0.3810  0.0279  0.6626
 5334TIP3    H115966   6.264   6.396   5.549  0.9188  1.4900  1.1661
 5334TIP3    H215967   6.379   6.463   5.477 -0.9113  2.6162 -0.8367
 5335TIP3   OH215968   7.003   4.912   0.241 -0.1930 -0.0818  0.0743
 5335TIP3    H115969   7.049   4.975   0.297 -2.1986  0.8573  0.7876
 5335TIP3    H215970   7.067   4.844   0.224  1.6712  1.4886  0.3873
 5336TIP3   OH215971   1.897   6.522   4.951  0.4034 -0.4649 -0.4149
 5336TIP3    H115972   1.990   6.502   4.953  0.4244 -0.3610 -0.3501
 5336TIP3    H215973   1.892   6.618   4.953  0.2648 -0.4795  1.0691
 5337TIP3   OH215974   1.470   1.232   4.692 -0.5011 -0.4788  0.6245
 5337TIP3    H115975   1.421   1.314   4.693 -0.4415 -0.4464  0.7905
 5337TIP3    H215976   1.454   1.193   4.778 -0.3193 -0.5176  0.6421
 5338TIP3   OH215977   0.398   4.910   1.007  0.4578 -0.3101 -0.6267
 5338TIP3    H115978   0.482   4.866   1.019  1.4067  1.6681  0.5600
 5338TIP3    H215979   0.400   4.941   0.916  0.2167 -1.7315 -1.1469
 5339TIP3   OH215980   4.971   1.367   4.839  0.1950 -0.1274 -0.8338
 5339TIP3    H115981   5.046   1.421   4.862  0.4751 -0.9659  0.2867
 5339TIP3    H215982   4.921   1.420   4.777  0.3046  1.5265  0.4418
 5340TIP3   OH215983   3.509   2.445   4.384  0.0734  0.1606 -0.0918
 5340TIP3    H115984   3.444   2.418   4.319 -0.3475 -1.8693  1.0590
 5340TIP3    H215985   3.459   2.496   4.448 -0.1686 -0.4153  0.1881
 5341TIP3   OH215986   3.029   5.665   0.933  0.4856  0.1515  0.2082
 5341TIP3    H115987   3.087   5.620   0.872  0.7571  2.3904 -1.2817
 5341TIP3    H215988   3.026   5.755   0.902 -0.2643  1.1446  2.8714
 5342TIP3   OH215989   1.791   5.500   4.914 -0.3932  0.1034 -0.6449
 5342TIP3    H115990   1.765   5.488   5.006  0.1321  0.5534 -0.4312
 5342TIP3    H215991   1.709   5.495   4.865 -0.8026  0.7659 -0.0576
 5343TIP3   OH215992   1.957   5.740   0.806  0.0578  0.1913 -0.0340
 5343TIP3    H115993   2.020   5.739   0.877  1.9238 -1.1692 -1.5990
 5343TIP3    H215994   1.898   5.667   0.825 -0.2639  0.6356  0.7361
 5344TIP3   OH215995   4.102   2.749   3.658  0.2339 -0.4516  0.3166
 5344TIP3    H115996   4.197   2.742   3.668  0.0322 -0.1044  3.6273
 5344TIP3    H215997   4.090   2.822   3.597  2.0601 -1.1382 -0.9448
 5345TIP3   OH215998   6.473   1.917   2.781  0.1441  0.2092  0.2401
 5345TIP3    H115999   6.549   1.895   2.728  1.1782  0.4903  1.5588
 5345TIP3    H216000   6.462   2.012   2.769  0.1988  0.2243  0.3119
 5346TIP3   OH216001   0.627   6.755   0.229  0.3382  0.1914  0.0374
 5346TIP3    H116002   0.719   6.767   0.250  1.1761 -1.0657 -2.5248
 5346TIP3    H216003   0.607   6.666   0.258  0.7451 -0.5309 -1.7460
 5347TIP3   OH216004   6.147   6.490   4.430  0.3598  0.3155 -0.2832
 5347TIP3    H116005   6.103   6.480   4.514 -1.6855 -0.8277 -1.4091
 5347TIP3    H216006   6.136   6.582   4.408 -0.3676  0.3126  0.0461
 5348TIP3   OH216007   4.117   4.396   2.637  0.0837  0.3979 -0.1726
 5348TIP3    H116008   4.075   4.358   2.714 -0.8406  2.2051  0.2691
 5348TIP3    H216009   4.064   4.472   2.615  2.2702  1.9412 -0.5078
 5349TIP3   OH216010   0.560   5.142   2.044  0.5029  0.6877 -0.7444
 5349TIP3    H116011   0.475   5.099   2.053  0.3723  0.7132 -1.7256
 5349TIP3    H216012   0.557   5.183   1.958  0.4680  3.0544  0.3197
 5350TIP3   OH216013   6.605   2.057   5.775 -0.3923 -0.0858 -0.2543
 5350TIP3    H116014   6.691   2.078   5.739  0.1554  0.4268  1.2686
 5350TIP3    H216015   6.583   1.972   5.737  0.1964  0.3732 -1.6669
 5351TIP3   OH216016   2.943   4.489   5.310  0.2532 -0.4424 -0.2428
 5351TIP3    H116017   2.979   4.416   5.259 -0.2433 -0.2969 -0.8099
 5351TIP3    H216018   3.004   4.499   5.383  1.3595 -0.2207 -1.1695
 5352TIP3   OH216019   2.565   1.146   1.921  0.0861  0.0160  0.0533
 5352TIP3    H116020   2.519   1.083   1.976 -0.0264  1.0527  1.1910
 5352TIP3    H216021   2.631   1.184   1.978  0.6646  0.3741 -0.8373
 5353TIP3   OH216022   1.667   4.220   1.687  0.2916  0.2365  0.2236
 5353TIP3    H116023   1.612   4.142   1.680  0.6072 -0.0465  0.8730
 5353TIP3    H216024   1.712   4.211   1.770  0.9861  0.6943 -0.0922
 5354TIP3   OH216025   6.003   2.494   4.990  0.2927  0.5289  0.7302
 5354TIP3    H116026   5.918   2.509   5.032 -0.2488  0.2387 -0.2101
 5354TIP3    H216027   5.980   2.456   4.905  1.4315 -2.5066  1.6299
 5355TIP3   OH216028   1.449   4.573   4.133 -0.8204  0.0980  0.9209
 5355TIP3    H116029   1.360   4.572   4.097 -1.5385  0.1188  2.5897
 5355TIP3    H216030   1.441   4.622   4.215  0.7682  0.2184  1.0264
 5356TIP3   OH216031   1.760   4.660   0.071  0.1570  0.2357 -0.0442
 5356TIP3    H116032   1.802   4.591   0.020 -1.3549 -0.3929 -0.4879
 5356TIP3    H216033   1.706   4.613   0.135  0.8811  1.0150  1.1672
 5357TIP3   OH216034   6.458   6.389   3.390  0.3951  0.7349  0.3060
 5357TIP3    H116035   6.539   6.396   3.339  0.9025  2.1327  1.2350
 5357TIP3    H216036   6.488   6.365   3.478  0.0431  3.1280  1.1568
 5358TIP3   OH216037   1.978   0.632   0.860 -0.0265  0.3149  0.2528
 5358TIP3    H116038   2.005   0.673   0.942  0.7598 -0.4175  0.3755
 5358TIP3    H216039   2.014   0.688   0.791  0.0425  0.4631  0.4102
 5359TIP3   OH216040   1.201   5.075   2.887  0.3099 -0.6756 -0.5342
 5359TIP3    H116041   1.146   5.016   2.939  1.8510 -2.2856 -0.6682
 5359TIP3    H216042   1.220   5.026   2.807  1.4559  0.0713 -0.7438
 5360TIP3   OH216043   0.699   6.296   5.731 -0.4469 -0.5085  0.6197
 5360TIP3    H116044   0.688   6.380   5.777  0.6505  1.9775 -3.1922
 5360TIP3    H216045   0.793   6.291   5.712 -0.9213 -0.8347 -2.0592
 5361TIP3   OH216046   3.770   5.056   1.264  0.1685 -0.5520  0.2574
 5361TIP3    H116047   3.833   4.988   1.239 -1.0811 -2.2631  1.4223
 5361TIP3    H216048   3.771   5.054   1.360 -0.1532  0.8605  0.3066
 5362TIP3   OH216049   5.658   2.414   4.745  0.1905 -0.1840 -0.0580
 5362TIP3    H116050   5.747   2.432   4.776  0.5341 -0.6194 -0.7795
 5362TIP3    H216051   5.610   2.389   4.824  0.7547 -0.1283  0.3062
 5363TIP3   OH216052   2.919   5.851   5.552 -0.5264 -0.2383  0.0090
 5363TIP3    H116053   2.857   5.882   5.618 -0.5086 -1.8003  0.7992
 5363TIP3    H216054   2.864   5.809   5.486 -0.6211  2.0520 -1.4740
 5364TIP3   OH216055   2.051   5.291   0.936  0.0702  0.1053  0.7975
 5364TIP3    H116056   2.064   5.342   0.856  0.3793  1.2695  1.5618
 5364TIP3    H216057   1.957   5.277   0.941  0.2428 -2.5807 -1.2975
 5365TIP3   OH216058   2.979   4.191   0.421 -0.0623 -0.6614  0.2488
 5365TIP3    H116059   2.936   4.106   0.415 -1.2657 -0.0088 -1.0454
 5365TIP3    H216060   2.960   4.221   0.510  1.0767 -2.0556  1.0042
 5366TIP3   OH216061   1.901   1.122   5.638 -0.2425  0.1356 -0.1303
 5366TIP3    H116062   1.907   1.058   5.567 -1.1063  0.6262 -0.6623
 5366TIP3    H216063   1.863   1.074   5.711  1.0162 -0.4766  0.1620
 5367TIP3   OH216064   1.385   0.504   0.719  0.1924  0.0212 -0.2716
 5367TIP3    H116065   1.368   0.432   0.779  0.1268  2.3536  2.7535
 5367TIP3    H216066   1.419   0.574   0.774  0.5011  2.2653 -3.0564
 5368TIP3   OH216067   0.039   0.955   4.530  0.3230 -0.3638  0.7515
 5368TIP3    H116068   0.006   1.027   4.584 -0.0942 -0.2673  0.3811
 5368TIP3    H216069   0.098   0.997   4.467 -1.0860 -0.0916 -0.4559
 5369TIP3   OH216070   1.814   1.066   0.636  0.2531  0.0110 -0.0466
 5369TIP3    H116071   1.796   1.131   0.568  2.0394  0.6369  0.0486
 5369TIP3    H216072   1.784   1.107   0.717 -4.2457 -1.6781 -0.5500
 5370TIP3   OH216073   5.761   5.619   3.430  0.1936  0.2973 -0.4626
 5370TIP3    H116074   5.684   5.572   3.401 -0.2959  0.4822  0.5062
 5370TIP3    H216075   5.774   5.687   3.363  1.7269 -1.9730 -2.6352
 5371TIP3   OH216076   4.367   5.949   2.867 -0.3593  0.5294  0.0877
 5371TIP3    H116077   4.443   5.953   2.810 -0.2668 -1.3880  0.0147
 5371TIP3    H216078   4.293   5.975   2.812 -0.1278 -0.2979 -0.6321
 5372TIP3   OH216079   1.163   0.151   5.717  0.1551 -0.3859  0.0924
 5372TIP3    H116080   1.149   0.063   5.752  0.4861 -0.2371  0.6257
 5372TIP3    H216081   1.182   0.138   5.624  2.9988 -1.1520  0.6815
 5373TIP3   OH216082   2.071   1.949   5.331  0.0058  0.1913 -0.1648
 5373TIP3    H116083   2.099   1.942   5.422 -0.9806 -0.4263  0.1043
 5373TIP3    H216084   2.126   2.018   5.294  0.4573  0.4044  0.8801
 5374TIP3   OH216085   2.599   3.699   0.902 -0.1038  0.1790 -0.0642
 5374TIP3    H116086   2.541   3.757   0.851  0.4154  1.6992  1.0108
 5374TIP3    H216087   2.574   3.715   0.993  1.6988  0.5533  0.4001
 5375TIP3   OH216088   6.301   4.255   5.856  0.3190  0.2316 -0.3977
 5375TIP3    H116089   6.293   4.195   5.930  2.1404  2.0331  1.4236
 5375TIP3    H216090   6.391   4.288   5.863 -0.2592  2.3145 -1.9473
 5376TIP3   OH216091   0.993   3.043   4.354  0.0566 -0.1608 -0.5862
 5376TIP3    H116092   0.958   2.957   4.328  0.8501 -1.4845  2.2723
 5376TIP3    H216093   0.916   3.099   4.361 -0.7536 -1.2668 -0.3456
 5377TIP3   OH216094   6.171   0.364   3.300  0.1298 -0.1276 -0.2133
 5377TIP3    H116095   6.209   0.443   3.339  1.6642 -1.5984  1.4461
 5377TIP3    H216096   6.158   0.304   3.373  0.9353 -2.1691 -1.6340
 5378TIP3   OH216097   0.612   6.415   1.457  0.2473 -0.2649  0.3662
 5378TIP3    H116098   0.634   6.508   1.466  0.9217 -0.2917 -0.8311
 5378TIP3    H216099   0.627   6.379   1.545  0.4003  0.6674  0.7398
 5379TIP3   OH216100   7.057   4.698   1.159  0.6670  0.1987  0.6348
 5379TIP3    H116101   7.142   4.731   1.132 -0.2896  2.3479  0.0294
 5379TIP3    H216102   6.994   4.746   1.105 -0.9116 -2.4664 -0.1022
 5380TIP3   OH216103   1.360   2.643   0.297  0.3032 -0.6975  0.3744
 5380TIP3    H116104   1.333   2.633   0.388  1.5176  0.5073  0.9049
 5380TIP3    H216105   1.453   2.622   0.296  0.3196 -0.6410 -0.5821
 5381TIP3   OH216106   5.727   2.637   3.521  0.3138  0.0710  0.3938
 5381TIP3    H116107   5.746   2.655   3.429  0.2949 -0.4977  0.2749
 5381TIP3    H216108   5.761   2.713   3.568  3.9678 -1.3310  0.3349
 5382TIP3   OH216109   1.345   4.708   4.384 -0.4216  0.0847 -0.5712
 5382TIP3    H116110   1.349   4.763   4.462  0.0256  1.0847 -1.2607
 5382TIP3    H216111   1.352   4.619   4.416  0.9952  0.5176  0.4532
 5383TIP3   OH216112   5.616   0.759   4.943  0.1314  0.2225 -0.8994
 5383TIP3    H116113   5.621   0.686   4.881 -0.5293  0.5707 -1.3706
 5383TIP3    H216114   5.643   0.835   4.892 -0.5035  0.5257 -0.7851
 5384TIP3   OH216115   5.523   0.372   1.698 -0.0243  0.0855 -0.0008
 5384TIP3    H116116   5.570   0.291   1.720  3.0800  1.5661 -0.6660
 5384TIP3    H216117   5.458   0.382   1.767  1.0691 -1.7843  1.3890
 5385TIP3   OH216118   6.634   0.884   3.750  0.6424 -0.2643  0.0792
 5385TIP3    H116119   6.652   0.796   3.717  2.6772  0.3187 -0.4463
 5385TIP3    H216120   6.615   0.871   3.843  3.3347 -1.0627  0.5958
 5386TIP3   OH216121   3.573   6.282   1.182 -0.5655  0.2858  0.0952
 5386TIP3    H116122   3.623   6.364   1.179  0.8596 -0.5689 -0.4712
 5386TIP3    H216123   3.489   6.307   1.222  0.0725  1.8864  0.5317
 5387TIP3   OH216124   4.847   1.251   5.077 -0.1218  0.1156 -0.0300
 5387TIP3    H116125   4.904   1.301   5.019 -0.2839  0.7219  0.3141
 5387TIP3    H216126   4.889   1.166   5.084  2.5608  1.4478  2.6823
 5388TIP3   OH216127   4.329   0.626   3.649 -0.3094 -0.4683 -0.5081
 5388TIP3    H116128   4.376   0.708   3.633  1.0158 -1.3401 -1.2395
 5388TIP3    H216129   4.311   0.627   3.743  1.9864 -0.4854 -0.0074
 5389TIP3   OH216130   4.656   4.283   5.341 -0.1874 -0.3684 -0.5126
 5389TIP3    H116131   4.733   4.288   5.284  0.0885 -0.1509 -0.1249
 5389TIP3    H216132   4.589   4.332   5.294 -0.0347 -0.3960 -0.7652
 5390TIP3   OH216133   3.954   3.460   5.172 -0.8293  0.3940  0.0543
 5390TIP3    H116134   3.979   3.408   5.096  0.0109  0.2157  0.4345
 5390TIP3    H216135   3.912   3.538   5.136 -0.6444  0.2034 -0.5809
 5391TIP3   OH216136   3.315   6.383   2.097 -0.4700 -0.3758 -0.0008
 5391TIP3    H116137   3.294   6.295   2.066 -0.6024 -0.1454 -0.5844
 5391TIP3    H216138   3.404   6.398   2.066 -0.8410  0.1103 -0.8590
 5392TIP3   OH216139   2.425   2.017   5.645 -0.2791  0.2308  0.2827
 5392TIP3    H116140   2.498   2.019   5.706  0.8124  1.8723 -0.9946
 5392TIP3    H216141   2.438   2.094   5.589 -0.6388 -1.6958 -2.6881
 5393TIP3   OH216142   6.218   5.690   4.422 -0.3550 -0.1976  0.8227
 5393TIP3    H116143   6.265   5.665   4.502  1.9824 -0.5090 -0.5409
 5393TIP3    H216144   6.252   5.777   4.401  1.3642 -1.2807 -1.3355
 5394TIP3   OH216145   6.162   0.141   4.269  0.7381 -0.0512  0.1970
 5394TIP3    H116146   6.162   0.159   4.175 -0.0643 -2.2826 -0.3159
 5394TIP3    H216147   6.251   0.159   4.298  1.4589 -0.8916 -1.3745
 5395TIP3   OH216148   2.427   3.453   2.479 -0.3461 -0.5776 -0.3188
 5395TIP3    H116149   2.450   3.383   2.418 -3.0792 -0.1737 -1.9741
 5395TIP3    H216150   2.409   3.529   2.423 -0.7085  0.4880  1.1643
 5396TIP3   OH216151   3.567   4.430   1.161  0.0906  0.7519 -0.5384
 5396TIP3    H116152   3.567   4.441   1.066  1.3752 -0.5041 -0.7071
 5396TIP3    H216153   3.602   4.512   1.195  0.4875  0.8662 -1.2030
 5397TIP3   OH216154   5.331   3.847   1.773  0.6404 -0.6052  0.4241
 5397TIP3    H116155   5.254   3.851   1.829  0.6846 -0.4918  0.4759
 5397TIP3    H216156   5.297   3.824   1.687  0.2918  1.6273 -0.0938
 5398TIP3   OH216157   2.061   0.700   5.527 -0.2791 -0.5724  0.6249
 5398TIP3    H116158   2.117   0.669   5.599 -0.8974 -0.9217  0.9650
 5398TIP3    H216159   1.982   0.647   5.534 -1.3623  1.0576  1.2028
 5399TIP3   OH216160   2.914   2.930   0.555  0.3086  0.2807 -0.6104
 5399TIP3    H116161   2.974   2.941   0.629  1.8077  0.7055 -1.8404
 5399TIP3    H216162   2.908   3.018   0.516  1.3771 -0.3701 -2.3290
 5400TIP3   OH216163   5.453   1.472   5.337  0.3345 -0.0421  0.5449
 5400TIP3    H116164   5.434   1.518   5.255  0.9259  0.1109  0.4917
 5400TIP3    H216165   5.465   1.381   5.311 -2.2025 -0.5388  0.8173
 5401TIP3   OH216166   4.076   2.071   1.976  0.2411  0.4079  0.2706
 5401TIP3    H116167   3.992   2.117   1.977  0.6475  1.1698  0.0874
 5401TIP3    H216168   4.101   2.063   2.068 -0.5495 -0.8189  0.4050
 5402TIP3   OH216169   0.444   2.661   5.288 -0.2722  0.2266 -0.3272
 5402TIP3    H116170   0.457   2.660   5.382 -1.3509  0.5251 -0.1698
 5402TIP3    H216171   0.527   2.693   5.252  0.0053  0.4763  0.5349
 5403TIP3   OH216172   1.671   1.391   2.323  1.0073  0.7455 -0.2617
 5403TIP3    H116173   1.761   1.405   2.294  0.9528  1.7793  0.0364
 5403TIP3    H216174   1.653   1.464   2.382 -0.7501  1.8264 -2.0200
 5404TIP3   OH216175   2.141   2.376   3.176 -0.8738 -0.1576  0.1744
 5404TIP3    H116176   2.196   2.368   3.254  0.2989  1.4591 -0.4310
 5404TIP3    H216177   2.177   2.313   3.114 -1.7214 -1.3482  0.8460
 5405TIP3   OH216178   0.828   3.986   2.406 -0.1120  0.1247 -0.1002
 5405TIP3    H116179   0.833   4.079   2.384 -0.1645 -0.2677 -1.9727
 5405TIP3    H216180   0.740   3.974   2.443 -0.2264  0.7591 -0.1631
 5406TIP3   OH216181   6.187   5.763   3.004 -0.0293 -0.0848  0.6505
 5406TIP3    H116182   6.251   5.833   3.008 -0.7952  0.7425 -0.6398
 5406TIP3    H216183   6.161   5.759   2.911 -0.9077 -1.2347  0.9107
 5407TIP3   OH216184   2.420   3.016   5.306  0.1931 -0.0366 -0.7750
 5407TIP3    H116185   2.391   3.026   5.215  0.8522  0.1693 -0.9709
 5407TIP3    H216186   2.491   3.079   5.315  0.5527 -0.5036 -0.3011
 5408TIP3   OH216187   1.179   0.427   2.997  0.0367  0.0842 -0.1173
 5408TIP3    H116188   1.249   0.475   2.953 -0.7370  2.0778  0.6912
 5408TIP3    H216189   1.222   0.381   3.069  0.5204  1.5548  0.5755
 5409TIP3   OH216190   6.116   2.550   1.702 -0.0859 -0.2600 -0.2637
 5409TIP3    H116191   6.070   2.545   1.618  0.1026  2.8596 -0.6572
 5409TIP3    H216192   6.047   2.561   1.767 -0.1610 -1.6254 -0.0686
 5410TIP3   OH216193   2.885   0.993   1.278  0.1558 -0.0614 -0.2627
 5410TIP3    H116194   2.956   1.033   1.327  0.6411 -0.8017 -0.3478
 5410TIP3    H216195   2.808   1.005   1.334  0.5073  0.0072  0.2147
 5411TIP3   OH216196   5.124   5.153   2.903  0.2126 -0.1433  0.6299
 5411TIP3    H116197   5.189   5.192   2.962 -0.6141  0.8242  0.9334
 5411TIP3    H216198   5.099   5.224   2.844 -0.4957 -0.5215  0.4643
 5412TIP3   OH216199   5.784   4.218   0.794 -0.2667 -0.7240 -0.7285
 5412TIP3    H116200   5.830   4.135   0.809  0.3584 -0.2476  0.0501
 5412TIP3    H216201   5.742   4.238   0.878 -1.2249 -0.7319 -1.1927
 5413TIP3   OH216202   0.759   4.940   4.723 -0.4617 -0.4369 -0.1019
 5413TIP3    H116203   0.778   4.853   4.688 -0.0000 -0.8450  1.0915
 5413TIP3    H216204   0.664   4.945   4.727 -0.5684 -0.0382 -2.1600
 5414TIP3   OH216205   0.779   4.310   0.772 -0.6076  0.0341 -0.1729
 5414TIP3    H116206   0.721   4.269   0.709 -2.8802  2.4732  0.1726
 5414TIP3    H216207   0.807   4.392   0.730  0.2899  0.2662  0.8113
 5415TIP3   OH216208   4.618   5.304   1.165  0.5925 -0.1153  0.1380
 5415TIP3    H116209   4.696   5.321   1.112  1.2137 -0.1934  1.0098
 5415TIP3    H216210   4.545   5.334   1.110  0.7982 -3.8162 -2.4906
 5416TIP3   OH216211   2.534   3.809   3.153 -0.1587 -0.3320 -0.0369
 5416TIP3    H116212   2.504   3.718   3.147  0.7869 -0.6660  0.1671
 5416TIP3    H216213   2.628   3.805   3.135  0.1195  0.4595  1.1038
 5417TIP3   OH216214   1.657   1.758   0.805 -0.0722  0.5164 -0.2904
 5417TIP3    H116215   1.716   1.831   0.787  0.3528  0.3054  0.2128
 5417TIP3    H216216   1.705   1.703   0.867 -1.2463  0.9513  1.0712
 5418TIP3   OH216217   2.160   6.644   1.487  0.1377 -0.7196 -0.6463
 5418TIP3    H116218   2.121   6.644   1.575  1.1509  2.0795 -0.0896
 5418TIP3    H216219   2.254   6.640   1.503  0.3470  0.2085 -1.5668
 5419TIP3   OH216220   2.963   0.142   2.140 -0.3176 -0.2538 -0.5535
 5419TIP3    H116221   2.978   0.048   2.145 -0.0441 -0.4534 -3.2613
 5419TIP3    H216222   2.874   0.150   2.107 -1.0036  0.5420  1.3461
 5420TIP3   OH216223   3.877   3.758   3.704  0.2395  0.0504 -0.2411
 5420TIP3    H116224   3.945   3.712   3.753  0.1867  0.7489  0.5022
 5420TIP3    H216225   3.817   3.790   3.771 -0.8109 -0.5235 -0.8780
 5421TIP3   OH216226   1.887   0.918   5.477  0.1732 -0.7656 -0.7708
 5421TIP3    H116227   1.835   0.853   5.430  0.3613 -1.5961  0.1302
 5421TIP3    H216228   1.959   0.867   5.516 -2.7661 -1.4063  5.0491
 5422TIP3   OH216229   6.571   1.828   0.117 -0.1411 -0.4320  0.8300
 5422TIP3    H116230   6.648   1.772   0.122  0.6064  0.4423 -0.2856
 5422TIP3    H216231   6.578   1.886   0.193  0.2642 -0.4269  0.7935
 5423TIP3   OH216232   2.272   0.953   0.542  0.5515 -0.4777  0.0983
 5423TIP3    H116233   2.361   0.978   0.569  1.8317 -2.0051 -2.3963
 5423TIP3    H216234   2.267   0.980   0.450 -1.4550 -0.8035  0.0789
 5424TIP3   OH216235   5.544   6.172   4.869 -0.5458  0.8594  0.4271
 5424TIP3    H116236   5.513   6.197   4.956  0.7717 -1.1604  1.5628
 5424TIP3    H216237   5.623   6.119   4.885 -1.0646 -0.8190 -1.8908
 5425TIP3   OH216238   3.896   5.742   0.700  0.3030  0.1130 -0.2677
 5425TIP3    H116239   3.974   5.790   0.674  1.3938 -0.2642  2.0096
 5425TIP3    H216240   3.906   5.729   0.795 -1.2104 -2.2935 -0.3297
 5426TIP3   OH216241   1.244   6.645   2.284  0.1388  0.2510 -0.2854
 5426TIP3    H116242   1.274   6.617   2.370 -1.9165  1.0438  0.7569
 5426TIP3    H216243   1.165   6.697   2.301 -1.7439 -1.5164 -2.7479
 5427TIP3   OH216244   5.619   1.070   4.151  0.2566 -0.0799 -0.1787
 5427TIP3    H116245   5.696   1.037   4.198  0.6436 -0.0040 -0.7475
 5427TIP3    H216246   5.638   1.162   4.136 -1.2111  0.7111  2.1886
 5428TIP3   OH216247   4.341   5.947   4.222 -0.0567 -0.5388 -0.4099
 5428TIP3    H116248   4.266   5.964   4.278 -0.1857 -2.4104  0.0500
 5428TIP3    H216249   4.372   6.034   4.197 -0.0917  0.4069  2.4231
 5429TIP3   OH216250   4.081   1.255   0.064  0.6729  0.1301  0.5751
 5429TIP3    H116251   4.008   1.227   0.119 -1.4426 -0.9761 -2.5403
 5429TIP3    H216252   4.102   1.178   0.011  3.6018  0.6921  0.7423
 5430TIP3   OH216253   2.937   1.605   0.809  0.6054  0.1142 -0.5774
 5430TIP3    H116254   3.027   1.603   0.842  0.1810 -0.5419  0.6243
 5430TIP3    H216255   2.883   1.614   0.887 -0.3775  0.7485 -1.3027
 5431TIP3   OH216256   1.576   4.365   5.394 -0.4956  0.3444  0.2791
 5431TIP3    H116257   1.573   4.440   5.335 -0.5589  0.4101  0.3663
 5431TIP3    H216258   1.658   4.320   5.371 -0.8498 -0.0062 -0.3182
 5432TIP3   OH216259   1.408   0.750   5.000 -0.1268 -0.3998 -0.3428
 5432TIP3    H116260   1.356   0.801   4.938 -1.9153 -0.8892  0.7015
 5432TIP3    H216261   1.365   0.762   5.084  2.2332  0.2507  0.8776
 5433TIP3   OH216262   5.067   1.181   1.441 -0.2906  0.0801 -0.3351
 5433TIP3    H116263   5.015   1.151   1.366 -0.2803  0.0827 -0.3433
 5433TIP3    H216264   5.115   1.103   1.469 -0.0652  0.1530 -0.5195
 5434TIP3   OH216265   4.343   0.584   3.371 -0.0583  0.2147 -0.1576
 5434TIP3    H116266   4.277   0.588   3.440 -1.3775 -0.1844 -1.3617
 5434TIP3    H216267   4.427   0.588   3.418 -0.9157  0.9241  1.3857
 5435TIP3   OH216268   3.341   3.572   2.584  0.4296 -0.3305 -0.4195
 5435TIP3    H116269   3.271   3.637   2.593  0.8163  0.1285 -0.6886
 5435TIP3    H216270   3.296   3.488   2.587 -0.3971 -0.0368 -2.6019
 5436TIP3   OH216271   1.456   1.477   3.359  0.1321 -0.6384 -0.2095
 5436TIP3    H116272   1.431   1.418   3.289 -1.4851 -1.5444  1.0726
 5436TIP3    H216273   1.551   1.467   3.366  0.3913 -0.2666 -2.4315
 5437TIP3   OH216274   6.723   3.896   3.489  0.1566 -0.4002 -0.0026
 5437TIP3    H116275   6.767   3.816   3.460  0.6336 -0.7089  1.4566
 5437TIP3    H216276   6.656   3.865   3.551 -2.4719  0.0133 -2.4506
 5438TIP3   OH216277   6.747   1.899   4.265  0.2295 -0.2823 -0.0806
 5438TIP3    H116278   6.767   1.887   4.172  0.7677 -4.2726  0.3858
 5438TIP3    H216279   6.652   1.910   4.267  0.2093 -0.1369 -1.0826
 5439TIP3   OH216280   0.210   0.297   5.295  0.2588  0.2626  0.1316
 5439TIP3    H116281   0.131   0.257   5.259  0.6272  0.2646 -0.7046
 5439TIP3    H216282   0.198   0.391   5.283 -0.3979  0.4048  1.6649
 5440TIP3   OH216283   3.748   2.532   2.427 -0.1211  0.1217  0.1181
 5440TIP3    H116284   3.699   2.612   2.409 -1.9790 -0.7930  0.8835
 5440TIP3    H216285   3.791   2.548   2.511  2.7649  1.7210 -1.5080
 5441TIP3   OH216286   1.940   5.970   3.224 -0.3713 -0.7837  0.0098
 5441TIP3    H116287   1.856   5.985   3.181  0.9663  0.5883 -2.3279
 5441TIP3    H216288   1.941   6.031   3.298 -1.2627 -0.5462 -0.1659
 5442TIP3   OH216289   2.100   2.185   4.028 -0.4334 -0.6990 -0.3289
 5442TIP3    H116290   2.077   2.232   4.108 -1.9573 -1.1248 -0.4883
 5442TIP3    H216291   2.126   2.254   3.967 -1.0593 -0.1993 -0.0431
 5443TIP3   OH216292   6.998   0.650   1.560 -0.0553 -0.1457  0.2122
 5443TIP3    H116293   7.055   0.612   1.627 -2.8639  0.8880  3.4535
 5443TIP3    H216294   7.040   0.733   1.537 -0.0344  0.4858  2.3384
 5444TIP3   OH216295   4.359   4.510   3.888 -0.3415  0.3417 -0.0045
 5444TIP3    H116296   4.379   4.434   3.833  0.1317 -0.4697  1.2480
 5444TIP3    H216297   4.431   4.571   3.871 -0.0874  0.0105 -0.1177
 5445TIP3   OH216298   4.200   2.806   0.194 -0.0493 -0.2867 -0.1182
 5445TIP3    H116299   4.250   2.750   0.134 -0.1388  0.2586 -0.7121
 5445TIP3    H216300   4.186   2.751   0.271  3.2101  0.1671  0.9574
 5446TIP3   OH216301   6.294   0.179   4.621  0.4689 -0.0826  0.0636
 5446TIP3    H116302   6.385   0.152   4.632  0.0647 -1.3884  0.3275
 5446TIP3    H216303   6.291   0.267   4.659  1.2700 -0.6556  1.5557
 5447TIP3   OH216304   4.364   2.894   1.703 -0.1774  0.0116 -0.0143
 5447TIP3    H116305   4.381   2.877   1.610  1.3189  0.2729  0.1902
 5447TIP3    H216306   4.332   2.985   1.705 -0.3608 -0.0456 -0.2829
 5448TIP3   OH216307   5.457   6.114   0.819  0.5734 -0.2460 -0.5932
 5448TIP3    H116308   5.530   6.126   0.880  0.9947 -1.9169 -0.7193
 5448TIP3    H216309   5.429   6.024   0.834  0.3129 -0.5101 -2.4740
 5449TIP3   OH216310   6.810   4.673   1.824  0.5815  0.7377  0.1955
 5449TIP3    H116311   6.905   4.682   1.835  0.8821 -2.1611  1.0284
 5449TIP3    H216312   6.791   4.583   1.854 -2.5955  1.5723  1.1286
 5450TIP3   OH216313   2.168   2.663   0.423 -0.1906  0.3255  0.5257
 5450TIP3    H116314   2.144   2.605   0.350  0.6304  1.2300 -0.4958
 5450TIP3    H216315   2.102   2.732   0.421 -0.7387 -0.1631  1.2779
 5451TIP3   OH216316   3.672   5.184   2.950 -0.2718  0.3757 -0.4167
 5451TIP3    H116317   3.689   5.200   3.043  1.1386 -0.0396 -0.5845
 5451TIP3    H216318   3.757   5.196   2.907 -0.6425 -0.6485 -1.4904
 5452TIP3   OH216319   0.277   2.114   4.761 -0.1510 -0.6157  0.0179
 5452TIP3    H116320   0.213   2.182   4.743  0.7580 -0.3181 -2.5578
 5452TIP3    H216321   0.261   2.089   4.852 -1.8667  1.5597  0.4001
 5453TIP3   OH216322   6.142   3.585   1.526 -0.4184  0.4215 -0.3506
 5453TIP3    H116323   6.125   3.510   1.583 -0.8569  0.4161 -0.4857
 5453TIP3    H216324   6.060   3.598   1.479  0.2044 -0.1311 -1.6404
 5454TIP3   OH216325   3.400   5.264   0.044 -0.4458  0.0033  0.0288
 5454TIP3    H116326   3.390   5.350   0.085 -0.0850  0.5213 -0.9315
 5454TIP3    H216327   3.470   5.276  -0.021  0.1553 -1.2099  0.4054
 5455TIP3   OH216328   4.993   1.541   1.310  0.1135 -0.7617  0.0471
 5455TIP3    H116329   5.055   1.569   1.378 -0.6019 -0.6870  0.6750
 5455TIP3    H216330   5.030   1.459   1.277 -0.0819 -1.3591  1.2687
 5456TIP3   OH216331   2.075   1.071   2.804  0.2142 -0.1898 -0.0219
 5456TIP3    H116332   1.982   1.065   2.828 -0.4147 -1.5935 -2.4640
 5456TIP3    H216333   2.080   1.148   2.747  0.8835  0.7025  1.1801
 5457TIP3   OH216334   4.021   2.577   0.164 -0.0287 -0.3975 -0.1876
 5457TIP3    H116335   4.056   2.526   0.238  0.9042 -0.1716 -0.4630
 5457TIP3    H216336   4.060   2.537   0.087  0.4360  0.4960 -0.4325
 5458TIP3   OH216337   3.558   3.196   5.825  0.5642 -0.0332  0.0267
 5458TIP3    H116338   3.508   3.274   5.800 -0.6641 -0.8155 -0.0234
 5458TIP3    H216339   3.642   3.231   5.857  0.1611  1.2820 -0.2791
 5459TIP3   OH216340   4.243   3.099   0.812  0.8289  0.1666 -0.4180
 5459TIP3    H116341   4.297   3.116   0.889 -1.4542 -1.4244  1.6914
 5459TIP3    H216342   4.259   3.007   0.791  0.4239  0.2269 -1.0103
 5460TIP3   OH216343   3.034   5.934   2.065 -0.0947 -0.2824 -0.0046
 5460TIP3    H116344   3.129   5.937   2.056 -0.0890 -0.2582  0.0593
 5460TIP3    H216345   3.019   5.936   2.160 -0.0810 -2.3373  0.0946
 5461TIP3   OH216346   3.671   5.057   2.016 -0.2051  0.0993 -0.6687
 5461TIP3    H116347   3.699   5.032   1.928 -0.5576 -1.1883 -0.4242
 5461TIP3    H216348   3.639   4.976   2.055  1.0023  0.4175  1.0589
 5462TIP3   OH216349   2.678   0.449   3.455  0.1422  0.0659  0.0393
 5462TIP3    H116350   2.625   0.467   3.377  1.2480 -2.5486 -1.4509
 5462TIP3    H216351   2.614   0.429   3.523 -0.8193  0.5503 -0.6924
 5463TIP3   OH216352   5.375   2.894   2.778  0.3182  0.3204  0.6671
 5463TIP3    H116353   5.375   2.893   2.874 -0.0668  0.5474  0.6693
 5463TIP3    H216354   5.292   2.853   2.754  1.2530 -1.5238  0.4064
 5464TIP3   OH216355   1.357   1.112   0.687  0.0878  0.7226 -0.5869
 5464TIP3    H116356   1.350   1.198   0.728 -0.3128  1.1833 -1.6114
 5464TIP3    H216357   1.269   1.091   0.657 -0.3361 -1.0624  1.6032
 5465TIP3   OH216358   5.609   4.843   0.593 -0.6441  0.2194 -0.6374
 5465TIP3    H116359   5.574   4.869   0.679 -0.4258  0.1515 -0.5288
 5465TIP3    H216360   5.540   4.789   0.555 -0.2687 -0.7273 -0.0210
 5466TIP3   OH216361   2.812   0.711   1.121 -0.1982 -0.2287  0.1659
 5466TIP3    H116362   2.849   0.791   1.160 -0.7879  0.7122 -1.1144
 5466TIP3    H216363   2.812   0.729   1.027 -2.1432 -0.9597 -0.0110
 5467TIP3   OH216364   4.953   3.448   1.709 -0.4666  0.5060  0.2724
 5467TIP3    H116365   4.883   3.483   1.763 -0.3475  2.0456 -0.5101
 5467TIP3    H216366   4.994   3.525   1.670  0.3623 -0.4752 -0.8749
 5468TIP3   OH216367   5.105   5.220   3.864  0.1883  0.8362  0.4270
 5468TIP3    H116368   5.166   5.191   3.931  1.7446  1.9018 -0.4718
 5468TIP3    H216369   5.065   5.140   3.831  2.5777 -0.1041 -0.3345
 5469TIP3   OH216370   1.986   6.448   3.184 -0.1423 -0.6242  0.4236
 5469TIP3    H116371   1.983   6.360   3.148  3.9728 -1.2956  1.2143
 5469TIP3    H216372   1.985   6.505   3.106 -0.7776 -1.4608 -0.2001
 5470TIP3   OH216373   6.466   6.309   0.386 -0.2426  0.0105  0.1928
 5470TIP3    H116374   6.430   6.334   0.471 -0.7265  0.6195 -0.1785
 5470TIP3    H216375   6.510   6.388   0.354  0.4057 -0.3759  0.1092
 5471TIP3   OH216376   3.332   4.795   1.352  0.2127  0.8357  0.6038
 5471TIP3    H116377   3.356   4.882   1.385 -0.7773  1.0206  0.8543
 5471TIP3    H216378   3.297   4.749   1.429  1.5488 -0.1138  0.6836
 5472TIP3   OH216379   2.941   5.756   0.311  0.1756 -0.1312 -0.2878
 5472TIP3    H116380   3.031   5.782   0.291 -0.1699  0.0405 -1.7637
 5472TIP3    H216381   2.899   5.749   0.226 -1.4044  0.4689  0.4042
 5473TIP3   OH216382   2.904   6.485   4.527 -0.3156  0.3865 -0.1419
 5473TIP3    H116383   2.923   6.465   4.619 -0.9345  2.0175  0.3769
 5473TIP3    H216384   2.964   6.557   4.506 -0.7560  0.5760 -0.7554
 5474TIP3   OH216385   0.212   1.205   5.665  0.4618  0.3669  0.0184
 5474TIP3    H116386   0.299   1.191   5.703 -0.9741  0.1373  3.5973
 5474TIP3    H216387   0.170   1.267   5.724 -2.4763 -1.0243 -0.4406
 5475TIP3   OH216388   6.439   6.642   1.907  0.1382  0.3864 -0.0195
 5475TIP3    H116389   6.518   6.637   1.853 -0.4811  0.4936 -0.9672
 5475TIP3    H216390   6.369   6.659   1.844 -0.5808  0.7181  0.8573
 5476TIP3   OH216391   6.507   0.448   1.962  0.2298 -0.4086 -0.2203
 5476TIP3    H116392   6.479   0.491   1.881  0.9578  1.1884  0.3264
 5476TIP3    H216393   6.565   0.378   1.933  1.7569  1.1204 -1.0906
 5477TIP3   OH216394   5.721   0.952   3.095  0.3603  0.0575  0.2740
 5477TIP3    H116395   5.696   1.036   3.134  0.5846  0.8636 -1.2596
 5477TIP3    H216396   5.648   0.893   3.115 -1.4393  1.5504 -1.5746
 5478TIP3   OH216397   3.462   3.821   3.906  0.2786 -0.0061  0.3138
 5478TIP3    H116398   3.472   3.834   3.812  0.1404  0.5779  0.3757
 5478TIP3    H216399   3.373   3.849   3.925  0.6633  0.9732  0.7901
 5479TIP3   OH216400   5.229   2.213   5.699  0.2206 -0.6306 -0.2344
 5479TIP3    H116401   5.225   2.130   5.747 -1.0567 -0.4569  0.0020
 5479TIP3    H216402   5.162   2.267   5.740 -0.1886 -0.1091 -1.5472
 5480TIP3   OH216403   2.874   4.202   4.193  0.9232  0.5526  0.7989
 5480TIP3    H116404   2.879   4.262   4.267  0.9388  1.7608 -0.1509
 5480TIP3    H216405   2.854   4.258   4.118 -0.3303 -0.7736  0.0751
 5481TIP3   OH216406   5.560   4.645   5.096 -0.3639 -0.2611  0.1203
 5481TIP3    H116407   5.512   4.721   5.062 -0.3488 -0.2990  0.0159
 5481TIP3    H216408   5.630   4.684   5.150 -0.0053 -0.1886 -0.3941
 5482TIP3   OH216409   3.712   3.896   1.670 -0.4828 -0.7039  0.6193
 5482TIP3    H116410   3.652   3.891   1.744  0.4640 -0.0772  1.4684
 5482TIP3    H216411   3.799   3.902   1.710  0.1052 -0.9955 -0.5613
 5483TIP3   OH216412   2.069   4.055   4.760  0.1977 -0.3531 -0.4996
 5483TIP3    H116413   2.016   4.112   4.815  1.2980 -0.3914  0.6581
 5483TIP3    H216414   2.046   4.079   4.671  0.4125  1.7066 -0.0371
 5484TIP3   OH216415   5.047   0.761   4.969 -0.3538 -0.1040  0.1310
 5484TIP3    H116416   5.074   0.730   5.055 -0.1832  0.2704  0.2141
 5484TIP3    H216417   5.128   0.786   4.925 -0.3070 -1.4408 -0.6077
 5485TIP3   OH216418   6.939   3.789   2.593  0.3501  0.2168  0.3112
 5485TIP3    H116419   6.938   3.707   2.543 -1.8131 -0.6325  1.6046
 5485TIP3    H216420   6.855   3.830   2.572  0.5567  1.1168  1.2189
 5486TIP3   OH216421   0.217   2.915   3.618  0.4226 -0.3097 -0.5319
 5486TIP3    H116422   0.243   2.837   3.665  1.7976  0.6852  0.4228
 5486TIP3    H216423   0.247   2.900   3.528  0.5553 -0.9261 -0.3871
 5487TIP3   OH216424   1.321   5.394   0.814 -0.7320 -0.3883  0.2177
 5487TIP3    H116425   1.231   5.414   0.787 -0.5605  1.4500  0.9037
 5487TIP3    H216426   1.374   5.416   0.738 -0.6437  0.9235  0.6374
 5488TIP3   OH216427   4.116   1.907   5.508 -0.6759 -0.0291  0.4589
 5488TIP3    H116428   4.039   1.963   5.495  0.3292  1.9810  2.4902
 5488TIP3    H216429   4.151   1.894   5.420 -1.1216  2.3897 -0.1570
 5489TIP3   OH216430   5.526   4.643   3.640  0.6829  0.0734  0.0693
 5489TIP3    H116431   5.582   4.572   3.670  0.8539  0.2425  0.1540
 5489TIP3    H216432   5.462   4.601   3.582  1.9327  0.0881 -1.4073
 5490TIP3   OH216433   1.894   2.429   3.104  0.0358  0.4390  0.1160
 5490TIP3    H116434   1.989   2.428   3.121 -0.0927  1.3992  0.9304
 5490TIP3    H216435   1.856   2.383   3.178 -0.2428  1.4106  0.5902
 5491TIP3   OH216436   5.115   3.609   0.010  0.1553 -0.1155  0.2914
 5491TIP3    H116437   5.092   3.667   0.083  0.2339 -1.3780  1.3779
 5491TIP3    H216438   5.033   3.595  -0.037 -0.3403 -0.8235  1.3193
 5492TIP3   OH216439   6.804   4.442   1.988  0.1756  0.2055  0.3559
 5492TIP3    H116440   6.836   4.356   2.014  0.3514  0.2410  0.2583
 5492TIP3    H216441   6.849   4.503   2.047  0.6846  0.2985 -0.1181
 5493TIP3   OH216442   4.819   0.219   3.282 -0.1624  0.5875 -0.3862
 5493TIP3    H116443   4.733   0.221   3.240 -0.9150  2.1071  1.1069
 5493TIP3    H216444   4.841   0.125   3.287 -1.2858  0.2270 -1.6097
 5494TIP3   OH216445   5.658   1.597   4.893 -0.1268 -0.0098 -0.3766
 5494TIP3    H116446   5.587   1.614   4.955 -0.2209 -0.8314 -0.2419
 5494TIP3    H216447   5.614   1.569   4.813  0.0328 -0.3886 -0.3357
 5495TIP3   OH216448   4.937   2.115   5.574 -0.1813  0.1130  0.4693
 5495TIP3    H116449   4.926   2.164   5.655  0.3200 -0.8245  1.1137
 5495TIP3    H216450   4.976   2.032   5.600  0.7147  0.0883 -0.8110
 5496TIP3   OH216451   1.873   2.543   5.775 -0.1690 -0.5321  0.0591
 5496TIP3    H116452   1.870   2.620   5.832 -1.1504 -0.0515 -0.6174
 5496TIP3    H216453   1.842   2.471   5.830 -0.1575 -0.2653  0.4195
 5497TIP3   OH216454   2.680   4.923   2.532  0.3739  0.3038  0.0466
 5497TIP3    H116455   2.638   5.003   2.561  0.0427  0.2426 -0.2652
 5497TIP3    H216456   2.647   4.909   2.444  2.0867  0.9971 -0.7508
 5498TIP3   OH216457   5.547   2.392   3.215 -0.7168 -0.0683  0.5463
 5498TIP3    H116458   5.508   2.338   3.146  0.2944 -0.1564  0.0245
 5498TIP3    H216459   5.641   2.371   3.212 -0.6451 -0.0086  1.8955
 5499TIP3   OH216460   5.635   0.757   1.988 -0.0576 -1.1666  0.6063
 5499TIP3    H116461   5.642   0.673   1.944  0.9167 -1.1060  0.6138
 5499TIP3    H216462   5.546   0.787   1.969  0.2414 -1.2492 -1.1297
 5500TIP3   OH216463   1.906   1.556   4.377 -0.6670 -0.1848 -0.0906
 5500TIP3    H116464   1.963   1.605   4.317 -0.3140  1.9936  1.8716
 5500TIP3    H216465   1.887   1.474   4.331  2.2864 -0.0788 -1.7297
 5501TIP3   OH216466   2.969   2.377   4.196 -0.2392  0.4378  0.7765
 5501TIP3    H116467   2.904   2.403   4.131 -1.2528  2.1951  2.3962
 5501TIP3    H216468   2.945   2.288   4.221 -0.1357 -0.0710 -0.8159
 5502TIP3   OH216469   1.586   0.489   3.584 -0.3035 -0.4566 -0.1378
 5502TIP3    H116470   1.515   0.519   3.528 -1.2988 -2.2496  0.0944
 5502TIP3    H216471   1.665   0.526   3.544 -1.0060 -1.3873 -2.5713
 5503TIP3   OH216472   0.832   0.915   1.092 -0.4677 -0.2603  0.2385
 5503TIP3    H116473   0.910   0.945   1.138  0.0832 -0.3911 -0.5895
 5503TIP3    H216474   0.844   0.944   1.001 -2.0689  1.0192  0.3925
 5504TIP3   OH216475   4.078   6.315   1.832 -0.3480  0.0614 -0.1651
 5504TIP3    H116476   4.149   6.252   1.817 -0.9649 -0.9945  1.0267
 5504TIP3    H216477   4.012   6.292   1.768 -1.0696 -1.3730  1.0102
 5505TIP3   OH216478   2.890   1.544   2.387  0.3425  0.0866  0.1718
 5505TIP3    H116479   2.802   1.565   2.355  0.2564  0.4221  0.6260
 5505TIP3    H216480   2.925   1.627   2.417  1.6259  0.3672 -1.9250
 5506TIP3   OH216481   4.762   6.438   5.434  0.5809 -0.1963 -0.2979
 5506TIP3    H116482   4.707   6.360   5.443 -0.4369  0.5644  0.3449
 5506TIP3    H216483   4.783   6.463   5.524  1.2223  0.0586 -0.5121
 5507TIP3   OH216484   4.746   1.185   1.876 -0.1411 -1.0708 -0.0715
 5507TIP3    H116485   4.726   1.262   1.931 -0.9383  0.4293 -2.3259
 5507TIP3    H216486   4.801   1.220   1.806  1.0997 -2.9930 -0.1016
 5508TIP3   OH216487   5.125   6.397   1.043 -0.3443  0.4180  0.2475
 5508TIP3    H116488   5.215   6.381   1.071 -0.3032  0.4126  0.1140
 5508TIP3    H216489   5.118   6.351   0.959 -0.3049  0.8756 -0.0069
 5509TIP3   OH216490   5.806   3.750   4.307 -0.4531 -0.8411 -0.6838
 5509TIP3    H116491   5.774   3.782   4.222 -2.0548 -2.6474 -0.8217
 5509TIP3    H216492   5.772   3.813   4.371  1.2894  0.8913 -1.3457
 5510TIP3   OH216493   6.254   6.122   0.380 -0.0668  0.0387 -0.2241
 5510TIP3    H116494   6.216   6.208   0.363  0.2514  0.2372  0.0423
 5510TIP3    H216495   6.346   6.140   0.402 -0.8968  0.0892  4.0468
 5511TIP3   OH216496   5.463   3.729   0.947  0.1406  0.0492 -0.1671
 5511TIP3    H116497   5.486   3.757   0.858  0.3061  0.2940 -0.0501
 5511TIP3    H216498   5.435   3.638   0.938  0.0229  0.1163 -0.4912
 5512TIP3   OH216499   3.407   5.167   3.046  0.0999 -0.5511 -0.0611
 5512TIP3    H116500   3.498   5.177   3.020 -0.4289  0.9194 -1.4787
 5512TIP3    H216501   3.365   5.127   2.970 -0.9580  1.3634 -0.5481
 5513TIP3   OH216502   4.076   4.032   5.730 -0.1425  0.5178 -0.5689
 5513TIP3    H116503   4.172   4.037   5.735 -0.0919 -0.7262 -0.0916
 5513TIP3    H216504   4.054   3.945   5.762 -1.3457  0.2010 -2.0960
 5514TIP3   OH216505   0.236   0.772   1.831 -0.0375 -0.4800  0.2725
 5514TIP3    H116506   0.210   0.818   1.751  1.0143 -0.9899 -0.3851
 5514TIP3    H216507   0.226   0.679   1.810 -1.8613 -0.6089  1.4934
 5515TIP3   OH216508   5.903   5.354   2.316  0.3461 -0.1073  0.4893
 5515TIP3    H116509   5.921   5.306   2.396 -0.0932 -2.7638 -0.8886
 5515TIP3    H216510   5.989   5.364   2.274  0.4326  0.3028  0.7583
 5516TIP3   OH216511   2.437   5.371   1.500  0.7528  0.3300 -0.1659
 5516TIP3    H116512   2.407   5.461   1.484  1.8183  0.9847  1.3073
 5516TIP3    H216513   2.478   5.345   1.417  0.0802  1.0438 -0.7397
 5517TIP3   OH216514   0.792   1.698   0.238 -0.3464 -0.2809 -0.4838
 5517TIP3    H116515   0.720   1.761   0.224  0.5441  0.7817 -0.4304
 5517TIP3    H216516   0.841   1.700   0.155 -1.1696 -2.0832 -1.0527
 5518TIP3   OH216517   1.825   2.921   4.140 -0.0410  0.0019 -0.1248
 5518TIP3    H116518   1.835   2.964   4.055 -0.1936  0.3367  0.0236
 5518TIP3    H216519   1.912   2.922   4.178 -0.3861  2.0522  0.7594
 5519TIP3   OH216520   4.645   3.066   5.038 -0.0103 -0.9012  0.2427
 5519TIP3    H116521   4.628   3.028   5.124  1.3630 -1.0407  0.4611
 5519TIP3    H216522   4.721   3.122   5.051 -0.3051 -0.2622 -0.7009
 5520TIP3   OH216523   6.548   1.000   5.829  0.0452  0.5460  0.1246
 5520TIP3    H116524   6.465   1.020   5.872  0.0012  3.1293 -0.9909
 5520TIP3    H216525   6.531   0.920   5.779 -0.7642 -0.7989  2.3920
 5521TIP3   OH216526   0.759   2.326   1.456 -0.1955 -0.8553 -0.0581
 5521TIP3    H116527   0.844   2.306   1.418  0.0204 -0.2546  0.0921
 5521TIP3    H216528   0.746   2.419   1.438 -1.1120 -1.0792 -0.6471
 5522TIP3   OH216529   5.332   1.974   4.440  0.3465 -0.8631 -0.8308
 5522TIP3    H116530   5.355   1.922   4.363  1.1167  1.9116 -2.5931
 5522TIP3    H216531   5.412   2.020   4.463 -0.6262  0.5942 -0.2119
 5523TIP3   OH216532   1.230   3.538   4.365 -1.0125  0.6559  0.4711
 5523TIP3    H116533   1.323   3.522   4.380 -0.8923  1.1674  0.3134
 5523TIP3    H216534   1.224   3.633   4.353 -1.5198  0.5994  0.2393
 5524TIP3   OH216535   6.052   5.651   4.052  0.2252 -0.3280 -0.4505
 5524TIP3    H116536   6.090   5.735   4.025 -0.2475  0.6340  1.6654
 5524TIP3    H216537   6.007   5.619   3.974 -0.8997  2.1538 -0.9103
 5525TIP3   OH216538   6.292   5.545   3.894  0.5103  0.6441  0.2939
 5525TIP3    H116539   6.265   5.633   3.868 -2.9383 -0.5337 -0.6027
 5525TIP3    H216540   6.301   5.549   3.989 -1.2060  1.6399  0.4446
 5526TIP3   OH216541   1.177   2.736   1.952  1.0369 -0.2803 -0.4236
 5526TIP3    H116542   1.197   2.716   1.861 -1.0362  0.0355 -0.9817
 5526TIP3    H216543   1.117   2.666   1.980 -1.6192  1.7755 -0.6196
 5527TIP3   OH216544   2.157   4.541   5.206  0.2533 -0.0450 -0.3744
 5527TIP3    H116545   2.221   4.509   5.142 -0.1760 -1.3646 -0.1597
 5527TIP3    H216546   2.196   4.520   5.291  0.7318  1.5308 -0.1780
 5528TIP3   OH216547   6.803   0.608   2.028  0.3023 -0.3776 -0.7246
 5528TIP3    H116548   6.859   0.532   2.014 -1.2788 -1.4891 -1.4199
 5528TIP3    H216549   6.783   0.640   1.940 -1.0303 -0.7126 -0.5664
 5529TIP3   OH216550   4.904   5.933   4.941  0.0329  0.8646  0.2247
 5529TIP3    H116551   4.854   6.014   4.930 -2.0609 -0.1411  1.7635
 5529TIP3    H216552   4.854   5.867   4.892  2.8735  0.7683 -2.9366
 5530TIP3   OH216553   1.984   5.435   4.060 -0.0546  0.5398 -0.4645
 5530TIP3    H116554   1.892   5.412   4.072 -0.2407  0.9842 -0.9584
 5530TIP3    H216555   1.982   5.513   4.003  0.7092 -1.2099 -3.0948
 5531TIP3   OH216556  -0.019   5.047   3.089  0.0722 -0.4958 -0.4280
 5531TIP3    H116557   0.012   5.138   3.084 -0.5086 -0.2227  0.5360
 5531TIP3    H216558   0.052   4.995   3.053  1.1898  0.2005  0.7020
 5532TIP3   OH216559   1.042   5.471   3.527 -0.3425  0.3953 -0.1746
 5532TIP3    H116560   1.108   5.522   3.480 -0.8686  0.1602 -1.1836
 5532TIP3    H216561   0.960   5.518   3.513 -0.3013  1.1148  1.7236
 5533TIP3   OH216562   1.699   5.404   1.234  0.2346  0.6009  0.3843
 5533TIP3    H116563   1.692   5.313   1.262 -0.2886  0.0226 -1.4705
 5533TIP3    H216564   1.764   5.402   1.164  0.6654  1.7695  0.7278
 5534TIP3   OH216565   5.651   3.403   4.724  0.5414 -0.3131  0.0221
 5534TIP3    H116566   5.605   3.407   4.808  0.8645 -1.4530  0.2753
 5534TIP3    H216567   5.701   3.485   4.721 -0.0396  0.0826  0.5930
 5535TIP3   OH216568   5.370   4.462   0.741  0.0336  0.2200 -0.1056
 5535TIP3    H116569   5.389   4.369   0.729  0.8935  0.1187  1.7663
 5535TIP3    H216570   5.418   4.487   0.820  1.1336  2.6608 -1.4259
 5536TIP3   OH216571   0.647   1.986   5.556  0.2541 -0.0463 -0.0875
 5536TIP3    H116572   0.670   1.967   5.647 -1.0911  0.4702  0.3798
 5536TIP3    H216573   0.600   1.909   5.526 -2.9076  1.3131  0.9909
 5537TIP3   OH216574   4.927   5.120   1.216  0.0109  0.1527  0.0600
 5537TIP3    H116575   4.933   5.209   1.251  0.1834  0.7204 -1.3640
 5537TIP3    H216576   5.007   5.077   1.245  0.7628  1.0146 -0.7147
 5538TIP3   OH216577   4.704   0.187   2.234  0.0342 -0.4611  0.0016
 5538TIP3    H116578   4.760   0.129   2.182 -1.5566 -1.3453 -0.7782
 5538TIP3    H216579   4.763   0.223   2.300  1.0069 -3.4818  0.9594
 5539TIP3   OH216580   3.450   1.439   2.657 -0.0893 -0.1647 -0.0504
 5539TIP3    H116581   3.441   1.502   2.729 -2.7206  1.4789 -1.6755
 5539TIP3    H216582   3.523   1.382   2.684 -0.5772  0.7183  3.5965
 5540TIP3   OH216583   0.553   5.959   5.146 -0.3818  0.3151  0.1662
 5540TIP3    H116584   0.616   5.918   5.206 -1.5041 -0.9784  0.5012
 5540TIP3    H216585   0.583   5.934   5.059 -0.7945 -0.8835  0.3514
 5541TIP3   OH216586   4.635   4.549   0.189  0.3652  0.7702  0.0031
 5541TIP3    H116587   4.714   4.600   0.171  2.1714 -1.8055  0.1553
 5541TIP3    H216588   4.655   4.501   0.270 -0.5468 -1.4266 -0.9980
 5542TIP3   OH216589   3.993   4.902   2.789 -0.1204 -0.4722 -0.3471
 5542TIP3    H116590   4.048   4.830   2.757  0.7742 -0.3948  0.9600
 5542TIP3    H216591   3.937   4.923   2.714  1.6961 -0.4574 -1.7926
 5543TIP3   OH216592   2.990   2.373   2.922 -0.2235  0.3747 -0.2050
 5543TIP3    H116593   2.982   2.290   2.968  0.5045 -0.3842 -1.4016
 5543TIP3    H216594   2.919   2.427   2.957 -1.3574 -1.1009 -0.1416
 5544TIP3   OH216595   1.100   5.470   0.653 -0.1265 -0.4250 -0.1089
 5544TIP3    H116596   1.016   5.469   0.607  0.2833  1.0938 -0.9551
 5544TIP3    H216597   1.165   5.450   0.586  0.3202 -0.0278  0.1946
 5545TIP3   OH216598   1.606   6.031   1.747 -0.2566  0.0947  0.4532
 5545TIP3    H116599   1.584   5.989   1.664 -0.7023  1.1423  0.0248
 5545TIP3    H216600   1.550   6.109   1.751  0.0346  0.2739  1.5558
 5546TIP3   OH216601   6.617   5.831   5.270  0.5006  0.6712  0.4924
 5546TIP3    H116602   6.642   5.862   5.357  1.9936 -0.6574  0.5863
 5546TIP3    H216603   6.693   5.782   5.240 -0.5392 -0.1052 -0.9787
 5547TIP3   OH216604   6.352   5.927   4.584  0.4272  0.1409 -0.8130
 5547TIP3    H116605   6.398   5.991   4.638  1.2913  0.8961 -2.3837
 5547TIP3    H216606   6.261   5.958   4.581  0.4373  0.2562 -0.0785
 5548TIP3   OH216607   4.237   0.999   1.244 -0.0773  0.4133 -0.0064
 5548TIP3    H116608   4.230   1.028   1.153 -1.7489  0.4031  0.0796
 5548TIP3    H216609   4.320   0.952   1.248  1.1095  2.2992 -0.9657
 5549TIP3   OH216610   4.106   6.731   3.188 -0.4980  0.0601 -0.2517
 5549TIP3    H116611   4.104   6.706   3.096  2.5985 -0.2029 -0.3337
 5549TIP3    H216612   4.146   6.818   3.189 -0.7495  0.1837  0.8461
 5550TIP3   OH216613   1.844   6.584   1.483  0.1442  0.2647 -0.1900
 5550TIP3    H116614   1.864   6.510   1.425 -0.2972  0.1458 -0.1924
 5550TIP3    H216615   1.924   6.636   1.483  0.9983 -0.9969  1.0118
 5551TIP3   OH216616   3.678   5.937   4.253 -0.0637  0.0792 -0.2028
 5551TIP3    H116617   3.668   6.009   4.315 -0.0146 -0.0342 -0.0625
 5551TIP3    H216618   3.661   5.858   4.305 -2.2288  0.0774 -0.8106
 5552TIP3   OH216619   3.450   3.074   0.730 -0.0792  0.3084 -0.4680
 5552TIP3    H116620   3.503   2.994   0.730  0.2955  0.5549 -0.0797
 5552TIP3    H216621   3.487   3.127   0.801 -1.3930  0.1152  0.3983
 5553TIP3   OH216622   3.863   2.014   4.655  0.8278  0.0410  0.4411
 5553TIP3    H116623   3.863   2.027   4.560  1.7437 -0.9880  0.2851
 5553TIP3    H216624   3.825   1.927   4.667 -2.4011  1.4298  1.2619
 5554TIP3   OH216625   2.797   6.732   2.700 -0.2282  0.4169  0.4152
 5554TIP3    H116626   2.797   6.725   2.795  1.5883 -0.6706  0.3789
 5554TIP3    H216627   2.848   6.811   2.682 -0.3080  0.4511  0.3393
 5555TIP3   OH216628   5.995   5.761   4.680  0.2934  0.4336  0.0871
 5555TIP3    H116629   6.051   5.815   4.737  1.0501  0.3915 -0.5951
 5555TIP3    H216630   5.937   5.715   4.741  1.2342  0.2179  0.8658
 5556TIP3   OH216631   3.171   5.883   2.994 -0.0356  0.4279 -0.4907
 5556TIP3    H116632   3.094   5.871   2.938  0.0820 -1.5565 -0.3047
 5556TIP3    H216633   3.167   5.974   3.021 -1.2052  0.8936 -2.1068
 5557TIP3   OH216634   1.228   0.702   5.215  0.0395 -0.1933 -0.4978
 5557TIP3    H116635   1.157   0.648   5.180  0.3461  0.0313 -1.5147
 5557TIP3    H216636   1.188   0.788   5.231 -0.1642 -0.3717 -0.0318
 5558TIP3   OH216637   4.235   4.344   2.220  0.3171 -0.8568  0.8838
 5558TIP3    H116638   4.181   4.335   2.142 -0.7886  0.0493  1.5185
 5558TIP3    H216639   4.188   4.296   2.288 -0.9779  1.8036  2.0208
 5559TIP3   OH216640   6.656   2.366   3.711  0.0901 -0.8106  0.2814
 5559TIP3    H116641   6.733   2.337   3.662  0.1178  0.8505 -0.7312
 5559TIP3    H216642   6.607   2.419   3.648  0.6416  2.3342  2.2966
 5560TIP3   OH216643   2.855   0.287   0.911 -0.1933  0.1573  0.4048
 5560TIP3    H116644   2.827   0.344   0.983  2.4203  1.2932  0.6173
 5560TIP3    H216645   2.950   0.296   0.908 -0.0137 -1.5284 -1.8413
 5561TIP3   OH216646   2.030   5.548   2.949  0.0348 -0.2546 -0.3494
 5561TIP3    H116647   2.044   5.638   2.919  0.5312 -0.2863 -0.2303
 5561TIP3    H216648   2.104   5.531   3.008 -0.9275 -0.1826  0.9382
 5562TIP3   OH216649   3.473   0.510   2.198 -0.2865  0.3564  0.4446
 5562TIP3    H116650   3.387   0.493   2.235 -0.1216 -0.6230  0.4286
 5562TIP3    H216651   3.459   0.512   2.103 -0.0643 -1.4777  0.3366
 5563TIP3   OH216652   6.177   3.029   2.981 -0.5493  0.5321  0.0745
 5563TIP3    H116653   6.255   3.000   3.029 -1.3962 -0.7070  0.7691
 5563TIP3    H216654   6.211   3.086   2.912  1.1187 -1.1619 -0.5877
 5564TIP3   OH216655   1.364   4.584   1.336 -0.1670 -0.3117 -0.3597
 5564TIP3    H116656   1.337   4.493   1.351  0.2300 -0.3000  0.4896
 5564TIP3    H216657   1.447   4.593   1.383 -0.5404  0.6748  0.1530
 5565TIP3   OH216658   0.441   5.320   4.766  0.3208  0.6517 -0.3252
 5565TIP3    H116659   0.397   5.246   4.724  2.4954 -0.2328 -1.2041
 5565TIP3    H216660   0.386   5.395   4.747 -2.9169 -0.8558  2.0246
 5566TIP3   OH216661   2.941   1.659   3.004  0.6490 -0.2798  0.5513
 5566TIP3    H116662   2.932   1.606   2.925  1.8010 -0.4806  0.5354
 5566TIP3    H216663   2.870   1.630   3.061 -0.1775 -0.1521 -0.3859
 5567TIP3   OH216664   4.462   6.155   3.752  0.0585 -0.2931 -0.2735
 5567TIP3    H116665   4.387   6.207   3.783 -0.5667 -0.1925 -1.8616
 5567TIP3    H216666   4.422   6.076   3.715  0.8849 -1.0575  0.4146
 5568TIP3   OH216667   0.277   0.347   3.484  0.1031  0.4339  0.4058
 5568TIP3    H116668   0.305   0.387   3.566  0.7501  1.9008 -0.4772
 5568TIP3    H216669   0.353   0.298   3.454  1.2099  2.7844 -0.9954
 5569TIP3   OH216670   1.642   6.760   3.839  0.0819 -0.1262 -0.3211
 5569TIP3    H116671   1.586   6.824   3.882  2.5069  1.2378  0.9851
 5569TIP3    H216672   1.645   6.789   3.748  1.4306  1.9076  0.3215
 5570TIP3   OH216673   5.382   4.389   2.509  0.1419 -0.4360  0.4099
 5570TIP3    H116674   5.354   4.459   2.449 -0.9263 -0.6593  0.6197
 5570TIP3    H216675   5.438   4.332   2.456 -2.1008 -1.5564 -0.8968
 5571TIP3   OH216676   0.862   1.469   3.090 -0.2237 -0.2632 -0.5583
 5571TIP3    H116677   0.873   1.518   3.009 -1.9653 -0.9367 -1.2589
 5571TIP3    H216678   0.804   1.523   3.144  1.3392  0.4238  0.4945
 5572TIP3   OH216679   0.528   1.755   5.230 -0.2137 -0.2865 -0.6643
 5572TIP3    H116680   0.477   1.833   5.256 -1.3857 -0.3463 -2.5727
 5572TIP3    H216681   0.615   1.789   5.211 -0.4863  0.4148 -0.6962
 5573TIP3   OH216682   1.177   5.410   1.946  0.0007  0.4410 -0.5096
 5573TIP3    H116683   1.207   5.323   1.919  0.5599  0.8374 -1.1955
 5573TIP3    H216684   1.238   5.470   1.905 -0.1428  1.1495  0.2927
 5574TIP3   OH216685   7.193   2.469   3.136 -0.3804  0.6040  0.8133
 5574TIP3    H116686   7.108   2.428   3.122  0.0364  0.4899 -1.6791
 5574TIP3    H216687   7.254   2.396   3.147 -0.2121  0.6069 -0.0288
 5575TIP3   OH216688   2.629   4.703   4.416  0.1573  0.5257 -0.3037
 5575TIP3    H116689   2.597   4.637   4.478 -0.0747 -1.0112 -1.9595
 5575TIP3    H216690   2.596   4.786   4.450 -4.2244 -0.7079 -0.8709
 5576TIP3   OH216691   0.367   6.470   0.626 -0.2648 -0.1581  0.2235
 5576TIP3    H116692   0.415   6.388   0.633  1.3101  0.8333  2.3938
 5576TIP3    H216693   0.279   6.450   0.660  0.1457 -0.9150  0.8777
 5577TIP3   OH216694   2.136   3.907   4.007  0.1920  0.7270 -0.0529
 5577TIP3    H116695   2.110   3.994   4.035 -1.3029  0.6169 -0.9712
 5577TIP3    H216696   2.080   3.888   3.932  2.2586 -0.0053 -1.4948
 5578TIP3   OH216697   3.632   3.228   5.338  0.3901 -0.4777 -0.2187
 5578TIP3    H116698   3.556   3.231   5.397 -1.3291 -1.0280 -2.2742
 5578TIP3    H216699   3.600   3.266   5.256  1.3683 -3.4482 -2.1338
 5579TIP3   OH216700   6.344   1.297   2.265  0.3837  0.0764  0.5347
 5579TIP3    H116701   6.339   1.349   2.345 -2.4219  0.6367  0.1026
 5579TIP3    H216702   6.280   1.226   2.278 -0.4420  0.4056 -1.3117
 5580TIP3   OH216703   0.482   0.561   4.544  0.9565  0.2121 -0.3982
 5580TIP3    H116704   0.538   0.490   4.575  1.9737  1.1097 -0.0995
 5580TIP3    H216705   0.495   0.563   4.449 -0.1394 -0.8629 -0.5902
 5581TIP3   OH216706   4.292   5.688   4.571 -0.4383 -0.0488  0.1776
 5581TIP3    H116707   4.227   5.672   4.503  0.6901  0.0810 -0.9814
 5581TIP3    H216708   4.375   5.660   4.532  0.5235  1.7374  0.8042
 5582TIP3   OH216709   4.847   0.125   1.991 -0.1912  0.5550 -0.1476
 5582TIP3    H116710   4.856   0.050   1.933 -1.1998  0.6386 -0.4163
 5582TIP3    H216711   4.932   0.169   1.987  0.7593 -1.1129  0.7889
 5583TIP3   OH216712   2.676   5.316   0.998  0.2846 -0.1648  0.5318
 5583TIP3    H116713   2.738   5.364   0.943  0.1100 -2.0171 -1.4459
 5583TIP3    H216714   2.693   5.347   1.087  1.3773  2.1542 -0.3968
 5584TIP3   OH216715   1.689   2.433   2.075  0.1468 -0.0765 -0.0811
 5584TIP3    H116716   1.715   2.508   2.128  0.5467 -1.0126  1.0880
 5584TIP3    H216717   1.771   2.394   2.045 -0.0654  0.1410 -0.9788
 5585TIP3   OH216718   2.472   1.121   3.634  0.2064  0.5406 -0.2755
 5585TIP3    H116719   2.477   1.114   3.539  1.0867  1.2999 -0.3018
 5585TIP3    H216720   2.557   1.157   3.660  0.8520 -1.6710  1.0077
 5586TIP3   OH216721   6.069   6.748   4.321  0.2789  0.6780  0.5803
 5586TIP3    H116722   6.085   6.757   4.227  1.4398  0.9216  0.7835
 5586TIP3    H216723   5.974   6.756   4.330  0.0493 -0.3368 -0.6680
 5587TIP3   OH216724   0.658   4.197   5.248 -0.9684  0.5280 -0.6479
 5587TIP3    H116725   0.569   4.170   5.271 -0.7308 -2.3178 -2.5482
 5587TIP3    H216726   0.709   4.116   5.251  0.5723  1.2142 -3.7858
 5588TIP3   OH216727   0.758   3.114   5.763  0.1772  0.2059  0.0823
 5588TIP3    H116728   0.691   3.051   5.793  1.3957 -0.9914  0.3888
 5588TIP3    H216729   0.708   3.189   5.731 -1.2946  0.0200  1.7661
 5589TIP3   OH216730   2.924   0.623   0.129  0.2527  0.0449  0.2629
 5589TIP3    H116731   2.846   0.641   0.076 -1.8383  0.5262  3.2283
 5589TIP3    H216732   2.974   0.705   0.127  1.2582 -0.5185 -2.3281
 5590TIP3   OH216733   2.205   1.389   5.608  0.2543 -0.3264  0.6666
 5590TIP3    H116734   2.158   1.347   5.680 -0.0815 -0.6257  0.2766
 5590TIP3    H216735   2.251   1.317   5.565 -1.2712 -0.5138 -0.7417
 5591TIP3   OH216736   6.422   2.857   5.152  0.4893 -0.1404  0.0360
 5591TIP3    H116737   6.374   2.776   5.133 -0.1467  0.3685 -0.5696
 5591TIP3    H216738   6.510   2.841   5.117  0.1726 -0.3260 -0.6913
 5592TIP3   OH216739   1.844   2.597   1.188 -0.1468  0.4385  0.0494
 5592TIP3    H116740   1.899   2.543   1.245 -0.7595 -0.1089  0.1359
 5592TIP3    H216741   1.839   2.682   1.232  1.7368  0.9554 -0.6289
 5593TIP3   OH216742   1.193   6.277   5.322  0.1597 -0.7603  0.2126
 5593TIP3    H116743   1.101   6.298   5.306  0.0981 -0.3751  1.0385
 5593TIP3    H216744   1.225   6.245   5.238 -0.4748  0.0346 -0.3435
 5594TIP3   OH216745   5.801   0.149   4.933 -0.1361 -0.7639 -0.0391
 5594TIP3    H116746   5.880   0.139   4.880 -2.3663 -1.3864 -3.5793
 5594TIP3    H216747   5.772   0.060   4.950 -0.1241 -0.5429  1.2093
 5595TIP3   OH216748   0.518   6.468   4.599 -0.1198 -0.3275  0.2390
 5595TIP3    H116749   0.524   6.426   4.513  0.3050  0.2863 -0.0460
 5595TIP3    H216750   0.582   6.421   4.653 -2.2867 -2.5447  1.0607
 5596TIP3   OH216751   1.066   1.975   5.641  0.0682 -0.0170  0.5923
 5596TIP3    H116752   1.113   2.038   5.586  0.7122 -0.9345  0.0649
 5596TIP3    H216753   1.010   1.927   5.579  0.5998 -0.8783  0.7536
 5597TIP3   OH216754   2.674   5.784   1.317  0.3469 -0.5564  0.0897
 5597TIP3    H116755   2.578   5.782   1.318  0.3036  0.6316  1.4392
 5597TIP3    H216756   2.696   5.784   1.224 -0.7707 -4.6587 -0.3695
 5598TIP3   OH216757   0.400   6.017   5.807 -0.1496  0.4295  0.3776
 5598TIP3    H116758   0.416   6.099   5.761  0.0984  0.2016  0.0423
 5598TIP3    H216759   0.330   5.975   5.756  0.9215 -0.3497 -0.5033
 5599TIP3   OH216760   3.882   0.106   4.044  0.0794 -0.1416 -0.2310
 5599TIP3    H116761   3.848   0.169   4.108  0.5906  3.3456 -3.0278
 5599TIP3    H216762   3.808   0.090   3.985  0.5762 -0.2897 -0.8280
 5600TIP3   OH216763   2.527   0.108   4.240 -0.0224  0.1490  0.1139
 5600TIP3    H116764   2.598   0.171   4.241  1.5237 -1.4994 -0.6992
 5600TIP3    H216765   2.513   0.084   4.331 -0.1187  1.0770  0.3507
 5601TIP3   OH216766   2.359   4.858   4.034 -0.2313  0.0977 -0.3636
 5601TIP3    H116767   2.350   4.776   3.986 -0.1596  0.5626 -1.1932
 5601TIP3    H216768   2.273   4.872   4.074 -0.6755  0.3115 -1.3631
 5602TIP3   OH216769   3.036   1.516   5.881 -0.0999 -0.5444  0.2596
 5602TIP3    H116770   2.941   1.510   5.889 -0.2008  0.3219 -0.2015
 5602TIP3    H216771   3.058   1.454   5.811 -0.3351 -0.6817  0.3071
 5603TIP3   OH216772   5.869   3.034   3.475 -0.2133  0.0442 -0.4226
 5603TIP3    H116773   5.934   3.013   3.408  1.5774  0.1884  1.1808
 5603TIP3    H216774   5.844   3.125   3.458  1.6568  0.7171  0.1627
 5604TIP3   OH216775   0.462   3.743   5.530  0.5387  0.1181  0.1216
 5604TIP3    H116776   0.427   3.654   5.527  1.0588 -0.0613 -1.2426
 5604TIP3    H216777   0.507   3.754   5.446  1.9517  1.0659  0.9584
 5605TIP3   OH216778   5.733   6.070   0.263 -0.0745 -0.2537 -0.2626
 5605TIP3    H116779   5.744   5.980   0.296 -0.0711 -0.0405  0.3193
 5605TIP3    H216780   5.685   6.059   0.181  1.9219 -0.9780 -1.4147
 5606TIP3   OH216781   4.033   4.437   4.658  0.8592 -0.7277 -0.2779
 5606TIP3    H116782   3.991   4.522   4.664  0.3103 -1.0106 -0.0018
 5606TIP3    H216783   4.002   4.389   4.735  2.0643 -0.7873  0.1916
 5607TIP3   OH216784   3.084   4.172   1.239  0.3381 -0.0329  0.4304
 5607TIP3    H116785   2.990   4.155   1.230 -0.0238  1.7870  0.3170
 5607TIP3    H216786   3.121   4.149   1.154 -0.0377 -0.5035  0.3891
 5608TIP3   OH216787   0.908   0.617   4.300  0.5611  0.4224  0.3159
 5608TIP3    H116788   0.874   0.703   4.274 -1.8996 -0.4301  0.4595
 5608TIP3    H216789   0.982   0.602   4.242  1.7823  3.0820  1.0228
 5609TIP3   OH216790   5.296   0.651   2.139 -0.3305  0.1403  0.1467
 5609TIP3    H116791   5.326   0.573   2.185 -1.6210 -0.6514 -0.3123
 5609TIP3    H216792   5.211   0.627   2.103  0.2962  0.9357 -2.0872
 5610TIP3   OH216793   3.216   3.539   0.741 -0.0385 -0.4953 -0.2608
 5610TIP3    H116794   3.215   3.475   0.670  0.5243  0.2201 -0.9400
 5610TIP3    H216795   3.227   3.488   0.821  1.4204 -1.1754 -0.8714
 5611TIP3   OH216796   2.494   2.480   0.974 -0.0111 -0.0894  0.5674
 5611TIP3    H116797   2.422   2.418   0.964 -0.5340  0.6035  0.0055
 5611TIP3    H216798   2.573   2.428   0.959 -0.4778 -0.4591 -0.6841
 5612TIP3   OH216799   3.591   0.168   2.556 -0.0722  0.2655  0.3221
 5612TIP3    H116800   3.522   0.181   2.621 -1.0010  0.3287 -0.6425
 5612TIP3    H216801   3.660   0.229   2.581 -1.9484  3.0666 -0.8477
 5613TIP3   OH216802   0.846   5.110   3.529 -0.3156  0.1393 -0.3817
 5613TIP3    H116803   0.869   5.155   3.610  0.2878  0.5916 -0.8020
 5613TIP3    H216804   0.853   5.017   3.551  2.7395  0.1844 -0.6539
 5614TIP3   OH216805   6.038   5.738   5.443  0.2746  0.1823 -0.2496
 5614TIP3    H116806   6.040   5.644   5.458  0.3226  0.3790  1.0888
 5614TIP3    H216807   5.993   5.774   5.519  0.9271  1.3053 -0.3721
 5615TIP3   OH216808   6.978   5.819   0.593 -0.2085 -0.6442 -0.0578
 5615TIP3    H116809   7.073   5.829   0.605 -0.4047 -0.5804  1.6975
 5615TIP3    H216810   6.967   5.731   0.557  0.6033 -0.0308 -1.9176
 5616TIP3   OH216811   4.374   4.056   5.918 -0.3423  0.2714  0.4469
 5616TIP3    H116812   4.376   4.043   5.823 -0.5792  0.0847  0.4660
 5616TIP3    H216813   4.432   4.130   5.933 -1.0663  0.9459  0.0378
 5617TIP3   OH216814   4.922   1.540   0.332  0.1240 -0.2648  0.1779
 5617TIP3    H116815   4.940   1.621   0.284  0.6925  0.9453  2.3239
 5617TIP3    H216816   4.963   1.472   0.279 -0.0245  0.8650 -1.4841
 5618TIP3   OH216817   3.289   0.522   3.139  1.2145  0.1730  0.5379
 5618TIP3    H116818   3.274   0.528   3.045  3.0512 -1.2766  0.0776
 5618TIP3    H216819   3.202   0.526   3.178  0.5273  2.7883 -1.0336
 5619TIP3   OH216820   2.689   4.323   1.232 -0.3948  0.3640 -0.1545
 5619TIP3    H116821   2.738   4.260   1.179  0.1504  1.4548 -0.9840
 5619TIP3    H216822   2.645   4.379   1.169 -0.0869  1.4277  0.5409
 5620TIP3   OH216823   4.263   1.511   3.558 -0.0048  0.5191  0.4958
 5620TIP3    H116824   4.274   1.519   3.652 -0.6031 -0.3124  0.6478
 5620TIP3    H216825   4.187   1.454   3.547  0.9582 -0.6126 -0.4845
 5621TIP3   OH216826   6.740   2.230   1.468  0.2313  0.1055 -0.0171
 5621TIP3    H116827   6.751   2.319   1.500  0.7029  0.3245 -0.7504
 5621TIP3    H216828   6.647   2.223   1.448  0.3290  0.7296 -0.7589
 5622TIP3   OH216829   2.745   2.433   4.059 -0.2422 -0.1639  0.0259
 5622TIP3    H116830   2.684   2.362   4.042  0.2628 -0.5609 -0.1378
 5622TIP3    H216831   2.701   2.511   4.023 -2.1326  0.1829  2.7534
 5623TIP3   OH216832   3.427   1.929   4.650  0.5795 -0.4713  0.1341
 5623TIP3    H116833   3.453   1.988   4.721 -0.8884 -0.4321  0.6900
 5623TIP3    H216834   3.367   1.867   4.691 -1.9201  0.7593 -1.3912
 5624TIP3   OH216835   4.481   2.942   0.063  0.1793  0.0825  0.4438
 5624TIP3    H116836   4.410   2.982   0.114 -1.3501 -0.0343 -1.4959
 5624TIP3    H216837   4.487   2.853   0.098 -2.0178 -0.5546 -0.6100
 5625TIP3   OH216838   2.444   4.604   1.745  0.1167  0.6007  0.0614
 5625TIP3    H116839   2.478   4.570   1.828 -1.8771  1.0569  1.1436
 5625TIP3    H216840   2.370   4.547   1.725  0.7658  0.3089 -1.6011
 5626TIP3   OH216841   6.089   3.402   1.279 -0.5068  0.2902 -0.9403
 5626TIP3    H116842   5.996   3.383   1.263 -0.4653 -1.5486  0.6824
 5626TIP3    H216843   6.089   3.456   1.358 -0.1539 -1.7577  0.5416
 5627TIP3   OH216844   0.936   6.347   4.962  0.1278 -0.1713 -0.1326
 5627TIP3    H116845   1.004   6.332   4.896  0.1255  0.3358 -0.2578
 5627TIP3    H216846   0.942   6.441   4.982  0.7437 -0.4886  1.2794
 5628TIP3   OH216847   6.277   2.790   0.269  0.0409  0.4700 -0.3331
 5628TIP3    H116848   6.335   2.744   0.208  1.9354  0.1142  1.5978
 5628TIP3    H216849   6.337   2.840   0.325 -1.7977  3.3270 -0.7234
 5629TIP3   OH216850   2.794   3.000   4.073  0.6299  0.1912 -0.3305
 5629TIP3    H116851   2.725   2.968   4.131  0.9104  0.0417 -0.0711
 5629TIP3    H216852   2.875   2.987   4.124  0.8328  0.4841 -0.5770
 5630TIP3   OH216853   4.277   3.897   1.774 -0.6570  0.3938  0.1403
 5630TIP3    H116854   4.311   3.910   1.862  0.3725 -2.3234  0.2284
 5630TIP3    H216855   4.191   3.858   1.786 -0.2433 -0.5993 -0.0171
 5631TIP3   OH216856   5.161   6.428   5.007  0.5711 -0.3454  0.1081
 5631TIP3    H116857   5.215   6.370   4.953  1.3147  0.7955 -0.4165
 5631TIP3    H216858   5.091   6.458   4.948  0.2935 -0.5641  0.3243
 5632TIP3   OH216859   5.382   2.144   1.202 -0.0439 -0.4824 -0.1005
 5632TIP3    H116860   5.429   2.111   1.279  3.9120  0.1594 -1.9873
 5632TIP3    H216861   5.407   2.237   1.197 -0.6104 -0.3934 -1.8683
 5633TIP3   OH216862   4.233   1.790   2.419  0.4565 -0.2962  0.4137
 5633TIP3    H116863   4.185   1.819   2.496 -1.0568  1.4115 -1.0928
 5633TIP3    H216864   4.213   1.697   2.412  1.2196 -0.6735  2.4394
 5634TIP3   OH216865   0.242   2.895   4.578  0.6213 -0.5872 -0.2346
 5634TIP3    H116866   0.296   2.950   4.635 -0.7530  1.6682 -0.9666
 5634TIP3    H216867   0.293   2.816   4.565  2.9730  0.7206  0.4632
 5635TIP3   OH216868   2.849   1.529   0.033  0.1310  0.4099  0.0818
 5635TIP3    H116869   2.790   1.463   0.070 -0.2612  0.4867 -0.4069
 5635TIP3    H216870   2.887   1.487  -0.044  0.4772  0.4747  0.2162
 5636TIP3   OH216871   3.010   5.495   2.169  0.6968 -0.4777  0.9798
 5636TIP3    H116872   3.091   5.445   2.173 -0.0503 -1.6655  1.7488
 5636TIP3    H216873   3.007   5.543   2.252  1.2525  0.6465  0.3811
 5637TIP3   OH216874   4.034   1.305   0.555 -0.4959 -0.1237  0.4083
 5637TIP3    H116875   3.988   1.378   0.514 -0.8469  0.1738  1.3115
 5637TIP3    H216876   3.986   1.289   0.636  0.8902  0.0769  1.2929
 5638TIP3   OH216877   2.856   5.464   0.867 -0.4981  0.2284 -0.5027
 5638TIP3    H116878   2.909   5.543   0.866  1.1205 -0.8092 -0.1574
 5638TIP3    H216879   2.864   5.429   0.778 -1.4089  0.5640 -0.7260
 5639TIP3   OH216880   7.134   4.121   0.048 -0.6041  0.3550 -0.0541
 5639TIP3    H116881   7.123   4.133  -0.046 -2.2488 -1.7627 -0.2060
 5639TIP3    H216882   7.082   4.192   0.087  0.4048  1.4866 -0.6863
 5640TIP3   OH216883   0.992   4.762   1.174 -0.3359  0.0701  0.5272
 5640TIP3    H116884   1.069   4.708   1.158 -0.1008 -0.6504  3.4781
 5640TIP3    H216885   1.019   4.851   1.149  1.2644 -0.2674  0.9605
 5641TIP3   OH216886   1.263   4.847   2.710  0.7761 -0.3164 -0.0345
 5641TIP3    H116887   1.269   4.752   2.716  2.1354 -0.3240 -1.0959
 5641TIP3    H216888   1.339   4.873   2.658  1.2943  1.4929  1.5182
 5642TIP3   OH216889   1.956   1.047   3.826  0.5450  0.3405  0.0206
 5642TIP3    H116890   2.024   1.009   3.770  1.3993  2.9072 -0.8096
 5642TIP3    H216891   1.967   1.002   3.910  2.6283 -0.0119 -0.3781
 5643TIP3   OH216892   1.395   3.537   1.302 -0.5626 -0.0441 -0.0082
 5643TIP3    H116893   1.354   3.494   1.227  0.5139  0.4773 -0.9344
 5643TIP3    H216894   1.331   3.603   1.330 -0.8592 -0.0294 -0.6839
 5644TIP3   OH216895   7.092   4.260   0.612  0.2091  0.0799 -0.1256
 5644TIP3    H116896   7.171   4.246   0.560  0.2747 -0.5855  0.1426
 5644TIP3    H216897   7.124   4.289   0.697  0.1761 -0.3553  0.0373
 5645TIP3   OH216898   1.899   2.170   2.895 -0.1606 -0.2428  0.1111
 5645TIP3    H116899   1.865   2.137   2.812 -0.3509 -1.5540  0.6926
 5645TIP3    H216900   1.925   2.260   2.876 -0.2684 -0.4981 -1.3486
 5646TIP3   OH216901   0.092   2.784   1.269 -0.3526 -0.1961  0.4498
 5646TIP3    H116902   0.160   2.767   1.334 -0.3087  0.6484  0.6346
 5646TIP3    H216903   0.043   2.858   1.304 -0.9646 -0.3814  0.0014
 5647TIP3   OH216904   6.132   4.995   4.821 -0.1858 -0.2181  0.0870
 5647TIP3    H116905   6.213   5.020   4.865  0.7658 -3.4685  0.5096
 5647TIP3    H216906   6.100   4.921   4.873 -1.9924 -0.6819 -1.5981
 5648TIP3   OH216907   7.176   1.896   4.933 -0.0718  0.5650  0.0908
 5648TIP3    H116908   7.112   1.912   4.864  0.1640 -1.6719 -0.7340
 5648TIP3    H216909   7.136   1.932   5.012 -2.4487 -0.8504 -0.3667
 5649TIP3   OH216910   4.705   3.766   2.555 -0.1163 -0.0196 -0.3046
 5649TIP3    H116911   4.789   3.723   2.567  0.9935  2.1647  0.1929
 5649TIP3    H216912   4.669   3.774   2.643  0.1945  0.9852 -0.2549
 5650TIP3   OH216913   1.666   2.100   0.218 -0.7146  0.2485 -0.3864
 5650TIP3    H116914   1.582   2.084   0.262 -0.1736 -1.6484  0.0435
 5650TIP3    H216915   1.730   2.050   0.270  0.8744  2.3927 -0.1525
 5651TIP3   OH216916   5.545   4.904   3.547 -0.0729 -0.1213 -0.4633
 5651TIP3    H116917   5.455   4.916   3.516 -0.1457  0.3460 -0.0817
 5651TIP3    H216918   5.548   4.812   3.575 -0.1763 -0.3823 -1.2836
 5652TIP3   OH216919   1.304   5.346   5.448  0.0396  0.6985  0.4151
 5652TIP3    H116920   1.284   5.306   5.363  2.4751 -1.7232  0.8606
 5652TIP3    H216921   1.219   5.375   5.481 -0.9822  1.9254 -2.8783
 5653TIP3   OH216922   2.922   4.726   2.408  0.1200 -0.1359 -1.0524
 5653TIP3    H116923   2.939   4.816   2.381 -0.1963 -0.0611 -1.0035
 5653TIP3    H216924   2.916   4.677   2.326 -1.3775  0.1848 -1.1677
 5654TIP3   OH216925   3.530   6.690   0.642  0.1132  0.1378 -0.0756
 5654TIP3    H116926   3.500   6.662   0.556 -0.8753 -0.3787  0.4305
 5654TIP3    H216927   3.491   6.777   0.654 -3.8660 -1.6448  1.7938
 5655TIP3   OH216928   5.235   0.911   0.564 -0.1288  0.5009  0.1820
 5655TIP3    H116929   5.237   0.911   0.660  0.6231 -1.9992  0.2520
 5655TIP3    H216930   5.325   0.926   0.538  0.0056 -0.6139 -0.0503
 5656TIP3   OH216931   5.295   6.529   2.357 -0.4067  0.3971 -0.9987
 5656TIP3    H116932   5.335   6.605   2.314 -0.1575  0.7247 -0.2093
 5656TIP3    H216933   5.356   6.507   2.428 -0.2830 -0.7840 -1.4570
 5657TIP3   OH216934   6.191   1.804   2.804 -0.2330  0.4348 -0.3253
 5657TIP3    H116935   6.125   1.801   2.873  0.5275  1.3966  0.4713
 5657TIP3    H216936   6.194   1.895   2.777  2.0432  0.8191  0.9666
 5658TIP3   OH216937   6.175   6.027   1.769 -0.2111 -0.0751 -0.4572
 5658TIP3    H116938   6.121   6.075   1.707 -0.3191 -1.1876 -1.2515
 5658TIP3    H216939   6.261   6.023   1.728  1.1754  3.3567  1.6216
 5659TIP3   OH216940   6.216   0.166   5.599  0.3067  0.1484 -0.0092
 5659TIP3    H116941   6.255   0.198   5.681 -2.3611  1.4381  0.8985
 5659TIP3    H216942   6.262   0.214   5.530  0.4467  1.5158  0.9804
 5660TIP3   OH216943   4.636   1.489   0.285 -0.4460 -0.4165 -0.6414
 5660TIP3    H116944   4.582   1.476   0.363 -0.3940  0.0536 -0.5207
 5660TIP3    H216945   4.723   1.509   0.319 -0.3699 -0.4405 -0.8236
 5661TIP3   OH216946   3.981   2.269   3.923 -0.5719  0.3142 -0.3758
 5661TIP3    H116947   3.950   2.240   4.009 -1.4885 -0.4909 -0.9475
 5661TIP3    H216948   3.916   2.234   3.862 -0.5447  1.8207 -1.3051
 5662TIP3   OH216949   1.581   1.587   4.526  0.6699  0.0347 -0.3453
 5662TIP3    H116950   1.600   1.627   4.441 -1.8133 -1.6151 -1.7945
 5662TIP3    H216951   1.624   1.502   4.522  1.7655  0.5167  0.6949
 5663TIP3   OH216952   5.966   5.267   3.496 -0.6193  0.4418  0.4663
 5663TIP3    H116953   5.982   5.348   3.448 -0.6323  0.9058  1.2183
 5663TIP3    H216954   5.898   5.290   3.559 -0.5855 -0.1411  0.7202
 5664TIP3   OH216955   3.053   4.630   3.266 -0.0335 -0.4346 -0.0375
 5664TIP3    H116956   3.114   4.704   3.258 -0.0504 -0.5089 -0.8881
 5664TIP3    H216957   3.026   4.611   3.176  0.4867 -1.9092  0.1019
 5665TIP3   OH216958   7.178   6.323   3.560  0.1968 -0.9538 -0.4946
 5665TIP3    H116959   7.175   6.409   3.519  0.0121 -0.8577 -0.2761
 5665TIP3    H216960   7.183   6.340   3.654 -3.6634 -1.1474 -0.0848
 5666TIP3   OH216961   5.523   2.713   3.992  0.2943 -0.0807 -0.2346
 5666TIP3    H116962   5.580   2.644   4.026  0.6151 -0.1533 -0.9003
 5666TIP3    H216963   5.505   2.688   3.901 -0.7381 -0.0162 -0.0652
 5667TIP3   OH216964   0.030   4.044   3.762  0.8227  0.7701  0.0927
 5667TIP3    H116965  -0.046   3.986   3.765  0.8937  0.6699 -0.0178
 5667TIP3    H216966   0.070   4.027   3.677  2.2053 -0.7987  0.9698
 5668TIP3   OH216967   6.538   3.372   0.464  0.6200 -0.4464  0.0066
 5668TIP3    H116968   6.620   3.412   0.434  1.0824 -2.9572 -2.5485
 5668TIP3    H216969   6.566   3.311   0.533  0.8394 -0.7591 -0.3496
 5669TIP3   OH216970   1.419   4.253   5.808  0.0665  0.0328  0.1773
 5669TIP3    H116971   1.503   4.298   5.793  0.9520 -1.1146  1.4786
 5669TIP3    H216972   1.401   4.210   5.724  2.0140 -1.6286  0.5362
 5670TIP3   OH216973   3.168   0.639   0.606 -0.4573  0.1116  0.3649
 5670TIP3    H116974   3.249   0.637   0.655 -0.6393 -0.0138  0.6638
 5670TIP3    H216975   3.111   0.576   0.651 -0.9562  0.6992  0.5730
 5671TIP3   OH216976   5.298   4.880   1.905 -0.2056  0.1616 -0.7503
 5671TIP3    H116977   5.204   4.881   1.887 -0.2128 -1.6459 -1.0376
 5671TIP3    H216978   5.329   4.800   1.863  1.0957 -0.3803  1.1308
 5672TIP3   OH216979   2.016   4.462   4.245 -0.0918  0.1422 -0.4624
 5672TIP3    H116980   1.954   4.389   4.242 -0.8728  0.8112 -1.9077
 5672TIP3    H216981   2.008   4.504   4.159  0.1462  2.0812  0.4014
 5673TIP3   OH216982   4.372   3.150   5.681 -0.1276  0.2029  0.2587
 5673TIP3    H116983   4.316   3.154   5.603  0.1514 -0.0143  0.0445
 5673TIP3    H216984   4.351   3.066   5.721 -0.2568  0.3059  0.4059
 5674TIP3   OH216985   1.003  -0.015   4.367 -0.1090  0.0281 -0.6583
 5674TIP3    H116986   0.990   0.027   4.452  1.3610 -0.3288 -0.2368
 5674TIP3    H216987   0.919  -0.004   4.323 -0.4737  1.4519  0.2899
 5675TIP3   OH216988   7.159   4.158   4.102 -0.2151  0.9846  0.5131
 5675TIP3    H116989   7.169   4.101   4.178 -1.4491  1.1450  0.8219
 5675TIP3    H216990   7.115   4.236   4.136 -2.0363  0.5033 -0.5720
 5676TIP3   OH216991   1.370   3.988   4.169 -0.3768 -0.2408 -0.1250
 5676TIP3    H116992   1.374   4.030   4.083 -1.2100 -0.8257 -0.4628
 5676TIP3    H216993   1.277   3.985   4.190 -0.3464 -1.7635 -0.0563
 5677TIP3   OH216994   0.635   6.493   0.342  0.1755 -0.0132 -0.1572
 5677TIP3    H116995   0.679   6.450   0.270  0.8910  0.1605  0.1706
 5677TIP3    H216996   0.670   6.451   0.421  0.5171  0.8197  0.1480
 5678TIP3   OH216997   2.677   6.408   3.502  0.5593  0.3836  0.4029
 5678TIP3    H116998   2.615   6.409   3.428  0.6185  0.8211  0.3535
 5678TIP3    H216999   2.621   6.420   3.579  0.5878  0.8855  0.3499
 5679TIP3   OH217000   1.266   3.208   2.200  0.4746  0.0628 -0.5425
 5679TIP3    H117001   1.208   3.132   2.189 -0.8347  0.6933  1.5421
 5679TIP3    H217002   1.233   3.273   2.138 -1.9552  0.8617  1.4343
 5680TIP3   OH217003   6.379   3.296   0.792 -0.4324  0.2520  0.6108
 5680TIP3    H117004   6.351   3.239   0.720 -0.6810  3.2103 -1.8713
 5680TIP3    H217005   6.472   3.311   0.777 -0.0755 -0.4142  1.9775
 5681TIP3   OH217006   5.804   4.531   5.841  0.4936 -0.9376  0.3141
 5681TIP3    H117007   5.891   4.564   5.817  0.2685 -0.5640 -0.0014
 5681TIP3    H217008   5.746   4.606   5.831  0.0691 -1.2794  0.1591
 5682TIP3   OH217009   3.114   3.551   5.072 -0.6306  0.5786 -0.0293
 5682TIP3    H117010   3.133   3.633   5.026 -0.4660 -0.3263 -1.6732
 5682TIP3    H217011   3.199   3.518   5.099 -0.6009  0.4959 -0.2178
 5683TIP3   OH217012   3.525   0.582   3.275  0.1117 -0.1449  0.1501
 5683TIP3    H117013   3.450   0.558   3.221  0.6999  0.6307 -1.0577
 5683TIP3    H217014   3.495   0.658   3.325 -1.0372 -1.9250  2.3674
 5684TIP3   OH217015   3.865   4.331   5.105 -0.3030 -0.0494 -0.1687
 5684TIP3    H117016   3.814   4.284   5.171 -0.7035  1.0524  0.3351
 5684TIP3    H217017   3.882   4.266   5.038  1.1053 -1.5429  1.5311
 5685TIP3   OH217018   6.861   6.589   3.314  0.2752 -0.1288  0.1632
 5685TIP3    H117019   6.833   6.547   3.396  1.1733  2.0476  1.6917
 5685TIP3    H217020   6.931   6.532   3.281 -1.0402 -1.7893  0.1028
 5686TIP3   OH217021   4.323   4.860   0.968 -0.1418 -0.4176 -0.5195
 5686TIP3    H117022   4.294   4.776   0.932  0.2777 -0.8723  0.1952
 5686TIP3    H217023   4.381   4.837   1.041 -1.1557  0.4886  0.6123
 5687TIP3   OH217024   4.559   2.217   0.739  0.5090 -0.3132  0.2328
 5687TIP3    H117025   4.602   2.289   0.786  1.4649 -0.6476 -0.0988
 5687TIP3    H217026   4.495   2.183   0.801 -0.4419  1.2400  0.1585
 5688TIP3   OH217027   2.907   6.240   3.521  0.5294 -0.2072 -0.2182
 5688TIP3    H117028   2.833   6.301   3.512  0.6338  0.1514  1.1271
 5688TIP3    H217029   2.869   6.154   3.501 -0.0571  0.0694 -0.3439
 5689TIP3   OH217030   5.353   5.143   1.181 -0.0010 -0.5309 -0.1089
 5689TIP3    H117031   5.439   5.170   1.212  0.3126 -1.4031 -0.1693
 5689TIP3    H217032   5.300   5.223   1.182  0.0822 -0.4296  2.2911
 5690TIP3   OH217033   5.613   3.674   1.739  0.2148  0.7992 -0.8051
 5690TIP3    H117034   5.636   3.727   1.815  2.5359  1.6451 -1.9847
 5690TIP3    H217035   5.609   3.737   1.667 -2.3338  0.0925 -1.3778
 5691TIP3   OH217036   6.840   3.710   1.824 -0.1447  0.4484 -0.1102
 5691TIP3    H117037   6.880   3.762   1.894 -0.2143 -0.1482  0.3815
 5691TIP3    H217038   6.880   3.744   1.744  1.9430 -0.6155  0.4142
 5692TIP3   OH217039   1.289   3.832   4.383 -0.4806  0.0636 -0.1847
 5692TIP3    H117040   1.355   3.846   4.316 -0.5768 -0.6183 -0.4353
 5692TIP3    H217041   1.336   3.839   4.466 -0.5634  2.0117 -0.2568
 5693TIP3   OH217042   7.052   0.402   2.299  0.3919  0.0205  0.3053
 5693TIP3    H117043   7.006   0.457   2.362  0.2744 -1.2807  1.3998
 5693TIP3    H217044   7.133   0.450   2.280  0.1733  0.6895  1.0163
 5694TIP3   OH217045   6.136   1.684   3.588  0.2068 -0.5262 -0.4912
 5694TIP3    H117046   6.087   1.604   3.572  0.3914 -0.5044 -1.2245
 5694TIP3    H217047   6.169   1.709   3.501  2.2317 -1.0097  0.0804
 5695TIP3   OH217048   6.181   0.816   2.429 -0.1160 -0.0312 -0.0393
 5695TIP3    H117049   6.170   0.889   2.490 -3.6773 -0.0736 -0.4372
 5695TIP3    H217050   6.185   0.739   2.485 -0.0761  0.1714  0.2396
 5696TIP3   OH217051   1.432   5.160   4.512  0.1574  0.2167  0.0408
 5696TIP3    H117052   1.378   5.141   4.435 -0.0715  0.4488  0.1415
 5696TIP3    H217053   1.415   5.088   4.573  2.4397 -1.4934 -1.1933
 5697TIP3   OH217054   3.400   3.581   3.719 -0.3268  0.2036  0.5027
 5697TIP3    H117055   3.379   3.673   3.707  1.5922  0.6019 -0.0575
 5697TIP3    H217056   3.462   3.561   3.650 -1.3258 -1.7630  0.0956
 5698TIP3   OH217057   4.424   5.872   5.371  0.7268 -0.2010  0.3374
 5698TIP3    H117058   4.390   5.813   5.303 -0.3165  1.0147 -0.2386
 5698TIP3    H217059   4.505   5.907   5.334 -0.3620  1.2650 -0.8092
 5699TIP3   OH217060   6.371   6.561   5.127 -0.3798  0.8282  0.2483
 5699TIP3    H117061   6.377   6.639   5.182 -0.6041  0.9757  0.0663
 5699TIP3    H217062   6.398   6.591   5.040 -3.4697  1.5144 -0.6036
 5700TIP3   OH217063   3.632   2.289   5.574  0.5169 -0.2363 -0.6295
 5700TIP3    H117064   3.676   2.260   5.494 -0.4284 -0.1501 -1.1984
 5700TIP3    H217065   3.686   2.255   5.645  1.4976 -0.1234 -1.3033
 5701TIP3   OH217066   6.586   3.034   1.433  0.2357 -0.2430  0.2538
 5701TIP3    H117067   6.625   3.078   1.358 -0.2883  1.9855  1.2165
 5701TIP3    H217068   6.500   3.076   1.444 -0.8215 -2.3245  0.5426
 5702TIP3   OH217069   0.483   4.514   4.387 -0.2697  0.0416  0.3203
 5702TIP3    H117070   0.532   4.491   4.308  0.9863 -0.3302  1.1853
 5702TIP3    H217071   0.392   4.497   4.364  0.1802 -1.2294 -0.6678
 5703TIP3   OH217072   2.635   4.901   2.001  0.1427  0.2916  0.2512
 5703TIP3    H117073   2.629   4.945   2.086 -1.0146  1.8712 -0.5833
 5703TIP3    H217074   2.547   4.863   1.988 -0.5177  2.1814 -1.2666
 5704TIP3   OH217075   5.825   4.270   3.267  0.1391  0.5925 -0.1790
 5704TIP3    H117076   5.752   4.266   3.328  0.3878 -0.5622  0.0595
 5704TIP3    H217077   5.786   4.248   3.182  0.3446 -1.0047  0.0997
 5705TIP3   OH217078   4.609   0.685   5.450 -0.9811 -0.5224 -0.2337
 5705TIP3    H117079   4.661   0.713   5.375  1.0678 -0.3987  1.1453
 5705TIP3    H217080   4.623   0.590   5.455  0.5772 -0.2727  1.1089
 5706TIP3   OH217081   4.565   4.107   1.189 -0.1321  0.4278 -0.0460
 5706TIP3    H117082   4.638   4.047   1.205 -0.2806  0.3631  0.4045
 5706TIP3    H217083   4.531   4.081   1.104 -1.8311 -1.8569  1.2115
 5707TIP3   OH217084   1.102   4.236   3.120 -0.5931  0.2226 -0.0976
 5707TIP3    H117085   1.108   4.264   3.028 -0.7520  0.0559 -0.1588
 5707TIP3    H217086   1.014   4.200   3.128 -0.2284 -0.6891 -0.1381
 5708TIP3   OH217087   6.517   1.774   3.550  0.8074 -0.4902 -0.2043
 5708TIP3    H117088   6.605   1.790   3.583  0.7096 -0.0924 -0.1297
 5708TIP3    H217089   6.495   1.686   3.581  1.2991 -0.7231 -0.4955
 5709TIP3   OH217090   3.999   5.299   3.106 -0.5998 -0.2629  0.0068
 5709TIP3    H117091   3.960   5.231   3.052 -0.3989 -0.5049  0.1662
 5709TIP3    H217092   4.074   5.330   3.056  0.1269 -1.1130  0.5360
 5710TIP3   OH217093   3.877   3.485   3.226  0.0990 -0.2780  0.1301
 5710TIP3    H117094   3.813   3.549   3.196  0.5058  0.2087  0.2869
 5710TIP3    H217095   3.957   3.506   3.176 -0.0579 -1.3286 -0.5950
 5711TIP3   OH217096   4.756   5.196   2.077  0.3373  0.3793 -0.2609
 5711TIP3    H117097   4.675   5.193   2.026  1.3964 -1.6390 -2.0077
 5711TIP3    H217098   4.790   5.285   2.063 -0.9232  0.8338 -0.5604
 5712TIP3   OH217099   2.897   6.563   1.300 -0.9251  0.1964  0.3539
 5712TIP3    H117100   2.957   6.511   1.246  1.4449  2.0311  1.0113
 5712TIP3    H217101   2.883   6.643   1.250 -2.3936  0.0511  0.4986
 5713TIP3   OH217102   0.922   0.937   4.651 -0.0107  0.2776 -0.4679
 5713TIP3    H117103   0.992   0.954   4.713  0.5430  1.1782 -1.3171
 5713TIP3    H217104   0.966   0.900   4.574 -0.3658  1.3200 -1.2074
 5714TIP3   OH217105   1.708   0.300   3.344 -0.1143 -0.2751  0.2949
 5714TIP3    H117106   1.627   0.310   3.295  0.7766  0.3328 -1.1264
 5714TIP3    H217107   1.684   0.251   3.422 -1.6125 -1.1701 -0.7037
 5715TIP3   OH217108   5.210   0.804   4.329  0.1424  0.1594  0.3078
 5715TIP3    H117109   5.304   0.788   4.319  0.1707  0.9484 -1.0551
 5715TIP3    H217110   5.180   0.821   4.240 -1.2710  0.0818  0.7487
 5716TIP3   OH217111   2.192   6.054   1.457 -0.1274  0.1374  0.6629
 5716TIP3    H117112   2.241   6.137   1.454  0.1073  0.1315  2.6207
 5716TIP3    H217113   2.101   6.081   1.467 -0.3789  0.1424 -1.4008
 5717TIP3   OH217114   0.753   6.395   0.582 -0.2311 -0.5645 -0.1460
 5717TIP3    H117115   0.817   6.350   0.637  1.3113 -0.9609 -2.1778
 5717TIP3    H217116   0.754   6.485   0.613  0.2512 -0.8650  0.7527
 5718TIP3   OH217117   6.800   0.786   0.550  0.5939 -0.2969 -0.1751
 5718TIP3    H117118   6.824   0.697   0.525  0.5346  0.1612 -1.9610
 5718TIP3    H217119   6.763   0.825   0.471  0.4243  1.2590  0.6206
 5719TIP3   OH217120   2.637   0.589   1.405  0.0064 -0.2652 -0.5152
 5719TIP3    H117121   2.631   0.606   1.499 -1.1666 -0.9681 -0.4481
 5719TIP3    H217122   2.639   0.493   1.398  0.4071 -0.2137 -1.1924
 5720TIP3   OH217123   2.392   5.542   3.690  0.2958  0.6061 -0.1223
 5720TIP3    H117124   2.366   5.479   3.623 -1.2224  0.3284  0.7126
 5720TIP3    H217125   2.379   5.627   3.648 -0.0312  0.4225 -0.3954
 5721TIP3   OH217126   0.581   2.382   5.064  0.4493 -0.1319  0.4803
 5721TIP3    H117127   0.643   2.455   5.069  0.4814 -0.0303 -1.1309
 5721TIP3    H217128   0.508   2.415   5.011 -0.8885 -0.3511  2.0944
 5722TIP3   OH217129   2.870   1.512   4.655  0.6040  0.0128  0.1568
 5722TIP3    H117130   2.812   1.488   4.728  1.0428  1.4654  1.0286
 5722TIP3    H217131   2.863   1.607   4.650  1.4889  0.0325 -0.9611
 5723TIP3   OH217132   6.231   4.545   4.963 -0.3647 -0.4924  0.5255
 5723TIP3    H117133   6.196   4.477   5.020 -0.4136 -2.2072 -1.3948
 5723TIP3    H217134   6.325   4.530   4.963 -0.4135 -0.8919 -0.2295
 5724TIP3   OH217135   5.758   0.703   1.112  0.2826  0.3233 -0.1376
 5724TIP3    H117136   5.711   0.619   1.113  1.1845 -0.2249  2.3367
 5724TIP3    H217137   5.815   0.697   1.035 -1.1265 -0.4314 -1.1840
 5725TIP3   OH217138   1.822   5.392   2.896 -0.3770 -0.3276 -0.0987
 5725TIP3    H117139   1.902   5.444   2.902 -0.6395  0.2367 -1.2584
 5725TIP3    H217140   1.850   5.307   2.865 -0.3052  0.1826 -1.5332
 5726TIP3   OH217141   1.173   5.771   1.076 -0.2746  0.2335 -0.3138
 5726TIP3    H117142   1.122   5.712   1.020 -0.8927  1.6402 -1.3112
 5726TIP3    H217143   1.107   5.817   1.128  0.3252 -1.4800  2.1037
 5727TIP3   OH217144   0.388   5.188   2.478 -0.5189  0.2973  0.9153
 5727TIP3    H117145   0.335   5.193   2.398 -0.5389  1.9648  0.9944
 5727TIP3    H217146   0.325   5.203   2.549 -0.3190 -0.0556  1.1660
 5728TIP3   OH217147   4.943   3.559   4.236  0.2182 -0.3587  0.5346
 5728TIP3    H117148   4.858   3.559   4.281  0.2377  0.7309  0.5927
 5728TIP3    H217149   4.998   3.616   4.290  0.7454 -0.4045  0.0453
 5729TIP3   OH217150   2.144   4.648   1.954 -0.0160  0.8909 -0.0316
 5729TIP3    H117151   2.066   4.614   1.996 -0.2599  0.7767 -0.5664
 5729TIP3    H217152   2.197   4.571   1.934 -1.0889  0.6691 -2.2825
 5730TIP3   OH217153   3.207   0.009   2.279 -0.5036  0.1432  0.0139
 5730TIP3    H117154   3.121  -0.033   2.276  0.4957 -2.1043  0.3025
 5730TIP3    H217155   3.192   0.089   2.328 -2.3171 -0.5292  0.6772
 5731TIP3   OH217156   3.148   3.900   5.382 -0.5005 -0.1423  0.0756
 5731TIP3    H117157   3.238   3.869   5.375 -0.6963 -0.7568  0.2357
 5731TIP3    H217158   3.123   3.925   5.293 -0.3594 -0.4922 -0.0611
 5732TIP3   OH217159   6.020   4.326   4.991  0.4692  0.0431 -0.1668
 5732TIP3    H117160   5.972   4.282   4.920  1.1849 -0.6212 -0.2649
 5732TIP3    H217161   5.955   4.381   5.034 -0.6884 -1.7530  0.4841
 5733TIP3   OH217162   3.778   6.824   0.517  0.0446  0.5329 -0.0077
 5733TIP3    H117163   3.836   6.749   0.531  0.8518  1.1085 -0.2118
 5733TIP3    H217164   3.723   6.825   0.596  0.3778  0.0435  0.2445
 5734TIP3   OH217165   3.891   1.746   3.914  0.4655  0.6046  0.2328
 5734TIP3    H117166   3.906   1.672   3.973  0.6875  0.0780 -0.4790
 5734TIP3    H217167   3.902   1.710   3.826 -0.9970  1.1104 -0.1935
 5735TIP3   OH217168   0.424   5.680   3.743  0.3748 -0.3199  0.3901
 5735TIP3    H117169   0.422   5.637   3.657 -1.1723  1.9371 -0.7808
 5735TIP3    H217170   0.486   5.752   3.732  1.6885 -1.1555  1.8381
 5736TIP3   OH217171   5.654   6.364   3.838 -0.3945  0.0329 -0.1765
 5736TIP3    H117172   5.700   6.281   3.823 -0.2776  0.1394 -0.4087
 5736TIP3    H217173   5.694   6.425   3.777  0.2841  0.5417  0.7456
 5737TIP3   OH217174   4.252   3.607   5.008  0.4640 -0.1065  0.1418
 5737TIP3    H117175   4.212   3.524   4.984  0.5424  0.0337 -0.5088
 5737TIP3    H217176   4.330   3.583   5.058 -0.3904 -0.3786  1.3912
 5738TIP3   OH217177   6.328   1.820   5.724  0.2403 -0.2037 -0.2983
 5738TIP3    H117178   6.405   1.813   5.667  1.6576  0.8933  1.3950
 5738TIP3    H217179   6.281   1.896   5.691 -0.3024 -1.0165 -1.4902
 5739TIP3   OH217180   5.537   5.612   1.276  0.0880 -0.1579 -0.4386
 5739TIP3    H117181   5.605   5.676   1.260  1.1914 -1.3615 -0.7267
 5739TIP3    H217182   5.562   5.569   1.358 -2.0619  1.5321  1.2144
 5740TIP3   OH217183   5.087   2.249   1.179  0.0105 -0.1622  0.2707
 5740TIP3    H117184   5.183   2.251   1.187  0.0309  0.3330 -0.0472
 5740TIP3    H217185   5.057   2.213   1.262  0.4688 -0.1940  0.4269
 5741TIP3   OH217186   5.661   1.245   0.935  0.2660  0.1207 -0.2827
 5741TIP3    H117187   5.567   1.265   0.927  0.3187  1.0185  1.1318
 5741TIP3    H217188   5.700   1.281   0.856 -0.2367  1.9910  0.2899
 5742TIP3   OH217189   2.879   1.816   4.687  0.0298 -0.0319  0.2371
 5742TIP3    H117190   2.885   1.873   4.763 -1.5924  1.7503 -0.8866
 5742TIP3    H217191   2.949   1.846   4.628  0.4105 -0.5081  0.4376
 5743TIP3   OH217192   3.791   5.547   4.750 -0.4236  0.1199  0.2387
 5743TIP3    H117193   3.777   5.530   4.657  0.1479  0.3352  0.1076
 5743TIP3    H217194   3.780   5.462   4.792 -1.1042  0.1000  0.0292
 5744TIP3   OH217195   2.052   5.866   4.008 -0.3408  0.3105  0.5310
 5744TIP3    H117196   2.076   5.778   3.978  1.5274  0.0457  2.5766
 5744TIP3    H217197   2.053   5.920   3.929 -3.0070 -1.6950 -1.0572
 5745TIP3   OH217198   0.559   2.299   2.966 -0.7861 -0.2458  0.1942
 5745TIP3    H117199   0.590   2.286   3.056 -1.4702 -2.6728  0.1340
 5745TIP3    H217200   0.580   2.217   2.921  0.0633  1.1114 -2.0676
 5746TIP3   OH217201   4.511   5.801   3.482 -0.3047 -0.0145 -0.3571
 5746TIP3    H117202   4.455   5.831   3.554  0.4323  0.9895 -0.1906
 5746TIP3    H217203   4.505   5.705   3.487  1.2248 -0.0787  2.2834
 5747TIP3   OH217204   2.952   4.375   5.688  0.2178 -0.1332 -0.2203
 5747TIP3    H117205   2.906   4.452   5.655 -0.7994 -0.0694  1.2909
 5747TIP3    H217206   3.003   4.345   5.612 -0.1595  1.3969 -1.1408
 5748TIP3   OH217207   1.583   2.711   3.884  0.3919 -0.1680 -0.0902
 5748TIP3    H117208   1.574   2.806   3.890 -1.6475 -0.3128 -0.1156
 5748TIP3    H217209   1.660   2.691   3.936 -0.1150  1.3439  1.3226
 5749TIP3   OH217210   0.928   6.189   1.932  0.3770 -0.3977  0.1568
 5749TIP3    H117211   0.994   6.180   1.863 -0.0254 -0.9336 -0.1668
 5749TIP3    H217212   0.977   6.220   2.008  1.0828 -1.1804  0.0387
 5750TIP3   OH217213   2.592   4.918   2.951  0.3032  0.6525  0.0053
 5750TIP3    H117214   2.663   4.857   2.927  0.1776 -0.0445  1.3457
 5750TIP3    H217215   2.572   4.898   3.042 -1.3957  1.0849 -0.2360
 5751TIP3   OH217216   3.597   0.342   2.981 -0.0289  0.0285 -0.1613
 5751TIP3    H117217   3.529   0.372   3.040 -1.8233 -1.4180 -1.4001
 5751TIP3    H217218   3.558   0.348   2.894  2.1375  1.0374 -1.1625
 5752TIP3   OH217219   6.417   4.546   2.455  0.1785 -0.0613 -0.2131
 5752TIP3    H117220   6.329   4.568   2.488 -0.1967  0.0105 -1.2357
 5752TIP3    H217221   6.426   4.599   2.376  0.5199 -1.2381 -0.9741
 5753TIP3   OH217222   6.748   1.258   0.510  0.3161 -0.7898 -0.5125
 5753TIP3    H117223   6.652   1.265   0.504  0.4508  1.2929 -0.7727
 5753TIP3    H217224   6.779   1.348   0.514  2.2574 -1.4445  0.2257
 5754TIP3   OH217225   0.847   5.109   2.757  0.1245 -0.1676 -0.4666
 5754TIP3    H117226   0.752   5.117   2.750  0.0718 -0.6287 -0.3121
 5754TIP3    H217227   0.870   5.036   2.699  0.3702 -0.1175 -0.4337
 5755TIP3   OH217228   1.481   4.938   0.255 -0.3239 -0.4457  0.1020
 5755TIP3    H117229   1.540   5.000   0.298 -0.5751  0.3437 -0.6577
 5755TIP3    H217230   1.531   4.905   0.180 -1.2912  1.3349 -1.4198
 5756TIP3   OH217231   1.530   3.092   4.797 -0.2482  0.0508 -0.1143
 5756TIP3    H117232   1.459   3.064   4.853  1.3362 -1.4998  1.2405
 5756TIP3    H217233   1.576   3.159   4.847  0.4087 -0.4167 -0.0647
 5757TIP3   OH217234   5.736   2.259   3.075 -0.3478 -0.1932  0.2320
 5757TIP3    H117235   5.685   2.217   3.006  0.2756  1.7180 -1.5142
 5757TIP3    H217236   5.825   2.263   3.040  0.0143  0.7189  1.1993
 5758TIP3   OH217237   4.851   5.378   5.410 -0.2473 -0.4507 -0.4700
 5758TIP3    H117238   4.828   5.314   5.342  2.1657 -1.7327 -0.1768
 5758TIP3    H217239   4.921   5.430   5.372 -1.9528  1.9424 -0.5766
 5759TIP3   OH217240   0.569   0.878   0.803  0.2299 -0.1854  0.1567
 5759TIP3    H117241   0.597   0.899   0.713  0.7030  0.6269  0.4826
 5759TIP3    H217242   0.502   0.944   0.823  0.0845 -0.4010  0.3796
 5760TIP3   OH217243   4.873   6.417   5.183  0.9506  0.1603  0.3684
 5760TIP3    H117244   4.837   6.426   5.272  0.6978  2.3624  0.0886
 5760TIP3    H217245   4.961   6.382   5.197  0.7192 -0.0508  1.4438
 5761TIP3   OH217246   0.278   4.635   0.536 -0.1586  0.3620  0.3295
 5761TIP3    H117247   0.236   4.719   0.554  0.0480 -0.1690  3.9614
 5761TIP3    H217248   0.253   4.579   0.610  1.8106 -1.9639 -0.6405
 5762TIP3   OH217249   6.994   4.485   2.402  0.0696 -0.0128  0.0754
 5762TIP3    H117250   7.005   4.533   2.484 -0.4959 -1.5033  1.0570
 5762TIP3    H217251   7.055   4.411   2.410  0.4853  0.1798 -1.1434
 5763TIP3   OH217252   0.333   2.473   1.346 -0.1693 -0.1468 -0.7342
 5763TIP3    H117253   0.349   2.430   1.262 -1.0950 -0.0367 -0.9808
 5763TIP3    H217254   0.237   2.476   1.353 -0.1040  0.6598 -0.1027
 5764TIP3   OH217255   1.761   2.091   2.124 -0.3777 -0.5997 -0.3988
 5764TIP3    H117256   1.821   2.115   2.054 -0.6408 -0.1576 -0.4792
 5764TIP3    H217257   1.784   2.151   2.196 -1.6360  0.5517 -0.9077
 5765TIP3   OH217258   0.475   2.884   4.321 -0.6835  0.4219  0.1165
 5765TIP3    H117259   0.563   2.916   4.302 -0.8134  1.4549  1.1500
 5765TIP3    H217260   0.417   2.948   4.279 -0.9400  0.1140  0.0006
 5766TIP3   OH217261   1.506   4.817   5.823 -0.1176 -0.1671 -0.2586
 5766TIP3    H117262   1.528   4.740   5.876  3.0488  1.0371  0.4081
 5766TIP3    H217263   1.559   4.807   5.744 -1.2175  0.3921 -1.0861
 5767TIP3   OH217264   3.708   1.360   4.601 -0.7102  0.4099  0.3843
 5767TIP3    H117265   3.724   1.401   4.516  2.6962 -1.0947  0.1449
 5767TIP3    H217266   3.732   1.427   4.665  0.3208  0.3458  0.0769
 5768TIP3   OH217267   0.140   3.984   3.987 -0.0630  0.0668  0.3546
 5768TIP3    H117268   0.075   4.038   4.033 -0.5946 -0.4747  0.2468
 5768TIP3    H217269   0.121   3.997   3.894 -0.0002 -0.0667  0.3222
 5769TIP3   OH217270   3.813   1.018   5.516  0.0008 -0.0573 -0.1031
 5769TIP3    H117271   3.801   1.108   5.488  1.9321  0.2977  0.0687
 5769TIP3    H217272   3.840   0.971   5.437 -0.7052 -0.4251 -0.1304
 5770TIP3   OH217273   0.992   2.525   2.599 -0.1909 -0.1642 -0.0753
 5770TIP3    H117274   0.984   2.437   2.635 -0.8279  0.0481  0.3172
 5770TIP3    H217275   0.995   2.582   2.675  3.5821 -0.0169 -0.1437
 5771TIP3   OH217276   4.603   1.630   3.314  0.5100 -0.3873  0.3585
 5771TIP3    H117277   4.692   1.596   3.327 -0.0648 -2.4558 -0.6528
 5771TIP3    H217278   4.546   1.556   3.337 -0.9108  0.5119 -0.1618
 5772TIP3   OH217279   3.428   5.066   2.242  0.3192  0.0610 -0.0014
 5772TIP3    H117280   3.461   5.043   2.328 -1.7970  0.9017  1.1027
 5772TIP3    H217281   3.418   4.982   2.197  1.1442 -0.4118  0.6725
 5773TIP3   OH217282   3.846   1.384   1.537 -0.1137  0.3556 -0.2510
 5773TIP3    H117283   3.818   1.461   1.487  1.4813  0.9916 -0.2374
 5773TIP3    H217284   3.921   1.415   1.588  0.6347 -1.2278 -0.3257
 5774TIP3   OH217285   6.894   6.170   3.111  0.3620  0.4033 -0.9157
 5774TIP3    H117286   6.953   6.197   3.181 -1.5069  0.6724  0.6326
 5774TIP3    H217287   6.859   6.252   3.076 -0.2564  0.2148 -0.7524
 5775TIP3   OH217288   0.993   2.650   5.105 -0.0144 -0.1671  0.3051
 5775TIP3    H117289   0.900   2.632   5.092 -0.0428  1.2023 -1.9667
 5775TIP3    H217290   1.037   2.567   5.087 -0.7119 -0.4361 -0.1883
 5776TIP3   OH217291   1.202   3.350   2.580  0.0880 -0.0139 -0.0476
 5776TIP3    H117292   1.166   3.271   2.541  0.2587  0.0538 -0.3511
 5776TIP3    H217293   1.151   3.421   2.542 -0.9594 -0.0461  1.2378
 5777TIP3   OH217294   3.126   1.150   4.519  0.5219 -0.4849  0.5560
 5777TIP3    H117295   3.184   1.178   4.591 -0.8926  1.9085  0.8671
 5777TIP3    H217296   3.038   1.159   4.555 -0.1791 -0.0804 -1.2077
 5778TIP3   OH217297   1.272   1.771   3.106  0.3658 -0.5305 -0.3042
 5778TIP3    H117298   1.269   1.704   3.038 -1.8762  0.1957 -0.9944
 5778TIP3    H217299   1.350   1.823   3.086  1.1949 -1.8836 -0.7321
 5779TIP3   OH217300   5.804   1.941   0.664  0.1556  0.0930 -0.3164
 5779TIP3    H117301   5.713   1.936   0.692  0.4203 -2.5167  0.3224
 5779TIP3    H217302   5.804   1.912   0.573  0.3050  0.6252 -0.4926
 5780TIP3   OH217303   6.274   0.910   1.539  0.4022 -0.6206 -0.4208
 5780TIP3    H117304   6.300   0.925   1.630  1.5963 -1.1011 -0.6620
 5780TIP3    H217305   6.182   0.937   1.536  0.1640 -1.1329  1.0560
 5781TIP3   OH217306   5.365   6.678   1.934 -0.1210  0.1108  0.2418
 5781TIP3    H117307   5.292   6.689   1.872  0.4098  1.4229 -0.1758
 5781TIP3    H217308   5.323   6.676   2.020 -0.8829 -1.8424 -0.1109
 5782TIP3   OH217309   6.541   4.060   1.446 -0.0987 -0.0956  0.0317
 5782TIP3    H117310   6.581   3.990   1.497 -1.0310  0.0199  0.9521
 5782TIP3    H217311   6.614   4.115   1.418  0.5925 -1.1645 -0.3109
 5783TIP3   OH217312   1.483   6.623   3.474  0.0370  0.3978  0.8132
 5783TIP3    H117313   1.481   6.717   3.492 -1.5809  0.6455 -0.4929
 5783TIP3    H217314   1.423   6.585   3.538 -0.4888  0.4447  0.3490
 5784TIP3   OH217315   2.604   4.814   0.887 -0.1475  0.4662 -0.4043
 5784TIP3    H117316   2.598   4.785   0.978  0.7300  0.7200 -0.2530
 5784TIP3    H217317   2.619   4.909   0.893 -1.1460  0.6645 -0.8464
 5785TIP3   OH217318   1.075   3.466   2.994  0.6761 -0.1655 -0.7052
 5785TIP3    H117319   1.080   3.453   3.089  0.2397  0.4627 -0.5871
 5785TIP3    H217320   1.077   3.378   2.957  0.9208 -0.4110 -0.1158
 5786TIP3   OH217321   5.864   1.590   1.597  0.3333 -0.0220  0.1530
 5786TIP3    H117322   5.801   1.640   1.649  1.0165  0.7547  0.2502
 5786TIP3    H217323   5.846   1.616   1.506  0.3953  0.0767  0.1680
 5787TIP3   OH217324   0.965   6.337   3.151  0.7350  0.1826 -0.3695
 5787TIP3    H117325   0.935   6.367   3.237  0.1873 -0.8836 -0.1735
 5787TIP3    H217326   1.040   6.394   3.130  1.0719  0.2530  0.9497
 5788TIP3   OH217327   2.785   5.429   2.047 -0.1034 -0.3913 -0.0818
 5788TIP3    H117328   2.709   5.407   2.102 -0.6744  0.9764 -0.2905
 5788TIP3    H217329   2.860   5.417   2.105 -0.4967 -1.3325  0.2591
 5789TIP3   OH217330   0.298   1.906   2.990  0.0343 -0.3721 -0.0472
 5789TIP3    H117331   0.238   1.867   3.054  1.1476 -0.6827  0.8274
 5789TIP3    H217332   0.303   1.998   3.015 -1.3013  0.0220 -1.1062
 5790TIP3   OH217333   6.778   5.009   3.422  0.3339 -0.2863 -0.5148
 5790TIP3    H117334   6.819   5.067   3.486  0.8796  0.2955 -1.3696
 5790TIP3    H217335   6.849   4.987   3.362 -0.4193  0.1048 -1.5771
 5791TIP3   OH217336   3.763   1.978   0.851  0.0017 -0.1053 -0.0671
 5791TIP3    H117337   3.755   1.922   0.928  1.6385  0.7004  0.7494
 5791TIP3    H217338   3.695   2.044   0.862 -1.1732 -1.2175 -0.4429
 5792TIP3   OH217339   5.249   4.876   2.167 -0.0815 -0.2415  0.2406
 5792TIP3    H117340   5.154   4.865   2.169 -0.5710  3.0042  0.5882
 5792TIP3    H217341   5.271   4.884   2.074 -0.0345 -1.5395  0.1278
 5793TIP3   OH217342   3.801   1.108   2.123 -0.0342 -0.0883 -0.1324
 5793TIP3    H117343   3.852   1.130   2.201 -1.3413 -0.2876  0.8158
 5793TIP3    H217344   3.740   1.181   2.111  2.4888  1.7591 -3.1701
 5794TIP3   OH217345   0.966   2.203   1.337 -0.3109  0.6352 -0.5862
 5794TIP3    H117346   0.987   2.152   1.259  0.1771 -0.2739  0.1059
 5794TIP3    H217347   1.050   2.214   1.381 -0.4393  1.9280 -0.6407
 5795TIP3   OH217348   5.105   6.166   0.524 -0.0199 -0.3579  0.0330
 5795TIP3    H117349   5.125   6.081   0.486 -0.1336  0.5052 -2.0465
 5795TIP3    H217350   5.191   6.204   0.545  0.0282 -0.9717  1.0555
 5796TIP3   OH217351   1.919   4.663   5.699 -0.2386 -0.0693  0.5788
 5796TIP3    H117352   1.897   4.584   5.650 -1.7259  1.1251 -0.8149
 5796TIP3    H217353   1.848   4.724   5.680  1.6510  2.1912  0.2124
 5797TIP3   OH217354   3.479   6.805   2.002  0.0545 -0.1172  0.3483
 5797TIP3    H117355   3.499   6.808   1.909  1.8631  0.8141  0.7184
 5797TIP3    H217356   3.416   6.734   2.011 -0.2419 -0.1445 -1.5877
 5798TIP3   OH217357   1.018   1.906   0.157 -0.2888  0.2765 -0.3070
 5798TIP3    H117358   0.960   1.893   0.082 -0.0606  0.5478 -0.5340
 5798TIP3    H217359   1.057   1.819   0.173  0.2556  0.3829 -1.0008
 5799TIP3   OH217360   1.472   3.336   5.076  0.3751  0.0707  0.1153
 5799TIP3    H117361   1.478   3.263   5.137  0.4511  0.6341  0.7944
 5799TIP3    H217362   1.560   3.342   5.038  0.2662 -0.4242 -0.2349
 5800TIP3   OH217363   0.379   3.668   3.231  0.1826 -0.0307 -0.0665
 5800TIP3    H117364   0.379   3.735   3.163  0.1913 -1.1980 -1.2419
 5800TIP3    H217365   0.298   3.683   3.280 -0.0705  0.5192 -0.6415
 5801TIP3   OH217366   3.525   2.310   3.656 -0.6131  0.3554  0.1961
 5801TIP3    H117367   3.556   2.249   3.590 -1.6536 -0.0650  0.0793
 5801TIP3    H217368   3.434   2.284   3.672 -1.3798  2.4020 -0.4907
 5802TIP3   OH217369   3.675   4.947   2.793 -0.9152 -0.3405 -0.7164
 5802TIP3    H117370   3.715   4.998   2.723  1.2853 -2.9556 -1.5381
 5802TIP3    H217371   3.659   5.011   2.863  3.2256  1.2908 -0.9754
 5803TIP3   OH217372   0.739   5.005   4.080 -0.2799  0.6995 -0.5568
 5803TIP3    H117373   0.710   5.091   4.111  1.5465  1.0088  0.4322
 5803TIP3    H217374   0.658   4.957   4.065 -1.3293  2.2190 -0.0307
 5804TIP3   OH217375   3.479   1.321   1.913  0.1291  0.2630 -0.2172
 5804TIP3    H117376   3.517   1.372   1.841 -2.4281  2.5448 -0.1121
 5804TIP3    H217377   3.439   1.245   1.871  0.1234  0.6817 -0.9787
 5805TIP3   OH217378   5.712   6.055   4.300 -0.2996  0.4749  0.0440
 5805TIP3    H117379   5.701   6.095   4.214  0.2545  1.0267  0.2241
 5805TIP3    H217380   5.789   6.098   4.337 -1.0976  0.9477  1.2241
 5806TIP3   OH217381   3.750   6.222   5.238 -0.4204  0.4529  0.2952
 5806TIP3    H117382   3.659   6.211   5.210 -0.2008 -0.4140 -0.1198
 5806TIP3    H217383   3.747   6.218   5.334 -0.8543  0.7375  0.2935
 5807TIP3   OH217384   5.869   2.439   1.628 -0.1724 -0.2192 -0.0165
 5807TIP3    H117385   5.789   2.474   1.668  0.0560  1.1726 -0.6996
 5807TIP3    H217386   5.870   2.478   1.540 -0.4997 -2.9218 -1.3183
 5808TIP3   OH217387   5.259   2.965   4.785  0.1516 -0.2189  0.0246
 5808TIP3    H117388   5.282   2.875   4.762  1.6699 -0.0462  0.7151
 5808TIP3    H217389   5.338   3.016   4.765 -0.6034  0.9190 -0.1407
 5809TIP3   OH217390   4.268   1.407   0.453  0.2826  0.7196  0.0007
 5809TIP3    H117391   4.212   1.354   0.510  0.2004 -1.1614 -1.7286
 5809TIP3    H217392   4.234   1.496   0.462 -2.5449 -0.2278 -0.3999
 5810TIP3   OH217393   6.771   0.360   2.472 -0.4757 -0.4768 -0.4003
 5810TIP3    H117394   6.718   0.286   2.441 -1.6363  0.2347 -0.1904
 5810TIP3    H217395   6.745   0.432   2.415 -0.3202  0.0800  0.2245
 5811TIP3   OH217396   6.371   0.945   2.254 -0.1969  0.5141 -0.0746
 5811TIP3    H117397   6.374   0.853   2.280  1.5318  0.8183  0.9312
 5811TIP3    H217398   6.285   0.975   2.283 -0.1288 -0.3684  1.0975
 5812TIP3   OH217399   2.365   0.485   3.822 -0.1383 -0.0053 -0.6306
 5812TIP3    H117400   2.301   0.485   3.751  1.1384  0.1311 -1.8271
 5812TIP3    H217401   2.390   0.393   3.833  0.1504  0.0479 -0.8227
 5813TIP3   OH217402   5.289   1.028   1.104 -0.1076 -0.0987 -0.0715
 5813TIP3    H117403   5.314   0.965   1.172 -0.1184  2.2558  2.2630
 5813TIP3    H217404   5.214   1.074   1.140  1.1848  2.7120 -0.6816
 5814TIP3   OH217405   2.063   0.427   2.099 -0.3094  0.4802  0.5509
 5814TIP3    H117406   2.113   0.449   2.021 -1.9714  1.4646 -0.2917
 5814TIP3    H217407   2.118   0.455   2.172 -0.2395  2.9759 -0.3687
 5815TIP3   OH217408   6.021   4.612   5.289 -0.4458  0.0840 -0.2600
 5815TIP3    H117409   6.096   4.671   5.283  0.3886 -1.0283 -1.2244
 5815TIP3    H217410   6.046   4.549   5.357 -1.0466  0.4205  0.2882
 5816TIP3   OH217411   2.574   0.848   1.251  0.3146 -0.0954  0.2893
 5816TIP3    H117412   2.538   0.847   1.340 -0.5220 -2.5876  0.0055
 5816TIP3    H217413   2.602   0.758   1.236  2.3920  0.7363 -1.2500
 5817TIP3   OH217414   4.074   0.275   5.166  0.9424  0.0264  0.2929
 5817TIP3    H117415   4.161   0.269   5.128  0.8862  1.0910 -0.0406
 5817TIP3    H217416   4.067   0.365   5.198  0.4520 -0.4248  1.5416
 5818TIP3   OH217417   2.473   0.111   2.147 -0.2142 -0.5186  0.2646
 5818TIP3    H117418   2.407   0.152   2.091 -0.4790 -0.5212  0.5719
 5818TIP3    H217419   2.480   0.170   2.222 -0.4341 -0.9226  0.6019
 5819TIP3   OH217420   5.529   0.440   3.889  0.2845  0.4046  0.1030
 5819TIP3    H117421   5.494   0.355   3.915 -0.0710  0.6830  0.5342
 5819TIP3    H217422   5.561   0.426   3.799 -0.9456  0.1567 -0.3162
 5820TIP3   OH217423   3.340   4.523   1.601 -0.2803  0.1345  0.5943
 5820TIP3    H117424   3.293   4.446   1.570 -1.8812  0.6916  1.5179
 5820TIP3    H217425   3.277   4.595   1.596  1.0610  1.3469  0.0737
 5821TIP3   OH217426   5.986   2.521   2.740  0.8084 -0.5317 -0.0021
 5821TIP3    H117427   6.017   2.446   2.790 -1.7740 -1.2588  0.6617
 5821TIP3    H217428   6.004   2.597   2.796  0.1046 -1.0849  0.9871
 5822TIP3   OH217429   0.811   4.268   1.161 -0.1733 -0.3833 -0.0593
 5822TIP3    H117430   0.788   4.195   1.103 -2.2193 -1.4207  1.9082
 5822TIP3    H217431   0.794   4.235   1.249 -0.6443  2.3120  0.9507
 5823TIP3   OH217432   5.662   5.204   3.975 -0.3748 -0.0761 -0.1994
 5823TIP3    H117433   5.704   5.186   3.891  0.7619 -1.2668  0.5748
 5823TIP3    H217434   5.615   5.123   3.996  0.2364 -0.1985  0.7879
 5824TIP3   OH217435   4.415   0.654   0.189  0.3315  0.2512  0.1731
 5824TIP3    H117436   4.507   0.633   0.204  0.6734  2.0967  1.0139
 5824TIP3    H217437   4.418   0.724   0.124 -0.3992  1.0066  0.9351
 5825TIP3   OH217438   0.223   2.748   0.528  0.3000 -0.1729 -0.5432
 5825TIP3    H117439   0.241   2.836   0.493 -0.0001  0.4690  0.8279
 5825TIP3    H217440   0.299   2.697   0.504  0.7971  0.6509 -0.7781
 5826TIP3   OH217441   5.602   6.476   2.856 -0.0754  0.8607  0.4536
 5826TIP3    H117442   5.686   6.440   2.827  0.5822  1.6380  1.3507
 5826TIP3    H217443   5.542   6.402   2.851  0.8199  0.1121  0.4567
 5827TIP3   OH217444   3.516   4.974   5.740 -0.0383  0.5065  0.3092
 5827TIP3    H117445   3.476   4.955   5.655 -0.3249 -1.9003  0.9259
 5827TIP3    H217446   3.593   4.918   5.743  0.1410  0.7940  1.5270
 5828TIP3   OH217447   5.167   5.603   2.483  0.1153 -0.3351  0.2191
 5828TIP3    H117448   5.254   5.631   2.510  0.3771  0.4037 -1.2783
 5828TIP3    H217449   5.183   5.527   2.428 -0.3636 -1.4725  1.5946
 5829TIP3   OH217450   6.260   2.187   0.356 -0.1711 -0.5012  0.4860
 5829TIP3    H117451   6.315   2.226   0.288 -1.5802 -1.9308 -1.6237
 5829TIP3    H217452   6.172   2.191   0.320 -0.7727 -2.7405  1.5471
 5830TIP3   OH217453   0.115   0.462   4.283 -0.5037  0.3698 -0.4971
 5830TIP3    H117454   0.154   0.427   4.363  0.6366  0.5687 -0.9551
 5830TIP3    H217455   0.042   0.515   4.314  0.7773  1.6143  0.5286
 5831TIP3   OH217456   0.672   0.320   0.311  0.5430 -0.3300  0.1944
 5831TIP3    H117457   0.753   0.370   0.326  0.4999 -0.3720  0.5907
 5831TIP3    H217458   0.688   0.236   0.356  0.7682 -0.8325 -0.7858
 5832TIP3   OH217459   1.590   5.701   2.083  0.9113  0.2683  0.2231
 5832TIP3    H117460   1.579   5.702   1.988  2.7756  0.7714 -0.0399
 5832TIP3    H217461   1.685   5.696   2.095  0.6829 -0.1696  2.0713
 5833TIP3   OH217462   1.198   5.550   4.068  0.2868  0.0439 -0.0010
 5833TIP3    H117463   1.197   5.596   4.152 -2.1986  1.6733 -0.8127
 5833TIP3    H217464   1.106   5.535   4.048  0.8693 -1.2889 -1.9317
 5834TIP3   OH217465   3.015   6.495   3.083  0.2887  0.3130 -0.0188
 5834TIP3    H117466   3.063   6.518   3.003  0.3432 -1.5609 -0.5600
 5834TIP3    H217467   3.054   6.413   3.113  0.7326  1.2983  2.3620
 5835TIP3   OH217468   6.242   5.224   2.324 -0.6319 -0.1093 -0.2465
 5835TIP3    H117469   6.315   5.195   2.379 -2.2165 -2.7315  0.6348
 5835TIP3    H217470   6.165   5.220   2.381 -1.7773  0.7877 -1.6471
 5836TIP3   OH217471   4.227   5.463   0.780 -0.4555  0.0842  0.8330
 5836TIP3    H117472   4.205   5.420   0.863  1.3464  0.1259  1.3723
 5836TIP3    H217473   4.199   5.400   0.713 -1.8201 -0.0086  1.4484
 5837TIP3   OH217474   3.479   4.577   4.093 -0.0317 -0.0389 -0.5900
 5837TIP3    H117475   3.489   4.490   4.129  0.3470 -0.2009 -1.0767
 5837TIP3    H217476   3.420   4.565   4.019  1.5264 -0.2321 -1.8606
 5838TIP3   OH217477   3.030   1.858   0.320 -0.4332  0.1790 -0.3428
 5838TIP3    H117478   3.059   1.831   0.407  1.8229 -1.2986 -1.4522
 5838TIP3    H217479   2.953   1.803   0.302  0.1120 -0.7446  0.0638
 5839TIP3   OH217480   5.884   3.731   3.277 -0.7966  0.0431  0.1706
 5839TIP3    H117481   5.849   3.690   3.198  1.4409 -0.0713 -0.8181
 5839TIP3    H217482   5.896   3.823   3.253  1.0483 -0.2344 -0.0782
 5840TIP3   OH217483   1.612   3.924   2.355 -0.2853 -0.0267  0.6263
 5840TIP3    H117484   1.685   3.872   2.320  0.5024 -1.4467  3.9534
 5840TIP3    H217485   1.534   3.874   2.331  0.2500 -1.1663  1.1415
 5841TIP3   OH217486   5.480   6.551  -0.016  0.1572 -0.3324  1.1229
 5841TIP3    H117487   5.423   6.485   0.024 -1.8739 -0.1146 -1.1451
 5841TIP3    H217488   5.439   6.635   0.005 -0.7896 -0.1993 -0.9734
 5842TIP3   OH217489   0.975   2.445   0.343  0.5110  0.2717  0.2565
 5842TIP3    H117490   0.988   2.536   0.316 -0.3936  0.2318 -0.3748
 5842TIP3    H217491   0.924   2.451   0.423 -1.4802  0.3251 -0.9352
 5843TIP3   OH217492   2.932   6.544   5.221  0.0081 -0.4166 -0.7379
 5843TIP3    H117493   3.026   6.544   5.240 -0.1255 -0.4414 -0.0448
 5843TIP3    H217494   2.926   6.571   5.129  0.5961  1.7007 -0.2269
 5844TIP3   OH217495   7.100   0.676   2.714  0.2815 -0.4871  0.8778
 5844TIP3    H117496   7.071   0.767   2.718  0.8606 -0.3202  1.3226
 5844TIP3    H217497   7.053   0.632   2.785  0.4194 -0.4164  1.0129
 5845TIP3   OH217498   5.767   3.368   0.062  0.0669 -0.4817  0.2259
 5845TIP3    H117499   5.745   3.295   0.120  2.0578  0.6303  2.5450
 5845TIP3    H217500   5.858   3.353   0.036 -0.2365 -0.0247 -1.2048
 5846TIP3   OH217501   4.004   3.343   1.054  0.3300  0.3983  0.2586
 5846TIP3    H117502   4.071   3.345   0.986 -0.7708  0.5694 -0.8475
 5846TIP3    H217503   4.052   3.364   1.135  1.6929 -0.0134 -0.4130
 5847TIP3   OH217504   0.877   4.830   0.054 -0.0577 -0.0901 -0.1910
 5847TIP3    H117505   0.891   4.835  -0.041 -1.9958 -1.5122 -0.6188
 5847TIP3    H217506   0.806   4.892   0.071  0.4088  0.2984  0.3788
 5848TIP3   OH217507   2.945   2.147   3.959  0.5109 -0.3124 -0.2107
 5848TIP3    H117508   3.020   2.125   3.903 -0.4198 -2.4867 -0.7246
 5848TIP3    H217509   2.950   2.085   4.032 -0.0955  0.3406  0.3973
 5849TIP3   OH217510   3.017   4.245   3.788  0.0303  0.3869  0.2661
 5849TIP3    H117511   3.076   4.169   3.788 -0.1782  0.1821 -1.7133
 5849TIP3    H217512   2.942   4.218   3.841  1.3790  0.4499  2.3627
 5850TIP3   OH217513   0.611   0.372   2.672  0.2638 -0.5375  0.2827
 5850TIP3    H117514   0.683   0.435   2.677  0.3977 -0.5866 -0.7242
 5850TIP3    H217515   0.539   0.421   2.632  0.2486 -0.9169 -0.1613
 5851TIP3   OH217516   3.164   2.004   2.747 -0.7276 -0.2255  0.0831
 5851TIP3    H117517   3.232   2.062   2.711 -1.6341 -0.2433 -1.7739
 5851TIP3    H217518   3.083   2.054   2.740 -1.5366 -1.6413 -1.5548
 5852TIP3   OH217519   4.969   3.496   4.660 -0.1489 -0.0108  0.2943
 5852TIP3    H117520   5.026   3.569   4.636 -0.8033  0.3771 -0.1044
 5852TIP3    H217521   4.976   3.435   4.587 -0.5300  0.2123  0.0669
 5853TIP3   OH217522   3.664   0.103   1.991 -0.2511  0.3185  0.0698
 5853TIP3    H117523   3.740   0.159   2.009  0.3843  0.9314 -3.6515
 5853TIP3    H217524   3.591   0.146   2.036  1.3138  0.3469  2.7713
 5854TIP3   OH217525   3.555   1.620   5.066  0.3063  0.4745 -0.3345
 5854TIP3    H117526   3.596   1.582   5.143  2.1153  2.0155 -0.4714
 5854TIP3    H217527   3.520   1.544   5.018 -1.0168 -0.5047  2.0111
 5855TIP3   OH217528   7.120   6.174   5.736  0.1358  0.6812  0.4974
 5855TIP3    H117529   7.069   6.253   5.751  1.8106  1.5650  1.9160
 5855TIP3    H217530   7.209   6.206   5.722  0.5651 -0.8761 -0.6269
 5856TIP3   OH217531   4.243   2.685   1.116 -0.0988 -0.3232  0.2875
 5856TIP3    H117532   4.148   2.686   1.100  0.1207  0.1156 -1.0496
 5856TIP3    H217533   4.274   2.769   1.085  0.8057 -0.6234  0.3449
 5857TIP3   OH217534   3.401   0.806   3.402 -0.2654  0.6219  0.4059
 5857TIP3    H117535   3.404   0.896   3.369 -0.0555  0.5756  0.2966
 5857TIP3    H217536   3.313   0.797   3.439  0.6196  1.7959  2.9937
 5858TIP3   OH217537   4.386   3.025   3.122  0.2973  0.4138  0.5313
 5858TIP3    H117538   4.450   3.038   3.192  1.1754  1.4860 -0.4452
 5858TIP3    H217539   4.436   2.982   3.052 -0.0045  1.3237 -0.2672
 5859TIP3   OH217540   4.262   6.304   5.793  0.6715 -0.1934  0.5752
 5859TIP3    H117541   4.198   6.258   5.847  2.3864 -0.6777  2.3100
 5859TIP3    H217542   4.240   6.396   5.805  1.6289 -0.2127  3.0419
 5860TIP3   OH217543   3.744   5.094   0.895 -0.3117  0.4753 -0.2996
 5860TIP3    H117544   3.670   5.033   0.893  0.2858 -0.4365  1.8453
 5860TIP3    H217545   3.818   5.041   0.924  0.7851  1.7268 -0.7147
 5861TIP3   OH217546   1.711   1.712   3.899  0.3026  0.1749  0.6269
 5861TIP3    H117547   1.643   1.645   3.891 -0.0498  0.6655 -0.7006
 5861TIP3    H217548   1.668   1.784   3.945 -0.0775  0.4467 -0.1253
 5862TIP3   OH217549   3.488   0.165   3.699  0.1680 -0.0894 -0.7440
 5862TIP3    H117550   3.520   0.251   3.726 -2.7350  1.3114 -1.3232
 5862TIP3    H217551   3.496   0.164   3.604  0.7292 -0.7443 -0.7025
 5863TIP3   OH217552   6.928   1.601   5.435 -0.1271  0.2251 -0.5953
 5863TIP3    H117553   6.854   1.541   5.426 -0.6721  0.9650 -1.2610
 5863TIP3    H217554   6.912   1.647   5.517 -1.5279  1.8098 -1.6893
 5864TIP3   OH217555   2.479   2.305   5.179 -0.1755 -0.2041 -0.8367
 5864TIP3    H117556   2.530   2.336   5.104 -0.6114  1.1849 -0.5728
 5864TIP3    H217557   2.543   2.292   5.249  0.0226 -0.0103 -0.9842
 5865TIP3   OH217558   1.144   0.963   5.263  0.6576  0.0056  0.1882
 5865TIP3    H117559   1.122   1.051   5.234  0.8985 -0.1165 -0.3883
 5865TIP3    H217560   1.230   0.973   5.304  0.3346  0.1724  0.8283
 5866TIP3   OH217561   2.757   1.460   2.850  0.7029 -0.0826  0.5532
 5866TIP3    H117562   2.697   1.449   2.924  1.4993 -1.4491  1.0398
 5866TIP3    H217563   2.700   1.482   2.776 -0.2177  0.2719  1.3437
 5867TIP3   OH217564   6.028   0.566   5.575  0.0762  0.0213  0.1560
 5867TIP3    H117565   5.985   0.487   5.541  0.0191 -0.0166  0.3160
 5867TIP3    H217566   6.007   0.566   5.668 -1.8002  1.3821 -0.2081
 5868TIP3   OH217567   1.111   4.641   5.026  0.1191  0.4817 -0.0986
 5868TIP3    H117568   1.190   4.636   4.972  0.0175 -1.7220 -0.1383
 5868TIP3    H217569   1.090   4.734   5.029  2.7415  1.1485 -0.0265
 5869TIP3   OH217570   0.333   5.023   5.272 -0.1795 -0.5560 -0.2612
 5869TIP3    H117571   0.357   5.100   5.221 -1.4580  0.1269  0.1130
 5869TIP3    H217572   0.403   4.960   5.256  0.6660  0.5239 -0.9230
 5870TIP3   OH217573   2.926   0.376   5.616  0.3431 -0.1613  0.3397
 5870TIP3    H117574   2.851   0.416   5.571 -1.8449 -1.8101  2.2529
 5870TIP3    H217575   2.913   0.397   5.708  1.7337 -1.2749  0.8356
 5871TIP3   OH217576   4.167   0.603   0.020  0.0566  0.0167 -0.1686
 5871TIP3    H117577   4.220   0.576   0.096 -2.3776 -1.9935  0.9411
 5871TIP3    H217578   4.086   0.553   0.028 -2.7402  3.9464 -0.9315
 5872TIP3   OH217579   6.671   4.530   3.864 -0.1263  0.1465 -0.3145
 5872TIP3    H117580   6.763   4.535   3.839 -0.2339 -0.2361 -0.7945
 5872TIP3    H217581   6.624   4.575   3.795 -0.2662  0.8032  0.1931
 5873TIP3   OH217582   1.578   5.519   4.751  0.2159 -0.9899 -0.0136
 5873TIP3    H117583   1.534   5.603   4.735  1.1737 -0.3052  0.8427
 5873TIP3    H217584   1.584   5.479   4.664  1.8629  0.9079 -0.8687
 5874TIP3   OH217585   1.844   4.133   2.375  0.8407 -0.3192 -0.7039
 5874TIP3    H117586   1.799   4.049   2.376  1.3858 -0.6233 -1.1349
 5874TIP3    H217587   1.783   4.193   2.333 -0.1206 -0.1571  0.8411
 5875TIP3   OH217588   0.959   4.943   2.198 -0.2916  0.1205  0.4696
 5875TIP3    H117589   1.048   4.976   2.208  1.4282 -3.5118 -1.1289
 5875TIP3    H217590   0.941   4.898   2.280 -0.9034  1.1785  0.9460
 5876TIP3   OH217591   3.305   0.499   5.770 -0.3493 -0.0293 -0.6486
 5876TIP3    H117592   3.306   0.534   5.681 -0.3134 -1.7328 -1.3659
 5876TIP3    H217593   3.292   0.405   5.759  1.4296 -0.5632  1.0519
 5877TIP3   OH217594   6.929   6.780   1.013 -0.0220  0.6156 -0.2954
 5877TIP3    H117595   6.920   6.703   0.957  2.9746 -1.1306  1.3592
 5877TIP3    H217596   6.885   6.755   1.094 -0.2099  1.2310 -0.2003
 5878TIP3   OH217597   1.878   3.841   5.319 -0.0812  0.8639  0.3670
 5878TIP3    H117598   1.867   3.925   5.273 -2.2021  0.5739  0.2526
 5878TIP3    H217599   1.948   3.797   5.271 -0.3409  1.7258 -0.8607
 5879TIP3   OH217600   2.685   3.646   0.458  0.2255  0.1938  0.2652
 5879TIP3    H117601   2.753   3.685   0.512  0.4292  1.2735 -0.7392
 5879TIP3    H217602   2.701   3.681   0.370 -1.9305  0.9164  0.1016
 5880TIP3   OH217603   0.513   1.694   2.097  0.1370  0.4490 -0.4727
 5880TIP3    H117604   0.605   1.714   2.077 -0.2772  1.4258 -1.4938
 5880TIP3    H217605   0.490   1.624   2.035  0.4275 -0.4327  0.3867
 5881TIP3   OH217606   2.459   3.567   3.266  0.2989 -0.0150  0.3274
 5881TIP3    H117607   2.524   3.575   3.335 -0.9147  1.0441  1.4174
 5881TIP3    H217608   2.417   3.482   3.282  0.3388  0.0162  0.5980
 5882TIP3   OH217609   5.102   4.395   5.430  0.1014 -0.4675  0.1268
 5882TIP3    H117610   5.014   4.386   5.466 -0.0653  3.1140  0.9182
 5882TIP3    H217611   5.160   4.371   5.503 -0.2139 -0.7906  0.2739
 5883TIP3   OH217612   3.889   5.366   3.687  0.1734  0.2951  1.2263
 5883TIP3    H117613   3.902   5.327   3.601 -1.8562 -1.0704  1.4663
 5883TIP3    H217614   3.970   5.347   3.735  1.6278  1.6860 -0.5162
 5884TIP3   OH217615   4.941   6.191   4.244 -0.4680  0.0964  0.1209
 5884TIP3    H117616   5.021   6.238   4.220  0.2938 -0.6585  1.0894
 5884TIP3    H217617   4.899   6.170   4.161 -0.3497  1.6420 -0.3660
 5885TIP3   OH217618   5.850   6.713   5.814 -0.7892 -0.1516  0.1648
 5885TIP3    H117619   5.826   6.691   5.904 -2.0669 -0.1535 -0.1681
 5885TIP3    H217620   5.769   6.704   5.764 -0.2355  0.4642 -0.8762
 5886TIP3   OH217621   6.433   5.515   5.476 -0.0506 -0.1341  0.1487
 5886TIP3    H117622   6.338   5.507   5.481  0.0306 -0.8694  0.8776
 5886TIP3    H217623   6.453   5.516   5.383 -0.6997 -1.0493 -0.0081
 5887TIP3   OH217624   3.305   4.839   0.661  0.1776 -0.6096  0.5580
 5887TIP3    H117625   3.276   4.753   0.630 -4.2011  0.8090 -0.0137
 5887TIP3    H217626   3.227   4.894   0.654  2.7337  3.4544  0.9379
 5888TIP3   OH217627   3.872   3.508   2.409 -0.0708 -0.4758  0.4709
 5888TIP3    H117628   3.847   3.587   2.361 -0.6386 -2.1233 -2.1392
 5888TIP3    H217629   3.967   3.501   2.396  0.1849  0.3811  1.7420
 5889TIP3   OH217630   3.811   1.542   0.526  0.1778 -0.1757 -0.4749
 5889TIP3    H117631   3.717   1.558   0.519  0.4641  1.7130 -0.4704
 5889TIP3    H217632   3.839   1.600   0.597  1.2322 -1.3528  0.1147
 5890TIP3   OH217633   0.570   4.222   1.864 -0.1806  0.2715  0.1798
 5890TIP3    H117634   0.589   4.303   1.911 -0.7233  0.7701 -0.4385
 5890TIP3    H217635   0.499   4.245   1.805 -2.1337 -1.3093  1.7907
 5891TIP3   OH217636   4.304   3.066   3.660 -0.5142  0.5025  0.2641
 5891TIP3    H117637   4.280   3.042   3.749 -2.0162 -0.5603 -0.3714
 5891TIP3    H217638   4.326   2.983   3.617  1.5750  1.1476 -0.0049
 5892TIP3   OH217639   2.817   4.778   5.811  0.4117 -0.5431  0.6728
 5892TIP3    H117640   2.906   4.813   5.800  0.4382 -0.6634  0.5050
 5892TIP3    H217641   2.817   4.697   5.760  0.0126 -0.2226  0.1628
 5893TIP3   OH217642   2.935   5.925   2.547  0.3109 -0.5472  0.1471
 5893TIP3    H117643   2.923   5.859   2.615 -0.3087 -1.6055 -0.9359
 5893TIP3    H217644   2.873   5.994   2.569 -0.6956 -1.4006  0.0621
 5894TIP3   OH217645   0.641   2.337   1.178 -0.4111 -0.3054  0.0559
 5894TIP3    H117646   0.726   2.380   1.182 -0.3468 -0.4569  0.3085
 5894TIP3    H217647   0.616   2.324   1.269  0.0113 -1.6804 -0.0103
 5895TIP3   OH217648   1.772   0.120   5.716 -0.0695 -0.2828  0.4404
 5895TIP3    H117649   1.761   0.160   5.802  0.3183 -0.7659  0.7249
 5895TIP3    H217650   1.736   0.183   5.655  0.0940  0.2820  0.9204
 5896TIP3   OH217651   7.142   0.181   0.645 -0.0837 -0.0963 -0.0394
 5896TIP3    H117652   7.232   0.209   0.625 -0.2119 -0.4827 -1.2332
 5896TIP3    H217653   7.133   0.097   0.601 -0.2684 -1.2547  2.0919
 5897TIP3   OH217654   3.833   5.902   4.652 -0.8634 -0.6343  0.1514
 5897TIP3    H117655   3.783   5.856   4.585  0.8166 -1.8643 -0.3192
 5897TIP3    H217656   3.881   5.969   4.603  0.6415 -1.7652  0.0125
 5898TIP3   OH217657   1.388   6.488   0.901  0.3043 -0.4021  0.8762
 5898TIP3    H117658   1.427   6.401   0.898 -0.5873 -0.8058  0.9102
 5898TIP3    H217659   1.295   6.473   0.913  0.0435  0.5409  0.1716
 5899TIP3   OH217660   4.723   2.722   1.624 -0.5030  0.1899  0.3426
 5899TIP3    H117661   4.673   2.705   1.704 -0.1329  0.7666  0.6966
 5899TIP3    H217662   4.666   2.689   1.554 -0.7807 -0.4288  0.8427
 5900TIP3   OH217663   3.554   5.807   5.515  0.1188  0.1883 -0.1890
 5900TIP3    H117664   3.641   5.777   5.491 -0.0280  0.6823 -1.3810
 5900TIP3    H217665   3.565   5.845   5.602  0.9889 -0.1732 -0.1305
 5901TIP3   OH217666   2.526   3.794   0.634 -0.2495  0.0427  0.1753
 5901TIP3    H117667   2.440   3.792   0.592  0.3729  0.6408 -1.2189
 5901TIP3    H217668   2.579   3.734   0.581  0.8910  1.7704 -0.7341
 5902TIP3   OH217669   4.877   4.325   1.111  0.4924 -0.1996 -0.1831
 5902TIP3    H117670   4.931   4.402   1.131  0.0882  0.1708 -0.5045
 5902TIP3    H217671   4.859   4.286   1.197 -0.5869  0.9417  0.1376
 5903TIP3   OH217672   2.839   0.359   1.478  0.1896  0.0607  0.5207
 5903TIP3    H117673   2.887   0.423   1.426 -0.2421  1.5743  1.8596
 5903TIP3    H217674   2.878   0.365   1.565  0.0558 -1.4499  0.7106
 5904TIP3   OH217675   2.716   4.278   5.776  0.1606 -0.0324  0.4889
 5904TIP3    H117676   2.793   4.335   5.772  0.0591  0.0295 -1.0589
 5904TIP3    H217677   2.706   4.259   5.870  1.3896  0.8501  0.8343
 5905TIP3   OH217678   3.022   4.045   0.935 -0.4368 -0.5757  0.3434
 5905TIP3    H117679   3.018   3.965   0.987  0.5719 -0.3670  0.7662
 5905TIP3    H217680   3.113   4.073   0.941 -0.2288 -0.6635 -1.7179
 5906TIP3   OH217681   4.220   3.189   4.610 -0.3211 -0.7101  0.1842
 5906TIP3    H117682   4.154   3.208   4.543  0.8696 -1.5604 -1.2826
 5906TIP3    H217683   4.232   3.095   4.605  0.9853 -0.5707  0.4508
 5907TIP3   OH217684   6.084   5.904   2.751 -0.5907  0.0673 -0.5334
 5907TIP3    H117685   6.084   5.998   2.771 -1.8483 -0.3223  1.7063
 5907TIP3    H217686   5.996   5.887   2.718 -0.4851 -0.4069 -0.5755
 5908TIP3   OH217687   0.207   2.457   1.874  0.0229  0.2771  0.4276
 5908TIP3    H117688   0.141   2.409   1.924  1.0156 -0.2579  1.2855
 5908TIP3    H217689   0.228   2.532   1.929  0.5101  0.1453  0.4295
 5909TIP3   OH217690   6.791   2.526   0.714 -0.4030 -0.5080 -0.5249
 5909TIP3    H117691   6.826   2.447   0.754 -1.2006 -0.5165  0.1536
 5909TIP3    H217692   6.854   2.595   0.739 -1.2389 -0.3717  1.3537
 5910TIP3   OH217693   5.979   0.663   2.912  0.1316 -0.2008  0.6631
 5910TIP3    H117694   5.940   0.653   2.998  1.3287  2.0904  1.5597
 5910TIP3    H217695   5.905   0.654   2.851 -1.4870  2.0045  2.1576
 5911TIP3   OH217696   6.639   4.378   2.450  0.0021 -0.3766  0.1456
 5911TIP3    H117697   6.695   4.449   2.481  0.1943 -0.1746 -0.6442
 5911TIP3    H217698   6.560   4.422   2.419 -0.8476 -0.6958  1.7192
 5912TIP3   OH217699   4.601   1.886   0.289 -0.4680 -0.6629 -0.6948
 5912TIP3    H117700   4.560   1.884   0.376  0.4135  0.7035 -0.2203
 5912TIP3    H217701   4.630   1.796   0.274 -1.7564 -1.1974 -0.1446
 5913TIP3   OH217702   6.890   0.250   2.672 -0.2642  0.3236 -0.2566
 5913TIP3    H117703   6.844   0.312   2.616  0.7040  0.3949 -1.0017
 5913TIP3    H217704   6.925   0.303   2.744  0.6754  0.6817 -0.9606
 5914TIP3   OH217705   5.977   4.227   3.670  0.2887 -0.0364  0.2196
 5914TIP3    H117706   6.035   4.227   3.747 -0.0197  1.4388  0.4919
 5914TIP3    H217707   5.908   4.164   3.692  1.2708 -1.1142  0.2859
 5915TIP3   OH217708   3.734   0.093   2.975 -0.1552  0.7084  0.0612
 5915TIP3    H117709   3.676   0.025   2.941  2.0551 -0.2128 -2.1993
 5915TIP3    H217710   3.682   0.173   2.971 -1.2795 -0.0365 -1.9809
 5916TIP3   OH217711   3.481   1.383   3.931  0.4389  0.1147 -0.2991
 5916TIP3    H117712   3.398   1.431   3.936  0.8777  0.9306 -0.7899
 5916TIP3    H217713   3.502   1.362   4.022 -1.0520 -1.4104 -0.2481
 5917TIP3   OH217714   1.782   2.432   0.197 -0.1338  0.1884  0.4796
 5917TIP3    H117715   1.718   2.397   0.135  1.1644 -1.1605 -0.1575
 5917TIP3    H217716   1.863   2.440   0.146  0.3206  1.5361  1.3530
 5918TIP3   OH217717   4.785   1.101   0.285 -0.7088  0.1940  0.5718
 5918TIP3    H117718   4.853   1.139   0.341 -0.1330 -0.8456  0.6069
 5918TIP3    H217719   4.807   1.007   0.282 -0.3481  0.2966 -1.8914
 5919TIP3   OH217720   0.846   4.646   4.775  0.1142  0.1836 -0.1290
 5919TIP3    H117721   0.870   4.559   4.743  1.7192  0.2978  0.6950
 5919TIP3    H217722   0.892   4.655   4.858 -2.7328  0.5070  1.5430
 5920TIP3   OH217723   4.757   0.206   5.234 -0.1487 -0.7298  0.5348
 5920TIP3    H117724   4.772   0.133   5.175  1.4363 -0.7335  0.9113
 5920TIP3    H217725   4.740   0.281   5.176 -0.0646 -1.0360  0.1115
 5921TIP3   OH217726   1.291   5.160   1.913 -0.1324  0.1205 -0.0415
 5921TIP3    H117727   1.281   5.131   1.822 -1.4201 -0.2032  0.1868
 5921TIP3    H217728   1.377   5.128   1.939 -0.5989 -1.5840 -0.4997
 5922TIP3   OH217729   5.089   0.257   2.855  0.4295  0.1557 -0.7224
 5922TIP3    H117730   5.167   0.246   2.800  0.4033  1.1503 -0.9732
 5922TIP3    H217731   5.016   0.246   2.794  0.3895  0.3289 -0.7067
 5923TIP3   OH217732   3.371   6.122   5.622 -0.0729  0.3607 -0.4619
 5923TIP3    H117733   3.371   6.158   5.534 -1.7649  1.1861 -0.1490
 5923TIP3    H217734   3.303   6.054   5.621  0.6774 -0.4221 -0.0841
 5924TIP3   OH217735   5.578   1.219   2.113 -0.1151 -0.5886 -0.0874
 5924TIP3    H117736   5.631   1.141   2.125 -0.3184 -0.6636  0.3461
 5924TIP3    H217737   5.523   1.223   2.192  0.2954  0.3011  0.1682
 5925TIP3   OH217738   5.231   0.290   2.129 -0.0296  0.8661 -0.0714
 5925TIP3    H117739   5.180   0.358   2.085  0.4277  0.5111 -1.1766
 5925TIP3    H217740   5.190   0.282   2.215 -0.0356  2.5922  0.1246
 5926TIP3   OH217741   5.837   3.229   3.912  0.0758 -0.2436 -0.2204
 5926TIP3    H117742   5.862   3.194   3.998  1.2251 -0.2098 -0.5240
 5926TIP3    H217743   5.768   3.170   3.881  3.1509 -3.5424 -1.5306
 5927TIP3   OH217744   2.558   5.222   1.272  0.0407  0.0699  0.3745
 5927TIP3    H117745   2.567   5.128   1.257 -0.4414  0.3907 -2.6275
 5927TIP3    H217746   2.639   5.248   1.315 -0.1299 -1.7887  1.9313
 5928TIP3   OH217747   1.929   5.303   4.783  0.0139 -0.0387 -0.5862
 5928TIP3    H117748   1.982   5.326   4.707  0.3514 -0.3354 -0.4448
 5928TIP3    H217749   1.892   5.386   4.813  0.0776  0.1133 -0.9263
 5929TIP3   OH217750   7.002   6.596   5.896  0.5446 -0.2116  0.3309
 5929TIP3    H117751   6.948   6.521   5.873  0.4608 -0.5898  1.6614
 5929TIP3    H217752   6.942   6.671   5.894  0.2544 -0.4355  0.5871
 5930TIP3   OH217753   3.624   3.888   1.410  0.2102  0.0699  0.0706
 5930TIP3    H117754   3.548   3.944   1.425  0.6045  1.1354 -1.6742
 5930TIP3    H217755   3.665   3.880   1.496 -0.7981  1.0700  0.6690
 5931TIP3   OH217756   2.335   1.719   2.406  0.8307 -1.3131  0.2165
 5931TIP3    H117757   2.304   1.721   2.496  0.0653  0.2963 -0.0526
 5931TIP3    H217758   2.255   1.716   2.353  1.2011 -0.0423 -0.4364
 5932TIP3   OH217759   6.876   5.000  -0.017  0.0350  0.5293 -0.2042
 5932TIP3    H117760   6.786   4.970  -0.021 -0.3687  1.4541  1.0331
 5932TIP3    H217761   6.909   4.966   0.067  0.6988  0.5430 -0.4524
 5933TIP3   OH217762   2.320   0.252   1.711 -0.0972  0.0389  0.8129
 5933TIP3    H117763   2.360   0.337   1.693  1.2769 -0.3004  2.0435
 5933TIP3    H217764   2.269   0.232   1.633 -0.5679  2.0476  0.5466
 5934TIP3   OH217765   3.607   0.902   2.821  0.0377  0.3582  0.1742
 5934TIP3    H117766   3.699   0.922   2.805 -0.2139  0.8337 -0.7942
 5934TIP3    H217767   3.608   0.825   2.878  1.0835 -1.6207 -2.2991
 5935TIP3   OH217768   1.854   6.218   2.817 -0.5086  0.6418 -0.3154
 5935TIP3    H117769   1.894   6.146   2.770  0.6607 -0.4635  2.2074
 5935TIP3    H217770   1.898   6.296   2.784  2.6339 -0.3706  1.0736
 5936TIP3   OH217771   3.539   5.219   5.528 -0.5482 -0.4362  0.2080
 5936TIP3    H117772   3.474   5.148   5.528 -1.8419  0.6196 -2.0333
 5936TIP3    H217773   3.529   5.259   5.442  1.3942  1.3576  0.7574
 5937TIP3   OH217774   0.456   3.981   1.789  0.5314  0.1282 -0.0504
 5937TIP3    H117775   0.508   3.902   1.773  0.2263  0.0956 -0.9501
 5937TIP3    H217776   0.517   4.041   1.832  0.5694 -0.8344  1.3248
 5938TIP3   OH217777   3.572   5.285   2.155  0.2382 -0.0791 -0.3795
 5938TIP3    H117778   3.515   5.216   2.191 -1.2083 -0.4560 -3.1458
 5938TIP3    H217779   3.642   5.237   2.110 -0.1420  0.2620 -1.3526
 5939TIP3   OH217780   6.494   6.601   4.248 -0.4259  0.0235  0.0482
 5939TIP3    H117781   6.499   6.683   4.299 -0.0044  0.1219 -0.1471
 5939TIP3    H217782   6.456   6.627   4.164 -1.2674 -0.1659  0.3553
 5940TIP3   OH217783   6.560   0.769   3.982  0.0695 -0.1699 -0.1091
 5940TIP3    H117784   6.491   0.731   4.037  0.8030 -1.7400 -0.2172
 5940TIP3    H217785   6.642   0.744   4.025  0.6265 -0.6115 -1.3736
 5941TIP3   OH217786   3.255   1.774   1.344  0.0314  0.1221 -0.0099
 5941TIP3    H117787   3.223   1.695   1.387 -1.3118  0.7849  0.2741
 5941TIP3    H217788   3.282   1.831   1.416  4.1378 -1.2154 -0.2439
 5942TIP3   OH217789   5.506   4.377   2.762  0.6588  0.0819 -0.1029
 5942TIP3    H117790   5.494   4.405   2.671  0.6335  2.8141  0.6704
 5942TIP3    H217791   5.458   4.294   2.768 -0.5131  0.5391 -2.2330
 5943TIP3   OH217792   5.242   3.700   5.315  0.0769 -0.2632  0.2415
 5943TIP3    H117793   5.230   3.620   5.264 -1.6410 -0.1516  0.4216
 5943TIP3    H217794   5.208   3.770   5.260  1.7834  0.4329 -0.0181
 5944TIP3   OH217795   2.263   2.223   3.669 -0.4304  0.1750 -0.3795
 5944TIP3    H117796   2.343   2.177   3.696  1.1873  2.4072 -1.1181
 5944TIP3    H217797   2.195   2.156   3.675  1.2124 -1.4670  1.6079
 5945TIP3   OH217798   5.653   1.321   0.655 -0.0550 -0.5088 -0.0723
 5945TIP3    H117799   5.687   1.263   0.587 -2.2847 -1.2735 -0.6189
 5945TIP3    H217800   5.558   1.318   0.644 -0.3164  3.5607 -0.3793
 5946TIP3   OH217801   3.278   4.338   5.697 -0.2884  0.0673  0.7476
 5946TIP3    H117802   3.298   4.344   5.790  0.2571  0.5834  0.6077
 5946TIP3    H217803   3.241   4.251   5.685  1.2611 -0.6866  1.1549
 5947TIP3   OH217804   1.380   6.675   1.413 -0.3003 -0.5667  0.0946
 5947TIP3    H117805   1.453   6.735   1.399  0.1449 -0.9910  0.5309
 5947TIP3    H217806   1.416   6.589   1.391 -0.5785 -0.8141  0.6053
 5948TIP3   OH217807   0.071   5.539   2.046  0.6692 -0.2702 -0.4750
 5948TIP3    H117808   0.080   5.630   2.019  0.0617 -0.1234 -0.2172
 5948TIP3    H217809   0.151   5.496   2.016  0.4496  0.0945 -1.6079
 5949TIP3   OH217810   0.253   2.843   0.842  0.2020 -0.0838  0.1076
 5949TIP3    H117811   0.255   2.847   0.938 -0.1076  0.0080  0.1089
 5949TIP3    H217812   0.323   2.780   0.820 -0.7849 -1.3529  0.4663
 5950TIP3   OH217813   6.593   2.097   3.537  0.3201  0.3794  0.0394
 5950TIP3    H117814   6.640   2.055   3.609 -0.6674  0.5183  0.7853
 5950TIP3    H217815   6.606   2.038   3.462  1.3610  0.2416  0.3273
 5951TIP3   OH217816   0.459   5.399   3.950  0.6409 -0.0245  0.2324
 5951TIP3    H117817   0.536   5.373   3.898  0.6749 -2.8501  1.5240
 5951TIP3    H217818   0.387   5.348   3.913 -0.1551  0.9127  0.4620
 5952TIP3   OH217819   2.932   2.774   5.345  0.2838  0.6683 -0.4238
 5952TIP3    H117820   3.023   2.757   5.319  0.7528  0.0363  1.4901
 5952TIP3    H217821   2.934   2.773   5.441 -2.4453 -3.4651 -0.1788
 5953TIP3   OH217822   3.842   2.781   2.694 -0.1742  0.1012  0.3196
 5953TIP3    H117823   3.772   2.754   2.753 -0.5332  1.5462  0.6048
 5953TIP3    H217824   3.910   2.714   2.705 -0.8319 -0.4317  1.2897
 5954TIP3   OH217825   6.766   0.577   2.965 -0.3907 -0.0800 -0.1905
 5954TIP3    H117826   6.695   0.514   2.974  1.0939 -1.8454 -0.0493
 5954TIP3    H217827   6.733   0.658   3.004 -2.2319 -0.8863 -0.0091
 5955TIP3   OH217828   7.147   5.340   2.141 -0.0595 -0.2393  0.1083
 5955TIP3    H117829   7.144   5.382   2.227 -1.1861 -0.1792  0.0541
 5955TIP3    H217830   7.180   5.408   2.082  0.4374 -0.1916  0.4344
 5956TIP3   OH217831   3.277   0.052   4.851  0.1807 -0.1647 -0.9141
 5956TIP3    H117832   3.335   0.126   4.870 -0.1572 -0.0683 -0.2319
 5956TIP3    H217833   3.191   0.080   4.880 -0.1281 -0.4859 -1.5009
 5957TIP3   OH217834   2.665   2.904   3.557  0.2108 -0.2788 -0.1648
 5957TIP3    H117835   2.696   2.899   3.648  0.5893 -0.6453 -0.3143
 5957TIP3    H217836   2.591   2.844   3.555  0.9071 -1.1375 -0.3834
 5958TIP3   OH217837   0.651   2.836   0.924 -0.4560 -0.0060 -0.0992
 5958TIP3    H117838   0.601   2.918   0.924  0.1531  0.4505  2.6898
 5958TIP3    H217839   0.716   2.847   0.994 -0.1956 -2.7825  0.2000
 5959TIP3   OH217840   2.241   6.609   0.324  0.2377 -0.0122 -1.3087
 5959TIP3    H117841   2.187   6.532   0.342 -0.0552  0.3641 -0.5329
 5959TIP3    H217842   2.222   6.631   0.233 -0.7928  0.0135 -1.1006
 5960TIP3   OH217843   5.077   2.355   5.880 -0.3032  0.0686 -0.3759
 5960TIP3    H117844   5.047   2.292   5.946 -1.3636  1.4450  0.5063
 5960TIP3    H217845   4.997   2.388   5.840  0.2598  0.5765 -1.1024
 5961TIP3   OH217846   0.701   6.023   5.809 -0.6327  0.2839 -0.3944
 5961TIP3    H117847   0.606   6.024   5.809 -0.6419  1.3921 -0.2784
 5961TIP3    H217848   0.726   6.116   5.806  0.4262  0.0885  1.1121
 5962TIP3   OH217849   0.498   1.423   3.612 -0.3011 -0.0578  0.0737
 5962TIP3    H117850   0.402   1.419   3.607 -0.3135 -0.3529  0.4787
 5962TIP3    H217851   0.524   1.477   3.537 -0.8186  0.4539  0.2522
 5963TIP3   OH217852   6.994   1.303   1.698 -0.1119 -0.0504  0.1990
 5963TIP3    H117853   6.919   1.260   1.738  0.2643 -0.7254  0.1868
 5963TIP3    H217854   6.983   1.396   1.720  0.4945 -0.4835  2.5538
 5964TIP3   OH217855   6.723   0.430   5.842 -0.1242  0.0788  0.1176
 5964TIP3    H117856   6.776   0.505   5.815 -0.4570  0.6272  0.9537
 5964TIP3    H217857   6.751   0.412   5.931 -0.7233 -0.1820  0.2561
 5965TIP3   OH217858   2.622   3.593   2.905 -0.0301 -0.6327 -0.3307
 5965TIP3    H117859   2.643   3.538   2.981 -1.8393  1.8579  2.1989
 5965TIP3    H217860   2.707   3.628   2.878  0.5490 -0.5180  1.4771
 5966TIP3   OH217861   7.048   5.371   5.232  0.3004 -0.7569 -0.3890
 5966TIP3    H117862   7.098   5.351   5.311 -0.4216 -0.0612  0.2688
 5966TIP3    H217863   6.964   5.326   5.244 -0.0791 -0.0818 -0.4156
 5967TIP3   OH217864   6.071   6.587   1.078  0.2137  0.2338  0.7014
 5967TIP3    H117865   6.008   6.535   1.028  0.5777 -1.3740  1.8070
 5967TIP3    H217866   6.019   6.656   1.118 -0.4194  0.3309 -0.2499
 5968TIP3   OH217867   5.174   2.919   5.392 -0.3904  0.4798  0.0092
 5968TIP3    H117868   5.241   2.901   5.326 -1.3655  0.2293 -0.9422
 5968TIP3    H217869   5.120   2.840   5.394 -0.2466  0.3791  1.3049
 5969TIP3   OH217870   5.735   5.867   0.816 -0.0821 -0.1507  0.0961
 5969TIP3    H117871   5.656   5.824   0.784  0.3269 -0.7449 -0.1224
 5969TIP3    H217872   5.764   5.813   0.889 -0.0026  0.1985  0.3281
 5970TIP3   OH217873   2.275   1.970   4.810 -0.1228  0.1878  0.2006
 5970TIP3    H117874   2.246   2.026   4.739  0.6273  0.6692  0.2627
 5970TIP3    H217875   2.363   1.942   4.784  0.4227  0.8985  1.2375
 5971TIP3   OH217876   3.398   3.117   1.493  0.7572 -0.6576 -0.0683
 5971TIP3    H117877   3.345   3.037   1.501  1.8182 -1.2995  0.7252
 5971TIP3    H217878   3.439   3.110   1.407  1.4655 -1.3782  0.3112
 5972TIP3   OH217879   6.788   1.615   5.086 -0.3534  0.1054 -0.0424
 5972TIP3    H117880   6.748   1.685   5.138 -0.9832 -1.1189  1.1938
 5972TIP3    H217881   6.880   1.616   5.112 -0.2118  0.9252 -0.5630
 5973TIP3   OH217882   5.456   4.611   2.980 -0.2486  0.5343 -0.0349
 5973TIP3    H117883   5.527   4.567   3.027  0.0320  1.0782  0.0565
 5973TIP3    H217884   5.423   4.545   2.920  1.5584  0.8191 -1.4180
 5974TIP3   OH217885   4.951   1.809   5.670 -0.2329  0.2230  0.2240
 5974TIP3    H117886   4.984   1.825   5.582  2.1487  1.1428  1.1796
 5974TIP3    H217887   4.979   1.720   5.691 -0.7726  0.0148  0.0798
 5975TIP3   OH217888   3.474   6.405   0.854 -0.6056  0.0094  0.3098
 5975TIP3    H117889   3.503   6.392   0.764 -1.6466 -0.3034  0.0093
 5975TIP3    H217890   3.555   6.414   0.904  0.0444 -1.7431 -0.3631
 5976TIP3   OH217891   5.346   0.210   3.210  0.4087  0.2612  0.0953
 5976TIP3    H117892   5.436   0.227   3.183  0.7290  0.1792  1.0732
 5976TIP3    H217893   5.354   0.154   3.288 -0.3190  3.0014  2.3027
 5977TIP3   OH217894   0.228   6.397   1.826  0.0703 -0.1023 -0.4349
 5977TIP3    H117895   0.260   6.395   1.916  0.8228  0.0588 -0.6926
 5977TIP3    H217896   0.159   6.463   1.827 -1.0384 -1.2226  0.3652
 5978TIP3   OH217897   5.008   5.500   3.396  0.1468  0.8119 -0.6445
 5978TIP3    H117898   4.961   5.583   3.400 -2.5391 -0.6552  2.3582
 5978TIP3    H217899   5.039   5.485   3.485  0.3992 -1.4862 -1.0579
 5979TIP3   OH217900   6.670   3.841   1.532  0.3211  0.3086 -0.2094
 5979TIP3    H117901   6.763   3.832   1.554 -0.0144 -0.8694  0.8299
 5979TIP3    H217902   6.660   3.793   1.449  0.3368 -1.0698  0.5577
 5980TIP3   OH217903   0.823   0.903   5.333 -0.6691  0.4328  0.0748
 5980TIP3    H117904   0.913   0.912   5.302 -0.7359  2.9453  0.4583
 5980TIP3    H217905   0.778   0.856   5.262  0.8154 -0.4673 -0.3085
 5981TIP3   OH217906   5.523   6.691   0.812  0.3264  0.2719  0.0155
 5981TIP3    H117907   5.534   6.597   0.794 -2.3639 -0.2535  0.7277
 5981TIP3    H217908   5.591   6.710   0.876  2.3606 -0.6105 -1.7435
 5982TIP3   OH217909   1.372   3.502   3.755 -0.1293  0.0132 -0.7697
 5982TIP3    H117910   1.291   3.553   3.760 -0.5087 -0.6495  0.4614
 5982TIP3    H217911   1.441   3.563   3.782 -0.3041  0.4214 -1.2520
 5983TIP3   OH217912   5.464   1.890   2.362  0.3440 -0.3133  0.2175
 5983TIP3    H117913   5.459   1.952   2.288  0.2406  0.8072  1.1359
 5983TIP3    H217914   5.533   1.828   2.336 -0.8048 -0.9576 -1.5395
 5984TIP3   OH217915   2.533   4.071   5.201  0.0842  0.2161  0.0913
 5984TIP3    H117916   2.448   4.083   5.242 -0.3219  1.2755 -0.9895
 5984TIP3    H217917   2.514   4.062   5.107  1.1624  0.7620 -0.2031
 5985TIP3   OH217918   5.516   1.850   4.721 -0.3386  0.0236  0.5704
 5985TIP3    H117919   5.567   1.804   4.788  1.1751 -0.0677 -0.5782
 5985TIP3    H217920   5.562   1.934   4.710  0.8218 -0.8602 -1.8975
 5986TIP3   OH217921   6.148   5.720   5.100 -0.3385  0.1390  0.1355
 5986TIP3    H117922   6.242   5.714   5.086 -0.4576 -0.9233 -0.3151
 5986TIP3    H217923   6.136   5.800   5.152  0.6875  0.9441 -0.8268
 5987TIP3   OH217924   2.824   3.121   1.386  0.2144  0.0829 -0.0481
 5987TIP3    H117925   2.822   3.137   1.292  0.7375 -1.9966 -0.4411
 5987TIP3    H217926   2.770   3.191   1.422  0.0294  0.9472 -1.8755
 5988TIP3   OH217927   4.728   2.453   0.391 -0.3211  0.2932 -0.3005
 5988TIP3    H117928   4.800   2.479   0.449  0.1902  2.0919 -1.6395
 5988TIP3    H217929   4.653   2.441   0.449  1.0335 -1.7809  1.1623
 5989TIP3   OH217930   2.012   4.619   4.016 -0.5929 -0.1169  0.1588
 5989TIP3    H117931   2.028   4.711   4.035 -0.2663 -0.3534  1.0710
 5989TIP3    H217932   2.089   4.591   3.966 -0.0151 -0.2403  1.0940
 5990TIP3   OH217933   0.267   6.425   2.087  0.0616  0.0623  0.3915
 5990TIP3    H117934   0.194   6.454   2.141 -0.0274 -1.7524  1.3179
 5990TIP3    H217935   0.324   6.502   2.081 -1.3245  1.1599  0.6249
 5991TIP3   OH217936   3.452   4.000   5.716 -0.1392  0.1601 -0.2587
 5991TIP3    H117937   3.465   3.930   5.780  0.2579  0.2111 -0.2796
 5991TIP3    H217938   3.358   3.999   5.698 -0.0641 -0.7542 -0.6924
 5992TIP3   OH217939   7.026   5.569   2.757  0.0450  0.2879  0.1728
 5992TIP3    H117940   7.037   5.663   2.767 -0.6792  0.6558 -1.9939
 5992TIP3    H217941   6.931   5.556   2.755  0.1286 -0.6109  1.2695
 5993TIP3   OH217942   6.367   3.395   2.128  0.0247  0.0246 -0.7743
 5993TIP3    H117943   6.342   3.468   2.072 -1.2099 -0.1193 -0.4349
 5993TIP3    H217944   6.324   3.319   2.090 -2.1105  0.1625  1.1519
 5994TIP3   OH217945   3.783   0.759   5.406  0.3454 -0.0942  0.2176
 5994TIP3    H117946   3.689   0.762   5.387  0.0839  0.5969  1.4997
 5994TIP3    H217947   3.793   0.685   5.465  0.6145 -0.2159  0.0186
 5995TIP3   OH217948   5.661   0.366   3.152 -0.2758 -0.4222 -0.1841
 5995TIP3    H117949   5.742   0.358   3.101  0.8793  0.5125  1.4105
 5995TIP3    H217950   5.607   0.427   3.102 -0.0132 -1.0730 -1.2827
 5996TIP3   OH217951   4.251   0.997   3.628 -0.0232  0.1931  0.1695
 5996TIP3    H117952   4.279   1.002   3.719 -2.1132 -1.2156  0.9653
 5996TIP3    H217953   4.300   1.067   3.584  0.8155  1.1112  2.3981
 5997TIP3   OH217954   1.683   2.323   4.379 -0.9954  0.0997  0.2646
 5997TIP3    H117955   1.645   2.247   4.421 -0.3090  0.3388  1.3371
 5997TIP3    H217956   1.768   2.335   4.420 -1.1660  1.5659  0.2718
 5998TIP3   OH217957   5.700   0.537   5.292  0.2403 -0.1389  0.4166
 5998TIP3    H117958   5.737   0.493   5.216 -0.6537  1.3197 -0.9074
 5998TIP3    H217959   5.757   0.612   5.308 -0.2178  0.2137  0.4445
 5999TIP3   OH217960   2.870   2.728   2.426 -0.3766 -0.2144 -0.4085
 5999TIP3    H117961   2.928   2.771   2.489 -2.0540  1.7206 -0.0701
 5999TIP3    H217962   2.807   2.796   2.400 -1.8817 -1.9115 -1.5214
 6000TIP3   OH217963   5.194   1.669   4.001  0.4949 -0.0127  0.8593
 6000TIP3    H117964   5.264   1.718   3.957 -0.6031 -0.5340 -1.6318
 6000TIP3    H217965   5.114   1.717   3.979 -0.1685 -0.6966  1.7534
 6001TIP3   OH217966   0.287   1.284   4.759 -0.5803 -0.2417 -0.6351
 6001TIP3    H117967   0.363   1.238   4.724  0.3265  0.1353  0.7526
 6001TIP3    H217968   0.305   1.376   4.744 -0.2307 -0.0788  0.6616
 6002TIP3   OH217969   1.835   4.182   1.466  0.3384  0.2196 -0.1469
 6002TIP3    H117970   1.888   4.259   1.442  0.0055  0.7995  0.8853
 6002TIP3    H217971   1.785   4.211   1.542 -0.1404 -0.8923 -0.0221
 6003TIP3   OH217972   0.181   2.643   5.588  0.6527 -0.0015  0.0072
 6003TIP3    H117973   0.252   2.662   5.649  2.4113  0.3086 -2.0249
 6003TIP3    H217974   0.202   2.556   5.553 -1.6630 -1.2835  1.5360
 6004TIP3   OH217975   2.607   1.762   3.338 -0.2921 -0.1839 -0.3226
 6004TIP3    H117976   2.701   1.762   3.317 -0.1599  1.5448  0.1008
 6004TIP3    H217977   2.604   1.782   3.432 -1.0798 -0.2050 -0.3424
 6005TIP3   OH217978   4.907   5.782   3.455 -0.2926 -0.4147 -0.2453
 6005TIP3    H117979   4.976   5.842   3.483 -0.1964 -1.5668  2.2518
 6005TIP3    H217980   4.843   5.783   3.526 -1.3814 -1.6047 -1.1503
 6006TIP3   OH217981   5.852   5.450   5.079  0.4124  0.4777  0.6611
 6006TIP3    H117982   5.875   5.475   4.990  0.4658 -2.1479 -0.1558
 6006TIP3    H217983   5.928   5.474   5.132  1.1494  0.3759 -0.3307
 6007TIP3   OH217984   4.821   4.686   1.792  0.9295 -0.6882 -0.3740
 6007TIP3    H117985   4.792   4.595   1.783  0.8316 -0.6696 -0.2567
 6007TIP3    H217986   4.742   4.733   1.816  1.1723 -0.7351  0.5524
 6008TIP3   OH217987   3.230   2.461   4.644 -0.0303  0.0803  0.0463
 6008TIP3    H117988   3.149   2.511   4.640 -0.0763  0.0233  0.2778
 6008TIP3    H217989   3.240   2.438   4.736  0.0986 -0.1569 -0.0258
 6009TIP3   OH217990   5.817   4.427   0.641  0.8037 -0.4009  0.2853
 6009TIP3    H117991   5.794   4.499   0.700 -1.5511 -0.5840 -0.2847
 6009TIP3    H217992   5.813   4.348   0.696  2.6128 -0.2077  0.7353
 6010TIP3   OH217993   5.681   0.510   1.499 -0.4081 -0.2615  0.2861
 6010TIP3    H117994   5.761   0.461   1.521 -0.5395 -0.5782  0.0695
 6010TIP3    H217995   5.610   0.456   1.532 -0.5949 -0.6428 -0.7173
 6011TIP3   OH217996   0.100   3.275   0.167  0.3749 -0.1374  0.0304
 6011TIP3    H117997   0.123   3.260   0.258  0.2409  2.0090  0.4822
 6011TIP3    H217998   0.146   3.356   0.143 -1.1274  0.4226 -1.1748
 6012TIP3   OH217999   4.958   3.628   2.538 -0.5255  0.0599  0.3358
 6012TIP3    H118000   5.011   3.607   2.461 -0.1320  0.4417  0.4972
 6012TIP3    H218001   4.941   3.543   2.579  1.4661  0.0300  1.2582
 6013TIP3   OH218002   4.041   0.833   2.968 -0.0516 -0.0260  0.9822
 6013TIP3    H118003   3.974   0.824   3.035  0.3836 -0.9564  1.2978
 6013TIP3    H218004   4.117   0.868   3.014 -0.1511  0.5643  0.7162
 6014TIP3   OH218005   4.667   3.094   4.575  0.7237  0.1119  0.1120
 6014TIP3    H118006   4.709   3.068   4.493  0.1452  0.9328 -0.4481
 6014TIP3    H218007   4.658   3.189   4.569  2.5155  0.4776  1.9897
 6015TIP3   OH218008   0.753   4.746   2.450 -0.0008 -0.1335 -0.2090
 6015TIP3    H118009   0.848   4.734   2.452 -0.0183 -0.6432 -1.4030
 6015TIP3    H218010   0.741   4.841   2.457  0.6224 -0.0233 -0.5353
 6016TIP3   OH218011   1.793   1.641   1.046  0.2742 -0.0908 -0.1795
 6016TIP3    H118012   1.699   1.653   1.060  0.5520  2.0092  0.2061
 6016TIP3    H218013   1.833   1.659   1.131  1.2496  2.9154 -1.1218
 6017TIP3   OH218014   2.225   2.226   1.846  0.0475 -0.2588 -0.3193
 6017TIP3    H118015   2.131   2.226   1.863 -0.1095 -3.3133 -0.5371
 6017TIP3    H218016   2.261   2.290   1.907 -2.2388  1.9076 -1.0956
 6018TIP3   OH218017   5.151   5.838   0.617  0.6716  0.3654 -0.0073
 6018TIP3    H118018   5.120   5.875   0.535  0.6948 -0.9169 -0.6182
 6018TIP3    H218019   5.233   5.795   0.595  0.3261 -0.5955  0.5296
 6019TIP3   OH218020   4.161   5.398   3.314  0.3494 -0.4268  0.4213
 6019TIP3    H118021   4.088   5.360   3.266 -0.0818  1.6764 -0.6804
 6019TIP3    H218022   4.166   5.346   3.395 -0.4034 -2.5211 -0.8010
 6020TIP3   OH218023   5.531   6.321   2.296  0.2396  0.4785 -0.5937
 6020TIP3    H118024   5.591   6.393   2.313  0.1567  0.5389 -0.5542
 6020TIP3    H218025   5.550   6.293   2.206  0.7528  0.0865 -0.3651
 6021TIP3   OH218026   6.507   2.715   3.851  0.4109 -0.2104 -0.2232
 6021TIP3    H118027   6.477   2.677   3.934  2.3387  1.1603  1.1925
 6021TIP3    H218028   6.546   2.798   3.876 -0.9243  1.3221 -2.8350
 6022TIP3   OH218029   5.552   5.880   3.987  0.5672  0.0477 -0.6274
 6022TIP3    H118030   5.500   5.937   3.932 -0.7208 -0.5517 -0.0630
 6022TIP3    H218031   5.602   5.939   4.043 -2.6424  0.7484  1.7690
 6023TIP3   OH218032   1.690   6.362   1.981  0.4089  0.2928  0.4849
 6023TIP3    H118033   1.722   6.319   2.060 -0.1610 -2.3649 -0.6272
 6023TIP3    H218034   1.595   6.350   1.984  0.5222 -1.8147 -1.5548
 6024TIP3   OH218035   1.731   1.164   0.885 -0.0548 -0.2699  1.2002
 6024TIP3    H118036   1.789   1.226   0.929 -0.8664  0.3302  1.4320
 6024TIP3    H218037   1.645   1.178   0.924 -0.8984  0.5359 -0.7775
 6025TIP3   OH218038   3.749   0.976   4.886  0.0956  0.5898 -0.4822
 6025TIP3    H118039   3.735   0.953   4.794 -0.9431 -1.0821  0.0611
 6025TIP3    H218040   3.844   0.975   4.896  0.2042  0.3559 -1.4250
 6026TIP3   OH218041   1.990   0.248   5.336  0.3838 -0.1157 -0.6702
 6026TIP3    H118042   1.956   0.167   5.375 -0.3802 -1.0255 -3.0406
 6026TIP3    H218043   1.950   0.318   5.387  0.0660 -1.1995  0.6344
 6027TIP3   OH218044   5.833   3.447   3.433  0.4453 -0.1791  0.1775
 6027TIP3    H118045   5.753   3.434   3.384  0.3290  0.8115  0.0870
 6027TIP3    H218046   5.902   3.409   3.379  0.1136 -0.5023 -0.0148
 6028TIP3   OH218047   1.693   1.327   4.514  0.0296  0.3608 -0.2213
 6028TIP3    H118048   1.763   1.362   4.569 -1.4409  0.7982  1.4400
 6028TIP3    H218049   1.656   1.255   4.564 -0.7910  0.1942 -1.0322
 6029TIP3   OH218050   1.005   6.063   5.064  0.1406  0.3862  0.3129
 6029TIP3    H118051   1.034   6.149   5.094  0.1887  0.2419  0.6876
 6029TIP3    H218052   0.954   6.081   4.985 -2.2849  1.0436  1.9153
 6030TIP3   OH218053   0.846   0.757   1.300  0.6792  0.5015  0.5668
 6030TIP3    H118054   0.827   0.811   1.223  1.3079  1.1826  0.8784
 6030TIP3    H218055   0.847   0.819   1.373  0.1505 -0.1288  1.1250
 6031TIP3   OH218056   1.686   4.174   0.447  0.2926 -0.2073  0.1441
 6031TIP3    H118057   1.598   4.210   0.443  0.1451 -0.6372 -0.5715
 6031TIP3    H218058   1.715   4.191   0.537 -0.7493 -0.6133  0.5648
 6032TIP3   OH218059   7.155   5.176   2.430  0.1107 -0.4220 -0.1107
 6032TIP3    H118060   7.162   5.271   2.428  0.4583 -0.4081  1.1973
 6032TIP3    H218061   7.239   5.145   2.396 -0.1608 -0.2772 -0.9395
 6033TIP3   OH218062   6.820   6.420   4.133 -0.1794 -0.2706 -0.8468
 6033TIP3    H118063   6.792   6.351   4.193  0.7687 -0.3038 -0.4375
 6033TIP3    H218064   6.901   6.388   4.094 -1.0699 -0.5080 -2.5981
 6034TIP3   OH218065   6.303   5.148   0.426 -0.6520  0.2800  0.2939
 6034TIP3    H118066   6.309   5.118   0.517  0.1086 -2.5645 -0.5723
 6034TIP3    H218067   6.230   5.098   0.390  0.1187  0.1038 -1.0659
 6035TIP3   OH218068   0.295   2.330   3.953  0.7331  0.2593  0.6591
 6035TIP3    H118069   0.223   2.390   3.936  0.8607 -0.2173 -1.9697
 6035TIP3    H218070   0.273   2.288   4.036 -1.3876  1.0199  0.5249
 6036TIP3   OH218071   2.020   6.547   5.816 -0.0335 -0.4898 -0.4453
 6036TIP3    H118072   2.077   6.529   5.742 -1.0475 -0.6497 -1.2039
 6036TIP3    H218073   2.075   6.597   5.877  0.4409  0.8108 -1.8715
 6037TIP3   OH218074   4.730   1.094   4.668  0.2011 -0.2060  0.1579
 6037TIP3    H118075   4.778   1.161   4.620  0.9765 -0.5636  0.4149
 6037TIP3    H218076   4.777   1.012   4.649 -1.3007 -0.8622 -0.9474
 6038TIP3   OH218077   5.633   2.109   5.571 -0.1950  0.4363  0.0033
 6038TIP3    H118078   5.616   2.087   5.480 -0.4098  1.7582 -0.2992
 6038TIP3    H218079   5.703   2.175   5.567 -0.7380  1.0713  0.7355
 6039TIP3   OH218080   1.644   0.799   4.318  0.3731 -0.1992 -0.0496
 6039TIP3    H118081   1.693   0.864   4.368  0.3876 -0.6546  0.5499
 6039TIP3    H218082   1.710   0.744   4.277  0.3603  0.3173 -0.7630
 6040TIP3   OH218083   1.428   1.163   3.552 -0.9137 -0.1343 -0.3151
 6040TIP3    H118084   1.505   1.194   3.599  0.2127 -3.6000  0.4411
 6040TIP3    H218085   1.362   1.149   3.621 -0.8718 -0.7849 -0.3974
 6041TIP3   OH218086   0.014   5.726   0.596 -0.7836 -0.1900  0.3116
 6041TIP3    H118087  -0.023   5.641   0.573 -0.2584 -0.5059  0.6462
 6041TIP3    H218088   0.076   5.708   0.666  0.1302  0.3142 -0.3459
 6042TIP3   OH218089   5.073   4.161   2.975  0.5399  0.0414 -0.0356
 6042TIP3    H118090   5.145   4.099   2.974  0.7436  0.2344  1.4253
 6042TIP3    H218091   5.093   4.221   2.903  3.1195  1.4821  1.7317
 6043TIP3   OH218092   5.738   5.331   4.714 -0.0441 -0.1568 -0.0458
 6043TIP3    H118093   5.818   5.277   4.717 -0.2411 -0.5156 -0.8740
 6043TIP3    H218094   5.705   5.319   4.625 -0.8327  0.2740  0.1830
 6044TIP3   OH218095   1.697   3.830   5.532 -0.4801  0.2560 -0.1403
 6044TIP3    H118096   1.654   3.912   5.507 -0.1209  0.1143 -1.2993
 6044TIP3    H218097   1.762   3.815   5.463 -1.9037 -2.0308 -1.1511
 6045TIP3   OH218098   4.894   5.599   2.538  0.4568  0.2784  0.1091
 6045TIP3    H118099   4.985   5.610   2.512  1.0834 -0.2073  1.9312
 6045TIP3    H218100   4.898   5.575   2.630 -1.5572  0.8943  0.4133
 6046TIP3   OH218101   2.058   5.309   4.541  0.3788 -0.2706 -0.0282
 6046TIP3    H118102   2.096   5.232   4.499 -1.0135  0.3153 -2.5160
 6046TIP3    H218103   2.020   5.360   4.470 -0.2278  1.9021  1.7318
 6047TIP3   OH218104   6.665   2.012   5.429 -0.4516 -0.1281 -0.5113
 6047TIP3    H118105   6.626   2.099   5.442 -0.8224 -0.1213 -1.5553
 6047TIP3    H218106   6.749   2.029   5.387 -0.2312 -0.2426 -0.1167
 6048TIP3   OH218107   0.266   4.593   0.824  0.2870  0.0147  0.6695
 6048TIP3    H118108   0.244   4.500   0.812  1.6556 -0.1496 -0.9563
 6048TIP3    H218109   0.360   4.592   0.841  0.7580  1.2092 -1.5452
 6049TIP3   OH218110   5.975   3.035   4.702  0.3570  0.2790  0.0789
 6049TIP3    H118111   5.988   2.943   4.725  0.2424  0.3102  0.2704
 6049TIP3    H218112   6.006   3.084   4.778  0.0741  0.3865  0.1266
 6050TIP3   OH218113   4.913   4.491   2.974 -0.5984  0.0741 -0.2498
 6050TIP3    H118114   4.939   4.468   3.063  0.2059  1.5181 -0.0736
 6050TIP3    H218115   4.991   4.475   2.921 -0.8891 -0.2180 -0.5961
 6051TIP3   OH218116   6.342   6.231   2.966  0.6024  0.0976 -0.1692
 6051TIP3    H118117   6.409   6.270   3.022  0.4597  1.4158 -0.8625
 6051TIP3    H218118   6.261   6.239   3.017  0.5805  0.7012 -0.2903
 6052TIP3   OH218119   2.984   2.860   2.649 -0.2311  0.2723 -0.3807
 6052TIP3    H118120   2.989   2.930   2.714 -0.5947  0.0636 -0.1240
 6052TIP3    H218121   3.071   2.859   2.608 -0.5053  1.5042 -1.0531
 6053TIP3   OH218122   6.534   6.710   3.527  0.9632  0.7076  0.0414
 6053TIP3    H118123   6.502   6.698   3.438  0.6173  0.3269  0.2180
 6053TIP3    H218124   6.493   6.792   3.556 -0.7646 -0.3157  0.6556
 6054TIP3   OH218125   2.881   5.093   2.290  0.2747 -0.6450 -0.2016
 6054TIP3    H118126   2.899   5.125   2.202 -1.5624  3.2487  0.6091
 6054TIP3    H218127   2.790   5.064   2.288 -0.5447  1.6028  0.7714
 6055TIP3   OH218128   1.137   1.367   3.112  0.4886  0.1493 -0.1449
 6055TIP3    H118129   1.100   1.279   3.112  2.1878 -0.6071 -0.3359
 6055TIP3    H218130   1.061   1.425   3.105 -0.9190 -1.1633  2.5300
 6056TIP3   OH218131   3.642   2.714   0.980 -0.0791  0.0735 -0.4588
 6056TIP3    H118132   3.587   2.758   1.045 -0.1423  0.1722 -0.5794
 6056TIP3    H218133   3.714   2.775   0.964  0.7548 -0.5763  0.6294
 6057TIP3   OH218134   2.879   2.108   4.239  0.4501  0.4752  0.0391
 6057TIP3    H118135   2.933   2.056   4.299  0.8113 -0.6961 -1.2541
 6057TIP3    H218136   2.808   2.049   4.213 -1.0408  1.7197  1.0466
 6058TIP3   OH218137   2.460   0.700   0.459  0.1726  0.2791 -0.1838
 6058TIP3    H118138   2.403   0.757   0.408 -1.9160 -1.3640  0.1535
 6058TIP3    H218139   2.545   0.705   0.415  0.0728  3.4644 -0.2345
 6059TIP3   OH218140   1.739   3.652   4.927  0.2036 -0.7240  0.1944
 6059TIP3    H118141   1.750   3.612   5.013 -0.6813 -0.5551  0.4009
 6059TIP3    H218142   1.784   3.593   4.867 -1.1594 -2.1311  0.4753
 6060TIP3   OH218143   6.426   2.006   1.517 -0.2070 -0.3933 -0.1499
 6060TIP3    H118144   6.471   1.929   1.482  0.9468 -0.4359  1.3566
 6060TIP3    H218145   6.335   1.996   1.487  0.3085 -1.3880 -1.4810
 6061TIP3   OH218146   5.746   5.853   1.915 -0.4388  0.5448  0.0732
 6061TIP3    H118147   5.705   5.766   1.907 -0.5148  0.6441 -0.6235
 6061TIP3    H218148   5.832   5.843   1.875 -0.6373  0.9156 -0.4614
 6062TIP3   OH218149   2.518   3.804   3.724  0.3536 -0.5586 -0.4859
 6062TIP3    H118150   2.479   3.885   3.690 -0.2617 -1.0204 -0.8980
 6062TIP3    H218151   2.479   3.793   3.810  0.4417 -0.4197 -0.4267
 6063TIP3   OH218152   1.808   1.379   0.241 -0.3395  0.7474 -0.4804
 6063TIP3    H118153   1.826   1.308   0.303  1.8255  1.5109 -0.1325
 6063TIP3    H218154   1.883   1.438   0.251 -1.2553  2.2261 -1.9625
 6064TIP3   OH218155   6.207   2.705   3.706  0.2581  0.5657 -0.0705
 6064TIP3    H118156   6.285   2.704   3.651 -0.2787 -0.9106 -0.8499
 6064TIP3    H218157   6.197   2.797   3.731  1.2000  1.0698 -1.4412
 6065TIP3   OH218158   3.284   6.252   4.396  0.4001 -0.1826 -0.4554
 6065TIP3    H118159   3.280   6.331   4.342 -1.3999 -0.7648 -1.2124
 6065TIP3    H218160   3.193   6.226   4.408  0.7571 -0.5329  2.2302
 6066TIP3   OH218161   5.909   0.385   0.320  0.2143 -0.0868 -0.3550
 6066TIP3    H118162   5.878   0.471   0.347  0.2591 -0.5075  1.1057
 6066TIP3    H218163   5.832   0.329   0.323  0.1379 -0.0768 -1.5192
 6067TIP3   OH218164   1.165   6.089   1.020  0.1243 -0.2396 -0.2626
 6067TIP3    H118165   1.218   6.051   1.090 -0.3792  0.2126  0.3617
 6067TIP3    H218166   1.075   6.064   1.040  0.0973 -1.2153 -1.4568
 6068TIP3   OH218167   2.917   4.077   5.408  0.1480 -0.2903 -0.0829
 6068TIP3    H118168   2.986   4.030   5.456  0.7625  0.7660  0.1044
 6068TIP3    H218169   2.930   4.052   5.317 -0.6605 -1.8644  0.2098
 6069TIP3   OH218170   1.535   5.497   0.682 -0.6094 -0.0948 -0.0413
 6069TIP3    H118171   1.574   5.470   0.599 -1.7425  0.9457 -0.9651
 6069TIP3    H218172   1.545   5.593   0.682 -1.0240 -0.0461  0.8094
 6070TIP3   OH218173   2.274   4.244   2.919 -0.7315 -0.7313  0.3894
 6070TIP3    H118174   2.210   4.215   2.855 -1.5403 -1.6363  1.5503
 6070TIP3    H218175   2.307   4.162   2.957  1.2551 -0.2953 -0.2954
 6071TIP3   OH218176   4.033   5.387   5.079 -0.1081 -0.2863  0.0793
 6071TIP3    H118177   4.050   5.308   5.130 -0.3496 -0.3594  0.0468
 6071TIP3    H218178   3.985   5.357   5.003  0.7909 -0.2678 -0.5189
 6072TIP3   OH218179   4.037   1.566   4.752 -0.1441  0.4867  0.3890
 6072TIP3    H118180   4.118   1.516   4.754 -0.7918 -0.6933 -0.9302
 6072TIP3    H218181   3.969   1.504   4.780 -0.7388  1.1161  0.3719
 6073TIP3   OH218182   4.004   2.701   1.340 -0.4781 -0.1891  0.5751
 6073TIP3    H118183   3.944   2.633   1.369 -1.1749  0.1167 -0.1155
 6073TIP3    H218184   4.083   2.688   1.393 -1.6543  0.3203  2.5611
 6074TIP3   OH218185   1.572   0.123   1.120  0.3489  0.2240 -1.1157
 6074TIP3    H118186   1.523   0.105   1.039 -0.2236  2.4649 -1.3396
 6074TIP3    H218187   1.641   0.183   1.093  1.1501 -0.2614 -0.1965
 6075TIP3   OH218188   2.487   2.014   0.705 -0.0922  0.0000  0.3477
 6075TIP3    H118189   2.499   2.077   0.635 -0.5043 -0.7918 -0.4606
 6075TIP3    H218190   2.488   1.928   0.662  0.3222 -0.5512  1.3951
 6076TIP3   OH218191   3.522   4.495   0.084 -0.1645  0.3973  0.0250
 6076TIP3    H118192   3.577   4.574   0.088 -0.7891  0.7836  1.5644
 6076TIP3    H218193   3.438   4.526   0.050  0.3430 -0.0934 -1.7891
 6077TIP3   OH218194   2.629   1.622   5.808 -0.5354  0.0261 -0.0169
 6077TIP3    H118195   2.654   1.531   5.826 -0.8545 -0.1113 -0.2738
 6077TIP3    H218196   2.541   1.630   5.844  0.0857  0.6846  1.4473
 6078TIP3   OH218197   4.547   5.507   4.091  0.1351  0.2826 -0.1031
 6078TIP3    H118198   4.544   5.488   4.185  2.2091  1.6322  0.2908
 6078TIP3    H218199   4.470   5.563   4.076 -0.3900 -0.1947  0.7009
 6079TIP3   OH218200   1.900   4.106   2.999  0.1520 -0.3684  0.3965
 6079TIP3    H118201   1.814   4.128   3.034  0.8728 -1.1199  2.8510
 6079TIP3    H218202   1.944   4.190   2.989 -0.2130 -0.1118  0.9451
 6080TIP3   OH218203   4.220   5.004   4.542  0.4152  0.0153  0.0551
 6080TIP3    H118204   4.212   4.943   4.469 -0.0379  0.8171 -0.5787
 6080TIP3    H218205   4.248   4.950   4.616  1.7404 -0.6691 -0.9088
 6081TIP3   OH218206   5.762   5.429   0.352  0.3105  0.1020  0.4822
 6081TIP3    H118207   5.719   5.350   0.318 -0.4497  0.6026  0.2580
 6081TIP3    H218208   5.825   5.452   0.285  2.0925 -1.5140  1.4881
 6082TIP3   OH218209   0.056   4.455   1.436  0.5014 -0.2222  0.0019
 6082TIP3    H118210   0.111   4.520   1.393  1.7302 -0.8451  0.5669
 6082TIP3    H218211   0.106   4.431   1.514 -0.0393 -1.6511 -0.0741
 6083TIP3   OH218212   6.530   1.756   1.694 -0.4551  0.4186  0.3431
 6083TIP3    H118213   6.571   1.765   1.607  0.5818  0.4566  0.8209
 6083TIP3    H218214   6.455   1.699   1.678  0.3183 -0.4471 -0.4134
 6084TIP3   OH218215   4.109   5.701   2.318 -0.0329  0.5209 -0.7564
 6084TIP3    H118216   4.069   5.678   2.234 -0.5979 -0.9539 -0.1057
 6084TIP3    H218217   4.055   5.774   2.351 -0.9485 -0.1051 -0.8359
 6085TIP3   OH218218   0.703   2.069   2.916  0.2015  0.1543 -0.2645
 6085TIP3    H118219   0.769   2.096   2.980  0.4033 -1.8905  0.4672
 6085TIP3    H218220   0.752   2.021   2.849 -0.2729  0.5339 -0.8979
 6086TIP3   OH218221   4.521   1.904   5.039  0.5194 -0.0369 -0.3278
 6086TIP3    H118222   4.594   1.900   5.101  1.1682 -0.5591 -1.1120
 6086TIP3    H218223   4.546   1.845   4.968 -1.7861 -2.2593  0.5651
 6087TIP3   OH218224   5.907   6.541   2.841 -0.1463 -0.0413  0.2562
 6087TIP3    H118225   5.917   6.629   2.805  0.3057  0.0402  0.5717
 6087TIP3    H218226   5.898   6.485   2.764 -2.2628  0.4727  0.0586
 6088TIP3   OH218227   2.431   2.799   2.997  0.0093  0.2515  0.8579
 6088TIP3    H118228   2.366   2.740   3.035 -0.6163  0.0945 -0.4300
 6088TIP3    H218229   2.493   2.814   3.068 -0.3816 -1.1316  1.5307
 6089TIP3   OH218230   6.179   3.103   0.952 -0.4465  0.6687 -0.0231
 6089TIP3    H118231   6.246   3.076   0.889 -0.7818 -1.0766  0.3151
 6089TIP3    H218232   6.162   3.194   0.930  0.4372  0.5099 -1.5693
 6090TIP3   OH218233   5.784   4.062   2.029 -0.5534 -0.1449  0.3207
 6090TIP3    H118234   5.822   4.126   1.969  0.6704  1.1618  2.3640
 6090TIP3    H218235   5.718   4.016   1.977  1.2433  0.0766 -2.3158
 6091TIP3   OH218236   5.046   6.007   3.550 -0.2213 -0.2258  0.2815
 6091TIP3    H118237   5.097   6.061   3.611 -1.0519 -0.0688  0.8537
 6091TIP3    H218238   4.964   6.055   3.538  0.7815  0.9616 -2.8250
 6092TIP3   OH218239   0.989   6.080   0.235 -0.3982 -0.1734  0.0620
 6092TIP3    H118240   0.946   5.995   0.233  1.9435 -1.4752  0.6413
 6092TIP3    H218241   0.995   6.101   0.328 -0.5673  0.4290 -0.0583
 6093TIP3   OH218242   3.175   2.572   0.557  0.2982  0.0758 -0.1996
 6093TIP3    H118243   3.138   2.506   0.498 -1.6022 -0.3242  1.3282
 6093TIP3    H218244   3.139   2.550   0.643  1.4287  1.7857  0.7691
 6094TIP3   OH218245   2.823   0.322   4.927 -0.0466  0.2605  0.1162
 6094TIP3    H118246   2.728   0.309   4.921 -0.2181  1.4587  0.0113
 6094TIP3    H218247   2.834   0.378   5.003  0.6352 -0.2691  0.4167
 6095TIP3   OH218248   1.122   5.393   5.649  0.1615  0.2563 -0.0051
 6095TIP3    H118249   1.050   5.364   5.594 -0.1698  0.8170  0.1297
 6095TIP3    H218250   1.082   5.453   5.712  0.6693  0.2351  0.3489
 6096TIP3   OH218251   4.133   2.931   4.358 -1.0004 -0.0260 -0.1637
 6096TIP3    H118252   4.060   2.961   4.411 -0.5261 -0.6973  0.9072
 6096TIP3    H218253   4.197   2.897   4.421  1.0178  2.1126 -0.9020
 6097TIP3   OH218254   3.628   2.263   3.912 -0.7890 -0.1157 -0.6409
 6097TIP3    H118255   3.616   2.287   3.820  2.5201 -0.1654 -1.1975
 6097TIP3    H218256   3.601   2.171   3.917 -0.4112 -0.2929 -1.7142
 6098TIP3   OH218257   6.815   1.720   4.531 -0.0663 -0.4006 -0.2056
 6098TIP3    H118258   6.795   1.660   4.459 -0.8478  0.9557 -1.1801
 6098TIP3    H218259   6.906   1.700   4.554 -0.5263 -2.4333  0.0364
 6099TIP3   OH218260   0.446   2.817   4.849 -0.0056  0.0387  0.0881
 6099TIP3    H118261   0.490   2.734   4.830  2.2745  1.6121 -2.1054
 6099TIP3    H218262   0.398   2.800   4.930  0.5945 -3.3017 -0.0971
 6100TIP3   OH218263   6.385   0.243   2.539 -0.3126 -0.4664 -0.3352
 6100TIP3    H118264   6.436   0.304   2.592 -1.5960 -0.2561  0.7290
 6100TIP3    H218265   6.318   0.209   2.599 -0.1707 -2.2870 -1.1239
 6101TIP3   OH218266   5.022   4.443   2.518 -0.0430  0.2647 -0.0799
 6101TIP3    H118267   4.930   4.467   2.524 -0.8836 -2.1751 -1.6895
 6101TIP3    H218268   5.056   4.494   2.445 -0.4178  0.2994 -0.2283
 6102TIP3   OH218269   3.867   1.259   2.902  0.4730  0.3057  0.5069
 6102TIP3    H118270   3.928   1.313   2.853  1.0731 -1.8838 -1.3334
 6102TIP3    H218271   3.914   1.236   2.982  2.1239 -1.2865 -0.8479
 6103TIP3   OH218272   4.196   3.766   5.591  0.4033 -0.8457 -0.2682
 6103TIP3    H118273   4.189   3.739   5.682  0.1251 -0.7960 -0.2745
 6103TIP3    H218274   4.235   3.691   5.546 -0.8464 -1.4533 -0.3837
 6104TIP3   OH218275   1.913   4.874   2.386 -0.8822 -0.4830 -0.2254
 6104TIP3    H118276   1.965   4.920   2.320  0.8102  0.1465  1.4360
 6104TIP3    H218277   1.976   4.818   2.431 -1.5482  0.3926  1.9609
 6105TIP3   OH218278   5.145   1.572   1.542 -0.4715 -0.3418  0.2736
 6105TIP3    H118279   5.142   1.483   1.576  1.5139  0.2662  2.1959
 6105TIP3    H218280   5.207   1.618   1.598 -0.2072  1.8494 -1.6614
 6106TIP3   OH218281   3.049   3.047   1.180  0.2846 -0.6342  0.5063
 6106TIP3    H118282   3.127   3.002   1.148  0.8066  0.8708 -0.4822
 6106TIP3    H218283   3.082   3.104   1.251  0.3759  0.9269 -0.7249
 6107TIP3   OH218284   1.828   4.257   5.333  0.2733 -0.1648  0.2237
 6107TIP3    H118285   1.899   4.216   5.382  2.3108  0.9811 -1.6248
 6107TIP3    H218286   1.819   4.203   5.255  0.8032  1.0725 -0.7094
 6108TIP3   OH218287   1.849   0.616   4.829  0.4069 -0.3534  0.2830
 6108TIP3    H118288   1.809   0.643   4.746  1.5555  0.6687  0.0452
 6108TIP3    H218289   1.859   0.521   4.820  1.9674 -0.0800 -1.4275
 6109TIP3   OH218290   2.545   6.570   2.608  0.4732 -0.4537 -0.0097
 6109TIP3    H118291   2.636   6.597   2.622  0.6357 -0.7277 -0.5102
 6109TIP3    H218292   2.507   6.569   2.695  0.2201  2.2204 -0.0125
 6110TIP3   OH218293   3.580   4.015   3.167  0.0643  0.1807  0.3186
 6110TIP3    H118294   3.550   3.925   3.178  0.6834 -0.2865 -1.3999
 6110TIP3    H218295   3.609   4.042   3.254 -2.8352 -0.2109  1.5428
 6111TIP3   OH218296   2.288   2.603   3.138 -0.0410  0.4659 -0.4095
 6111TIP3    H118297   2.214   2.543   3.125  0.4303 -0.2457  0.1336
 6111TIP3    H218298   2.296   2.612   3.233  0.5048  0.6295 -0.4687
 6112TIP3   OH218299   2.361   5.211   4.476  0.2118 -0.5018 -0.3851
 6112TIP3    H118300   2.292   5.150   4.501  0.9774 -1.8552 -1.4913
 6112TIP3    H218301   2.330   5.251   4.395 -0.3215  0.6873  0.3730
 6113TIP3   OH218302   0.346   2.491   4.952 -0.2526 -0.0578 -0.7932
 6113TIP3    H118303   0.371   2.503   4.860 -0.6865  2.1163 -0.6788
 6113TIP3    H218304   0.250   2.492   4.951 -0.2595 -0.3510 -0.3603
 6114TIP3   OH218305   4.627   3.086   2.372 -0.6645  0.5671 -0.7602
 6114TIP3    H118306   4.709   3.058   2.330  0.8889 -0.1831  2.5028
 6114TIP3    H218307   4.651   3.162   2.424 -1.8334 -0.1696  0.9265
 6115TIP3   OH218308   2.411   3.504   5.854  0.4166 -0.4940 -0.0120
 6115TIP3    H118309   2.466   3.441   5.808  1.4460 -1.6842  2.5992
 6115TIP3    H218310   2.473   3.567   5.892 -0.5189  1.5526 -1.6719
 6116TIP3   OH218311   7.043   5.597   3.408 -0.2216  0.1291 -0.1480
 6116TIP3    H118312   7.092   5.625   3.331  0.5902  0.2216  0.3841
 6116TIP3    H218313   7.018   5.678   3.452 -2.2495  0.1589 -1.2156
 6117TIP3   OH218314   5.967   5.192   4.722  0.1389  0.3599 -0.1812
 6117TIP3    H118315   6.029   5.241   4.775  1.5875 -2.2328  0.7420
 6117TIP3    H218316   5.997   5.101   4.729 -3.8323 -1.1118  0.4745
 6118TIP3   OH218317   4.265   4.491   1.936 -0.1786  0.2945  0.5978
 6118TIP3    H118318   4.284   4.498   1.842  0.2434  1.6133  0.7614
 6118TIP3    H218319   4.171   4.513   1.942 -1.0768 -2.9337  0.1705
 6119TIP3   OH218320   5.764   5.029   1.260 -0.0028  0.1873 -0.7042
 6119TIP3    H118321   5.857   5.045   1.246  0.7262 -2.2662  0.7177
 6119TIP3    H218322   5.738   5.091   1.328  0.3134  1.5124 -1.7466
 6120TIP3   OH218323   4.795   5.557   1.000  0.4473  0.1735  0.1952
 6120TIP3    H118324   4.890   5.560   0.993  0.4396  0.8581  0.3195
 6120TIP3    H218325   4.763   5.613   0.930  0.1794  1.0291  0.9799
 6121TIP3   OH218326   5.378   0.830   1.920 -0.2848  0.0296  0.4508
 6121TIP3    H118327   5.342   0.804   2.005 -1.0316 -0.1293  0.1005
 6121TIP3    H218328   5.353   0.922   1.910 -1.7529 -0.4278 -0.3536
 6122TIP3   OH218329   0.191   2.622   2.705 -0.1396  0.2463 -0.2520
 6122TIP3    H118330   0.239   2.541   2.695 -0.6718 -0.2573  1.0798
 6122TIP3    H218331   0.256   2.686   2.734 -0.0065 -0.0681  0.1341
 6123TIP3   OH218332   3.641   6.108   2.869 -0.5681  0.4009  0.1756
 6123TIP3    H118333   3.548   6.087   2.880 -0.3808 -0.4024  0.3215
 6123TIP3    H218334   3.675   6.115   2.958 -0.5748  1.1199  0.1259
 6124TIP3   OH218335   6.543   3.006   4.861 -0.1952  0.2840  0.3834
 6124TIP3    H118336   6.601   2.947   4.909 -1.9213 -1.2637  0.6564
 6124TIP3    H218337   6.531   3.081   4.919 -0.1389 -0.3534  1.2418
 6125TIP3   OH218338   6.083   4.970   4.000 -0.0729  0.2148  0.1760
 6125TIP3    H118339   6.046   5.000   4.083 -1.0772 -1.1752  0.2654
 6125TIP3    H218340   6.159   4.917   4.025 -1.1301 -1.2873  0.3226
 6126TIP3   OH218341   2.804   5.797   0.061 -0.5568  0.0960 -0.3397
 6126TIP3    H118342   2.715   5.791   0.093 -0.7113  0.1735 -0.7454
 6126TIP3    H218343   2.807   5.738  -0.014  0.0547 -0.7933  0.3710
 6127TIP3   OH218344   2.492   1.398   4.549  0.6237  0.2324 -0.5858
 6127TIP3    H118345   2.487   1.324   4.609  2.0085  1.5923  1.3414
 6127TIP3    H218346   2.499   1.474   4.606  2.7842  1.5528 -2.4411
 6128TIP3   OH218347   6.589   2.805   4.537  0.3608 -0.4754 -0.1791
 6128TIP3    H118348   6.613   2.774   4.450  1.0636 -0.3082 -0.0581
 6128TIP3    H218349   6.543   2.732   4.578 -2.4460  0.3468 -1.6301
 6129TIP3   OH218350   6.361   1.277   3.672 -0.2257 -0.2327 -0.3024
 6129TIP3    H118351   6.308   1.276   3.752  0.0159  1.5921 -0.0852
 6129TIP3    H218352   6.380   1.184   3.656  0.2757 -0.6354  2.1166
 6130TIP3   OH218353   5.788   4.850   1.067  0.1396 -0.6383 -0.6941
 6130TIP3    H118354   5.768   4.911   1.139 -1.2108 -1.4321 -0.3594
 6130TIP3    H218355   5.881   4.831   1.077 -0.1686 -1.3904  1.4102
 6131TIP3   OH218356   0.460   4.688   2.049  0.2519 -0.3987  0.2139
 6131TIP3    H118357   0.434   4.654   2.134 -1.3351 -0.8475 -0.4099
 6131TIP3    H218358   0.547   4.725   2.063  0.8373 -2.1644  1.5755
 6132TIP3   OH218359   3.029   5.937   3.936 -0.3566 -0.4750 -0.0114
 6132TIP3    H118360   3.006   5.936   3.843 -1.3363 -0.3719  0.2214
 6132TIP3    H218361   3.125   5.938   3.937 -0.3421  0.2656 -1.0259
 6133TIP3   OH218362   1.164   2.714   5.697 -0.0576 -0.1784  0.3112
 6133TIP3    H118363   1.220   2.741   5.624 -1.7932  1.0474 -0.6290
 6133TIP3    H218364   1.160   2.619   5.690  2.4144 -0.4025  0.8428
 6134TIP3   OH218365   6.205   5.024   2.998  0.5782 -0.7579 -0.1950
 6134TIP3    H118366   6.120   4.986   2.972  0.9515 -2.0077  0.3165
 6134TIP3    H218367   6.182   5.087   3.067 -0.1829  0.9453 -1.8959
 6135TIP3   OH218368   1.712   4.012   3.936 -0.2295  0.3808  0.0422
 6135TIP3    H118369   1.633   4.050   3.973  0.3741  3.4881 -1.5684
 6135TIP3    H218370   1.685   3.977   3.851  0.0157  0.9594 -0.2766
 6136TIP3   OH218371   5.382   5.233   5.705  0.1955  0.2584  0.0263
 6136TIP3    H118372   5.413   5.155   5.659 -0.8730  0.5022 -1.1437
 6136TIP3    H218373   5.356   5.293   5.636  1.3543  1.8411  0.8931
 6137TIP3   OH218374   5.548   2.168   4.409  0.2023  0.2804 -0.2560
 6137TIP3    H118375   5.614   2.231   4.378  0.2985  0.9228  1.1644
 6137TIP3    H218376   5.470   2.222   4.425  0.3559  0.1010  1.2036
 6138TIP3   OH218377   2.488   5.685   4.137 -0.0462 -0.1300 -0.4043
 6138TIP3    H118378   2.461   5.615   4.078 -1.8990 -1.7740  2.1911
 6138TIP3    H218379   2.417   5.749   4.131 -0.4211 -0.4764  0.2955
 6139TIP3   OH218380   3.348   3.489   1.981 -0.5600 -0.1879  0.3510
 6139TIP3    H118381   3.440   3.465   1.974 -0.1247  1.5495 -0.6776
 6139TIP3    H218382   3.300   3.408   1.967  0.8005 -0.7720 -1.2671
 6140TIP3   OH218383   2.828   5.081   4.519  0.6625  0.0215 -0.0384
 6140TIP3    H118384   2.922   5.097   4.510  0.8253 -1.5556 -1.7269
 6140TIP3    H218385   2.788   5.167   4.506  1.8406  0.6266  0.1935
 6141TIP3   OH218386   4.836   4.727  -0.026  0.3596  0.5167 -0.1992
 6141TIP3    H118387   4.895   4.705   0.046  0.1147  1.1281  0.2016
 6141TIP3    H218388   4.767   4.780   0.014 -0.4454 -0.1414 -0.6702
 6142TIP3   OH218389   5.033   3.145   5.760  0.4257 -0.4491  0.7635
 6142TIP3    H118390   5.099   3.139   5.830  1.6831  0.0153 -0.3428
 6142TIP3    H218391   5.022   3.239   5.746  1.1041 -0.5478 -0.4997
 6143TIP3   OH218392   0.167   0.962   2.753  0.4495 -0.2235 -0.0917
 6143TIP3    H118393   0.179   1.053   2.778  1.2410 -0.0356 -1.0962
 6143TIP3    H218394   0.254   0.923   2.758  0.1817 -0.8326 -0.0244
 6144TIP3   OH218395   6.666   4.729   4.068 -0.5670 -0.4515 -0.7134
 6144TIP3    H118396   6.673   4.659   4.002 -0.0309 -0.3392 -0.7823
 6144TIP3    H218397   6.610   4.795   4.027 -1.8987 -1.2597 -0.2670
 6145TIP3   OH218398   4.190   5.882   4.952 -0.2067  0.8113 -0.2780
 6145TIP3    H118399   4.218   5.801   4.995 -0.2730  0.6706 -0.4947
 6145TIP3    H218400   4.100   5.865   4.926 -0.5743  1.3504  0.6231
 6146TIP3   OH218401   5.729   5.244   1.449  0.1888 -0.0236 -0.1935
 6146TIP3    H118402   5.821   5.228   1.468  0.4962  1.7765 -0.0236
 6146TIP3    H218403   5.706   5.319   1.504 -0.8947  0.6840 -1.5505
 6147TIP3   OH218404   4.580   4.613   2.057 -0.0862  0.0492 -0.2604
 6147TIP3    H118405   4.641   4.682   2.081 -0.8616  1.6482 -2.5519
 6147TIP3    H218406   4.593   4.600   1.963 -1.7809 -1.0667 -0.3913
 6148TIP3   OH218407   0.533   3.594   3.456 -0.6940 -0.5666 -0.6034
 6148TIP3    H118408   0.536   3.501   3.435  2.3407 -0.2592 -2.1210
 6148TIP3    H218409   0.492   3.634   3.379 -1.1202 -0.5478 -0.3689
 6149TIP3   OH218410   3.538   3.550   0.256  0.4079  1.1603  0.0514
 6149TIP3    H118411   3.606   3.483   0.264 -0.8857  0.0149  4.2091
 6149TIP3    H218412   3.579   3.630   0.289  0.7095  1.3745 -0.8195
 6150TIP3   OH218413   3.861   1.042   4.315  0.1050 -0.2090 -0.1104
 6150TIP3    H118414   3.951   1.044   4.349  0.2317  0.6230 -0.4774
 6150TIP3    H218415   3.815   1.108   4.365  0.6724  2.1706 -2.5122
 6151TIP3   OH218416   4.536   5.862   4.374  0.2967 -0.2430  0.8468
 6151TIP3    H118417   4.465   5.892   4.317  0.4095 -0.2740  0.6880
 6151TIP3    H218418   4.610   5.917   4.350  0.6333 -0.9364  0.2382
 6152TIP3   OH218419   6.426   5.431   2.034  0.2356  0.5494 -0.0465
 6152TIP3    H118420   6.452   5.457   2.123  1.8070 -1.7673  0.2597
 6152TIP3    H218421   6.368   5.356   2.047 -0.1322  0.6612 -0.9833
 6153TIP3   OH218422   0.311   2.116   3.796  0.2238  0.0364 -0.1515
 6153TIP3    H118423   0.394   2.115   3.749  0.0083 -0.3032 -0.5327
 6153TIP3    H218424   0.313   2.197   3.847  0.8426 -0.0358 -0.0555
 6154TIP3   OH218425   1.158   1.997   1.650  0.2833  0.3641 -0.2652
 6154TIP3    H118426   1.093   1.986   1.580  0.7831 -0.7186 -0.5699
 6154TIP3    H218427   1.124   1.946   1.723 -0.1860  1.4142  0.2739
 6155TIP3   OH218428   6.910   1.275   0.783  0.3416  0.5711 -0.0335
 6155TIP3    H118429   6.910   1.188   0.745  1.1519  0.3692  0.4041
 6155TIP3    H218430   6.824   1.311   0.761  0.3540  0.0246 -1.0181
 6156TIP3   OH218431   2.511   4.367   2.238  0.0952  0.1640  0.6787
 6156TIP3    H118432   2.452   4.350   2.313  0.8968 -2.1116  0.8759
 6156TIP3    H218433   2.473   4.317   2.166  2.4907 -2.7064  1.2116
 6157TIP3   OH218434   6.156   3.904   3.001 -0.1471 -0.3712 -0.5572
 6157TIP3    H118435   6.199   3.915   3.086  0.7170 -1.0205 -0.8954
 6157TIP3    H218436   6.079   3.960   3.006 -0.0798 -0.3521  0.6369
 6158TIP3   OH218437   6.954   0.482   5.484  0.1532  0.1691  0.3519
 6158TIP3    H118438   6.868   0.476   5.442  0.6288 -2.2738 -0.4072
 6158TIP3    H218439   7.013   0.437   5.424  1.3167 -1.3089  2.4883
 6159TIP3   OH218440   1.392   6.425   4.434  0.5903 -0.4954 -0.1365
 6159TIP3    H118441   1.377   6.357   4.500  0.6416 -0.1241  0.2627
 6159TIP3    H218442   1.419   6.501   4.484 -0.0559 -0.0002 -0.5318
 6160TIP3   OH218443   0.441   4.346   2.996  0.1190 -0.1173  0.7994
 6160TIP3    H118444   0.388   4.418   3.030 -0.2166  0.2859 -0.4839
 6160TIP3    H218445   0.401   4.326   2.911  1.6477 -0.2335  0.0771
 6161TIP3   OH218446   2.041   5.879   2.394  0.3510 -0.4022 -0.7960
 6161TIP3    H118447   2.004   5.792   2.380 -1.6186  0.6544 -2.7783
 6161TIP3    H218448   2.039   5.891   2.489  0.4820 -2.4011 -0.4989
 6162TIP3   OH218449   1.791   6.021   3.807  0.3410  0.1906  0.2290
 6162TIP3    H118450   1.742   6.103   3.807  0.2544  0.1783 -1.2830
 6162TIP3    H218451   1.880   6.046   3.830  0.4564  0.8273 -0.8350
 6163TIP3   OH218452   0.132   6.059   1.557  0.1055  0.7223  0.0763
 6163TIP3    H118453   0.190   6.009   1.500 -0.5424 -0.3802  0.3436
 6163TIP3    H218454   0.044   6.043   1.522 -0.1418  1.4560  0.3376
 6164TIP3   OH218455   3.150   0.239   5.903  0.0353 -0.0361 -0.4983
 6164TIP3    H118456   3.084   0.279   5.847 -0.7206 -1.1217 -0.4115
 6164TIP3    H218457   3.210   0.194   5.843  0.9628  1.2938 -0.6042
 6165TIP3   OH218458   6.117   0.741   3.553 -0.6181  0.0121  0.1553
 6165TIP3    H118459   6.174   0.804   3.596  1.3143 -0.9909 -0.8377
 6165TIP3    H218460   6.111   0.668   3.614 -1.1107  0.2328  0.3808
 6166TIP3   OH218461   3.355   3.680   0.975  0.2879 -0.5627 -0.0601
 6166TIP3    H118462   3.424   3.721   0.922 -0.1289 -0.9857 -0.9450
 6166TIP3    H218463   3.402   3.617   1.030  0.6131 -0.8564 -0.6657
 6167TIP3   OH218464   5.073   4.612   2.031  0.0456 -0.3598  0.8778
 6167TIP3    H118465   5.099   4.532   1.986  1.7229  0.0546  1.0377
 6167TIP3    H218466   5.082   4.681   1.965  0.6890 -0.0166  1.3147
 6168TIP3   OH218467   0.620   1.769   2.880  0.2464 -0.6790 -0.1114
 6168TIP3    H118468   0.643   1.854   2.843 -1.9975 -0.1578 -0.4602
 6168TIP3    H218469   0.697   1.742   2.930  1.0421  1.5154 -0.0843
 6169TIP3   OH218470   2.230   2.478   5.227  0.5523  0.1990 -0.2307
 6169TIP3    H118471   2.278   2.407   5.186  1.1800  1.0176 -0.9471
 6169TIP3    H218472   2.294   2.549   5.235  0.0511  0.5601  0.8306
 6170TIP3   OH218473   7.186   5.289   1.101 -0.9342  0.3116 -0.5170
 6170TIP3    H118474   7.207   5.347   1.028 -1.5775  1.4823  0.2124
 6170TIP3    H218475   7.093   5.305   1.118 -0.8552 -0.1585  0.3867
 6171TIP3   OH218476   5.632   1.600   1.114  0.1344 -0.1213  0.2024
 6171TIP3    H118477   5.670   1.661   1.050  1.1009 -0.3957  0.5032
 6171TIP3    H218478   5.620   1.519   1.065  0.5151 -0.2180  0.2704
 6172TIP3   OH218479   3.716   6.204   5.508  0.2367  0.1107  0.4336
 6172TIP3    H118480   3.647   6.165   5.562 -1.8377  0.0140 -2.0611
 6172TIP3    H218481   3.735   6.287   5.550 -1.3650  0.0970  1.2689
 6173TIP3   OH218482   2.228   4.669   2.257  0.2857  0.3578  0.6776
 6173TIP3    H118483   2.309   4.687   2.211 -0.2965  0.1585 -0.4571
 6173TIP3    H218484   2.255   4.618   2.334  1.2054  0.0922  0.1904
 6174TIP3   OH218485   6.152   4.753   1.959  0.1646  0.4469 -0.2716
 6174TIP3    H118486   6.173   4.666   1.925  0.4283  0.3244  0.2053
 6174TIP3    H218487   6.216   4.811   1.919  0.7141  0.2451  0.2967
 6175TIP3   OH218488   1.434   0.895   0.334  0.6216 -0.1501  0.1659
 6175TIP3    H118489   1.472   0.848   0.409 -1.1395 -0.1464  1.1215
 6175TIP3    H218490   1.445   0.987   0.357 -1.9066 -0.1055  1.6122
 6176TIP3   OH218491   5.769   4.267   1.187 -0.1702  0.3119  0.4341
 6176TIP3    H118492   5.738   4.239   1.273  0.1532  0.4018  0.5800
 6176TIP3    H218493   5.703   4.234   1.126 -0.4981  0.4057  0.7320
 6177TIP3   OH218494   3.457   4.931   4.987 -0.2873  0.5052 -0.0897
 6177TIP3    H118495   3.481   4.852   5.035  1.4276  0.9154 -0.2168
 6177TIP3    H218496   3.489   5.003   5.042  0.4123  1.0213 -1.1392
 6178TIP3   OH218497   3.708   3.865   5.725 -0.0186  0.2033 -0.4288
 6178TIP3    H118498   3.786   3.873   5.781 -0.6795 -2.1880  0.9978
 6178TIP3    H218499   3.724   3.786   5.673 -0.6242  0.8606 -1.6495
 6179TIP3   OH218500   2.421   3.077   1.317 -0.2201 -0.7526 -0.0405
 6179TIP3    H118501   2.433   3.071   1.222 -1.5395 -0.7639 -0.2230
 6179TIP3    H218502   2.455   2.994   1.351  2.9926  0.3588 -0.1438
 6180TIP3   OH218503   6.624   6.372   2.006  0.0296 -0.0080 -0.0680
 6180TIP3    H118504   6.551   6.405   2.059  0.4274  0.9783 -0.1159
 6180TIP3    H218505   6.581   6.325   1.934 -0.5307 -0.4797  0.5584
 6181TIP3   OH218506   1.184   4.065   2.629  0.2103  0.8057 -0.1251
 6181TIP3    H118507   1.189   4.152   2.589  1.0696 -0.0292 -1.9741
 6181TIP3    H218508   1.267   4.055   2.675  0.0248  1.0287  0.2641
 6182TIP3   OH218509   0.962   0.178   3.047  0.3882 -0.1961 -0.3617
 6182TIP3    H118510   1.023   0.212   3.113 -1.9944  3.2807  0.3491
 6182TIP3    H218511   0.911   0.112   3.094  0.0584  0.8034  0.7350
 6183TIP3   OH218512   5.475   0.701   4.238  0.1177 -0.1845  0.4729
 6183TIP3    H118513   5.452   0.730   4.150 -1.3843  0.6136  1.0967
 6183TIP3    H218514   5.568   0.720   4.246 -0.0051  0.9538 -0.4883
 6184TIP3   OH218515   2.516   4.949   1.243 -0.4013  0.0454 -0.2468
 6184TIP3    H118516   2.453   4.927   1.175 -1.4265 -2.1795  1.3069
 6184TIP3    H218517   2.583   4.881   1.236  0.7360  1.1496 -0.4850
 6185TIP3   OH218518   0.840   1.732   2.264  0.0329  0.2027  0.6350
 6185TIP3    H118519   0.800   1.646   2.276  2.7017 -1.2852 -0.2019
 6185TIP3    H218520   0.858   1.738   2.171 -1.5463  2.4610  0.3876
 6186TIP3   OH218521   3.306   6.109   1.988 -0.1073 -0.3845  0.3450
 6186TIP3    H118522   3.353   6.099   1.906  1.0255  2.1423  0.5777
 6186TIP3    H218523   3.370   6.087   2.056 -0.7677 -1.6142  0.5829
 6187TIP3   OH218524   5.397   1.265   1.323 -0.7556  0.3489  0.6554
 6187TIP3    H118525   5.386   1.173   1.349 -0.3251 -0.2900 -1.2677
 6187TIP3    H218526   5.489   1.271   1.297 -1.0604  1.0250 -0.3113
 6188TIP3   OH218527   2.843   2.960   4.898 -0.4939  0.0860  0.3140
 6188TIP3    H118528   2.761   2.950   4.947 -0.8814 -0.7989 -0.4862
 6188TIP3    H218529   2.891   3.028   4.945 -1.2125 -0.1573  1.4350
 6189TIP3   OH218530   5.168   5.741   0.020  0.5222 -0.3936  0.2706
 6189TIP3    H118531   5.166   5.684   0.097 -0.0570 -1.5530 -0.5902
 6189TIP3    H218532   5.076   5.754  -0.003  0.7130 -0.5360 -0.5847
 6190TIP3   OH218533   5.509   2.391   4.996 -0.3528 -0.0182  0.3042
 6190TIP3    H118534   5.455   2.419   5.070 -1.4495  0.0672 -0.5153
 6190TIP3    H218535   5.488   2.299   4.985 -0.0680 -0.0698  0.1963
 6191TIP3   OH218536   0.622   3.567   1.078 -0.0798 -0.2499  0.1427
 6191TIP3    H118537   0.616   3.531   0.990 -0.5060  1.9952 -0.8370
 6191TIP3    H218538   0.553   3.524   1.127 -0.0596 -1.2924 -0.7106
 6192TIP3   OH218539   6.654   2.963   2.332 -0.1865 -0.4101 -0.0434
 6192TIP3    H118540   6.689   2.923   2.252 -1.8254 -2.2607  0.0933
 6192TIP3    H218541   6.730   3.002   2.374  0.9584 -0.5857 -1.8180
 6193TIP3   OH218542   1.666   1.684   4.285  0.2784 -0.3637 -0.0691
 6193TIP3    H118543   1.752   1.664   4.323 -0.2784  0.0188  1.4792
 6193TIP3    H218544   1.650   1.775   4.309 -2.1058 -1.4043  3.0077
 6194TIP3   OH218545   5.099   4.753   2.764  0.4942  0.3208  0.2956
 6194TIP3    H118546   5.116   4.734   2.672 -1.9498  0.5335 -0.2599
 6194TIP3    H218547   5.070   4.844   2.765  2.4720  1.0093  1.6047
 6195TIP3   OH218548   6.100   5.093   3.341  0.1805 -0.0763  0.3697
 6195TIP3    H118549   6.050   5.134   3.411  0.5458 -0.7804  1.0699
 6195TIP3    H218550   6.125   5.165   3.283 -1.8993  0.2558 -0.2029
 6196TIP3   OH218551   0.431   5.353   3.297 -0.0062  0.1706  0.2627
 6196TIP3    H118552   0.526   5.357   3.291 -0.0189 -0.5664 -0.6732
 6196TIP3    H218553   0.407   5.427   3.353  1.0364  1.0171 -0.3652
 6197TIP3   OH218554   5.125   0.683   0.901 -0.3409  0.4723  0.1824
 6197TIP3    H118555   5.199   0.669   0.960  0.5282  1.5592 -0.6066
 6197TIP3    H218556   5.049   0.649   0.948  0.7215 -1.1541  0.8091
 6198TIP3   OH218557   2.670   3.635   1.732  0.7006  1.1184  0.4322
 6198TIP3    H118558   2.596   3.630   1.793 -1.9755 -0.6373 -2.6931
 6198TIP3    H218559   2.743   3.596   1.780 -1.2234 -0.1212  2.5551
 6199TIP3   OH218560   0.327   1.794   4.396 -0.1701  0.0018 -0.1948
 6199TIP3    H118561   0.337   1.700   4.414 -0.6611  0.2172  1.3948
 6199TIP3    H218562   0.331   1.835   4.483  0.4745  1.5056 -0.8995
 6200TIP3   OH218563   1.530   1.166   5.179 -0.4239  0.2596 -0.0982
 6200TIP3    H118564   1.616   1.153   5.219 -0.0076  0.0273 -1.0478
 6200TIP3    H218565   1.496   1.245   5.222  0.5499  0.7414 -0.1833
 6201TIP3   OH218566   1.187   6.744   4.576 -0.6354  0.4442  0.4134
 6201TIP3    H118567   1.169   6.723   4.668  0.6783 -2.2545  0.1711
 6201TIP3    H218568   1.111   6.710   4.529 -0.7149  0.6318  0.4080
 6202TIP3   OH218569   6.133   1.934   2.324  0.3179 -0.2590  0.1450
 6202TIP3    H118570   6.141   1.895   2.237 -0.6175  0.6153 -0.3480
 6202TIP3    H218571   6.156   1.863   2.384  0.8748 -0.9017 -0.8020
 6203TIP3   OH218572   0.270   0.780   0.135  0.1142  0.0386  0.3265
 6203TIP3    H118573   0.197   0.810   0.190 -1.0799 -2.1019  0.0374
 6203TIP3    H218574   0.272   0.685   0.148  1.6048 -0.1843 -1.1925
 6204TIP3   OH218575   5.564   2.651   0.652  0.3115  0.4917 -0.1316
 6204TIP3    H118576   5.638   2.688   0.700  2.0894 -1.8903 -0.8670
 6204TIP3    H218577   5.563   2.700   0.570 -0.0381  1.6723  0.5494
 6205TIP3   OH218578   6.507   3.356   3.604  0.4591  0.0279 -0.2522
 6205TIP3    H118579   6.426   3.407   3.608 -0.1473 -0.9467  0.2893
 6205TIP3    H218580   6.486   3.273   3.648  2.1891  0.3626  1.3767
 6206TIP3   OH218581   0.987   3.209   2.458 -1.3518  0.2057  0.0018
 6206TIP3    H118582   1.009   3.247   2.373 -1.9698  0.1796 -0.1714
 6206TIP3    H218583   0.924   3.270   2.496  0.5342  1.3830  1.3954
 6207TIP3   OH218584   5.803   3.096   0.912  0.3490  0.1492 -0.2738
 6207TIP3    H118585   5.841   3.093   0.824 -3.3836 -0.2489 -2.0606
 6207TIP3    H218586   5.764   3.183   0.918 -1.0277 -0.4681  0.1639
 6208TIP3   OH218587   6.349   4.307   3.115 -0.7076 -0.2587  0.3584
 6208TIP3    H118588   6.335   4.260   3.198  1.8699 -0.1473  0.9529
 6208TIP3    H218589   6.415   4.254   3.069 -1.4656  0.1482 -1.2616
 6209TIP3   OH218590   3.660   0.091   1.144 -0.4621 -0.1113 -0.1242
 6209TIP3    H118591   3.613   0.021   1.189 -2.0264  0.2877 -1.0717
 6209TIP3    H218592   3.743   0.051   1.118 -0.6061 -1.0902  0.8603
 6210TIP3   OH218593   0.960   2.201   4.946 -0.5764 -0.3977  0.2546
 6210TIP3    H118594   0.983   2.177   4.856  0.4389  0.8456  0.1461
 6210TIP3    H218595   0.886   2.144   4.968 -0.3016 -1.3154 -1.0588
 6211TIP3   OH218596   4.411   5.803   1.186 -0.1406 -0.2981 -0.0017
 6211TIP3    H118597   4.489   5.858   1.181 -1.1147  1.0192 -2.5797
 6211TIP3    H218598   4.420   5.741   1.113 -1.7122  0.2511 -0.7075
 6212TIP3   OH218599   5.889   1.193   0.056 -0.3595 -0.4486 -0.1323
 6212TIP3    H118600   5.961   1.194   0.119 -0.8266  1.3622  0.4627
 6212TIP3    H218601   5.930   1.180  -0.029  0.6514  0.2354  0.2343
 6213TIP3   OH218602   2.782   1.927   0.004  0.6133 -0.1148 -0.0667
 6213TIP3    H118603   2.854   1.981   0.036 -0.3015 -0.1330  2.1576
 6213TIP3    H218604   2.825   1.850  -0.033  1.7846  0.6116 -0.2632
 6214TIP3   OH218605   2.597   3.882   2.666 -0.2531 -0.3325  0.1124
 6214TIP3    H118606   2.665   3.864   2.601  0.5818 -0.7089  1.0481
 6214TIP3    H218607   2.530   3.931   2.619  0.4260 -0.4106 -0.9658
 6215TIP3   OH218608   3.542   6.462   4.351  0.0382 -0.0710  0.3900
 6215TIP3    H118609   3.593   6.457   4.432  0.5059 -3.2209  0.0400
 6215TIP3    H218610   3.541   6.555   4.329  1.8716  0.6190  2.7590
 6216TIP3   OH218611   4.871   4.849   5.252  0.3688  0.4848  0.5240
 6216TIP3    H118612   4.843   4.892   5.332  0.1449  0.2147  0.5931
 6216TIP3    H218613   4.965   4.839   5.261  0.2306 -0.3140  1.1334
 6217TIP3   OH218614   0.649   5.658   3.949  0.0469  0.1192 -0.9801
 6217TIP3    H118615   0.587   5.728   3.970 -2.1106 -1.8399 -0.3938
 6217TIP3    H218616   0.604   5.605   3.882  0.6466 -1.9074  0.1313
 6218TIP3   OH218617   0.252   0.836   4.178 -0.0436  0.6525  0.2277
 6218TIP3    H118618   0.169   0.857   4.135  0.2417  0.3115 -0.5135
 6218TIP3    H218619   0.261   0.741   4.169  0.5565  0.7213  0.0491
 6219TIP3   OH218620   3.739   3.838   3.936 -0.4232 -0.1356  0.5242
 6219TIP3    H118621   3.751   3.746   3.959  0.4756  0.0941  0.9853
 6219TIP3    H218622   3.644   3.849   3.933 -0.5451 -1.2224 -0.1311
 6220TIP3   OH218623   5.183   5.702   2.033 -0.9591 -0.7572  0.2309
 6220TIP3    H118624   5.245   5.764   1.995 -0.3913 -2.0079 -0.9687
 6220TIP3    H218625   5.114   5.757   2.071 -0.9396  0.6097 -1.5770
 6221TIP3   OH218626   3.752   3.989   0.694  0.5416 -0.4108 -0.0077
 6221TIP3    H118627   3.718   4.046   0.763  0.0956 -0.9869  0.2648
 6221TIP3    H218628   3.845   3.978   0.716  0.9485  1.1939 -0.7714
 6222TIP3   OH218629   4.473   6.378   0.533 -0.5479  0.0888 -0.3787
 6222TIP3    H118630   4.385   6.406   0.557 -0.5504 -0.0808 -0.1801
 6222TIP3    H218631   4.531   6.447   0.565 -0.5654 -0.0557 -0.0307
 6223TIP3   OH218632   2.063   4.114   3.639 -0.1917  0.6693  0.3379
 6223TIP3    H118633   2.015   4.094   3.719 -0.2233 -0.2172  0.1040
 6223TIP3    H218634   2.017   4.190   3.602 -0.8401  0.4057  0.5951
 6224TIP3   OH218635   4.043   0.091   2.450  0.1485 -0.2690  0.3085
 6224TIP3    H118636   4.075   0.176   2.479 -0.3680  0.0731 -0.1104
 6224TIP3    H218637   4.011   0.106   2.361 -0.0792 -0.8699  0.2805
 6225TIP3   OH218638   0.688   0.903   4.408 -0.0591  0.4902  0.0078
 6225TIP3    H118639   0.619   0.950   4.361 -0.5260 -2.2230 -2.2955
 6225TIP3    H218640   0.763   0.906   4.350 -0.2664 -1.9108 -0.4935
 6226TIP3   OH218641   6.438   2.338   0.640  0.0835  0.2413 -0.1887
 6226TIP3    H118642   6.373   2.392   0.685  0.8853 -0.3514  1.8058
 6226TIP3    H218643   6.480   2.398   0.578 -0.3960  1.3993  0.5567
 6227TIP3   OH218644   6.441   1.891   4.273 -0.0777  0.5751  0.4369
 6227TIP3    H118645   6.406   1.896   4.362  1.3891  1.5678  0.9899
 6227TIP3    H218646   6.379   1.942   4.220 -0.9474 -0.0062  0.8668
 6228TIP3   OH218647   0.188   4.557   4.667 -0.0327  0.2925 -0.8889
 6228TIP3    H118648   0.279   4.537   4.692 -0.7207 -1.0260  0.7797
 6228TIP3    H218649   0.141   4.475   4.681 -1.6994  1.2540 -0.6345
 6229TIP3   OH218650   7.169   5.267   4.309 -0.0961  0.0304 -0.1793
 6229TIP3    H118651   7.195   5.358   4.322 -0.0492 -0.3237  2.8470
 6229TIP3    H218652   7.236   5.230   4.251  1.2591  1.3149  0.5160
 6230TIP3   OH218653   6.722   2.947   3.548  0.2763  0.2454  0.6508
 6230TIP3    H118654   6.759   3.028   3.582 -0.4054  0.7497  0.2257
 6230TIP3    H218655   6.750   2.945   3.456  0.9747 -0.4198  0.8693
 6231TIP3   OH218656   1.738   2.021   0.733 -0.0735 -0.1397 -0.0407
 6231TIP3    H118657   1.654   2.056   0.703  0.6649  0.5169 -1.4062
 6231TIP3    H218658   1.794   2.021   0.655  0.3455 -3.2858  0.1191
 6232TIP3   OH218659   6.995   0.055   1.691  0.4630 -0.0427 -0.1143
 6232TIP3    H118660   6.979   0.063   1.597 -0.0407 -0.6062 -0.0821
 6232TIP3    H218661   7.088   0.032   1.697  1.2110  2.5822 -0.3306
 6233TIP3   OH218662   6.360   6.725   1.340 -0.1251 -0.0530 -0.3670
 6233TIP3    H118663   6.270   6.724   1.372 -0.2062  0.8223 -0.5554
 6233TIP3    H218664   6.361   6.793   1.272  1.1742  1.5676  1.1690
 6234TIP3   OH218665   3.629   1.644   4.766  0.4925  0.1953  0.2358
 6234TIP3    H118666   3.557   1.679   4.818  0.2312 -0.5732  0.3935
 6234TIP3    H218667   3.708   1.678   4.808  0.2672 -0.0351  0.8484
 6235TIP3   OH218668   5.313   6.329   4.538  0.1126  0.0949  0.4283
 6235TIP3    H118669   5.407   6.343   4.546  0.2631  0.6042 -1.6810
 6235TIP3    H218670   5.300   6.237   4.561  1.3763 -0.4337 -0.8351
 6236TIP3   OH218671   2.633   0.574   4.406 -0.1349 -0.2142  0.1508
 6236TIP3    H118672   2.648   0.632   4.331  1.8834 -0.8506 -0.0085
 6236TIP3    H218673   2.697   0.604   4.471  1.8186 -2.9049 -0.3637
 6237TIP3   OH218674   6.733   6.711   5.201 -0.5210 -0.0077  0.3982
 6237TIP3    H118675   6.743   6.774   5.271 -1.5376  0.6116  0.0066
 6237TIP3    H218676   6.821   6.698   5.167 -0.3560  1.5580  0.1847
 6238TIP3   OH218677   3.541   1.759   5.378 -0.3387  0.6697  0.4712
 6238TIP3    H118678   3.568   1.674   5.345 -0.1714  0.7368  0.4326
 6238TIP3    H218679   3.448   1.749   5.398 -0.6861  0.8965 -0.9163
 6239TIP3   OH218680   4.664   5.215   4.853 -0.1449 -0.0410  0.0920
 6239TIP3    H118681   4.759   5.206   4.857 -0.0368  0.5969 -0.6814
 6239TIP3    H218682   4.649   5.284   4.788 -1.2186 -1.9762 -1.8708
 6240TIP3   OH218683   1.653   2.550   2.857 -0.4189 -0.2580  0.1129
 6240TIP3    H118684   1.653   2.625   2.917  0.5394 -0.5888  0.5554
 6240TIP3    H218685   1.624   2.476   2.911  1.4336 -0.7635  0.4987
 6241TIP3   OH218686   6.856   4.899   2.461  0.4078  0.2922  0.2175
 6241TIP3    H118687   6.803   4.964   2.415  1.2689  0.8436 -0.0101
 6241TIP3    H218688   6.924   4.875   2.399  2.1515  1.7327  1.4691
 6242TIP3   OH218689   5.790   1.183   4.735  0.0692  0.5056 -0.6159
 6242TIP3    H118690   5.729   1.251   4.763  0.1171 -0.2027  1.3681
 6242TIP3    H218691   5.870   1.202   4.785  0.2169 -0.7508 -0.3557
 6243TIP3   OH218692   1.592   0.384   1.568 -0.0902 -0.4665 -0.5936
 6243TIP3    H118693   1.572   0.461   1.621 -2.0159 -0.9577 -0.5316
 6243TIP3    H218694   1.686   0.389   1.553  0.1324  0.8902  0.9661
 6244TIP3   OH218695   1.104   4.380   0.581  0.1856 -0.0468  0.8027
 6244TIP3    H118696   1.092   4.432   0.661 -0.0185  0.0002  0.7422
 6244TIP3    H218697   1.145   4.442   0.519 -1.2051  0.4261  0.3176
 6245TIP3   OH218698   0.171   4.007   1.402  0.2557 -0.0024 -0.2502
 6245TIP3    H118699   0.240   4.057   1.444  0.0624 -0.0696  0.1553
 6245TIP3    H218700   0.146   3.941   1.467 -0.3371  0.1585 -0.3108
 6246TIP3   OH218701   4.714   1.535   3.623  0.5487  0.0743  0.0932
 6246TIP3    H118702   4.699   1.528   3.718 -0.2225 -0.2838 -0.0465
 6246TIP3    H218703   4.676   1.619   3.599 -1.7675 -1.0196 -0.3326
 6247TIP3   OH218704   6.162   0.486   3.815 -0.0996 -0.1433 -0.0177
 6247TIP3    H118705   6.114   0.470   3.734 -0.4263 -2.1748  0.5272
 6247TIP3    H218706   6.148   0.579   3.833 -2.8515 -0.3813 -0.5242
 6248TIP3   OH218707   1.547   6.159   1.202  0.2260 -0.1203  0.7490
 6248TIP3    H118708   1.544   6.101   1.126 -1.4457  0.0861  0.6040
 6248TIP3    H218709   1.631   6.204   1.195  1.2520 -1.9846  0.4861
 6249TIP3   OH218710   6.294   3.774   5.415  0.5442 -0.0604 -0.3504
 6249TIP3    H118711   6.210   3.751   5.453  0.6956 -0.0536 -0.0070
 6249TIP3    H218712   6.291   3.740   5.325  0.4766 -0.7533 -0.0866
 6250TIP3   OH218713   1.265   1.622   0.525 -0.3325  0.2414 -0.0626
 6250TIP3    H118714   1.338   1.636   0.465  0.3142  1.4869  0.9612
 6250TIP3    H218715   1.190   1.664   0.483 -0.3254 -0.5243 -0.8460
 6251TIP3   OH218716   7.125   0.118   1.178  0.1158  0.0752  0.1230
 6251TIP3    H118717   7.112   0.143   1.087  0.1699  0.6875  0.2787
 6251TIP3    H218718   7.159   0.196   1.220 -0.2901 -0.0777  0.7572
 6252TIP3   OH218719   1.732   4.627   3.998 -0.4696  0.2004  0.3589
 6252TIP3    H118720   1.825   4.615   4.018 -0.2154  1.4154 -0.0117
 6252TIP3    H218721   1.700   4.539   3.981  0.5748 -0.2576  0.6743
 6253TIP3   OH218722   4.118   4.322   0.421  0.0803  0.0265  0.1910
 6253TIP3    H118723   4.199   4.356   0.461  0.4840 -0.9690  0.2611
 6253TIP3    H218724   4.060   4.398   0.417  0.7238  0.5835  0.8997
 6254TIP3   OH218725   4.043   4.555   4.992 -0.3721 -0.0374  0.2204
 6254TIP3    H118726   4.137   4.553   4.972  0.1881  0.9001  2.4771
 6254TIP3    H218727   4.022   4.465   5.017  0.2028  0.0048  0.8615
 6255TIP3   OH218728   2.531   0.507   2.842 -0.1682 -0.0633 -0.0155
 6255TIP3    H118729   2.595   0.572   2.872  0.6602 -0.5453 -0.6862
 6255TIP3    H218730   2.446   0.545   2.864  0.2963  1.2369 -0.3605
 6256TIP3   OH218731   2.196   1.099   2.237  0.2408  0.0841 -0.3207
 6256TIP3    H118732   2.222   1.086   2.328 -0.7131 -1.8122 -0.2794
 6256TIP3    H218733   2.243   1.032   2.188 -0.3150  0.1922 -1.0291
 6257TIP3   OH218734   2.654   3.762   5.659 -0.2673  0.1205 -0.5284
 6257TIP3    H118735   2.673   3.855   5.673 -0.5021 -0.0149  0.8867
 6257TIP3    H218736   2.689   3.743   5.572 -0.4375  1.5873 -0.9508
 6258TIP3   OH218737   3.537   0.827   3.665  0.1937 -0.5599 -0.2788
 6258TIP3    H118738   3.486   0.860   3.739  0.5931 -3.1703  1.2630
 6258TIP3    H218739   3.474   0.820   3.593 -0.6268  0.2051  0.3404
 6259TIP3   OH218740   2.619   2.155   3.986  0.1532 -0.6314  0.4087
 6259TIP3    H118741   2.711   2.147   4.010  0.2372  0.7934  0.6220
 6259TIP3    H218742   2.616   2.131   3.893  1.0082  0.8407 -0.0240
 6260TIP3   OH218743   1.800   1.460   0.739 -0.5956  0.4300 -0.1577
 6260TIP3    H118744   1.841   1.376   0.719 -0.5199  0.2053  0.8906
 6260TIP3    H218745   1.792   1.461   0.834  1.7604  2.6857  0.1415
 6261TIP3   OH218746   6.330   0.970   4.495  0.2271  0.2946 -0.5307
 6261TIP3    H118747   6.274   0.977   4.571  0.6832  1.5510 -0.2702
 6261TIP3    H218748   6.336   1.060   4.462  0.5528 -0.1229 -1.6684
 6262TIP3   OH218749   3.179   5.130   5.246  0.1580 -0.2808 -0.7526
 6262TIP3    H118750   3.123   5.207   5.253  2.0808  1.0673  0.7351
 6262TIP3    H218751   3.119   5.059   5.222 -1.6866  1.6140 -2.0795
 6263TIP3   OH218752   2.617   2.654   1.732 -0.2766 -0.1478  0.3033
 6263TIP3    H118753   2.527   2.668   1.704 -0.5285  1.6030  1.8030
 6263TIP3    H218754   2.670   2.708   1.675 -0.2771 -0.3975  0.0657
 6264TIP3   OH218755   5.078   2.150   0.419  0.1512  0.0008  0.1378
 6264TIP3    H118756   4.999   2.099   0.400  1.9893 -3.0486  0.0545
 6264TIP3    H218757   5.117   2.165   0.333  1.9949 -2.7036  0.3971
 6265TIP3   OH218758   5.612   3.335   0.994  0.0453  0.1519  0.7787
 6265TIP3    H118759   5.555   3.319   0.920  0.7258  0.3573  0.1968
 6265TIP3    H218760   5.688   3.379   0.957  1.7464 -2.3025  1.0870
 6266TIP3   OH218761   0.203   6.706   0.673 -0.0071  0.3223 -0.0777
 6266TIP3    H118762   0.191   6.656   0.592 -0.2024  1.5759 -0.8453
 6266TIP3    H218763   0.122   6.691   0.722 -0.2887  0.3134 -0.5387
 6267TIP3   OH218764   5.748   0.953   0.622 -0.1560 -0.6162 -0.0435
 6267TIP3    H118765   5.681   0.924   0.685 -0.9488 -0.0284 -0.5852
 6267TIP3    H218766   5.817   0.888   0.628 -0.5668 -0.9831  0.8823
 6268TIP3   OH218767   1.661   3.759   4.664 -0.0809 -0.0479  0.1738
 6268TIP3    H118768   1.645   3.666   4.681 -0.5509  0.0748  0.4065
 6268TIP3    H218769   1.752   3.772   4.689 -0.0622 -0.4072  0.3014
 6269TIP3   OH218770   1.462   3.012   0.562  0.0287 -1.1256  0.0367
 6269TIP3    H118771   1.449   3.062   0.482  0.0470 -1.2033 -0.0139
 6269TIP3    H218772   1.551   3.034   0.590 -0.4283 -0.0587  0.7484
 6270TIP3   OH218773   6.006   2.934   2.670  0.3152 -0.3107  0.4641
 6270TIP3    H118774   6.084   2.989   2.674  0.0644  0.0097  1.0795
 6270TIP3    H218775   6.014   2.876   2.745  0.1568 -0.5446  0.3015
 6271TIP3   OH218776   1.464   3.690   4.917 -0.0409  0.1428 -0.1534
 6271TIP3    H118777   1.492   3.599   4.926  0.4087  0.4449  1.7306
 6271TIP3    H218778   1.530   3.729   4.859  0.6409 -0.3448  0.2827
 6272TIP3   OH218779   0.966   5.185   0.049  0.2452 -0.5839 -0.6450
 6272TIP3    H118780   1.004   5.242  -0.018 -1.1489  1.5274  0.2643
 6272TIP3    H218781   0.926   5.113  -0.001  0.7645 -0.0097 -1.9367
 6273TIP3   OH218782   6.934   3.838   1.597  0.2875 -0.4102 -0.3794
 6273TIP3    H118783   6.978   3.923   1.587  0.4695 -0.5131 -0.4336
 6273TIP3    H218784   7.000   3.773   1.577  0.3481 -0.5859  0.3638
 6274TIP3   OH218785   0.926   4.494   0.305  0.1931  0.1892  0.4508
 6274TIP3    H118786   0.873   4.418   0.327 -3.1087  1.9379 -0.7199
 6274TIP3    H218787   0.932   4.545   0.386  1.3614 -0.6494  0.9235
 6275TIP3   OH218788   6.724   3.598   3.601 -0.5108  0.0357  0.4759
 6275TIP3    H118789   6.779   3.576   3.676  0.2157 -0.8612 -0.2954
 6275TIP3    H218790   6.783   3.590   3.526 -1.4808 -0.0632 -0.2869
 6276TIP3   OH218791   4.040   6.556   0.291  0.7738  0.1628  0.0642
 6276TIP3    H118792   4.101   6.482   0.290  1.3118  0.5844  0.7729
 6276TIP3    H218793   4.095   6.633   0.281  0.1218  0.4474 -1.6577
 6277TIP3   OH218794   2.983   2.901   4.658 -0.0144 -0.1308  0.1731
 6277TIP3    H118795   2.948   2.915   4.746 -1.5304  1.5150 -0.6460
 6277TIP3    H218796   3.054   2.964   4.650  0.3431 -0.5080  0.3065
 6278TIP3   OH218797   3.774   2.989   5.425 -0.9749  0.0928 -0.1279
 6278TIP3    H118798   3.741   2.939   5.350 -2.5106  1.0024 -0.1219
 6278TIP3    H218799   3.743   3.078   5.408  1.3305  0.9765  0.0637
 6279TIP3   OH218800   3.764   0.889   4.636  0.2783 -0.5093  0.3363
 6279TIP3    H118801   3.733   0.950   4.569 -2.8682 -0.0673  2.0240
 6279TIP3    H218802   3.860   0.891   4.627  0.1442  1.9885 -1.9320
 6280TIP3   OH218803   7.200   3.639   4.186 -0.2730 -0.5198 -0.0384
 6280TIP3    H118804   7.156   3.721   4.209  1.1363 -0.0880  1.2908
 6280TIP3    H218805   7.204   3.590   4.267 -1.4847 -2.1575 -0.9068
 6281TIP3   OH218806   4.900   6.348   0.562  0.2489  0.3178 -0.1769
 6281TIP3    H118807   4.928   6.388   0.480  0.6347 -0.6533 -0.5185
 6281TIP3    H218808   4.961   6.276   0.577 -0.7508 -0.4835  0.1609
 6282TIP3   OH218809   3.252   3.672   2.218 -0.3360 -0.3717  0.3710
 6282TIP3    H118810   3.197   3.597   2.241  1.4632 -1.5925  0.8512
 6282TIP3    H218811   3.294   3.648   2.136  0.9372 -0.3076  0.9737
 6283TIP3   OH218812   1.488   6.191   5.110  0.0624  0.2604  0.5605
 6283TIP3    H118813   1.529   6.107   5.133 -1.1909 -0.4042  0.4914
 6283TIP3    H218814   1.523   6.212   5.024  0.8367  0.1057  0.8292
 6284TIP3   OH218815   5.688   1.251   3.192  0.5174 -0.0927 -0.1750
 6284TIP3    H118816   5.644   1.335   3.193 -0.3398 -0.5304 -0.6142
 6284TIP3    H218817   5.746   1.255   3.116  0.1482 -0.0719 -0.4542
 6285TIP3   OH218818   2.918   5.926   2.854 -0.1003  0.5515  0.1414
 6285TIP3    H118819   2.906   6.021   2.860  1.4330  1.0846 -2.9233
 6285TIP3    H218820   2.843   5.896   2.803 -0.6508  0.0472  1.2146
 6286TIP3   OH218821   6.350   6.015   0.689 -0.3471 -0.1561  0.0021
 6286TIP3    H118822   6.423   6.036   0.632  0.2094 -0.4972  0.5783
 6286TIP3    H218823   6.357   5.921   0.703 -1.2465 -0.3000 -0.4057
 6287TIP3   OH218824   1.371   0.750   4.283 -0.2513 -0.4820 -0.5291
 6287TIP3    H118825   1.464   0.747   4.259 -0.1234 -0.9527  0.0148
 6287TIP3    H218826   1.335   0.821   4.230  0.3915 -0.3879 -0.8453
 6288TIP3   OH218827   1.315   2.379   1.729  0.2600 -0.2545 -0.0452
 6288TIP3    H118828   1.234   2.346   1.690  1.1297  0.5793 -2.8330
 6288TIP3    H218829   1.379   2.309   1.713  0.3325 -0.5070  1.2643
 6289TIP3   OH218830   4.760   6.786   0.473  0.0232 -0.0355  0.1481
 6289TIP3    H118831   4.849   6.754   0.454  0.0875 -0.2745  0.8256
 6289TIP3    H218832   4.715   6.781   0.389  0.5918 -0.1058 -0.1630
 6290TIP3   OH218833   1.892   2.328   0.474  0.1302  0.2499  1.1984
 6290TIP3    H118834   1.913   2.408   0.521  0.2171  0.7915  0.2652
 6290TIP3    H218835   1.869   2.357   0.386 -0.0861 -0.7295  0.9181
 6291TIP3   OH218836   1.906   6.334   1.393 -0.0992 -0.2881  0.0813
 6291TIP3    H118837   2.001   6.349   1.385 -0.1857 -0.1923 -0.7902
 6291TIP3    H218838   1.899   6.249   1.437  0.4029 -1.3139 -1.7230
 6292TIP3   OH218839   4.737   5.332   3.290  0.3423 -0.3382 -0.4704
 6292TIP3    H118840   4.803   5.338   3.359 -1.5480  1.1595  1.3372
 6292TIP3    H218841   4.689   5.415   3.296  0.0823 -0.1285 -3.6560
 6293TIP3   OH218842   1.743   6.757   4.409  0.4238 -0.0228 -0.3910
 6293TIP3    H118843   1.650   6.738   4.422  0.2560 -0.5179 -2.0664
 6293TIP3    H218844   1.743   6.833   4.351  1.0434 -0.5429 -1.0900
 6294TIP3   OH218845   5.634   5.320   2.287  0.6547 -0.0574 -0.1772
 6294TIP3    H118846   5.618   5.359   2.373  0.9718  2.0490 -1.0028
 6294TIP3    H218847   5.728   5.332   2.273  0.4652  0.3711 -1.1369
 6295TIP3   OH218848   4.779   2.713   1.008  0.1717 -0.5567 -0.0610
 6295TIP3    H118849   4.693   2.739   1.041 -0.0740 -1.1041 -0.2491
 6295TIP3    H218850   4.832   2.792   1.014 -0.8071  0.2606 -1.5035
 6296TIP3   OH218851   3.910   0.209   1.729 -0.0165  0.3976  0.2152
 6296TIP3    H118852   3.825   0.253   1.738  0.1472  0.9677 -0.9006
 6296TIP3    H218853   3.931   0.216   1.636  0.7591 -0.6831  0.2925
 6297TIP3   OH218854   0.823   3.584   1.594 -0.0905 -0.2805 -0.5273
 6297TIP3    H118855   0.847   3.494   1.573 -2.7529 -0.7323 -2.0853
 6297TIP3    H218856   0.842   3.634   1.514  1.2678  0.5651  0.2873
 6298TIP3   OH218857   2.476   0.908   0.747 -0.4628  0.2221 -0.5218
 6298TIP3    H118858   2.495   0.821   0.712  0.6559  0.6822 -1.1292
 6298TIP3    H218859   2.402   0.895   0.806 -0.2273 -1.1611 -0.5004
 6299TIP3   OH218860   1.955   4.979   0.813  0.1152  0.5481  0.8308
 6299TIP3    H118861   1.884   4.930   0.772  0.7451  0.2980  0.0219
 6299TIP3    H218862   1.931   5.071   0.801  0.4133  0.4862 -0.3549
 6300TIP3   OH218863   5.179   3.285   5.296  0.0900 -0.2997  0.6950
 6300TIP3    H118864   5.191   3.247   5.209  1.3026 -0.6073  0.9737
 6300TIP3    H218865   5.103   3.343   5.287 -0.1279 -0.7402 -0.4229
 6301TIP3   OH218866   4.839   5.371   1.621  0.0018 -0.3539  0.0757
 6301TIP3    H118867   4.759   5.407   1.660  0.5537  1.5661 -0.4634
 6301TIP3    H218868   4.907   5.385   1.687  0.2685 -0.2176 -0.2246
 6302TIP3   OH218869   1.296   0.619   0.385 -0.4809 -0.3573 -0.8612
 6302TIP3    H118870   1.304   0.693   0.325 -2.2252 -0.3271 -1.1251
 6302TIP3    H218871   1.386   0.596   0.407  0.1329  1.1238 -1.6463
 6303TIP3   OH218872   0.112   3.050   5.483 -0.3419  0.6017 -0.3578
 6303TIP3    H118873   0.136   3.055   5.575 -2.9585 -0.3607  0.4533
 6303TIP3    H218874   0.151   2.968   5.453 -1.2358 -0.1794  0.5206
 6304TIP3   OH218875   4.495   0.397   5.339  0.4141 -0.5489  0.3981
 6304TIP3    H118876   4.548   0.435   5.269  0.0231  0.8287  0.8196
 6304TIP3    H218877   4.559   0.368   5.404  0.6904  1.1197  0.9146
 6305TIP3   OH218878   1.319   3.241   5.338 -0.1114  0.5380 -0.1382
 6305TIP3    H118879   1.322   3.331   5.372 -1.6208  0.0322  1.5332
 6305TIP3    H218880   1.378   3.192   5.395 -1.9646 -0.1379  1.3567
 6306TIP3   OH218881   4.162   4.254   0.986  0.1536 -0.3649 -0.1935
 6306TIP3    H118882   4.196   4.170   0.955  0.8990 -0.2610  0.3005
 6306TIP3    H218883   4.240   4.309   0.993 -0.0358 -0.2542  1.4190
 6307TIP3   OH218884   2.426   6.646   5.567  0.2405  0.9162 -0.1289
 6307TIP3    H118885   2.383   6.719   5.524 -0.5262  0.1796 -0.6639
 6307TIP3    H218886   2.437   6.580   5.497 -2.3759 -0.9003  1.0012
 6308TIP3   OH218887   2.437   1.349   3.284 -0.5238 -0.1152  0.3193
 6308TIP3    H118888   2.379   1.416   3.320 -1.3156 -0.1127 -0.9234
 6308TIP3    H218889   2.467   1.385   3.200  1.5307  0.0123  1.0477
 6309TIP3   OH218890   3.923   3.997   4.050 -0.7770 -0.1822  1.1274
 6309TIP3    H118891   3.872   3.938   3.994 -0.1356  0.6288 -0.3645
 6309TIP3    H218892   3.878   4.081   4.043  0.3186  0.3637  0.3698
 6310TIP3   OH218893   6.392   2.903   1.749 -0.0930 -0.0358  0.3775
 6310TIP3    H118894   6.326   2.857   1.801  1.0962 -1.9081  0.2969
 6310TIP3    H218895   6.463   2.920   1.811 -0.1986  1.0603  0.2169
 6311TIP3   OH218896   1.939   3.669   0.791  0.1796 -0.0207 -0.4250
 6311TIP3    H118897   1.947   3.707   0.878  0.7648 -0.7828 -0.1384
 6311TIP3    H218898   1.885   3.590   0.803  0.4707 -0.2668 -0.7093
 6312TIP3   OH218899   5.589   2.787   2.260  0.2237 -0.3423  0.3013
 6312TIP3    H118900   5.520   2.734   2.300  2.3311 -1.3202  3.0572
 6312TIP3    H218901   5.667   2.731   2.263  1.9239  1.8691  0.6618
 6313TIP3   OH218902   5.668   2.702   1.926 -0.7954  0.1520  0.1243
 6313TIP3    H118903   5.638   2.632   1.984 -0.4286 -1.0047 -1.0225
 6313TIP3    H218904   5.762   2.709   1.944 -0.6830 -0.2021 -0.3010
 6314TIP3   OH218905   4.776   4.441   5.547 -0.4495 -0.0288 -0.3542
 6314TIP3    H118906   4.768   4.515   5.488 -0.1380  0.2353 -0.0704
 6314TIP3    H218907   4.723   4.372   5.507  0.0371  0.0277 -1.1198
 6315TIP3   OH218908   7.104   2.505   1.138  0.0850 -0.2345  0.0391
 6315TIP3    H118909   7.114   2.437   1.072  1.9344 -0.3147  0.3464
 6315TIP3    H218910   7.145   2.583   1.099  0.5503 -0.0952  0.7790
 6316TIP3   OH218911   3.188   6.497   0.229 -0.3399  0.4779  0.3251
 6316TIP3    H118912   3.154   6.498   0.318 -0.1993 -0.1553  0.3966
 6316TIP3    H218913   3.221   6.407   0.217 -0.3976  0.5399 -0.3735
 6317TIP3   OH218914   2.637   3.365   5.089 -0.2260  0.3856  0.1876
 6317TIP3    H118915   2.718   3.350   5.039 -1.4304  0.6352 -1.9507
 6317TIP3    H218916   2.632   3.290   5.148  1.8376  0.6555  0.7977
 6318TIP3   OH218917   3.883   2.839   5.056  0.1236  0.4982  0.3692
 6318TIP3    H118918   3.791   2.817   5.074  0.4877 -0.5349  1.0874
 6318TIP3    H218919   3.914   2.767   5.001 -0.3021  2.3943 -2.5434
 6319TIP3   OH218920   3.279   2.670   1.214  0.6122 -0.1539 -0.1265
 6319TIP3    H118921   3.320   2.585   1.230  0.3702 -0.6272 -1.8054
 6319TIP3    H218922   3.222   2.685   1.290  1.6975 -0.8289  0.8421
 6320TIP3   OH218923   4.424   6.567   1.832 -0.1556  0.2034 -0.3188
 6320TIP3    H118924   4.479   6.530   1.763  0.3964 -0.1557  0.3017
 6320TIP3    H218925   4.463   6.535   1.914 -1.3645 -0.1614  0.1391
 6321TIP3   OH218926   0.133   1.202   2.414 -0.2435  0.3268 -0.2944
 6321TIP3    H118927   0.072   1.241   2.351  1.9770  2.6392 -1.1797
 6321TIP3    H218928   0.179   1.277   2.452  1.7900 -1.2725  0.5994
 6322TIP3   OH218929   4.142   1.540   5.116 -0.1740 -0.1594  0.1581
 6322TIP3    H118930   4.068   1.598   5.104  1.6507  2.0055 -1.6116
 6322TIP3    H218931   4.193   1.580   5.186  0.6768 -0.0373 -0.5092
 6323TIP3   OH218932   5.450   6.236   5.109 -0.3345  0.8078  0.0299
 6323TIP3    H118933   5.422   6.327   5.116 -0.4993  0.7596 -0.0127
 6323TIP3    H218934   5.402   6.191   5.179  0.1891  0.8601  0.4328
 6324TIP3   OH218935   2.482   1.090   5.153 -0.0213 -0.4575 -0.0348
 6324TIP3    H118936   2.455   1.048   5.072 -0.4639  1.2318 -0.7815
 6324TIP3    H218937   2.406   1.138   5.183  0.5651  0.0801  0.6377
 6325TIP3   OH218938   5.579   2.355   0.051 -0.1307  0.5816 -0.1892
 6325TIP3    H118939   5.628   2.290   0.000 -1.7406 -1.2001  0.4080
 6325TIP3    H218940   5.593   2.437   0.005  0.5800 -0.4835 -1.9817
 6326TIP3   OH218941   4.915   2.460   0.591  0.0633  0.2722  0.2409
 6326TIP3    H118942   5.008   2.437   0.593 -0.1165 -0.5238 -0.2526
 6326TIP3    H218943   4.869   2.377   0.601 -0.5937  0.5647 -0.2928
 6327TIP3   OH218944   4.886   3.591   5.104  0.1215  0.8060  0.8713
 6327TIP3    H118945   4.923   3.640   5.031 -0.7032  0.8370  0.4574
 6327TIP3    H218946   4.872   3.657   5.172  1.2334  0.7124  1.2067
 6328TIP3   OH218947   6.623   0.272   3.617  0.1110 -0.0571  0.0704
 6328TIP3    H118948   6.619   0.256   3.523 -0.0604 -0.0363  0.0734
 6328TIP3    H218949   6.543   0.320   3.637 -1.6971 -3.0608  0.7931
 6329TIP3   OH218950   6.654   5.767   4.912 -0.6005  0.2790 -0.0096
 6329TIP3    H118951   6.560   5.772   4.929 -0.3906  1.4637  0.9334
 6329TIP3    H218952   6.691   5.733   4.993 -0.1528  0.4611 -0.1349
 6330TIP3   OH218953   2.513   3.968   3.459 -0.1187 -0.5189  0.0153
 6330TIP3    H118954   2.447   3.901   3.474 -0.0285 -0.6766 -0.2925
 6330TIP3    H218955   2.488   4.008   3.376 -2.2045  2.1832  1.7575
 6331TIP3   OH218956   3.517   6.295   3.303  0.0662  0.2926  0.5507
 6331TIP3    H118957   3.422   6.302   3.288  0.1303 -0.2901 -0.1626
 6331TIP3    H218958   3.556   6.337   3.226  0.3954  1.1606  1.1782
 6332TIP3   OH218959   6.675   3.266   1.853 -0.0576 -0.2104  0.0391
 6332TIP3    H118960   6.696   3.346   1.902  1.2287 -1.1388  1.0527
 6332TIP3    H218961   6.646   3.298   1.767  0.0637  1.3525  0.5448
 6333TIP3   OH218962   1.973   6.217   5.508  0.3144  0.5590 -0.1252
 6333TIP3    H118963   1.883   6.198   5.480 -0.2897  2.8303  0.0509
 6333TIP3    H218964   1.994   6.300   5.466  2.0694  0.4471  0.4488
 6334TIP3   OH218965   3.721   0.668   3.027 -0.7488  0.1597  0.1085
 6334TIP3    H118966   3.719   0.748   3.079  0.0944 -0.1181  0.5812
 6334TIP3    H218967   3.724   0.597   3.091  0.4597 -0.1791 -0.2927
 6335TIP3   OH218968   1.771   2.535   5.530 -0.2234  0.0619  0.3449
 6335TIP3    H118969   1.813   2.569   5.609 -0.6972  2.7979 -0.4784
 6335TIP3    H218970   1.798   2.595   5.461 -1.4021 -1.1109 -1.2005
 6336TIP3   OH218971   3.808   4.139   4.482  0.1755 -0.1744 -0.4489
 6336TIP3    H118972   3.850   4.114   4.564 -1.3410  0.5664  0.5966
 6336TIP3    H218973   3.772   4.057   4.448 -0.0656 -0.3220  0.1525
 6337TIP3   OH218974   1.182   3.176   1.401  0.2180 -0.2965 -0.4960
 6337TIP3    H118975   1.227   3.204   1.322  2.7399  0.2461  0.9935
 6337TIP3    H218976   1.248   3.125   1.449 -0.9528  0.0029  1.5625
 6338TIP3   OH218977   1.247   0.162   5.435  0.1572 -0.0435 -0.4017
 6338TIP3    H118978   1.244   0.094   5.368  1.0432 -2.6423  1.9405
 6338TIP3    H218979   1.339   0.187   5.439 -0.2372  1.7690 -1.5806
 6339TIP3   OH218980   1.856   3.585   3.746  0.2792 -0.0196 -0.2434
 6339TIP3    H118981   1.855   3.680   3.748  0.3259 -0.0083 -0.7046
 6339TIP3    H218982   1.911   3.560   3.821  0.6339  0.3260 -0.3815
 6340TIP3   OH218983   1.399   5.004   5.249  0.2301  0.3054  0.5377
 6340TIP3    H118984   1.378   4.982   5.159 -0.2451  2.4669  0.0609
 6340TIP3    H218985   1.346   4.944   5.302  0.5524 -1.0148 -0.5809
 6341TIP3   OH218986   7.113   0.738   2.313  0.3619  0.2768 -0.3674
 6341TIP3    H118987   7.049   0.700   2.373  1.4988 -0.7585  0.2377
 6341TIP3    H218988   7.197   0.704   2.343  1.0273  0.1499 -2.2397
 6342TIP3   OH218989   1.888   5.424   1.784 -0.7088 -0.0111 -0.0795
 6342TIP3    H118990   1.974   5.411   1.744 -0.9144  0.8592 -0.8580
 6342TIP3    H218991   1.863   5.338   1.816  1.9898  0.2916  3.4615
 6343TIP3   OH218992   3.650   0.540   3.618 -0.0455 -0.0040 -0.1541
 6343TIP3    H118993   3.700   0.536   3.536  1.3949  0.1150  0.6960
 6343TIP3    H218994   3.617   0.630   3.621  1.4003  0.5411  0.2328
 6344TIP3   OH218995   7.010   5.201   1.552  0.5269  0.5118 -0.1201
 6344TIP3    H118996   7.018   5.215   1.646  1.4037 -0.5262 -0.0136
 6344TIP3    H218997   7.022   5.107   1.541 -1.5610  0.3082 -1.0869
 6345TIP3   OH218998   6.672   6.369   3.196  0.7087  0.0600  0.0962
 6345TIP3    H118999   6.604   6.394   3.133  0.8593 -0.1153 -0.1387
 6345TIP3    H219000   6.736   6.440   3.192  2.1311 -1.2265 -2.0159
 6346TIP3   OH219001   4.393   0.171   4.766  0.1588 -0.3293  0.6454
 6346TIP3    H119002   4.357   0.203   4.683  0.3101 -1.6429  0.0468
 6346TIP3    H219003   4.487   0.166   4.751  0.4297  1.3310  1.5932
 6347TIP3   OH219004   6.040   0.178   4.817 -0.1639  0.4369  0.1414
 6347TIP3    H119005   6.117   0.150   4.867 -0.9871 -1.3943  0.4704
 6347TIP3    H219006   6.055   0.271   4.800  2.0215  0.1840  0.3683
 6348TIP3   OH219007   2.863   2.326   2.414 -0.4005  0.1330  0.3390
 6348TIP3    H119008   2.803   2.389   2.374  0.5235  0.9189  0.1554
 6348TIP3    H219009   2.890   2.366   2.496  0.7825  0.3527 -0.1316
 6349TIP3   OH219010   4.459   3.441   2.572  0.2752 -0.1137 -0.1914
 6349TIP3    H119011   4.386   3.502   2.578 -0.1343 -0.4390 -1.5375
 6349TIP3    H219012   4.507   3.452   2.654 -1.0413  0.4147  0.5350
 6350TIP3   OH219013   3.492   1.926   3.602 -0.2467 -0.1647  0.4205
 6350TIP3    H119014   3.506   1.988   3.530  3.8152  0.2007  1.2599
 6350TIP3    H219015   3.472   1.981   3.677 -0.0522 -0.1524  0.4640
 6351TIP3   OH219016   1.038   0.025   2.252  0.4818  0.4693 -0.6258
 6351TIP3    H119017   1.013  -0.063   2.222 -3.6009  1.8370 -1.9290
 6351TIP3    H219018   1.037   0.078   2.172 -0.3787  2.2830  0.5315
 6352TIP3   OH219019   5.126   0.451   1.244  0.2545 -0.1416 -0.0043
 6352TIP3    H119020   5.060   0.475   1.309 -0.2676 -1.3344 -0.0626
 6352TIP3    H219021   5.182   0.528   1.237  0.5530 -0.1021  2.1440
 6353TIP3   OH219022   5.995   4.047   5.858 -0.2914 -0.3745 -0.2470
 6353TIP3    H119023   5.983   4.031   5.764 -0.9700  0.1746 -0.2533
 6353TIP3    H219024   5.944   3.978   5.901 -1.1762  0.2463 -0.2831
 6354TIP3   OH219025   0.101   0.890   1.620 -0.4358 -0.0069 -0.0055
 6354TIP3    H119026   0.095   0.902   1.525 -1.3000 -1.4732 -0.1690
 6354TIP3    H219027   0.010   0.895   1.650 -0.4415 -1.9562  0.4002
 6355TIP3   OH219028   0.687   0.776   4.896 -0.3031 -0.2614  0.1802
 6355TIP3    H119029   0.658   0.846   4.954  0.1688  0.2385 -0.1760
 6355TIP3    H219030   0.642   0.793   4.813 -1.0103 -0.9993  0.4014
 6356TIP3   OH219031   0.406   0.110   2.414  0.1953 -0.2395  0.0038
 6356TIP3    H119032   0.464   0.099   2.489  1.2064 -0.1526 -0.7522
 6356TIP3    H219033   0.323   0.139   2.452 -0.5601 -3.8565  1.4745
 6357TIP3   OH219034   7.025   5.728   3.138  0.1534  0.1026  0.0956
 6357TIP3    H119035   6.976   5.786   3.196 -0.2955  0.3319 -0.5119
 6357TIP3    H219036   7.060   5.785   3.070  0.2602 -0.2421 -0.1413
 6358TIP3   OH219037   6.185   0.263   2.332  0.7819 -0.2802 -0.1281
 6358TIP3    H119038   6.223   0.275   2.245  1.5816  1.7412  0.4329
 6358TIP3    H219039   6.257   0.283   2.393 -0.5830  1.7881  0.9553
 6359TIP3   OH219040   3.246   4.786   2.149  0.3936 -0.4941 -0.0582
 6359TIP3    H119041   3.227   4.758   2.060  1.7496  0.6960 -0.7543
 6359TIP3    H219042   3.265   4.704   2.196  0.5916 -1.0681 -1.1006
 6360TIP3   OH219043   1.929   2.536   0.677 -0.2118  0.3396 -0.2523
 6360TIP3    H119044   1.914   2.502   0.765 -1.2462  0.1213 -0.4931
 6360TIP3    H219045   2.024   2.531   0.665  0.1208  1.8421  1.4045
 6361TIP3   OH219046   2.321   4.333   2.490 -0.5487 -0.9982  0.3548
 6361TIP3    H119047   2.356   4.397   2.551  0.3334  0.2282 -1.3795
 6361TIP3    H219048   2.234   4.366   2.468  0.0943 -0.0661 -0.9173
 6362TIP3   OH219049   1.332   2.886   5.509  0.4379 -0.1960 -0.0718
 6362TIP3    H119050   1.401   2.821   5.524  0.0991 -1.1976 -2.3933
 6362TIP3    H219051   1.350   2.921   5.422 -1.6581 -0.1148 -0.5406
 6363TIP3   OH219052   2.796   4.233   1.486 -0.6089  0.1634 -0.1577
 6363TIP3    H119053   2.737   4.288   1.537 -1.3453 -0.2175 -0.5794
 6363TIP3    H219054   2.795   4.271   1.398  0.2735  0.5307 -0.0165
 6364TIP3   OH219055   5.745   0.395   0.945 -0.0959 -0.2388 -0.4463
 6364TIP3    H119056   5.722   0.311   0.904 -0.3923 -0.6276  0.4922
 6364TIP3    H219057   5.716   0.386   1.036  2.2044 -0.1009  0.3594
 6365TIP3   OH219058   1.985   0.228   2.450 -0.1066  0.6687 -0.2246
 6365TIP3    H119059   2.057   0.166   2.446  0.2146  1.0832 -1.0970
 6365TIP3    H219060   1.954   0.223   2.540 -0.1644 -0.8330 -0.3103
 6366TIP3   OH219061   3.942   4.832   3.072 -0.3027 -0.5646 -0.1758
 6366TIP3    H119062   3.925   4.861   2.983  0.3751  0.0953 -0.0949
 6366TIP3    H219063   3.873   4.768   3.090 -0.6634 -0.4245 -1.0351
 6367TIP3   OH219064   6.838   1.072   4.104 -0.6451  0.9666  0.2636
 6367TIP3    H119065   6.772   1.107   4.043  0.1513  0.5907 -0.8424
 6367TIP3    H219066   6.862   1.148   4.157 -0.9901  1.4349 -0.2253
 6368TIP3   OH219067   4.997   1.838   2.209  0.2046  0.5888 -0.4965
 6368TIP3    H119068   5.048   1.760   2.188 -1.8291 -1.3466  1.2145
 6368TIP3    H219069   5.049   1.884   2.274  0.7302 -0.2381 -0.3143
 6369TIP3   OH219070   2.555   4.408   4.163  0.0849  0.3028 -0.1809
 6369TIP3    H119071   2.482   4.469   4.154 -1.6422 -1.6618 -0.4360
 6369TIP3    H219072   2.630   4.462   4.188 -1.5518  2.3550  0.5341
 6370TIP3   OH219073   0.995   1.966   4.190  0.1172 -0.0365 -0.1732
 6370TIP3    H119074   1.028   1.892   4.240 -2.3009  0.0868  1.7527
 6370TIP3    H219075   0.900   1.963   4.201 -0.1618  2.5650 -1.1558
 6371TIP3   OH219076   6.455   5.196   5.505  0.3291  0.0109  0.2295
 6371TIP3    H119077   6.495   5.109   5.510  1.5453  0.5631  0.5206
 6371TIP3    H219078   6.475   5.226   5.416  0.5309  0.2734  0.3629
 6372TIP3   OH219079   3.543   3.128   3.973 -0.1884 -0.6039  0.4628
 6372TIP3    H119080   3.595   3.069   3.919  0.2080 -0.7235  0.9677
 6372TIP3    H219081   3.494   3.071   4.032  0.7806 -0.4185  1.4794
 6373TIP3   OH219082   2.016   1.786   4.242  0.0631  0.0602  0.1837
 6373TIP3    H119083   2.025   1.876   4.272  0.5173  0.4786 -1.1342
 6373TIP3    H219084   2.014   1.793   4.147  0.9981 -1.4009  0.0276
 6374TIP3   OH219085   3.817   2.495   2.966  0.7120 -0.5559  0.7791
 6374TIP3    H119086   3.787   2.582   2.939  3.2172  0.2764  0.3565
 6374TIP3    H219087   3.823   2.500   3.061  1.1553 -0.1432  0.7332
 6375TIP3   OH219088   4.910   1.824   4.611 -0.4922  0.3692 -0.3280
 6375TIP3    H119089   5.000   1.844   4.587 -0.1935  2.1294  1.8793
 6375TIP3    H219090   4.896   1.871   4.694 -3.0548 -0.8316  0.0380
 6376TIP3   OH219091   3.459   0.153   0.702 -0.0311 -0.2152 -0.4888
 6376TIP3    H119092   3.509   0.206   0.639  0.8127 -0.3537  0.0462
 6376TIP3    H219093   3.368   0.183   0.692  0.4205  1.3504 -0.2012
 6377TIP3   OH219094   0.477   2.881   3.484  0.2701 -0.4316 -0.6028
 6377TIP3    H119095   0.483   2.960   3.538 -1.1415 -0.4191 -0.4264
 6377TIP3    H219096   0.464   2.913   3.395 -0.5899 -0.4504 -0.4918
 6378TIP3   OH219097   0.996   4.417   3.734 -0.4987  0.5243  0.4355
 6378TIP3    H119098   0.951   4.389   3.654  2.0115 -2.8799 -0.0100
 6378TIP3    H219099   0.985   4.512   3.736 -2.2552  0.5288 -2.9327
 6379TIP3   OH219100   0.752   3.839   3.510 -0.3548 -0.2402  0.0324
 6379TIP3    H119101   0.750   3.766   3.449  0.1723 -0.5164  0.3402
 6379TIP3    H219102   0.713   3.805   3.591 -1.0402  0.1200 -0.1352
 6380TIP3   OH219103   0.450   3.955   4.682 -0.0419 -0.4269  0.4889
 6380TIP3    H119104   0.463   4.018   4.753 -0.0810  0.1273  0.0129
 6380TIP3    H219105   0.423   3.874   4.726 -0.9641  0.1663  1.0595
 6381TIP3   OH219106   3.845   2.881   0.376 -1.1666 -0.3054 -0.0469
 6381TIP3    H119107   3.796   2.947   0.425  0.7093 -0.0779  1.6698
 6381TIP3    H219108   3.922   2.864   0.430  0.3301 -1.0893 -2.2860
 6382TIP3   OH219109   2.373   5.460   1.894 -0.2127  0.0503 -0.8801
 6382TIP3    H119110   2.317   5.509   1.955  1.7495  0.2763  0.8727
 6382TIP3    H219111   2.444   5.521   1.873  0.8567 -1.1247 -0.7770
 6383TIP3   OH219112   3.431   0.784   1.766 -0.0578  0.0715  0.3270
 6383TIP3    H119113   3.438   0.689   1.776 -1.5300 -0.1569 -0.4651
 6383TIP3    H219114   3.440   0.798   1.671 -2.2899  0.4298  0.1244
 6384TIP3   OH219115   4.071   6.619   4.684 -0.2594  0.3328 -0.2358
 6384TIP3    H119116   4.036   6.598   4.770  0.8276  1.1288  0.4142
 6384TIP3    H219117   4.093   6.533   4.646  1.6531  0.0556  1.3238
 6385TIP3   OH219118   0.722   0.029   2.232  0.8445  0.4033  0.3104
 6385TIP3    H119119   0.786   0.076   2.178  1.0846  0.9369  1.0458
 6385TIP3    H219120   0.726   0.073   2.317 -0.6304  0.5640  0.3224
 6386TIP3   OH219121   4.808   5.953   0.461 -0.0325  0.4156 -0.1392
 6386TIP3    H119122   4.791   6.018   0.393  0.7175 -0.7239 -1.4605
 6386TIP3    H219123   4.888   5.909   0.433 -1.0083 -1.6931  0.1972
 6387TIP3   OH219124   3.132   5.128   1.877  0.1126  0.0324  0.5119
 6387TIP3    H119125   3.220   5.096   1.857  1.1689  2.8997  0.1206
 6387TIP3    H219126   3.115   5.097   1.966  2.0888  0.4961  1.1065
 6388TIP3   OH219127   6.164   0.205   3.542 -0.0047 -0.0622 -0.7460
 6388TIP3    H119128   6.134   0.125   3.499 -0.5575  0.5567 -1.5299
 6388TIP3    H219129   6.205   0.174   3.623 -3.0466 -0.9739  0.5966
 6389TIP3   OH219130   6.334   0.523   0.828 -0.0455 -0.2921  0.5708
 6389TIP3    H119131   6.429   0.520   0.817  0.2382  0.2961  2.4974
 6389TIP3    H219132   6.317   0.610   0.865 -1.5772  0.3608 -1.4847
 6390TIP3   OH219133   6.616   5.063   1.528  0.3788  0.0906 -0.3029
 6390TIP3    H119134   6.640   5.040   1.618 -1.4917 -0.4976  0.0899
 6390TIP3    H219135   6.628   4.982   1.479  0.9780  0.2990 -0.5149
 6391TIP3   OH219136   7.154   2.299   1.660  0.2136 -0.1213 -0.3623
 6391TIP3    H119137   7.151   2.313   1.754 -2.0239  0.0104 -0.4090
 6391TIP3    H219138   7.125   2.382   1.622 -1.4677 -0.9831 -1.0504
 6392TIP3   OH219139   3.913   3.060   3.738 -0.4744  0.7319 -0.1965
 6392TIP3    H119140   3.933   3.038   3.647 -2.2761 -1.0219 -0.2372
 6392TIP3    H219141   3.842   3.124   3.731 -0.8925  0.2931 -0.0507
 6393TIP3   OH219142   0.347   1.058   0.848 -0.4734 -0.2272 -0.0738
 6393TIP3    H119143   0.345   1.064   0.943  1.7145 -1.2924  0.1268
 6393TIP3    H219144   0.334   1.147   0.817  2.8239  0.9270  1.4341
 6394TIP3   OH219145   5.441   2.645   1.392 -0.2781 -0.1837 -0.3619
 6394TIP3    H119146   5.379   2.668   1.462 -1.0759 -0.2040 -1.0538
 6394TIP3    H219147   5.524   2.684   1.420 -0.9346  1.0754 -0.1109
 6395TIP3   OH219148   4.576   3.619   4.178  0.6331  0.2102  0.9495
 6395TIP3    H119149   4.482   3.609   4.164  0.5512  2.1803 -0.2036
 6395TIP3    H219150   4.584   3.643   4.270 -0.1385  1.4974  0.6962
 6396TIP3   OH219151   5.796   2.362   5.521  0.7845  0.2734  0.0299
 6396TIP3    H119152   5.815   2.419   5.596 -2.2014 -0.1204  1.2364
 6396TIP3    H219153   5.732   2.411   5.470  0.9214 -0.5176 -0.9240
 6397TIP3   OH219154   3.901   6.683   1.483 -0.5332 -0.3935  0.1974
 6397TIP3    H119155   3.821   6.723   1.448 -0.7476  2.0105  3.0224
 6397TIP3    H219156   3.969   6.709   1.421 -1.3383  1.0495 -0.1443
 6398TIP3   OH219157   5.594   2.753   5.388  0.2110 -0.0112  0.0275
 6398TIP3    H119158   5.594   2.833   5.440  0.0342  0.1414 -0.2065
 6398TIP3    H219159   5.625   2.780   5.302 -2.3287  0.3318 -0.8612
 6399TIP3   OH219160   1.250   3.313   3.203  0.1121 -0.1856  0.3104
 6399TIP3    H119161   1.283   3.346   3.286 -0.7000  2.1587 -0.2056
 6399TIP3    H219162   1.195   3.239   3.226 -0.2082  0.5048  1.8768
 6400TIP3   OH219163   1.056   1.345   0.210  0.7778 -0.2087  0.0177
 6400TIP3    H119164   1.121   1.358   0.141  1.1649  0.1579  0.4408
 6400TIP3    H219165   1.105   1.303   0.281  0.9497  1.4887  0.9463
 6401TIP3   OH219166   0.975   5.128   2.467 -0.5382 -0.5284  0.1836
 6401TIP3    H119167   1.051   5.069   2.463  0.7781  1.1925 -1.5130
 6401TIP3    H219168   1.004   5.201   2.521 -1.8110 -0.8664  1.3996
 6402TIP3   OH219169   5.037   2.851   0.083  0.6171 -0.0192 -0.4278
 6402TIP3    H119170   5.064   2.765   0.116 -1.5263  0.0480  1.7957
 6402TIP3    H219171   5.014   2.835  -0.009  3.3676 -1.0425 -1.0089
 6403TIP3   OH219172   3.123   0.967   4.091  0.2797  0.3305 -0.2398
 6403TIP3    H119173   3.198   1.011   4.052  0.5950 -0.0600 -0.0883
 6403TIP3    H219174   3.080   1.034   4.143 -0.7965  1.1563 -2.1122
 6404TIP3   OH219175   2.206   0.722   4.197  0.0041  0.0295  0.1582
 6404TIP3    H119176   2.235   0.787   4.133  0.6444  0.3521  0.7628
 6404TIP3    H219177   2.242   0.639   4.164 -2.6258 -0.4547 -1.7954
 6405TIP3   OH219178   5.488   0.359   1.981 -0.0565  0.2402 -0.0647
 6405TIP3    H119179   5.406   0.341   2.027 -0.3844  2.1297  0.1819
 6405TIP3    H219180   5.552   0.372   2.051  0.4288 -1.0189 -0.2528
 6406TIP3   OH219181   6.846   1.027   1.386  0.4052 -0.6343  0.1298
 6406TIP3    H119182   6.873   0.949   1.339  0.1904 -1.3622  1.1850
 6406TIP3    H219183   6.751   1.018   1.395  0.4712 -0.6246  0.8908
 6407TIP3   OH219184   2.383   6.257   1.496  0.6454 -0.7755  0.0610
 6407TIP3    H119185   2.313   6.317   1.469  1.5748  0.0176 -0.6468
 6407TIP3    H219186   2.397   6.276   1.589  0.3474 -0.4961  0.0512
 6408TIP3   OH219187   1.350   3.866   3.606 -0.0236 -0.2506 -0.2027
 6408TIP3    H119188   1.418   3.805   3.633  0.5895  0.0888 -0.9266
 6408TIP3    H219189   1.274   3.844   3.659  0.3490 -1.2937 -0.0962
 6409TIP3   OH219190   4.523   5.187   1.912 -0.2842 -0.3944 -0.1885
 6409TIP3    H119191   4.484   5.242   1.844 -2.5295 -0.9169  0.5865
 6409TIP3    H219192   4.450   5.135   1.946  1.4242 -2.6824  0.2392
 6410TIP3   OH219193   4.297   6.150   1.848  0.8917 -0.0382  0.5991
 6410TIP3    H119194   4.388   6.157   1.874  0.8151  0.2280  0.7988
 6410TIP3    H219195   4.264   6.074   1.895  1.3046 -0.8269 -0.3436
 6411TIP3   OH219196   1.838   5.748   5.191  0.0651  0.3767  0.3393
 6411TIP3    H119197   1.826   5.680   5.257  1.4528  0.9002  1.1698
 6411TIP3    H219198   1.932   5.749   5.173 -0.1240  1.0756 -0.7469
 6412TIP3   OH219199   1.977   4.995   3.847 -0.3705 -0.2656  0.5023
 6412TIP3    H119200   1.913   4.926   3.826  0.0643 -1.1633  1.9699
 6412TIP3    H219201   1.924   5.068   3.879 -0.7579 -0.4421  0.2702
 6413TIP3   OH219202   3.197   6.360   3.867  0.2469  0.1784  0.2639
 6413TIP3    H119203   3.222   6.297   3.800  0.2487  0.0033  0.4288
 6413TIP3    H219204   3.105   6.340   3.886  0.7078 -0.8770  1.5168
 6414TIP3   OH219205   6.974   2.070   3.702  0.1160  0.0681  0.3762
 6414TIP3    H119206   7.023   2.132   3.755 -0.3228  0.8359 -0.1026
 6414TIP3    H219207   6.940   2.121   3.629 -0.0934 -0.7728 -0.1391
 6415TIP3   OH219208   4.073   0.988   5.575  0.7127 -0.4877  0.2330
 6415TIP3    H119209   3.986   1.023   5.557  0.4771 -1.9476 -1.7765
 6415TIP3    H219210   4.073   0.971   5.669 -0.7482  0.6048  0.4662
 6416TIP3   OH219211   7.143   1.844   3.401 -0.2514  0.2003 -0.2674
 6416TIP3    H119212   7.225   1.799   3.424  0.8180  1.9368 -0.5284
 6416TIP3    H219213   7.074   1.783   3.429  1.1086 -1.2327  0.1233
 6417TIP3   OH219214   4.033   1.802   5.098 -0.0481 -0.4396 -0.4388
 6417TIP3    H119215   3.979   1.839   5.168  0.0180 -1.7737  0.3762
 6417TIP3    H219216   4.106   1.862   5.090 -0.9246  0.6423 -0.5632
 6418TIP3   OH219217   2.663   3.447   0.972 -0.0284  0.0666 -0.3411
 6418TIP3    H119218   2.626   3.372   0.925  0.3935  0.4785 -1.3722
 6418TIP3    H219219   2.611   3.522   0.942 -1.3659  0.0470  1.7211
 6419TIP3   OH219220   2.219   0.244   3.144 -0.4875 -0.7870  0.1149
 6419TIP3    H119221   2.152   0.229   3.210  0.1610 -0.6181  0.8347
 6419TIP3    H219222   2.184   0.314   3.090 -0.9537 -0.7974  0.4005
 6420TIP3   OH219223   0.675   1.943   5.833  0.0534  0.2713  0.0038
 6420TIP3    H119224   0.714   1.856   5.848  0.1182  0.3424  0.2418
 6420TIP3    H219225   0.609   1.952   5.902 -0.1993  0.2638 -0.2364
 6421TIP3   OH219226   4.624   3.376   2.144 -1.3201  0.5473  0.2717
 6421TIP3    H119227   4.533   3.350   2.155 -0.7149 -2.2599 -0.4823
 6421TIP3    H219228   4.641   3.365   2.051 -0.3357  1.5922  0.3079
 6422TIP3   OH219229   2.228   5.420   0.033 -0.4948 -0.0536 -0.9457
 6422TIP3    H119230   2.296   5.487   0.037  0.3565 -0.9671  1.2041
 6422TIP3    H219231   2.159   5.451   0.091 -0.0052 -1.0986  0.2257
 6423TIP3   OH219232   0.711   3.334   0.941  0.0466  0.5040  0.4201
 6423TIP3    H119233   0.765   3.257   0.921  0.7333  0.6926  1.4625
 6423TIP3    H219234   0.675   3.316   1.028 -0.4126  1.0243  0.3433
 6424TIP3   OH219235   1.569   3.681   3.800 -0.0202 -0.3749 -0.0691
 6424TIP3    H119236   1.582   3.764   3.753 -2.6597  0.6840  0.8878
 6424TIP3    H219237   1.629   3.686   3.875  1.0430 -0.1240 -0.9063
 6425TIP3   OH219238   4.532   2.548   2.561  0.2678  0.3210  0.0176
 6425TIP3    H119239   4.593   2.522   2.492  0.3987  2.9801 -1.0028
 6425TIP3    H219240   4.446   2.522   2.528  0.4969  0.0120 -0.3442
 6426TIP3   OH219241   3.768   5.449   4.496 -0.0623 -0.3317 -0.2467
 6426TIP3    H119242   3.710   5.373   4.495  0.4620 -0.7747  1.0793
 6426TIP3    H219243   3.835   5.429   4.430  0.0349 -1.0050  0.0450
 6427TIP3   OH219244   4.839   3.854   3.290  0.0064 -0.3340  0.0210
 6427TIP3    H119245   4.794   3.924   3.337  1.7411  1.7224 -1.1990
 6427TIP3    H219246   4.817   3.869   3.198  0.2989 -1.5125 -0.2582
 6428TIP3   OH219247   5.984   0.442   0.669 -0.0619  0.5688  0.4994
 6428TIP3    H119248   5.960   0.434   0.761 -1.0728 -1.4138  0.0990
 6428TIP3    H219249   6.063   0.389   0.660  0.0360  0.7606  0.2220
 6429TIP3   OH219250   6.777   1.904   3.973  0.5268  0.5307  0.7162
 6429TIP3    H119251   6.697   1.907   3.921  0.7197  1.7116  0.4515
 6429TIP3    H219252   6.826   1.983   3.947  2.3879 -0.8288 -0.1108
 6430TIP3   OH219253   0.523   3.130   5.102  0.0428 -0.2827 -0.0990
 6430TIP3    H119254   0.428   3.138   5.089 -0.1347 -2.2591 -0.2202
 6430TIP3    H219255   0.547   3.211   5.148 -1.7349  0.1522  0.1437
 6431TIP3   OH219256   2.113   6.459   4.802  0.3203  0.3809  0.2203
 6431TIP3    H119257   2.115   6.469   4.707  0.2996  1.4492  0.3257
 6431TIP3    H219258   2.202   6.434   4.825  0.3617  0.2633 -0.0547
 6432TIP3   OH219259   4.419   3.039   4.460  0.0888 -0.0555  0.0468
 6432TIP3    H119260   4.489   3.080   4.510 -0.7818  1.7025 -0.0797
 6432TIP3    H219261   4.392   2.964   4.513  0.9119  0.2523  0.9361
 6433TIP3   OH219262   4.868   2.877   1.450  0.5763 -0.0955 -0.4951
 6433TIP3    H119263   4.846   2.825   1.527  0.0855  0.7891 -0.0234
 6433TIP3    H219264   4.904   2.958   1.485  1.6587 -0.2338 -1.2236
 6434TIP3   OH219265   3.464   1.251   3.474 -0.6430  0.6433 -0.1564
 6434TIP3    H119266   3.522   1.300   3.415 -0.8487  1.5188  0.3517
 6434TIP3    H219267   3.424   1.184   3.418 -1.0813  1.6502 -1.0923
 6435TIP3   OH219268   0.152   1.704   1.544  0.2419 -0.2987 -0.1984
 6435TIP3    H119269   0.134   1.725   1.453  1.0250  0.4521 -0.1956
 6435TIP3    H219270   0.142   1.609   1.550 -2.4862 -0.0959 -0.4392
 6436TIP3   OH219271   5.411   1.245   0.479  0.5331  0.0973  0.2824
 6436TIP3    H119272   5.468   1.169   0.468 -2.0406 -1.7046 -1.7797
 6436TIP3    H219273   5.381   1.239   0.570 -1.3959 -2.8523 -0.4109
 6437TIP3   OH219274   1.163   0.034   1.728  0.2168 -0.6630  0.5533
 6437TIP3    H119275   1.226   0.105   1.739  0.1951 -0.7134  0.9957
 6437TIP3    H219276   1.083   0.078   1.698  0.7431 -0.7019 -0.9929
 6438TIP3   OH219277   4.375   3.928   1.312 -0.3443  0.1539  0.0293
 6438TIP3    H119278   4.350   3.974   1.392 -0.8057  0.0359 -0.0416
 6438TIP3    H219279   4.434   3.988   1.267  1.4378 -0.5185  1.3342
 6439TIP3   OH219280   2.253   3.272   3.861 -0.0689 -0.1166  0.0612
 6439TIP3    H119281   2.280   3.325   3.786  1.8954 -0.0889  0.7211
 6439TIP3    H219282   2.158   3.265   3.853 -0.0208  0.7863 -1.8154
 6440TIP3   OH219283   4.417   6.051   1.521 -0.5255  0.0249 -0.0375
 6440TIP3    H119284   4.377   5.972   1.555  0.1139  0.5211  1.9803
 6440TIP3    H219285   4.492   6.021   1.470 -1.4396 -0.7272 -0.9781
 6441TIP3   OH219286   6.082   5.765   0.213 -0.1728 -0.1256  1.0875
 6441TIP3    H119287   6.175   5.788   0.211  0.1301 -1.1725  2.0156
 6441TIP3    H219288   6.047   5.814   0.287 -0.8859  1.9905 -0.5644
 6442TIP3   OH219289   5.137   3.534   0.667 -0.0750 -0.3870 -0.1503
 6442TIP3    H119290   5.161   3.500   0.581 -1.7114 -1.1975 -0.3382
 6442TIP3    H219291   5.114   3.456   0.718  1.0237  0.0694  1.1021
 6443TIP3   OH219292   0.461   5.669   4.952 -0.8490 -0.3380 -0.2032
 6443TIP3    H119293   0.429   5.649   5.040 -1.8749 -0.6950 -0.6470
 6443TIP3    H219294   0.391   5.722   4.912  0.1391  0.8717 -0.3883
 6444TIP3   OH219295   4.293   3.651   1.195  0.2113 -0.3163 -0.4416
 6444TIP3    H119296   4.309   3.704   1.272 -1.2793  0.6407 -0.7616
 6444TIP3    H219297   4.349   3.690   1.127  0.9789 -0.7176 -0.0559
 6445TIP3   OH219298   2.822   3.702   4.957  0.4823 -0.3330 -0.2015
 6445TIP3    H119299   2.822   3.652   5.039 -0.6860 -2.4249 -1.3783
 6445TIP3    H219300   2.751   3.765   4.967  1.7901  0.9924  1.2058
 6446TIP3   OH219301   3.434   4.820   5.451  0.2174 -0.9938 -0.6111
 6446TIP3    H119302   3.419   4.767   5.529  2.3826  1.2710  1.5198
 6446TIP3    H219303   3.367   4.889   5.456  1.4193  0.1513  0.2814
 6447TIP3   OH219304   2.547   6.506   3.725 -0.7052  0.1332  0.0429
 6447TIP3    H119305   2.499   6.424   3.716 -0.4486  0.2051 -3.0790
 6447TIP3    H219306   2.481   6.574   3.712 -0.3872  0.3271 -0.5788
 6448TIP3   OH219307   1.945   1.664   1.421  0.6147 -0.5163 -0.3978
 6448TIP3    H119308   1.913   1.575   1.407 -0.4190 -0.1847 -0.2453
 6448TIP3    H219309   1.899   1.694   1.499  0.4089  0.3913 -0.8496
 6449TIP3   OH219310   6.137   4.799   5.021  0.5127  0.1758 -0.1515
 6449TIP3    H119311   6.155   4.798   5.115 -0.5290  1.0565  0.0762
 6449TIP3    H219312   6.136   4.706   4.996  0.1459 -0.1072  0.8437
 6450TIP3   OH219313   2.930   6.201   2.857  0.1189 -0.0535 -0.4301
 6450TIP3    H119314   3.015   6.206   2.813  0.0944 -0.8934 -0.5879
 6450TIP3    H219315   2.891   6.288   2.844  0.8565  0.2718 -0.5418
 6451TIP3   OH219316   4.564   1.835   1.994 -0.0609  0.4439  0.0101
 6451TIP3    H119317   4.633   1.771   2.011  1.2673  1.0307 -2.6627
 6451TIP3    H219318   4.541   1.869   2.081  0.5484 -2.2134  1.3131
 6452TIP3   OH219319   5.347   5.782   1.413 -0.5280  0.0952 -0.1475
 6452TIP3    H119320   5.390   5.698   1.398  0.2520  0.8754 -2.9396
 6452TIP3    H219321   5.416   5.838   1.450 -0.4649  0.0651 -0.2197
 6453TIP3   OH219322   3.421   5.150   1.887  0.0563  0.4434  0.3450
 6453TIP3    H119323   3.479   5.108   1.951  0.1398 -0.1397 -0.1075
 6453TIP3    H219324   3.404   5.237   1.924  1.3050  0.6729  0.4219
 6454TIP3   OH219325   0.209   1.160   1.596 -0.9786  0.5407 -0.3302
 6454TIP3    H119326   0.154   1.082   1.599 -0.1216 -0.1383 -1.3518
 6454TIP3    H219327   0.242   1.169   1.685 -2.5041  0.8111  0.2313
 6455TIP3   OH219328   7.031   2.408   2.669  0.1081  0.4696 -0.2129
 6455TIP3    H119329   7.111   2.429   2.621  2.3951 -1.6557  2.2966
 6455TIP3    H219330   7.009   2.488   2.716  0.8825  1.0527 -0.8320
 6456TIP3   OH219331   4.559   6.247   1.822 -0.2023 -0.5596 -0.2708
 6456TIP3    H119332   4.575   6.320   1.761 -0.9749 -0.8377 -0.8062
 6456TIP3    H219333   4.626   6.259   1.890  2.0861 -1.4447 -2.2214
 6457TIP3   OH219334   6.908   4.137   0.368  0.0373 -0.1612 -0.3906
 6457TIP3    H119335   6.889   4.230   0.376  1.6525  0.0809  1.6921
 6457TIP3    H219336   6.941   4.112   0.455  2.5435 -1.9384 -1.7061
 6458TIP3   OH219337   6.414   2.869   4.215  0.3203  0.0399 -0.2244
 6458TIP3    H119338   6.323   2.839   4.220  0.4993 -0.2469  2.3454
 6458TIP3    H219339   6.407   2.964   4.206 -0.3316  0.3113  2.3119
 6459TIP3   OH219340   7.133   1.109   5.024  0.0253  0.3162 -0.2173
 6459TIP3    H119341   7.216   1.151   5.044 -0.6930  1.1533  1.2016
 6459TIP3    H219342   7.144   1.018   5.052 -0.0764  0.8441  1.6748
 6460TIP3   OH219343   4.307   3.203   5.177  0.5183 -0.1025 -0.4557
 6460TIP3    H119344   4.382   3.230   5.124  1.0454  0.0894  0.3737
 6460TIP3    H219345   4.241   3.175   5.113  0.1822  2.4839 -1.3462
 6461TIP3   OH219346   6.811   6.819   5.451 -0.5090  0.3596  0.3979
 6461TIP3    H119347   6.768   6.779   5.527  1.5798 -1.5279  0.6877
 6461TIP3    H219348   6.905   6.813   5.470  0.0595  0.6591 -1.9502
 6462TIP3   OH219349   6.073   6.321   0.300 -0.0902  0.4980 -0.2034
 6462TIP3    H119350   6.050   6.276   0.219  0.9757 -0.0860 -0.2048
 6462TIP3    H219351   5.992   6.325   0.350 -0.7778  0.9460 -1.3309
 6463TIP3   OH219352   5.353   2.640   2.000 -0.3671 -0.0432  0.3410
 6463TIP3    H119353   5.396   2.726   1.999  1.6387 -0.9833  1.2559
 6463TIP3    H219354   5.339   2.622   2.093 -0.2231 -0.9620  0.1920
 6464TIP3   OH219355   0.233   4.931   4.790 -0.3946 -0.6617 -0.1470
 6464TIP3    H119356   0.168   4.861   4.792 -0.6682 -0.4669 -1.2902
 6464TIP3    H219357   0.212   4.986   4.866 -0.3364 -1.6680  0.6076
 6465TIP3   OH219358   6.954   0.910   2.825 -0.0696 -0.4681 -0.6007
 6465TIP3    H119359   7.012   0.973   2.867 -0.8766  0.4713 -0.8330
 6465TIP3    H219360   6.867   0.950   2.833 -0.4068 -0.8606 -2.0372
 6466TIP3   OH219361   0.126   4.707   3.195  0.3579  0.1197 -0.2085
 6466TIP3    H119362   0.187   4.766   3.152 -0.3947  1.3579  0.3872
 6466TIP3    H219363   0.056   4.763   3.227  0.1123 -0.9532  1.2611
 6467TIP3   OH219364   4.360   2.032   4.710 -0.5472  0.6092 -0.2973
 6467TIP3    H119365   4.443   1.995   4.679 -1.0579  0.7757 -1.9413
 6467TIP3    H219366   4.319   2.069   4.632 -0.8521  3.1694  0.9755
 6468TIP3   OH219367   3.210   1.898   5.772 -0.2051 -0.2401  0.1415
 6468TIP3    H119368   3.193   1.992   5.777 -1.3237 -0.4506  0.4607
 6468TIP3    H219369   3.292   1.886   5.821  0.3696  0.6612 -0.5563
 6469TIP3   OH219370   3.637   2.101   2.607 -0.0062  0.0526 -0.7487
 6469TIP3    H119371   3.625   2.159   2.683 -2.4099 -2.1762  0.7267
 6469TIP3    H219372   3.722   2.058   2.623 -0.7600 -0.8579  1.1022
 6470TIP3   OH219373   4.854   1.056   0.889 -0.6596  0.2853  0.4805
 6470TIP3    H119374   4.869   1.060   0.984  0.4027 -0.6343  0.3762
 6470TIP3    H219375   4.932   1.096   0.851 -1.7193  1.9693 -0.0085
 6471TIP3   OH219376   0.521   4.514   0.853 -0.1424  0.5731 -0.2138
 6471TIP3    H119377   0.565   4.533   0.770 -0.4884 -1.0139 -0.8028
 6471TIP3    H219378   0.589   4.523   0.919  0.6292 -0.0447 -0.9050
 6472TIP3   OH219379   1.949   2.845   0.393 -0.7288 -0.2519 -0.1768
 6472TIP3    H119380   1.890   2.819   0.464  2.2784 -0.3196  2.5346
 6472TIP3    H219381   1.932   2.939   0.382 -1.1498 -0.1982  0.7881
 6473TIP3   OH219382   3.509   6.328   1.567  0.3496 -0.1568 -0.3628
 6473TIP3    H119383   3.591   6.287   1.539  0.1568 -0.4489 -0.5072
 6473TIP3    H219384   3.461   6.343   1.485 -0.7565 -2.1380 -0.1538
 6474TIP3   OH219385   3.778   0.311   3.264  0.0965 -0.3902  0.0830
 6474TIP3    H119386   3.718   0.286   3.194 -1.3982 -0.0397  1.1893
 6474TIP3    H219387   3.841   0.369   3.222 -0.6439 -0.3471 -1.0049
 6475TIP3   OH219388   1.373   0.300   0.162 -0.3084 -0.0360 -0.0827
 6475TIP3    H119389   1.407   0.287   0.250  2.5581 -3.2451 -1.4219
 6475TIP3    H219390   1.282   0.269   0.166 -1.0789  2.2059  2.1434
 6476TIP3   OH219391   3.770   0.961   0.289 -0.1107  0.4619  0.0235
 6476TIP3    H119392   3.717   1.008   0.354  0.1580 -0.6841  1.0946
 6476TIP3    H219393   3.851   1.011   0.285  0.1288  0.1925  1.0707
 6477TIP3   OH219394   0.258   2.324   0.643 -0.2737 -0.0911  0.1165
 6477TIP3    H119395   0.256   2.244   0.696  1.0171  0.6356  1.3524
 6477TIP3    H219396   0.340   2.367   0.669  0.6717  0.1134 -2.8127
 6478TIP3   OH219397   5.225   3.121   5.059  0.2569 -0.3320 -0.1204
 6478TIP3    H119398   5.259   3.170   4.984 -0.7359  1.4427  0.5235
 6478TIP3    H219399   5.294   3.059   5.082  1.5054  0.6666 -1.0767
 6479TIP3   OH219400   3.194   1.827   1.655 -0.4137 -0.2078  0.2658
 6479TIP3    H119401   3.270   1.858   1.705 -0.6193  0.8629 -0.0627
 6479TIP3    H219402   3.165   1.749   1.703 -0.0725  0.2872  1.3263
 6480TIP3   OH219403   3.024   6.591   2.538  0.1380 -0.4427  0.2688
 6480TIP3    H119404   3.009   6.686   2.533 -1.5530 -0.7402 -1.1130
 6480TIP3    H219405   3.091   6.574   2.472 -1.7978 -0.5551 -1.7962
 6481TIP3   OH219406   0.937   6.127   2.230  0.1202  0.1724 -0.3731
 6481TIP3    H119407   0.850   6.086   2.232 -0.2102  0.7528 -1.6959
 6481TIP3    H219408   0.998   6.054   2.245 -0.6093 -0.0032  2.2141
 6482TIP3   OH219409   6.989   3.267   4.430 -0.3987  0.4633  0.6176
 6482TIP3    H119410   6.972   3.174   4.443 -0.7832  0.6281  1.3458
 6482TIP3    H219411   7.073   3.270   4.385  0.1108 -0.2145  1.4844
 6483TIP3   OH219412   0.279   5.750   3.316  0.1998 -0.1553 -0.5191
 6483TIP3    H119413   0.249   5.704   3.237 -2.5969 -1.3354  1.0954
 6483TIP3    H219414   0.205   5.803   3.343  0.4380 -1.0638  2.2005
 6484TIP3   OH219415   5.205   6.569   4.433 -0.4642 -0.2629 -0.7549
 6484TIP3    H119416   5.248   6.483   4.428 -0.5117 -0.3253 -0.1994
 6484TIP3    H219417   5.262   6.627   4.384 -0.1620 -0.5106 -0.7023
 6485TIP3   OH219418   0.208   4.565   5.134  0.0387  0.3626  0.2939
 6485TIP3    H119419   0.219   4.591   5.043 -2.4454 -2.3317 -0.9561
 6485TIP3    H219420   0.295   4.537   5.162  0.4145 -1.2325 -2.1780
 6486TIP3   OH219421   1.096   6.516   4.411  0.3340  0.1474 -0.1029
 6486TIP3    H119422   1.090   6.498   4.317 -1.3050  1.5458 -0.3252
 6486TIP3    H219423   1.188   6.503   4.432  0.3328 -2.6313 -1.3501
 6487TIP3   OH219424   5.705   3.320   0.523  0.9123  0.0422  0.2956
 6487TIP3    H119425   5.762   3.363   0.459  0.2588  0.7005  0.1431
 6487TIP3    H219426   5.617   3.354   0.503  1.0889  3.3453  3.9177
 6488TIP3   OH219427   2.518   2.566   3.657  0.2461 -0.3825  0.0964
 6488TIP3    H119428   2.478   2.573   3.743  1.2880  1.5978  0.4778
 6488TIP3    H219429   2.600   2.518   3.672  1.0416  1.0572  0.4618
 6489TIP3   OH219430   6.154   2.762   4.180 -0.2762  0.3363 -0.0184
 6489TIP3    H119431   6.095   2.831   4.149 -1.4245  0.3358  1.9929
 6489TIP3    H219432   6.118   2.681   4.143  1.1900  0.7163 -2.5554
 6490TIP3   OH219433   6.477   0.782   2.855  0.0701 -0.5078 -0.8102
 6490TIP3    H119434   6.512   0.765   2.942  0.5377 -1.0868 -1.1015
 6490TIP3    H219435   6.383   0.764   2.863  0.3671 -2.2812 -0.8285
 6491TIP3   OH219436   3.809   0.242   0.236  0.4994 -0.0209 -0.1082
 6491TIP3    H119437   3.746   0.169   0.238 -0.4429  0.7528  1.7655
 6491TIP3    H219438   3.865   0.223   0.161 -0.2039 -2.2475 -0.1695
 6492TIP3   OH219439   5.710   5.206   5.096 -0.0783  0.4346  0.4001
 6492TIP3    H119440   5.771   5.143   5.057 -0.6999  0.2995 -0.3629
 6492TIP3    H219441   5.752   5.291   5.082  0.7839  0.2158  1.4701
 6493TIP3   OH219442   3.041   4.302   2.232  0.1516  1.0953  0.0863
 6493TIP3    H119443   2.969   4.350   2.191 -0.8957 -1.0034 -0.6648
 6493TIP3    H219444   3.095   4.273   2.159 -0.3510 -0.5278  0.3189
 6494TIP3   OH219445   0.086   2.786   0.139  0.1236 -0.1769 -0.2849
 6494TIP3    H119446   0.001   2.766   0.101  0.3981 -0.0159 -1.0104
 6494TIP3    H219447   0.112   2.706   0.184 -0.1975 -0.3875 -0.4699
 6495TIP3   OH219448   1.644   3.672   0.655  0.7649  0.6084  0.5561
 6495TIP3    H119449   1.705   3.692   0.584 -0.0593 -3.5778 -1.7019
 6495TIP3    H219450   1.673   3.587   0.689 -2.8981 -1.0024  0.2018
 6496TIP3   OH219451   5.832   4.002   2.300  0.1554 -0.0948  0.0135
 6496TIP3    H119452   5.879   4.049   2.231 -0.4219 -0.1810 -0.4505
 6496TIP3    H219453   5.748   3.978   2.260  0.0175 -0.5982  0.5820
 6497TIP3   OH219454   1.365   1.493   4.677 -0.1053 -0.1464 -0.0247
 6497TIP3    H119455   1.321   1.574   4.700 -0.0032 -0.4157  1.1693
 6497TIP3    H219456   1.435   1.520   4.617 -1.4307  0.3602 -1.4152
 6498TIP3   OH219457   1.083   6.655   3.500  0.6113 -0.2349  0.3411
 6498TIP3    H119458   1.027   6.594   3.451 -0.8619  1.6824 -0.5439
 6498TIP3    H219459   1.028   6.684   3.572  0.3781  1.7100 -0.5528
 6499TIP3   OH219460   3.225   6.519   0.896 -0.1462  0.4923 -0.2746
 6499TIP3    H119461   3.211   6.545   0.805  0.9972  0.8733 -0.3592
 6499TIP3    H219462   3.309   6.473   0.894  0.1933  1.0593  0.6947
 6500TIP3   OH219463   6.977   6.621   2.013 -0.0497 -0.1968 -0.0509
 6500TIP3    H119464   6.949   6.695   1.959  0.0247 -0.7974 -0.9349
 6500TIP3    H219465   6.977   6.655   2.102  1.1998  1.2414 -0.5511
 6501TIP3   OH219466   0.250   2.187   2.010  0.4933 -0.4013  0.3204
 6501TIP3    H119467   0.220   2.273   2.040  1.3299  0.4751 -1.2011
 6501TIP3    H219468   0.260   2.135   2.090  2.3015  1.6761  1.5639
 6502TIP3   OH219469   1.042   0.874   0.419  0.0002  0.4314 -0.1286
 6502TIP3    H119470   1.006   0.903   0.335  0.7241 -0.3761 -0.7374
 6502TIP3    H219471   1.113   0.814   0.395  0.6398  0.6818  1.0583
 6503TIP3   OH219472   5.454   3.100   0.026 -0.2876 -0.1572 -0.2007
 6503TIP3    H119473   5.478   3.158  -0.045 -3.5693 -0.5721 -1.8476
 6503TIP3    H219474   5.392   3.150   0.078  0.1435 -0.7369  0.9107
 6504TIP3   OH219475   2.031   5.253   0.420 -0.0164  0.0690 -0.5447
 6504TIP3    H119476   2.006   5.320   0.356  0.9583  0.6711 -0.3191
 6504TIP3    H219477   1.949   5.212   0.445 -0.3320 -0.7901 -2.8311
 6505TIP3   OH219478   6.195   4.955   4.544 -0.1783 -0.3280 -0.0808
 6505TIP3    H119479   6.169   4.988   4.630  1.3286  1.1643 -0.1364
 6505TIP3    H219480   6.230   5.032   4.499 -0.7203 -1.1175 -1.9621
 6506TIP3   OH219481   0.221   0.014   4.780 -0.3017  0.2499 -0.0416
 6506TIP3    H119482   0.172  -0.049   4.728 -0.2122  0.0265  0.1406
 6506TIP3    H219483   0.296   0.038   4.725 -1.5439  1.9632 -1.0668
 6507TIP3   OH219484   1.514   4.591   1.933 -0.2195 -0.8878 -0.1229
 6507TIP3    H119485   1.470   4.665   1.976  0.6623 -1.2484  1.5030
 6507TIP3    H219486   1.533   4.622   1.845 -1.1485  0.2978  0.0646
 6508TIP3   OH219487   6.477   0.868   5.369 -0.2637  0.0943 -0.6440
 6508TIP3    H119488   6.547   0.889   5.307 -0.4888 -1.8410 -1.6312
 6508TIP3    H219489   6.434   0.952   5.387  0.2553  0.8101 -2.5505
 6509TIP3   OH219490   5.347   3.407   2.642 -0.1275 -0.1233  0.4487
 6509TIP3    H119491   5.394   3.450   2.571  0.1962  0.9884  1.3150
 6509TIP3    H219492   5.350   3.469   2.715 -2.2918 -0.3520  0.7771
 6510TIP3   OH219493   4.431   4.709   2.485 -0.1414 -0.2055  0.0287
 6510TIP3    H119494   4.447   4.640   2.421 -1.9100 -0.9305  0.3047
 6510TIP3    H219495   4.471   4.788   2.447  1.9171 -1.3299 -0.2917
 6511TIP3   OH219496   0.816   2.903   3.137  0.0535 -0.7039 -0.3945
 6511TIP3    H119497   0.781   2.865   3.218  0.1649  2.4371  1.2755
 6511TIP3    H219498   0.766   2.984   3.125 -0.4847 -1.3932 -3.9806
 6512TIP3   OH219499   5.647   3.056   2.370  0.0971 -0.2296 -0.1291
 6512TIP3    H119500   5.595   3.060   2.450  0.2468 -1.0313  0.0151
 6512TIP3    H219501   5.639   2.965   2.341  2.6667 -0.7909  0.7359
 6513TIP3   OH219502   1.070   2.726   0.320  0.5331 -0.0172 -0.0352
 6513TIP3    H119503   1.094   2.775   0.242  0.5575 -0.7831 -0.5182
 6513TIP3    H219504   1.126   2.762   0.389 -0.4228  1.5755 -0.0541
 6514TIP3   OH219505   2.667   5.359   3.652 -0.3097  0.2547  0.4824
 6514TIP3    H119506   2.710   5.344   3.568  1.3311  1.1424  1.1196
 6514TIP3    H219507   2.580   5.321   3.642  0.1504 -0.3963 -1.3249
 6515TIP3   OH219508   2.803   4.484   3.752 -0.0674  0.0282  0.3316
 6515TIP3    H119509   2.885   4.504   3.705 -0.1326 -0.1132  0.1557
 6515TIP3    H219510   2.830   4.471   3.843 -0.0242  0.9605  0.4671
 6516TIP3   OH219511   2.440   2.817   3.928 -0.0518 -0.0624  0.6994
 6516TIP3    H119512   2.419   2.898   3.882 -0.3509  0.1516  1.1987
 6516TIP3    H219513   2.356   2.789   3.965 -0.6381 -2.2049 -1.9257
 6517TIP3   OH219514   2.421   6.699   2.210 -0.6012 -0.3934  0.2453
 6517TIP3    H119515   2.507   6.741   2.202 -1.5302  1.2749 -1.7814
 6517TIP3    H219516   2.411   6.650   2.129 -2.2397  0.8455 -0.3482
 6518TIP3   OH219517   6.677   1.659   2.941 -0.0989 -0.8892  0.3017
 6518TIP3    H119518   6.697   1.577   2.897  1.0290 -1.0918  1.1446
 6518TIP3    H219519   6.581   1.660   2.947 -0.2013 -1.4821 -0.9108
 6519TIP3   OH219520   0.256   6.662   0.258 -0.2003  0.1941 -0.0332
 6519TIP3    H119521   0.284   6.612   0.335  0.7164  0.2758 -0.3077
 6519TIP3    H219522   0.160   6.663   0.264 -0.1588 -0.1910  0.8585
 6520TIP3   OH219523   2.735   6.201   2.031 -0.2542 -0.0711  0.3750
 6520TIP3    H119524   2.764   6.227   1.943  1.2147 -1.1506  0.4971
 6520TIP3    H219525   2.649   6.163   2.018 -1.0030  1.7306 -0.2646
 6521TIP3   OH219526   3.176   4.082   5.610 -0.2204 -0.5366 -0.3458
 6521TIP3    H119527   3.121   4.039   5.675 -0.8347  1.1741  0.3344
 6521TIP3    H219528   3.185   4.018   5.539 -1.8510 -1.4019  0.1910
 6522TIP3   OH219529   4.742   0.740   5.213  0.5306  0.5344  0.1308
 6522TIP3    H119530   4.698   0.814   5.172 -0.4676  0.0350  0.2738
 6522TIP3    H219531   4.832   0.770   5.227  0.6734  1.0197 -1.6264
 6523TIP3   OH219532   0.815   2.095   5.215 -0.2391 -0.1117  0.4046
 6523TIP3    H119533   0.901   2.053   5.222  0.5486  1.3224 -0.1679
 6523TIP3    H219534   0.779   2.062   5.133 -0.4773 -1.0775  0.8713
 6524TIP3   OH219535   6.309   6.469   2.782  0.2690  0.4643  0.2396
 6524TIP3    H119536   6.346   6.557   2.786 -0.2046  0.7713 -1.5186
 6524TIP3    H219537   6.298   6.444   2.874  0.0893  2.3653  0.7751
 6525TIP3   OH219538   4.983   5.003   2.686  0.4455 -0.3230 -0.4515
 6525TIP3    H119539   4.989   5.052   2.605  0.7173  0.1870 -0.1271
 6525TIP3    H219540   4.997   5.068   2.755  1.9483 -1.0350 -0.0459
 6526TIP3   OH219541   7.185   6.662   0.786  0.1646 -0.1396 -0.0622
 6526TIP3    H119542   7.203   6.683   0.877 -1.1216  0.5453  0.0599
 6526TIP3    H219543   7.122   6.590   0.790 -1.7962  1.4607 -0.3071
 6527TIP3   OH219544   0.822   1.928   2.713 -0.2141  0.5118  0.4878
 6527TIP3    H119545   0.914   1.906   2.698  0.1816  2.4708 -0.2642
 6527TIP3    H219546   0.779   1.905   2.631  0.2207  2.5014 -0.3437
 6528TIP3   OH219547   5.265   2.859   5.783  0.4066  0.2382  0.4582
 6528TIP3    H119548   5.233   2.949   5.790 -0.8410 -0.2491  1.4011
 6528TIP3    H219549   5.211   2.819   5.714  1.3110  0.3443 -0.3269
 6529TIP3   OH219550   4.738   2.525   1.335  0.1654  0.4319 -0.7522
 6529TIP3    H119551   4.705   2.473   1.262 -1.3401  1.9726 -1.2224
 6529TIP3    H219552   4.742   2.615   1.302 -1.5867  1.3694  1.3306
 6530TIP3   OH219553   3.972   1.294   1.791 -0.5232  0.4330  0.1505
 6530TIP3    H119554   3.942   1.207   1.817  2.0240  0.0289  2.2138
 6530TIP3    H219555   3.917   1.354   1.842  1.3441 -0.2657  3.3235
 6531TIP3   OH219556   4.908   3.764   5.317 -0.2476 -0.5842 -0.2851
 6531TIP3    H119557   4.871   3.826   5.379 -1.1796  0.7127 -2.0415
 6531TIP3    H219558   4.920   3.684   5.367  0.1188  0.7093  1.8298
 6532TIP3   OH219559   4.194   0.289   3.923 -0.5478  0.1242  0.2527
 6532TIP3    H119560   4.182   0.330   3.838  1.8266  1.8186  0.6367
 6532TIP3    H219561   4.278   0.322   3.954 -1.9544  0.7200  3.8999
 6533TIP3   OH219562   5.417   0.090   4.364  0.0349 -0.2880 -0.5003
 6533TIP3    H119563   5.500   0.065   4.324 -0.1715  0.1925 -1.2407
 6533TIP3    H219564   5.361   0.013   4.355  0.2739 -0.4849 -0.3316
 6534TIP3   OH219565   2.526   2.010   0.109  0.6425  0.1950  0.0428
 6534TIP3    H119566   2.513   2.102   0.088  0.6244 -0.1493 -1.5545
 6534TIP3    H219567   2.590   1.979   0.045 -0.1524 -1.1645 -0.1403
 6535TIP3   OH219568   6.799   5.652   5.123 -0.2478  0.6709 -0.5464
 6535TIP3    H119569   6.824   5.573   5.075  0.5272  0.2144  0.5888
 6535TIP3    H219570   6.882   5.694   5.146 -0.6357  1.4467 -0.5218
 6536TIP3   OH219571   4.477   5.107   1.602 -0.4237  0.8062 -0.2452
 6536TIP3    H119572   4.511   5.185   1.558 -0.4691  0.5887 -0.6688
 6536TIP3    H219573   4.537   5.037   1.577 -0.8081  0.5552 -0.4786
 6537TIP3   OH219574   5.213   1.362   0.331 -0.3532 -0.1319  0.5213
 6537TIP3    H119575   5.263   1.443   0.326 -0.2377 -0.2483 -0.2307
 6537TIP3    H219576   5.262   1.308   0.393  0.1059 -0.0031  0.2738
 6538TIP3   OH219577   0.051   3.378   4.549  0.0230  0.1441  0.7840
 6538TIP3    H119578   0.101   3.370   4.630 -0.8297 -2.1567  1.1364
 6538TIP3    H219579   0.057   3.292   4.508 -1.7144  0.5008 -0.3342
 6539TIP3   OH219580   6.836   6.715   4.596  0.4089 -0.1286  0.3816
 6539TIP3    H119581   6.782   6.643   4.563  2.7601 -2.1163  0.5969
 6539TIP3    H219582   6.888   6.743   4.521  0.3030  0.6406  0.5813
 6540TIP3   OH219583   2.283   1.312   3.928  0.1183  1.0574  0.1650
 6540TIP3    H119584   2.324   1.310   4.015  0.2580  0.2702  0.0862
 6540TIP3    H219585   2.355   1.329   3.868  0.6794 -1.8175 -0.1335
 6541TIP3   OH219586   6.953   1.608   2.006 -0.2208 -0.3347 -0.4747
 6541TIP3    H119587   6.918   1.577   1.923 -0.0841 -0.3407 -0.5296
 6541TIP3    H219588   6.877   1.608   2.065 -0.0703 -1.5835 -0.2429
 6542TIP3   OH219589   4.027   6.009   0.371 -0.2416 -0.4656 -0.0235
 6542TIP3    H119590   4.074   6.000   0.454  0.3329  0.8779 -0.1737
 6542TIP3    H219591   3.943   6.048   0.395 -1.6960 -3.5050  0.3321
 6543TIP3   OH219592   2.881   1.458   5.070  0.4183  0.0403 -0.7168
 6543TIP3    H119593   2.842   1.381   5.111 -1.5525  1.5466  0.4558
 6543TIP3    H219594   2.841   1.463   4.983 -2.1987  1.5519  0.4649
 6544TIP3   OH219595   0.105   6.155   3.085 -0.3999 -0.4669  0.4740
 6544TIP3    H119596   0.087   6.185   3.174  1.1043  1.5202  0.1800
 6544TIP3    H219597   0.060   6.219   3.029 -1.8261 -2.0273 -0.2436
 6545TIP3   OH219598   2.549   0.018   5.168 -0.3667  0.3449 -0.2003
 6545TIP3    H119599   2.583  -0.070   5.186 -1.6075  0.0793  1.0436
 6545TIP3    H219600   2.616   0.059   5.115 -0.3375 -1.8104 -2.0023
 6546TIP3   OH219601   6.095   0.015   1.344 -0.1103  0.1101  0.0962
 6546TIP3    H119602   6.005  -0.015   1.358 -0.0782  0.1240  0.3278
 6546TIP3    H219603   6.103   0.022   1.249 -0.3402  0.0645  0.0732
 6547TIP3   OH219604   1.771   3.741   4.028  0.2707  0.0699  0.0789
 6547TIP3    H119605   1.737   3.739   4.118 -2.9368 -2.3245 -0.9950
 6547TIP3    H219606   1.764   3.833   4.002 -3.7805  0.1427  0.7288
 6548TIP3   OH219607   3.093   4.537   5.014 -0.3902  0.1190  0.1235
 6548TIP3    H119608   3.041   4.580   4.946 -1.1169  1.0071  1.2026
 6548TIP3    H219609   3.033   4.475   5.055 -0.4213  0.6574  0.9218
 6549TIP3   OH219610   5.495   6.065   4.489  0.1621  0.4744 -0.0415
 6549TIP3    H119611   5.547   6.053   4.409 -0.3799  0.9221 -0.4680
 6549TIP3    H219612   5.405   6.074   4.458  0.0763  1.7692  0.5285
 6550TIP3   OH219613   0.991   2.320   3.710  0.1780  0.5120 -0.2689
 6550TIP3    H119614   1.083   2.304   3.689  0.1431 -0.4452  0.2264
 6550TIP3    H219615   0.992   2.385   3.780  0.4532  0.9240 -0.6582
 6551TIP3   OH219616   2.980   0.830   2.075  0.1608 -0.4672 -0.0416
 6551TIP3    H119617   3.065   0.789   2.061  2.4037  2.7429  2.6602
 6551TIP3    H219618   2.962   0.816   2.168 -1.9781 -0.4571 -0.4064
 6552TIP3   OH219619   0.252   6.351   4.553 -0.2500 -0.4926  0.1594
 6552TIP3    H119620   0.202   6.403   4.491 -2.5409 -0.9456  1.5028
 6552TIP3    H219621   0.340   6.389   4.551 -1.2152  1.8880 -0.5898
 6553TIP3   OH219622   4.564   4.112   4.828 -0.1918 -0.2154 -0.1064
 6553TIP3    H119623   4.580   4.118   4.923 -0.7676  0.9126 -0.0574
 6553TIP3    H219624   4.511   4.189   4.809 -1.3648 -1.2272 -1.0862
 6554TIP3   OH219625   3.385   1.081   4.057 -0.5502 -0.2091  0.2077
 6554TIP3    H119626   3.363   1.170   4.086  0.9254  0.7273 -1.3216
 6554TIP3    H219627   3.441   1.047   4.126 -0.3723  0.4170  0.3786
 6555TIP3   OH219628   7.124   1.311   1.070  0.4101  0.1410  0.2683
 6555TIP3    H119629   7.195   1.305   1.006 -0.6395 -1.5524 -0.8141
 6555TIP3    H219630   7.113   1.222   1.103 -0.3953  0.6126  1.3578
 6556TIP3   OH219631   7.249   1.541   3.843 -0.0742 -0.6572 -0.2764
 6556TIP3    H119632   7.187   1.567   3.910  1.2406 -1.0974  1.1747
 6556TIP3    H219633   7.196   1.501   3.774 -1.3897 -0.8425  0.8169
 6557TIP3   OH219634   3.290   4.062   4.807  0.0246  0.4520 -0.1633
 6557TIP3    H119635   3.196   4.074   4.793 -0.0059  0.0190 -0.3196
 6557TIP3    H219636   3.302   3.968   4.814  0.2851  0.5496  1.0107
 6558TIP3   OH219637   2.353   2.430   1.975  0.3270  0.3580 -0.0810
 6558TIP3    H119638   2.448   2.439   1.982  0.1847  2.2773 -0.0136
 6558TIP3    H219639   2.324   2.423   2.066  0.4617 -1.3522 -0.1456
 6559TIP3   OH219640   3.291   4.415   4.231 -0.0136  0.1283 -0.3421
 6559TIP3    H119641   3.259   4.457   4.152 -1.9512  0.3155  0.5001
 6559TIP3    H219642   3.275   4.322   4.217  0.7646  0.0277 -0.6381
 6560TIP3   OH219643   3.407   3.611   1.525  0.0834  0.5631 -0.0656
 6560TIP3    H119644   3.500   3.635   1.530  0.1940  0.0779  0.3135
 6560TIP3    H219645   3.372   3.638   1.610 -0.4032  1.8592 -0.6545
 6561TIP3   OH219646   0.599   1.251   0.632  0.8794  0.7258  0.2507
 6561TIP3    H119647   0.517   1.234   0.586 -0.1980 -0.2195  2.3776
 6561TIP3    H219648   0.652   1.301   0.570 -1.0882  0.8980 -1.3765
 6562TIP3   OH219649   4.706   5.558   1.258  0.3049 -0.2907 -0.5245
 6562TIP3    H119650   4.721   5.553   1.164 -0.5660  1.1091 -0.7589
 6562TIP3    H219651   4.769   5.622   1.290 -0.3409  0.2855 -0.3881
 6563TIP3   OH219652   4.568   2.116   3.335  0.2525  0.2055  0.3336
 6563TIP3    H119653   4.638   2.180   3.328  1.2821 -0.9286 -0.0601
 6563TIP3    H219654   4.539   2.121   3.426  1.1733  0.3416  0.6219
 6564TIP3   OH219655   2.089   0.328   2.879  0.6839 -0.1592  0.2008
 6564TIP3    H119656   2.071   0.390   2.949 -1.4395 -1.3395  0.7961
 6564TIP3    H219657   2.006   0.319   2.832  1.2230 -1.6771 -0.5486
 6565TIP3   OH219658   3.691   6.040   0.728  0.3804  0.3031  0.1173
 6565TIP3    H119659   3.642   6.054   0.809  0.5431 -0.2242  0.3141
 6565TIP3    H219660   3.781   6.024   0.756  0.2072 -1.1551 -0.0607
 6566TIP3   OH219661   4.830   4.944   0.838  0.5630 -0.2580 -0.0844
 6566TIP3    H119662   4.807   5.004   0.768 -2.9364 -1.2016  0.0759
 6566TIP3    H219663   4.859   5.000   0.910  0.3393  0.9919 -0.9364
 6567TIP3   OH219664   4.250   1.287   1.779 -0.3348 -0.0636 -0.2122
 6567TIP3    H119665   4.280   1.366   1.734  0.3647  0.0928  0.5098
 6567TIP3    H219666   4.155   1.285   1.763 -0.8184  2.3126  1.8198
 6568TIP3   OH219667   6.869   2.914   5.817  0.4716  0.3353  0.4774
 6568TIP3    H119668   6.774   2.902   5.807  0.3182  1.0108  1.0716
 6568TIP3    H219669   6.900   2.938   5.730 -0.0899  1.2930  0.5340
 6569TIP3   OH219670   3.360   1.058   2.937  0.2599  0.3479 -0.2740
 6569TIP3    H119671   3.316   0.984   2.980  0.7624  0.3549  0.2663
 6569TIP3    H219672   3.387   1.023   2.852  0.7376 -0.1824  0.0861
 6570TIP3   OH219673   4.342   4.550   1.644 -0.1971 -0.5230  0.4552
 6570TIP3    H119674   4.374   4.566   1.555 -0.8480  0.4018  0.3712
 6570TIP3    H219675   4.254   4.516   1.632 -0.8676  1.0194  0.7488
 6571TIP3   OH219676   4.030   4.642   1.891 -0.1817  0.6201  0.2879
 6571TIP3    H119677   3.977   4.562   1.883 -0.4711  0.7141  1.1589
 6571TIP3    H219678   3.989   4.692   1.961  0.6684  1.0087  0.5321
 6572TIP3   OH219679   1.263   2.988   5.216 -0.2782 -0.1031  0.4296
 6572TIP3    H119680   1.266   3.079   5.245  0.5459 -0.1572  0.5399
 6572TIP3    H219681   1.170   2.968   5.211 -0.4681  0.7142  0.4999
 6573TIP3   OH219682   6.343   6.077   1.094 -0.3162 -0.5539 -0.3853
 6573TIP3    H119683   6.434   6.105   1.097 -0.2043 -0.9591  1.7826
 6573TIP3    H219684   6.300   6.128   1.164 -0.9858 -2.6868  0.8558
 6574TIP3   OH219685   5.829   3.357   1.811 -0.0264 -0.0085  0.2387
 6574TIP3    H119686   5.740   3.328   1.830  0.1734 -1.4285 -0.7992
 6574TIP3    H219687   5.864   3.386   1.895 -0.8298 -1.2606  1.0313
 6575TIP3   OH219688   0.126   2.742   4.289 -0.2656 -0.1464 -0.0959
 6575TIP3    H119689   0.210   2.714   4.325 -0.1381  0.1261 -0.1792
 6575TIP3    H219690   0.148   2.809   4.225 -0.5710  0.2350  0.1929
 6576TIP3   OH219691   1.366   1.596   1.301  0.4078 -0.0680 -0.0921
 6576TIP3    H119692   1.289   1.652   1.311  2.0777  2.3123  0.3337
 6576TIP3    H219693   1.359   1.533   1.372 -0.4676  0.9782  0.7942
 6577TIP3   OH219694   3.737   3.749   4.785 -0.8290  0.2535  0.2047
 6577TIP3    H119695   3.809   3.790   4.834  1.1353 -0.6588 -1.7577
 6577TIP3    H219696   3.730   3.661   4.821 -0.0235 -0.1009 -0.4709
 6578TIP3   OH219697   0.024   6.000   4.676 -0.5025 -0.2603  0.0498
 6578TIP3    H119698  -0.029   6.046   4.741  0.6195  1.5005 -0.2158
 6578TIP3    H219699   0.099   6.058   4.661 -0.1996 -1.0999 -2.0288
 6579TIP3   OH219700   1.897   2.289   5.554  0.0121 -0.0904  0.4042
 6579TIP3    H119701   1.890   2.385   5.560  0.8093  0.2112 -2.2341
 6579TIP3    H219702   1.814   2.257   5.588  0.3972  1.4015  2.9987
 6580TIP3   OH219703   3.722   5.492   0.964 -0.1183  0.2363 -0.7900
 6580TIP3    H119704   3.794   5.554   0.978  0.3610 -0.4780  0.0390
 6580TIP3    H219705   3.749   5.413   1.013 -1.5007 -0.0149 -0.3975
 6581TIP3   OH219706   3.608   4.958   4.719  0.2488  0.3057  0.3044
 6581TIP3    H119707   3.614   5.022   4.789 -0.5037 -0.9929  1.6004
 6581TIP3    H219708   3.587   4.875   4.763  3.4617 -1.3859 -1.0138
 6582TIP3   OH219709   4.401   3.426   1.005  0.1879  0.0414  0.0457
 6582TIP3    H119710   4.393   3.395   1.095  1.3731 -0.4797 -0.0077
 6582TIP3    H219711   4.406   3.521   1.013  0.3680 -0.0055  0.5390
 6583TIP3   OH219712   5.540   3.914   1.306  0.1098 -0.2674  0.4383
 6583TIP3    H119713   5.566   3.826   1.280 -0.4479  0.3242 -2.4548
 6583TIP3    H219714   5.618   3.968   1.291 -0.2220  0.0964 -0.0151
 6584TIP3   OH219715   0.946   5.887   5.713 -0.4109  0.4371  0.2343
 6584TIP3    H119716   0.936   5.841   5.630  0.4128 -0.6888  0.7396
 6584TIP3    H219717   0.869   5.944   5.718 -0.4585  0.5466 -1.3003
 6585TIP3   OH219718   0.487   0.129   2.666  0.1483  0.4000 -0.0647
 6585TIP3    H119719   0.527   0.206   2.707  0.3918 -0.3143  1.0903
 6585TIP3    H219720   0.400   0.123   2.706  0.1557  0.0509 -0.0947
 6586TIP3   OH219721   3.383   1.186   4.408 -0.1989 -0.0507  0.4894
 6586TIP3    H119722   3.380   1.250   4.336  0.8171  0.3376  0.7742
 6586TIP3    H219723   3.294   1.186   4.444 -0.4620  0.4792 -0.1414
 6587TIP3   OH219724   1.678   4.132   1.246 -0.1332 -0.3303  0.1883
 6587TIP3    H119725   1.701   4.093   1.330  4.1129 -0.3034 -0.7133
 6587TIP3    H219726   1.677   4.226   1.263 -0.1244 -0.3682  0.3999
 6588TIP3   OH219727   3.800   3.246   2.709  0.3149 -0.2919  0.2851
 6588TIP3    H119728   3.771   3.193   2.784 -0.7790  0.8469  0.7104
 6588TIP3    H219729   3.734   3.315   2.702  0.7649  0.0149 -1.3272
 6589TIP3   OH219730   5.327   5.484   2.085  0.8886 -0.1079  0.0515
 6589TIP3    H119731   5.271   5.562   2.085  1.8528  0.6749  2.5026
 6589TIP3    H219732   5.409   5.512   2.045  1.1110  0.0689  0.6160
 6590TIP3   OH219733   5.472   4.075   3.249  0.0277  0.1767 -0.1897
 6590TIP3    H119734   5.431   4.158   3.225  3.7393  1.8253 -1.6970
 6590TIP3    H219735   5.523   4.096   3.327  0.1867 -0.9477  0.0143
 6591TIP3   OH219736   5.586   4.950   3.068  0.2769 -0.2844  0.1726
 6591TIP3    H119737   5.625   4.981   3.149 -0.6550 -3.1885  1.8882
 6591TIP3    H219738   5.657   4.955   3.004  0.7725  2.9370  0.8050
 6592TIP3   OH219739   6.328   4.152   2.252 -0.3447 -0.2653  0.0845
 6592TIP3    H119740   6.256   4.095   2.222  1.2551 -1.6283 -1.3632
 6592TIP3    H219741   6.379   4.169   2.173  1.8784 -0.7503  1.3482
 6593TIP3   OH219742   3.010   0.420   2.293 -0.4144  0.2057 -0.2103
 6593TIP3    H119743   2.998   0.507   2.331 -0.2803 -0.0778  0.4997
 6593TIP3    H219744   2.923   0.392   2.266 -0.4229  0.6533 -0.6657
 6594TIP3   OH219745   7.158   5.624   1.308 -0.2386  0.1801  0.1666
 6594TIP3    H119746   7.214   5.586   1.241 -1.9198 -2.0485 -0.1181
 6594TIP3    H219747   7.176   5.571   1.386  0.7073  1.8657  1.1483
 6595TIP3   OH219748   0.025   0.394   4.931  0.5262 -0.2645  0.3276
 6595TIP3    H119749  -0.025   0.453   4.988  0.3107 -1.3173  1.2683
 6595TIP3    H219750   0.096   0.361   4.986  0.4347 -1.1529 -0.0611
 6596TIP3   OH219751   1.046   1.172   4.352 -0.3372  0.5100  0.0427
 6596TIP3    H119752   1.033   1.246   4.292 -0.7551  1.6033  1.4194
 6596TIP3    H219753   0.991   1.102   4.315  1.3091  0.2710 -2.1888
 6597TIP3   OH219754   1.824   1.425   5.051  0.5091 -0.3930  0.0148
 6597TIP3    H119755   1.836   1.507   5.004 -0.6854 -0.2371 -0.0493
 6597TIP3    H219756   1.793   1.363   4.985 -1.4206 -0.1079  0.6075
 6598TIP3   OH219757   1.954   5.751   5.860  0.3304 -0.2727 -0.4429
 6598TIP3    H119758   1.963   5.832   5.910 -0.0262 -0.0239 -0.7784
 6598TIP3    H219759   2.043   5.719   5.851  0.4523 -0.0304 -0.1219
 6599TIP3   OH219760   1.411   5.070   4.229  0.0146  0.2198 -0.0444
 6599TIP3    H119761   1.366   4.992   4.198  0.3522  0.1609 -0.4016
 6599TIP3    H219762   1.385   5.139   4.167  0.5062  0.1559 -0.3283
 6600TIP3   OH219763   4.999   0.850   3.808 -0.2940 -0.9448  0.5547
 6600TIP3    H119764   5.041   0.780   3.759  0.8141 -0.3533  0.6062
 6600TIP3    H219765   4.950   0.900   3.742 -1.3667 -1.9496  0.5773
 6601TIP3   OH219766   6.870   5.799   1.726  0.6506 -0.4529  0.3413
 6601TIP3    H119767   6.888   5.878   1.776 -0.8001 -0.3699  0.7663
 6601TIP3    H219768   6.889   5.823   1.635  1.6464 -0.0916  0.6304
 6602TIP3   OH219769   5.288   4.391   5.612  0.2273  0.0237  0.1765
 6602TIP3    H119770   5.352   4.462   5.617  1.6830 -1.3009  1.3583
 6602TIP3    H219771   5.334   4.314   5.646 -1.3030 -1.5097 -1.0130
 6603TIP3   OH219772   4.903   0.525   4.015  0.0605  0.1532 -0.2467
 6603TIP3    H119773   4.995   0.550   4.029 -0.1776  0.6500  0.4768
 6603TIP3    H219774   4.897   0.437   4.049  0.0754  0.4334  0.4894
 6604TIP3   OH219775   3.497   2.562   5.273  0.4991  0.4571 -0.0834
 6604TIP3    H119776   3.424   2.589   5.217  1.6432  1.4446 -1.1767
 6604TIP3    H219777   3.556   2.516   5.214  0.6387 -0.6017  0.8531
 6605TIP3   OH219778   1.705   0.610   2.896  0.2578 -0.2521 -0.2893
 6605TIP3    H119779   1.626   0.558   2.909  0.7065 -1.0750 -0.8297
 6605TIP3    H219780   1.742   0.620   2.984  0.9273 -2.0667 -0.3306
 6606TIP3   OH219781   3.247   6.338   1.775  0.0874 -0.3580  0.2836
 6606TIP3    H119782   3.305   6.326   1.700 -2.0780 -2.0029 -1.2849
 6606TIP3    H219783   3.296   6.303   1.849  1.9561  0.4886 -0.4831
 6607TIP3   OH219784   5.413   6.515   5.185 -0.0765 -0.0396 -0.0924
 6607TIP3    H119785   5.451   6.568   5.115 -0.5467  0.2837 -0.1092
 6607TIP3    H219786   5.321   6.542   5.188 -0.1442 -0.3142  0.4053
 6608TIP3   OH219787   5.890   5.351   1.818  0.4427  0.5877  0.3953
 6608TIP3    H119788   5.799   5.383   1.820  0.1275 -0.1530 -0.7946
 6608TIP3    H219789   5.926   5.388   1.738 -0.1187 -2.3833 -1.3774
 6609TIP3   OH219790   6.530   3.062   2.832  0.0593 -0.5505 -0.2970
 6609TIP3    H119791   6.531   2.983   2.886  1.2822 -1.2299 -1.2504
 6609TIP3    H219792   6.477   3.038   2.755 -0.7124  0.0275  0.0399
 6610TIP3   OH219793   6.225   1.531   3.221 -0.1666 -0.2139 -0.5828
 6610TIP3    H119794   6.218   1.625   3.239 -0.0656  0.0991 -2.1008
 6610TIP3    H219795   6.186   1.490   3.298 -0.1043  1.0625  0.1635
 6611TIP3   OH219796   5.991   4.533   2.690  0.5951 -0.4069  0.7155
 6611TIP3    H119797   6.085   4.514   2.694  0.5940 -0.4618  0.5193
 6611TIP3    H219798   5.964   4.540   2.781  0.8314 -0.1873  0.7700
 6612TIP3   OH219799   3.087   3.572   0.455  0.6163 -0.4831 -0.0919
 6612TIP3    H119800   3.078   3.517   0.376 -0.4681  1.2447 -1.2436
 6612TIP3    H219801   3.179   3.598   0.456  0.5542 -0.1830 -1.0475
 6613TIP3   OH219802   4.331   0.187   0.708 -0.7116 -0.3359  0.3435
 6613TIP3    H119803   4.424   0.174   0.687 -0.6859  0.8901 -0.4229
 6613TIP3    H219804   4.326   0.177   0.803 -0.0963 -2.0186  0.2303
 6614TIP3   OH219805   4.766   3.254   0.882  0.2818  0.0525  0.2929
 6614TIP3    H119806   4.813   3.233   0.801 -0.3408  0.4096 -0.1689
 6614TIP3    H219807   4.733   3.342   0.869 -1.9676 -0.7795 -0.1189
 6615TIP3   OH219808   5.620   4.660   0.304 -0.3152  0.3369  0.2798
 6615TIP3    H119809   5.580   4.602   0.368 -0.7329  0.4548  0.1313
 6615TIP3    H219810   5.710   4.628   0.294 -1.4666 -2.5133 -2.3832
 6616TIP3   OH219811   5.079   3.159   3.040 -0.0083 -0.1037 -0.4623
 6616TIP3    H119812   4.988   3.162   3.013  0.0256 -1.2460 -0.7739
 6616TIP3    H219813   5.079   3.104   3.119  0.3162  0.5206 -0.0158
 6617TIP3   OH219814   6.246   1.819   1.302 -0.5870  0.2642 -0.3410
 6617TIP3    H119815   6.200   1.744   1.265  0.1779  0.7225 -2.3678
 6617TIP3    H219816   6.176   1.882   1.322 -1.1405 -0.5743  0.4006
 6618TIP3   OH219817   1.426   3.474   1.683 -0.2664  0.0039  0.7242
 6618TIP3    H119818   1.426   3.402   1.621  0.2013 -0.4164  1.2080
 6618TIP3    H219819   1.462   3.437   1.764  0.5132  0.9226  0.8076
 6619TIP3   OH219820   6.644   1.130   0.917 -0.0337  0.0904 -0.6071
 6619TIP3    H119821   6.670   1.221   0.910 -0.3376  0.1889 -0.4643
 6619TIP3    H219822   6.669   1.092   0.833  2.6946 -0.3901  0.3066
 6620TIP3   OH219823   3.362   2.230   4.700  0.0692  0.2656 -0.0944
 6620TIP3    H119824   3.340   2.301   4.640 -0.3571  0.6904  0.5443
 6620TIP3    H219825   3.431   2.267   4.756 -0.3966  0.2984  0.4639
 6621TIP3   OH219826   4.703   1.335   0.754 -0.0791 -0.1346 -0.2007
 6621TIP3    H119827   4.765   1.264   0.736 -0.6472 -0.9863  1.0092
 6621TIP3    H219828   4.656   1.347   0.671 -1.3327 -2.6067  0.0380
 6622TIP3   OH219829   4.614   0.515   0.774 -0.1088 -0.0871  0.4330
 6622TIP3    H119830   4.608   0.427   0.737 -2.2384  0.0444  0.3205
 6622TIP3    H219831   4.631   0.571   0.698 -1.3154 -0.1577  0.0846
 6623TIP3   OH219832   0.101   5.861   1.034  0.0575  0.0459  0.2004
 6623TIP3    H119833   0.076   5.935   0.979 -0.8327  0.1206  0.6938
 6623TIP3    H219834   0.124   5.901   1.118 -1.0984 -0.2811  0.6902
 6624TIP3   OH219835   4.973   5.472   3.747  0.0835  0.2770 -0.0875
 6624TIP3    H119836   4.889   5.438   3.718  0.4229 -0.6323 -0.0284
 6624TIP3    H219837   5.009   5.403   3.803  0.7749  0.7408  0.0532
 6625TIP3   OH219838   6.610   0.320   4.774 -0.3121 -0.2364 -0.5567
 6625TIP3    H119839   6.543   0.370   4.729 -0.6113 -1.0254 -1.0040
 6625TIP3    H219840   6.619   0.240   4.723  1.6234  0.2312 -1.0574
 6626TIP3   OH219841   4.117   5.640   2.984  0.4361  0.2619  0.2399
 6626TIP3    H119842   4.054   5.667   2.917  1.4163  0.2622 -0.7146
 6626TIP3    H219843   4.155   5.721   3.016 -0.8868  0.3438  1.6973
 6627TIP3   OH219844   2.802   4.579   5.567 -0.4293 -0.1765 -0.6221
 6627TIP3    H119845   2.711   4.554   5.555 -0.3359 -1.1504  0.4584
 6627TIP3    H219846   2.821   4.638   5.494 -2.6734  2.2029  0.5409
 6628TIP3   OH219847   3.125   1.396   2.394 -0.8392  0.4099  0.0700
 6628TIP3    H119848   3.033   1.423   2.395 -0.5870  1.3037  0.5029
 6628TIP3    H219849   3.168   1.457   2.335 -0.3478  0.6491  0.6555
 6629TIP3   OH219850   2.813   3.415   3.327 -0.0974  0.1732  0.0255
 6629TIP3    H119851   2.865   3.335   3.328 -0.6463 -0.1853  0.9794
 6629TIP3    H219852   2.876   3.484   3.347  0.2386 -0.1175 -0.0084
 6630TIP3   OH219853   6.540   0.947   2.664 -0.0651  0.3680  0.0716
 6630TIP3    H119854   6.492   0.893   2.725 -1.1200  1.2913  0.0908
 6630TIP3    H219855   6.534   0.901   2.580  1.0253 -0.6838  0.5543
 6631TIP3   OH219856   1.336   5.457   0.466 -0.0348  0.1763  0.8904
 6631TIP3    H119857   1.431   5.455   0.456 -0.1387  0.9446 -0.3833
 6631TIP3    H219858   1.309   5.540   0.428 -1.3036 -0.4562  0.3416
 6632TIP3   OH219859   4.304   6.549   3.938 -0.2409 -0.1400 -0.1743
 6632TIP3    H119860   4.327   6.609   3.868  1.5418  1.0232  1.3079
 6632TIP3    H219861   4.387   6.527   3.979 -1.2762 -0.1177  2.0877
 6633TIP3   OH219862   0.899   3.742   3.830  0.1133  0.2481  0.6359
 6633TIP3    H119863   0.891   3.784   3.916 -0.1903  0.7006  0.3891
 6633TIP3    H219864   0.809   3.734   3.799  0.2858  1.3242 -0.2212
 6634TIP3   OH219865   2.255   4.384   1.837 -0.0016  0.3845 -0.3671
 6634TIP3    H119866   2.225   4.433   1.761 -1.5254  0.1001  0.0064
 6634TIP3    H219867   2.267   4.294   1.805  0.9482  0.5916 -0.6219
 6635TIP3   OH219868   4.718   3.538   5.765  0.3849  0.1932 -0.4643
 6635TIP3    H119869   4.665   3.461   5.783 -0.2259  0.7018 -0.0755
 6635TIP3    H219870   4.750   3.524   5.676 -0.8207  0.1194 -0.9066
 6636TIP3   OH219871   4.200   5.034   2.506 -0.4648 -0.1063  0.6224
 6636TIP3    H119872   4.229   4.969   2.571  0.1484  0.9515  1.4297
 6636TIP3    H219873   4.202   4.987   2.423  0.3751 -1.0029  1.1271
 6637TIP3   OH219874   6.340   1.561   1.664  0.6472 -0.2882  0.2866
 6637TIP3    H119875   6.397   1.496   1.704  0.3630 -0.3546  0.5860
 6637TIP3    H219876   6.252   1.530   1.681  0.5008 -0.9632 -1.4407
 6638TIP3   OH219877   4.234   2.006   5.039  0.1325  0.1541 -0.0893
 6638TIP3    H119878   4.226   1.935   4.976 -0.8942  1.0073 -0.9503
 6638TIP3    H219879   4.308   2.059   5.007 -0.9150  1.0559 -1.0882
 6639TIP3   OH219880   1.621   3.019   1.755 -0.3023  0.1710 -0.0576
 6639TIP3    H119881   1.684   2.952   1.781  0.3273  0.4185 -0.9112
 6639TIP3    H219882   1.536   2.981   1.778  0.1035 -0.4982  0.3793
 6640TIP3   OH219883   0.563   1.827   3.148 -0.1754 -0.0185 -0.4588
 6640TIP3    H119884   0.504   1.752   3.157  0.9957 -1.0562 -1.1565
 6640TIP3    H219885   0.566   1.844   3.054  0.4283  0.2038 -0.4043
 6641TIP3   OH219886   5.037   1.355   3.491  0.1204  0.2005 -0.0550
 6641TIP3    H119887   5.020   1.311   3.574  0.2177 -1.7147 -0.9908
 6641TIP3    H219888   5.123   1.324   3.464 -0.0227  0.5860 -1.0112
 6642TIP3   OH219889   3.691   5.008   4.169 -0.2355 -0.2231  0.4893
 6642TIP3    H119890   3.706   5.009   4.074 -0.4787 -2.6656  0.3537
 6642TIP3    H219891   3.642   4.927   4.184 -0.5640  0.3369  2.6661
 6643TIP3   OH219892   3.293   1.315   1.338 -0.1369  0.3106 -0.4564
 6643TIP3    H119893   3.339   1.388   1.381 -1.6034  0.3741  1.1528
 6643TIP3    H219894   3.246   1.356   1.265 -2.0363  1.3383  1.2285
 6644TIP3   OH219895   2.600   2.058   5.836 -0.4991 -0.1378  0.2369
 6644TIP3    H119896   2.666   1.995   5.864  0.2160  0.7487  0.5751
 6644TIP3    H219897   2.532   2.053   5.903 -0.7632 -1.0143 -0.0850
 6645TIP3   OH219898   0.637   1.255   2.879 -0.0732 -0.3849  0.1079
 6645TIP3    H119899   0.725   1.283   2.854  0.1723 -0.2840  1.0741
 6645TIP3    H219900   0.650   1.171   2.922 -0.4969 -0.5665 -0.1146
 6646TIP3   OH219901   2.177   3.060   0.987 -0.2541 -0.7642 -0.3907
 6646TIP3    H119902   2.164   3.007   0.908 -0.2703  1.8263 -2.2409
 6646TIP3    H219903   2.270   3.080   0.987 -0.6833  1.5155 -1.3845
 6647TIP3   OH219904   1.082   1.127   2.942  0.1898  0.5472 -0.1809
 6647TIP3    H119905   1.007   1.181   2.916 -0.1985 -0.7144 -1.8285
 6647TIP3    H219906   1.141   1.130   2.867 -0.3165 -2.0577 -0.7857
 6648TIP3   OH219907   4.944   4.374   4.492 -0.3277  0.5288  0.3470
 6648TIP3    H119908   4.891   4.304   4.531  1.1377 -1.3097 -0.8053
 6648TIP3    H219909   4.990   4.332   4.420  1.3233  2.4978  0.1666
 6649TIP3   OH219910   0.061   4.659   2.031  0.2818 -0.0319  0.5120
 6649TIP3    H119911  -0.034   4.671   2.023  0.5580  1.6179 -0.6544
 6649TIP3    H219912   0.081   4.590   1.967 -0.0067  0.2748  0.0863
 6650TIP3   OH219913   6.482   4.024   5.448  0.1757  0.1357 -0.0396
 6650TIP3    H119914   6.449   4.074   5.374 -1.6424  0.8341  1.1673
 6650TIP3    H219915   6.404   3.993   5.493  1.2402 -2.4416  0.1954
 6651TIP3   OH219916   6.848   0.228   4.471  0.0113  0.3337 -0.1785
 6651TIP3    H119917   6.897   0.174   4.533 -1.0882 -2.0530 -1.2535
 6651TIP3    H219918   6.757   0.201   4.483 -0.6217  2.1549 -0.6173
 6652TIP3   OH219919   3.557   3.275   0.539  0.1788 -0.3582 -0.1310
 6652TIP3    H119920   3.624   3.208   0.522 -0.1138 -0.2679 -1.8548
 6652TIP3    H219921   3.501   3.236   0.606  0.5000 -1.5101 -0.4973
 6653TIP3   OH219922   6.643  -0.015   5.001  0.3038  0.2125 -0.3711
 6653TIP3    H119923   6.624  -0.056   5.085 -0.7196  0.9899 -0.1992
 6653TIP3    H219924   6.621   0.077   5.014 -0.7747  0.1814 -1.7445
 6654TIP3   OH219925   3.720   5.510   4.201 -0.2797 -0.2924  0.6952
 6654TIP3    H119926   3.797   5.478   4.248  1.5753 -0.0027 -1.9188
 6654TIP3    H219927   3.645   5.476   4.250  1.5243 -4.0408  1.1559
 6655TIP3   OH219928   5.894   1.050   5.451 -0.1969  0.0427  0.5049
 6655TIP3    H119929   5.839   1.126   5.435 -0.6152 -0.0472  1.4109
 6655TIP3    H219930   5.868   1.020   5.538  1.5217  0.1934  1.1129
 6656TIP3   OH219931   2.662   1.991   5.148 -0.5035 -0.3074 -0.0806
 6656TIP3    H119932   2.726   2.061   5.158  1.0210 -1.6772  0.0984
 6656TIP3    H219933   2.706   1.912   5.181 -2.3914 -1.2480  0.3605
 6657TIP3   OH219934   2.537   0.834   3.989  0.4513  0.3632 -0.4568
 6657TIP3    H119935   2.588   0.782   4.051 -2.0885 -1.6130  0.1336
 6657TIP3    H219936   2.469   0.876   4.042  0.7947  2.1353 -1.3458
 6658TIP3   OH219937   2.983   2.611   3.733 -0.1358 -0.1139  0.2521
 6658TIP3    H119938   3.061   2.664   3.719 -0.1952  0.8023  2.9182
 6658TIP3    H219939   2.977   2.601   3.828 -2.1733 -1.8376  0.0157
 6659TIP3   OH219940   5.684   2.989   1.156 -0.4086  0.1709  0.4078
 6659TIP3    H119941   5.613   3.048   1.183  1.1434  1.7911  1.1673
 6659TIP3    H219942   5.714   3.024   1.072 -0.0829 -0.0853  0.4168
 6660TIP3   OH219943   7.168   1.296   1.916 -0.2580 -0.6315 -0.0721
 6660TIP3    H119944   7.166   1.217   1.970 -1.8608  0.2606  1.2637
 6660TIP3    H219945   7.107   1.278   1.844  1.8667 -1.8142 -1.7225
 6661TIP3   OH219946   4.144   1.658   0.523 -0.0968 -0.0407  0.1126
 6661TIP3    H119947   4.180   1.744   0.501 -0.8305  0.3654  0.4795
 6661TIP3    H219948   4.082   1.675   0.594 -1.7226 -0.5928 -1.1158
 6662TIP3   OH219949   6.331   1.420   2.024  0.0277 -0.3020 -0.0140
 6662TIP3    H119950   6.357   1.358   2.091  1.0433 -1.7688 -1.6794
 6662TIP3    H219951   6.276   1.369   1.964  0.8792  0.3596 -1.4172
 6663TIP3   OH219952   6.008   4.765   4.505 -0.3674 -0.5578  0.3494
 6663TIP3    H119953   5.939   4.794   4.564 -0.4665  0.5717 -0.2678
 6663TIP3    H219954   6.085   4.813   4.534 -0.1988 -0.7039  0.1406
 6664TIP3   OH219955   6.876   5.637   5.530  0.7873  0.2350 -0.4202
 6664TIP3    H119956   6.906   5.554   5.567 -0.0713 -0.1252 -0.5070
 6664TIP3    H219957   6.792   5.653   5.571 -1.0715 -1.0554 -3.3675
 6665TIP3   OH219958   4.844   4.208   0.334 -0.4802 -0.1447  0.4036
 6665TIP3    H119959   4.916   4.264   0.361 -1.3243  0.9495  0.4475
 6665TIP3    H219960   4.879   4.157   0.261  0.2151  0.6200  0.1949
 6666TIP3   OH219961   0.170   5.276   1.475  0.0853  0.8186 -0.2848
 6666TIP3    H119962   0.148   5.194   1.521 -0.6253  0.3112 -1.4746
 6666TIP3    H219963   0.248   5.308   1.520 -0.4788  0.2758  1.1649
 6667TIP3   OH219964   5.616   6.694   5.676 -0.2756 -0.2939  0.2028
 6667TIP3    H119965   5.593   6.611   5.718  0.3884  0.1232  1.4159
 6667TIP3    H219966   5.596   6.679   5.583 -0.6560 -1.6277  0.4694
 6668TIP3   OH219967   1.987   3.842   2.159 -0.0172  0.5043 -0.1280
 6668TIP3    H119968   1.903   3.798   2.148 -0.1566  0.9803 -1.1049
 6668TIP3    H219969   1.994   3.899   2.082  0.9767  0.8308  0.1924
 6669TIP3   OH219970   3.280   0.697   1.313 -0.0983  0.3202  0.0510
 6669TIP3    H119971   3.317   0.761   1.253  0.2410  2.0133  1.9553
 6669TIP3    H219972   3.331   0.707   1.393 -0.4830 -1.9027  0.6385
 6670TIP3   OH219973   6.706   4.224   3.614  0.0310  0.6021 -0.3242
 6670TIP3    H119974   6.793   4.255   3.639  0.7237 -0.2291 -1.5982
 6670TIP3    H219975   6.679   4.167   3.685  1.6400 -1.1403 -1.0351
 6671TIP3   OH219976   6.556   1.020   1.378  0.1005  0.2185  0.1236
 6671TIP3    H119977   6.488   1.055   1.320  0.2460  1.8966  0.9283
 6671TIP3    H219978   6.514   0.944   1.419 -0.8257  0.4385 -0.3700
 6672TIP3   OH219979   4.111   3.688   2.284 -0.3946 -0.0772 -0.0954
 6672TIP3    H119980   4.153   3.756   2.336 -1.5416  0.3307  0.3178
 6672TIP3    H219981   4.184   3.632   2.255  0.3273  0.0511  1.3853
 6673TIP3   OH219982   4.163   5.790   0.954  0.1223  0.0058  0.0117
 6673TIP3    H119983   4.198   5.872   0.920 -0.7290 -0.5725 -2.4036
 6673TIP3    H219984   4.239   5.732   0.961  0.7234  0.9346  1.7152
 6674TIP3   OH219985   1.961   5.294   3.776 -0.2849 -0.3826  0.0214
 6674TIP3    H119986   1.874   5.265   3.803 -0.9093  0.6231 -0.8477
 6674TIP3    H219987   1.988   5.230   3.710 -0.3195 -0.7288  0.3353
 6675TIP3   OH219988   1.388   1.681   4.925  0.4554 -0.0926 -0.0456
 6675TIP3    H119989   1.319   1.695   4.859 -0.9113 -0.7862  1.1762
 6675TIP3    H219990   1.371   1.593   4.958 -0.5610  1.1468  3.0587
 6676TIP3   OH219991   4.334   2.504   0.259 -0.0998  0.2689  0.2891
 6676TIP3    H119992   4.249   2.460   0.261  1.2742 -2.6525  0.2037
 6676TIP3    H219993   4.372   2.485   0.345  0.5376  1.4271  0.2796
 6677TIP3   OH219994   1.139   4.218   4.949  0.1966 -0.2106  0.0860
 6677TIP3    H119995   1.076   4.260   5.006 -0.7616  0.3121 -1.3190
 6677TIP3    H219996   1.087   4.158   4.894  0.7220  0.9285 -1.7573
 6678TIP3   OH219997   3.906   4.666   2.381 -0.5298  0.7930  0.0481
 6678TIP3    H119998   3.889   4.685   2.289 -2.6487  0.0823  0.2346
 6678TIP3    H219999   4.000   4.647   2.385  0.0652  2.9375 -1.5414
 6679TIP3   OH220000   6.372   5.532   0.959 -0.2732  0.2649 -0.3927
 6679TIP3    H120001   6.343   5.478   1.033 -0.0185  0.8251  0.1322
 6679TIP3    H220002   6.291   5.555   0.914 -0.5658  0.8934  0.4153
 6680TIP3   OH220003   1.541   1.729   1.771 -0.1240 -0.3832 -0.3677
 6680TIP3    H120004   1.471   1.790   1.747  0.5483 -0.6294 -3.3806
 6680TIP3    H220005   1.610   1.785   1.807 -0.7706  0.2091 -0.0150
 6681TIP3   OH220006   1.676   6.012   3.088 -0.0555 -0.3271 -0.7570
 6681TIP3    H120007   1.611   5.974   3.147  1.3076  0.9248  1.7042
 6681TIP3    H220008   1.626   6.074   3.034 -0.8968  1.1087  1.5377
 6682TIP3   OH220009   4.150   6.599   4.173  0.4881 -0.5565 -0.1916
 6682TIP3    H120010   4.082   6.538   4.202 -2.4176  1.9929 -1.0537
 6682TIP3    H220011   4.174   6.568   4.085 -0.4791 -0.8300 -0.3667
 6683TIP3   OH220012   0.544   6.015   3.051 -0.5757 -0.2006  0.1819
 6683TIP3    H120013   0.556   6.092   3.106 -0.7311  1.5379 -2.0957
 6683TIP3    H220014   0.614   5.955   3.078  1.9599  2.2718 -0.4831
 6684TIP3   OH220015   2.347   1.330   2.522  0.0674 -0.3230  0.2264
 6684TIP3    H120016   2.418   1.392   2.502  0.1694 -0.0277  1.4473
 6684TIP3    H220017   2.363   1.256   2.464  0.8099  0.1621 -0.2062
 6685TIP3   OH220018   0.470   1.341   2.324 -0.4974  0.3087  0.2638
 6685TIP3    H120019   0.558   1.356   2.357  0.3466 -0.5267 -1.5026
 6685TIP3    H220020   0.450   1.251   2.348 -0.0030 -0.2005 -1.1629
 6686TIP3   OH220021   4.939   0.631   0.691 -0.1455  0.0664  0.0659
 6686TIP3    H120022   4.866   0.683   0.725 -0.6683 -0.4514 -0.2349
 6686TIP3    H220023   5.015   0.659   0.742 -0.8258 -0.3532  1.3626
 6687TIP3   OH220024   5.870   6.781   3.775 -0.0701 -0.6041  0.3817
 6687TIP3    H120025   5.789   6.730   3.772 -0.5513  0.1204  0.7886
 6687TIP3    H220026   5.843   6.869   3.802  0.1799  1.0256 -3.9059
 6688TIP3   OH220027   6.618   5.372   1.126  0.3089 -0.5109  0.0704
 6688TIP3    H120028   6.693   5.428   1.108  1.3613 -1.4365  1.3584
 6688TIP3    H220029   6.548   5.406   1.070  1.6961  0.3318 -1.2263
 6689TIP3   OH220030   2.949   3.464   1.894  0.0679 -0.1910 -0.2909
 6689TIP3    H120031   3.034   3.423   1.879  0.4607  0.4293  0.2293
 6689TIP3    H220032   2.900   3.400   1.946  0.2095 -0.5404 -0.5770
 6690TIP3   OH220033   3.347   1.380   5.530  0.6074 -0.1699 -0.8364
 6690TIP3    H120034   3.306   1.302   5.492 -1.6701  0.4782  0.1046
 6690TIP3    H220035   3.398   1.418   5.458  0.3527 -1.5964 -1.8033
 6691TIP3   OH220036   5.820   3.373   1.328 -0.5973  0.4020 -0.1890
 6691TIP3    H120037   5.818   3.278   1.343  1.6882  0.3773  0.4454
 6691TIP3    H220038   5.794   3.411   1.412 -0.0320  0.3135  0.0312
 6692TIP3   OH220039   2.159   5.843   4.349  0.0886  0.2806 -0.5745
 6692TIP3    H120040   2.066   5.851   4.368  0.0692  0.6811 -0.8369
 6692TIP3    H220041   2.180   5.753   4.372 -0.2107  0.3883  0.1518
 6693TIP3   OH220042   6.792   1.158   1.790  0.0478  0.0104  0.0495
 6693TIP3    H120043   6.732   1.208   1.845  0.2212 -0.2115  0.4398
 6693TIP3    H220044   6.759   1.069   1.793 -0.1396  0.0572 -0.4819
 6694TIP3   OH220045   3.564   2.167   0.905  0.4965 -0.2923  0.1810
 6694TIP3    H120046   3.528   2.091   0.951 -0.1572 -0.7047 -0.9774
 6694TIP3    H220047   3.489   2.226   0.896  0.9553  0.4169  0.9035
 6695TIP3   OH220048   2.187   6.179   0.275 -0.6590 -0.4681 -0.6285
 6695TIP3    H120049   2.148   6.230   0.204  0.6818  1.0484 -0.3284
 6695TIP3    H220050   2.199   6.242   0.346  0.3198 -1.3916  0.0534
 6696TIP3   OH220051   0.972   2.925   1.180  0.2408  0.1277 -0.2926
 6696TIP3    H120052   1.010   2.888   1.260  1.6663  2.8411  0.4123
 6696TIP3    H220053   0.880   2.939   1.202  0.0612 -1.3392 -0.0045
 6697TIP3   OH220054   3.277   3.074   3.371 -0.1722  0.3966  0.5049
 6697TIP3    H120055   3.220   3.090   3.447 -1.5314  1.0255 -0.5996
 6697TIP3    H220056   3.307   2.984   3.382 -0.9863  0.2142  1.3708
 6698TIP3   OH220057   2.783   5.415   0.518  0.4318  0.1561  0.2363
 6698TIP3    H120058   2.784   5.370   0.603 -0.3176  0.0685  0.2105
 6698TIP3    H220059   2.853   5.374   0.468  0.8591  0.1846  0.8058
 6699TIP3   OH220060   1.194   4.420   0.239 -0.2157 -0.1819 -0.2164
 6699TIP3    H120061   1.258   4.440   0.308 -0.9541  0.3705  0.3315
 6699TIP3    H220062   1.118   4.473   0.262 -0.0587  0.9596 -2.1567
 6700TIP3   OH220063   2.813   6.630   0.874  0.1908  0.3578  1.0616
 6700TIP3    H120064   2.873   6.589   0.811 -1.1888  0.4225 -0.3602
 6700TIP3    H220065   2.776   6.704   0.826 -0.3343  0.8843  2.2412
 6701TIP3   OH220066   6.919   3.816   4.010  0.4844  0.4187 -0.2762
 6701TIP3    H120067   6.973   3.848   4.082  0.6570 -0.4421 -0.0154
 6701TIP3    H220068   6.913   3.722   4.024  0.2205  0.2905 -1.1903
 6702TIP3   OH220069   2.983   5.435   4.494 -0.1935  0.0534  0.3507
 6702TIP3    H120070   3.026   5.490   4.430  0.0766 -1.2966 -0.6698
 6702TIP3    H220071   2.998   5.479   4.578  3.8048 -0.6712  0.1951
 6703TIP3   OH220072   3.445   1.390   0.988 -0.0190  0.4025  0.4505
 6703TIP3    H120073   3.438   1.402   1.082 -0.9278  0.6933  0.3549
 6703TIP3    H220074   3.365   1.342   0.964  0.9648 -1.1342  0.0549
 6704TIP3   OH220075   5.355   1.508   0.674 -0.0752 -0.1646  0.5667
 6704TIP3    H120076   5.308   1.427   0.694 -0.2246 -0.0467  0.6919
 6704TIP3    H220077   5.321   1.572   0.737 -0.0276  0.0196  0.4064
 6705TIP3   OH220078   3.702   6.803   1.696 -0.1446  0.5916  0.0133
 6705TIP3    H120079   3.608   6.796   1.679  0.0929  1.1908 -1.7918
 6705TIP3    H220080   3.738   6.720   1.664 -0.2890 -0.7424  3.0368
 6706TIP3   OH220081   0.096   2.826   4.881 -0.5257 -0.0046  0.1782
 6706TIP3    H120082   0.161   2.793   4.944 -0.3205  0.5598  0.2715
 6706TIP3    H220083   0.144   2.890   4.829 -0.5997 -0.7514 -0.8196
 6707TIP3   OH220084   6.340   6.429   4.761 -0.1578  0.7646 -0.1066
 6707TIP3    H120085   6.354   6.376   4.682 -1.0734  0.9927 -0.4423
 6707TIP3    H220086   6.333   6.366   4.832  2.3914  0.6264  0.1032
 6708TIP3   OH220087   3.954   4.762   5.213 -0.0736 -0.0761  0.4745
 6708TIP3    H120088   3.889   4.795   5.151 -0.8976 -0.2477  1.2179
 6708TIP3    H220089   3.942   4.667   5.213  0.3106 -0.1242  0.4646
 6709TIP3   OH220090   7.157   2.234   2.420 -0.1811  0.2096 -0.1148
 6709TIP3    H120091   7.221   2.171   2.454  0.0204  0.2666 -0.3862
 6709TIP3    H220092   7.176   2.315   2.467 -1.1142 -0.1972  0.9959
 6710TIP3   OH220093   3.936   0.171   2.155 -0.2579  0.1011  0.2470
 6710TIP3    H120094   3.875   0.232   2.114 -2.4468 -2.0792 -0.0312
 6710TIP3    H220095   3.893   0.146   2.237 -0.6700 -2.7498 -0.7157
 6711TIP3   OH220096   1.109   4.567   3.187  0.3306 -0.1697  0.6507
 6711TIP3    H120097   1.131   4.609   3.270 -0.7428 -1.0972  1.4293
 6711TIP3    H220098   1.100   4.474   3.208 -2.3132 -0.1373  0.0368
 6712TIP3   OH220099   4.268   0.275   4.980 -0.4261  0.6121  0.2255
 6712TIP3    H120100   4.299   0.366   4.982  0.1338  0.4283 -0.1187
 6712TIP3    H220101   4.320   0.233   4.912 -1.4742  0.3156 -0.4193
 6713TIP3   OH220102   5.047   3.663   1.578  0.1764  0.1358  0.6669
 6713TIP3    H120103   5.017   3.714   1.503  0.5708 -0.6189 -0.0315
 6713TIP3    H220104   5.140   3.685   1.585  0.2159 -0.0455  0.7170
 6714TIP3   OH220105   0.544   3.317   3.345  0.3387 -0.2385 -0.2302
 6714TIP3    H120106   0.561   3.286   3.256 -0.2045  0.1476 -0.4696
 6714TIP3    H220107   0.623   3.292   3.394  1.6640  1.5645 -1.3220
 6715TIP3   OH220108   5.956   0.880   1.606 -0.2141  0.1870 -0.5399
 6715TIP3    H120109   5.975   0.797   1.562  2.2607  0.5354 -0.2978
 6715TIP3    H220110   5.940   0.857   1.697 -1.0236 -0.1517 -0.7658
 6716TIP3   OH220111   0.457   4.563   3.889  0.1937 -0.1676 -0.2877
 6716TIP3    H120112   0.418   4.527   3.809  0.2569  0.8485 -0.7874
 6716TIP3    H220113   0.545   4.588   3.864  0.0315  0.6646 -0.0432
 6717TIP3   OH220114   4.425   2.448   2.814  0.1411 -0.1003 -0.1555
 6717TIP3    H120115   4.484   2.372   2.813  0.6449  0.2818 -0.1152
 6717TIP3    H220116   4.440   2.490   2.730  0.2144  0.2189  0.0176
 6718TIP3   OH220117   6.832   3.498   2.007 -0.1780  0.4349  0.2742
 6718TIP3    H120118   6.916   3.517   2.048 -0.1490  3.2306 -0.8920
 6718TIP3    H220119   6.844   3.518   1.915 -2.3257  1.7867  0.2092
 6719TIP3   OH220120   4.993   2.511   3.152 -0.2989 -0.5218 -0.0744
 6719TIP3    H120121   4.967   2.419   3.164  0.7409 -0.6244  1.8874
 6719TIP3    H220122   5.057   2.510   3.082 -1.5734 -1.0138 -1.2790
 6720TIP3   OH220123   5.035   0.889   2.472 -0.0747  0.3496 -1.0593
 6720TIP3    H120124   5.063   0.972   2.433 -2.2120  0.5658 -2.3061
 6720TIP3    H220125   5.096   0.824   2.436  3.1180  1.5054  1.6995
 6721TIP3   OH220126   6.800   6.040   4.054  1.0011  0.2209  0.2546
 6721TIP3    H120127   6.854   5.961   4.045  0.1851 -0.5800  1.8744
 6721TIP3    H220128   6.821   6.073   4.142 -0.0519  0.7287  0.3304
 6722TIP3   OH220129   1.087   2.896   1.642  0.0868  0.2489 -0.1137
 6722TIP3    H120130   1.126   2.960   1.702 -1.1452  0.0424  0.9459
 6722TIP3    H220131   1.016   2.943   1.599 -0.9676 -0.4311  0.8274
 6723TIP3   OH220132   4.076   2.129   0.185 -0.0538  0.0509  0.5249
 6723TIP3    H120133   4.100   2.191   0.117 -1.4270 -0.1772 -0.1929
 6723TIP3    H220134   3.981   2.122   0.180  0.0676 -2.4914  0.2239
 6724TIP3   OH220135   4.441   3.210   2.770  0.8353  0.6418 -0.3527
 6724TIP3    H120136   4.350   3.233   2.786  0.6889  0.2815 -0.6492
 6724TIP3    H220137   4.479   3.202   2.857  1.2787  3.4070 -0.1886
 6725TIP3   OH220138   3.718   3.302   3.723  0.3482 -0.4732  0.6289
 6725TIP3    H120139   3.690   3.345   3.804 -0.9289 -0.8077  0.3888
 6725TIP3    H220140   3.804   3.339   3.705  0.5390 -0.2047  2.0003
 6726TIP3   OH220141   1.258   1.005   5.623  0.0729 -0.0977 -0.0792
 6726TIP3    H120142   1.213   0.952   5.689 -0.6166  1.7964  1.0545
 6726TIP3    H220143   1.242   0.958   5.541 -2.1508 -0.6648  0.5847
 6727TIP3   OH220144   2.985   2.414   1.261 -0.2835  0.2286 -0.1274
 6727TIP3    H120145   2.912   2.357   1.286 -1.1635  0.4718 -1.9689
 6727TIP3    H220146   2.946   2.480   1.204  1.4940 -0.2419 -2.0446
 6728TIP3   OH220147   0.875   0.127   2.807  0.4935 -0.3353 -0.2001
 6728TIP3    H120148   0.798   0.077   2.835 -0.4052  1.2919  0.4121
 6728TIP3    H220149   0.920   0.149   2.888  2.0766 -1.9037 -0.5973
 6729TIP3   OH220150   5.162   6.078   4.939 -0.0496 -0.1332 -0.1529
 6729TIP3    H120151   5.164   6.118   5.025  0.9708 -1.7435  0.6232
 6729TIP3    H220152   5.079   6.029   4.938  0.4057 -0.9304  0.3266
 6730TIP3   OH220153   4.779   3.188   3.297  0.8184 -0.1716 -0.7496
 6730TIP3    H120154   4.758   3.113   3.242 -0.1351 -0.3331 -0.1882
 6730TIP3    H220155   4.799   3.258   3.235 -1.7845  0.0973 -1.3682
 6731TIP3   OH220156   2.048   1.506   0.213  0.4475  0.7091  0.2910
 6731TIP3    H120157   2.002   1.585   0.183  1.0320  0.6112 -0.9042
 6731TIP3    H220158   2.135   1.537   0.239  0.9033  0.3748 -0.8030
 6732TIP3   OH220159   1.701   2.950   3.575 -0.1193  0.2863 -0.4050
 6732TIP3    H120160   1.725   2.997   3.655  0.1084 -1.3173  0.5006
 6732TIP3    H220161   1.784   2.942   3.527 -0.0390  0.2050 -0.2510
 6733TIP3   OH220162   0.796   2.668   3.587 -0.2126  0.3706 -0.3947
 6733TIP3    H120163   0.888   2.678   3.614  0.3879 -1.8284 -1.4071
 6733TIP3    H220164   0.746   2.697   3.663  1.3169  0.8273  0.4932
 6734TIP3   OH220165   7.183   4.698   2.548  0.0466 -0.2084 -0.0114
 6734TIP3    H120166   7.138   4.746   2.618  1.8323  1.3361  0.1668
 6734TIP3    H220167   7.163   4.747   2.468  0.5816 -0.1007 -0.0823
 6735TIP3   OH220168   3.526   3.232   0.929  0.2771 -0.0614 -0.1986
 6735TIP3    H120169   3.448   3.286   0.941  0.6265  0.1730  1.2103
 6735TIP3    H220170   3.599   3.293   0.938  0.6666 -0.6614  0.8193
 6736TIP3   OH220171   6.572   2.971   5.346 -0.2514  0.3306 -0.2332
 6736TIP3    H120172   6.621   3.016   5.278 -0.0260  0.4715  0.0234
 6736TIP3    H220173   6.524   2.902   5.299  1.7766 -1.1520 -0.2313
 6737TIP3   OH220174   6.797   1.872   0.442 -0.0532 -0.1243 -0.2516
 6737TIP3    H120175   6.703   1.863   0.459  0.1289 -3.1952 -0.1549
 6737TIP3    H220176   6.835   1.892   0.527 -0.5782  0.6666 -0.1980
 6738TIP3   OH220177   4.410   1.807   5.570 -0.3194 -0.0168  0.4509
 6738TIP3    H120178   4.489   1.760   5.545 -1.8217 -2.1551 -0.5606
 6738TIP3    H220179   4.366   1.826   5.488 -1.1957  0.5368  1.0287
 6739TIP3   OH220180   2.753   2.325   0.988  0.7195 -0.4793 -0.5693
 6739TIP3    H120181   2.783   2.347   0.900  0.3590 -1.8755 -1.0698
 6739TIP3    H220182   2.819   2.363   1.046  1.2140  0.0470 -1.4515
 6740TIP3   OH220183   2.613   2.168   0.518  0.6870  0.0279  0.1160
 6740TIP3    H120184   2.551   2.233   0.485  0.1899  0.2699  1.4398
 6740TIP3    H220185   2.670   2.149   0.444 -0.4996  0.3661 -0.9160
 6741TIP3   OH220186   0.483   2.995   1.346  0.1136  0.5869 -0.3777
 6741TIP3    H120187   0.430   3.074   1.344  1.4484  1.4992 -1.1403
 6741TIP3    H220188   0.422   2.926   1.371 -1.5565  1.4997 -1.7140
 6742TIP3   OH220189   1.000   1.014   1.290 -0.5306 -0.3192 -0.3585
 6742TIP3    H120190   0.922   0.989   1.340  0.0921  0.4736  1.0724
 6742TIP3    H220191   0.992   1.108   1.276 -0.1676 -0.3487 -0.7955
 6743TIP3   OH220192   3.381   2.420   1.251 -0.8358  0.4991  0.2410
 6743TIP3    H120193   3.323   2.346   1.264  0.9125 -1.0450 -0.3293
 6743TIP3    H220194   3.450   2.387   1.193  0.9474  2.0537  1.3637
 6744TIP3   OH220195   1.786   5.869   2.840  0.1638  0.3780  0.1922
 6744TIP3    H120196   1.769   5.904   2.927 -0.1257 -3.2895  1.7937
 6744TIP3    H220197   1.874   5.831   2.846 -0.6026 -1.6281 -0.4269
 6745TIP3   OH220198   1.156   4.168   5.845 -0.2235 -0.4047  0.1235
 6745TIP3    H120199   1.227   4.232   5.849 -0.7273  0.1473  3.2743
 6745TIP3    H220200   1.077   4.220   5.827 -0.0007 -0.9428 -2.7860
 6746TIP3   OH220201   4.585   1.791   4.097 -0.1990 -0.8095 -0.0649
 6746TIP3    H120202   4.638   1.758   4.024 -0.1711 -0.3665 -0.2488
 6746TIP3    H220203   4.495   1.784   4.066 -0.3656 -2.7418  0.7195
 6747TIP3   OH220204   6.407   2.010   4.514 -0.4343 -0.1038 -0.1653
 6747TIP3    H120205   6.327   1.964   4.539 -0.8110  0.4534 -0.3254
 6747TIP3    H220206   6.385   2.102   4.524  0.4515  0.0372  0.5773
 6748TIP3   OH220207   0.941   3.157   4.079  0.1847 -0.2574 -0.3156
 6748TIP3    H120208   0.988   3.082   4.044 -0.8702 -0.1442 -2.1295
 6748TIP3    H220209   0.991   3.233   4.050 -0.2685 -0.1897 -0.9504
 6749TIP3   OH220210   5.600   6.347   0.200 -0.2208 -0.8346  0.1509
 6749TIP3    H120211   5.582   6.418   0.261 -1.2580 -1.0011  0.0463
 6749TIP3    H220212   5.660   6.385   0.136  0.9948 -0.6992  1.3285
 6750TIP3   OH220213   1.386   5.779   5.818 -0.3772  0.0200  0.2122
 6750TIP3    H120214   1.428   5.766   5.733 -1.1231  0.5294 -0.2501
 6750TIP3    H220215   1.371   5.690   5.852 -2.0438 -0.2865 -1.1902
 6751TIP3   OH220216   6.159   6.379   4.169 -0.6232  0.2084  0.2362
 6751TIP3    H120217   6.153   6.422   4.254 -0.2468  0.4621  0.1336
 6751TIP3    H220218   6.245   6.337   4.170 -0.0007  1.4240 -0.5890
 6752TIP3   OH220219   5.009   6.712   0.391  0.4882 -0.5563 -0.5128
 6752TIP3    H120220   5.061   6.656   0.449  2.0719 -0.3778 -1.6589
 6752TIP3    H220221   5.072   6.776   0.357 -1.0431  1.2197 -0.1230
 6753TIP3   OH220222   3.692   1.864   2.969  0.5051 -0.1349  0.0833
 6753TIP3    H120223   3.633   1.937   2.951  0.5003  0.2853  1.6865
 6753TIP3    H220224   3.780   1.900   2.952  0.4095 -0.2421 -0.6509
 6754TIP3   OH220225   3.096   1.012   5.184 -0.2507 -0.2109 -0.1381
 6754TIP3    H120226   3.187   0.998   5.211  0.3386  3.4312  0.2436
 6754TIP3    H220227   3.099   1.014   5.089  0.3458  1.1045 -0.1124
 6755TIP3   OH220228   2.400   3.989   4.020 -0.1406 -0.1792 -0.1333
 6755TIP3    H120229   2.407   3.989   3.924  0.3956 -1.2701 -0.1168
 6755TIP3    H220230   2.311   3.958   4.037 -0.3168  0.2452 -0.2819
 6756TIP3   OH220231   5.969   5.484   3.857  0.1383  0.0605  0.4734
 6756TIP3    H120232   5.968   5.521   3.769 -0.1489 -1.1970 -0.0755
 6756TIP3    H220233   5.978   5.389   3.843  0.2750 -0.1435  1.8003
 6757TIP3   OH220234   0.496   2.168   4.524 -0.1533 -0.0929 -0.2467
 6757TIP3    H120235   0.422   2.147   4.580  1.3318 -1.8019  1.1798
 6757TIP3    H220236   0.537   2.084   4.505  1.6572  0.8204 -0.6315
 6758TIP3   OH220237   3.526   1.567   1.748 -0.4716 -0.1425  0.4550
 6758TIP3    H120238   3.572   1.586   1.666  1.4245 -0.3654  1.4168
 6758TIP3    H220239   3.493   1.652   1.776 -0.0194  0.1652  0.0876
 6759TIP3   OH220240   4.161   3.136   3.034 -0.1638 -0.4008  0.1287
 6759TIP3    H120241   4.246   3.106   3.065  0.5945  1.6012  0.1606
 6759TIP3    H220242   4.181   3.189   2.957 -1.3720  0.0511  0.1027
 6760TIP3   OH220243   0.492   1.738   1.173 -0.3430  0.4848 -0.6491
 6760TIP3    H120244   0.450   1.814   1.213  0.4996 -0.0968  1.4586
 6760TIP3    H220245   0.519   1.684   1.246  2.9337  0.2017 -1.8861
 6761TIP3   OH220246   4.112   5.476   0.034  0.8392  0.0171  0.1966
 6761TIP3    H120247   4.207   5.479   0.024  0.7571  1.0974 -0.3821
 6761TIP3    H220248   4.096   5.403   0.094  2.1175  0.7849  1.5058
 6762TIP3   OH220249   0.182   6.111   2.523  0.4656  0.3961 -0.4168
 6762TIP3    H120250   0.105   6.073   2.481 -0.3596  2.0536 -0.5177
 6762TIP3    H220251   0.167   6.101   2.617  0.5427 -0.0445 -0.4520
 6763TIP3   OH220252   7.072   6.470   3.205 -0.0329 -0.1636 -0.4768
 6763TIP3    H120253   7.106   6.458   3.116  1.1477  1.5754 -0.3095
 6763TIP3    H220254   7.142   6.517   3.251 -0.2639 -1.7207  1.6323
 6764TIP3   OH220255   0.239   1.971   2.188  0.1483  0.1397 -0.2779
 6764TIP3    H120256   0.152   1.935   2.170  0.8094 -0.7879 -1.8764
 6764TIP3    H220257   0.244   1.977   2.283 -1.9266  0.9277 -0.1731
 6765TIP3   OH220258   0.540   6.607   3.222  0.3026  0.5250  0.0292
 6765TIP3    H120259   0.496   6.680   3.266 -0.7785 -0.4844  0.6884
 6765TIP3    H220260   0.631   6.614   3.249  0.0407  1.1272  0.7910
 6766TIP3   OH220261   5.576   0.507   3.571 -0.5301  0.0260  0.1675
 6766TIP3    H120262   5.656   0.559   3.575 -0.8168  0.4740  0.1028
 6766TIP3    H220263   5.587   0.452   3.494 -0.3963  0.2709  0.0108
 6767TIP3   OH220264   2.473   5.843   2.134  0.1776  0.0886  0.9214
 6767TIP3    H120265   2.385   5.824   2.166  0.7936  0.1771  2.7470
 6767TIP3    H220266   2.477   5.798   2.049 -1.0552 -1.3253  1.5627
 6768TIP3   OH220267   5.967   1.810   0.110  0.1168 -0.5399  0.3172
 6768TIP3    H120268   5.911   1.746   0.066  0.8475 -0.5855 -0.5636
 6768TIP3    H220269   5.919   1.893   0.101 -0.1447 -0.7050  0.1822
 6769TIP3   OH220270   2.319   3.921   4.761 -0.0511  0.2406  0.3197
 6769TIP3    H120271   2.232   3.955   4.739  0.4438  0.6310 -1.1812
 6769TIP3    H220272   2.327   3.841   4.709  1.1858  1.2180 -1.0842
 6770TIP3   OH220273   1.962   4.306   0.629  0.0261 -0.3398  0.3642
 6770TIP3    H120274   2.016   4.242   0.583  0.7898  1.4807 -1.4258
 6770TIP3    H220275   2.013   4.387   0.627 -0.2670  0.0844  3.8077
 6771TIP3   OH220276   3.290   0.263   1.256 -0.7324 -0.0968 -0.3196
 6771TIP3    H120277   3.264   0.176   1.228 -0.8984 -0.1953  0.1332
 6771TIP3    H220278   3.378   0.275   1.221 -0.9842 -0.1617 -0.9938
 6772TIP3   OH220279   1.460   1.203   0.375 -0.0275  0.8808 -0.3013
 6772TIP3    H120280   1.388   1.249   0.418 -1.6138  0.0768 -1.9437
 6772TIP3    H220281   1.460   1.236   0.286  0.9772  0.0975 -0.6093
 6773TIP3   OH220282   4.614   6.553   4.840 -0.0759 -0.1273 -0.0295
 6773TIP3    H120283   4.577   6.476   4.883  0.5507 -0.4679 -0.0922
 6773TIP3    H220284   4.538   6.608   4.820 -0.8907 -1.9956 -2.5299
 6774TIP3   OH220285   0.425   6.422   2.610  0.0973  0.2476  0.2300
 6774TIP3    H120286   0.422   6.333   2.645  0.0485  0.4811  0.8301
 6774TIP3    H220287   0.482   6.416   2.534  0.4384 -0.2127  0.5172
 6775TIP3   OH220288   0.201   1.543   5.027 -0.2879 -0.8055 -0.1725
 6775TIP3    H120289   0.206   1.584   5.113 -1.4124 -0.0353 -0.4650
 6775TIP3    H220290   0.274   1.581   4.978 -0.8652  0.2871 -0.2010
 6776TIP3   OH220291   3.195   1.519   4.989  0.7168  0.0733  0.5519
 6776TIP3    H120292   3.120   1.461   5.006  1.1777 -0.6613  0.1535
 6776TIP3    H220293   3.189   1.587   5.055 -0.7668  0.4768  0.0357
 6777TIP3   OH220294   6.913   4.954   1.073 -0.6877  0.4094  0.1164
 6777TIP3    H120295   6.852   5.012   1.119 -0.2571 -0.4595  1.8961
 6777TIP3    H220296   6.862   4.875   1.056 -0.4769  0.2384  0.2777
 6778TIP3   OH220297   3.031   2.359   0.411 -0.2969 -0.1066  0.1786
 6778TIP3    H120298   2.951   2.392   0.370 -0.6976 -0.1159  0.9293
 6778TIP3    H220299   3.016   2.264   0.418  0.1350 -0.2236 -0.4333
 6779TIP3   OH220300   2.629   2.905   0.435 -0.0460  0.2106  0.2365
 6779TIP3    H120301   2.718   2.918   0.468  0.0226  1.4514 -0.4080
 6779TIP3    H220302   2.620   2.810   0.428  1.3947  0.0902 -0.1384
 6780TIP3   OH220303   2.639   0.662   1.717  0.2698  0.9349 -0.5638
 6780TIP3    H120304   2.654   0.646   1.811  0.2511  1.1585 -0.5226
 6780TIP3    H220305   2.659   0.755   1.705 -0.8027  1.1838 -0.5557
 6781TIP3   OH220306   5.505   5.722   3.781  0.2450  0.1986 -0.1846
 6781TIP3    H120307   5.534   5.776   3.854  1.7966  1.7148 -1.8169
 6781TIP3    H220308   5.582   5.668   3.758 -0.5766 -1.0987 -0.0173
 6782TIP3   OH220309   5.837   1.198   3.685  0.6291 -0.4842  0.1684
 6782TIP3    H120310   5.742   1.194   3.689  0.5453  0.1051 -0.8309
 6782TIP3    H220311   5.863   1.115   3.646  0.4006 -0.0407 -0.9716
 6783TIP3   OH220312   2.933   6.218   2.365 -0.2354 -0.1791 -0.2491
 6783TIP3    H120313   2.962   6.295   2.315 -0.5778  0.1847  0.1042
 6783TIP3    H220314   3.014   6.183   2.402 -0.3089  1.6451  1.8786
 6784TIP3   OH220315   2.677   6.490   1.756  0.4119 -0.9414 -0.2168
 6784TIP3    H120316   2.703   6.581   1.742 -1.4331 -0.4431 -0.6990
 6784TIP3    H220317   2.739   6.440   1.702 -0.5764  0.2924 -2.6591
 6785TIP3   OH220318   4.835   2.868   2.611 -0.1630 -0.0738  0.2806
 6785TIP3    H120319   4.829   2.798   2.675  0.2291 -1.0063 -0.6727
 6785TIP3    H220320   4.761   2.854   2.552 -1.0627  1.3235  1.0301
 6786TIP3   OH220321   2.132   2.366   4.959 -0.5925 -0.1488 -0.6717
 6786TIP3    H120322   2.173   2.294   4.911  0.3939  0.8098 -1.3069
 6786TIP3    H220323   2.068   2.323   5.016 -0.8616 -1.4252 -1.8814
 6787TIP3   OH220324   4.535   1.630   3.871 -0.5126  0.0492  0.4629
 6787TIP3    H120325   4.443   1.652   3.889 -0.7480 -1.1451  0.8402
 6787TIP3    H220326   4.566   1.701   3.815 -2.2975 -0.6078 -1.4955
 6788TIP3   OH220327   3.826   2.369   4.895 -0.7467  1.0037 -0.0559
 6788TIP3    H120328   3.892   2.304   4.919 -3.1120 -2.1758 -1.4118
 6788TIP3    H220329   3.855   2.401   4.810 -0.9297 -0.5074 -0.7317
 6789TIP3   OH220330   1.542   2.724   3.597  0.0079  0.6577 -0.7920
 6789TIP3    H120331   1.599   2.801   3.598  1.7977 -0.5911 -0.3226
 6789TIP3    H220332   1.536   2.698   3.689  0.7212 -0.6257 -1.0852
 6790TIP3   OH220333   6.108   1.199   4.520  0.1825  0.0225  0.2434
 6790TIP3    H120334   6.142   1.253   4.592 -0.1794  1.2327 -0.4662
 6790TIP3    H220335   6.177   1.202   4.454 -1.0362  2.1573 -1.0413
 6791TIP3   OH220336   3.643   3.503   1.033 -0.2795 -0.3374  0.3649
 6791TIP3    H120337   3.606   3.586   1.064  1.7195 -0.2542  2.7919
 6791TIP3    H220338   3.731   3.525   1.004  0.6288 -1.7099  1.9330
 6792TIP3   OH220339   1.823   2.723   0.921 -0.0469  0.0695 -0.1244
 6792TIP3    H120340   1.743   2.775   0.912 -0.1837  0.8359  3.6409
 6792TIP3    H220341   1.801   2.658   0.988  1.9221 -1.0248 -0.4597
 6793TIP3   OH220342   2.271   0.564   2.828 -0.0574  0.1679 -0.3429
 6793TIP3    H120343   2.220   0.634   2.788 -1.3155  1.6270  3.3646
 6793TIP3    H220344   2.219   0.485   2.812 -2.6406  1.3217  1.6149
 6794TIP3   OH220345   3.554   0.730   5.066 -0.5730 -0.1076 -0.4287
 6794TIP3    H120346   3.630   0.788   5.064 -0.1516 -0.6583 -1.4967
 6794TIP3    H220347   3.525   0.731   5.157  0.1187  0.8751 -0.2042
 6795TIP3   OH220348   1.895   2.175   5.152  0.3082 -0.5937 -0.0518
 6795TIP3    H120349   1.923   2.260   5.187 -1.1782 -0.0007 -0.2198
 6795TIP3    H220350   1.906   2.114   5.225 -1.7173  0.4113  1.1920
 6796TIP3   OH220351   3.196   3.728   1.353  0.0532  0.0994  0.6671
 6796TIP3    H120352   3.279   3.760   1.388 -0.1257  1.3676 -0.0103
 6796TIP3    H220353   3.146   3.701   1.430  0.3980  1.0545  1.2397
 6797TIP3   OH220354   3.510   5.674   1.324 -0.0384 -0.2823 -0.8782
 6797TIP3    H120355   3.450   5.670   1.399  0.1741 -0.3628 -0.7109
 6797TIP3    H220356   3.474   5.743   1.268 -1.4629 -1.7044 -1.7994
 6798TIP3   OH220357   4.934   6.047   2.890  0.1982  0.1507 -0.0149
 6798TIP3    H120358   4.899   6.132   2.861  0.7420  0.0731 -0.9173
 6798TIP3    H220359   4.856   5.998   2.916 -0.2268  0.5605 -0.4716
 6799TIP3   OH220360   2.620   2.819   4.421  0.1356 -0.6251  0.7298
 6799TIP3    H120361   2.571   2.738   4.403 -1.1050 -0.0256  1.2622
 6799TIP3    H220362   2.553   2.888   4.420  1.0537  0.3001  1.0508
 6800TIP3   OH220363   2.416   2.436   3.915 -0.0244  0.1779 -0.2288
 6800TIP3    H120364   2.446   2.432   3.824  1.4464  2.4393  0.0951
 6800TIP3    H220365   2.320   2.435   3.908  0.0606  0.5397 -1.8159
 6801TIP3   OH220366   3.345   5.846   4.369  0.0557  0.0051  0.6464
 6801TIP3    H120367   3.258   5.884   4.361  0.9164  1.9439 -0.2336
 6801TIP3    H220368   3.357   5.795   4.289 -0.6156 -1.1236  1.2368
 6802TIP3   OH220369   5.420   6.125   2.433 -0.3376  0.1896  0.3937
 6802TIP3    H120370   5.455   6.190   2.372 -0.5395  0.1140  0.1944
 6802TIP3    H220371   5.406   6.173   2.514  1.2112  0.0010  0.8102
 6803TIP3   OH220372   5.221   5.928   2.512 -0.4527 -0.2449  0.8218
 6803TIP3    H120373   5.137   5.972   2.524 -0.4027 -0.2110  1.0577
 6803TIP3    H220374   5.285   6.000   2.505 -0.1918 -0.2703  2.4923
 6804TIP3   OH220375   4.042   0.710   1.658 -0.0055  0.0156 -0.1914
 6804TIP3    H120376   4.039   0.756   1.574  0.1283  0.0995 -0.1508
 6804TIP3    H220377   4.135   0.691   1.672  0.0104  0.2886  0.0921
 6805TIP3   OH220378   0.841   5.810   2.141  0.3068  0.2653  1.3073
 6805TIP3    H120379   0.933   5.824   2.164  0.6624  0.1987 -0.0303
 6805TIP3    H220380   0.836   5.718   2.114 -0.2488  0.1473  1.7909
 6806TIP3   OH220381   1.966   1.234   2.596 -0.4667 -0.1785 -0.6967
 6806TIP3    H120382   1.944   1.227   2.503  0.0790 -1.2144 -0.7530
 6806TIP3    H220383   1.946   1.325   2.618 -0.6686  0.0594 -1.8087
 6807TIP3   OH220384   2.698   2.284   4.794 -0.4544 -0.3101  0.3841
 6807TIP3    H120385   2.721   2.191   4.801  1.2613 -0.0771 -1.5055
 6807TIP3    H220386   2.768   2.323   4.742 -2.6100  1.4921 -1.3503
 6808TIP3   OH220387   2.378   3.342   5.018 -0.0253 -0.1304 -0.1221
 6808TIP3    H120388   2.403   3.402   4.947 -1.8225 -0.4161 -1.0631
 6808TIP3    H220389   2.449   3.349   5.082  2.7125 -1.3555 -2.7919
 6809TIP3   OH220390   6.690   6.075   4.555  0.1127 -0.1400 -0.4216
 6809TIP3    H120391   6.619   6.038   4.608  0.6151 -1.0756 -0.3931
 6809TIP3    H220392   6.730   6.140   4.613 -0.9408  0.6739 -0.5698
 6810TIP3   OH220393   1.636   2.020   3.286 -0.1784 -0.7143 -0.8040
 6810TIP3    H120394   1.548   2.034   3.252 -0.1759  1.2784 -0.0958
 6810TIP3    H220395   1.623   1.981   3.372 -0.3697 -0.4085 -0.6939
 6811TIP3   OH220396   5.257   3.056   1.473 -0.5505 -0.2184 -0.2319
 6811TIP3    H120397   5.295   3.008   1.399  0.9220 -0.6953  0.8025
 6811TIP3    H220398   5.222   3.136   1.434  0.6513 -0.2165 -1.3746
 6812TIP3   OH220399   5.743   6.069   3.387  0.9305  0.5568  0.2228
 6812TIP3    H120400   5.686   6.145   3.383  0.1381 -0.0632 -2.6082
 6812TIP3    H220401   5.683   5.994   3.389  1.6946 -0.0531  1.6665
 6813TIP3   OH220402   6.738   4.391   3.099 -0.4131 -0.4130  0.0864
 6813TIP3    H120403   6.708   4.322   3.157 -0.5946 -0.9465 -0.6369
 6813TIP3    H220404   6.766   4.346   3.020 -0.2111  0.3110 -0.2634
 6814TIP3   OH220405   5.201   1.987   2.351 -0.1291  0.2582  0.0361
 6814TIP3    H120406   5.225   2.039   2.274  0.7740 -0.1793  0.0079
 6814TIP3    H220407   5.272   1.925   2.361 -0.7916 -0.4368  0.5629
 6815TIP3   OH220408   6.134   1.513   0.810 -0.3616  0.1165  0.0256
 6815TIP3    H120409   6.143   1.532   0.903 -0.9925  2.4021 -0.3175
 6815TIP3    H220410   6.050   1.467   0.802 -0.9836  1.1554  0.4563
 6816TIP3   OH220411   2.038   3.751   0.551 -0.0692  0.3685 -0.2002
 6816TIP3    H120412   2.116   3.805   0.561 -1.0703  2.1650 -1.6703
 6816TIP3    H220413   2.005   3.740   0.640  0.0138  2.4558  0.1284
 6817TIP3   OH220414   5.727   1.390   0.203 -0.0797 -0.1703 -0.6166
 6817TIP3    H120415   5.778   1.413   0.280  1.2705  1.2878 -1.8778
 6817TIP3    H220416   5.782   1.327   0.156  0.0866  0.5395 -1.4100
 6818TIP3   OH220417   5.172   1.488   3.199  0.0367  0.4298 -0.2603
 6818TIP3    H120418   5.137   1.563   3.249 -0.7802  0.1854 -0.4544
 6818TIP3    H220419   5.169   1.415   3.261 -0.8460  0.1587 -0.6015
 6819TIP3   OH220420   2.285   0.701   4.576  0.0731 -0.0242  0.3669
 6819TIP3    H120421   2.305   0.668   4.489 -0.9522  0.8830 -0.2455
 6819TIP3    H220422   2.344   0.654   4.634  1.6322  0.2369 -0.9482
 6820TIP3   OH220423   2.348   6.066   3.783 -0.0037 -0.1338 -0.3551
 6820TIP3    H120424   2.359   6.064   3.878 -0.1354  0.8548 -0.3146
 6820TIP3    H220425   2.382   5.981   3.753 -1.0811 -0.9758  0.6854
 6821TIP3   OH220426   5.465   1.839   0.547 -0.3624  0.0993  0.1999
 6821TIP3    H120427   5.532   1.778   0.518 -1.7657 -0.8178 -1.2330
 6821TIP3    H220428   5.441   1.888   0.468 -0.5048  1.2851  0.9578
 6822TIP3   OH220429  -0.017   0.403   3.072 -0.0921 -0.2960 -0.2180
 6822TIP3    H120430   0.018   0.444   3.151  1.7845 -1.7205 -0.2426
 6822TIP3    H220431   0.011   0.311   3.078 -1.9356 -0.9777 -1.4033
 6823TIP3   OH220432   1.748   1.841   2.298  0.1365  0.3081  0.3006
 6823TIP3    H120433   1.745   1.847   2.202 -3.2575  0.0682  0.2784
 6823TIP3    H220434   1.826   1.890   2.322  2.2356 -1.2668 -2.6515
 6824TIP3   OH220435   1.047   4.109   0.104 -0.3545  0.4343  0.0604
 6824TIP3    H120436   1.105   4.106   0.180 -2.3668 -0.2125  1.6623
 6824TIP3    H220437   1.084   4.046   0.042  0.7892  0.2509  0.9147
 6825TIP3   OH220438   4.253   5.628   3.429 -0.5715 -0.4583  0.4469
 6825TIP3    H120439   4.219   5.550   3.386  0.0116 -0.3375 -0.2406
 6825TIP3    H220440   4.192   5.644   3.502 -1.5058 -0.7190 -0.2680
 6826TIP3   OH220441   0.632   0.891   3.305  0.1818  0.5660  0.0650
 6826TIP3    H120442   0.719   0.853   3.321  0.0935  0.1844 -0.3385
 6826TIP3    H220443   0.583   0.820   3.264  0.7299  1.7765 -3.0092
 6827TIP3   OH220444   5.215   2.653   5.599  0.6479  0.2630  0.0808
 6827TIP3    H120445   5.196   2.619   5.511 -1.1743 -0.5798  0.7421
 6827TIP3    H220446   5.300   2.617   5.621  0.9334  0.1193 -1.1431
 6828TIP3   OH220447   6.666   4.875   0.291  0.2412 -0.4056  0.1500
 6828TIP3    H120448   6.614   4.795   0.289 -2.1958  1.0691  0.6523
 6828TIP3    H220449   6.705   4.881   0.204 -1.3372 -1.0319 -0.6292
 6829TIP3   OH220450   3.010   5.505   1.311  0.3024 -0.6777  0.7303
 6829TIP3    H120451   3.086   5.541   1.265 -0.1902  0.6349  0.9044
 6829TIP3    H220452   3.046   5.440   1.370  1.5678  1.2498  2.2073
 6830TIP3   OH220453   2.389   6.324   0.772  0.0844 -0.2998 -0.5499
 6830TIP3    H120454   2.473   6.368   0.757  0.9602 -0.5802  2.7970
 6830TIP3    H220455   2.327   6.396   0.787  0.2512 -0.1474 -0.5899
 6831TIP3   OH220456   6.734   6.578   1.164  0.0015  0.3051 -0.2453
 6831TIP3    H120457   6.696   6.665   1.160  0.2902  0.4263 -0.4096
 6831TIP3    H220458   6.686   6.528   1.098  1.3038  0.9323 -1.7313
 6832TIP3   OH220459   4.518   3.991   1.685 -0.1140  0.0102 -0.1338
 6832TIP3    H120460   4.424   3.981   1.669 -0.4285  1.9488  0.2633
 6832TIP3    H220461   4.524   4.015   1.777  0.5044  2.3796 -0.7220
 6833TIP3   OH220462   3.381   4.539   3.085 -0.1093  0.0113 -0.4858
 6833TIP3    H120463   3.369   4.629   3.115  0.8583 -0.0385  0.0976
 6833TIP3    H220464   3.349   4.540   2.995  0.7150  1.1682 -0.7922
 6834TIP3   OH220465   5.811   4.235   5.508 -0.5587 -0.0505  0.3822
 6834TIP3    H120466   5.767   4.219   5.591 -0.4548  1.5416  0.7912
 6834TIP3    H220467   5.902   4.211   5.524 -0.7856 -0.9879  0.3101
 6835TIP3   OH220468   3.843   2.879   0.905  0.4544 -0.7223  0.1766
 6835TIP3    H120469   3.910   2.821   0.941  1.7339 -0.3563 -1.4793
 6835TIP3    H220470   3.893   2.950   0.863 -1.0084  0.2436  0.0117
 6836TIP3   OH220471   4.563   4.507   1.799 -0.0351  0.0307 -0.0263
 6836TIP3    H120472   4.575   4.419   1.763  0.4346 -0.0874  0.4142
 6836TIP3    H220473   4.504   4.550   1.737  1.3885  0.0955 -1.3879
 6837TIP3   OH220474   2.635   1.125   0.784 -0.0772  0.0868 -0.3460
 6837TIP3    H120475   2.686   1.112   0.864  0.7335  0.0269 -0.8570
 6837TIP3    H220476   2.586   1.044   0.773 -0.3854  0.1897  0.2191
 6838TIP3   OH220477   2.120   6.501   4.507  0.0488  0.4921 -0.1012
 6838TIP3    H120478   2.056   6.565   4.538  0.4148  0.7093  0.2189
 6838TIP3    H220479   2.199   6.552   4.492  0.3245  0.1250  0.0990
 6839TIP3   OH220480   0.794   5.410   3.404  0.0553  0.4728 -0.2074
 6839TIP3    H120481   0.783   5.390   3.311 -1.4507  0.7312 -0.1188
 6839TIP3    H220482   0.800   5.325   3.446  0.1040  0.3368 -0.4870
 6840TIP3   OH220483   3.435   4.643   3.409  0.4302 -0.1779  0.5663
 6840TIP3    H120484   3.365   4.693   3.366  0.2029 -0.4047  0.6713
 6840TIP3    H220485   3.495   4.710   3.442 -0.3259  0.0617  1.4879
 6841TIP3   OH220486   1.669   3.904   3.312  0.4866 -0.2707 -0.0071
 6841TIP3    H120487   1.760   3.919   3.287  0.1920 -0.2343 -1.0917
 6841TIP3    H220488   1.619   3.916   3.232 -0.6600  1.1658  0.8701
 6842TIP3   OH220489   0.269   2.253   1.178 -0.3861 -0.7100 -0.1335
 6842TIP3    H120490   0.254   2.238   1.271 -1.0601 -1.0419 -0.2894
 6842TIP3    H220491   0.304   2.169   1.145 -2.0076 -1.2598 -0.5545
 6843TIP3   OH220492   1.844   2.350   0.873 -0.0367  0.2539  0.0103
 6843TIP3    H120493   1.867   2.392   0.956  0.0246  1.7883 -0.7538
 6843TIP3    H220494   1.753   2.322   0.884  0.3464 -0.6638  1.0099
 6844TIP3   OH220495   2.886   0.878   5.332  0.6162 -0.1087 -0.2394
 6844TIP3    H120496   2.944   0.920   5.269 -0.3046  2.0694  0.2611
 6844TIP3    H220497   2.840   0.951   5.374  0.8840 -1.4709  2.6633
 6845TIP3   OH220498   4.342   0.678   1.589  0.2888  0.4296 -0.0736
 6845TIP3    H120499   4.436   0.662   1.584  0.3354  0.9172 -0.9355
 6845TIP3    H220500   4.314   0.630   1.667  1.0858 -0.5214 -0.3478
 6846TIP3   OH220501   4.855   0.609   0.256 -0.7810 -0.7690 -0.0702
 6846TIP3    H120502   4.947   0.605   0.282 -0.7780  1.3348  0.4428
 6846TIP3    H220503   4.843   0.534   0.198  1.1455 -1.3377  0.2016
 6847TIP3   OH220504   4.451   1.091   4.637 -0.1165  0.0032  0.0965
 6847TIP3    H120505   4.438   1.089   4.543 -2.0883 -0.1963  0.3264
 6847TIP3    H220506   4.540   1.126   4.649 -0.7057  2.4031 -1.7854
 6848TIP3   OH220507   0.706   0.747   3.036  0.1001  0.7278 -0.5072
 6848TIP3    H120508   0.782   0.704   3.075 -0.0600  2.0754  1.3995
 6848TIP3    H220509   0.741   0.825   2.993  0.0203  0.3054 -1.3555
 6849TIP3   OH220510   3.158   4.431   3.668  0.2080 -0.1859 -0.5254
 6849TIP3    H120511   3.088   4.486   3.632  0.7341 -0.7461 -2.4950
 6849TIP3    H220512   3.112   4.365   3.720 -0.5660  0.7103 -0.0331
 6850TIP3   OH220513   3.273   1.681   5.443 -0.2182 -0.1196  0.3990
 6850TIP3    H120514   3.229   1.618   5.386 -0.4630  1.0768 -0.7934
 6850TIP3    H220515   3.203   1.736   5.478  0.0570 -0.0197  0.8086
 6851TIP3   OH220516   6.372   2.604   0.100 -0.0496  0.2583  0.3582
 6851TIP3    H120517   6.464   2.589   0.120 -0.0777 -1.2242 -0.4971
 6851TIP3    H220518   6.343   2.524   0.057 -1.3770  1.2354 -0.6614
 6852TIP3   OH220519   1.686   2.729   0.057  0.1924 -0.0082 -1.0418
 6852TIP3    H120520   1.670   2.748   0.149  0.3763 -0.3296 -0.9429
 6852TIP3    H220521   1.601   2.700   0.024  0.2537 -0.4285 -0.8376
 6853TIP3   OH220522   2.719   4.477   2.374 -0.1457 -0.4020  0.1563
 6853TIP3    H120523   2.759   4.488   2.288 -0.2811  1.1828  0.2715
 6853TIP3    H220524   2.651   4.411   2.360  0.7762 -1.2368 -0.6027
 6854TIP3   OH220525   1.784   2.522   5.160 -0.1425  0.1701  0.5705
 6854TIP3    H120526   1.834   2.464   5.217 -1.6973 -1.7107  0.1407
 6854TIP3    H220527   1.848   2.584   5.125  2.2711 -3.0887 -1.2483
 6855TIP3   OH220528   5.265   1.118   5.173 -0.5685 -0.3697  0.0634
 6855TIP3    H120529   5.200   1.068   5.123 -1.4660 -0.7589  1.5527
 6855TIP3    H220530   5.272   1.071   5.257  0.0760  0.8629  0.7300
 6856TIP3   OH220531   3.043   4.334   0.004 -0.0487 -0.6005 -0.4268
 6856TIP3    H120532   2.997   4.306   0.084  1.2849  0.1868  0.6598
 6856TIP3    H220533   3.093   4.257  -0.023  0.3149 -0.5582  0.1146
 6857TIP3   OH220534   2.628   2.202   1.741  0.1070  0.4819 -0.2188
 6857TIP3    H120535   2.647   2.126   1.796 -0.5623  0.7358  0.3753
 6857TIP3    H220536   2.556   2.173   1.685  1.8502 -0.3331 -2.1583
 6858TIP3   OH220537   0.329   3.113   1.065  0.5758  0.8119 -0.4578
 6858TIP3    H120538   0.325   3.022   1.094  0.1725  0.6541 -0.9909
 6858TIP3    H220539   0.330   3.164   1.146 -0.5336  0.3882 -0.1627
 6859TIP3   OH220540   2.180   3.798   0.109 -0.2236 -0.0328 -0.0088
 6859TIP3    H120541   2.206   3.889   0.096 -2.5156  1.0991  2.4153
 6859TIP3    H220542   2.246   3.762   0.168 -0.2097  0.5621  0.3441
 6860TIP3   OH220543   2.358   5.537   0.412 -0.3174  0.0426 -0.0680
 6860TIP3    H120544   2.405   5.458   0.389 -1.1634 -0.0542 -1.5974
 6860TIP3    H220545   2.313   5.564   0.331 -3.6519 -0.4225  1.4310
 6861TIP3   OH220546   1.643   6.316   0.050  0.1200 -0.2928 -0.8619
 6861TIP3    H120547   1.684   6.254  -0.010  0.5501 -0.5133 -0.3474
 6861TIP3    H220548   1.700   6.394   0.046  0.0355 -0.2330 -0.8967
 6862TIP3   OH220549   4.530   3.764   5.721 -0.4000 -0.1653 -0.6377
 6862TIP3    H120550   4.610   3.712   5.718 -1.4308 -1.7646 -2.7159
 6862TIP3    H220551   4.467   3.715   5.668 -2.2782  1.8526 -0.4189
 6863TIP3   OH220552   2.097   4.655   0.330 -0.2235  0.5621  0.2220
 6863TIP3    H120553   2.100   4.707   0.411  0.3877 -0.4353  0.8688
 6863TIP3    H220554   2.033   4.700   0.275  0.1465  1.8928  0.8152
 6864TIP3   OH220555   5.668   5.400   3.195 -0.1762  0.4053  0.2396
 6864TIP3    H120556   5.610   5.399   3.120  0.2774 -0.4161 -0.1201
 6864TIP3    H220557   5.636   5.330   3.252  0.2418  0.1827  0.2061
 6865TIP3   OH220558   4.623   1.828   0.971  0.5658  0.4509 -0.0544
 6865TIP3    H120559   4.710   1.798   0.998  0.9662 -0.1936 -1.8744
 6865TIP3    H220560   4.596   1.889   1.039  2.4670  0.7038  0.5345
 6866TIP3   OH220561   6.386   2.227   1.918 -0.3663  0.2673  0.1369
 6866TIP3    H120562   6.422   2.140   1.901 -0.6577 -0.0509  1.0656
 6866TIP3    H220563   6.420   2.282   1.848  0.0248 -0.5422 -0.3161
 6867TIP3   OH220564   4.306   6.458   2.943 -0.0396  0.6873 -0.3642
 6867TIP3    H120565   4.347   6.487   2.861  0.2856 -0.2693 -0.5459
 6867TIP3    H220566   4.314   6.363   2.942 -1.0228  0.5834  0.2661
 6868TIP3   OH220567   3.564   4.822   2.113  0.0467 -0.7073  0.0090
 6868TIP3    H120568   3.519   4.775   2.183 -3.1381 -0.3708 -1.5863
 6868TIP3    H220569   3.517   4.797   2.033  0.5392  2.2952 -1.3977
 6869TIP3   OH220570   3.406   1.533   4.654 -0.1958  0.1424  0.3875
 6869TIP3    H120571   3.490   1.522   4.697 -1.4567 -0.2638  2.9086
 6869TIP3    H220572   3.368   1.611   4.693 -2.1207 -1.2187  1.3793
 6870TIP3   OH220573   0.835   2.387   1.718  0.0778  0.1344 -0.3280
 6870TIP3    H120574   0.812   2.334   1.642  1.3107 -0.0145 -0.6152
 6870TIP3    H220575   0.883   2.461   1.681 -2.9104  2.3572 -0.1101
 6871TIP3   OH220576   6.463   1.384   5.747  0.4487 -0.5371 -0.0828
 6871TIP3    H120577   6.492   1.328   5.819  0.6205  0.8955  0.9980
 6871TIP3    H220578   6.447   1.469   5.787 -0.6604 -0.0225 -1.5208
 6872TIP3   OH220579   5.523   0.586   0.799 -0.6137 -0.2248  0.1462
 6872TIP3    H120580   5.499   0.545   0.882  0.1538  2.7714  2.0403
 6872TIP3    H220581   5.611   0.555   0.781 -0.7073 -0.7488  0.5744
 6873TIP3   OH220582   3.768   0.751   0.969  0.1715 -0.1176  0.1079
 6873TIP3    H120583   3.748   0.710   1.053 -0.1981  0.2852  0.2265
 6873TIP3    H220584   3.854   0.717   0.945 -0.2148 -1.1102  0.0950
 6874TIP3   OH220585   3.946   6.137   4.564  0.1908  0.0123  0.4304
 6874TIP3    H120586   4.016   6.182   4.612 -0.4308  0.2325  1.1535
 6874TIP3    H220587   3.936   6.187   4.484 -1.2689  1.9250  1.7207
 6875TIP3   OH220588   6.981   2.745   0.777 -0.3015  0.0249  0.3932
 6875TIP3    H120589   7.076   2.754   0.769 -0.3188  0.2471  0.4561
 6875TIP3    H220590   6.945   2.820   0.729 -0.4893 -1.1441 -1.4248
 6876TIP3   OH220591   6.435   0.427   4.335  0.1163 -0.2421 -0.2837
 6876TIP3    H120592   6.374   0.436   4.262  0.0065 -0.3068 -0.1986
 6876TIP3    H220593   6.466   0.337   4.330  0.1681 -0.2236 -0.2973
 6877TIP3   OH220594   4.679   5.194   0.127  0.5768 -0.1390  0.3297
 6877TIP3    H120595   4.688   5.104   0.098  0.7568  0.2991 -1.0623
 6877TIP3    H220596   4.585   5.205   0.144  0.5097 -0.4881  0.1844
 6878TIP3   OH220597   0.735   4.307   0.433 -0.0958 -0.5093 -0.4258
 6878TIP3    H120598   0.732   4.372   0.503 -3.3582 -1.0002  0.0521
 6878TIP3    H220599   0.688   4.232   0.467 -0.9540 -1.1502 -2.7855
 6879TIP3   OH220600   3.879   3.595   0.933 -0.0434 -0.4285 -0.1981
 6879TIP3    H120601   3.915   3.675   0.895  0.1699 -0.8398 -0.8654
 6879TIP3    H220602   3.955   3.546   0.963 -0.0821 -1.0093 -1.0407
 6880TIP3   OH220603   5.027   2.812   1.933 -0.3099  0.3556  0.3206
 6880TIP3    H120604   5.071   2.847   2.011 -1.0936  0.7889  0.5802
 6880TIP3    H220605   5.060   2.723   1.925  0.9307  0.7999  0.2608
 6881TIP3   OH220606   2.023   1.901   4.877  0.9172 -0.4362  0.5736
 6881TIP3    H120607   1.988   1.935   4.794 -0.4924  1.5488  1.8912
 6881TIP3    H220608   2.117   1.920   4.873  0.8352 -0.1700 -0.4653
 6882TIP3   OH220609   5.099   3.915   1.936  0.3374  0.7247 -0.1205
 6882TIP3    H120610   5.146   3.946   2.013  1.4370 -1.0469 -0.0296
 6882TIP3    H220611   5.083   3.822   1.953  2.0146 -0.1322 -2.6334
 6883TIP3   OH220612   4.839   6.144   1.472  0.1010  0.5975 -0.5468
 6883TIP3    H120613   4.838   6.158   1.377 -2.1111  0.6092 -0.5839
 6883TIP3    H220614   4.871   6.226   1.508  0.2919  0.8518 -1.2666
 6884TIP3   OH220615   4.817   6.454   0.804 -0.4419 -0.3610 -0.3314
 6884TIP3    H120616   4.899   6.489   0.838 -0.4736  0.1125 -0.7345
 6884TIP3    H220617   4.842   6.402   0.727 -0.4536 -0.7837 -0.0562
 6885TIP3   OH220618   3.709   0.583   2.767  0.3721 -0.4995  0.5040
 6885TIP3    H120619   3.778   0.646   2.743 -0.9956  1.4638  1.4455
 6885TIP3    H220620   3.719   0.570   2.861  0.2858 -1.2456  0.4120
 6886TIP3   OH220621   4.054   0.225   0.676 -0.3254  0.3664 -0.1908
 6886TIP3    H120622   4.147   0.206   0.683 -0.8028 -2.1253  0.6503
 6886TIP3    H220623   4.032   0.206   0.585 -0.5046 -2.1936  0.2958
 6887TIP3   OH220624   3.360   6.045   1.363 -0.3271  0.2215 -0.1523
 6887TIP3    H120625   3.394   5.997   1.287 -0.1734  0.6884 -0.3838
 6887TIP3    H220626   3.342   5.977   1.428  1.2636 -0.0266  0.0670
 6888TIP3   OH220627   5.285   0.347   4.423 -0.2897  0.0177 -0.5679
 6888TIP3    H120628   5.333   0.264   4.421 -0.4878 -0.1417  0.6079
 6888TIP3    H220629   5.228   0.340   4.500  0.2705  1.5567  0.0257
 6889TIP3   OH220630   5.185   1.170   4.167  0.0956 -0.1307 -0.9964
 6889TIP3    H120631   5.140   1.196   4.247  0.6773 -0.7484 -0.4564
 6889TIP3    H220632   5.240   1.245   4.145 -1.2974  0.7112 -1.7731
 6890TIP3   OH220633   6.851   2.257   3.516 -0.4043  0.0412 -0.1046
 6890TIP3    H120634   6.920   2.233   3.453  0.0577  1.9382 -0.3883
 6890TIP3    H220635   6.771   2.256   3.464 -0.0007  1.7904 -0.8363
 6891TIP3   OH220636   5.078   5.173   5.279  0.3313  0.0261 -0.3847
 6891TIP3    H120637   5.158   5.130   5.249  1.2448  0.3742  1.3979
 6891TIP3    H220638   5.096   5.195   5.371 -1.6519  0.5144 -0.0712
 6892TIP3   OH220639   1.492   4.457   0.055 -0.4185 -0.0477  0.1205
 6892TIP3    H120640   1.428   4.419  -0.006 -0.9165  1.5662 -0.4248
 6892TIP3    H220641   1.458   4.545   0.072  0.9679  0.3550  0.8962
 6893TIP3   OH220642   4.069   3.662   4.767  0.1663  0.2887  0.5941
 6893TIP3    H120643   4.034   3.579   4.735  0.7793  1.1192 -2.5552
 6893TIP3    H220644   4.149   3.676   4.717  1.1773  1.8499  2.4958
 6894TIP3   OH220645   0.918   2.757   4.403  0.1737 -0.1709  0.4136
 6894TIP3    H120646   0.868   2.740   4.323 -0.2109 -0.8920  0.7965
 6894TIP3    H220647   0.852   2.777   4.469  0.4396 -0.3715  0.7431
 6895TIP3   OH220648   0.952   0.365   2.688  0.2474 -0.2024  0.4143
 6895TIP3    H120649   0.922   0.275   2.698  0.7687 -0.4693 -0.3352
 6895TIP3    H220650   0.905   0.414   2.755  0.5055 -1.1596  1.3130
 6896TIP3   OH220651   3.321   4.073   2.562  0.3037  0.4272  0.1503
 6896TIP3    H120652   3.304   4.027   2.480  1.3128  0.7672 -0.2752
 6896TIP3    H220653   3.400   4.032   2.597  1.3815  1.9322 -0.3701
 6897TIP3   OH220654   4.512   0.950   1.550  0.0972 -0.5578  0.0124
 6897TIP3    H120655   4.500   0.861   1.584  1.4704 -1.0703 -0.7672
 6897TIP3    H220656   4.487   1.007   1.623 -2.3680 -1.5206  0.0061
 6898TIP3   OH220657   0.150   0.527   1.732  0.1139  0.0316 -0.4274
 6898TIP3    H120658   0.055   0.524   1.746  0.2477 -2.4965  0.5479
 6898TIP3    H220659   0.163   0.486   1.646  0.3752 -1.3138  0.2214
 6899TIP3   OH220660   2.528   3.627   5.118 -0.1161  0.1566  0.0029
 6899TIP3    H120661   2.560   3.538   5.104 -2.8761 -0.8335 -0.5182
 6899TIP3    H220662   2.485   3.651   5.036 -0.9264  1.3020  0.7354
 6900TIP3   OH220663   0.511   4.573   2.541  0.0565 -0.1251  0.2390
 6900TIP3    H120664   0.598   4.586   2.501 -0.1750  1.2928  0.1457
 6900TIP3    H220665   0.511   4.631   2.617 -1.6753  1.8876 -1.1760
 6901TIP3   OH220666   5.996   0.103   0.233 -0.7240 -0.1381  1.1764
 6901TIP3    H120667   5.994   0.192   0.266 -1.0861 -0.1666  1.2327
 6901TIP3    H220668   5.964   0.049   0.306 -1.3118 -0.2246  0.8641
 6902TIP3   OH220669   0.673   1.846   1.752 -0.2976  0.4296  0.0102
 6902TIP3    H120670   0.724   1.917   1.791  0.4721 -1.5108  2.8976
 6902TIP3    H220671   0.723   1.767   1.773 -1.4963 -1.0815 -2.3942
 6903TIP3   OH220672   4.027   1.747   3.624  0.5552  0.3290  0.6999
 6903TIP3    H120673   3.965   1.816   3.599  2.2354  1.8594  0.5454
 6903TIP3    H220674   4.031   1.689   3.548  0.9149  1.4361 -0.1587
 6904TIP3   OH220675   2.082   4.824   2.876 -0.6025 -0.2422 -0.6177
 6904TIP3    H120676   1.987   4.834   2.881 -0.3680  1.5246  1.2551
 6904TIP3    H220677   2.097   4.732   2.900 -1.7256  0.0580  1.4591
 6905TIP3   OH220678   0.786   2.457   2.935 -0.5969 -0.0057  0.0057
 6905TIP3    H120679   0.830   2.434   3.017 -0.6889  1.1604  0.3955
 6905TIP3    H220680   0.699   2.418   2.943 -0.2606 -0.7757  0.0055
 6906TIP3   OH220681   7.205   1.581   2.116  0.7064  0.9895 -0.2662
 6906TIP3    H120682   7.263   1.581   2.040  0.4480  0.6737 -0.4647
 6906TIP3    H220683   7.119   1.607   2.081  0.8737  2.2017  0.1474
 6907TIP3   OH220684   2.578   2.715   2.022 -0.4984 -0.0605  0.2783
 6907TIP3    H120685   2.571   2.688   1.930 -2.3679  0.7075  0.1583
 6907TIP3    H220686   2.672   2.719   2.039 -0.1057  0.3308 -1.7636
 6908TIP3   OH220687   1.053   1.277   5.406  0.4194  0.0964  0.3818
 6908TIP3    H120688   0.968   1.235   5.390 -0.4510  1.6402  0.7361
 6908TIP3    H220689   1.035   1.343   5.473  1.6386  1.2999 -0.4209
 6909TIP3   OH220690   3.933   6.763   4.423  0.1741  0.8527  0.1810
 6909TIP3    H120691   3.863   6.788   4.484  0.3196 -1.1871  1.2781
 6909TIP3    H220692   4.010   6.751   4.479  1.1849  2.0666 -0.8757
 6910TIP3   OH220693   0.283   4.577   1.604 -0.6557  0.3835  0.6825
 6910TIP3    H120694   0.236   4.633   1.541 -1.6506  0.1582  1.1979
 6910TIP3    H220695   0.360   4.627   1.628  0.2813  0.0736 -1.4553
 6911TIP3   OH220696   2.631   0.026   1.918  0.3448  0.1835  0.3048
 6911TIP3    H120697   2.684  -0.018   1.984  2.2444  1.0080 -0.5949
 6911TIP3    H220698   2.589   0.098   1.966  1.2758  0.4551  0.7510
 6912TIP3   OH220699   4.001   4.907   0.319 -0.1832  0.9040 -0.1484
 6912TIP3    H120700   3.986   4.815   0.344 -0.2077  1.3513  1.6134
 6912TIP3    H220701   3.921   4.931   0.272 -0.4664  0.2090 -0.0492
 6913TIP3   OH220702   3.726   0.371   1.091  0.0947  0.0643 -0.2860
 6913TIP3    H120703   3.802   0.324   1.055 -0.2000  0.0003 -0.8276
 6913TIP3    H220704   3.703   0.321   1.170  0.4921 -0.0291 -0.2219
 6914TIP3   OH220705   5.422   1.600   3.395 -0.2185  0.0508 -0.1102
 6914TIP3    H120706   5.494   1.624   3.454 -0.4112  0.9036 -0.2062
 6914TIP3    H220707   5.370   1.680   3.387 -0.2834 -0.0918 -1.3222
 6915TIP3   OH220708   4.091   5.636   1.545  0.1307 -0.4608 -0.1844
 6915TIP3    H120709   4.049   5.651   1.630 -1.2222 -3.7853 -0.0849
 6915TIP3    H220710   4.183   5.622   1.566 -0.2692 -1.7706  0.9112
 6916TIP3   OH220711   1.634   3.485   2.319  0.1517 -0.7285  0.3911
 6916TIP3    H120712   1.539   3.491   2.332 -0.2096 -2.4216 -0.9429
 6916TIP3    H220713   1.668   3.457   2.404 -0.8774 -2.2799  0.3509
 6917TIP3   OH220714   2.329   1.621   5.646  0.0336  0.1887 -0.1475
 6917TIP3    H120715   2.420   1.592   5.637  0.4926  1.7089 -0.8432
 6917TIP3    H220716   2.277   1.547   5.617  0.9699 -1.2575  1.6442
 6918TIP3   OH220717   3.748   0.822   3.915  0.7361  0.7836  0.0492
 6918TIP3    H120718   3.663   0.807   3.874  0.8049 -0.2544  0.2560
 6918TIP3    H220719   3.752   0.758   3.985  1.4766  1.1773  0.3754
 6919TIP3   OH220720   6.644   3.580   3.058  1.1459 -0.0489 -0.0780
 6919TIP3    H120721   6.611   3.493   3.037  1.3689  0.1353 -1.2349
 6919TIP3    H220722   6.739   3.571   3.054  1.1795  0.1535  0.2325
 6920TIP3   OH220723   4.752   5.318   2.790  0.7621 -0.2202  0.0174
 6920TIP3    H120724   4.693   5.296   2.862 -0.2449  0.5147 -0.5504
 6920TIP3    H220725   4.835   5.342   2.832  0.6414 -1.1846  0.8359
 6921TIP3   OH220726   2.685   5.321   4.411  0.0236  0.2854  0.1695
 6921TIP3    H120727   2.627   5.344   4.338  0.1015 -1.6181 -0.5718
 6921TIP3    H220728   2.772   5.315   4.371  0.0905 -0.6362  0.4229
 6922TIP3   OH220729   7.110   6.785   1.252 -0.7725  0.2025  0.4333
 6922TIP3    H120730   7.069   6.724   1.314 -1.5762  1.0118  0.7278
 6922TIP3    H220731   7.084   6.753   1.166 -2.3992  0.9063  0.6227
 6923TIP3   OH220732   4.589   0.992   1.993  0.0403  0.6080  0.1630
 6923TIP3    H120733   4.594   0.904   1.955 -1.6771  0.3761  0.3629
 6923TIP3    H220734   4.664   1.039   1.957  0.2264 -0.5480 -1.0133
 6924TIP3   OH220735   6.334   5.090   0.089  0.1144 -0.9917  0.5936
 6924TIP3    H120736   6.259   5.067   0.144  0.0532 -1.8274  0.1731
 6924TIP3    H220737   6.388   5.146   0.144 -0.4688 -0.9525  1.1409
 6925TIP3   OH220738   5.995   5.580   3.590  0.1938  0.3804  0.0551
 6925TIP3    H120739   6.030   5.669   3.590  2.1440 -0.3230  1.6637
 6925TIP3    H220740   5.925   5.582   3.525  0.2252  3.0598  0.0114
 6926TIP3   OH220741   0.494   4.322   5.738  0.2632 -0.0273 -0.1714
 6926TIP3    H120742   0.530   4.243   5.698  1.6285  0.8929 -0.8483
 6926TIP3    H220743   0.419   4.345   5.684  0.1714 -0.5565 -0.2771
 6927TIP3   OH220744   6.764   5.870   0.181 -0.5307 -0.4964 -0.3886
 6927TIP3    H120745   6.700   5.922   0.229 -0.3798 -2.8159  2.6163
 6927TIP3    H220746   6.722   5.852   0.096 -1.1355  3.1192 -0.9973
 6928TIP3   OH220747   6.397   4.704   4.308 -0.0379 -0.0637  0.0367
 6928TIP3    H120748   6.304   4.693   4.330 -0.4765  0.2299 -1.5609
 6928TIP3    H220749   6.397   4.762   4.232  1.4419 -0.4265 -0.2699
 6929TIP3   OH220750   4.150   4.315   3.461 -0.1678  0.4838  0.1342
 6929TIP3    H120751   4.137   4.223   3.438  2.0850  0.0186  0.4849
 6929TIP3    H220752   4.061   4.350   3.472 -1.1053 -2.1976  2.2286
 6930TIP3   OH220753   4.560   2.969   5.885 -0.2530  0.3893 -0.5285
 6930TIP3    H120754   4.585   2.890   5.932  1.6010  0.5925 -1.0680
 6930TIP3    H220755   4.484   2.944   5.833 -0.2394 -0.7722 -0.0011
 6931TIP3   OH220756   4.801   4.055   2.536 -0.0459  0.0403  0.1223
 6931TIP3    H120757   4.807   4.101   2.452  0.3815 -1.1552 -0.5203
 6931TIP3    H220758   4.776   3.966   2.513  2.7170 -1.0639  0.9892
 6932TIP3   OH220759   5.629   5.622   0.743  0.6715  0.3713 -0.2135
 6932TIP3    H120760   5.681   5.610   0.663  0.6224  2.2778 -0.5844
 6932TIP3    H220761   5.595   5.534   0.763  3.6111 -0.8827 -0.1982
 6933TIP3   OH220762   1.324   5.835   2.048  0.1373 -0.3087  0.3385
 6933TIP3    H120763   1.341   5.762   1.989 -1.3660  0.2079 -0.7850
 6933TIP3    H220764   1.411   5.861   2.079  1.0913  0.0252 -2.3968
 6934TIP3   OH220765   5.136   2.392   3.837 -0.2936  0.0034 -0.0604
 6934TIP3    H120766   5.145   2.305   3.799 -1.0349  0.0736 -0.4075
 6934TIP3    H220767   5.102   2.376   3.926 -0.9059 -0.0403 -0.2990
 6935TIP3   OH220768   6.587   0.141   5.648 -0.0501 -0.7896  0.0634
 6935TIP3    H120769   6.518   0.082   5.617 -1.5088  1.7135 -1.8684
 6935TIP3    H220770   6.639   0.159   5.570  0.2896  0.5540  0.5824
 6936TIP3   OH220771   3.304   1.932   5.313 -0.5501  0.3843 -0.4790
 6936TIP3    H120772   3.372   1.996   5.334 -0.4138 -0.1429  0.7628
 6936TIP3    H220773   3.258   1.917   5.396 -0.2076 -1.5530 -0.5898
 6937TIP3   OH220774   4.109   1.786   2.025  0.0536 -0.0679 -0.1543
 6937TIP3    H120775   4.146   1.856   2.079  0.0518 -0.3208  0.1794
 6937TIP3    H220776   4.065   1.832   1.953 -0.6085  0.3037  0.4753
 6938TIP3   OH220777   6.417   3.896   2.574 -0.3497  0.4491 -0.8084
 6938TIP3    H120778   6.363   3.860   2.645  0.5957 -1.1475 -0.8423
 6938TIP3    H220779   6.386   3.985   2.563 -1.4733  0.2815  0.6707
 6939TIP3   OH220780   3.231   4.522   0.052 -0.4968 -0.0601 -0.0338
 6939TIP3    H120781   3.177   4.458   0.004 -0.5908 -1.1407  1.4294
 6939TIP3    H220782   3.189   4.606   0.035 -1.3546 -0.6047 -0.6996
 6940TIP3   OH220783   3.605   6.092   3.479 -0.1182  0.7616  0.3999
 6940TIP3    H120784   3.598   6.173   3.428  3.4827 -0.0163 -1.7030
 6940TIP3    H220785   3.546   6.030   3.435  1.3772  0.7103 -1.6756
 6941TIP3   OH220786   3.447   2.330   0.496  0.6464  0.5259 -0.2244
 6941TIP3    H120787   3.421   2.319   0.405 -1.2411 -0.7497  0.3997
 6941TIP3    H220788   3.374   2.377   0.536 -0.7651 -2.8334  1.5354
 6942TIP3   OH220789   6.316   3.125   1.599 -0.2855  0.2711  0.1336
 6942TIP3    H120790   6.220   3.122   1.594 -0.3458  0.3105  1.0235
 6942TIP3    H220791   6.339   3.053   1.658  0.3014 -0.2688 -0.7384
 6943TIP3   OH220792   2.868   3.006   1.621  0.1970  0.2997  0.1790
 6943TIP3    H120793   2.839   3.053   1.542  0.9231 -0.0953 -0.3339
 6943TIP3    H220794   2.843   2.915   1.605  0.5123  0.1881  0.3253
 6944TIP3   OH220795   0.049   6.625   1.844  0.1593  0.7471  0.2426
 6944TIP3    H120796  -0.034   6.638   1.889 -0.5725 -0.7655 -0.6002
 6944TIP3    H220797   0.110   6.686   1.886 -1.5997  2.5996  0.2327
 6945TIP3   OH220798   4.946   2.170   3.968 -0.4179  0.0639  0.6553
 6945TIP3    H120799   5.003   2.105   3.926  0.6944  0.6554  1.2108
 6945TIP3    H220800   4.890   2.118   4.026 -0.2315 -0.5027  0.3394
 6946TIP3   OH220801   4.689   0.514   3.815  0.0834  0.6322 -0.6955
 6946TIP3    H120802   4.728   0.465   3.742  0.0659  0.1781 -0.4029
 6946TIP3    H220803   4.762   0.526   3.877  0.0231  0.7429 -0.6462
 6947TIP3   OH220804   2.103   1.339   0.575  0.2059 -0.6932 -0.0524
 6947TIP3    H120805   2.183   1.377   0.538 -2.0797  1.3830 -3.5483
 6947TIP3    H220806   2.054   1.308   0.498 -3.4629  0.5767  1.5409
 6948TIP3   OH220807   7.045   6.383   2.168 -0.7209  0.5774  0.0344
 6948TIP3    H120808   6.992   6.305   2.176 -0.2882  0.0901 -1.5346
 6948TIP3    H220809   6.999   6.437   2.104  0.6611  0.1163 -1.3979
 6949TIP3   OH220810   6.733   1.582   2.654  0.2357  0.1996 -0.2883
 6949TIP3    H120811   6.739   1.587   2.558  1.4960  2.5440 -0.1817
 6949TIP3    H220812   6.657   1.635   2.676 -0.4381 -0.8695  0.0037
 6950TIP3   OH220813   0.905   4.536   1.992  0.2207 -0.6269 -0.0834
 6950TIP3    H120814   0.839   4.514   2.058  1.0822 -1.9917  0.3833
 6950TIP3    H220815   0.868   4.610   1.944 -1.3819 -0.9897  0.5302
 6951TIP3   OH220816   7.033   0.895   4.881 -0.0637  0.3368  0.0801
 6951TIP3    H120817   7.020   0.880   4.975  1.2708 -0.0354  0.2373
 6951TIP3    H220818   7.096   0.828   4.856  1.6554  2.0809 -0.4957
 6952TIP3   OH220819   3.985   0.158   4.901 -0.0510 -0.1212  0.3827
 6952TIP3    H120820   4.062   0.204   4.936  1.3992 -1.6908 -0.5953
 6952TIP3    H220821   3.910   0.202   4.943  1.3766  1.0634  1.8450
 6953TIP3   OH220822   1.593   5.775   0.379 -0.7630  0.1007 -0.7662
 6953TIP3    H120823   1.606   5.723   0.459 -0.7066 -1.2147 -1.6047
 6953TIP3    H220824   1.681   5.790   0.345 -0.7906  0.6283 -0.6229
 6954TIP3   OH220825   3.065   0.200   4.636 -0.2659 -0.9547 -0.0289
 6954TIP3    H120826   3.146   0.223   4.590 -1.2601  2.5061 -0.3689
 6954TIP3    H220827   3.092   0.184   4.726  0.9560 -1.4049 -0.4550
 6955TIP3   OH220828   5.544   2.792   4.865  0.1182  0.3693 -0.4219
 6955TIP3    H120829   5.599   2.815   4.791  0.6039  0.5063 -0.0211
 6955TIP3    H220830   5.489   2.720   4.833  2.3153 -1.5825 -0.0801
 6956TIP3   OH220831   3.724   3.883   4.384  0.1755 -0.1248  0.3198
 6956TIP3    H120832   3.664   3.862   4.313  0.2459 -4.0406  1.1727
 6956TIP3    H220833   3.669   3.879   4.463  0.9288 -0.5217  0.8360
 6957TIP3   OH220834   5.335   0.672   3.981  0.5225 -0.2318  0.2372
 6957TIP3    H120835   5.397   0.708   3.918  0.4190 -0.9695 -0.2993
 6957TIP3    H220836   5.332   0.579   3.960 -1.9212  0.0114 -0.7339
 6958TIP3   OH220837   2.976   5.554   5.348  0.0425  0.0795 -0.4877
 6958TIP3    H120838   2.990   5.557   5.442  1.7437  0.5223 -0.7252
 6958TIP3    H220839   3.047   5.606   5.311 -1.6767  1.5368 -1.9456
 6959TIP3   OH220840   7.079   3.192   0.697 -0.6447 -0.0118 -0.3560
 6959TIP3    H120841   7.117   3.108   0.671 -1.8663 -0.1461 -1.8904
 6959TIP3    H220842   7.150   3.255   0.689  0.6286 -1.0183  1.9774
 6960TIP3   OH220843   1.283   1.408   2.383  0.2207  0.4624  0.0969
 6960TIP3    H120844   1.241   1.335   2.337  0.3812  0.4424 -0.0189
 6960TIP3    H220845   1.286   1.479   2.320  1.4049  0.0955 -0.2817
 6961TIP3   OH220846   6.278   0.726   1.343  0.3497 -0.0409 -0.0470
 6961TIP3    H120847   6.230   0.654   1.384  1.0955  0.0835  1.0966
 6961TIP3    H220848   6.263   0.800   1.402 -0.8298  0.9052 -1.4573
 6962TIP3   OH220849   2.940   0.367   3.555 -0.1114 -0.1887 -0.1664
 6962TIP3    H120850   2.928   0.306   3.627 -0.0874  0.0672  0.0550
 6962TIP3    H220851   2.852   0.380   3.520 -0.0463 -0.7549 -0.5495
 6963TIP3   OH220852   6.224   5.816   3.862  0.1910  0.3460 -0.7834
 6963TIP3    H120853   6.170   5.889   3.893  0.2066 -0.0047  0.1011
 6963TIP3    H220854   6.240   5.835   3.770  0.1114  1.4123 -0.5863
 6964TIP3   OH220855   2.580   0.252   3.824 -0.0609 -0.5049 -0.7160
 6964TIP3    H120856   2.670   0.255   3.791  0.6965  1.6520  1.2322
 6964TIP3    H220857   2.526   0.279   3.749  1.4299  2.6283 -0.8446
 6965TIP3   OH220858   5.975   4.019   4.691  0.5614 -0.4926 -0.4853
 6965TIP3    H120859   5.933   4.096   4.729  1.3364  0.7377 -1.9635
 6965TIP3    H220860   5.949   3.946   4.747 -0.9074  0.7090  0.4685
 6966TIP3   OH220861   4.722   5.391   5.766 -0.2581 -0.0835 -0.1370
 6966TIP3    H120862   4.677   5.420   5.686 -2.2818 -0.8088  0.6866
 6966TIP3    H220863   4.725   5.470   5.821  0.4833  0.2348 -0.6169
 6967TIP3   OH220864   0.940   0.773   3.266 -0.6838 -0.6244  0.2858
 6967TIP3    H120865   0.969   0.864   3.275  2.6849 -1.6969  2.2152
 6967TIP3    H220866   0.956   0.752   3.174  0.9268  0.0805  0.3692
 6968TIP3   OH220867   4.371   4.609   4.936 -0.1033  0.7205  0.2070
 6968TIP3    H120868   4.337   4.690   4.897 -0.1697  1.2919  1.4262
 6968TIP3    H220869   4.368   4.625   5.030 -0.4999 -0.8558  0.4820
 6969TIP3   OH220870   2.562   0.101   2.539  0.5607  0.6815 -0.1951
 6969TIP3    H120871   2.622   0.092   2.613 -2.8689  1.0639  2.9926
 6969TIP3    H220872   2.498   0.166   2.569 -1.2210  0.6133 -3.4484
 6970TIP3   OH220873   3.848   1.911   5.765 -0.1746  0.2520 -0.0592
 6970TIP3    H120874   3.929   1.885   5.809 -0.6200  0.6425  1.0149
 6970TIP3    H220875   3.785   1.844   5.789  0.0998 -0.6957 -1.8468
 6971TIP3   OH220876   5.991   6.121   0.118  0.2498 -0.2502 -0.1524
 6971TIP3    H120877   5.974   6.101   0.026  1.6236  1.2051 -0.7599
 6971TIP3    H220878   5.919   6.079   0.165 -1.6620  0.7035 -2.0553
 6972TIP3   OH220879   3.248   2.981   2.555 -0.5311 -0.0943 -0.1854
 6972TIP3    H120880   3.186   3.005   2.487 -0.7830 -1.6116 -0.5370
 6972TIP3    H220881   3.328   3.027   2.532 -0.7398 -0.2423 -1.2597
 6973TIP3   OH220882   0.557   4.203   3.417 -0.0946 -0.0680  0.1824
 6973TIP3    H120883   0.501   4.189   3.493  0.6348  1.4077  1.0317
 6973TIP3    H220884   0.632   4.146   3.431 -0.5951 -0.8245 -0.1439
 6974TIP3   OH220885   1.622   1.912   2.587 -0.8027  0.1036 -0.3390
 6974TIP3    H120886   1.554   1.874   2.643 -0.6068 -0.2024 -0.3052
 6974TIP3    H220887   1.580   1.921   2.501 -0.5704 -1.1239 -0.6127
 6975TIP3   OH220888   5.970   4.199   0.496 -0.1607 -0.0079  0.6118
 6975TIP3    H120889   5.962   4.294   0.494  0.8598  0.0906  0.4389
 6975TIP3    H220890   6.027   4.181   0.571  0.3464 -0.4016  0.1484
 6976TIP3   OH220891   3.089   1.750   0.613  0.0665 -0.0499 -0.1539
 6976TIP3    H120892   3.123   1.824   0.663  0.4268 -1.0947  1.1893
 6976TIP3    H220893   3.031   1.704   0.674  0.8868 -1.6301 -0.5186
 6977TIP3   OH220894   4.863   2.003   5.893  0.2457 -0.1666 -0.1520
 6977TIP3    H120895   4.788   1.946   5.910  0.1381  0.0451  0.0806
 6977TIP3    H220896   4.932   1.943   5.864  0.2689 -0.4684  0.5156
 6978TIP3   OH220897   2.113   5.372   0.658  0.1573  0.9370 -0.2992
 6978TIP3    H120898   2.202   5.337   0.655 -0.3493 -0.5533  0.8062
 6978TIP3    H220899   2.080   5.359   0.570  0.1121 -1.1823 -0.0351
 6979TIP3   OH220900   0.658   0.842   1.888 -0.5779  0.5267  0.0800
 6979TIP3    H120901   0.585   0.848   1.949 -1.8093 -0.3610 -1.2384
 6979TIP3    H220902   0.701   0.759   1.910  0.2073  1.1595  1.0072
 6980TIP3   OH220903   1.975   4.665   3.464 -0.3161  0.3241  0.0543
 6980TIP3    H120904   2.010   4.751   3.440 -1.1181  0.0551 -2.3420
 6980TIP3    H220905   1.898   4.685   3.518  0.8386  1.0037  1.5348
 6981TIP3   OH220906   5.463   4.893   4.963  0.1233 -0.4994 -0.1712
 6981TIP3    H120907   5.385   4.877   4.910 -0.7806  1.9146  0.2879
 6981TIP3    H220908   5.528   4.927   4.901 -0.3990  0.7969 -0.0432
 6982TIP3   OH220909   5.187   0.898   4.709 -0.1299 -0.1817 -0.4278
 6982TIP3    H120910   5.196   0.985   4.749 -0.3570 -0.5630  0.4705
 6982TIP3    H220911   5.277   0.870   4.692 -0.0325 -0.0101 -0.1969
 6983TIP3   OH220912   1.978   1.796   1.840 -0.0443 -0.4250  0.2990
 6983TIP3    H120913   1.989   1.790   1.935 -1.9365  1.1148  0.6844
 6983TIP3    H220914   2.052   1.849   1.811  0.4327 -0.7255  0.9303
 6984TIP3   OH220915   5.146   1.847   3.007  0.5920 -0.2415 -0.6366
 6984TIP3    H120916   5.236   1.818   3.023 -0.2164 -2.1074  1.2160
 6984TIP3    H220917   5.093   1.792   3.066 -1.5640  2.3012 -0.0154
 6985TIP3   OH220918   6.333   1.094   2.012  0.0152 -0.4006 -0.0516
 6985TIP3    H120919   6.238   1.104   2.016 -0.0129 -0.7625  0.2789
 6985TIP3    H220920   6.354   1.033   2.083  0.5400  0.0008  0.1489
 6986TIP3   OH220921   1.222   0.379   0.519 -0.4069  0.2228 -0.0402
 6986TIP3    H120922   1.201   0.447   0.456  1.6053 -0.4502 -1.5482
 6986TIP3    H220923   1.278   0.422   0.584 -0.9394  0.5018  0.2309
 6987TIP3   OH220924   2.267   6.443   5.696  0.3589  0.2224 -0.1800
 6987TIP3    H120925   2.306   6.358   5.677  0.0950  0.2275 -0.7939
 6987TIP3    H220926   2.338   6.506   5.685  0.6754  0.0422  0.7612
 6988TIP3   OH220927   0.778   5.786   2.705 -0.2691 -0.5581  0.1033
 6988TIP3    H120928   0.702   5.835   2.671 -2.1605 -1.3521  2.7809
 6988TIP3    H220929   0.750   5.695   2.703  1.3266 -1.0522 -0.4157
 6989TIP3   OH220930   5.447   1.820   2.668  0.3511  0.1914 -0.1637
 6989TIP3    H120931   5.362   1.800   2.628  0.1133  1.3445 -0.2756
 6989TIP3    H220932   5.505   1.751   2.637 -0.8938 -1.5244  1.1766
 6990TIP3   OH220933   6.806   2.640   1.015  0.5042 -0.5706  0.2454
 6990TIP3    H120934   6.879   2.684   0.970  0.2745 -1.0019 -0.5652
 6990TIP3    H220935   6.756   2.712   1.055  0.5310 -0.1466 -0.4604
 6991TIP3   OH220936   1.020   2.149   2.078 -0.1170 -0.1272  0.1468
 6991TIP3    H120937   1.036   2.243   2.071  0.8347 -0.2014  1.0595
 6991TIP3    H220938   0.983   2.137   2.165 -2.6379 -0.3244 -0.8796
 6992TIP3   OH220939   6.483   4.651   5.225  0.0878  0.1791 -0.1945
 6992TIP3    H120940   6.530   4.626   5.305 -0.6442 -1.6041 -0.2781
 6992TIP3    H220941   6.552   4.670   5.162  0.6945 -0.5565  0.2341
 6993TIP3   OH220942   7.144   6.176   0.444  0.2726  0.2742  0.4102
 6993TIP3    H120943   7.215   6.124   0.406  1.0629  0.1957  1.8896
 6993TIP3    H220944   7.155   6.263   0.406 -1.4127 -0.6638 -2.5399
 6994TIP3   OH220945   3.932   3.835   4.960  0.3357 -0.3411  0.1105
 6994TIP3    H120946   3.985   3.834   5.040  1.8414 -1.4073 -0.8576
 6994TIP3    H220947   3.981   3.781   4.898 -1.2921 -0.3420 -1.2337
 6995TIP3   OH220948   4.107   0.896   3.967 -0.1435 -0.1146 -0.5517
 6995TIP3    H120949   4.077   0.818   4.012  1.3287 -1.8739 -2.4190
 6995TIP3    H220950   4.126   0.959   4.037 -2.8435 -0.8013  0.9168
 6996TIP3   OH220951   1.612   4.549   1.037 -0.1827  0.0850 -0.0310
 6996TIP3    H120952   1.641   4.515   0.953  0.5982  0.6239  0.0109
 6996TIP3    H220953   1.565   4.630   1.015 -0.4091 -0.0331  0.0149
 6997TIP3   OH220954   1.396   1.380   3.125 -0.4949  0.4762 -0.5315
 6997TIP3    H120955   1.430   1.337   3.046  0.9257 -0.5677  0.5774
 6997TIP3    H220956   1.301   1.381   3.112 -0.2513  1.5080 -2.7989
 6998TIP3   OH220957   5.295   5.111   4.795 -0.0274  0.3062 -0.3064
 6998TIP3    H120958   5.267   5.021   4.779  0.7590 -0.0466  0.2846
 6998TIP3    H220959   5.357   5.130   4.724  1.8662 -0.5503  1.0683
 6999TIP3   OH220960   3.206   5.402   3.920  0.3266  0.1158  0.0924
 6999TIP3    H120961   3.121   5.396   3.963 -0.5395  1.2023 -1.3659
 6999TIP3    H220962   3.270   5.404   3.992 -1.1082  3.4327  1.4590
 7000TIP3   OH220963   1.107   2.653   0.719 -0.1056 -0.3768 -0.0335
 7000TIP3    H120964   1.141   2.704   0.646 -0.9168 -0.7906 -0.7190
 7000TIP3    H220965   1.183   2.639   0.776  0.2470  1.1112 -0.0965
 7001TIP3   OH220966   0.899   3.639   5.755  0.1786 -0.0953 -0.0214
 7001TIP3    H120967   0.910   3.677   5.668 -0.3096 -0.7977 -0.4010
 7001TIP3    H220968   0.829   3.692   5.795 -0.1918 -0.3059 -0.3804
 7002TIP3   OH220969   0.308   5.197   0.547  0.5467 -0.2302  0.4259
 7002TIP3    H120970   0.273   5.208   0.636  2.2340  0.1600  1.0808
 7002TIP3    H220971   0.401   5.218   0.556  0.4790  1.2542 -1.7285
 7003TIP3   OH220972   5.339   1.478   4.400 -0.0908 -0.1505  0.4450
 7003TIP3    H120973   5.264   1.477   4.340  1.4067  0.7523 -1.5765
 7003TIP3    H220974   5.339   1.567   4.437 -0.7948 -0.5905  1.5546
 7004TIP3   OH220975   7.088   3.933   3.110  0.0707  0.3414 -0.4082
 7004TIP3    H120976   7.100   3.998   3.180  1.9010  0.9543 -1.2152
 7004TIP3    H220977   7.169   3.940   3.058 -0.6527 -1.0652 -1.7766
 7005TIP3   OH220978   5.155   5.323   2.705 -0.1585 -0.0624  0.5656
 7005TIP3    H120979   5.224   5.290   2.647 -0.3529  3.2944 -1.8365
 7005TIP3    H220980   5.189   5.406   2.738 -2.1757  0.5883  1.1097
 7006TIP3   OH220981   2.521   0.114   4.505 -0.0462  0.6964  0.3913
 7006TIP3    H120982   2.505   0.183   4.568 -0.9115  0.4358  0.4706
 7006TIP3    H220983   2.587   0.058   4.547  0.6720  1.4756  0.3126
 7007TIP3   OH220984   0.736   3.045   2.139  0.3544 -0.1227 -0.8958
 7007TIP3    H120985   0.727   2.962   2.185 -0.5842  0.0599 -0.7299
 7007TIP3    H220986   0.813   3.033   2.083  2.1329  0.0001  1.3966
 7008TIP3   OH220987   2.826   6.666   0.549 -0.2211  0.1664 -0.2882
 7008TIP3    H120988   2.782   6.749   0.566  1.0747  1.0233 -0.9830
 7008TIP3    H220989   2.910   6.690   0.509 -0.3005 -1.5065 -1.5802
 7009TIP3   OH220990   0.434   4.364   1.681  0.2319  0.2296 -0.4223
 7009TIP3    H120991   0.452   4.430   1.748 -2.3392 -0.9460  1.5803
 7009TIP3    H220992   0.383   4.410   1.615  2.1129  1.2013 -1.2930
 7010TIP3   OH220993   0.696   1.281   1.419  0.0875  0.4228  0.0195
 7010TIP3    H120994   0.746   1.261   1.498  1.7679 -0.8022 -1.2835
 7010TIP3    H220995   0.616   1.230   1.428  0.5116 -0.1529  0.6959
 7011TIP3   OH220996   6.039   2.475   2.344  0.1932  0.4212 -0.1555
 7011TIP3    H120997   6.025   2.383   2.322  1.3659  0.7416 -2.6021
 7011TIP3    H220998   5.961   2.519   2.310  1.1008  0.6723 -2.0267
 7012TIP3   OH220999   4.400   2.856   3.516  0.1941 -0.2615 -0.0394
 7012TIP3    H121000   4.382   2.768   3.484  2.4525 -0.3678 -1.2571
 7012TIP3    H221001   4.489   2.875   3.484 -0.3986  2.6354 -0.2208
 7013TIP3   OH221002   6.670   0.808   3.061 -1.0187  0.4329 -0.1218
 7013TIP3    H121003   6.669   0.885   3.003 -5.2557  0.4716 -0.2705
 7013TIP3    H221004   6.616   0.833   3.136  0.4349 -1.2688  1.6011
 7014TIP3   OH221005   0.296   3.924   0.217  0.0342  0.1098  0.0410
 7014TIP3    H121006   0.342   3.990   0.166  1.2320  0.2610  1.2509
 7014TIP3    H221007   0.205   3.929   0.187  0.2467  1.7794 -0.4178
 7015TIP3   OH221008   3.780   2.263   2.829 -0.1748 -0.1420  0.1231
 7015TIP3    H121009   3.789   2.346   2.875  1.3223 -0.1739 -0.0829
 7015TIP3    H221010   3.850   2.263   2.764 -0.7797 -1.1376 -0.5660
 7016TIP3   OH221011   3.273   6.215   0.201 -0.4601 -0.3895 -0.3842
 7016TIP3    H121012   3.332   6.168   0.260 -0.5149  0.0537  0.0305
 7016TIP3    H221013   3.276   6.165   0.119  1.0408  0.0049 -0.6057
 7017TIP3   OH221014   1.509   6.084   5.714 -0.0055 -0.5770 -0.0149
 7017TIP3    H121015   1.577   6.043   5.768  0.6404 -0.4058 -0.6903
 7017TIP3    H221016   1.441   6.110   5.777  0.7682 -0.3178  0.7272
 7018TIP3   OH221017   0.686   0.301  -0.006 -0.0444  1.4079 -0.6919
 7018TIP3    H121018   0.651   0.381  -0.045 -2.2042  1.0871  0.4623
 7018TIP3    H221019   0.682   0.316   0.088  0.3400  0.2695 -0.4755
 7019TIP3   OH221020   3.372   1.853   2.886  0.2098 -0.1669 -0.0387
 7019TIP3    H121021   3.300   1.888   2.834  0.3321 -1.4614 -1.1442
 7019TIP3    H221022   3.410   1.930   2.930 -2.3500  0.4456  1.2980
 7020TIP3   OH221023   1.351   4.313   1.337 -0.4035 -0.1169  0.3486
 7020TIP3    H121024   1.297   4.252   1.286 -1.6254  0.4326  0.9597
 7020TIP3    H221025   1.350   4.278   1.426 -1.0312  0.7108  0.6841
 7021TIP3   OH221026   7.165   4.996   0.951 -0.1451  0.4002  0.5158
 7021TIP3    H121027   7.212   4.953   1.023 -0.6950 -0.6812  0.2633
 7021TIP3    H221028   7.077   5.012   0.987 -0.7787 -1.1545 -0.2105
 7022TIP3   OH221029   0.784   1.340   4.439  0.1767  0.1963  0.2032
 7022TIP3    H121030   0.806   1.263   4.491 -0.0109  1.1185  1.7171
 7022TIP3    H221031   0.766   1.306   4.352  0.8232 -1.3773  0.6463
 7023TIP3   OH221032   1.629   4.757   4.887  0.1564 -0.3747  0.0506
 7023TIP3    H121033   1.698   4.791   4.831  1.6597  1.6680  2.8959
 7023TIP3    H221034   1.665   4.676   4.923 -0.1331 -0.8078 -0.6155
 7024TIP3   OH221035   5.113   4.488   1.167  0.1369  0.2426  0.8874
 7024TIP3    H121036   5.097   4.577   1.198  2.1886  0.9599  0.0896
 7024TIP3    H221037   5.154   4.500   1.082  0.1867 -1.4887  0.6457
 7025TIP3   OH221038   4.104   3.378   4.913 -1.0562 -0.6651  0.6448
 7025TIP3    H121039   4.045   3.393   4.839 -1.0041 -2.2991  0.2404
 7025TIP3    H221040   4.098   3.284   4.930  0.8003 -0.7299  1.1512
 7026TIP3   OH221041   3.825   6.457   5.577 -0.6161 -0.0639 -0.1202
 7026TIP3    H121042   3.794   6.547   5.568  0.2842  0.1327 -1.5084
 7026TIP3    H221043   3.904   6.453   5.524 -1.3503 -2.0201 -1.1758
 7027TIP3   OH221044   2.228   6.541   0.774 -0.4072  0.0794  0.8783
 7027TIP3    H121045   2.195   6.581   0.854 -1.6662  0.4817  0.1874
 7027TIP3    H221046   2.251   6.614   0.717 -0.1211 -0.1942  0.6356
 7028TIP3   OH221047   6.924   2.207   1.269 -0.0588  0.0961  0.7689
 7028TIP3    H121048   6.884   2.195   1.355  1.3490  0.2893  1.4922
 7028TIP3    H221049   6.912   2.300   1.249  0.5929  0.3059  1.3025
 7029TIP3   OH221050   3.946   3.836   0.864 -0.1521 -0.2859 -0.1046
 7029TIP3    H121051   3.999   3.884   0.800 -0.4739 -0.9432 -0.8830
 7029TIP3    H221052   3.986   3.856   0.949 -0.1936  1.2193 -0.4256
 7030TIP3   OH221053   1.602   0.247   4.950  0.4703 -0.5012 -0.3235
 7030TIP3    H121054   1.548   0.308   4.899 -2.6513 -1.9136  1.0132
 7030TIP3    H221055   1.674   0.301   4.983 -0.8201  1.8775 -1.1427
 7031TIP3   OH221056   5.020   0.512   3.713  0.2173 -1.1438 -0.1507
 7031TIP3    H121057   5.065   0.574   3.656  1.0252 -0.3722  1.2642
 7031TIP3    H221058   5.087   0.487   3.778 -1.2931 -0.1287  1.9002
 7032TIP3   OH221059   0.861   2.125   0.596  0.1698 -0.2058  0.7612
 7032TIP3    H121060   0.885   2.033   0.593 -0.7704 -0.4386 -1.9388
 7032TIP3    H221061   0.943   2.170   0.618  1.0164 -1.5605  0.4648
 7033TIP3   OH221062   3.388   1.038   2.076 -0.7763  0.6258  0.3481
 7033TIP3    H121063   3.338   1.115   2.101  0.1715  1.9218 -1.5104
 7033TIP3    H221064   3.381   1.035   1.981  1.0344 -0.2924  0.1992
 7034TIP3   OH221065   0.341   3.856   1.049 -0.4725  0.3855  0.3439
 7034TIP3    H121066   0.395   3.840   1.126 -0.0308  0.8760  0.1422
 7034TIP3    H221067   0.364   3.786   0.988 -1.5653 -0.6055  1.0311
 7035TIP3   OH221068   6.952   1.983   4.669 -0.4019  0.0862  0.4906
 7035TIP3    H121069   6.873   2.004   4.618 -0.0153  0.3096 -0.0220
 7035TIP3    H221070   6.921   1.924   4.738 -0.8992 -0.3503 -0.0968
 7036TIP3   OH221071   2.349   5.542   4.678 -0.0450  0.1931  0.0001
 7036TIP3    H121072   2.260   5.557   4.708  0.0087 -1.7338  1.3048
 7036TIP3    H221073   2.399   5.617   4.712 -0.7213  0.0343  1.4066
 7037TIP3   OH221074   2.083   1.476   4.025  0.8247 -0.1447  0.2155
 7037TIP3    H121075   2.141   1.503   4.096 -0.3305 -0.3555  1.2575
 7037TIP3    H221076   2.130   1.404   3.983  1.5581  0.0378  0.7020
 7038TIP3   OH221077   2.374   6.645   1.012  0.1008 -0.5418 -0.0205
 7038TIP3    H121078   2.427   6.637   1.092  0.3827  0.2179 -0.1253
 7038TIP3    H221079   2.388   6.735   0.983 -0.9692 -0.4456 -0.2550
 7039TIP3   OH221080   6.620   0.180   2.787 -0.2659  0.3749  0.1993
 7039TIP3    H121081   6.564   0.102   2.796  0.0521  0.2782  1.5663
 7039TIP3    H221082   6.681   0.158   2.717  0.5535 -1.0897  1.3243
 7040TIP3   OH221083   5.289   3.645   2.793  0.4715 -0.0802  0.1894
 7040TIP3    H121084   5.196   3.655   2.772  0.8776  0.5883 -1.5120
 7040TIP3    H221085   5.298   3.680   2.881 -1.1291 -1.5199  0.9772
 7041TIP3   OH221086   5.728   2.551   0.233  0.5486  0.1628 -0.2873
 7041TIP3    H121087   5.804   2.525   0.285 -0.4775  0.2913  1.3497
 7041TIP3    H221088   5.725   2.488   0.161  1.5816 -0.4999  0.2310
 7042TIP3   OH221089   5.578   2.739   0.392 -0.3809  0.0087 -0.0484
 7042TIP3    H121090   5.627   2.665   0.354 -0.6510 -0.9549  1.3950
 7042TIP3    H221091   5.536   2.780   0.317  1.6789  0.1643 -1.2040
 7043TIP3   OH221092   2.600   1.257   4.349  0.3329  0.1487 -0.3612
 7043TIP3    H121093   2.680   1.235   4.397 -0.9487 -1.4008  1.1780
 7043TIP3    H221094   2.550   1.313   4.409 -0.7215 -0.7365 -0.3955
 7044TIP3   OH221095   4.449   3.391   1.322  0.2603 -0.2021 -0.0999
 7044TIP3    H121096   4.542   3.373   1.336  0.5094  1.3705  0.4832
 7044TIP3    H221097   4.444   3.487   1.315 -1.3577 -0.2416  0.2060
 7045TIP3   OH221098   5.834   5.821   2.686 -0.0730  0.2403 -0.2493
 7045TIP3    H121099   5.843   5.738   2.640 -0.6128  0.0088  0.0587
 7045TIP3    H221100   5.774   5.872   2.631 -0.3897  0.1180 -0.0205
 7046TIP3   OH221101   0.531   5.178   5.015  0.5337 -0.5482  0.2732
 7046TIP3    H121102   0.533   5.106   4.953  1.8613 -0.0442 -0.2883
 7046TIP3    H221103   0.551   5.256   4.963 -0.7490  0.2319  0.8881
 7047TIP3   OH221104   2.666   1.977   1.924  0.0189 -0.3916  0.0232
 7047TIP3    H121105   2.593   2.013   1.974  0.8338  0.5334  0.5849
 7047TIP3    H221106   2.658   1.882   1.935  0.7069 -0.2016  2.7352
 7048TIP3   OH221107   5.947   0.384   1.821  0.2331  0.2692  0.8391
 7048TIP3    H121108   6.005   0.317   1.858  0.9863 -0.5444 -1.6592
 7048TIP3    H221109   5.957   0.376   1.727 -0.6159  3.1038  0.4058
 7049TIP3   OH221110   1.854   5.966   4.140 -0.7579 -0.0345 -0.3359
 7049TIP3    H121111   1.854   5.914   4.220  0.2949  1.5238  0.7350
 7049TIP3    H221112   1.917   5.923   4.083  1.4038  0.9111  1.1896
 7050TIP3   OH221113   0.256   3.204   5.028  0.1902 -0.2075  0.0694
 7050TIP3    H121114   0.170   3.244   5.041 -0.1044 -1.0230  0.6896
 7050TIP3    H221115   0.268   3.203   4.933  1.0906  3.1679  0.0132
 7051TIP3   OH221116   4.660   5.660   2.769 -0.5863 -0.0313 -0.1020
 7051TIP3    H121117   4.750   5.629   2.776 -0.2629  1.0824  0.9177
 7051TIP3    H221118   4.630   5.668   2.859 -0.8140  2.0906 -0.3323
 7052TIP3   OH221119   2.784   5.091   4.846  0.6124 -0.3130  0.0009
 7052TIP3    H121120   2.869   5.133   4.828  0.4548  0.9520  1.9668
 7052TIP3    H221121   2.774   5.097   4.941 -0.9650 -1.9005 -0.0290
 7053TIP3   OH221122   2.607   0.155   0.350 -0.2575 -0.1377 -0.4800
 7053TIP3    H121123   2.634   0.063   0.351 -1.1242 -0.4215  1.8200
 7053TIP3    H221124   2.549   0.163   0.274 -0.0924 -1.4392 -0.7588
 7054TIP3   OH221125   3.242   2.282   3.691  0.3248  0.4419 -0.6754
 7054TIP3    H121126   3.216   2.205   3.741 -0.5540  1.1736  0.0369
 7054TIP3    H221127   3.169   2.299   3.631  0.5427  0.6649 -0.8824
 7055TIP3   OH221128   5.189   4.291   1.347 -0.6294 -0.1078  0.5602
 7055TIP3    H121129   5.156   4.348   1.278 -5.2059  1.6851  3.7137
 7055TIP3    H221130   5.239   4.349   1.405  1.0202 -1.0491  0.1482
 7056TIP3   OH221131   5.801   2.852   3.655 -0.3092  0.3996  0.5731
 7056TIP3    H121132   5.837   2.915   3.592 -2.0226  1.7128  0.8430
 7056TIP3    H221133   5.841   2.877   3.739  0.1226  0.1886  0.4340
 7057TIP3   OH221134   1.966   2.326   4.241  0.2680  0.6401  0.1127
 7057TIP3    H121135   2.012   2.402   4.205  1.6315 -0.0569  0.3212
 7057TIP3    H221136   1.957   2.345   4.334  0.6869  0.5076  0.1806
 7058TIP3   OH221137   6.824   5.778   5.869  0.0095 -0.7271  0.4176
 7058TIP3    H121138   6.844   5.703   5.925  2.0375 -1.0679 -0.6749
 7058TIP3    H221139   6.909   5.810   5.839 -0.6994  2.5136  1.3865
 7059TIP3   OH221140   6.823   0.506   4.489  0.0655  0.2253 -0.7853
 7059TIP3    H121141   6.910   0.523   4.454  0.5187  1.2693  0.7258
 7059TIP3    H221142   6.815   0.410   4.488  3.0153 -0.2880  2.9190
 7060TIP3   OH221143   3.763   2.977   1.727  0.0545 -0.1638 -0.1506
 7060TIP3    H121144   3.818   2.929   1.788 -0.9259 -0.7624  0.2856
 7060TIP3    H221145   3.813   3.057   1.707  0.6345 -0.2217  0.9944
 7061TIP3   OH221146   0.536   2.389   4.329  0.2059 -0.4658 -0.4866
 7061TIP3    H121147   0.490   2.345   4.257  1.0069 -1.3235 -0.4948
 7061TIP3    H221148   0.521   2.334   4.405  0.0101  0.0243 -0.1692
 7062TIP3   OH221149   2.644   3.557   2.639 -0.3089  0.1852  0.4045
 7062TIP3    H121150   2.608   3.577   2.726 -0.9868  0.7853  0.0013
 7062TIP3    H221151   2.577   3.504   2.597  0.5555 -1.1722  0.6785
 7063TIP3   OH221152   3.608   4.554   1.687  0.2001 -0.5851 -0.4066
 7063TIP3    H121153   3.524   4.544   1.643  0.0159  1.8335 -0.7635
 7063TIP3    H221154   3.655   4.619   1.635  1.9757 -1.3024  0.2359
 7064TIP3   OH221155   7.019   5.839   2.817 -0.0539 -0.2020 -0.1669
 7064TIP3    H121156   6.943   5.847   2.874 -0.6980  0.3159 -1.0760
 7064TIP3    H221157   7.039   5.929   2.792  0.6873 -0.3614 -0.1759
 7065TIP3   OH221158   2.423   0.596   4.785  0.3751 -0.3343  0.5518
 7065TIP3    H121159   2.458   0.665   4.841 -0.1631  0.0358  0.4424
 7065TIP3    H221160   2.352   0.557   4.836  1.2419 -1.4195  0.9795
 7066TIP3   OH221161   0.639   4.065   1.049  0.2170  0.1973 -0.4072
 7066TIP3    H121162   0.592   4.044   1.130 -0.7351  0.1883 -0.9506
 7066TIP3    H221163   0.694   3.988   1.033 -0.9931 -0.6319 -0.7573
 7067TIP3   OH221164   4.464   2.377   2.061 -0.1846 -0.2619 -0.1194
 7067TIP3    H121165   4.421   2.341   1.983 -0.5371  0.1536 -0.1275
 7067TIP3    H221166   4.552   2.339   2.061 -1.5249 -3.8103  1.7118
 7068TIP3   OH221167   1.161   1.669   0.121  0.8589 -0.3545 -0.0683
 7068TIP3    H121168   1.159   1.699   0.030 -0.3348 -0.5762 -0.1273
 7068TIP3    H221169   1.152   1.574   0.115  0.5152 -0.3476  0.2881
 7069TIP3   OH221170   4.809   1.679   2.056  0.3251  0.0890 -0.4047
 7069TIP3    H121171   4.879   1.618   2.078  0.8904  0.0138 -2.2506
 7069TIP3    H221172   4.834   1.760   2.101  1.2901 -0.1109 -0.5454
 7070TIP3   OH221173   5.699   5.533   3.755  0.2737 -0.3647  0.5906
 7070TIP3    H121174   5.686   5.487   3.672 -0.6119 -0.5470  0.8113
 7070TIP3    H221175   5.754   5.475   3.807  0.1487 -0.6304  0.4292
 7071TIP3   OH221176   5.749   6.279   3.114 -0.2167 -0.5558  0.5339
 7071TIP3    H121177   5.769   6.372   3.102 -0.2858 -0.5395  0.5470
 7071TIP3    H221178   5.706   6.274   3.199 -0.7666 -0.5153  0.2635
 7072TIP3   OH221179   7.159   4.339   0.868  0.2226 -0.2680  0.0483
 7072TIP3    H121180   7.126   4.429   0.864 -0.2444 -0.4699 -0.8778
 7072TIP3    H221181   7.152   4.316   0.961 -1.7918 -0.1088 -0.0053
 7073TIP3   OH221182   2.388   5.334   0.670  0.1516 -0.2714 -0.6786
 7073TIP3    H121183   2.430   5.250   0.689 -1.8230 -0.8588  1.6059
 7073TIP3    H221184   2.454   5.400   0.691  0.7919 -1.2034  0.3004
 7074TIP3   OH221185   6.513   1.209   1.138  0.2109 -0.2697 -0.1125
 7074TIP3    H121186   6.447   1.145   1.163 -0.1250 -0.1119 -0.5846
 7074TIP3    H221187   6.552   1.174   1.058  0.7877 -0.4220  0.2283
 7075TIP3   OH221188   0.171   2.243   0.926 -0.5448  0.7605  0.0231
 7075TIP3    H121189   0.255   2.207   0.897 -0.8116  1.0976 -1.2147
 7075TIP3    H221190   0.189   2.276   1.014  1.1637  2.5878 -0.9112
 7076TIP3   OH221191  -0.018   6.055   5.008 -0.4107 -0.3073 -0.1898
 7076TIP3    H121192  -0.004   5.961   4.998 -0.2270 -0.4234  0.9927
 7076TIP3    H221193   0.051   6.084   5.068 -2.3416 -0.0395  2.0568
 7077TIP3   OH221194   2.626   5.076   0.099  0.0848  0.5731  0.7119
 7077TIP3    H121195   2.616   4.984   0.074  0.7962  0.1865  1.7643
 7077TIP3    H221196   2.618   5.076   0.195  0.2830  1.5784  0.7425
 7078TIP3   OH221197   2.151   4.348   3.873  0.5720  0.2982  0.1498
 7078TIP3    H121198   2.171   4.383   3.786  0.3746 -0.5438 -0.2425
 7078TIP3    H221199   2.232   4.305   3.900 -0.0565 -1.4468 -0.6197
 7079TIP3   OH221200   6.061   2.286   1.368 -0.2620 -0.1164  0.2916
 7079TIP3    H121201   6.050   2.357   1.432 -2.9043  0.2723 -0.4713
 7079TIP3    H221202   6.005   2.216   1.401  1.9806 -1.7969  0.8004
 7080TIP3   OH221203   4.705   4.025   3.468 -0.0598 -0.3580 -0.3038
 7080TIP3    H121204   4.751   4.072   3.538 -0.5577  0.9771 -0.8635
 7080TIP3    H221205   4.624   3.995   3.509 -0.1894  0.1104 -0.2206
 7081TIP3   OH221206   0.779   6.617   5.010  0.2999  0.1602 -0.1001
 7081TIP3    H121207   0.701   6.648   5.056 -0.9853 -1.4793 -1.0761
 7081TIP3    H221208   0.754   6.616   4.918  1.4326 -0.4866 -0.4214
 7082TIP3   OH221209   0.944   5.756   3.757  0.5694 -0.1615 -0.0175
 7082TIP3    H121210   0.959   5.815   3.683  1.3056  0.3134  0.4936
 7082TIP3    H221211   0.882   5.691   3.724 -2.5400  2.4412  0.1707
 7083TIP3   OH221212   4.554   2.617   1.817  0.5038 -0.2315  0.9151
 7083TIP3    H121213   4.511   2.652   1.895 -0.0001  0.7687  0.2093
 7083TIP3    H221214   4.577   2.527   1.840 -1.5793 -0.6713  1.4630
 7084TIP3   OH221215   4.193   4.175   2.904 -0.4830 -0.5015 -0.0746
 7084TIP3    H121216   4.158   4.257   2.939  1.6011 -0.3733  1.9814
 7084TIP3    H221217   4.163   4.108   2.966  0.5335 -0.7919  0.1120
 7085TIP3   OH221218   4.149   6.440   3.240 -0.2560 -0.8765  0.3585
 7085TIP3    H121219   4.104   6.388   3.173  0.4556  0.2398 -1.0271
 7085TIP3    H221220   4.128   6.530   3.218 -0.3401 -0.4886  1.9196
 7086TIP3   OH221221   2.173   3.161   1.231 -0.2524 -0.2025 -0.0731
 7086TIP3    H121222   2.156   3.140   1.139 -0.2516 -1.4554  0.1973
 7086TIP3    H221223   2.268   3.154   1.240 -0.1069  1.2542 -0.2737
 7087TIP3   OH221224   0.924   0.457   1.544  0.3209  0.0078 -0.2130
 7087TIP3    H121225   0.849   0.428   1.492 -0.0896 -0.2962  0.5317
 7087TIP3    H221226   0.902   0.546   1.569  0.1221 -0.1419  0.1526
 7088TIP3   OH221227   4.861   0.979   1.695  0.8404 -0.1598 -0.1069
 7088TIP3    H121228   4.889   0.959   1.785  1.1071 -0.6585 -0.2966
 7088TIP3    H221229   4.824   1.067   1.701  0.5266 -0.3267  0.5655
 7089TIP3   OH221230   5.480   6.563   5.463 -0.1040 -0.4649  0.0836
 7089TIP3    H121231   5.401   6.617   5.472  0.5151  0.4646  0.0607
 7089TIP3    H221232   5.481   6.537   5.371  0.5791  1.0813 -0.3887
 7090TIP3   OH221233   7.220   1.780   4.413  0.4478  0.3928 -0.2075
 7090TIP3    H121234   7.145   1.826   4.376  0.5352 -0.7854 -1.9311
 7090TIP3    H221235   7.288   1.786   4.346  1.0171 -0.8200  0.2338
 7091TIP3   OH221236   2.061   6.408   1.705  0.2142 -0.4631  0.1928
 7091TIP3    H121237   2.043   6.492   1.748  1.3677  0.5784 -1.2635
 7091TIP3    H221238   1.974   6.369   1.691 -0.4071  0.8980  0.1233
 7092TIP3   OH221239   0.785   4.384   4.166  0.3000  0.3998 -0.0400
 7092TIP3    H121240   0.808   4.387   4.259  0.6992 -0.9720 -0.0783
 7092TIP3    H221241   0.693   4.409   4.164  0.2881  0.4616  0.7192
 7093TIP3   OH221242   6.613   3.207   2.196 -0.5517 -0.0718 -0.6720
 7093TIP3    H121243   6.592   3.124   2.239 -1.6789 -0.6540 -2.2450
 7093TIP3    H221244   6.580   3.196   2.107  0.1686  1.7158 -1.1894
 7094TIP3   OH221245   4.710   3.556   0.182  0.1314 -0.0847 -0.6816
 7094TIP3    H121246   4.717   3.623   0.113  3.5734  0.9075  0.4528
 7094TIP3    H221247   4.732   3.475   0.138  0.0207  0.1666 -1.2139
 7095TIP3   OH221248   3.673   3.609   1.568 -0.1542  0.0872 -0.0865
 7095TIP3    H121249   3.753   3.648   1.532 -0.5590  2.3090  1.2478
 7095TIP3    H221250   3.673   3.519   1.535  1.7589  0.6793 -1.8845
 7096TIP3   OH221251   1.990   6.465   5.339 -0.3108  0.2187 -0.9509
 7096TIP3    H121252   2.065   6.429   5.293 -0.5335  0.0250 -1.1648
 7096TIP3    H221253   2.021   6.550   5.372  0.7198 -0.8355  0.9505
 7097TIP3   OH221254   3.550   2.695   4.651  0.2929 -0.4286 -0.8335
 7097TIP3    H121255   3.527   2.694   4.744  1.5073 -1.6026 -0.5104
 7097TIP3    H221256   3.477   2.739   4.609 -1.9542 -2.8822  0.2450
 7098TIP3   OH221257   1.379   1.461   2.628  0.4781 -0.5293  0.3257
 7098TIP3    H121258   1.359   1.442   2.537  1.5216 -3.6199  0.6038
 7098TIP3    H221259   1.456   1.518   2.625 -0.1740  0.3329 -0.6830
 7099TIP3   OH221260   5.013   0.598   4.381 -0.1980 -0.2942  0.0503
 7099TIP3    H121261   5.055   0.608   4.466 -1.5926 -1.1747  0.8662
 7099TIP3    H221262   5.036   0.678   4.333  1.0631 -0.0441  1.0269
 7100TIP3   OH221263   5.276   0.740   2.648  0.0726  0.3777 -0.1720
 7100TIP3    H121264   5.276   0.654   2.605  0.7521 -1.3199  2.9070
 7100TIP3    H221265   5.196   0.740   2.700  0.9225  0.8352  1.1851
 7101TIP3   OH221266   5.835   1.362   1.990  0.0286  0.0906 -0.3338
 7101TIP3    H121267   5.768   1.410   1.941 -0.8241 -0.4082  0.2923
 7101TIP3    H221268   5.878   1.428   2.044  1.1889  0.6962 -1.9337
 7102TIP3   OH221269   6.960   3.728   4.660  0.1417 -0.8351 -0.3424
 7102TIP3    H121270   7.044   3.701   4.697 -0.1064 -0.5705  0.4547
 7102TIP3    H221271   6.941   3.663   4.592  0.0918 -2.0003  0.7456
 7103TIP3   OH221272   3.844   5.914   3.562 -0.7464  0.2166 -0.0028
 7103TIP3    H121273   3.855   5.824   3.593 -0.6356  0.4397  0.6210
 7103TIP3    H221274   3.753   5.919   3.532 -0.6268 -0.2224 -0.4543
 7104TIP3   OH221275   5.312   1.742   1.683  0.8108 -0.1457 -0.6398
 7104TIP3    H121276   5.275   1.780   1.763 -0.3141  0.0761 -1.2389
 7104TIP3    H221277   5.400   1.777   1.677  1.1298 -0.6506  0.8275
 7105TIP3   OH221278   6.323   1.410   4.888 -0.4257 -0.6724  0.2107
 7105TIP3    H121279   6.401   1.424   4.942 -0.5713 -0.2546  0.3148
 7105TIP3    H221280   6.266   1.484   4.908 -0.4261 -0.4371 -0.6107
 7106TIP3   OH221281   2.613   2.504   4.908  0.4622 -0.2394  0.4836
 7106TIP3    H121282   2.685   2.565   4.888 -0.2518 -0.0536 -1.7418
 7106TIP3    H221283   2.643   2.419   4.877 -0.2004 -0.1976 -0.2876
 7107TIP3   OH221284   4.952   6.012   1.228 -0.1381  0.1004 -0.0436
 7107TIP3    H121285   4.961   6.100   1.265 -1.1082 -0.2963  1.2289
 7107TIP3    H221286   4.982   6.020   1.138  0.5410  1.5532  0.2917
 7108TIP3   OH221287   3.165   3.366   2.578 -0.1490 -0.6579  0.3386
 7108TIP3    H121288   3.171   3.328   2.666 -0.1520 -1.4355  0.0120
 7108TIP3    H221289   3.073   3.388   2.567  0.1328  1.2228  1.2380
 7109TIP3   OH221290   6.466   5.484   5.212 -0.1785  0.4153 -0.0318
 7109TIP3    H121291   6.481   5.561   5.156  2.3106  0.8040  1.0460
 7109TIP3    H221292   6.516   5.414   5.171  2.2429  0.8734  1.9452
 7110TIP3   OH221293   1.444   6.466   5.203  0.0522  0.2459 -0.3883
 7110TIP3    H121294   1.479   6.377   5.200  0.3115  0.3126  0.3192
 7110TIP3    H221295   1.513   6.517   5.246 -0.9358  0.3569  1.1551
 7111TIP3   OH221296   0.789   0.339   4.287 -0.1297 -0.1662 -0.3597
 7111TIP3    H121297   0.761   0.421   4.328 -2.0025 -1.2631  0.6537
 7111TIP3    H221298   0.780   0.273   4.356 -0.7891 -1.6136 -1.7692
 7112TIP3   OH221299   1.730   0.803   3.836 -0.0294  0.0468  0.0584
 7112TIP3    H121300   1.790   0.753   3.891 -0.8680 -1.6887 -0.5263
 7112TIP3    H221301   1.782   0.823   3.758  0.7268  1.3111  0.8474
 7113TIP3   OH221302   6.592   6.400   3.924  0.0453  0.1538 -0.1276
 7113TIP3    H121303   6.588   6.391   4.019 -0.1380  0.4284 -0.1091
 7113TIP3    H221304   6.669   6.349   3.899  2.0292  2.6552  0.4997
 7114TIP3   OH221305   1.253   5.688   3.560  0.0944  0.1134 -0.0474
 7114TIP3    H121306   1.293   5.774   3.569  0.6311  0.8583 -5.6934
 7114TIP3    H221307   1.166   5.706   3.523 -0.7214 -1.7799  0.8115
 7115TIP3   OH221308   6.808   2.895   4.708 -0.2620 -0.0466  0.1422
 7115TIP3    H121309   6.791   2.980   4.749 -0.3584  0.0320 -0.0579
 7115TIP3    H221310   6.722   2.868   4.674 -0.1556 -0.0415 -0.1354
 7116TIP3   OH221311   3.425   4.608   5.644  0.4436  0.2705 -0.0448
 7116TIP3    H121312   3.381   4.539   5.693  1.1666  0.4103  0.8446
 7116TIP3    H221313   3.504   4.626   5.695  1.6304 -0.1062 -1.6666
 7117TIP3   OH221314   1.037   3.430   5.876  0.0825 -0.1003  0.3021
 7117TIP3    H121315   0.975   3.481   5.824  0.3667 -0.6641 -0.6118
 7117TIP3    H221316   1.077   3.494   5.935  0.2920  0.6919 -0.6863
 7118TIP3   OH221317   0.712   2.071   0.276 -0.2136 -0.2831 -0.1142
 7118TIP3    H121318   0.648   2.049   0.343  1.0438  2.6753  2.2808
 7118TIP3    H221319   0.783   2.007   0.287 -1.6301 -2.1362 -1.2554
 7119TIP3   OH221320   3.484   3.615   4.100 -0.0816 -0.2731 -0.4824
 7119TIP3    H121321   3.421   3.546   4.123  0.0066  0.2245  1.4333
 7119TIP3    H221322   3.445   3.659   4.025 -1.2444 -0.9960 -0.3347
 7120TIP3   OH221323   7.166   2.344   1.938 -0.0681  0.2133 -0.0508
 7120TIP3    H121324   7.163   2.335   2.033 -1.6154  1.3338  0.0453
 7120TIP3    H221325   7.075   2.361   1.913 -0.1244 -2.3452 -1.9945
 7121TIP3   OH221326   1.900   3.401   1.149 -0.1846 -0.6460 -0.3758
 7121TIP3    H121327   1.910   3.361   1.236 -2.4594  0.2495  0.3608
 7121TIP3    H221328   1.815   3.443   1.151  1.4018  3.0208 -1.6173
 7122TIP3   OH221329   2.007   5.170   2.282  0.4126  0.3322  0.0601
 7122TIP3    H121330   2.080   5.165   2.344  0.3940  0.7682  0.1248
 7122TIP3    H221331   2.016   5.092   2.228  0.8569  0.3167  0.1489
 7123TIP3   OH221332   1.870   1.700   4.612  0.3836 -0.3822 -0.4430
 7123TIP3    H121333   1.846   1.786   4.577 -0.4044 -0.3760  0.0887
 7123TIP3    H221334   1.887   1.646   4.535 -0.7482 -0.2081 -0.8357
 7124TIP3   OH221335   3.799   1.461   4.290  0.1551  0.5094 -0.3856
 7124TIP3    H121336   3.759   1.529   4.344 -0.6739 -1.1325  1.1350
 7124TIP3    H221337   3.829   1.508   4.212 -1.1884  2.4556  0.1985
 7125TIP3   OH221338   0.413   5.755   1.793  0.5862 -1.2173 -0.0955
 7125TIP3    H121339   0.503   5.773   1.766  0.0445 -0.3997 -1.4023
 7125TIP3    H221340   0.387   5.833   1.843 -1.3676  1.5712 -4.7962
 7126TIP3   OH221341   6.000   4.473   0.416 -0.4907 -0.0506 -0.3617
 7126TIP3    H121342   6.084   4.510   0.442 -0.3898 -0.6701  0.2177
 7126TIP3    H221343   5.938   4.505   0.482 -0.5208 -0.3818 -0.2239
 7127TIP3   OH221344   1.830   3.145   2.595  0.6066  0.1612 -0.0388
 7127TIP3    H121345   1.807   3.109   2.681 -0.6351 -0.8573 -0.7598
 7127TIP3    H221346   1.914   3.104   2.573  1.5795  1.3923  1.2015
 7128TIP3   OH221347   4.534   5.803   0.469  0.2140  0.2949 -0.1817
 7128TIP3    H121348   4.614   5.856   0.462 -0.2991  0.9693 -1.2111
 7128TIP3    H221349   4.508   5.788   0.378  0.1638 -1.4685  0.0934
 7129TIP3   OH221350   1.484   5.841   5.573 -0.5743 -0.5162  0.7727
 7129TIP3    H121351   1.462   5.910   5.511  0.4152 -0.1154  0.8384
 7129TIP3    H221352   1.554   5.879   5.627 -0.2288 -1.4535  1.0079
 7130TIP3   OH221353   2.080   2.533   1.806 -0.0934  0.3665  0.3894
 7130TIP3    H121354   2.147   2.487   1.857  0.9580 -0.5101 -1.6196
 7130TIP3    H221355   2.001   2.481   1.818  0.9787 -1.9600 -1.5268
 7131TIP3   OH221356   0.292   5.952   1.360 -0.3790 -0.1522 -0.2662
 7131TIP3    H121357   0.381   5.941   1.392 -0.2511  0.7803 -0.2839
 7131TIP3    H221358   0.281   5.882   1.295  0.1198 -0.6532  0.1819
 7132TIP3   OH221359   5.051   1.607   3.642  0.1312 -0.1503 -0.3137
 7132TIP3    H121360   5.032   1.662   3.566 -3.9855  0.0750  0.6715
 7132TIP3    H221361   4.999   1.528   3.628 -0.1819 -0.4000  1.9198
 7133TIP3   OH221362   5.468   5.772   3.189 -0.0579  0.8007 -0.2863
 7133TIP3    H121363   5.559   5.769   3.218 -0.2046  1.3947  0.2583
 7133TIP3    H221364   5.443   5.864   3.197 -0.2743  0.9055 -1.7775
 7134TIP3   OH221365   4.492   6.025   4.799  0.0239 -0.2815  0.0184
 7134TIP3    H121366   4.462   6.115   4.812 -0.0920 -0.5282  1.6917
 7134TIP3    H221367   4.413   5.977   4.773 -0.0036  0.0115 -0.4488
 7135TIP3   OH221368   0.359   5.548   1.978  0.4822  0.2860  0.2623
 7135TIP3    H121369   0.328   5.605   1.908  1.6017 -0.6496 -1.0416
 7135TIP3    H221370   0.431   5.597   2.019  0.7402  0.2669 -0.1596
 7136TIP3   OH221371   0.906   2.504   1.975  0.5189  0.0474 -1.0216
 7136TIP3    H121372   0.914   2.478   1.883 -1.5281 -1.9627 -0.7381
 7136TIP3    H221373   0.962   2.442   2.022 -0.5381 -0.7258 -0.7385
 7137TIP3   OH221374   4.793   1.878   5.196  0.4653  0.6984  0.7064
 7137TIP3    H121375   4.888   1.891   5.189  0.6102 -0.5395  0.0563
 7137TIP3    H221376   4.763   1.949   5.253  1.4963  2.3109 -0.6562
 7138TIP3   OH221377   0.574   4.987   1.617  0.2356  0.2616 -0.3833
 7138TIP3    H121378   0.613   4.962   1.534 -0.7988  0.6289 -0.9949
 7138TIP3    H221379   0.555   5.081   1.608 -2.1157 -0.1724 -0.6961
 7139TIP3   OH221380   5.014   5.212   5.576 -0.1995  0.1613 -0.4545
 7139TIP3    H121381   4.991   5.157   5.650 -0.0082  1.6365  0.7479
 7139TIP3    H221382   4.931   5.251   5.548 -0.1255  0.3929 -0.3550
 7140TIP3   OH221383   0.825   1.134   5.011 -0.2556 -0.9105  0.1302
 7140TIP3    H121384   0.815   1.189   4.933  0.4850 -0.0885  0.5927
 7140TIP3    H221385   0.889   1.067   4.986 -0.4498 -0.9917 -0.1460
 7141TIP3   OH221386   6.812   6.369   1.392 -0.3078 -0.7932 -0.2382
 7141TIP3    H121387   6.835   6.412   1.474  0.3986  1.1088 -1.3925
 7141TIP3    H221388   6.744   6.424   1.354 -1.7479 -2.4935 -0.2567
 7142TIP3   OH221389   6.060   6.602   0.319 -0.7068  0.8602  0.3864
 7142TIP3    H121390   6.095   6.625   0.405  0.5070 -0.3616  0.2464
 7142TIP3    H221391   6.086   6.511   0.305  0.2944  1.4135 -1.8264
 7143TIP3   OH221392   3.122   6.611   3.678 -0.3457 -0.3116 -0.4169
 7143TIP3    H121393   3.027   6.598   3.674 -0.2444 -1.4129  0.4176
 7143TIP3    H221394   3.151   6.555   3.750  0.5228  2.3538  1.4601
 7144TIP3   OH221395   2.166   5.108   3.003  0.8231  0.2670 -0.2737
 7144TIP3    H121396   2.236   5.084   3.062  1.2868  1.1669 -0.4487
 7144TIP3    H221397   2.186   5.061   2.922  1.1329  0.4041 -0.2752
 7145TIP3   OH221398   3.548   0.860   0.134 -0.4787  0.2880  0.1552
 7145TIP3    H121399   3.577   0.805   0.061 -0.8965  0.8831 -0.4730
 7145TIP3    H221400   3.626   0.910   0.159 -0.3846  0.2358 -0.0305
 7146TIP3   OH221401   0.005   6.465   3.905  0.0870  0.8653 -0.0299
 7146TIP3    H121402   0.018   6.375   3.936  2.0594 -0.3400 -3.6901
 7146TIP3    H221403   0.003   6.518   3.984 -0.1422 -2.2677  2.2480
 7147TIP3   OH221404   5.660   2.462   1.276 -0.0451  0.4404  0.1019
 7147TIP3    H121405   5.571   2.470   1.311  0.7316 -0.9363  2.6765
 7147TIP3    H221406   5.674   2.368   1.266  1.4095  0.5809  0.6015
 7148TIP3   OH221407   6.193   4.864   1.388  0.1704  0.1110  0.0711
 7148TIP3    H121408   6.217   4.783   1.432 -1.4140 -0.2704  0.3105
 7148TIP3    H221409   6.183   4.928   1.459  0.8650  0.3810 -0.0655
 7149TIP3   OH221410   6.848   2.482   5.160 -0.3178  0.2454  0.6613
 7149TIP3    H121411   6.898   2.537   5.099 -1.3892  1.4066  0.7801
 7149TIP3    H221412   6.828   2.540   5.234 -1.5101 -0.2856  0.7777
 7150TIP3   OH221413   3.746   4.654   5.441 -0.3041 -0.0023 -0.1385
 7150TIP3    H121414   3.819   4.592   5.436  0.6534  1.0997 -0.2680
 7150TIP3    H221415   3.668   4.599   5.451  0.6090 -1.1785  0.7275
 7151TIP3   OH221416   2.892   2.332   0.737  0.8609  0.1834 -0.1720
 7151TIP3    H121417   2.868   2.244   0.711 -0.5454  0.1460  1.1117
 7151TIP3    H221418   2.986   2.337   0.720  0.8619 -1.3559 -0.7855
 7152TIP3   OH221419   2.113   3.363   1.620  0.2637  0.2512  0.6922
 7152TIP3    H121420   2.041   3.345   1.560  0.9431  0.4049 -0.2042
 7152TIP3    H221421   2.091   3.317   1.700  1.0162 -3.0600 -0.8417
 7153TIP3   OH221422   0.174   5.141   2.254 -0.4254 -0.0723  0.0578
 7153TIP3    H121423   0.210   5.053   2.264  1.4783  0.4555 -1.5581
 7153TIP3    H221424   0.215   5.176   2.175 -1.5114  2.1043  0.3575
 7154TIP3   OH221425   7.132   3.990   1.067 -0.3925 -0.4000 -0.5041
 7154TIP3    H121426   7.115   3.965   1.158  0.6307 -1.3452 -0.5499
 7154TIP3    H221427   7.073   4.063   1.050 -0.5984 -0.2168  0.9213
 7155TIP3   OH221428   2.260   6.067   2.363  0.1277  0.4461  0.3022
 7155TIP3    H121429   2.278   6.134   2.429 -0.7085  1.2846 -0.3079
 7155TIP3    H221430   2.176   6.030   2.389  0.2291  0.1508  0.2094
 7156TIP3   OH221431   6.481   5.309   4.397  0.0024  0.6427  0.1864
 7156TIP3    H121432   6.408   5.305   4.459 -0.4422  0.5672 -0.3268
 7156TIP3    H221433   6.467   5.391   4.349  0.8122  1.1192  0.7393
 7157TIP3   OH221434   2.551   1.430   0.827 -0.2180  0.1184 -0.0877
 7157TIP3    H121435   2.473   1.384   0.860 -1.3512  0.8505 -1.5827
 7157TIP3    H221436   2.608   1.360   0.795 -0.8647 -0.3865 -0.1708
 7158TIP3   OH221437   1.466   0.700   0.892  0.1592 -0.0336  0.0072
 7158TIP3    H121438   1.513   0.735   0.815 -1.2557 -0.0470 -0.9019
 7158TIP3    H221439   1.469   0.772   0.955 -0.3311  0.7272 -0.8040
 7159TIP3   OH221440   3.839   2.868   4.121 -0.1141  0.3310 -0.2726
 7159TIP3    H121441   3.888   2.789   4.097  2.3650  1.7649 -0.3340
 7159TIP3    H221442   3.772   2.877   4.054  0.1985 -1.1769 -0.8266
 7160TIP3   OH221443   7.120   2.040   1.558 -0.1405 -0.0203 -0.2375
 7160TIP3    H121444   7.164   2.120   1.586  0.1863 -0.2960  0.0432
 7160TIP3    H221445   7.037   2.040   1.605  0.2043 -0.2467  0.3805
 7161TIP3   OH221446   3.277   4.796   3.242 -0.7980  0.4782  0.1123
 7161TIP3    H121447   3.263   4.889   3.260  1.9772  1.1772 -0.8432
 7161TIP3    H221448   3.246   4.784   3.152 -2.5307  0.0721  0.7265
 7162TIP3   OH221449   6.761   3.094   5.568  0.0556  0.1046 -0.5423
 7162TIP3    H121450   6.760   3.154   5.493  2.4623  0.0368 -0.6929
 7162TIP3    H221451   6.825   3.027   5.545 -0.2710 -0.7714  0.9645
 7163TIP3   OH221452   0.108   4.046   3.493  0.2195  0.2681 -0.2269
 7163TIP3    H121453   0.147   3.989   3.426  0.2774 -0.1687  0.1700
 7163TIP3    H221454   0.030   4.083   3.451  0.0658 -0.2662 -0.4255
 7164TIP3   OH221455   3.587   5.228   4.343  0.6162 -0.4802  0.0573
 7164TIP3    H121456   3.540   5.176   4.408 -0.3432 -0.3536 -0.5159
 7164TIP3    H221457   3.621   5.164   4.281 -0.9097 -0.4526 -0.8738
 7165TIP3   OH221458   0.451   4.289   2.700 -0.0854  0.2337 -0.0993
 7165TIP3    H121459   0.509   4.342   2.756  0.5841 -0.8077  0.2241
 7165TIP3    H221460   0.485   4.302   2.611 -0.3769  0.9061 -0.1197
 7166TIP3   OH221461   2.035   2.047   3.707  0.3360  0.0460  0.4673
 7166TIP3    H121462   1.999   2.052   3.796  1.1266  2.1587  0.7413
 7166TIP3    H221463   1.963   2.076   3.651  0.1626 -0.2648  0.5291
 7167TIP3   OH221464   3.393   2.230   1.598 -0.4853 -0.4885  0.0915
 7167TIP3    H121465   3.315   2.261   1.551 -1.2653 -1.9801  0.3302
 7167TIP3    H221466   3.462   2.290   1.572 -2.0962  2.0669  1.3308
 7168TIP3   OH221467   0.546   4.601   2.902  0.1854 -0.2661  0.0723
 7168TIP3    H121468   0.460   4.590   2.861  0.0195  0.8453  0.0865
 7168TIP3    H221469   0.575   4.512   2.922 -0.6504 -0.6971 -0.5718
 7169TIP3   OH221470   0.063   3.076   3.766  0.0136  0.4101  0.4132
 7169TIP3    H121471   0.004   3.038   3.832  1.0931  1.0368  1.7867
 7169TIP3    H221472   0.098   3.001   3.720 -0.2987 -0.0828  0.9606
 7170TIP3   OH221473   1.899   3.802   4.456 -0.6061 -0.5307 -0.3258
 7170TIP3    H121474   1.904   3.802   4.552 -0.7047  2.0384 -0.2441
 7170TIP3    H221475   1.940   3.884   4.430  0.7622 -1.8403 -2.6270
 7171TIP3   OH221476   4.647   5.521   1.764 -0.1113 -0.0736 -0.4192
 7171TIP3    H121477   4.642   5.609   1.726 -1.5177  0.1068  0.1090
 7171TIP3    H221478   4.568   5.514   1.818  0.2098 -1.4982 -0.0934
 7172TIP3   OH221479   5.192   1.508   1.007  0.2111 -0.2785  0.5435
 7172TIP3    H121480   5.175   1.458   1.087  1.9643 -0.2776  0.9610
 7172TIP3    H221481   5.196   1.599   1.035 -1.4678 -0.0128  0.0331
 7173TIP3   OH221482   5.730   5.795   1.190  0.2563 -0.6861 -0.0488
 7173TIP3    H121483   5.810   5.781   1.139  1.6423 -2.7040  2.4396
 7173TIP3    H221484   5.755   5.859   1.257 -0.9172  0.3528 -0.5534
 7174TIP3   OH221485   5.589   5.906   1.522  0.4970 -0.0725 -0.0341
 7174TIP3    H121486   5.573   5.932   1.612  0.9034 -0.3055  0.1078
 7174TIP3    H221487   5.685   5.909   1.512  0.4408  0.2376 -0.5410
 7175TIP3   OH221488   5.521   3.440   4.416 -0.2994  0.2238 -0.1626
 7175TIP3    H121489   5.610   3.474   4.426 -0.5131  0.7008  0.2163
 7175TIP3    H221490   5.524   3.353   4.454 -0.3425  0.8276  1.3072
 7176TIP3   OH221491   0.398   0.795   5.514 -0.6015 -0.4369 -0.1074
 7176TIP3    H121492   0.475   0.847   5.538  0.3485 -1.7217 -0.2535
 7176TIP3    H221493   0.372   0.753   5.596 -0.2514 -1.1356 -0.3489
 7177TIP3   OH221494   7.128   4.948   4.463 -0.8026 -0.0546 -0.3469
 7177TIP3    H121495   7.217   4.955   4.429  0.4281 -2.0648  2.0820
 7177TIP3    H221496   7.072   4.938   4.386  1.1742  0.2471 -1.8856
 7178TIP3   OH221497   6.086   4.446   5.506  0.4014 -0.1768  0.4536
 7178TIP3    H121498   6.122   4.452   5.595 -0.6870  0.9738  0.8433
 7178TIP3    H221499   6.071   4.352   5.493  1.1547 -0.4209  1.2340
 7179TIP3   OH221500   3.979   6.649   1.172 -0.4025 -0.3933  0.1006
 7179TIP3    H121501   4.022   6.712   1.230  0.0965  0.1258 -0.8187
 7179TIP3    H221502   4.034   6.645   1.094 -0.6411 -1.6758 -0.0297
 7180TIP3   OH221503   4.974   4.041   1.735  0.1446  0.3625 -0.1118
 7180TIP3    H121504   5.003   3.953   1.759 -0.5114  0.4115  0.9509
 7180TIP3    H221505   4.935   4.076   1.816 -1.5681  0.8162 -1.0829
 7181TIP3   OH221506   7.133   3.787   1.866 -0.3737  0.1264 -0.1705
 7181TIP3    H121507   7.078   3.760   1.940 -1.7849  0.1519 -1.1675
 7181TIP3    H221508   7.162   3.704   1.827 -3.0322 -0.0905 -1.9995
 7182TIP3   OH221509   3.107   4.981   2.946 -0.2201  0.1817  0.3106
 7182TIP3    H121510   3.044   4.964   2.876 -0.2513  2.7216 -0.3577
 7182TIP3    H221511   3.178   5.030   2.904  0.5523  0.3365  1.7323
 7183TIP3   OH221512   5.909   1.072   3.371 -0.4060 -0.5487 -0.5023
 7183TIP3    H121513   5.950   1.119   3.298 -0.1326  0.4169  0.2535
 7183TIP3    H221514   5.842   1.133   3.403  0.2856 -0.4559  0.8113
 7184TIP3   OH221515   4.402   2.567   3.595 -0.2821  0.1276  0.7939
 7184TIP3    H121516   4.400   2.508   3.671  1.6194  1.2062  1.7329
 7184TIP3    H221517   4.372   2.512   3.522  0.9989 -1.8960  1.7030
 7185TIP3   OH221518   2.444   0.467   1.992 -1.1008 -0.1469  0.2927
 7185TIP3    H121519   2.433   0.562   1.998 -1.4069 -0.1799  0.2574
 7185TIP3    H221520   2.456   0.450   1.898  2.2476  0.2092  0.5149
 7186TIP3   OH221521   3.641   1.924   1.365  0.2480  0.4855 -0.8464
 7186TIP3    H121522   3.707   1.982   1.403 -0.9593  0.7889  0.9757
 7186TIP3    H221523   3.559   1.973   1.374 -0.5418 -0.7649 -0.9245
 7187TIP3   OH221524   7.201   2.081   1.285  0.2289  0.5068  0.0148
 7187TIP3    H121525   7.270   2.068   1.350  1.3270 -0.8448 -1.3501
 7187TIP3    H221526   7.123   2.104   1.336  0.8575 -1.2643  1.8818
 7188TIP3   OH221527   4.673   1.802   5.905 -0.2056  0.0078 -0.6645
 7188TIP3    H121528   4.665   1.726   5.847  1.0415 -1.5795  1.1176
 7188TIP3    H221529   4.606   1.863   5.873  0.3696 -0.7687 -3.6930
 7189TIP3   OH221530   0.559   3.356   2.407  0.2920 -0.2111  0.2638
 7189TIP3    H121531   0.514   3.323   2.485 -2.1581  0.3002 -0.8550
 7189TIP3    H221532   0.590   3.443   2.433  1.1195 -0.7534  1.1958
 7190TIP3   OH221533   2.869   1.205   1.966 -0.3367 -0.4174  0.3350
 7190TIP3    H121534   2.959   1.229   1.946 -0.3827  1.1359  1.7031
 7190TIP3    H221535   2.866   1.203   2.062 -1.5403 -1.4082  0.3070
 7191TIP3   OH221536   0.974   2.700   1.018 -0.1178  0.4332  0.1928
 7191TIP3    H121537   0.961   2.734   0.930  0.0686  0.7830  0.2974
 7191TIP3    H221538   0.998   2.777   1.070 -0.8975  0.3401  0.6933
 7192TIP3   OH221539   7.032   0.176   3.606  0.3377 -0.1510  0.4212
 7192TIP3    H121540   7.035   0.244   3.673 -0.2260  0.2329  0.0657
 7192TIP3    H221541   7.049   0.221   3.524 -0.7795 -0.2876  0.0907
 7193TIP3   OH221542   2.819   6.514   2.358  0.0182  0.0233 -0.4606
 7193TIP3    H121543   2.884   6.545   2.421  0.1587  0.9769 -1.0526
 7193TIP3    H221544   2.871   6.484   2.283 -0.2034  2.4509 -1.6908
 7194TIP3   OH221545   5.890   5.551   4.270  0.4119  0.6532 -0.4595
 7194TIP3    H121546   5.871   5.472   4.220  1.5297 -0.6617  1.1120
 7194TIP3    H221547   5.944   5.604   4.210 -0.7207  0.4747 -1.6868
 7195TIP3   OH221548   2.301   0.965   4.070 -0.4681 -0.5609  0.0405
 7195TIP3    H121549   2.237   1.015   4.120  0.8554  0.5892  0.6573
 7195TIP3    H221550   2.309   1.011   3.987  2.6468  2.0283  1.5357
 7196TIP3   OH221551   0.688   5.602   0.102  0.1751 -0.3430  0.0421
 7196TIP3    H121552   0.714   5.625   0.013 -0.9051  0.8236 -0.0147
 7196TIP3    H221553   0.754   5.540   0.132  1.0731 -0.0443 -1.2376
 7197TIP3   OH221554   1.604   1.518   2.983 -0.0180 -0.4865  0.1257
 7197TIP3    H121555   1.609   1.424   2.997 -0.7413 -0.6648 -0.7237
 7197TIP3    H221556   1.521   1.544   3.024 -1.0628 -0.6548 -1.7569
 7198TIP3   OH221557   3.951   0.063   5.680 -0.4002  0.3253  0.3364
 7198TIP3    H121558   3.876   0.003   5.682  1.0013 -1.5136  0.8135
 7198TIP3    H221559   3.990   0.049   5.593 -0.3274  0.9006  0.2743
 7199TIP3   OH221560   1.817   4.783   3.762 -0.0235 -0.2258 -0.1000
 7199TIP3    H121561   1.773   4.732   3.830  0.6370 -0.1542  0.3942
 7199TIP3    H221562   1.770   4.761   3.682 -0.2127 -1.0512  0.2199
 7200TIP3   OH221563   5.563   5.998   0.036 -0.4421  0.1552  0.8527
 7200TIP3    H121564   5.504   5.976  -0.036 -0.3926  2.1939  0.1143
 7200TIP3    H221565   5.629   5.930   0.035 -0.5573  0.0142 -0.9173
 7201TIP3   OH221566   1.354   3.309   3.458  0.1391 -0.8376 -0.4247
 7201TIP3    H121567   1.299   3.286   3.533  1.1677 -0.5303  0.4399
 7201TIP3    H221568   1.438   3.334   3.496  0.2951  0.5344 -1.6045
 7202TIP3   OH221569   1.706   1.174   3.116  0.1963  0.0949 -0.6262
 7202TIP3    H121570   1.775   1.218   3.164 -0.3287  2.1024 -1.6300
 7202TIP3    H221571   1.637   1.159   3.181 -0.0793  1.8362 -0.4665
 7203TIP3   OH221572   1.336   2.770   0.051 -0.0403 -0.3543 -0.2905
 7203TIP3    H121573   1.354   2.700  -0.012 -2.6631 -0.1125 -1.4505
 7203TIP3    H221574   1.340   2.727   0.136 -0.2514 -1.6111 -0.8852
 7204TIP3   OH221575   4.706   0.088   5.750  0.8290 -0.1231  0.1936
 7204TIP3    H121576   4.795   0.108   5.780  0.9022 -0.6817  0.3574
 7204TIP3    H221577   4.709  -0.005   5.727  0.2361 -0.1974  0.4001
 7205TIP3   OH221578   2.372   6.075   5.200  0.0655 -0.2252  0.2506
 7205TIP3    H121579   2.332   6.094   5.115  1.4207 -1.3538 -0.6772
 7205TIP3    H221580   2.297   6.063   5.260 -0.9024  0.8700 -0.6776
 7206TIP3   OH221581   4.717   3.701   1.085 -0.0581 -0.0970  0.0403
 7206TIP3    H121582   4.727   3.788   1.124 -1.4859  0.2143 -0.2339
 7206TIP3    H221583   4.625   3.678   1.101 -0.1101 -0.8700 -1.2568
 7207TIP3   OH221584   5.062   0.020   5.535 -0.4708 -0.0852 -0.5326
 7207TIP3    H121585   4.992  -0.037   5.566 -1.1651  0.3732 -1.2193
 7207TIP3    H221586   5.095   0.063   5.614 -1.1823 -0.0648 -0.2416
 7208TIP3   OH221587   2.995   0.312   1.170  0.0072 -0.4066  0.1978
 7208TIP3    H121588   3.057   0.338   1.238  0.0305  0.1792 -0.0432
 7208TIP3    H221589   3.021   0.362   1.093 -0.1765 -0.8741 -0.1706
 7209TIP3   OH221590   4.447   5.071   3.312  0.1818 -0.4325  0.4301
 7209TIP3    H121591   4.486   4.985   3.293 -0.4623 -0.7797  0.6511
 7209TIP3    H221592   4.370   5.051   3.365 -0.9196  0.1687 -0.9173
 7210TIP3   OH221593   3.733   1.632   3.454  0.4862 -0.3000 -0.3611
 7210TIP3    H121594   3.741   1.706   3.514 -1.4373 -0.6534  0.3965
 7210TIP3    H221595   3.810   1.639   3.397  2.3657  0.0588  2.0812
 7211TIP3   OH221596   4.940   0.609   2.523 -0.2024 -0.4776 -0.1263
 7211TIP3    H121597   4.973   0.595   2.612 -1.4425 -0.1696  0.4094
 7211TIP3    H221598   4.887   0.688   2.529 -0.0155 -0.2521 -1.2311
 7212TIP3   OH221599   4.181   6.208   4.705 -0.2292 -0.2316 -0.1196
 7212TIP3    H121600   4.264   6.255   4.697  0.3690 -1.3260 -0.4877
 7212TIP3    H221601   4.203   6.117   4.688 -1.6192 -0.4607 -0.8493
 7213TIP3   OH221602   6.558   3.333   5.695 -0.2428  0.4400  0.1260
 7213TIP3    H121603   6.567   3.371   5.608 -0.4716  1.3916  0.5115
 7213TIP3    H221604   6.465   3.345   5.717 -0.2420 -0.0248  0.4037
 7214TIP3   OH221605   1.088   1.853   0.863 -0.2729  0.1771 -0.5520
 7214TIP3    H121606   1.171   1.820   0.830 -0.2520 -1.5573  1.0676
 7214TIP3    H221607   1.081   1.816   0.951 -1.7200  2.1045  0.2275
 7215TIP3   OH221608   3.453   4.280   2.747  0.4640  0.5360  0.1776
 7215TIP3    H121609   3.370   4.241   2.720  0.0452  1.0040  0.7523
 7215TIP3    H221610   3.454   4.268   2.842  1.2321  0.1998  0.1270
 7216TIP3   OH221611   6.072   0.822   2.136  0.3810  0.2965  0.0519
 7216TIP3    H121612   6.089   0.782   2.222  0.7986 -0.3659 -0.3297
 7216TIP3    H221613   6.085   0.915   2.151  2.8477 -0.0036  0.1983
 7217TIP3   OH221614   3.956   3.411   0.402  0.0462 -0.3193 -0.4094
 7217TIP3    H121615   4.031   3.457   0.440 -0.9689  0.9793  0.0814
 7217TIP3    H221616   3.984   3.319   0.397  1.6540  0.1335 -0.2296
 7218TIP3   OH221617   0.942   2.953   1.978 -0.3344 -0.1338 -0.3218
 7218TIP3    H121618   0.999   2.999   1.917  1.9427 -1.7256  0.4808
 7218TIP3    H221619   0.883   2.902   1.922  0.3479  0.0148 -1.2021
 7219TIP3   OH221620   6.825   2.148   0.822  0.1282  0.4433  0.5450
 7219TIP3    H121621   6.895   2.184   0.769 -1.7062  1.1616 -1.5524
 7219TIP3    H221622   6.767   2.222   0.839  0.1730  0.0233  2.8248
 7220TIP3   OH221623   2.750   6.738   1.765  0.1696 -0.2040 -0.7276
 7220TIP3    H121624   2.834   6.709   1.800 -0.0308 -1.4412 -1.2448
 7220TIP3    H221625   2.770   6.769   1.677  0.3776  1.2996 -0.1950
 7221TIP3   OH221626   6.730   0.064   5.874 -0.2160  0.1708 -0.1718
 7221TIP3    H121627   6.672   0.084   5.800  0.1661 -0.6337 -0.7050
 7221TIP3    H221628   6.806   0.120   5.861 -1.0805  1.6564  0.8442
 7222TIP3   OH221629   5.519   4.851   4.555 -0.2135  0.1486  0.5480
 7222TIP3    H121630   5.560   4.862   4.469 -0.6844 -1.2355  0.1291
 7222TIP3    H221631   5.468   4.931   4.567 -0.6696  0.0880 -0.7626
 7223TIP3   OH221632   6.282   0.156   4.945  0.5709 -0.3107  0.2931
 7223TIP3    H121633   6.294   0.068   4.981  0.4999 -0.1720  0.6535
 7223TIP3    H221634   6.352   0.208   4.983 -0.3610  0.1789  1.3690
 7224TIP3   OH221635   2.683   2.712   3.936 -0.1251 -0.6671 -0.3170
 7224TIP3    H121636   2.743   2.756   3.876  0.3641 -1.1969 -0.2190
 7224TIP3    H221637   2.608   2.772   3.942  1.5483  1.4541  1.7405
 7225TIP3   OH221638   2.710   3.758   2.450 -0.2369  0.0637 -0.6455
 7225TIP3    H121639   2.714   3.695   2.522  2.0204 -2.1442 -2.4886
 7225TIP3    H221640   2.693   3.704   2.372 -1.7132  2.2332 -1.9207
 7226TIP3   OH221641   0.373   6.076   0.741  0.4008 -0.5708 -0.2286
 7226TIP3    H121642   0.436   6.137   0.702 -0.4689  0.2759 -0.3712
 7226TIP3    H221643   0.364   6.006   0.677  1.1155 -0.6381 -0.2560
 7227TIP3   OH221644   2.935   4.625   1.170  0.1474 -0.0674  0.7952
 7227TIP3    H121645   2.921   4.719   1.183  0.1272  0.0283  0.1025
 7227TIP3    H221646   3.030   4.616   1.159 -0.0446  0.2122 -1.6066
 7228TIP3   OH221647   5.578   5.510   2.494  0.2794  0.9402  0.2506
 7228TIP3    H121648   5.530   5.541   2.418  1.1065  0.2373 -0.5838
 7228TIP3    H221649   5.511   5.467   2.549 -0.2788  1.2492 -0.1788
 7229TIP3   OH221650   6.061   6.754   2.448 -0.1880 -0.3079 -0.0371
 7229TIP3    H121651   6.135   6.807   2.417  0.1009 -0.1113  0.9647
 7229TIP3    H221652   5.995   6.763   2.379  0.1260  0.7947 -0.2192
 7230TIP3   OH221653   6.807   1.420   2.942 -0.2340  0.6442  0.0524
 7230TIP3    H121654   6.774   1.387   3.025  1.1160 -1.1268 -0.0657
 7230TIP3    H221655   6.882   1.474   2.965  0.4117 -0.2020 -0.0004
 7231TIP3   OH221656   5.587   5.886   4.699 -0.1309  0.0745  0.3886
 7231TIP3    H121657   5.531   5.892   4.776 -0.7682  0.0494 -0.0623
 7231TIP3    H221658   5.561   5.959   4.644  0.3043  0.0790  0.1834
 7232TIP3   OH221659   1.964   0.340   0.810 -0.6864  0.0254  0.2035
 7232TIP3    H121660   1.993   0.431   0.809 -2.0358  0.4683  0.1025
 7232TIP3    H221661   1.879   0.342   0.854  0.0038 -1.4322  1.7532
 7233TIP3   OH221662   2.670   5.928   5.711 -0.0506  0.6446  0.4278
 7233TIP3    H121663   2.614   5.892   5.779  0.9969 -0.7313  0.6044
 7233TIP3    H221664   2.609   5.967   5.648 -1.1522 -0.0120  1.0499
 7234TIP3   OH221665   4.092   2.885   4.835  0.1073  0.1487  0.2963
 7234TIP3    H121666   4.119   2.865   4.745  0.8817  0.7025  0.3887
 7234TIP3    H221667   4.174   2.907   4.880 -0.3853  0.8643  0.8705
 7235TIP3   OH221668   3.965   3.174   3.227 -0.0039  0.1097 -0.8309
 7235TIP3    H121669   4.045   3.168   3.174  0.8914 -1.9489  0.6434
 7235TIP3    H221670   3.896   3.141   3.169  0.8198 -1.3315 -1.0337
 7236TIP3   OH221671   3.218   0.219   0.193 -0.2432  0.4522  0.2085
 7236TIP3    H121672   3.145   0.223   0.255 -0.5686  0.4212 -0.1745
 7236TIP3    H221673   3.215   0.302   0.146 -1.4150 -0.4340 -1.3705
 7237TIP3   OH221674   5.694   1.928   2.789  0.2943 -0.3558 -0.5274
 7237TIP3    H121675   5.607   1.901   2.759  0.9591 -1.3391 -1.6620
 7237TIP3    H221676   5.685   2.021   2.810 -1.0951 -0.5130 -0.3236
 7238TIP3   OH221677   6.252   3.694   3.858 -0.4265  0.3035  0.0846
 7238TIP3    H121678   6.311   3.717   3.787 -0.9245  0.5380 -0.2590
 7238TIP3    H221679   6.279   3.751   3.931  0.0930  0.0500  0.0947
 7239TIP3   OH221680   3.488   0.793   1.476  0.2017  0.5194  0.3643
 7239TIP3    H121681   3.570   0.748   1.494 -1.0337 -2.0847 -0.1182
 7239TIP3    H221682   3.492   0.814   1.383 -0.0847 -0.5798  0.0886
 7240TIP3   OH221683   3.477   5.585   3.048 -0.0255 -0.4680  0.3827
 7240TIP3    H121684   3.531   5.642   2.993  1.2758 -0.7129  1.3624
 7240TIP3    H221685   3.538   5.549   3.112 -0.5931 -3.6637 -0.7267
 7241TIP3   OH221686   3.908   5.390   5.554 -0.4935 -0.0886  0.2865
 7241TIP3    H121687   3.975   5.324   5.569  0.1845  0.0730 -1.7038
 7241TIP3    H221688   3.867   5.364   5.472 -0.4090  1.7661 -0.3975
 7242TIP3   OH221689   3.491   5.887   3.313  0.0746 -1.0347 -0.8364
 7242TIP3    H121690   3.397   5.896   3.324  0.0348 -1.1413 -1.0688
 7242TIP3    H221691   3.515   5.813   3.369  0.3553  0.2659  0.8362
 7243TIP3   OH221692   3.758   6.381   0.920 -0.4083  0.6770 -0.0480
 7243TIP3    H121693   3.796   6.305   0.876  0.8041  1.5605 -0.5702
 7243TIP3    H221694   3.817   6.398   0.993 -2.0570 -0.3837  1.6001
 7244TIP3   OH221695   2.556   4.974   4.524 -0.2032 -0.4802  0.4658
 7244TIP3    H121696   2.635   5.010   4.565  0.0682  1.4564 -1.5622
 7244TIP3    H221697   2.497   5.049   4.517 -0.3939 -0.7963 -2.1966
 7245TIP3   OH221698   7.119   2.031   2.960 -0.9964  0.4101  0.0223
 7245TIP3    H121699   7.114   1.949   3.010  0.0454  0.6472  0.5381
 7245TIP3    H221700   7.152   2.005   2.875 -1.5540  0.1759 -0.1277
 7246TIP3   OH221701   6.317   2.858   4.814  0.3797 -0.1792  0.6776
 7246TIP3    H121702   6.390   2.919   4.823  0.2524  0.1820 -0.5876
 7246TIP3    H221703   6.352   2.775   4.846  1.6193 -0.1949 -0.5974
 7247TIP3   OH221704   4.268   1.993   1.486 -0.7284  0.1868 -0.0358
 7247TIP3    H121705   4.349   1.944   1.501 -1.5939 -2.3869 -2.5915
 7247TIP3    H221706   4.221   1.988   1.569 -0.3310 -2.6839  0.1390
 7248TIP3   OH221707   2.465   4.008   2.039 -0.5822 -0.2414 -0.2960
 7248TIP3    H121708   2.528   3.982   2.107 -0.5085  1.4886  0.3473
 7248TIP3    H221709   2.437   4.096   2.065 -0.5972  0.4601 -2.4711
 7249TIP3   OH221710   3.946   1.930   2.251  0.6261 -0.1564  0.2074
 7249TIP3    H121711   3.870   1.891   2.296 -0.8631  1.7661 -0.4841
 7249TIP3    H221712   3.976   1.862   2.191 -1.4266 -0.5632 -0.4501
 7250TIP3   OH221713   6.948   2.515   0.218  0.0394  0.3123  0.1170
 7250TIP3    H121714   6.961   2.518   0.312 -1.2064  0.9960  0.2950
 7250TIP3    H221715   6.982   2.430   0.191 -0.3493 -0.2312  1.3058
 7251TIP3   OH221716   0.963   3.584   5.253 -0.1638 -0.0624  0.4241
 7251TIP3    H121717   1.051   3.610   5.225 -0.3703 -0.0940 -0.2697
 7251TIP3    H221718   0.963   3.489   5.248 -0.0073 -0.1084  1.1486
 7252TIP3   OH221719   2.947   3.906   2.829  0.3899 -0.1475 -0.0590
 7252TIP3    H121720   2.919   3.886   2.740 -0.6641 -1.7153  0.5923
 7252TIP3    H221721   2.876   3.960   2.865 -0.4311 -1.6302  0.6219
 7253TIP3   OH221722   5.775   1.758   3.313 -0.2874 -0.2778  0.0762
 7253TIP3    H121723   5.809   1.676   3.277 -0.4696  0.6619 -2.5120
 7253TIP3    H221724   5.728   1.733   3.392  0.6835 -2.4876  0.0196
 7254TIP3   OH221725   3.182   4.626   1.901  0.1855 -0.4195  0.1541
 7254TIP3    H121726   3.122   4.680   1.849 -0.0225 -1.3240 -0.5738
 7254TIP3    H221727   3.142   4.540   1.901 -0.5930 -0.1445  3.0907
 7255TIP3   OH221728   1.731   5.412   1.576  0.0019 -0.1990 -0.0689
 7255TIP3    H121729   1.807   5.411   1.635 -0.2160  0.5125  0.2364
 7255TIP3    H221730   1.769   5.413   1.488  0.3563  0.2783  0.0819
 7256TIP3   OH221731   0.165   5.193   4.171  0.5604 -0.2138 -0.3595
 7256TIP3    H121732   0.197   5.127   4.231  1.4821  0.5654  0.0194
 7256TIP3    H221733   0.122   5.142   4.101  0.4128 -1.1583  0.3962
 7257TIP3   OH221734   0.805   0.147   4.503 -0.1378  0.1262 -0.1765
 7257TIP3    H121735   0.742   0.083   4.471  1.3371 -0.8440 -1.2206
 7257TIP3    H221736   0.769   0.175   4.587 -2.8023  0.8404 -1.4243
 7258TIP3   OH221737   2.148   3.868   2.672  0.4619 -0.2819  0.1822
 7258TIP3    H121738   2.217   3.802   2.666  0.1463 -0.6070  0.1246
 7258TIP3    H221739   2.120   3.882   2.581  1.0409  0.4845  0.1061
 7259TIP3   OH221740   3.423   5.574   2.531  0.4755 -0.0715  0.8787
 7259TIP3    H121741   3.342   5.528   2.510  1.0567 -2.1430  2.7730
 7259TIP3    H221742   3.423   5.579   2.627  2.3115  0.3829  0.8912
 7260TIP3   OH221743   2.283   0.864   0.934 -0.1233  0.1649  0.2286
 7260TIP3    H121744   2.303   0.772   0.951 -1.5072 -0.0707  0.7563
 7260TIP3    H221745   2.197   0.862   0.891 -0.4891  1.2338  0.8564
 7261TIP3   OH221746   4.204   2.356   5.153 -0.2980 -0.2287 -0.7627
 7261TIP3    H121747   4.297   2.359   5.174 -0.5977  0.7150  0.5927
 7261TIP3    H221748   4.189   2.266   5.124  0.5039 -1.2881  1.7991
 7262TIP3   OH221749   4.286   5.307   1.343  0.0020 -0.0460  0.1081
 7262TIP3    H121750   4.351   5.376   1.358  0.4700 -0.3146 -0.6224
 7262TIP3    H221751   4.338   5.227   1.332 -0.5257 -0.4870  0.7702
 7263TIP3   OH221752   7.173   0.773   5.680 -0.0996 -0.0131 -0.4407
 7263TIP3    H121753   7.111   0.783   5.608 -0.6134  1.2137  0.1336
 7263TIP3    H221754   7.235   0.845   5.668 -0.1443  0.1547  0.2842
 7264TIP3   OH221755   0.060   2.655   1.711 -0.0804  0.6899  0.4346
 7264TIP3    H121756   0.105   2.583   1.755 -0.1667 -0.4720 -1.2811
 7264TIP3    H221757   0.124   2.726   1.711  0.8581 -0.1283  0.1820
 7265TIP3   OH221758   1.012   3.405   0.999 -0.1030  0.1068 -0.0628
 7265TIP3    H121759   1.069   3.328   1.001  0.1344  0.2689  1.9397
 7265TIP3    H221760   1.003   3.426   0.906  0.8905 -1.5421 -0.5834
 7266TIP3   OH221761   4.002   3.145   0.402 -0.5591  0.3705  0.0710
 7266TIP3    H121762   4.079   3.089   0.394  0.6257  1.8754  0.4399
 7266TIP3    H221763   3.934   3.088   0.439 -0.9004 -2.0804 -3.6796
 7267TIP3   OH221764   5.760   4.784   4.658  0.1410 -0.5485  0.2632
 7267TIP3    H121765   5.675   4.800   4.617 -0.7863  0.0889  2.3000
 7267TIP3    H221766   5.746   4.704   4.709 -0.8153  1.9250  4.3111
 7268TIP3   OH221767   0.783   3.916   1.857 -0.9832 -0.2702 -0.2220
 7268TIP3    H121768   0.830   3.980   1.910 -1.2944 -0.3912  0.2113
 7268TIP3    H221769   0.851   3.866   1.813 -0.5739 -1.9147  2.0945
 7269TIP3   OH221770   6.813   5.267   2.605 -0.0468  0.4079 -0.0158
 7269TIP3    H121771   6.816   5.357   2.638  1.5347  0.7225 -0.9188
 7269TIP3    H221772   6.851   5.214   2.675 -0.8386  0.4488  0.4552
 7270TIP3   OH221773   0.191   2.280   5.230  0.0903 -0.4962  0.4679
 7270TIP3    H121774   0.271   2.315   5.268  0.5062 -0.5167 -0.3739
 7270TIP3    H221775   0.158   2.219   5.296  0.8273 -0.5717  0.7737
 7271TIP3   OH221776   1.667   3.889   2.642  0.5671 -0.5399  0.1774
 7271TIP3    H121777   1.693   3.894   2.550 -0.7184  0.5379 -0.1639
 7271TIP3    H221778   1.736   3.937   2.688  1.1576 -0.9788 -0.2226
 7272TIP3   OH221779   4.622   2.995   1.959  0.4078  0.2300 -0.0205
 7272TIP3    H121780   4.559   3.059   1.992  1.9055  1.1144  1.2518
 7272TIP3    H221781   4.677   3.045   1.898  0.8002 -0.1520  0.0158
 7273TIP3   OH221782   3.455   6.705   1.201  0.0809  0.5171 -0.0446
 7273TIP3    H121783   3.372   6.706   1.153  0.5135 -0.6196 -0.8411
 7273TIP3    H221784   3.522   6.708   1.133  0.7154 -1.7561  0.4245
 7274TIP3   OH221785   1.486   2.440   3.581  0.0641 -0.4560 -0.1827
 7274TIP3    H121786   1.463   2.532   3.589 -0.1145 -0.5429  0.3851
 7274TIP3    H221787   1.567   2.431   3.631 -1.0402 -1.0065  1.6030
 7275TIP3   OH221788   0.184   0.595   4.015  0.2564 -0.0902 -0.1725
 7275TIP3    H121789   0.092   0.608   3.989 -0.4100 -3.6590 -0.0541
 7275TIP3    H221790   0.180   0.526   4.081  3.1141 -1.2679 -1.0948
 7276TIP3   OH221791   4.291   4.047   0.211 -0.2930 -0.0972  0.3519
 7276TIP3    H121792   4.305   4.140   0.195 -0.7151 -0.0995 -0.0410
 7276TIP3    H221793   4.376   4.007   0.196 -0.5523 -0.0401 -1.4638
 7277TIP3   OH221794   6.984   4.343   4.980 -0.0064 -0.0806  0.5713
 7277TIP3    H121795   6.993   4.264   4.927  0.0910  0.4351 -0.2001
 7277TIP3    H221796   7.062   4.344   5.036 -1.3168 -1.9800  2.6263
 7278TIP3   OH221797   1.371   6.427   2.914  0.2895  0.4542 -0.0074
 7278TIP3    H121798   1.367   6.474   2.831 -1.0455 -1.5372 -1.1443
 7278TIP3    H221799   1.463   6.402   2.923  0.2021 -0.7369 -1.8036
 7279TIP3   OH221800   3.718   2.564   1.648  0.0918  0.3411 -0.2546
 7279TIP3    H121801   3.783   2.616   1.696  0.0360  1.1308 -1.0000
 7279TIP3    H221802   3.634   2.608   1.667 -0.6586 -2.0325  2.6262
 7280TIP3   OH221803   6.917   1.466   1.020  0.3502 -0.1673  0.2461
 7280TIP3    H121804   6.995   1.417   1.047  0.3476  0.5893  1.6957
 7280TIP3    H221805   6.870   1.406   0.962  2.0366 -0.6110 -0.7189
 7281TIP3   OH221806   3.099   5.061   4.600 -0.4324 -0.6363 -0.0392
 7281TIP3    H121807   3.161   4.991   4.618  0.5973 -0.0975 -1.3635
 7281TIP3    H221808   3.067   5.087   4.686  0.1076 -1.8784  0.5602
 7282TIP3   OH221809   5.423   6.253  -0.028  0.5803 -0.2350 -0.2806
 7282TIP3    H121810   5.504   6.212   0.002 -0.7988 -2.9119  0.0868
 7282TIP3    H221811   5.365   6.250   0.048 -1.0395 -1.7792 -1.5018
 7283TIP3   OH221812   5.490   1.233   0.183  0.1958 -0.0896  0.0530
 7283TIP3    H121813   5.463   1.240   0.275 -0.3570  1.6910 -0.2049
 7283TIP3    H221814   5.571   1.285   0.178  0.9904 -1.3174 -0.2091
 7284TIP3   OH221815   4.065   3.444   1.664  0.2102  0.8246  0.0277
 7284TIP3    H121816   4.062   3.493   1.747  0.2102  0.7069  0.0969
 7284TIP3    H221817   4.154   3.457   1.632 -0.2128  2.1034 -0.6965
 7285TIP3   OH221818   6.563   6.136   1.408 -0.8127  0.0293 -0.2444
 7285TIP3    H121819   6.583   6.056   1.457  1.3360  1.3874  1.2536
 7285TIP3    H221820   6.469   6.130   1.390 -1.2225 -1.6392  2.0450
 7286TIP3   OH221821   1.257   2.305   3.680  0.3232 -0.5084  0.8105
 7286TIP3    H121822   1.305   2.236   3.724  0.5405 -1.9290 -1.4946
 7286TIP3    H221823   1.319   2.342   3.617 -0.5093  0.1319  0.3366
 7287TIP3   OH221824   5.494   2.300   5.739 -0.1836  0.3755  0.2158
 7287TIP3    H121825   5.527   2.250   5.664 -0.9913  2.0836 -1.3722
 7287TIP3    H221826   5.399   2.298   5.729 -0.3115  0.5030  1.3142
 7288TIP3   OH221827   6.361   5.781   1.313  0.0024 -0.2854  0.5851
 7288TIP3    H121828   6.315   5.809   1.392  0.0381  1.0965  0.1389
 7288TIP3    H221829   6.292   5.775   1.246  0.3493  1.1462  0.0795
 7289TIP3   OH221830   3.190   3.151   4.358  0.4227  0.1359  0.1023
 7289TIP3    H121831   3.162   3.104   4.437  1.1934 -1.3521 -0.4894
 7289TIP3    H221832   3.285   3.142   4.357  0.2862 -2.4397 -2.4882
 7290TIP3   OH221833   5.645   6.163   4.063  0.3099  0.1092  0.1395
 7290TIP3    H121834   5.622   6.253   4.043 -0.0871 -0.3071 -1.3952
 7290TIP3    H221835   5.721   6.145   4.009 -0.0219 -0.6836 -0.0809
 7291TIP3   OH221836   1.498   6.702   1.770  0.4570  0.2417 -0.0749
 7291TIP3    H121837   1.557   6.773   1.795 -1.1638  1.8550 -0.5874
 7291TIP3    H221838   1.440   6.741   1.704 -0.4904 -1.5789 -0.3895
 7292TIP3   OH221839   5.565   6.466   5.809  0.4941  0.2828  0.0540
 7292TIP3    H121840   5.640   6.427   5.855  1.0310  0.6055 -0.5471
 7292TIP3    H221841   5.489   6.427   5.852  0.9979  0.0683  0.7777
 7293TIP3   OH221842   4.329   0.738   5.399 -0.0531  0.1293  0.0361
 7293TIP3    H121843   4.424   0.742   5.410 -0.0073 -1.4408  0.4558
 7293TIP3    H221844   4.305   0.648   5.424 -1.5884  0.3439 -0.5162
 7294TIP3   OH221845   3.072   3.679   5.501 -0.2906  0.1989 -0.2447
 7294TIP3    H121846   3.092   3.768   5.475 -0.2748  0.5056  0.7645
 7294TIP3    H221847   2.977   3.674   5.497 -0.5971  1.3636  2.9414
 7295TIP3   OH221848   2.652   2.460   2.856 -0.6181  0.2257 -0.1941
 7295TIP3    H121849   2.698   2.530   2.809 -0.5111  0.0005 -0.4263
 7295TIP3    H221850   2.697   2.456   2.941  0.2873 -0.4935 -0.6916
 7296TIP3   OH221851   0.738   5.539   1.815 -0.0811 -0.8084 -0.2455
 7296TIP3    H121852   0.717   5.554   1.907 -0.6909  3.6506 -0.8811
 7296TIP3    H221853   0.832   5.519   1.815  0.0633 -0.2935  1.3315
 7297TIP3   OH221854   5.299   3.895   0.438  0.7694 -0.0377 -0.2211
 7297TIP3    H121855   5.329   3.983   0.417  2.8733 -0.4086  0.9072
 7297TIP3    H221856   5.324   3.841   0.363  2.1037 -0.1336  0.2480
 7298TIP3   OH221857   5.079   2.538   2.003  0.0026 -0.2982  0.0010
 7298TIP3    H121858   5.131   2.574   2.075  1.1831 -1.5738 -0.1768
 7298TIP3    H221859   5.142   2.522   1.933 -1.0033  0.1855 -1.0528
 7299TIP3   OH221860   5.322   3.574   4.731  0.5480 -0.1016  0.4872
 7299TIP3    H121861   5.260   3.583   4.803  0.9034  0.2023  0.7589
 7299TIP3    H221862   5.346   3.481   4.731 -0.2769 -0.3244  0.0661
 7300TIP3   OH221863   6.679   3.470   2.231 -0.3355 -0.0170 -0.2788
 7300TIP3    H121864   6.735   3.489   2.156  0.2995 -1.1614 -0.1172
 7300TIP3    H221865   6.661   3.376   2.225 -0.2351 -0.1447  1.0224
 7301TIP3   OH221866   0.841   3.394   2.641 -0.0242  0.3646  0.2059
 7301TIP3    H121867   0.771   3.457   2.619  0.8527  1.4020  0.2873
 7301TIP3    H221868   0.922   3.440   2.618  0.6118 -1.2684 -0.9991
 7302TIP3   OH221869   6.770   6.545   4.370  0.4771  0.5974 -0.3081
 7302TIP3    H121870   6.789   6.480   4.302 -1.1742  0.5871 -0.7952
 7302TIP3    H221871   6.679   6.528   4.395  0.2662  2.1985  0.1194
 7303TIP3   OH221872   6.679   4.297   5.429  0.0220  0.2680 -0.2141
 7303TIP3    H121873   6.614   4.233   5.456 -1.6637  0.4353 -3.3568
 7303TIP3    H221874   6.715   4.263   5.347  0.7185  2.2583 -0.8152
 7304TIP3   OH221875   1.058   4.552   4.025  0.5054 -0.2617  0.5043
 7304TIP3    H121876   1.066   4.581   3.934  1.6120  0.6888  0.8799
 7304TIP3    H221877   0.966   4.565   4.046  0.7969  2.4295  0.4396
 7305TIP3   OH221878   1.665   3.513   3.262 -0.2259  0.2399 -0.2761
 7305TIP3    H121879   1.690   3.420   3.265  1.4714  0.6000 -1.6589
 7305TIP3    H221880   1.742   3.560   3.293 -1.5133  1.1802  1.6487
 7306TIP3   OH221881   3.792   6.462   2.314  0.1547  0.2951  0.0806
 7306TIP3    H121882   3.864   6.514   2.278  1.8354 -1.2944  0.9855
 7306TIP3    H221883   3.773   6.396   2.247 -1.8276  1.8357 -0.9742
 7307TIP3   OH221884   1.900   2.633   4.141  0.1707  0.3766  0.4249
 7307TIP3    H121885   1.818   2.586   4.155  0.3871  0.4802  2.2682
 7307TIP3    H221886   1.874   2.724   4.130  0.0334  0.4833  1.4758
 7308TIP3   OH221887   4.086   4.679   5.525  0.0622  0.3469  0.6110
 7308TIP3    H121888   4.031   4.620   5.473 -1.8411  0.5489  2.2528
 7308TIP3    H221889   4.161   4.626   5.550  0.2627 -0.2086 -1.0310
 7309TIP3   OH221890   3.823   5.644   3.975 -0.0638  0.7594  0.2627
 7309TIP3    H121891   3.791   5.609   4.058  0.8596 -0.5832  0.0891
 7309TIP3    H221892   3.794   5.735   3.975 -1.5401  0.3276  1.2807
 7310TIP3   OH221893   2.626   6.085   5.281  0.3098  0.1193  0.0477
 7310TIP3    H121894   2.603   6.163   5.331  1.0554  0.8469 -0.7137
 7310TIP3    H221895   2.546   6.061   5.235  0.0658  0.3965  0.3220
 7311TIP3   OH221896   4.749   5.755   4.822  0.7688 -0.3402 -0.4284
 7311TIP3    H121897   4.773   5.678   4.873  1.0815 -0.3307 -0.5562
 7311TIP3    H221898   4.732   5.722   4.734 -1.5507 -0.6269  0.0666
 7312TIP3   OH221899   1.882   0.178   4.733 -0.5489  0.1748 -0.0416
 7312TIP3    H121900   1.868   0.112   4.802 -2.5972 -0.0466 -0.5798
 7312TIP3    H221901   1.921   0.129   4.661  1.9354  0.4755  1.0026
 7313TIP3   OH221902   2.264   4.437   4.714 -0.2292  0.6531 -0.3741
 7313TIP3    H121903   2.193   4.379   4.686  0.8547 -1.7121  1.4765
 7313TIP3    H221904   2.292   4.481   4.633 -1.3502 -1.1184 -1.8050
 7314TIP3   OH221905   7.077   3.226   3.530  0.0464 -0.1696  0.1173
 7314TIP3    H121906   6.995   3.191   3.565 -0.1148 -0.7360 -0.7960
 7314TIP3    H221907   7.053   3.262   3.445  0.2784  1.8773  0.8612
 7315TIP3   OH221908   4.691   3.123   5.508  0.4385 -0.1062 -0.1652
 7315TIP3    H121909   4.672   3.172   5.589  0.3861 -0.8854  0.3020
 7315TIP3    H221910   4.787   3.119   5.505  0.4342 -0.3386  0.0160
 7316TIP3   OH221911   1.324   4.112   5.590 -0.2988 -0.2703  0.3270
 7316TIP3    H121912   1.370   4.052   5.531 -0.2302 -0.2989  0.4077
 7316TIP3    H221913   1.273   4.054   5.647  0.2582 -0.2921  0.8188
 7317TIP3   OH221914   0.789   4.358   2.190  0.0415  0.6481 -0.2414
 7317TIP3    H121915   0.812   4.313   2.271  0.9454  0.4179 -0.6157
 7317TIP3    H221916   0.696   4.340   2.177  0.3496 -0.9730 -0.2965
 7318TIP3   OH221917   6.615   0.186   1.575  0.2550  0.0588  1.0728
 7318TIP3    H121918   6.560   0.208   1.650  0.3639  0.1894  1.1140
 7318TIP3    H221919   6.671   0.263   1.562  0.7075 -0.2290  1.2784
 7319TIP3   OH221920   4.743   1.203   2.377  0.3412  0.1781  0.6346
 7319TIP3    H121921   4.756   1.125   2.323 -0.1603 -0.4147  1.3537
 7319TIP3    H221922   4.819   1.205   2.435  1.2985  1.2676 -0.5996
 7320TIP3   OH221923   2.382   3.310   3.247  0.1459 -0.1278  0.0925
 7320TIP3    H121924   2.315   3.273   3.190 -0.9501 -0.2953  1.4328
 7320TIP3    H221925   2.456   3.249   3.241  0.2418  0.1098 -1.4709
 7321TIP3   OH221926   1.766   3.405   2.533 -0.2818  0.0300 -0.0759
 7321TIP3    H121927   1.780   3.472   2.600  0.8080 -0.6753  0.4264
 7321TIP3    H221928   1.762   3.322   2.581  2.4227 -0.7179 -0.9522
 7322TIP3   OH221929   6.094   2.309   4.138 -0.0526 -0.1619  0.1226
 7322TIP3    H121930   6.052   2.393   4.117  1.4091  0.5034 -0.2205
 7322TIP3    H221931   6.039   2.272   4.207 -0.0892  1.6093  1.0908
 7323TIP3   OH221932   3.774   1.871   3.554  0.4147 -0.2673 -0.0671
 7323TIP3    H121933   3.821   1.954   3.555  1.0100 -0.6005  0.6365
 7323TIP3    H221934   3.681   1.895   3.554  0.5469  0.4139  2.1078
 7324TIP3   OH221935   5.504   5.427   2.927 -0.0458  0.0841  0.4993
 7324TIP3    H121936   5.509   5.522   2.921  0.0709  0.0134 -0.6589
 7324TIP3    H221937   5.563   5.395   2.859  0.1120 -0.8240  1.0401
 7325TIP3   OH221938   4.050   0.682   4.140  0.0830 -0.1681 -0.0691
 7325TIP3    H121939   4.023   0.591   4.127  0.3550 -0.3800  0.8195
 7325TIP3    H221940   3.977   0.721   4.189  0.0665  0.0353 -0.2551
 7326TIP3   OH221941   6.725   6.683   0.694  0.3942 -0.2258  0.0026
 7326TIP3    H121942   6.795   6.713   0.636  0.3351  0.0844  0.0870
 7326TIP3    H221943   6.767   6.620   0.752  0.3387 -0.9337 -0.7143
 7327TIP3   OH221944   5.037   0.376   0.680 -0.4050  0.1715  0.1882
 7327TIP3    H121945   5.041   0.365   0.775  0.7899 -1.7724 -0.0263
 7327TIP3    H221946   5.104   0.442   0.661 -1.2499  1.2123  0.7531
 7328TIP3   OH221947   3.422   2.917   4.082  0.5728  0.0899  0.1393
 7328TIP3    H121948   3.447   2.826   4.096  1.2901  0.3659  0.7976
 7328TIP3    H221949   3.341   2.913   4.031  1.7043 -0.8812 -1.6961
 7329TIP3   OH221950   6.321   5.341   3.704 -0.5912 -0.3579 -0.6868
 7329TIP3    H121951   6.238   5.294   3.698 -0.3883 -0.6945 -0.9045
 7329TIP3    H221952   6.309   5.402   3.777 -1.2204 -0.0154 -1.0708
 7330TIP3   OH221953   6.850   4.846   5.667 -0.0025 -0.1335 -0.0719
 7330TIP3    H121954   6.906   4.769   5.679  1.0911  0.9787  2.8049
 7330TIP3    H221955   6.778   4.832   5.728 -0.9310  0.1767 -1.0742
 7331TIP3   OH221956   6.486   0.061   4.032  0.1823 -0.4897  0.0260
 7331TIP3    H121957   6.480   0.050   3.937 -0.4635 -0.1727  0.0214
 7331TIP3    H221958   6.532  -0.017   4.063 -0.9005 -1.3186 -0.3980
 7332TIP3   OH221959   0.249   4.384   3.755  0.4554 -0.2512  0.5002
 7332TIP3    H121960   0.166   4.425   3.732  1.2014  1.3897  0.6372
 7332TIP3    H221961   0.237   4.356   3.846 -0.0885 -0.4291  0.3791
 7333TIP3   OH221962   1.654   1.886   1.960  0.2393  0.0961 -0.2228
 7333TIP3    H121963   1.688   1.953   2.020 -0.0173  0.2199 -0.2093
 7333TIP3    H221964   1.561   1.908   1.952  0.0806 -0.4533  0.0396
 7334TIP3   OH221965   4.132   0.276   2.857  0.5681  0.0902 -0.0203
 7334TIP3    H121966   4.098   0.348   2.910  2.4342  0.9566  0.0708
 7334TIP3    H221967   4.152   0.315   2.772 -0.7434 -0.9061 -0.8349
 7335TIP3   OH221968   0.909   5.578   4.014 -0.6974  0.0475 -0.0209
 7335TIP3    H121969   0.848   5.625   3.958  0.1883 -0.2997 -1.3368
 7335TIP3    H221970   0.875   5.488   4.017  0.0201 -0.2922 -1.2400
 7336TIP3   OH221971   4.380   5.389   1.029  0.1898  0.0309 -0.7507
 7336TIP3    H121972   4.366   5.307   0.981 -0.5881 -0.1251 -0.2681
 7336TIP3    H221973   4.295   5.410   1.066  0.6832  0.3749  0.2211
 7337TIP3   OH221974   2.567   1.506   2.503  0.1763  0.0328  0.8535
 7337TIP3    H121975   2.594   1.539   2.418  1.7739 -1.4202  0.7535
 7337TIP3    H221976   2.569   1.583   2.560  0.2596  0.7822 -0.1330
 7338TIP3   OH221977   0.119   0.356   2.839 -0.0097 -0.0388 -0.0658
 7338TIP3    H121978   0.052   0.386   2.900  0.3187 -0.9160  0.7329
 7338TIP3    H221979   0.075   0.356   2.754 -0.7946  0.1392  0.3322
 7339TIP3   OH221980   4.576   4.276   1.654  0.1160 -0.2553 -0.0576
 7339TIP3    H121981   4.525   4.195   1.655 -0.0382 -0.1598  0.7917
 7339TIP3    H221982   4.589   4.295   1.562 -1.2243 -0.3888 -0.2935
 7340TIP3   OH221983   4.053   4.756   0.654 -0.1145 -0.1907 -0.0711
 7340TIP3    H121984   4.148   4.756   0.666 -0.2848  0.4026  1.6383
 7340TIP3    H221985   4.037   4.689   0.588  1.5386  0.1832 -0.9073
 7341TIP3   OH221986   5.057   6.008   0.965  0.2400 -0.0452  0.2158
 7341TIP3    H121987   5.003   5.941   0.925 -0.0933  0.0700  0.4702
 7341TIP3    H221988   5.147   5.975   0.956  0.3708  0.7783 -2.2035
 7342TIP3   OH221989   2.606   0.911   4.583 -0.6324 -0.1218 -0.0535
 7342TIP3    H121990   2.691   0.920   4.540 -0.0533  0.0092  1.0667
 7342TIP3    H221991   2.625   0.857   4.660 -1.1894  1.4261  1.2080
 7343TIP3   OH221992   4.468   1.059   0.669  0.0111  0.0454 -0.4025
 7343TIP3    H121993   4.484   1.132   0.609  0.9004 -0.4460 -0.7844
 7343TIP3    H221994   4.522   0.988   0.635 -0.0018 -0.4569  0.5943
 7344TIP3   OH221995   4.044   0.623   3.461  0.6924  0.1510  0.3829
 7344TIP3    H121996   4.079   0.695   3.514 -0.8955  1.4042 -0.1793
 7344TIP3    H221997   3.952   0.619   3.484  0.7484 -1.7913  0.4226
 7345TIP3   OH221998   1.918   0.464   1.595 -0.1204 -0.7054 -0.0814
 7345TIP3    H121999   1.912   0.398   1.526  0.3825  1.3668 -2.2346
 7345TIP3    H222000   2.001   0.509   1.579 -1.2137  1.5726  0.1710
 7346TIP3   OH222001   1.240   6.556   1.614 -0.1069 -0.1008 -0.3622
 7346TIP3    H122002   1.220   6.606   1.693 -0.4436 -2.0033  0.8283
 7346TIP3    H222003   1.312   6.604   1.573 -0.7670  1.6267  0.4050
 7347TIP3   OH222004   7.209   0.406   2.609 -0.2105  0.8532 -0.3079
 7347TIP3    H122005   7.116   0.397   2.628 -0.3030  0.3906 -0.9586
 7347TIP3    H222006   7.220   0.497   2.584 -0.9652  0.3322 -2.7224
 7348TIP3   OH222007   6.509   5.051   3.353  0.2152 -0.1900  0.2880
 7348TIP3    H122008   6.500   5.138   3.392  2.0780 -0.1232  0.6291
 7348TIP3    H222009   6.598   5.024   3.375  0.3417 -1.3529 -1.5155
 7349TIP3   OH222010   5.541   5.049   5.548 -0.1088  0.1663 -0.2705
 7349TIP3    H122011   5.601   5.121   5.569 -2.0337  2.1243 -1.0627
 7349TIP3    H222012   5.560   5.028   5.456 -0.2558  0.4113 -0.3577
 7350TIP3   OH222013   3.455   6.682   4.649  0.5241 -0.0468 -0.5979
 7350TIP3    H122014   3.433   6.680   4.556  1.3542 -1.3888 -0.7898
 7350TIP3    H222015   3.543   6.720   4.653  0.3769  0.2713 -0.3336
 7351TIP3   OH222016   0.770   1.485   1.133  0.2692 -0.1964 -0.1021
 7351TIP3    H122017   0.772   1.568   1.087  3.4718  0.7099  1.3933
 7351TIP3    H222018   0.742   1.507   1.222  2.1213 -0.4426  0.5957
 7352TIP3   OH222019   1.552   2.740   3.307  0.3954  0.1270  0.0854
 7352TIP3    H122020   1.457   2.737   3.320  0.5601  0.9985  1.7838
 7352TIP3    H222021   1.588   2.708   3.390  1.5993 -0.9009 -0.8017
 7353TIP3   OH222022   4.277   1.314   4.405 -0.1497  0.4781 -0.1259
 7353TIP3    H122023   4.363   1.323   4.445  0.3178 -0.0980 -0.9927
 7353TIP3    H222024   4.277   1.377   4.333  0.2517 -0.8548 -1.3106
 7354TIP3   OH222025   1.865   4.789   2.070 -0.2890 -0.1857 -0.2093
 7354TIP3    H122026   1.836   4.788   1.979 -0.2273 -0.5605 -0.2263
 7354TIP3    H222027   1.931   4.858   2.073 -2.1710  1.7007  0.1490
 7355TIP3   OH222028   2.086   4.581   1.392 -0.7892  0.0881 -0.6813
 7355TIP3    H122029   2.022   4.651   1.400 -1.2872 -0.5057  0.8802
 7355TIP3    H222030   2.043   4.514   1.339 -1.6013 -0.4087  0.5536
 7356TIP3   OH222031   2.266   1.957   3.973 -0.1214 -0.0409 -0.4633
 7356TIP3    H122032   2.270   2.050   3.995  0.1905 -0.5957  2.0505
 7356TIP3    H222033   2.174   1.934   3.982  0.3079 -0.8490  3.3025
 7357TIP3   OH222034   1.956   0.042   1.980  0.6963  0.2082  0.0402
 7357TIP3    H122035   1.887   0.036   2.045  1.0094 -0.0857  0.3469
 7357TIP3    H222036   2.029   0.085   2.025  0.7467  0.4365 -0.2534
 7358TIP3   OH222037   6.135   6.083   3.868 -0.0245  0.1428 -0.3952
 7358TIP3    H122038   6.088   6.149   3.818  1.1177  1.1694 -0.1638
 7358TIP3    H222039   6.220   6.123   3.887  0.1506 -0.8223  1.0188
 7359TIP3   OH222040   4.816   2.100   1.793 -0.1089 -0.4106  0.1698
 7359TIP3    H122041   4.790   2.008   1.801  0.1624 -0.4561  0.5486
 7359TIP3    H222042   4.876   2.102   1.719 -1.2493 -0.2889 -0.7870
 7360TIP3   OH222043   5.524   1.202   5.109 -0.2702  0.2753  0.2444
 7360TIP3    H122044   5.538   1.251   5.028 -0.1469 -1.6731 -0.9655
 7360TIP3    H222045   5.429   1.197   5.117 -0.3485 -1.6022 -1.1665
 7361TIP3   OH222046   6.091   1.142   1.052 -0.3081  0.6166  0.0796
 7361TIP3    H122047   6.012   1.099   1.019 -0.7934  0.7186  1.0524
 7361TIP3    H222048   6.163   1.101   1.004 -0.9248  0.2574 -0.5568
 7362TIP3   OH222049   5.809   3.440   4.437 -0.2858 -0.1403  0.4409
 7362TIP3    H122050   5.888   3.493   4.437 -0.3525  0.0154  2.0293
 7362TIP3    H222051   5.837   3.356   4.473 -0.9744  0.1816  1.7969
 7363TIP3   OH222052   3.659   2.245   1.768  0.5532  0.5007 -0.5157
 7363TIP3    H122053   3.711   2.252   1.688  0.9417 -1.3688 -0.4759
 7363TIP3    H222054   3.583   2.193   1.742  1.3138 -1.2659  0.5561
 7364TIP3   OH222055   2.491   0.911   0.102 -0.0483  0.1051  0.5431
 7364TIP3    H122056   2.571   0.883   0.057  0.5041  1.0800  0.8811
 7364TIP3    H222057   2.437   0.949   0.033 -0.4494 -0.9965  0.2266
 7365TIP3   OH222058   2.890   1.620   2.044  0.3487  0.0118  0.1510
 7365TIP3    H122059   2.834   1.542   2.043 -2.3066  1.8154 -0.2355
 7365TIP3    H222060   2.852   1.676   2.112  1.1568  1.6830 -0.7300
 7366TIP3   OH222061   6.708   4.361   5.023  0.5299  0.1697 -0.5332
 7366TIP3    H122062   6.801   4.366   5.003  0.9435 -1.3664  0.8534
 7366TIP3    H222063   6.678   4.281   4.980  0.5406 -0.9532  1.4559
 7367TIP3   OH222064   1.660   5.197   4.257 -0.3478  0.1673 -0.0470
 7367TIP3    H122065   1.581   5.142   4.248 -0.1417  0.0742 -1.7081
 7367TIP3    H222066   1.654   5.234   4.345 -2.0952 -0.0776 -0.0251
 7368TIP3   OH222067   4.151   4.635   3.111 -0.5154  0.1085 -0.0825
 7368TIP3    H122068   4.167   4.646   3.205  0.8430  1.6884 -0.4543
 7368TIP3    H222069   4.105   4.714   3.085 -1.5172 -0.6386 -0.6343
 7369TIP3   OH222070   0.850   0.670   2.056 -0.4377 -0.0466  0.5645
 7369TIP3    H122071   0.926   0.667   1.998  0.8114 -1.2512  2.1693
 7369TIP3    H222072   0.813   0.582   2.050 -0.4022 -0.1239  1.4361
 7370TIP3   OH222073   5.908   4.776   0.191  0.6743 -0.6015 -0.3959
 7370TIP3    H122074   5.833   4.784   0.132 -0.2700  0.0357  0.8331
 7370TIP3    H222075   5.954   4.698   0.161  0.6496  0.0954 -2.4021
 7371TIP3   OH222076   3.736   4.502   3.710 -0.9694  0.2374  0.0183
 7371TIP3    H122077   3.641   4.512   3.704 -0.9205  0.6623 -0.0732
 7371TIP3    H222078   3.757   4.529   3.800 -1.0713 -0.9887  0.4220
 7372TIP3   OH222079   4.567   2.064   1.128  0.3367  0.0709  0.4951
 7372TIP3    H122080   4.578   2.119   1.050 -0.0379 -0.6913 -0.1093
 7372TIP3    H222081   4.486   2.096   1.167 -1.7600 -2.1137 -1.6796
 7373TIP3   OH222082   1.074   5.965   4.458 -0.0646  0.2659 -0.6722
 7373TIP3    H122083   1.004   6.030   4.450  0.0092  0.3404 -0.7087
 7373TIP3    H222084   1.155   6.014   4.446 -0.0395  0.0278 -1.5905
 7374TIP3   OH222085   6.360   0.510   4.975 -0.5834 -0.3806  0.4473
 7374TIP3    H122086   6.393   0.600   4.976 -1.8710  0.1045  1.2167
 7374TIP3    H222087   6.277   0.514   5.021 -0.7089 -1.9648  0.4224
 7375TIP3   OH222088   0.586   1.526   3.839 -0.1844 -0.0428 -0.6324
 7375TIP3    H122089   0.600   1.446   3.889  0.6301 -0.4677 -1.5147
 7375TIP3    H222090   0.558   1.496   3.752 -0.8308  0.6595 -0.6753
 7376TIP3   OH222091   1.315   0.039   1.464  0.2904  0.1581  0.0182
 7376TIP3    H122092   1.259   0.076   1.532  0.2696 -0.2468  0.2208
 7376TIP3    H222093   1.397   0.088   1.472  0.8437 -0.9187  1.3651
 7377TIP3   OH222094   1.876   4.513   5.430  0.4151 -0.2937 -0.4881
 7377TIP3    H122095   1.846   4.432   5.389 -1.4019  0.1616 -0.1845
 7377TIP3    H222096   1.836   4.582   5.377 -0.1597  0.3306  0.7278
 7378TIP3   OH222097   3.447   2.491   2.266 -0.0517 -0.4856 -0.3361
 7378TIP3    H122098   3.385   2.435   2.311 -1.4540 -0.3433 -1.9554
 7378TIP3    H222099   3.464   2.447   2.182 -1.0736  1.3432 -1.5841
 7379TIP3   OH222100   0.157   6.146   4.399 -0.0420  0.5396  0.1199
 7379TIP3    H122101   0.205   6.221   4.434  0.4290  0.5983 -0.6338
 7379TIP3    H222102   0.189   6.071   4.449  1.8591  0.3637 -1.2466
 7380TIP3   OH222103   2.835   4.106   1.142  0.0920 -0.6693  0.8437
 7380TIP3    H122104   2.839   4.086   1.049 -2.4742  2.5323 -0.1615
 7380TIP3    H222105   2.789   4.032   1.181 -1.0006 -0.9792 -0.9332
 7381TIP3   OH222106   3.404   3.762   1.911 -1.0023  0.1580  0.2255
 7381TIP3    H122107   3.350   3.683   1.910  0.1760 -0.6822 -1.0013
 7381TIP3    H222108   3.482   3.738   1.861 -0.4245  1.9798  0.1823
 7382TIP3   OH222109   0.841   4.217   3.209  0.1722  0.9567 -0.0469
 7382TIP3    H122110   0.762   4.174   3.175  0.3935  0.7943 -0.3631
 7382TIP3    H222111   0.857   4.175   3.293  0.2620  0.5689 -0.2537
 7383TIP3   OH222112   2.347   1.802   3.408  0.7447  0.2035 -0.0984
 7383TIP3    H122113   2.410   1.769   3.344  0.4324  1.2524 -0.9916
 7383TIP3    H222114   2.315   1.884   3.370 -1.5421 -0.5418  0.0667
 7384TIP3   OH222115   0.951   4.218   3.957  0.0467  0.1221  0.0067
 7384TIP3    H122116   0.973   4.293   3.901  0.2659 -0.4211 -0.6445
 7384TIP3    H222117   0.884   4.252   4.017  0.3145  0.9039 -0.1142
 7385TIP3   OH222118   3.836   2.041   5.122 -0.5997  0.5109 -0.1520
 7385TIP3    H122119   3.826   2.026   5.216  1.1703 -1.2556 -0.1834
 7385TIP3    H222120   3.758   2.002   5.082  0.4065 -2.2626  0.3673
 7386TIP3   OH222121   2.595   0.148   1.654  0.0104  0.8425  0.1600
 7386TIP3    H122122   2.504   0.130   1.676 -0.0326 -0.2688 -0.8284
 7386TIP3    H222123   2.645   0.087   1.707  0.0633  0.1743 -0.6392
 7387TIP3   OH222124   4.004   0.190   0.971 -0.0120  0.1410 -0.1371
 7387TIP3    H122125   4.029   0.157   0.885  0.3845  0.2880 -0.0769
 7387TIP3    H222126   3.940   0.126   1.003  0.7078 -0.5341 -0.0430
 7388TIP3   OH222127   1.031   2.987   0.467 -0.0889 -0.0076 -0.4307
 7388TIP3    H122128   1.005   3.040   0.541  2.2027  1.1010 -0.3264
 7388TIP3    H222129   1.051   3.050   0.398 -0.4687 -0.9314 -1.4139
 7389TIP3   OH222130   4.187   5.707   0.638  0.1864  0.1115  0.0248
 7389TIP3    H122131   4.213   5.672   0.552  1.4979  0.5496  0.2108
 7389TIP3    H222132   4.175   5.629   0.693  0.0864 -0.1490 -0.3596
 7390TIP3   OH222133   5.190   1.446   5.678  0.0769  0.6019  0.7197
 7390TIP3    H122134   5.207   1.356   5.707 -2.6527  0.3718  1.8268
 7390TIP3    H222135   5.110   1.472   5.724  0.0612  3.1530 -0.5810
 7391TIP3   OH222136   0.386   0.186   3.140 -0.5589  0.2478 -0.8647
 7391TIP3    H122137   0.352   0.276   3.141  0.2329  0.5702 -1.8871
 7391TIP3    H222138   0.368   0.153   3.228 -1.9960  0.9703 -0.8507
 7392TIP3   OH222139   5.625   1.143   3.442  0.2499  0.3117  0.9758
 7392TIP3    H122140   5.599   1.209   3.507  0.5116  0.9373  0.4556
 7392TIP3    H222141   5.636   1.192   3.361  0.9706 -0.2857  0.6994
 7393TIP3   OH222142   1.577   0.522   0.250  0.3514 -0.1381 -0.1312
 7393TIP3    H122143   1.549   0.463   0.179  1.5919  1.6729 -2.2531
 7393TIP3    H222144   1.606   0.601   0.205  3.5353  0.2250  2.2476
 7394TIP3   OH222145   1.304   1.597   2.137  0.4392 -0.4541  0.4183
 7394TIP3    H122146   1.335   1.616   2.049  2.5806 -0.3509  1.1571
 7394TIP3    H222147   1.235   1.662   2.153  1.0775  0.4964 -0.6230
 7395TIP3   OH222148   6.948   4.585   3.392 -0.9087 -0.4131 -0.3849
 7395TIP3    H122149   6.942   4.529   3.315 -0.3957  0.8804 -1.3923
 7395TIP3    H222150   7.035   4.625   3.386  0.0477 -1.9019  2.0242
 7396TIP3   OH222151   0.334   6.397   0.349 -0.0211  0.3807 -0.0929
 7396TIP3    H122152   0.423   6.366   0.328 -0.8214 -1.4837 -1.0234
 7396TIP3    H222153   0.332   6.403   0.444  1.0293  0.2070 -0.0482
 7397TIP3   OH222154   4.971   5.377   4.117  0.0769  0.6607 -0.0423
 7397TIP3    H122155   4.913   5.352   4.046  0.7300 -1.8032  0.2020
 7397TIP3    H222156   4.935   5.459   4.150 -0.7384  1.4186 -2.6085
 7398TIP3   OH222157   4.737   2.582   0.161 -0.4723  0.0209  0.6226
 7398TIP3    H122158   4.831   2.577   0.178 -0.6157 -2.1368  1.0917
 7398TIP3    H222159   4.696   2.549   0.241 -1.5951 -0.0429  0.0479
 7399TIP3   OH222160   2.748   0.718   0.616  0.4448  0.1703 -0.1929
 7399TIP3    H122161   2.761   0.676   0.531 -0.3473 -1.3464  0.3859
 7399TIP3    H222162   2.658   0.694   0.641  0.7553  0.3625  1.1761
 7400TIP3   OH222163   0.947   6.313   5.604  1.4412  0.5266  0.2034
 7400TIP3    H122164   0.944   6.401   5.643  0.6128  0.4712  0.2993
 7400TIP3    H222165   1.030   6.310   5.557  1.9278  1.0143  0.9989
 7401TIP3   OH222166   2.764   1.002   4.220  0.9066  0.4560  0.0291
 7401TIP3    H122167   2.825   1.075   4.218  1.3760  0.0519 -1.0342
 7401TIP3    H222168   2.681   1.040   4.250  1.5353  1.0964  1.0307
 7402TIP3   OH222169   3.270   0.484   3.771  0.0999  0.4050 -0.4005
 7402TIP3    H122170   3.351   0.464   3.819 -0.0280  1.2848  0.2034
 7402TIP3    H222171   3.295   0.477   3.679  1.0351  1.2843 -0.2353
 7403TIP3   OH222172   6.033   6.755   4.806 -0.1099 -0.1893  0.3338
 7403TIP3    H122173   5.973   6.824   4.776 -0.5426 -1.1510 -1.1541
 7403TIP3    H222174   6.094   6.799   4.865 -0.8830  1.2864  0.0677
 7404TIP3   OH222175   6.396   6.232   4.563 -0.3553  0.6069  0.3609
 7404TIP3    H122176   6.328   6.214   4.499  0.4966 -1.9173  0.0500
 7404TIP3    H222177   6.474   6.253   4.510  0.4467 -1.8396  0.4631
 7405TIP3   OH222178   6.248   1.845   5.094 -0.1830 -0.2191 -0.0246
 7405TIP3    H122179   6.162   1.874   5.063  0.4718  0.1249 -1.6113
 7405TIP3    H222180   6.278   1.783   5.027  1.8242  1.4933 -0.8177
 7406TIP3   OH222181   3.053   3.974   3.650  0.7241  0.2220  0.0917
 7406TIP3    H122182   2.988   3.927   3.701 -1.0494  1.5319 -0.8748
 7406TIP3    H222183   3.003   4.019   3.582  2.7437  0.4231 -1.3704
 7407TIP3   OH222184   0.815   2.125   3.693  0.1155  0.4666  0.0061
 7407TIP3    H122185   0.867   2.205   3.688  0.0698  0.5122  0.2836
 7407TIP3    H222186   0.858   2.065   3.632  0.3456  0.5913  0.0459
 7408TIP3   OH222187   4.643   1.507   4.347 -0.1417 -0.9228  0.0915
 7408TIP3    H122188   4.612   1.463   4.268 -1.1516 -0.4080  0.1793
 7408TIP3    H222189   4.717   1.560   4.319 -0.8191 -0.3277 -0.6349
 7409TIP3   OH222190   1.114   3.971   2.954  0.3362  0.2370 -0.5881
 7409TIP3    H122191   1.056   3.964   2.879 -0.7106  0.2979  0.1940
 7409TIP3    H222192   1.187   3.913   2.934 -0.4652 -0.5887 -1.1693
 7410TIP3   OH222193   0.794   4.157   3.738  0.0430 -0.5803 -0.4917
 7410TIP3    H122194   0.846   4.153   3.818 -0.7180 -1.7951 -0.0365
 7410TIP3    H222195   0.721   4.096   3.753 -0.7387  0.0244 -1.6608
 7411TIP3   OH222196   3.283   1.901   3.209  0.0733  0.6918  0.0714
 7411TIP3    H122197   3.315   1.981   3.168  1.7668 -0.1484 -0.3677
 7411TIP3    H222198   3.362   1.856   3.239 -0.7829 -0.9990 -0.0595
 7412TIP3   OH222199   6.574   1.952   3.291 -0.2160 -0.3927  0.1217
 7412TIP3    H122200   6.550   1.925   3.202  1.7598  0.2980 -0.6851
 7412TIP3    H222201   6.592   1.870   3.336 -0.8712 -0.7318 -0.2105
 7413TIP3   OH222202   4.357   6.823   1.832  0.4644  0.2665  0.2677
 7413TIP3    H122203   4.353   6.728   1.843 -0.6555  0.5638  3.3670
 7413TIP3    H222204   4.431   6.837   1.773  0.2726 -2.5289 -0.7927
 7414TIP3   OH222205   2.883   0.927   3.435  0.1914  0.5043 -0.3893
 7414TIP3    H122206   2.902   0.898   3.346  3.4791 -1.1648  0.7059
 7414TIP3    H222207   2.813   0.869   3.465  0.5308 -0.3449 -1.1986
 7415TIP3   OH222208   3.324   1.736   4.855 -0.3436  0.1668 -0.0656
 7415TIP3    H122209   3.336   1.656   4.907  0.3554  0.2785 -0.0502
 7415TIP3    H222210   3.268   1.791   4.909 -0.0201  0.0829  0.3584
 7416TIP3   OH222211   6.231   4.794   0.169 -0.3249  0.2422  0.2705
 7416TIP3    H122212   6.155   4.737   0.157 -1.1059  1.0689  1.1810
 7416TIP3    H222213   6.283   4.752   0.237 -0.5215  0.2477  0.4223
 7417TIP3   OH222214   3.360   3.950   0.776 -0.3549 -0.4303 -0.3126
 7417TIP3    H122215   3.430   3.888   0.800 -0.1279  0.4161  1.3905
 7417TIP3    H222216   3.286   3.894   0.753  0.7151 -1.3426 -1.6899
 7418TIP3   OH222217   2.183   0.428   4.860  0.2494  0.0189  0.7371
 7418TIP3    H122218   2.148   0.465   4.780 -0.3359 -0.5466  0.7249
 7418TIP3    H222219   2.114   0.370   4.892  0.9732 -0.7231  0.9825
 7419TIP3   OH222220   6.955   1.230   3.621  0.5104 -0.7281 -0.2077
 7419TIP3    H122221   6.933   1.223   3.714 -0.4098 -0.0839 -0.3646
 7419TIP3    H222222   7.012   1.155   3.605 -0.1166 -1.4204  0.6530
 7420TIP3   OH222223   2.690   0.036   2.278 -0.0926 -0.6903 -0.2157
 7420TIP3    H122224   2.620   0.036   2.213  0.3378  0.8285 -0.7059
 7420TIP3    H222225   2.645   0.020   2.361 -0.5945 -3.2362 -0.8679
 7421TIP3   OH222226   1.542   2.133   0.600  0.4120  0.1258 -0.4692
 7421TIP3    H122227   1.534   2.070   0.528 -2.7603 -0.1436 -0.0363
 7421TIP3    H222228   1.514   2.216   0.562 -1.5910 -0.0818  0.4396
 7422TIP3   OH222229   3.208   5.361   5.021 -0.1905  0.2177  0.1422
 7422TIP3    H122230   3.210   5.456   5.030 -2.7897  0.5966 -1.9620
 7422TIP3    H222231   3.162   5.330   5.100  0.4489  0.7150  0.7136
 7423TIP3   OH222232   0.349   3.854   2.311  0.4511  0.0666  0.2438
 7423TIP3    H122233   0.420   3.892   2.261  2.1252 -2.0380  0.8415
 7423TIP3    H222234   0.356   3.760   2.295 -1.6200 -0.2922  1.0931
 7424TIP3   OH222235   0.578   5.463   1.012  0.4041 -0.3699 -0.2931
 7424TIP3    H122236   0.496   5.447   1.058  1.6725 -1.7967  1.6538
 7424TIP3    H222237   0.623   5.528   1.066  0.7566  0.0570 -1.0817
 7425TIP3   OH222238   1.557   2.378   3.055 -0.3984 -0.1987 -0.8018
 7425TIP3    H122239   1.491   2.435   3.093  0.0525 -0.5282  0.5265
 7425TIP3    H222240   1.606   2.344   3.130 -1.4057 -3.2706 -1.3974
 7426TIP3   OH222241   5.217   4.034   3.612  0.4716  0.4465  0.0475
 7426TIP3    H122242   5.146   4.091   3.583 -0.5053 -0.7381  0.0231
 7426TIP3    H222243   5.200   3.950   3.569  1.9295  0.1496  0.0025
 7427TIP3   OH222244   3.977   0.498   3.153  0.1169 -0.3154  0.0919
 7427TIP3    H122245   4.002   0.496   3.061 -0.4167 -0.1901 -0.0545
 7427TIP3    H222246   4.060   0.512   3.199  0.1645  1.5339 -0.4701
 7428TIP3   OH222247   1.477   6.753   4.493  0.4332  0.0650  0.8557
 7428TIP3    H122248   1.382   6.761   4.496  0.2223 -1.9422  0.9908
 7428TIP3    H222249   1.498   6.693   4.565  1.5754 -1.0517 -0.3489
 7429TIP3   OH222250   5.337   5.259   3.078 -0.4156  0.0339  0.0144
 7429TIP3    H122251   5.394   5.312   3.022  0.2163 -0.6626 -0.0209
 7429TIP3    H222252   5.319   5.316   3.153  0.2932  0.2899  0.0042
 7430TIP3   OH222253   2.238   6.419   1.092  0.8578 -0.2689 -0.5386
 7430TIP3    H122254   2.310   6.481   1.078  0.9315 -0.5897 -1.6985
 7430TIP3    H222255   2.164   6.458   1.045  0.6921 -0.6743 -0.6124
 7431TIP3   OH222256   6.040   6.109   5.660 -0.2086 -0.4444 -0.0291
 7431TIP3    H122257   6.026   6.080   5.750 -0.7510  0.0753  0.0629
 7431TIP3    H222258   6.087   6.037   5.618  0.4889 -0.4842  0.8030
 7432TIP3   OH222259   7.100   5.841   4.526  0.6818  0.0284 -0.3827
 7432TIP3    H122260   7.162   5.896   4.575  3.3507 -1.5819 -1.6928
 7432TIP3    H222261   7.113   5.753   4.561 -2.3990 -0.1493  0.6249
 7433TIP3   OH222262   6.039   3.107   1.549 -0.0075 -0.5755  0.4057
 7433TIP3    H122263   6.021   3.018   1.581  0.2830 -0.1961  1.6888
 7433TIP3    H222264   5.996   3.111   1.464  0.0207 -1.9671  0.3025
 7434TIP3   OH222265   6.524   5.962   2.695  0.7652 -0.4830 -0.3412
 7434TIP3    H122266   6.499   6.050   2.664 -1.0043 -0.2868  1.4586
 7434TIP3    H222267   6.500   5.904   2.623  0.3577  0.3396 -0.8911
 7435TIP3   OH222268   6.351   4.118   5.240 -0.1731 -0.2980 -0.2630
 7435TIP3    H122269   6.385   4.177   5.173 -0.0439 -3.1663 -2.9370
 7435TIP3    H222270   6.256   4.121   5.229 -0.7558  3.0662  3.1315
 7436TIP3   OH222271   2.737   3.806   1.535  0.6836 -0.1328 -0.1367
 7436TIP3    H122272   2.801   3.746   1.496 -2.3606 -2.3193 -2.1733
 7436TIP3    H222273   2.715   3.765   1.619  0.0209 -0.8478 -0.6520
 7437TIP3   OH222274   4.190   3.718   1.473 -0.3592 -0.3910  0.1294
 7437TIP3    H122275   4.101   3.683   1.462 -0.8842  1.6906 -5.4059
 7437TIP3    H222276   4.177   3.812   1.480  1.3844 -0.1410  0.2270
 7438TIP3   OH222277   3.681   2.261   4.519  0.1433  0.4370  0.0263
 7438TIP3    H122278   3.613   2.313   4.476  0.5524  0.5174 -0.5436
 7438TIP3    H222279   3.762   2.309   4.503  0.4881 -0.2278 -0.2705
 7439TIP3   OH222280   5.296   3.497   3.308 -0.0610 -0.3558  0.4994
 7439TIP3    H122281   5.251   3.557   3.368 -0.9852 -0.6873  0.1455
 7439TIP3    H222282   5.388   3.501   3.336 -0.4560 -0.4451  1.8775
 7440TIP3   OH222283   2.751   6.547   3.197  0.2601  0.4264 -0.0302
 7440TIP3    H122284   2.689   6.484   3.161  0.4725 -0.1331  0.5808
 7440TIP3    H222285   2.836   6.519   3.164  0.1139  1.8289 -1.7877
 7441TIP3   OH222286   2.891   4.983   0.058 -0.0955 -0.5342  0.6851
 7441TIP3    H122287   2.961   4.924   0.088 -0.1831 -0.7013  0.5676
 7441TIP3    H222288   2.870   4.952  -0.030  0.6087  0.3594  0.1941
 7442TIP3   OH222289   4.414   3.960   3.557  0.4447 -0.2470  0.0156
 7442TIP3    H122290   4.379   3.871   3.558 -0.1160 -0.0229  1.0825
 7442TIP3    H222291   4.373   4.000   3.480 -0.3631 -0.4938  0.3086
 7443TIP3   OH222292   3.306   2.130   4.092 -0.1333  0.8318  0.1308
 7443TIP3    H122293   3.307   2.221   4.121  0.1429  0.5387  1.0662
 7443TIP3    H222294   3.221   2.095   4.122  0.1669  0.5180  0.6276
 7444TIP3   OH222295   4.269   4.541   4.162 -0.0037  0.0038  0.1351
 7444TIP3    H122296   4.301   4.505   4.079 -1.9056  0.2430 -0.7574
 7444TIP3    H222297   4.328   4.614   4.181  0.2191  0.2087 -1.2323
 7445TIP3   OH222298   1.623   2.419   1.143  0.2787 -0.0016  0.4396
 7445TIP3    H122299   1.622   2.416   1.048 -0.7597 -1.8352  0.4715
 7445TIP3    H222300   1.691   2.484   1.164 -0.5474  1.6147 -1.5240
 7446TIP3   OH222301   6.371   1.702   3.918 -0.1154  0.4082  0.4224
 7446TIP3    H122302   6.388   1.642   3.845  0.3487  1.9673 -0.8111
 7446TIP3    H222303   6.276   1.702   3.929 -0.1437 -0.2651  0.2033
 7447TIP3   OH222304   1.382   6.650   5.608 -0.6117 -0.3992 -0.0524
 7447TIP3    H122305   1.431   6.568   5.614 -0.9445 -0.5437  1.1378
 7447TIP3    H222306   1.304   6.628   5.557 -0.8729 -0.9280  0.5599
 7448TIP3   OH222307   1.568   6.740   2.997 -0.0074  0.4231 -0.0074
 7448TIP3    H122308   1.518   6.699   3.068  0.6312 -0.2922  0.0436
 7448TIP3    H222309   1.502   6.787   2.945 -0.3059  2.3749  1.9812
 7449TIP3   OH222310   0.558   4.816   5.297  0.0712  0.2436 -0.4253
 7449TIP3    H122311   0.604   4.897   5.276 -1.0656  1.3141  0.9641
 7449TIP3    H222312   0.597   4.786   5.379  1.3435 -1.3588 -1.5515
 7450TIP3   OH222313   0.387   5.562   3.502 -0.3193  0.3655 -0.2694
 7450TIP3    H122314   0.399   5.623   3.429  0.5480 -0.8547 -1.1835
 7450TIP3    H222315   0.292   5.553   3.511 -0.4338  0.4414 -1.3309
 7451TIP3   OH222316   2.153   2.814   5.146  0.1360 -0.4654  0.0101
 7451TIP3    H122317   2.240   2.779   5.125 -0.1779 -0.9070 -0.5515
 7451TIP3    H222318   2.161   2.908   5.129  0.7992 -0.3304  0.9387
 7452TIP3   OH222319   5.941   0.944   3.642  0.8104  0.3342 -0.5148
 7452TIP3    H122320   5.951   0.935   3.548 -1.4149  0.7176 -0.8302
 7452TIP3    H222321   5.938   0.855   3.676  2.3347  0.1913 -0.6683
 7453TIP3   OH222322   6.915   0.319   0.615  0.2688  0.2425 -0.5882
 7453TIP3    H122323   6.918   0.369   0.697 -0.2012  0.6022 -0.7841
 7453TIP3    H222324   6.991   0.261   0.619  0.7805  0.9231 -0.3226
 7454TIP3   OH222325   0.883   4.039   5.547 -0.3789 -0.1680  0.3880
 7454TIP3    H122326   0.939   3.995   5.483 -0.6232 -0.0478  0.0876
 7454TIP3    H222327   0.906   3.999   5.631 -0.9612 -1.2452  0.0605
 7455TIP3   OH222328   4.392   1.223   5.703 -0.2130 -0.0490 -0.0837
 7455TIP3    H122329   4.466   1.257   5.653 -0.4188  1.0617  0.3177
 7455TIP3    H222330   4.380   1.134   5.672  0.1573  0.3484 -1.4405
 7456TIP3   OH222331   4.139   5.992   0.603 -0.2769 -0.2768  0.4872
 7456TIP3    H122332   4.211   6.054   0.614  0.0548 -0.0390 -2.3604
 7456TIP3    H222333   4.178   5.906   0.619  0.7594 -0.1756 -1.2830
 7457TIP3   OH222334   6.148   2.928   3.542  0.8182  0.0472 -0.3169
 7457TIP3    H122335   6.083   2.978   3.591 -0.8656 -0.9544 -1.4283
 7457TIP3    H222336   6.113   2.840   3.537  1.9777 -0.3909 -1.4492
 7458TIP3   OH222337   2.378   2.227   4.129 -0.3507  0.0475 -0.2915
 7458TIP3    H122338   2.349   2.275   4.052 -0.9723 -1.6747 -1.1985
 7458TIP3    H222339   2.467   2.197   4.107 -0.1595  0.3419  0.0603
 7459TIP3   OH222340   1.792   3.081   1.410 -0.3560  0.8664  0.1487
 7459TIP3    H122341   1.811   3.002   1.460 -2.5825  0.3097  0.2028
 7459TIP3    H222342   1.782   3.051   1.319 -0.0045  1.2897 -0.0377
 7460TIP3   OH222343   2.749   0.164   3.335 -0.1891 -0.4166  0.7494
 7460TIP3    H122344   2.770   0.244   3.288 -1.6474  0.6039  1.7262
 7460TIP3    H222345   2.818   0.156   3.401  0.9846 -1.0059 -0.5097
 7461TIP3   OH222346   4.853   6.536   2.759 -0.7479 -0.1954 -0.1757
 7461TIP3    H122347   4.924   6.600   2.762 -0.9028 -0.0243  1.9956
 7461TIP3    H222348   4.790   6.572   2.697 -1.1884  2.2153  1.5333
 7462TIP3   OH222349   1.872   6.566   0.224 -0.5356  0.0697  0.0858
 7462TIP3    H122350   1.796   6.547   0.279 -0.6291 -1.5369 -0.5297
 7462TIP3    H222351   1.840   6.560   0.135  0.3229 -0.7686 -0.1861
 7463TIP3   OH222352   1.979   2.918   3.720  0.3669 -0.0458 -0.2215
 7463TIP3    H122353   1.914   2.975   3.761  2.9259  1.0878  2.6673
 7463TIP3    H222354   2.062   2.967   3.727  1.8806 -2.1556 -2.0067
 7464TIP3   OH222355   0.246   0.052   1.630 -0.4885 -0.3979 -0.3047
 7464TIP3    H122356   0.299   0.103   1.569  0.7094 -0.7588  0.4029
 7464TIP3    H222357   0.156   0.082   1.614  0.1470  1.9339  0.0346
 7465TIP3   OH222358   5.616   4.975   4.297 -0.4814 -0.2621  0.0924
 7465TIP3    H122359   5.591   5.064   4.276  0.0308  0.1834  1.2556
 7465TIP3    H222360   5.621   4.930   4.213  0.6400  1.1690 -0.6494
 7466TIP3   OH222361   1.005   5.299   4.450  0.4829 -0.2306  0.0926
 7466TIP3    H122362   0.996   5.205   4.436  0.4192 -0.5870  2.1878
 7466TIP3    H222363   0.915   5.332   4.453  0.4427 -0.4187  1.1473
 7467TIP3   OH222364   6.959   0.023   2.480  0.1483 -0.2872  0.0388
 7467TIP3    H122365   6.926   0.018   2.390 -1.8530 -1.8931  0.7784
 7467TIP3    H222366   6.927   0.108   2.512 -2.5307 -1.3330  0.3808
 7468TIP3   OH222367   7.045   5.159   3.871  0.3111 -0.2255 -0.4343
 7468TIP3    H122368   6.997   5.110   3.937 -1.1266 -0.5827 -1.6912
 7468TIP3    H222369   6.994   5.148   3.791  2.4188 -0.5103 -1.8328
 7469TIP3   OH222370   1.293   0.630   3.938  0.5341  0.0016  0.2114
 7469TIP3    H122371   1.369   0.624   3.879  1.1985  2.4681  0.6982
 7469TIP3    H222372   1.318   0.576   4.013  0.9518 -0.7886 -0.4729
 7470TIP3   OH222373   2.192   3.171   0.453  0.3487  0.3135  0.5662
 7470TIP3    H122374   2.189   3.235   0.382  0.0358 -0.6182 -0.2834
 7470TIP3    H222375   2.157   3.218   0.529 -2.8568  0.3392 -0.7401
 7471TIP3   OH222376   1.547   3.964   3.086  0.1734  0.2707  0.3230
 7471TIP3    H122377   1.551   4.058   3.069  1.0325  1.2030  4.6721
 7471TIP3    H222378   1.455   3.947   3.106 -0.0024  0.0851 -0.5683
 7472TIP3   OH222379   3.819   3.048   4.319 -0.1890  0.1314  0.5772
 7472TIP3    H122380   3.734   3.034   4.361  1.0169 -3.0159  2.3542
 7472TIP3    H222381   3.835   2.967   4.271  2.2442  0.1847  1.1766
 7473TIP3   OH222382   1.560   2.997   5.815  0.1725 -0.2391 -0.3549
 7473TIP3    H122383   1.588   2.929   5.878  0.2129  1.2350  1.3036
 7473TIP3    H222384   1.637   3.052   5.804 -0.3225  0.4443 -0.4307
 7474TIP3   OH222385   1.195   4.645   3.455  0.2765  0.3318 -0.3537
 7474TIP3    H122386   1.147   4.564   3.470  1.3859 -0.2260  0.3209
 7474TIP3    H222387   1.158   4.707   3.519  3.0231 -1.2166  3.0469
 7475TIP3   OH222388   2.120   6.765   2.651  0.1792 -0.1819 -0.2173
 7475TIP3    H122389   2.052   6.761   2.584 -1.7981  2.0575  1.4490
 7475TIP3    H222390   2.200   6.785   2.603 -0.9535  0.2769 -2.0031
 7476TIP3   OH222391   4.902   3.426   0.462  0.3010  0.7241  0.0384
 7476TIP3    H122392   4.881   3.446   0.371 -0.8293 -0.8617 -0.1032
 7476TIP3    H222393   4.995   3.406   0.462  0.2792  0.5936 -0.8138
 7477TIP3   OH222394   2.766   2.970   2.540  0.1490 -0.2455 -0.0916
 7477TIP3    H122395   2.820   2.938   2.613 -0.0630 -0.8412 -0.1932
 7477TIP3    H222396   2.809   3.051   2.513 -0.0907  0.3022  1.0748
 7478TIP3   OH222397   7.152   6.785   0.345 -0.4318  0.3246  0.2067
 7478TIP3    H122398   7.095   6.836   0.403 -0.2329  0.7229  0.0583
 7478TIP3    H222399   7.168   6.704   0.393 -1.1642  0.1859  0.2240
 7479TIP3   OH222400   3.412   2.079   1.827 -0.2291  0.0786  0.2243
 7479TIP3    H122401   3.398   2.132   1.749  1.1234  3.1035  1.8369
 7479TIP3    H222402   3.335   2.095   1.882  0.9087  1.8836  1.4117
 7480TIP3   OH222403   3.026   0.876   0.129 -0.1147  0.0883  0.2310
 7480TIP3    H122404   3.109   0.904   0.167 -1.3266  3.9757  0.5327
 7480TIP3    H222405   3.039   0.883   0.035  0.5354 -1.6895  0.1568
 7481TIP3   OH222406   5.355   2.876   5.198  0.2810 -0.0090  0.1061
 7481TIP3    H122407   5.449   2.867   5.184  0.1741 -0.7516 -0.2280
 7481TIP3    H222408   5.318   2.797   5.158 -0.4833  0.2880  0.2139
 7482TIP3   OH222409   1.537   2.733   5.607  0.5037 -0.0442 -0.4601
 7482TIP3    H122410   1.553   2.642   5.583  2.5947  0.2725 -0.4928
 7482TIP3    H222411   1.512   2.728   5.699  1.2314 -0.6357 -0.2753
 7483TIP3   OH222412   5.421   2.180   0.592 -0.0403 -0.4658  0.0682
 7483TIP3    H122413   5.417   2.134   0.508 -0.6866 -0.2361 -0.0338
 7483TIP3    H222414   5.494   2.241   0.583 -0.6849  0.2135 -0.6693
 7484TIP3   OH222415   4.022   0.096   5.370 -0.1617 -0.1988 -0.7111
 7484TIP3    H122416   4.042   0.141   5.287 -1.1636 -1.0711 -1.4431
 7484TIP3    H222417   4.046   0.005   5.354 -0.3940 -0.3774 -0.0435
 7485TIP3   OH222418   4.082   4.950   5.401 -0.0612 -0.6261  0.0303
 7485TIP3    H122419   4.038   4.895   5.336 -2.5191  0.5449  0.5853
 7485TIP3    H222420   4.079   4.899   5.482  0.5129 -0.9538 -0.1515
 7486TIP3   OH222421   6.000   3.358   4.636 -0.3215  0.2434 -0.1551
 7486TIP3    H122422   5.952   3.439   4.656 -0.7388 -0.0138 -0.0971
 7486TIP3    H222423   5.969   3.295   4.701 -1.0631 -0.3609 -1.0680
 7487TIP3   OH222424   1.138   2.402   2.092 -0.0156  0.3403 -0.4358
 7487TIP3    H122425   1.159   2.430   2.181 -0.7555  0.1220 -0.1865
 7487TIP3    H222426   1.223   2.394   2.049  0.4344 -0.7179  0.6007
 7488TIP3   OH222427   1.130   6.018   3.242  0.0069 -0.2032 -0.2253
 7488TIP3    H122428   1.092   5.930   3.242 -0.3990 -0.0339 -0.5939
 7488TIP3    H222429   1.116   6.050   3.153  0.9249 -0.0876 -0.3407
 7489TIP3   OH222430   0.041   2.471   2.489  0.0635 -0.2040  0.3580
 7489TIP3    H122431   0.129   2.473   2.525 -0.5045 -0.6610  1.8202
 7489TIP3    H222432   0.024   2.562   2.462  1.1075 -0.1910 -0.3427
 7490TIP3   OH222433   2.141   3.430   5.168  0.2543 -0.6937 -0.2308
 7490TIP3    H122434   2.130   3.353   5.223  0.6627 -0.5965 -0.0031
 7490TIP3    H222435   2.207   3.404   5.103 -0.8509 -1.0908 -1.2228
 7491TIP3   OH222436   1.147   5.281   3.352  0.6571  0.4428  0.0122
 7491TIP3    H122437   1.079   5.323   3.299  0.0041 -1.0621 -0.4195
 7491TIP3    H222438   1.130   5.311   3.442 -0.7410 -0.0509 -0.0559
 7492TIP3   OH222439   4.958   2.228   3.212  0.1886 -0.0379  0.0471
 7492TIP3    H122440   4.957   2.232   3.116 -0.5072 -2.4686 -0.0998
 7492TIP3    H222441   5.048   2.250   3.236  0.4970  0.1052 -1.1798
 7493TIP3   OH222442   3.625   6.272   0.324  0.1311  0.0859  0.1221
 7493TIP3    H122443   3.652   6.187   0.356  0.9981 -0.0477 -0.8988
 7493TIP3    H222444   3.600   6.256   0.233 -0.8889  0.7008  0.2814
 7494TIP3   OH222445   6.370   6.697   5.362 -0.3921  0.0234  0.8672
 7494TIP3    H122446   6.343   6.700   5.453 -1.6852  0.1760  0.4927
 7494TIP3    H222447   6.369   6.789   5.334 -1.5388 -0.1641  0.2683
 7495TIP3   OH222448   7.153   3.010   4.000 -0.4008  0.0291  0.3339
 7495TIP3    H122449   7.128   3.011   4.092 -0.2425  2.3212  0.4103
 7495TIP3    H222450   7.070   3.009   3.953 -0.4812 -2.3121  0.4440
 7496TIP3   OH222451   0.108   6.013   2.255 -0.2531  0.1263 -0.7809
 7496TIP3    H122452   0.088   6.106   2.261 -0.6749 -0.0262  0.4370
 7496TIP3    H222453   0.051   5.980   2.185 -2.1855  0.2687  0.6519
 7497TIP3   OH222454   1.883   4.965   4.882 -0.3012 -0.2855 -0.4368
 7497TIP3    H122455   1.952   5.007   4.933  1.4749 -1.0101 -2.0984
 7497TIP3    H222456   1.825   5.037   4.856 -0.6071  0.2408  1.5634
 7498TIP3   OH222457   1.259   4.344   3.694  0.5129  0.1031 -0.3838
 7498TIP3    H122458   1.178   4.382   3.729 -0.3562 -0.3620 -1.8362
 7498TIP3    H222459   1.324   4.414   3.703 -0.8950  1.7894 -2.3985
 7499TIP3   OH222460   0.283   1.585   0.706  0.8433  0.5352 -0.2287
 7499TIP3    H122461   0.354   1.620   0.653  0.4276  1.6618 -0.0719
 7499TIP3    H222462   0.286   1.636   0.787 -0.5899  1.1280 -0.5162
 7500TIP3   OH222463   4.339   2.868   0.490  1.0958 -0.1082 -0.0720
 7500TIP3    H122464   4.343   2.843   0.583 -0.0217  2.2841  0.7029
 7500TIP3    H222465   4.421   2.836   0.454  1.4888 -1.2746  1.6781
 7501TIP3   OH222466   5.809   4.973   3.311  0.6730  0.2154 -0.5320
 7501TIP3    H122467   5.872   4.991   3.380  0.9174 -0.8732 -0.4592
 7501TIP3    H222468   5.862   4.945   3.236  0.2443 -3.8973  0.4778
 7502TIP3   OH222469  -0.021   2.827   4.505  0.4158 -0.2889  0.3489
 7502TIP3    H122470   0.065   2.846   4.542  0.8552  1.2982 -1.3339
 7502TIP3    H222471  -0.002   2.780   4.424 -0.3807 -0.8721  0.4862
 7503TIP3   OH222472   1.013   3.634   4.827  0.1964  0.4486 -0.1631
 7503TIP3    H122473   0.993   3.660   4.737  0.4729 -1.1405 -0.7193
 7503TIP3    H222474   1.086   3.573   4.819  1.7626  1.9830  1.3632
 7504TIP3   OH222475   0.085   0.409   3.741 -0.0927 -0.3230 -0.1466
 7504TIP3    H122476   0.157   0.464   3.770  1.0651 -0.7218 -2.1217
 7504TIP3    H222477   0.127   0.333   3.701 -1.6457 -1.5970  0.5164
 7505TIP3   OH222478   1.713   2.189   4.118 -0.1883  0.7545  0.0174
 7505TIP3    H122479   1.719   2.237   4.202  0.1487 -0.7537  0.8909
 7505TIP3    H222480   1.627   2.212   4.084  0.4258  2.9578 -0.2276
 7506TIP3   OH222481   4.910   0.852   4.267 -0.1558 -0.0125  0.0048
 7506TIP3    H122482   4.981   0.869   4.206 -0.4749  2.5463  0.2245
 7506TIP3    H222483   4.847   0.800   4.217  0.5308  0.2580 -1.1701
 7507TIP3   OH222484   0.940   2.556   5.595 -0.2113 -0.2185 -0.4507
 7507TIP3    H122485   0.979   2.474   5.567 -0.8837 -0.5723 -0.3820
 7507TIP3    H222486   0.979   2.622   5.539  1.4261 -0.3715  0.4574
 7508TIP3   OH222487   5.495   4.617   5.584 -0.2504 -0.4069  0.0883
 7508TIP3    H122488   5.561   4.568   5.535 -1.2204 -3.1688  1.3425
 7508TIP3    H222489   5.545   4.680   5.634  1.5137 -2.3526  0.9470
 7509TIP3   OH222490   6.850   3.396   0.488 -0.2872  0.5623 -0.1257
 7509TIP3    H122491   6.930   3.363   0.528  0.0152  0.5772 -0.7103
 7509TIP3    H222492   6.817   3.323   0.435 -0.7464  0.5028  0.2412
 7510TIP3   OH222493   1.453   0.982   2.402 -0.2267 -0.3409 -0.6973
 7510TIP3    H122494   1.454   1.004   2.309 -2.5248  0.8177 -0.5193
 7510TIP3    H222495   1.496   1.057   2.444 -0.1142 -0.3787 -0.7437
 7511TIP3   OH222496   1.466   6.775   1.051 -0.0991 -0.4260  0.0371
 7511TIP3    H122497   1.458   6.763   0.956 -0.7817  0.5988 -0.0499
 7511TIP3    H222498   1.535   6.714   1.077 -0.5501 -1.4066 -0.9663
 7512TIP3   OH222499   5.276   3.334   3.886 -0.3221 -0.5891  0.0983
 7512TIP3    H122500   5.196   3.356   3.935  0.6764 -1.8045  2.4089
 7512TIP3    H222501   5.343   3.324   3.952  1.7351  0.0296 -1.7671
 7513TIP3   OH222502   5.981   3.656   3.860  0.4867  0.4587 -0.0329
 7513TIP3    H122503   5.958   3.584   3.802  1.7965  0.3995 -0.5083
 7513TIP3    H222504   6.076   3.660   3.857  0.4521  2.0424  0.1991
 7514TIP3   OH222505   4.311   4.997   5.740 -0.3199  0.5014 -0.2829
 7514TIP3    H122506   4.386   4.963   5.691  0.5615 -1.0290  1.9879
 7514TIP3    H222507   4.332   5.089   5.755  1.4129 -0.0286  0.7814
 7515TIP3   OH222508   2.018   5.183   5.027  0.4774 -0.1013  0.5506
 7515TIP3    H122509   1.988   5.228   4.948 -0.9819  1.0299  1.6865
 7515TIP3    H222510   2.101   5.225   5.048  1.1406 -0.7550 -0.6140
 7516TIP3   OH222511   4.307   0.672   3.023 -0.0173  0.1425  0.1519
 7516TIP3    H122512   4.380   0.642   2.968 -2.2782 -1.1309 -2.3616
 7516TIP3    H222513   4.300   0.605   3.091  0.0154 -0.7659 -0.7058
 7517TIP3   OH222514   5.104   6.201   3.088  0.4557 -0.5619 -0.0365
 7517TIP3    H122515   5.023   6.190   3.038 -0.0056 -0.1415  0.5949
 7517TIP3    H222516   5.096   6.140   3.161  0.3214  0.0667  0.4883
 7518TIP3   OH222517   3.680   4.735   3.190 -0.3381  0.1427 -0.5750
 7518TIP3    H122518   3.657   4.817   3.233  0.9310  0.2785 -0.0972
 7518TIP3    H222519   3.634   4.667   3.239  1.3379  0.2526  1.3008
 7519TIP3   OH222520   4.413   5.584   1.364  0.3364  0.3398  0.1638
 7519TIP3    H122521   4.420   5.668   1.317 -0.3013  0.7955  0.8479
 7519TIP3    H222522   4.501   5.547   1.361  0.8793  1.5304  0.7328
 7520TIP3   OH222523   0.481   1.287   5.360 -0.1077  0.9664  0.6705
 7520TIP3    H122524   0.404   1.338   5.385 -0.5307  0.1673  1.0349
 7520TIP3    H222525   0.471   1.273   5.266 -1.3964 -0.6982  1.0083
 7521TIP3   OH222526   1.647   4.734   5.582 -0.4287  0.0418 -0.1022
 7521TIP3    H122527   1.681   4.806   5.528  0.1496 -0.2012 -0.0698
 7521TIP3    H222528   1.614   4.671   5.518  0.1133 -0.1754 -0.1750
 7522TIP3   OH222529   2.853   6.604   3.528  0.0447 -0.6088  0.0816
 7522TIP3    H122530   2.913   6.591   3.455 -0.3094  0.0636 -0.3381
 7522TIP3    H222531   2.784   6.539   3.514 -0.5533  0.1767 -0.7624
 7523TIP3   OH222532   2.572   3.263   2.323 -0.1418  0.2641  0.2485
 7523TIP3    H122533   2.596   3.223   2.406 -0.8027 -0.1058  0.2725
 7523TIP3    H222534   2.604   3.203   2.256 -1.3035 -0.4356  0.2880
 7524TIP3   OH222535   4.999   1.085   5.784  0.1238 -0.2428 -0.1445
 7524TIP3    H122536   5.007   1.045   5.870 -0.4276 -0.9001 -0.3935
 7524TIP3    H222537   5.085   1.125   5.768  0.3419 -0.4226  0.5497
 7525TIP3   OH222538   5.198   1.252   2.724  0.0771 -0.4165  0.2257
 7525TIP3    H122539   5.256   1.255   2.800 -0.4903  1.8058  0.6457
 7525TIP3    H222540   5.240   1.307   2.659 -1.4357  1.1719  0.5049
 7526TIP3   OH222541   2.065   6.649   0.990  0.4116 -0.0762  0.2080
 7526TIP3    H122542   1.975   6.621   0.978 -0.5596  3.0435 -0.5941
 7526TIP3    H222543   2.064   6.705   1.068  1.7462 -0.2734  0.4071
 7527TIP3   OH222544   3.097   5.960   2.333 -0.5046 -0.3263 -0.8196
 7527TIP3    H122545   3.037   5.931   2.402  0.7598 -0.9489  0.0386
 7527TIP3    H222546   3.152   5.884   2.315 -0.2893  0.0788 -1.9597
 7528TIP3   OH222547   0.322   3.096   2.869  0.1413 -0.1715 -0.5039
 7528TIP3    H122548   0.229   3.077   2.858  0.0054  0.0278  0.2381
 7528TIP3    H222549   0.361   3.013   2.896  0.3098 -0.4320 -1.5385
 7529TIP3   OH222550   3.540   3.480   5.533 -0.1629  0.3416 -0.0515
 7529TIP3    H122551   3.508   3.391   5.520  0.0437  0.0418  1.3262
 7529TIP3    H222552   3.592   3.498   5.455 -0.0235 -0.8368 -0.2551
 7530TIP3   OH222553   5.696   4.454   3.730 -0.6447 -0.2126  0.3008
 7530TIP3    H122554   5.759   4.479   3.662 -1.0659  0.8082  0.2703
 7530TIP3    H222555   5.719   4.363   3.751 -0.6291 -0.6363 -1.3413
 7531TIP3   OH222556   2.397   6.541   4.462  0.3473  0.4275  0.2291
 7531TIP3    H122557   2.459   6.472   4.484  1.5144  0.6858 -1.9762
 7531TIP3    H222558   2.448   6.622   4.466 -0.4055  0.9020  0.5062
 7532TIP3   OH222559   2.969   1.430   0.384 -0.5101  0.3273 -0.2565
 7532TIP3    H122560   3.055   1.471   0.390  0.2258 -0.9542 -1.4708
 7532TIP3    H222561   2.968   1.368   0.457 -0.2931  0.1663 -0.3874
 7533TIP3   OH222562   1.993   4.642   4.770  0.0283 -0.6048 -0.1599
 7533TIP3    H122563   1.991   4.555   4.729  0.6020 -0.2490 -0.9549
 7533TIP3    H222564   1.956   4.701   4.704  2.0002  0.1528 -0.6675
 7534TIP3   OH222565   0.626   3.720   5.287 -0.2182 -0.0667  0.0104
 7534TIP3    H122566   0.703   3.670   5.313 -0.2213  0.7496  1.7712
 7534TIP3    H222567   0.659   3.808   5.269 -0.3872 -0.3449 -1.8910
 7535TIP3   OH222568   2.677   3.115   0.604 -0.2620 -0.4772 -0.2158
 7535TIP3    H122569   2.651   3.203   0.574  0.1756 -0.3986 -0.3697
 7535TIP3    H222570   2.655   3.058   0.531  3.2513  0.0547 -1.9062
 7536TIP3   OH222571   0.657   1.317   5.582 -0.1877 -0.6687  0.5748
 7536TIP3    H122572   0.597   1.331   5.509  1.3141  0.7861 -0.4756
 7536TIP3    H222573   0.723   1.257   5.547  1.3225  1.1184  0.1500
 7537TIP3   OH222574   0.976   6.327   0.071 -0.2847  0.7624  0.5121
 7537TIP3    H122575   0.882   6.345   0.066 -0.2123  0.9128 -0.6014
 7537TIP3    H222576   0.982   6.239   0.107 -0.9056  0.3434 -0.3730
 7538TIP3   OH222577   2.770   3.227   1.811 -0.0157 -0.1099  0.3311
 7538TIP3    H122578   2.764   3.144   1.764 -0.8661 -1.0794  2.0466
 7538TIP3    H222579   2.682   3.241   1.845  1.1231 -1.2047  4.3226
 7539TIP3   OH222580   6.242   1.897   0.950 -0.3770 -0.1618  0.7241
 7539TIP3    H122581   6.179   1.829   0.975 -0.3677 -0.1413  0.8037
 7539TIP3    H222582   6.308   1.895   1.019 -1.2826  1.1089  1.6791
 7540TIP3   OH222583   6.949   1.640   3.479 -0.3785  0.0216 -0.2262
 7540TIP3    H122584   6.957   1.594   3.562 -0.5221  1.5161  0.6649
 7540TIP3    H222585   6.942   1.571   3.413 -2.4159 -1.2421  1.1880
 7541TIP3   OH222586   1.748   3.418   1.469 -0.2463  0.2231  0.1500
 7541TIP3    H122587   1.822   3.358   1.473 -1.4104 -1.2249  2.1682
 7541TIP3    H222588   1.748   3.462   1.554 -1.4968  0.3839  0.0930
 7542TIP3   OH222589   6.587   5.843   4.277 -0.1346  0.0616  0.0921
 7542TIP3    H122590   6.600   5.758   4.237  0.1955 -1.1286  2.5317
 7542TIP3    H222591   6.651   5.847   4.348 -0.5887  2.0596  0.4651
 7543TIP3   OH222592   6.710   1.036   2.890  0.5885  0.1988  0.2885
 7543TIP3    H122593   6.652   1.048   2.815  1.5353  2.3174 -0.1766
 7543TIP3    H222594   6.689   1.109   2.949  2.9156  1.2555 -0.0518
 7544TIP3   OH222595   0.208   3.315   4.150  0.2080  0.3733  0.2505
 7544TIP3    H122596   0.276   3.334   4.214 -1.2243  0.8447  1.7148
 7544TIP3    H222597   0.200   3.395   4.099  0.8596  0.2545 -0.0394
 7545TIP3   OH222598   3.986   5.193   2.430 -0.0122 -0.8141 -0.2645
 7545TIP3    H122599   4.011   5.212   2.340  2.1267  4.1859  1.0344
 7545TIP3    H222600   4.058   5.141   2.465  1.4419  0.9759 -0.4313
 7546TIP3   OH222601   3.113   6.782   0.170 -0.2418  0.6740 -0.1156
 7546TIP3    H122602   3.119   6.813   0.080  0.5753  0.2130 -0.2264
 7546TIP3    H222603   3.100   6.687   0.163 -0.6800  0.7008  0.2476
 7547TIP3   OH222604   0.823   3.502   1.988  0.0481 -1.0051 -0.3852
 7547TIP3    H122605   0.860   3.583   2.022 -1.1830 -0.0133 -1.2936
 7547TIP3    H222606   0.820   3.444   2.064 -0.0842  0.1826  0.5629
 7548TIP3   OH222607   1.161   2.090   2.847 -0.2854 -0.1854  0.0123
 7548TIP3    H122608   1.119   2.149   2.785 -0.2947  2.0397  1.9883
 7548TIP3    H222609   1.255   2.111   2.840  0.1058 -2.1203 -1.3580
 7549TIP3   OH222610   1.708   5.799   3.906 -0.1350  0.1197 -0.2557
 7549TIP3    H122611   1.698   5.881   3.859 -0.2247  0.0746 -0.3160
 7549TIP3    H222612   1.732   5.735   3.839 -1.6678 -0.2483 -0.4927
 7550TIP3   OH222613   5.601   6.541   4.447 -0.0866  0.2786 -0.0870
 7550TIP3    H122614   5.570   6.485   4.518 -0.3887  0.5845  0.0256
 7550TIP3    H222615   5.675   6.588   4.485  0.6136 -0.5516 -0.3971
 7551TIP3   OH222616   3.451   3.104   4.292  0.5324  0.4120 -0.0285
 7551TIP3    H122617   3.497   3.058   4.362 -0.2536 -0.0184  0.2186
 7551TIP3    H222618   3.445   3.040   4.221  1.7529  1.0011 -0.6888
 7552TIP3   OH222619   3.055   0.483   4.179  0.3429  0.3889  0.3346
 7552TIP3    H122620   2.979   0.426   4.167 -0.9558  1.5983  2.3870
 7552TIP3    H222621   3.037   0.560   4.125  0.3171  0.5016  0.5050
 7553TIP3   OH222622   3.745   3.837   2.493 -0.3892  0.2820  0.2209
 7553TIP3    H122623   3.792   3.920   2.502  1.5098 -0.7900  0.7353
 7553TIP3    H222624   3.756   3.812   2.402 -0.1227  0.1192  0.2979
 7554TIP3   OH222625   5.646   3.166   0.208 -0.2920 -0.7202 -0.2834
 7554TIP3    H122626   5.719   3.108   0.229  0.4249  0.4737  0.6702
 7554TIP3    H222627   5.604   3.126   0.132  1.1879 -1.5944 -0.6752
 7555TIP3   OH222628   3.456   3.020   2.284 -0.0173  0.1819 -0.7524
 7555TIP3    H122629   3.396   3.086   2.249 -1.3468 -0.7843 -0.3855
 7555TIP3    H222630   3.505   3.066   2.352  0.3159  1.2253 -1.6584
 7556TIP3   OH222631   1.790   6.369   5.152  0.0977 -0.0778  0.1175
 7556TIP3    H122632   1.833   6.409   5.228  0.9010  1.2061 -0.9696
 7556TIP3    H222633   1.817   6.423   5.078 -1.1487 -0.9385 -1.0131
 7557TIP3   OH222634   6.589   4.953   0.023  0.0425  0.5746 -0.3794
 7557TIP3    H122635   6.532   5.022   0.059 -0.5292 -0.0699 -0.0365
 7557TIP3    H222636   6.599   4.977  -0.069 -0.0780  1.1680 -0.2433
 7558TIP3   OH222637   3.939   5.072   5.924  0.0463 -0.0069  0.4909
 7558TIP3    H122638   3.877   5.130   5.879 -1.4946 -1.7937  0.1947
 7558TIP3    H222639   3.990   5.032   5.854  1.1279  0.9629  0.6974
 7559TIP3   OH222640   1.200   0.562   2.335 -0.1129  0.2420 -0.4993
 7559TIP3    H122641   1.145   0.637   2.361  0.2849  0.8939 -1.4668
 7559TIP3    H222642   1.138   0.491   2.321 -0.3708 -0.1008  1.9519
 7560TIP3   OH222643   1.666   5.008   0.019 -0.4285 -0.0576  0.5869
 7560TIP3    H122644   1.702   5.034   0.104 -1.1484 -0.0806  0.9084
 7560TIP3    H222645   1.606   5.079  -0.003  1.7591  1.3703 -1.2380
 7561TIP3   OH222646   6.560   2.103   4.096 -0.1334 -0.2205  0.5084
 7561TIP3    H122647   6.540   2.103   4.002  1.5359  1.0126  0.1091
 7561TIP3    H222648   6.474   2.100   4.138 -0.9349 -0.3414 -1.0525
 7562TIP3   OH222649   1.358   2.564   0.820 -0.3310  0.0130 -0.2614
 7562TIP3    H122650   1.357   2.492   0.883  1.7029 -0.1276 -0.3022
 7562TIP3    H222651   1.374   2.522   0.736  0.9227  0.4668 -0.2768
 7563TIP3   OH222652   5.174   6.173   1.858  0.0715 -0.0597 -0.3535
 7563TIP3    H122653   5.127   6.189   1.939 -0.6475  0.6323 -0.8854
 7563TIP3    H222654   5.110   6.130   1.801  0.3852 -0.0003 -0.7556
 7564TIP3   OH222655   3.524   5.347   0.332 -0.4577  0.2345  0.1610
 7564TIP3    H122656   3.593   5.329   0.267 -0.0100  0.3231  0.6037
 7564TIP3    H222657   3.459   5.397   0.283 -0.9829 -1.2013 -0.6825
 7565TIP3   OH222658   4.633   2.542   4.975  0.1935 -0.3388  0.1578
 7565TIP3    H122659   4.657   2.633   4.955  1.2668 -0.2077  1.8904
 7565TIP3    H222660   4.588   2.512   4.896  2.8183  0.5960 -1.8429
 7566TIP3   OH222661   7.048   4.723   5.483 -0.1472 -0.0769 -0.0949
 7566TIP3    H122662   7.048   4.721   5.387 -0.3881  0.2163 -0.1026
 7566TIP3    H222663   6.978   4.783   5.506 -2.9838 -3.2303  0.3356
 7567TIP3   OH222664   1.312   4.346   3.295  0.1377 -0.6607  0.2540
 7567TIP3    H122665   1.371   4.273   3.317 -0.1940 -1.0860 -0.2396
 7567TIP3    H222666   1.267   4.317   3.216 -0.1828 -0.0179  0.1965
 7568TIP3   OH222667   6.727   3.287   1.556 -0.2285 -0.2957  0.3381
 7568TIP3    H122668   6.636   3.315   1.554  0.5721  2.5996 -0.5760
 7568TIP3    H222669   6.731   3.212   1.496 -1.8271  0.1638 -0.3956
 7569TIP3   OH222670   0.317   4.887   1.650 -0.0846 -0.2324  0.4701
 7569TIP3    H122671   0.326   4.862   1.741  1.7528 -2.4303 -0.2477
 7569TIP3    H222672   0.407   4.901   1.619 -0.5688 -0.8380 -1.3310
 7570TIP3   OH222673   5.298   6.610   3.907 -0.2919  0.4517 -0.4081
 7570TIP3    H122674   5.367   6.556   3.946  0.2819  0.4390 -1.4091
 7570TIP3    H222675   5.336   6.698   3.903 -0.4862  0.5270 -0.6001
 7571TIP3   OH222676   7.202   4.750   4.097  0.2301 -0.7393 -0.0739
 7571TIP3    H122677   7.286   4.714   4.068  0.4783 -1.3276  1.2924
 7571TIP3    H222678   7.151   4.673   4.123  0.4698 -0.2220  2.1251
 7572TIP3   OH222679   4.294   4.380   3.662 -0.3577  0.0251  0.8006
 7572TIP3    H122680   4.233   4.351   3.594 -1.1609  0.5724  1.2738
 7572TIP3    H222681   4.361   4.312   3.664 -1.2100 -0.8451  0.6164
 7573TIP3   OH222682   6.918   5.591   1.421  0.2939 -0.1364  0.2886
 7573TIP3    H122683   6.881   5.506   1.446  0.1115 -0.3119 -0.5619
 7573TIP3    H222684   7.012   5.574   1.409 -0.0919 -0.8179 -2.3101
 7574TIP3   OH222685   2.910   2.105   2.762  0.5280 -0.0371  0.4831
 7574TIP3    H122686   2.841   2.171   2.751  2.6271  2.1137 -1.0053
 7574TIP3    H222687   2.881   2.051   2.835 -2.3522  1.2088  0.3832
 7575TIP3   OH222688   6.547   5.370   4.976  0.8459  0.0615 -0.4766
 7575TIP3    H122689   6.474   5.399   4.923 -0.8025  0.4747  1.8582
 7575TIP3    H222690   6.536   5.275   4.984  0.5120  0.1359 -0.0531
 7576TIP3   OH222691   6.774   6.177   3.575 -0.0555  0.2970 -0.1005
 7576TIP3    H122692   6.806   6.265   3.553  1.4835 -0.5082 -1.3174
 7576TIP3    H222693   6.747   6.140   3.491 -1.0562 -0.2714  0.4547
 7577TIP3   OH222694   4.467   6.708   4.244 -0.3439  0.1071 -0.2352
 7577TIP3    H122695   4.429   6.627   4.211 -1.1612 -0.0935  1.1353
 7577TIP3    H222696   4.505   6.750   4.166 -0.0241 -1.5033 -0.9935
 7578TIP3   OH222697   4.646   1.144   4.945 -0.0743 -0.3541 -0.3639
 7578TIP3    H122698   4.675   1.111   4.861  1.0087 -4.4591  1.3623
 7578TIP3    H222699   4.725   1.180   4.986 -0.7501  2.3777 -1.2407
 7579TIP3   OH222700   1.146   6.403   4.802 -0.5440 -0.6965  0.0415
 7579TIP3    H122701   1.143   6.488   4.759 -2.3062 -1.3206 -1.1890
 7579TIP3    H222702   1.226   6.362   4.768  0.0561  0.2359  0.2698
 7580TIP3   OH222703   1.658   6.155   3.518  0.5804  0.3075 -0.6162
 7580TIP3    H122704   1.739   6.115   3.485  0.4795  1.0295 -1.7829
 7580TIP3    H222705   1.680   6.182   3.608  0.7802 -1.9408  0.0855
 7581TIP3   OH222706   6.187   0.797   4.780  0.5714  0.1117  0.4112
 7581TIP3    H122707   6.153   0.745   4.708 -0.1754  2.0334 -0.6820
 7581TIP3    H222708   6.282   0.797   4.767  0.4148  0.8963 -0.9505
 7582TIP3   OH222709   0.590   0.095   5.224 -0.0671 -1.0017  0.4600
 7582TIP3    H122710   0.542   0.041   5.162 -0.6995 -0.7471  0.7262
 7582TIP3    H222711   0.665   0.128   5.173 -0.5488 -0.8364 -0.1547
 7583TIP3   OH222712   2.855   3.785   0.928 -0.0419 -0.1543  0.3105
 7583TIP3    H122713   2.762   3.765   0.916  0.1014 -0.7715  0.2016
 7583TIP3    H222714   2.896   3.700   0.943  0.1680  0.3382  2.8069
 7584TIP3   OH222715   5.673   3.552   5.814 -0.1080  0.9614  0.1081
 7584TIP3    H122716   5.623   3.628   5.781 -1.5901 -0.4355 -1.0329
 7584TIP3    H222717   5.644   3.543   5.905 -1.8327  0.3454 -0.4518
 7585TIP3   OH222718   2.556   2.925   4.187  0.1246  0.6973  0.0701
 7585TIP3    H122719   2.553   2.834   4.217  0.0950  0.9924  0.9921
 7585TIP3    H222720   2.486   2.968   4.236 -1.2708  0.7895 -1.9059
 7586TIP3   OH222721   3.419   1.867   0.883  0.3049 -0.2901  0.3898
 7586TIP3    H122722   3.411   1.805   0.955 -2.4839 -1.4081 -0.7494
 7586TIP3    H222723   3.329   1.895   0.865  1.0101  0.7090 -1.9892
 7587TIP3   OH222724   4.240   2.046   1.753 -0.3009 -0.2595  0.2066
 7587TIP3    H122725   4.314   2.092   1.791  0.1291 -1.4773  0.9016
 7587TIP3    H222726   4.170   2.054   1.818 -0.3399 -0.3033  0.1710
 7588TIP3   OH222727   4.677   5.987   5.342  0.3097 -0.2535 -0.7145
 7588TIP3    H122728   4.682   5.947   5.255  0.8302 -0.7332 -0.4694
 7588TIP3    H222729   4.732   5.931   5.397 -1.4909 -1.0828  0.3582
 7589TIP3   OH222730   3.111   5.632   5.031  0.5463  0.5566  0.5378
 7589TIP3    H122731   3.153   5.678   4.959 -1.4492  2.5251  0.5133
 7589TIP3    H222732   3.164   5.652   5.108  1.3514  0.4056  0.0264
 7590TIP3   OH222733   5.169   0.194   4.908 -0.3139 -0.7361 -0.3558
 7590TIP3    H122734   5.227   0.215   4.981 -0.1163 -0.2075 -0.6584
 7590TIP3    H222735   5.208   0.117   4.867  0.8121  0.2819 -1.2413
 7591TIP3   OH222736   2.404   0.516   1.720 -0.3075  0.5541  0.3283
 7591TIP3    H122737   2.349   0.537   1.644 -1.8321 -0.1680  1.1954
 7591TIP3    H222738   2.486   0.563   1.703 -0.3770 -0.0305 -2.0321
 7592TIP3   OH222739   4.817   3.860   2.134 -0.0776  0.2496  0.6413
 7592TIP3    H122740   4.848   3.792   2.194  1.2078 -0.8461 -1.1750
 7592TIP3    H222741   4.727   3.835   2.113  0.6965 -1.5363 -0.7929
 7593TIP3   OH222742   6.735   4.672   2.559  0.0710  0.0525  0.4124
 7593TIP3    H122743   6.650   4.696   2.594 -0.2973 -0.5896 -0.0216
 7593TIP3    H222744   6.767   4.751   2.516  0.0541  0.5286  1.2505
 7594TIP3   OH222745   0.795   6.493   2.976 -0.3980 -0.3058 -0.7636
 7594TIP3    H122746   0.785   6.402   2.949  1.1678 -0.7534  0.0472
 7594TIP3    H222747   0.855   6.490   3.051  1.2726  1.5281 -1.8974
 7595TIP3   OH222748   0.894   4.470   1.480  0.3768 -0.1089  0.2943
 7595TIP3    H122749   0.837   4.401   1.445 -0.1860  0.6219 -0.2777
 7595TIP3    H222750   0.952   4.425   1.542 -0.1568 -1.0409  0.1331
 7596TIP3   OH222751   0.490   1.088   3.175  0.0821  0.3569  0.6345
 7596TIP3    H122752   0.540   1.033   3.235  1.7306  2.6416  1.5250
 7596TIP3    H222753   0.444   1.026   3.118  1.8914 -1.9077  1.4548
 7597TIP3   OH222754   4.407   0.238   2.379 -0.2408  0.1937  0.3744
 7597TIP3    H122755   4.409   0.194   2.464  1.2165  0.6155  0.5775
 7597TIP3    H222756   4.364   0.175   2.321 -1.0915 -0.1730  1.3631
 7598TIP3   OH222757   6.208   0.190   2.736 -0.9552  0.6759 -0.0655
 7598TIP3    H122758   6.173   0.139   2.810 -1.6701  0.1030 -0.7831
 7598TIP3    H222759   6.194   0.281   2.761 -0.4565  0.5128  0.8583
 7599TIP3   OH222760   2.358   4.043   3.741 -0.2664 -0.1702 -0.2329
 7599TIP3    H122761   2.280   4.078   3.697 -0.6114  1.3133  1.4342
 7599TIP3    H222762   2.418   4.117   3.747 -0.4084 -0.1639  2.0909
 7600TIP3   OH222763   5.782  -0.017   5.220 -0.6080  0.0146  0.2689
 7600TIP3    H122764   5.777   0.034   5.301 -0.0765 -0.1860  0.4332
 7600TIP3    H222765   5.704   0.009   5.171  0.1141  1.7236 -0.0733
 7601TIP3   OH222766   5.498   0.850   3.818 -0.9297  0.7130  0.7062
 7601TIP3    H122767   5.522   0.897   3.738 -1.4440  1.0111  0.7196
 7601TIP3    H222768   5.463   0.917   3.876  1.3852  0.8753  2.0398
 7602TIP3   OH222769   6.348   5.534   3.072 -0.1476 -0.4962  0.2459
 7602TIP3    H122770   6.378   5.546   2.982  1.3038  2.1972  0.9653
 7602TIP3    H222771   6.266   5.584   3.076  0.1113 -0.0934  0.5605
 7603TIP3   OH222772   5.291   5.519   3.790  0.4526 -0.2588  0.5007
 7603TIP3    H122773   5.251   5.603   3.770  0.7357  0.4759  2.6782
 7603TIP3    H222774   5.383   5.540   3.807  0.5141 -0.9826  1.1220
 7604TIP3   OH222775   5.627   2.116   1.380  0.3445 -0.3017  0.0979
 7604TIP3    H122776   5.657   2.039   1.427  0.3240  0.4738  1.4312
 7604TIP3    H222777   5.699   2.139   1.322  0.8153 -0.6541  0.5404
 7605TIP3   OH222778   2.030   5.526   5.423 -0.0712 -0.0249 -0.0632
 7605TIP3    H122779   2.037   5.494   5.333  0.4260  0.7633 -0.3152
 7605TIP3    H222780   2.102   5.483   5.469  1.0607  1.2521 -0.5741
 7606TIP3   OH222781   0.057   4.070   4.357 -0.3351  0.8589 -0.0761
 7606TIP3    H122782   0.084   4.157   4.387 -0.5246  0.7262  0.4918
 7606TIP3    H222783   0.119   4.010   4.398 -1.3296  0.5742  1.0336
 7607TIP3   OH222784   3.386   3.808   5.880 -0.4251 -0.4006  0.1968
 7607TIP3    H122785   3.412   3.716   5.880 -1.8837 -0.8452 -0.4465
 7607TIP3    H222786   3.295   3.807   5.911  0.8147  1.2722  4.6459
 7608TIP3   OH222787   3.440   0.371   1.052 -0.0207 -0.4008  0.6646
 7608TIP3    H122788   3.536   0.364   1.043  0.1272  0.8891  1.0623
 7608TIP3    H222789   3.418   0.453   1.007 -0.8307 -0.2421  1.3333
 7609TIP3   OH222790   0.879   1.603   4.432  0.4376 -0.2541  0.1887
 7609TIP3    H122791   0.958   1.577   4.479  0.6005  0.0087  0.0614
 7609TIP3    H222792   0.831   1.521   4.418  0.3856 -0.3340  0.8135
 7610TIP3   OH222793   6.823   2.689   5.372 -0.1344  0.2645  0.2522
 7610TIP3    H122794   6.822   2.771   5.323  0.7863  1.7156  2.4924
 7610TIP3    H222795   6.731   2.664   5.381 -0.4040  0.8557 -0.7651
 7611TIP3   OH222796   3.757   6.567   0.170 -0.2012  0.0722 -0.0900
 7611TIP3    H122797   3.802   6.651   0.155  0.4172 -0.3112 -0.3894
 7611TIP3    H222798   3.811   6.522   0.235  0.3403 -0.7596 -1.0932
 7612TIP3   OH222799   2.426   1.133   2.698 -0.4096  0.1878 -0.3655
 7612TIP3    H122800   2.360   1.199   2.679  0.6074  0.8804 -1.6305
 7612TIP3    H222801   2.476   1.170   2.770 -0.2585  0.5153 -0.6322
 7613TIP3   OH222802   0.205   6.044   3.648 -0.2784 -0.4744 -0.0158
 7613TIP3    H122803   0.263   6.019   3.720  0.2079 -1.2925 -0.6736
 7613TIP3    H222804   0.258   6.100   3.592 -0.8597  0.7136  0.5793
 7614TIP3   OH222805   0.803   6.041   2.864  0.0007  0.4403 -0.5016
 7614TIP3    H122806   0.779   5.998   2.946 -0.8674  0.0893 -0.9282
 7614TIP3    H222807   0.821   5.969   2.804  3.0636  0.6488  0.0035
 7615TIP3   OH222808   1.619   0.393   5.610  0.0035 -0.3585  0.1624
 7615TIP3    H122809   1.535   0.361   5.643  0.3764 -0.7308  0.7847
 7615TIP3    H222810   1.646   0.459   5.674  1.4486 -2.1437  1.5196
 7616TIP3   OH222811   0.346   6.707   5.361  0.2128 -0.4395  0.4948
 7616TIP3    H122812   0.341   6.802   5.371  1.7619 -0.1743 -0.8713
 7616TIP3    H222813   0.352   6.674   5.451  0.9178  0.8534  0.9493
 7617TIP3   OH222814   0.533   6.219   0.555 -0.2287 -0.0357  0.4065
 7617TIP3    H122815   0.614   6.269   0.565 -0.3958  0.2145  0.5247
 7617TIP3    H222816   0.525   6.206   0.461  0.0659 -0.2553  0.4116
 7618TIP3   OH222817   6.372   4.904   4.096 -0.8704 -0.2003 -0.2202
 7618TIP3    H122818   6.399   4.964   4.027  0.5991 -0.6362 -0.0703
 7618TIP3    H222819   6.348   4.961   4.169  0.8734  0.2508  0.0565
 7619TIP3   OH222820   6.455   4.951   2.062 -0.0937 -0.7262  0.0704
 7619TIP3    H122821   6.507   4.970   1.985  0.9095  0.8694  1.0805
 7619TIP3    H222822   6.398   5.027   2.072  0.4275 -0.4796  1.3815
 7620TIP3   OH222823   3.207   5.448   2.892 -0.0037  0.5370  0.0382
 7620TIP3    H122824   3.295   5.457   2.854 -0.0517 -1.8858 -0.7670
 7620TIP3    H222825   3.216   5.486   2.980  1.4786  1.5436 -0.5023
 7621TIP3   OH222826   5.800   1.319   5.351 -0.5360  0.8143 -0.1570
 7621TIP3    H122827   5.766   1.336   5.263 -0.7959  0.7514 -0.0724
 7621TIP3    H222828   5.895   1.314   5.340 -0.6307 -0.3532 -0.6437
 7622TIP3   OH222829   3.696   0.419   1.760  0.6545 -0.5506  0.1370
 7622TIP3    H122830   3.604   0.391   1.756  0.2073  0.9140 -2.2187
 7622TIP3    H222831   3.692   0.503   1.807  0.2087  1.0852 -2.5976
 7623TIP3   OH222832   7.044   5.730   1.956 -0.1295 -0.7352 -0.3353
 7623TIP3    H122833   6.995   5.746   1.875  0.6603 -0.0904 -0.6960
 7623TIP3    H222834   6.977   5.722   2.023 -0.8041 -1.3289 -1.0509
 7624TIP3   OH222835   6.429   4.877   2.436  0.1978 -0.0007  0.7037
 7624TIP3    H122836   6.504   4.866   2.495  0.2657 -0.9087  0.4636
 7624TIP3    H222837   6.352   4.866   2.493  0.2474  0.5512  0.8808
 7625TIP3   OH222838   2.946   1.967   4.925  0.0968 -0.7083 -0.0510
 7625TIP3    H122839   2.963   1.964   5.019 -0.0148 -0.1734 -0.0098
 7625TIP3    H222840   3.030   1.992   4.887 -0.0020 -0.3538 -0.0415
 7626TIP3   OH222841   1.068   2.964   3.895  0.4206  0.3744  0.0195
 7626TIP3    H122842   1.043   2.872   3.907 -1.5379  0.9515  0.5744
 7626TIP3    H222843   1.164   2.963   3.907  0.2963 -1.3707  1.4678
 7627TIP3   OH222844   6.306   3.080   1.285  0.2550  0.0857 -0.4354
 7627TIP3    H122845   6.226   3.080   1.233  1.3262  1.1654 -2.1449
 7627TIP3    H222846   6.277   3.108   1.373 -1.5870 -1.8662 -0.3440
 7628TIP3   OH222847   0.218   6.734   4.769  0.2011 -0.2106 -0.3127
 7628TIP3    H122848   0.288   6.698   4.825 -0.4891 -0.9541  0.0873
 7628TIP3    H222849   0.238   6.701   4.682  0.8530  0.3278 -0.3840
 7629TIP3   OH222850   1.646   2.028   3.706  0.6853 -0.0616 -0.0195
 7629TIP3    H122851   1.653   1.937   3.678 -1.9935 -0.2014 -0.4451
 7629TIP3    H222852   1.715   2.073   3.657  1.7770 -1.7575 -0.1324
 7630TIP3   OH222853   4.888   2.985   1.030  0.3166 -0.0435  0.2793
 7630TIP3    H122854   4.866   3.051   0.964 -0.9321  0.4987  1.1855
 7630TIP3    H222855   4.846   3.017   1.110  1.0977 -1.1050  1.1427
 7631TIP3   OH222856   2.244   2.276   2.741 -0.0231  0.3212  0.7491
 7631TIP3    H122857   2.301   2.228   2.681 -1.8874  1.0424 -1.7984
 7631TIP3    H222858   2.300   2.345   2.777  0.9733  0.4807 -0.9805
 7632TIP3   OH222859   0.742   3.320   2.198 -0.2070 -0.1148 -0.0752
 7632TIP3    H122860   0.741   3.227   2.174  0.1468  0.3225 -1.9153
 7632TIP3    H222861   0.658   3.335   2.240 -0.6721 -1.0530 -0.6343
 7633TIP3   OH222862   5.838   4.946   1.686 -0.7876  0.3665 -0.2896
 7633TIP3    H122863   5.872   4.924   1.773 -1.3545  1.2451  0.1710
 7633TIP3    H222864   5.873   4.878   1.629 -0.9921 -0.6413  0.7443
 7634TIP3   OH222865   0.281   0.175   5.013  0.1717 -0.0273 -0.0701
 7634TIP3    H122866   0.270   0.129   4.930 -0.2380 -0.3267  0.1444
 7634TIP3    H222867   0.370   0.154   5.041 -0.5948 -2.2464  0.9439
 7635TIP3   OH222868   2.115   2.325   1.400  0.2996 -0.1504  0.1204
 7635TIP3    H122869   2.117   2.229   1.392 -0.1877 -0.5365  3.1739
 7635TIP3    H222870   2.192   2.346   1.453  0.4587  1.1717 -0.6149
 7636TIP3   OH222871   0.199   4.327   0.786  0.0800 -0.0645 -0.1379
 7636TIP3    H122872   0.258   4.255   0.813 -0.0102 -0.0749  0.0331
 7636TIP3    H222873   0.114   4.302   0.821  0.1653  0.4067  0.4168
 7637TIP3   OH222874   4.803   0.556   1.775 -0.0878 -0.9919  0.2230
 7637TIP3    H122875   4.844   0.485   1.726  0.3066 -0.5567 -0.0928
 7637TIP3    H222876   4.877   0.603   1.814 -0.2077  0.3422 -1.0780
 7638TIP3   OH222877   5.828   4.307   2.288 -0.2016  0.5024 -0.0931
 7638TIP3    H122878   5.847   4.227   2.338 -1.0126 -0.3511 -1.1060
 7638TIP3    H222879   5.806   4.372   2.354 -1.7880 -0.7473  0.6635
 7639TIP3   OH222880   0.104   3.755   3.837 -0.1557  0.0234  0.2648
 7639TIP3    H122881   0.095   3.821   3.906 -0.0549 -0.1081  0.4050
 7639TIP3    H222882   0.126   3.674   3.884 -1.8005 -0.4809  0.2369
 7640TIP3   OH222883   4.675   4.768   5.740 -0.0572  0.3177 -0.4649
 7640TIP3    H122884   4.620   4.835   5.781 -1.7876 -0.7932 -0.8724
 7640TIP3    H222885   4.638   4.756   5.653  0.9990 -0.3060 -0.8479
 7641TIP3   OH222886   3.471   5.985   4.752 -0.1799  0.6904  0.1738
 7641TIP3    H122887   3.506   5.906   4.710  1.2844  0.8893  0.9750
 7641TIP3    H222888   3.389   6.002   4.705 -0.2804 -1.0070 -0.3605
 7642TIP3   OH222889   5.734   6.696   0.998 -0.0539  0.6185 -0.3505
 7642TIP3    H122890   5.824   6.679   0.971  0.1412  1.7904 -0.5081
 7642TIP3    H222891   5.741   6.740   1.082 -0.5902 -1.2092  0.6985
 7643TIP3   OH222892   1.619   4.903   4.062  0.0684 -1.0290  0.1459
 7643TIP3    H122893   1.634   4.885   4.155  1.2782 -0.5687  0.0531
 7643TIP3    H222894   1.648   4.823   4.018 -0.1730 -1.1117  0.1340
 7644TIP3   OH222895   1.279   5.694   1.582  0.2923  0.7088 -0.1967
 7644TIP3    H122896   1.301   5.732   1.498  0.9555  0.5377 -0.1028
 7644TIP3    H222897   1.188   5.665   1.572  0.4004  0.5918 -0.8869
 7645TIP3   OH222898   0.503   4.946   2.226 -0.2039  0.3853  0.4661
 7645TIP3    H122899   0.574   4.973   2.168  1.2700 -1.7980  1.1476
 7645TIP3    H222900   0.532   4.975   2.313 -1.8805  2.6458  0.3552
 7646TIP3   OH222901   4.681   6.456   1.717  0.2552  0.1696  0.2414
 7646TIP3    H122902   4.717   6.540   1.745  0.4501 -0.0592  0.6842
 7646TIP3    H222903   4.732   6.433   1.639 -0.4789  0.9418 -0.4887
 7647TIP3   OH222904   6.201   3.095   4.891 -0.2782 -0.2686  0.0342
 7647TIP3    H122905   6.236   3.011   4.862  1.9161  0.1153  1.3419
 7647TIP3    H222906   6.201   3.089   4.986 -1.6872  0.6273  0.1069
 7648TIP3   OH222907   4.378   5.648   1.625  0.2701  0.0950 -0.4757
 7648TIP3    H122908   4.451   5.700   1.657  0.6412  0.3140 -1.6354
 7648TIP3    H222909   4.410   5.609   1.543  0.2920 -2.5932  0.7130
 7649TIP3   OH222910   0.505   5.918   0.054 -0.0851  0.0764  0.4567
 7649TIP3    H122911   0.500   5.890   0.146  0.5068  2.1574  1.1751
 7649TIP3    H222912   0.482   5.839   0.004 -0.5487 -1.0810  2.3749
 7650TIP3   OH222913   0.451   2.391   5.291  0.5233 -0.6356  0.2881
 7650TIP3    H122914   0.492   2.357   5.211  1.0447  0.9568 -0.1561
 7650TIP3    H222915   0.442   2.485   5.275 -1.6816 -0.6437  1.0943
 7651TIP3   OH222916   5.506   4.283   2.306 -0.4883 -0.3614 -0.5463
 7651TIP3    H122917   5.520   4.191   2.281 -1.1911 -0.4417 -0.6651
 7651TIP3    H222918   5.463   4.322   2.230 -0.3750  0.0162 -0.4166
 7652TIP3   OH222919   1.618   4.731   3.582 -0.6793 -0.5495  0.4019
 7652TIP3    H122920   1.592   4.688   3.500  0.0540  1.4136 -0.9388
 7652TIP3    H222921   1.562   4.691   3.648 -2.8773 -0.7026 -1.4077
 7653TIP3   OH222922   4.531   4.049   3.231 -0.2117  0.4388 -0.2714
 7653TIP3    H122923   4.494   4.122   3.281 -1.1998 -0.5843  0.5766
 7653TIP3    H222924   4.614   4.030   3.274 -0.1216  0.8388 -0.2689
 7654TIP3   OH222925   6.054   1.750   0.684 -0.0157 -0.5110  0.1880
 7654TIP3    H122926   5.961   1.735   0.668 -0.1579  0.5052  0.0234
 7654TIP3    H222927   6.084   1.670   0.727 -1.0560 -0.6852  0.6171
 7655TIP3   OH222928   3.837   1.227   3.398 -0.4034  0.0507  0.2086
 7655TIP3    H122929   3.802   1.141   3.417 -0.6477 -0.2958 -1.6683
 7655TIP3    H222930   3.761   1.281   3.379 -0.1437  0.1733 -0.5198
 7656TIP3   OH222931   0.575   0.456   5.111  0.1559 -0.3271 -0.0771
 7656TIP3    H122932   0.551   0.480   5.021 -1.1105  0.5222  0.4719
 7656TIP3    H222933   0.637   0.384   5.100  0.9809  0.5743 -1.6618
 7657TIP3   OH222934   4.331   2.966   2.272  0.0033 -0.0887  0.2083
 7657TIP3    H122935   4.322   3.048   2.320  1.4245  0.1786  0.0385
 7657TIP3    H222936   4.374   2.990   2.190 -0.3619 -0.8769 -0.2317
 7658TIP3   OH222937   5.416   2.819   3.411  0.2562 -0.0919  0.7111
 7658TIP3    H122938   5.373   2.770   3.341  1.3162 -2.4252  1.5910
 7658TIP3    H222939   5.345   2.852   3.466 -0.5489  0.9311 -0.8748
 7659TIP3   OH222940   5.555   0.846   0.755  0.0615  0.4868 -0.0267
 7659TIP3    H122941   5.523   0.862   0.843  0.2425  1.9329 -0.2042
 7659TIP3    H222942   5.539   0.753   0.740  0.5846  0.0788  1.7486
 7660TIP3   OH222943   4.708   6.266   3.706  0.0260 -0.2735  0.1688
 7660TIP3    H122944   4.684   6.336   3.646  1.1260 -0.8871 -1.0200
 7660TIP3    H222945   4.624   6.233   3.739 -0.5150  1.6110  0.8058
 7661TIP3   OH222946   5.545   0.328   5.397 -0.7354  0.1297  0.0456
 7661TIP3    H122947   5.543   0.272   5.319 -1.6891  0.4278 -0.1559
 7661TIP3    H222948   5.600   0.402   5.371 -0.3033 -0.2134 -0.0307
 7662TIP3   OH222949   3.762   3.247   4.106 -0.1258 -0.1702  0.4209
 7662TIP3    H122950   3.792   3.162   4.138  0.2166 -0.1274  0.2288
 7662TIP3    H222951   3.668   3.248   4.123 -0.0854 -0.4779  0.6694
 7663TIP3   OH222952   4.767   5.694   3.229  0.9093  0.2367  0.3947
 7663TIP3    H122953   4.807   5.720   3.311  0.5624  2.2774 -0.0291
 7663TIP3    H222954   4.728   5.775   3.194 -1.0021 -1.0377 -0.6207
 7664TIP3   OH222955   1.421   1.036   4.410 -0.0235 -0.1045  0.7038
 7664TIP3    H122956   1.449   0.947   4.390 -0.8110 -0.2754  0.3120
 7664TIP3    H222957   1.456   1.088   4.338  2.5226  0.3465  2.1479
 7665TIP3   OH222958   1.238   4.453   1.608 -0.4407 -0.1726  0.1617
 7665TIP3    H122959   1.168   4.417   1.663 -1.2814 -1.0446 -1.4054
 7665TIP3    H222960   1.258   4.538   1.647 -0.7979 -0.8628  1.9546
 7666TIP3   OH222961   7.138   0.330   4.008  0.7116 -0.0632  0.2704
 7666TIP3    H122962   7.116   0.353   4.099  1.2736  1.3024  0.0912
 7666TIP3    H222963   7.196   0.255   4.016 -1.6248 -1.9217  0.8746
 7667TIP3   OH222964   2.394   0.319   5.068  0.3235  0.2031 -0.1813
 7667TIP3    H122965   2.471   0.316   5.011  1.3504  3.4150  0.8145
 7667TIP3    H222966   2.321   0.335   5.007  0.9654  0.5784 -0.8800
 7668TIP3   OH222967   4.790   3.939   5.076 -0.1335  0.5302  0.3215
 7668TIP3    H122968   4.722   3.877   5.105 -0.3077 -0.0900 -1.3232
 7668TIP3    H222969   4.858   3.933   5.144  0.0894 -1.8996 -0.0258
 7669TIP3   OH222970   4.319   1.576   0.986 -0.0539  0.2930  0.1379
 7669TIP3    H122971   4.375   1.550   1.059  1.0464  1.6558 -0.1774
 7669TIP3    H222972   4.236   1.600   1.026  0.1132 -0.2154  0.7921
 7670TIP3   OH222973   2.186   6.181   0.981  0.7681 -0.3172 -0.4649
 7670TIP3    H122974   2.227   6.246   1.037  1.6465 -0.7864 -0.5555
 7670TIP3    H222975   2.254   6.157   0.918  0.8929 -2.2774  0.3537
 7671TIP3   OH222976   1.455   0.652   4.573 -0.5997  0.0145  0.9467
 7671TIP3    H122977   1.485   0.735   4.610  0.3605  0.4919 -0.7992
 7671TIP3    H222978   1.409   0.677   4.493 -1.0042 -1.0978  0.8159
 7672TIP3   OH222979   4.928   6.394   1.568 -0.3733  0.0724 -0.0035
 7672TIP3    H122980   5.017   6.404   1.601 -0.2882 -2.1211  0.5530
 7672TIP3    H222981   4.927   6.444   1.486  1.7697 -0.9261 -0.7090
 7673TIP3   OH222982   4.860   4.092   0.701 -0.5847  0.0160  0.1282
 7673TIP3    H122983   4.803   4.016   0.712 -1.6068  0.6967 -0.2176
 7673TIP3    H222984   4.917   4.070   0.628 -1.3179 -0.1741 -0.3948
 7674TIP3   OH222985   4.600   2.512   3.949 -0.2246  0.2515 -0.1558
 7674TIP3    H122986   4.620   2.601   3.979 -1.2992 -0.1939  2.0985
 7674TIP3    H222987   4.514   2.520   3.908 -0.7340  0.1375  0.8537
 7675TIP3   OH222988   0.420   3.557   5.223  0.0360  0.0407 -0.4333
 7675TIP3    H122989   0.486   3.626   5.228  0.5284 -0.4607  3.1486
 7675TIP3    H222990   0.347   3.590   5.276 -0.8474 -1.0871 -0.9081
 7676TIP3   OH222991   0.361   0.206   0.928  0.4153 -0.5768  0.1804
 7676TIP3    H122992   0.335   0.127   0.880  1.8487 -0.9167 -0.1003
 7676TIP3    H222993   0.456   0.199   0.934  0.5345  0.9970  0.4076
 7677TIP3   OH222994   0.268   2.071   5.042 -0.2576 -0.4994 -0.4864
 7677TIP3    H122995   0.322   2.089   5.120  1.3999  3.3665 -2.2565
 7677TIP3    H222996   0.179   2.096   5.068  0.4883  1.9662 -0.0741
 7678TIP3   OH222997   0.739   2.885   4.187 -0.0623  0.0222 -0.3437
 7678TIP3    H122998   0.697   2.900   4.102  1.4086 -2.1627 -1.5547
 7678TIP3    H222999   0.796   2.810   4.172  1.1962  0.3557  2.2835
 7679TIP3   OH223000   4.274   1.293   2.331  0.1438  0.2947 -0.0562
 7679TIP3    H123001   4.260   1.205   2.365 -2.7250  0.4724 -0.5676
 7679TIP3    H223002   4.276   1.282   2.236 -1.1654  0.8575 -0.1635
 7680TIP3   OH223003   0.424   1.586   3.212  0.3743 -0.5898 -0.4677
 7680TIP3    H123004   0.468   1.519   3.159 -2.9418 -2.0797 -1.6207
 7680TIP3    H223005   0.375   1.536   3.277 -0.9948  0.8043 -0.3779
 7681TIP3   OH223006   4.654   1.113   5.355 -0.3311 -0.6174  0.3483
 7681TIP3    H123007   4.634   1.199   5.319 -2.2828 -1.7972 -1.7278
 7681TIP3    H223008   4.748   1.100   5.336  0.3798  1.5512  2.0500
 7682TIP3   OH223009   6.648   6.151   2.898  0.4680  0.0587 -0.3619
 7682TIP3    H123010   6.709   6.084   2.928 -1.0887 -1.3148 -0.1525
 7682TIP3    H223011   6.589   6.106   2.838 -1.3165  0.9441  0.6365
 7683TIP3   OH223012   2.069   6.671   2.996  0.5702 -0.2876 -0.0705
 7683TIP3    H123013   2.106   6.590   2.962  1.6672  0.3073 -0.3272
 7683TIP3    H223014   2.027   6.713   2.921  1.3690  0.1266 -0.2957
 7684TIP3   OH223015   7.103   0.546   1.784  0.2309  0.6207  0.7077
 7684TIP3    H123016   7.121   0.567   1.875 -0.9836 -1.3549  1.4635
 7684TIP3    H223017   7.081   0.452   1.784  1.4811  0.2236 -1.8093
 7685TIP3   OH223018   4.815   0.372   3.613  0.3847  0.2949 -0.0614
 7685TIP3    H123019   4.884   0.399   3.674  0.2933  0.0672  0.1444
 7685TIP3    H223020   4.860   0.361   3.529  0.6938 -0.3631  0.1865
 7686TIP3   OH223021   6.755   3.999   1.162  0.9618  0.7145  0.0017
 7686TIP3    H123022   6.765   3.966   1.073 -0.3803  1.7469 -0.5872
 7686TIP3    H223023   6.824   4.064   1.172 -0.1661  2.1669 -1.1296
 7687TIP3   OH223024   0.062   2.173   3.616 -0.3277 -0.0695  0.0281
 7687TIP3    H123025   0.142   2.195   3.567 -1.7173  0.9223 -1.9914
 7687TIP3    H223026   0.089   2.173   3.708  1.8857  0.6529 -0.5476
 7688TIP3   OH223027   4.448   6.823   2.183  0.0541 -0.0954 -0.5766
 7688TIP3    H123028   4.470   6.752   2.123  0.4433  0.2441 -0.8371
 7688TIP3    H223029   4.364   6.797   2.221  1.0383 -1.5829  0.6974
 7689TIP3   OH223030   4.937   2.401   4.873 -0.1634  0.5127  0.1675
 7689TIP3    H123031   4.871   2.408   4.943  0.1275  1.4646  0.3532
 7689TIP3    H223032   5.019   2.385   4.919 -0.2585 -0.7681 -0.0707
 7690TIP3   OH223033   5.252   4.637   5.431  0.2574  0.6946  0.4491
 7690TIP3    H123034   5.221   4.549   5.449 -1.1054  1.4513  2.1480
 7690TIP3    H223035   5.344   4.637   5.456 -0.3936  0.4177  3.1107
 7691TIP3   OH223036   7.218   6.722   0.072 -0.1143  0.2015 -0.3960
 7691TIP3    H123037   7.146   6.698   0.013 -0.0067 -1.6673  0.1636
 7691TIP3    H223038   7.175   6.770   0.143 -0.9740 -1.4608  0.2771
 7692TIP3   OH223039   4.802   2.564   5.424 -0.1160 -0.4054  0.0750
 7692TIP3    H123040   4.779   2.654   5.403  0.6077 -0.5013 -1.1803
 7692TIP3    H223041   4.826   2.524   5.340  1.8281 -1.1165  0.9097
 7693TIP3   OH223042   1.673   4.873   5.129  0.5439 -0.6748 -0.6559
 7693TIP3    H123043   1.735   4.944   5.149  0.0685 -0.3776 -0.2097
 7693TIP3    H223044   1.646   4.889   5.038  0.2088 -0.1035 -0.4591
 7694TIP3   OH223045   1.001   2.917   5.108 -0.3663  0.3501 -0.1652
 7694TIP3    H123046   0.907   2.930   5.121 -0.2949  0.7261  0.0125
 7694TIP3    H223047   1.011   2.823   5.092 -0.5157 -0.1394  2.2129
 7695TIP3   OH223048   5.592   2.121   4.671  0.0917 -0.1429 -0.0217
 7695TIP3    H123049   5.597   2.204   4.719  0.6359  0.6810 -1.4349
 7695TIP3    H223050   5.618   2.143   4.581 -1.7675 -1.4312 -0.9585
 7696TIP3   OH223051   1.627   4.401   1.269  0.4171 -0.8143 -0.2217
 7696TIP3    H123052   1.543   4.357   1.258 -0.3391  0.8265 -1.4282
 7696TIP3    H223053   1.625   4.473   1.207  2.9243 -0.9698 -0.5984
 7697TIP3   OH223054   2.986   0.128   2.587 -0.5246 -0.2883  0.4918
 7697TIP3    H123055   2.917   0.101   2.526 -0.1052 -2.5235  0.9112
 7697TIP3    H223056   3.014   0.046   2.628 -0.8687  1.1156  3.7940
 7698TIP3   OH223057   5.569   1.823   5.189 -0.0187  0.4516 -0.1170
 7698TIP3    H123058   5.531   1.765   5.123  1.9010 -1.4666  0.3659
 7698TIP3    H223059   5.641   1.773   5.227 -0.5046  1.8329  2.8677
 7699TIP3   OH223060   5.143   5.678   4.042  0.3882  0.2243  0.4397
 7699TIP3    H123061   5.088   5.692   4.119  3.2584 -0.6348  2.8681
 7699TIP3    H223062   5.126   5.588   4.015  0.2939  0.0860  0.9467
 7700TIP3   OH223063   4.547   5.891   2.677 -0.3861 -0.0872  0.2217
 7700TIP3    H123064   4.495   5.842   2.615 -0.9888 -0.5610  1.0797
 7700TIP3    H223065   4.604   5.826   2.718  0.0461  0.2294  0.1400
 7701TIP3   OH223066   4.374   2.800   1.972  0.4446 -0.6575 -0.2516
 7701TIP3    H123067   4.383   2.890   2.004 -0.4775 -0.4011 -0.6697
 7701TIP3    H223068   4.350   2.811   1.880 -2.3410 -1.2573  0.3361
 7702TIP3   OH223069   6.935   6.283   5.535 -0.0209  0.6757  0.8246
 7702TIP3    H123070   6.844   6.255   5.528 -0.3021  1.9613 -2.0245
 7702TIP3    H223071   6.986   6.204   5.516 -0.6933  0.7751 -1.7905
 7703TIP3   OH223072   1.058   3.230   2.893  0.3004  0.3727  0.6435
 7703TIP3    H123073   0.985   3.169   2.901 -1.0673  1.8958  0.2589
 7703TIP3    H223074   1.134   3.174   2.879 -0.6299 -1.3172  1.8930
 7704TIP3   OH223075   0.803   6.784   4.269 -0.6031  0.1137 -0.0360
 7704TIP3    H123076   0.748   6.781   4.347 -0.8612  0.3466 -0.2094
 7704TIP3    H223077   0.833   6.693   4.257  0.0089  0.2047  0.7366
 7705TIP3   OH223078   3.111   5.032   2.119 -0.4901  0.3105 -0.2863
 7705TIP3    H123079   3.151   4.945   2.114  3.3907  1.8919 -0.5313
 7705TIP3    H223080   3.143   5.068   2.203  0.4268  2.4704 -1.4719
 7706TIP3   OH223081   2.613   4.202   0.627 -0.5953  0.0628 -0.0558
 7706TIP3    H123082   2.583   4.170   0.542 -0.2605  0.6327 -0.3903
 7706TIP3    H223083   2.659   4.127   0.665 -1.9951 -0.6628  0.2605
 7707TIP3   OH223084   1.052   1.836   2.852 -0.2488 -0.3682 -0.2365
 7707TIP3    H123085   1.107   1.803   2.781  0.3807 -1.2096  0.6155
 7707TIP3    H223086   1.082   1.926   2.866 -0.9089  0.0899 -1.5251
 7708TIP3   OH223087   0.707   0.350   4.692 -0.0860 -0.5367 -0.5659
 7708TIP3    H123088   0.764   0.426   4.702 -1.1612  0.0577  1.4406
 7708TIP3    H223089   0.671   0.334   4.779 -1.1315 -2.3726 -1.2662
 7709TIP3   OH223090   6.100   5.416   2.710  0.3750  0.3407  0.4173
 7709TIP3    H123091   6.048   5.433   2.788 -0.7463 -0.6997 -0.0739
 7709TIP3    H223092   6.110   5.321   2.708 -2.1198 -0.0244 -2.1849
 7710TIP3   OH223093   0.539   4.841   3.994 -0.0053  0.1280  0.0161
 7710TIP3    H123094   0.454   4.885   3.998 -0.0194  0.0794  0.2565
 7710TIP3    H223095   0.521   4.757   3.953 -0.1541 -0.0738  0.4884
 7711TIP3   OH223096   1.786   4.329   2.615  0.3497  0.4760  0.6164
 7711TIP3    H123097   1.749   4.276   2.544 -1.4989  0.5524  1.4614
 7711TIP3    H223098   1.752   4.417   2.600  2.0222  1.0837  0.1887
 7712TIP3   OH223099   3.621   3.651   3.559 -0.0017  0.3062  0.8846
 7712TIP3    H123100   3.615   3.746   3.575  2.1285  0.3518  1.7022
 7712TIP3    H223101   3.710   3.628   3.585 -0.4241 -1.9155  0.5320
 7713TIP3   OH223102   3.447   5.061   4.529 -0.3736  0.3456  0.0940
 7713TIP3    H123103   3.375   5.010   4.491  1.4058 -1.6130 -0.8585
 7713TIP3    H223104   3.491   5.000   4.587 -0.3687  2.0065  1.9461
 7714TIP3   OH223105   4.849   5.756   1.918 -0.2210  0.0315 -0.0583
 7714TIP3    H123106   4.791   5.825   1.884 -1.2773  0.4587  2.3994
 7714TIP3    H223107   4.903   5.732   1.843 -1.7994  1.4741 -1.7791
 7715TIP3   OH223108   6.564   4.163   0.232 -0.0926  0.6736  0.2593
 7715TIP3    H123109   6.634   4.123   0.180  1.3708  0.9725  1.9161
 7715TIP3    H223110   6.587   4.255   0.236 -0.9250  0.8862  0.3504
 7716TIP3   OH223111   0.284   2.783   5.098  0.2077 -0.0901 -0.2843
 7716TIP3    H123112   0.325   2.705   5.135  0.0006 -0.1963 -0.2812
 7716TIP3    H223113   0.261   2.837   5.174  0.2536 -0.0738 -0.2817
 7717TIP3   OH223114   3.144   5.622   2.658  0.8052  0.0774 -0.2269
 7717TIP3    H123115   3.093   5.621   2.739 -0.1592  1.0104 -0.7858
 7717TIP3    H223116   3.214   5.685   2.674  0.1185  0.9077 -0.3747
 7718TIP3   OH223117   6.812   5.934   1.160  0.4196  0.1903 -0.9182
 7718TIP3    H123118   6.752   5.868   1.196  0.2123 -0.6925 -2.7706
 7718TIP3    H223119   6.896   5.887   1.151  0.6397  0.5895 -0.9815
 7719TIP3   OH223120   0.385   4.653   4.919 -0.3034  0.3879 -0.2145
 7719TIP3    H123121   0.472   4.686   4.942 -0.1176 -0.8742  1.0067
 7719TIP3    H223122   0.398   4.611   4.833  0.5393 -0.6213  0.3794
 7720TIP3   OH223123   5.229   3.782   1.077  0.0313 -0.3054  0.2358
 7720TIP3    H123124   5.281   3.704   1.058  0.6021 -0.2252  1.4010
 7720TIP3    H223125   5.177   3.795   0.998  0.3786 -1.5034 -0.2202
 7721TIP3   OH223126   4.644   0.643   4.913 -0.4556  0.0172 -0.6130
 7721TIP3    H123127   4.651   0.702   4.988  0.5503 -0.8600 -0.0009
 7721TIP3    H223128   4.717   0.669   4.856  0.7277 -1.3770  0.2134
 7722TIP3   OH223129   6.369   5.953   2.924 -0.1194  0.1465  0.2891
 7722TIP3    H123130   6.415   5.958   2.841 -1.1292 -2.3965 -0.5323
 7722TIP3    H223131   6.347   6.044   2.945  1.8116  1.0293 -1.2259
 7723TIP3   OH223132   1.716   6.177   5.356 -0.3507 -0.4577  0.0510
 7723TIP3    H123133   1.766   6.232   5.295 -0.1190  0.1306  0.7511
 7723TIP3    H223134   1.702   6.095   5.309  0.1167 -0.1395 -0.6620
 7724TIP3   OH223135   3.494   1.766   3.311  0.4034  0.3487  0.1081
 7724TIP3    H123136   3.530   1.706   3.247  0.7960  1.5492 -0.8400
 7724TIP3    H223137   3.552   1.757   3.387  1.2351  0.4637 -0.5002
 7725TIP3   OH223138   6.824   3.379   5.783 -0.3770  0.0795  0.2103
 7725TIP3    H123139   6.733   3.361   5.760 -0.0960 -0.2825 -0.6557
 7725TIP3    H223140   6.865   3.407   5.701  0.0670  1.2066  0.7884
 7726TIP3   OH223141   1.121   2.210   0.643  0.3848 -0.5336  0.2932
 7726TIP3    H123142   1.162   2.130   0.677 -0.5820 -1.2737 -0.2232
 7726TIP3    H223143   1.182   2.242   0.576  0.0409 -1.7689 -0.6530
 7727TIP3   OH223144   0.012   2.634   4.714 -0.4293 -0.2630 -0.9421
 7727TIP3    H123145   0.041   2.700   4.778  0.9774 -1.5026 -0.2398
 7727TIP3    H223146  -0.019   2.686   4.639  1.3480  1.2248 -0.7301
 7728TIP3   OH223147   1.220   2.209   5.759  0.7246 -0.3048 -0.1292
 7728TIP3    H123148   1.226   2.263   5.681 -3.7351 -0.9071 -1.1703
 7728TIP3    H223149   1.141   2.240   5.804 -0.6742 -4.2009  0.5179
 7729TIP3   OH223150   0.367   5.265   1.182  0.2135  0.0545 -0.4903
 7729TIP3    H123151   0.410   5.291   1.263 -1.6728 -0.5379  0.7678
 7729TIP3    H223152   0.341   5.174   1.196 -0.2795 -0.0143 -1.7005
 7730TIP3   OH223153   1.535   1.450   2.091  0.0800 -0.1810 -0.8673
 7730TIP3    H123154   1.457   1.501   2.114 -0.9574 -2.4951  1.0775
 7730TIP3    H223155   1.585   1.444   2.173  1.4082 -0.2641 -1.6542
 7731TIP3   OH223156   3.723   2.464   3.234  0.3020 -0.0904 -0.6998
 7731TIP3    H123157   3.751   2.478   3.324  0.1804  2.4630 -0.9776
 7731TIP3    H223158   3.713   2.370   3.226  0.5032 -0.3976  1.8879
 7732TIP3   OH223159   0.464   4.894   3.348  0.0500  0.4833  0.8253
 7732TIP3    H123160   0.501   4.965   3.401  1.6409  1.0545 -0.9451
 7732TIP3    H223161   0.538   4.837   3.330 -1.0770 -1.3157  1.6486
 7733TIP3   OH223162   1.864   0.248   1.427 -0.3867 -0.0625  0.3396
 7733TIP3    H123163   1.914   0.219   1.350 -0.0591  1.6431 -0.1241
 7733TIP3    H223164   1.861   0.171   1.484 -0.4574 -1.3120 -1.2764
 7734TIP3   OH223165   1.159   4.284   4.665  0.1023 -0.4702 -0.1727
 7734TIP3    H123166   1.134   4.257   4.753 -0.6087  0.0404 -0.2133
 7734TIP3    H223167   1.207   4.209   4.629  0.4137 -0.6701  0.6520
 7735TIP3   OH223168   1.548   6.275   0.847 -0.0907 -0.2668  0.1700
 7735TIP3    H123169   1.608   6.241   0.913 -1.1874  0.1665  1.4463
 7735TIP3    H223170   1.513   6.198   0.804  3.7099 -0.5629 -2.9428
 7736TIP3   OH223171   5.346   4.398   0.346  0.1035 -0.4617  0.7174
 7736TIP3    H123172   5.311   4.487   0.355  1.0674  0.0817 -0.6281
 7736TIP3    H223173   5.437   4.405   0.375  0.4149 -0.8319 -0.1603
 7737TIP3   OH223174   4.886   0.354   1.616 -0.4226 -0.4928  0.0377
 7737TIP3    H123175   4.852   0.275   1.659  1.3436 -1.0600  0.5031
 7737TIP3    H223176   4.980   0.337   1.607 -0.4709  0.3013 -2.6355
 7738TIP3   OH223177   3.599   1.424   0.756 -0.3365  0.3293  0.5891
 7738TIP3    H123178   3.542   1.388   0.823 -1.2500 -0.0589 -0.3558
 7738TIP3    H223179   3.538   1.462   0.691  0.4641 -0.1106 -0.4518
 7739TIP3   OH223180   1.016   5.576   0.964  0.2475  0.4566  0.5058
 7739TIP3    H123181   1.022   5.617   0.877 -2.7501  3.3362  1.4240
 7739TIP3    H223182   1.001   5.484   0.946 -1.4315  1.1350 -2.1504
 7740TIP3   OH223183   5.974   0.180   5.678  0.0979 -0.4537 -0.3876
 7740TIP3    H123184   6.066   0.185   5.652  0.3544 -3.4012 -0.3554
 7740TIP3    H223185   5.975   0.198   5.772  0.6154 -0.3949 -0.3999
 7741TIP3   OH223186   1.093   3.595   3.654  0.4370 -0.0309 -0.1251
 7741TIP3    H123187   1.034   3.649   3.706  2.3274  0.9380  1.1049
 7741TIP3    H223188   1.087   3.632   3.566 -1.5614 -0.6591 -0.3122
 7742TIP3   OH223189   3.897   4.445   3.485 -0.8203 -0.0574 -0.4542
 7742TIP3    H123190   3.903   4.536   3.456  3.3635  0.7530  2.0995
 7742TIP3    H223191   3.853   4.449   3.570 -0.2103 -0.2810 -0.1154
 7743TIP3   OH223192   0.562   0.305   3.538 -0.5574  0.4930 -0.1202
 7743TIP3    H123193   0.525   0.270   3.618  1.1391 -1.1312  0.0302
 7743TIP3    H223194   0.631   0.364   3.567 -1.1847  1.3780 -0.3961
 7744TIP3   OH223195   6.440   6.005   1.699 -0.1870  0.2921  0.3941
 7744TIP3    H123196   6.444   6.087   1.749 -1.8557 -0.4498  1.8665
 7744TIP3    H223197   6.532   5.985   1.678  0.4869  1.2388  2.2118
 7745TIP3   OH223198   2.368   3.993   3.010  0.1244 -0.1856  1.0035
 7745TIP3    H123199   2.365   3.943   2.928  2.1656  0.0450  0.7372
 7745TIP3    H223200   2.402   3.932   3.075  0.5868  0.2330  1.1665
 7746TIP3   OH223201   4.619   2.219   2.659  0.5308  0.1926 -0.4362
 7746TIP3    H123202   4.532   2.213   2.620  0.4307  2.4314 -0.6804
 7746TIP3    H223203   4.638   2.130   2.690 -1.9012 -0.3075 -0.2030
 7747TIP3   OH223204   0.256   3.597   0.641  0.1117  0.5303  0.0912
 7747TIP3    H123205   0.302   3.648   0.575  0.2536  1.4851  0.8950
 7747TIP3    H223206   0.287   3.632   0.725 -3.2218  2.4124  0.7241
 7748TIP3   OH223207   1.889   2.469   1.443 -0.2760  0.4733  0.4592
 7748TIP3    H123208   1.973   2.426   1.425  0.3392  1.5234  0.7575
 7748TIP3    H223209   1.851   2.418   1.515  0.1790  0.1012  0.4398
 7749TIP3   OH223210   6.188   6.679   0.558 -0.3078 -0.1430  0.1368
 7749TIP3    H123211   6.277   6.714   0.555  0.9924 -3.1590 -0.3722
 7749TIP3    H223212   6.187   6.620   0.634 -1.6511 -0.6934 -0.2665
 7750TIP3   OH223213   4.336   5.731   2.513 -0.0551 -0.1098  0.0896
 7750TIP3    H123214   4.262   5.770   2.560 -1.1828  0.7517 -2.2258
 7750TIP3    H223215   4.298   5.699   2.431  1.9412 -0.8350 -0.6240
 7751TIP3   OH223216   3.985   2.396   1.807  0.5803 -0.3958  0.2088
 7751TIP3    H123217   3.924   2.396   1.881  0.8098 -1.1001  0.4010
 7751TIP3    H223218   3.994   2.489   1.783 -0.5497 -0.2782  0.1861
 7752TIP3   OH223219   5.303   1.770   0.784  0.0495  0.8683 -0.3673
 7752TIP3    H123220   5.212   1.796   0.766  0.4326  2.1648 -0.5659
 7752TIP3    H223221   5.344   1.765   0.698 -0.0189 -0.5141 -0.3350
 7753TIP3   OH223222   5.155   3.258   2.016  0.5543  0.0691  0.0556
 7753TIP3    H123223   5.202   3.310   1.951  1.4445  0.0836  0.6974
 7753TIP3    H223224   5.081   3.313   2.041 -0.2690 -0.2618 -1.5063
 7754TIP3   OH223225   4.116   3.998   2.619  0.2250  0.2486  0.5036
 7754TIP3    H123226   4.024   4.002   2.646  0.4787 -1.2603  1.7401
 7754TIP3    H223227   4.164   3.974   2.699  1.7781  1.4886  0.0019
 7755TIP3   OH223228   4.611   0.741   1.913  0.4506 -0.4116 -0.4381
 7755TIP3    H123229   4.694   0.709   1.878  0.1779 -1.1018 -0.4749
 7755TIP3    H223230   4.589   0.680   1.983  0.0198 -0.1736 -0.3615
 7756TIP3   OH223231   4.312   3.865   3.267  0.2989  0.2419 -0.0158
 7756TIP3    H123232   4.363   3.829   3.340  1.3315  2.7266  0.5751
 7756TIP3    H223233   4.360   3.943   3.240 -1.0954  0.4422 -2.1222
 7757TIP3   OH223234   3.581   2.021   4.438  0.0545 -0.0602  0.7085
 7757TIP3    H123235   3.529   1.989   4.512 -0.1086  1.2636  1.1873
 7757TIP3    H223236   3.637   2.089   4.475  0.0546  0.5415 -0.3518
 7758TIP3   OH223237   4.071   3.506   3.054 -0.0827 -0.1400  0.5712
 7758TIP3    H123238   4.047   3.540   2.968 -0.0388  1.0483  1.0049
 7758TIP3    H223239   4.114   3.423   3.037 -0.3592 -0.0662 -0.5271
 7759TIP3   OH223240   0.452   0.796   5.236 -0.3075 -0.3971 -0.0310
 7759TIP3    H123241   0.534   0.837   5.208 -1.6206  1.3075 -1.6579
 7759TIP3    H223242   0.463   0.784   5.331  1.9821 -0.7068 -0.2691
 7760TIP3   OH223243   3.885   5.666   3.684 -0.1153  0.3392 -0.3728
 7760TIP3    H123244   3.837   5.656   3.766 -0.1698 -0.0898 -0.4553
 7760TIP3    H223245   3.899   5.577   3.653 -1.3145  0.5221 -1.5333
 7761TIP3   OH223246   4.772   1.094   4.278 -0.9625 -0.7228  0.0281
 7761TIP3    H123247   4.788   1.148   4.355 -0.4506  0.2357 -0.7203
 7761TIP3    H223248   4.802   1.007   4.302  0.6586 -0.0928  0.4052
 7762TIP3   OH223249   1.227   2.499   5.298 -0.2008 -0.0639 -0.1691
 7762TIP3    H123250   1.319   2.505   5.271 -0.1143 -0.4975  0.0251
 7762TIP3    H223251   1.179   2.475   5.219 -0.2604  0.9652 -0.4608
 7763TIP3   OH223252   0.489   4.045   2.109  0.5507 -0.2684  0.1732
 7763TIP3    H123253   0.515   4.101   2.182  0.2974 -1.8984  1.5894
 7763TIP3    H223254   0.473   4.105   2.037 -1.6599  1.6953  2.1306
 7764TIP3   OH223255   5.979   2.880   0.937  0.4117 -0.3244  0.2628
 7764TIP3    H123256   6.064   2.881   0.980  0.2212  0.4849  0.6466
 7764TIP3    H223257   5.940   2.964   0.960 -1.2422 -1.3963  1.5940
 7765TIP3   OH223258   6.670   0.448   0.891  0.0632  0.1412 -1.3081
 7765TIP3    H123259   6.758   0.486   0.900 -0.2612  0.4355  1.0913
 7765TIP3    H223260   6.640   0.479   0.805  0.4065  4.1558 -0.1823
 7766TIP3   OH223261   1.658   4.305   2.304  0.0956 -0.4257 -0.6866
 7766TIP3    H123262   1.664   4.400   2.315 -0.6024 -0.4786  0.2390
 7766TIP3    H223263   1.597   4.292   2.231 -0.9228 -0.1754  0.0992
 7767TIP3   OH223264   6.954   2.806   5.135 -0.3532  0.0902 -0.4931
 7767TIP3    H123265   6.990   2.838   5.052 -0.0924  0.8389 -0.1035
 7767TIP3    H223266   7.030   2.806   5.195 -0.9193  1.4603  0.2782
 7768TIP3   OH223267   0.064   3.608   5.144 -0.1180 -0.8080 -0.0248
 7768TIP3    H123268   0.146   3.605   5.194 -1.1023 -0.8200  1.6775
 7768TIP3    H223269   0.065   3.693   5.100  0.3591 -0.3820  0.7888
 7769TIP3   OH223270   3.900   5.993   5.773 -0.0998 -0.2185  0.0106
 7769TIP3    H123271   3.961   5.937   5.725 -1.0594  0.6433 -2.4330
 7769TIP3    H223272   3.814   5.955   5.754 -0.5580  0.5045  0.6030
 7770TIP3   OH223273   2.108   1.785   3.164  0.2303  0.6576 -0.9111
 7770TIP3    H123274   2.025   1.745   3.191  1.2547 -0.6413  0.5206
 7770TIP3    H223275   2.110   1.869   3.209  0.0269  0.3754 -0.3714
 7771TIP3   OH223276   3.979   4.478   5.322  0.4896  0.5275 -0.0934
 7771TIP3    H123277   3.918   4.429   5.267 -1.5306  1.3086  1.3531
 7771TIP3    H223278   4.034   4.411   5.363 -0.6336 -0.3586 -0.0083
 7772TIP3   OH223279   4.565   6.693   5.607 -0.2523  0.3608 -0.7830
 7772TIP3    H123280   4.472   6.673   5.594 -0.5674  0.7863  0.6433
 7772TIP3    H223281   4.599   6.618   5.655 -0.3428  1.0529  0.4153
 7773TIP3   OH223282   4.460   5.466   3.614 -0.2156  0.1018  0.2159
 7773TIP3    H123283   4.391   5.400   3.609  1.1761 -1.3809 -0.0472
 7773TIP3    H223284   4.477   5.491   3.523 -0.5079  0.6202  0.2939
 7774TIP3   OH223285   1.578   1.212   1.298  0.5850  0.5391 -0.2675
 7774TIP3    H123286   1.509   1.277   1.304  0.5856  0.5406 -0.2759
 7774TIP3    H223287   1.574   1.165   1.381  0.7608  0.7250 -0.1527
 7775TIP3   OH223288   5.349   2.207   5.221  0.2949 -0.0103  0.0782
 7775TIP3    H123289   5.304   2.162   5.292  0.6714 -0.7714 -0.1564
 7775TIP3    H223290   5.322   2.299   5.230 -0.4264 -0.2647  0.6002
 7776TIP3   OH223291   7.012   2.828   4.868  0.1230 -0.1017  0.9255
 7776TIP3    H123292   7.101   2.861   4.858  1.4690 -3.6151 -0.7427
 7776TIP3    H223293   6.965   2.866   4.794  0.2590  1.5220  1.6270
 7777TIP3   OH223294   2.944   4.478   1.475  0.6259  0.0842 -0.2130
 7777TIP3    H123295   2.868   4.535   1.484  0.0515 -0.2943 -2.1113
 7777TIP3    H223296   2.909   4.389   1.485  0.5153 -0.1670 -2.2414
 7778TIP3   OH223297   5.439   0.498   1.055 -0.7711 -0.0793 -0.2245
 7778TIP3    H123298   5.494   0.478   1.130  0.3054  0.0852 -0.9451
 7778TIP3    H223299   5.392   0.578   1.080 -0.1895  0.1486  0.1577
 7779TIP3   OH223300   6.193   1.970   3.832  0.0089  0.0744  0.8017
 7779TIP3    H123301   6.181   1.875   3.830 -1.1263  0.2111  0.7508
 7779TIP3    H223302   6.249   1.988   3.756 -1.7052 -0.3040 -0.6039
 7780TIP3   OH223303   4.477   2.017   5.754 -0.2708  0.1996 -0.2995
 7780TIP3    H123304   4.421   1.957   5.704 -0.5388 -0.2216  0.4901
 7780TIP3    H223305   4.417   2.060   5.815 -0.0644  1.2164 -0.7995
 7781TIP3   OH223306   5.513   3.567   0.355  0.0210  0.1646  0.0631
 7781TIP3    H123307   5.436   3.611   0.319 -0.3644 -0.0401  0.6403
 7781TIP3    H223308   5.585   3.629   0.342 -0.3292  0.5441 -0.0489
 7782TIP3   OH223309   6.471   2.245   1.383  0.6101  0.5004  0.6522
 7782TIP3    H123310   6.407   2.305   1.422 -1.4891 -0.7542 -0.6735
 7782TIP3    H223311   6.467   2.166   1.437 -0.3845 -0.2686 -0.4975
 7783TIP3   OH223312   6.877   0.874   0.952 -0.0528  0.6087  0.3558
 7783TIP3    H123313   6.819   0.950   0.966  0.0389  1.0780 -1.5460
 7783TIP3    H223314   6.928   0.897   0.874  0.2817 -1.2448 -0.0101
 7784TIP3   OH223315   2.972   5.283   2.925 -0.5622 -0.2086 -0.0158
 7784TIP3    H123316   2.922   5.291   3.007 -0.9384 -0.3948 -0.2248
 7784TIP3    H223317   3.055   5.327   2.943  0.2537 -2.0988  1.1983
 7785TIP3   OH223318   6.893   2.095   0.323  0.0216 -0.0124 -0.3883
 7785TIP3    H123319   6.842   2.028   0.368 -1.6157  2.1990  1.2875
 7785TIP3    H223320   6.976   2.098   0.369 -0.3844 -0.0105  0.3521
 7786TIP3   OH223321   3.322   3.801   0.386  0.2063 -0.2321  0.0444
 7786TIP3    H123322   3.327   3.865   0.457 -0.5209  0.2646 -0.3501
 7786TIP3    H223323   3.411   3.797   0.350  0.2032  0.7187 -0.0765
 7787TIP3   OH223324   6.554   1.475   5.035 -0.6093  0.0160 -0.2273
 7787TIP3    H123325   6.537   1.429   5.118 -0.3500 -2.3301 -1.4024
 7787TIP3    H223326   6.637   1.521   5.051  0.5035 -2.0172  0.2513
 7788TIP3   OH223327   2.954   1.795   1.489  0.9691  0.6857  0.3488
 7788TIP3    H123328   2.874   1.839   1.460  2.0173  1.6746 -1.2312
 7788TIP3    H223329   2.972   1.832   1.576  0.7429  1.9093 -0.1062
 7789TIP3   OH223330   3.299   0.587   4.417  0.3814 -0.0633 -0.1679
 7789TIP3    H123331   3.385   0.568   4.454  0.1544 -0.6094  0.1007
 7789TIP3    H223332   3.314   0.658   4.355  1.4601 -1.6952 -1.8705
 7790TIP3   OH223333   6.154   1.961   5.529 -0.9660  0.1393 -0.6018
 7790TIP3    H123334   6.119   2.050   5.532 -0.2976  0.3978  2.0764
 7790TIP3    H223335   6.219   1.964   5.459  2.1819  3.1427  2.0375
 7791TIP3   OH223336   6.564   5.970   5.770 -0.3386 -0.0992  0.1476
 7791TIP3    H123337   6.644   6.021   5.759 -0.9045  0.5794 -1.0446
 7791TIP3    H223338   6.572   5.900   5.705 -1.5059  1.0456 -1.2915
 7792TIP3   OH223339   4.097   2.373   0.344  0.1281  0.0709 -0.4012
 7792TIP3    H123340   4.103   2.290   0.297  1.1929 -0.5466  0.8043
 7792TIP3    H223341   4.097   2.350   0.436 -3.3242  1.1620  0.0429
 7793TIP3   OH223342   1.026   4.617   0.096 -0.1916  0.2404  0.5757
 7793TIP3    H123343   0.976   4.568   0.161  1.4975 -2.2244  0.1314
 7793TIP3    H223344   0.972   4.693   0.077 -3.0776 -1.5266  1.1653
 7794TIP3   OH223345   0.147   4.232   2.748  0.0440 -0.0921  0.2526
 7794TIP3    H123346   0.107   4.319   2.737  0.4703  0.1382  0.5152
 7794TIP3    H223347   0.241   4.249   2.754  0.2536 -0.6888 -1.0043
 7795TIP3   OH223348   4.529   0.141   0.126 -0.3006  0.4254 -0.2453
 7795TIP3    H123349   4.517   0.118   0.218  2.0191 -0.0419  0.0063
 7795TIP3    H223350   4.445   0.122   0.085 -0.6977 -1.6000  1.3375
 7796TIP3   OH223351   1.819   4.580   0.551 -0.6139 -0.1357  0.2929
 7796TIP3    H123352   1.911   4.573   0.529 -0.7578  0.5246 -0.5742
 7796TIP3    H223353   1.818   4.609   0.643  0.0547  0.6744  0.0550
 7797TIP3   OH223354   3.539   0.460   4.536  0.2555 -0.2383  0.1363
 7797TIP3    H123355   3.621   0.507   4.554  0.1380  0.4954 -1.1289
 7797TIP3    H223356   3.566   0.369   4.524  0.5705 -0.4139  1.9778
 7798TIP3   OH223357   1.662   6.735   5.904 -0.6002  0.0153  0.4626
 7798TIP3    H123358   1.636   6.765   5.817  0.0594 -1.1792 -0.1856
 7798TIP3    H223359   1.595   6.670   5.927  0.7166 -1.7701 -0.4444
 7799TIP3   OH223360   2.472   5.122   5.832  0.1520  0.3150  0.3792
 7799TIP3    H123361   2.512   5.047   5.878  0.2988  1.1507  1.6755
 7799TIP3    H223362   2.463   5.092   5.742 -0.4517 -1.5458  0.9876
 7800TIP3   OH223363   5.783   2.211   2.115 -0.1395  0.5379  0.0820
 7800TIP3    H123364   5.708   2.154   2.129  1.6222 -2.1984 -0.7507
 7800TIP3    H223365   5.835   2.204   2.195 -0.8226  2.6028  0.7564
 7801TIP3   OH223366   3.632   5.056   0.468 -0.0555 -0.4976 -0.4354
 7801TIP3    H123367   3.678   5.112   0.406 -0.6570 -0.3166 -0.7327
 7801TIP3    H223368   3.695   4.990   0.493  0.0160 -0.9326 -1.7185
 7802TIP3   OH223369   3.776   6.081   0.469 -0.0316  0.5702  0.3629
 7802TIP3    H123370   3.751   6.065   0.560  1.4616  0.5611  0.7946
 7802TIP3    H223371   3.764   5.996   0.426  0.0590  0.3543  0.7536
 7803TIP3   OH223372   6.655   2.274   1.824 -0.3527  0.4951  0.2204
 7803TIP3    H123373   6.646   2.181   1.801 -0.2487  0.5645 -0.1120
 7803TIP3    H223374   6.671   2.274   1.918  0.2637  0.1353  0.1227
 7804TIP3   OH223375   6.255   5.925   2.345 -0.4381  0.7296 -0.4378
 7804TIP3    H123376   6.239   5.846   2.294  1.1662  2.0090 -3.1781
 7804TIP3    H223377   6.347   5.918   2.371 -1.0364  0.4433  1.8221
 7805TIP3   OH223378   0.049   4.715   0.052 -0.0447 -0.0667  0.1832
 7805TIP3    H123379  -0.014   4.687   0.119 -1.2842  0.8059 -0.5722
 7805TIP3    H223380   0.018   4.673  -0.028  1.8330 -1.6843  0.2285
 7806TIP3   OH223381   3.312   0.798   4.743  0.2604  0.1626 -0.0411
 7806TIP3    H123382   3.360   0.767   4.666 -0.9073  1.4006 -1.3333
 7806TIP3    H223383   3.372   0.858   4.787  0.4407  0.5520 -0.8076
 7807TIP3   OH223384   1.071   2.212   4.417 -0.3850  0.0161  0.1353
 7807TIP3    H123385   1.144   2.178   4.365 -1.0617 -0.0853 -0.7730
 7807TIP3    H223386   1.087   2.306   4.422 -0.0840 -0.0333  0.1239
 7808TIP3   OH223387   1.321   1.397   3.813  0.1737  0.4508 -0.7983
 7808TIP3    H123388   1.407   1.371   3.845 -0.8492 -0.6113  1.3001
 7808TIP3    H223389   1.278   1.314   3.790 -0.6857  0.8735 -0.7572
 7809TIP3   OH223390   0.050   5.002   4.010 -0.2860 -0.0856  0.7150
 7809TIP3    H123391   0.002   4.920   4.023  0.0614 -1.0189 -2.7631
 7809TIP3    H223392   0.020   5.033   3.925  3.6009  0.4174 -0.6675
 7810TIP3   OH223393   1.047   1.432   4.198 -0.0629  0.3631  0.0493
 7810TIP3    H123394   1.083   1.500   4.255 -1.7381  1.2933  0.0479
 7810TIP3    H223395   0.979   1.477   4.147 -2.4766 -1.6543  1.3034
 7811TIP3   OH223396   1.393   3.762   0.016  0.1803  0.1576  0.2206
 7811TIP3    H123397   1.482   3.768  -0.019  0.7074  2.2673  1.6768
 7811TIP3    H223398   1.406   3.730   0.106 -0.7039 -0.9467 -0.0287
 7812TIP3   OH223399   6.368   5.013   3.697 -0.0387  0.4121 -0.2777
 7812TIP3    H123400   6.323   4.934   3.728  0.4225  0.1888 -0.1712
 7812TIP3    H223401   6.307   5.053   3.635 -1.3171  1.2567  1.4224
 7813TIP3   OH223402   5.996   1.412   4.069 -0.2671  0.7317 -0.3247
 7813TIP3    H123403   6.044   1.412   4.152 -1.1849 -0.4603  0.2239
 7813TIP3    H223404   5.925   1.475   4.082 -0.2409  0.7607 -0.3201
 7814TIP3   OH223405   1.003   5.291   1.555 -0.1729  0.0383  0.5187
 7814TIP3    H123406   0.968   5.203   1.565 -0.4959  0.2324  1.1735
 7814TIP3    H223407   1.026   5.318   1.645  0.5215  0.3776  0.2516
 7815TIP3   OH223408   6.879   0.519   0.441  0.4228  0.9331 -0.2400
 7815TIP3    H123409   6.973   0.532   0.429  0.6124 -0.7311 -0.8614
 7815TIP3    H223410   6.874   0.455   0.512 -0.2003  0.4693 -0.6953
 7816TIP3   OH223411   0.719   0.498   1.330  0.0823  0.1595 -0.0146
 7816TIP3    H123412   0.744   0.584   1.296 -1.6249  1.0489  0.8512
 7816TIP3    H223413   0.637   0.477   1.287 -1.8397  1.0536  2.9180
 7817TIP3   OH223414   2.458   4.790   3.240  0.1909 -0.0082  0.1338
 7817TIP3    H123415   2.428   4.750   3.158  1.0753  1.5797 -1.0103
 7817TIP3    H223416   2.501   4.719   3.287 -0.0086 -0.8668 -0.9401
 7818TIP3   OH223417   7.197   6.371   2.983 -0.0445 -0.0655 -0.2261
 7818TIP3    H123418   7.140   6.311   2.936  0.3052 -0.0733 -0.6424
 7818TIP3    H223419   7.266   6.393   2.921 -0.2345  0.8656 -0.1234
 7819TIP3   OH223420   6.948   1.658   0.834  0.3746  0.3358  0.7745
 7819TIP3    H123421   6.944   1.601   0.911  2.1663 -2.5731 -1.0869
 7819TIP3    H223422   6.976   1.600   0.763  0.1463  3.1531 -1.8088
 7820TIP3   OH223423   7.001   5.098   3.299 -0.5550 -0.4560 -0.4613
 7820TIP3    H123424   6.988   5.190   3.323  3.0286  0.6965 -2.2357
 7820TIP3    H223425   6.939   5.084   3.227 -0.3573  0.9783 -0.9487
 7821TIP3   OH223426   2.067   3.234   0.041  0.3010 -0.0640  0.2217
 7821TIP3    H123427   2.045   3.168  -0.025 -2.1468 -2.1233  2.8549
 7821TIP3    H223428   2.006   3.306   0.025  0.3332 -0.1463 -0.2857
 7822TIP3   OH223429   6.100   3.878   2.383 -0.1356 -0.3279 -0.0879
 7822TIP3    H123430   6.086   3.923   2.467 -0.1227  0.9415 -0.7419
 7822TIP3    H223431   6.024   3.902   2.330 -1.5238 -3.2432  0.3854
 7823TIP3   OH223432   5.464   3.797   4.582  0.2146 -0.1602 -0.4977
 7823TIP3    H123433   5.474   3.866   4.647 -1.5194  1.2587 -1.6310
 7823TIP3    H223434   5.467   3.715   4.632 -0.4716  0.8572  1.2919
 7824TIP3   OH223435   4.785   0.233   2.768  0.6022 -0.2007 -0.2566
 7824TIP3    H123436   4.812   0.256   2.679  1.8702  0.8949  0.3811
 7824TIP3    H223437   4.694   0.264   2.773  0.7766  0.4739 -0.9178
 7825TIP3   OH223438   2.332   1.494   4.154  0.5417 -0.6088 -0.6148
 7825TIP3    H123439   2.342   1.411   4.201  1.8018 -0.4031 -0.4598
 7825TIP3    H223440   2.370   1.559   4.214  0.4343 -0.0669 -1.1306
 7826TIP3   OH223441   7.032   0.737   5.444 -0.1005 -0.4049 -0.9113
 7826TIP3    H123442   6.982   0.663   5.480 -2.2340  1.6795  0.6727
 7826TIP3    H223443   7.095   0.696   5.385 -1.2187 -3.4814 -0.1632
 7827TIP3   OH223444   1.967   3.645   1.483  0.0125 -0.3767  0.4204
 7827TIP3    H123445   1.875   3.620   1.490 -0.1914  0.0279 -0.6889
 7827TIP3    H223446   2.010   3.597   1.554 -0.8381 -1.5448  0.1646
 7828TIP3   OH223447   2.869   1.539   3.996 -0.4036 -0.2520 -0.2026
 7828TIP3    H123448   2.812   1.464   3.984 -0.3336 -0.6433  1.6530
 7828TIP3    H223449   2.846   1.574   4.082 -1.2542  2.5881 -1.4686
 7829TIP3   OH223450   5.229   4.735   2.492 -0.0461 -0.4119 -0.0904
 7829TIP3    H123451   5.297   4.801   2.475 -0.3690  0.2760  1.1404
 7829TIP3    H223452   5.207   4.700   2.406  1.5182 -0.2986 -0.5669
 7830TIP3   OH223453   3.406   0.174   2.739  0.4826  0.9018  0.3208
 7830TIP3    H123454   3.394   0.145   2.829  2.5281  0.2626  0.4417
 7830TIP3    H223455   3.341   0.243   2.727 -0.3086  0.5171  2.0388
 7831TIP3   OH223456   6.660   6.807   1.572 -0.0053 -0.1383 -0.1665
 7831TIP3    H123457   6.632   6.722   1.539  0.8796 -0.5673  0.1630
 7831TIP3    H223458   6.648   6.801   1.667  1.8752 -0.6171  0.0777
 7832TIP3   OH223459   1.084   0.111   3.545 -0.6204  0.5117  0.3608
 7832TIP3    H123460   1.109   0.064   3.625  0.0431 -0.3199 -0.3300
 7832TIP3    H223461   0.989   0.098   3.539 -1.0307  2.2149  2.0441
 7833TIP3   OH223462   4.869   2.860   2.965 -0.2074  0.2236  0.2114
 7833TIP3    H123463   4.964   2.848   2.956 -0.1196  0.2440  1.0752
 7833TIP3    H223464   4.832   2.773   2.946 -0.0535  0.3268 -0.5891
 7834TIP3   OH223465   1.797   5.292   3.342 -0.0800  0.4229 -0.0954
 7834TIP3    H123466   1.862   5.270   3.276 -0.4631  0.9156 -0.6493
 7834TIP3    H223467   1.739   5.355   3.298 -0.6507  0.3445  0.5355
 7835TIP3   OH223468   5.369   0.279   4.060 -0.6971  0.0393  0.1916
 7835TIP3    H123469   5.394   0.203   4.113  0.6305 -0.1885 -0.7119
 7835TIP3    H223470   5.329   0.340   4.122  0.0537 -0.5732  1.3022
 7836TIP3   OH223471   3.397   5.110   1.384  0.5673 -0.2033  0.2642
 7836TIP3    H123472   3.372   5.185   1.330 -0.3779 -0.9611 -0.3752
 7836TIP3    H223473   3.397   5.144   1.473 -0.1041  0.4905  0.0106
 7837TIP3   OH223474   3.772   0.199   5.413  0.2725  0.0174  0.5671
 7837TIP3    H123475   3.867   0.191   5.415  0.3450  0.7540  0.4168
 7837TIP3    H223476   3.754   0.249   5.333 -0.1656  0.7761  1.1279
 7838TIP3   OH223477   1.559   3.716   1.692 -0.0543  0.2247 -0.3592
 7838TIP3    H123478   1.610   3.650   1.738 -1.4133 -0.6167 -0.0052
 7838TIP3    H223479   1.495   3.666   1.641 -1.6110  1.2402  0.5101
 7839TIP3   OH223480   0.040   6.286   2.303 -0.2787 -0.2510  0.2603
 7839TIP3    H123481   0.045   6.321   2.392 -0.0608 -2.8058  1.3268
 7839TIP3    H223482  -0.028   6.339   2.261 -1.1700  0.3115  2.2863
 7840TIP3   OH223483   4.122   5.866   2.592 -0.0287  0.5368 -0.5729
 7840TIP3    H123484   4.050   5.803   2.600  0.1618  0.1743 -1.5381
 7840TIP3    H223485   4.107   5.929   2.662 -0.3196 -0.4946  0.3178
 7841TIP3   OH223486   1.295   3.642   2.128 -0.0402  0.2680  0.1569
 7841TIP3    H123487   1.333   3.704   2.065  0.5801  1.0141  1.2342
 7841TIP3    H223488   1.364   3.627   2.192 -0.1459 -1.6484 -0.1339
 7842TIP3   OH223489   2.935   1.990   3.179 -0.0717  0.5089 -0.1215
 7842TIP3    H123490   2.891   1.955   3.256  1.1700 -1.6035 -0.3072
 7842TIP3    H223491   2.887   1.953   3.105  0.3144  0.4335 -0.3374
 7843TIP3   OH223492   2.772   0.171   5.333 -0.0652  0.1142  0.1516
 7843TIP3    H123493   2.764   0.265   5.352  2.0266  0.3691  0.0014
 7843TIP3    H223494   2.766   0.165   5.238  1.0132  0.2627  0.0652
 7844TIP3   OH223495   7.229   6.118   0.996 -0.4680 -0.8096  0.3325
 7844TIP3    H123496   7.137   6.131   1.018 -0.7510 -0.7989 -0.7876
 7844TIP3    H223497   7.233   6.129   0.901  0.6025 -1.3115  0.3001
 7845TIP3   OH223498   5.365   6.461   2.623 -0.2017  0.4314 -0.0892
 7845TIP3    H123499   5.408   6.377   2.640  1.6001  1.0468 -1.2785
 7845TIP3    H223500   5.281   6.456   2.669 -0.4437 -2.2740 -0.6893
 7846TIP3   OH223501   2.357   5.823   0.792 -0.1741  0.0941 -0.5542
 7846TIP3    H123502   2.451   5.813   0.803 -0.2343  0.0130 -0.0715
 7846TIP3    H223503   2.327   5.737   0.761  0.0013  0.3297 -1.4166
 7847TIP3   OH223504   3.232   3.953   5.109 -0.1490  0.1950  0.5379
 7847TIP3    H123505   3.225   4.022   5.043 -1.6635 -0.5118 -0.1010
 7847TIP3    H223506   3.266   3.878   5.061 -0.8899 -0.2111  0.6268
 7848TIP3   OH223507   3.661   2.475   0.588  0.1740 -0.0879 -0.0187
 7848TIP3    H123508   3.585   2.440   0.540 -0.1949  0.7840 -0.0961
 7848TIP3    H223509   3.626   2.496   0.675  0.6837 -1.0475  0.4207
 7849TIP3   OH223510   4.931   4.908   2.334 -0.0923 -0.3889  0.5382
 7849TIP3    H123511   4.856   4.966   2.320  0.8126  0.4270 -1.3840
 7849TIP3    H223512   5.005   4.957   2.299  1.3449 -1.2178  2.3011
 7850TIP3   OH223513   1.323   0.493   3.491  0.3213 -0.2895 -0.9410
 7850TIP3    H123514   1.239   0.525   3.458 -0.2077 -0.5797  0.0838
 7850TIP3    H223515   1.361   0.445   3.417  0.1296  0.8113 -1.7910
 7851TIP3   OH223516   2.639   6.446   0.693  0.4001  0.2845  0.4063
 7851TIP3    H123517   2.719   6.425   0.741  0.1631 -0.4011  0.5096
 7851TIP3    H223518   2.658   6.530   0.651  1.6259 -0.4254 -0.5546
 7852TIP3   OH223519   0.705   6.112   0.957  0.0066  0.0835 -0.2617
 7852TIP3    H123520   0.756   6.169   1.015 -1.0463  0.9100 -0.1213
 7852TIP3    H223521   0.621   6.101   1.002  0.4190 -2.2487  0.1009
 7853TIP3   OH223522   0.016   4.549   3.768 -0.5855  0.1647  0.4878
 7853TIP3    H123523  -0.015   4.461   3.790  0.7436 -0.7227 -0.9874
 7853TIP3    H223524   0.043   4.586   3.852 -0.7522 -1.0160  1.0848
 7854TIP3   OH223525   4.606   2.289   4.116  0.0560 -0.4838 -0.6971
 7854TIP3    H123526   4.590   2.347   4.191  1.3634  0.0039 -0.7604
 7854TIP3    H223527   4.626   2.348   4.044  3.9233 -0.8984 -0.1783
 7855TIP3   OH223528   2.482   0.809   3.680  0.0006  0.2591  0.3648
 7855TIP3    H123529   2.465   0.903   3.679  1.2060  0.5144  1.1359
 7855TIP3    H223530   2.453   0.780   3.766 -1.0792 -0.2449 -0.1474
 7856TIP3   OH223531   4.574   0.780   3.929 -0.2490 -0.2101  0.0803
 7856TIP3    H123532   4.615   0.767   4.015  0.1406  2.2148  0.3204
 7856TIP3    H223533   4.541   0.693   3.906  1.3619 -1.3675  1.7687
 7857TIP3   OH223534   5.349   2.277   2.545 -0.1640 -0.0791  0.1211
 7857TIP3    H123535   5.255   2.260   2.535 -0.1871 -0.1854  0.5053
 7857TIP3    H223536   5.354   2.365   2.583 -0.2729 -1.4487  3.6869
 7858TIP3   OH223537   2.252   2.798   3.587  0.1461  0.4513  0.2992
 7858TIP3    H123538   2.225   2.886   3.561  0.9218  0.5444 -0.2550
 7858TIP3    H223539   2.238   2.795   3.681 -2.9401  0.0451 -0.0909
 7859TIP3   OH223540   3.531   4.273   3.033  0.1782 -0.2289  0.0287
 7859TIP3    H123541   3.506   4.350   3.084 -1.7442 -0.7535 -0.0235
 7859TIP3    H223542   3.525   4.200   3.094  1.7559 -0.4043  0.0153
 7860TIP3   OH223543   1.963   4.720   4.362 -0.3338  0.1564  0.5168
 7860TIP3    H123544   2.026   4.738   4.431  0.7013 -0.6139 -0.1995
 7860TIP3    H223545   1.978   4.629   4.339 -0.6034  0.4216 -0.7843
 7861TIP3   OH223546   6.561   2.629   5.376  0.3310 -0.2466  0.4901
 7861TIP3    H123547   6.545   2.562   5.310  0.5114 -2.2879  2.4087
 7861TIP3    H223548   6.475   2.667   5.393  0.0746 -0.6199  0.0421
 7862TIP3   OH223549   4.444   3.297   3.612 -0.3575 -0.0935 -0.1311
 7862TIP3    H123550   4.389   3.343   3.549 -2.3692  0.9570  2.2368
 7862TIP3    H223551   4.400   3.213   3.626  0.4161 -0.5790 -0.5496
 7863TIP3   OH223552   2.033   2.137   0.794  0.2162  0.1060 -0.0855
 7863TIP3    H123553   2.019   2.107   0.705 -0.7882 -0.8171  0.3684
 7863TIP3    H223554   1.954   2.186   0.817 -0.2884 -1.0855  0.8528
 7864TIP3   OH223555   1.846   2.396   4.798  0.8281  0.3391  0.1312
 7864TIP3    H123556   1.754   2.387   4.776  0.9207  1.3090 -0.7481
 7864TIP3    H223557   1.854   2.360   4.887 -0.1970 -0.6187 -0.1465
 7865TIP3   OH223558   4.997   4.633   4.543 -0.0129 -0.0122 -0.0908
 7865TIP3    H123559   5.093   4.634   4.545 -0.0129  0.8868  0.5966
 7865TIP3    H223560   4.974   4.542   4.528  0.9455 -0.5982  1.7021
 7866TIP3   OH223561   3.716   2.978   5.739  0.5330  0.2622  0.6362
 7866TIP3    H123562   3.635   3.025   5.761 -0.6447 -1.8126  1.0410
 7866TIP3    H223563   3.688   2.911   5.677  1.9782 -0.4261  0.6845
 7867TIP3   OH223564   3.144   5.580   3.721  0.1694  0.9377  0.1075
 7867TIP3    H123565   3.161   5.518   3.792  0.7513 -1.1240 -1.7278
 7867TIP3    H223566   3.094   5.530   3.656  0.7276  2.3426 -1.4931
 7868TIP3   OH223567   6.748   6.357   0.542 -0.2084  0.2860  0.4622
 7868TIP3    H123568   6.655   6.375   0.552 -0.1896  0.1611  0.8850
 7868TIP3    H223569   6.762   6.354   0.448 -0.9605 -1.3935  0.3708
 7869TIP3   OH223570   2.931   2.052   3.565 -0.2993  0.6211  0.0548
 7869TIP3    H123571   2.970   2.131   3.603  0.0462 -0.1187  1.2908
 7869TIP3    H223572   2.969   1.980   3.615 -0.8996 -0.3162 -0.7967
 7870TIP3   OH223573   6.584   2.244   4.400  0.0562  0.4095  0.3173
 7870TIP3    H123574   6.602   2.249   4.306 -1.2118 -0.6545 -0.0123
 7870TIP3    H223575   6.512   2.182   4.407 -0.4548  1.1318  1.9260
 7871TIP3   OH223576   7.182   5.421   0.766  0.1890 -0.5005 -0.7144
 7871TIP3    H123577   7.152   5.403   0.678  0.9469  0.1724 -1.1216
 7871TIP3    H223578   7.117   5.379   0.823  0.3943 -2.0917 -1.5875
 7872TIP3   OH223579   0.634   0.344   5.663  0.6088 -0.1591 -0.3476
 7872TIP3    H123580   0.662   0.410   5.727  1.0362  0.5090 -1.2176
 7872TIP3    H223581   0.711   0.289   5.650  1.2077  0.9718 -1.8515
 7873TIP3   OH223582   2.128   1.383   3.204 -0.6339 -0.5989  0.5082
 7873TIP3    H123583   2.107   1.439   3.129 -2.2536  1.6366  2.4832
 7873TIP3    H223584   2.184   1.438   3.259  0.3230 -2.1121  1.0886
 7874TIP3   OH223585   5.601   2.446   4.489  0.1937  0.0760  0.0332
 7874TIP3    H123586   5.636   2.437   4.578 -0.6788 -1.7789  0.2549
 7874TIP3    H223587   5.519   2.494   4.501  0.2110  0.0673  0.1927
 7875TIP3   OH223588   1.388   1.159   4.953 -0.4236  0.1937  0.5073
 7875TIP3    H123589   1.332   1.082   4.968  0.2826 -0.7901 -1.5298
 7875TIP3    H223590   1.459   1.150   5.017 -0.1689 -1.0763  0.0796
 7876TIP3   OH223591   0.923   6.692   3.725 -0.1630  0.0078 -0.1887
 7876TIP3    H123592   0.923   6.630   3.798  1.6590 -0.8574 -0.8537
 7876TIP3    H223593   0.875   6.768   3.758 -1.6891 -1.3913  0.9513
 7877TIP3   OH223594   3.263   1.743   3.868  0.5302 -0.4112  0.1246
 7877TIP3    H123595   3.348   1.744   3.912 -0.3402  2.0801  1.9919
 7877TIP3    H223596   3.236   1.651   3.870  3.1171 -1.2399 -0.4876
 7878TIP3   OH223597   2.574   3.182   2.578 -0.2641  0.6419 -0.2979
 7878TIP3    H123598   2.481   3.183   2.604  0.7358  1.1089  3.9820
 7878TIP3    H223599   2.611   3.107   2.625  1.8097  1.2768 -0.8380
 7879TIP3   OH223600   5.197   6.482   0.096  0.2080  0.4020 -0.6949
 7879TIP3    H123601   5.120   6.507   0.146 -2.2372 -2.2123 -2.8324
 7879TIP3    H223602   5.236   6.411   0.146 -1.0239 -0.8098 -1.4029
 7880TIP3   OH223603   5.581   6.610   3.409  0.5294 -0.5529 -0.0637
 7880TIP3    H123604   5.495   6.636   3.374  1.1216  2.6330  0.5496
 7880TIP3    H223605   5.632   6.589   3.332  0.3348  1.5297 -0.8401
 7881TIP3   OH223606   1.447   4.648   3.361  0.2755  0.3742  0.6637
 7881TIP3    H123607   1.358   4.641   3.393  0.0266 -0.2777 -0.1406
 7881TIP3    H223608   1.483   4.560   3.371  0.3413  0.2730 -0.3873
 7882TIP3   OH223609   3.638   6.037   4.956 -0.0738 -0.1948  0.3715
 7882TIP3    H123610   3.580   6.011   4.885 -1.5472 -0.9867  1.7888
 7882TIP3    H223611   3.718   6.068   4.913 -0.3364 -2.0373 -1.5464
 7883TIP3   OH223612   2.844   2.592   1.107  1.0173  0.2267 -0.0355
 7883TIP3    H123613   2.754   2.615   1.081 -0.1683 -0.9239  2.6412
 7883TIP3    H223614   2.867   2.659   1.171  1.1470 -0.7406  0.9559
 7884TIP3   OH223615   4.319   1.289   2.059  0.0267 -0.3139 -0.0034
 7884TIP3    H123616   4.303   1.288   1.964 -1.6309 -2.5951  0.2290
 7884TIP3    H223617   4.328   1.382   2.080 -3.2304  0.5973 -1.8905
 7885TIP3   OH223618   5.736   2.921   3.940  0.4302 -1.0902 -0.4140
 7885TIP3    H123619   5.666   2.878   3.988 -0.1716 -0.7259 -0.9358
 7885TIP3    H223620   5.701   2.930   3.851  0.2648  1.0143 -0.1887
 7886TIP3   OH223621   1.454   3.288   0.427 -0.1502  0.6004  0.3588
 7886TIP3    H123622   1.458   3.269   0.334 -0.1778  0.8201  0.3136
 7886TIP3    H223623   1.532   3.341   0.444  0.9260 -1.0450  0.8298
 7887TIP3   OH223624   6.755   3.695   5.273  0.0431 -0.3840  0.1604
 7887TIP3    H123625   6.846   3.721   5.255 -0.1191 -0.6803 -1.2053
 7887TIP3    H223626   6.737   3.730   5.360  0.4011  2.5787 -0.8400
 7888TIP3   OH223627   5.956   6.798   2.719  0.1989  0.1229  0.0586
 7888TIP3    H123628   5.989   6.778   2.631  1.8695  1.1191  0.4230
 7888TIP3    H223629   5.866   6.829   2.704  0.5252  0.4766 -1.3252
 7889TIP3   OH223630   5.594   6.666   5.002 -0.2788  0.4709  0.1261
 7889TIP3    H123631   5.647   6.717   5.063  0.5095  1.5475 -1.3731
 7889TIP3    H223632   5.540   6.732   4.957  0.5721  0.0267 -1.6743
 7890TIP3   OH223633   0.816   1.587   4.174  0.3194  0.4918 -0.7144
 7890TIP3    H123634   0.839   1.586   4.267 -0.7066 -1.2003 -0.4364
 7890TIP3    H223635   0.722   1.607   4.173  1.0341  4.9276 -1.6889
 7891TIP3   OH223636   0.849   5.277   4.718  0.1213 -0.3403 -0.1931
 7891TIP3    H123637   0.874   5.346   4.656  2.1434 -1.0075 -0.1911
 7891TIP3    H223638   0.898   5.200   4.690 -1.1902 -1.4986  0.5098
 7892TIP3   OH223639   3.992   2.836   2.010  0.3239 -0.3857  0.2459
 7892TIP3    H123640   3.926   2.884   2.060  1.0567 -0.1687  1.0237
 7892TIP3    H223641   4.032   2.777   2.073  4.1470  2.7062  1.1472
 7893TIP3   OH223642   4.711   2.104   5.389 -0.2146 -0.6740 -0.1183
 7893TIP3    H123643   4.782   2.095   5.452 -0.2565 -2.6789 -0.2919
 7893TIP3    H223644   4.631   2.100   5.442 -0.2846  2.1065  0.1403
 7894TIP3   OH223645   1.275   6.176   2.486  0.1431 -0.3358 -0.0989
 7894TIP3    H123646   1.330   6.246   2.522  0.1521 -0.4018  0.0183
 7894TIP3    H223647   1.292   6.177   2.392  1.0897 -1.0003  0.0500
 7895TIP3   OH223648   5.108   5.745   3.700  0.3677 -0.4065  0.5354
 7895TIP3    H123649   5.023   5.709   3.725 -0.2167 -0.7961 -1.8027
 7895TIP3    H223650   5.087   5.829   3.658  1.1473 -0.5146 -0.0827
 7896TIP3   OH223651   0.661   5.524   4.224 -0.3666  0.4936  0.0965
 7896TIP3    H123652   0.586   5.492   4.174  0.6444  0.4543 -1.4622
 7896TIP3    H223653   0.718   5.566   4.159 -0.0632  2.5288  1.5693
 7897TIP3   OH223654   1.563   5.074   1.656  0.5023  0.4262  0.1678
 7897TIP3    H123655   1.499   5.140   1.683 -0.1104 -0.0049 -0.1802
 7897TIP3    H223656   1.533   5.047   1.569  0.9582 -0.0374  0.1510
 7898TIP3   OH223657   2.766   3.063   0.229  0.7257  0.0209 -0.0135
 7898TIP3    H123658   2.695   3.025   0.280 -0.4617  1.0357 -0.8483
 7898TIP3    H223659   2.796   2.991   0.173  1.3261 -0.7989  1.3266
 7899TIP3   OH223660   4.768   2.886   0.187 -0.7082  0.0271  0.6118
 7899TIP3    H123661   4.855   2.870   0.152 -0.8460 -0.3225  0.4267
 7899TIP3    H223662   4.712   2.891   0.110 -0.9985 -0.6555  0.7727
 7900TIP3   OH223663   4.152   5.159   0.098  0.1409 -0.7947  0.1840
 7900TIP3    H123664   4.104   5.101   0.040 -0.3770 -0.9108  0.7181
 7900TIP3    H223665   4.130   5.128   0.186 -1.0526  0.9129  0.5305
 7901TIP3   OH223666   5.808   5.163   0.967 -0.1299 -0.0381 -0.7347
 7901TIP3    H123667   5.871   5.191   1.034  0.3168 -1.7099 -0.4067
 7901TIP3    H223668   5.853   5.093   0.920 -1.2260 -0.2927 -1.4380
 7902TIP3   OH223669   3.950   5.209   3.457 -0.0887  0.6514  0.1191
 7902TIP3    H123670   3.936   5.142   3.524  2.5910  1.0586  1.2104
 7902TIP3    H223671   4.005   5.166   3.391  0.2881  1.3039  0.0007
 7903TIP3   OH223672   0.276   5.911   0.515 -0.0797  0.3956 -0.2323
 7903TIP3    H123673   0.219   5.855   0.570  0.7427 -0.0014  0.2418
 7903TIP3    H223674   0.215   5.964   0.464 -0.8858 -0.4379 -0.1707
 7904TIP3   OH223675   4.815   3.638   2.280  0.0963  0.5606 -0.2877
 7904TIP3    H123676   4.884   3.589   2.235 -1.0640 -0.7061 -0.7534
 7904TIP3    H223677   4.824   3.613   2.372 -0.6374 -0.7807 -0.5540
 7905TIP3   OH223678   4.546   1.352   4.769 -0.1830 -0.2412 -0.0207
 7905TIP3    H123679   4.567   1.436   4.808 -1.2626 -0.1698  0.4340
 7905TIP3    H223680   4.583   1.287   4.829  1.1316 -0.1027 -0.6540
 7906TIP3   OH223681   5.482   5.119   2.146  0.2228  0.0431 -0.0905
 7906TIP3    H123682   5.531   5.192   2.184 -1.4781 -0.1697  2.8027
 7906TIP3    H223683   5.548   5.054   2.124  1.5447  1.3689 -0.2218
 7907TIP3   OH223684   5.656   4.521   3.124 -0.4934  0.2662  0.0198
 7907TIP3    H123685   5.645   4.432   3.157  1.7530 -0.1187 -0.0854
 7907TIP3    H223686   5.712   4.564   3.189 -2.3197  1.9416  0.5575
 7908TIP3   OH223687   2.894   0.713   0.861  0.9537  0.3497  0.2929
 7908TIP3    H123688   2.816   0.705   0.806  0.0514  0.2353  1.5415
 7908TIP3    H223689   2.958   0.757   0.805  0.6364 -1.1995 -1.3685
 7909TIP3   OH223690   5.652   6.436   1.292  0.0722 -0.1690 -0.2747
 7909TIP3    H123691   5.629   6.522   1.328 -1.5963 -1.0200  0.8733
 7909TIP3    H223692   5.667   6.381   1.369  1.2964 -0.8874 -0.9915
 7910TIP3   OH223693   2.899   4.384   4.406 -0.1274 -0.0773  0.4314
 7910TIP3    H123694   2.809   4.368   4.438  0.3796  0.1454  2.0711
 7910TIP3    H223695   2.906   4.479   4.403 -0.1244 -0.0972 -0.2682
 7911TIP3   OH223696   3.495   1.144   0.240  0.5113  0.3652  0.6323
 7911TIP3    H123697   3.446   1.081   0.188  0.1512  1.2927 -0.1772
 7911TIP3    H223698   3.436   1.219   0.250  1.1825  0.8617  0.9723
 7912TIP3   OH223699   2.608   0.064   5.614  0.5692 -0.1597 -0.0584
 7912TIP3    H123700   2.696   0.066   5.651  1.2337  1.6564 -1.5804
 7912TIP3    H223701   2.613   0.120   5.537 -2.0362  0.3320  0.0367
 7913TIP3   OH223702   0.366   3.471   1.836 -0.3549 -0.1132  0.3145
 7913TIP3    H123703   0.409   3.538   1.784 -1.5441  0.1873 -0.3350
 7913TIP3    H223704   0.421   3.461   1.913  1.2013 -0.2180 -0.7593
 7914TIP3   OH223705   6.962   3.228   2.133 -0.2507  0.2178 -0.0564
 7914TIP3    H123706   6.958   3.133   2.122 -1.7608  0.4265 -2.0344
 7914TIP3    H223707   6.987   3.260   2.046 -3.3931  1.7386 -0.5512
 7915TIP3   OH223708   3.029   3.681   1.744 -0.2387 -0.4254 -0.3400
 7915TIP3    H123709   3.018   3.603   1.799 -1.0666 -0.0049  0.1207
 7915TIP3    H223710   2.979   3.661   1.664 -0.4283 -0.3857 -0.2333
 7916TIP3   OH223711   2.262   3.468   1.328  0.6256  0.3906 -0.8413
 7916TIP3    H123712   2.289   3.392   1.276  2.2079  1.7698 -2.1885
 7916TIP3    H223713   2.212   3.522   1.267  0.5134  0.9775 -0.2437
 7917TIP3   OH223714   6.453   0.979   3.157 -0.3056 -0.2885  0.3989
 7917TIP3    H123715   6.362   0.954   3.139 -0.1467 -0.5291 -0.0845
 7917TIP3    H223716   6.463   1.063   3.113 -0.3279 -0.2099  0.5453
 7918TIP3   OH223717   0.605   5.865   3.691  0.0531 -0.2367  0.2225
 7918TIP3    H123718   0.606   5.931   3.621 -0.1954  0.2678  0.6871
 7918TIP3    H223719   0.657   5.904   3.761  2.1602 -1.6657 -0.4836
 7919TIP3   OH223720   1.826   6.622   1.925 -0.3397 -0.0214 -0.1282
 7919TIP3    H123721   1.773   6.551   1.960 -1.1074  0.1800 -0.8787
 7919TIP3    H223722   1.764   6.689   1.899  0.2946  0.3453 -0.7429
 7920TIP3   OH223723   1.784   0.593   2.318 -0.5853 -0.4298 -0.5979
 7920TIP3    H123724   1.725   0.661   2.350 -1.6324 -1.9954  0.9915
 7920TIP3    H223725   1.793   0.611   2.224 -0.5635  2.0325 -0.1903
 7921TIP3   OH223726   0.572   2.694   3.118  0.1398  0.0415  0.8195
 7921TIP3    H123727   0.634   2.690   3.191  1.0400  2.6340  0.3178
 7921TIP3    H223728   0.517   2.617   3.128  0.5649  0.0282  3.9250
 7922TIP3   OH223729   7.122   3.362   4.009  0.4490 -0.3249  0.0226
 7922TIP3    H123730   7.137   3.333   3.919 -1.3095  0.7423 -0.6815
 7922TIP3    H223731   7.174   3.303   4.063  0.0719 -2.2321 -1.5733
 7923TIP3   OH223732   2.229   1.610   1.979  0.4523  1.1094 -0.1398
 7923TIP3    H123733   2.287   1.562   2.039 -0.4687  0.2621  0.1170
 7923TIP3    H223734   2.157   1.639   2.035  0.5415  1.9960 -0.4852
 7924TIP3   OH223735   1.306   6.577   3.673  0.1449 -0.3128 -0.0854
 7924TIP3    H123736   1.235   6.540   3.622 -0.3301  0.2050  0.1843
 7924TIP3    H223737   1.326   6.511   3.739  1.1477 -1.2284 -1.2629
 7925TIP3   OH223738   6.142   1.479   0.167 -0.0221  0.1352  0.1505
 7925TIP3    H123739   6.174   1.559   0.209  0.2475 -0.3789  0.9354
 7925TIP3    H223740   6.186   1.478   0.082 -0.5109  1.1418 -0.1363
 7926TIP3   OH223741   1.498   0.639   1.628 -0.1202 -0.2742 -0.3331
 7926TIP3    H123742   1.505   0.609   1.719  0.3296  0.3754 -0.1423
 7926TIP3    H223743   1.459   0.726   1.635  3.2523  1.4216 -0.4124
 7927TIP3   OH223744   3.534   2.726   1.946  0.0528  0.1291 -0.3202
 7927TIP3    H123745   3.557   2.634   1.933  1.1652  0.4209 -0.5484
 7927TIP3    H223746   3.509   2.757   1.859 -1.6615 -0.2806 -0.0098
 7928TIP3   OH223747   1.804   5.850   3.457  0.2232  0.0733 -0.1545
 7928TIP3    H123748   1.854   5.920   3.500  1.5999 -1.7451  1.3633
 7928TIP3    H223749   1.856   5.829   3.379  0.1434  0.2998 -0.2707
 7929TIP3   OH223750   0.979   5.886   1.222  0.2486 -0.6683  0.3852
 7929TIP3    H123751   0.941   5.943   1.289  0.0083 -2.1621  1.5752
 7929TIP3    H223752   0.907   5.829   1.195  0.2445  0.0993 -1.4381
 7930TIP3   OH223753   5.641   2.827   5.110 -0.2490  0.3657  0.0237
 7930TIP3    H123754   5.731   2.850   5.090 -0.3030  1.1126  0.5963
 7930TIP3    H223755   5.595   2.832   5.026  0.6076 -1.9733 -0.6706
 7931TIP3   OH223756   3.474   6.209   2.360 -0.4674 -0.2557 -0.2183
 7931TIP3    H123757   3.433   6.150   2.423 -0.1695 -0.2542 -0.0182
 7931TIP3    H223758   3.534   6.262   2.413  0.2562 -0.6887 -0.5901
 7932TIP3   OH223759   5.953   6.604   4.101  0.1627 -0.0069  0.1159
 7932TIP3    H123760   6.017   6.560   4.046  0.9462  1.0305  0.1739
 7932TIP3    H223761   5.980   6.585   4.190  0.2411  0.2140  0.1405
 7933TIP3   OH223762   4.178   6.248   2.292 -0.3218  0.2909 -0.4412
 7933TIP3    H123763   4.159   6.206   2.208  2.0107 -0.3035 -0.7520
 7933TIP3    H223764   4.227   6.327   2.268  2.6793 -1.1724  0.3032
 7934TIP3   OH223765   2.851   0.435   2.669  0.4167  0.2566  0.0114
 7934TIP3    H123766   2.914   0.506   2.654  0.8340 -0.2556 -0.6986
 7934TIP3    H223767   2.766   0.478   2.668  0.7316  0.9436  0.8937
 7935TIP3   OH223768   2.449   4.547   2.705 -0.6129  0.2476 -0.2024
 7935TIP3    H123769   2.489   4.519   2.788 -0.2898  2.0155  0.2960
 7935TIP3    H223770   2.522   4.547   2.643 -0.2717  1.3437  0.1662
 7936TIP3   OH223771   1.870   1.653   4.888  0.0067 -0.5794 -0.1188
 7936TIP3    H123772   1.847   1.694   4.804  1.0107 -0.8680 -0.5560
 7936TIP3    H223773   1.902   1.725   4.942 -1.0785 -0.3155  0.1972
 7937TIP3   OH223774   6.804   2.335   1.051 -0.2733 -0.1056  0.3723
 7937TIP3    H123775   6.796   2.430   1.064  1.2938  0.1170 -0.0665
 7937TIP3    H223776   6.735   2.314   0.988  0.5212  1.0942 -0.9717
 7938TIP3   OH223777   6.773   4.289   4.323  0.2077  0.2844  0.1055
 7938TIP3    H123778   6.743   4.374   4.353 -1.5594 -0.0280 -0.6517
 7938TIP3    H223779   6.769   4.294   4.227  0.7842 -0.4027  0.0344
 7939TIP3   OH223780   1.573   4.396   3.948  0.1583 -0.2677 -0.5925
 7939TIP3    H123781   1.581   4.302   3.964  1.5483 -0.0999 -0.1869
 7939TIP3    H223782   1.539   4.431   4.031  0.2261 -0.3409 -0.5330
 7940TIP3   OH223783   0.798   0.921   1.499 -0.2822 -0.4095 -0.2850
 7940TIP3    H123784   0.712   0.943   1.534  0.1010 -0.3468  0.6603
 7940TIP3    H223785   0.834   0.859   1.563  0.7364  0.2632 -0.1883
 7941TIP3   OH223786   5.203   1.746   2.546  0.0664  0.3801 -0.1370
 7941TIP3    H123787   5.129   1.803   2.527  1.1017  2.2221  1.0103
 7941TIP3    H223788   5.174   1.694   2.621 -0.4886  0.1767 -0.4821
 7942TIP3   OH223789   0.020   5.207   3.422 -0.6637  0.1709  0.0072
 7942TIP3    H123790   0.096   5.160   3.388 -0.6833  0.6780 -0.7672
 7942TIP3    H223791  -0.055   5.154   3.396 -0.7118  0.7794 -1.1872
 7943TIP3   OH223792   1.679   4.823   3.280 -0.1061  0.5880 -0.3851
 7943TIP3    H123793   1.598   4.776   3.296 -0.1474  0.0245 -2.0743
 7943TIP3    H223794   1.652   4.911   3.252 -0.2173  0.0212 -2.1716
 7944TIP3   OH223795   3.646   1.191   2.724 -0.1121  0.4164  0.3516
 7944TIP3    H123796   3.733   1.203   2.761 -1.1245  0.1363  3.0111
 7944TIP3    H223797   3.627   1.098   2.733 -0.3776  0.2992 -1.0555
 7945TIP3   OH223798   4.843   3.186   1.573 -0.1708  0.0456 -0.0736
 7945TIP3    H123799   4.874   3.193   1.664  1.6548 -0.4967 -0.6079
 7945TIP3    H223800   4.771   3.124   1.578  0.2505 -0.3997  0.9478
 7946TIP3   OH223801   1.183   0.484   5.763  1.0231  0.2109 -0.1658
 7946TIP3    H123802   1.226   0.400   5.777 -0.0031 -0.4857 -1.0799
 7946TIP3    H223803   1.158   0.484   5.671  1.2952  1.6772 -0.2788
 7947TIP3   OH223804   4.530   5.929   5.058  0.3738 -0.0138  0.5488
 7947TIP3    H123805   4.547   5.964   4.971 -0.8811 -0.9942 -0.1276
 7947TIP3    H223806   4.463   5.862   5.044 -0.0483 -0.0037  2.3119
 7948TIP3   OH223807   1.752   4.476   1.571 -0.0165  0.4468  0.0895
 7948TIP3    H123808   1.804   4.457   1.649  0.0752 -0.4086 -0.1654
 7948TIP3    H223809   1.682   4.410   1.573  0.8406 -0.5654 -1.3236
 7949TIP3   OH223810   5.233   6.365   0.337 -0.1324 -0.0053  0.4260
 7949TIP3    H123811   5.322   6.365   0.373 -0.0546  0.2419  0.2383
 7949TIP3    H223812   5.178   6.390   0.411 -0.0802 -0.4444  0.6181
 7950TIP3   OH223813   1.088   1.517   4.974 -0.3981  0.0888 -0.0472
 7950TIP3    H123814   1.022   1.482   5.034  0.9615  0.2800  1.6411
 7950TIP3    H223815   1.171   1.505   5.020  0.6081  1.1869 -1.4752
 7951TIP3   OH223816   3.723   2.711   3.600  0.2416 -0.3652  0.2435
 7951TIP3    H123817   3.637   2.672   3.616 -0.2908  0.5406 -0.3967
 7951TIP3    H223818   3.784   2.649   3.640 -0.7667 -0.4638  1.7093
 7952TIP3   OH223819   6.714   5.283   0.538 -0.0865  0.2790 -0.1312
 7952TIP3    H123820   6.789   5.267   0.481 -1.0663 -1.2067 -1.0773
 7952TIP3    H223821   6.647   5.223   0.506 -0.9491 -0.0249  2.0731
 7953TIP3   OH223822   0.359   2.186   5.791 -0.7770 -0.3633  0.7569
 7953TIP3    H123823   0.349   2.160   5.700 -0.1077 -0.0404  0.5841
 7953TIP3    H223824   0.342   2.106   5.841  0.4499 -0.9420  0.2758
 7954TIP3   OH223825   6.535   0.433   0.644 -0.2648 -0.1201  0.1943
 7954TIP3    H123826   6.449   0.391   0.649 -0.9737  1.4119  2.4236
 7954TIP3    H223827   6.541   0.465   0.554 -1.6022 -1.0778 -0.2630
 7955TIP3   OH223828   0.814   6.547   3.949 -0.0739  0.1077  0.4757
 7955TIP3    H123829   0.771   6.466   3.921  2.6072 -0.9529 -0.8874
 7955TIP3    H223830   0.836   6.531   4.041  2.2950 -1.6690 -0.3216
 7956TIP3   OH223831   5.473   3.245   2.862  0.5022 -0.7587 -0.4786
 7956TIP3    H123832   5.525   3.184   2.913 -1.8022 -1.4955  1.1381
 7956TIP3    H223833   5.419   3.290   2.926 -1.7149 -0.9097 -2.1202
 7957TIP3   OH223834   2.180   1.671   4.444  0.0640 -0.1562 -0.0100
 7957TIP3    H123835   2.185   1.738   4.512 -0.0272 -1.5968  1.4841
 7957TIP3    H223836   2.116   1.705   4.382 -0.5702  0.7999  1.1088
 7958TIP3   OH223837   2.753   4.609   4.199 -0.0020 -0.2981 -0.2869
 7958TIP3    H123838   2.694   4.639   4.268  0.5931 -0.0152  0.1086
 7958TIP3    H223839   2.819   4.678   4.193 -0.4906  0.0879 -1.7103
 7959TIP3   OH223840   4.016   2.212   2.651 -0.4011 -0.3929  0.4336
 7959TIP3    H123841   4.086   2.180   2.708 -1.1450 -1.8124  0.6011
 7959TIP3    H223842   4.054   2.210   2.563  0.0224 -0.3752  0.6166
 7960TIP3   OH223843   2.798   2.506   3.101  0.4886  0.0302 -0.0496
 7960TIP3    H123844   2.821   2.596   3.122 -1.0266  0.3647  0.2956
 7960TIP3    H223845   2.738   2.479   3.171  1.0205 -1.2904 -0.0771
 7961TIP3   OH223846   3.986   0.887   3.368  0.0089  0.0665 -0.4550
 7961TIP3    H123847   4.054   0.953   3.381 -0.2646  0.6401 -1.8338
 7961TIP3    H223848   4.034   0.807   3.347  0.3350 -0.1733  1.0829
 7962TIP3   OH223849   6.698   1.169   3.455 -0.1803 -0.0304 -1.0017
 7962TIP3    H123850   6.697   1.148   3.548 -0.0838 -0.5311 -1.1129
 7962TIP3    H223851   6.783   1.139   3.424  1.3263  3.2666 -0.5437
 7963TIP3   OH223852   5.033   4.632   2.298 -0.0111  0.1904 -0.2774
 7963TIP3    H123853   5.016   4.638   2.204  0.2913 -0.6299 -0.3983
 7963TIP3    H223854   4.981   4.702   2.337 -0.3617  0.3590 -1.0278
 7964TIP3   OH223855   3.384   4.230   2.016 -0.0941  0.0461  0.1585
 7964TIP3    H123856   3.396   4.195   2.105  0.2168  1.1576  0.5690
 7964TIP3    H223857   3.289   4.231   2.004 -0.2235  1.1879  1.0412
 7965TIP3   OH223858   3.080   4.790   5.746  0.1030  0.0045  0.4812
 7965TIP3    H123859   3.132   4.723   5.789 -0.0529 -0.3397  0.1371
 7965TIP3    H223860   3.091   4.773   5.653  0.3444  0.6717  0.3837
 7966TIP3   OH223861   1.453   4.117   2.517  0.3053  0.2368  0.2854
 7966TIP3    H123862   1.489   4.051   2.458  1.7691  1.6009 -0.4358
 7966TIP3    H223863   1.457   4.077   2.604  1.1536 -0.6173 -0.1392
 7967TIP3   OH223864   0.061   5.833   2.034  0.3606  0.2205 -0.6326
 7967TIP3    H123865   0.079   5.897   1.965 -0.8909  1.7479  0.3990
 7967TIP3    H223866  -0.022   5.792   2.006  0.3906  0.0976 -0.5412
 7968TIP3   OH223867   1.005   5.813   5.153  0.2154  0.0451  0.2640
 7968TIP3    H123868   1.099   5.795   5.153  0.3287  0.5967  0.1611
 7968TIP3    H223869   0.998   5.901   5.114 -0.3306  0.0536  0.3749
 7969TIP3   OH223870   6.594   5.576   4.167 -0.4087 -0.1665  0.1019
 7969TIP3    H123871   6.643   5.579   4.249 -0.5731 -0.3237  0.2060
 7969TIP3    H223872   6.505   5.552   4.193 -0.4665 -0.1934 -0.1203
 7970TIP3   OH223873   5.856   3.938   1.272 -0.8198  0.4469 -0.1747
 7970TIP3    H123874   5.934   3.904   1.227  0.3381  1.2560  1.1314
 7970TIP3    H223875   5.791   3.948   1.203  0.3633  0.1071 -1.3763
 7971TIP3   OH223876   3.434   6.720   1.628 -0.2395 -0.1524 -0.0031
 7971TIP3    H123877   3.358   6.761   1.586 -0.9784 -0.9727  0.4841
 7971TIP3    H223878   3.403   6.631   1.650  1.2381 -0.9180 -0.8827
 7972TIP3   OH223879   3.441   0.947   2.349  0.2239 -0.1004 -0.1986
 7972TIP3    H123880   3.475   1.030   2.382 -2.5719  1.1918 -0.2586
 7972TIP3    H223881   3.447   0.954   2.254  1.5801 -0.7541 -0.1857
 7973TIP3   OH223882   1.398   3.761   5.527 -0.1272 -0.2853 -0.0609
 7973TIP3    H123883   1.492   3.773   5.509 -0.3108 -0.8403 -1.5415
 7973TIP3    H223884   1.385   3.800   5.613  1.8393 -1.8419  1.0185
 7974TIP3   OH223885   6.087   4.076   4.018 -0.2437 -0.1057 -0.7596
 7974TIP3    H123886   6.026   4.006   3.998  1.5010 -1.9503  0.0438
 7974TIP3    H223887   6.032   4.151   4.041 -2.1702 -1.5841 -0.3841
 7975TIP3   OH223888   7.077   0.156   0.897  0.1312  0.3940 -0.2681
 7975TIP3    H123889   6.982   0.168   0.892 -0.8125 -4.8609 -1.4775
 7975TIP3    H223890   7.106   0.150   0.806  0.7631 -1.8703  0.0084
 7976TIP3   OH223891   2.316   2.563   5.529 -0.4448 -0.1543  0.4915
 7976TIP3    H123892   2.354   2.639   5.483  1.6344 -0.9306  0.8171
 7976TIP3    H223893   2.225   2.589   5.546 -0.3158  1.5186 -1.0175
 7977TIP3   OH223894   6.713   1.357   4.643 -0.5085  0.7405 -0.4991
 7977TIP3    H123895   6.773   1.287   4.618 -0.6687  0.7789 -0.9971
 7977TIP3    H223896   6.727   1.368   4.737 -1.5857 -1.0678 -0.0591
 7978TIP3   OH223897   2.186   2.457   5.784 -0.4091 -0.3426  0.4443
 7978TIP3    H123898   2.236   2.478   5.705 -1.8349 -2.9856 -1.3157
 7978TIP3    H223899   2.103   2.504   5.773 -0.0471  0.4717  1.1340
 7979TIP3   OH223900   0.763   3.222   3.074 -0.3573 -0.5691 -0.0929
 7979TIP3    H123901   0.773   3.299   3.019  2.2966 -0.3626  0.5658
 7979TIP3    H223902   0.668   3.209   3.080 -0.7995  1.1873 -2.1596
 7980TIP3   OH223903   6.027   4.936   4.269 -0.7576  0.3195  0.0168
 7980TIP3    H123904   6.082   4.912   4.343 -0.5868  0.5655 -0.0298
 7980TIP3    H223905   5.971   5.007   4.303 -1.2600 -0.1351  0.1545
 7981TIP3   OH223906   3.790   5.933   1.643  0.8103  0.5468 -0.1253
 7981TIP3    H123907   3.786   5.890   1.557  0.9263  0.4739 -0.0957
 7981TIP3    H223908   3.816   6.023   1.624  0.7042  0.5666 -0.1768
 7982TIP3   OH223909   1.597   6.079   2.411 -0.2273  0.1363 -0.5751
 7982TIP3    H123910   1.584   6.075   2.506  0.7678  2.5183 -0.2758
 7982TIP3    H223911   1.608   5.987   2.385 -0.4851 -0.5765  1.6102
 7983TIP3   OH223912   0.378   6.669   2.071 -0.1548  0.2466  0.4909
 7983TIP3    H123913   0.387   6.701   2.161 -0.0245 -0.5099  0.7594
 7983TIP3    H223914   0.468   6.665   2.038 -0.0169 -1.1994  0.9648
 7984TIP3   OH223915   5.903   3.427   3.719  0.5867  0.6730 -0.1199
 7984TIP3    H123916   5.869   3.395   3.635  0.4059  0.5626 -0.0059
 7984TIP3    H223917   5.878   3.359   3.782  1.5756  0.2752 -0.1382
 7985TIP3   OH223918   6.708   0.134   0.572  0.4351 -0.3536 -0.0452
 7985TIP3    H123919   6.713   0.082   0.492 -1.1673 -0.1915 -0.2946
 7985TIP3    H223920   6.759   0.213   0.554  0.6339 -0.6228 -0.6611
 7986TIP3   OH223921   1.611   1.179   4.278  0.0211  0.1673 -0.4652
 7986TIP3    H123922   1.677   1.152   4.215 -0.7182  0.3930 -1.3460
 7986TIP3    H223923   1.655   1.170   4.363  1.2582  0.5313 -1.0368
 7987TIP3   OH223924   1.809   2.849   1.900 -0.6606 -0.2015 -0.3786
 7987TIP3    H123925   1.886   2.843   1.843 -0.6900 -0.0350 -0.4375
 7987TIP3    H223926   1.836   2.910   1.969 -0.0324 -1.6883  0.7380
 7988TIP3   OH223927   0.332   2.764   1.419 -0.2275  0.3796  0.1639
 7988TIP3    H123928   0.283   2.769   1.501  1.0329 -0.0100  0.9665
 7988TIP3    H223929   0.396   2.695   1.434 -0.0253  0.2546 -1.1864
 7989TIP3   OH223930   3.847   0.124   3.440 -0.1498  0.1453  0.4668
 7989TIP3    H123931   3.836   0.208   3.394 -0.9110 -0.1863  0.0347
 7989TIP3    H223932   3.822   0.142   3.530  1.0767  0.7326  0.7094
 7990TIP3   OH223933   4.263   2.875   4.131 -0.3691 -0.0229 -0.0280
 7990TIP3    H123934   4.224   2.921   4.205  2.8075  1.8857  0.6610
 7990TIP3    H223935   4.237   2.926   4.054 -2.4119 -1.1249 -0.1275
 7991TIP3   OH223936   2.090   0.777   1.141 -0.1594  0.3277 -0.1964
 7991TIP3    H123937   2.068   0.685   1.161 -0.1362  0.2212 -0.6474
 7991TIP3    H223938   2.185   0.781   1.148 -0.1353  0.2469 -0.4411
 7992TIP3   OH223939   0.439   2.437   2.747 -0.4925 -0.0424 -0.4189
 7992TIP3    H123940   0.475   2.401   2.828 -0.2330  0.6620 -0.2136
 7992TIP3    H223941   0.504   2.502   2.718 -0.7069 -0.0962 -1.0478
 7993TIP3   OH223942   1.971   3.190   5.510 -0.0082  0.5463 -0.3726
 7993TIP3    H123943   1.961   3.178   5.605 -2.2637  0.0919 -0.6132
 7993TIP3    H223944   1.964   3.285   5.498  0.2158  0.6009 -0.1047
 7994TIP3   OH223945   2.214   3.502   4.129 -0.4935 -0.5599 -0.1247
 7994TIP3    H123946   2.241   3.416   4.098 -0.5481 -0.4696 -0.4240
 7994TIP3    H223947   2.293   3.539   4.168 -0.3972 -0.6258 -0.2581
 7995TIP3   OH223948   6.054   3.360   1.637 -0.0065  0.3268 -0.1639
 7995TIP3    H123949   6.071   3.285   1.580 -0.4683 -0.2290  0.4181
 7995TIP3    H223950   5.976   3.335   1.687 -1.0696  1.7880 -1.0002
 7996TIP3   OH223951   1.368   6.019   5.353  0.1872  0.2559 -0.1599
 7996TIP3    H123952   1.372   6.102   5.305  0.2360  0.8098  0.7756
 7996TIP3    H223953   1.308   6.036   5.426  1.4130 -0.0416  0.9478
 7997TIP3   OH223954   0.557   1.662   4.078  0.1824  0.3690 -0.3785
 7997TIP3    H123955   0.600   1.635   3.997  0.3002 -0.2497 -0.1214
 7997TIP3    H223956   0.466   1.676   4.053  0.0745 -0.4652 -0.5006
 7998TIP3   OH223957   4.858   0.084   4.486 -0.6164  0.0008  0.3578
 7998TIP3    H123958   4.846   0.176   4.464  0.9335  0.6610  2.0251
 7998TIP3    H223959   4.775   0.057   4.523 -0.5481  1.2673  1.5126
 7999TIP3   OH223960   5.738   6.817   5.185 -0.9625  0.1269  0.1790
 7999TIP3    H123961   5.703   6.861   5.262  1.6326  0.6393  1.1425
 7999TIP3    H223962   5.768   6.732   5.217  0.3826  0.4461 -0.1862
 8000TIP3   OH223963   3.017   1.777   1.157  0.2143  1.5121  0.0916
 8000TIP3    H123964   3.054   1.750   1.073 -1.0833  0.8902 -0.3037
 8000TIP3    H223965   3.093   1.788   1.214  1.0036 -0.0148 -0.5932
 8001TIP3   OH223966   5.052   3.439   5.805 -0.2339 -0.2232  0.1604
 8001TIP3    H123967   4.998   3.434   5.883 -0.8052  0.0446 -0.2104
 8001TIP3    H223968   5.140   3.456   5.837 -0.5938  0.6671  0.7091
 8002TIP3   OH223969   1.353   2.502   4.379  0.3580  0.3679 -0.5762
 8002TIP3    H123970   1.430   2.537   4.424 -0.0393 -0.0156  0.4362
 8002TIP3    H223971   1.288   2.572   4.385  0.6859  0.7771 -1.6265
 8003TIP3   OH223972   2.224   2.974   0.654  0.2301  0.1082  0.2495
 8003TIP3    H123973   2.218   3.044   0.588  3.4835  1.2165  0.9282
 8003TIP3    H223974   2.138   2.933   0.653 -0.1210  0.3702 -4.3344
 8004TIP3   OH223975   4.842   6.208   3.944 -0.3455 -0.0484 -0.1973
 8004TIP3    H123976   4.801   6.246   3.866  1.1370  1.1155 -0.4755
 8004TIP3    H223977   4.877   6.124   3.915 -0.3243  0.1126 -0.6452
 8005TIP3   OH223978   0.033   4.398   0.271 -0.5746  0.4536  0.4985
 8005TIP3    H123979   0.101   4.379   0.206 -0.6393  0.8331  0.3175
 8005TIP3    H223980   0.056   4.343   0.346 -1.9871 -2.0435 -0.7731
 8006TIP3   OH223981   7.094   1.792   1.640 -0.2467  0.4229  0.0269
 8006TIP3    H123982   7.012   1.771   1.596 -0.3525 -0.6245  0.6934
 8006TIP3    H223983   7.126   1.870   1.595 -0.6684 -0.2403 -1.4676
 8007TIP3   OH223984   5.195   6.289   4.192 -0.6285  0.0238  0.1065
 8007TIP3    H123985   5.255   6.221   4.222 -1.8209 -1.5091 -0.8483
 8007TIP3    H223986   5.248   6.369   4.191  0.8162 -0.8651  1.2464
 8008TIP3   OH223987   0.133   2.188   4.421 -0.2923  0.3454  0.0906
 8008TIP3    H123988   0.054   2.242   4.427  0.1311  1.0914 -0.7682
 8008TIP3    H223989   0.119   2.118   4.484 -1.5537  0.5816  0.0997
 8009TIP3   OH223990   2.288   3.856   0.493 -0.1852  0.8883 -0.1232
 8009TIP3    H123991   2.304   3.800   0.418 -0.0534 -1.2353  1.4006
 8009TIP3    H223992   2.342   3.933   0.478  0.6661  0.0324 -1.6735
 8010TIP3   OH223993   6.050   1.351   2.312 -0.6286 -0.5459  0.1149
 8010TIP3    H123994   6.123   1.335   2.372 -1.6113 -0.0395  1.4823
 8010TIP3    H223995   6.069   1.436   2.272 -1.8525  1.0383  2.6785
 8011TIP3   OH223996   5.976   3.670   0.516 -0.8910 -0.3397  0.8536
 8011TIP3    H123997   5.922   3.603   0.474  0.6868 -1.3065  0.2688
 8011TIP3    H223998   6.044   3.690   0.451 -0.7434  1.1013  1.4175
 8012TIP3   OH223999   0.811   1.227   1.925  0.2741 -0.6087 -0.1079
 8012TIP3    H124000   0.849   1.310   1.952  1.0144 -0.6291 -1.0411
 8012TIP3    H224001   0.754   1.202   1.998 -3.6955  2.9619 -1.6104
 8013TIP3   OH224002   2.313   6.207   2.596  0.3846 -0.8988 -0.1500
 8013TIP3    H124003   2.397   6.218   2.641  0.3844  1.5942 -0.6120
 8013TIP3    H224004   2.267   6.290   2.610 -1.2441 -1.5163 -1.4487
 8014TIP3   OH224005   3.874   5.690   3.221  0.3069 -0.8281  0.4455
 8014TIP3    H124006   3.816   5.625   3.182 -0.4534 -0.0027  0.1608
 8014TIP3    H224007   3.960   5.648   3.222  0.5222 -0.6808 -2.7516
 8015TIP3   OH224008   2.483   2.563   4.396  0.0730 -0.0545 -0.2090
 8015TIP3    H124009   2.561   2.513   4.419  1.1244  1.2720 -0.7805
 8015TIP3    H224010   2.499   2.594   4.307 -1.3053 -0.1357 -0.5057
 8016TIP3   OH224011   4.880   4.802   4.354 -0.2703  0.0853 -1.0711
 8016TIP3    H124012   4.883   4.757   4.269  0.5341  0.5053 -1.2762
 8016TIP3    H224013   4.925   4.743   4.414 -2.0223 -0.8565 -0.5904
 8017TIP3   OH224014   7.131   2.018   5.160 -0.4461 -0.4474 -0.3410
 8017TIP3    H124015   7.124   2.113   5.161 -0.8177 -0.4503 -1.3124
 8017TIP3    H224016   7.191   1.997   5.231 -0.8328  0.4655  0.2652
 8018TIP3   OH224017   5.456   0.869   4.632  0.1130 -0.1631  0.5697
 8018TIP3    H124018   5.479   0.780   4.604  0.5214  0.3902 -0.9725
 8018TIP3    H224019   5.535   0.902   4.675 -0.0706 -0.5619  1.2310
 8019TIP3   OH224020   6.123   5.369   4.903 -0.2897  0.4835 -0.1794
 8019TIP3    H124021   6.203   5.397   4.858 -0.3741 -2.0992 -2.2107
 8019TIP3    H224022   6.138   5.391   4.995  1.8176  2.0277 -0.8191
 8020TIP3   OH224023   6.066   1.354   5.345 -0.4018  0.0692 -0.2663
 8020TIP3    H124024   6.084   1.350   5.439 -0.5549 -0.8764 -0.2728
 8020TIP3    H224025   6.065   1.448   5.325  3.7446  0.3187 -0.0997
 8021TIP3   OH224026   0.026   0.137   5.141 -0.2757  0.0102 -0.0572
 8021TIP3    H124027  -0.021   0.056   5.124 -0.8933  0.3516 -0.0144
 8021TIP3    H224028   0.109   0.127   5.095 -0.7412 -0.2533 -0.8578
 8022TIP3   OH224029   1.431   2.172   2.910 -0.4602  0.1502  0.2108
 8022TIP3    H124030   1.496   2.180   2.840 -1.3849  1.3129 -0.5530
 8022TIP3    H224031   1.459   2.235   2.976  1.2692 -1.9911  1.6796
 8023TIP3   OH224032   6.967   3.547   0.256  0.4174 -0.1740  0.5322
 8023TIP3    H124033   6.927   3.501   0.330 -2.2766  1.3682  0.1526
 8023TIP3    H224034   7.006   3.625   0.295  0.0662  0.0292  0.4767
 8024TIP3   OH224035   4.127   5.182   0.717 -0.2693 -0.4007 -0.0844
 8024TIP3    H124036   4.119   5.178   0.621 -3.1679  2.6956 -0.1718
 8024TIP3    H224037   4.039   5.164   0.749  0.0987  0.9048  1.8255
 8025TIP3   OH224038   3.902   5.187   0.508 -0.0878  0.8706 -0.1017
 8025TIP3    H124039   3.881   5.222   0.595 -1.4191  0.5769 -0.2802
 8025TIP3    H224040   3.891   5.092   0.516 -0.7573  0.8811 -0.7068
 8026TIP3   OH224041   1.098   2.154   3.132  0.1973 -0.1248 -0.5585
 8026TIP3    H124042   1.059   2.095   3.197 -0.2225  1.4353  0.6486
 8026TIP3    H224043   1.116   2.097   3.057  0.5833 -1.9574  0.8441
 8027TIP3   OH224044   1.841   0.002   3.861  0.0484  0.2108  0.7149
 8027TIP3    H124045   1.791  -0.066   3.816 -0.7694  0.9342  0.5019
 8027TIP3    H224046   1.775   0.064   3.892  0.6856  0.3152  1.9264
 8028TIP3   OH224047   3.593   5.434   3.352 -0.2461  0.1486 -0.3673
 8028TIP3    H124048   3.518   5.471   3.398  0.3441 -0.1484  0.8491
 8028TIP3    H224049   3.571   5.342   3.340 -0.0331  0.0417  0.0702
 8029TIP3   OH224050   2.984   6.587   1.845 -0.3653  0.3225  0.1677
 8029TIP3    H124051   2.941   6.511   1.885 -1.3466  0.6278 -0.2812
 8029TIP3    H224052   2.989   6.566   1.752  0.1206  0.4558  0.1614
 8030TIP3   OH224053   6.453   2.092   5.112 -0.0579  0.5997 -0.1158
 8030TIP3    H124054   6.404   2.032   5.168  1.3395  0.1306  0.6657
 8030TIP3    H224055   6.422   2.073   5.024 -0.1970 -0.7475  0.2031
 8031TIP3   OH224056   2.308   1.252   1.385  0.0756 -0.3578 -0.1501
 8031TIP3    H124057   2.312   1.347   1.373  1.6966 -0.5715 -1.8460
 8031TIP3    H224058   2.391   1.228   1.427 -0.5916 -0.9749  0.8629
 8032TIP3   OH224059   0.475   2.658   2.467 -0.1773 -0.2264 -0.0807
 8032TIP3    H124060   0.418   2.637   2.393 -2.5423  0.1708  1.5447
 8032TIP3    H224061   0.461   2.751   2.483  0.4523 -0.2619  0.7668
 8033TIP3   OH224062   4.642   6.201   0.657  0.6447  0.0718  0.1766
 8033TIP3    H124063   4.612   6.244   0.577 -1.4005 -0.9277  0.3504
 8033TIP3    H224064   4.738   6.205   0.651  0.5545  2.1545 -1.1147
 8034TIP3   OH224065   2.160   1.737   1.299 -0.0066 -0.4477 -0.2143
 8034TIP3    H124066   2.074   1.698   1.315  0.2239 -1.9990 -2.2726
 8034TIP3    H224067   2.158   1.762   1.207  1.3307  0.6470  0.0250
 8035TIP3   OH224068   4.289   0.927   5.151 -0.2467  0.6436  0.2180
 8035TIP3    H124069   4.304   0.959   5.062  0.0772 -2.3556 -0.9382
 8035TIP3    H224070   4.376   0.904   5.183 -0.5593 -0.4472  0.3489
 8036TIP3   OH224071   6.903   0.171   0.190  0.0615 -0.1757 -0.0482
 8036TIP3    H124072   6.958   0.094   0.174  0.7509 -0.0412  1.5033
 8036TIP3    H224073   6.965   0.242   0.208 -0.5779  0.6424 -0.9398
 8037TIP3   OH224074   4.928   1.627   1.772  0.4108 -0.0441  0.1501
 8037TIP3    H124075   5.002   1.568   1.783  0.9586  0.5211 -0.4126
 8037TIP3    H224076   4.897   1.644   1.861  1.7929  0.7439  0.5044
 8038TIP3   OH224077   7.023   0.340   4.272  0.1154  0.0199  0.5194
 8038TIP3    H124078   7.093   0.325   4.335 -0.1789  0.9711  1.0964
 8038TIP3    H224079   6.943   0.316   4.319 -0.0323 -0.1081  0.2058
 8039TIP3   OH224080   5.519   2.686   1.703  0.2265 -0.0642  0.1319
 8039TIP3    H124081   5.573   2.711   1.778  0.6798  1.4680 -0.6715
 8039TIP3    H224082   5.489   2.769   1.666 -0.8285 -0.8214 -0.7937
 8040TIP3   OH224083   0.051   6.739   2.871  0.2813  0.1195 -0.3598
 8040TIP3    H124084   0.137   6.771   2.898  0.4842  0.6909 -1.6146
 8040TIP3    H224085  -0.012   6.797   2.916  0.5383 -0.2624  0.5099
 8041TIP3   OH224086   1.009   2.689   3.945 -0.1775  0.2744  0.1719
 8041TIP3    H124087   1.045   2.605   3.974 -0.2032 -0.1271 -0.9344
 8041TIP3    H224088   0.915   2.681   3.961 -0.0022  0.7450  1.6246
 8042TIP3   OH224089   1.575   3.104   5.146 -0.7600 -0.2948  0.1547
 8042TIP3    H124090   1.664   3.109   5.181  0.7503 -0.2167 -3.3218
 8042TIP3    H224091   1.540   3.022   5.182  0.6112 -0.2253  1.7563
 8043TIP3   OH224092   4.300   6.456   3.491 -0.5399 -0.0451  0.5430
 8043TIP3    H124093   4.244   6.464   3.414 -1.8138  3.7895  1.6484
 8043TIP3    H224094   4.244   6.479   3.565  1.7861  1.1868  2.0578
 8044TIP3   OH224095   4.199   6.155   1.301 -0.1780  0.1969 -0.0242
 8044TIP3    H124096   4.276   6.131   1.250 -1.4203  0.3631 -2.1041
 8044TIP3    H224097   4.200   6.096   1.376  1.0829 -0.9076 -0.8751
 8045TIP3   OH224098   0.012   2.742   1.010  0.3340 -0.0245  0.0596
 8045TIP3    H124099  -0.052   2.813   1.014  0.9783  0.5896 -0.4117
 8045TIP3    H224100   0.069   2.757   1.086  0.7287  0.2169 -0.2818
 8046TIP3   OH224101   3.190   0.125   3.612 -0.0777 -0.5202  0.3026
 8046TIP3    H124102   3.280   0.153   3.631 -0.3625  0.7221 -0.0578
 8046TIP3    H224103   3.136   0.201   3.636 -0.8050 -0.3401 -1.7506
 8047TIP3   OH224104   1.049   0.737   1.868 -0.1392  0.1592 -0.2469
 8047TIP3    H124105   1.017   0.822   1.900 -1.2573 -0.5787  0.6765
 8047TIP3    H224106   1.144   0.747   1.865 -0.1087  0.8627  1.6201
 8048TIP3   OH224107   0.623   5.215   0.876 -0.1485 -0.2646 -0.1729
 8048TIP3    H124108   0.650   5.291   0.928  0.4379 -0.0808 -0.7328
 8048TIP3    H224109   0.692   5.205   0.810  0.9523 -2.5894  1.1818
 8049TIP3   OH224110   2.047   6.236   4.099  0.1550 -0.4962 -0.2620
 8049TIP3    H124111   2.074   6.324   4.126 -0.1561 -0.3160 -0.5359
 8049TIP3    H224112   1.965   6.249   4.053  0.5596 -0.8206 -1.0988
 8050TIP3   OH224113   7.033   1.488   0.655  0.3458 -0.0763  0.1574
 8050TIP3    H124114   7.119   1.489   0.612  0.1050 -0.0951 -0.3269
 8050TIP3    H224115   7.027   1.401   0.693  0.7155  0.0648  0.5450
 8051TIP3   OH224116   0.852   0.996   2.487  0.5283  0.2103 -0.4669
 8051TIP3    H124117   0.773   1.047   2.503 -0.5102 -1.6215  0.6119
 8051TIP3    H224118   0.839   0.959   2.400  1.1974  1.5500 -1.1714
 8052TIP3   OH224119   6.765   1.314   4.920  0.0018 -0.6551 -0.5654
 8052TIP3    H124120   6.676   1.350   4.924 -0.7581 -1.7400 -4.0472
 8052TIP3    H224121   6.822   1.391   4.919 -1.0051  0.1209 -0.0034
 8053TIP3   OH224122   6.390   3.401   3.200 -0.1681  0.3049 -0.1216
 8053TIP3    H124123   6.462   3.441   3.247  0.5857 -1.2352  0.0990
 8053TIP3    H224124   6.386   3.311   3.233 -1.2728 -0.0606 -1.1454
 8054TIP3   OH224125   2.124   5.889   0.629  0.3771  0.1187 -0.5371
 8054TIP3    H124126   2.048   5.851   0.673  1.1659  2.3675  3.2684
 8054TIP3    H224127   2.199   5.846   0.670  1.1582  1.5807 -0.3753
 8055TIP3   OH224128   4.933   6.460   0.284 -0.0703  0.3436 -0.1482
 8055TIP3    H124129   4.855   6.460   0.228 -0.0462  1.0474 -0.1942
 8055TIP3    H224130   4.938   6.550   0.317 -0.1845 -0.1102  1.1378
 8056TIP3   OH224131   1.164   0.934   3.588  0.2059  0.4518  0.4497
 8056TIP3    H124132   1.224   0.866   3.619  0.0762 -0.2321 -0.7257
 8056TIP3    H224133   1.165   0.924   3.493 -1.5564  0.6049  0.3927
 8057TIP3   OH224134   5.685   0.108   5.435  0.0339  0.0023  0.7332
 8057TIP3    H124135   5.674   0.050   5.511 -2.3985  1.1773  1.3966
 8057TIP3    H224136   5.658   0.194   5.468  1.6097  1.1285 -0.7631
 8058TIP3   OH224137   6.426   5.138   4.684 -0.2815  0.1111  0.5961
 8058TIP3    H124138   6.454   5.133   4.776 -1.2849 -1.0848  0.8775
 8058TIP3    H224139   6.506   5.131   4.634  0.1050 -1.7990  1.3849
 8059TIP3   OH224140   4.733   5.334   4.558  0.4398 -1.0388  0.2891
 8059TIP3    H124141   4.751   5.253   4.511  2.5248 -0.7524  0.5184
 8059TIP3    H224142   4.818   5.376   4.569 -0.3983  0.4993  1.4544
 8060TIP3   OH224143   5.863   4.780   0.528  0.5962  0.0389 -0.2700
 8060TIP3    H124144   5.874   4.808   0.437 -0.6073  0.5822 -0.2783
 8060TIP3    H224145   5.777   4.815   0.553  1.3432  0.7792  1.3983
 8061TIP3   OH224146   5.012   2.559   0.892 -0.0430  0.0865 -0.2976
 8061TIP3    H124147   4.965   2.503   0.954 -2.0671  0.6499 -1.2507
 8061TIP3    H224148   4.962   2.640   0.890  1.9069  1.3379 -0.1828
 8062TIP3   OH224149   5.027   4.860   1.856 -0.0407  0.2169  0.2426
 8062TIP3    H124150   4.954   4.799   1.845 -0.8753  0.8395  1.9679
 8062TIP3    H224151   4.987   4.947   1.847 -0.0662  0.6549  3.4851
 8063TIP3   OH224152   5.868   4.971   2.539  0.0930  0.3716  0.1028
 8063TIP3    H124153   5.841   4.880   2.552  0.4731  0.3318  0.6825
 8063TIP3    H224154   5.831   5.017   2.615 -0.4611  0.7876 -0.4062
 8064TIP3   OH224155   3.976   3.403   3.650  0.2578 -0.1600 -0.4702
 8064TIP3    H124156   4.058   3.432   3.689 -0.2293  0.8966 -0.1824
 8064TIP3    H224157   3.997   3.384   3.559  0.8842 -0.2383 -0.3139
 8065TIP3   OH224158   4.244   4.764   4.745 -0.5077 -0.0643  0.1125
 8065TIP3    H124159   4.229   4.670   4.736  1.3765 -0.5558  1.4157
 8065TIP3    H224160   4.157   4.803   4.737 -1.1522 -1.7337 -2.1195
 8066TIP3   OH224161   2.616   6.077   3.517  0.4203 -0.1354  0.5935
 8066TIP3    H124162   2.550   6.008   3.516  0.3233 -0.0636  1.3497
 8066TIP3    H224163   2.578   6.148   3.466 -0.4013  0.1771  1.6029
 8067TIP3   OH224164   3.085   4.647   2.711  0.2819  0.0199 -0.3939
 8067TIP3    H124165   3.060   4.729   2.670  0.6491 -0.3207 -1.3205
 8067TIP3    H224166   3.009   4.589   2.698  0.1621  0.0932 -0.0502
 8068TIP3   OH224167   6.450   2.752   3.565  0.3163  0.3461 -0.1528
 8068TIP3    H124168   6.500   2.687   3.516  0.9079  0.1300  0.7044
 8068TIP3    H224169   6.502   2.766   3.645 -0.8765  0.2920  0.6531
 8069TIP3   OH224170   5.541   6.067   3.135 -0.2014  0.5020 -0.9040
 8069TIP3    H124171   5.503   6.138   3.083 -0.9489  1.3390  0.7258
 8069TIP3    H224172   5.623   6.104   3.169 -2.3678  2.1825  3.1452
 8070TIP3   OH224173   0.188   3.811   5.758  0.1987 -0.2709  0.0519
 8070TIP3    H124174   0.143   3.739   5.714 -3.9876  1.9824  0.0745
 8070TIP3    H224175   0.268   3.824   5.707  0.1069 -3.5600 -1.1541
 8071TIP3   OH224176   3.529   3.501   0.734 -0.2033 -0.6825 -0.1094
 8071TIP3    H124177   3.547   3.469   0.645  0.0558  0.0956 -0.3437
 8071TIP3    H224178   3.451   3.555   0.724  0.6049  0.5230 -0.1342
 8072TIP3   OH224179   2.963   4.944   5.312 -0.1303 -0.4462  0.5709
 8072TIP3    H124180   2.966   4.984   5.399 -0.8965 -1.5754  1.1470
 8072TIP3    H224181   2.883   4.979   5.272  1.2869  1.6972 -0.5445
 8073TIP3   OH224182   0.037   0.076   4.071 -0.0106  0.7339  0.1278
 8073TIP3    H124183  -0.058   0.069   4.075 -0.1587  1.2005 -1.6596
 8073TIP3    H224184   0.069  -0.008   4.102 -1.1621 -1.0515 -3.0237
 8074TIP3   OH224185   3.536   5.124   3.712 -1.0640  0.1381  0.2276
 8074TIP3    H124186   3.551   5.077   3.630 -0.1682 -0.0467  0.4777
 8074TIP3    H224187   3.449   5.097   3.740 -0.3098 -1.9557  0.7280
 8075TIP3   OH224188   3.535   1.118   4.973  0.2593  0.5311 -0.1762
 8075TIP3    H124189   3.626   1.093   4.964  0.0901 -0.3057  0.3856
 8075TIP3    H224190   3.514   1.101   5.065 -0.5450  0.4448 -0.3704
 8076TIP3   OH224191   0.154   6.090   0.316  0.1127  0.1421  0.3786
 8076TIP3    H124192   0.203   6.110   0.236 -2.1732  0.2752 -1.0821
 8076TIP3    H224193   0.099   6.015   0.292 -1.2673  0.7493  1.5040
 8077TIP3   OH224194   4.064   2.843   0.510 -0.1943 -0.0158  0.5850
 8077TIP3    H124195   4.149   2.883   0.493  0.0407 -0.8560 -0.3388
 8077TIP3    H224196   4.083   2.771   0.570  0.3932 -2.3899 -2.1821
 8078TIP3   OH224197   1.989   6.613   3.639 -0.1355 -0.0873 -0.4577
 8078TIP3    H124198   1.968   6.601   3.546  0.2441  1.5272 -0.7856
 8078TIP3    H224199   1.946   6.695   3.663  1.3123  0.5106  0.2681
 8079TIP3   OH224200   5.070   6.243   0.803  0.4236  0.7608 -0.2901
 8079TIP3    H124201   5.084   6.204   0.717  0.6537 -1.0694  0.5402
 8079TIP3    H224202   5.067   6.169   0.863 -1.9363  1.8155  1.0180
 8080TIP3   OH224203   4.368   1.244   1.353 -0.7128  0.0577  0.3775
 8080TIP3    H124204   4.275   1.259   1.336 -0.8807 -2.6630 -1.8836
 8080TIP3    H224205   4.401   1.203   1.273  2.2687  0.1808  1.4060
 8081TIP3   OH224206   2.711   6.156   0.106  0.1425  0.4184 -1.0743
 8081TIP3    H124207   2.684   6.239   0.145  0.2485  0.6097 -1.4077
 8081TIP3    H224208   2.629   6.113   0.082  0.0827  0.3678 -0.7799
 8082TIP3   OH224209   1.544   3.125   5.489  0.5618 -0.3609 -0.0539
 8082TIP3    H124210   1.589   3.177   5.556  1.0814  0.3046 -0.8905
 8082TIP3    H224211   1.615   3.086   5.438  0.2168  0.5376 -1.2679
 8083TIP3   OH224212   6.431   4.305   5.056  0.9968  0.3201 -0.4043
 8083TIP3    H124213   6.424   4.326   4.963  0.1767  1.5594 -0.0902
 8083TIP3    H224214   6.498   4.365   5.090  0.4128  0.7494  0.0238
 8084TIP3   OH224215   6.363   1.042   0.934 -0.2266  0.3539  0.5669
 8084TIP3    H124216   6.297   1.024   0.867  1.4542  1.5699 -1.5292
 8084TIP3    H224217   6.431   0.977   0.918  0.5717  1.1796  0.5283
 8085TIP3   OH224218   2.004   0.849   4.699 -0.3595 -0.2710 -0.4883
 8085TIP3    H124219   2.041   0.927   4.741  0.3551 -0.7708 -0.1750
 8085TIP3    H224220   1.992   0.786   4.770 -1.1075 -0.3968 -0.7102
 8086TIP3   OH224221   3.426   4.162   2.266  0.0582 -0.0407  0.0071
 8086TIP3    H124222   3.389   4.080   2.300 -0.2895  0.3200  0.5166
 8086TIP3    H224223   3.372   4.231   2.304  0.0509  0.4112 -0.7975
 8087TIP3   OH224224   4.196   3.299   2.820 -0.3719  0.5670 -0.0814
 8087TIP3    H124225   4.156   3.241   2.756  1.0276  0.2543 -0.6939
 8087TIP3    H224226   4.163   3.386   2.798  1.6897  0.8164 -2.6336
 8088TIP3   OH224227   3.386   4.608   4.417 -0.0670  0.5281 -0.3122
 8088TIP3    H124228   3.365   4.544   4.348 -1.5726  0.0011  0.5834
 8088TIP3    H224229   3.419   4.555   4.489 -2.2385  0.5800  0.8012
 8089TIP3   OH224230   7.054   3.528   2.915 -0.1661  0.3507  0.5336
 8089TIP3    H124231   6.993   3.602   2.914 -3.1378 -1.9346  0.9793
 8089TIP3    H224232   7.032   3.477   2.837  1.4925 -0.3771  0.4981
 8090TIP3   OH224233   4.216   4.049   4.408 -0.1217 -0.1073  0.0828
 8090TIP3    H124234   4.202   4.088   4.494  0.7020  1.9782 -0.6669
 8090TIP3    H224235   4.310   4.035   4.403 -0.2561 -0.9830 -0.1889
 8091TIP3   OH224236   2.788   6.302   1.560 -0.1494  0.0416 -0.1687
 8091TIP3    H124237   2.876   6.266   1.545 -0.0341  1.1328 -2.6345
 8091TIP3    H224238   2.729   6.229   1.544  0.2599 -0.2528 -0.3524
 8092TIP3   OH224239   2.647   4.707   1.173 -0.2541 -0.6550  0.0335
 8092TIP3    H124240   2.738   4.678   1.185 -0.6528 -1.0102  3.1062
 8092TIP3    H224241   2.595   4.627   1.184 -1.0296 -0.0067  1.3441
 8093TIP3   OH224242   4.849   5.702   3.776 -0.3765  0.4954  0.3573
 8093TIP3    H124243   4.895   5.618   3.788 -0.7605  0.1939 -0.2329
 8093TIP3    H224244   4.756   5.680   3.788 -0.7213  0.3365 -2.1507
 8094TIP3   OH224245   4.976   1.645   5.020  0.2412 -0.2713  0.4574
 8094TIP3    H124246   4.997   1.591   5.096 -1.6061  0.4505  1.5503
 8094TIP3    H224247   5.041   1.621   4.954  1.6404 -1.2145  2.1164
 8095TIP3   OH224248   4.624   4.587   3.066  0.2409  0.7323  0.0375
 8095TIP3    H124249   4.669   4.608   2.984  1.9835 -1.4890  0.3312
 8095TIP3    H224250   4.693   4.559   3.125 -1.3252 -1.4852  0.9772
 8096TIP3   OH224251   3.662   0.862   2.129 -0.1092  0.1321 -0.4158
 8096TIP3    H124252   3.578   0.898   2.100 -0.3830  0.9930  1.2713
 8096TIP3    H224253   3.721   0.938   2.130  0.0272  0.0275  0.6669
 8097TIP3   OH224254   4.639   4.308   2.395 -0.0810 -0.7827  0.0442
 8097TIP3    H124255   4.697   4.360   2.450  0.8367  0.2643 -1.8048
 8097TIP3    H224256   4.553   4.349   2.405  0.0009 -0.7873  0.8717
 8098TIP3   OH224257   1.710   0.635   5.066  0.1764 -0.5772 -0.4203
 8098TIP3    H124258   1.749   0.633   4.979  0.4913 -0.3298 -0.2852
 8098TIP3    H224259   1.621   0.602   5.053 -0.9552  2.5282 -1.4542
 8099TIP3   OH224260   0.817   0.026   3.564  0.1002 -0.0022 -0.2742
 8099TIP3    H124261   0.779   0.038   3.651  1.6274  0.1250  0.4019
 8099TIP3    H224262   0.788  -0.061   3.537 -3.0674  1.1428 -1.0893
 8100TIP3   OH224263   6.214   1.298   3.932  0.3345 -0.0912  0.1571
 8100TIP3    H124264   6.175   1.221   3.890 -0.7744  0.7207 -0.3536
 8100TIP3    H224265   6.140   1.346   3.968  1.0340  0.6186  0.6890
 8101TIP3   OH224266   1.599   1.009   3.947 -0.0097 -0.1979 -0.3468
 8101TIP3    H124267   1.645   0.943   3.897 -0.3961 -0.2721 -0.6057
 8101TIP3    H224268   1.506   0.986   3.940 -0.1608  0.4357 -0.5446
 8102TIP3   OH224269   6.955   6.464   3.790  0.1248 -0.7777  0.0856
 8102TIP3    H124270   6.885   6.405   3.818 -0.1766 -0.6663 -0.4079
 8102TIP3    H224271   7.023   6.455   3.857 -0.8503 -0.0084  1.1990
 8103TIP3   OH224272   1.500   6.402   2.558 -0.4056  0.6428 -0.3055
 8103TIP3    H124273   1.514   6.469   2.492 -1.5882  1.6983  0.4787
 8103TIP3    H224274   1.456   6.447   2.630  0.3055 -0.5947  0.9708
 8104TIP3   OH224275   2.012   1.042   4.184 -0.7251  0.1398  0.6540
 8104TIP3    H124276   2.053   1.066   4.267 -1.4717  0.1248  1.0332
 8104TIP3    H224277   1.940   1.105   4.173  0.6147  1.5135 -1.0261
 8105TIP3   OH224278   5.442   2.892   2.060 -0.4602 -0.0559  0.2614
 8105TIP3    H124279   5.494   2.867   2.136  0.7027 -1.2770 -0.8853
 8105TIP3    H224280   5.504   2.938   2.003 -1.6564  2.1678  0.6402
 8106TIP3   OH224281   4.834   2.490   2.127  0.2294 -0.3645 -0.4372
 8106TIP3    H124282   4.917   2.493   2.079  0.7478  1.4559  0.4513
 8106TIP3    H224283   4.793   2.575   2.110 -0.5812 -0.5231  0.5839
 8107TIP3   OH224284   3.822   5.570   5.748  0.9310 -0.2935 -0.9871
 8107TIP3    H124285   3.848   5.531   5.665  0.2533  0.9655 -1.8315
 8107TIP3    H224286   3.732   5.541   5.762  0.3343  1.0639 -1.7447
 8108TIP3   OH224287   1.519   5.657  -0.003 -0.1682  0.9329  1.0407
 8108TIP3    H124288   1.544   5.683   0.085  2.3390  1.2833  0.3185
 8108TIP3    H224289   1.563   5.721  -0.060 -0.3882 -0.2252 -0.4919
 8109TIP3   OH224290   2.837   2.199   1.328 -0.4491 -0.5598  0.1954
 8109TIP3    H124291   2.750   2.169   1.302 -0.6891 -1.7976  2.2492
 8109TIP3    H224292   2.896   2.130   1.296  0.1344  1.2636 -3.0623
 8110TIP3   OH224293   0.035   3.019   0.312  0.6178  0.0781 -0.0642
 8110TIP3    H124294   0.098   2.959   0.273  1.9212  0.8884  0.7194
 8110TIP3    H224295  -0.046   3.005   0.262  1.2880 -1.2754 -0.8258
 8111TIP3   OH224296   6.072   2.729   2.876 -0.4477  0.4799 -0.3916
 8111TIP3    H124297   6.154   2.760   2.914  0.2981 -2.2781  0.5130
 8111TIP3    H224298   6.004   2.774   2.927  0.4980  1.6697 -0.1406
 8112TIP3   OH224299   4.280   6.157   3.243  0.2381  0.5967  0.1344
 8112TIP3    H124300   4.298   6.120   3.329 -0.2983  0.7677  0.3204
 8112TIP3    H224301   4.254   6.248   3.261 -1.3352  0.2138 -0.0790
 8113TIP3   OH224302   2.097   3.276   0.691 -0.6485 -0.1656 -0.0837
 8113TIP3    H124303   2.188   3.293   0.713 -0.4979  1.0150 -1.3998
 8113TIP3    H224304   2.048   3.292   0.772  0.2343 -0.0640  0.4329
 8114TIP3   OH224305   4.072   1.254   1.459  0.1933  0.0916  0.3757
 8114TIP3    H124306   4.081   1.160   1.478 -3.1873 -1.2699 -3.2945
 8114TIP3    H224307   3.982   1.275   1.483 -0.0597  1.5617 -1.6392
 8115TIP3   OH224308   5.039   3.642   2.015 -0.5751 -1.1221 -0.4269
 8115TIP3    H124309   5.028   3.553   2.048 -0.5251 -0.9031  0.1894
 8115TIP3    H224310   5.128   3.667   2.041 -0.0797 -1.3775 -1.7863
 8116TIP3   OH224311   1.886   5.984   1.780  0.2698  0.6180 -0.5286
 8116TIP3    H124312   1.799   6.022   1.765 -0.0601  1.1661  2.3013
 8116TIP3    H224313   1.868   5.897   1.816  0.7990  1.1826  1.2013
 8117TIP3   OH224314   3.940   4.706   4.345 -0.2477  0.3341 -0.0794
 8117TIP3    H124315   3.863   4.740   4.298  0.2219  0.5822 -0.6812
 8117TIP3    H224316   3.915   4.617   4.369 -0.9306  0.5980  0.2101
 8118TIP3   OH224317   3.118   5.042   2.455 -0.6839  0.1287 -0.0010
 8118TIP3    H124318   3.113   5.112   2.520 -1.7139 -0.6118  0.7650
 8118TIP3    H224319   3.034   5.048   2.408 -0.7557 -0.5488  0.0375
 8119TIP3   OH224320   0.408   1.020   4.913 -0.5513  0.7272 -0.0070
 8119TIP3    H124321   0.407   0.935   4.868  2.0103  0.6658 -0.0972
 8119TIP3    H224322   0.336   1.068   4.874 -2.6558 -1.6633  0.6457
 8120TIP3   OH224323   3.638   3.334   1.502 -0.0310 -0.1617 -0.1441
 8120TIP3    H124324   3.715   3.331   1.445  0.3934  0.7147  0.3524
 8120TIP3    H224325   3.564   3.330   1.442  0.3923  2.2507 -0.9472
 8121TIP3   OH224326   5.392   1.410   2.022  0.2724 -0.0071 -0.5516
 8121TIP3    H124327   5.424   1.500   2.020  1.5994 -0.4223  0.4615
 8121TIP3    H224328   5.470   1.357   2.041 -1.0138 -1.0316  2.6357
 8122TIP3   OH224329   3.857   3.256   1.664 -0.0059  0.3189 -0.4083
 8122TIP3    H124330   3.912   3.334   1.654  0.4586  0.1959  0.9576
 8122TIP3    H224331   3.796   3.259   1.590  0.8056  1.3134 -1.0541
 8123TIP3   OH224332   0.184   1.511   0.071  0.4231 -0.2726 -0.3138
 8123TIP3    H124333   0.130   1.457   0.129  2.2825  1.4364  3.3361
 8123TIP3    H224334   0.241   1.448   0.027 -0.2401 -1.6267  0.6772
 8124TIP3   OH224335   3.031   5.659   2.415  0.3329 -0.5995 -0.3735
 8124TIP3    H124336   3.079   5.650   2.497  0.6417  0.7148 -0.3865
 8124TIP3    H224337   2.942   5.682   2.442  0.5267  0.2155 -0.3927
 8125TIP3   OH224338   6.678   2.035   1.128 -0.2587  0.1579 -0.4638
 8125TIP3    H124339   6.595   2.083   1.128 -0.8938 -0.8837  0.6899
 8125TIP3    H224340   6.654   1.946   1.104  0.3301 -0.4443  1.1064
 8126TIP3   OH224341   4.154   5.155   5.212  0.0856 -0.7471 -0.0215
 8126TIP3    H124342   4.163   5.114   5.126 -1.2278 -1.2407  0.0574
 8126TIP3    H224343   4.138   5.082   5.272  0.5429 -0.3659  0.5785
 8127TIP3   OH224344   2.035   3.175   1.820  0.4161  0.3716 -0.4676
 8127TIP3    H124345   2.041   3.110   1.751  1.0923  1.3292 -1.3276
 8127TIP3    H224346   2.071   3.131   1.897  1.7870  0.0419 -1.2614
 8128TIP3   OH224347   6.893   3.253   5.334 -0.6409 -0.3060  0.1220
 8128TIP3    H124348   6.889   3.323   5.399  0.5205  0.0070 -0.1102
 8128TIP3    H224349   6.962   3.194   5.366 -0.7343 -0.6634 -0.3212
 8129TIP3   OH224350   0.576   2.809   3.781  0.0627  0.3884  0.2978
 8129TIP3    H124351   0.504   2.748   3.767 -0.8548  0.9081  2.4300
 8129TIP3    H224352   0.556   2.883   3.723 -0.3607 -0.0909 -0.1704
 8130TIP3   OH224353  -0.002   1.910   2.753 -0.0229 -0.1232 -0.1955
 8130TIP3    H124354   0.091   1.891   2.764 -0.1358 -0.1966  0.7518
 8130TIP3    H224355  -0.023   1.877   2.666  1.0038  0.6102 -0.7405
 8131TIP3   OH224356   0.247   3.780   2.652  0.1598 -0.8091  0.3364
 8131TIP3    H124357   0.312   3.845   2.678  1.3366 -1.5748 -0.5931
 8131TIP3    H224358   0.298   3.702   2.630 -1.2249 -2.0493  1.3669
 8132TIP3   OH224359   2.479   2.818   1.387 -0.0242  0.1605  0.2349
 8132TIP3    H124360   2.535   2.743   1.409  0.4616  0.1432 -0.9852
 8132TIP3    H224361   2.402   2.779   1.347 -0.3101  0.2623  0.6755
 8133TIP3   OH224362   5.326   1.678   4.613  0.2603 -0.9141 -0.7232
 8133TIP3    H124363   5.394   1.741   4.637  0.1721 -1.1990  0.3309
 8133TIP3    H224364   5.275   1.723   4.545  1.5792 -0.7596 -1.6619
 8134TIP3   OH224365   0.168   1.838   5.462 -0.6035  0.2451 -0.2224
 8134TIP3    H124366   0.116   1.758   5.453  0.0810 -0.1500 -0.7002
 8134TIP3    H224367   0.226   1.821   5.536 -0.2127  0.1662 -0.5483
 8135TIP3   OH224368   3.260   5.359   3.202 -0.1682  0.0236 -0.1002
 8135TIP3    H124369   3.325   5.302   3.161 -1.3336 -1.8099  0.4799
 8135TIP3    H224370   3.312   5.426   3.248  1.1973  0.3597 -2.0193
 8136TIP3   OH224371   5.529   2.091   2.555 -0.4101  0.3407  1.0702
 8136TIP3    H124372   5.458   2.154   2.567 -0.4189  0.9872 -1.7301
 8136TIP3    H224373   5.489   2.019   2.507  0.5198  0.0409  0.7353
 8137TIP3   OH224374   7.137   5.071   2.088 -0.6841  0.2613 -0.1233
 8137TIP3    H124375   7.218   5.049   2.043 -0.3500  0.3181  0.4385
 8137TIP3    H224376   7.152   5.159   2.123 -1.9008  1.3269 -2.1184
 8138TIP3   OH224377   4.940   6.060   5.469 -0.3704  0.5903 -0.0697
 8138TIP3    H124378   4.888   6.111   5.531 -0.5955  0.0808  0.1699
 8138TIP3    H224379   4.899   6.076   5.384 -0.7976  0.3645  0.0866
 8139TIP3   OH224380   0.783   2.766   1.874  0.1065  0.1676  0.0734
 8139TIP3    H124381   0.702   2.731   1.837  0.6158 -0.6056 -0.3528
 8139TIP3    H224382   0.846   2.694   1.865  1.3979  1.4188 -1.4889
 8140TIP3   OH224383   0.347   2.808   2.818 -0.0188 -0.6736 -0.1359
 8140TIP3    H124384   0.440   2.807   2.841  0.0999 -0.2827 -0.5865
 8140TIP3    H224385   0.302   2.789   2.900  0.4021  0.6716  0.4413
 8141TIP3   OH224386   5.479   4.975   3.807  0.1977 -0.4224  1.0184
 8141TIP3    H124387   5.505   4.975   3.715 -0.8959  0.6070  0.6814
 8141TIP3    H224388   5.400   4.922   3.810  0.6028 -1.0047  1.4881
 8142TIP3   OH224389   1.884   1.389   2.916 -0.2646  0.1713 -0.0037
 8142TIP3    H124390   1.893   1.444   2.994 -3.2621 -0.2596  0.7968
 8142TIP3    H224391   1.892   1.300   2.950  1.5743 -0.0041 -0.7910
 8143TIP3   OH224392   1.478   3.329   1.470 -0.1258 -0.2741  0.0587
 8143TIP3    H124393   1.448   3.386   1.398 -0.3106  0.2784  0.5636
 8143TIP3    H224394   1.563   3.366   1.496  0.1538 -0.7474 -0.1713
 8144TIP3   OH224395   1.629   2.036   5.023 -0.1745  0.2379 -0.0454
 8144TIP3    H124396   1.655   1.956   4.976  0.2033  0.3155  0.0291
 8144TIP3    H224397   1.562   2.076   4.967 -1.7165 -1.0772  0.7819
 8145TIP3   OH224398   6.244   6.128   0.023  0.2228 -0.0179  0.0442
 8145TIP3    H124399   6.294   6.209   0.024  0.8380 -0.3888  1.3729
 8145TIP3    H224400   6.154   6.155   0.039  0.3336  0.4518 -0.1240
 8146TIP3   OH224401   0.634   0.282   3.093  0.3398  0.0096  0.2894
 8146TIP3    H124402   0.545   0.246   3.096 -0.2395  1.4240  2.0101
 8146TIP3    H224403   0.681   0.236   3.163  0.2308  0.9448  1.0022
 8147TIP3   OH224404   4.391   4.706   2.956  0.2322 -0.1935  0.1901
 8147TIP3    H124405   4.319   4.656   2.994 -0.0446  1.5311  2.1132
 8147TIP3    H224406   4.468   4.652   2.969 -0.4061 -1.1950 -0.0979
 8148TIP3   OH224407   4.389   1.079   5.428 -0.0415  0.4032 -0.1415
 8148TIP3    H124408   4.479   1.093   5.399  0.6262 -0.7722  1.2418
 8148TIP3    H224409   4.398   1.030   5.511 -1.9667 -1.1116 -0.7552
 8149TIP3   OH224410   6.564   5.074   0.805 -0.0820 -0.3760  0.0122
 8149TIP3    H124411   6.645   5.033   0.776  0.7074  0.6182  0.7732
 8149TIP3    H224412   6.577   5.168   0.789 -1.2787 -0.2463 -0.3234
 8150TIP3   OH224413   1.883   1.389   0.995 -0.0562 -0.0677  0.4147
 8150TIP3    H124414   1.940   1.361   1.067  0.4955  0.3294  0.1337
 8150TIP3    H224415   1.852   1.476   1.022 -1.2180 -0.6269  0.9628
 8151TIP3   OH224416   4.283   6.730   5.290 -0.6395  0.7940 -0.3453
 8151TIP3    H124417   4.367   6.686   5.302  0.3098  2.0567 -1.9050
 8151TIP3    H224418   4.294   6.814   5.335 -1.9214  0.0721  1.4003
 8152TIP3   OH224419   2.411   3.190   0.891 -0.0479 -0.4933 -0.2778
 8152TIP3    H124420   2.433   3.246   0.816 -0.1624 -0.7097 -0.4742
 8152TIP3    H224421   2.409   3.250   0.966  1.7177 -0.5563 -0.1528
 8153TIP3   OH224422   5.552   3.523   2.236  0.5166  0.3478  0.1493
 8153TIP3    H124423   5.534   3.542   2.328 -2.3742  0.8207 -0.4181
 8153TIP3    H224424   5.535   3.430   2.227 -0.7828  0.6004 -0.1872
 8154TIP3   OH224425   4.642   5.937   2.963  0.3083 -0.1449 -0.1375
 8154TIP3    H124426   4.551   5.916   2.940 -0.5463  2.0090  0.9635
 8154TIP3    H224427   4.637   5.965   3.054  1.9188  1.0012 -0.3677
 8155TIP3   OH224428   3.961   2.682   1.082 -0.7270 -0.1641 -0.2225
 8155TIP3    H124429   3.877   2.637   1.074 -1.0004 -0.1288  1.7877
 8155TIP3    H224430   3.975   2.690   1.177  1.5352 -0.1386 -0.4900
 8156TIP3   OH224431   5.011   3.818   1.358  0.3660  0.2602 -0.3620
 8156TIP3    H124432   4.936   3.864   1.322  0.2500  0.6735  0.3887
 8156TIP3    H224433   5.079   3.885   1.366 -0.0784  0.5534  1.5591
 8157TIP3   OH224434   6.554   4.713   3.690  0.0752 -0.0954  0.3276
 8157TIP3    H124435   6.588   4.727   3.602 -0.4311 -0.4014  0.0834
 8157TIP3    H224436   6.590   4.786   3.741  3.1106 -1.6366  0.6537
 8158TIP3   OH224437   1.633   2.827   2.141 -0.3196 -0.1740 -0.0576
 8158TIP3    H124438   1.675   2.817   2.056  0.9025  2.8686  0.0775
 8158TIP3    H224439   1.560   2.886   2.126 -0.5508 -0.1954  0.8839
 8159TIP3   OH224440   0.661   4.658   3.775  0.0115 -0.0588 -0.1308
 8159TIP3    H124441   0.658   4.637   3.682 -0.4223  1.4449 -0.4846
 8159TIP3    H224442   0.706   4.742   3.779  0.5999 -0.4127  1.0883
 8160TIP3   OH224443   6.801   6.355   0.251 -0.1861 -0.1175  0.1407
 8160TIP3    H124444   6.873   6.296   0.228 -0.0227 -0.6513  1.8840
 8160TIP3    H224445   6.757   6.372   0.168  1.7908  0.0226 -0.9307
 8161TIP3   OH224446   5.927   3.086   0.666  0.1001  0.4819 -0.2306
 8161TIP3    H124447   5.895   3.164   0.621  0.5027  0.2988 -0.8401
 8161TIP3    H224448   6.010   3.066   0.623 -0.2742 -0.6139 -0.4525
 8162TIP3   OH224449   4.511   5.041   5.491 -0.3235  0.7759 -0.5331
 8162TIP3    H124450   4.467   5.099   5.430  0.0427  0.1714 -1.3887
 8162TIP3    H224451   4.602   5.039   5.462  0.0727  1.2207  0.6101
 8163TIP3   OH224452   3.060   4.939   5.039  0.1599 -0.3968  0.2408
 8163TIP3    H124453   3.116   4.908   5.111  0.6536  1.5577  0.7622
 8163TIP3    H224454   2.973   4.943   5.077  0.4458  0.7825  0.8212
 8164TIP3   OH224455   4.767   1.561   2.874  0.0110  0.4226 -0.4361
 8164TIP3    H124456   4.845   1.514   2.904 -0.6723  0.4521  1.4891
 8164TIP3    H224457   4.785   1.579   2.782  1.3732 -1.3909 -0.5847
 8165TIP3   OH224458   3.535   1.997   4.172 -0.6395  0.2413 -0.4707
 8165TIP3    H124459   3.526   2.015   4.266  1.4934  1.4025 -0.4261
 8165TIP3    H224460   3.448   2.012   4.136 -1.3131  0.5604  1.1900
 8166TIP3   OH224461   2.568   1.016   0.483 -0.7211  0.0872 -0.0399
 8166TIP3    H124462   2.637   1.029   0.548 -1.5003  1.7368  0.5178
 8166TIP3    H224463   2.611   0.972   0.410  0.1168 -2.1532  1.6806
 8167TIP3   OH224464   4.110   5.752   5.400  0.2716  0.0162 -0.7077
 8167TIP3    H124465   4.086   5.781   5.488  0.3280  0.7237 -0.9203
 8167TIP3    H224466   4.189   5.700   5.413 -0.0500 -0.3784 -0.2771
 8168TIP3   OH224467   0.307   0.440   1.450 -0.2030  0.0843  0.0012
 8168TIP3    H124468   0.280   0.479   1.367 -1.0762 -2.6110 -1.0550
 8168TIP3    H224469   0.332   0.351   1.429 -0.9603 -0.8798  2.7079
 8169TIP3   OH224470   0.821   1.980   3.927  0.2738 -0.2277 -0.1613
 8169TIP3    H124471   0.857   2.044   3.866 -1.1418  0.3248 -0.4288
 8169TIP3    H224472   0.781   1.913   3.871 -1.7386  0.6881  0.1356
 8170TIP3   OH224473   7.115   1.065   2.095  0.0591 -0.1083 -0.2142
 8170TIP3    H124474   7.031   1.029   2.066 -1.3227  1.1721  1.9417
 8170TIP3    H224475   7.157   0.994   2.143 -0.5309 -0.2756  0.0578
 8171TIP3   OH224476   7.147   1.856   0.233  0.0759 -0.0806  0.2536
 8171TIP3    H124477   7.234   1.834   0.266 -0.1618 -0.1257  0.8686
 8171TIP3    H224478   7.105   1.900   0.306 -1.0629 -1.6750  0.6206
 8172TIP3   OH224479   2.638   4.483   0.096 -0.2405 -0.0793 -0.7171
 8172TIP3    H124480   2.578   4.490   0.022  0.5423 -0.3878 -1.4084
 8172TIP3    H224481   2.724   4.506   0.059  0.1380 -0.1034  0.1272
 8173TIP3   OH224482   6.975   4.333   2.660  0.4294  0.0593  0.0979
 8173TIP3    H124483   6.991   4.363   2.750  3.3433  0.1976 -0.3479
 8173TIP3    H224484   7.059   4.295   2.633 -0.1194  0.6818 -2.8244
 8174TIP3   OH224485   1.233   4.077   0.310  0.0115 -0.0598 -0.3966
 8174TIP3    H124486   1.303   4.058   0.247  0.8298 -1.2731  0.8167
 8174TIP3    H224487   1.245   4.170   0.332 -0.2887  0.3853 -1.9749
 8175TIP3   OH224488   4.458   0.230   5.794  0.6546 -0.1091  0.1624
 8175TIP3    H124489   4.545   0.192   5.810 -0.3966 -2.6239  0.3540
 8175TIP3    H224490   4.414   0.167   5.737 -1.1900  0.8915  0.4000
 8176TIP3   OH224491   3.648   1.708   0.255  0.4826  0.2895  0.0457
 8176TIP3    H124492   3.723   1.664   0.215 -0.1148 -0.0515 -0.7160
 8176TIP3    H224493   3.687   1.769   0.318  1.3525 -0.7776  0.5743
 8177TIP3   OH224494   3.817   1.511   1.850 -0.2685  0.3460 -0.0737
 8177TIP3    H124495   3.729   1.546   1.843 -0.6229 -0.8221 -2.4469
 8177TIP3    H224496   3.873   1.577   1.810 -0.0739  0.8943  1.0495
 8178TIP3   OH224497   2.650   1.307   1.342 -0.8647 -0.2935  0.3780
 8178TIP3    H124498   2.608   1.351   1.269  0.6583  0.4972 -0.0682
 8178TIP3    H224499   2.623   1.356   1.419 -2.6354 -1.2494  0.4256
 8179TIP3   OH224500   0.802   3.435   4.786 -0.2049 -0.2078 -0.9026
 8179TIP3    H124501   0.894   3.414   4.767  0.0283  0.8280 -0.9785
 8179TIP3    H224502   0.806   3.481   4.870 -0.8513 -1.6363 -0.0406
 8180TIP3   OH224503   6.083   6.532   3.728  0.2104  0.0901  0.0607
 8180TIP3    H124504   6.057   6.617   3.764  2.7460  0.6945  0.6586
 8180TIP3    H224505   6.148   6.553   3.662 -0.7529 -1.3198 -1.4084
 8181TIP3   OH224506   6.846   1.079   5.049  0.2475 -0.2397  0.3724
 8181TIP3    H124507   6.941   1.092   5.056  0.4132 -0.6857 -0.7255
 8181TIP3    H224508   6.814   1.159   5.007 -0.0058  0.3032  1.5736
 8182TIP3   OH224509   0.322   5.577   1.412 -0.1924  0.0229 -0.1412
 8182TIP3    H124510   0.367   5.493   1.401 -0.4260 -0.3494  1.4765
 8182TIP3    H224511   0.384   5.629   1.464 -1.4176 -0.3708  1.8089
 8183TIP3   OH224512   0.662   2.082   1.504  0.2241  0.1455 -0.5615
 8183TIP3    H124513   0.705   2.164   1.482  0.0407 -0.0977 -1.9128
 8183TIP3    H224514   0.682   2.024   1.430  0.2140 -0.9736  0.2821
 8184TIP3   OH224515   6.235   0.327   0.659 -0.3391  0.8081  0.7935
 8184TIP3    H124516   6.250   0.393   0.727  0.9904  0.2842  1.0450
 8184TIP3    H224517   6.247   0.244   0.704  1.0970  0.4582 -0.1627
 8185TIP3   OH224518   3.501   1.019   4.720 -0.0701  0.0868 -0.4694
 8185TIP3    H124519   3.587   0.986   4.691  0.8999  0.8612  1.3092
 8185TIP3    H224520   3.515   1.041   4.813 -2.1497  0.4605 -0.2050
 8186TIP3   OH224521   1.637   2.301   5.175  0.5606 -0.2124  0.2157
 8186TIP3    H124522   1.682   2.223   5.141  1.3304 -0.4809  1.7356
 8186TIP3    H224523   1.699   2.372   5.161  0.6311 -0.2183  0.4852
 8187TIP3   OH224524   4.836   0.833   0.401  0.5953  0.3928 -0.0669
 8187TIP3    H124525   4.913   0.825   0.457 -0.4582  0.4152  1.4462
 8187TIP3    H224526   4.820   0.744   0.370  0.2133  0.0408  1.0689
 8188TIP3   OH224527   2.422   5.907   1.435 -0.1304  0.2488  0.0189
 8188TIP3    H124528   2.350   5.955   1.475 -0.3635 -0.2651  0.2264
 8188TIP3    H224529   2.445   5.839   1.499  1.5305  1.3087  0.6134
 8189TIP3   OH224530   1.532   0.603   3.806  0.0275  0.1335 -0.0505
 8189TIP3    H124531   1.541   0.525   3.752 -0.1729 -0.3268  0.5654
 8189TIP3    H224532   1.614   0.651   3.795  0.3955 -0.4686  0.0375
 8190TIP3   OH224533   4.740   4.260   1.392  0.3384  0.2620 -0.2344
 8190TIP3    H124534   4.674   4.226   1.331  1.5580 -1.7253 -0.5082
 8190TIP3    H224535   4.758   4.187   1.451  3.2002  0.2883 -0.9469
 8191TIP3   OH224536   2.778   1.361   1.759  0.0990 -0.0296 -0.1189
 8191TIP3    H124537   2.820   1.321   1.835  0.1835  0.1906 -0.0497
 8191TIP3    H224538   2.851   1.393   1.705  0.0176  0.5667  0.1173
 8192TIP3   OH224539   2.042   0.376   0.376 -0.3003  0.2207  0.1517
 8192TIP3    H124540   1.952   0.407   0.372  0.2743  1.8541 -1.7433
 8192TIP3    H224541   2.070   0.370   0.285  1.4707 -0.4041  0.6880
 8193TIP3   OH224542   3.260   2.548   2.867 -0.3163  0.0539  0.0306
 8193TIP3    H124543   3.192   2.506   2.919 -0.3906 -0.8193 -0.7371
 8193TIP3    H224544   3.342   2.510   2.900 -0.4243 -1.2764 -1.1187
 8194TIP3   OH224545   2.398   3.777   2.861  0.3591  0.2795 -0.0156
 8194TIP3    H124546   2.365   3.718   2.794  1.3929  1.7685 -1.9071
 8194TIP3    H224547   2.480   3.736   2.890 -0.1055 -0.3780  0.4113
 8195TIP3   OH224548   5.182   3.580   4.447  0.2332  0.2761 -0.0776
 8195TIP3    H124549   5.128   3.501   4.441  0.4812  0.2018 -1.8593
 8195TIP3    H224550   5.256   3.553   4.501 -0.2312 -0.3703  0.2683
 8196TIP3   OH224551   6.693   0.893   0.326  0.5889  0.0610 -0.3141
 8196TIP3    H124552   6.628   0.825   0.346  0.6165 -0.3277 -1.4821
 8196TIP3    H224553   6.734   0.863   0.245  2.2947  0.2528  0.4381
 8197TIP3   OH224554   3.624   1.128   3.736 -0.1294  0.5337 -0.0126
 8197TIP3    H124555   3.624   1.040   3.773 -1.2844  0.5939  0.1610
 8197TIP3    H224556   3.690   1.125   3.667  0.6823 -0.1203  0.7645
 8198TIP3   OH224557   0.373   3.936   4.108 -0.2362  0.1746 -0.1007
 8198TIP3    H124558   0.351   4.003   4.173 -1.0085 -0.8705  0.7662
 8198TIP3    H224559   0.295   3.931   4.052 -0.4952 -0.5030  0.3034
 8199TIP3   OH224560   5.232   1.981   3.314  0.6239  0.1946  0.1191
 8199TIP3    H124561   5.200   2.071   3.303  0.7777  0.4974  1.8568
 8199TIP3    H224562   5.299   1.971   3.247 -1.2246  0.4316 -1.8872
 8200TIP3   OH224563   3.066   3.304   5.317 -0.4105  0.2860  0.0839
 8200TIP3    H124564   3.132   3.362   5.355  0.7505 -0.4810 -0.6827
 8200TIP3    H224565   3.051   3.237   5.384  0.3869 -0.1261 -0.1398
 8201TIP3   OH224566   4.670   0.197   4.771 -0.0473 -0.3071  0.0993
 8201TIP3    H124567   4.758   0.185   4.806  1.3112  0.6152 -2.7428
 8201TIP3    H224568   4.659   0.127   4.707 -0.0238  1.4459 -1.9239
 8202TIP3   OH224569   5.148   1.349   5.115  0.1108 -0.4649  0.3515
 8202TIP3    H124570   5.182   1.362   5.027  0.2758  0.3055  0.5234
 8202TIP3    H224571   5.195   1.273   5.149  1.0105  0.0433  0.2560
 8203TIP3   OH224572   6.298   5.786   2.613 -0.4353  0.4365 -0.6119
 8203TIP3    H124573   6.249   5.844   2.671 -1.6833 -1.0871 -0.0956
 8203TIP3    H224574   6.312   5.706   2.664  0.7183  0.0384 -1.5107
 8204TIP3   OH224575   2.178   5.212   3.318  0.7815 -0.1115  0.2861
 8204TIP3    H124576   2.110   5.225   3.252  1.6882  1.0371 -0.4868
 8204TIP3    H224577   2.243   5.157   3.275  0.4214 -1.0855  0.9686
 8205TIP3   OH224578   0.809   6.364   2.221 -0.0076 -0.2146  0.0545
 8205TIP3    H124579   0.875   6.296   2.237  1.0019  0.3349 -1.6089
 8205TIP3    H224580   0.836   6.437   2.277  0.3996 -0.2542 -0.0827
 8206TIP3   OH224581   5.893   5.752   2.954  0.2525 -0.1284  0.0634
 8206TIP3    H124582   5.969   5.810   2.958 -0.5756  0.9351  1.8376
 8206TIP3    H224583   5.847   5.778   2.874  1.4787 -0.4672 -0.7818
 8207TIP3   OH224584   4.406   3.073   0.297 -0.1706 -0.6344 -0.7074
 8207TIP3    H124585   4.496   3.058   0.325 -0.1072 -2.0186 -1.5489
 8207TIP3    H224586   4.353   3.014   0.352 -0.3669 -1.0582 -1.3363
 8208TIP3   OH224587   2.829   1.048   1.763 -0.3150 -0.5321 -0.5045
 8208TIP3    H124588   2.810   1.101   1.840 -0.2143 -1.2625  0.0338
 8208TIP3    H224589   2.919   1.069   1.741 -1.0484  1.4502 -1.8705
 8209TIP3   OH224590   2.922   2.944   2.058 -0.2665 -0.4729 -0.0580
 8209TIP3    H124591   3.012   2.958   2.030  0.6775  1.3196  3.3349
 8209TIP3    H224592   2.910   2.849   2.054  2.0230 -0.8162  0.0768
 8210TIP3   OH224593   0.508   1.354   2.660 -0.0468 -0.4336  0.2583
 8210TIP3    H124594   0.540   1.443   2.644  1.7874 -1.2040 -0.5680
 8210TIP3    H224595   0.535   1.335   2.749  0.2683 -0.4445  0.1621
 8211TIP3   OH224596   7.012   4.419   3.189 -0.0237 -0.1136 -0.0355
 8211TIP3    H124597   6.924   4.418   3.153  0.5150  1.3648 -1.5375
 8211TIP3    H224598   7.069   4.424   3.112  1.4011 -1.1054  0.8948
 8212TIP3   OH224599   1.540   4.007   5.388 -0.1476  0.3647 -0.2967
 8212TIP3    H124600   1.524   4.080   5.329  1.8621 -0.2392 -1.7225
 8212TIP3    H224601   1.527   3.929   5.334 -1.2857 -0.3323  0.9317
 8213TIP3   OH224602   2.643   6.201   3.785  0.4573 -0.5012  0.7964
 8213TIP3    H124603   2.621   6.144   3.711  1.8712 -0.8927  0.6613
 8213TIP3    H224604   2.680   6.143   3.851  2.5931  0.3008  0.3861
 8214TIP3   OH224605   3.580   5.985   5.726  0.0672 -0.1270 -0.6920
 8214TIP3    H124606   3.549   5.943   5.806  0.6073  2.1676  0.8106
 8214TIP3    H224607   3.503   6.031   5.692  0.0730 -0.3255 -0.9767
 8215TIP3   OH224608   6.512   4.882   1.340 -0.2278  0.1752  0.1095
 8215TIP3    H124609   6.503   4.799   1.387 -0.6287 -1.3172 -2.4048
 8215TIP3    H224610   6.434   4.931   1.364  0.9037  0.7225  3.1000
 8216TIP3   OH224611   6.316   6.486   1.138 -0.2137  0.7875 -0.3752
 8216TIP3    H124612   6.229   6.503   1.104 -0.0126 -0.4351 -1.5880
 8216TIP3    H224613   6.329   6.552   1.206 -2.1517  0.8384 -0.0148
 8217TIP3   OH224614   3.671   0.627   1.942 -0.3177  0.4427  0.2482
 8217TIP3    H124615   3.759   0.664   1.931 -0.4214  0.8481  0.7916
 8217TIP3    H224616   3.612   0.702   1.941 -0.8715  0.0485 -2.0692
 8218TIP3   OH224617   6.055   6.210   3.052  0.1203  0.1051  0.1791
 8218TIP3    H124618   5.962   6.212   3.072 -0.0639  3.2685 -0.5010
 8218TIP3    H224619   6.095   6.272   3.114  2.0266 -1.9754  1.2072
 8219TIP3   OH224620   0.340   1.854   2.723 -0.4429 -0.0965  0.1331
 8219TIP3    H124621   0.327   1.874   2.816 -1.2641 -0.7806  0.1831
 8219TIP3    H224622   0.434   1.842   2.714 -0.4523 -1.0828  1.1146
 8220TIP3   OH224623   3.432   0.554   0.685  0.3469 -0.0672  0.1200
 8220TIP3    H124624   3.485   0.482   0.652 -0.1558 -0.9146  1.1012
 8220TIP3    H224625   3.488   0.596   0.751  0.8034  0.7268 -0.7549
 8221TIP3   OH224626   6.406   4.312   1.756 -0.1768  0.0473 -0.5442
 8221TIP3    H124627   6.487   4.273   1.723  0.4549  0.3062  0.6523
 8221TIP3    H224628   6.435   4.377   1.819 -1.3484 -0.7298  0.8548
 8222TIP3   OH224629   0.364   4.779   4.227  0.3153 -0.5812 -0.0646
 8222TIP3    H124630   0.449   4.800   4.265 -0.4003 -0.7253  1.7022
 8222TIP3    H224631   0.326   4.715   4.288 -0.8746 -0.8452 -1.0616
 8223TIP3   OH224632   0.241   1.999   0.685  0.2320 -0.0861  0.3616
 8223TIP3    H124633   0.303   1.993   0.612 -0.8834 -0.4100 -0.5796
 8223TIP3    H224634   0.286   1.956   0.758  1.5901  0.7397  0.0406
 8224TIP3   OH224635   4.596   3.008   5.294  0.9499  0.1179 -0.1535
 8224TIP3    H124636   4.510   2.971   5.316  1.4084 -1.5116 -0.9687
 8224TIP3    H224637   4.617   3.065   5.368  0.5877 -1.9271  1.6228
 8225TIP3   OH224638   5.837   5.544   2.550 -0.4905 -0.1045  0.4480
 8225TIP3    H124639   5.872   5.497   2.475  0.0953  1.8819 -0.5865
 8225TIP3    H224640   5.742   5.543   2.538 -0.4553 -0.5718  0.1859
 8226TIP3   OH224641   4.346   0.949   3.894  0.2330 -0.4758  0.2054
 8226TIP3    H124642   4.421   0.899   3.929 -0.0184 -0.4961  0.7302
 8226TIP3    H224643   4.271   0.892   3.910 -0.1216  0.2444  1.2183
 8227TIP3   OH224644   3.629   1.383   3.294 -0.4503  0.2483 -0.3128
 8227TIP3    H124645   3.648   1.368   3.201 -0.2899 -0.7640 -0.1280
 8227TIP3    H224646   3.642   1.477   3.306 -0.9586  0.4823 -1.4255
 8228TIP3   OH224647   5.808   6.125   3.849 -0.8081 -0.4093  0.0782
 8228TIP3    H124648   5.845   6.159   3.767 -0.5125 -0.6319  0.1182
 8228TIP3    H224649   5.824   6.031   3.845 -0.1567 -0.3379  0.7135
 8229TIP3   OH224650   2.289   2.454   0.012 -0.0232  0.2869  0.2825
 8229TIP3    H124651   2.292   2.359   0.017 -2.2121  0.1979  0.6367
 8229TIP3    H224652   2.381   2.480  -0.001  0.5711 -1.8567 -0.1583
 8230TIP3   OH224653   0.778   1.727   3.755  0.3723  0.0850  0.4318
 8230TIP3    H124654   0.735   1.649   3.791  0.3473  0.5871  1.5396
 8230TIP3    H224655   0.786   1.709   3.661 -0.6696 -0.7614  0.4850
 8231TIP3   OH224656   2.927   1.723   3.331 -0.2569  0.0608 -0.3629
 8231TIP3    H124657   2.982   1.750   3.405 -2.5810  0.2093  1.4244
 8231TIP3    H224658   2.981   1.662   3.282  0.8521 -1.4009  2.4387
 8232TIP3   OH224659   1.719   1.637   0.303  0.7707 -0.3421  0.4429
 8232TIP3    H124660   1.674   1.582   0.240 -1.4305  0.5502  1.1607
 8232TIP3    H224661   1.669   1.628   0.384  1.0810  1.7185  0.9301
 8233TIP3   OH224662   1.610   4.801   0.748 -0.0100  0.2625 -1.0854
 8233TIP3    H124663   1.557   4.802   0.827  0.6365  1.7145 -0.6388
 8233TIP3    H224664   1.649   4.713   0.747 -0.3568  0.0784 -0.0222
 8234TIP3   OH224665   1.178   4.090   0.766  0.3523  0.5770 -0.2271
 8234TIP3    H124666   1.179   4.002   0.806 -0.6283 -0.0877 -1.5803
 8234TIP3    H224667   1.259   4.095   0.717 -0.0743 -0.0100 -1.0090
 8235TIP3   OH224668   5.774   2.770   0.058 -0.5523 -0.1683 -1.0268
 8235TIP3    H124669   5.756   2.700   0.120 -1.4199  1.2033  0.3347
 8235TIP3    H224670   5.847   2.738   0.005  0.5322 -1.2095  1.0098
 8236TIP3   OH224671   2.066   6.091   3.804  0.2888 -0.1895  0.7230
 8236TIP3    H124672   2.158   6.065   3.799  1.4923  3.1304  2.2394
 8236TIP3    H224673   2.069   6.186   3.795 -2.9860  0.0532  1.3177
 8237TIP3   OH224674   2.626   6.390   4.254 -0.6680  0.0681 -0.5078
 8237TIP3    H124675   2.591   6.396   4.165 -0.2787  2.3712 -0.5648
 8237TIP3    H224676   2.613   6.477   4.291 -0.9756 -0.8742  1.7850
 8238TIP3   OH224677   3.857   4.446   1.766  0.2827 -0.5220  0.8994
 8238TIP3    H124678   3.765   4.466   1.749  0.5954  1.8241  1.6798
 8238TIP3    H224679   3.860   4.423   1.859  0.4749 -0.7285  0.8432
 8239TIP3   OH224680   2.310   0.735   4.987 -0.4797  0.9913 -0.0608
 8239TIP3    H124681   2.364   0.695   5.055  0.4205  1.4401 -0.4909
 8239TIP3    H224682   2.222   0.698   5.000 -0.2763  0.9179  1.2087
 8240TIP3   OH224683   4.505   3.150   0.956 -0.0666 -0.6518 -0.9202
 8240TIP3    H124684   4.471   3.240   0.962 -0.9032 -0.9899 -0.5012
 8240TIP3    H224685   4.597   3.162   0.932  0.1737  0.3734  0.3567
 8241TIP3   OH224686   0.265   0.999   0.388  0.2278  0.3217  0.0119
 8241TIP3    H124687   0.256   1.008   0.293  0.7892  1.5105  0.0516
 8241TIP3    H224688   0.181   0.964   0.417  0.2664 -0.6533 -0.9897
 8242TIP3   OH224689   4.260   4.884   0.387 -0.1026  0.1747 -0.6372
 8242TIP3    H124690   4.169   4.898   0.362 -0.6810  0.0722  1.2323
 8242TIP3    H224691   4.291   4.815   0.328 -1.4028 -0.1698 -0.9540
 8243TIP3   OH224692   3.976   0.891   1.300 -0.2814  0.1632 -0.1681
 8243TIP3    H124693   3.977   0.810   1.250  0.6962 -0.2008  0.4252
 8243TIP3    H224694   4.066   0.923   1.297 -0.7661  1.5564 -0.9004
 8244TIP3   OH224695   0.948   5.690   5.500 -1.0044 -0.4359  0.6919
 8244TIP3    H124696   1.013   5.636   5.455 -1.1259 -0.5161  0.6103
 8244TIP3    H224697   0.879   5.702   5.435 -0.6129  0.4910  0.4335
 8245TIP3   OH224698   3.810   5.898   1.357 -0.0152 -0.0743  0.3921
 8245TIP3    H124699   3.902   5.873   1.368 -0.0039  0.6155  2.2541
 8245TIP3    H224700   3.785   5.861   1.273  1.1178 -2.8301  1.1708
 8246TIP3   OH224701   3.564   1.895   5.107  0.5424  0.0805 -0.4725
 8246TIP3    H124702   3.516   1.879   5.188 -0.8830 -2.0533 -1.6488
 8246TIP3    H224703   3.579   1.808   5.070  0.6289  1.0152 -2.7936
 8247TIP3   OH224704   2.458   1.473   2.051 -0.1470 -0.3495 -0.7959
 8247TIP3    H124705   2.466   1.402   2.115 -0.0873 -0.1078 -0.5323
 8247TIP3    H224706   2.442   1.429   1.968 -0.6642 -0.6493 -0.5403
 8248TIP3   OH224707   4.364   3.216   2.447 -0.0836 -0.5255 -0.1971
 8248TIP3    H124708   4.446   3.176   2.416  0.4241  1.2873 -1.3669
 8248TIP3    H224709   4.391   3.273   2.520 -0.4159 -0.4738 -0.1125
 8249TIP3   OH224710   5.461   3.114   2.563  0.4769 -0.4067 -0.2558
 8249TIP3    H124711   5.398   3.105   2.634 -0.3126 -1.4496 -1.0513
 8249TIP3    H224712   5.495   3.203   2.573 -0.6893 -0.0211  0.5572
 8250TIP3   OH224713   1.436   0.043   4.969  0.1340 -0.2854 -0.0611
 8250TIP3    H124714   1.520   0.001   4.950 -0.0659 -1.2717  1.1441
 8250TIP3    H224715   1.454   0.137   4.962  1.0186 -0.5074 -1.0580
 8251TIP3   OH224716   2.566   0.505   3.177  0.0463  0.3560  0.7337
 8251TIP3    H124717   2.610   0.578   3.134 -0.6936  0.1162 -0.4661
 8251TIP3    H224718   2.606   0.427   3.139  0.4999  0.1200  1.6653
 8252TIP3   OH224719   1.524   5.617   1.141  0.3995  0.0367  0.2866
 8252TIP3    H124720   1.567   5.533   1.158 -1.0358 -0.7880  0.0166
 8252TIP3    H224721   1.510   5.617   1.046 -0.6218  0.0696  0.4333
 8253TIP3   OH224722   3.205   1.157   0.990  0.4367  0.3632  0.1513
 8253TIP3    H124723   3.250   1.129   0.910 -0.3729  3.2776 -1.4380
 8253TIP3    H224724   3.236   1.096   1.057  1.9177 -1.5721 -2.1418
 8254TIP3   OH224725   4.051   0.568   2.376 -0.1641 -0.2423  0.5874
 8254TIP3    H124726   3.973   0.619   2.397 -0.1734 -0.3849  0.9114
 8254TIP3    H224727   4.047   0.557   2.281 -0.6269 -0.3929  0.6195
 8255TIP3   OH224728   6.599   5.791   1.600  0.9011 -0.6314  0.1299
 8255TIP3    H124729   6.667   5.807   1.666  0.4129 -1.7628  0.9538
 8255TIP3    H224730   6.586   5.696   1.603  0.8882 -0.7042 -1.6369
 8256TIP3   OH224731   1.932   2.333   4.530 -0.2888  0.2844 -0.3775
 8256TIP3    H124732   1.900   2.367   4.614 -1.7143  0.0914 -0.8136
 8256TIP3    H224733   2.023   2.308   4.547 -0.7660 -0.4463  1.3284
 8257TIP3   OH224734   1.949   3.232   3.370  0.1747  0.0265  0.0118
 8257TIP3    H124735   1.945   3.317   3.413 -0.0583 -0.0937  0.2299
 8257TIP3    H224736   1.863   3.193   3.387  0.2535 -0.2189 -0.1546
 8258TIP3   OH224737   2.177   5.324   1.649 -0.3311 -0.0019  0.1866
 8258TIP3    H124738   2.215   5.298   1.732  0.1109 -1.5010 -0.4583
 8258TIP3    H224739   2.251   5.358   1.598 -0.1954 -1.0315 -0.3312
 8259TIP3   OH224740   5.109   4.092   5.640  0.0539  0.1585  0.0004
 8259TIP3    H124741   5.046   4.068   5.572 -0.4467  1.4111  0.0017
 8259TIP3    H224742   5.068   4.164   5.687  0.9516  0.1569  0.8254
 8260TIP3   OH224743   3.050   1.796   4.035  0.1548 -0.1217  0.0847
 8260TIP3    H124744   3.127   1.768   3.986  1.1658  1.1193  0.8937
 8260TIP3    H224745   3.073   1.778   4.127 -1.2140 -1.2927  0.2281
 8261TIP3   OH224746   6.841   3.035   3.264 -0.0460 -0.4060  0.6584
 8261TIP3    H124747   6.827   2.941   3.280 -1.1181 -0.5177 -0.7286
 8261TIP3    H224748   6.901   3.037   3.189 -2.2094 -0.0719 -1.1622
 8262TIP3   OH224749   1.690   1.164   0.051 -0.5156 -0.5877 -0.6215
 8262TIP3    H124750   1.704   1.172   0.145 -1.6446  1.4382 -0.5815
 8262TIP3    H224751   1.767   1.205   0.011 -0.4910 -0.5823 -0.5684
 8263TIP3   OH224752   0.720   1.107   4.595  0.1584  0.3780 -0.3649
 8263TIP3    H124753   0.778   1.042   4.635  1.8873  0.9577 -1.7680
 8263TIP3    H224754   0.698   1.070   4.509  0.9505  1.4533 -1.0725
 8264TIP3   OH224755   6.940   1.881   1.045 -0.3404  0.2466  1.2072
 8264TIP3    H124756   7.029   1.847   1.045 -0.5106 -0.4356 -1.3231
 8264TIP3    H224757   6.885   1.804   1.063 -0.5982 -0.6100 -2.3728
 8265TIP3   OH224758   1.991   0.461   3.733  0.1413  0.0666  0.0559
 8265TIP3    H124759   1.964   0.404   3.661  2.3321 -2.0561  0.7745
 8265TIP3    H224760   2.072   0.502   3.702  0.1290  0.5348  0.6244
 8266TIP3   OH224761   1.216   3.962   5.180  0.1426 -0.2060 -0.1979
 8266TIP3    H124762   1.201   3.892   5.117  1.0730 -0.3398 -0.2848
 8266TIP3    H224763   1.247   4.035   5.127 -1.3390  0.4862 -0.1861
 8267TIP3   OH224764   2.403   0.050   4.905 -0.4465 -0.2916 -0.0946
 8267TIP3    H124765   2.444  -0.001   4.835  0.7704  0.3337  0.1166
 8267TIP3    H224766   2.457   0.032   4.982  0.4740  1.7886 -0.1702
 8268TIP3   OH224767   3.328   5.789   2.743 -0.0870 -0.0345 -0.0420
 8268TIP3    H124768   3.290   5.844   2.811  0.4179  0.4210 -0.1220
 8268TIP3    H224769   3.418   5.773   2.773  0.4150  0.8838 -1.0053
 8269TIP3   OH224770   2.018   1.621   5.917 -0.2190 -1.0894  0.0743
 8269TIP3    H124771   1.986   1.557   5.853  0.0100 -1.6169  0.4789
 8269TIP3    H224772   1.968   1.700   5.899 -2.5316 -2.1526  1.3339
 8270TIP3   OH224773   2.754   2.852   0.864 -0.1030  0.6282 -0.1169
 8270TIP3    H124774   2.784   2.942   0.877 -2.9456  1.5538  1.0109
 8270TIP3    H224775   2.669   2.862   0.821  0.4120 -1.6700 -1.8399
 8271TIP3   OH224776   3.947   5.452   1.384 -0.0139  0.2027 -0.1745
 8271TIP3    H124777   3.989   5.529   1.424 -1.8572  1.3197 -0.2867
 8271TIP3    H224778   3.929   5.394   1.458  0.8706  0.1014 -0.0206
 8272TIP3   OH224779   5.035   0.727   1.944 -0.2316 -0.1928  0.3147
 8272TIP3    H124780   4.987   0.805   1.974 -0.0160 -0.1939  0.6759
 8272TIP3    H224781   5.076   0.754   1.862 -1.8440 -0.5685 -0.6495
 8273TIP3   OH224782   2.306   3.832   1.363 -0.3586 -0.2981 -0.1334
 8273TIP3    H124783   2.301   3.742   1.395 -0.8986 -0.9654 -1.9509
 8273TIP3    H224784   2.246   3.835   1.288 -0.4218  1.6096 -0.0659
 8274TIP3   OH224785   6.152   5.221   5.874  0.6079  0.0275 -0.7507
 8274TIP3    H124786   6.171   5.300   5.823 -0.2803  0.0906 -0.9929
 8274TIP3    H224787   6.081   5.247   5.932  0.7846 -0.4022 -0.3429
 8275TIP3   OH224788   0.605   3.976   0.362 -0.0685  0.0543  0.0484
 8275TIP3    H124789   0.605   4.022   0.278 -0.6100  3.1921  1.6270
 8275TIP3    H224790   0.697   3.951   0.376 -0.1611 -1.7272 -1.9673
 8276TIP3   OH224791   4.332   1.677   1.789  0.4193 -0.7281  0.9073
 8276TIP3    H124792   4.417   1.633   1.786  0.0441 -1.5672  2.0840
 8276TIP3    H224793   4.342   1.744   1.856  0.9490  0.9763 -0.7914
 8277TIP3   OH224794   3.000   3.958   5.803 -0.1315 -0.1055  0.8849
 8277TIP3    H124795   3.009   4.044   5.844  1.0767 -0.2667  0.9919
 8277TIP3    H224796   2.925   3.967   5.745 -0.5036  0.7836  1.4849
 8278TIP3   OH224797   4.330   2.602   4.115 -0.2408 -0.6057  0.8257
 8278TIP3    H124798   4.313   2.695   4.104  0.4652 -0.4497  0.9842
 8278TIP3    H224799   4.417   2.589   4.077 -0.6421 -1.3444  0.1240
 8279TIP3   OH224800   2.106   5.502   1.121 -0.7969  0.1884  0.0257
 8279TIP3    H124801   2.192   5.463   1.135 -0.0927  2.2516  2.0367
 8279TIP3    H224802   2.054   5.432   1.080  1.6298 -1.2806 -0.7319
 8280TIP3   OH224803   6.251   3.802   1.794 -0.0224 -0.2916  0.0235
 8280TIP3    H124804   6.304   3.881   1.783  0.1453 -0.0210  2.2425
 8280TIP3    H224805   6.290   3.738   1.735  1.3351  0.5871 -0.0793
 8281TIP3   OH224806   2.631   3.253   3.462 -0.4918  0.5587 -0.2523
 8281TIP3    H124807   2.596   3.193   3.396 -0.0523 -0.1455  0.1393
 8281TIP3    H224808   2.695   3.306   3.413  0.8389 -0.8676 -0.1599
 8282TIP3   OH224809   3.701   6.799   1.071  0.4701 -0.1250 -0.0123
 8282TIP3    H124810   3.687   6.747   0.992  0.2741 -0.6133  0.3392
 8282TIP3    H224811   3.791   6.832   1.062  0.5199 -0.3383 -0.3430
 8283TIP3   OH224812   3.480   2.648   4.042 -0.3090 -0.3858  0.1109
 8283TIP3    H124813   3.437   2.571   4.005  1.3243 -1.4244  0.2851
 8283TIP3    H224814   3.570   2.620   4.058  0.0114  1.1955  1.3327
 8284TIP3   OH224815   4.557   6.473   4.063  0.5749  0.5815 -0.3549
 8284TIP3    H124816   4.577   6.443   4.151  0.3555  1.8312  0.1371
 8284TIP3    H224817   4.634   6.524   4.036  0.7924 -0.0900 -1.0271
 8285TIP3   OH224818   7.109   4.846   3.245  0.5002  0.0503  0.0385
 8285TIP3    H124819   7.063   4.826   3.163 -1.7819  2.0588  0.7122
 8285TIP3    H224820   7.127   4.940   3.239 -0.9523  0.5360  2.3867
 8286TIP3   OH224821   1.772   1.739   2.941 -0.2933 -0.8496 -0.3825
 8286TIP3    H124822   1.786   1.766   3.031  0.5159 -2.6900  0.0931
 8286TIP3    H224823   1.719   1.659   2.947  0.0942 -1.2206 -1.4915
 8287TIP3   OH224824   5.403   2.883   0.541 -0.2035  0.3028 -0.4774
 8287TIP3    H124825   5.407   2.867   0.635 -0.2927  0.9340 -0.3641
 8287TIP3    H224826   5.484   2.845   0.506  0.3043  0.9565 -0.0147
 8288TIP3   OH224827   2.765   0.243   4.584  0.9190  0.0074  0.4576
 8288TIP3    H124828   2.857   0.234   4.607  1.2681 -0.5774 -1.0552
 8288TIP3    H224829   2.728   0.297   4.654  2.4690  0.5390  0.9034
 8289TIP3   OH224830   3.529   4.558   2.693 -0.4538  0.4826  0.3903
 8289TIP3    H124831   3.568   4.603   2.768 -1.1351 -0.5031  1.3614
 8289TIP3    H224832   3.536   4.465   2.713  1.6007  0.0271 -1.9276
 8290TIP3   OH224833   1.548   6.626   2.393 -0.8998  0.1033 -0.0830
 8290TIP3    H124834   1.583   6.711   2.421  0.2695 -0.1456 -0.7338
 8290TIP3    H224835   1.570   6.621   2.300 -0.3210 -1.2263  0.1105
 8291TIP3   OH224836   6.533   4.282   0.908  0.2310 -0.7088  0.2579
 8291TIP3    H124837   6.544   4.273   0.813 -0.1737  1.2761 -0.0146
 8291TIP3    H224838   6.527   4.376   0.923 -5.3507 -0.8999  1.5140
 8292TIP3   OH224839   6.937   3.956   2.799 -0.3259 -0.0908 -0.0988
 8292TIP3    H124840   6.931   3.931   2.707  0.1721 -0.4881 -0.0263
 8292TIP3    H224841   6.904   3.880   2.846 -1.2256  0.3692  0.0319
 8293TIP3   OH224842   4.593   3.368   4.616 -0.2812  0.3387  0.6210
 8293TIP3    H124843   4.672   3.384   4.667 -0.6359 -0.3997  1.4379
 8293TIP3    H224844   4.523   3.406   4.668 -0.4598  1.1703 -0.1961
 8294TIP3   OH224845   4.423   1.298   3.826 -0.1951  0.5230 -0.5811
 8294TIP3    H124846   4.376   1.376   3.856 -0.8414 -0.1237  0.1460
 8294TIP3    H224847   4.403   1.232   3.892 -0.0056 -0.3792 -1.4040
 8295TIP3   OH224848   1.864   5.632   4.610 -0.2263  0.6217 -0.8247
 8295TIP3    H124849   1.863   5.678   4.694 -0.3220 -0.0284 -0.4593
 8295TIP3    H224850   1.939   5.574   4.615 -0.4343  0.3282 -1.0497
 8296TIP3   OH224851   1.041   1.544   5.282 -0.0985  0.0325 -0.2724
 8296TIP3    H124852   0.973   1.479   5.266  1.1959 -1.2873 -0.6631
 8296TIP3    H224853   1.002   1.605   5.344 -1.5217 -0.8554 -0.2518
 8297TIP3   OH224854   4.082   3.763   5.174 -0.3492  0.1734 -0.0645
 8297TIP3    H124855   4.132   3.685   5.151 -2.1965 -0.8362 -0.9068
 8297TIP3    H224856   4.070   3.757   5.269 -0.9784 -0.8976 -0.2036
 8298TIP3   OH224857   0.896   2.814   0.786  0.6248 -0.4098  0.2697
 8298TIP3    H124858   0.872   2.815   0.693  1.3932  0.9879  0.0558
 8298TIP3    H224859   0.813   2.801   0.832 -0.0065  0.4933 -0.5747
 8299TIP3   OH224860   7.197   5.550   5.707  0.1759 -0.8029 -0.5770
 8299TIP3    H124861   7.130   5.538   5.775  0.2406 -2.5983 -0.7973
 8299TIP3    H224862   7.227   5.462   5.687  0.2975 -0.3112 -2.8219
 8300TIP3   OH224863   4.617   3.007   1.603 -0.0965 -0.1265  0.1000
 8300TIP3    H124864   4.558   3.008   1.528  1.2584  0.8651 -1.0108
 8300TIP3    H224865   4.600   2.923   1.646 -2.1789  0.0755 -0.2512
 8301TIP3   OH224866   6.949   2.949   4.464 -0.3261 -0.3199  0.2061
 8301TIP3    H124867   7.034   2.905   4.470  0.1572  0.4945 -0.4714
 8301TIP3    H224868   6.914   2.946   4.553  0.8442  0.1745  0.7043
 8302TIP3   OH224869   0.976   5.115   0.377  0.4830  0.2215 -0.5052
 8302TIP3    H124870   0.961   5.148   0.289 -1.4291  0.4161 -0.1435
 8302TIP3    H224871   0.927   5.175   0.434 -1.3476 -1.9492  0.3539
 8303TIP3   OH224872   5.291   0.016   3.881  0.2863 -0.1554  0.2312
 8303TIP3    H124873   5.351   0.059   3.819  0.2237 -0.2314  0.1175
 8303TIP3    H224874   5.273  -0.069   3.842 -0.6809  0.2441 -0.2251
 8304TIP3   OH224875   0.843   0.580   2.517 -0.6738  0.1882 -0.4217
 8304TIP3    H124876   0.886   0.546   2.595  0.5782  1.2773 -0.5981
 8304TIP3    H224877   0.820   0.502   2.466  1.1405 -0.4607 -0.3184
 8305TIP3   OH224878   5.288   3.921   2.186  0.0200  0.6289 -0.1082
 8305TIP3    H124879   5.317   3.872   2.264  1.4720  0.8932 -0.4534
 8305TIP3    H224880   5.343   3.887   2.115 -1.3267  0.3575 -1.0449
 8306TIP3   OH224881   1.949   0.371   3.465  1.0648 -0.5991 -0.3717
 8306TIP3    H124882   1.950   0.464   3.444  0.5657 -0.0556  1.8200
 8306TIP3    H224883   1.880   0.335   3.409  0.5815  0.5267 -0.5191
 8307TIP3   OH224884   3.631   6.238   0.046 -0.5114 -0.8798 -0.3594
 8307TIP3    H124885   3.717   6.198   0.037 -0.6337 -0.7184 -2.8913
 8307TIP3    H224886   3.585   6.216  -0.035 -3.2098 -1.6773  1.2419
 8308TIP3   OH224887   0.196   3.079   2.145 -0.0645 -0.1264 -0.1770
 8308TIP3    H124888   0.170   3.141   2.213 -0.7469 -1.5680  0.9416
 8308TIP3    H224889   0.290   3.064   2.161  0.0009  0.3005 -0.1721
 8309TIP3   OH224890   2.939   0.582   4.725 -0.5210 -0.1408 -0.8294
 8309TIP3    H124891   2.968   0.524   4.795 -0.3144  0.3806 -0.4715
 8309TIP3    H224892   3.000   0.564   4.653 -0.1544 -0.0283 -0.5538
 8310TIP3   OH224893   3.400   5.144   3.358  0.2568 -0.5992 -0.1695
 8310TIP3    H124894   3.343   5.110   3.289  0.9163 -1.1478 -0.4550
 8310TIP3    H224895   3.463   5.074   3.373  2.4564  0.9233 -1.6591
 8311TIP3   OH224896   5.672   3.522   2.812  0.2703 -0.9664  0.2300
 8311TIP3    H124897   5.755   3.519   2.765 -0.6171 -0.1549 -1.5001
 8311TIP3    H224898   5.624   3.444   2.781 -0.6832  0.0639 -0.9949
 8312TIP3   OH224899   3.569   5.344   1.525  0.1521 -0.0732 -0.0556
 8312TIP3    H124900   3.622   5.264   1.528  0.1180 -0.1179 -0.5402
 8312TIP3    H224901   3.572   5.371   1.433 -1.8991 -0.9192 -0.4352
 8313TIP3   OH224902   4.031   2.585   3.213 -0.5290  0.7953  0.2748
 8313TIP3    H124903   3.969   2.640   3.261 -0.5693  1.2254 -0.2571
 8313TIP3    H224904   4.070   2.644   3.149  0.5337  0.5589  0.6853
 8314TIP3   OH224905   3.375   0.903   3.864 -0.1610  0.5499 -0.2301
 8314TIP3    H124906   3.376   0.977   3.925 -0.7193  1.0127 -0.7748
 8314TIP3    H224907   3.310   0.843   3.901  3.0939 -1.7047  2.5223
 8315TIP3   OH224908   0.588   4.102   5.580  0.1595 -0.3937 -0.4732
 8315TIP3    H124909   0.637   4.025   5.608 -0.4579 -0.9229 -0.8207
 8315TIP3    H224910   0.655   4.166   5.557  0.7066 -1.2498 -1.3499
 8316TIP3   OH224911   4.679   6.330   3.344  0.2527 -0.0309  0.8447
 8316TIP3    H124912   4.664   6.391   3.416  1.7157  2.2038 -0.6188
 8316TIP3    H224913   4.633   6.369   3.269  2.3683  0.0620 -0.4720
 8317TIP3   OH224914   2.742   6.686   2.960  0.2472  0.3647  0.2100
 8317TIP3    H124915   2.742   6.677   3.056 -0.0422 -1.0517  0.0897
 8317TIP3    H224916   2.661   6.734   2.941  0.4434  0.9077  0.6809
 8318TIP3   OH224917   4.722   3.908   1.306 -0.7946  0.2760 -0.1802
 8318TIP3    H124918   4.745   3.933   1.396 -0.4151  0.8619 -0.4266
 8318TIP3    H224919   4.680   3.823   1.314  0.5193 -0.3397  0.4194
 8319TIP3   OH224920   2.625   2.134   1.136 -0.0604 -1.0417 -0.0618
 8319TIP3    H124921   2.543   2.162   1.177 -0.0333 -0.2188 -0.5382
 8319TIP3    H224922   2.649   2.207   1.079  0.1523 -1.9518 -1.1793
 8320TIP3   OH224923   5.129   0.137   0.324  0.5238  0.4196 -0.5142
 8320TIP3    H124924   5.059   0.188   0.364  0.1760 -0.8140  0.5140
 8320TIP3    H224925   5.089   0.052   0.305  1.1703  0.3903 -1.9130
 8321TIP3   OH224926   7.057   0.959   1.574 -0.2719  0.4277  0.1401
 8321TIP3    H124927   6.995   1.005   1.517  0.9077  1.8417 -0.0746
 8321TIP3    H224928   7.049   1.004   1.658 -0.6991 -0.4611  0.5837
 8322TIP3   OH224929   1.990   3.001   1.589 -0.5663 -0.6792  0.3254
 8322TIP3    H124930   1.965   2.910   1.607 -0.5533 -0.5438  1.0461
 8322TIP3    H224931   2.052   2.994   1.516 -0.2518 -1.2872  0.6409
 8323TIP3   OH224932   7.128   0.702   0.100  0.4802 -0.5782  0.2160
 8323TIP3    H124933   7.180   0.780   0.081  0.2375 -0.5426 -0.3189
 8323TIP3    H224934   7.163   0.635   0.042 -1.5523  0.0502 -1.8856
 8324TIP3   OH224935   6.100   1.541   5.003 -0.2475 -0.0962  0.4570
 8324TIP3    H124936   6.118   1.542   5.097  1.0878 -0.6723  0.2297
 8324TIP3    H224937   6.007   1.563   4.996 -0.0897  1.1817  1.8374
 8325TIP3   OH224938   2.469   3.952   0.914 -0.4049  0.3670 -0.3723
 8325TIP3    H124939   2.478   4.032   0.966  0.1418 -0.5113  0.9552
 8325TIP3    H224940   2.482   3.980   0.824  0.2330  1.7035  0.1063
 8326TIP3   OH224941   2.593   5.416   0.013 -0.0683  0.1350  0.3056
 8326TIP3    H124942   2.547   5.499  -0.003 -0.3164 -0.1512 -0.5677
 8326TIP3    H224943   2.571   5.393   0.103 -1.9170 -0.1288 -0.1704
 8327TIP3   OH224944   6.280   3.555   4.187 -0.0903  0.7755  0.4820
 8327TIP3    H124945   6.191   3.586   4.172 -0.2667 -0.6449 -2.2264
 8327TIP3    H224946   6.279   3.522   4.277 -2.1219  1.3397  0.7290
 8328TIP3   OH224947   3.155   2.311   0.686  0.6921 -0.0456  0.0714
 8328TIP3    H124948   3.229   2.322   0.746 -0.2444 -0.3263  1.3348
 8328TIP3    H224949   3.181   2.241   0.627  1.8618  0.6211 -0.2252
 8329TIP3   OH224950   5.909   3.661   1.424  0.2231 -0.0058  0.0347
 8329TIP3    H124951   5.892   3.729   1.489  0.3497 -1.5335  1.7470
 8329TIP3    H224952   5.822   3.629   1.399  0.0069  2.1953 -2.4864
 8330TIP3   OH224953   5.703   4.993   0.059  0.0706 -0.0113  0.4850
 8330TIP3    H124954   5.775   5.026   0.005  1.1602 -1.6429  0.8813
 8330TIP3    H224955   5.649   4.942  -0.001  0.4710 -0.6164  0.6390
 8331TIP3   OH224956   6.413   6.154   3.881  0.1914  0.3738  0.3714
 8331TIP3    H124957   6.498   6.122   3.851  0.1334  0.5449  0.0253
 8331TIP3    H224958   6.435   6.226   3.940  0.4037 -1.3295  2.5110
 8332TIP3   OH224959   4.822   1.257   1.631  0.7742 -0.5511  0.3577
 8332TIP3    H124960   4.798   1.330   1.573  1.4618  0.6040  1.4667
 8332TIP3    H224961   4.908   1.229   1.599  1.0096 -0.1275  0.6116
 8333TIP3   OH224962   3.726   2.631   0.335  0.3670 -0.1525 -0.6940
 8333TIP3    H124963   3.780   2.707   0.356  0.8193 -0.5981 -0.1926
 8333TIP3    H224964   3.729   2.578   0.415 -0.8292 -0.1804 -0.6513
 8334TIP3   OH224965   3.257   5.961   5.021  0.2968  0.0591  0.2654
 8334TIP3    H124966   3.245   5.906   4.944 -0.2973  0.6267 -0.0567
 8334TIP3    H224967   3.347   5.943   5.049  0.8707  0.5400 -1.1231
 8335TIP3   OH224968   2.831   4.291   0.179 -0.2123 -0.5106  0.0666
 8335TIP3    H124969   2.851   4.221   0.242  0.8960  0.0642  0.3733
 8335TIP3    H224970   2.790   4.359   0.232  0.1740 -0.2749  0.0693
 8336TIP3   OH224971   3.473   4.803   0.389 -0.4213 -0.4980 -0.9657
 8336TIP3    H124972   3.415   4.735   0.425 -0.0312 -0.4101 -0.1727
 8336TIP3    H224973   3.448   4.883   0.435  1.1772 -0.7010  0.3275
 8337TIP3   OH224974   5.888   3.062   2.994 -0.1230  0.3931  0.1094
 8337TIP3    H124975   5.976   3.099   2.988  0.2235 -0.6638 -3.9203
 8337TIP3    H224976   5.895   2.994   3.061  2.7461 -1.0307 -1.4640
 8338TIP3   OH224977   4.921   0.982   1.955 -0.0605 -0.2388  0.1713
 8338TIP3    H124978   4.871   1.063   1.942 -0.5694 -0.6075 -0.2035
 8338TIP3    H224979   4.990   1.006   2.017 -0.1801  0.4932  0.0277
 8339TIP3   OH224980   1.594   5.427   0.382  0.1606 -0.1167  0.2337
 8339TIP3    H124981   1.639   5.345   0.360  2.4965  0.8232  1.1435
 8339TIP3    H224982   1.630   5.491   0.320 -0.8987  0.4417  0.1720
 8340TIP3   OH224983   1.976   2.915   0.792 -0.2049  0.5831  0.3675
 8340TIP3    H124984   1.922   2.867   0.854 -0.1258  0.3175  0.2311
 8340TIP3    H224985   1.922   2.990   0.766 -0.0487  0.9750  1.1339
 8341TIP3   OH224986   4.758   0.450   3.034 -0.2431 -0.2870 -0.7436
 8341TIP3    H124987   4.740   0.390   2.961 -0.9856  1.1695 -1.8123
 8341TIP3    H224988   4.731   0.536   3.001  0.4219  0.5798  0.8840
 8342TIP3   OH224989   1.291   5.729   3.246 -0.0698  0.5490 -0.2156
 8342TIP3    H124990   1.347   5.696   3.177  1.4051 -2.3400  2.1152
 8342TIP3    H224991   1.351   5.749   3.318 -1.5638  3.0618  0.4634
 8343TIP3   OH224992   4.152   2.824   5.187 -0.1631 -0.1328 -0.1815
 8343TIP3    H124993   4.123   2.780   5.267 -1.5043 -1.9486 -1.5890
 8343TIP3    H224994   4.072   2.860   5.148  0.3853  0.2508 -0.9973
 8344TIP3   OH224995   0.508   4.600   1.786 -0.0342 -0.3031 -0.6073
 8344TIP3    H124996   0.508   4.630   1.877  0.4537  0.3698 -0.8259
 8344TIP3    H224997   0.597   4.612   1.755 -0.7031  1.7939 -1.9145
 8345TIP3   OH224998   4.115   6.742   3.497  0.1522  0.2916 -0.2911
 8345TIP3    H124999   4.053   6.686   3.450  2.4518 -0.3570 -2.7591
 8345TIP3    H225000   4.123   6.820   3.443 -0.5293  1.6300  1.4433
 8346TIP3   OH225001   6.276   4.821   5.542  0.3542 -0.3119  0.4871
 8346TIP3    H125002   6.252   4.779   5.625  1.8500 -1.9681  0.1520
 8346TIP3    H225003   6.320   4.902   5.569 -0.4043 -0.1399  1.2569
 8347TIP3   OH225004   0.349   6.291   3.038 -0.4970 -0.4454  0.9809
 8347TIP3    H125005   0.341   6.240   2.957  0.8703  0.0093  0.5251
 8347TIP3    H225006   0.280   6.257   3.095  1.8520 -4.7072  1.7163
 8348TIP3   OH225007   2.690   0.347   2.374  0.0588  0.1463  0.0873
 8348TIP3    H125008   2.732   0.295   2.443 -3.5519 -1.5939  1.2510
 8348TIP3    H225009   2.684   0.435   2.411  0.0937 -0.2637  1.1035
 8349TIP3   OH225010   5.724   5.089   2.756 -0.4478  0.0619  0.5237
 8349TIP3    H125011   5.650   5.076   2.698 -0.5886  0.6382  0.5667
 8349TIP3    H225012   5.726   5.184   2.772  0.0216 -0.0023  0.8794
 8350TIP3   OH225013   4.024   0.321   1.223 -0.0219  0.1558  0.2711
 8350TIP3    H125014   4.079   0.377   1.168 -0.0929 -0.8743 -0.8817
 8350TIP3    H225015   3.983   0.260   1.162  1.2926 -2.2318  1.6416
 8351TIP3   OH225016   2.270   4.926   0.176  0.3946 -0.7774  0.4342
 8351TIP3    H125017   2.307   4.995   0.121  1.9606  0.3750  2.7703
 8351TIP3    H225018   2.302   4.845   0.137  1.3894 -0.0125 -0.4121
 8352TIP3   OH225019   5.629   4.770   5.771 -0.2900  0.2581  0.3908
 8352TIP3    H125020   5.613   4.813   5.856  0.3229  0.6164  0.3337
 8352TIP3    H225021   5.663   4.840   5.716  0.2949 -0.2128  0.1543
 8353TIP3   OH225022   2.650   2.436   1.905 -0.1106  0.5042  0.2986
 8353TIP3    H125023   2.631   2.503   1.839 -3.0825  0.6543  1.1775
 8353TIP3    H225024   2.638   2.353   1.859  0.0900  0.5856  0.0973
 8354TIP3   OH225025   2.904   4.099   3.419 -0.4008 -0.4801  0.5473
 8354TIP3    H125026   2.914   4.194   3.413 -2.6217 -0.1487  1.0605
 8354TIP3    H225027   2.932   4.066   3.334 -0.3557  0.7067  0.0837
 8355TIP3   OH225028   2.803   3.206   3.649  0.0613 -0.1875 -0.4162
 8355TIP3    H125029   2.774   3.246   3.731  0.8250 -2.8154  1.2516
 8355TIP3    H225030   2.725   3.203   3.594 -0.5194  1.3800  0.2757
 8356TIP3   OH225031   1.253   4.823   5.697 -0.4488 -0.2498 -0.4853
 8356TIP3    H125032   1.234   4.733   5.670 -2.0288  0.1585 -0.8367
 8356TIP3    H225033   1.339   4.818   5.738  0.0608 -1.6944 -1.6364
 8357TIP3   OH225034   4.737   1.589   2.607 -0.1200  0.0885  0.2749
 8357TIP3    H125035   4.661   1.532   2.623 -0.2878 -0.0684 -0.9232
 8357TIP3    H225036   4.743   1.593   2.511  1.6032 -0.1724  0.3483
 8358TIP3   OH225037   2.991   3.964   4.219  0.8175  0.2311 -0.5453
 8358TIP3    H125038   2.948   4.049   4.204 -1.0712 -0.9892 -2.6394
 8358TIP3    H225039   2.961   3.937   4.305  2.6070  2.2641  0.8232
 8359TIP3   OH225040   5.488   2.931   1.608 -0.0575  0.0766  0.2138
 8359TIP3    H125041   5.567   2.920   1.555 -0.0251  0.1538  0.2462
 8359TIP3    H225042   5.424   2.971   1.548  0.1103  0.5551  0.3481
 8360TIP3   OH225043   0.650   6.725   0.548  0.5785  0.3405 -0.1270
 8360TIP3    H125044   0.604   6.764   0.622  0.3951 -1.3286  0.6952
 8360TIP3    H225045   0.589   6.732   0.474 -0.9872 -1.6505  0.8857
 8361TIP3   OH225046   1.150   6.004   4.740  0.0730  0.5129 -0.0871
 8361TIP3    H125047   1.151   5.960   4.655 -0.9910 -0.8370  0.5697
 8361TIP3    H225048   1.061   6.039   4.748 -0.3644 -0.8043  1.1514
 8362TIP3   OH225049   5.704   5.561   1.484  0.2329 -0.1736  0.4927
 8362TIP3    H125050   5.671   5.539   1.571 -0.7559 -0.3513  0.0886
 8362TIP3    H225051   5.722   5.655   1.488 -1.5670  0.2165  0.3622
 8363TIP3   OH225052   5.660   0.671   3.965  0.0838  0.0085  0.8926
 8363TIP3    H125053   5.610   0.599   3.928  3.0352 -0.1270 -3.6337
 8363TIP3    H225054   5.626   0.749   3.921  2.2864  0.1416 -0.7625
 8364TIP3   OH225055   5.751   2.738   0.861 -0.2974  0.2459 -0.5403
 8364TIP3    H125056   5.839   2.775   0.871  0.0335 -0.2833 -1.3756
 8364TIP3    H225057   5.693   2.812   0.879  0.3411  0.9479 -1.2402
 8365TIP3   OH225058   5.406   1.315   1.000  0.0595  0.6261 -0.5445
 8365TIP3    H125059   5.356   1.258   1.057 -1.6482  1.3765 -1.2093
 8365TIP3    H225060   5.352   1.393   0.990  1.7330  1.8312 -0.6870
 8366TIP3   OH225061   3.685   3.029   2.858  0.3376 -0.8257  0.6317
 8366TIP3    H125062   3.763   2.982   2.889 -0.2432 -2.8674 -0.7777
 8366TIP3    H225063   3.612   2.973   2.884 -0.4469 -0.3386 -0.4644
 8367TIP3   OH225064   0.370   6.553   4.953  0.0978  0.3191 -0.0322
 8367TIP3    H125065   0.336   6.576   5.040 -0.0975  1.1544 -0.3175
 8367TIP3    H225066   0.381   6.458   4.956 -1.8285  0.0765  0.2231
 8368TIP3   OH225067   4.709   3.399   1.453 -0.4381  0.1182  0.0782
 8368TIP3    H125068   4.748   3.320   1.489 -0.1919 -0.6787 -1.8176
 8368TIP3    H225069   4.783   3.455   1.432 -0.5563  0.4065  0.4188
 8369TIP3   OH225070   5.751   6.426   4.885  0.0649 -0.1740  0.0810
 8369TIP3    H125071   5.823   6.395   4.940 -0.0835  0.1360  0.4542
 8369TIP3    H225072   5.705   6.490   4.940 -0.0267  0.2109 -0.4396
 8370TIP3   OH225073   1.240   4.409   1.010  0.0822 -0.4212  0.1783
 8370TIP3    H125074   1.223   4.364   1.093  0.7586 -1.9233 -0.4570
 8370TIP3    H225075   1.313   4.360   0.971  0.3236  0.7739 -0.9208
 8371TIP3   OH225076   5.051   6.651   5.485  0.4597 -0.1246 -0.1008
 8371TIP3    H125077   5.132   6.702   5.480 -0.0907  0.9911  1.5364
 8371TIP3    H225078   4.981   6.713   5.464 -0.1331 -0.5280  0.6183
 8372TIP3   OH225079   5.768   5.176   3.712 -0.2799  0.8393  0.5435
 8372TIP3    H125080   5.747   5.091   3.671 -0.5107  0.9462  0.4338
 8372TIP3    H225081   5.715   5.239   3.662  1.0142  1.2486 -0.3609
 8373TIP3   OH225082   5.433   6.749   4.410 -0.1448 -0.4626  0.1305
 8373TIP3    H125083   5.429   6.779   4.320  0.5349 -1.5058 -0.2716
 8373TIP3    H225084   5.495   6.676   4.408  0.3082 -0.1438  1.5427
 8374TIP3   OH225085   5.626   6.395   2.006 -0.2704  0.3911  0.1035
 8374TIP3    H125086   5.572   6.324   1.972 -0.8483  1.2539 -0.8321
 8374TIP3    H225087   5.707   6.391   1.955 -0.0924  0.0835  0.4098
 8375TIP3   OH225088   4.106   4.641   0.183  0.2315 -0.6955  0.3963
 8375TIP3    H125089   4.190   4.676   0.152 -0.2214  0.9874  0.9583
 8375TIP3    H225090   4.060   4.616   0.104  1.3475 -1.8650  0.0894
 8376TIP3   OH225091   1.105   1.595   3.828 -0.4951  0.3347 -0.6037
 8376TIP3    H125092   1.072   1.663   3.888  0.2964  0.3522 -0.1790
 8376TIP3    H225093   1.192   1.574   3.862 -0.0847  0.2508 -1.6884
 8377TIP3   OH225094   1.698   6.037   0.576  0.1162  0.5627 -0.4627
 8377TIP3    H125095   1.726   5.954   0.537  0.6386  0.1439  0.7663
 8377TIP3    H225096   1.777   6.090   0.580  0.1668  0.4283  0.4436
 8378TIP3   OH225097   4.053   4.930   3.988 -0.1801  0.4385 -0.3776
 8378TIP3    H125098   4.142   4.964   3.998  0.2819 -1.1050  1.4496
 8378TIP3    H225099   4.065   4.843   3.949 -1.0333  0.7895 -1.4756
 8379TIP3   OH225100   5.935   6.391   5.095  0.3595  0.2071  0.1986
 8379TIP3    H125101   6.026   6.417   5.079  0.4571 -0.1261  0.2102
 8379TIP3    H225102   5.900   6.462   5.149  0.4949  0.5325 -0.1381
 8380TIP3   OH225103   2.984   6.298   1.942  0.1448  0.4862 -0.6718
 8380TIP3    H125104   2.938   6.215   1.932 -1.0438  0.9617  0.5456
 8380TIP3    H225105   3.060   6.291   1.883  1.4184 -2.3743  1.0757
 8381TIP3   OH225106   5.861   5.854   5.611  0.1620 -0.0208  0.2292
 8381TIP3    H125107   5.877   5.818   5.698 -0.7532  1.0695  0.8688
 8381TIP3    H225108   5.852   5.948   5.624  1.4455  0.3575 -1.2592
 8382TIP3   OH225109   3.183   0.981   5.609 -0.5045  0.3440  0.1604
 8382TIP3    H125110   3.148   0.893   5.598  0.6801 -0.3310  1.5060
 8382TIP3    H225111   3.260   0.970   5.665 -1.0640  2.3809  1.4598
 8383TIP3   OH225112   4.544   3.712   2.350 -0.1994 -0.3152 -0.4844
 8383TIP3    H125113   4.564   3.742   2.438 -0.3086  3.1987 -1.4768
 8383TIP3    H225114   4.624   3.669   2.319  0.7040  0.6060  0.5058
 8384TIP3   OH225115   5.176   0.934   5.404 -0.5811  0.3620  0.3453
 8384TIP3    H125116   5.246   0.975   5.456 -1.1156 -0.1512  1.5258
 8384TIP3    H225117   5.109   0.911   5.469 -2.0763  1.2750 -0.7991
 8385TIP3   OH225118   3.972   3.006   3.463 -0.4390 -0.2421 -0.2665
 8385TIP3    H125119   4.052   3.048   3.434 -0.4295  0.4208  0.6921
 8385TIP3    H225120   3.906   3.033   3.399 -0.3781  1.0506  0.1829
 8386TIP3   OH225121   4.980   3.213   3.491 -0.1770 -0.5540  0.1811
 8386TIP3    H125122   5.063   3.233   3.448 -0.4199  0.7924  0.2894
 8386TIP3    H225123   4.915   3.215   3.421 -0.2673 -0.5505  0.2651
 8387TIP3   OH225124   1.976   2.767   5.360 -0.1335 -0.1755  0.5908
 8387TIP3    H125125   2.020   2.799   5.281 -0.7734  0.5879  0.5314
 8387TIP3    H225126   1.883   2.784   5.344 -0.0604  3.6177  3.0656
 8388TIP3   OH225127   0.141   5.515   3.610  0.1854  0.1865  0.2736
 8388TIP3    H125128   0.077   5.466   3.663  0.7751 -0.2172  0.6210
 8388TIP3    H225129   0.105   5.604   3.606 -1.9645 -0.6799 -2.0747
 8389TIP3   OH225130   4.741   2.580   2.951 -0.5395  0.0921  0.0767
 8389TIP3    H125131   4.659   2.532   2.938 -0.4013  0.1462 -1.1096
 8389TIP3    H225132   4.776   2.546   3.033 -0.3029 -2.0896 -0.8449
 8390TIP3   OH225133   6.793   4.671   3.151 -0.0928 -0.1634  0.2332
 8390TIP3    H125134   6.727   4.730   3.189 -1.6523 -1.4559 -0.3367
 8390TIP3    H225135   6.758   4.583   3.167  0.3533 -0.8156 -2.1158
 8391TIP3   OH225136   4.606   6.013   5.717 -0.3317 -0.0434 -0.0845
 8391TIP3    H125137   4.629   5.952   5.787  0.4665  0.7908  0.4008
 8391TIP3    H225138   4.671   6.082   5.723 -1.4255  1.0473 -0.4093
 8392TIP3   OH225139   1.595   0.015   0.131 -0.1823 -0.0437  0.2890
 8392TIP3    H125140   1.628  -0.023   0.049  0.1344  0.5125  0.1536
 8392TIP3    H225141   1.667   0.069   0.163 -0.4675  0.0909  0.7113
 8393TIP3   OH225142   1.232   3.670   1.732  0.2810  0.2517 -0.2352
 8393TIP3    H125143   1.193   3.696   1.649 -1.6354 -0.1115  0.4984
 8393TIP3    H225144   1.293   3.600   1.709  1.5897  1.7457 -1.5729
 8394TIP3   OH225145   3.240   5.364   2.446  0.0340 -0.0544 -0.0490
 8394TIP3    H125146   3.150   5.359   2.479  0.4972 -0.6338  1.1774
 8394TIP3    H225147   3.293   5.321   2.513  1.4557  1.7722  0.0697
 8395TIP3   OH225148   5.362   6.136   3.390  0.1368 -0.4545  0.0403
 8395TIP3    H125149   5.331   6.188   3.465  1.7138  0.2851  0.2406
 8395TIP3    H225150   5.431   6.191   3.351  1.9698 -2.4114  0.3376
 8396TIP3   OH225151   0.688   2.965   1.160 -0.3302 -0.7818 -0.5137
 8396TIP3    H125152   0.678   3.034   1.094  3.1646  0.4715  0.0574
 8396TIP3    H225153   0.607   2.969   1.211 -0.4711  2.6301 -0.7753
 8397TIP3   OH225154   1.649   4.659   5.315 -0.3581 -0.2516  0.2319
 8397TIP3    H125155   1.678   4.734   5.264  1.2086  0.1535  1.6270
 8397TIP3    H225156   1.575   4.623   5.265 -0.3811  1.4755 -1.0792
 8398TIP3   OH225157   2.423   6.444   5.315  0.0876 -0.1085 -0.1010
 8398TIP3    H125158   2.485   6.449   5.243 -0.2809 -2.3526 -0.6465
 8398TIP3    H225159   2.465   6.386   5.379 -0.5740 -0.0233  0.4214
 8399TIP3   OH225160   2.019   2.645   4.647  0.3053  0.6182  0.0103
 8399TIP3    H125161   2.087   2.614   4.707  1.0484  2.5021  0.2143
 8399TIP3    H225162   2.058   2.634   4.560 -0.0172 -0.3479 -0.0182
 8400TIP3   OH225163   6.598   6.099   0.232 -0.6614  0.1427  0.4065
 8400TIP3    H125164   6.574   6.191   0.224  2.2884  1.1976  2.2648
 8400TIP3    H225165   6.579   6.077   0.324 -0.2767 -0.7717  0.2827
 8401TIP3   OH225166   5.879   4.677   3.553 -0.3482 -0.4419  0.0628
 8401TIP3    H125167   5.956   4.678   3.496 -0.4580  1.0434 -0.0944
 8401TIP3    H225168   5.913   4.700   3.640 -0.7203  1.1032 -0.1816
 8402TIP3   OH225169   4.825   0.845   1.453 -0.4158 -0.2409  0.2572
 8402TIP3    H125170   4.801   0.898   1.376 -2.1425 -0.6428  0.4791
 8402TIP3    H225171   4.860   0.909   1.515 -2.2249  0.6616  0.4217
 8403TIP3   OH225172   5.336   4.045   1.041 -0.0091 -0.1570  0.3336
 8403TIP3    H125173   5.348   3.954   1.065  0.5992  0.1851  1.3941
 8403TIP3    H225174   5.271   4.043   0.971  0.8473 -1.4859 -0.4659
 8404TIP3   OH225175   4.228   2.042   3.118 -0.0833  0.4794 -0.1963
 8404TIP3    H125176   4.207   2.130   3.086 -0.3373  0.3294 -0.4422
 8404TIP3    H225177   4.319   2.029   3.094  0.0402  0.7849  0.0904
 8405TIP3   OH225178   1.342   2.937   3.910  0.1527 -0.0434 -0.4575
 8405TIP3    H125179   1.326   2.918   3.817  0.3877 -0.6239 -0.3879
 8405TIP3    H225180   1.436   2.949   3.916  0.0427  0.8198 -0.4321
 8406TIP3   OH225181   7.133   2.955   0.566  0.2662  0.2977  0.4137
 8406TIP3    H125182   7.188   2.986   0.495 -1.8639  1.6268 -0.7565
 8406TIP3    H225183   7.192   2.904   0.622  2.4455  0.9499 -1.1737
 8407TIP3   OH225184   5.889   3.593   4.721  0.3620  0.5163  0.1517
 8407TIP3    H125185   5.941   3.620   4.646  2.2795 -0.1189  1.1802
 8407TIP3    H225186   5.839   3.671   4.746 -0.4556  0.6815 -1.8438
 8408TIP3   OH225187   1.857   2.761   3.178  0.0489  0.2610 -0.1727
 8408TIP3    H125188   1.903   2.749   3.095  0.8123  0.5398  0.2057
 8408TIP3    H225189   1.790   2.692   3.178 -1.3732  1.5331 -1.9515
 8409TIP3   OH225190   5.663   1.054   2.825  0.5291  0.1158 -0.1440
 8409TIP3    H125191   5.685   1.017   2.911 -0.8044  1.3911  0.8007
 8409TIP3    H225192   5.586   1.005   2.797  1.5427 -0.9851 -1.1379
 8410TIP3   OH225193   5.953   0.707   3.799 -0.5871  0.2549 -0.7827
 8410TIP3    H125194   5.891   0.700   3.872 -0.7883  1.6924 -0.7771
 8410TIP3    H225195   6.035   0.736   3.839  0.7294 -3.3464 -0.5330
 8411TIP3   OH225196   2.815   0.984   3.082 -0.3174  0.4153 -0.0838
 8411TIP3    H125197   2.849   1.057   3.134  0.4649 -0.7019  1.0189
 8411TIP3    H225198   2.728   0.967   3.118 -0.4521  0.7118 -0.2633
 8412TIP3   OH225199   6.784   0.690   1.766  0.1220  0.0713  0.1616
 8412TIP3    H125200   6.778   0.784   1.781  1.5328  0.1294  0.5470
 8412TIP3    H225201   6.875   0.676   1.738  0.4494 -1.3571  1.7412
 8413TIP3   OH225202   1.523   1.744   3.274  0.4684 -0.6340 -0.2126
 8413TIP3    H125203   1.444   1.780   3.234  0.8078  1.5403  0.9155
 8413TIP3    H225204   1.503   1.652   3.290 -0.8000 -0.7988 -2.4258
 8414TIP3   OH225205   2.485   4.033   4.927 -0.2826 -0.1886  0.0977
 8414TIP3    H125206   2.482   4.123   4.897 -0.4880 -0.1957  0.1000
 8414TIP3    H225207   2.458   3.981   4.851  0.3390 -0.2854 -0.0665
 8415TIP3   OH225208   1.758   0.280   1.961  0.2158  0.4866  0.1451
 8415TIP3    H125209   1.800   0.353   1.916  3.9644 -1.6889 -0.3055
 8415TIP3    H225210   1.811   0.266   2.040 -0.6425 -1.4458  0.4508
 8416TIP3   OH225211   2.918   3.848   4.461  0.0947  0.5033  0.1310
 8416TIP3    H125212   2.935   3.839   4.555  0.4056  2.4951  0.3048
 8416TIP3    H225213   2.837   3.799   4.447  0.0809  0.1215  1.4317
 8417TIP3   OH225214   3.554   1.746   4.301 -0.4287 -0.6150 -0.1961
 8417TIP3    H125215   3.544   1.841   4.313 -0.5419 -0.5594 -0.6819
 8417TIP3    H225216   3.626   1.722   4.359 -0.4285 -0.2393 -0.0341
 8418TIP3   OH225217   1.914   0.134   2.693  0.0991  0.2354  0.0056
 8418TIP3    H125218   1.833   0.089   2.670  0.8892 -0.4666 -1.5715
 8418TIP3    H225219   1.921   0.124   2.788 -0.3035 -2.0476 -0.1430
 8419TIP3   OH225220   6.147   0.246   3.991  0.6224 -0.1770 -0.5121
 8419TIP3    H125221   6.100   0.328   3.979  0.6111  0.1151  1.2035
 8419TIP3    H225222   6.239   0.270   3.992  0.6093 -0.1020  0.2950
 8420TIP3   OH225223   5.250   6.128   0.168 -0.2170  0.1575 -0.9364
 8420TIP3    H125224   5.339   6.116   0.200 -0.5365  0.0754 -0.0627
 8420TIP3    H225225   5.210   6.190   0.229 -1.5278 -1.6905  0.2056
 8421TIP3   OH225226   0.006   1.812   0.601  0.2026  0.5013  0.0040
 8421TIP3    H125227   0.007   1.878   0.670  2.0779  2.4977 -1.7396
 8421TIP3    H225228   0.059   1.851   0.531 -1.3400 -1.4832 -2.4542
 8422TIP3   OH225229   3.029   6.172   4.696 -0.5105  0.0939  0.3362
 8422TIP3    H125230   2.978   6.238   4.742 -0.6363 -0.5203  1.1113
 8422TIP3    H225231   3.018   6.193   4.604 -0.3863  1.2575  0.5747
 8423TIP3   OH225232   3.171   4.285   2.831 -0.2440  0.1208  0.0358
 8423TIP3    H125233   3.219   4.368   2.837  0.8382 -0.4905  0.1673
 8423TIP3    H225234   3.138   4.270   2.920  2.3459 -1.1567  0.8868
 8424TIP3   OH225235   2.209   4.106   5.582  0.3134 -0.1574  0.0885
 8424TIP3    H125236   2.292   4.075   5.618  1.1863  2.4761  0.5851
 8424TIP3    H225237   2.203   4.067   5.495  0.7852 -2.3886  1.0021
 8425TIP3   OH225238   1.662   3.243   3.424 -0.2885  0.0941 -0.3526
 8425TIP3    H125239   1.692   3.314   3.482 -0.4964  0.7865 -1.0767
 8425TIP3    H225240   1.655   3.167   3.482  4.0172 -0.5064 -0.2793
 8426TIP3   OH225241   3.634   0.112   5.642  0.2326  0.5139 -0.4222
 8426TIP3    H125242   3.702   0.093   5.577 -0.3562 -0.7406 -0.7132
 8426TIP3    H225243   3.666   0.188   5.689  0.9158  1.1546 -1.8547
 8427TIP3   OH225244   0.886   2.469   1.133  0.6037 -0.5822 -0.5258
 8427TIP3    H125245   0.945   2.394   1.128  0.1928 -0.8414 -1.9831
 8427TIP3    H225246   0.931   2.538   1.084  0.3326 -0.3269 -0.4178
 8428TIP3   OH225247   6.144   4.277   2.669  0.0576  0.2984 -0.4082
 8428TIP3    H125248   6.063   4.322   2.695 -0.0550 -0.0656 -0.1193
 8428TIP3    H225249   6.209   4.347   2.662 -0.5013  0.7306 -1.5834
 8429TIP3   OH225250   5.756   5.775   0.384  0.4446 -0.0870  0.1347
 8429TIP3    H125251   5.795   5.720   0.452  0.3144 -1.4387 -0.8567
 8429TIP3    H225252   5.667   5.740   0.373  0.3165  0.4019 -0.4248
 8430TIP3   OH225253   4.561   2.792   4.011 -0.0614 -0.0512  0.0156
 8430TIP3    H125254   4.558   2.871   3.956  1.0881 -0.3924 -0.5612
 8430TIP3    H225255   4.562   2.826   4.101 -0.1804  0.5701 -0.2085
 8431TIP3   OH225256   2.039   3.241   4.114 -0.0372  0.3082  0.0295
 8431TIP3    H125257   1.994   3.219   4.195  1.3916  0.1878  0.8328
 8431TIP3    H225258   2.013   3.331   4.095 -0.5601  0.2600  0.5073
 8432TIP3   OH225259   4.111   6.607   0.946 -0.3705  0.2958  0.0803
 8432TIP3    H125260   4.117   6.658   0.866  1.0496 -0.0226 -0.0371
 8432TIP3    H225261   4.103   6.516   0.917 -2.1235  0.3460  0.2982
 8433TIP3   OH225262   4.262   0.912   4.563  0.0101  0.1716  0.0251
 8433TIP3    H125263   4.240   0.819   4.567 -1.2394  0.4013 -1.0124
 8433TIP3    H225264   4.322   0.925   4.636 -1.6198 -0.9731  1.6672
 8434TIP3   OH225265   5.730   6.496   3.623 -0.7110  0.0392 -0.2551
 8434TIP3    H125266   5.794   6.495   3.552 -0.5107  3.4146 -0.2621
 8434TIP3    H225267   5.653   6.539   3.585 -1.1617  0.5068  1.1305
 8435TIP3   OH225268   1.548   5.115   2.071 -0.3510  0.2159  0.0658
 8435TIP3    H125269   1.567   5.114   2.165  0.5105  1.5288 -0.0643
 8435TIP3    H225270   1.545   5.208   2.049  0.7266 -0.0898 -1.4580
 8436TIP3   OH225271   6.577   5.729   3.504  0.3124 -0.2475 -1.0011
 8436TIP3    H125272   6.566   5.651   3.449 -0.6986 -0.7008 -0.1932
 8436TIP3    H225273   6.650   5.708   3.562 -0.3141 -0.8262 -0.4134
 8437TIP3   OH225274   1.160   6.755   1.773  0.1694 -0.2087 -0.0726
 8437TIP3    H125275   1.194   6.817   1.838  1.3688 -0.3486 -0.5293
 8437TIP3    H225276   1.159   6.805   1.691  0.5053 -0.5943 -0.3160
 8438TIP3   OH225277   0.153   1.211   5.062  0.3633 -0.1301 -0.3959
 8438TIP3    H125278   0.177   1.303   5.071 -1.2441  0.2823  0.0614
 8438TIP3    H225279   0.225   1.163   5.103  0.7438  0.9770  0.2753
 8439TIP3   OH225280   4.917   3.985   4.596 -0.6202 -0.2321  0.0377
 8439TIP3    H125281   4.992   3.932   4.623 -0.6670  0.9841  2.9057
 8439TIP3    H225282   4.935   4.008   4.505  1.3531 -1.8038 -0.0344
 8440TIP3   OH225283   4.696   6.727   3.564  0.0306  0.3088 -0.3355
 8440TIP3    H125284   4.774   6.753   3.515  0.2757  0.0713 -0.0770
 8440TIP3    H225285   4.643   6.807   3.569  0.5605  0.6400  0.0482
 8441TIP3   OH225286   4.619   1.215   1.423 -0.0970  0.6347 -0.2728
 8441TIP3    H125287   4.524   1.207   1.411  0.2126 -1.7895 -1.6919
 8441TIP3    H225288   4.645   1.131   1.461  1.4817  1.3056  0.1682
 8442TIP3   OH225289   5.111   5.834   5.445  0.9962 -0.3081 -0.2359
 8442TIP3    H125290   5.076   5.911   5.489 -2.7217 -1.5509 -0.6694
 8442TIP3    H225291   5.061   5.828   5.364  4.0229 -0.9998 -2.2129
 8443TIP3   OH225292   5.353   0.527   5.743  0.2565  0.1832  0.2930
 8443TIP3    H125293   5.362   0.510   5.837  0.1584 -0.0658  0.2592
 8443TIP3    H225294   5.363   0.441   5.702  0.6990  0.3540  0.0456
 8444TIP3   OH225295   4.876   1.260   4.058  0.2652  0.5499 -0.1601
 8444TIP3    H125296   4.820   1.211   4.118 -0.1876  0.3944 -0.6920
 8444TIP3    H225297   4.928   1.193   4.013  1.6905  0.7657  1.0999
 8445TIP3   OH225298   1.774   3.419   2.835  0.4594 -0.1388  0.9302
 8445TIP3    H125299   1.827   3.355   2.881  1.5545 -0.5809 -0.8321
 8445TIP3    H225300   1.809   3.504   2.862  0.4548 -0.3428  1.5946
 8446TIP3   OH225301   0.319   1.146   1.865  1.1076 -1.0718 -0.5743
 8446TIP3    H125302   0.341   1.067   1.914 -1.3796 -1.7677 -0.4264
 8446TIP3    H225303   0.313   1.214   1.932  0.5042 -1.3982 -0.2823
 8447TIP3   OH225304   6.058   5.049   0.184  0.1328  0.4207  0.2911
 8447TIP3    H125305   6.054   4.959   0.216  2.5638 -0.0046 -0.3731
 8447TIP3    H225306   6.003   5.049   0.105  0.1620 -0.5072  0.2575
 8448TIP3   OH225307   1.085   5.271   1.277  0.5247 -0.3100  0.4116
 8448TIP3    H125308   1.075   5.269   1.372 -4.4132  0.3274  0.1747
 8448TIP3    H225309   1.079   5.363   1.253 -0.2852 -0.5973 -0.5905
 8449TIP3   OH225310   5.811   0.937   1.238  0.1285  0.4634 -0.0847
 8449TIP3    H125311   5.767   0.999   1.179 -1.3118  0.7812  1.2350
 8449TIP3    H225312   5.788   0.851   1.204  1.7026  0.6063 -1.6241
 8450TIP3   OH225313   7.019   6.686   5.244 -0.0746  0.5203 -0.0612
 8450TIP3    H125314   7.041   6.612   5.302  1.3618  0.0584 -1.1204
 8450TIP3    H225315   7.064   6.761   5.283  0.0042  0.4361  0.0098
 8451TIP3   OH225316   2.214   0.423   5.380 -0.3184 -0.2772  0.0094
 8451TIP3    H125317   2.133   0.375   5.397  0.6469 -2.9091 -2.0645
 8451TIP3    H225318   2.197   0.469   5.298  0.0440 -0.2681 -0.0618
 8452TIP3   OH225319   3.796   0.785   4.215  0.1505 -0.3158  0.6730
 8452TIP3    H125320   3.819   0.856   4.274 -1.8507 -1.9670  3.7213
 8452TIP3    H225321   3.713   0.813   4.176 -0.2540 -0.6033  1.3015
 8453TIP3   OH225322   4.820   3.769   0.426 -0.6513 -0.0038 -0.3685
 8453TIP3    H125323   4.775   3.853   0.436  0.8899  1.1245 -2.2349
 8453TIP3    H225324   4.758   3.704   0.461 -1.8701  1.8781  1.1379
 8454TIP3   OH225325   6.811   4.398   0.382 -0.3197 -0.4272 -0.0472
 8454TIP3    H125326   6.849   4.470   0.332 -0.9226 -0.2268 -0.2276
 8454TIP3    H225327   6.742   4.363   0.325  0.8713 -2.0471 -0.5523
 8455TIP3   OH225328   3.324   5.406   1.896  1.0938  0.1216 -0.1060
 8455TIP3    H125329   3.296   5.419   1.986  1.2875  1.3636 -0.2023
 8455TIP3    H225330   3.254   5.445   1.843  0.2706 -1.8648 -0.5852
 8456TIP3   OH225331   2.940   5.552   5.623  0.1038  0.9488  0.1416
 8456TIP3    H125332   3.013   5.492   5.606 -2.3653 -2.2083 -0.1370
 8456TIP3    H225333   2.952   5.579   5.714  1.2698  0.0146  0.2934
 8457TIP3   OH225334   6.559   4.481   1.899 -0.7458  0.4487 -0.0021
 8457TIP3    H125335   6.643   4.481   1.946 -1.1946  3.4402  1.0058
 8457TIP3    H225336   6.494   4.467   1.968 -1.2207  1.1694 -0.3015
 8458TIP3   OH225337   4.267   2.231   3.995  0.2172  0.1626 -0.7057
 8458TIP3    H125338   4.191   2.285   4.020  1.6887  1.9612  0.1335
 8458TIP3    H225339   4.269   2.161   4.061  0.6794  1.5390  0.8039
 8459TIP3   OH225340   1.292   0.412   1.149  0.5405 -0.3983 -0.2203
 8459TIP3    H125341   1.382   0.397   1.118  0.0689 -1.3452 -1.2249
 8459TIP3    H225342   1.239   0.351   1.097 -0.7371  0.4324  0.0743
 8460TIP3   OH225343   6.005   0.769   0.618 -0.0066  0.4716  0.6336
 8460TIP3    H125344   5.997   0.745   0.711 -0.5824  0.4901  0.5927
 8460TIP3    H225345   6.061   0.701   0.581  0.9135  0.9253  1.1643
 8461TIP3   OH225346   3.233   5.581   1.151  0.3273  0.2914 -0.1731
 8461TIP3    H125347   3.304   5.555   1.093 -0.9084  0.2319 -1.7295
 8461TIP3    H225348   3.159   5.597   1.093 -1.7554 -2.2451  1.5157
 8462TIP3   OH225349   6.520   1.654   4.146  0.8129  0.6629 -0.3953
 8462TIP3    H125350   6.506   1.732   4.199 -0.1300  1.2885 -1.5056
 8462TIP3    H225351   6.464   1.667   4.069 -1.5715 -2.3524  0.5990
 8463TIP3   OH225352   6.004   6.106   2.448 -0.0738 -0.0982 -0.5949
 8463TIP3    H125353   6.075   6.070   2.396  0.8129  0.7305  0.0203
 8463TIP3    H225354   6.046   6.168   2.508 -1.2997  0.3864 -0.1968
 8464TIP3   OH225355   2.181   5.283   2.762  0.2003  0.3469 -0.1843
 8464TIP3    H125356   2.132   5.362   2.783  1.9207  0.9927  1.7437
 8464TIP3    H225357   2.159   5.220   2.830  0.8609  0.1101 -0.1748
 8465TIP3   OH225358   1.207   0.399   5.152  0.3782 -0.1390  0.0421
 8465TIP3    H125359   1.149   0.448   5.094  0.4421 -1.0690 -0.8411
 8465TIP3    H225360   1.148   0.350   5.209  0.3097  1.4112  1.3642
 8466TIP3   OH225361   0.730   6.089   2.523 -0.3346 -0.0469  0.0304
 8466TIP3    H125362   0.660   6.031   2.554  1.6375 -2.7034 -0.1321
 8466TIP3    H225363   0.730   6.077   2.428 -0.2059  0.5889 -0.0485
 8467TIP3   OH225364   1.238   6.786   3.294  0.1355 -0.1701 -0.7804
 8467TIP3    H125365   1.184   6.743   3.361  1.0623 -1.9944 -1.1469
 8467TIP3    H225366   1.312   6.822   3.342  0.8948 -1.6378 -0.8109
 8468TIP3   OH225367   4.895   5.652   4.445 -0.0779 -0.4480  0.9610
 8468TIP3    H125368   4.931   5.564   4.461 -0.6380 -0.9683 -0.4658
 8468TIP3    H225369   4.893   5.660   4.349  1.3808  1.7337  1.0270
 8469TIP3   OH225370   2.642   6.603   5.804 -0.1919 -0.0044  0.8521
 8469TIP3    H125371   2.601   6.604   5.891 -1.3676 -0.1497  0.3185
 8469TIP3    H225372   2.638   6.512   5.776  1.8469 -0.3096  1.3702
 8470TIP3   OH225373   3.977   0.794   3.731  0.6356 -0.0219 -0.0529
 8470TIP3    H125374   3.883   0.803   3.746  0.6849 -0.9270  0.9743
 8470TIP3    H225375   4.017   0.833   3.809  1.1246  0.3519 -0.4812
 8471TIP3   OH225376   0.790   0.578   2.819  0.2092 -0.0567  0.1300
 8471TIP3    H125377   0.834   0.547   2.898 -0.5470 -1.0561  0.1684
 8471TIP3    H225378   0.742   0.656   2.848 -0.2128 -0.5219  0.7080
 8472TIP3   OH225379   1.769   3.194   0.895 -0.0682 -0.3457  0.1373
 8472TIP3    H125380   1.843   3.228   0.946  0.8080  0.7612 -1.7604
 8472TIP3    H225381   1.733   3.123   0.949  0.0299  1.5072  2.8197
 8473TIP3   OH225382   2.437   5.636   0.058  0.1191 -0.4823 -0.0897
 8473TIP3    H125383   2.402   5.718   0.021  1.2284  0.8868  1.7301
 8473TIP3    H225384   2.448   5.655   0.151  4.2177 -1.2861 -0.2344
 8474TIP3   OH225385   6.775   6.391   5.222  0.4306 -0.2156 -0.1368
 8474TIP3    H125386   6.696   6.428   5.262 -0.2647 -0.3435 -1.3614
 8474TIP3    H225387   6.847   6.430   5.272 -0.3828  0.0225  0.9084
 8475TIP3   OH225388   4.523   1.651   0.786  0.2324 -0.1172 -0.1272
 8475TIP3    H125389   4.459   1.592   0.826  0.1525 -0.3162 -0.5388
 8475TIP3    H225390   4.548   1.712   0.856  0.3058 -0.6304  0.2956
 8476TIP3   OH225391   6.685   2.930   4.166  0.2542  0.4611  0.3875
 8476TIP3    H125392   6.652   2.855   4.216 -1.9242  0.4801 -0.9098
 8476TIP3    H225393   6.609   2.961   4.116  1.7246  2.0040 -1.0059
 8477TIP3   OH225394   4.490   6.557   0.320 -0.0015  0.1064  0.5905
 8477TIP3    H125395   4.506   6.520   0.407  0.9522  0.8647  0.7498
 8477TIP3    H225396   4.457   6.645   0.336  0.2588  0.2842  0.1847
 8478TIP3   OH225397   0.227   6.338   0.990 -0.5319  0.2755 -0.4114
 8478TIP3    H125398   0.197   6.333   0.899 -2.3427 -1.3310  0.2029
 8478TIP3    H225399   0.153   6.376   1.037 -0.8123 -1.6790  0.8136
 8479TIP3   OH225400   3.262   4.600   2.498  0.0935 -0.5915  0.9579
 8479TIP3    H125401   3.315   4.679   2.507 -0.6033 -0.0677  0.4921
 8479TIP3    H225402   3.174   4.626   2.524 -0.2568 -1.0676  0.2761
 8480TIP3   OH225403   0.627   0.964   5.085  0.1951 -0.2361 -0.2341
 8480TIP3    H125404   0.703   1.020   5.069  1.3428 -1.4267  0.7949
 8480TIP3    H225405   0.554   1.011   5.045  0.8805  2.5483  1.4630
 8481TIP3   OH225406   6.758   5.554   4.393 -0.2459 -0.0379  0.0872
 8481TIP3    H125407   6.772   5.463   4.418  2.3405  0.0214 -0.8221
 8481TIP3    H225408   6.830   5.573   4.332 -1.4762  2.2313 -0.7713
 8482TIP3   OH225409   5.309   4.010   4.799 -0.3577  0.7946 -0.3464
 8482TIP3    H125410   5.265   4.076   4.853 -0.5767  0.4442 -0.0965
 8482TIP3    H225411   5.392   4.052   4.773  1.1485 -0.0468  2.6640
 8483TIP3   OH225412   3.525   2.764   0.204  0.4316  0.2446 -0.1108
 8483TIP3    H125413   3.583   2.730   0.272 -0.1341 -0.4511  0.0418
 8483TIP3    H225414   3.554   2.722   0.124 -0.4561 -0.9088  0.1246
 8484TIP3   OH225415   7.084   1.643   4.603 -0.0198  0.7568 -0.3251
 8484TIP3    H125416   7.152   1.651   4.535 -0.3327 -0.1059 -0.7596
 8484TIP3    H225417   7.090   1.551   4.631 -1.8193  0.3080 -1.2649
 8485TIP3   OH225418   1.393   3.298   4.693  0.2258  0.1684 -0.5496
 8485TIP3    H125419   1.414   3.205   4.703 -0.6604  0.0556  0.3687
 8485TIP3    H225420   1.320   3.300   4.632 -1.0283  0.0883  0.8907
 8486TIP3   OH225421   5.677   0.893   5.878 -0.1056  0.8026 -0.7210
 8486TIP3    H125422   5.648   0.835   5.808  1.2030 -1.1537  0.2601
 8486TIP3    H225423   5.746   0.844   5.923 -1.7665  1.3765  2.7826
 8487TIP3   OH225424   6.842   6.208   4.300  0.8313  0.1363 -0.0995
 8487TIP3    H125425   6.929   6.171   4.311  0.3054 -0.7428  1.2688
 8487TIP3    H225426   6.787   6.161   4.362 -1.4994 -2.0329 -3.4381
 8488TIP3   OH225427   2.614   2.607   2.483  0.1982  0.5821  0.3659
 8488TIP3    H125428   2.644   2.568   2.401  0.9345  1.6542  0.0967
 8488TIP3    H225429   2.694   2.618   2.534 -0.1850  0.4366  0.9950
 8489TIP3   OH225430   6.099   6.114   2.035  0.0569  0.3357 -0.5720
 8489TIP3    H125431   6.187   6.128   2.069 -0.1124 -0.3204  0.1604
 8489TIP3    H225432   6.112   6.094   1.942  0.5863  1.3301 -0.7217
 8490TIP3   OH225433   5.945   3.698   0.782 -0.6566 -0.4456 -0.4641
 8490TIP3    H125434   5.964   3.686   0.689  2.0152  1.9999 -0.4204
 8490TIP3    H225435   6.021   3.661   0.827 -0.0063  1.7582  0.4168
 8491TIP3   OH225436   4.483   1.793   2.547 -0.0720  0.2067  0.8500
 8491TIP3    H125437   4.485   1.707   2.504 -0.4237 -0.5058  2.2220
 8491TIP3    H225438   4.403   1.834   2.513  1.2533  0.9975 -1.5971
 8492TIP3   OH225439   1.775   5.959   0.849 -0.0039 -0.1566 -1.0031
 8492TIP3    H125440   1.828   5.915   0.782  1.0506 -0.9884  0.3143
 8492TIP3    H225441   1.827   6.036   0.873 -0.5042  0.2835 -1.3142
 8493TIP3   OH225442   6.629   5.748   1.264  0.3175  0.2539 -0.5892
 8493TIP3    H125443   6.549   5.779   1.304  0.3737  1.8921 -1.6550
 8493TIP3    H225444   6.628   5.653   1.278 -1.8348  0.2261 -0.6718
 8494TIP3   OH225445   1.594   3.934   0.833 -0.2663 -0.1681  0.0839
 8494TIP3    H125446   1.627   3.858   0.785  2.0673  0.5011  0.4881
 8494TIP3    H225447   1.620   3.918   0.924  1.6936  1.7477 -0.0512
 8495TIP3   OH225448   5.394   2.657   3.730 -0.2402 -0.0737  0.5403
 8495TIP3    H125449   5.408   2.747   3.700 -0.3860 -0.0634  0.5035
 8495TIP3    H225450   5.418   2.603   3.655  1.1449 -0.1256  0.9913
 8496TIP3   OH225451   2.691   1.909   1.477  0.0574 -0.2393 -0.1990
 8496TIP3    H125452   2.615   1.961   1.502  0.5217 -0.4573  1.8520
 8496TIP3    H225453   2.665   1.818   1.493  1.0240 -0.2601  1.4729
 8497TIP3   OH225454   5.396   2.867   0.159 -0.0188 -0.0560  0.2554
 8497TIP3    H125455   5.328   2.932   0.177 -0.8291 -0.5384 -0.9119
 8497TIP3    H225456   5.447   2.906   0.089  0.3277 -0.1043  0.4818
 8498TIP3   OH225457   4.399   4.369   2.591  0.3314 -0.5153  0.4139
 8498TIP3    H125458   4.424   4.456   2.622  0.9876 -0.3179 -0.6121
 8498TIP3    H225459   4.306   4.361   2.613 -0.1936  1.1570 -1.0004
 8499TIP3   OH225460   1.864   4.726   1.319  0.8989 -0.5924  0.3647
 8499TIP3    H125461   1.852   4.635   1.293 -1.0752 -0.3089  0.1111
 8499TIP3    H225462   1.852   4.776   1.238 -1.8676  0.0827  1.0905
 8500TIP3   OH225463   6.661   6.783   4.924  0.4458  0.3973 -0.2957
 8500TIP3    H125464   6.575   6.749   4.898  1.0034 -1.0868 -0.3186
 8500TIP3    H225465   6.661   6.779   5.019  0.9700 -0.9638 -0.3255
 8501TIP3   OH225466   0.769   5.307   2.168 -0.3886 -0.4428 -0.4090
 8501TIP3    H125467   0.689   5.260   2.143 -0.1998  0.0217 -2.0412
 8501TIP3    H225468   0.839   5.260   2.123 -0.1004  0.8226 -1.3626
 8502TIP3   OH225469   0.252   1.432   5.403  0.0749  0.3298  0.9709
 8502TIP3    H125470   0.176   1.377   5.385  0.6718 -0.1400 -0.2905
 8502TIP3    H225471   0.240   1.509   5.347  0.8815 -0.1124  0.1496
 8503TIP3   OH225472   2.776   2.947   3.801 -0.1619 -0.3707 -0.1925
 8503TIP3    H125473   2.777   2.967   3.895 -0.9002 -0.7196 -0.1018
 8503TIP3    H225474   2.774   3.032   3.758  1.0520 -0.1868  0.0796
 8504TIP3   OH225475   1.550   6.018   0.968 -0.7085  0.0911  0.2346
 8504TIP3    H125476   1.625   5.981   0.922 -0.8981 -0.9666  0.7481
 8504TIP3    H225477   1.476   5.965   0.939 -1.1510  0.6759  0.2764
 8505TIP3   OH225478   3.305   2.492   3.871 -0.5305  0.1488 -0.6201
 8505TIP3    H125479   3.225   2.536   3.845 -0.8553 -0.4967 -0.7279
 8505TIP3    H225480   3.330   2.440   3.795 -1.0943 -1.1855  0.0767
 8506TIP3   OH225481   3.321   3.190   2.059 -1.0810 -0.5084  0.3327
 8506TIP3    H125482   3.254   3.126   2.035 -1.7788  0.2818  0.1316
 8506TIP3    H225483   3.274   3.257   2.110 -0.6536  0.5205 -0.5727
 8507TIP3   OH225484   5.957   0.723   0.307 -0.6149 -0.1724 -0.1482
 8507TIP3    H125485   6.017   0.705   0.235 -0.2505 -0.6404  0.2764
 8507TIP3    H225486   6.012   0.727   0.385 -1.2082 -1.3432  0.3548
 8508TIP3   OH225487   7.066   3.379   2.332  0.1936  0.1622  0.3782
 8508TIP3    H125488   7.031   3.324   2.261 -1.4292 -0.8494  1.8625
 8508TIP3    H225489   7.102   3.455   2.288 -0.0581 -0.7842 -1.5802
 8509TIP3   OH225490   5.026   2.690   4.812 -0.6453  0.4304  0.3008
 8509TIP3    H125491   4.954   2.742   4.777 -1.7403 -1.2929 -0.1337
 8509TIP3    H225492   5.087   2.680   4.738 -0.9566  0.2230  0.0682
 8510TIP3   OH225493   1.673   2.658   0.302 -0.2387  0.2737  0.2946
 8510TIP3    H125494   1.704   2.698   0.383  1.0263  0.4534 -0.2442
 8510TIP3    H225495   1.732   2.584   0.289  0.5537  1.1255 -1.2181
 8511TIP3   OH225496   2.665   2.377   5.436 -0.1000 -0.2335  0.0771
 8511TIP3    H125497   2.727   2.399   5.505 -0.8368  0.9115  0.4233
 8511TIP3    H225498   2.679   2.444   5.369 -0.7284 -0.1478  0.0198
 8512TIP3   OH225499   5.027   2.525   1.421 -0.4582  0.6974  0.0980
 8512TIP3    H125500   4.939   2.498   1.448 -0.6136  0.4717 -0.6098
 8512TIP3    H225501   5.085   2.456   1.453 -0.2791  1.7629  2.2277
 8513TIP3   OH225502   3.853   5.005   3.627  0.5201  0.3816 -0.6900
 8513TIP3    H125503   3.814   5.048   3.703  0.4619 -1.3573  0.3019
 8513TIP3    H225504   3.778   4.973   3.576  0.5844  0.6263 -0.9429
 8514TIP3   OH225505   6.446   2.318   3.490  0.6062 -0.1531  0.3940
 8514TIP3    H125506   6.501   2.245   3.520  0.3067 -0.8305 -0.6629
 8514TIP3    H225507   6.484   2.345   3.407 -1.0411 -1.1215 -0.7371
 8515TIP3   OH225508   3.901   5.010   1.871  0.2724 -0.3073 -0.0591
 8515TIP3    H125509   3.885   5.100   1.845  1.0318 -0.1594 -0.0173
 8515TIP3    H225510   3.996   4.999   1.864 -0.0045 -1.9725 -2.9436
 8516TIP3   OH225511   0.569   4.269   2.431 -0.0884 -1.0559  0.0707
 8516TIP3    H125512   0.533   4.322   2.360  1.0320  0.2396  0.4239
 8516TIP3    H225513   0.504   4.200   2.445 -0.5274 -1.1013 -1.9086
 8517TIP3   OH225514   4.189   2.578   1.633  0.0326  0.0524  0.1513
 8517TIP3    H125515   4.146   2.661   1.612  0.6018  0.1427 -0.6917
 8517TIP3    H225516   4.270   2.604   1.677 -0.2354 -0.0855  0.7307
 8518TIP3   OH225517   0.604   2.921   0.479  0.4943  0.2525 -0.2929
 8518TIP3    H125518   0.686   2.875   0.462  1.1975  1.8594 -1.5683
 8518TIP3    H225519   0.568   2.879   0.556  2.3954 -0.6754  0.1460
 8519TIP3   OH225520   2.111   1.176   1.836 -0.2975 -0.0611 -0.1834
 8519TIP3    H125521   2.067   1.097   1.803 -1.0079 -0.0255  0.6543
 8519TIP3    H225522   2.054   1.248   1.809 -0.6578  0.0025  0.7136
 8520TIP3   OH225523   5.093   3.305   0.081 -0.3175  0.4718 -0.8336
 8520TIP3    H125524   5.002   3.307   0.052 -0.3031 -1.9124 -1.2539
 8520TIP3    H225525   5.110   3.394   0.111 -2.4549  1.2514 -1.6985
 8521TIP3   OH225526   6.916   1.398   3.363  0.0689 -0.1492  0.2181
 8521TIP3    H125527   7.003   1.363   3.384 -0.0833  0.3468  1.8826
 8521TIP3    H225528   6.855   1.335   3.402 -0.3280 -0.2860 -0.5981
 8522TIP3   OH225529   4.284   1.212   1.038 -0.5193  0.6358 -0.4036
 8522TIP3    H125530   4.254   1.149   0.973  0.1950 -1.6520  1.3467
 8522TIP3    H225531   4.372   1.237   1.007  0.5812 -1.8124  0.4702
 8523TIP3   OH225532   0.896   2.692   5.845 -0.1504 -0.8202 -0.2084
 8523TIP3    H125533   0.953   2.665   5.773 -0.2906  2.4758 -1.7226
 8523TIP3    H225534   0.807   2.677   5.812 -0.2032 -1.0401  0.0327
 8524TIP3   OH225535   2.957   6.797   2.157 -0.4677  0.0698  0.3373
 8524TIP3    H125536   3.011   6.818   2.081 -0.9076 -1.9348 -0.5927
 8524TIP3    H225537   3.019   6.782   2.228  0.0789 -0.2493 -0.2045
 8525TIP3   OH225538   1.280   6.603   2.021  0.0310 -0.1301  0.2483
 8525TIP3    H125539   1.298   6.688   1.981 -0.0242 -1.2238 -2.2459
 8525TIP3    H225540   1.246   6.624   2.108  1.2300  2.3370  0.2014
 8526TIP3   OH225541   3.725   5.203   5.799  0.4342  0.0413 -0.6267
 8526TIP3    H125542   3.672   5.165   5.729 -0.0868 -0.6153  0.0994
 8526TIP3    H225543   3.704   5.296   5.798 -1.7412 -0.3739  0.4477
 8527TIP3   OH225544   0.761   4.575   0.592  0.0395  0.2184 -0.3490
 8527TIP3    H125545   0.837   4.633   0.591  0.5453 -0.3904 -2.3637
 8527TIP3    H225546   0.689   4.629   0.560 -0.0914  0.4226  0.2709
 8528TIP3   OH225547   1.457   1.066   0.051 -0.2935  0.2132  0.0825
 8528TIP3    H125548   1.536   1.120   0.038  0.4279 -1.0701 -1.2464
 8528TIP3    H225549   1.491   0.978   0.064 -1.4918 -0.5809 -1.7151
 8529TIP3   OH225550   4.424   6.739   3.757 -0.5401  0.0957  0.4301
 8529TIP3    H125551   4.482   6.782   3.695 -1.5034 -0.1206 -0.6566
 8529TIP3    H225552   4.350   6.800   3.767 -0.5607 -0.0282  1.1021
 8530TIP3   OH225553   3.019   6.248   0.966 -0.2991 -0.1141 -0.0367
 8530TIP3    H125554   3.024   6.309   0.893  1.2046 -0.7384 -0.4962
 8530TIP3    H225555   2.950   6.283   1.022 -0.4483  1.2006 -0.9989
 8531TIP3   OH225556   5.092   3.022   4.436 -0.6154 -0.1600 -0.2444
 8531TIP3    H125557   5.165   2.986   4.385  0.6885  0.7238  0.9290
 8531TIP3    H225558   5.024   3.039   4.371 -0.0654 -1.6653 -1.2740
 8532TIP3   OH225559   1.059   1.725   3.602 -0.1568 -0.2916 -0.4553
 8532TIP3    H125560   1.066   1.687   3.690 -0.5226  3.0300  1.1560
 8532TIP3    H225561   1.149   1.728   3.570 -0.0918 -2.1633 -0.5601
 8533TIP3   OH225562   1.886   1.384   5.731  0.2548 -0.0659  0.2010
 8533TIP3    H125563   1.846   1.432   5.659  0.9628 -0.7945 -0.6970
 8533TIP3    H225564   1.913   1.301   5.693 -2.0416 -1.7650  1.9949
 8534TIP3   OH225565   3.684   4.776   1.502 -0.1745 -0.1827  0.2477
 8534TIP3    H125566   3.772   4.790   1.538 -0.0581  0.9047 -0.4057
 8534TIP3    H225567   3.627   4.830   1.557 -0.3727 -0.5249  0.3817
 8535TIP3   OH225568   4.383   2.100   0.916 -0.2953 -0.5132 -0.3316
 8535TIP3    H125569   4.330   2.169   0.956  3.6201  2.0982  0.9358
 8535TIP3    H225570   4.395   2.035   0.985  1.2139  0.8609  0.7989
 8536TIP3   OH225571   1.106   4.018   2.262  0.2447 -0.2897 -0.0300
 8536TIP3    H125572   1.104   4.063   2.347 -1.2158 -0.6436  0.1446
 8536TIP3    H225573   1.175   4.063   2.214 -0.2386  1.2697  0.6333
 8537TIP3   OH225574   3.410   3.769   5.375  0.2517 -0.5008 -0.2865
 8537TIP3    H125575   3.405   3.694   5.433 -0.3097  0.0043  0.3308
 8537TIP3    H225576   3.433   3.732   5.290 -1.3674 -1.5345 -0.3218
 8538TIP3   OH225577   1.839   3.712   1.132  0.2431 -0.0466 -0.0560
 8538TIP3    H125578   1.766   3.774   1.127  0.4995  0.2018 -0.8036
 8538TIP3    H225579   1.799   3.626   1.115  0.1149  0.0814 -0.4005
 8539TIP3   OH225580   5.768   4.747   5.231 -0.3838  0.1823 -0.0110
 8539TIP3    H125581   5.772   4.791   5.315  1.8239  0.6983 -0.3260
 8539TIP3    H225582   5.819   4.667   5.243 -1.8969 -0.8583 -0.2692
 8540TIP3   OH225583   4.957   0.212   3.851  1.0449  0.0124 -0.3699
 8540TIP3    H125584   4.942   0.126   3.811  0.5027  0.2984 -0.8103
 8540TIP3    H225585   4.948   0.197   3.945 -0.0971 -0.2347 -0.4933
 8541TIP3   OH225586   6.963   3.441   5.518  0.0333  0.0543 -0.6187
 8541TIP3    H125587   6.967   3.536   5.512  0.3935 -0.0180 -1.6305
 8541TIP3    H225588   7.049   3.415   5.551  0.8471 -0.0744 -2.7266
 8542TIP3   OH225589   4.702   0.309   0.950 -0.3119 -0.0042 -0.0555
 8542TIP3    H125590   4.642   0.288   1.022 -1.6048  0.1447 -1.0576
 8542TIP3    H225591   4.669   0.392   0.915  0.7745  0.3253 -0.3270
 8543TIP3   OH225592   4.440   1.089   2.215  0.2509  0.1485 -0.5688
 8543TIP3    H125593   4.413   1.168   2.168  0.6115  0.7673  0.2455
 8543TIP3    H225594   4.512   1.054   2.163  2.0363  1.9532  0.5240
 8544TIP3   OH225595   2.872   1.241   4.614  0.3027  0.5075  0.0792
 8544TIP3    H125596   2.867   1.336   4.624 -0.0863  0.2559  3.2166
 8544TIP3    H225597   2.793   1.208   4.656  1.5853 -1.2798  1.2364
 8545TIP3   OH225598   0.153   4.696   5.384  0.3368  0.5369 -0.0218
 8545TIP3    H125599   0.207   4.701   5.306 -0.1459  0.1071 -0.3867
 8545TIP3    H225600   0.123   4.605   5.387 -1.2109  1.0135 -0.4026
 8546TIP3   OH225601   6.609   1.258   4.403  0.4678  0.3028 -0.0490
 8546TIP3    H125602   6.517   1.243   4.424  0.6977 -2.2702 -0.5430
 8546TIP3    H225603   6.645   1.299   4.482 -1.0031  1.0203  0.2876
 8547TIP3   OH225604   0.293   3.753   4.800  0.5516 -0.4344 -0.4767
 8547TIP3    H125605   0.298   3.668   4.844  0.3132 -0.5299 -0.6320
 8547TIP3    H225606   0.254   3.733   4.714 -2.0822  0.2007  0.4792
 8548TIP3   OH225607   6.796   3.460   4.890 -0.3201 -0.0936 -0.1646
 8548TIP3    H125608   6.752   3.526   4.836 -0.9721 -0.7462 -0.4640
 8548TIP3    H225609   6.865   3.425   4.834 -0.5678 -0.3009 -0.3467
 8549TIP3   OH225610   0.615   6.772   4.479  0.5953 -0.7624  0.4050
 8549TIP3    H125611   0.599   6.841   4.544  0.1170 -1.0650  0.6183
 8549TIP3    H225612   0.647   6.698   4.531 -0.9051 -1.3990  0.4702
 8550TIP3   OH225613   2.507   0.641   0.721 -0.8699 -0.7741  0.0093
 8550TIP3    H125614   2.452   0.616   0.647 -1.4327 -1.0414  0.5080
 8550TIP3    H225615   2.535   0.558   0.760 -0.2334 -0.6389 -0.1494
 8551TIP3   OH225616   4.457   4.134   2.857  0.4386 -0.4131 -0.2654
 8551TIP3    H125617   4.507   4.216   2.858 -0.6252  0.2679  0.8013
 8551TIP3    H225618   4.366   4.161   2.873  0.1155 -1.8230  0.5210
 8552TIP3   OH225619   4.921   5.820   5.235  0.6011 -0.0350 -0.3065
 8552TIP3    H125620   4.961   5.771   5.164 -0.0239 -0.2841 -0.4912
 8552TIP3    H225621   4.854   5.762   5.270  0.2982  0.4353 -0.0994
 8553TIP3   OH225622   4.054   1.815   1.313 -0.1600  0.4442  0.7387
 8553TIP3    H125623   4.047   1.779   1.225  0.2947  1.3372  0.3160
 8553TIP3    H225624   4.122   1.762   1.355 -0.5940 -0.1820  0.6608
 8554TIP3   OH225625   5.918   6.258   4.728 -0.2663 -0.1972 -0.1544
 8554TIP3    H125626   5.967   6.339   4.711 -0.0043 -0.6825 -1.7820
 8554TIP3    H225627   5.839   6.288   4.773 -0.2616  1.0033 -0.9017
 8555TIP3   OH225628   6.855   3.392   2.509 -0.2930 -0.0739 -0.8698
 8555TIP3    H125629   6.798   3.451   2.461  0.4195  1.4525  0.0803
 8555TIP3    H225630   6.932   3.380   2.452 -0.4980 -0.2100 -1.1193
 8556TIP3   OH225631   5.254   3.236   3.410 -0.1934  0.0955  0.0422
 8556TIP3    H125632   5.263   3.320   3.365 -0.9639 -0.0036 -0.3149
 8556TIP3    H225633   5.294   3.172   3.350 -0.6415  0.0512 -0.2100
 8557TIP3   OH225634   4.619   2.341   0.981  0.1600  0.0330 -0.1077
 8557TIP3    H125635   4.713   2.353   0.998  0.2809  0.0291 -0.7609
 8557TIP3    H225636   4.576   2.385   1.054  0.6793 -1.0252  0.8682
 8558TIP3   OH225637   3.922   1.299   5.107  1.2083  0.1029 -0.1300
 8558TIP3    H125638   4.010   1.329   5.087  0.8782  0.9157 -0.4121
 8558TIP3    H225639   3.884   1.279   5.022  0.1502  2.5638 -0.3132
 8559TIP3   OH225640   0.158   2.281   3.259  0.2550  0.1730 -0.0843
 8559TIP3    H125641   0.083   2.256   3.312  1.0298  0.0107  0.9604
 8559TIP3    H225642   0.225   2.307   3.322  1.8776 -1.8506 -0.8544
 8560TIP3   OH225643   1.073   3.113   1.805  0.7420  0.0561  0.1846
 8560TIP3    H125644   1.043   3.204   1.807 -0.4977 -0.3528  0.8607
 8560TIP3    H225645   1.159   3.115   1.847  1.2622  1.0789 -0.8620
 8561TIP3   OH225646   1.526   2.209   1.619 -0.2558  0.5690  0.3794
 8561TIP3    H125647   1.566   2.265   1.553  0.3879 -0.3222 -0.0010
 8561TIP3    H225648   1.599   2.178   1.673 -0.3123 -1.3441 -0.5290
 8562TIP3   OH225649   0.165   2.076   2.540 -0.0663  0.1549  0.2782
 8562TIP3    H125650   0.207   2.006   2.490  0.4926  0.1341  0.7684
 8562TIP3    H225651   0.168   2.046   2.631 -0.8453  0.3080  0.3668
 8563TIP3   OH225652   6.388   3.495   0.257  0.4218  0.3661 -0.3666
 8563TIP3    H125653   6.404   3.461   0.169 -0.8840 -0.9122 -0.1460
 8563TIP3    H225654   6.421   3.427   0.315 -1.2790 -0.1083  0.0911
 8564TIP3   OH225655   1.012   0.564   1.222 -0.2296  0.3362 -0.1066
 8564TIP3    H125656   1.069   0.608   1.158 -1.2079  1.6293 -0.1357
 8564TIP3    H225657   0.955   0.634   1.255 -2.9898 -1.1613 -1.3613
 8565TIP3   OH225658   6.414   5.780   5.077  0.4138 -0.3955  0.2845
 8565TIP3    H125659   6.477   5.796   5.147 -0.4212  0.1441  0.9249
 8565TIP3    H225660   6.381   5.866   5.053  0.1505 -0.6447 -0.2785
 8566TIP3   OH225661   6.702   4.165   4.830 -0.0358  0.7322 -0.4788
 8566TIP3    H125662   6.684   4.201   4.743 -2.1183 -1.4953 -1.0697
 8566TIP3    H225663   6.778   4.108   4.817  0.3130  1.2122 -0.5785
 8567TIP3   OH225664   0.347   5.478   0.665  0.0690 -0.6162  0.3783
 8567TIP3    H125665   0.288   5.489   0.590  0.7718  1.4285  0.0568
 8567TIP3    H225666   0.289   5.479   0.741 -0.7254 -3.3551 -0.0695
 8568TIP3   OH225667   6.454   0.326   5.360  0.0476 -0.2235 -0.1133
 8568TIP3    H125668   6.380   0.312   5.300 -0.2967  1.4952 -0.1323
 8568TIP3    H225669   6.414   0.363   5.439  0.9922  2.1900 -0.6829
 8569TIP3   OH225670   5.242   3.814   0.686 -0.4221 -0.3335  0.2262
 8569TIP3    H125671   5.257   3.838   0.595 -0.6562  0.0277  0.2823
 8569TIP3    H225672   5.204   3.726   0.681  0.0811 -0.5375  0.0044
 8570TIP3   OH225673   0.503   3.968   1.295  0.8992 -0.6213 -0.2411
 8570TIP3    H125674   0.574   3.968   1.359  2.2029  1.4709 -1.5469
 8570TIP3    H225675   0.424   3.984   1.346  1.9772  1.5923  0.8411
 8571TIP3   OH225676   5.367   1.802   1.082  0.0762 -0.1119  0.0275
 8571TIP3    H125677   5.326   1.780   0.998 -1.6408  0.6884  0.6072
 8571TIP3    H225678   5.367   1.898   1.084 -1.9515 -0.0547  1.8016
 8572TIP3   OH225679   2.033   1.990   3.323 -0.8165 -0.3412  0.6901
 8572TIP3    H125680   1.997   2.061   3.269  0.2480  0.0765  0.5043
 8572TIP3    H225681   1.994   2.005   3.409  0.5297  1.4268  1.0627
 8573TIP3   OH225682   5.075   6.381   3.285  0.2891 -0.1358 -0.0018
 8573TIP3    H125683   4.982   6.367   3.270  0.6475 -0.3591 -2.4232
 8573TIP3    H225684   5.119   6.331   3.216  2.1044  1.7065 -0.3085
 8574TIP3   OH225685   4.496   5.013   4.462  0.2472 -0.0494  0.3649
 8574TIP3    H125686   4.583   5.032   4.496  0.0244 -0.6618  1.3058
 8574TIP3    H225687   4.440   5.080   4.501 -0.0009 -0.7248  1.1960
 8575TIP3   OH225688   3.767   2.218   4.141  0.4115 -0.4338 -0.1570
 8575TIP3    H125689   3.720   2.147   4.184 -1.2355  1.1313  0.7731
 8575TIP3    H225690   3.712   2.240   4.065  0.5535  0.2463 -0.0702
 8576TIP3   OH225691   1.406   5.364   2.138  0.0721 -0.3264  0.0198
 8576TIP3    H125692   1.330   5.374   2.079 -0.3208  2.6977  0.8818
 8576TIP3    H225693   1.368   5.347   2.224  0.1707  2.4786  0.7163
 8577TIP3   OH225694   2.577   4.858   3.618  0.0730  0.3274  0.0718
 8577TIP3    H125695   2.625   4.800   3.559  0.0151  2.2824 -2.0065
 8577TIP3    H225696   2.496   4.879   3.572 -0.7230  0.6852  1.5497
 8578TIP3   OH225697   7.099   6.070   4.345 -0.3774 -0.1005  0.0525
 8578TIP3    H125698   7.094   5.988   4.395 -0.9216  0.0345  0.2250
 8578TIP3    H225699   7.190   6.100   4.357 -0.9989  1.0592  2.8060
 8579TIP3   OH225700   1.917   6.225   0.569 -0.0075 -0.0675  0.0765
 8579TIP3    H125701   2.010   6.236   0.589 -0.1547  3.3970 -0.5633
 8579TIP3    H225702   1.916   6.174   0.488  1.3123 -0.4139  0.2547
 8580TIP3   OH225703   6.099   1.728   4.742  0.1940  0.7661  0.3689
 8580TIP3    H125704   6.082   1.789   4.814 -0.7950  1.5342 -0.4952
 8580TIP3    H225705   6.035   1.658   4.754 -0.6660  1.4144 -0.3344
 8581TIP3   OH225706   7.231   5.387   2.783 -0.3108  0.2516 -0.0935
 8581TIP3    H125707   7.253   5.369   2.874 -0.2489 -0.1075 -0.1791
 8581TIP3    H225708   7.158   5.449   2.788 -1.1966 -0.7933  0.2220
 8582TIP3   OH225709   4.104   5.397   1.086  0.2585 -0.1880  0.2027
 8582TIP3    H125710   4.113   5.407   1.181  0.2130 -2.1589  0.4538
 8582TIP3    H225711   4.053   5.316   1.075 -1.0114  0.7639 -1.4919
 8583TIP3   OH225712   5.399   5.656   4.121 -0.0988  0.0093  1.2147
 8583TIP3    H125713   5.311   5.662   4.083 -0.2997  0.2843  1.7103
 8583TIP3    H225714   5.444   5.736   4.091  0.1031 -0.3109  0.6619
 8584TIP3   OH225715   5.904   1.617   4.503  0.0500 -0.4635  0.6285
 8584TIP3    H125716   5.860   1.574   4.576  0.0555  0.7349  1.3706
 8584TIP3    H225717   5.968   1.553   4.473  0.4642 -0.7753  2.0753
 8585TIP3   OH225718   7.162   2.831   5.678 -0.0421  0.0576  0.5277
 8585TIP3    H125719   7.168   2.907   5.736 -0.0134  0.0182  0.5761
 8585TIP3    H225720   7.228   2.771   5.710 -1.9480 -1.2177  2.2644
 8586TIP3   OH225721   0.022   1.328   4.767  0.3763  0.1951  0.6234
 8586TIP3    H125722   0.033   1.388   4.694  0.3150 -1.6123 -0.9519
 8586TIP3    H225723   0.111   1.303   4.792  0.4164  1.1669  1.5182
 8587TIP3   OH225724   0.597   3.185   0.588  0.2538  0.4872 -0.3046
 8587TIP3    H125725   0.585   3.114   0.526  1.8299  0.0050 -0.1052
 8587TIP3    H225726   0.662   3.242   0.548  0.4548  0.7687  0.3985
 8588TIP3   OH225727   5.403   0.729   3.394  0.2375 -0.7324  0.5031
 8588TIP3    H125728   5.465   0.739   3.466  0.0196 -2.4513  0.9593
 8588TIP3    H225729   5.397   0.635   3.380 -2.8188 -0.7208  1.0024
 8589TIP3   OH225730   5.653   1.194   4.477 -0.3406 -0.5360 -0.0740
 8589TIP3    H125731   5.694   1.177   4.562  0.4068 -2.1295 -0.7175
 8589TIP3    H225732   5.590   1.123   4.467 -0.1387 -0.5903 -1.0197
 8590TIP3   OH225733   0.700   6.219   5.424  0.9031 -0.4079 -0.1021
 8590TIP3    H125734   0.739   6.143   5.380  0.0797 -1.3023  0.6703
 8590TIP3    H225735   0.760   6.238   5.496  1.5541  0.2200 -0.7977
 8591TIP3   OH225736   6.645   4.528   1.549  0.0937  0.3299 -0.1426
 8591TIP3    H125737   6.688   4.612   1.536 -2.0369  1.3165 -1.3666
 8591TIP3    H225738   6.591   4.540   1.627 -1.9825  0.9522 -1.5985
 8592TIP3   OH225739   4.480   2.761   4.299 -0.2445  0.1745 -0.4461
 8592TIP3    H125740   4.417   2.828   4.272 -1.2458 -0.3233  0.5530
 8592TIP3    H225741   4.440   2.721   4.377  1.0445 -0.5570 -0.1372
 8593TIP3   OH225742   3.285   2.621   0.193  0.1167 -0.5830 -0.5196
 8593TIP3    H125743   3.352   2.680   0.227  0.8911 -2.1270  0.7391
 8593TIP3    H225744   3.287   2.636   0.098  0.7460  0.9063 -0.3063
 8594TIP3   OH225745   2.581   1.860   2.344  0.2498 -0.4508  0.5009
 8594TIP3    H125746   2.491   1.865   2.376 -0.9042  0.6133 -2.5360
 8594TIP3    H225747   2.626   1.931   2.390 -1.2242  0.8353  0.0589
 8595TIP3   OH225748   3.068   2.994   0.775 -0.1353 -0.3868 -0.0702
 8595TIP3    H125749   3.140   2.961   0.828 -0.3863  2.2421  2.1181
 8595TIP3    H225750   3.102   3.075   0.736 -1.0541 -0.5402 -1.2583
 8596TIP3   OH225751   4.041   6.247   5.213  0.2392 -0.0988 -0.0934
 8596TIP3    H125752   4.071   6.197   5.289 -0.2707  1.0214  0.8816
 8596TIP3    H225753   3.992   6.183   5.161 -0.2532 -0.6696  1.0310
 8597TIP3   OH225754   4.925   0.561   5.676 -0.7500 -0.2770 -0.1211
 8597TIP3    H125755   4.972   0.492   5.628 -0.9625 -0.5323  0.0364
 8597TIP3    H225756   4.887   0.516   5.751  0.5303  0.3237  0.9256
 8598TIP3   OH225757   5.571   0.054   2.341  0.0656 -0.1757  0.0145
 8598TIP3    H125758   5.605   0.122   2.283 -1.1470  1.1065  0.7302
 8598TIP3    H225759   5.641   0.041   2.406  0.7563 -0.4334 -0.7654
 8599TIP3   OH225760   0.884   4.763   4.334  0.1160  0.5846  0.3612
 8599TIP3    H125761   0.902   4.669   4.341  0.3966  0.5612 -0.5598
 8599TIP3    H225762   0.916   4.787   4.248 -0.7602  1.3506  0.2336
 8600TIP3   OH225763   6.305   5.749   1.690  0.7533  0.0936 -0.3533
 8600TIP3    H125764   6.354   5.829   1.670  0.7981 -0.0194 -0.7026
 8600TIP3    H225765   6.270   5.763   1.778  3.5106 -0.8456  1.0111
 8601TIP3   OH225766   2.232   3.846   5.163  0.3462  0.0160  0.2403
 8601TIP3    H125767   2.279   3.789   5.102 -0.9637 -1.8480  0.8913
 8601TIP3    H225768   2.140   3.831   5.144 -0.0627  2.0286  0.3968
 8602TIP3   OH225769   1.659   2.432   0.660 -0.0411 -0.1232 -0.2486
 8602TIP3    H125770   1.749   2.402   0.652  0.2991  1.0890 -1.3110
 8602TIP3    H225771   1.664   2.508   0.717 -0.4674 -0.3506  0.0975
 8603TIP3   OH225772   1.612   5.077   5.634 -0.6558 -0.3477 -0.2253
 8603TIP3    H125773   1.610   5.031   5.550 -2.2140  0.4675 -0.6797
 8603TIP3    H225774   1.684   5.037   5.682  0.8961 -0.1985 -2.2980
 8604TIP3   OH225775   0.855   0.710   1.662  0.2808  0.5007 -0.5697
 8604TIP3    H125776   0.925   0.705   1.728  0.7988  0.5945 -1.1066
 8604TIP3    H225777   0.784   0.657   1.698  0.1769  1.3359  0.5203
 8605TIP3   OH225778   0.209   5.876   5.670  0.3146  0.1858 -0.4790
 8605TIP3    H125779   0.139   5.842   5.725  1.8543  0.1702  1.5969
 8605TIP3    H225780   0.247   5.798   5.629  0.7892 -0.1033  0.4897
 8606TIP3   OH225781   0.845   1.589   3.517  0.1480  0.1141  0.4076
 8606TIP3    H125782   0.865   1.498   3.537 -1.6539  0.0401  2.1898
 8606TIP3    H225783   0.927   1.636   3.533  0.6601 -0.9718  1.0714
 8607TIP3   OH225784   5.285   3.299   4.639  0.2670 -0.5183 -0.2402
 8607TIP3    H125785   5.365   3.256   4.609  1.7931  2.3687 -0.5939
 8607TIP3    H225786   5.293   3.299   4.735 -0.4036 -2.0985 -0.1531
 8608TIP3   OH225787   2.697   4.030   2.889  0.0470  0.2754 -0.3341
 8608TIP3    H125788   2.649   3.993   2.815  0.1181 -0.4014 -0.0523
 8608TIP3    H225789   2.668   3.978   2.965 -1.6233  2.2869  0.5192
 8609TIP3   OH225790   6.592   5.091   2.292  0.3999 -0.2172  0.5023
 8609TIP3    H125791   6.540   5.124   2.365 -0.2603  0.6962 -0.3529
 8609TIP3    H225792   6.537   5.025   2.251 -0.5503  1.4079 -0.9698
 8610TIP3   OH225793   3.723   5.890   3.969  0.2723 -0.0078  0.2651
 8610TIP3    H125794   3.648   5.903   4.026  0.6619 -0.5603  0.9205
 8610TIP3    H225795   3.773   5.971   3.976  0.2195 -0.0005  0.5622
 8611TIP3   OH225796   1.318   3.258   1.197 -0.4357  0.5698 -0.5468
 8611TIP3    H125797   1.398   3.205   1.201 -1.5254 -1.1482 -0.9383
 8611TIP3    H225798   1.265   3.218   1.129 -2.9459 -0.2267  1.7072
 8612TIP3   OH225799   5.329   1.621   3.702  0.6763 -0.6689 -0.0679
 8612TIP3    H125800   5.241   1.586   3.714  0.4048  0.6076  2.5310
 8612TIP3    H225801   5.325   1.670   3.620 -0.9653 -0.8789 -0.1387
 8613TIP3   OH225802   5.142   3.823   4.685  0.2303  0.3162 -0.2344
 8613TIP3    H125803   5.198   3.746   4.696  0.8750  1.1021  2.9757
 8613TIP3    H225804   5.201   3.897   4.696 -1.0614  1.1755  1.3358
 8614TIP3   OH225805   4.884   3.469   5.567  0.1293 -0.9180  0.3288
 8614TIP3    H125806   4.951   3.476   5.635 -0.4593  0.2131  0.8299
 8614TIP3    H225807   4.917   3.402   5.507  1.8433 -0.1891  0.3947
 8615TIP3   OH225808   0.714   0.342   2.347 -0.5587 -0.0201 -0.3437
 8615TIP3    H125809   0.704   0.261   2.398 -1.4413 -2.2058 -3.6569
 8615TIP3    H225810   0.625   0.371   2.329 -0.2552  1.2222  0.0721
 8616TIP3   OH225811   4.437   5.154   4.196 -0.0929 -0.3066 -0.5576
 8616TIP3    H125812   4.433   5.248   4.209  0.7747 -0.1599 -1.2941
 8616TIP3    H225813   4.408   5.117   4.280  0.4964  0.6087  0.0639
 8617TIP3   OH225814   4.065   2.424   5.388 -0.0154  0.2416 -0.4451
 8617TIP3    H125815   4.092   2.515   5.400 -0.3534  0.2063  0.7124
 8617TIP3    H225816   4.107   2.397   5.307  1.1430  1.0368 -0.1342
 8618TIP3   OH225817   1.569   2.254   0.894 -0.2916 -0.0623 -0.4362
 8618TIP3    H125818   1.588   2.168   0.931 -1.4256 -0.5252 -0.8918
 8618TIP3    H225819   1.574   2.240   0.799  0.3142  0.5748 -0.5074
 8619TIP3   OH225820   2.162   2.731   2.587 -0.7901  0.4408  0.2510
 8619TIP3    H125821   2.080   2.682   2.598 -0.7929  0.3706 -0.0808
 8619TIP3    H225822   2.139   2.803   2.529 -1.0581  1.4959  1.6091
 8620TIP3   OH225823   0.864   5.331   0.517 -0.1421 -0.2849  0.3516
 8620TIP3    H125824   0.856   5.285   0.600  0.1381  0.6739  0.9282
 8620TIP3    H225825   0.803   5.404   0.524 -1.1997 -0.9991 -0.8783
 8621TIP3   OH225826   2.111   4.815   5.301 -0.5396 -0.1830 -0.1945
 8621TIP3    H125827   2.115   4.829   5.395  2.8036  1.5229 -0.4454
 8621TIP3    H225828   2.117   4.720   5.291  1.0183 -0.2972  1.3296
 8622TIP3   OH225829   2.909   5.817   1.714 -0.0463 -0.2349  0.5008
 8622TIP3    H125830   2.934   5.764   1.789  1.9382  0.6348  0.5082
 8622TIP3    H225831   2.930   5.761   1.638 -0.7248 -0.5619  0.5423
 8623TIP3   OH225832   0.035   2.307   2.187  0.1199  0.2815 -0.4093
 8623TIP3    H125833  -0.015   2.278   2.263 -0.9517  0.8776 -0.8644
 8623TIP3    H225834   0.122   2.327   2.221 -0.1344 -0.1406  0.5203
 8624TIP3   OH225835   5.611   6.047   1.048 -0.0128 -0.3443 -0.3138
 8624TIP3    H125836   5.664   6.101   1.107 -0.8845 -0.8311  0.9726
 8624TIP3    H225837   5.623   5.958   1.081 -1.3592 -0.5006 -0.1881
 8625TIP3   OH225838   3.629   1.155   5.686 -0.0189  0.2296 -0.4080
 8625TIP3    H125839   3.668   1.217   5.747 -0.8595 -0.2398  0.6422
 8625TIP3    H225840   3.703   1.106   5.650  0.5100  0.7321 -0.0125
 8626TIP3   OH225841   3.385   3.769   2.858  0.0919  0.4330 -0.0757
 8626TIP3    H125842   3.322   3.841   2.862 -1.0838 -0.5267 -0.6031
 8626TIP3    H225843   3.442   3.791   2.784 -1.3828 -0.0078 -1.4156
 8627TIP3   OH225844   3.738   6.167   2.158 -0.2122  0.2193  0.1118
 8627TIP3    H125845   3.719   6.188   2.067 -1.6287  1.2686  0.6074
 8627TIP3    H225846   3.652   6.149   2.197  0.2115  1.1831  1.5627
 8628TIP3   OH225847   6.944   1.707   3.895 -0.4078  0.1797  0.2050
 8628TIP3    H125848   6.900   1.789   3.918 -1.0810  0.6480 -2.4231
 8628TIP3    H225849   6.995   1.728   3.817  1.5427 -1.3079  0.9836
 8629TIP3   OH225850   5.892   3.615   0.131  0.0198 -0.6506 -0.7841
 8629TIP3    H125851   5.857   3.551   0.068  2.1252 -1.3268 -1.3661
 8629TIP3    H225852   5.985   3.619   0.110  0.0747  2.1399 -0.2873
 8630TIP3   OH225853   6.692   0.173   5.382 -0.2902 -0.0516  0.2495
 8630TIP3    H125854   6.613   0.226   5.372  0.9120  1.9886  1.1541
 8630TIP3    H225855   6.764   0.231   5.357  1.0452 -1.4723  0.6510
 8631TIP3   OH225856   0.357   0.076   3.401 -0.4247  0.3769  0.5672
 8631TIP3    H125857   0.418   0.065   3.474 -0.4559  0.5398  0.6185
 8631TIP3    H225858   0.278   0.030   3.429 -0.3915  0.3268  0.5803
 8632TIP3   OH225859   0.324   1.984   1.187 -0.1681  0.2952 -0.0056
 8632TIP3    H125860   0.334   1.956   1.095 -0.3344  0.9337 -0.2211
 8632TIP3    H225861   0.233   1.963   1.209 -0.3362  0.8002 -0.2143
 8633TIP3   OH225862   6.527   3.066   4.588  0.3546  0.0879 -0.3686
 8633TIP3    H125863   6.565   3.071   4.676 -1.5572 -1.6150  0.6340
 8633TIP3    H225864   6.542   2.976   4.560  0.3825  0.4378 -1.5361
 8634TIP3   OH225865   4.722   6.340   4.295 -0.3506  0.2279 -0.0218
 8634TIP3    H125866   4.668   6.293   4.359 -1.4574  1.9038  0.3621
 8634TIP3    H225867   4.800   6.287   4.285 -2.0303 -2.3130 -0.5644
 8635TIP3   OH225868   1.451   1.760   5.850 -0.1465  0.3729  0.1633
 8635TIP3    H125869   1.514   1.691   5.831 -0.5977 -1.1377  3.5131
 8635TIP3    H225870   1.389   1.757   5.777  1.9202 -0.1208 -1.6803
 8636TIP3   OH225871   4.418   2.904   1.110 -0.1087 -0.1629 -0.4509
 8636TIP3    H125872   4.420   2.935   1.200 -0.0152  0.8647 -0.7945
 8636TIP3    H225873   4.439   2.981   1.057  0.4211 -0.8894 -1.3224
 8637TIP3   OH225874   4.478   2.342   1.607  0.0422 -0.5502 -0.4458
 8637TIP3    H125875   4.395   2.310   1.642 -1.1109  1.2501 -1.3714
 8637TIP3    H225876   4.530   2.365   1.684 -0.6635 -0.8847  0.1390
 8638TIP3   OH225877   5.110   6.656   1.799 -1.0233 -0.1872  0.0005
 8638TIP3    H125878   5.078   6.707   1.724  1.2219  0.9446 -0.3000
 8638TIP3    H225879   5.140   6.574   1.761  2.7960  1.4576 -1.0395
 8639TIP3   OH225880   6.613   1.139   2.040  0.2261 -0.4334  0.2464
 8639TIP3    H125881   6.518   1.128   2.042  0.2091 -0.3449 -0.1753
 8639TIP3    H225882   6.630   1.203   2.109  0.0145 -0.6996  0.5527
 8640TIP3   OH225883   3.849   5.321   1.140  0.1725  0.1239  0.3017
 8640TIP3    H125884   3.842   5.228   1.165 -0.8272 -0.3523 -1.6135
 8640TIP3    H225885   3.852   5.367   1.224 -2.0705 -1.4520  1.3699
 8641TIP3   OH225886   1.578   0.126   2.124  0.3105 -0.2623 -0.2574
 8641TIP3    H125887   1.626   0.051   2.159  1.5347  0.9190  0.7177
 8641TIP3    H225888   1.643   0.174   2.073  0.1334  1.2348  0.8546
 8642TIP3   OH225889   0.697   5.914   4.729 -0.2585  0.6126  0.2868
 8642TIP3    H125890   0.733   5.956   4.650 -0.9313  0.7693  0.0516
 8642TIP3    H225891   0.627   5.973   4.757 -1.6040 -0.6131 -0.3632
 8643TIP3   OH225892   2.802   6.492   0.206 -0.0464 -0.0931  0.4292
 8643TIP3    H125893   2.712   6.462   0.195 -0.4780  0.7832  1.3498
 8643TIP3    H225894   2.811   6.563   0.143  1.4578 -2.9269 -2.8535
 8644TIP3   OH225895   2.996   2.351   3.595  0.0699 -0.1716  0.0528
 8644TIP3    H125896   2.916   2.347   3.543  0.1548  1.2216 -0.2404
 8644TIP3    H225897   2.995   2.439   3.632  0.9196 -0.5273  0.9524
 8645TIP3   OH225898   1.255   4.584   0.779 -0.1177 -0.1968 -0.4502
 8645TIP3    H125899   1.342   4.571   0.740  0.0730 -1.7915  0.3916
 8645TIP3    H225900   1.257   4.529   0.858 -1.0094  1.7320  0.9840
 8646TIP3   OH225901   0.299   4.787   0.171  0.3739 -0.1226 -0.6046
 8646TIP3    H125902   0.325   4.695   0.180  0.7195  0.0813  0.6106
 8646TIP3    H225903   0.220   4.784   0.116  0.5513 -1.1109 -0.8276
 8647TIP3   OH225904   2.590   4.629   0.330 -0.0391  0.0404 -0.6568
 8647TIP3    H125905   2.631   4.553   0.287  0.1971 -0.1639 -0.0696
 8647TIP3    H225906   2.657   4.664   0.388 -0.5481 -0.0390 -0.0073
 8648TIP3   OH225907   6.154   1.751   2.523  0.0527  0.7352 -0.1021
 8648TIP3    H125908   6.221   1.751   2.592 -0.0032 -1.1723 -0.0001
 8648TIP3    H225909   6.072   1.768   2.570  0.2324  1.2739  0.0261
 8649TIP3   OH225910   4.942   5.360   1.315 -0.3800 -0.3139 -0.1962
 8649TIP3    H125911   4.872   5.425   1.308  0.5726  0.7117 -0.5127
 8649TIP3    H225912   4.969   5.363   1.407  0.9896  1.2173 -0.6017
 8650TIP3   OH225913   3.860   5.290   0.746 -0.4903  0.4713 -0.1933
 8650TIP3    H125914   3.878   5.366   0.801 -0.3687  0.1111  0.2738
 8650TIP3    H225915   3.797   5.239   0.795 -0.5006  0.2214 -0.4615
 8651TIP3   OH225916   4.672   4.908   1.524  0.2812  0.7221  0.3152
 8651TIP3    H125917   4.634   4.829   1.486 -1.0840  1.3526  0.3354
 8651TIP3    H225918   4.766   4.898   1.510  0.1988 -1.1549  0.7793
 8652TIP3   OH225919   1.226   6.258   5.055  0.0103 -0.1561  0.0700
 8652TIP3    H125920   1.317   6.255   5.084 -0.3453 -0.4109  1.2004
 8652TIP3    H225921   1.226   6.322   4.984  1.2971 -1.0719 -0.8100
 8653TIP3   OH225922   1.045   0.460   3.661 -0.0359 -0.5341  0.1790
 8653TIP3    H125923   1.067   0.482   3.571 -1.6987  2.0856  0.3192
 8653TIP3    H225924   1.040   0.544   3.706 -2.2079 -1.5416  2.0148
 8654TIP3   OH225925   6.917   5.761   4.058  0.5035 -0.2255 -0.5832
 8654TIP3    H125926   6.890   5.697   4.124  0.7930 -1.2119 -1.3987
 8654TIP3    H225927   7.011   5.771   4.071  0.1520  1.8095  1.0347
 8655TIP3   OH225928   5.937   4.833   3.102 -0.4286 -0.3889 -0.0294
 8655TIP3    H125929   5.883   4.754   3.093 -0.2820 -0.4239 -0.6106
 8655TIP3    H225930   6.027   4.801   3.103 -0.4175 -0.3616  1.2915
 8656TIP3   OH225931   6.953   6.143   1.017  0.1852 -0.3089 -0.5212
 8656TIP3    H125932   6.899   6.210   0.974  0.0384  0.3063  0.5868
 8656TIP3    H225933   6.910   6.061   0.996 -1.1804  0.1622  0.2955
 8657TIP3   OH225934   6.427   0.994   0.231 -0.4435  0.0414  0.3130
 8657TIP3    H125935   6.468   0.912   0.262  0.3450  0.8094  1.4082
 8657TIP3    H225936   6.489   1.028   0.166  0.2566  0.7416  1.3064
 8658TIP3   OH225937   1.580   2.811   4.244  0.6468 -0.2497  0.1744
 8658TIP3    H125938   1.611   2.797   4.334 -0.5106  2.3969  1.0904
 8658TIP3    H225939   1.660   2.826   4.193  1.2335 -0.2114  1.0838
 8659TIP3   OH225940   0.304   4.559   3.392  0.0127 -0.3052 -0.1139
 8659TIP3    H125941   0.299   4.467   3.416 -0.1217 -0.5373 -1.0071
 8659TIP3    H225942   0.239   4.570   3.322 -1.9106  1.0610  1.7691
 8660TIP3   OH225943   5.695   0.323   4.732 -0.7424  0.0256  0.2259
 8660TIP3    H125944   5.725   0.286   4.649  0.6027  0.6818  0.4005
 8660TIP3    H225945   5.727   0.262   4.798  2.2366  1.7816  0.5885
 8661TIP3   OH225946   0.415   5.433   5.715 -0.7955  0.4668 -0.1452
 8661TIP3    H125947   0.387   5.358   5.661 -0.7748  0.8991 -0.7756
 8661TIP3    H225948   0.354   5.434   5.788 -1.3157  0.3274 -0.5701
 8662TIP3   OH225949   6.553   0.162   3.342 -0.4112  0.4166  0.3365
 8662TIP3    H125950   6.609   0.238   3.348  0.8906 -0.5372  0.8008
 8662TIP3    H225951   6.484   0.187   3.280 -0.0902  1.9831  0.5733
 8663TIP3   OH225952   3.260   4.176   0.950  0.0587  0.3137  0.0306
 8663TIP3    H125953   3.288   4.102   0.895  0.0522 -1.2011  1.9731
 8663TIP3    H225954   3.341   4.211   0.986 -0.0736  0.0262  0.6126
 8664TIP3   OH225955   6.643   3.940   2.890 -0.3121  0.4825  0.1996
 8664TIP3    H125956   6.711   3.980   2.836 -0.3678 -0.1030 -0.3298
 8664TIP3    H225957   6.664   3.966   2.979  1.4570 -0.8552  0.2296
 8665TIP3   OH225958   4.916   2.171   4.483  0.1101 -0.9252 -0.3123
 8665TIP3    H125959   4.991   2.120   4.514 -0.0914 -0.9183  0.2075
 8665TIP3    H225960   4.850   2.159   4.551 -0.3449 -0.9000 -0.7516
 8666TIP3   OH225961   6.547   2.633   2.928 -0.2373  0.1473  0.3692
 8666TIP3    H125962   6.470   2.600   2.973  0.2819 -1.7347 -0.0041
 8666TIP3    H225963   6.539   2.599   2.839  0.7461  0.3885  0.1737
 8667TIP3   OH225964   7.105   5.474   0.472  0.2684 -0.8372  0.2916
 8667TIP3    H125965   7.069   5.541   0.414  1.1963 -0.0524  0.6002
 8667TIP3    H225966   7.098   5.393   0.422 -2.4268 -0.8584  0.5543
 8668TIP3   OH225967   0.168   0.247   2.476 -0.3802  0.2456 -0.2812
 8668TIP3    H125968   0.103   0.278   2.538  0.5937  1.6972  0.0589
 8668TIP3    H225969   0.117   0.206   2.406 -1.5159 -1.1809  1.2919
 8669TIP3   OH225970   4.987   1.179   2.923 -0.4282 -0.7727 -0.2657
 8669TIP3    H125971   5.020   1.141   2.842  1.4165 -0.4739  0.2952
 8669TIP3    H225972   5.033   1.263   2.930 -1.5381 -0.2006  0.4543
 8670TIP3   OH225973   4.527   4.709   3.801  0.1182 -0.2170 -0.0861
 8670TIP3    H125974   4.497   4.719   3.711 -1.9729  0.9760  0.6908
 8670TIP3    H225975   4.542   4.798   3.831  1.7939 -0.6457  0.4787
 8671TIP3   OH225976   0.533   2.653   0.725 -0.1726  0.3957  0.4621
 8671TIP3    H125977   0.505   2.582   0.782  2.7143 -0.6461  0.7271
 8671TIP3    H225978   0.573   2.717   0.783  0.4471  0.5515 -0.1175
 8672TIP3   OH225979   3.754   1.842   1.105 -0.5667 -0.2801 -0.7044
 8672TIP3    H125980   3.686   1.840   1.171  0.4546 -0.3560  0.3794
 8672TIP3    H225981   3.760   1.751   1.074  1.0746 -0.9885  1.4034
 8673TIP3   OH225982   2.663   0.409   5.498 -0.3701  0.0179 -0.1874
 8673TIP3    H125983   2.669   0.497   5.461 -0.1343 -0.1716 -0.6045
 8673TIP3    H225984   2.572   0.401   5.527 -0.7783 -0.1231 -1.4544
 8674TIP3   OH225985   3.922   5.166   2.843  0.4078  0.2129  0.1251
 8674TIP3    H125986   3.968   5.202   2.767 -0.8129 -1.1967 -1.3282
 8674TIP3    H225987   3.937   5.072   2.838 -0.3193  0.0261  1.2178
 8675TIP3   OH225988   3.202   6.485   0.610 -0.7993 -0.0662  0.0410
 8675TIP3    H125989   3.292   6.462   0.588 -0.2142  0.4487  1.6742
 8675TIP3    H225990   3.148   6.430   0.554  0.4366  1.8322 -3.3181
 8676TIP3   OH225991   0.420   1.492   1.551 -0.0456 -0.3285  0.0393
 8676TIP3    H125992   0.336   1.467   1.513 -0.6469  1.2237  0.2569
 8676TIP3    H225993   0.450   1.414   1.597 -1.2807 -0.9654 -0.1953
 8677TIP3   OH225994   7.210   1.327   2.231  0.2058 -0.9062  0.5698
 8677TIP3    H125995   7.157   1.253   2.203 -1.9155  0.8108 -0.2102
 8677TIP3    H225996   7.191   1.396   2.168  1.1180  0.7263  1.9863
 8678TIP3   OH225997   5.610   0.284   0.290 -0.1344  0.6593  0.2735
 8678TIP3    H125998   5.582   0.360   0.239  1.7446  1.1721 -0.0851
 8678TIP3    H225999   5.571   0.209   0.247 -1.5271  1.3632  0.2660
 8679TIP3   OH226000   6.634   3.979   4.141  0.0964  0.2042  0.2769
 8679TIP3    H126001   6.656   4.048   4.204 -1.8954  0.1592  1.0672
 8679TIP3    H226002   6.699   3.910   4.158  2.9657  2.2459 -1.3708
 8680TIP3   OH226003   4.216   5.405   2.368 -0.3197 -0.3443  0.1108
 8680TIP3    H126004   4.162   5.453   2.305 -1.2185  0.0423  1.1338
 8680TIP3    H226005   4.228   5.467   2.440 -0.1467 -1.1068  0.7502
 8681TIP3   OH226006   2.476   6.452   3.144  0.0980  0.3038 -0.4875
 8681TIP3    H126007   2.482   6.357   3.149  2.1979  0.4308  1.8324
 8681TIP3    H226008   2.425   6.478   3.220 -0.1047  1.0547 -0.8621
 8682TIP3   OH226009   3.444   2.237   5.224 -0.0620 -0.4622  0.1181
 8682TIP3    H126010   3.401   2.198   5.148  0.7603  0.5952 -0.9208
 8682TIP3    H226011   3.526   2.272   5.190  0.9288 -1.0750  1.7559
 8683TIP3   OH226012   4.237   2.067   1.223 -0.2131  0.0197  0.3276
 8683TIP3    H126013   4.240   2.044   1.316  1.0370 -1.0886  0.0392
 8683TIP3    H226014   4.263   1.987   1.177  2.2774  1.3900 -0.8270
 8684TIP3   OH226015   5.663   6.176   0.604 -0.1540 -0.3927 -0.1500
 8684TIP3    H126016   5.718   6.135   0.670 -0.5430 -0.0488  0.4024
 8684TIP3    H226017   5.574   6.171   0.640 -0.2233  0.8544 -0.0904
 8685TIP3   OH226018   0.784   2.593   2.222  0.0909 -0.6090 -0.2350
 8685TIP3    H126019   0.827   2.577   2.138  0.4602 -1.0277  0.0289
 8685TIP3    H226020   0.855   2.621   2.281 -0.2950  0.5187 -0.2737
 8686TIP3   OH226021   0.965   3.380   1.498 -0.3005  0.0423  0.0028
 8686TIP3    H126022   1.047   3.331   1.504 -0.7627 -0.6686  0.7793
 8686TIP3    H226023   0.949   3.390   1.404  1.0498  0.8611 -0.1667
 8687TIP3   OH226024   1.920   2.501   2.846 -0.5822  0.1998  0.5109
 8687TIP3    H126025   1.923   2.471   2.937 -2.0358 -0.1209  0.4842
 8687TIP3    H226026   1.827   2.506   2.826 -0.2843  0.2643 -0.9688
 8688TIP3   OH226027   2.162   0.905   5.177  0.1033 -0.7937  0.6123
 8688TIP3    H126028   2.214   0.836   5.219  1.4925  0.1049  0.4331
 8688TIP3    H226029   2.151   0.875   5.087  1.9070 -0.2079  0.1413
 8689TIP3   OH226030   0.158   4.920   0.502 -0.0921  0.2280 -0.2772
 8689TIP3    H126031   0.188   4.934   0.591  2.0822 -0.6782 -0.8076
 8689TIP3    H226032   0.208   4.983   0.449  1.5377 -1.7589 -1.2696
 8690TIP3   OH226033   3.559   4.137   3.846  0.4509  0.5332  0.3957
 8690TIP3    H126034   3.641   4.175   3.814  0.6901  0.2960  0.7235
 8690TIP3    H226035   3.547   4.175   3.933  1.0599 -0.6562  1.0261
 8691TIP3   OH226036   6.021   3.337   3.261 -0.0184 -0.0210  0.1971
 8691TIP3    H126037   6.069   3.257   3.281  1.3821  0.8190  0.3286
 8691TIP3    H226038   5.998   3.329   3.169  0.3385 -0.4479  0.1434
 8692TIP3   OH226039   2.156   0.529   3.085  0.0036  0.0708 -0.4835
 8692TIP3    H126040   2.234   0.560   3.038 -0.7055  1.7155 -0.6383
 8692TIP3    H226041   2.108   0.609   3.107 -1.9561 -0.9209 -0.9219
 8693TIP3   OH226042   7.074   1.926   1.919 -0.0086 -1.1004  0.0045
 8693TIP3    H126043   7.142   1.983   1.882 -0.7548 -0.8616 -1.0643
 8693TIP3    H226044   7.030   1.889   1.842 -1.5608 -0.6623  0.6402
 8694TIP3   OH226045   6.601   2.992   1.913 -0.0116 -0.1377  1.0683
 8694TIP3    H126046   6.660   2.965   1.843  1.0059 -0.1245  1.8927
 8694TIP3    H226047   6.606   3.088   1.912  0.0105 -0.1379  1.1578
 8695TIP3   OH226048   0.280   1.953   1.597  0.3231  0.1190  0.0636
 8695TIP3    H126049   0.248   2.017   1.661 -0.9711  1.0137 -1.3911
 8695TIP3    H226050   0.218   1.880   1.603  0.4844 -0.0092  0.1691
 8696TIP3   OH226051   5.964   0.673   1.432 -0.0215  0.4050  0.1934
 8696TIP3    H126052   5.952   0.584   1.398  0.0511  0.5604 -0.2513
 8696TIP3    H226053   5.972   0.727   1.353  0.8255  0.6829  0.4651
 8697TIP3   OH226054   4.616   4.447   1.202  0.3046  0.2061  0.1528
 8697TIP3    H126055   4.689   4.503   1.178  0.5432  0.5711  1.6398
 8697TIP3    H226056   4.648   4.358   1.185  0.2800  0.4374 -1.2628
 8698TIP3   OH226057   5.773   5.820   4.477  0.1650 -0.0497  0.0332
 8698TIP3    H126058   5.743   5.895   4.426  0.3910  0.6358  0.8864
 8698TIP3    H226059   5.714   5.817   4.552 -0.8838 -1.7373 -0.7891
 8699TIP3   OH226060   3.730   0.220   4.950 -0.7551  0.1752  0.6028
 8699TIP3    H126061   3.684   0.155   5.004 -1.9394  0.7486  0.3210
 8699TIP3    H226062   3.661   0.277   4.917  0.2319  1.4688  0.6717
 8700TIP3   OH226063   2.878   5.086   1.397  0.1380  0.1957  0.3516
 8700TIP3    H126064   2.831   5.128   1.469 -1.8846  0.8793 -1.2718
 8700TIP3    H226065   2.946   5.149   1.373 -0.4639  0.8793  0.3866
 8701TIP3   OH226066   0.094   6.521   1.362 -0.0379 -0.1391  0.1744
 8701TIP3    H126067   0.076   6.435   1.322 -3.2247  0.2463  0.4750
 8701TIP3    H226068   0.172   6.507   1.416 -0.2409 -2.7550 -0.0821
 8702TIP3   OH226069   5.890   1.132   2.367  0.3747 -0.6167 -0.3226
 8702TIP3    H126070   5.921   1.220   2.346  2.0526 -0.7020  1.5761
 8702TIP3    H226071   5.813   1.146   2.423  1.7330 -0.2797  1.5395
 8703TIP3   OH226072   3.338   2.340   0.888  0.1632  0.7097 -0.2088
 8703TIP3    H126073   3.329   2.435   0.900 -1.6288  0.5618 -0.0880
 8703TIP3    H226074   3.285   2.303   0.959  1.2448 -0.3954  0.0341
 8704TIP3   OH226075   3.432   5.805   0.878  0.0886 -0.3851  0.2761
 8704TIP3    H126076   3.455   5.784   0.788  0.4618 -0.4996  0.3965
 8704TIP3    H226077   3.480   5.741   0.931  0.0968 -0.1391  0.5702
 8705TIP3   OH226078   0.272   0.132   2.868  0.5580 -0.0314 -0.1066
 8705TIP3    H126079   0.327   0.140   2.946 -1.2761 -2.3365  1.5885
 8705TIP3    H226080   0.215   0.209   2.871  1.6622  0.8194 -0.2207
 8706TIP3   OH226081   2.497   6.285   1.778 -0.1822 -0.1882  0.3010
 8706TIP3    H126082   2.556   6.359   1.765 -0.7944  0.1494 -0.6210
 8706TIP3    H226083   2.547   6.225   1.834  0.6282  0.5465  0.3970
 8707TIP3   OH226084   3.515   0.695   5.367 -0.1945  0.4826  0.5229
 8707TIP3    H126085   3.508   0.600   5.368  1.5368  0.2952 -0.6555
 8707TIP3    H226086   3.544   0.718   5.456  1.2552 -0.2957  0.2722
 8708TIP3   OH226087   1.238   5.668   2.379 -0.2199 -0.6633  0.3120
 8708TIP3    H126088   1.313   5.611   2.363 -1.0620 -2.3386  1.8978
 8708TIP3    H226089   1.268   5.729   2.446  0.4511  0.3060 -0.8409
 8709TIP3   OH226090   0.292   2.301   2.315 -0.0215  0.2457  0.2635
 8709TIP3    H126091   0.372   2.272   2.271  0.1169 -1.0531  1.3132
 8709TIP3    H226092   0.300   2.396   2.320 -1.0647  0.8547 -4.4678
 8710TIP3   OH226093   4.235   4.064   5.323  0.7565  0.2007  0.0374
 8710TIP3    H126094   4.252   4.115   5.402  0.5988  4.1117 -2.2238
 8710TIP3    H226095   4.139   4.065   5.315  0.8225  0.9477 -0.8101
 8711TIP3   OH226096   1.601   0.800   0.129 -0.2159  0.4091  0.3047
 8711TIP3    H126097   1.689   0.831   0.152 -0.0532  0.0986  0.1084
 8711TIP3    H226098   1.549   0.818   0.206  0.8821 -2.9924  2.0819
 8712TIP3   OH226099   2.852   4.390   2.611 -0.2151  0.4717 -0.4412
 8712TIP3    H126100   2.921   4.324   2.597  0.8599  1.7621 -1.4486
 8712TIP3    H226101   2.812   4.401   2.525 -0.5320  0.9912 -0.2322
 8713TIP3   OH226102   1.734   3.000   2.843 -0.4995 -0.7710 -0.3622
 8713TIP3    H126103   1.647   3.015   2.806 -0.5002  1.1897  0.3292
 8713TIP3    H226104   1.724   3.018   2.937  0.4592 -1.4158 -0.1142
 8714TIP3   OH226105   2.561   6.355   2.368  0.7365 -0.4972 -0.0916
 8714TIP3    H126106   2.522   6.433   2.408  0.7454  1.3189 -3.2480
 8714TIP3    H226107   2.655   6.371   2.371  0.7068  0.0921 -1.4766
 8715TIP3   OH226108   1.264   1.139   3.333  0.2569 -0.2115 -0.4291
 8715TIP3    H126109   1.301   1.143   3.422  1.8008 -0.9904 -1.0067
 8715TIP3    H226110   1.270   1.229   3.302 -1.5624  0.3690  0.6940
 8716TIP3   OH226111   2.583   2.528   0.476 -0.4493  0.0472  0.1061
 8716TIP3    H126112   2.540   2.549   0.560  1.2959 -2.3256  1.7107
 8716TIP3    H226113   2.675   2.550   0.490  0.0801 -1.5155 -0.7563
 8717TIP3   OH226114   1.781   5.256   0.935 -0.5058  0.4170  0.3305
 8717TIP3    H126115   1.765   5.179   0.880 -1.6500  0.4030  0.6514
 8717TIP3    H226116   1.693   5.288   0.957 -0.0655  2.4265 -0.6253
 8718TIP3   OH226117   0.666   2.832   2.302  1.1031  0.5738 -0.5396
 8718TIP3    H126118   0.661   2.808   2.395 -0.4369 -0.6186 -0.8790
 8718TIP3    H226119   0.665   2.749   2.256  1.3767  1.1730 -1.6533
 8719TIP3   OH226120   4.567   2.817   2.658 -0.1188  0.4152  0.1762
 8719TIP3    H126121   4.485   2.842   2.616  0.1530  1.2527  0.1316
 8719TIP3    H226122   4.573   2.722   2.644 -0.3910  0.5620 -1.0274
 8720TIP3   OH226123   3.394   4.264   1.650  0.4910  0.1571  0.5252
 8720TIP3    H126124   3.301   4.243   1.650  0.4646  0.2711  0.8681
 8720TIP3    H226125   3.399   4.355   1.681  0.6883  0.2783  0.1505
 8721TIP3   OH226126   6.772   1.685   1.154 -0.3112 -0.5802 -0.4610
 8721TIP3    H126127   6.819   1.656   1.232 -2.6057 -0.1528  1.1927
 8721TIP3    H226128   6.764   1.605   1.101  1.2571 -0.8875 -0.2877
 8722TIP3   OH226129   6.927   4.641   4.241  0.1164  0.6847 -0.4433
 8722TIP3    H126130   6.847   4.609   4.282  0.1636 -1.1725 -1.6736
 8722TIP3    H226131   6.928   4.734   4.260 -1.8623  0.5926  0.3789
 8723TIP3   OH226132   4.122   5.492   3.888 -0.1842  0.6615 -0.5126
 8723TIP3    H126133   4.160   5.571   3.926 -0.0207  0.7374 -0.8339
 8723TIP3    H226134   4.177   5.421   3.922 -0.8376  0.5942  0.4550
 8724TIP3   OH226135   0.992   2.498   4.444  0.1466  0.1883 -0.2678
 8724TIP3    H126136   0.969   2.566   4.380 -0.0180  0.7698  0.3934
 8724TIP3    H226137   0.938   2.519   4.520  0.2734 -0.5544  0.0297
 8725TIP3   OH226138   6.567   6.009   0.509 -0.2900 -0.3667 -0.0966
 8725TIP3    H126139   6.660   6.013   0.533 -0.1015  2.4493 -1.0302
 8725TIP3    H226140   6.546   5.915   0.512  2.4342 -1.0380  0.6080
 8726TIP3   OH226141   2.114   3.165   3.145  0.7780 -0.4367 -0.2500
 8726TIP3    H126142   2.062   3.175   3.065 -0.7763  0.8131  0.8359
 8726TIP3    H226143   2.054   3.192   3.215  2.3593 -0.6897  1.2560
 8727TIP3   OH226144   3.904   2.455   1.472  0.0459  0.1392  0.3086
 8727TIP3    H126145   3.933   2.370   1.505 -1.9207 -0.6369  0.1773
 8727TIP3    H226146   3.830   2.478   1.528 -0.3372  1.0724 -0.5617
 8728TIP3   OH226147   4.385   3.386   0.020 -0.0509 -0.0038  0.6411
 8728TIP3    H126148   4.298   3.399   0.058 -0.2405 -0.4504  0.3643
 8728TIP3    H226149   4.441   3.449   0.066 -0.2694 -0.5541  1.6669
 8729TIP3   OH226150   0.408   2.525   4.680  0.8693  0.2642  0.3104
 8729TIP3    H126151   0.422   2.568   4.596  0.2095  0.2885  0.2041
 8729TIP3    H226152   0.315   2.504   4.681  1.3309 -1.9464  0.0111
 8730TIP3   OH226153   4.155   0.712   1.395 -0.2688 -0.1913  0.2787
 8730TIP3    H126154   4.185   0.721   1.304 -0.3819 -0.0322  0.2570
 8730TIP3    H226155   4.234   0.684   1.443  0.4023  1.9896  0.5452
 8731TIP3   OH226156   4.450   1.198   3.579  0.0821 -0.1521 -0.1358
 8731TIP3    H126157   4.545   1.210   3.583  0.0458  0.3157 -0.6179
 8731TIP3    H226158   4.419   1.225   3.666  0.6232 -2.7164  0.9576
 8732TIP3   OH226159   0.032   1.620   2.798 -0.0257 -0.1874  0.4668
 8732TIP3    H126160  -0.062   1.605   2.806  0.0944 -0.9691  0.4485
 8732TIP3    H226161   0.039   1.706   2.756 -0.7134  0.6338  1.9456
 8733TIP3   OH226162   7.120   2.055   0.446  0.6116  0.0260 -0.2714
 8733TIP3    H126163   7.111   2.016   0.533 -0.8496 -1.0349 -0.8548
 8733TIP3    H226164   7.204   2.101   0.449  0.9720 -0.6613  1.4333
 8734TIP3   OH226165   5.743   0.541   0.545 -0.0570 -0.1010  0.3892
 8734TIP3    H126166   5.829   0.516   0.577  0.4061 -0.8140 -1.3056
 8734TIP3    H226167   5.693   0.459   0.541  0.9969 -0.7848 -3.7688
 8735TIP3   OH226168   5.114   1.546   4.232  0.2779  0.5629 -0.2355
 8735TIP3    H126169   5.120   1.584   4.145 -1.7565 -1.3724 -1.3309
 8735TIP3    H226170   5.027   1.570   4.264  0.4986  0.1818  0.7151
 8736TIP3   OH226171   2.910   0.403   1.927  0.6322  0.3760  0.3977
 8736TIP3    H126172   2.954   0.456   1.994  0.0873  0.4427  0.7109
 8736TIP3    H226173   2.822   0.388   1.963  0.7962 -0.7945  0.3504
 8737TIP3   OH226174   4.259   3.333   1.897  0.6247  0.6596  0.2856
 8737TIP3    H126175   4.213   3.249   1.891 -0.2935  1.1800 -0.2701
 8737TIP3    H226176   4.199   3.390   1.946  0.8559  1.2249 -0.0751
 8738TIP3   OH226177   0.996   0.186   2.036 -0.6714 -0.1399  0.0915
 8738TIP3    H126178   0.934   0.257   2.023  0.1361  0.7726  1.0805
 8738TIP3    H226179   1.072   0.209   1.983 -1.6231 -1.9462 -2.2557
 8739TIP3   OH226180   1.068   5.571   3.217  0.0621  0.3436 -0.0260
 8739TIP3    H126181   0.997   5.619   3.258  0.3377 -0.1278  1.0317
 8739TIP3    H226182   1.147   5.620   3.241  0.2389 -0.0075  0.1144
 8740TIP3   OH226183   2.108   3.591   2.211 -0.4698  0.2494  0.0954
 8740TIP3    H126184   2.060   3.672   2.230 -1.1880 -0.0208 -0.5311
 8740TIP3    H226185   2.082   3.531   2.280 -0.8056  0.1991 -0.0746
 8741TIP3   OH226186   4.820   3.478   3.665 -0.1459 -0.0152  0.1351
 8741TIP3    H126187   4.915   3.488   3.664 -0.2065  0.6016 -0.5706
 8741TIP3    H226188   4.799   3.457   3.756  0.6884 -0.4602  0.2362
 8742TIP3   OH226189   5.583   2.502   0.950 -0.3435  0.2067 -0.3642
 8742TIP3    H126190   5.519   2.573   0.943 -0.0147  0.3772 -1.8100
 8742TIP3    H226191   5.668   2.545   0.951 -0.1532 -0.1392 -1.0063
 8743TIP3   OH226192   6.290   4.115   1.402  0.3217 -0.8456 -0.0591
 8743TIP3    H126193   6.252   4.027   1.397  1.1720 -1.2847  0.9045
 8743TIP3    H226194   6.380   4.101   1.431  0.0079  0.4495  1.6755
 8744TIP3   OH226195   1.150   6.082   0.715  0.3597 -0.2578  0.0819
 8744TIP3    H126196   1.242   6.074   0.690  0.3985 -1.2142  0.4862
 8744TIP3    H226197   1.151   6.078   0.811  0.0118  1.1318  0.1690
 8745TIP3   OH226198   3.954   4.127   2.170  0.3513  0.0055 -0.0982
 8745TIP3    H126199   3.995   4.074   2.239  0.9005  2.0662  1.2560
 8745TIP3    H226200   3.869   4.085   2.155  0.5796 -0.9951  1.2262
 8746TIP3   OH226201   4.618   3.516   5.402 -0.2340 -0.6006  0.1616
 8746TIP3    H126202   4.641   3.535   5.311  0.5294  0.0406  0.4866
 8746TIP3    H226203   4.694   3.472   5.438 -0.3126 -0.3439  0.6523
 8747TIP3   OH226204   0.536   4.292   0.622 -0.5308 -0.4847 -0.0483
 8747TIP3    H126205   0.481   4.335   0.557 -0.1169 -1.8393 -1.3647
 8747TIP3    H226206   0.481   4.285   0.700 -1.4528  0.1118 -0.6260
 8748TIP3   OH226207   3.131   5.344   5.597 -0.3416 -0.1250  0.0433
 8748TIP3    H126208   3.212   5.343   5.546 -1.1097 -0.9247 -1.1787
 8748TIP3    H226209   3.158   5.379   5.683  0.9811  1.1642 -0.8464
 8749TIP3   OH226210   4.198   4.902   1.510 -0.2280 -0.6959 -0.4351
 8749TIP3    H126211   4.157   4.828   1.464  0.3318 -0.7295 -0.8917
 8749TIP3    H226212   4.269   4.930   1.452  1.4680 -1.6686  1.0678
 8750TIP3   OH226213   4.194   6.702   2.947  0.3228 -0.0343 -0.3252
 8750TIP3    H126214   4.183   6.727   2.856 -0.1105  0.9992 -0.0088
 8750TIP3    H226215   4.241   6.619   2.944 -1.9167 -1.3652 -1.5585
 8751TIP3   OH226216   3.545   0.850   4.185 -0.1247 -0.1786  0.3511
 8751TIP3    H126217   3.512   0.761   4.173  1.0853 -0.6521  0.4912
 8751TIP3    H226218   3.493   0.885   4.258  0.8397 -1.5243  1.7349
 8752TIP3   OH226219   2.541   3.531   4.048  0.0113  0.1660  0.1479
 8752TIP3    H126220   2.466   3.589   4.062  0.0642  0.4920 -0.8291
 8752TIP3    H226221   2.613   3.574   4.094 -0.5181 -0.4576  1.6012
 8753TIP3   OH226222   3.668   3.290   3.266  0.7494 -0.0815 -0.1701
 8753TIP3    H126223   3.651   3.197   3.251  1.0663 -0.1424 -0.1598
 8753TIP3    H226224   3.762   3.300   3.251  0.6856  0.2712 -0.3512
 8754TIP3   OH226225   3.376   0.198   0.429 -0.6719 -0.1632 -0.2754
 8754TIP3    H126226   3.317   0.226   0.499 -1.4888  0.4752 -1.1844
 8754TIP3    H226227   3.338   0.234   0.349  1.0788  0.4808 -0.8844
 8755TIP3   OH226228   5.875   0.575   4.429  0.1868  0.6246 -0.2609
 8755TIP3    H126229   5.864   0.480   4.424 -1.2206  0.6161  1.6553
 8755TIP3    H226230   5.820   0.610   4.358  0.9681  0.0243 -1.1801
 8756TIP3   OH226231   3.666   5.745   2.564  0.0227 -0.6617  0.4580
 8756TIP3    H126232   3.671   5.800   2.486 -0.3836 -0.1063  0.8134
 8756TIP3    H226233   3.584   5.697   2.553  0.1152 -0.8043  0.3975
 8757TIP3   OH226234   4.495   4.907   2.302 -0.1479 -0.2434  0.1661
 8757TIP3    H126235   4.553   4.897   2.226 -1.4355  0.6696 -0.9836
 8757TIP3    H226236   4.486   5.002   2.312 -2.2887 -0.3383 -0.3978
 8758TIP3   OH226237   3.311   4.250   5.043 -0.6467 -0.2803  0.4113
 8758TIP3    H126238   3.363   4.330   5.047 -1.9025  0.6598 -0.9360
 8758TIP3    H226239   3.368   4.186   5.000 -0.7607  0.9223 -1.6429
 8759TIP3   OH226240   4.713   1.691   1.628 -0.1097 -0.4771 -0.3425
 8759TIP3    H126241   4.701   1.646   1.544 -1.5080 -4.1108  1.6250
 8759TIP3    H226242   4.804   1.677   1.650  0.7289  1.9145 -1.8533
 8760TIP3   OH226243   1.051   0.536   0.214 -0.4291  0.1557  0.6861
 8760TIP3    H126244   1.023   0.506   0.127 -0.9937  1.1959  0.4980
 8760TIP3    H226245   1.146   0.535   0.210 -0.4512 -0.2746  0.2184
 8761TIP3   OH226246   2.734   1.223   5.120 -0.1250 -0.0806 -0.4824
 8761TIP3    H126247   2.785   1.159   5.071  0.8428  0.9519 -0.8682
 8761TIP3    H226248   2.653   1.178   5.141  1.2598 -2.0949  0.9256
 8762TIP3   OH226249   6.986   2.067   2.288  0.1641  0.0874 -0.0016
 8762TIP3    H126250   7.063   2.027   2.247  1.1960  2.0108 -0.0601
 8762TIP3    H226251   7.021   2.143   2.334 -1.8836  2.0061 -1.4114
 8763TIP3   OH226252   5.886   1.000   0.939  0.2507  0.2342 -0.1763
 8763TIP3    H126253   5.907   0.911   0.966  1.3843  1.0518  1.8618
 8763TIP3    H226254   5.791   1.006   0.949 -0.0589 -1.1259 -1.7646
 8764TIP3   OH226255   1.689   5.384   2.023 -0.5475 -0.1353 -0.2321
 8764TIP3    H126256   1.615   5.426   2.067  0.1157  1.2732 -0.4120
 8764TIP3    H226257   1.751   5.366   2.094 -1.2867 -1.9174  0.0206
 8765TIP3   OH226258   1.137   5.703   0.157  0.1289  0.0547  0.5337
 8765TIP3    H126259   1.198   5.724   0.228  0.2467  1.2827  0.0896
 8765TIP3    H226260   1.193   5.678   0.084  0.2145  2.1757 -0.2043
 8766TIP3   OH226261   0.119   5.110   1.238  0.5082  0.2364  0.0104
 8766TIP3    H126262   0.066   5.159   1.175  0.3205  1.5339  1.1344
 8766TIP3    H226263   0.135   5.172   1.309  3.2018 -0.2529 -0.0939
 8767TIP3   OH226264   6.136   0.952   5.618 -0.0380  0.5112 -0.1540
 8767TIP3    H126265   6.059   0.958   5.561 -0.0217 -1.1392 -0.4079
 8767TIP3    H226266   6.101   0.921   5.701  0.1627  1.2785  0.2207
 8768TIP3   OH226267   5.279   6.770   2.179  0.5443 -0.3779  0.3073
 8768TIP3    H126268   5.374   6.780   2.181  0.8089 -2.3446  3.2421
 8768TIP3    H226269   5.248   6.824   2.251 -0.6065  0.2276 -0.6079
 8769TIP3   OH226270   1.506   5.665   5.345 -0.6258  0.0300  0.2770
 8769TIP3    H126271   1.520   5.607   5.420 -1.6440  1.4402  1.6235
 8769TIP3    H226272   1.569   5.736   5.357 -1.2621  0.6213  0.1872
 8770TIP3   OH226273   2.555   3.666   2.060 -0.2258  0.3363 -0.7639
 8770TIP3    H126274   2.495   3.618   2.117 -0.9833  0.0340 -1.7886
 8770TIP3    H226275   2.499   3.711   1.997  0.5721  1.0035 -1.0236
 8771TIP3   OH226276   3.373   2.996   5.868  0.1152  0.3994  0.4086
 8771TIP3    H126277   3.430   3.062   5.827 -0.2161 -0.2631 -1.2046
 8771TIP3    H226278   3.415   2.912   5.849 -0.8794 -0.0341  0.0197
 8772TIP3   OH226279   5.963   3.363   2.997 -0.3170  0.0285 -0.3760
 8772TIP3    H126280   5.919   3.383   2.914  0.7232  1.0424 -0.7098
 8772TIP3    H226281   6.043   3.415   2.995 -0.2572  0.0570  1.2605
 8773TIP3   OH226282   0.704   5.637   3.298  0.1588 -0.2682 -0.2807
 8773TIP3    H126283   0.739   5.549   3.307  1.6050  0.3290  0.2999
 8773TIP3    H226284   0.640   5.631   3.227  0.1058 -1.8062 -0.1262
 8774TIP3   OH226285   0.400   3.259   2.649 -0.1037 -0.5502  0.7410
 8774TIP3    H126286   0.352   3.213   2.579  1.0671 -0.8178  0.0814
 8774TIP3    H226287   0.379   3.211   2.728  0.2682 -1.5972  0.2192
 8775TIP3   OH226288   0.151   3.504   1.335  0.5447 -1.2355 -0.4324
 8775TIP3    H126289   0.089   3.469   1.399  2.4265 -0.9420  1.6615
 8775TIP3    H226290   0.108   3.583   1.301  0.8096  0.6267  3.0952
 8776TIP3   OH226291   4.514   6.406   3.128 -0.0335  0.4919 -0.2606
 8776TIP3    H126292   4.549   6.341   3.067 -1.6385 -0.8100  0.1238
 8776TIP3    H226293   4.425   6.423   3.096 -1.0401 -0.4619  1.7903
 8777TIP3   OH226294   1.510   0.782   2.148 -0.7923  0.0702  0.3720
 8777TIP3    H126295   1.535   0.746   2.063  2.8384  0.6804  0.9989
 8777TIP3    H226296   1.523   0.710   2.209  2.6037  1.0707  1.0772
 8778TIP3   OH226297   4.987   5.875   4.589 -0.3394  0.3821 -0.0080
 8778TIP3    H126298   4.901   5.917   4.588 -0.4256  0.2238 -1.6685
 8778TIP3    H226299   4.972   5.787   4.553  0.2273 -0.2814  1.3121
 8779TIP3   OH226300   1.395   6.064   2.857  0.3027 -0.0776 -0.2540
 8779TIP3    H126301   1.337   5.993   2.831  0.4175 -0.3316  0.1829
 8779TIP3    H226302   1.455   6.073   2.783 -1.7675  1.8475 -1.8536
 8780TIP3   OH226303   6.080   6.371   2.150  0.3416  0.1806  0.3884
 8780TIP3    H126304   6.103   6.287   2.111  0.4306 -1.0368  2.8236
 8780TIP3    H226305   6.073   6.432   2.077 -0.1359 -2.0333 -1.5018
 8781TIP3   OH226306   1.625   1.231   5.795  0.1613 -0.4885 -0.8300
 8781TIP3    H126307   1.589   1.147   5.766  0.9386 -0.8966 -0.6421
 8781TIP3    H226308   1.687   1.255   5.726 -0.8775  0.4947 -1.4382
 8782TIP3   OH226309   5.221   1.190   3.332  0.1419  0.2576 -0.3973
 8782TIP3    H126310   5.316   1.173   3.333 -0.1540 -1.6112 -0.3801
 8782TIP3    H226311   5.182   1.109   3.365 -1.5390  0.3623 -1.9865
 8783TIP3   OH226312   2.352   0.977   4.616 -0.3569  0.6558 -0.5374
 8783TIP3    H126313   2.435   0.958   4.572 -0.2229  0.5237 -0.2301
 8783TIP3    H226314   2.321   0.892   4.647 -0.5072  0.7328 -0.4757
 8784TIP3   OH226315   2.658   5.370   5.824  0.4824 -0.6135 -0.0445
 8784TIP3    H126316   2.626   5.445   5.874  1.0263 -0.1760 -0.3460
 8784TIP3    H226317   2.599   5.299   5.849 -2.0158  0.5793 -2.0369
 8785TIP3   OH226318   5.264   5.149   4.379  0.0336  0.5242  0.0510
 8785TIP3    H126319   5.315   5.198   4.444  2.7863 -0.7531 -0.9782
 8785TIP3    H226320   5.239   5.068   4.425  2.0738 -0.4293 -0.3895
 8786TIP3   OH226321   3.528   1.003   5.210  0.1769  0.0474  0.6480
 8786TIP3    H126322   3.443   0.965   5.190  0.2293  0.4636 -0.4406
 8786TIP3    H226323   3.545   0.978   5.301 -1.4825  0.6685  1.1682
 8787TIP3   OH226324   7.115   6.354   5.153  0.0561 -0.0341 -0.3358
 8787TIP3    H126325   7.176   6.388   5.219 -1.7671  1.4021  0.6939
 8787TIP3    H226326   7.125   6.259   5.158  0.2906  0.0639  1.6999
 8788TIP3   OH226327   5.709   0.125   4.520  0.4292 -0.1340  0.7313
 8788TIP3    H126328   5.797   0.141   4.485  1.0944 -1.4663  1.7175
 8788TIP3    H226329   5.665   0.076   4.451  0.9406 -0.6686  0.7689
 8789TIP3   OH226330   5.688   0.788   1.501 -0.7723 -0.3143  0.6583
 8789TIP3    H126331   5.774   0.818   1.471 -0.5106  0.0601  1.7307
 8789TIP3    H226332   5.685   0.695   1.478 -0.0462 -0.3471  0.6976
 8790TIP3   OH226333   2.897   4.866   4.725 -0.0922 -0.1198 -0.4887
 8790TIP3    H126334   2.854   4.920   4.791 -0.7397 -1.2694  0.0577
 8790TIP3    H226335   2.885   4.913   4.643 -2.0652 -0.1936 -0.2923
 8791TIP3   OH226336   3.162   5.139   4.863  0.1563 -0.1200  0.4245
 8791TIP3    H126337   3.139   5.060   4.913  0.4985 -0.2046  0.4507
 8791TIP3    H226338   3.203   5.197   4.927  0.1210 -0.0165  0.3530
 8792TIP3   OH226339   0.303   6.752   1.098  0.2762  0.6569 -0.2604
 8792TIP3    H126340   0.358   6.711   1.031 -0.1006 -0.0731 -0.1378
 8792TIP3    H226341   0.361   6.763   1.173 -0.0221 -1.2869  0.3157
 8793TIP3   OH226342   4.920   5.599   0.606 -0.0087 -0.2048  0.5826
 8793TIP3    H126343   4.848   5.544   0.636  0.4748 -1.6402 -0.7593
 8793TIP3    H226344   4.892   5.632   0.521  0.5772 -0.1211  0.4127
 8794TIP3   OH226345   3.087   2.042   1.515 -0.1699  0.5374 -0.7315
 8794TIP3    H126346   3.034   2.088   1.580 -1.1039  1.0207 -1.7927
 8794TIP3    H226347   3.114   1.961   1.558 -1.2080  0.6017  0.0750
 8795TIP3   OH226348   1.682   3.650   5.279 -0.1944  0.2054 -0.1023
 8795TIP3    H126349   1.609   3.703   5.250 -1.0079 -0.9707 -0.2886
 8795TIP3    H226350   1.759   3.705   5.267 -0.6277  0.2692 -3.2749
 8796TIP3   OH226351   4.516   0.791   4.289  0.1862 -0.2103  0.0839
 8796TIP3    H126352   4.602   0.758   4.263  0.8920  0.5681  1.3409
 8796TIP3    H226353   4.501   0.752   4.375  0.0508  0.9930  0.6186
 8797TIP3   OH226354   3.555   1.673   2.784 -0.2815  0.4355 -0.0570
 8797TIP3    H126355   3.474   1.713   2.816  0.0970  1.5562 -0.4777
 8797TIP3    H226356   3.625   1.719   2.829  0.1382 -1.0026  0.8406
 8798TIP3   OH226357   1.827   1.760   3.206 -0.0899  0.6197  0.0309
 8798TIP3    H126358   1.779   1.834   3.244  0.5718  0.6765  0.7758
 8798TIP3    H226359   1.801   1.685   3.259 -1.3596  0.1336 -1.1974
 8799TIP3   OH226360   2.243   3.620   3.666 -0.1112 -0.1687  0.5949
 8799TIP3    H126361   2.294   3.543   3.690  1.0806  1.0289  2.1622
 8799TIP3    H226362   2.292   3.660   3.594  0.8337  0.5736  1.6067
 8800TIP3   OH226363   1.958   3.849   1.830  0.1925 -0.7730  0.1255
 8800TIP3    H126364   1.955   3.764   1.786  0.7866 -0.7263 -0.0080
 8800TIP3    H226365   2.013   3.903   1.774 -0.4328 -0.2039  0.0504
 8801TIP3   OH226366   5.124   5.313   4.763  0.2411 -0.4912  0.2489
 8801TIP3    H126367   5.168   5.229   4.754  0.2049 -0.7165  1.8662
 8801TIP3    H226368   5.136   5.337   4.854 -0.4500  0.8764  0.0107
 8802TIP3   OH226369   3.560   0.394   5.499 -0.4036 -0.1429  0.3518
 8802TIP3    H126370   3.604   0.309   5.495  0.1144  0.0999  0.6746
 8802TIP3    H226371   3.547   0.409   5.593 -0.4021  0.1761  0.3015
 8803TIP3   OH226372   0.565   2.218   3.660  0.3906 -0.4388 -0.2435
 8803TIP3    H126373   0.658   2.198   3.673  0.0397 -0.5901  2.9779
 8803TIP3    H226374   0.554   2.305   3.697 -0.9011 -0.8263  0.3397
 8804TIP3   OH226375   6.171   5.464   5.180  0.3832  0.0724 -0.1106
 8804TIP3    H126376   6.244   5.464   5.243 -1.1340  0.4749  1.7299
 8804TIP3    H226377   6.170   5.553   5.145  0.7264  0.0920 -0.0755
 8805TIP3   OH226378   6.516   6.091   4.326  0.1759  0.6448 -0.0938
 8805TIP3    H126379   6.557   6.015   4.283  1.4848  1.2563  0.0172
 8805TIP3    H226380   6.521   6.071   4.419 -0.3223  0.4616 -0.1050
 8806TIP3   OH226381   0.870   3.508   1.207 -0.8376  0.1426 -0.0655
 8806TIP3    H126382   0.782   3.507   1.168 -0.5878 -0.4996 -0.6344
 8806TIP3    H226383   0.926   3.468   1.140 -0.2993 -0.4383  0.7192
 8807TIP3   OH226384   5.975   0.723   0.936  0.0064 -0.0683  0.1214
 8807TIP3    H126385   5.997   0.630   0.938 -0.0547 -0.0716  1.3377
 8807TIP3    H226386   6.041   0.765   0.990 -0.6112  0.4479  0.4898
 8808TIP3   OH226387   6.763   4.969   5.056 -0.1688 -0.4012 -0.5531
 8808TIP3    H126388   6.732   4.923   5.134 -1.3803 -0.8989 -1.2933
 8808TIP3    H226389   6.843   5.013   5.084 -0.2902 -1.0034  0.8211
 8809TIP3   OH226390   6.386   4.903   1.046  0.0202 -0.0028 -0.2123
 8809TIP3    H126391   6.454   4.942   0.991 -1.0548  0.0409 -1.5548
 8809TIP3    H226392   6.434   4.847   1.106  1.3494  1.0172 -0.2581
 8810TIP3   OH226393   3.979   5.448   4.314 -0.0792  0.4365  0.0748
 8810TIP3    H126394   4.012   5.534   4.339  0.2810 -0.3625  2.6994
 8810TIP3    H226395   4.053   5.389   4.327 -0.9723 -0.5974  0.6295
 8811TIP3   OH226396   5.627   3.897   5.673  0.1013  0.2293 -0.2941
 8811TIP3    H126397   5.599   3.901   5.764 -0.9092  1.3011 -0.6281
 8811TIP3    H226398   5.575   3.825   5.635  0.2438  0.0326 -0.1159
 8812TIP3   OH226399   3.950   2.368   1.095 -0.1495 -0.5349  0.0789
 8812TIP3    H126400   3.913   2.283   1.115 -1.5542 -0.0613 -0.4321
 8812TIP3    H226401   3.890   2.407   1.032 -0.6120  1.6230  1.7376
 8813TIP3   OH226402   5.047   1.811   1.276 -0.2682  0.2245  0.7027
 8813TIP3    H126403   5.022   1.723   1.303 -0.9191  0.0583 -0.3671
 8813TIP3    H226404   5.134   1.824   1.312  0.9164 -1.8370 -1.1809
 8814TIP3   OH226405   1.933   1.451   2.142  0.0969  0.6879  0.2619
 8814TIP3    H126406   1.912   1.359   2.126 -0.7407  0.8726  0.2588
 8814TIP3    H226407   1.876   1.500   2.082 -0.0910  1.2416  0.8818
 8815TIP3   OH226408   1.425   6.755   5.184 -0.4816 -0.3718  0.0576
 8815TIP3    H126409   1.373   6.686   5.225 -1.7888  0.3871 -0.2814
 8815TIP3    H226410   1.427   6.825   5.249  1.1331 -0.8135  0.5434
 8816TIP3   OH226411   4.691   3.177   3.649 -0.0812 -0.1660 -0.1560
 8816TIP3    H126412   4.778   3.203   3.621 -0.2474 -0.0579 -0.5843
 8816TIP3    H226413   4.632   3.242   3.610 -0.4611 -0.9507 -0.9408
 8817TIP3   OH226414   4.046   2.305   3.171  0.3786 -0.2472  0.0342
 8817TIP3    H126415   4.047   2.399   3.190  0.1029 -0.3105  0.3840
 8817TIP3    H226416   3.954   2.285   3.154 -0.0178 -0.9366  2.5753
 8818TIP3   OH226417   7.034   2.519   0.520  0.4465 -0.3517  0.3077
 8818TIP3    H126418   7.003   2.609   0.510 -1.5413 -0.6793  2.6446
 8818TIP3    H226419   7.129   2.525   0.516  0.3108  1.5600 -1.3672
 8819TIP3   OH226420   0.259   0.250   0.031 -0.1169  0.0864  0.2338
 8819TIP3    H126421   0.252   0.338   0.068  0.7398 -0.3051  1.3789
 8819TIP3    H226422   0.276   0.265  -0.062  2.0210  1.2016  0.7391
 8820TIP3   OH226423   2.009   5.024   0.101  0.3234  0.0167  0.3956
 8820TIP3    H126424   2.096   4.998   0.132 -0.0921 -0.7673  0.9301
 8820TIP3    H226425   1.948   4.975   0.156 -0.4617  0.4354 -0.0826
 8821TIP3   OH226426   3.170   5.082   3.229  0.0786 -0.1395  0.0471
 8821TIP3    H126427   3.127   5.167   3.234  0.4008  0.0408 -0.1578
 8821TIP3    H226428   3.158   5.055   3.138  0.0600 -0.2694  0.0878
 8822TIP3   OH226429   3.847   0.519   5.513 -0.0265  0.1849  0.5951
 8822TIP3    H126430   3.892   0.458   5.571  2.3886 -0.8538 -2.1558
 8822TIP3    H226431   3.769   0.472   5.484  0.1820 -0.3369  0.8704
 8823TIP3   OH226432   1.011   0.618   5.088  0.2869 -0.6627  0.2888
 8823TIP3    H126433   1.018   0.710   5.061  0.1988 -0.7113  0.0933
 8823TIP3    H226434   0.922   0.610   5.122  0.3108 -0.6634  0.3497
 8824TIP3   OH226435   5.441   0.967   2.727  0.1438  0.1147 -0.5944
 8824TIP3    H126436   5.375   0.995   2.790  2.6615  0.5641  2.0282
 8824TIP3    H226437   5.404   0.887   2.688 -1.8691  0.2826  0.8141
 8825TIP3   OH226438   1.431   0.234   5.731  0.5258  0.0188  0.4437
 8825TIP3    H126439   1.340   0.229   5.700  0.8510 -1.1263 -0.3528
 8825TIP3    H226440   1.435   0.174   5.805  1.3811 -2.4603 -1.4946
 8826TIP3   OH226441   3.271   3.906   2.356  0.0439  0.5638  0.1056
 8826TIP3    H126442   3.218   3.866   2.426 -0.5162 -0.1723 -0.7226
 8826TIP3    H226443   3.283   3.837   2.292  0.7421  1.1701 -0.4359
 8827TIP3   OH226444   1.327   2.351   0.995 -0.0337  0.6613  0.1962
 8827TIP3    H126445   1.409   2.302   0.984 -0.8256 -0.0595 -4.4504
 8827TIP3    H226446   1.270   2.291   1.043  1.3252  0.2521  1.4154
 8828TIP3   OH226447   5.626   2.457   2.064  0.5122  0.0106  0.5425
 8828TIP3    H126448   5.548   2.437   2.115  0.7740  0.5408  1.1555
 8828TIP3    H226449   5.680   2.378   2.071  0.2843 -0.1440  0.5758
 8829TIP3   OH226450   1.013   6.628   3.183  0.0000  0.4067 -0.2801
 8829TIP3    H126451   1.024   6.586   3.097  1.3726  0.0802  0.0284
 8829TIP3    H226452   1.082   6.694   3.187 -0.3345  0.7251  0.3951
 8830TIP3   OH226453   3.939   6.131   0.780  0.1772  0.0111 -0.2062
 8830TIP3    H126454   3.953   6.108   0.872 -0.6984 -0.4458 -0.1784
 8830TIP3    H226455   4.016   6.097   0.735  0.9555  0.8468  0.4450
 8831TIP3   OH226456   0.325   4.938   5.803  0.3485  0.1112  0.1591
 8831TIP3    H126457   0.382   4.875   5.847 -0.5411 -0.3175  0.7189
 8831TIP3    H226458   0.305   4.898   5.719  3.8935  1.9105 -1.7757
 8832TIP3   OH226459   0.658   6.642   2.678 -0.1924  0.4396 -0.0625
 8832TIP3    H126460   0.639   6.610   2.766  2.4659 -0.8856  0.1287
 8832TIP3    H226461   0.654   6.564   2.622  1.2140  0.6569 -0.5178
 8833TIP3   OH226462   7.048   4.374   1.837  0.0957  0.3826 -0.0818
 8833TIP3    H126463   6.960   4.371   1.876  0.7721 -1.6067  1.4669
 8833TIP3    H226464   7.107   4.364   1.912  1.5468 -1.0170 -1.3444
 8834TIP3   OH226465   1.831   5.571   5.724  0.3563 -0.3124 -0.2965
 8834TIP3    H126466   1.870   5.486   5.743  0.1683 -0.6278 -1.2352
 8834TIP3    H226467   1.879   5.633   5.779 -1.1512 -1.3009  2.2824
 8835TIP3   OH226468   4.269   1.436   1.560 -0.4789 -0.1235  0.5888
 8835TIP3    H126469   4.210   1.374   1.516 -1.8452 -0.2033  2.4459
 8835TIP3    H226470   4.240   1.522   1.529  0.5696 -0.2745 -0.9661
 8836TIP3   OH226471   4.332   5.741   3.189 -0.0320 -0.1419  0.4353
 8836TIP3    H126472   4.303   5.702   3.272 -1.1985 -0.0823  0.0784
 8836TIP3    H226473   4.263   5.803   3.166  0.2914 -0.1296 -0.5640
 8837TIP3   OH226474   1.576   0.139   3.092  0.4685  0.2400 -0.4538
 8837TIP3    H126475   1.577   0.169   3.001 -3.7007  0.0898 -0.7448
 8837TIP3    H226476   1.541   0.212   3.142  2.3524  0.1947  1.0754
 8838TIP3   OH226477   0.099   5.068   1.877 -0.1830  0.0935 -0.2338
 8838TIP3    H126478   0.163   5.001   1.901  2.4481  2.4853 -0.0686
 8838TIP3    H226479   0.097   5.067   1.782  0.5825  0.3627 -0.2614
 8839TIP3   OH226480   4.850   0.086   0.921 -0.3942 -0.4805  0.2460
 8839TIP3    H126481   4.944   0.093   0.935 -0.4062  2.3607 -0.5227
 8839TIP3    H226482   4.815   0.170   0.952 -2.2067 -0.0745 -2.5383
 8840TIP3   OH226483   0.906   3.650   4.289  0.4284  0.3858 -0.1450
 8840TIP3    H126484   0.841   3.610   4.347  0.4728  1.3054  0.5566
 8840TIP3    H226485   0.976   3.585   4.283  0.2693  0.1427  0.5669
 8841TIP3   OH226486   3.841   3.101   2.301  0.1178 -0.4826  0.0658
 8841TIP3    H126487   3.792   3.031   2.258  0.8206 -1.0391  0.1454
 8841TIP3    H226488   3.901   3.055   2.360  0.8441  0.1672 -0.1550
 8842TIP3   OH226489   2.637   5.931   4.485  0.0514 -0.0048  0.2885
 8842TIP3    H126490   2.549   5.967   4.495 -1.0448 -1.7898 -1.9202
 8842TIP3    H226491   2.672   5.974   4.407 -0.4736 -2.0404 -1.1512
 8843TIP3   OH226492   6.237   2.386   4.905  0.1158  0.2467  0.4170
 8843TIP3    H126493   6.163   2.438   4.936 -0.8821 -0.6811 -0.3250
 8843TIP3    H226494   6.270   2.433   4.829 -0.0998  0.3516  0.3879
 8844TIP3   OH226495   0.664   3.581   3.169 -0.7291 -0.3476  0.2945
 8844TIP3    H126496   0.664   3.502   3.115 -1.0334  0.6092 -1.1333
 8844TIP3    H226497   0.580   3.623   3.151 -1.2160 -0.3987  2.1557
 8845TIP3   OH226498   6.908   2.490   1.320 -0.2227  0.1332 -0.5339
 8845TIP3    H126499   6.967   2.525   1.254  1.9738 -3.2190 -0.5659
 8845TIP3    H226500   6.949   2.513   1.403  0.2889 -0.7831 -0.5209
 8846TIP3   OH226501   4.257   0.409   3.175  0.1817  1.0077  0.0917
 8846TIP3    H126502   4.290   0.477   3.233  1.2028  1.0770 -0.5332
 8846TIP3    H226503   4.210   0.349   3.232 -0.2640  1.9426  0.7321
 8847TIP3   OH226504   3.861   6.079  -0.024 -0.1161 -0.0830 -0.0423
 8847TIP3    H126505   3.881   5.990   0.005  0.6353  0.2717  0.5967
 8847TIP3    H226506   3.928   6.133   0.019 -1.4233  0.9641  0.7455
 8848TIP3   OH226507   0.409   0.392   0.357  0.1746 -0.2002  0.8501
 8848TIP3    H126508   0.502   0.376   0.345  0.0210 -0.2444 -0.3953
 8848TIP3    H226509   0.403   0.433   0.443  1.1311 -1.9159  1.8066
 8849TIP3   OH226510   5.980   0.183   2.493  0.2318  0.0996  0.6404
 8849TIP3    H126511   6.044   0.211   2.427  0.1253  0.1145  0.5448
 8849TIP3    H226512   6.010   0.226   2.574  0.2769  0.1980  0.5717
 8850TIP3   OH226513   1.966   5.343   5.695 -0.0573 -0.3415 -0.1274
 8850TIP3    H126514   2.031   5.277   5.719 -2.1967 -1.4430  3.3785
 8850TIP3    H226515   1.917   5.303   5.623 -0.5885 -2.1895  1.1812
 8851TIP3   OH226516   5.926   3.194   4.186  0.2379 -0.3475  0.9601
 8851TIP3    H126517   6.011   3.176   4.147 -0.2088  0.2689 -0.3599
 8851TIP3    H226518   5.920   3.133   4.260  1.2665 -1.3318  0.2657
 8852TIP3   OH226519   6.329   2.749   5.509 -0.0151 -0.6039  0.5173
 8852TIP3    H126520   6.284   2.718   5.587  1.1304  0.0280  1.4654
 8852TIP3    H226521   6.322   2.844   5.513  1.8713 -0.4425  1.0265
 8853TIP3   OH226522   1.312   6.102   0.367 -0.1507  0.3415 -0.5343
 8853TIP3    H126523   1.224   6.132   0.391 -1.0866 -1.8166 -1.0856
 8853TIP3    H226524   1.330   6.143   0.282  0.5901  2.9864  0.7854
 8854TIP3   OH226525   5.344   0.228   2.418 -0.3801  0.2583 -0.8661
 8854TIP3    H126526   5.281   0.156   2.409 -0.9228  0.8895 -2.5560
 8854TIP3    H226527   5.421   0.197   2.371  0.8050 -0.6655  1.5078
 8855TIP3   OH226528   5.932   5.545   5.626 -0.3825 -0.1568  0.3784
 8855TIP3    H126529   5.853   5.530   5.575 -1.5809  1.8342  1.5039
 8855TIP3    H226530   5.913   5.507   5.712 -0.1045  0.3121  0.6538
 8856TIP3   OH226531   7.084   3.807   5.903 -0.0596 -0.0080  0.1745
 8856TIP3    H126532   7.011   3.813   5.842  0.3848  1.1083 -0.2800
 8856TIP3    H226533   7.151   3.864   5.866  1.1649 -1.2434  0.4277
 8857TIP3   OH226534   4.347   0.283   1.998  0.0332  0.2204 -0.0605
 8857TIP3    H126535   4.435   0.252   1.980 -0.3056 -1.7019  1.2533
 8857TIP3    H226536   4.323   0.242   2.081 -1.7629  1.4361  0.1020
 8858TIP3   OH226537   2.494   3.603   1.496 -1.0212  0.0540  0.2587
 8858TIP3    H126538   2.562   3.587   1.562 -0.5292  0.0490 -0.2455
 8858TIP3    H226539   2.529   3.566   1.416 -0.9433  1.4370 -0.3689
 8859TIP3   OH226540   6.195   4.385   0.724  0.1402  0.1605 -0.1912
 8859TIP3    H126541   6.233   4.299   0.741 -0.8849 -0.4045 -0.6064
 8859TIP3    H226542   6.135   4.400   0.797 -0.9942 -0.3013 -0.9815
 8860TIP3   OH226543   1.977   3.189   5.062  0.1520  0.2715  0.1992
 8860TIP3    H126544   1.913   3.213   5.128  1.0401  0.7679  0.8944
 8860TIP3    H226545   2.050   3.151   5.111  0.5962  0.1466 -0.5371
 8861TIP3   OH226546   5.274   5.775   1.120  0.1290  0.1515  0.0397
 8861TIP3    H126547   5.306   5.864   1.107 -0.6955  0.5226  0.4953
 8861TIP3    H226548   5.257   5.769   1.213 -0.5588 -0.2363 -0.1079
 8862TIP3   OH226549   0.041   1.421   4.508  0.0098  0.5652  0.2676
 8862TIP3    H126550   0.103   1.393   4.440 -0.2486  1.6913 -0.4547
 8862TIP3    H226551  -0.043   1.384   4.481 -0.0943  1.0186 -0.0309
 8863TIP3   OH226552   1.922   2.625   3.547  0.0866 -0.2594 -0.0024
 8863TIP3    H126553   1.904   2.715   3.518  1.5665 -0.1291 -0.5853
 8863TIP3    H226554   1.942   2.634   3.640 -2.8831 -0.4427  0.7474
 8864TIP3   OH226555   0.927   3.888   0.819 -0.2069  0.0170 -0.2637
 8864TIP3    H126556   0.893   3.856   0.902  1.0921 -0.2345  0.1931
 8864TIP3    H226557   0.947   3.980   0.834  0.5070 -0.1493 -0.1151
 8865TIP3   OH226558   5.272   4.060   2.626  0.7082  0.1185 -0.3947
 8865TIP3    H126559   5.204   4.022   2.571 -0.0928 -0.7153  1.1216
 8865TIP3    H226560   5.351   4.056   2.573 -0.4016  1.1724 -2.2265
 8866TIP3   OH226561   1.540   1.155   2.021 -0.6544 -0.2619  0.0863
 8866TIP3    H126562   1.533   1.244   2.055 -0.1387 -1.2871  3.2077
 8866TIP3    H226563   1.472   1.106   2.068  0.2782 -1.8591 -0.1589
 8867TIP3   OH226564   1.644   6.427   3.350  0.1695 -0.2412 -0.3215
 8867TIP3    H126565   1.588   6.503   3.370  2.1980  0.8126  1.8351
 8867TIP3    H226566   1.596   6.352   3.387 -1.6062 -0.0186 -2.0063
 8868TIP3   OH226567   7.064   4.132   2.248  0.5313 -0.2240 -0.1213
 8868TIP3    H126568   6.992   4.108   2.307 -0.4436  0.7801 -0.8462
 8868TIP3    H226569   7.135   4.072   2.271 -0.0492 -0.3252  1.5797
 8869TIP3   OH226570   1.846   2.060   3.901 -0.1913  0.1656 -0.1759
 8869TIP3    H126571   1.828   2.114   3.978 -1.6708 -0.6882  0.1130
 8869TIP3    H226572   1.759   2.043   3.863  0.2188 -1.9668 -0.2640
 8870TIP3   OH226573   1.215   5.454   2.994 -0.1435  0.5158  0.3265
 8870TIP3    H126574   1.155   5.495   3.057 -0.6801  1.3264 -0.6824
 8870TIP3    H226575   1.158   5.425   2.923  0.3803 -0.9571  0.4877
 8871TIP3   OH226576   6.952   1.894   0.683  0.1374  0.3354 -0.8665
 8871TIP3    H126577   6.950   1.810   0.729  1.3551 -0.2497 -1.7869
 8871TIP3    H226578   7.038   1.931   0.705 -1.1036  2.2907  1.0514
 8872TIP3   OH226579   5.937   3.841   5.376 -0.1197  0.6818 -0.8761
 8872TIP3    H126580   5.929   3.924   5.328  0.5576  1.0435 -0.3825
 8872TIP3    H226581   5.948   3.775   5.308  1.2432  1.2399 -1.2276
 8873TIP3   OH226582   2.322   5.034   2.086  0.2848 -0.9796 -0.3491
 8873TIP3    H126583   2.343   4.944   2.060 -2.0242 -1.2920 -1.4238
 8873TIP3    H226584   2.387   5.056   2.152 -0.2331 -4.1819  1.4148
 8874TIP3   OH226585   4.636   6.166   5.120 -0.1144 -0.0992  0.2745
 8874TIP3    H126586   4.625   6.170   5.215  0.2764 -1.0260  0.3627
 8874TIP3    H226587   4.608   6.078   5.096  2.6703 -0.9545 -0.0742
 8875TIP3   OH226588   5.753   3.900   2.550 -0.4989  0.1559 -0.2306
 8875TIP3    H126589   5.784   3.924   2.463  2.2340 -0.0501  0.5733
 8875TIP3    H226590   5.769   3.806   2.557 -2.6398 -0.2475 -0.1852
 8876TIP3   OH226591   2.379   2.881   2.082 -0.4697  0.4523 -0.5132
 8876TIP3    H126592   2.447   2.818   2.056 -0.3391  0.3139  0.1406
 8876TIP3    H226593   2.359   2.858   2.173 -2.8043 -0.7623 -1.2545
 8877TIP3   OH226594   3.963   3.046   5.757  0.0512  0.1481 -0.0965
 8877TIP3    H126595   3.992   3.064   5.668  1.1564 -2.7402 -0.4233
 8877TIP3    H226596   3.879   3.001   5.746 -0.0009  0.1281  0.3638
 8878TIP3   OH226597   4.592   5.641   0.058 -0.3511 -0.0943  0.0498
 8878TIP3    H126598   4.537   5.673   0.129 -1.1422  1.8120 -1.3263
 8878TIP3    H226599   4.586   5.709  -0.010 -0.1464 -2.0835 -2.1188
 8879TIP3   OH226600   4.382   6.445   2.273  0.0487 -0.3380 -0.4337
 8879TIP3    H126601   4.445   6.384   2.312  1.4037  1.5227  0.4736
 8879TIP3    H226602   4.426   6.477   2.195  0.2936  0.9828  0.2092
 8880TIP3   OH226603   6.894   0.278   2.085 -0.1496  0.2567  0.1764
 8880TIP3    H126604   6.912   0.329   2.165 -0.9060 -0.9155  1.1177
 8880TIP3    H226605   6.879   0.189   2.116  2.6825 -0.9842 -1.5457
 8881TIP3   OH226606   6.927   1.106   3.304 -0.0400  0.1681 -0.1762
 8881TIP3    H126607   6.956   1.034   3.361 -0.7237  0.4451  0.5446
 8881TIP3    H226608   7.001   1.166   3.302  0.0893  0.0258  0.2197
 8882TIP3   OH226609   5.795   3.929   1.552 -0.1044 -0.1170  0.1350
 8882TIP3    H126610   5.707   3.965   1.563  0.6764  1.6842  0.7051
 8882TIP3    H226611   5.825   3.964   1.468  0.0263 -0.8523 -0.1335
 8883TIP3   OH226612   3.250   5.322   2.156 -0.0041 -0.2906 -0.1465
 8883TIP3    H126613   3.297   5.243   2.132  2.3045  0.9540 -0.0385
 8883TIP3    H226614   3.231   5.313   2.250  0.6965 -0.5082 -0.0245
 8884TIP3   OH226615   1.165   0.137   0.123 -0.4073  0.2721  0.7835
 8884TIP3    H126616   1.242   0.082   0.110  1.0151  2.0449  1.2456
 8884TIP3    H226617   1.111   0.121   0.046  0.4257 -1.0019  0.4304
 8885TIP3   OH226618   6.722   1.301   2.248  0.6481 -0.1782 -0.7033
 8885TIP3    H126619   6.677   1.287   2.331 -0.5201 -0.0705 -1.3007
 8885TIP3    H226620   6.814   1.285   2.268  0.1478 -2.4960  0.0764
 8886TIP3   OH226621   2.077   1.334   5.080  0.3436 -0.1656  0.3494
 8886TIP3    H126622   2.103   1.384   5.003  0.5544 -1.3708 -0.3891
 8886TIP3    H226623   1.996   1.375   5.109  0.0169  0.0286 -0.7928
 8887TIP3   OH226624   0.939   0.404   0.426 -0.0091  0.3275  0.1718
 8887TIP3    H126625   0.990   0.424   0.348  0.1132  0.5772  0.3134
 8887TIP3    H226626   0.995   0.345   0.477 -0.2677 -0.1806 -0.1307
 8888TIP3   OH226627   5.820   1.251   3.954 -0.3860  0.3704 -0.2250
 8888TIP3    H126628   5.899   1.295   3.985 -1.2638  1.6457  0.2828
 8888TIP3    H226629   5.840   1.227   3.863  1.5075 -1.6948  0.6399
 8889TIP3   OH226630   6.462   3.693   5.597 -0.1090  0.5453  0.2987
 8889TIP3    H126631   6.482   3.603   5.569  1.5000  0.9312  0.1144
 8889TIP3    H226632   6.414   3.731   5.523 -2.6492 -0.7288  1.1684
 8890TIP3   OH226633   2.626   3.371   5.769 -0.4152 -0.6933  0.3007
 8890TIP3    H126634   2.696   3.314   5.737 -0.3737 -0.4222 -0.0993
 8890TIP3    H226635   2.671   3.442   5.814 -0.4643 -0.9274  0.7268
 8891TIP3   OH226636   1.217   5.107   3.773  0.5816 -0.1085 -0.2235
 8891TIP3    H126637   1.233   5.096   3.680 -0.0824  0.2226 -0.3803
 8891TIP3    H226638   1.290   5.061   3.816  0.7344 -0.4992 -0.8960
 8892TIP3   OH226639   3.746   6.499   1.212  0.0833  0.2231 -0.0914
 8892TIP3    H126640   3.702   6.581   1.235 -1.8301 -0.9533  0.6587
 8892TIP3    H226641   3.839   6.522   1.208 -0.0396  1.8241  3.0825
 8893TIP3   OH226642   1.802   1.921   4.476  0.2850 -0.7382  0.4194
 8893TIP3    H126643   1.864   1.962   4.416 -0.5238 -1.1380 -0.7183
 8893TIP3    H226644   1.738   1.991   4.494  0.5718 -0.5939  0.8894
 8894TIP3   OH226645   1.503   2.249   2.208 -0.6217 -0.5152  0.0047
 8894TIP3    H126646   1.572   2.232   2.144  1.0533  1.0957  1.2826
 8894TIP3    H226647   1.446   2.313   2.165  0.6818  0.8141  0.1873
 8895TIP3   OH226648   2.957   5.446   4.022  0.0457  0.4926  0.0055
 8895TIP3    H126649   2.918   5.396   4.094  1.2560  1.3874  1.3250
 8895TIP3    H226650   2.887   5.452   3.957 -1.2483  0.0706  1.3067
 8896TIP3   OH226651   4.862   0.017   2.940 -0.0474  0.2527  0.9595
 8896TIP3    H126652   4.832   0.054   3.023 -3.5488 -0.7354  0.3068
 8896TIP3    H226653   4.841   0.084   2.875  0.0223 -0.1149  0.5547
 8897TIP3   OH226654   5.921   1.545   3.222  0.0128 -0.1686 -0.3050
 8897TIP3    H126655   5.970   1.535   3.141  1.3734  1.1023  0.3208
 8897TIP3    H226656   5.972   1.498   3.287 -1.3980 -1.7244 -0.2481
 8898TIP3   OH226657   3.405   5.712   2.008  0.1500 -0.3509 -0.2505
 8898TIP3    H126658   3.453   5.726   1.927 -0.5273 -1.8424 -0.9654
 8898TIP3    H226659   3.468   5.669   2.066 -0.1614 -2.0705 -1.0957
 8899TIP3   OH226660   6.603   4.593   1.274  0.5282 -0.7910 -0.1272
 8899TIP3    H126661   6.573   4.564   1.361  0.8164 -0.0029  0.2412
 8899TIP3    H226662   6.565   4.529   1.214  1.3280 -2.0670  0.6817
 8900TIP3   OH226663   4.719   5.324   2.520  0.1180 -0.1932  0.1823
 8900TIP3    H126664   4.711   5.329   2.615 -0.2714 -0.9091  0.1915
 8900TIP3    H226665   4.800   5.276   2.505 -0.3040 -0.9149  0.1673
 8901TIP3   OH226666   5.159   4.953   1.540 -0.6407  0.4456  0.2112
 8901TIP3    H126667   5.252   4.935   1.522 -0.9553 -1.2667  0.0906
 8901TIP3    H226668   5.160   5.020   1.608  0.7232 -0.5506  1.2249
 8902TIP3   OH226669   3.405   1.064   3.258  0.1369 -0.7889 -0.4074
 8902TIP3    H126670   3.447   1.111   3.186 -0.4767 -0.4920 -0.5750
 8902TIP3    H226671   3.312   1.065   3.237 -0.8311  3.5299  2.6352
 8903TIP3   OH226672   4.102   4.826   3.653  0.3624  0.5079 -0.0104
 8903TIP3    H126673   4.018   4.864   3.679 -0.3031  0.7645 -2.2870
 8903TIP3    H226674   4.123   4.765   3.723 -2.3505 -0.4710  0.0831
 8904TIP3   OH226675   4.273   3.651   2.615 -0.6680 -0.5234 -0.3325
 8904TIP3    H126676   4.321   3.715   2.668 -0.2216 -1.3397  0.2698
 8904TIP3    H226677   4.236   3.702   2.543 -1.6559  0.7040  0.9938
 8905TIP3   OH226678   6.280   6.101   5.415  0.2042 -0.0366  0.0317
 8905TIP3    H126679   6.297   6.152   5.494  0.9885 -0.1858 -0.0347
 8905TIP3    H226680   6.216   6.152   5.366  0.0904  0.2970  0.5272
 8906TIP3   OH226681   1.348   2.672   4.704  0.8089 -0.0948 -0.4835
 8906TIP3    H126682   1.300   2.706   4.628  0.6490  0.1522 -0.2728
 8906TIP3    H226683   1.286   2.615   4.749  0.2722  1.2165  0.4992
 8907TIP3   OH226684   6.217   3.661   4.715 -0.1465 -0.8653  0.3507
 8907TIP3    H126685   6.155   3.690   4.648 -1.3392  1.9200  2.4542
 8907TIP3    H226686   6.298   3.707   4.694  0.2300 -1.8222 -0.4180
 8908TIP3   OH226687   6.078   1.504   2.975  0.2181 -0.6297 -0.5986
 8908TIP3    H126688   6.155   1.521   3.029  0.0169  1.0764 -0.7990
 8908TIP3    H226689   6.113   1.489   2.887  0.3286  0.5870 -0.7812
 8909TIP3   OH226690   3.414   5.859   0.214 -0.4380 -0.0120  0.1241
 8909TIP3    H126691   3.388   5.855   0.122 -0.5128 -0.8930  0.1792
 8909TIP3    H226692   3.331   5.868   0.261 -0.3080  2.7341  0.0224
 8910TIP3   OH226693   4.400   4.361   4.835 -0.8035  0.4943  0.0920
 8910TIP3    H126694   4.423   4.452   4.851  0.9662 -0.1364  1.5815
 8910TIP3    H226695   4.338   4.339   4.905 -0.4508  0.2947  0.3448
 8911TIP3   OH226696   3.010   6.199   4.423 -0.6298  0.0843 -0.0078
 8911TIP3    H126697   2.990   6.284   4.384 -0.4963 -0.4193 -1.2366
 8911TIP3    H226698   2.971   6.135   4.362  2.6546 -0.8701 -1.3379
 8912TIP3   OH226699   4.319   3.210   4.282  0.1798  0.3006 -0.1361
 8912TIP3    H126700   4.284   3.279   4.338  0.0572 -0.3726  0.6455
 8912TIP3    H226701   4.363   3.150   4.343  2.6201  1.0324 -1.0224
 8913TIP3   OH226702   2.259   2.670   1.307 -0.2292  0.3226 -0.5629
 8913TIP3    H126703   2.202   2.618   1.250 -0.6588  0.1072  0.0526
 8913TIP3    H226704   2.304   2.604   1.360 -1.7956  0.6112  1.1905
 8914TIP3   OH226705   4.510   1.873   1.529 -0.3591 -0.8954 -0.4774
 8914TIP3    H126706   4.568   1.817   1.580 -0.9456  0.3306  1.6379
 8914TIP3    H226707   4.562   1.898   1.453  1.6615 -0.4263  0.9768
 8915TIP3   OH226708   5.223   3.946   2.994  0.3932 -0.4079 -0.1669
 8915TIP3    H126709   5.195   3.865   3.037 -0.0629 -2.1549 -3.4797
 8915TIP3    H226710   5.319   3.943   2.996  0.4066  0.0411  1.4407
 8916TIP3   OH226711   0.510   3.182   3.082  0.2393 -0.0502  0.4291
 8916TIP3    H126712   0.424   3.223   3.066  0.6753  0.5502 -0.4409
 8916TIP3    H226713   0.489   3.095   3.114 -0.7084  0.3440  0.9190
 8917TIP3   OH226714   0.055   1.210   3.754  0.4597 -0.0818  0.3233
 8917TIP3    H126715   0.014   1.235   3.837 -0.1430 -1.3957  0.4506
 8917TIP3    H226716  -0.010   1.154   3.712  0.0415  1.8680 -1.8387
 8918TIP3   OH226717   5.450   0.542   3.006 -0.3445  0.2371 -0.0515
 8918TIP3    H126718   5.357   0.519   2.995 -0.3719  0.4092 -0.1798
 8918TIP3    H226719   5.496   0.484   2.946 -0.1035 -1.8615  2.0181
 8919TIP3   OH226720   1.003   0.178   1.584 -0.2862  0.2483 -0.4546
 8919TIP3    H126721   1.054   0.251   1.549  0.2580 -0.0600 -0.3313
 8919TIP3    H226722   0.913   0.197   1.559 -0.2491  1.3039  0.1569
 8920TIP3   OH226723   1.688   5.064   0.770  0.1899  0.3192  0.2515
 8920TIP3    H126724   1.628   5.122   0.723 -0.9321 -1.2196 -0.3141
 8920TIP3    H226725   1.644   4.979   0.770  2.2019 -0.7879  0.1653
 8921TIP3   OH226726   0.092   5.503   4.306  0.1582 -0.0023  0.0437
 8921TIP3    H126727   0.095   5.559   4.229  0.5102  1.1115  0.8476
 8921TIP3    H226728   0.152   5.544   4.368  1.4481 -1.9805  0.1995
 8922TIP3   OH226729   2.604   2.849   3.215 -0.5565  0.2849  0.0781
 8922TIP3    H126730   2.566   2.819   3.298 -1.0239  1.9051  0.4891
 8922TIP3    H226731   2.699   2.840   3.229 -0.6338  0.4158  0.7383
 8923TIP3   OH226732   1.952   5.510   4.333  0.5986  0.0185  0.5484
 8923TIP3    H126733   1.990   5.595   4.355  1.2012 -0.0781 -0.0613
 8923TIP3    H226734   1.972   5.499   4.240  0.1586 -0.6033  0.5226
 8924TIP3   OH226735   6.962   4.799   2.772 -0.1681  0.0402  0.7452
 8924TIP3    H126736   6.887   4.748   2.740 -1.3950  1.2342  1.5789
 8924TIP3    H226737   6.953   4.883   2.728  0.9389  0.0604  0.5471
 8925TIP3   OH226738   4.064   2.680   2.221 -0.5116 -0.3577 -0.4208
 8925TIP3    H126739   4.076   2.735   2.298  0.1078  0.8510 -1.3500
 8925TIP3    H226740   4.153   2.663   2.189 -0.7103 -1.5953 -0.3825
 8926TIP3   OH226741   2.983   5.283   0.385 -0.6600  0.3996  0.8403
 8926TIP3    H126742   2.916   5.252   0.324 -1.2616 -0.1592  1.7606
 8926TIP3    H226743   3.059   5.228   0.367 -0.6360  0.6452  0.1826
 8927TIP3   OH226744   5.770   6.611   2.105  0.2397 -0.7843  0.2680
 8927TIP3    H126745   5.697   6.550   2.093 -0.1034  0.0827 -2.7921
 8927TIP3    H226746   5.805   6.624   2.017  0.5544  3.0872  0.7978
 8928TIP3   OH226747   5.367   3.181   3.642 -0.4629  0.8010  0.1310
 8928TIP3    H126748   5.342   3.241   3.712 -0.7807  0.9092 -0.0719
 8928TIP3    H226749   5.331   3.220   3.562 -1.2739  0.0084  0.0843
 8929TIP3   OH226750   7.061   1.195   5.399 -0.1559  0.7573 -0.3037
 8929TIP3    H126751   6.985   1.244   5.367 -0.2089  1.1610  0.4052
 8929TIP3    H226752   7.135   1.232   5.351 -0.0086  2.5021  1.1478
 8930TIP3   OH226753   4.697   2.363   1.823  0.1278  0.3886 -0.8383
 8930TIP3    H126754   4.729   2.275   1.807 -0.6320 -0.0726  0.0576
 8930TIP3    H226755   4.775   2.419   1.818  0.9536 -0.5783  0.4492
 8931TIP3   OH226756   6.620   5.517   1.550 -0.2173 -0.3621 -0.2909
 8931TIP3    H126757   6.664   5.461   1.485 -0.2829 -0.9821  0.1936
 8931TIP3    H226758   6.619   5.465   1.630 -1.0895 -0.0192 -0.0727
 8932TIP3   OH226759   2.803   5.568   3.436 -0.2142 -0.4757 -0.3006
 8932TIP3    H126760   2.873   5.624   3.402 -0.3271 -1.8614 -3.1678
 8932TIP3    H226761   2.849   5.497   3.481  0.1724 -0.5635 -0.8183
 8933TIP3   OH226762   5.906   1.100   4.390  0.2949  0.1486  0.2032
 8933TIP3    H126763   5.975   1.149   4.435  0.3113  2.2285 -1.8976
 8933TIP3    H226764   5.826   1.151   4.405 -0.1255 -0.3524 -0.2791
 8934TIP3   OH226765   1.031   1.772   3.996 -0.6816 -0.2142  0.1138
 8934TIP3    H126766   1.030   1.864   4.023 -1.3126  0.2006 -1.2057
 8934TIP3    H226767   0.944   1.740   4.019 -2.0618  0.7549 -3.1626
 8935TIP3   OH226768   6.472   1.732   2.347 -0.5715  0.2334 -0.0088
 8935TIP3    H126769   6.564   1.758   2.346 -0.4182 -0.2081  1.4389
 8935TIP3    H226770   6.472   1.646   2.388 -1.7212  0.5729  0.7257
 8936TIP3   OH226771   3.643   4.696   2.901  0.1009 -0.1912 -0.2343
 8936TIP3    H126772   3.647   4.781   2.857 -1.0555 -0.0824 -0.1808
 8936TIP3    H226773   3.641   4.717   2.994  3.7295 -0.4663  0.0327
 8937TIP3   OH226774   2.147   3.647   4.389  0.6718 -0.2109 -0.4634
 8937TIP3    H126775   2.122   3.653   4.297 -0.7638 -0.5070 -0.1191
 8937TIP3    H226776   2.101   3.718   4.432 -2.3072 -2.6177  0.7094
 8938TIP3   OH226777   3.018   3.950   1.914  0.6887 -0.1775 -0.4946
 8938TIP3    H126778   3.053   3.917   1.831  1.2817  0.5695 -0.5537
 8938TIP3    H226779   2.943   3.893   1.933  1.5403 -1.4150 -0.6978
 8939TIP3   OH226780   3.050   6.564   2.811  0.4485 -0.5286  0.1135
 8939TIP3    H126781   3.033   6.599   2.723  0.7798 -0.2825  0.1464
 8939TIP3    H226782   3.091   6.479   2.795 -0.4522 -0.9601  0.0330
 8940TIP3   OH226783   2.925   3.226   5.067  0.3012  0.1712 -0.3964
 8940TIP3    H126784   2.965   3.303   5.026 -0.4568  1.1649  0.6432
 8940TIP3    H226785   2.944   3.236   5.160 -1.2328  0.0137 -0.0354
 8941TIP3   OH226786   2.042   0.266   5.054 -0.3607 -0.0050 -0.0593
 8941TIP3    H126787   2.048   0.273   5.150 -0.4612  1.5175 -0.1363
 8941TIP3    H226788   2.077   0.179   5.034 -1.1542 -0.6990  1.4266
 8942TIP3   OH226789   2.197   0.074   0.738  0.5332 -0.3817  0.1025
 8942TIP3    H126790   2.190   0.092   0.644  1.9346  0.3352  0.1139
 8942TIP3    H226791   2.257   0.000   0.744 -0.0606 -0.8458  0.4141
 8943TIP3   OH226792   3.588   1.241   5.363 -0.3642  0.1313  0.4263
 8943TIP3    H126793   3.550   1.155   5.344  0.7694  0.0417 -1.8639
 8943TIP3    H226794   3.624   1.232   5.451  0.4465 -2.0499 -0.0441
 8944TIP3   OH226795   6.792   6.091   5.221 -0.5973  0.3817 -0.0730
 8944TIP3    H126796   6.761   6.176   5.251  0.5714  1.0674 -0.7422
 8944TIP3    H226797   6.802   6.040   5.302 -3.5000  0.0457  0.1782
 8945TIP3   OH226798   1.706   3.252   5.683 -0.0823 -0.1611  0.3145
 8945TIP3    H126799   1.749   3.270   5.767 -0.3509  0.1081  0.3974
 8945TIP3    H226800   1.740   3.321   5.625  0.5163 -0.6664  0.0520
 8946TIP3   OH226801   5.595   5.940   2.535  0.3585  0.1118 -0.5947
 8946TIP3    H126802   5.529   6.008   2.516  0.0673  0.3977  1.2478
 8946TIP3    H226803   5.613   5.900   2.450 -0.4904  1.5755 -1.5123
 8947TIP3   OH226804   6.528   2.463   2.016  0.4976 -0.3421 -0.2417
 8947TIP3    H126805   6.455   2.443   2.074  1.4300 -2.0396  0.4039
 8947TIP3    H226806   6.492   2.454   1.928 -0.5614  0.8752  0.0287
 8948TIP3   OH226807   6.199   1.829   0.262 -0.1370 -0.0459  0.4880
 8948TIP3    H126808   6.116   1.829   0.215 -0.9687  1.4837  1.8503
 8948TIP3    H226809   6.259   1.781   0.206 -1.8184 -0.7618 -0.7543
 8949TIP3   OH226810   3.024   5.090   4.302 -0.5227  0.2656  0.1212
 8949TIP3    H126811   3.096   5.098   4.239 -0.0797 -1.9831  0.2594
 8949TIP3    H226812   3.067   5.090   4.387 -0.9094  0.9671  0.3281
 8950TIP3   OH226813   4.515   0.581   2.893 -0.0935  0.3500  0.4853
 8950TIP3    H126814   4.593   0.627   2.860  0.5702  0.7305  2.4508
 8950TIP3    H226815   4.467   0.556   2.814  2.0805 -0.0171 -0.8164
 8951TIP3   OH226816   5.641   4.456   5.415 -0.0347 -0.1580  0.4667
 8951TIP3    H126817   5.577   4.412   5.359 -0.2598  1.2167 -0.3764
 8951TIP3    H226818   5.690   4.384   5.456 -1.4824 -1.2197  0.4104
 8952TIP3   OH226819   4.796   4.075   1.960 -0.2699 -0.2123 -0.3515
 8952TIP3    H126820   4.815   3.992   2.004  2.9109  0.1792 -0.7488
 8952TIP3    H226821   4.759   4.130   2.028 -2.5885 -1.9305 -0.1145
 8953TIP3   OH226822   5.563   6.627   1.758  0.2158 -0.2783  0.0181
 8953TIP3    H126823   5.498   6.653   1.823  1.3737  0.0694  1.0617
 8953TIP3    H226824   5.532   6.542   1.726 -1.7125  0.6979 -0.8591
 8954TIP3   OH226825   2.425   6.571   1.579 -0.0805 -0.0190 -0.1704
 8954TIP3    H126826   2.489   6.533   1.518  0.9137  1.7714 -0.2949
 8954TIP3    H226827   2.470   6.571   1.663 -0.8536 -0.9739  0.2675
 8955TIP3   OH226828   2.855   0.868   4.473 -0.1855  0.1132  0.2843
 8955TIP3    H126829   2.897   0.782   4.462  0.3956  0.2757  1.0969
 8955TIP3    H226830   2.835   0.897   4.384  1.7763  0.1722 -0.1896
 8956TIP3   OH226831   2.200   3.399   5.712 -0.1562 -0.1352 -0.0711
 8956TIP3    H126832   2.209   3.433   5.623  0.5017  0.3403  0.1675
 8956TIP3    H226833   2.273   3.439   5.760  0.4204 -1.6022  0.3099
 8957TIP3   OH226834   4.857   6.621   4.246 -0.5082  1.0752  0.9127
 8957TIP3    H126835   4.818   6.540   4.279 -1.7540  1.2953  0.0648
 8957TIP3    H226836   4.923   6.592   4.183 -2.7991  0.6446 -1.4706
 8958TIP3   OH226837   6.829   3.226   0.274  0.0850  0.3319  0.0287
 8958TIP3    H126838   6.906   3.252   0.224 -0.0322  0.3579 -0.1377
 8958TIP3    H226839   6.830   3.130   0.272 -1.3875  0.2938 -2.3087
 8959TIP3   OH226840   4.050   3.599   4.167 -0.2610 -0.0937  0.1792
 8959TIP3    H126841   4.032   3.514   4.207  0.2847  0.2207  1.1344
 8959TIP3    H226842   4.046   3.661   4.240 -0.0852  0.6195 -0.4020
 8960TIP3   OH226843   6.218   3.063   5.156  0.2821 -0.2364 -0.5702
 8960TIP3    H126844   6.157   3.006   5.204  0.1788 -0.2181 -0.6764
 8960TIP3    H226845   6.300   3.015   5.155  0.4745  0.0692  0.2151
 8961TIP3   OH226846   5.227   5.398   2.330  0.4007 -0.1911  0.6152
 8961TIP3    H126847   5.252   5.305   2.330 -0.0564 -0.3249  1.4526
 8961TIP3    H226848   5.253   5.429   2.243  0.1627 -1.2124  0.1559
 8962TIP3   OH226849   1.500   0.906   4.650  0.4199  0.1969 -0.5404
 8962TIP3    H126850   1.527   0.977   4.591 -1.8615  1.2120 -0.4749
 8962TIP3    H226851   1.569   0.903   4.716  1.7969  0.6878 -1.8911
 8963TIP3   OH226852   0.091   2.610   5.896  0.2776 -0.0951  0.5037
 8963TIP3    H126853   0.010   2.569   5.925 -0.5814  0.8762 -0.4141
 8963TIP3    H226854   0.134   2.544   5.842  0.4972 -0.8883  1.6047
 8964TIP3   OH226855   3.948   2.956   2.507 -0.4622  0.5484  1.1293
 8964TIP3    H126856   4.028   2.905   2.522 -0.0034  0.8155 -0.2235
 8964TIP3    H226857   3.882   2.912   2.560  0.2176 -0.6902  1.0065
 8965TIP3   OH226858   0.849   4.185   1.675 -0.2118 -0.1855 -0.0038
 8965TIP3    H126859   0.847   4.141   1.760 -1.8005 -0.5354 -0.1939
 8965TIP3    H226860   0.896   4.125   1.617  2.8416  0.9862  1.0550
 8966TIP3   OH226861   2.831   5.785   4.599 -0.4269  0.6416 -0.1634
 8966TIP3    H126862   2.856   5.851   4.665  0.2872  1.0481 -0.8236
 8966TIP3    H226863   2.761   5.827   4.549 -1.0790  0.2716  0.4239
 8967TIP3   OH226864   3.837   1.819   4.404 -0.0230 -0.0024  0.0956
 8967TIP3    H126865   3.914   1.836   4.458  0.1421 -0.0053 -0.1362
 8967TIP3    H226866   3.860   1.855   4.318 -0.9323  1.5345  0.4603
 8968TIP3   OH226867   6.012   3.621   5.192  0.2218  0.1660  0.2136
 8968TIP3    H126868   6.005   3.596   5.100  0.5646  0.6003  0.0646
 8968TIP3    H226869   5.988   3.543   5.241 -0.3193  0.0375 -0.2500
 8969TIP3   OH226870   1.556   5.989   1.463  0.2206 -0.1098 -0.0811
 8969TIP3    H126871   1.462   5.986   1.481  0.2979 -2.3950  0.1937
 8969TIP3    H226872   1.569   6.075   1.423 -1.9425  0.3411  0.0192
 8970TIP3   OH226873   2.229   3.667   1.684 -1.2040  0.1105  0.1140
 8970TIP3    H126874   2.207   3.757   1.658  1.4943  0.4332 -1.4957
 8970TIP3    H226875   2.310   3.676   1.733 -0.0234 -1.5072 -1.4014
 8971TIP3   OH226876   3.228   5.288   1.217 -0.1948 -0.3636 -0.3393
 8971TIP3    H126877   3.145   5.266   1.175 -0.9759  0.1566  0.8686
 8971TIP3    H226878   3.243   5.380   1.196 -1.3389  0.3279  1.6439
 8972TIP3   OH226879   1.067   0.558   3.410 -0.4179 -0.2324 -0.8463
 8972TIP3    H126880   1.019   0.499   3.352 -0.1211 -0.5371 -0.7875
 8972TIP3    H226881   1.020   0.641   3.405 -0.1705 -0.1431 -1.8246
 8973TIP3   OH226882   3.489   6.532   4.864  1.1283 -0.0274 -0.5292
 8973TIP3    H126883   3.470   6.601   4.800  2.7859  1.2592  0.2615
 8973TIP3    H226884   3.481   6.450   4.815 -0.2604  0.7353 -1.6709
 8974TIP3   OH226885   1.918   5.708   0.322  0.2441  0.1920 -0.2143
 8974TIP3    H126886   1.886   5.717   0.411  0.3370 -0.3515 -0.1205
 8974TIP3    H226887   1.858   5.644   0.282 -2.1156  3.0443 -1.6759
 8975TIP3   OH226888   4.869   6.434   4.780 -0.6163 -0.1713  0.1630
 8975TIP3    H126889   4.872   6.456   4.687 -1.1860 -1.2480 -0.1205
 8975TIP3    H226890   4.802   6.492   4.816  1.0486  1.7521  0.3572
 8976TIP3   OH226891   2.981   3.792   4.726  0.3477 -0.2720 -0.0673
 8976TIP3    H126892   3.074   3.807   4.747  0.6600 -0.5321 -1.2251
 8976TIP3    H226893   2.943   3.761   4.808  1.7116 -2.0807 -0.0772
 8977TIP3   OH226894   3.362   3.509   0.462 -0.1803 -0.6888 -0.7842
 8977TIP3    H126895   3.388   3.419   0.477 -0.1221 -0.6859 -0.8685
 8977TIP3    H226896   3.419   3.540   0.392  0.1897 -0.4051 -0.3596
 8978TIP3   OH226897   2.438   1.792   0.253  0.2691 -0.5817 -0.0183
 8978TIP3    H126898   2.466   1.871   0.208 -1.4415  0.1442  0.1264
 8978TIP3    H226899   2.495   1.786   0.330  1.0689 -0.0645 -0.5614
 8979TIP3   OH226900   2.766   5.294   5.512  0.2496 -0.1246 -0.2768
 8979TIP3    H126901   2.722   5.209   5.508 -0.6028  0.3409 -1.7518
 8979TIP3    H226902   2.859   5.273   5.508  0.1699 -1.0645  1.5824
 8980TIP3   OH226903   2.281   4.619   1.086 -0.0309 -0.2978  0.3415
 8980TIP3    H126904   2.338   4.663   1.023  0.9160  0.9009  1.9657
 8980TIP3    H226905   2.231   4.556   1.034  1.2831  0.0869 -1.4553
 8981TIP3   OH226906   6.896   0.961   5.387  0.3579 -0.7743  0.2530
 8981TIP3    H126907   6.954   1.033   5.413  0.1590 -1.0763  1.5932
 8981TIP3    H226908   6.941   0.882   5.417 -0.3686 -1.0642  0.5937
 8982TIP3   OH226909   3.944   2.484   2.625 -0.3892  0.5842  0.1778
 8982TIP3    H126910   3.944   2.392   2.653  1.8844  0.6068  0.4744
 8982TIP3    H226911   3.964   2.480   2.531 -1.2163  0.7487 -0.0074
 8983TIP3   OH226912   7.103   4.622   0.236  0.3142  0.3975 -0.4532
 8983TIP3    H126913   7.136   4.533   0.229  1.0175  0.5251  0.8119
 8983TIP3    H226914   7.128   4.650   0.324 -0.2812  1.6907 -0.6616
 8984TIP3   OH226915   0.951   5.253   3.734 -0.0576 -0.1934 -0.4144
 8984TIP3    H126916   0.991   5.322   3.681 -0.6751 -0.3649 -1.1199
 8984TIP3    H226917   1.019   5.228   3.797  0.2076  0.9858 -0.2071
 8985TIP3   OH226918   2.889   6.170   4.053  0.2444  0.0951  0.1108
 8985TIP3    H126919   2.811   6.123   4.021  0.2794 -0.6488  1.0557
 8985TIP3    H226920   2.959   6.143   3.994  0.0892 -0.4253  0.1550
 8986TIP3   OH226921   1.505   4.298   0.267 -1.0225  0.4328  0.0018
 8986TIP3    H126922   1.504   4.208   0.237  0.3024  0.3991  0.0212
 8986TIP3    H226923   1.501   4.350   0.187  2.7527  0.3458 -0.3941
 8987TIP3   OH226924   2.765   1.516   0.617 -0.1440 -0.1091  0.0126
 8987TIP3    H126925   2.843   1.566   0.640 -0.5445  1.0719 -1.0369
 8987TIP3    H226926   2.709   1.521   0.695  0.4168 -0.1281  0.4200
 8988TIP3   OH226927   3.576   3.554   3.301 -0.3803  0.0218 -0.1245
 8988TIP3    H126928   3.608   3.584   3.386  0.2426  1.3621 -0.8081
 8988TIP3    H226929   3.627   3.474   3.284  2.0371  1.6116 -0.7719
 8989TIP3   OH226930   6.867   6.614   0.213 -0.3259 -0.7502 -0.5128
 8989TIP3    H126931   6.881   6.522   0.236  1.4263 -0.4741 -0.3013
 8989TIP3    H226932   6.907   6.623   0.127 -0.1828 -0.1171 -0.3837
 8990TIP3   OH226933   1.851   5.101   1.443 -0.1218  0.6444  0.6034
 8990TIP3    H126934   1.782   5.131   1.384  0.2089 -0.7955 -0.5871
 8990TIP3    H226935   1.898   5.181   1.467  0.0523  1.2677 -1.5479
 8991TIP3   OH226936   1.765   6.286   1.115 -0.4485  0.1080  0.0096
 8991TIP3    H126937   1.830   6.269   1.046 -1.1491  0.7499 -0.8225
 8991TIP3    H226938   1.818   6.307   1.192  0.3436 -0.2501 -0.4202
 8992TIP3   OH226939   2.011   5.107   1.768  0.6816 -0.0390  0.6192
 8992TIP3    H126940   2.076   5.149   1.824  0.2103  0.2537  0.9576
 8992TIP3    H226941   1.928   5.122   1.813  0.0602  1.6923 -0.9679
 8993TIP3   OH226942   3.683   6.282   3.675 -0.5858  0.1532  0.4342
 8993TIP3    H126943   3.617   6.289   3.744 -0.7604 -0.4905  0.3397
 8993TIP3    H226944   3.650   6.213   3.617  0.5436 -0.7533  0.8168
 8994TIP3   OH226945   4.329   0.062   3.756  0.2047 -0.1181 -0.0130
 8994TIP3    H126946   4.251   0.088   3.805  1.2956  0.2080  1.6266
 8994TIP3    H226947   4.331   0.121   3.680 -1.5903 -0.7169 -0.5675
 8995TIP3   OH226948   2.197   6.171   0.632  0.4696  0.3425 -0.6014
 8995TIP3    H126949   2.208   6.076   0.630 -0.2722  0.2555 -2.6876
 8995TIP3    H226950   2.276   6.203   0.676  0.7463 -1.2126  0.0948
 8996TIP3   OH226951   0.459   4.139   3.914 -0.5115  0.7066 -0.1105
 8996TIP3    H126952   0.462   4.092   3.998  1.6336 -0.1586 -0.6220
 8996TIP3    H226953   0.474   4.071   3.848 -1.2710  1.5261 -1.1646
 8997TIP3   OH226954   0.173   0.747   2.086  0.7052 -0.4649 -0.1899
 8997TIP3    H126955   0.186   0.772   1.995 -0.4023 -0.2888 -0.3112
 8997TIP3    H226956   0.085   0.708   2.088  0.8891 -0.8654  0.7172
 8998TIP3   OH226957   4.241   4.241   1.261 -0.4584  0.0099 -0.0758
 8998TIP3    H126958   4.204   4.174   1.203  1.5912 -0.7568 -0.6017
 8998TIP3    H226959   4.267   4.192   1.340 -0.1575  0.4318  0.0889
 8999TIP3   OH226960   1.646   0.235   2.814 -0.2813  0.1857  0.2084
 8999TIP3    H126961   1.577   0.302   2.812  0.2428  0.7825 -3.6106
 8999TIP3    H226962   1.725   0.282   2.789  0.7934 -1.2835  0.7515
 9000TIP3   OH226963   3.542   1.560   0.481 -0.9111  0.6799  0.6518
 9000TIP3    H126964   3.557   1.608   0.399  0.4581  1.0089  1.0681
 9000TIP3    H226965   3.468   1.604   0.522 -1.2852  0.8308 -0.1651
 9001TIP3   OH226966   3.968   5.618   0.987  0.4207 -0.5281  0.3028
 9001TIP3    H126967   4.018   5.542   1.016 -1.1473 -1.2469  1.1892
 9001TIP3    H226968   4.034   5.687   0.977  1.6959 -1.6536  0.6648
 9002TIP3   OH226969   0.774   0.861   2.231 -0.1611 -0.3296  0.4199
 9002TIP3    H126970   0.692   0.828   2.268 -1.8973 -0.3574 -3.0303
 9002TIP3    H226971   0.802   0.792   2.170  0.3636  1.2381 -1.2058
 9003TIP3   OH226972   4.589   0.434   2.415  0.2079  0.0974 -0.5342
 9003TIP3    H126973   4.548   0.353   2.385 -0.9776  1.4064 -2.6672
 9003TIP3    H226974   4.563   0.500   2.351  1.7686  2.0352  0.6921
 9004TIP3   OH226975   2.804   2.241   5.178  0.6418  0.0835  0.3035
 9004TIP3    H126976   2.844   2.294   5.110  0.5902 -0.5600 -0.2430
 9004TIP3    H226977   2.858   2.256   5.256  2.0796 -0.9003 -0.4603
 9005TIP3   OH226978   4.149   4.317   5.495  0.0582 -0.2707  0.0700
 9005TIP3    H126979   4.241   4.328   5.518  0.2938  0.7843 -1.2128
 9005TIP3    H226980   4.102   4.324   5.578  1.2055 -2.3519  0.9546
 9006TIP3   OH226981   0.486   5.032   0.722 -0.4728  0.0636  0.0129
 9006TIP3    H126982   0.533   5.093   0.779 -2.5307  0.5405  1.3135
 9006TIP3    H226983   0.398   5.069   0.715 -1.1539 -1.6198 -0.9935
 9007TIP3   OH226984   0.572   5.467   5.340  0.1506 -0.0838  0.0846
 9007TIP3    H126985   0.485   5.433   5.320  0.3767 -0.3856 -0.3934
 9007TIP3    H226986   0.626   5.441   5.265  0.5720  0.3994  0.2171
 9008TIP3   OH226987   0.871   0.365   4.026 -0.0988 -0.3406 -0.4283
 9008TIP3    H126988   0.838   0.444   3.984 -2.7083 -1.3516 -0.4571
 9008TIP3    H226989   0.823   0.360   4.109  0.8610 -1.3029  0.0886
 9009TIP3   OH226990   0.328   6.499   1.494 -0.2124  0.0132  0.1627
 9009TIP3    H126991   0.420   6.490   1.466 -0.6072  1.6559 -1.9003
 9009TIP3    H226992   0.316   6.428   1.557  1.8619 -1.6399 -1.1422
 9010TIP3   OH226993   2.792   3.818   3.364 -0.8657  0.4486 -0.4826
 9010TIP3    H126994   2.708   3.778   3.387  0.3632 -1.3468  1.2302
 9010TIP3    H226995   2.811   3.877   3.436 -0.3771  0.3819 -0.5561
 9011TIP3   OH226996   2.994   4.610   3.566 -0.1040  0.0987 -0.3462
 9011TIP3    H126997   3.003   4.590   3.473 -0.7571  2.0969 -0.8941
 9011TIP3    H226998   2.993   4.706   3.570  1.0082  0.0809  1.8514
 9012TIP3   OH226999   3.906   4.341   2.007  0.5547 -0.5958 -0.2020
 9012TIP3    H127000   3.936   4.284   2.077 -0.5800 -0.9668 -0.0002
 9012TIP3    H227001   3.812   4.354   2.024  0.1122 -1.1711 -1.9526
 9013TIP3   OH227002   1.992   6.559   3.953  0.4719 -0.1344  0.0617
 9013TIP3    H127003   1.913   6.554   3.898  0.4961  0.8514 -0.0828
 9013TIP3    H227004   1.965   6.610   4.029  1.0789  0.5940 -0.2006
 9014TIP3   OH227005   3.887   4.977   4.680  0.6320 -0.1154 -0.1829
 9014TIP3    H127006   3.878   5.028   4.599 -0.3294  0.6435  0.3776
 9014TIP3    H227007   3.798   4.975   4.717  0.9252 -1.0345  0.5113
 9015TIP3   OH227008   4.118   6.354   2.522 -0.7099  0.1339  0.4651
 9015TIP3    H127009   4.122   6.305   2.440  1.4504  0.2601  0.4338
 9015TIP3    H227010   4.138   6.444   2.497 -1.6536  0.4802  0.9265
 9016TIP3   OH227011   6.734   5.407   4.731  0.0543 -0.5201  0.1496
 9016TIP3    H127012   6.732   5.496   4.695  2.1350  0.0872  1.3513
 9016TIP3    H227013   6.671   5.410   4.803 -0.3209 -0.2110 -0.1834
 9017TIP3   OH227014   2.027   1.827   2.139 -0.2164 -0.0954 -0.2208
 9017TIP3    H127015   2.004   1.906   2.186  1.6709  0.4470 -0.1047
 9017TIP3    H227016   2.021   1.757   2.204  0.5798  0.3627  0.3559
 9018TIP3   OH227017   3.454   0.655   2.644 -0.9659  0.0581 -0.3690
 9018TIP3    H127018   3.461   0.750   2.658 -1.1408 -0.3392  3.0984
 9018TIP3    H227019   3.537   0.620   2.676 -0.4029 -0.9709 -2.7230
 9019TIP3   OH227020   5.416   1.025   3.069 -0.4288  0.5533 -0.4942
 9019TIP3    H127021   5.356   0.993   3.002  0.3132  0.1477 -0.9722
 9019TIP3    H227022   5.456   0.946   3.105  1.2826  0.8857 -1.5492
 9020TIP3   OH227023   3.943   4.041   5.318 -0.4810  0.0762  0.3201
 9020TIP3    H127024   3.888   4.054   5.241  1.0619  0.4008 -0.7918
 9020TIP3    H227025   3.932   3.948   5.340  1.8971 -1.1366 -2.7479
 9021TIP3   OH227026   5.657   0.264   2.187 -0.7315 -0.1924  0.3247
 9021TIP3    H127027   5.747   0.295   2.182 -0.9683  0.4483 -0.1132
 9021TIP3    H227028   5.608   0.336   2.228 -1.2539 -0.0415 -0.5352
 9022TIP3   OH227029   6.786   1.618   2.366 -0.4184  0.4104 -0.1427
 9022TIP3    H127030   6.879   1.594   2.365 -0.6237 -0.5369  1.2639
 9022TIP3    H227031   6.743   1.549   2.316 -0.5957 -0.3266  0.9935
 9023TIP3   OH227032   5.886   1.951   1.199 -0.3548  0.4119  0.4018
 9023TIP3    H127033   5.833   1.974   1.123  0.3581 -1.5801 -0.7610
 9023TIP3    H227034   5.969   1.997   1.185 -0.8747  1.5783  0.9914
 9024TIP3   OH227035   0.088   5.298   3.065 -0.2432 -0.1200  0.2639
 9024TIP3    H127036   0.179   5.272   3.057 -0.3741 -0.3990 -0.4508
 9024TIP3    H227037   0.087   5.364   3.134  0.2820 -1.0794  1.2119
 9025TIP3   OH227038   4.099   4.009   1.969  0.2601  0.3489 -0.1747
 9025TIP3    H127039   4.030   4.025   2.034  1.4005  0.1847  1.1196
 9025TIP3    H227040   4.085   4.077   1.903 -1.2762  0.1703 -0.0690
 9026TIP3   OH227041   0.681   3.144   2.695  0.3007 -0.6847  0.2932
 9026TIP3    H127042   0.599   3.186   2.717  0.8623 -0.5341  2.2215
 9026TIP3    H227043   0.739   3.217   2.670  0.2302 -0.6705  0.1685
 9027TIP3   OH227044   3.569   5.806   1.798  0.0727  0.2456  0.2488
 9027TIP3    H127045   3.496   5.859   1.766  0.3362  1.3290  1.3554
 9027TIP3    H227046   3.647   5.849   1.762  0.1900 -0.8277 -0.8216
 9028TIP3   OH227047   4.153   0.084   1.851 -0.5211 -0.1210  0.7033
 9028TIP3    H127048   4.094   0.130   1.791  1.0811 -0.5753 -1.3405
 9028TIP3    H227049   4.223   0.147   1.869 -0.4891 -0.3285  1.3203
 9029TIP3   OH227050   1.675   4.167   0.983 -0.6457 -0.1879  0.5510
 9029TIP3    H127051   1.727   4.091   0.955  0.7886  1.0400 -0.3163
 9029TIP3    H227052   1.669   4.158   1.078  0.4348 -0.8233  0.5772
 9030TIP3   OH227053   3.200   1.247   2.155 -0.0865  0.7575 -0.2365
 9030TIP3    H127054   3.244   1.327   2.125  1.7216 -0.0764  0.0564
 9030TIP3    H227055   3.171   1.267   2.243  1.6342  0.6749  0.3887
 9031TIP3   OH227056   5.372   2.673   2.365  0.3715  0.1742 -0.1974
 9031TIP3    H127057   5.345   2.757   2.402  0.1891  1.5856 -3.2221
 9031TIP3    H227058   5.290   2.630   2.340  0.4344 -1.1993  1.7251
 9032TIP3   OH227059   6.834   4.002   2.323 -0.0111 -0.2521  0.4621
 9032TIP3    H127060   6.765   4.067   2.318  0.5723  0.6529  2.8832
 9032TIP3    H227061   6.801   3.936   2.384  0.5695 -0.7026  0.3055
 9033TIP3   OH227062   4.515   0.326   3.318  0.4277  0.2214  0.2941
 9033TIP3    H127063   4.572   0.355   3.247  0.6174 -2.4415 -0.7656
 9033TIP3    H227064   4.438   0.383   3.313  1.4578  1.5926 -0.4966
 9034TIP3   OH227065   0.565   2.667   5.533  0.2888  0.1556  0.1638
 9034TIP3    H127066   0.500   2.690   5.599  0.4050 -0.8692  0.6496
 9034TIP3    H227067   0.575   2.572   5.541 -0.4233 -0.1612 -1.9868
 9035TIP3   OH227068   6.863   1.843   4.874 -0.0778 -0.2852  0.7712
 9035TIP3    H127069   6.820   1.920   4.912  0.7181  0.5432  0.0393
 9035TIP3    H227070   6.886   1.789   4.950 -0.8874  0.0570  1.2778
 9036TIP3   OH227071   2.915   4.862   2.030 -0.2637 -0.0457  0.0982
 9036TIP3    H127072   2.939   4.939   2.082  0.9336  0.5309 -1.2342
 9036TIP3    H227073   2.823   4.875   2.009 -0.3648  0.4588  0.8154
 9037TIP3   OH227074   2.689   3.488   1.256 -0.5106 -0.0959  0.8557
 9037TIP3    H127075   2.671   3.472   1.164  0.4852 -1.4236  0.8521
 9037TIP3    H227076   2.765   3.546   1.256  0.2534 -1.0671  0.8056
 9038TIP3   OH227077   6.342   2.642   0.534 -0.7534 -0.5194  0.4186
 9038TIP3    H127078   6.322   2.607   0.447 -3.9158  2.1997 -0.1531
 9038TIP3    H227079   6.409   2.708   0.518 -1.9062  0.5532 -0.1774
 9039TIP3   OH227080   5.030   1.800   3.420 -0.1422 -0.1054 -0.2383
 9039TIP3    H127081   4.988   1.800   3.334 -1.3091  0.5120  0.3004
 9039TIP3    H227082   5.108   1.854   3.410 -1.1111  1.2679 -0.5406
 9040TIP3   OH227083   0.057   5.033   5.295 -0.0190  0.2061 -0.2402
 9040TIP3    H127084   0.152   5.019   5.295  0.1459  1.2133  0.2147
 9040TIP3    H227085   0.028   4.997   5.380 -0.4440 -2.3367 -1.3678
 9041TIP3   OH227086   4.955   4.111   2.246  0.2679  0.2564  0.2046
 9041TIP3    H127087   4.885   4.154   2.197  0.6265  1.3581  0.6219
 9041TIP3    H227088   4.961   4.024   2.208 -1.1839  0.2130  0.0317
 9042TIP3   OH227089   4.373   5.866   3.711  0.2719 -0.0320  0.1139
 9042TIP3    H127090   4.409   5.785   3.748  0.3272 -0.8116 -1.5274
 9042TIP3    H227091   4.281   5.866   3.739  0.3063 -0.6171  0.2529
 9043TIP3   OH227092   6.987   1.450  -0.001 -0.1299  0.8236 -0.5149
 9043TIP3    H127093   6.987   1.534  -0.047 -2.0583  1.5926  0.7643
 9043TIP3    H227094   6.956   1.471   0.087  0.9830 -0.9931  0.3747
 9044TIP3   OH227095   5.345   2.336   4.512  0.0631 -0.0086  0.0378
 9044TIP3    H127096   5.318   2.287   4.590 -2.4154  0.9179 -0.1477
 9044TIP3    H227097   5.263   2.362   4.470  1.2800  2.3122 -1.1215
 9045TIP3   OH227098   7.036   5.922   5.811 -0.2044  0.0939 -0.0453
 9045TIP3    H127099   7.090   5.981   5.760  0.1599 -0.2123 -0.0192
 9045TIP3    H227100   7.078   5.921   5.898 -0.3624  0.0034  0.0298
 9046TIP3   OH227101   6.315   4.593   1.463  0.6917  0.1647 -0.2391
 9046TIP3    H127102   6.362   4.591   1.546  0.6047  0.1601 -0.1898
 9046TIP3    H227103   6.345   4.514   1.417 -0.6045 -0.8256  0.5378
 9047TIP3   OH227104   5.900   4.857   1.939 -0.7506 -0.0451  0.1422
 9047TIP3    H127105   5.878   4.775   1.982 -0.7447 -0.8042 -1.2589
 9047TIP3    H227106   5.996   4.860   1.940 -0.7423 -0.2112 -0.0845
 9048TIP3   OH227107   1.498   1.926   1.311 -0.7752  0.1242 -0.1185
 9048TIP3    H127108   1.403   1.923   1.316 -0.9002  0.1978 -1.9077
 9048TIP3    H227109   1.521   2.012   1.348 -1.3923  0.1182  0.2903
 9049TIP3   OH227110   2.720   4.695   3.420  0.4393 -0.3186  0.1109
 9049TIP3    H127111   2.766   4.765   3.374 -1.5629 -0.1155 -1.7120
 9049TIP3    H227112   2.722   4.621   3.360  0.5082 -1.1015  1.0549
 9050TIP3   OH227113   2.235   5.619   0.643 -0.2648  0.1425 -0.5092
 9050TIP3    H127114   2.256   5.588   0.555 -0.8718 -2.0260  0.0599
 9050TIP3    H227115   2.193   5.545   0.686  0.9180  0.7724  1.9606
 9051TIP3   OH227116   5.212   4.103   1.635 -1.2307  0.2113 -0.0096
 9051TIP3    H127117   5.120   4.091   1.659 -1.1444 -1.8469 -0.4883
 9051TIP3    H227118   5.214   4.091   1.540 -0.3728 -0.5939  0.0967
 9052TIP3   OH227119   2.650   5.532   4.658 -0.4055 -0.4632 -0.7248
 9052TIP3    H127120   2.713   5.521   4.729 -0.8716 -1.3209 -0.4250
 9052TIP3    H227121   2.627   5.624   4.660 -2.8766 -0.9788  2.4021
 9053TIP3   OH227122   5.677   3.956   4.450  0.4853 -0.0115 -0.7302
 9053TIP3    H127123   5.672   4.002   4.534 -0.4912 -1.2505 -0.0701
 9053TIP3    H227124   5.598   3.983   4.403  1.4838  1.3999 -1.6789
 9054TIP3   OH227125   4.075   5.729   4.082 -0.5343  0.3883 -0.4458
 9054TIP3    H127126   4.070   5.817   4.043 -1.8252  0.1298 -0.9066
 9054TIP3    H227127   3.997   5.684   4.049 -0.9422 -0.2927  1.3344
 9055TIP3   OH227128   3.771   3.359   0.761  0.0809  0.6834 -0.0717
 9055TIP3    H127129   3.814   3.426   0.814  1.3970 -1.2230  1.4000
 9055TIP3    H227130   3.689   3.400   0.733  0.0686  2.3682  2.1267
 9056TIP3   OH227131   4.932   6.574   1.345 -0.0028 -0.3132  0.5668
 9056TIP3    H127132   4.852   6.589   1.295  0.0676  0.4585  0.6655
 9056TIP3    H227133   5.001   6.614   1.292 -0.0788  1.5469  1.7761
 9057TIP3   OH227134   1.784   0.718   1.624  0.2045  0.0445  0.1115
 9057TIP3    H127135   1.835   0.638   1.631  0.3805 -0.6595 -5.0439
 9057TIP3    H227136   1.699   0.690   1.591 -1.1358  1.7785  1.8272
 9058TIP3   OH227137   5.650   4.898   4.018 -0.0251 -0.0034  0.2930
 9058TIP3    H127138   5.709   4.827   3.992  0.8067  0.1912  1.5350
 9058TIP3    H227139   5.580   4.896   3.954  1.5393  0.0070 -1.5036
 9059TIP3   OH227140   4.885   3.291   4.804  0.1424  0.8262  0.1298
 9059TIP3    H127141   4.888   3.221   4.739 -0.1696  1.1523 -0.2405
 9059TIP3    H227142   4.952   3.353   4.776  2.4749 -0.6810  2.0577
 9060TIP3   OH227143   6.857   1.978   5.220 -0.4024  0.1772  0.2780
 9060TIP3    H127144   6.946   1.944   5.217 -0.0725  1.0701 -0.5753
 9060TIP3    H227145   6.857   2.050   5.158 -1.7541  0.1227  0.1883
 9061TIP3   OH227146   2.700   2.017   4.814 -0.6948  0.1509 -0.0383
 9061TIP3    H127147   2.646   1.942   4.841 -1.1112  0.6831  0.6475
 9061TIP3    H227148   2.778   2.009   4.868 -0.4674 -0.1254 -0.4029
 9062TIP3   OH227149   2.786   0.055   5.054  0.1710 -0.2175  0.1645
 9062TIP3    H127150   2.853  -0.012   5.071 -2.0741 -2.5409  0.3919
 9062TIP3    H227151   2.790   0.070   4.960  1.1229 -0.1481  0.2012
 9063TIP3   OH227152   3.829   1.070   1.853  0.0907  0.2453 -0.4134
 9063TIP3    H127153   3.837   1.055   1.947 -0.3017 -1.2247 -0.5897
 9063TIP3    H227154   3.742   1.037   1.831  0.4013  0.0438 -1.3818
 9064TIP3   OH227155   5.759   5.366   2.795 -0.2090  0.4419 -0.1012
 9064TIP3    H127156   5.819   5.394   2.864 -1.0236  0.0020  0.8066
 9064TIP3    H227157   5.761   5.437   2.731  0.3996  0.9538  0.4770
 9065TIP3   OH227158   0.960   3.061   0.927 -0.4832  0.4264 -0.7068
 9065TIP3    H127159   0.967   3.000   1.000 -1.0640  0.2511 -0.7858
 9065TIP3    H227160   0.931   3.007   0.853 -1.0505  0.7989 -0.7665
 9066TIP3   OH227161   2.977   4.363   3.320 -0.1225  0.0359 -0.0709
 9066TIP3    H127162   3.058   4.324   3.288 -0.4500  0.2082 -1.1615
 9066TIP3    H227163   2.985   4.456   3.300 -0.9833 -0.0875 -1.1187
 9067TIP3   OH227164   1.279   0.543   2.055  0.2512 -0.4947  0.3120
 9067TIP3    H127165   1.370   0.555   2.083  0.5861  1.6273 -1.4346
 9067TIP3    H227166   1.228   0.555   2.136  1.4203  0.3013  0.9670
 9068TIP3   OH227167   2.230   5.224   1.909  0.1145 -0.0006 -0.7612
 9068TIP3    H127168   2.288   5.298   1.923  1.5342 -0.8761 -1.7548
 9068TIP3    H227169   2.259   5.158   1.973 -1.1987  0.2969  0.1861
 9069TIP3   OH227170   4.376   4.737   0.108 -0.7176  1.0550  0.5877
 9069TIP3    H127171   4.346   4.770   0.023 -0.3374 -1.0763 -0.4399
 9069TIP3    H227172   4.448   4.678   0.087 -0.2472  0.8904  2.4558
 9070TIP3   OH227173   6.936   4.940   4.268 -0.5487  0.0704 -0.5626
 9070TIP3    H127174   6.901   5.028   4.285  3.2078  2.1451 -2.2047
 9070TIP3    H227175   6.947   4.937   4.173  0.6461 -1.6356 -0.4121
 9071TIP3   OH227176   4.813   4.809   2.574  0.4123  0.1017 -0.7416
 9071TIP3    H127177   4.827   4.833   2.482 -0.1992  3.2622 -0.1240
 9071TIP3    H227178   4.863   4.874   2.624  0.5554 -1.4031  1.2057
 9072TIP3   OH227179   6.507   0.712   0.190 -0.5218 -0.0787 -0.0080
 9072TIP3    H127180   6.562   0.678   0.120 -0.0854 -0.3233  0.4430
 9072TIP3    H227181   6.418   0.703   0.157 -0.3144 -0.0946 -0.5691
 9073TIP3   OH227182   1.294   4.836   0.500  0.3495  0.5939  0.0806
 9073TIP3    H127183   1.375   4.860   0.456  0.6172  1.4741  1.0202
 9073TIP3    H227184   1.228   4.834   0.430  0.7958  1.8110 -0.4080
 9074TIP3   OH227185   6.739   5.278   4.458 -0.1723  0.3077  0.3377
 9074TIP3    H127186   6.645   5.282   4.439 -0.1860  4.3587  0.2537
 9074TIP3    H227187   6.746   5.308   4.549  1.0163 -0.8964  0.6715
 9075TIP3   OH227188   4.205   1.446   3.231  0.1708 -0.2562  0.4521
 9075TIP3    H127189   4.284   1.438   3.178  1.8037  1.3703  2.4913
 9075TIP3    H227190   4.225   1.399   3.312  0.2146  2.4777  2.1527
 9076TIP3   OH227191   1.666   5.469   5.178  0.1187  0.0560  0.1380
 9076TIP3    H127192   1.600   5.402   5.163 -0.8702  1.4257 -2.0705
 9076TIP3    H227193   1.623   5.533   5.235 -0.3628  0.7441 -0.9689
 9077TIP3   OH227194   6.577   4.960   5.524  0.6206  0.2796  0.4585
 9077TIP3    H127195   6.572   4.943   5.618  1.8871  0.4511  0.5620
 9077TIP3    H227196   6.664   4.931   5.499 -0.2611 -1.3132 -0.9846
 9078TIP3   OH227197   0.963   3.366   3.810 -0.6812  0.5503 -0.4427
 9078TIP3    H127198   0.973   3.449   3.765  0.2045  0.2326 -0.8471
 9078TIP3    H227199   1.020   3.372   3.886  0.4337 -0.1622 -1.1832
 9079TIP3   OH227200   0.132   0.952   5.596  0.6533  0.5820 -0.1410
 9079TIP3    H127201   0.209   0.915   5.553  0.1329 -0.2766 -0.3403
 9079TIP3    H227202   0.146   1.047   5.591  1.9341  0.4405  0.2700
 9080TIP3   OH227203   2.720   5.786   2.701  0.7290  0.5255 -0.0021
 9080TIP3    H127204   2.666   5.710   2.723  0.6474  0.6751  0.3187
 9080TIP3    H227205   2.747   5.771   2.610  0.0338  0.5234 -0.2093
 9081TIP3   OH227206   2.444   4.129   5.733  0.6201  0.3449 -0.1013
 9081TIP3    H127207   2.502   4.084   5.795  1.4360  1.6664  0.1367
 9081TIP3    H227208   2.467   4.093   5.648  0.4633 -0.4851  0.1948
 9082TIP3   OH227209   2.285  -0.036   5.557  0.6988 -0.0979 -0.4717
 9082TIP3    H127210   2.322   0.033   5.502  1.2621 -0.0383 -0.0354
 9082TIP3    H227211   2.242   0.012   5.629  2.4729 -0.1747  0.7215
 9083TIP3   OH227212   4.012   0.500   5.271 -0.2623 -0.0605 -0.5888
 9083TIP3    H127213   4.098   0.507   5.314 -0.5055  0.9644 -0.2585
 9083TIP3    H227214   3.949   0.523   5.339 -0.8331 -1.0049 -0.7734
 9084TIP3   OH227215   2.607   6.405   4.566 -0.1568 -0.3383 -0.6457
 9084TIP3    H127216   2.635   6.495   4.586  0.6295 -0.7906  0.3526
 9084TIP3    H227217   2.684   6.364   4.526  0.1601 -1.1453  0.7352
 9085TIP3   OH227218   0.288   2.405   5.571  0.3681  0.0251 -0.4951
 9085TIP3    H127219   0.316   2.355   5.647  0.3318  0.4792 -0.1819
 9085TIP3    H227220   0.368   2.418   5.519  0.7076  1.0818  0.2580
 9086TIP3   OH227221   3.841   2.046   5.524 -0.1018 -0.1899 -0.3474
 9086TIP3    H127222   3.855   2.001   5.607 -1.8452 -0.3128 -0.0879
 9086TIP3    H227223   3.825   1.976   5.461  0.1097 -0.0508 -0.5563
 9087TIP3   OH227224   3.548   4.948   1.706  0.1387 -0.1547 -0.0357
 9087TIP3    H127225   3.517   5.027   1.749  0.3763  0.0827 -0.2944
 9087TIP3    H227226   3.503   4.877   1.751  0.8727  0.0441  1.0397
 9088TIP3   OH227227   0.558   2.621   1.820  0.1829  0.2353  0.3931
 9088TIP3    H127228   0.549   2.605   1.726  1.5105  0.0816  0.2765
 9088TIP3    H227229   0.568   2.534   1.859 -1.2481  0.2302  0.8001
 9089TIP3   OH227230   0.197  -0.013   2.643  0.7216  0.0353  0.0605
 9089TIP3    H127231   0.118   0.041   2.643 -0.3405 -1.4433  1.2416
 9089TIP3    H227232   0.246   0.016   2.721 -0.1689 -1.0868  1.0764
 9090TIP3   OH227233   3.773   3.359   2.195 -0.0187  0.3539  0.0632
 9090TIP3    H127234   3.795   3.414   2.270 -0.9618  0.4487  0.2781
 9090TIP3    H227235   3.784   3.270   2.227 -2.3083  0.3403  0.9479
 9091TIP3   OH227236   5.385   1.010   3.999 -0.0201 -0.0783 -0.2044
 9091TIP3    H127237   5.462   1.023   4.055  1.3119  0.7671 -2.1298
 9091TIP3    H227238   5.315   1.056   4.045  1.2183  1.2983  0.4196
 9092TIP3   OH227239   5.446   6.465   4.197 -0.0870 -0.4834  0.0264
 9092TIP3    H127240   5.516   6.488   4.137 -0.2628  0.6835  0.2481
 9092TIP3    H227241   5.482   6.480   4.285 -0.5328 -0.0816  0.1464
 9093TIP3   OH227242   0.110   1.223   0.203 -0.0786  0.8748 -0.0695
 9093TIP3    H127243   0.034   1.278   0.217 -0.3157  0.9533 -1.4883
 9093TIP3    H227244   0.183   1.273   0.239 -0.5448  1.3171  0.2685
 9094TIP3   OH227245   2.499   3.738   1.170 -0.0348  0.3883  0.2969
 9094TIP3    H127246   2.443   3.771   1.240  0.1834  2.8462 -0.5715
 9094TIP3    H227247   2.582   3.785   1.181  0.1054  0.6075 -1.4009
 9095TIP3   OH227248   6.308   5.917   0.187 -0.1796  0.0423  0.5197
 9095TIP3    H127249   6.312   5.977   0.262  0.3468  0.3914  0.2222
 9095TIP3    H227250   6.282   5.972   0.113 -1.1068 -0.3849  0.5196
 9096TIP3   OH227251   4.585   1.526   1.826 -0.0876  0.0732  0.6855
 9096TIP3    H127252   4.633   1.609   1.816 -2.9576  1.7395 -0.3317
 9096TIP3    H227253   4.583   1.489   1.737  2.5351 -2.0495  1.3731
 9097TIP3   OH227254   6.741   0.665   3.519 -0.1914  0.1910  0.2080
 9097TIP3    H127255   6.683   0.621   3.581 -0.6123 -0.4352 -0.6088
 9097TIP3    H227256   6.683   0.702   3.453  0.2707  0.5772  0.0047
 9098TIP3   OH227257   6.770   5.748   2.491 -0.7266 -0.9897  0.0465
 9098TIP3    H127258   6.697   5.689   2.506 -1.4361 -0.1307  0.0379
 9098TIP3    H227259   6.846   5.690   2.481 -1.2939 -1.8620  0.6521
 9099TIP3   OH227260   5.677   3.752   0.235  0.0062 -0.1083 -0.0253
 9099TIP3    H127261   5.632   3.716   0.159 -0.1728  0.4521 -0.1908
 9099TIP3    H227262   5.769   3.729   0.221 -0.1401 -0.7616  0.0308
 9100TIP3   OH227263   3.806   3.816   1.969  0.1428  0.1787  0.7548
 9100TIP3    H127264   3.752   3.888   2.003  1.1096  0.6753  1.2833
 9100TIP3    H227265   3.743   3.753   1.934 -0.7657  0.8551  1.1349
 9101TIP3   OH227266   3.998   1.055   4.988 -0.1947  0.2751 -0.7578
 9101TIP3    H127267   4.036   0.975   4.952  0.5752  0.1332  0.3027
 9101TIP3    H227268   4.047   1.126   4.946  1.2928  0.0924  0.5529
 9102TIP3   OH227269   5.667   0.472   0.033  0.0510  0.3087  0.4038
 9102TIP3    H127270   5.593   0.506  -0.017  0.9605  1.3548 -0.2740
 9102TIP3    H227271   5.685   0.539   0.099  1.2658  0.7414 -0.3351
 9103TIP3   OH227272   0.215   5.246   2.666 -0.1235 -0.4034  0.2469
 9103TIP3    H127273   0.194   5.155   2.685 -2.0076 -0.6420 -2.3846
 9103TIP3    H227274   0.152   5.297   2.718  0.3471 -0.6119  1.0365
 9104TIP3   OH227275   3.607   4.487   5.847  0.2070  0.1082  0.2536
 9104TIP3    H127276   3.684   4.491   5.904  1.2482 -2.1234 -0.9120
 9104TIP3    H227277   3.542   4.439   5.898 -0.2841  1.5012  1.0115
 9105TIP3   OH227278   4.418   5.338   3.226  0.5557  0.2233 -0.0171
 9105TIP3    H127279   4.439   5.265   3.283  1.0599  0.4361  0.0769
 9105TIP3    H227280   4.325   5.353   3.239 -0.4108 -2.5936 -2.5849
 9106TIP3   OH227281   5.321   0.439   0.695  0.3012 -0.0742  0.3161
 9106TIP3    H127282   5.329   0.384   0.772 -1.1040  0.5641  0.9623
 9106TIP3    H227283   5.386   0.508   0.707 -0.1893  0.2605  1.1647
 9107TIP3   OH227284   5.372   5.538   4.701  0.2886  0.4865 -0.2510
 9107TIP3    H127285   5.361   5.451   4.740 -1.1919  0.0531 -1.5173
 9107TIP3    H227286   5.426   5.586   4.764 -0.1994 -0.8328  1.2431
 9108TIP3   OH227287   3.753   0.372   5.196 -0.8307 -0.0417  0.4894
 9108TIP3    H127288   3.833   0.425   5.192 -0.2409 -0.3406  4.2803
 9108TIP3    H227289   3.756   0.318   5.117  2.7274 -0.0388  0.4407
 9109TIP3   OH227290   2.773   2.645   2.701 -0.6631 -0.4198 -0.2462
 9109TIP3    H127291   2.836   2.697   2.650  0.7505  0.8365  2.5276
 9109TIP3    H227292   2.748   2.703   2.773 -1.9232 -2.3423  0.9483
 9110TIP3   OH227293   1.889   1.351   1.762 -0.6620  0.4770 -0.4092
 9110TIP3    H127294   1.878   1.432   1.812  0.5166  1.0104 -0.9774
 9110TIP3    H227295   1.800   1.317   1.751 -1.1882  1.7724 -0.2978
 9111TIP3   OH227296   5.482   5.132   4.590 -0.2888  0.2684  0.0498
 9111TIP3    H127297   5.464   5.214   4.543 -1.9416 -0.6503 -1.0042
 9111TIP3    H227298   5.534   5.159   4.666  0.5638  2.0860 -1.1103
 9112TIP3   OH227299   1.924   5.017   5.244  0.2185 -0.0440 -0.1401
 9112TIP3    H127300   1.983   4.941   5.247  0.3468  0.0926  0.9139
 9112TIP3    H227301   1.952   5.065   5.166  2.4404  0.7430  1.0542
 9113TIP3   OH227302   5.724   1.893   1.935  0.2617 -0.1750  0.0559
 9113TIP3    H127303   5.747   1.907   2.027  1.2031 -2.3477  0.2180
 9113TIP3    H227304   5.798   1.930   1.886 -0.2538  1.0099  0.1252
 9114TIP3   OH227305   4.927   4.790   1.532 -0.5981 -0.0125  0.3239
 9114TIP3    H127306   4.890   4.760   1.615 -1.2710  0.6500  0.2828
 9114TIP3    H227307   5.012   4.826   1.555  0.2374 -1.9146  0.3636
 9115TIP3   OH227308   6.662   1.432   0.105 -0.2712 -0.0715 -0.4322
 9115TIP3    H127309   6.614   1.451   0.186 -0.0295  0.7934 -0.4847
 9115TIP3    H227310   6.655   1.337   0.095  1.4835 -0.5225  1.7308
 9116TIP3   OH227311   5.762   5.326   4.419 -0.2897 -0.2293  0.4791
 9116TIP3    H127312   5.818   5.285   4.354 -1.6106 -0.6004 -0.4621
 9116TIP3    H227313   5.720   5.399   4.373  1.7662  2.0999  2.0224
 9117TIP3   OH227314   3.892   5.271   1.818  0.2749  0.0707 -0.0560
 9117TIP3    H127315   3.977   5.308   1.839  0.0587 -0.5738  2.2574
 9117TIP3    H227316   3.831   5.345   1.823  0.3626  0.0897  0.8250
 9118TIP3   OH227317   3.939   6.583   0.545  0.3005  0.1697  0.5590
 9118TIP3    H127318   3.967   6.568   0.455 -3.8918  2.5075 -1.4739
 9118TIP3    H227319   3.897   6.501   0.570 -0.9631  0.3072 -0.8707
 9119TIP3   OH227320   5.570   1.521   4.627 -0.3955 -0.4609  0.1400
 9119TIP3    H127321   5.477   1.538   4.614 -0.2387  0.6395  0.3345
 9119TIP3    H227322   5.612   1.553   4.547 -0.1682 -0.8774  0.0870
 9120TIP3   OH227323   1.973   3.283   1.406  0.1169 -0.5738  0.3518
 9120TIP3    H127324   2.052   3.262   1.356 -0.3751 -1.5146 -0.0621
 9120TIP3    H227325   1.939   3.198   1.434 -1.2448 -0.2533 -0.2537
 9121TIP3   OH227326   1.599   2.796   1.301 -0.2016 -0.3448  0.1391
 9121TIP3    H127327   1.690   2.775   1.322  0.0811  0.8509  0.2041
 9121TIP3    H227328   1.548   2.725   1.340  0.6165 -0.3604  1.2288
 9122TIP3   OH227329   1.334   0.839   1.770  0.7415  0.2969 -0.3497
 9122TIP3    H127330   1.424   0.872   1.761  0.8921  0.4594  1.3800
 9122TIP3    H227331   1.285   0.915   1.802 -0.0189  0.1856 -1.2087
 9123TIP3   OH227332   2.185   5.612   2.016 -0.6930 -0.8333  0.0102
 9123TIP3    H127333   2.181   5.691   2.070  0.1746 -2.1582  2.1417
 9123TIP3    H227334   2.161   5.641   1.928 -1.4828  1.5663  0.9545
 9124TIP3   OH227335   2.499   5.875   5.011 -0.3008 -0.3510  0.3305
 9124TIP3    H127336   2.527   5.966   5.014 -0.4809 -0.2454 -0.7947
 9124TIP3    H227337   2.552   5.831   5.078  1.1574  0.2165 -0.4071
 9125TIP3   OH227338   0.292   4.139   1.169 -0.2935 -0.1824  0.0010
 9125TIP3    H127339   0.360   4.073   1.181 -0.1263  0.2821  2.0082
 9125TIP3    H227340   0.214   4.100   1.209 -0.3266  0.5978  0.7278
 9126TIP3   OH227341   2.542   0.367   0.825  0.0743  0.0926 -0.4997
 9126TIP3    H127342   2.534   0.324   0.910 -0.7829 -0.8840 -1.0512
 9126TIP3    H227343   2.613   0.319   0.781 -0.7544 -0.6753 -1.0416
 9127TIP3   OH227344   5.065   0.800   1.283  0.1093 -0.3509  0.8819
 9127TIP3    H127345   4.993   0.751   1.322 -0.1854 -0.2766  0.4348
 9127TIP3    H227346   5.022   0.869   1.233  0.4368 -1.2025 -0.6224
 9128TIP3   OH227347   3.306   5.511   4.582  0.1168 -0.0934  0.5659
 9128TIP3    H127348   3.327   5.423   4.614  0.0559  0.0132  0.9000
 9128TIP3    H227349   3.219   5.530   4.619 -0.0193 -0.0281  0.2188
 9129TIP3   OH227350   2.357   1.741   0.652 -0.1775  0.1937 -0.0897
 9129TIP3    H127351   2.275   1.739   0.603 -0.8838 -0.9575  1.0701
 9129TIP3    H227352   2.362   1.654   0.692  0.9169  0.7314  0.9739
 9130TIP3   OH227353   1.532   3.970   2.070 -0.2060 -0.6632 -0.1040
 9130TIP3    H127354   1.486   4.000   2.148  1.1534 -1.0640  0.8935
 9130TIP3    H227355   1.465   3.922   2.020 -1.3395  0.4350  0.3116
 9131TIP3   OH227356   4.399   2.945   1.408  0.0659  0.1772 -0.0162
 9131TIP3    H127357   4.340   3.020   1.410  0.2522  0.3148  1.5967
 9131TIP3    H227358   4.341   2.869   1.407 -0.1670  0.3239  0.8933
 9132TIP3   OH227359   6.497   4.551   0.600  0.2713  0.2043 -1.2895
 9132TIP3    H127360   6.565   4.618   0.596  0.0907  0.4887 -0.0428
 9132TIP3    H227361   6.500   4.520   0.691 -0.0421 -1.0635 -1.6946
 9133TIP3   OH227362   0.479   1.676   0.915  0.0166  0.1142 -0.6441
 9133TIP3    H127363   0.523   1.593   0.902 -0.0158  0.0414 -0.3073
 9133TIP3    H227364   0.472   1.685   1.010 -0.8883  0.0195 -0.6918
 9134TIP3   OH227365   0.664   5.108   1.194 -0.0780  0.7226 -0.3501
 9134TIP3    H127366   0.619   5.072   1.117  1.0348  0.3552 -0.8520
 9134TIP3    H227367   0.638   5.200   1.196 -0.4086  0.6457 -0.9536
 9135TIP3   OH227368   3.931   5.659   5.116 -0.0948 -0.3394  0.1074
 9135TIP3    H127369   3.933   5.689   5.026  1.5085 -0.0855  0.1887
 9135TIP3    H227370   3.926   5.563   5.110 -2.1995 -0.2508 -0.1887
 9136TIP3   OH227371   5.056   4.973   3.785 -0.0142  0.0646  0.3917
 9136TIP3    H127372   5.065   4.945   3.694 -0.1058  0.7056  0.1784
 9136TIP3    H227373   5.112   4.913   3.834  0.2943 -0.0823 -0.1246
 9137TIP3   OH227374   6.477   5.543   3.305 -0.1798  0.0406  0.0164
 9137TIP3    H127375   6.408   5.553   3.371  0.1657 -2.1369  0.7823
 9137TIP3    H227376   6.429   5.529   3.223 -0.6609 -0.6428  0.4013
 9138TIP3   OH227377   6.998   2.324   0.716 -0.2829 -0.1168  0.4235
 9138TIP3    H127378   7.012   2.369   0.632  1.1491 -1.5914 -0.1698
 9138TIP3    H227379   7.047   2.376   0.779  0.1147 -0.0034  0.0247
 9139TIP3   OH227380   0.894   4.278   5.050  0.1335  0.1974  1.2776
 9139TIP3    H127381   0.918   4.232   5.130 -0.0152 -0.8196  0.7577
 9139TIP3    H227382   0.866   4.364   5.079  0.9707  0.1645  2.2266
 9140TIP3   OH227383   0.175   1.464   1.856 -0.0836  0.0469  0.2789
 9140TIP3    H127384   0.140   1.552   1.856 -0.3576 -0.0588  0.6100
 9140TIP3    H227385   0.098   1.407   1.858  0.0624 -0.1766  2.3974
 9141TIP3   OH227386   3.554   3.878   4.620 -0.1608  0.1216 -0.2275
 9141TIP3    H127387   3.466   3.855   4.650 -0.2610 -1.4101 -1.5983
 9141TIP3    H227388   3.613   3.833   4.681 -0.2718  1.4852  0.9466
 9142TIP3   OH227389   0.297   0.560   5.210  0.0215  0.4573  0.2775
 9142TIP3    H127390   0.317   0.503   5.136  0.3992  0.6856  0.2015
 9142TIP3    H227391   0.366   0.626   5.209 -0.1258  0.6214  0.6687
 9143TIP3   OH227392   1.383   3.616   0.769  0.2105 -0.1718  0.0467
 9143TIP3    H127393   1.372   3.711   0.776 -1.4885 -0.2270 -1.2611
 9143TIP3    H227394   1.474   3.605   0.744  0.0387  1.2473 -1.4234
 9144TIP3   OH227395   2.700   4.410   0.426 -0.3705  0.3896 -0.7426
 9144TIP3    H127396   2.762   4.425   0.498  0.2538 -0.6585 -1.0446
 9144TIP3    H227397   2.649   4.334   0.454 -0.2701  0.1100 -1.2966
 9145TIP3   OH227398   4.158   3.426   1.284 -0.0076 -0.1521  0.4793
 9145TIP3    H127399   4.184   3.515   1.260  1.4260 -0.9239 -1.0689
 9145TIP3    H227400   4.235   3.390   1.327  0.2704 -1.3272 -0.9111
 9146TIP3   OH227401   5.780   5.571   4.804 -0.5324  0.0616 -0.0709
 9146TIP3    H127402   5.739   5.485   4.792 -0.1856  0.0571 -1.4664
 9146TIP3    H227403   5.731   5.611   4.876 -1.1750 -1.0134  0.1229
 9147TIP3   OH227404   3.396   6.075   0.438 -0.9658 -0.3851 -0.4763
 9147TIP3    H127405   3.447   5.998   0.462  0.4385  0.7081  0.1890
 9147TIP3    H227406   3.318   6.071   0.494 -0.0098 -0.3549  0.9089
 9148TIP3   OH227407   3.270   2.393   4.936 -0.0794  0.0944 -0.6663
 9148TIP3    H127408   3.364   2.385   4.919 -0.0576 -1.0103 -0.1337
 9148TIP3    H227409   3.262   2.467   4.995  0.2121  1.6264 -2.4352
 9149TIP3   OH227410   1.554   5.831   3.281  0.5063 -0.0576 -0.0029
 9149TIP3    H127411   1.564   5.863   3.370  1.4302 -0.8089  0.1772
 9149TIP3    H227412   1.634   5.783   3.263 -0.0012 -0.5911 -0.9643
 9150TIP3   OH227413   1.447   0.564   3.056  0.7955  0.5033 -0.7654
 9150TIP3    H127414   1.359   0.593   3.081  0.7949 -0.9113  1.1005
 9150TIP3    H227415   1.459   0.482   3.104  2.3726 -0.3934 -2.5780
 9151TIP3   OH227416   6.676   0.964   4.382  0.0080 -0.1160  0.0222
 9151TIP3    H127417   6.772   0.961   4.388 -0.0047 -0.3507  0.0841
 9151TIP3    H227418   6.654   1.054   4.408  0.2404  0.0548 -0.3579
 9152TIP3   OH227419   6.067   3.035   3.291  0.2420 -0.1916  0.0887
 9152TIP3    H127420   6.135   3.016   3.226  0.3296  0.5802 -0.0605
 9152TIP3    H227421   6.115   3.075   3.364  0.0133 -0.0932  0.1862
 9153TIP3   OH227422   0.343   6.000   4.581  0.4849 -0.2099  0.3333
 9153TIP3    H127423   0.306   5.947   4.651 -2.2827 -0.3070 -1.0771
 9153TIP3    H227424   0.404   6.059   4.626 -1.0504 -0.3464  2.7891
 9154TIP3   OH227425   4.721   0.618   1.242 -0.5415 -0.2823 -0.4808
 9154TIP3    H127426   4.673   0.669   1.307 -0.3750 -0.1576 -0.4571
 9154TIP3    H227427   4.678   0.532   1.243  0.3996 -0.7562  0.8500
 9155TIP3   OH227428   0.407   5.316   3.630 -0.3022  0.2559 -0.3435
 9155TIP3    H127429   0.356   5.292   3.708 -0.2803  1.7094  0.1423
 9155TIP3    H227430   0.370   5.399   3.602  1.2769  0.9537 -0.4436
 9156TIP3   OH227431   7.188   6.576   4.372  0.2988 -0.2135 -0.1165
 9156TIP3    H127432   7.271   6.532   4.357  0.1045 -0.7236  0.2762
 9156TIP3    H227433   7.142   6.520   4.435  0.4159  0.9952  1.1013
 9157TIP3   OH227434   6.195   4.618   0.583  0.6067  0.1613 -0.2753
 9157TIP3    H127435   6.158   4.542   0.628 -2.0029  1.1961 -0.4776
 9157TIP3    H227436   6.275   4.638   0.631  0.7521 -2.0168  0.4706
 9158TIP3   OH227437   0.727   0.691   5.176 -0.3881 -0.6208  0.3704
 9158TIP3    H127438   0.735   0.710   5.083 -1.1573 -0.2573  0.3700
 9158TIP3    H227439   0.675   0.610   5.179  0.5050 -1.2087  0.4611
 9159TIP3   OH227440   4.704   3.571   4.810 -0.5063 -0.2424 -0.2978
 9159TIP3    H127441   4.798   3.557   4.798 -0.3879 -0.3198  0.6848
 9159TIP3    H227442   4.691   3.663   4.786 -0.3404 -0.4726 -1.3040
 9160TIP3   OH227443   1.432   2.363   5.828  0.5400  0.2782  0.7021
 9160TIP3    H127444   1.391   2.277   5.819  1.6846 -0.3695  1.3786
 9160TIP3    H227445   1.389   2.417   5.762 -0.2648 -0.7854  0.3219
 9161TIP3   OH227446   5.626   0.294   0.572  0.7384 -0.3699 -0.5356
 9161TIP3    H127447   5.540   0.312   0.611  0.9046 -1.4473  0.3883
 9161TIP3    H227448   5.611   0.294   0.478 -0.3287 -0.7736 -0.3750
 9162TIP3   OH227449   0.510   0.845   1.348  0.3369  0.3137  0.1761
 9162TIP3    H127450   0.534   0.775   1.409  0.8532 -0.4816 -0.9123
 9162TIP3    H227451   0.524   0.807   1.262  0.1075  1.5950 -0.4415
 9163TIP3   OH227452   5.997   6.148   4.120  0.5162 -0.1033  0.3284
 9163TIP3    H127453   6.038   6.233   4.137 -1.3731  0.8966  0.1836
 9163TIP3    H227454   5.999   6.139   4.025 -1.9061  1.2655  0.0541
 9164TIP3   OH227455   3.330   4.897   2.574 -0.1703  0.4743 -0.5451
 9164TIP3    H127456   3.281   4.967   2.531 -1.6170  0.8620  1.5602
 9164TIP3    H227457   3.421   4.911   2.549 -0.0655  4.3716  1.2906
 9165TIP3   OH227458   5.532   0.766   3.157  0.5150  0.2706  0.2399
 9165TIP3    H127459   5.490   0.712   3.090 -0.3614 -0.4330  1.3147
 9165TIP3    H227460   5.476   0.756   3.234  1.1395  1.5752  0.8932
 9166TIP3   OH227461   2.996   0.350   0.343  0.1326  0.0285  0.0260
 9166TIP3    H127462   2.975   0.407   0.268 -0.1603 -1.6250 -1.1909
 9166TIP3    H227463   2.917   0.353   0.398 -0.0335  0.4818 -0.2288
 9167TIP3   OH227464   4.196   0.132   4.196 -0.5368 -0.0281  0.2232
 9167TIP3    H127465   4.151   0.124   4.112  1.2789 -1.9222 -0.6571
 9167TIP3    H227466   4.253   0.208   4.185  1.2961 -1.5089 -1.1555
 9168TIP3   OH227467   7.064   2.551   1.597  0.2671  0.4399  0.3705
 9168TIP3    H127468   6.997   2.619   1.601 -0.1814 -0.0170  0.9643
 9168TIP3    H227469   7.142   2.591   1.634  0.2663  0.9154 -0.1396
 9169TIP3   OH227470   0.215   4.614   4.410  0.1211  0.3379  0.2211
 9169TIP3    H127471   0.205   4.614   4.505 -0.3783  2.0469  0.1908
 9169TIP3    H227472   0.126   4.609   4.376  0.3220 -0.9367 -0.1971
 9170TIP3   OH227473   0.449   1.992   5.296  0.2890  0.1521 -0.1004
 9170TIP3    H127474   0.516   2.053   5.326  1.2615 -0.6936 -0.4918
 9170TIP3    H227475   0.399   1.972   5.375  2.1818 -1.2528  0.8246
 9171TIP3   OH227476   5.522   0.057   5.095 -0.0748 -0.2865  0.2405
 9171TIP3    H127477   5.525   0.143   5.053 -0.0032 -0.0307  0.7654
 9171TIP3    H227478   5.492   0.074   5.184 -0.7714 -0.8936  0.1274
 9172TIP3   OH227479   3.939   5.748   4.853  0.1795 -0.2908  0.6665
 9172TIP3    H127480   3.906   5.671   4.806  1.3066 -0.6944  0.4930
 9172TIP3    H227481   3.917   5.822   4.797 -0.6668 -0.5077  0.6987
 9173TIP3   OH227482   6.140   2.855   1.859 -0.0519 -0.2722  0.5523
 9173TIP3    H127483   6.048   2.877   1.846 -0.6523 -2.7670 -0.0629
 9173TIP3    H227484   6.142   2.804   1.940  0.5288 -1.3699 -0.1199
 9174TIP3   OH227485   6.792   1.333   4.212 -0.3429 -0.4210  0.1308
 9174TIP3    H127486   6.795   1.428   4.220  1.5441 -0.5387  1.5721
 9174TIP3    H227487   6.717   1.307   4.265 -0.2249  0.2229  0.6327
 9175TIP3   OH227488   6.144   2.198   0.930  0.1342  0.6756  0.0025
 9175TIP3    H127489   6.181   2.114   0.956  1.7530  0.6542 -2.1067
 9175TIP3    H227490   6.080   2.176   0.862 -2.0378  0.9403  1.8418
 9176TIP3   OH227491   6.294   1.154   0.038 -0.4111 -0.3802  0.0974
 9176TIP3    H127492   6.212   1.148   0.086 -0.8798 -0.2791 -0.6750
 9176TIP3    H227493   6.346   1.080   0.070 -1.0208 -0.7779  0.1768
 9177TIP3   OH227494   0.333   2.839   1.133  0.1660 -0.0221  0.4002
 9177TIP3    H127495   0.407   2.780   1.143  1.2848  1.6773  3.5325
 9177TIP3    H227496   0.275   2.818   1.206 -0.0584  1.7840  0.7920
 9178TIP3   OH227497   0.064   1.720   0.859 -0.0309 -0.1922 -0.2727
 9178TIP3    H127498  -0.011   1.751   0.911 -0.2680 -1.0393 -0.1004
 9178TIP3    H227499   0.025   1.664   0.792  0.4026 -0.1583 -0.5561
 9179TIP3   OH227500   4.618   0.482   4.275  0.2444  0.0826 -0.2080
 9179TIP3    H127501   4.693   0.441   4.320  0.7890 -0.8474 -1.8664
 9179TIP3    H227502   4.565   0.517   4.346  0.9086 -1.5426  1.1992
 9180TIP3   OH227503   0.138   4.261   0.525 -0.2686  0.7111 -1.0650
 9180TIP3    H127504   0.209   4.198   0.518 -1.4240 -0.7432 -0.2504
 9180TIP3    H227505   0.154   4.308   0.606 -0.2715  0.3450 -0.8537
 9181TIP3   OH227506   5.612   0.725   5.690 -0.5492 -0.3652 -0.5504
 9181TIP3    H127507   5.618   0.747   5.597 -1.2820 -0.3440 -0.6003
 9181TIP3    H227508   5.595   0.631   5.691 -0.3317 -0.4028 -0.4324
 9182TIP3   OH227509   3.353   5.681   4.156  0.3844 -0.1106 -0.2801
 9182TIP3    H127510   3.287   5.668   4.088 -0.2464 -1.4606  0.5341
 9182TIP3    H227511   3.390   5.594   4.171 -0.3534 -0.1320  1.8980
 9183TIP3   OH227512   1.747   3.016   3.121 -0.2959 -0.1219  0.4200
 9183TIP3    H127513   1.782   2.929   3.141  0.1112  0.5607  3.0141
 9183TIP3    H227514   1.699   3.042   3.199  0.6225  2.4818  0.2304
 9184TIP3   OH227515   3.787   3.626   5.617  0.0979  0.2425 -0.1611
 9184TIP3    H127516   3.700   3.586   5.612  0.5051 -0.5711 -3.2198
 9184TIP3    H227517   3.845   3.553   5.641  0.1518  0.3034 -0.1088
 9185TIP3   OH227518   2.981   5.783   3.631  0.5194  0.0908  0.2048
 9185TIP3    H127519   2.889   5.771   3.652  0.4556  0.5355  0.1849
 9185TIP3    H227520   3.027   5.717   3.684  0.1867 -0.1757  0.1590
 9186TIP3   OH227521   7.118   4.020   1.363 -0.0276 -0.0399 -0.5423
 9186TIP3    H127522   7.211   4.032   1.347 -0.2341  0.3875 -1.5456
 9186TIP3    H227523   7.089   4.104   1.398  0.0604 -0.3420  0.2565
 9187TIP3   OH227524   1.926   0.840   3.612 -0.0315 -0.3582  0.0467
 9187TIP3    H127525   1.970   0.884   3.539 -1.7754  1.8077  0.2058
 9187TIP3    H227526   1.995   0.829   3.677  0.5950  1.8302 -0.1775
 9188TIP3   OH227527   5.156   3.585   2.337 -0.7733 -0.1559 -0.2644
 9188TIP3    H127528   5.183   3.493   2.327 -0.6742 -0.1697  0.1265
 9188TIP3    H227529   5.222   3.635   2.289  0.9181 -0.0531  2.0095
 9189TIP3   OH227530   4.047   0.418   1.857  0.5941 -0.4527 -0.1949
 9189TIP3    H127531   4.019   0.327   1.846  0.0610 -0.0328 -2.8030
 9189TIP3    H227532   3.969   0.464   1.888  0.5749 -0.6711  0.0872
 9190TIP3   OH227533   0.298   2.315   1.650  0.5136  0.4424  0.1148
 9190TIP3    H127534   0.266   2.352   1.732 -1.1071 -0.3100 -0.1329
 9190TIP3    H227535   0.372   2.261   1.675 -0.6859 -0.7446  1.2940
 9191TIP3   OH227536   6.006   2.236   0.234 -0.0588  0.0490  0.3525
 9191TIP3    H127537   5.962   2.296   0.294  0.0329  0.9796 -0.4859
 9191TIP3    H227538   5.937   2.177   0.203 -0.2838  0.1541  0.6494
 9192TIP3   OH227539   4.983   0.832   5.600 -0.1457 -0.1155  0.3906
 9192TIP3    H127540   4.992   0.744   5.637  0.8967 -0.0255  0.3853
 9192TIP3    H227541   5.035   0.887   5.659  1.1082  0.1143 -0.8829
 9193TIP3   OH227542   0.503   4.305   3.701  0.0132 -0.1424 -0.0807
 9193TIP3    H127543   0.510   4.256   3.783 -0.1010  1.3561  0.8653
 9193TIP3    H227544   0.411   4.328   3.695  0.1672  0.4598 -0.1922
 9194TIP3   OH227545   0.924   1.291   2.805 -0.4619  0.3398 -0.1978
 9194TIP3    H127546   0.925   1.385   2.822  0.3036  0.4741 -0.9286
 9194TIP3    H227547   0.966   1.281   2.719 -1.4417 -0.5779 -0.5997
 9195TIP3   OH227548   4.978   6.055   1.696  0.3602  0.4489 -0.2624
 9195TIP3    H127549   5.001   5.977   1.645  0.5099 -0.1781  0.7149
 9195TIP3    H227550   4.913   6.101   1.643  1.0228  0.1927 -1.3140
 9196TIP3   OH227551   4.881  -0.015   5.097 -0.2404 -0.1018  0.0558
 9196TIP3    H127552   4.971  -0.035   5.122  0.4383  1.2967 -1.1567
 9196TIP3    H227553   4.884   0.074   5.061 -2.6200  1.2095  2.6846
 9197TIP3   OH227554   7.000   3.293   1.067  0.2918 -0.2140 -0.7661
 9197TIP3    H127555   7.046   3.371   1.037  0.1162  0.6238  1.0286
 9197TIP3    H227556   6.934   3.276   0.999 -0.4769  1.9095 -0.6074
 9198TIP3   OH227557   2.964   4.497   3.022  0.4475  0.2209 -0.4147
 9198TIP3    H127558   3.004   4.435   3.083 -0.6622  1.0644  1.2644
 9198TIP3    H227559   2.940   4.445   2.945  5.4160 -0.2239 -2.0074
 9199TIP3   OH227560   6.148   3.535   2.545 -0.2681  0.1473  0.4497
 9199TIP3    H127561   6.173   3.580   2.465 -4.8120  3.7687  0.6083
 9199TIP3    H227562   6.154   3.603   2.613 -3.3357 -0.5708  1.5986
 9200TIP3   OH227563   0.315   3.072   4.222  0.4589  0.3455 -0.4802
 9200TIP3    H127564   0.291   3.148   4.168 -1.0909 -0.8259 -1.5280
 9200TIP3    H227565   0.317   3.106   4.311 -1.7408  1.3321 -0.7360
 9201TIP3   OH227566   6.948   5.295   0.871  0.0053 -0.2800  0.4392
 9201TIP3    H127567   6.859   5.324   0.852 -0.0908 -1.1245 -0.4944
 9201TIP3    H227568   6.954   5.299   0.966 -0.3284  1.7503  0.4133
 9202TIP3   OH227569   4.179   4.317   5.787 -0.1468 -0.0870 -0.2898
 9202TIP3    H127570   4.185   4.375   5.863 -2.2130  0.8745 -0.8054
 9202TIP3    H227571   4.165   4.229   5.824 -0.5822  0.2893  0.4507
 9203TIP3   OH227572   1.766   3.517   1.751  0.4828 -0.7801 -0.1433
 9203TIP3    H127573   1.762   3.429   1.787 -1.6107  0.6236  3.5863
 9203TIP3    H227574   1.837   3.560   1.799 -0.2057  0.2577 -0.0275
 9204TIP3   OH227575   4.973   0.460   3.211  0.0224  0.8884  0.4949
 9204TIP3    H127576   4.969   0.370   3.244  2.3933  0.2907 -0.6302
 9204TIP3    H227577   4.890   0.471   3.163  0.4958 -1.4592 -1.0435
 9205TIP3   OH227578   4.931   3.281   2.365  0.1834 -0.2632 -0.5041
 9205TIP3    H127579   4.842   3.304   2.393  0.0530 -0.6738 -0.5754
 9205TIP3    H227580   4.984   3.291   2.445 -0.2334 -1.6756 -0.0176
 9206TIP3   OH227581   5.874   2.608   4.612  0.0619 -0.1490 -0.4013
 9206TIP3    H127582   5.891   2.515   4.597 -1.6946 -0.2127 -2.5877
 9206TIP3    H227583   5.936   2.653   4.555  1.0441  0.0503  0.8042
 9207TIP3   OH227584   0.683   6.302   4.763 -0.0879 -0.6206  0.5874
 9207TIP3    H127585   0.710   6.240   4.695  1.5877 -0.9558  1.5225
 9207TIP3    H227586   0.764   6.336   4.799 -0.9703  0.9608  1.1790
 9208TIP3   OH227587   3.362   6.568   2.823 -0.0690 -0.0570 -0.3199
 9208TIP3    H127588   3.419   6.566   2.745 -0.5462  1.9536 -0.8036
 9208TIP3    H227589   3.310   6.488   2.817  1.0786 -0.7832 -1.1386
 9209TIP3   OH227590   1.157   6.482   4.134 -0.0567  0.1979  0.1133
 9209TIP3    H127591   1.168   6.576   4.150 -1.1887  0.1993  1.0224
 9209TIP3    H227592   1.245   6.450   4.118  0.2881  1.5220 -0.8596
 9210TIP3   OH227593   2.798   5.104   3.655 -0.2774  0.5375 -0.5334
 9210TIP3    H127594   2.728   5.122   3.719 -0.4458  0.8281 -0.7981
 9210TIP3    H227595   2.752   5.067   3.580  0.2010 -2.7652  0.6291
 9211TIP3   OH227596   5.990   1.574   2.071  0.8240  0.2382 -0.1139
 9211TIP3    H127597   5.983   1.630   1.994  0.7869  0.7959  0.2901
 9211TIP3    H227598   6.073   1.600   2.112  2.8901 -2.7105 -2.0276
 9212TIP3   OH227599   4.107   3.274   0.135  0.1009  0.0947  0.3941
 9212TIP3    H127600   4.111   3.185   0.100  0.6755  0.3082 -0.0963
 9212TIP3    H227601   4.083   3.263   0.227  0.2972 -0.5721  0.3704
 9213TIP3   OH227602   2.466   5.888   3.200  0.6648  0.1278 -0.3950
 9213TIP3    H127603   2.428   5.888   3.288  1.6370 -0.3306  0.0500
 9213TIP3    H227604   2.393   5.868   3.142  0.2181 -0.7591  0.4298
 9214TIP3   OH227605   1.063   1.116   0.528 -0.1057 -0.3066 -0.2709
 9214TIP3    H127606   0.988   1.134   0.584  1.2149  0.6183  1.2662
 9214TIP3    H227607   1.056   1.022   0.508 -0.5471 -0.7104  1.5762
 9215TIP3   OH227608   3.632   4.304   5.622  0.6012 -0.0518 -0.2137
 9215TIP3    H127609   3.594   4.353   5.549 -0.4906  0.0518  0.4007
 9215TIP3    H227610   3.623   4.363   5.697 -0.6321 -1.1235  0.5114
 9216TIP3   OH227611   0.915   2.434   3.472 -0.3228 -0.3554  0.3610
 9216TIP3    H127612   0.891   2.510   3.525  0.1660  0.3095 -0.3432
 9216TIP3    H227613   0.960   2.376   3.533  1.9173  1.2274  0.3296
 9217TIP3   OH227614   2.347   2.540   2.477 -0.0428 -0.1934  0.3637
 9217TIP3    H127615   2.432   2.583   2.481 -0.1285  0.3330 -2.2044
 9217TIP3    H227616   2.288   2.601   2.521  0.7139 -0.1898  1.4388
 9218TIP3   OH227617   3.429   5.442   1.010  0.1468 -0.8997 -0.2919
 9218TIP3    H127618   3.432   5.360   0.960  0.1256 -0.4708 -1.0071
 9218TIP3    H227619   3.520   5.472   1.011  0.0076 -0.4167 -0.9226
 9219TIP3   OH227620   5.315   6.395   2.088  0.3276  0.1849 -0.4647
 9219TIP3    H127621   5.406   6.421   2.103  0.3914  0.2093 -0.8640
 9219TIP3    H227622   5.266   6.435   2.159  1.0934 -2.8402  2.0049
 9220TIP3   OH227623   6.726   3.333   3.811  0.1519 -0.2088 -0.2317
 9220TIP3    H127624   6.668   3.384   3.754 -0.0515 -0.3655 -0.1675
 9220TIP3    H227625   6.737   3.387   3.889 -1.0507 -0.7882  0.3579
 9221TIP3   OH227626   3.188   2.972   3.963  0.0673 -0.4689  0.2889
 9221TIP3    H127627   3.140   3.010   3.890  0.5973 -0.1349  0.1137
 9221TIP3    H227628   3.120   2.950   4.027 -0.1660  2.1614  1.0719
 9222TIP3   OH227629   6.492   0.023   0.260 -0.0928  0.5685  0.6078
 9222TIP3    H127630   6.508   0.117   0.255  0.4351  0.4687  0.2916
 9222TIP3    H227631   6.397   0.013   0.254 -0.0789  1.0170 -0.4179
 9223TIP3   OH227632   1.728   3.268   2.178 -0.3710  0.0955 -0.3068
 9223TIP3    H127633   1.700   3.245   2.267  0.3993  1.1225  0.2302
 9223TIP3    H227634   1.690   3.355   2.163 -0.5551 -0.1024 -1.0175
 9224TIP3   OH227635   2.128   2.217   5.499  0.3812  0.2096 -0.0056
 9224TIP3    H127636   2.041   2.222   5.540  0.3419 -0.6526  0.0268
 9224TIP3    H227637   2.189   2.225   5.572  0.3297  0.8215 -0.0287
 9225TIP3   OH227638   0.073   6.284   1.242 -0.3732  0.0019 -0.0537
 9225TIP3    H127639   0.093   6.224   1.170  2.5482  0.4047  0.2968
 9225TIP3    H227640   0.007   6.238   1.293 -0.5187 -1.5139 -1.5030
 9226TIP3   OH227641   1.849   4.843   1.565  0.8806  0.2009  0.0722
 9226TIP3    H127642   1.852   4.800   1.480  0.4046  0.2911  0.0068
 9226TIP3    H227643   1.861   4.936   1.546  0.9787  0.1976  0.1199
 9227TIP3   OH227644   3.920   1.272   4.795  0.2998 -0.0338 -0.2452
 9227TIP3    H127645   3.958   1.193   4.757  1.1717  0.5149 -0.5534
 9227TIP3    H227646   3.825   1.260   4.787  0.3830 -1.4214  0.4900
 9228TIP3   OH227647   4.331   0.181   0.995  0.4427  0.2339  0.1658
 9228TIP3    H127648   4.349   0.087   0.999 -1.7394 -0.2052  1.3411
 9228TIP3    H227649   4.374   0.217   1.073 -0.3434 -0.1527  0.8000
 9229TIP3   OH227650   1.002   1.885   0.608 -0.2585 -0.0233 -0.4549
 9229TIP3    H127651   1.045   1.880   0.694  0.3650 -0.3437 -0.7767
 9229TIP3    H227652   0.959   1.800   0.598 -0.9599  0.2915 -0.1411
 9230TIP3   OH227653   3.994   2.675   5.703 -0.1040 -0.2164 -0.3939
 9230TIP3    H127654   4.074   2.681   5.755  0.1352  0.4123 -0.8201
 9230TIP3    H227655   3.924   2.679   5.767  0.2011 -1.2896  0.0268
 9231TIP3   OH227656   1.541   3.402   1.916  0.2076 -0.5075 -0.2075
 9231TIP3    H127657   1.461   3.352   1.934 -0.5890  1.0109  0.6106
 9231TIP3    H227658   1.609   3.335   1.906 -1.2211 -1.8757 -1.4213
 9232TIP3   OH227659   2.764   4.184   2.103 -0.0911 -0.1119 -0.6683
 9232TIP3    H127660   2.757   4.107   2.046  0.3988  0.9059 -2.1629
 9232TIP3    H227661   2.762   4.148   2.192 -0.8544 -1.7559 -1.3101
 9233TIP3   OH227662   6.347   4.162   2.525  0.6390 -0.1732  0.1079
 9233TIP3    H127663   6.271   4.203   2.567  0.0609 -1.5957  0.5215
 9233TIP3    H227664   6.342   4.189   2.434  0.0337  0.3148  0.2803
 9234TIP3   OH227665   7.171   4.296   3.840 -0.3187 -0.1660 -0.1995
 9234TIP3    H127666   7.209   4.211   3.817  1.0783  1.2743 -3.8621
 9234TIP3    H227667   7.082   4.275   3.867  0.7904 -2.9838  1.8995
 9235TIP3   OH227668   2.420   4.823   4.717 -0.1641  0.6081 -0.7389
 9235TIP3    H127669   2.475   4.862   4.650  0.8977 -1.6990 -1.3268
 9235TIP3    H227670   2.441   4.729   4.714 -3.5881 -0.3205 -0.4792
 9236TIP3   OH227671   6.614   3.314   4.417 -0.1529 -0.6084  0.3225
 9236TIP3    H127672   6.572   3.386   4.464  0.2548 -0.1519 -0.0002
 9236TIP3    H227673   6.610   3.240   4.477  2.6742  0.5874  2.1759
 9237TIP3   OH227674   4.551   5.957   0.198 -0.1830  0.5471 -0.3836
 9237TIP3    H127675   4.638   5.933   0.166 -0.0205  1.5341 -0.7273
 9237TIP3    H227676   4.491   5.925   0.130 -0.1652 -0.7520  0.1848
 9238TIP3   OH227677   0.610   1.323   3.376 -0.4027  0.5250  0.6503
 9238TIP3    H127678   0.575   1.312   3.465 -0.9517  0.7790  0.4701
 9238TIP3    H227679   0.582   1.245   3.329 -1.9353  1.3390  0.1306
 9239TIP3   OH227680   0.543   1.103   1.206  0.4223 -0.1697  0.6863
 9239TIP3    H127681   0.577   1.017   1.232  1.5169  0.3223  0.9301
 9239TIP3    H227682   0.493   1.133   1.282  0.4866 -0.3552  0.8024
 9240TIP3   OH227683   0.616   5.727   5.598 -0.2664 -0.6638 -0.5109
 9240TIP3    H127684   0.521   5.715   5.610 -0.3008  0.4547  0.4451
 9240TIP3    H227685   0.635   5.810   5.640  1.3615 -1.4463  0.3598
 9241TIP3   OH227686   5.276   3.148   5.522  0.0573  0.2940 -0.2476
 9241TIP3    H127687   5.232   3.217   5.474 -0.6968  0.7450  1.0460
 9241TIP3    H227688   5.262   3.069   5.469  0.1924  0.9561 -1.2961
 9242TIP3   OH227689   2.237   0.905   2.669  0.1818 -0.0950 -0.6706
 9242TIP3    H127690   2.312   0.951   2.631  0.3477 -0.4596 -0.7870
 9242TIP3    H227691   2.191   0.972   2.719  2.2670 -0.4970  2.0021
 9243TIP3   OH227692   0.863   0.599   5.397  0.2041 -0.5207  0.0656
 9243TIP3    H127693   0.800   0.649   5.346  1.5684  1.7860  0.4700
 9243TIP3    H227694   0.827   0.511   5.402 -2.7781  0.6009  0.0068
 9244TIP3   OH227695   0.666   0.292   1.037  0.2464  0.8536  0.1289
 9244TIP3    H127696   0.590   0.348   1.051 -0.3423 -0.3669  2.1652
 9244TIP3    H227697   0.741   0.352   1.041 -0.5342  2.0507 -1.8050
 9245TIP3   OH227698   6.545   5.879   2.398 -0.6330  0.3372 -0.0081
 9245TIP3    H127699   6.634   5.869   2.431 -0.7470  0.8555  0.4703
 9245TIP3    H227700   6.499   5.801   2.429 -0.3614  0.0928 -0.2136
 9246TIP3   OH227701   6.753   4.982   1.790  0.3273 -0.6099 -1.1784
 9246TIP3    H127702   6.837   5.028   1.789  0.8669 -1.5602 -2.0849
 9246TIP3    H227703   6.776   4.889   1.799 -0.6716 -0.8251 -0.6100
 9247TIP3   OH227704   1.690   4.234   5.682 -0.1636  0.5093  0.4675
 9247TIP3    H127705   1.785   4.243   5.672 -0.1437  0.1344  0.2769
 9247TIP3    H227706   1.654   4.280   5.606 -0.1195  0.2874  0.3122
 9248TIP3   OH227707   5.402   2.486   5.258 -0.2783 -0.0308  0.4365
 9248TIP3    H127708   5.436   2.477   5.347  0.1628  1.4505  0.4549
 9248TIP3    H227709   5.350   2.566   5.261 -1.1315 -0.5452 -0.3891
 9249TIP3   OH227710   2.802   4.722   5.227  0.6711 -0.3477 -0.0716
 9249TIP3    H127711   2.861   4.780   5.274  0.2679 -0.6214  0.8010
 9249TIP3    H227712   2.831   4.634   5.251  1.3260 -0.5198 -1.4405
 9250TIP3   OH227713   6.675   6.104   3.293  0.3188 -0.1136 -0.0637
 9250TIP3    H127714   6.680   6.185   3.243  0.5263 -1.3865 -2.1863
 9250TIP3    H227715   6.748   6.051   3.262  0.6257 -0.8765  1.7975
 9251TIP3   OH227716   3.738   6.510   1.622  0.4836  0.2195  0.1465
 9251TIP3    H127717   3.666   6.475   1.570  0.1077  1.0469  0.0925
 9251TIP3    H227718   3.811   6.518   1.560  0.0556  1.1453 -0.2517
 9252TIP3   OH227719   3.077   0.700   3.823  0.7671  0.1671  0.3583
 9252TIP3    H127720   3.004   0.676   3.766  0.1294 -0.3459  1.3744
 9252TIP3    H227721   3.148   0.641   3.796  1.3940  1.7512 -1.7499
 9253TIP3   OH227722   6.967   0.018   3.212  0.2156  0.3450  0.0222
 9253TIP3    H127723   6.907   0.028   3.138  0.2198  0.0404 -0.0241
 9253TIP3    H227724   6.911  -0.004   3.286  0.3258 -0.6907 -0.1795
 9254TIP3   OH227725   0.983   2.193   4.679  0.4119 -0.1884  0.2417
 9254TIP3    H127726   0.893   2.223   4.686  0.2441 -0.7344  0.5719
 9254TIP3    H227727   0.998   2.181   4.586 -0.0067 -0.5218  0.2162
 9255TIP3   OH227728   3.944   0.821   0.555  0.4464 -0.4403  0.0880
 9255TIP3    H127729   3.997   0.899   0.574 -0.6379  0.2307  0.4116
 9255TIP3    H227730   3.915   0.835   0.465 -0.3122 -0.1313  0.3775
 9256TIP3   OH227731   0.677   5.829   5.346  0.1064  0.0076 -0.7976
 9256TIP3    H127732   0.637   5.763   5.403 -0.0513  0.1534 -0.7374
 9256TIP3    H227733   0.732   5.881   5.404 -1.0055  0.9342 -0.5262
 9257TIP3   OH227734   6.905   3.833   2.056  0.1907 -0.4241  0.4705
 9257TIP3    H127735   6.934   3.922   2.075  1.5501 -0.7219 -0.1175
 9257TIP3    H227736   6.853   3.808   2.133 -1.4219  1.3395  0.0406
 9258TIP3   OH227737   3.804   0.289   3.663 -0.1523  0.1406 -0.0774
 9258TIP3    H127738   3.858   0.301   3.741 -0.0555 -0.4161 -0.0502
 9258TIP3    H227739   3.740   0.360   3.666 -1.5018 -1.0572  1.6513
 9259TIP3   OH227740   6.537   6.421   0.096  0.2778  0.0937  0.1953
 9259TIP3    H127741   6.472   6.437   0.028 -0.1120 -0.3000  0.4675
 9259TIP3    H227742   6.530   6.496   0.155  2.2091  1.6307 -1.3833
 9260TIP3   OH227743   4.835   6.790   5.709 -0.1542 -0.4369 -0.0938
 9260TIP3    H127744   4.864   6.860   5.651  0.1954 -0.5225 -0.0274
 9260TIP3    H227745   4.771   6.741   5.658 -0.5770  0.0722 -0.0543
 9261TIP3   OH227746   0.207   5.466   4.974 -0.2133 -0.0017  0.6112
 9261TIP3    H127747   0.258   5.489   4.896 -0.4932 -0.7215  0.2042
 9261TIP3    H227748   0.148   5.540   4.987  0.7516  0.7325  0.9461
 9262TIP3   OH227749   2.003   0.909   2.441 -0.0857  0.1208  0.2172
 9262TIP3    H127750   1.946   0.912   2.519  0.5877  3.8939  0.7668
 9262TIP3    H227751   2.092   0.909   2.477  0.2357  2.0696 -0.4526
 9263TIP3   OH227752   6.594   6.437   2.655  0.0174 -0.3008 -0.5212
 9263TIP3    H127753   6.560   6.490   2.726  2.3348 -1.7373  1.8629
 9263TIP3    H227754   6.545   6.355   2.661  0.4357 -0.5411 -0.3446
 9264TIP3   OH227755   4.597   2.194   3.654  0.3187  0.2454 -0.0777
 9264TIP3    H127756   4.691   2.214   3.651  0.0968  1.2738 -0.7619
 9264TIP3    H227757   4.584   2.156   3.740  1.5138 -0.7058 -0.2930
 9265TIP3   OH227758   6.154   4.021   0.928 -0.1069 -0.3600 -0.6270
 9265TIP3    H127759   6.066   4.035   0.963 -0.0449 -1.3031 -0.0620
 9265TIP3    H227760   6.212   4.063   0.992  0.0799 -3.0305  1.0739
 9266TIP3   OH227761   6.252   4.064   5.640 -0.1161 -0.0606 -0.2222
 9266TIP3    H127762   6.245   3.999   5.709  0.3257 -0.8133 -0.8674
 9266TIP3    H227763   6.259   4.148   5.685 -0.5952 -0.4673  0.6222
 9267TIP3   OH227764   1.411   0.457   4.167 -0.2191  0.2430  0.5354
 9267TIP3    H127765   1.466   0.470   4.244 -0.3658  1.4242  0.4621
 9267TIP3    H227766   1.470   0.420   4.101  0.1199  0.0747  0.9310
 9268TIP3   OH227767   1.607   5.439   3.236 -0.2569 -0.0484 -0.1143
 9268TIP3    H127768   1.531   5.383   3.251  0.6903 -1.6405 -1.0761
 9268TIP3    H227769   1.574   5.509   3.180 -1.1706 -0.2864  0.0999
 9269TIP3   OH227770   0.531   3.523   0.227  0.5152  0.2522  0.3586
 9269TIP3    H127771   0.473   3.468   0.279 -0.3434  0.5334 -0.2777
 9269TIP3    H227772   0.619   3.491   0.247  0.0055 -2.3933 -1.1120
 9270TIP3   OH227773   4.531   1.998   2.208  0.0162 -0.3470  0.1352
 9270TIP3    H127774   4.605   1.968   2.261 -0.5964 -0.7952  0.7473
 9270TIP3    H227775   4.552   2.090   2.190  0.0695 -0.0734  1.4741
 9271TIP3   OH227776   6.689   6.539   4.755  0.1938 -0.4765  0.0208
 9271TIP3    H127777   6.644   6.475   4.810  0.1616 -0.2978  0.2050
 9271TIP3    H227778   6.633   6.550   4.679 -0.5770  0.4791  0.6988
 9272TIP3   OH227779   6.892   2.322   4.865 -0.2611 -0.3687 -0.2720
 9272TIP3    H127780   6.857   2.342   4.778 -0.2764  0.9928  0.0289
 9272TIP3    H227781   6.919   2.406   4.900 -0.4097 -0.8811  1.1244
 9273TIP3   OH227782   5.284   6.744   4.997 -0.1549  0.0615  0.7116
 9273TIP3    H127783   5.265   6.780   4.910 -0.6161 -0.6320  0.5126
 9273TIP3    H227784   5.238   6.660   4.998  1.1613 -0.6751  1.0455
 9274TIP3   OH227785   4.201   6.725   2.206  0.5200  0.0015  0.0263
 9274TIP3    H127786   4.219   6.680   2.124 -0.2070  0.3743 -0.3421
 9274TIP3    H227787   4.106   6.726   2.214  0.4799  1.9422 -0.2670
 9275TIP3   OH227788   6.158   6.141   4.406  0.2120  0.5550 -0.3534
 9275TIP3    H127789   6.062   6.146   4.403  0.0761 -0.7896  0.6745
 9275TIP3    H227790   6.182   6.099   4.324 -0.2971 -1.1430  0.3202
 9276TIP3   OH227791   1.028   3.583   2.549 -0.1248  0.0875 -0.0176
 9276TIP3    H127792   0.963   3.575   2.479  2.0509  1.5208 -2.3934
 9276TIP3    H227793   1.046   3.677   2.555 -0.4069  0.0453  2.7542
 9277TIP3   OH227794   0.589   6.173   1.333  0.5892 -0.0139  0.1010
 9277TIP3    H127795   0.613   6.259   1.366  0.1062  0.0961  0.1742
 9277TIP3    H227796   0.498   6.182   1.306  1.0127 -0.0613 -1.4069
 9278TIP3   OH227797   6.927   6.153   4.961 -0.6492  0.5442  0.0413
 9278TIP3    H127798   6.903   6.179   5.050  0.3744  0.8746  0.2438
 9278TIP3    H227799   7.009   6.105   4.972 -1.3503 -0.8481 -0.5773
 9279TIP3   OH227800   1.233   3.374   5.664  0.3811  0.1593  0.1516
 9279TIP3    H127801   1.156   3.366   5.720  0.7094  1.6733  0.8755
 9279TIP3    H227802   1.283   3.294   5.681 -0.9031 -0.7487 -0.1718
 9280TIP3   OH227803   0.936   5.588   2.375 -0.0754 -0.7286  0.0454
 9280TIP3    H127804   0.974   5.591   2.287 -0.1143 -1.1059  0.0135
 9280TIP3    H227805   0.997   5.637   2.430 -1.3897  1.9526 -0.6781
 9281TIP3   OH227806   6.258   4.029   4.788 -0.3774  0.0279 -0.5953
 9281TIP3    H127807   6.165   4.030   4.768 -0.6659  1.2275  0.6574
 9281TIP3    H227808   6.281   4.121   4.799  0.4901 -0.3543  1.0918
 9282TIP3   OH227809   5.065   6.785   0.766  0.3997 -0.1740 -0.2208
 9282TIP3    H127810   5.000   6.818   0.704 -0.1645  0.2413  0.5624
 9282TIP3    H227811   5.018   6.717   0.816  0.7473 -0.2858 -0.0431
 9283TIP3   OH227812   0.248   2.839   1.737 -0.6030 -0.2202 -0.2646
 9283TIP3    H127813   0.337   2.829   1.770 -1.4681 -0.4539  2.2310
 9283TIP3    H227814   0.241   2.933   1.717 -0.4581  0.2866  1.8094
 9284TIP3   OH227815   4.394   3.551   5.542  0.6905 -0.2818 -0.0987
 9284TIP3    H127816   4.355   3.494   5.475 -0.4919  0.1467  0.1889
 9284TIP3    H227817   4.485   3.560   5.516  0.4042 -0.6354 -1.3031
 9285TIP3   OH227818   2.013   1.953   2.590 -0.8510  0.5576 -0.1895
 9285TIP3    H127819   2.082   1.890   2.612  0.0511  1.9754  1.2272
 9285TIP3    H227820   1.932   1.910   2.618 -0.1562  0.4184  1.7369
 9286TIP3   OH227821   6.230   0.596   0.418  0.2754 -0.2502  0.0082
 9286TIP3    H127822   6.205   0.503   0.419  1.4242 -0.5946 -0.9083
 9286TIP3    H227823   6.216   0.622   0.326 -2.5692  1.2442  0.7359
 9287TIP3   OH227824   6.148   4.629   4.315  0.1143 -0.3598 -0.2467
 9287TIP3    H127825   6.095   4.575   4.256 -0.1671 -0.1725 -0.1698
 9287TIP3    H227826   6.084   4.684   4.361  0.5729  2.9604 -3.1668
 9288TIP3   OH227827   0.286   1.268   2.108  0.3573 -0.3886  0.6641
 9288TIP3    H127828   0.205   1.282   2.157  1.0205 -0.3630  1.7930
 9288TIP3    H227829   0.349   1.329   2.148  0.6795  0.3416 -0.8673
 9289TIP3   OH227830   4.622   4.391   2.891  0.6526 -0.0402 -0.2237
 9289TIP3    H127831   4.716   4.394   2.909  0.4374 -1.0553  1.2913
 9289TIP3    H227832   4.583   4.429   2.970 -0.2016  1.3426 -1.2683
 9290TIP3   OH227833   0.909   3.709   4.578  0.3043  0.1218  0.5821
 9290TIP3    H127834   0.865   3.793   4.570 -1.9223 -0.7709  2.4020
 9290TIP3    H227835   0.949   3.695   4.492 -1.5802  1.7852 -0.6632
 9291TIP3   OH227836   5.342   1.370   4.052  0.4916 -0.5318 -0.2140
 9291TIP3    H127837   5.437   1.381   4.055  0.3120  0.9710  1.5818
 9291TIP3    H227838   5.307   1.456   4.073 -1.2917 -1.1273 -0.5625
 9292TIP3   OH227839   4.320   0.852   0.385  0.2344  0.3304  0.4380
 9292TIP3    H127840   4.388   0.918   0.397 -0.4362  1.2267 -0.5530
 9292TIP3    H227841   4.352   0.797   0.312 -0.5512  1.4000 -0.7530
 9293TIP3   OH227842   0.919   5.574   5.761  0.1495  0.1215  0.9988
 9293TIP3    H127843   0.853   5.514   5.727  1.5229 -0.9278  0.0572
 9293TIP3    H227844   0.945   5.627   5.686  0.2361  0.6618  1.4011
 9294TIP3   OH227845   5.862   1.865   2.544 -0.1221 -0.0987  0.0035
 9294TIP3    H127846   5.801   1.872   2.617 -0.8811  0.6228 -0.6817
 9294TIP3    H227847   5.855   1.774   2.515 -1.5792  0.1934 -0.6468
 9295TIP3   OH227848   4.939   4.593   3.619  0.3595  0.0358  0.4257
 9295TIP3    H127849   4.905   4.663   3.564  0.1506 -1.7369 -1.8645
 9295TIP3    H227850   4.866   4.570   3.676 -0.5206 -0.1352 -0.7244
 9296TIP3   OH227851   0.221   1.411   2.554 -0.1179 -0.2980 -0.0259
 9296TIP3    H127852   0.206   1.413   2.648  2.1477  0.5301  0.3895
 9296TIP3    H227853   0.314   1.391   2.545 -0.6560 -2.3213 -2.1623
 9297TIP3   OH227854   4.807   5.612   4.169 -0.6758  0.6010 -0.2611
 9297TIP3    H127855   4.814   5.698   4.129  0.4894 -0.1141 -1.6790
 9297TIP3    H227856   4.733   5.571   4.124 -1.4756  0.9868  0.6848
 9298TIP3   OH227857   7.023   4.815   1.968 -0.0106  0.0198  0.1125
 9298TIP3    H127858   7.043   4.891   2.023  1.5773  0.3204 -0.8151
 9298TIP3    H227859   6.961   4.763   2.020  0.6707  0.7818  1.7551
 9299TIP3   OH227860   2.974   5.677   1.941 -0.2226 -0.2387  0.3303
 9299TIP3    H127861   2.991   5.752   1.997  1.9429  0.6638 -1.4274
 9299TIP3    H227862   2.952   5.606   2.002  0.2701  1.1322  2.1701
 9300TIP3   OH227863   4.248   0.612   1.823 -0.0897 -0.5474  0.1493
 9300TIP3    H127864   4.170   0.562   1.847 -0.4911  1.0564  2.5551
 9300TIP3    H227865   4.318   0.577   1.879  0.2809 -0.2344 -0.1115
 9301TIP3   OH227866   3.286   3.816   3.662  0.1582 -0.5255  0.0671
 9301TIP3    H127867   3.211   3.874   3.674  1.1331  0.5934  0.9373
 9301TIP3    H227868   3.288   3.798   3.568 -0.9874 -0.3156 -0.0165
 9302TIP3   OH227869   3.754   6.721   5.519 -0.2157  0.3254 -0.3791
 9302TIP3    H127870   3.745   6.804   5.566  0.6975  1.0743 -1.4677
 9302TIP3    H227871   3.842   6.724   5.482 -0.0676 -1.2657 -0.2211
 9303TIP3   OH227872   6.797   5.975   2.095 -0.4957  0.1636  0.4913
 9303TIP3    H127873   6.819   5.992   2.004  1.0228 -0.9073  0.6287
 9303TIP3    H227874   6.705   6.002   2.103 -0.7783 -0.0886 -1.4481
 9304TIP3   OH227875   4.094   5.201   1.494 -0.0847  0.2145 -0.7236
 9304TIP3    H127876   4.109   5.111   1.463  2.6640  0.5810 -0.6806
 9304TIP3    H227877   4.153   5.254   1.441 -0.8545  1.8718  0.0337
 9305TIP3   OH227878   5.627   0.814   5.426  0.1539 -0.6864 -0.0670
 9305TIP3    H127879   5.714   0.776   5.434 -0.1221 -1.3853 -0.2990
 9305TIP3    H227880   5.624   0.850   5.337 -0.2975 -1.9966 -0.6072
 9306TIP3   OH227881   1.140   5.100   5.060  0.0194  0.4974 -0.1254
 9306TIP3    H127882   1.167   5.191   5.047 -0.1420  0.4996 -0.4734
 9306TIP3    H227883   1.067   5.088   4.998  0.0641  0.1230 -0.1070
 9307TIP3   OH227884   1.614   4.806   1.758 -0.2054  0.1357  0.3867
 9307TIP3    H127885   1.701   4.772   1.738 -0.4709 -1.1071  1.1983
 9307TIP3    H227886   1.603   4.882   1.701  0.0593 -1.6785 -2.2320
 9308TIP3   OH227887   0.216   5.174   0.294 -0.2779 -0.2759 -0.5588
 9308TIP3    H127888   0.249   5.180   0.383 -2.4757 -0.7890  0.3602
 9308TIP3    H227889   0.121   5.169   0.304 -0.4991 -2.7999 -2.7812
 9309TIP3   OH227890   5.697   3.945   4.070 -0.3354 -0.5478  0.2481
 9309TIP3    H127891   5.768   3.974   4.014 -1.7471 -0.3456 -1.5160
 9309TIP3    H227892   5.646   3.884   4.016 -2.0065 -0.0015  1.1272
 9310TIP3   OH227893   1.662   6.583   1.134 -0.0262 -0.0662 -0.8665
 9310TIP3    H127894   1.650   6.492   1.161  0.0183 -0.0429 -0.7645
 9310TIP3    H227895   1.711   6.578   1.052  0.9293 -0.1049 -0.3195
 9311TIP3   OH227896   5.099   2.912   3.997 -0.0506 -0.3421  0.1092
 9311TIP3    H127897   5.109   2.853   3.922  1.8291  0.5182 -0.3522
 9311TIP3    H227898   5.023   2.966   3.974  0.1420 -0.4781 -0.9060
 9312TIP3   OH227899   5.279   0.470   2.495  0.4752 -0.7001 -0.5317
 9312TIP3    H127900   5.201   0.501   2.448  1.0998 -0.4959 -1.4468
 9312TIP3    H227901   5.307   0.392   2.447  0.4207 -1.2099  0.2326
 9313TIP3   OH227902   4.664   3.213   0.446  0.0363  0.0855  0.2592
 9313TIP3    H127903   4.596   3.216   0.513 -1.7673  0.5791 -1.4836
 9313TIP3    H227904   4.723   3.143   0.474 -0.0754  0.9189  2.8203
 9314TIP3   OH227905   6.034   5.861   3.557 -0.1409 -0.7601 -0.1821
 9314TIP3    H127906   5.939   5.856   3.549 -0.0656 -1.1998 -0.8742
 9314TIP3    H227907   6.053   5.955   3.556 -0.5836 -0.6636  0.1873
 9315TIP3   OH227908   1.751   0.649   4.575 -0.6118 -0.1541 -0.1016
 9315TIP3    H127909   1.666   0.632   4.534 -0.1864 -0.7453 -0.7626
 9315TIP3    H227910   1.802   0.693   4.507 -0.7274  1.1717  0.6409
 9316TIP3   OH227911   5.419   1.027   5.523  0.6995  0.4276 -0.4751
 9316TIP3    H127912   5.466   1.110   5.516  0.0831  0.8063 -0.1622
 9316TIP3    H227913   5.488   0.960   5.517  1.3087  0.9815  0.2037
 9317TIP3   OH227914   6.925   0.867   2.131  0.1949  0.4193 -0.1391
 9317TIP3    H127915   6.894   0.782   2.100 -0.8092  0.3615  0.9573
 9317TIP3    H227916   6.982   0.847   2.205  0.9977  0.6543 -0.6738
 9318TIP3   OH227917   3.529   3.925   2.657 -0.6162  0.0494  0.2774
 9318TIP3    H127918   3.570   3.876   2.585 -0.2632  1.2299 -0.3581
 9318TIP3    H227919   3.595   3.923   2.727 -0.7032 -0.5726  0.3494
 9319TIP3   OH227920   6.435   2.971   0.401 -0.1626 -0.4886  0.1922
 9319TIP3    H127921   6.490   2.999   0.328  0.2292 -0.8217  0.3587
 9319TIP3    H227922   6.481   3.002   0.479 -1.5784  1.6579  0.2519
 9320TIP3   OH227923   6.472   0.719   2.486 -0.8122 -0.2683 -0.4874
 9320TIP3    H127924   6.534   0.673   2.542 -1.4206  1.1599  1.5145
 9320TIP3    H227925   6.520   0.735   2.405  0.4741 -1.5556 -0.0289
 9321TIP3   OH227926   0.557   3.341   5.358 -0.2975  0.0702  0.2295
 9321TIP3    H127927   0.611   3.350   5.279  0.9453 -0.3902  0.9938
 9321TIP3    H227928   0.497   3.415   5.355  1.1499  1.2724 -0.0879
 9322TIP3   OH227929   1.483   5.122   4.889  0.3944  0.1334  0.3568
 9322TIP3    H127930   1.480   5.039   4.841 -0.4063 -0.0315  0.6695
 9322TIP3    H227931   1.443   5.185   4.829 -2.7875 -0.5233  1.6038
 9323TIP3   OH227932   3.737   2.461   0.915  0.6655 -0.0843 -0.0454
 9323TIP3    H127933   3.661   2.515   0.895  0.1454 -0.6427  0.3909
 9323TIP3    H227934   3.794   2.471   0.839  0.1393  0.3107 -0.3955
 9324TIP3   OH227935   4.222   6.516   2.003 -0.2554 -0.0510  0.3304
 9324TIP3    H127936   4.164   6.454   1.959  0.0747 -0.4087  0.4020
 9324TIP3    H227937   4.289   6.538   1.938  0.7804 -1.3027  0.9412
 9325TIP3   OH227938   0.946   4.490   2.680  0.0438  0.2201  0.3527
 9325TIP3    H127939   0.859   4.479   2.717  0.0503 -0.6693  0.1224
 9325TIP3    H227940   0.967   4.583   2.694 -1.2228  0.6083 -0.2101
 9326TIP3   OH227941   1.270   0.789   3.394 -0.3483  0.4574  0.8851
 9326TIP3    H127942   1.364   0.779   3.374 -0.4630 -2.0613  1.2906
 9326TIP3    H227943   1.227   0.779   3.309 -0.3123  0.3985  0.8732
 9327TIP3   OH227944   2.456   6.800   3.725 -0.0092 -0.8367  0.2778
 9327TIP3    H127945   2.379   6.768   3.677 -0.8434  2.9996 -1.3148
 9327TIP3    H227946   2.527   6.796   3.660 -0.0400  0.0476  0.1765
 9328TIP3   OH227947   5.504   0.324   4.959 -0.5774 -0.2988 -0.4763
 9328TIP3    H127948   5.585   0.333   4.910 -1.5311  0.5005 -1.9976
 9328TIP3    H227949   5.464   0.411   4.955 -0.1073  0.1939  2.9116
 9329TIP3   OH227950   0.684   5.061   5.216 -0.3708  0.3195 -0.0178
 9329TIP3    H127951   0.632   5.115   5.156 -0.2566 -0.0426 -0.4544
 9329TIP3    H227952   0.678   5.105   5.300  0.8339  1.7933 -0.6414
 9330TIP3   OH227953   1.125   5.536   4.522  0.3174 -0.2644  0.0537
 9330TIP3    H127954   1.102   5.446   4.498 -0.6359 -0.0700  0.2242
 9330TIP3    H227955   1.195   5.526   4.586 -0.1713 -0.9030  0.4981
 9331TIP3   OH227956   4.296   6.118   5.308  0.1154 -0.1900 -0.0510
 9331TIP3    H127957   4.336   6.033   5.323 -0.7161 -0.5843 -0.0259
 9331TIP3    H227958   4.256   6.142   5.391 -0.7111 -0.3564 -0.3843
 9332TIP3   OH227959   5.298   4.923   2.881 -0.1494  0.3201 -0.5525
 9332TIP3    H127960   5.226   4.861   2.873  0.9280 -0.8771 -1.3908
 9332TIP3    H227961   5.256   5.009   2.883 -1.6071 -0.3671 -0.5983
 9333TIP3   OH227962   1.419   2.452   0.566  0.4237  0.4596 -0.3549
 9333TIP3    H127963   1.510   2.432   0.589 -0.5741 -2.1934  1.6989
 9333TIP3    H227964   1.403   2.401   0.487  0.1156 -0.8703  0.5432
 9334TIP3   OH227965   6.897   1.120   4.520 -0.4942 -0.0114  0.9547
 9334TIP3    H127966   6.940   1.150   4.600 -0.9744 -1.1876  1.6781
 9334TIP3    H227967   6.944   1.165   4.449 -0.1520  1.1526  1.8894
 9335TIP3   OH227968   7.125   3.360   1.472  0.1656  0.0968 -0.2238
 9335TIP3    H127969   7.097   3.425   1.408  0.2542 -0.9988 -1.4186
 9335TIP3    H227970   7.129   3.278   1.423  1.2708 -0.5884  0.9418
 9336TIP3   OH227971   0.397   4.104   1.533 -0.0237 -0.2432 -0.1698
 9336TIP3    H127972   0.408   4.196   1.559 -1.8975 -0.0963  0.2204
 9336TIP3    H227973   0.440   4.054   1.602  0.3881  0.3108 -0.0125
 9337TIP3   OH227974   5.159   6.395   5.374  0.0836 -0.3232 -0.1788
 9337TIP3    H127975   5.123   6.482   5.393  3.3979  1.0285  0.5958
 9337TIP3    H227976   5.163   6.351   5.459 -2.4276 -1.7230 -0.6819
 9338TIP3   OH227977   0.899   1.637   1.648  0.2310 -0.1119  0.0497
 9338TIP3    H127978   0.810   1.602   1.655  0.4605 -0.6360  0.4032
 9338TIP3    H227979   0.925   1.655   1.738  1.1912 -1.7929  0.1602
 9339TIP3   OH227980   2.150   3.189   5.294 -0.3022 -0.4567 -0.3508
 9339TIP3    H127981   2.081   3.188   5.360  0.0187  0.2984  0.0104
 9339TIP3    H227982   2.221   3.138   5.333  0.7302  1.7609  0.8702
 9340TIP3   OH227983   4.324   3.474   4.163 -0.2886  0.1543 -0.4461
 9340TIP3    H127984   4.236   3.510   4.169 -0.3773 -0.1813  0.3329
 9340TIP3    H227985   4.315   3.383   4.190 -0.0958 -0.5268 -2.5275
 9341TIP3   OH227986   6.645   1.794   1.433  0.2126 -0.6492 -0.2642
 9341TIP3    H127987   6.692   1.720   1.472  0.2537 -0.4411  0.0807
 9341TIP3    H227988   6.680   1.800   1.344 -0.5659 -1.7316 -0.6635
 9342TIP3   OH227989   2.733   6.590   3.906 -0.0471 -0.5576 -0.6184
 9342TIP3    H127990   2.668   6.650   3.943  0.6143 -0.7674  0.9706
 9342TIP3    H227991   2.691   6.555   3.828 -2.2981 -1.4808  0.9116
 9343TIP3   OH227992   3.617   1.831   2.059  0.5916  0.2099  0.4456
 9343TIP3    H127993   3.633   1.883   2.137  1.0688 -1.5028  1.5227
 9343TIP3    H227994   3.642   1.742   2.083 -0.7746 -0.6574 -1.1390
 9344TIP3   OH227995   6.024   1.047   1.391 -0.0137  0.0066  0.8125
 9344TIP3    H127996   5.984   1.061   1.477  1.1916  0.1904  1.3638
 9344TIP3    H227997   5.954   1.007   1.339 -0.6636 -0.4415  1.9764
 9345TIP3   OH227998   5.493   6.195   2.720  0.1805 -0.1062 -0.2821
 9345TIP3    H127999   5.584   6.191   2.748  0.0939  2.1675  0.4998
 9345TIP3    H228000   5.453   6.117   2.760  1.9318 -1.7377 -1.5201
 9346TIP3   OH228001   5.033   1.046   5.027  0.0879  0.4126  0.0555
 9346TIP3    H128002   5.097   1.087   4.969 -0.4703  0.5310 -0.4733
 9346TIP3    H228003   5.021   0.958   4.991  1.5414 -0.3920  1.3777
 9347TIP3   OH228004   0.497   4.668   3.548  0.0724  0.1785  0.4002
 9347TIP3    H128005   0.427   4.621   3.503  1.0685 -1.5127  0.4887
 9347TIP3    H228006   0.567   4.675   3.483  0.6628 -0.2486  0.9680
 9348TIP3   OH228007   5.225   2.085   5.452 -0.2043  0.0153  0.2050
 9348TIP3    H128008   5.250   2.133   5.531 -0.4526  0.7947 -0.1806
 9348TIP3    H228009   5.207   1.996   5.483  1.6098 -0.2260  0.7233
 9349TIP3   OH228010   2.861   6.378   5.449  0.1899 -0.2291 -0.6094
 9349TIP3    H128011   2.945   6.345   5.480 -0.5995 -0.2870  1.6788
 9349TIP3    H228012   2.872   6.388   5.354  2.7232 -0.2764 -0.3749
 9350TIP3   OH228013   2.898   6.155   3.199 -0.4088 -0.1204 -0.1254
 9350TIP3    H128014   2.891   6.148   3.294 -0.4691 -1.1301 -0.1942
 9350TIP3    H228015   2.988   6.184   3.184 -0.1491 -0.7238  0.2161
 9351TIP3   OH228016   6.679   5.109   1.164 -0.3219 -0.1628  0.2530
 9351TIP3    H128017   6.662   5.203   1.154 -0.5950 -0.3168 -0.9306
 9351TIP3    H228018   6.598   5.074   1.201 -0.3238  0.0249  0.4275
 9352TIP3   OH228019   6.957   0.073   1.387 -0.3100 -0.0446  0.1889
 9352TIP3    H128020   7.005   0.052   1.307  0.7669 -0.1203  0.8486
 9352TIP3    H228021   6.873   0.027   1.377  0.4804 -1.4563 -0.1353
 9353TIP3   OH228022   7.203   6.570   5.708  0.5312  0.5669  0.3096
 9353TIP3    H128023   7.157   6.601   5.786  0.1420 -0.1703  0.3845
 9353TIP3    H228024   7.170   6.626   5.638 -1.0283 -0.3675  0.2402
 9354TIP3   OH228025   6.015   2.826   1.614 -0.0020  0.8329  0.3313
 9354TIP3    H128026   6.033   2.748   1.561 -3.4051 -0.5877  0.9946
 9354TIP3    H228027   6.071   2.816   1.691  1.3171  0.3119 -0.6571
 9355TIP3   OH228028   6.259   0.090   3.788 -0.2626  0.0155 -0.0315
 9355TIP3    H128029   6.218   0.157   3.843  1.2881 -0.2133  1.4718
 9355TIP3    H228030   6.194   0.020   3.785 -0.1600 -0.2303  2.0855
 9356TIP3   OH228031   2.391   4.680   3.008 -0.2146  0.2696 -0.5340
 9356TIP3    H128032   2.422   4.720   2.927 -0.5757  1.0097 -0.3160
 9356TIP3    H228033   2.434   4.595   3.011  2.8734  1.7378  0.4318
 9357TIP3   OH228034   0.250   0.257   4.147 -0.3554 -0.2372  0.2208
 9357TIP3    H128035   0.176   0.210   4.108 -1.4368 -0.0126  1.8826
 9357TIP3    H228036   0.211   0.338   4.180  0.7005  0.0117  0.8813
 9358TIP3   OH228037   0.496   1.673   0.543 -0.5281 -0.2674  0.6463
 9358TIP3    H128038   0.569   1.641   0.490 -0.8105 -0.1354  0.1695
 9358TIP3    H228039   0.456   1.742   0.490 -1.5976 -1.0021  0.4637
 9359TIP3   OH228040   5.774   4.534   1.089 -0.6578  0.2800  0.7553
 9359TIP3    H128041   5.793   4.592   1.162 -2.3952  0.8325  0.8238
 9359TIP3    H228042   5.801   4.447   1.119 -0.8846  0.5804  1.8673
 9360TIP3   OH228043   3.189   2.833   2.301 -0.0721  0.3394 -0.1215
 9360TIP3    H128044   3.228   2.807   2.218  0.2926 -1.2445  0.4927
 9360TIP3    H228045   3.164   2.924   2.289  0.9585  0.4626 -1.5927
 9361TIP3   OH228046   1.089   5.709   2.651  0.3688 -0.2411 -0.0930
 9361TIP3    H128047   1.078   5.801   2.631  0.5403 -0.0735  0.5666
 9361TIP3    H228048   1.001   5.673   2.649  0.3306 -0.1254 -0.6271
 9362TIP3   OH228049   4.068   5.740   5.684 -0.3967  0.1604  0.3202
 9362TIP3    H128050   4.122   5.782   5.751  2.7189 -2.6785 -0.1730
 9362TIP3    H228051   4.023   5.670   5.731 -1.3545  0.6142  0.1153
 9363TIP3   OH228052   1.701   0.737   5.351  0.5017  0.5729  0.0389
 9363TIP3    H128053   1.618   0.690   5.355  1.0853 -0.4807  0.1726
 9363TIP3    H228054   1.716   0.753   5.258 -0.6122  2.1995  0.1076
 9364TIP3   OH228055   5.946   6.659   0.837  0.3647 -0.0321 -0.4494
 9364TIP3    H128056   5.932   6.744   0.794  0.6607 -0.2570 -0.9930
 9364TIP3    H228057   5.949   6.596   0.765  0.6745 -0.4390 -0.0835
 9365TIP3   OH228058   1.605   4.372   3.528 -0.6589 -0.1351  0.6211
 9365TIP3    H128059   1.698   4.361   3.548 -0.6829 -0.3392  0.6180
 9365TIP3    H228060   1.569   4.284   3.531 -0.8399 -0.0636  0.5535
 9366TIP3   OH228061   0.740   2.251   2.584  0.2940 -0.1874  0.1330
 9366TIP3    H128062   0.672   2.199   2.626  0.2637 -0.8477 -0.7211
 9366TIP3    H228063   0.694   2.303   2.518  0.2473  1.3077  1.2748
 9367TIP3   OH228064   2.148   2.920   1.375 -0.5880 -0.1470 -0.2001
 9367TIP3    H128065   2.211   2.859   1.337 -1.9506 -1.9059  0.2196
 9367TIP3    H228066   2.157   3.000   1.322  0.4444 -1.0951 -1.5388
 9368TIP3   OH228067   0.762   0.249   5.010  0.8160  0.6179 -0.6970
 9368TIP3    H128068   0.770   0.164   4.969 -1.6625  0.6915 -1.5160
 9368TIP3    H228069   0.835   0.300   4.975  2.0399 -0.9697 -0.5781
 9369TIP3   OH228070   3.550   1.556   1.244 -0.1972  0.0787  0.2148
 9369TIP3    H128071   3.540   1.561   1.339  0.5399 -0.7527  0.3477
 9369TIP3    H228072   3.609   1.483   1.229 -0.2426  0.2383 -0.8894
 9370TIP3   OH228073   3.762   5.745   2.066 -0.7707  0.7035  0.1837
 9370TIP3    H128074   3.719   5.724   1.982 -1.3685  1.1422  0.3757
 9370TIP3    H228075   3.706   5.704   2.132 -1.1201  1.6108  0.4641
 9371TIP3   OH228076   4.509   0.125   4.344  0.1164 -0.5638  0.1344
 9371TIP3    H128077   4.563   0.080   4.279 -0.2141  0.1323 -0.6407
 9371TIP3    H228078   4.445   0.174   4.292 -1.8075 -1.9864  1.0166
 9372TIP3   OH228079   4.670   1.236   2.717  0.1842 -0.1629  0.2505
 9372TIP3    H128080   4.750   1.266   2.674  0.8254 -1.5408  0.4069
 9372TIP3    H228081   4.606   1.226   2.645 -0.5504  2.8468  0.3528
 9373TIP3   OH228082   3.987   5.562   2.123  0.6386 -0.0439  0.2195
 9373TIP3    H128083   4.007   5.515   2.042  0.2048 -1.1588  0.7377
 9373TIP3    H228084   3.914   5.619   2.100 -0.0227 -0.9405 -0.0079
 9374TIP3   OH228085   0.396   4.527   0.318 -0.1535  0.2336  0.2679
 9374TIP3    H128086   0.359   4.595   0.374 -0.5060 -0.7202  1.2118
 9374TIP3    H228087   0.483   4.560   0.295 -0.4460  1.1527  0.4305
 9375TIP3   OH228088   3.414   5.433   4.246 -0.0128  0.7511 -0.0363
 9375TIP3    H128089   3.334   5.411   4.294  0.9007 -1.8572  0.4705
 9375TIP3    H228090   3.468   5.354   4.253  1.4968  1.4442 -2.6536
 9376TIP3   OH228091   1.135   1.901   1.965 -0.0150  0.2141 -0.0381
 9376TIP3    H128092   1.114   1.980   2.014  0.0819  0.3685 -0.2437
 9376TIP3    H228093   1.063   1.841   1.984  1.3084 -0.7493  2.4701
 9377TIP3   OH228094   2.101   1.141   0.771 -0.8564  0.3360  0.4494
 9377TIP3    H128095   2.108   1.223   0.723 -1.4243 -0.7008 -1.5151
 9377TIP3    H228096   2.046   1.085   0.716  1.1299 -2.0525  0.7107
 9378TIP3   OH228097   2.624   0.446   4.049  0.2562  0.3787 -0.0448
 9378TIP3    H128098   2.529   0.451   4.057  0.3391 -0.2448  1.7971
 9378TIP3    H228099   2.639   0.406   3.963 -1.1722 -0.2822 -0.0122
 9379TIP3   OH228100   3.640   4.579   0.386  0.1714  0.1403  0.7588
 9379TIP3    H128101   3.587   4.654   0.358  0.3012 -0.3593 -0.9920
 9379TIP3    H228102   3.577   4.517   0.422 -0.2436  0.2287  0.2146
 9380TIP3   OH228103   6.768   0.187   0.837 -0.2928 -0.3405  0.0458
 9380TIP3    H128104   6.727   0.193   0.751 -1.0208 -1.6075  0.2755
 9380TIP3    H228105   6.719   0.249   0.891 -1.0689 -0.8794 -0.0122
 9381TIP3   OH228106   5.254   2.932   3.618 -0.3436  0.1310 -0.1180
 9381TIP3    H128107   5.168   2.940   3.661 -0.1461 -1.5346  0.6461
 9381TIP3    H228108   5.301   3.012   3.644  0.1071 -1.1876  3.6461
 9382TIP3   OH228109   4.761   2.322   3.392  0.1736 -0.0697 -0.0403
 9382TIP3    H128110   4.818   2.262   3.344  0.6831 -1.1820  1.8435
 9382TIP3    H228111   4.786   2.311   3.484  0.3816  3.1395  0.4157
 9383TIP3   OH228112   2.418   2.054   1.571  0.2095  1.0984 -0.1564
 9383TIP3    H128113   2.403   1.993   1.499  0.4073  1.5933 -0.6242
 9383TIP3    H228114   2.350   2.121   1.561 -2.3329 -0.8509  2.4448
 9384TIP3   OH228115   2.647   3.421   3.117 -0.0507  0.3488  0.8703
 9384TIP3    H128116   2.703   3.430   3.195  0.3457  2.1061  0.4056
 9384TIP3    H228117   2.561   3.449   3.147  0.1955  1.4475  0.5908
 9385TIP3   OH228118   4.358   4.696   5.853 -0.0956  0.1314  0.6947
 9385TIP3    H128119   4.331   4.787   5.870  0.5473  0.8135 -1.5970
 9385TIP3    H228120   4.437   4.684   5.906  0.2820  1.2184  0.4108
 9386TIP3   OH228121   1.102   4.008   4.022  0.2125  0.3438 -0.4086
 9386TIP3    H128122   1.051   4.089   4.022 -3.1417 -1.6120 -0.9974
 9386TIP3    H228123   1.045   3.943   4.064  2.2877 -2.0146 -1.0168
 9387TIP3   OH228124   1.704   4.391   3.154 -0.4835  0.1447  0.1520
 9387TIP3    H128125   1.634   4.335   3.188 -0.5701 -1.3402 -2.2327
 9387TIP3    H228126   1.774   4.383   3.219 -0.9827 -1.7040  0.5287
 9388TIP3   OH228127   0.067   5.802   3.582 -0.4040 -0.8047 -0.5847
 9388TIP3    H128128   0.034   5.817   3.494  1.3866 -0.2787 -1.2225
 9388TIP3    H228129   0.098   5.887   3.611 -0.3312 -1.1124  0.2732
 9389TIP3   OH228130   1.119   1.772   2.275  0.2845  0.1987 -0.8839
 9389TIP3    H128131   1.103   1.852   2.324  0.6389 -0.2540 -0.0143
 9389TIP3    H228132   1.039   1.720   2.286  0.7411 -0.3256  0.0620
 9390TIP3   OH228133   4.044   3.827   1.163 -0.7901 -0.3133  0.0917
 9390TIP3    H128134   4.113   3.828   1.229 -0.7474  1.9296  0.0946
 9390TIP3    H228135   3.973   3.877   1.203 -1.1430  0.2344 -1.1750
 9391TIP3   OH228136   6.625   1.950   0.784  0.6289 -0.1031 -0.7469
 9391TIP3    H128137   6.695   2.006   0.818  0.1875 -0.5256  0.9606
 9391TIP3    H228138   6.545   2.002   0.794  0.2127 -0.9520  0.8743
 9392TIP3   OH228139   0.231   1.483   2.918 -0.8222  0.3767 -0.5806
 9392TIP3    H128140   0.161   1.533   2.875 -1.7272  0.7230  1.2172
 9392TIP3    H228141   0.296   1.550   2.942  1.8373 -0.2146 -4.9803
 9393TIP3   OH228142   1.054   1.398   4.564 -0.5931 -0.3067  0.5229
 9393TIP3    H128143   1.064   1.316   4.515 -0.1663  1.5498 -2.7322
 9393TIP3    H228144   1.144   1.422   4.589 -0.5165  0.0380 -0.0746
 9394TIP3   OH228145   0.419   3.343   5.897 -0.4357  0.1712 -0.2823
 9394TIP3    H128146   0.324   3.357   5.890 -0.6533 -0.7619  0.5936
 9394TIP3    H228147   0.435   3.265   5.844 -0.1371  0.3931 -0.5185
 9395TIP3   OH228148   3.094   0.756   5.493  0.0620  0.0424  0.4684
 9395TIP3    H128149   3.009   0.767   5.451  0.9211  2.1979 -0.9000
 9395TIP3    H228150   3.106   0.661   5.499 -1.0960 -0.3809 -2.2115
 9396TIP3   OH228151   0.543   6.090   4.864  0.0301 -0.3595 -0.3415
 9396TIP3    H128152   0.592   6.170   4.843  0.0081 -0.2691 -0.0487
 9396TIP3    H228153   0.475   6.119   4.924 -0.7536 -0.3767 -1.1866
 9397TIP3   OH228154   1.523   5.301   0.997 -0.0921 -0.2953 -0.5965
 9397TIP3    H128155   1.450   5.338   0.946 -0.3097 -1.7563 -1.4044
 9397TIP3    H228156   1.497   5.313   1.088 -1.7787 -1.5498 -0.8653
 9398TIP3   OH228157   2.253   3.573   0.850 -0.0058  0.3024 -0.0997
 9398TIP3    H128158   2.164   3.540   0.857  0.1543 -0.0994  0.0841
 9398TIP3    H228159   2.244   3.668   0.847 -0.4637  0.2476 -0.5052
 9399TIP3   OH228160   3.666   4.274   5.293 -0.6532 -0.2127 -0.5288
 9399TIP3    H128161   3.671   4.202   5.355  2.8661  0.4692  0.1903
 9399TIP3    H228162   3.626   4.346   5.343 -0.5683 -0.5294 -0.0023
 9400TIP3   OH228163   5.735   2.454   2.686 -0.5724  0.1138 -0.3223
 9400TIP3    H128164   5.677   2.509   2.739  0.3191 -0.5910  1.4298
 9400TIP3    H228165   5.823   2.479   2.712 -0.1358 -1.9792  0.3750
 9401TIP3   OH228166   5.146   6.296   2.780 -0.0995  0.1201  0.5483
 9401TIP3    H128167   5.063   6.314   2.736  0.9971  2.2834 -0.7959
 9401TIP3    H228168   5.125   6.300   2.873 -1.8380 -1.2790  0.2726
 9402TIP3   OH228169   5.996   2.554   1.390  0.4275 -0.2814 -0.1860
 9402TIP3    H128170   5.914   2.595   1.362  0.8704  1.7714  1.2819
 9402TIP3    H228171   6.054   2.564   1.314  0.2485  1.1064 -0.1677
 9403TIP3   OH228172   0.220   1.316   4.314 -0.2375  0.0482  0.3449
 9403TIP3    H128173   0.200   1.241   4.257 -1.8464  1.2098 -0.7326
 9403TIP3    H228174   0.298   1.355   4.275 -0.1078 -0.3670  0.1821
 9404TIP3   OH228175   6.628   4.113   2.029  0.3832 -0.0678 -0.0351
 9404TIP3    H128176   6.723   4.117   2.021  0.7901 -1.1482  3.0130
 9404TIP3    H228177   6.610   4.137   2.120 -2.3854  1.0918 -0.7850
 9405TIP3   OH228178   3.296   0.020   5.160  0.5193 -0.3694 -0.3953
 9405TIP3    H128179   3.262  -0.061   5.121  2.7227 -1.0065 -1.1616
 9405TIP3    H228180   3.243   0.089   5.121  0.5317 -1.2513 -2.0928
 9406TIP3   OH228181   5.168   1.362   2.166  0.1154  0.0911  0.7520
 9406TIP3    H128182   5.243   1.368   2.107  0.2555 -0.0115  0.9193
 9406TIP3    H228183   5.155   1.451   2.198  0.1196  0.1225  0.6655
 9407TIP3   OH228184   5.593   5.348   0.711 -0.1115 -0.7325  0.0811
 9407TIP3    H128185   5.575   5.316   0.622  0.0882 -1.9822  0.4726
 9407TIP3    H228186   5.558   5.281   0.769 -1.0619  0.4989  0.9942
 9408TIP3   OH228187   7.201   1.841   3.147  0.1566  0.9299  0.2597
 9408TIP3    H128188   7.158   1.843   3.233  0.7130  1.4106  0.5304
 9408TIP3    H228189   7.283   1.794   3.163 -0.2424  0.0213 -0.2563
 9409TIP3   OH228190   4.080   4.290   3.830  0.4030 -0.3534 -0.0084
 9409TIP3    H128191   4.064   4.335   3.913  2.9553  0.8156 -0.0563
 9409TIP3    H228192   4.156   4.334   3.793  0.1559 -1.7207 -2.3611
 9410TIP3   OH228193   1.474   0.950   5.802  0.5649 -0.1334  0.3442
 9410TIP3    H128194   1.463   0.864   5.761  0.0659  0.4457 -0.7788
 9410TIP3    H228195   1.402   1.003   5.767  1.7694  1.1929 -0.2070
 9411TIP3   OH228196   4.695   3.005   1.290  0.1596  0.5966 -0.0483
 9411TIP3    H128197   4.750   2.969   1.360  1.7619 -0.0924 -1.5812
 9411TIP3    H228198   4.616   3.034   1.334  0.4632 -1.2163  1.8418
 9412TIP3   OH228199   4.126   0.597   0.550 -0.7552 -0.6278 -0.4820
 9412TIP3    H128200   4.157   0.560   0.633 -2.4043 -0.8663  0.0498
 9412TIP3    H228201   4.049   0.647   0.573  1.2765  3.2015 -1.1750
 9413TIP3   OH228202   1.106   0.802   4.430  0.2542 -0.4373 -0.7442
 9413TIP3    H128203   1.044   0.820   4.359  0.2532 -0.0991 -0.6592
 9413TIP3    H228204   1.173   0.747   4.389 -1.9277 -3.9585  0.0038
 9414TIP3   OH228205   6.873   4.593   5.804 -0.0045 -0.3444  0.2913
 9414TIP3    H128206   6.909   4.538   5.735  0.5462  0.1848  0.1567
 9414TIP3    H228207   6.942   4.597   5.871 -0.5813 -0.9664  0.9532
 9415TIP3   OH228208   2.732   0.751   4.823 -0.2077  0.3324  0.3175
 9415TIP3    H128209   2.798   0.698   4.779 -0.9988 -0.7114  0.3539
 9415TIP3    H228210   2.752   0.740   4.917 -0.7828 -0.4801  0.3559
 9416TIP3   OH228211   2.164   6.528   2.211 -0.0192 -0.0277  0.7799
 9416TIP3    H128212   2.105   6.455   2.197  0.7686 -0.5790  0.2519
 9416TIP3    H228213   2.249   6.496   2.181  0.4951  0.8317  1.2842
 9417TIP3   OH228214   2.957   2.662   4.004  0.1915  0.5204  0.4507
 9417TIP3    H128215   2.990   2.674   4.093  1.9061  0.1834 -0.0965
 9417TIP3    H228216   2.862   2.668   4.013  0.3792  1.8247  2.0871
 9418TIP3   OH228217   0.928   6.500   2.710 -0.1309  0.0138 -0.5474
 9418TIP3    H128218   0.872   6.524   2.783  0.9731  3.4611 -0.6271
 9418TIP3    H228219   0.953   6.409   2.727 -0.8553  0.3071  2.7393
 9419TIP3   OH228220   2.011   3.578   1.794  0.5619  0.3164  0.1376
 9419TIP3    H128221   2.093   3.591   1.746  0.5805  0.5956  0.2434
 9419TIP3    H228222   2.037   3.535   1.876  0.6838  1.0040  0.4656
 9420TIP3   OH228223   6.830   1.975   1.588  0.0154 -0.5286  0.0317
 9420TIP3    H128224   6.844   2.050   1.529  1.5807 -0.5255  0.3520
 9420TIP3    H228225   6.737   1.956   1.581 -0.1600  0.5898 -1.1001
 9421TIP3   OH228226   2.685   2.242   2.698 -0.6735 -0.1466 -0.1831
 9421TIP3    H128227   2.657   2.291   2.775 -3.0409 -1.0058 -0.4071
 9421TIP3    H228228   2.638   2.283   2.625  0.4070 -0.2638 -0.9746
 9422TIP3   OH228229   0.961   0.329   5.271  0.3432 -0.1872 -0.1213
 9422TIP3    H128230   0.904   0.331   5.347  1.1990  0.0580  0.5246
 9422TIP3    H228231   0.953   0.239   5.238 -1.0008  0.0488 -0.5239
 9423TIP3   OH228232   6.459   0.715   0.551 -0.3254 -0.5912 -0.1610
 9423TIP3    H128233   6.377   0.707   0.502  0.4079 -0.7739 -1.4013
 9423TIP3    H228234   6.515   0.646   0.516  0.3573 -0.4866  0.6855
 9424TIP3   OH228235   6.550   4.577   4.936 -0.3554 -0.2197 -0.3010
 9424TIP3    H128236   6.529   4.534   4.852  0.2918  1.2431 -1.2501
 9424TIP3    H228237   6.631   4.534   4.965 -1.5251 -1.9795  0.5321
 9425TIP3   OH228238   3.294   5.558   1.545  0.1603 -0.2318 -0.2562
 9425TIP3    H128239   3.223   5.549   1.608  0.0768  1.1348 -0.1041
 9425TIP3    H228240   3.341   5.475   1.548 -0.3571 -0.4934  0.9793
 9426TIP3   OH228241   6.255   1.798   3.352 -0.2986 -0.0583 -0.1793
 9426TIP3    H128242   6.193   1.819   3.282  0.1322 -1.5958 -1.0483
 9426TIP3    H228243   6.330   1.855   3.334 -1.0252  1.0875  0.2972
 9427TIP3   OH228244   6.807   4.927   2.168  0.0377  0.2576  0.0311
 9427TIP3    H128245   6.714   4.936   2.150  0.0993  1.0060  0.0457
 9427TIP3    H228246   6.844   5.011   2.144  0.6468  0.1044  0.4118
 9428TIP3   OH228247   3.599   5.076   5.190 -0.0497 -0.4218 -0.1266
 9428TIP3    H128248   3.549   5.143   5.236 -0.6869 -0.4700 -0.7277
 9428TIP3    H228249   3.659   5.041   5.255  0.2280  0.6704  0.2199
 9429TIP3   OH228250   3.492   0.447   5.125 -0.3903  0.3038  0.2432
 9429TIP3    H128251   3.509   0.469   5.033  1.9482  0.4969  0.6711
 9429TIP3    H228252   3.578   0.430   5.162 -1.4082 -1.2121  2.0737
 9430TIP3   OH228253   1.311   5.597   5.561 -0.5858 -0.2212 -0.6437
 9430TIP3    H128254   1.344   5.686   5.543  3.1384 -1.3753 -0.4472
 9430TIP3    H228255   1.270   5.570   5.479 -0.5100  1.1776 -1.1801
 9431TIP3   OH228256   0.839   3.736   0.133 -0.4026 -0.6044  0.4020
 9431TIP3    H128257   0.744   3.753   0.134 -0.0649  1.6839  2.3160
 9431TIP3    H228258   0.876   3.808   0.184  2.3930 -1.4755 -0.2765
 9432TIP3   OH228259   4.581   3.039   3.885 -1.3579 -0.0976 -0.9320
 9432TIP3    H128260   4.545   3.118   3.924  1.9838  1.4512 -0.5952
 9432TIP3    H228261   4.605   3.065   3.796 -2.6526 -1.6009 -1.7761
 9433TIP3   OH228262   0.689   5.462   5.648 -0.1359 -0.6984 -0.2166
 9433TIP3    H128263   0.676   5.531   5.583  0.9510 -1.0714 -0.8512
 9433TIP3    H228264   0.602   5.444   5.682 -0.4182  1.1881  0.1700
 9434TIP3   OH228265   0.456   5.632   2.225 -0.3319  0.0449  0.3563
 9434TIP3    H128266   0.362   5.638   2.239 -0.8806 -3.4329 -1.0395
 9434TIP3    H228267   0.484   5.555   2.274  1.6509  0.4500 -0.0176
 9435TIP3   OH228268   2.284   6.037   5.899 -0.7101 -0.1522  0.3265
 9435TIP3    H128269   2.241   6.080   5.826  2.2832  1.2706 -0.7675
 9435TIP3    H228270   2.212   6.004   5.953 -3.0730  1.1282 -1.8045
 9436TIP3   OH228271   4.439   3.367   0.338  0.0532 -0.0342  0.3656
 9436TIP3    H128272   4.408   3.281   0.312 -0.8149  0.2773  0.3410
 9436TIP3    H228273   4.534   3.357   0.346 -0.0661 -1.0579  0.6286
 9437TIP3   OH228274   5.332   1.518   2.988  0.1702 -0.0997 -0.1052
 9437TIP3    H128275   5.375   1.437   2.962  0.6966  0.1055  0.1309
 9437TIP3    H228276   5.306   1.504   3.079 -2.2134 -1.0505 -0.8558
 9438TIP3   OH228277   3.917   0.717   2.626  0.5359 -0.3261 -0.7707
 9438TIP3    H128278   4.010   0.699   2.641  0.3938 -1.4404 -1.1022
 9438TIP3    H228279   3.916   0.787   2.562  1.1356  1.6423  1.2552
 9439TIP3   OH228280   3.859   2.008   0.525 -0.3980 -0.2227  0.1033
 9439TIP3    H128281   3.857   1.922   0.482  0.1773  0.3661 -1.1471
 9439TIP3    H228282   3.788   2.004   0.589 -2.3842 -0.5934 -2.0000
 9440TIP3   OH228283   6.477   3.347   1.669  1.3491  0.3333 -0.0844
 9440TIP3    H128284   6.402   3.302   1.630  0.8470 -0.1045  1.3353
 9440TIP3    H228285   6.440   3.394   1.744  2.7684 -1.4621  1.8406
 9441TIP3   OH228286   1.058   0.988   2.171 -0.3267  0.7226 -0.2640
 9441TIP3    H128287   0.994   0.941   2.116 -2.1340  2.3059  0.3749
 9441TIP3    H228288   1.055   0.942   2.255 -0.0285  0.3213 -0.4689
 9442TIP3   OH228289   5.211   5.477   4.296  0.1369 -0.0753 -0.1632
 9442TIP3    H128290   5.211   5.508   4.387  1.2972  0.1175 -0.2123
 9442TIP3    H228291   5.263   5.542   4.249  0.2228 -0.6113 -0.8165
 9443TIP3   OH228292   0.666   5.420   4.891 -0.9301  0.0904  1.0364
 9443TIP3    H128293   0.740   5.379   4.845  0.3651  1.8858  1.4226
 9443TIP3    H228294   0.591   5.405   4.834  0.1305 -0.0187 -0.3824
 9444TIP3   OH228295   6.416   1.278   0.322 -0.0855 -0.1837  0.4032
 9444TIP3    H128296   6.440   1.261   0.413 -2.0218 -2.4990  0.5817
 9444TIP3    H228297   6.443   1.199   0.276 -1.4555 -0.1494 -0.5140
 9445TIP3   OH228298   0.340   3.513   4.977 -0.0028  0.1397  0.2099
 9445TIP3    H128299   0.407   3.457   4.937  1.3500  1.1094  1.0212
 9445TIP3    H228300   0.378   3.539   5.061 -1.4574  0.6523  0.7400
 9446TIP3   OH228301   5.566   6.310   3.334 -0.2651 -0.0683  0.0344
 9446TIP3    H128302   5.527   6.338   3.417  1.3788  0.7732  0.5762
 9446TIP3    H228303   5.555   6.386   3.277  1.0930  0.4420  0.4043
 9447TIP3   OH228304   6.260   3.338   5.075 -0.3414 -0.1466  0.9852
 9447TIP3    H128305   6.233   3.257   5.118 -0.6741 -0.9179 -0.5989
 9447TIP3    H228306   6.183   3.366   5.026  0.4040 -0.0109 -0.1411
 9448TIP3   OH228307   4.401   0.518   4.927  0.8581  0.3008 -0.0941
 9448TIP3    H128308   4.351   0.582   4.978  2.6161 -0.0409  2.2266
 9448TIP3    H228309   4.485   0.561   4.912  1.1114 -0.4479 -0.8586
 9449TIP3   OH228310   6.100   3.925   4.476 -0.1918  0.2780 -0.3755
 9449TIP3    H128311   6.046   3.971   4.540 -0.6803  1.1331 -1.3718
 9449TIP3    H228312   6.122   3.992   4.411  1.3292 -0.2765 -0.4544
 9450TIP3   OH228313   7.175   6.092   1.797 -0.3471 -0.7825 -0.2432
 9450TIP3    H128314   7.231   6.168   1.809  1.2550 -2.1787  1.9499
 9450TIP3    H228315   7.213   6.045   1.723 -0.1456 -0.4494 -0.3543
 9451TIP3   OH228316   5.250   2.532   1.757  0.0007 -0.0995  0.2889
 9451TIP3    H128317   5.276   2.596   1.690  0.0357 -0.6080 -0.1855
 9451TIP3    H228318   5.291   2.565   1.838 -1.0363  1.1812  0.3322
 9452TIP3   OH228319   3.232   4.463   3.979 -0.4170 -0.2516  0.7321
 9452TIP3    H128320   3.212   4.385   3.927  0.6227  0.2296 -0.4427
 9452TIP3    H228321   3.179   4.532   3.940  0.8999  0.2722 -0.2068
 9453TIP3   OH228322   0.226   4.396   5.617  0.5430 -0.3172 -0.1379
 9453TIP3    H128323   0.138   4.422   5.646  1.0609 -0.6630  1.8346
 9453TIP3    H228324   0.267   4.478   5.589  0.2108  0.1375  0.6742
 9454TIP3   OH228325   2.442   4.307   3.508  0.5888  0.2522  0.0748
 9454TIP3    H128326   2.537   4.296   3.515  0.3655 -2.1506 -0.0416
 9454TIP3    H228327   2.410   4.224   3.475 -1.6076  0.9497  0.2762
 9455TIP3   OH228328   6.943   3.282   3.286  0.0926  0.8745 -0.5224
 9455TIP3    H128329   6.900   3.197   3.294 -2.2877  2.1584  2.4642
 9455TIP3    H228330   6.915   3.314   3.200 -0.0207 -0.8065 -1.1441
 9456TIP3   OH228331   2.715   3.669   4.393 -0.0894 -0.0589  0.5125
 9456TIP3    H128332   2.743   3.643   4.305  3.6971  0.0266  1.5266
 9456TIP3    H228333   2.738   3.595   4.449 -1.6773  0.2203  1.6092
 9457TIP3   OH228334   2.491   4.086   0.394 -0.3692 -0.2972 -0.4823
 9457TIP3    H128335   2.539   4.094   0.311 -0.2983  1.1176 -0.3320
 9457TIP3    H228336   2.408   4.131   0.378 -1.1696 -1.6668 -0.3522
 9458TIP3   OH228337   4.344   6.380   5.384 -0.0804 -0.2300 -0.4034
 9458TIP3    H128338   4.351   6.293   5.343  1.2450 -0.5572  0.4609
 9458TIP3    H228339   4.393   6.437   5.325  0.7966 -0.4719  0.0765
 9459TIP3   OH228340   0.539   6.284   4.385 -0.3654  0.6152 -0.3653
 9459TIP3    H128341   0.609   6.221   4.406 -0.4520  0.8171  0.5984
 9459TIP3    H228342   0.505   6.255   4.301 -0.1337 -0.3937 -0.1273
 9460TIP3   OH228343   2.318   5.404   2.237 -0.0103  0.0224 -0.3552
 9460TIP3    H128344   2.274   5.350   2.303  1.0489 -1.4727 -0.8140
 9460TIP3    H228345   2.250   5.422   2.172 -0.3649 -0.8831 -0.2511
 9461TIP3   OH228346   5.962   3.542   2.751  0.0245 -0.6198 -0.1286
 9461TIP3    H128347   6.000   3.629   2.761 -1.3692  0.0847 -0.6697
 9461TIP3    H228348   6.034   3.488   2.719  0.8159  0.4118 -0.1387
 9462TIP3   OH228349   1.328   5.350   4.761 -0.1051 -0.0554  0.3434
 9462TIP3    H128350   1.396   5.390   4.707  1.3449 -0.7070  1.6074
 9462TIP3    H228351   1.269   5.307   4.698 -0.6268  2.3234 -0.9151
 9463TIP3   OH228352   3.092   0.302   3.877 -0.3622  0.1541 -0.2923
 9463TIP3    H128353   3.138   0.369   3.826 -3.0685  3.0267  0.7289
 9463TIP3    H228354   3.126   0.312   3.966 -1.5420  0.9500  0.0795
 9464TIP3   OH228355   4.230   6.760   4.360  0.3704 -0.2897  0.0271
 9464TIP3    H128356   4.189   6.712   4.289  0.1719 -0.5084  0.2867
 9464TIP3    H228357   4.324   6.750   4.345  0.3363 -1.2822  0.4212
 9465TIP3   OH228358   1.126   3.077   4.935 -0.4230 -0.2011  0.4790
 9465TIP3    H128359   1.071   3.020   4.988 -1.4687 -0.0957 -0.4716
 9465TIP3    H228360   1.199   3.022   4.908 -2.1124 -1.5660 -1.5864
 9466TIP3   OH228361   1.189   2.757   4.439 -0.4654  0.3343 -0.0324
 9466TIP3    H128362   1.202   2.762   4.344  0.4232 -0.2789  0.0390
 9466TIP3    H228363   1.094   2.762   4.450 -0.5126  1.9163 -0.8365
 9467TIP3   OH228364   3.415   3.252   2.457 -0.2738 -0.2019 -0.9572
 9467TIP3    H128365   3.482   3.320   2.468  0.9172 -1.3888 -0.5542
 9467TIP3    H228366   3.333   3.297   2.475  0.6433  0.6454  1.6342
 9468TIP3   OH228367   2.999   4.012   3.159  0.1914  0.2066  0.4289
 9468TIP3    H128368   3.094   3.996   3.156 -0.0953 -1.6130 -0.5381
 9468TIP3    H228369   2.980   4.060   3.078  0.2167  0.0908  0.3540
 9469TIP3   OH228370   7.084   6.697   3.679 -0.2850  0.0153 -0.1217
 9469TIP3    H128371   7.125   6.739   3.754  0.0708 -1.8150  0.7514
 9469TIP3    H228372   7.049   6.615   3.713 -2.1208  0.1651 -1.4784
 9470TIP3   OH228373   6.930   5.537   2.375 -0.0293  0.2879  0.2096
 9470TIP3    H128374   6.904   5.446   2.382  0.8270  0.0821  0.8897
 9470TIP3    H228375   7.025   5.536   2.384  0.0579  1.1859 -0.4375
 9471TIP3   OH228376   5.962   2.549   0.778  0.2005 -0.4332 -0.3482
 9471TIP3    H128377   5.945   2.501   0.697 -1.6214  0.3288 -0.4674
 9471TIP3    H228378   5.878   2.590   0.799  1.1789  1.0635  0.8118
 9472TIP3   OH228379   5.701   6.532   2.385 -0.8734  0.1999  0.2133
 9472TIP3    H128380   5.741   6.547   2.299  0.4375 -0.9586  0.5868
 9472TIP3    H228381   5.683   6.620   2.419 -1.2970  0.6783 -1.1657
 9473TIP3   OH228382   6.481   1.209   0.609  0.3127 -0.1024  0.0427
 9473TIP3    H128383   6.445   1.238   0.693 -0.2505  1.8936 -0.8313
 9473TIP3    H228384   6.448   1.120   0.598  0.2633 -0.3463  1.8345
 9474TIP3   OH228385   2.253   1.527   0.781 -0.6762 -0.0941 -0.6251
 9474TIP3    H128386   2.292   1.483   0.857  0.7721 -0.0135 -1.2868
 9474TIP3    H228387   2.169   1.483   0.768 -0.2950 -1.0841  0.1452
 9475TIP3   OH228388   6.250   1.391   0.578  0.2577 -0.6932 -0.0709
 9475TIP3    H128389   6.219   1.427   0.661  0.1691 -0.0236 -0.3840
 9475TIP3    H228390   6.345   1.398   0.584  0.2360 -0.1760 -0.2172
 9476TIP3   OH228391   3.868   1.258   5.418 -0.1339  0.0737  0.1042
 9476TIP3    H128392   3.856   1.296   5.331  1.5754  0.1155 -0.1466
 9476TIP3    H228393   3.914   1.326   5.468 -1.3443  0.1686  1.1685
 9477TIP3   OH228394   2.386   0.996   4.924  0.1536 -0.0152  0.2453
 9477TIP3    H128395   2.386   0.906   4.955 -1.1359 -0.1788 -0.1727
 9477TIP3    H228396   2.329   0.995   4.847 -2.2383  1.6741  1.8744
 9478TIP3   OH228397   4.283   5.925   5.853 -0.4206  0.2611  0.7005
 9478TIP3    H128398   4.349   5.992   5.836  0.0416 -0.1681  0.8015
 9478TIP3    H228399   4.222   5.967   5.914 -0.2028  0.6313  0.6648
 9479TIP3   OH228400   6.063   3.992   2.070  0.3721  0.1355 -0.2567
 9479TIP3    H128401   6.108   4.057   2.016  1.5585 -0.1415  0.3629
 9479TIP3    H228402   5.971   3.999   2.044  1.0804 -1.3552 -3.8084
 9480TIP3   OH228403   5.809   3.905   5.063  0.3902 -0.1189 -0.3497
 9480TIP3    H128404   5.838   3.992   5.088  0.8013 -0.2882 -0.2155
 9480TIP3    H228405   5.884   3.868   5.015  0.5501 -0.7070  0.3307
 9481TIP3   OH228406   2.046   4.083   4.490 -0.1214 -0.4915  0.5218
 9481TIP3    H128407   2.140   4.088   4.472 -0.5452 -1.3646 -2.4661
 9481TIP3    H228408   2.006   4.141   4.425 -1.6861 -0.5888  1.3473
 9482TIP3   OH228409   1.028   4.373   1.751 -0.1622 -0.2877 -0.0252
 9482TIP3    H128410   0.970   4.300   1.730 -0.7854 -0.1986  1.3034
 9482TIP3    H228411   1.003   4.400   1.839  0.4549  1.1622 -0.2561
 9483TIP3   OH228412   4.847   0.371   4.397 -0.3858  0.1237 -0.5123
 9483TIP3    H128413   4.848   0.381   4.492  2.0792 -1.5365 -0.2713
 9483TIP3    H228414   4.891   0.449   4.364  0.0296  0.0424 -0.1615
 9484TIP3   OH228415   5.116   0.827   4.068  0.5172 -0.2610  0.5355
 9484TIP3    H128416   5.199   0.788   4.038  0.6881  0.1369  0.4840
 9484TIP3    H228417   5.067   0.843   3.988  1.4229  1.8242  0.3232
 9485TIP3   OH228418   0.076   3.370   0.694 -0.0601 -0.0488 -0.3645
 9485TIP3    H128419   0.147   3.430   0.669 -0.1592  1.5303  2.6830
 9485TIP3    H228420   0.111   3.320   0.768 -1.4035 -0.7716 -0.1869
 9486TIP3   OH228421   5.101   1.968   5.094 -0.0836 -0.3611  0.5919
 9486TIP3    H128422   5.135   1.965   5.005  0.3764  1.7465  0.6329
 9486TIP3    H228423   5.136   1.889   5.136  1.7255 -0.1592 -0.4214
 9487TIP3   OH228424   2.470   5.338   5.403  0.7108  0.0761 -0.4438
 9487TIP3    H128425   2.542   5.351   5.341 -0.0243  0.6937 -1.1880
 9487TIP3    H228426   2.484   5.249   5.438  1.2718 -0.1904 -1.3145
 9488TIP3   OH228427   2.417   0.748   1.962 -0.4189 -0.2625  0.0562
 9488TIP3    H128428   2.418   0.783   1.873  1.1922  0.0146  0.1668
 9488TIP3    H228429   2.358   0.806   2.010  1.6977  1.9985  0.0932
 9489TIP3   OH228430   3.636   4.110   4.735  0.2973 -0.5172  0.3087
 9489TIP3    H128431   3.554   4.128   4.782 -0.6490 -0.1264 -1.4183
 9489TIP3    H228432   3.621   4.027   4.691  1.0074 -0.6610  0.3251
 9490TIP3   OH228433   6.984   2.936   1.999  0.1980  0.0194 -0.0532
 9490TIP3    H128434   6.948   2.994   1.932 -1.8308 -0.6854  0.3618
 9490TIP3    H228435   6.927   2.859   1.998  0.8510 -0.5397  1.6300
 9491TIP3   OH228436   6.777   5.783   3.796  0.2327 -0.1234  0.0253
 9491TIP3    H128437   6.687   5.770   3.825 -0.1727  1.0836 -0.6345
 9491TIP3    H228438   6.829   5.776   3.876 -0.4820 -0.4566  0.4702
 9492TIP3   OH228439   1.117   2.406   5.053  0.7999 -0.1386  0.1264
 9492TIP3    H128440   1.048   2.340   5.043 -0.0700  1.0312 -2.9765
 9492TIP3    H228441   1.199   2.356   5.050  0.1389 -1.3233  1.1989
 9493TIP3   OH228442   3.008   5.332   5.195 -0.0689  0.2429  0.8339
 9493TIP3    H128443   2.935   5.278   5.164  0.0897  1.3373 -1.6949
 9493TIP3    H228444   2.966   5.402   5.246 -0.5675 -0.3451  1.2489
 9494TIP3   OH228445   1.324   4.766   3.016 -0.0593  0.3094  0.4113
 9494TIP3    H128446   1.239   4.731   3.044  0.1082  1.2708  2.2849
 9494TIP3    H228447   1.379   4.689   3.005 -0.6947 -0.2323  0.9268
 9495TIP3   OH228448   1.324   1.644   5.604 -0.0654  0.4166 -0.3447
 9495TIP3    H128449   1.373   1.570   5.569  3.2092  2.7062 -0.9898
 9495TIP3    H228450   1.280   1.682   5.528 -0.7320 -0.1017 -0.2276
 9496TIP3   OH228451   2.966   5.723   5.863 -0.4941  0.4896 -0.5735
 9496TIP3    H128452   2.939   5.810   5.833  0.0509  0.7140 -0.4245
 9496TIP3    H228453   2.962   5.729   5.959 -0.6726  0.2805 -0.5673
 9497TIP3   OH228454   1.232   1.343   0.437 -0.1037  0.0019  0.1015
 9497TIP3    H128455   1.179   1.419   0.462  0.3826  0.2839  0.2787
 9497TIP3    H228456   1.178   1.268   0.461 -1.5203  0.2596 -2.0029
 9498TIP3   OH228457   1.343   6.552   0.022  0.0347  0.2597  0.0501
 9498TIP3    H128458   1.332   6.505   0.104 -1.8399  1.7214  0.6942
 9498TIP3    H228459   1.256   6.553  -0.018  0.6418  0.6859 -1.3336
 9499TIP3   OH228460   5.703   0.942   4.770 -0.2804  0.1330 -0.7179
 9499TIP3    H128461   5.780   0.887   4.768 -1.6628 -1.8960 -0.9475
 9499TIP3    H228462   5.737   1.032   4.762  2.0321 -0.6479 -0.3312
 9500TIP3   OH228463   2.404   3.276   0.067  0.1563  0.1779 -0.3307
 9500TIP3    H128464   2.312   3.269   0.092  0.7380 -0.6250  1.7716
 9500TIP3    H228465   2.403   3.335  -0.008 -2.1380 -0.4056 -0.8532
 9501TIP3   OH228466   0.451   1.413   1.116 -0.4088 -0.3507  0.1636
 9501TIP3    H128467   0.531   1.460   1.090 -0.8460  0.5958  0.5141
 9501TIP3    H228468   0.483   1.328   1.147  0.5522  0.3236  1.0920
 9502TIP3   OH228469   4.454   5.005   2.921  0.3156 -0.2337 -0.5622
 9502TIP3    H128470   4.405   5.043   2.994  1.2857 -1.2319  0.6296
 9502TIP3    H228471   4.444   4.911   2.931  2.0547 -0.4438 -0.5923
 9503TIP3   OH228472   3.003   3.605   3.373  0.7670  0.0203 -0.0970
 9503TIP3    H128473   2.972   3.686   3.415 -2.0243 -0.6223 -0.7089
 9503TIP3    H228474   3.098   3.607   3.385  0.6549  2.6631  1.1697
 9504TIP3   OH228475   4.604   0.946   5.126 -0.5723  0.6574 -0.1683
 9504TIP3    H128476   4.581   1.017   5.066  1.5431  0.7605 -0.9299
 9504TIP3    H228477   4.623   0.990   5.209  1.7154  1.1783 -0.9021
 9505TIP3   OH228478   0.770   3.800   1.070  0.6899  0.2844 -0.3604
 9505TIP3    H128479   0.707   3.734   1.042 -0.6636  1.2600  0.2615
 9505TIP3    H228480   0.798   3.771   1.157  0.3200  0.3825 -0.2086
 9506TIP3   OH228481   5.072   0.483   2.025 -0.7833  0.1500 -0.1319
 9506TIP3    H128482   4.986   0.443   2.037 -0.6436 -0.4899 -1.1511
 9506TIP3    H228483   5.053   0.574   2.001 -1.1034  0.7368  2.1361
 9507TIP3   OH228484   5.505   3.992   2.487  0.2334  0.1253 -0.1947
 9507TIP3    H128485   5.588   3.958   2.521 -0.3330 -0.9415  0.1531
 9507TIP3    H228486   5.516   3.988   2.391  1.3975  2.0784 -0.2020
 9508TIP3   OH228487   6.771   2.093   4.978  0.3711 -0.4746  0.4803
 9508TIP3    H128488   6.801   2.179   4.950  1.3866 -1.1983 -0.7621
 9508TIP3    H228489   6.676   2.101   4.984  0.2205  0.1569 -1.7927
 9509TIP3   OH228490   1.703   1.400   2.714  0.3740  0.1865 -1.0621
 9509TIP3    H128491   1.619   1.434   2.746  0.2135  0.4697 -1.7700
 9509TIP3    H228492   1.758   1.394   2.792  0.1555  1.3613 -0.8008
 9510TIP3   OH228493   4.093   2.218   4.710  0.3696  1.0060  0.6168
 9510TIP3    H128494   4.060   2.137   4.671  1.1678  1.7611 -1.7843
 9510TIP3    H228495   4.062   2.215   4.801  0.5514 -2.0654  0.6800
 9511TIP3   OH228496   4.792   3.323   5.045  0.3452  0.1543 -0.1461
 9511TIP3    H128497   4.797   3.417   5.064  1.6577  0.1075 -0.1321
 9511TIP3    H228498   4.832   3.314   4.958 -0.7784 -0.2763 -0.6392
 9512TIP3   OH228499   6.559   0.507   5.641  0.1722  0.1385 -0.8373
 9512TIP3    H128500   6.588   0.449   5.711 -0.6401  0.6559 -0.0700
 9512TIP3    H228501   6.614   0.482   5.566  0.1891 -1.2634 -0.3801
 9513TIP3   OH228502   3.337   0.252   5.651  0.0949  0.0598 -0.1958
 9513TIP3    H128503   3.339   0.282   5.561  2.5216  0.7314  0.0117
 9513TIP3    H228504   3.410   0.190   5.658 -0.1638 -0.1279  1.2621
 9514TIP3   OH228505   0.484   1.543   4.460  0.2011 -0.2764 -0.1174
 9514TIP3    H128506   0.490   1.458   4.504 -0.2957  0.2665  1.0482
 9514TIP3    H228507   0.571   1.557   4.424  0.0845 -1.6144 -0.9821
 9515TIP3   OH228508   3.779   6.321   4.240  0.4113  0.4322 -0.8744
 9515TIP3    H128509   3.695   6.363   4.257  0.5089  0.0322  0.8264
 9515TIP3    H228510   3.844   6.382   4.277  0.6313 -0.6239  0.5663
 9516TIP3   OH228511   4.118   5.712   4.344  0.4726 -0.0958 -0.4396
 9516TIP3    H128512   4.145   5.802   4.362 -0.6605  0.2561 -0.4217
 9516TIP3    H228513   4.088   5.714   4.253  0.3349 -0.4285 -0.4018
 9517TIP3   OH228514   2.305   4.943   2.522 -0.9066  0.0548 -0.2038
 9517TIP3    H128515   2.357   4.953   2.602 -1.9518 -1.6728  0.7516
 9517TIP3    H228516   2.370   4.936   2.452  0.0825 -0.0602  0.6917
 9518TIP3   OH228517   4.043   0.359   2.550  0.2702 -0.4287 -0.8366
 9518TIP3    H128518   3.950   0.366   2.571  0.1828 -1.3016 -0.8934
 9518TIP3    H228519   4.055   0.421   2.478  0.0400  0.7049  0.0689
 9519TIP3   OH228520   7.023   4.314   1.445  0.2403  0.0258 -0.1256
 9519TIP3    H128521   7.106   4.360   1.436  0.0748  0.5574  0.8996
 9519TIP3    H228522   6.957   4.382   1.431 -0.0508 -0.5474 -1.7261
 9520TIP3   OH228523   5.362   3.019   1.036  0.1788 -0.1012  0.0566
 9520TIP3    H128524   5.404   3.100   1.065  0.6891 -0.7401  1.1961
 9520TIP3    H228525   5.329   2.979   1.117  0.8066 -1.4955 -0.3455
 9521TIP3   OH228526   3.769   0.609   3.376 -0.0988 -0.2382  0.4436
 9521TIP3    H128527   3.684   0.595   3.335  0.3078 -0.9447 -0.1958
 9521TIP3    H228528   3.832   0.595   3.305  0.5076  1.6607  0.5679
 9522TIP3   OH228529   2.001   6.010   2.665 -0.4136 -0.2964  0.4632
 9522TIP3    H128530   1.986   6.099   2.631 -0.7930 -0.3280  0.5365
 9522TIP3    H228531   2.090   5.989   2.639 -0.7360 -0.3703 -0.6445
 9523TIP3   OH228532   3.788   6.416   5.847 -0.0012 -0.6407  0.0432
 9523TIP3    H128533   3.767   6.328   5.879  2.0108 -0.9523  0.6447
 9523TIP3    H228534   3.781   6.409   5.752 -1.4813 -0.9833  0.1604
 9524TIP3   OH228535   1.446   4.795   0.976 -0.0578 -0.4990  0.2171
 9524TIP3    H128536   1.430   4.889   0.989  1.0580 -0.2724  0.1008
 9524TIP3    H228537   1.367   4.752   1.008 -0.4653  0.4654  0.5463
 9525TIP3   OH228538   2.406   0.138   5.785 -0.5617 -0.1009  1.0373
 9525TIP3    H128539   2.461   0.064   5.758  0.4664  0.4342  1.6538
 9525TIP3    H228540   2.423   0.206   5.720 -1.6036 -0.4190  0.3964
 9526TIP3   OH228541   6.987   0.059   4.644  0.3899  0.2592 -0.1702
 9526TIP3    H128542   7.033   0.003   4.582  0.6544 -0.3748  0.5804
 9526TIP3    H228543   7.056   0.100   4.697  0.1318 -0.4529  0.7520
 9527TIP3   OH228544   1.402   2.104   3.791 -0.1177  0.1544 -0.3731
 9527TIP3    H128545   1.351   2.023   3.796  0.7357 -0.3928 -0.1875
 9527TIP3    H228546   1.487   2.076   3.758  0.2096  0.9754 -0.2530
 9528TIP3   OH228547   3.564   3.042   0.234  0.4510 -0.2057  0.1008
 9528TIP3    H128548   3.633   3.040   0.168  0.0426  0.3886 -0.3544
 9528TIP3    H228549   3.559   2.952   0.266  1.2631 -0.3101 -0.0313
 9529TIP3   OH228550   4.698   4.270   4.632 -0.1722 -0.2071 -0.0986
 9529TIP3    H128551   4.707   4.350   4.684  3.1393  0.1086 -0.9603
 9529TIP3    H228552   4.666   4.204   4.693 -0.1116  1.0653  1.3577
 9530TIP3   OH228553   3.914   1.996   2.917 -0.2872  0.2238  0.3962
 9530TIP3    H128554   3.998   1.953   2.936  0.6022  0.9714 -1.5395
 9530TIP3    H228555   3.932   2.089   2.932 -1.3865  0.2247  1.8856
 9531TIP3   OH228556   3.277   4.598   0.516 -0.6782 -0.1102  0.4198
 9531TIP3    H128557   3.237   4.560   0.438 -2.7632 -0.8265  1.7704
 9531TIP3    H228558   3.276   4.527   0.581  2.4182 -0.0197  0.7154
 9532TIP3   OH228559   4.172   4.716   3.382 -0.2919 -0.0682 -0.4728
 9532TIP3    H128560   4.083   4.720   3.418 -0.6962 -1.5019 -1.2423
 9532TIP3    H228561   4.229   4.724   3.459 -1.0271  2.0973 -0.0813
 9533TIP3   OH228562   7.036   5.100   0.709 -0.1097  0.2043 -0.3420
 9533TIP3    H128563   7.118   5.085   0.756  1.1686 -0.0287 -2.5073
 9533TIP3    H228564   6.999   5.178   0.749  1.2489  0.4023  0.5900
 9534TIP3   OH228565   4.384   2.833   4.903  0.2095  0.5789 -0.0662
 9534TIP3    H128566   4.365   2.807   4.813 -0.5902 -0.1082  0.2872
 9534TIP3    H228567   4.479   2.845   4.905  1.0264 -3.9664  0.0675
 9535TIP3   OH228568   4.930   5.580   5.624 -0.2286  0.6157 -0.0304
 9535TIP3    H128569   4.997   5.523   5.662  0.5902  0.9054 -1.0168
 9535TIP3    H228570   4.886   5.526   5.559 -2.3845 -0.2397  1.9968
 9536TIP3   OH228571   5.228   3.241   4.220  0.1830 -0.4684  0.4273
 9536TIP3    H128572   5.156   3.287   4.177  0.8252 -0.0437 -0.2178
 9536TIP3    H228573   5.303   3.300   4.212  0.8407 -1.2990  0.2436
 9537TIP3   OH228574   0.940   3.378   4.271 -0.7030  0.4531 -1.1028
 9537TIP3    H128575   0.890   3.367   4.351 -0.3517 -0.0633 -0.9510
 9537TIP3    H228576   0.920   3.300   4.219  0.4051 -0.0660 -0.7818
 9538TIP3   OH228577   3.789   4.683   0.047 -0.5314 -0.2654 -0.1280
 9538TIP3    H128578   3.839   4.720  -0.026  1.4955 -1.4264  0.5830
 9538TIP3    H228579   3.729   4.753   0.073  0.7961  1.2512 -0.9813
 9539TIP3   OH228580   4.590   4.956   4.014  0.1839 -0.8201  0.0283
 9539TIP3    H128581   4.661   4.991   4.069 -1.8892  1.6231  1.3900
 9539TIP3    H228582   4.528   4.918   4.076 -2.0472  1.6789 -0.4657
 9540TIP3   OH228583   5.778   2.822   2.848  0.0356 -0.2880  0.4347
 9540TIP3    H128584   5.783   2.777   2.932 -1.7377 -1.8098 -0.2073
 9540TIP3    H228585   5.778   2.915   2.870 -0.6147 -0.6590  2.1247
 9541TIP3   OH228586   3.305   2.833   4.565  0.0627  0.4221  0.5894
 9541TIP3    H128587   3.276   2.780   4.491 -0.0300  0.5306  0.5472
 9541TIP3    H228588   3.228   2.840   4.621 -0.3085  1.5951 -0.0393
 9542TIP3   OH228589   6.176   2.152   4.722 -0.3302  0.2273  0.4419
 9542TIP3    H128590   6.108   2.110   4.776 -0.6994  0.6575  0.3182
 9542TIP3    H228591   6.258   2.128   4.764 -0.6739  1.9158  2.2109
 9543TIP3   OH228592   0.632   1.544   1.369  0.2337  0.3891  0.4033
 9543TIP3    H128593   0.572   1.549   1.444 -0.7345  2.5021 -0.4284
 9543TIP3    H228594   0.655   1.451   1.363 -1.3486 -0.1689  2.0103
 9544TIP3   OH228595   4.810   5.863   0.153 -0.3185  0.0422  0.1474
 9544TIP3    H128596   4.812   5.803   0.228  0.6139  0.2373  0.2854
 9544TIP3    H228597   4.834   5.808   0.078 -0.1830  0.0881  0.1582
 9545TIP3   OH228598   6.717   2.947   1.669  0.1587  0.2075 -0.7218
 9545TIP3    H128599   6.788   3.011   1.663 -0.4929  1.0622  0.3871
 9545TIP3    H228600   6.648   2.982   1.613  0.0922  0.0771 -0.7211
 9546TIP3   OH228601   0.463  -0.024   5.462 -0.0962  0.0823 -0.7097
 9546TIP3    H128602   0.509   0.018   5.389  1.7435 -0.8465 -0.1570
 9546TIP3    H228603   0.482   0.032   5.538  0.1759 -0.3314 -0.4679
 9547TIP3   OH228604   2.115   1.770   0.083  0.6050  0.4369  0.2130
 9547TIP3    H128605   2.207   1.757   0.061  0.9961  0.4364  1.7304
 9547TIP3    H228606   2.072   1.788  -0.001  1.9158  0.0850 -0.5566
 9548TIP3   OH228607   4.989   5.960   5.823  0.5816 -0.1568 -0.0255
 9548TIP3    H128608   5.069   5.964   5.770  0.3934 -0.0695 -0.3023
 9548TIP3    H228609   5.005   6.021   5.895  0.9034 -0.3987  0.1124
 9549TIP3   OH228610   3.482   0.031   0.942 -0.0009 -0.1602  0.3294
 9549TIP3    H128611   3.496   0.084   0.863  0.2968 -1.1885 -0.3316
 9549TIP3    H228612   3.536   0.074   1.009  0.4953  0.1901 -0.2781
 9550TIP3   OH228613   0.472   0.126   5.681 -0.0322  0.0231  0.0229
 9550TIP3    H128614   0.515   0.211   5.691 -0.9842  0.6766 -1.1258
 9550TIP3    H228615   0.408   0.123   5.753 -1.2896  1.1373 -0.9914
 9551TIP3   OH228616   2.954   1.987   1.906  0.4338 -0.1520 -0.1093
 9551TIP3    H128617   2.874   1.983   1.959  1.8470 -1.8503  2.1000
 9551TIP3    H228618   2.950   1.909   1.851  0.2714  0.1209 -0.4878
 9552TIP3   OH228619   3.606   2.321   1.122  0.2742 -0.3121  0.0455
 9552TIP3    H128620   3.675   2.257   1.140  1.2395  0.2959 -1.2935
 9552TIP3    H228621   3.630   2.358   1.037 -1.2908  0.4850 -0.0790
 9553TIP3   OH228622   4.867   4.538   4.222  0.4004  0.3289  0.0977
 9553TIP3    H128623   4.773   4.534   4.204  0.5238  0.4030 -0.5964
 9553TIP3    H228624   4.880   4.478   4.295  0.1485 -1.4254 -1.2384
 9554TIP3   OH228625   6.405   4.725   2.216 -0.0758 -0.0424 -0.4023
 9554TIP3    H128626   6.427   4.776   2.137  1.2412  0.8275  0.4832
 9554TIP3    H228627   6.409   4.789   2.287  1.2385 -1.2958  0.7013
 9555TIP3   OH228628   6.775   0.239   3.825 -0.1189  0.2296 -0.0270
 9555TIP3    H128629   6.858   0.284   3.809 -0.6433  1.0759 -0.4587
 9555TIP3    H228630   6.732   0.239   3.739 -0.4138 -0.5165  0.1177
 9556TIP3   OH228631   0.532   4.726   0.556 -0.3761 -0.0340 -0.2839
 9556TIP3    H128632   0.448   4.686   0.530 -0.3663  0.1040 -0.5358
 9556TIP3    H228633   0.506   4.804   0.607 -0.3984 -0.1568 -0.1076
 9557TIP3   OH228634   4.863   2.411   1.103 -0.0024  0.3162 -0.1081
 9557TIP3    H128635   4.900   2.471   1.167 -0.1000 -0.4042  0.6512
 9557TIP3    H228636   4.923   2.336   1.103 -0.3736  0.0150 -0.3542
 9558TIP3   OH228637   7.022   5.861   2.391 -0.0524  0.3740 -0.5883
 9558TIP3    H128638   6.935   5.835   2.421  0.1374 -0.3789 -0.6653
 9558TIP3    H228639   7.008   5.941   2.341 -0.5266  1.0170  0.5337
 9559TIP3   OH228640  -0.007   2.544   5.260  0.3220 -0.4062  0.0313
 9559TIP3    H128641   0.023   2.454   5.246 -0.2687 -1.0161  2.2746
 9559TIP3    H228642  -0.016   2.580   5.172  0.9421 -2.4036 -0.9185
 9560TIP3   OH228643   4.104   0.446   0.997  0.1242 -0.7140 -0.1771
 9560TIP3    H128644   4.073   0.356   0.996 -1.7012 -0.1302 -1.1251
 9560TIP3    H228645   4.156   0.454   0.917  0.3233 -0.9192 -0.0705
 9561TIP3   OH228646   4.523   0.833   3.659  0.1343 -0.3881 -0.0362
 9561TIP3    H128647   4.564   0.917   3.638 -0.9361  0.4276  0.9642
 9561TIP3    H228648   4.539   0.821   3.753 -0.9878 -0.5421  0.1524
 9562TIP3   OH228649   5.514   1.705   2.023  0.1684 -0.1258 -0.5761
 9562TIP3    H128650   5.541   1.714   2.114 -2.4741  3.0292  0.0812
 9562TIP3    H228651   5.594   1.679   1.977  1.4262 -2.7321  2.6169
 9563TIP3   OH228652   4.044   1.348   3.580  0.0517  0.0472 -0.1587
 9563TIP3    H128653   3.981   1.353   3.507 -1.5943  0.5298  1.2320
 9563TIP3    H228654   4.034   1.259   3.614 -1.4677  0.7422  1.3573
 9564TIP3   OH228655   4.674   4.388   3.632 -0.2111  0.5043  0.5772
 9564TIP3    H128656   4.624   4.308   3.646 -1.2882  0.4892 -2.6291
 9564TIP3    H228657   4.764   4.358   3.621 -0.2419  0.0083  1.5340
 9565TIP3   OH228658   1.894   1.983   1.515  0.1515 -0.0433  0.9779
 9565TIP3    H128659   1.853   1.905   1.476  0.2313 -0.6343  2.0446
 9565TIP3    H228660   1.887   1.969   1.609  1.0002  0.8114  1.1791
 9566TIP3   OH228661   5.849   6.559   3.101  0.4016  0.1342 -0.9046
 9566TIP3    H128662   5.900   6.546   3.021  3.0225  0.0606  0.6577
 9566TIP3    H228663   5.893   6.630   3.147 -0.8313 -0.0224  0.6217
 9567TIP3   OH228664   5.823   1.884   0.384 -0.0646 -0.9168  0.8598
 9567TIP3    H128665   5.862   1.815   0.330  0.7437 -1.2280  1.8266
 9567TIP3    H228666   5.742   1.906   0.338  0.3601 -1.5067 -0.2286
 9568TIP3   OH228667   5.386   4.142   5.453  0.1349  0.0879  0.1369
 9568TIP3    H128668   5.338   4.182   5.526  1.1173 -1.2034  1.5651
 9568TIP3    H228669   5.321   4.091   5.406 -0.4037  0.4632  0.4583
 9569TIP3   OH228670   5.114   1.758   4.436  0.6598 -0.0105 -0.4126
 9569TIP3    H128671   5.106   1.851   4.413 -1.6979 -0.0526  0.0332
 9569TIP3    H228672   5.121   1.714   4.351  0.1600  0.4651 -0.7145
 9570TIP3   OH228673   0.249   4.256   2.104  0.4112  0.2292 -0.2779
 9570TIP3    H128674   0.230   4.185   2.042 -1.3520 -1.2956  1.8461
 9570TIP3    H228675   0.182   4.322   2.087  0.5906  0.3042 -0.6954
 9571TIP3   OH228676   6.681   5.992   0.809 -0.1201 -0.2521  0.0688
 9571TIP3    H128677   6.763   5.943   0.811 -0.4734 -1.4119 -4.0048
 9571TIP3    H228678   6.620   5.940   0.861  1.1537 -0.4638  1.4223
 9572TIP3   OH228679   3.572   0.423   4.857 -0.1100  0.0450  0.4149
 9572TIP3    H128680   3.611   0.489   4.800  1.6030 -0.7636  0.5848
 9572TIP3    H228681   3.478   0.429   4.840  0.2963  0.0708 -2.2485
 9573TIP3   OH228682   6.347   3.738   4.476  0.0350  0.5577  0.1242
 9573TIP3    H128683   6.289   3.800   4.432 -0.5545 -0.6477 -0.8651
 9573TIP3    H228684   6.434   3.777   4.469 -0.5774  2.2190  1.3144
 9574TIP3   OH228685   3.455   1.868   0.545  0.5134 -0.2122  0.6418
 9574TIP3    H128686   3.493   1.954   0.565 -0.3210  0.3357 -0.0588
 9574TIP3    H228687   3.489   1.810   0.613  1.0592  0.6819  1.1455
 9575TIP3   OH228688   7.164   4.357   2.985 -0.1702 -0.3419  0.2424
 9575TIP3    H128689   7.093   4.293   2.980 -0.1563 -0.3384  0.0226
 9575TIP3    H228690   7.243   4.307   2.965  0.1760 -0.8235  2.4831
 9576TIP3   OH228691   3.197   3.784   4.481 -0.3986  0.3495 -0.0249
 9576TIP3    H128692   3.209   3.782   4.576 -0.6297  0.2249  0.0042
 9576TIP3    H228693   3.103   3.772   4.469 -0.2976 -0.2052 -0.2882
 9577TIP3   OH228694   1.304   6.044   1.246  0.0857 -0.8364 -0.3044
 9577TIP3    H128695   1.308   6.014   1.337 -0.0021 -0.6003 -0.2229
 9577TIP3    H228696   1.393   6.074   1.226 -0.1142 -0.0107  0.0039
 9578TIP3   OH228697   4.104   4.031   3.749  0.2372  0.3242  0.4206
 9578TIP3    H128698   4.177   3.998   3.802  2.0200  2.2616 -0.6921
 9578TIP3    H228699   4.091   4.121   3.779 -2.2451 -0.1603  1.0700
 9579TIP3   OH228700   1.797   0.858   1.398 -0.0079 -0.1409  0.4680
 9579TIP3    H128701   1.710   0.824   1.377  0.2188 -0.8358  0.6275
 9579TIP3    H228702   1.816   0.823   1.485  0.2418  0.3881  0.6328
 9580TIP3   OH228703   3.799   0.935   5.178  0.1439  0.5112  0.4340
 9580TIP3    H128704   3.714   0.979   5.183 -0.1396  0.1446 -0.7171
 9580TIP3    H228705   3.852   0.990   5.120  0.4930  0.4259  0.6670
 9581TIP3   OH228706   0.253   2.747   2.031  0.6450  0.7498  0.3005
 9581TIP3    H128707   0.229   2.777   1.943 -1.0684 -1.1757  0.0395
 9581TIP3    H228708   0.190   2.791   2.088 -0.4121 -0.5207  0.1583
 9582TIP3   OH228709   2.424   3.253   1.526  0.4392  0.0014  0.4756
 9582TIP3    H128710   2.386   3.193   1.462  0.2556 -0.6990  1.2248
 9582TIP3    H228711   2.463   3.196   1.592 -0.2395  0.6933  1.5036
 9583TIP3   OH228712   5.967   2.347   4.691 -0.1445 -0.1467  0.1949
 9583TIP3    H128713   5.908   2.293   4.637  1.0941  0.6389 -2.0685
 9583TIP3    H228714   6.035   2.286   4.719  1.7920  0.2220 -3.1665
 9584TIP3   OH228715   6.486   0.269   5.874  0.5457 -0.1338 -0.1693
 9584TIP3    H128716   6.560   0.330   5.872  0.2107  0.2945  0.0965
 9584TIP3    H228717   6.509   0.201   5.811  0.5840  0.6812 -1.0686
 9585TIP3   OH228718   1.527   3.071   1.297 -0.0523  0.1419 -0.3547
 9585TIP3    H128719   1.549   3.121   1.375 -0.7404  0.4200 -0.3294
 9585TIP3    H228720   1.556   2.982   1.317 -0.5183  0.1397  0.3600
 9586TIP3   OH228721   4.495   0.882   1.285  0.7751 -0.0779  0.3509
 9586TIP3    H128722   4.500   0.902   1.379  2.4693 -1.1868  0.5441
 9586TIP3    H228723   4.579   0.913   1.250  0.9485 -1.3672 -0.4227
 9587TIP3   OH228724   5.327   4.134   0.297 -0.1363  0.5999 -0.0144
 9587TIP3    H128725   5.345   4.220   0.336 -0.3317  0.5846  0.1123
 9587TIP3    H228726   5.256   4.150   0.235 -0.9731  0.3361  0.8360
 9588TIP3   OH228727   2.990   3.941   0.006 -0.2272 -0.3026 -0.5099
 9588TIP3    H128728   3.049   3.910   0.074 -0.7208 -0.5451 -0.1805
 9588TIP3    H228729   2.921   3.875   0.002 -1.0165  0.4681 -0.1649
 9589TIP3   OH228730   6.036   2.289   2.580  0.2432  0.1881 -0.2115
 9589TIP3    H128731   6.005   2.353   2.516 -2.2793 -0.0349  0.6764
 9589TIP3    H228732   6.061   2.341   2.656 -0.4897  0.2214  0.0121
 9590TIP3   OH228733   2.495   3.892   1.625  0.4972 -0.3416 -0.0588
 9590TIP3    H128734   2.472   3.984   1.615  0.9419 -0.2556 -0.3390
 9590TIP3    H228735   2.564   3.877   1.560 -0.5872 -1.2522 -1.0659
 9591TIP3   OH228736   3.965   1.200   3.147  0.0962  0.1282  0.2758
 9591TIP3    H128737   3.937   1.214   3.238 -0.5717  0.4872  0.0160
 9591TIP3    H228738   4.052   1.161   3.155  0.4765  1.0793  1.0710
 9592TIP3   OH228739   5.460   1.487   5.610  0.1451 -0.2099 -1.0408
 9592TIP3    H128740   5.440   1.491   5.516 -0.2102  0.9032 -0.9288
 9592TIP3    H228741   5.374   1.479   5.652  0.2627 -0.0499 -0.7728
 9593TIP3   OH228742   1.079   2.594   4.804  0.8625  0.0129 -0.0883
 9593TIP3    H128743   1.078   2.602   4.899 -1.3274  1.0040 -0.1454
 9593TIP3    H228744   1.054   2.681   4.772  3.0558  0.1660 -1.6725
 9594TIP3   OH228745   2.036   6.400   0.370 -0.2120  0.7300 -0.1394
 9594TIP3    H128746   1.974   6.435   0.306 -1.1411 -1.6545 -0.6677
 9594TIP3    H228747   1.980   6.366   0.440  0.6007  0.1034  0.2114
 9595TIP3   OH228748   3.848   2.257   5.355  0.1617  0.3610  0.9267
 9595TIP3    H128749   3.861   2.190   5.422  0.1587  0.4886  1.0530
 9595TIP3    H228750   3.931   2.304   5.351  0.7657 -0.7149 -0.3402
 9596TIP3   OH228751   3.263   1.934   0.247  0.0274  0.0833 -0.5270
 9596TIP3    H128752   3.246   1.877   0.172  0.8786 -0.8995  0.0086
 9596TIP3    H228753   3.177   1.946   0.288 -0.1195 -1.0545 -0.4844
 9597TIP3   OH228754   5.038   2.913   1.667  0.2179  0.6455 -0.2174
 9597TIP3    H128755   4.989   2.890   1.746 -2.5873 -0.4524 -2.0930
 9597TIP3    H228756   5.052   3.008   1.674 -1.7616  0.9225  0.7174
 9598TIP3   OH228757   6.684   4.200   2.686 -0.2449  0.1574  0.4377
 9598TIP3    H128758   6.771   4.238   2.679  0.0947 -0.3397  1.7623
 9598TIP3    H228759   6.633   4.245   2.618  0.8969  0.8171 -0.0122
 9599TIP3   OH228760   2.318   3.133   2.034 -0.3017  0.3590 -0.0484
 9599TIP3    H128761   2.351   3.044   2.052 -0.6743  0.5620  1.8748
 9599TIP3    H228762   2.307   3.172   2.121 -0.8903  2.0258 -0.8381
 9600TIP3   OH228763   5.508   2.477   3.487 -0.4314 -0.0314  0.0426
 9600TIP3    H128764   5.581   2.537   3.505  0.0469 -0.4720 -0.3976
 9600TIP3    H228765   5.535   2.430   3.408 -0.7570 -0.9114  0.4533
 9601TIP3   OH228766   0.806   5.385   5.147  0.7874  0.9444 -0.0351
 9601TIP3    H128767   0.737   5.348   5.093 -0.8795  1.1163  1.8524
 9601TIP3    H228768   0.886   5.374   5.095 -0.2582 -1.4433 -1.3073
 9602TIP3   OH228769   2.109   5.648   3.877  0.3985 -0.1657  0.3746
 9602TIP3    H128770   2.062   5.607   3.805 -2.9232 -2.9828  3.7228
 9602TIP3    H228771   2.187   5.594   3.888 -0.1047 -0.9834  0.0608
 9603TIP3   OH228772   5.772   4.677   3.890 -0.3475 -0.3752  0.2588
 9603TIP3    H128773   5.770   4.591   3.848 -0.4405  0.2685 -1.1280
 9603TIP3    H228774   5.860   4.710   3.872 -0.1883 -0.3298  1.1073
 9604TIP3   OH228775   1.436   5.757   4.786  0.3224  0.5905 -0.3058
 9604TIP3    H128776   1.383   5.803   4.851  0.1017  0.3941 -0.3425
 9604TIP3    H228777   1.435   5.814   4.709  2.2104  1.7816  0.4709
 9605TIP3   OH228778   0.189   0.704   4.521  0.4544  0.2268 -0.1292
 9605TIP3    H128779   0.246   0.780   4.511  1.1654 -0.1724  0.7720
 9605TIP3    H228780   0.100   0.739   4.512  0.8176  0.8230 -1.7342
 9606TIP3   OH228781   2.502   1.929   4.612 -0.3687 -0.6294 -0.7773
 9606TIP3    H128782   2.573   1.992   4.606 -0.1885 -0.6273  0.9872
 9606TIP3    H228783   2.433   1.966   4.555 -0.7176  1.8147  1.0398
 9607TIP3   OH228784   5.010   6.611   2.410 -0.1361  0.6976  0.0756
 9607TIP3    H128785   5.090   6.559   2.415  1.2460  2.7480  0.3594
 9607TIP3    H228786   5.032   6.694   2.452 -2.5328  1.2143  0.4614
 9608TIP3   OH228787   3.919   2.026   1.414  0.0824  0.5558  0.7901
 9608TIP3    H128788   3.963   2.066   1.489  0.9663 -0.8454  1.0549
 9608TIP3    H228789   3.977   1.955   1.387 -1.4300 -0.5858  0.3816
 9609TIP3   OH228790   1.145   1.215   4.007 -0.6847  0.3275 -0.3134
 9609TIP3    H128791   1.095   1.264   4.072  0.9003 -0.3494  1.5267
 9609TIP3    H228792   1.212   1.276   3.977  0.0666 -0.0707  0.5108
 9610TIP3   OH228793   6.930   3.535   4.458  0.1829 -0.3229 -0.3269
 9610TIP3    H128794   6.838   3.524   4.482 -0.1441 -0.4535 -1.5842
 9610TIP3    H228795   6.953   3.455   4.411  0.2960  0.5881 -1.9021
 9611TIP3   OH228796   5.307   2.468   0.138  0.1322  0.0935  0.3098
 9611TIP3    H128797   5.279   2.551   0.100  1.0308  0.0383 -0.4871
 9611TIP3    H228798   5.399   2.459   0.114  0.5528 -0.2838  1.8990
 9612TIP3   OH228799   4.609   4.284   0.026 -0.0637 -0.0539  0.1774
 9612TIP3    H128800   4.697   4.319   0.019 -0.0527  0.0127  0.6264
 9612TIP3    H228801   4.620   4.199   0.069 -0.3689  0.6813  1.7851
 9613TIP3   OH228802   4.489   4.806   3.248  0.6515 -0.6653 -0.2803
 9613TIP3    H128803   4.473   4.799   3.154  2.4287 -1.5358 -0.5609
 9613TIP3    H228804   4.523   4.720   3.274 -1.0233 -0.8742  1.4474
 9614TIP3   OH228805   4.309   2.908   5.820 -0.1662  0.1424  0.0218
 9614TIP3    H128806   4.242   2.937   5.882 -0.3271 -0.4888  0.1524
 9614TIP3    H228807   4.294   2.813   5.811  1.5614 -0.2742  1.0955
 9615TIP3   OH228808   1.300   5.551   4.949 -0.4973  0.5235  0.3486
 9615TIP3    H128809   1.353   5.630   4.959  0.1029  0.2299 -0.4458
 9615TIP3    H228810   1.341   5.503   4.877 -0.9470 -0.4403  0.7163
 9616TIP3   OH228811   4.952   3.056   5.010 -0.0758 -1.3328  0.2902
 9616TIP3    H128812   4.925   3.101   4.930 -0.2781 -0.5872  0.7687
 9616TIP3    H228813   5.041   3.088   5.027  0.0924 -1.7409  0.1829
 9617TIP3   OH228814   5.984   0.979   2.965  0.1208  0.5310  0.1855
 9617TIP3    H128815   5.996   0.950   2.875  0.8542 -0.8356  0.6783
 9617TIP3    H228816   5.891   0.966   2.983  0.1824 -0.2791 -0.0403
 9618TIP3   OH228817   3.852   5.986   5.138 -0.4468 -0.4566 -0.3683
 9618TIP3    H128818   3.793   5.967   5.065  0.0641  2.6528 -1.7118
 9618TIP3    H228819   3.821   6.069   5.173 -0.3432 -1.5971  2.7005
 9619TIP3   OH228820   4.744   6.117   2.245 -0.0328 -0.4014  0.0093
 9619TIP3    H128821   4.712   6.177   2.312  1.1917  0.7303 -0.3683
 9619TIP3    H228822   4.791   6.049   2.295 -0.1746 -0.2393  0.3659
 9620TIP3   OH228823   1.153   0.560   4.169  0.1956  0.4306  0.0831
 9620TIP3    H128824   1.239   0.531   4.198 -0.3871 -1.1264  0.3352
 9620TIP3    H228825   1.160   0.566   4.073  0.0243 -1.7477 -0.1027
 9621TIP3   OH228826   1.424   0.581   1.348 -0.5154 -0.0619 -0.4530
 9621TIP3    H128827   1.402   0.568   1.440  1.2568 -4.9732 -0.4146
 9621TIP3    H228828   1.353   0.540   1.299  0.5579 -1.3907 -0.9816
 9622TIP3   OH228829   3.251   3.496   5.380 -0.1922 -0.2722 -0.0046
 9622TIP3    H128830   3.305   3.495   5.301 -0.1618 -1.8263 -0.0016
 9622TIP3    H228831   3.182   3.560   5.362  1.9526  2.2796  0.2456
 9623TIP3   OH228832   0.377   0.436   2.542  0.7650 -0.5417 -0.1566
 9623TIP3    H128833   0.344   0.466   2.627 -0.9135 -1.7969 -0.3022
 9623TIP3    H228834   0.320   0.363   2.519  1.0192 -0.0764 -2.5104
 9624TIP3   OH228835   2.187   2.173   2.129  0.3737 -0.0706  0.4679
 9624TIP3    H128836   2.207   2.248   2.185 -0.6633 -0.2285  1.0836
 9624TIP3    H228837   2.095   2.184   2.107  0.3119 -0.9629  0.2559
 9625TIP3   OH228838   2.984   3.434   0.941  0.1469 -0.4345  0.0647
 9625TIP3    H128839   2.976   3.431   0.845  0.1114  1.0684 -0.0061
 9625TIP3    H228840   2.895   3.452   0.972  0.1745 -0.8301  0.3806
 9626TIP3   OH228841   6.210   3.691   0.346  0.0071  0.6990  0.3591
 9626TIP3    H128842   6.255   3.610   0.324 -1.4631 -0.1653  0.4476
 9626TIP3    H228843   6.226   3.748   0.270  1.9060  0.7427  0.7403
 9627TIP3   OH228844   3.771   5.165   1.573 -0.2977 -0.2265  0.0009
 9627TIP3    H128845   3.852   5.161   1.522 -1.1335  1.2928 -1.5769
 9627TIP3    H228846   3.796   5.207   1.655  0.2683  1.7398 -1.1249
 9628TIP3   OH228847   2.834   0.431   5.213  0.2828 -0.2693 -0.0868
 9628TIP3    H128848   2.762   0.477   5.257 -0.0811  0.6440 -1.5754
 9628TIP3    H228849   2.913   0.466   5.255 -0.0556  0.5236 -0.0946
 9629TIP3   OH228850   3.443   4.526   3.714 -0.0960  0.2412  0.7297
 9629TIP3    H128851   3.395   4.606   3.692  1.3334  1.1096  0.6155
 9629TIP3    H228852   3.377   4.457   3.713 -1.0991  1.1533 -0.7775
 9630TIP3   OH228853   6.200   1.197   5.167  0.3156 -0.1065 -0.3124
 9630TIP3    H128854   6.184   1.105   5.185  1.1984 -0.1431  0.3383
 9630TIP3    H228855   6.148   1.244   5.233  0.9143 -0.1740  0.2156
 9631TIP3   OH228856   3.462   5.476   2.789  0.3030 -0.0932  0.5182
 9631TIP3    H128857   3.550   5.501   2.762  0.0735  0.0115 -0.1489
 9631TIP3    H228858   3.465   5.476   2.885  1.3520 -1.2573  0.4979
 9632TIP3   OH228859   0.430   6.659   0.847  0.3174 -0.8084 -0.3877
 9632TIP3    H128860   0.472   6.576   0.872  0.1658 -1.2586 -1.5462
 9632TIP3    H228861   0.367   6.634   0.780  0.4204  0.2832 -0.9113
 9633TIP3   OH228862   3.500   5.031   0.699 -0.3557  0.1483  0.0979
 9633TIP3    H128863   3.427   4.986   0.656  0.7258 -0.3088 -1.3464
 9633TIP3    H228864   3.556   5.059   0.626  0.0419  2.0353  1.0665
 9634TIP3   OH228865   4.806   5.189   0.979  0.3326 -0.5580  0.0076
 9634TIP3    H128866   4.811   5.148   1.065  0.7692  0.0896  0.2985
 9634TIP3    H228867   4.892   5.227   0.966  0.2090 -0.4936 -0.6385
 9635TIP3   OH228868   6.710   3.557   4.633  0.1019 -0.1369 -0.0270
 9635TIP3    H128869   6.656   3.624   4.674  1.2166 -1.2641  3.7395
 9635TIP3    H228870   6.667   3.474   4.655  1.1669 -0.8535 -0.5341
 9636TIP3   OH228871   3.874   4.379   3.191  0.4835  0.0887  0.5324
 9636TIP3    H128872   3.779   4.394   3.192  0.5962  1.3032 -1.8715
 9636TIP3    H228873   3.903   4.409   3.277 -1.3638 -0.9812  1.6022
 9637TIP3   OH228874   6.544   1.495   0.571 -0.2215 -0.2392 -0.0749
 9637TIP3    H128875   6.632   1.521   0.596 -0.3174  0.4831 -0.4668
 9637TIP3    H228876   6.551   1.469   0.479 -0.4795  0.1367 -0.2017
 9638TIP3   OH228877   4.105   6.782   3.767 -0.0176 -0.2524  0.2480
 9638TIP3    H128878   4.127   6.752   3.679  0.8988 -0.7586  0.6433
 9638TIP3    H228879   4.029   6.839   3.754 -1.7460 -2.5846 -0.5497
 9639TIP3   OH228880   6.597   1.533   2.107 -0.2560  0.3438  0.4145
 9639TIP3    H128881   6.628   1.455   2.152  0.0410  0.0034 -0.3594
 9639TIP3    H228882   6.503   1.519   2.096 -0.3051  0.3645  0.7932
 9640TIP3   OH228883   1.029   3.133   3.194  0.1334  0.4402  0.3412
 9640TIP3    H128884   0.944   3.162   3.160  0.6011  0.9680 -0.3942
 9640TIP3    H228885   1.034   3.041   3.170  0.9058  1.0318 -2.0148
 9641TIP3   OH228886   1.066   1.955   5.222 -0.1240 -0.2924 -0.1798
 9641TIP3    H128887   1.106   1.899   5.288 -2.5460 -1.6310  0.2521
 9641TIP3    H228888   1.072   1.904   5.141  1.6917  0.8136 -0.8202
 9642TIP3   OH228889   2.074   5.160   3.560 -0.2481  0.0578  0.3092
 9642TIP3    H128890   1.998   5.117   3.522 -0.4477  2.0005 -1.7135
 9642TIP3    H228891   2.133   5.175   3.486  0.6047  1.5371  1.2355
 9643TIP3   OH228892   5.283   4.512   4.743  0.5189 -0.0678 -0.3837
 9643TIP3    H128893   5.342   4.453   4.791 -0.6475 -1.8884 -1.0669
 9643TIP3    H228894   5.295   4.488   4.651 -0.9380 -0.1631 -0.5689
 9644TIP3   OH228895   4.350   2.484   0.739  0.2339  0.3062 -0.3469
 9644TIP3    H128896   4.308   2.439   0.811 -0.1450  0.8407 -0.2254
 9644TIP3    H228897   4.420   2.535   0.780  0.6348 -0.1292 -0.4780
 9645TIP3   OH228898   2.197   0.567   3.579 -0.6595  0.0741  0.2169
 9645TIP3    H128899   2.227   0.529   3.496  1.5184 -0.3519  1.1298
 9645TIP3    H228900   2.263   0.633   3.600 -0.9715 -0.0677  1.7664
 9646TIP3   OH228901   2.806   0.741   5.099  0.4325 -0.2362  0.2567
 9646TIP3    H128902   2.883   0.719   5.152  0.1272 -1.0585  0.3764
 9646TIP3    H228903   2.741   0.675   5.123 -0.1917  0.2376 -0.1054
 9647TIP3   OH228904   6.153   4.314   2.020  0.3938 -0.0877  0.0811
 9647TIP3    H128905   6.145   4.327   1.926  1.7369  0.8901  0.0721
 9647TIP3    H228906   6.239   4.273   2.031  0.1871 -0.3248  0.8684
 9648TIP3   OH228907   5.168   0.495   5.029  0.7866 -0.0601  0.1559
 9648TIP3    H128908   5.244   0.531   5.075  0.6940 -1.5698  1.5619
 9648TIP3    H228909   5.181   0.400   5.033  0.7511 -0.2911 -2.9324
 9649TIP3   OH228910   0.114   6.043   2.773 -0.3629 -0.4722 -0.5119
 9649TIP3    H128911   0.039   6.097   2.796 -0.2421  0.2440 -1.7368
 9649TIP3    H228912   0.143   6.006   2.856 -0.5139  1.2693  0.3560
 9650TIP3   OH228913   2.606   6.493   0.987 -0.3329 -0.1599 -0.4105
 9650TIP3    H128914   2.521   6.521   0.953 -0.2267  1.6948  0.7159
 9650TIP3    H228915   2.668   6.558   0.954  0.2218 -0.0193  0.8395
 9651TIP3   OH228916   3.315   1.611   0.668 -0.3069  0.4026  0.4569
 9651TIP3    H128917   3.257   1.681   0.637 -0.8883 -0.0202  0.5628
 9651TIP3    H228918   3.303   1.610   0.762 -0.0707  0.3532  0.4875
 9652TIP3   OH228919   2.381   4.714   5.778  0.1102 -0.6877 -0.0370
 9652TIP3    H128920   2.459   4.735   5.829 -0.1477  1.4079 -0.3927
 9652TIP3    H228921   2.309   4.749   5.831 -0.4164 -1.0720 -0.5015
 9653TIP3   OH228922   4.227   4.875   2.242 -0.4529 -0.1521  0.4433
 9653TIP3    H128923   4.321   4.881   2.259 -0.2317  0.2842 -0.7904
 9653TIP3    H228924   4.211   4.781   2.231 -0.2546 -0.2686  1.1472
 9654TIP3   OH228925   3.722   2.889   3.865  0.0711 -0.2791 -0.5539
 9654TIP3    H128926   3.792   2.947   3.833 -0.2011 -0.1191 -0.8706
 9654TIP3    H228927   3.710   2.825   3.795  1.0815 -1.3679  0.2248
 9655TIP3   OH228928   0.675   1.205   0.994  0.3687  0.1425 -0.1103
 9655TIP3    H128929   0.639   1.170   1.075  0.0128  0.3228 -0.1898
 9655TIP3    H228930   0.712   1.129   0.949 -3.1469 -0.7834 -1.7813
 9656TIP3   OH228931   3.876   2.760   3.345  0.2057  0.1082  0.0142
 9656TIP3    H128932   3.817   2.704   3.395 -2.2041  1.9209 -0.6540
 9656TIP3    H228933   3.898   2.832   3.405  1.0895 -0.0973 -0.0373
 9657TIP3   OH228934   4.604   6.143   2.707 -0.1300  0.7958  0.3513
 9657TIP3    H128935   4.570   6.181   2.626  2.1729  0.4486 -0.8756
 9657TIP3    H228936   4.584   6.050   2.701 -0.7632  0.9033  0.6527
 9658TIP3   OH228937   4.638   0.665   1.520 -0.0805  0.1892  0.1981
 9658TIP3    H128938   4.706   0.731   1.504  0.6825 -0.3909  0.9131
 9658TIP3    H228939   4.665   0.623   1.602 -1.2404 -0.1513  0.4150
 9659TIP3   OH228940   6.507   6.074   3.520 -0.3257  0.2624 -0.3511
 9659TIP3    H128941   6.574   6.072   3.588 -0.4466  1.3756 -0.1749
 9659TIP3    H228942   6.555   6.097   3.440 -0.4983  1.2102 -0.1969
 9660TIP3   OH228943   3.815   4.858   0.566  0.1218 -0.6315 -1.1500
 9660TIP3    H128944   3.785   4.778   0.524 -0.1392 -0.8289 -0.6010
 9660TIP3    H228945   3.894   4.833   0.613 -0.9463 -1.0177  0.5169
 9661TIP3   OH228946   4.491   0.866   2.526 -0.8590  0.1439 -0.4355
 9661TIP3    H128947   4.443   0.886   2.446 -1.2021  1.3912  0.0627
 9661TIP3    H228948   4.427   0.880   2.596  0.2153  1.9407  0.2469
 9662TIP3   OH228949   5.803   3.568   1.110 -0.2082 -0.3323  0.2280
 9662TIP3    H128950   5.875   3.618   1.071 -1.6261  0.7318 -1.1177
 9662TIP3    H228951   5.844   3.519   1.181  1.8577  0.1848 -0.5378
 9663TIP3   OH228952   1.405   5.219   2.992  0.2353  0.1947 -0.5938
 9663TIP3    H128953   1.384   5.306   2.957  0.4302  0.3277 -0.3844
 9663TIP3    H228954   1.334   5.163   2.961  0.4492  0.2860 -1.2825
 9664TIP3   OH228955   0.115   1.423   5.812 -0.1201 -0.2973 -0.3092
 9664TIP3    H128956   0.036   1.461   5.775 -0.1934  1.0414  1.1564
 9664TIP3    H228957   0.085   1.376   5.890  0.4196 -0.5828 -0.2664
 9665TIP3   OH228958   6.233   6.548   0.820  0.1439 -0.8377 -0.7353
 9665TIP3    H128959   6.162   6.484   0.808 -0.5270 -0.0119 -1.3274
 9665TIP3    H228960   6.191   6.623   0.863  0.4931 -0.0706 -1.6859
 9666TIP3   OH228961   0.052   3.976   1.661 -0.1725  0.0122 -0.3701
 9666TIP3    H128962   0.031   3.892   1.619 -1.1052  1.3272 -2.7491
 9666TIP3    H228963   0.020   3.966   1.750  0.5458 -2.4390 -0.2928
 9667TIP3   OH228964   0.815   0.297   3.377 -0.0999  0.0984 -0.4971
 9667TIP3    H128965   0.775   0.238   3.440  2.3182  0.0973  1.1658
 9667TIP3    H228966   0.882   0.244   3.334  0.4500  0.9779 -0.7431
 9668TIP3   OH228967   5.269   1.784   5.235  0.6095  0.0255 -0.1165
 9668TIP3    H128968   5.329   1.790   5.310  0.1776  2.3179  0.1252
 9668TIP3    H228969   5.321   1.743   5.166  1.9918  0.6087  0.5360
 9669TIP3   OH228970   4.953   3.746   4.878 -0.4249 -0.3849 -0.5501
 9669TIP3    H128971   4.978   3.796   4.801  0.2996  0.4408  0.2010
 9669TIP3    H228972   4.871   3.787   4.907 -0.6406 -0.6256 -0.8181
 9670TIP3   OH228973   1.801   5.529   0.164 -0.3169  0.0386  0.1832
 9670TIP3    H128974   1.790   5.564   0.075 -1.0590  0.3589  0.3917
 9670TIP3    H228975   1.843   5.444   0.151  0.0709  0.3113 -0.4370
 9671TIP3   OH228976   4.819   6.546   2.211 -0.4429  0.6844 -0.1889
 9671TIP3    H128977   4.869   6.569   2.290 -1.1231 -2.0395  1.1799
 9671TIP3    H228978   4.886   6.527   2.145  0.2787  0.2072  0.6498
 9672TIP3   OH228979   0.921   3.162   0.649  0.0655 -0.0597 -0.3593
 9672TIP3    H128980   0.956   3.246   0.680  1.4146 -1.0181  0.8359
 9672TIP3    H228981   0.831   3.160   0.681 -0.4891  1.5184 -1.6419
 9673TIP3   OH228982   3.162   5.948   5.506 -0.3567 -0.0454 -1.0848
 9673TIP3    H128983   3.067   5.942   5.504 -0.5752  1.5293  1.0488
 9673TIP3    H228984   3.190   5.869   5.551 -0.9112  0.7335  0.7161
 9674TIP3   OH228985   5.895   0.797   2.523 -0.6352  0.1923 -0.1673
 9674TIP3    H128986   5.925   0.879   2.561  1.6387 -1.5107  2.0046
 9674TIP3    H228987   5.963   0.774   2.459 -0.3360 -0.7848  0.4764
 9675TIP3   OH228988   0.380   3.425   0.442 -0.0024  0.3570 -0.3282
 9675TIP3    H128989   0.343   3.337   0.449 -0.9818  0.8017  0.2534
 9675TIP3    H228990   0.372   3.462   0.530 -2.6260  2.1953 -1.2080
 9676TIP3   OH228991   2.320   1.540   2.873  0.2054 -0.2556  0.8457
 9676TIP3    H128992   2.281   1.505   2.793 -0.1688 -1.3660  1.4907
 9676TIP3    H228993   2.253   1.598   2.910 -0.4880 -1.3955  1.4373
 9677TIP3   OH228994   2.503   1.430   1.149  0.2094  0.8761  0.4784
 9677TIP3    H128995   2.446   1.499   1.116  0.0362 -0.0417 -1.2708
 9677TIP3    H228996   2.471   1.350   1.106  0.7243 -0.2151  2.0388
 9678TIP3   OH228997   4.904   3.037   2.217 -0.4084 -0.3268  0.2657
 9678TIP3    H128998   4.909   3.120   2.264 -0.5254  0.4144 -0.9747
 9678TIP3    H228999   4.995   3.007   2.211 -0.3103 -0.0336  0.2822
 9679TIP3   OH229000   3.792   3.160   1.107  0.0307 -0.3843  0.2067
 9679TIP3    H129001   3.767   3.107   1.032  0.9162 -0.7364  0.1491
 9679TIP3    H229002   3.844   3.231   1.070  1.4577 -1.1929  0.5643
 9680TIP3   OH229003   5.230   5.572   2.783  0.2866  0.4082 -0.0732
 9680TIP3    H129004   5.232   5.604   2.873 -0.6207  0.0969  0.0629
 9680TIP3    H229005   5.295   5.625   2.738  0.9999  0.3421  0.8356
 9681TIP3   OH229006   6.243   5.339   4.545 -0.1968  0.4478  0.3808
 9681TIP3    H129007   6.150   5.363   4.551  0.0100  1.0061  1.6074
 9681TIP3    H229008   6.249   5.257   4.594 -0.1183  0.1638 -0.0988
 9682TIP3   OH229009   6.999   1.388   4.382  0.1685 -0.3992 -0.2133
 9682TIP3    H129010   6.905   1.394   4.370 -0.3156  1.0589  3.2046
 9682TIP3    H229011   7.035   1.462   4.332 -0.8361  0.7765  0.7456
 9683TIP3   OH229012   1.103   6.465   0.866 -0.5314 -0.1585  0.0897
 9683TIP3    H129013   1.025   6.414   0.843 -0.4991 -1.3762  2.3885
 9683TIP3    H229014   1.074   6.522   0.937  0.5348 -0.2438  0.6173
 9684TIP3   OH229015   4.646   1.344   5.557  0.4651  0.0237 -0.0747
 9684TIP3    H129016   4.706   1.288   5.606  2.1602 -0.4860 -2.5282
 9684TIP3    H229017   4.685   1.350   5.469 -0.4608  3.7430 -0.4332
 9685TIP3   OH229018   2.956   5.328   1.815  0.2099 -0.2846 -0.0074
 9685TIP3    H129019   3.004   5.246   1.822 -0.9123 -0.9308  0.2565
 9685TIP3    H229020   2.925   5.345   1.904 -0.7240 -0.2995 -0.3224
 9686TIP3   OH229021   3.727   4.165   1.559  0.4499 -0.3267  0.9088
 9686TIP3    H129022   3.648   4.202   1.598  0.4222 -1.3781  1.8746
 9686TIP3    H229023   3.721   4.071   1.576  0.2880 -0.9238 -1.8839
 9687TIP3   OH229024   0.632   1.150   2.504  1.0105 -0.1657  0.2445
 9687TIP3    H129025   0.542   1.138   2.473  0.5841  4.5621 -1.2672
 9687TIP3    H229026   0.624   1.211   2.578  2.9216 -0.9019  1.1229
 9688TIP3   OH229027   6.468   0.747   0.971  0.3867 -0.0457 -0.1512
 9688TIP3    H129028   6.488   0.677   1.033  0.1492 -0.7508 -0.8524
 9688TIP3    H229029   6.535   0.738   0.903  1.9267  2.0044  0.9631
 9689TIP3   OH229030   6.821   0.702   1.369 -0.3232 -0.2883 -0.4496
 9689TIP3    H129031   6.730   0.709   1.399  0.0451  0.9781  0.4476
 9689TIP3    H229032   6.869   0.672   1.446  0.4808  2.0694  0.0483
 9690TIP3   OH229033   6.341   1.213   4.340 -0.2947  0.3377  0.1565
 9690TIP3    H129034   6.357   1.279   4.273  2.0486  0.6557  0.9522
 9690TIP3    H229035   6.319   1.134   4.290  0.5129  0.7883 -0.9655
 9691TIP3   OH229036   6.427   0.264   1.740  0.4680  0.0051 -0.3339
 9691TIP3    H129037   6.358   0.331   1.737  0.7380  0.2567 -0.8953
 9691TIP3    H229038   6.380   0.181   1.735  0.1678  0.1589 -0.1268
 9692TIP3   OH229039   5.843   4.081   5.287  0.0259 -0.0636 -0.7122
 9692TIP3    H129040   5.852   4.148   5.354 -2.6579 -0.8402  0.5901
 9692TIP3    H229041   5.748   4.064   5.283  0.2428 -1.1788 -3.6071
 9693TIP3   OH229042   0.833   1.247   0.045 -0.2533  0.1640  0.0411
 9693TIP3    H129043   0.864   1.158   0.064  0.7616  0.5630  0.3067
 9693TIP3    H229044   0.903   1.304   0.076 -0.0193  0.9836 -1.8423
 9694TIP3   OH229045   1.290   4.656   0.047 -0.6992 -0.1623  0.0346
 9694TIP3    H129046   1.207   4.621   0.079 -0.2523 -1.1629  0.1361
 9694TIP3    H229047   1.286   4.750   0.066 -0.7820 -0.5674  2.3289
 9695TIP3   OH229048   3.994   2.166   4.323 -0.5117 -0.6321  0.7123
 9695TIP3    H129049   3.920   2.203   4.275 -1.0555  1.3553  2.8950
 9695TIP3    H229050   4.030   2.100   4.264 -2.4986  0.0570 -1.4316
 9696TIP3   OH229051   3.606   2.841   0.652 -0.8904  0.0376  0.5427
 9696TIP3    H129052   3.518   2.818   0.621 -0.4585 -0.2560 -0.5181
 9696TIP3    H229053   3.621   2.783   0.727 -0.6250 -1.7924 -0.8316
 9697TIP3   OH229054   3.544   4.470   4.640  0.0868 -0.0838  0.6636
 9697TIP3    H129055   3.464   4.428   4.673  1.1346 -1.7188  1.2688
 9697TIP3    H229056   3.574   4.412   4.571  0.4988  0.7880  0.0947
 9698TIP3   OH229057   6.874   5.852   1.460  0.5665  0.2200 -0.3759
 9698TIP3    H129058   6.889   5.759   1.444 -0.6219 -0.0046 -0.2677
 9698TIP3    H229059   6.840   5.885   1.377  0.9817  0.5649 -0.4135
 9699TIP3   OH229060   6.425   1.801   2.097 -0.7150 -0.0651 -0.0232
 9699TIP3    H129061   6.469   1.885   2.112 -0.0062  0.1216 -2.6856
 9699TIP3    H229062   6.457   1.744   2.167  1.8844  0.7895 -0.4188
 9700TIP3   OH229063   3.276   0.315   2.346 -0.0318  0.3339 -0.2951
 9700TIP3    H129064   3.327   0.353   2.418  1.0121  0.9388 -1.3007
 9700TIP3    H229065   3.195   0.365   2.345 -0.6299 -0.5573  1.2620
 9701TIP3   OH229066   3.127   3.685   4.151  0.3703 -0.1374 -0.2725
 9701TIP3    H129067   3.039   3.694   4.187 -0.1773 -0.8327 -1.3957
 9701TIP3    H229068   3.159   3.603   4.189  0.6489  0.2519  0.3482
 9702TIP3   OH229069   0.670   4.835   1.021 -0.8258  0.2483  0.2042
 9702TIP3    H129070   0.725   4.871   0.951 -0.2499  1.2319  1.1302
 9702TIP3    H229071   0.728   4.777   1.069 -0.9726  0.2524  0.3875
 9703TIP3   OH229072   2.753   5.731   2.156  0.9064 -0.2246 -1.0857
 9703TIP3    H129073   2.695   5.698   2.087 -0.3202  0.2782 -0.3377
 9703TIP3    H229074   2.747   5.826   2.148  1.5862 -0.1675 -0.9549
 9704TIP3   OH229075   5.619   5.380   1.677 -0.2573 -0.0891  0.1158
 9704TIP3    H129076   5.560   5.426   1.736  1.2000  0.4857  1.1884
 9704TIP3    H229077   5.618   5.290   1.708 -1.5700 -0.4018 -0.7318
 9705TIP3   OH229078   5.547   5.110   5.277 -0.1124  0.3819 -0.2869
 9705TIP3    H129079   5.466   5.109   5.225 -1.3198  0.1739  1.5013
 9705TIP3    H229080   5.613   5.146   5.218 -1.5032  0.5346 -1.8202
 9706TIP3   OH229081   2.669   4.643   1.595 -0.2430  0.2024 -0.6868
 9706TIP3    H129082   2.603   4.595   1.646  0.2333  0.4759  0.2204
 9706TIP3    H229083   2.634   4.731   1.587 -0.1711  0.2457 -0.5381
 9707TIP3   OH229084   0.340   4.012   3.291  0.2105 -1.0057  0.5218
 9707TIP3    H129085   0.304   4.071   3.224 -0.1614 -0.8122  0.8882
 9707TIP3    H229086   0.295   3.929   3.277 -0.6796 -0.6566  1.2247
 9708TIP3   OH229087   0.721   0.046   4.782  0.1826  0.1776 -0.1444
 9708TIP3    H129088   0.635   0.013   4.757  0.2053 -0.6178  0.7843
 9708TIP3    H229089   0.781   0.005   4.720  0.0923 -0.7554  0.3689
 9709TIP3   OH229090   2.336   4.955   3.535 -0.1536  0.2723 -0.1948
 9709TIP3    H129091   2.303   4.999   3.613  0.9707  4.1638 -1.7183
 9709TIP3    H229092   2.274   4.979   3.466  2.6429  3.2817 -1.9504
 9710TIP3   OH229093   0.280   0.611   0.686 -0.3660 -0.1731 -0.8932
 9710TIP3    H129094   0.363   0.610   0.638 -0.8375 -1.4820 -1.7150
 9710TIP3    H229095   0.261   0.519   0.703 -0.4399  0.2078  1.4475
 9711TIP3   OH229096   4.566   5.740   2.210 -0.4164 -0.0983  0.3533
 9711TIP3    H129097   4.571   5.731   2.115 -0.7329 -0.4745  0.3696
 9711TIP3    H229098   4.482   5.701   2.233 -0.8023  0.9071  0.6830
 9712TIP3   OH229099   2.730   0.792   1.978 -0.4866  0.3932 -0.2704
 9712TIP3    H129100   2.823   0.813   1.988 -0.2782 -0.1988 -0.9584
 9712TIP3    H229101   2.685   0.869   2.015  0.2324 -0.3128  2.2638
 9713TIP3   OH229102   0.466   2.092   1.797  0.1217 -0.3419 -0.5295
 9713TIP3    H129103   0.528   2.155   1.834  0.2248 -0.2631 -0.8333
 9713TIP3    H229104   0.418   2.058   1.873  1.3777 -1.3213 -0.1448
 9714TIP3   OH229105   7.236   2.523   3.666 -0.5804  0.5099 -0.0355
 9714TIP3    H129106   7.147   2.503   3.636 -0.7119 -0.3521  0.8667
 9714TIP3    H229107   7.233   2.509   3.761  1.1426 -2.1613 -0.2562
 9715TIP3   OH229108   6.332   4.192   1.097  0.5083  0.1370  0.2143
 9715TIP3    H129109   6.356   4.123   1.159  2.1352  2.2152  2.1282
 9715TIP3    H229110   6.405   4.194   1.035 -0.2468 -0.7671 -0.7276
 9716TIP3   OH229111   4.914   3.549   1.299 -0.0826  0.0710  0.1087
 9716TIP3    H129112   4.972   3.623   1.314  1.4881 -0.8463 -1.1995
 9716TIP3    H229113   4.861   3.575   1.224 -0.0316  0.1475  0.0992
 9717TIP3   OH229114   5.536   4.028   1.589  0.1670  0.1352  0.7923
 9717TIP3    H129115   5.505   3.980   1.512 -1.9984  0.1671  1.5696
 9717TIP3    H229116   5.467   4.015   1.655  1.6941  0.5517  2.5631
 9718TIP3   OH229117   6.457   1.209   3.011  0.3518 -0.2712  0.1787
 9718TIP3    H129118   6.380   1.193   2.956  0.2618 -0.2826  0.3094
 9718TIP3    H229119   6.449   1.301   3.035 -0.1400 -0.5206  0.9995
 9719TIP3   OH229120   0.435   4.145   5.378  0.0012 -0.1320 -0.3701
 9719TIP3    H129121   0.479   4.117   5.458 -0.9790 -2.2305 -0.4952
 9719TIP3    H229122   0.345   4.164   5.405 -0.5663 -1.6937 -1.0814
 9720TIP3   OH229123   6.996   6.203   1.298 -0.3822 -0.4249  0.7148
 9720TIP3    H129124   6.924   6.236   1.351 -1.7194 -0.4305 -0.9917
 9720TIP3    H229125   6.956   6.182   1.214  1.9151  1.2643 -0.9476
 9721TIP3   OH229126   1.230   4.301  -0.024  0.0395  0.1672 -0.0350
 9721TIP3    H129127   1.198   4.353   0.050 -0.5048 -0.5139  0.2226
 9721TIP3    H229128   1.192   4.215  -0.010 -3.1433  0.8954 -3.0714
 9722TIP3   OH229129   4.249   5.909   1.978  0.2600 -0.0565  0.0184
 9722TIP3    H129130   4.330   5.936   2.022  0.4009  0.9661 -0.8098
 9722TIP3    H229131   4.181   5.924   2.043  0.6096  0.1775  0.3380
 9723TIP3   OH229132   6.136   5.143   2.731  0.1808 -0.1845  0.4764
 9723TIP3    H129133   6.071   5.083   2.767 -0.3830  0.3582  0.3822
 9723TIP3    H229134   6.218   5.120   2.775  0.0721 -1.3028  0.1244
 9724TIP3   OH229135   1.491   5.620   4.279  0.4075  0.2899 -0.4801
 9724TIP3    H129136   1.414   5.660   4.238 -0.6034  1.0165  1.9725
 9724TIP3    H229137   1.565   5.672   4.247 -0.3153  0.7667 -1.4083
 9725TIP3   OH229138   4.269   5.985   2.298 -0.5215 -0.4771 -0.9884
 9725TIP3    H129139   4.237   5.925   2.365  0.4324 -0.3543 -0.4103
 9725TIP3    H229140   4.244   6.072   2.329  0.3023 -0.3850 -0.5624
 9726TIP3   OH229141   4.072   1.899   3.304 -0.2277  0.2256 -0.4120
 9726TIP3    H129142   4.114   1.949   3.234  0.7795  1.9993  1.3703
 9726TIP3    H229143   4.144   1.869   3.359 -1.1021  0.9092  1.1603
 9727TIP3   OH229144   1.414   1.755   2.724  0.1288 -0.0372 -0.4395
 9727TIP3    H129145   1.449   1.775   2.811  1.2415  2.2452 -1.3367
 9727TIP3    H229146   1.325   1.724   2.740  0.4867 -0.1480  1.5362
 9728TIP3   OH229147   5.565   1.004   1.018 -0.0496 -0.1241  0.2724
 9728TIP3    H129148   5.477   1.025   1.050 -0.1096  1.1503 -0.6367
 9728TIP3    H229149   5.604   1.089   0.997  0.7179 -0.7596 -1.0503
 9729TIP3   OH229150   5.034   2.337   5.313 -0.1471 -0.8940 -0.2471
 9729TIP3    H129151   5.056   2.264   5.371  1.4691  0.4675  0.9619
 9729TIP3    H229152   4.939   2.345   5.318 -0.1291 -1.4876  1.3891
 9730TIP3   OH229153   7.111   2.419   5.805  0.3022 -0.2275  0.3092
 9730TIP3    H129154   7.016   2.420   5.805  0.3050  0.2553  0.8505
 9730TIP3    H229155   7.135   2.415   5.713 -0.2333  0.6138  0.1242
 9731TIP3   OH229156   1.738   0.477   0.949 -0.6375  0.1784  0.2412
 9731TIP3    H129157   1.795   0.552   0.933  0.0016 -0.0810  1.2133
 9731TIP3    H229158   1.763   0.446   1.036 -0.8818 -1.1789 -0.1467
 9732TIP3   OH229159   5.241   2.209   4.776  0.5046 -0.1445  0.1705
 9732TIP3    H129160   5.306   2.172   4.836 -0.7165 -1.8626  0.5035
 9732TIP3    H229161   5.207   2.286   4.822  0.3644 -0.8188  1.2304
 9733TIP3   OH229162   1.056   0.694   3.783  0.1183 -0.2511 -0.3034
 9733TIP3    H129163   1.143   0.675   3.818  0.8381 -3.3421 -3.1726
 9733TIP3    H229164   1.054   0.788   3.771  1.8021  0.2947  2.6741
 9734TIP3   OH229165   5.858   6.119   2.206  0.0654  0.4271 -0.0738
 9734TIP3    H129166   5.932   6.132   2.147 -0.0721  0.3919 -0.2565
 9734TIP3    H229167   5.892   6.139   2.293  0.4481 -0.1907 -0.0831
 9735TIP3   OH229168   0.984   1.984   3.530 -0.2122  0.5013 -0.1014
 9735TIP3    H129169   1.031   1.960   3.450 -0.6785  0.0478 -0.2404
 9735TIP3    H229170   1.014   1.920   3.595  0.4166  1.0700  0.1816
 9736TIP3   OH229171   1.225   4.900   5.406  0.5004 -0.3633 -0.4089
 9736TIP3    H129172   1.184   4.820   5.373  0.2970 -0.4038 -0.0603
 9736TIP3    H229173   1.249   4.880   5.496  0.2998  0.0232 -0.2690
 9737TIP3   OH229174   6.424   4.846   4.974  0.5550  0.6547 -0.0246
 9737TIP3    H129175   6.480   4.793   4.918  0.6817  0.0330  0.6768
 9737TIP3    H229176   6.338   4.802   4.971  0.4599  0.8409 -0.0377
 9738TIP3   OH229177   3.924   4.343   0.813  0.0436  0.0953  0.4813
 9738TIP3    H129178   3.923   4.437   0.829  0.5552  0.1141  0.4350
 9738TIP3    H229179   4.006   4.313   0.852 -0.0671 -0.3137  0.4063
 9739TIP3   OH229180   1.926   1.185   2.308  0.1431 -1.0575 -0.6930
 9739TIP3    H129181   1.875   1.145   2.238  1.9317 -1.5654 -1.7762
 9739TIP3    H229182   2.012   1.141   2.304  1.5955  1.5782 -0.7592
 9740TIP3   OH229183   6.795   3.748   0.141  0.3186  0.1704  0.1233
 9740TIP3    H129184   6.841   3.674   0.181 -2.1888 -1.8295 -0.3964
 9740TIP3    H229185   6.806   3.737   0.047 -1.4869 -0.6097 -0.0320
 9741TIP3   OH229186   0.293   6.614   4.547 -0.3646  0.5563  0.0264
 9741TIP3    H129187   0.372   6.561   4.557 -0.8678 -0.4372 -1.0511
 9741TIP3    H229188   0.302   6.653   4.460 -0.6174  1.2054  0.2836
 9742TIP3   OH229189   0.835   6.702   0.872 -0.8724 -0.0965  0.0587
 9742TIP3    H129190   0.781   6.780   0.860 -1.2743 -0.0267  1.9467
 9742TIP3    H229191   0.923   6.736   0.888 -0.1951 -0.2052 -2.7949
 9743TIP3   OH229192   2.250   3.246   2.353 -0.4501 -0.7964  0.3392
 9743TIP3    H129193   2.285   3.278   2.437 -1.1848  0.3787  0.2274
 9743TIP3    H229194   2.161   3.280   2.350 -0.5514 -1.1177 -0.7695
 9744TIP3   OH229195   4.857   2.043   1.492 -0.0262  0.0434  0.7727
 9744TIP3    H129196   4.952   2.051   1.488  0.0236 -0.8500 -0.7064
 9744TIP3    H229197   4.826   2.129   1.521  1.1507  0.7515 -0.0132
 9745TIP3   OH229198   6.982   0.469   2.882  0.5952 -0.0913 -0.0622
 9745TIP3    H129199   6.896   0.502   2.909 -0.6432 -2.3874 -0.8782
 9745TIP3    H229200   7.035   0.471   2.962  0.3066  2.6726  0.1643
 9746TIP3   OH229201   3.167   1.469   3.957  0.2511  0.1086 -0.1495
 9746TIP3    H129202   3.101   1.521   4.003  0.8116 -0.2227  1.0829
 9746TIP3    H229203   3.116   1.404   3.908 -0.3580  0.2736  0.2549
 9747TIP3   OH229204   2.493   5.123   3.750  0.1622 -0.2806 -0.3121
 9747TIP3    H129205   2.402   5.102   3.771  0.7036 -0.9372  1.6026
 9747TIP3    H229206   2.532   5.039   3.725  0.0867  0.1269 -1.9280
 9748TIP3   OH229207   0.764   2.886   4.589  0.1267  0.2295 -0.1192
 9748TIP3    H129208   0.755   2.974   4.551 -1.1448  0.6592  1.0882
 9748TIP3    H229209   0.718   2.891   4.673  0.0754 -1.5755  0.0066
 9749TIP3   OH229210   2.699   5.523   3.000  0.2890 -0.2986  0.1318
 9749TIP3    H129211   2.750   5.502   2.922 -0.0450 -1.3815  0.1892
 9749TIP3    H229212   2.629   5.457   3.001  1.6868 -1.9156  2.6586
   7.21842   6.80560   5.89381   0.00000   0.00000  -2.40614   0.00000  -2.40614  -3.40280
