Title t= 491.00000 step= 245500
44389
    1GLY      N    1   6.266   3.669   1.220
    1GLY    HT1    2   6.200   3.588   1.222
    1GLY    HT2    3   6.359   3.637   1.255
    1GLY    HT3    4   6.277   3.693   1.119
    1GLY     CA    5   6.234   3.786   1.297
    1GLY    HA1    6   6.132   3.813   1.272
    1GLY    HA2    7   6.311   3.856   1.271
    1GLY      C    8   6.242   3.755   1.442
    1GLY      O    9   6.267   3.642   1.491
    2PRO      N   10   6.202   3.855   1.523
    2PRO     CD   11   6.195   3.998   1.480
    2PRO    HD1   12   6.107   4.021   1.416
    2PRO    HD2   13   6.291   4.019   1.429
    2PRO     CA   14   6.148   3.836   1.658
    2PRO     HA   15   6.226   3.813   1.729
    2PRO     CB   16   6.088   3.973   1.692
    2PRO    HB1   17   6.080   3.999   1.800
    2PRO    HB2   18   5.989   3.987   1.645
    2PRO     CG   19   6.173   4.074   1.616
    2PRO    HG1   20   6.139   4.179   1.605
    2PRO    HG2   21   6.275   4.075   1.660
    2PRO      C   22   6.046   3.725   1.663
    2PRO      O   23   5.963   3.718   1.574
    3GLY      N   24   6.030   3.653   1.771
    3GLY     HN   25   6.097   3.667   1.844
    3GLY     CA   26   5.949   3.536   1.789
    3GLY    HA1   27   5.843   3.551   1.801
    3GLY    HA2   28   5.990   3.473   1.867
    3GLY      C   29   5.953   3.434   1.667
    3GLY      O   30   6.050   3.409   1.598
    4ASP      N   31   5.839   3.368   1.651
    4ASP     HN   32   5.759   3.389   1.706
    4ASP     CA   33   5.833   3.248   1.567
    4ASP     HA   34   5.912   3.178   1.587
    4ASP     CB   35   5.695   3.176   1.595
    4ASP    HB1   36   5.668   3.100   1.518
    4ASP    HB2   37   5.622   3.259   1.603
    4ASP     CG   38   5.699   3.109   1.729
    4ASP    OD1   39   5.812   3.072   1.776
    4ASP    OD2   40   5.584   3.091   1.776
    4ASP      C   41   5.842   3.278   1.421
    4ASP      O   42   5.807   3.391   1.385
    5PRO      N   43   5.897   3.196   1.329
    5PRO     CD   44   5.976   3.075   1.356
    5PRO    HD1   45   5.905   3.003   1.403
    5PRO    HD2   46   6.057   3.100   1.428
    5PRO     CA   47   5.860   3.203   1.188
    5PRO     HA   48   5.905   3.294   1.151
    5PRO     CB   49   5.906   3.076   1.123
    5PRO    HB1   50   5.946   3.091   1.021
    5PRO    HB2   51   5.829   2.996   1.125
    5PRO     CG   52   6.024   3.033   1.212
    5PRO    HG1   53   6.054   2.927   1.201
    5PRO    HG2   54   6.117   3.089   1.190
    5PRO      C   55   5.712   3.227   1.142
    5PRO      O   56   5.619   3.188   1.213
    6GLY      N   57   5.690   3.287   1.018
    6GLY     HN   58   5.770   3.289   0.958
    6GLY     CA   59   5.559   3.316   0.963
    6GLY    HA1   60   5.516   3.220   0.937
    6GLY    HA2   61   5.571   3.375   0.873
    6GLY      C   62   5.456   3.382   1.051
    6GLY      O   63   5.482   3.469   1.136
    7SER      N   64   5.328   3.338   1.042
    7SER     HN   65   5.310   3.274   0.968
    7SER     CA   66   5.208   3.390   1.112
    7SER     HA   67   5.249   3.467   1.175
    7SER     CB   68   5.104   3.453   1.017
    7SER    HB1   69   5.005   3.456   1.066
    7SER    HB2   70   5.099   3.409   0.915
    7SER     OG   71   5.143   3.583   0.977
    7SER    HG1   72   5.223   3.583   0.925
    7SER      C   73   5.153   3.284   1.191
    7SER      O   74   5.143   3.168   1.154
    8GLY      N   75   5.106   3.315   1.307
    8GLY     HN   76   5.111   3.410   1.335
    8GLY     CA   77   5.049   3.222   1.405
    8GLY    HA1   78   5.036   3.269   1.501
    8GLY    HA2   79   5.107   3.131   1.408
    8GLY      C   80   4.908   3.186   1.367
    8GLY      O   81   4.846   3.247   1.280
    9ASN      N   82   4.854   3.091   1.439
    9ASN     HN   83   4.903   3.042   1.511
    9ASN     CA   84   4.730   3.032   1.400
    9ASN     HA   85   4.727   3.023   1.293
    9ASN     CB   86   4.716   2.893   1.464
    9ASN    HB1   87   4.701   2.897   1.574
    9ASN    HB2   88   4.804   2.827   1.449
    9ASN     CG   89   4.599   2.801   1.397
    9ASN    OD1   90   4.539   2.830   1.294
    9ASN    ND2   91   4.583   2.684   1.452
    9ASN   HD21   92   4.518   2.622   1.408
    9ASN   HD22   93   4.639   2.660   1.531
    9ASN      C   94   4.606   3.119   1.446
    9ASN      O   95   4.602   3.155   1.560
   10PRO      N   96   4.505   3.146   1.374
   10PRO     CD   97   4.511   3.154   1.227
   10PRO    HD1   98   4.519   3.050   1.190
   10PRO    HD2   99   4.606   3.205   1.202
   10PRO     CA  100   4.382   3.214   1.420
   10PRO     HA  101   4.418   3.307   1.460
   10PRO     CB  102   4.300   3.230   1.293
   10PRO    HB1  103   4.235   3.319   1.305
   10PRO    HB2  104   4.243   3.136   1.273
   10PRO     CG  105   4.385   3.220   1.164
   10PRO    HG1  106   4.329   3.158   1.091
   10PRO    HG2  107   4.423   3.315   1.123
   10PRO      C  108   4.310   3.151   1.541
   10PRO      O  109   4.305   3.028   1.551
   11GLY      N  110   4.253   3.233   1.634
   11GLY     HN  111   4.263   3.332   1.632
   11GLY     CA  112   4.182   3.184   1.745
   11GLY    HA1  113   4.147   3.276   1.790
   11GLY    HA2  114   4.250   3.132   1.810
   11GLY      C  115   4.058   3.104   1.712
   11GLY      O  116   4.006   3.110   1.599
   12SER      N  117   4.016   3.022   1.815
   12SER     HN  118   4.063   3.013   1.903
   12SER     CA  119   3.911   2.922   1.789
   12SER     HA  120   3.935   2.860   1.704
   12SER     CB  121   3.913   2.813   1.905
   12SER    HB1  122   4.010   2.759   1.898
   12SER    HB2  123   3.837   2.732   1.894
   12SER     OG  124   3.906   2.876   2.036
   12SER    HG1  125   3.992   2.919   2.046
   12SER      C  126   3.768   2.970   1.776
   12SER      O  127   3.681   2.908   1.717
   13GLY      N  128   3.739   3.087   1.840
   13GLY     HN  129   3.818   3.143   1.863
   13GLY     CA  130   3.606   3.138   1.853
   13GLY    HA1  131   3.559   3.128   1.756
   13GLY    HA2  132   3.602   3.240   1.887
   13GLY      C  133   3.523   3.056   1.943
   13GLY      O  134   3.577   2.994   2.033
   14ASP      N  135   3.386   3.059   1.931
   14ASP     HN  136   3.345   3.119   1.863
   14ASP     CA  137   3.296   2.983   2.012
   14ASP     HA  138   3.355   2.917   2.075
   14ASP     CB  139   3.215   3.081   2.103
   14ASP    HB1  140   3.143   3.010   2.149
   14ASP    HB2  141   3.163   3.160   2.045
   14ASP     CG  142   3.297   3.144   2.215
   14ASP    OD1  143   3.261   3.259   2.250
   14ASP    OD2  144   3.390   3.074   2.265
   14ASP      C  145   3.209   2.915   1.912
   14ASP      O  146   3.197   2.957   1.798
   15PRO      N  147   3.140   2.801   1.937
   15PRO     CD  148   3.162   2.722   2.058
   15PRO    HD1  149   3.093   2.747   2.141
   15PRO    HD2  150   3.270   2.723   2.081
   15PRO     CA  151   3.058   2.738   1.845
   15PRO     HA  152   3.115   2.715   1.756
   15PRO     CB  153   3.022   2.608   1.914
   15PRO    HB1  154   3.029   2.534   1.832
   15PRO    HB2  155   2.921   2.599   1.960
   15PRO     CG  156   3.128   2.579   2.015
   15PRO    HG1  157   3.091   2.518   2.100
   15PRO    HG2  158   3.220   2.531   1.977
   15PRO      C  159   2.932   2.806   1.801
   15PRO    OT1  160   2.872   2.882   1.884
   15PRO    OT2  161   2.874   2.761   1.695
   16SOD    SOD  162   4.072   5.455   0.913
   17SOD    SOD  163   1.404   3.534   1.999
   18SOD    SOD  164   3.505   7.734   3.921
   19SOD    SOD  165   7.952   5.899   3.636
   20SOD    SOD  166   3.125   2.313   3.435
   21SOD    SOD  167   6.381   1.063   4.969
   22SOD    SOD  168   4.572   5.046   4.195
   23SOD    SOD  169   2.666   7.282   4.573
   24SOD    SOD  170   6.313   2.592   6.264
   25SOD    SOD  171   5.247   6.816   6.220
   26SOD    SOD  172   1.587   3.684   5.275
   27SOD    SOD  173   0.559   4.712   1.527
   28SOD    SOD  174   7.241   1.301   4.301
   29SOD    SOD  175   1.593   7.525   2.456
   30SOD    SOD  176   7.413   7.013   6.437
   31SOD    SOD  177   3.695   2.841   2.152
   32SOD    SOD  178   6.104   1.721   4.920
   33SOD    SOD  179   0.374   5.309   1.735
   34SOD    SOD  180   7.596   5.078   5.683
   35SOD    SOD  181   7.585   5.569   1.335
   36SOD    SOD  182   6.258   1.941   6.462
   37SOD    SOD  183   1.277   3.796   4.619
   38SOD    SOD  184   7.961   3.483   5.540
   39SOD    SOD  185   4.705   4.061   4.159
   40SOD    SOD  186   0.127   0.117   0.602
   41SOD    SOD  187   2.916   7.131   1.470
   42SOD    SOD  188   7.358   6.013   3.594
   43SOD    SOD  189   6.274   3.462   3.323
   44SOD    SOD  190   0.244   1.545   6.243
   45SOD    SOD  191   2.997   3.017   0.980
   46SOD    SOD  192   3.856   7.297   0.821
   47SOD    SOD  193   4.326   4.173   2.748
   48SOD    SOD  194   7.899   7.736   3.652
   49SOD    SOD  195   7.355   0.999   0.575
   50SOD    SOD  196   5.850   5.522   2.704
   51SOD    SOD  197   5.537   3.871   1.215
   52SOD    SOD  198   4.918   7.100   0.766
   53SOD    SOD  199   4.274   2.056   1.230
   54SOD    SOD  200   0.210   6.391   1.584
   55SOD    SOD  201   0.550   6.185   3.705
   56SOD    SOD  202   1.832   2.238   6.050
   57SOD    SOD  203   7.646   1.135   5.649
   58SOD    SOD  204   4.494   3.923   6.120
   59SOD    SOD  205   3.870   4.057   3.718
   60CLA    CLA  206   2.863   1.327   3.545
   61CLA    CLA  207   2.334   7.455   4.073
   62CLA    CLA  208   8.143   1.860   6.479
   63CLA    CLA  209   3.549   2.729   2.857
   64CLA    CLA  210   7.381   1.831   6.217
   65CLA    CLA  211   0.866   4.632   5.530
   66CLA    CLA  212   8.148   6.554   0.677
   67CLA    CLA  213   3.233   7.603   3.516
   68CLA    CLA  214   4.595   4.402   4.560
   69CLA    CLA  215   1.707   4.257   1.700
   70CLA    CLA  216   1.293   2.395   5.353
   71CLA    CLA  217   2.975   7.026   5.266
   72CLA    CLA  218   6.151   1.565   5.941
   73CLA    CLA  219   0.062   5.643   1.388
   74CLA    CLA  220   7.339   4.427   5.371
   75CLA    CLA  221   7.793   3.750   0.947
   76CLA    CLA  222   3.458   1.083   4.981
   77CLA    CLA  223   8.111   1.086   1.239
   78CLA    CLA  224   3.114   2.049   5.488
   79CLA    CLA  225   4.940   2.669   0.098
   80CLA    CLA  226   2.818   1.117   1.288
   81CLA    CLA  227   4.430   1.031   3.064
   82CLA    CLA  228   8.036   3.964   4.130
   83CLA    CLA  229   7.198   5.456   6.527
   84CLA    CLA  230   7.747   5.186   4.229
   85CLA    CLA  231   5.680   4.424   2.405
   86CLA    CLA  232   1.125   0.173   4.917
   87CLA    CLA  233   2.259   6.090   1.478
   88CLA    CLA  234   7.309   5.468   2.524
   89CLA    CLA  235   1.126   7.147   3.662
   90CLA    CLA  236   0.153   5.352   2.619
   91CLA    CLA  237   6.774   6.274   1.961
   92CLA    CLA  238   2.599   1.865   2.248
   93CLA    CLA  239   7.258   3.810   1.958
   94CLA    CLA  240   3.847   2.053   3.385
   95CLA    CLA  241   4.169   5.335   4.087
   96CLA    CLA  242   6.204   1.678   5.469
   97CLA    CLA  243   7.069   1.359   0.524
   98CLA    CLA  244   7.226   2.865   1.791
   99CLA    CLA  245   2.570   6.839   5.107
  100CLA    CLA  246   2.371   5.721   4.764
  101CLA    CLA  247   5.102   3.045   4.639
  102TIP3   OH2  248   0.793   3.498   5.581
  102TIP3    H1  249   0.838   3.579   5.605
  102TIP3    H2  250   0.832   3.473   5.497
  103TIP3   OH2  251   6.901   4.453   4.678
  103TIP3    H1  252   6.899   4.366   4.638
  103TIP3    H2  253   6.871   4.438   4.768
  104TIP3   OH2  254   7.407   0.411   4.981
  104TIP3    H1  255   7.498   0.426   5.007
  104TIP3    H2  256   7.410   0.336   4.922
  105TIP3   OH2  257   1.872   4.762   4.900
  105TIP3    H1  258   1.908   4.835   4.850
  105TIP3    H2  259   1.901   4.684   4.853
  106TIP3   OH2  260   4.433   4.081   0.403
  106TIP3    H1  261   4.466   4.054   0.317
  106TIP3    H2  262   4.491   4.152   0.430
  107TIP3   OH2  263   3.536   6.645   2.360
  107TIP3    H1  264   3.480   6.674   2.288
  107TIP3    H2  265   3.477   6.604   2.422
  108TIP3   OH2  266   1.682   2.688   6.139
  108TIP3    H1  267   1.678   2.759   6.204
  108TIP3    H2  268   1.604   2.700   6.085
  109TIP3   OH2  269   2.837   4.514  -0.005
  109TIP3    H1  270   2.858   4.582  -0.069
  109TIP3    H2  271   2.889   4.439  -0.032
  110TIP3   OH2  272   2.429   1.694   3.645
  110TIP3    H1  273   2.414   1.620   3.586
  110TIP3    H2  274   2.499   1.665   3.703
  111TIP3   OH2  275   2.318   4.466   0.138
  111TIP3    H1  276   2.407   4.475   0.102
  111TIP3    H2  277   2.314   4.376   0.169
  112TIP3   OH2  278   6.161   0.839   4.302
  112TIP3    H1  279   6.130   0.851   4.212
  112TIP3    H2  280   6.133   0.750   4.325
  113TIP3   OH2  281   6.438   1.928   4.620
  113TIP3    H1  282   6.513   1.929   4.560
  113TIP3    H2  283   6.448   2.007   4.673
  114TIP3   OH2  284   6.875   3.129   5.758
  114TIP3    H1  285   6.839   3.043   5.779
  114TIP3    H2  286   6.875   3.131   5.662
  115TIP3   OH2  287   1.924   3.435   0.467
  115TIP3    H1  288   1.891   3.492   0.537
  115TIP3    H2  289   1.900   3.347   0.495
  116TIP3   OH2  290   7.023   3.223   5.150
  116TIP3    H1  291   6.975   3.174   5.217
  116TIP3    H2  292   6.969   3.301   5.135
  117TIP3   OH2  293   3.839   1.825   3.590
  117TIP3    H1  294   3.842   1.893   3.523
  117TIP3    H2  295   3.792   1.753   3.549
  118TIP3   OH2  296   5.484   0.541   3.276
  118TIP3    H1  297   5.451   0.461   3.235
  118TIP3    H2  298   5.555   0.570   3.219
  119TIP3   OH2  299   6.076   6.986   2.241
  119TIP3    H1  300   6.159   6.980   2.195
  119TIP3    H2  301   6.014   6.941   2.183
  120TIP3   OH2  302   4.903   4.468   1.325
  120TIP3    H1  303   4.811   4.477   1.351
  120TIP3    H2  304   4.934   4.558   1.312
  121TIP3   OH2  305   0.337   1.411   6.798
  121TIP3    H1  306   0.266   1.408   6.734
  121TIP3    H2  307   0.417   1.420   6.746
  122TIP3   OH2  308   6.577   5.991   0.646
  122TIP3    H1  309   6.519   6.068   0.651
  122TIP3    H2  310   6.550   5.946   0.566
  123TIP3   OH2  311   6.991   1.817   3.048
  123TIP3    H1  312   6.989   1.752   3.118
  123TIP3    H2  313   7.028   1.896   3.089
  124TIP3   OH2  314   6.909   0.247   6.637
  124TIP3    H1  315   6.861   0.185   6.690
  124TIP3    H2  316   6.916   0.326   6.692
  125TIP3   OH2  317   4.002   6.568   3.795
  125TIP3    H1  318   3.970   6.511   3.864
  125TIP3    H2  319   3.954   6.540   3.717
  126TIP3   OH2  320   5.633   7.385   6.601
  126TIP3    H1  321   5.651   7.300   6.562
  126TIP3    H2  322   5.699   7.395   6.669
  127TIP3   OH2  323   7.272   4.915   0.731
  127TIP3    H1  324   7.187   4.959   0.741
  127TIP3    H2  325   7.293   4.925   0.638
  128TIP3   OH2  326   2.010   5.941   2.484
  128TIP3    H1  327   2.050   5.859   2.456
  128TIP3    H2  328   1.993   5.929   2.577
  129TIP3   OH2  329   0.785   6.783   6.282
  129TIP3    H1  330   0.790   6.697   6.240
  129TIP3    H2  331   0.867   6.825   6.258
  130TIP3   OH2  332   0.902   0.890   1.107
  130TIP3    H1  333   0.991   0.911   1.079
  130TIP3    H2  334   0.911   0.813   1.162
  131TIP3   OH2  335   5.593   4.744   5.825
  131TIP3    H1  336   5.558   4.779   5.907
  131TIP3    H2  337   5.667   4.689   5.851
  132TIP3   OH2  338   7.671   1.172   4.310
  132TIP3    H1  339   7.613   1.115   4.360
  132TIP3    H2  340   7.732   1.207   4.375
  133TIP3   OH2  341   6.131   2.575   6.680
  133TIP3    H1  342   6.092   2.491   6.653
  133TIP3    H2  343   6.078   2.602   6.755
  134TIP3   OH2  344   4.544   0.354   4.339
  134TIP3    H1  345   4.619   0.405   4.308
  134TIP3    H2  346   4.514   0.401   4.417
  135TIP3   OH2  347   4.630   0.353   1.110
  135TIP3    H1  348   4.540   0.332   1.136
  135TIP3    H2  349   4.622   0.382   1.019
  136TIP3   OH2  350   7.802   6.901   1.738
  136TIP3    H1  351   7.740   6.969   1.765
  136TIP3    H2  352   7.756   6.853   1.669
  137TIP3   OH2  353   6.161   4.792   5.348
  137TIP3    H1  354   6.133   4.883   5.339
  137TIP3    H2  355   6.130   4.749   5.269
  138TIP3   OH2  356   7.187   6.310   5.617
  138TIP3    H1  357   7.177   6.358   5.535
  138TIP3    H2  358   7.109   6.253   5.621
  139TIP3   OH2  359   6.931   4.781   1.804
  139TIP3    H1  360   6.842   4.761   1.834
  139TIP3    H2  361   6.985   4.711   1.839
  140TIP3   OH2  362   6.608   5.071   2.197
  140TIP3    H1  363   6.579   5.065   2.106
  140TIP3    H2  364   6.548   5.134   2.237
  141TIP3   OH2  365   7.299   1.254   0.097
  141TIP3    H1  366   7.255   1.216   0.173
  141TIP3    H2  367   7.392   1.242   0.116
  142TIP3   OH2  368   1.812   4.012   2.516
  142TIP3    H1  369   1.843   4.102   2.509
  142TIP3    H2  370   1.885   3.959   2.483
  143TIP3   OH2  371   7.897   2.026   4.491
  143TIP3    H1  372   7.849   2.108   4.508
  143TIP3    H2  373   7.883   1.974   4.570
  144TIP3   OH2  374   1.626   0.138   3.646
  144TIP3    H1  375   1.693   0.087   3.692
  144TIP3    H2  376   1.583   0.074   3.589
  145TIP3   OH2  377   5.945   2.370   0.635
  145TIP3    H1  378   5.907   2.358   0.548
  145TIP3    H2  379   6.036   2.394   0.618
  146TIP3   OH2  380   4.607   5.536   3.998
  146TIP3    H1  381   4.520   5.549   4.034
  146TIP3    H2  382   4.640   5.625   3.981
  147TIP3   OH2  383   2.539   4.728   0.561
  147TIP3    H1  384   2.537   4.823   0.552
  147TIP3    H2  385   2.581   4.697   0.480
  148TIP3   OH2  386   0.168   2.889   2.970
  148TIP3    H1  387   0.135   2.814   2.920
  148TIP3    H2  388   0.213   2.850   3.045
  149TIP3   OH2  389   7.049   2.763   5.814
  149TIP3    H1  390   7.009   2.767   5.901
  149TIP3    H2  391   7.097   2.680   5.814
  150TIP3   OH2  392   0.896   2.291   3.497
  150TIP3    H1  393   0.922   2.288   3.405
  150TIP3    H2  394   0.866   2.203   3.517
  151TIP3   OH2  395   7.522   0.491   2.687
  151TIP3    H1  396   7.525   0.584   2.664
  151TIP3    H2  397   7.450   0.456   2.634
  152TIP3   OH2  398   4.111   3.067   5.803
  152TIP3    H1  399   4.119   2.994   5.742
  152TIP3    H2  400   4.091   3.143   5.748
  153TIP3   OH2  401   2.109   5.272   5.377
  153TIP3    H1  402   2.084   5.280   5.469
  153TIP3    H2  403   2.080   5.355   5.337
  154TIP3   OH2  404   5.104   6.048   4.857
  154TIP3    H1  405   5.104   6.114   4.926
  154TIP3    H2  406   5.012   6.040   4.830
  155TIP3   OH2  407   3.204   6.559   6.422
  155TIP3    H1  408   3.112   6.547   6.398
  155TIP3    H2  409   3.227   6.482   6.473
  156TIP3   OH2  410   7.308   5.923   6.234
  156TIP3    H1  411   7.379   5.873   6.195
  156TIP3    H2  412   7.350   5.979   6.300
  157TIP3   OH2  413   0.405   4.961   4.174
  157TIP3    H1  414   0.485   4.986   4.128
  157TIP3    H2  415   0.407   4.866   4.178
  158TIP3   OH2  416   7.314   5.715   5.502
  158TIP3    H1  417   7.326   5.667   5.584
  158TIP3    H2  418   7.390   5.772   5.496
  159TIP3   OH2  419   5.636   0.411   1.573
  159TIP3    H1  420   5.605   0.323   1.550
  159TIP3    H2  421   5.560   0.467   1.560
  160TIP3   OH2  422   3.405   6.463   0.129
  160TIP3    H1  423   3.477   6.402   0.112
  160TIP3    H2  424   3.430   6.509   0.209
  161TIP3   OH2  425   7.126   4.283   6.573
  161TIP3    H1  426   7.211   4.265   6.532
  161TIP3    H2  427   7.090   4.197   6.592
  162TIP3   OH2  428   5.314   6.297   5.355
  162TIP3    H1  429   5.299   6.255   5.440
  162TIP3    H2  430   5.275   6.384   5.365
  163TIP3   OH2  431   7.123   5.267   1.563
  163TIP3    H1  432   7.161   5.300   1.645
  163TIP3    H2  433   7.033   5.301   1.563
  164TIP3   OH2  434   7.899   5.928   4.785
  164TIP3    H1  435   7.872   6.018   4.805
  164TIP3    H2  436   7.953   5.903   4.859
  165TIP3   OH2  437   5.851   3.109   4.209
  165TIP3    H1  438   5.796   3.180   4.176
  165TIP3    H2  439   5.812   3.086   4.293
  166TIP3   OH2  440   7.030   5.354   4.421
  166TIP3    H1  441   7.094   5.325   4.355
  166TIP3    H2  442   7.040   5.293   4.493
  167TIP3   OH2  443   1.517   3.454   5.248
  167TIP3    H1  444   1.588   3.393   5.269
  167TIP3    H2  445   1.439   3.399   5.241
  168TIP3   OH2  446   0.953   2.582   3.030
  168TIP3    H1  447   0.887   2.652   3.030
  168TIP3    H2  448   1.034   2.625   3.058
  169TIP3   OH2  449   4.016   7.594   2.996
  169TIP3    H1  450   4.076   7.646   2.944
  169TIP3    H2  451   4.052   7.505   2.993
  170TIP3   OH2  452   3.654   2.967   2.688
  170TIP3    H1  453   3.605   2.911   2.749
  170TIP3    H2  454   3.586   3.013   2.638
  171TIP3   OH2  455   5.794   1.799   6.388
  171TIP3    H1  456   5.747   1.866   6.438
  171TIP3    H2  457   5.743   1.719   6.402
  172TIP3   OH2  458   5.870   3.047   3.321
  172TIP3    H1  459   5.896   2.999   3.399
  172TIP3    H2  460   5.813   2.987   3.273
  173TIP3   OH2  461   7.128   6.282   1.499
  173TIP3    H1  462   7.079   6.217   1.450
  173TIP3    H2  463   7.212   6.289   1.454
  174TIP3   OH2  464   4.543   6.570   0.007
  174TIP3    H1  465   4.628   6.580   0.049
  174TIP3    H2  466   4.536   6.644  -0.053
  175TIP3   OH2  467   7.494   7.246   4.753
  175TIP3    H1  468   7.579   7.256   4.795
  175TIP3    H2  469   7.461   7.336   4.745
  176TIP3   OH2  470   7.768   0.386   2.696
  176TIP3    H1  471   7.730   0.333   2.626
  176TIP3    H2  472   7.696   0.443   2.724
  177TIP3   OH2  473   2.647   2.874   6.387
  177TIP3    H1  474   2.684   2.788   6.409
  177TIP3    H2  475   2.720   2.923   6.352
  178TIP3   OH2  476   4.544   3.106   4.518
  178TIP3    H1  477   4.631   3.121   4.555
  178TIP3    H2  478   4.530   3.181   4.460
  179TIP3   OH2  479   3.987   7.350   0.605
  179TIP3    H1  480   3.993   7.290   0.530
  179TIP3    H2  481   3.971   7.436   0.566
  180TIP3   OH2  482   1.062   6.247   5.928
  180TIP3    H1  483   1.065   6.153   5.944
  180TIP3    H2  484   1.149   6.269   5.895
  181TIP3   OH2  485   5.111   5.260   3.542
  181TIP3    H1  486   5.109   5.254   3.447
  181TIP3    H2  487   5.019   5.265   3.568
  182TIP3   OH2  488   4.841   2.302   0.978
  182TIP3    H1  489   4.807   2.306   0.889
  182TIP3    H2  490   4.928   2.264   0.969
  183TIP3   OH2  491   0.681   7.701   0.380
  183TIP3    H1  492   0.598   7.744   0.403
  183TIP3    H2  493   0.748   7.764   0.406
  184TIP3   OH2  494   1.338   5.610   4.517
  184TIP3    H1  495   1.258   5.660   4.505
  184TIP3    H2  496   1.397   5.671   4.562
  185TIP3   OH2  497   4.005   4.292   1.115
  185TIP3    H1  498   4.007   4.197   1.105
  185TIP3    H2  499   4.096   4.317   1.131
  186TIP3   OH2  500   2.950   6.584   3.388
  186TIP3    H1  501   2.962   6.679   3.387
  186TIP3    H2  502   2.926   6.564   3.478
  187TIP3   OH2  503   1.743   7.065   3.745
  187TIP3    H1  504   1.726   6.973   3.767
  187TIP3    H2  505   1.662   7.096   3.706
  188TIP3   OH2  506   5.270   4.468   2.783
  188TIP3    H1  507   5.329   4.395   2.804
  188TIP3    H2  508   5.239   4.499   2.868
  189TIP3   OH2  509   3.876   6.074   5.030
  189TIP3    H1  510   3.829   6.037   4.955
  189TIP3    H2  511   3.820   6.145   5.060
  190TIP3   OH2  512   4.552   2.249   0.957
  190TIP3    H1  513   4.571   2.155   0.968
  190TIP3    H2  514   4.637   2.288   0.940
  191TIP3   OH2  515   1.554   6.078   0.285
  191TIP3    H1  516   1.646   6.098   0.302
  191TIP3    H2  517   1.506   6.124   0.354
  192TIP3   OH2  518   3.047   2.056   2.150
  192TIP3    H1  519   3.020   2.027   2.063
  192TIP3    H2  520   3.007   1.992   2.209
  193TIP3   OH2  521   5.495   7.503   6.083
  193TIP3    H1  522   5.409   7.471   6.110
  193TIP3    H2  523   5.517   7.451   6.005
  194TIP3   OH2  524   7.573   3.035   2.636
  194TIP3    H1  525   7.505   3.089   2.675
  194TIP3    H2  526   7.632   3.015   2.708
  195TIP3   OH2  527   3.045   3.264   0.964
  195TIP3    H1  528   3.094   3.341   0.994
  195TIP3    H2  529   3.020   3.285   0.875
  196TIP3   OH2  530   6.085   7.648   0.238
  196TIP3    H1  531   6.121   7.563   0.265
  196TIP3    H2  532   6.049   7.632   0.150
  197TIP3   OH2  533   1.451   7.115   3.641
  197TIP3    H1  534   1.471   7.182   3.576
  197TIP3    H2  535   1.363   7.136   3.672
  198TIP3   OH2  536   3.284   7.700   3.221
  198TIP3    H1  537   3.264   7.667   3.308
  198TIP3    H2  538   3.288   7.622   3.166
  199TIP3   OH2  539   6.090   5.955   1.222
  199TIP3    H1  540   6.116   5.912   1.304
  199TIP3    H2  541   6.008   6.000   1.244
  200TIP3   OH2  542   6.665   4.576   2.966
  200TIP3    H1  543   6.700   4.494   3.002
  200TIP3    H2  544   6.742   4.625   2.937
  201TIP3   OH2  545   2.108   1.418   6.745
  201TIP3    H1  546   2.186   1.378   6.707
  201TIP3    H2  547   2.141   1.494   6.794
  202TIP3   OH2  548   6.427   1.798   6.546
  202TIP3    H1  549   6.491   1.808   6.475
  202TIP3    H2  550   6.476   1.816   6.626
  203TIP3   OH2  551   6.902   6.521   3.056
  203TIP3    H1  552   6.909   6.608   3.018
  203TIP3    H2  553   6.964   6.467   3.007
  204TIP3   OH2  554   5.569   2.565   0.726
  204TIP3    H1  555   5.643   2.549   0.785
  204TIP3    H2  556   5.603   2.544   0.639
  205TIP3   OH2  557   2.140   5.763   5.276
  205TIP3    H1  558   2.101   5.842   5.240
  205TIP3    H2  559   2.212   5.742   5.217
  206TIP3   OH2  560   7.160   6.349   6.542
  206TIP3    H1  561   7.178   6.309   6.627
  206TIP3    H2  562   7.065   6.352   6.536
  207TIP3   OH2  563   5.610   2.464   4.663
  207TIP3    H1  564   5.646   2.522   4.595
  207TIP3    H2  565   5.686   2.444   4.719
  208TIP3   OH2  566   5.657   4.021   5.859
  208TIP3    H1  567   5.565   4.021   5.887
  208TIP3    H2  568   5.704   4.062   5.932
  209TIP3   OH2  569   0.954   6.280   5.417
  209TIP3    H1  570   1.025   6.240   5.467
  209TIP3    H2  571   0.906   6.206   5.380
  210TIP3   OH2  572   7.571   6.821   2.267
  210TIP3    H1  573   7.495   6.792   2.218
  210TIP3    H2  574   7.618   6.879   2.207
  211TIP3   OH2  575   4.296   4.499   1.118
  211TIP3    H1  576   4.339   4.447   1.186
  211TIP3    H2  577   4.307   4.447   1.038
  212TIP3   OH2  578   4.537   7.174   4.527
  212TIP3    H1  579   4.460   7.223   4.499
  212TIP3    H2  580   4.609   7.208   4.474
  213TIP3   OH2  581   1.976   4.668   5.285
  213TIP3    H1  582   1.898   4.699   5.331
  213TIP3    H2  583   2.002   4.589   5.333
  214TIP3   OH2  584   5.314   6.231   0.776
  214TIP3    H1  585   5.249   6.178   0.730
  214TIP3    H2  586   5.293   6.219   0.869
  215TIP3   OH2  587   1.128   2.786   3.083
  215TIP3    H1  588   1.219   2.813   3.071
  215TIP3    H2  589   1.077   2.853   3.036
  216TIP3   OH2  590   7.433   2.840   4.600
  216TIP3    H1  591   7.450   2.749   4.576
  216TIP3    H2  592   7.368   2.870   4.537
  217TIP3   OH2  593   7.436   2.123   6.255
  217TIP3    H1  594   7.401   2.038   6.227
  217TIP3    H2  595   7.509   2.102   6.312
  218TIP3   OH2  596   8.318   3.140   2.134
  218TIP3    H1  597   8.291   3.052   2.162
  218TIP3    H2  598   8.269   3.156   2.054
  219TIP3   OH2  599   4.896   4.815   0.704
  219TIP3    H1  600   4.957   4.872   0.658
  219TIP3    H2  601   4.810   4.839   0.670
  220TIP3   OH2  602   7.508   0.331   5.839
  220TIP3    H1  603   7.480   0.328   5.747
  220TIP3    H2  604   7.447   0.273   5.884
  221TIP3   OH2  605   2.900   3.493   2.021
  221TIP3    H1  606   2.949   3.549   2.081
  221TIP3    H2  607   2.962   3.423   1.998
  222TIP3   OH2  608   2.563   2.494   0.331
  222TIP3    H1  609   2.584   2.498   0.238
  222TIP3    H2  610   2.475   2.454   0.334
  223TIP3   OH2  611   1.881   0.212   5.394
  223TIP3    H1  612   1.926   0.138   5.355
  223TIP3    H2  613   1.851   0.180   5.479
  224TIP3   OH2  614   4.969   5.306   1.238
  224TIP3    H1  615   4.922   5.233   1.277
  224TIP3    H2  616   5.061   5.280   1.241
  225TIP3   OH2  617   4.220   6.543   6.296
  225TIP3    H1  618   4.276   6.475   6.333
  225TIP3    H2  619   4.236   6.620   6.350
  226TIP3   OH2  620   6.667   5.362   0.405
  226TIP3    H1  621   6.707   5.277   0.424
  226TIP3    H2  622   6.662   5.405   0.491
  227TIP3   OH2  623   1.744   1.521   3.309
  227TIP3    H1  624   1.835   1.549   3.302
  227TIP3    H2  625   1.705   1.581   3.373
  228TIP3   OH2  626   5.931   2.974   6.706
  228TIP3    H1  627   5.982   3.005   6.780
  228TIP3    H2  628   5.995   2.963   6.636
  229TIP3   OH2  629   1.404   0.370   0.971
  229TIP3    H1  630   1.377   0.378   1.062
  229TIP3    H2  631   1.500   0.372   0.974
  230TIP3   OH2  632   7.914   5.519   1.680
  230TIP3    H1  633   7.945   5.555   1.763
  230TIP3    H2  634   7.957   5.572   1.613
  231TIP3   OH2  635   3.399   5.179   4.310
  231TIP3    H1  636   3.362   5.234   4.378
  231TIP3    H2  637   3.465   5.233   4.267
  232TIP3   OH2  638   7.083   0.081   4.730
  232TIP3    H1  639   7.096   0.003   4.676
  232TIP3    H2  640   7.009   0.126   4.690
  233TIP3   OH2  641   1.654   4.767   1.866
  233TIP3    H1  642   1.740   4.779   1.825
  233TIP3    H2  643   1.673   4.721   1.948
  234TIP3   OH2  644   2.163   5.806   6.462
  234TIP3    H1  645   2.083   5.765   6.496
  234TIP3    H2  646   2.234   5.756   6.502
  235TIP3   OH2  647   1.883   4.885   2.939
  235TIP3    H1  648   1.876   4.828   2.862
  235TIP3    H2  649   1.978   4.897   2.950
  236TIP3   OH2  650   7.841   2.050   2.167
  236TIP3    H1  651   7.936   2.039   2.163
  236TIP3    H2  652   7.813   1.991   2.237
  237TIP3   OH2  653   4.167   5.318   3.783
  237TIP3    H1  654   4.176   5.304   3.878
  237TIP3    H2  655   4.073   5.331   3.770
  238TIP3   OH2  656   7.934   5.734   4.391
  238TIP3    H1  657   7.886   5.653   4.377
  238TIP3    H2  658   7.881   5.783   4.455
  239TIP3   OH2  659   0.446   3.707   2.913
  239TIP3    H1  660   0.518   3.767   2.934
  239TIP3    H2  661   0.469   3.669   2.829
  240TIP3   OH2  662   1.583   1.326   0.770
  240TIP3    H1  663   1.657   1.372   0.810
  240TIP3    H2  664   1.565   1.254   0.830
  241TIP3   OH2  665   2.532   1.117   0.088
  241TIP3    H1  666   2.569   1.195   0.046
  241TIP3    H2  667   2.544   1.133   0.182
  242TIP3   OH2  668   3.797   7.091   4.385
  242TIP3    H1  669   3.809   7.004   4.425
  242TIP3    H2  670   3.790   7.073   4.291
  243TIP3   OH2  671   0.756   2.584   4.103
  243TIP3    H1  672   0.740   2.670   4.141
  243TIP3    H2  673   0.793   2.602   4.017
  244TIP3   OH2  674   1.420   1.208   6.618
  244TIP3    H1  675   1.373   1.193   6.536
  244TIP3    H2  676   1.511   1.192   6.596
  245TIP3   OH2  677   7.518   3.871   1.132
  245TIP3    H1  678   7.613   3.887   1.133
  245TIP3    H2  679   7.499   3.832   1.217
  246TIP3   OH2  680   5.399   4.125   5.943
  246TIP3    H1  681   5.378   4.190   5.877
  246TIP3    H2  682   5.315   4.104   5.983
  247TIP3   OH2  683   5.959   0.569   5.587
  247TIP3    H1  684   6.030   0.530   5.638
  247TIP3    H2  685   5.965   0.663   5.605
  248TIP3   OH2  686   3.339   3.340   6.492
  248TIP3    H1  687   3.427   3.329   6.529
  248TIP3    H2  688   3.354   3.368   6.402
  249TIP3   OH2  689   4.017   1.427   3.677
  249TIP3    H1  690   4.078   1.381   3.619
  249TIP3    H2  691   4.017   1.517   3.645
  250TIP3   OH2  692   4.531   7.105   5.826
  250TIP3    H1  693   4.527   7.025   5.775
  250TIP3    H2  694   4.570   7.079   5.910
  251TIP3   OH2  695   4.984   5.336   5.349
  251TIP3    H1  696   4.971   5.427   5.375
  251TIP3    H2  697   4.904   5.292   5.378
  252TIP3   OH2  698   1.062   0.407   1.262
  252TIP3    H1  699   1.024   0.417   1.349
  252TIP3    H2  700   1.029   0.323   1.231
  253TIP3   OH2  701   6.403   6.214   5.017
  253TIP3    H1  702   6.389   6.140   5.076
  253TIP3    H2  703   6.488   6.250   5.043
  254TIP3   OH2  704   5.759   3.800   3.931
  254TIP3    H1  705   5.706   3.763   4.001
  254TIP3    H2  706   5.770   3.892   3.955
  255TIP3   OH2  707   0.912   0.148   3.160
  255TIP3    H1  708   0.973   0.211   3.199
  255TIP3    H2  709   0.966   0.074   3.134
  256TIP3   OH2  710   0.427   7.677   1.320
  256TIP3    H1  711   0.461   7.684   1.231
  256TIP3    H2  712   0.498   7.709   1.375
  257TIP3   OH2  713   5.608   6.930   0.271
  257TIP3    H1  714   5.551   6.856   0.248
  257TIP3    H2  715   5.568   7.005   0.227
  258TIP3   OH2  716   3.601   5.467   1.622
  258TIP3    H1  717   3.608   5.496   1.531
  258TIP3    H2  718   3.511   5.437   1.630
  259TIP3   OH2  719   4.924   3.577   3.033
  259TIP3    H1  720   4.890   3.488   3.024
  259TIP3    H2  721   4.846   3.633   3.033
  260TIP3   OH2  722   2.729   1.800   3.380
  260TIP3    H1  723   2.790   1.727   3.367
  260TIP3    H2  724   2.782   1.879   3.365
  261TIP3   OH2  725   3.650   4.228   4.070
  261TIP3    H1  726   3.720   4.280   4.110
  261TIP3    H2  727   3.607   4.185   4.144
  262TIP3   OH2  728   4.143   6.573   2.903
  262TIP3    H1  729   4.131   6.641   2.836
  262TIP3    H2  730   4.237   6.570   2.917
  263TIP3   OH2  731   0.424   2.942   4.814
  263TIP3    H1  732   0.434   2.918   4.906
  263TIP3    H2  733   0.489   2.889   4.768
  264TIP3   OH2  734   3.797   6.687   1.202
  264TIP3    H1  735   3.875   6.742   1.205
  264TIP3    H2  736   3.790   6.659   1.111
  265TIP3   OH2  737   1.490   6.850   5.910
  265TIP3    H1  738   1.457   6.870   5.823
  265TIP3    H2  739   1.580   6.884   5.911
  266TIP3   OH2  740   1.981   5.318   0.028
  266TIP3    H1  741   1.907   5.325   0.089
  266TIP3    H2  742   1.989   5.406  -0.009
  267TIP3   OH2  743   6.796   1.308   3.847
  267TIP3    H1  744   6.849   1.232   3.870
  267TIP3    H2  745   6.762   1.288   3.760
  268TIP3   OH2  746   7.291   3.004   4.021
  268TIP3    H1  747   7.270   3.084   4.067
  268TIP3    H2  748   7.331   3.033   3.939
  269TIP3   OH2  749   3.833   4.567   0.737
  269TIP3    H1  750   3.738   4.561   0.725
  269TIP3    H2  751   3.850   4.512   0.814
  270TIP3   OH2  752   0.254   7.367   3.422
  270TIP3    H1  753   0.253   7.433   3.491
  270TIP3    H2  754   0.162   7.341   3.412
  271TIP3   OH2  755   3.653   4.040   4.768
  271TIP3    H1  756   3.578   4.006   4.818
  271TIP3    H2  757   3.719   4.060   4.835
  272TIP3   OH2  758   5.753   4.946   6.580
  272TIP3    H1  759   5.658   4.957   6.580
  272TIP3    H2  760   5.780   4.957   6.671
  273TIP3   OH2  761   0.083   1.685   1.843
  273TIP3    H1  762   0.019   1.634   1.894
  273TIP3    H2  763   0.031   1.753   1.800
  274TIP3   OH2  764   0.712   5.553   6.410
  274TIP3    H1  765   0.770   5.571   6.484
  274TIP3    H2  766   0.695   5.639   6.371
  275TIP3   OH2  767  -0.010   3.091   6.409
  275TIP3    H1  768  -0.076   3.025   6.389
  275TIP3    H2  769   0.039   3.055   6.483
  276TIP3   OH2  770   2.293   6.417   1.750
  276TIP3    H1  771   2.210   6.368   1.748
  276TIP3    H2  772   2.351   6.367   1.693
  277TIP3   OH2  773   7.704   6.217   4.960
  277TIP3    H1  774   7.652   6.282   5.007
  277TIP3    H2  775   7.761   6.268   4.903
  278TIP3   OH2  776   6.936   5.974   0.923
  278TIP3    H1  777   6.876   5.913   0.881
  278TIP3    H2  778   6.932   5.952   1.016
  279TIP3   OH2  779   3.594   6.904   6.078
  279TIP3    H1  780   3.594   6.811   6.054
  279TIP3    H2  781   3.538   6.909   6.155
  280TIP3   OH2  782   6.334   5.184   1.393
  280TIP3    H1  783   6.274   5.118   1.355
  280TIP3    H2  784   6.293   5.268   1.373
  281TIP3   OH2  785   3.918   4.867   6.283
  281TIP3    H1  786   4.004   4.909   6.290
  281TIP3    H2  787   3.861   4.918   6.341
  282TIP3   OH2  788   7.342   6.573   6.233
  282TIP3    H1  789   7.247   6.584   6.220
  282TIP3    H2  790   7.381   6.613   6.155
  283TIP3   OH2  791   5.834   4.791   1.991
  283TIP3    H1  792   5.852   4.884   1.973
  283TIP3    H2  793   5.756   4.792   2.046
  284TIP3   OH2  794   7.700   3.257   4.437
  284TIP3    H1  795   7.743   3.266   4.352
  284TIP3    H2  796   7.647   3.177   4.429
  285TIP3   OH2  797   1.855   6.138   2.679
  285TIP3    H1  798   1.929   6.100   2.727
  285TIP3    H2  799   1.782   6.079   2.698
  286TIP3   OH2  800   3.118   3.686   3.391
  286TIP3    H1  801   3.137   3.619   3.456
  286TIP3    H2  802   3.128   3.642   3.307
  287TIP3   OH2  803   6.756   5.834   6.019
  287TIP3    H1  804   6.737   5.800   5.932
  287TIP3    H2  805   6.678   5.883   6.044
  288TIP3   OH2  806   0.086   6.663   5.649
  288TIP3    H1  807   0.080   6.749   5.689
  288TIP3    H2  808   0.150   6.673   5.579
  289TIP3   OH2  809   2.040   2.738   2.998
  289TIP3    H1  810   2.030   2.805   2.930
  289TIP3    H2  811   2.045   2.655   2.949
  290TIP3   OH2  812   8.120   4.922   1.869
  290TIP3    H1  813   8.157   4.978   1.937
  290TIP3    H2  814   8.026   4.937   1.873
  291TIP3   OH2  815   3.949   3.868   0.913
  291TIP3    H1  816   3.973   3.820   0.833
  291TIP3    H2  817   4.016   3.936   0.920
  292TIP3   OH2  818   3.986   1.719   4.727
  292TIP3    H1  819   3.930   1.706   4.651
  292TIP3    H2  820   4.016   1.631   4.751
  293TIP3   OH2  821   0.807   6.186   0.014
  293TIP3    H1  822   0.725   6.148   0.046
  293TIP3    H2  823   0.832   6.249   0.082
  294TIP3   OH2  824   0.108   2.910   4.107
  294TIP3    H1  825   0.051   2.837   4.081
  294TIP3    H2  826   0.170   2.919   4.035
  295TIP3   OH2  827   2.241   4.769   4.883
  295TIP3    H1  828   2.327   4.808   4.901
  295TIP3    H2  829   2.259   4.699   4.820
  296TIP3   OH2  830   5.611   3.149   3.060
  296TIP3    H1  831   5.607   3.229   3.008
  296TIP3    H2  832   5.619   3.179   3.150
  297TIP3   OH2  833   1.016   0.757   4.438
  297TIP3    H1  834   1.013   0.690   4.507
  297TIP3    H2  835   0.950   0.821   4.464
  298TIP3   OH2  836   3.512   4.940   4.637
  298TIP3    H1  837   3.538   5.026   4.669
  298TIP3    H2  838   3.418   4.950   4.617
  299TIP3   OH2  839   1.195   3.592   3.179
  299TIP3    H1  840   1.168   3.558   3.265
  299TIP3    H2  841   1.113   3.608   3.133
  300TIP3   OH2  842   6.018   2.652   1.196
  300TIP3    H1  843   6.048   2.703   1.121
  300TIP3    H2  844   5.972   2.577   1.158
  301TIP3   OH2  845   0.754   1.882   4.732
  301TIP3    H1  846   0.766   1.914   4.822
  301TIP3    H2  847   0.815   1.934   4.680
  302TIP3   OH2  848   7.540   4.408   2.880
  302TIP3    H1  849   7.571   4.489   2.838
  302TIP3    H2  850   7.594   4.339   2.841
  303TIP3   OH2  851   5.687   2.566   1.913
  303TIP3    H1  852   5.612   2.626   1.915
  303TIP3    H2  853   5.762   2.622   1.935
  304TIP3   OH2  854   5.725   5.550   0.876
  304TIP3    H1  855   5.746   5.629   0.926
  304TIP3    H2  856   5.629   5.544   0.880
  305TIP3   OH2  857   5.663   6.545   5.246
  305TIP3    H1  858   5.622   6.631   5.251
  305TIP3    H2  859   5.742   6.558   5.194
  306TIP3   OH2  860   3.122   0.477   3.501
  306TIP3    H1  861   3.116   0.455   3.408
  306TIP3    H2  862   3.099   0.569   3.505
  307TIP3   OH2  863   5.832   2.152   4.856
  307TIP3    H1  864   5.854   2.246   4.855
  307TIP3    H2  865   5.746   2.147   4.813
  308TIP3   OH2  866   3.360   7.356   3.252
  308TIP3    H1  867   3.342   7.383   3.342
  308TIP3    H2  868   3.436   7.298   3.259
  309TIP3   OH2  869   8.143   1.671   4.689
  309TIP3    H1  870   8.153   1.600   4.626
  309TIP3    H2  871   8.202   1.648   4.761
  310TIP3   OH2  872   0.764   6.249   5.124
  310TIP3    H1  873   0.849   6.219   5.092
  310TIP3    H2  874   0.766   6.227   5.218
  311TIP3   OH2  875   6.484   7.325   0.658
  311TIP3    H1  876   6.556   7.341   0.719
  311TIP3    H2  877   6.525   7.331   0.571
  312TIP3   OH2  878   8.017   7.604   3.257
  312TIP3    H1  879   8.103   7.568   3.280
  312TIP3    H2  880   8.026   7.631   3.165
  313TIP3   OH2  881   0.775   5.937   4.817
  313TIP3    H1  882   0.787   5.883   4.895
  313TIP3    H2  883   0.861   5.977   4.802
  314TIP3   OH2  884   1.467   7.358   4.218
  314TIP3    H1  885   1.374   7.378   4.212
  314TIP3    H2  886   1.471   7.270   4.254
  315TIP3   OH2  887   3.187   3.355   4.946
  315TIP3    H1  888   3.137   3.382   4.869
  315TIP3    H2  889   3.203   3.261   4.932
  316TIP3   OH2  890   0.760   7.406   5.380
  316TIP3    H1  891   0.728   7.338   5.321
  316TIP3    H2  892   0.717   7.486   5.351
  317TIP3   OH2  893   3.357   4.856   3.473
  317TIP3    H1  894   3.294   4.886   3.538
  317TIP3    H2  895   3.442   4.881   3.509
  318TIP3   OH2  896   4.992   1.164   0.195
  318TIP3    H1  897   5.059   1.217   0.152
  318TIP3    H2  898   4.961   1.219   0.267
  319TIP3   OH2  899   2.016   2.215   2.205
  319TIP3    H1  900   1.986   2.131   2.170
  319TIP3    H2  901   1.945   2.246   2.260
  320TIP3   OH2  902   6.086   7.791   2.697
  320TIP3    H1  903   6.177   7.814   2.717
  320TIP3    H2  904   6.087   7.772   2.603
  321TIP3   OH2  905   7.004   6.256   1.132
  321TIP3    H1  906   6.969   6.214   1.211
  321TIP3    H2  907   7.020   6.183   1.071
  322TIP3   OH2  908   2.756   2.022   5.570
  322TIP3    H1  909   2.674   1.974   5.556
  322TIP3    H2  910   2.746   2.101   5.517
  323TIP3   OH2  911   1.474   7.595   4.364
  323TIP3    H1  912   1.493   7.522   4.304
  323TIP3    H2  913   1.412   7.650   4.315
  324TIP3   OH2  914   3.782   2.267   6.084
  324TIP3    H1  915   3.689   2.291   6.085
  324TIP3    H2  916   3.783   2.176   6.056
  325TIP3   OH2  917   4.501   6.767   1.501
  325TIP3    H1  918   4.468   6.797   1.586
  325TIP3    H2  919   4.423   6.738   1.454
  326TIP3   OH2  920   6.000   2.639   3.474
  326TIP3    H1  921   5.992   2.733   3.490
  326TIP3    H2  922   5.909   2.608   3.465
  327TIP3   OH2  923   7.079   2.395   4.520
  327TIP3    H1  924   7.096   2.482   4.556
  327TIP3    H2  925   7.021   2.411   4.445
  328TIP3   OH2  926   0.920   5.676   3.579
  328TIP3    H1  927   0.860   5.698   3.650
  328TIP3    H2  928   1.006   5.674   3.621
  329TIP3   OH2  929   3.150   3.643   2.944
  329TIP3    H1  930   3.072   3.698   2.928
  329TIP3    H2  931   3.179   3.618   2.856
  330TIP3   OH2  932   2.046   2.655   4.732
  330TIP3    H1  933   2.021   2.695   4.649
  330TIP3    H2  934   2.139   2.674   4.741
  331TIP3   OH2  935   3.373   2.037   2.468
  331TIP3    H1  936   3.326   1.961   2.434
  331TIP3    H2  937   3.465   2.014   2.457
  332TIP3   OH2  938   0.516   1.172   5.759
  332TIP3    H1  939   0.435   1.205   5.719
  332TIP3    H2  940   0.488   1.138   5.844
  333TIP3   OH2  941   3.710   6.589   1.432
  333TIP3    H1  942   3.650   6.523   1.398
  333TIP3    H2  943   3.751   6.627   1.355
  334TIP3   OH2  944   3.423   2.591   3.392
  334TIP3    H1  945   3.359   2.521   3.384
  334TIP3    H2  946   3.383   2.653   3.452
  335TIP3   OH2  947   6.277   5.072   5.334
  335TIP3    H1  948   6.323   5.156   5.335
  335TIP3    H2  949   6.205   5.083   5.396
  336TIP3   OH2  950   5.601   7.451   2.244
  336TIP3    H1  951   5.529   7.450   2.307
  336TIP3    H2  952   5.634   7.361   2.243
  337TIP3   OH2  953   1.016   6.200   2.538
  337TIP3    H1  954   0.994   6.207   2.631
  337TIP3    H2  955   1.061   6.281   2.517
  338TIP3   OH2  956   6.624   0.645   3.750
  338TIP3    H1  957   6.546   0.594   3.770
  338TIP3    H2  958   6.662   0.601   3.673
  339TIP3   OH2  959   6.841   4.891   2.580
  339TIP3    H1  960   6.899   4.818   2.602
  339TIP3    H2  961   6.864   4.915   2.490
  340TIP3   OH2  962   6.169   6.875   0.885
  340TIP3    H1  963   6.247   6.830   0.856
  340TIP3    H2  964   6.201   6.956   0.926
  341TIP3   OH2  965   1.119   2.810   1.954
  341TIP3    H1  966   1.029   2.840   1.964
  341TIP3    H2  967   1.112   2.731   1.900
  342TIP3   OH2  968   0.422   6.739   3.789
  342TIP3    H1  969   0.515   6.749   3.808
  342TIP3    H2  970   0.385   6.708   3.872
  343TIP3   OH2  971   3.947   3.214   4.542
  343TIP3    H1  972   4.034   3.247   4.566
  343TIP3    H2  973   3.940   3.231   4.448
  344TIP3   OH2  974   5.092   3.135   5.742
  344TIP3    H1  975   5.037   3.120   5.665
  344TIP3    H2  976   5.177   3.160   5.706
  345TIP3   OH2  977   5.294   4.075   2.146
  345TIP3    H1  978   5.299   4.169   2.130
  345TIP3    H2  979   5.355   4.036   2.083
  346TIP3   OH2  980   5.967   0.998   5.029
  346TIP3    H1  981   6.011   1.035   4.952
  346TIP3    H2  982   5.963   1.071   5.091
  347TIP3   OH2  983   4.811   1.908   5.728
  347TIP3    H1  984   4.830   1.823   5.688
  347TIP3    H2  985   4.810   1.889   5.822
  348TIP3   OH2  986   0.330   0.960   1.613
  348TIP3    H1  987   0.261   1.025   1.619
  348TIP3    H2  988   0.322   0.924   1.524
  349TIP3   OH2  989  -0.031   6.262   2.889
  349TIP3    H1  990   0.063   6.254   2.872
  349TIP3    H2  991  -0.039   6.341   2.942
  350TIP3   OH2  992   0.227   6.627   1.537
  350TIP3    H1  993   0.267   6.678   1.466
  350TIP3    H2  994   0.230   6.686   1.613
  351TIP3   OH2  995   5.566   7.574   0.192
  351TIP3    H1  996   5.568   7.652   0.137
  351TIP3    H2  997   5.643   7.582   0.248
  352TIP3   OH2  998   5.411   5.801   5.341
  352TIP3    H1  999   5.506   5.794   5.333
  352TIP3    H2 1000   5.378   5.729   5.288
  353TIP3   OH2 1001   3.051   1.749   6.224
  353TIP3    H1 1002   3.014   1.662   6.207
  353TIP3    H2 1003   3.063   1.751   6.319
  354TIP3   OH2 1004   0.105   7.354   0.181
  354TIP3    H1 1005   0.123   7.384   0.270
  354TIP3    H2 1006   0.082   7.434   0.132
  355TIP3   OH2 1007   3.783   6.682   5.721
  355TIP3    H1 1008   3.854   6.741   5.746
  355TIP3    H2 1009   3.791   6.607   5.780
  356TIP3   OH2 1010   6.592   2.891   2.773
  356TIP3    H1 1011   6.566   2.829   2.841
  356TIP3    H2 1012   6.639   2.838   2.709
  357TIP3   OH2 1013   3.870   2.300   5.496
  357TIP3    H1 1014   3.788   2.291   5.545
  357TIP3    H2 1015   3.899   2.210   5.482
  358TIP3   OH2 1016   6.299   3.700   5.990
  358TIP3    H1 1017   6.363   3.640   5.951
  358TIP3    H2 1018   6.236   3.716   5.919
  359TIP3   OH2 1019   3.678   2.650   5.444
  359TIP3    H1 1020   3.749   2.612   5.393
  359TIP3    H2 1021   3.622   2.576   5.465
  360TIP3   OH2 1022   3.147   6.519   4.533
  360TIP3    H1 1023   3.108   6.607   4.526
  360TIP3    H2 1024   3.142   6.483   4.445
  361TIP3   OH2 1025   2.184   6.678   1.698
  361TIP3    H1 1026   2.223   6.597   1.734
  361TIP3    H2 1027   2.182   6.738   1.772
  362TIP3   OH2 1028   0.096   1.107   1.651
  362TIP3    H1 1029   0.031   1.072   1.590
  362TIP3    H2 1030   0.050   1.173   1.701
  363TIP3   OH2 1031   7.775   1.626   1.591
  363TIP3    H1 1032   7.736   1.627   1.678
  363TIP3    H2 1033   7.870   1.624   1.607
  364TIP3   OH2 1034   7.549   6.121   3.708
  364TIP3    H1 1035   7.596   6.104   3.789
  364TIP3    H2 1036   7.616   6.118   3.640
  365TIP3   OH2 1037   4.299   1.269   3.840
  365TIP3    H1 1038   4.391   1.245   3.828
  365TIP3    H2 1039   4.252   1.210   3.782
  366TIP3   OH2 1040   2.743   5.014   2.298
  366TIP3    H1 1041   2.788   5.071   2.235
  366TIP3    H2 1042   2.720   4.936   2.247
  367TIP3   OH2 1043   8.240   7.319   1.981
  367TIP3    H1 1044   8.323   7.324   1.933
  367TIP3    H2 1045   8.177   7.363   1.925
  368TIP3   OH2 1046   3.708   0.316   3.605
  368TIP3    H1 1047   3.641   0.286   3.666
  368TIP3    H2 1048   3.673   0.396   3.566
  369TIP3   OH2 1049   6.044   3.459   2.705
  369TIP3    H1 1050   5.979   3.529   2.697
  369TIP3    H2 1051   6.045   3.418   2.618
  370TIP3   OH2 1052   7.465   5.754   3.243
  370TIP3    H1 1053   7.381   5.795   3.267
  370TIP3    H2 1054   7.441   5.667   3.212
  371TIP3   OH2 1055   2.035   5.422   0.387
  371TIP3    H1 1056   1.988   5.505   0.376
  371TIP3    H2 1057   1.990   5.380   0.460
  372TIP3   OH2 1058   2.676   3.485   3.552
  372TIP3    H1 1059   2.666   3.434   3.472
  372TIP3    H2 1060   2.767   3.474   3.578
  373TIP3   OH2 1061   3.124   1.066   0.975
  373TIP3    H1 1062   3.044   1.108   0.943
  373TIP3    H2 1063   3.104   1.042   1.066
  374TIP3   OH2 1064   5.866   5.756   3.770
  374TIP3    H1 1065   5.830   5.680   3.726
  374TIP3    H2 1066   5.951   5.770   3.727
  375TIP3   OH2 1067   7.190   5.844   4.274
  375TIP3    H1 1068   7.177   5.753   4.246
  375TIP3    H2 1069   7.285   5.858   4.265
  376TIP3   OH2 1070   3.266   1.759   6.557
  376TIP3    H1 1071   3.255   1.674   6.514
  376TIP3    H2 1072   3.309   1.814   6.492
  377TIP3   OH2 1073   6.203   7.145   3.408
  377TIP3    H1 1074   6.189   7.218   3.348
  377TIP3    H2 1075   6.116   7.126   3.444
  378TIP3   OH2 1076   4.241   7.178   0.070
  378TIP3    H1 1077   4.248   7.259   0.119
  378TIP3    H2 1078   4.233   7.205  -0.022
  379TIP3   OH2 1079   6.224   7.662   2.473
  379TIP3    H1 1080   6.291   7.616   2.423
  379TIP3    H2 1081   6.272   7.720   2.531
  380TIP3   OH2 1082   1.610   6.836   1.963
  380TIP3    H1 1083   1.561   6.789   2.030
  380TIP3    H2 1084   1.594   6.787   1.882
  381TIP3   OH2 1085   5.106   3.191   1.797
  381TIP3    H1 1086   5.190   3.234   1.809
  381TIP3    H2 1087   5.042   3.262   1.795
  382TIP3   OH2 1088   2.001   6.172   6.138
  382TIP3    H1 1089   2.079   6.193   6.190
  382TIP3    H2 1090   1.983   6.252   6.089
  383TIP3   OH2 1091   3.107   0.695   3.995
  383TIP3    H1 1092   3.098   0.723   4.085
  383TIP3    H2 1093   3.021   0.709   3.956
  384TIP3   OH2 1094   7.879   1.433   2.217
  384TIP3    H1 1095   7.817   1.377   2.264
  384TIP3    H2 1096   7.965   1.401   2.244
  385TIP3   OH2 1097   1.831   6.787   0.264
  385TIP3    H1 1098   1.768   6.859   0.260
  385TIP3    H2 1099   1.807   6.738   0.342
  386TIP3   OH2 1100   7.469   0.185   3.010
  386TIP3    H1 1101   7.480   0.280   3.013
  386TIP3    H2 1102   7.382   0.172   2.972
  387TIP3   OH2 1103   2.715   0.019   6.098
  387TIP3    H1 1104   2.747  -0.058   6.049
  387TIP3    H2 1105   2.775   0.089   6.073
  388TIP3   OH2 1106   2.311   7.064   4.839
  388TIP3    H1 1107   2.313   7.139   4.898
  388TIP3    H2 1108   2.221   7.060   4.807
  389TIP3   OH2 1109   1.351   0.275   2.325
  389TIP3    H1 1110   1.362   0.370   2.313
  389TIP3    H2 1111   1.259   0.264   2.346
  390TIP3   OH2 1112   0.863   3.972   4.311
  390TIP3    H1 1113   0.933   4.031   4.282
  390TIP3    H2 1114   0.782   4.019   4.290
  391TIP3   OH2 1115   2.526   0.765   6.222
  391TIP3    H1 1116   2.489   0.847   6.189
  391TIP3    H2 1117   2.452   0.705   6.228
  392TIP3   OH2 1118   7.957   1.248   6.362
  392TIP3    H1 1119   8.000   1.239   6.447
  392TIP3    H2 1120   7.889   1.314   6.376
  393TIP3   OH2 1121   6.166   6.574   5.658
  393TIP3    H1 1122   6.254   6.610   5.648
  393TIP3    H2 1123   6.108   6.647   5.637
  394TIP3   OH2 1124   6.135   5.875   0.240
  394TIP3    H1 1125   6.225   5.907   0.238
  394TIP3    H2 1126   6.083   5.948   0.206
  395TIP3   OH2 1127   4.522   4.217   5.401
  395TIP3    H1 1128   4.601   4.268   5.383
  395TIP3    H2 1129   4.547   4.126   5.382
  396TIP3   OH2 1130   2.223   6.539   1.998
  396TIP3    H1 1131   2.240   6.629   1.969
  396TIP3    H2 1132   2.255   6.484   1.926
  397TIP3   OH2 1133   8.198   6.653   1.952
  397TIP3    H1 1134   8.133   6.680   1.888
  397TIP3    H2 1135   8.187   6.558   1.959
  398TIP3   OH2 1136   3.172   6.561   6.037
  398TIP3    H1 1137   3.154   6.474   6.072
  398TIP3    H2 1138   3.085   6.597   6.016
  399TIP3   OH2 1139   2.162   2.027   2.405
  399TIP3    H1 1140   2.161   2.086   2.330
  399TIP3    H2 1141   2.095   2.061   2.463
  400TIP3   OH2 1142   5.621   3.919   0.975
  400TIP3    H1 1143   5.691   3.940   0.913
  400TIP3    H2 1144   5.543   3.907   0.921
  401TIP3   OH2 1145   7.674   6.115   3.953
  401TIP3    H1 1146   7.726   6.062   4.013
  401TIP3    H2 1147   7.710   6.203   3.961
  402TIP3   OH2 1148   6.053   5.385   3.857
  402TIP3    H1 1149   5.985   5.344   3.911
  402TIP3    H2 1150   6.047   5.342   3.772
  403TIP3   OH2 1151   0.808   5.943   1.238
  403TIP3    H1 1152   0.829   5.866   1.289
  403TIP3    H2 1153   0.787   6.010   1.303
  404TIP3   OH2 1154   2.875   6.560   2.033
  404TIP3    H1 1155   2.878   6.641   1.982
  404TIP3    H2 1156   2.853   6.492   1.969
  405TIP3   OH2 1157   6.272   3.983   4.818
  405TIP3    H1 1158   6.337   3.948   4.879
  405TIP3    H2 1159   6.233   3.906   4.777
  406TIP3   OH2 1160   4.405   2.052   0.728
  406TIP3    H1 1161   4.499   2.066   0.722
  406TIP3    H2 1162   4.371   2.131   0.770
  407TIP3   OH2 1163   4.893   2.185   5.682
  407TIP3    H1 1164   4.862   2.094   5.689
  407TIP3    H2 1165   4.904   2.213   5.773
  408TIP3   OH2 1166   6.982   6.391   2.437
  408TIP3    H1 1167   7.047   6.342   2.386
  408TIP3    H2 1168   7.007   6.483   2.425
  409TIP3   OH2 1169   8.010   5.959   5.200
  409TIP3    H1 1170   7.915   5.969   5.195
  409TIP3    H2 1171   8.045   6.047   5.187
  410TIP3   OH2 1172   3.127   2.365   0.725
  410TIP3    H1 1173   3.140   2.303   0.653
  410TIP3    H2 1174   3.175   2.327   0.798
  411TIP3   OH2 1175   3.204   7.139   4.760
  411TIP3    H1 1176   3.157   7.151   4.843
  411TIP3    H2 1177   3.170   7.057   4.725
  412TIP3   OH2 1178   2.140   5.626   1.206
  412TIP3    H1 1179   2.097   5.682   1.271
  412TIP3    H2 1180   2.123   5.669   1.122
  413TIP3   OH2 1181   1.082   0.248   2.228
  413TIP3    H1 1182   1.076   0.337   2.195
  413TIP3    H2 1183   1.099   0.195   2.150
  414TIP3   OH2 1184   7.832   1.912   5.442
  414TIP3    H1 1185   7.787   1.939   5.362
  414TIP3    H2 1186   7.810   1.979   5.506
  415TIP3   OH2 1187   5.051   7.770   3.662
  415TIP3    H1 1188   5.010   7.688   3.635
  415TIP3    H2 1189   5.112   7.745   3.732
  416TIP3   OH2 1190   1.703   2.301   4.343
  416TIP3    H1 1191   1.790   2.321   4.307
  416TIP3    H2 1192   1.648   2.289   4.266
  417TIP3   OH2 1193   7.325   1.882   4.795
  417TIP3    H1 1194   7.320   1.835   4.711
  417TIP3    H2 1195   7.394   1.836   4.843
  418TIP3   OH2 1196   3.992   6.885   0.199
  418TIP3    H1 1197   3.908   6.847   0.172
  418TIP3    H2 1198   4.008   6.849   0.286
  419TIP3   OH2 1199   7.862   4.693   5.030
  419TIP3    H1 1200   7.808   4.768   5.053
  419TIP3    H2 1201   7.824   4.659   4.948
  420TIP3   OH2 1202   1.858   5.631   1.778
  420TIP3    H1 1203   1.929   5.683   1.815
  420TIP3    H2 1204   1.890   5.541   1.781
  421TIP3   OH2 1205   3.985   1.392   1.261
  421TIP3    H1 1206   3.991   1.482   1.295
  421TIP3    H2 1207   3.904   1.391   1.210
  422TIP3   OH2 1208   7.428   2.537   2.346
  422TIP3    H1 1209   7.509   2.563   2.389
  422TIP3    H2 1210   7.436   2.442   2.336
  423TIP3   OH2 1211   7.246   3.465   1.751
  423TIP3    H1 1212   7.171   3.524   1.765
  423TIP3    H2 1213   7.252   3.457   1.656
  424TIP3   OH2 1214   4.328   0.603   1.171
  424TIP3    H1 1215   4.237   0.619   1.196
  424TIP3    H2 1216   4.362   0.690   1.149
  425TIP3   OH2 1217   4.334   4.443   0.834
  425TIP3    H1 1218   4.344   4.356   0.796
  425TIP3    H2 1219   4.397   4.497   0.786
  426TIP3   OH2 1220   1.012   6.051   6.311
  426TIP3    H1 1221   1.067   6.018   6.381
  426TIP3    H2 1222   1.000   5.977   6.252
  427TIP3   OH2 1223   3.942   6.262   0.612
  427TIP3    H1 1224   4.036   6.282   0.616
  427TIP3    H2 1225   3.930   6.224   0.525
  428TIP3   OH2 1226   3.626   1.702   2.390
  428TIP3    H1 1227   3.606   1.794   2.374
  428TIP3    H2 1228   3.586   1.684   2.475
  429TIP3   OH2 1229   7.790   0.839   2.865
  429TIP3    H1 1230   7.856   0.773   2.842
  429TIP3    H2 1231   7.785   0.836   2.961
  430TIP3   OH2 1232   3.748   3.662   3.097
  430TIP3    H1 1233   3.735   3.583   3.150
  430TIP3    H2 1234   3.827   3.643   3.046
  431TIP3   OH2 1235   4.460   6.279   0.398
  431TIP3    H1 1236   4.434   6.298   0.308
  431TIP3    H2 1237   4.516   6.353   0.423
  432TIP3   OH2 1238   6.953   4.771   3.104
  432TIP3    H1 1239   6.983   4.682   3.123
  432TIP3    H2 1240   7.031   4.816   3.071
  433TIP3   OH2 1241   2.199   4.765   3.195
  433TIP3    H1 1242   2.126   4.704   3.193
  433TIP3    H2 1243   2.275   4.712   3.217
  434TIP3   OH2 1244   5.717   7.108   3.239
  434TIP3    H1 1245   5.647   7.042   3.236
  434TIP3    H2 1246   5.714   7.151   3.154
  435TIP3   OH2 1247   6.702   6.114   3.980
  435TIP3    H1 1248   6.607   6.100   3.977
  435TIP3    H2 1249   6.737   6.034   4.019
  436TIP3   OH2 1250   7.566   7.725   3.926
  436TIP3    H1 1251   7.657   7.723   3.898
  436TIP3    H2 1252   7.568   7.701   4.019
  437TIP3   OH2 1253   3.181   6.120   4.812
  437TIP3    H1 1254   3.219   6.191   4.760
  437TIP3    H2 1255   3.202   6.144   4.903
  438TIP3   OH2 1256   8.034   4.477   5.025
  438TIP3    H1 1257   7.971   4.548   5.038
  438TIP3    H2 1258   8.049   4.440   5.112
  439TIP3   OH2 1259   0.330   7.436   6.433
  439TIP3    H1 1260   0.406   7.397   6.390
  439TIP3    H2 1261   0.288   7.489   6.365
  440TIP3   OH2 1262   4.314   2.537   1.368
  440TIP3    H1 1263   4.328   2.528   1.463
  440TIP3    H2 1264   4.235   2.589   1.361
  441TIP3   OH2 1265   6.586   1.118   1.655
  441TIP3    H1 1266   6.567   1.165   1.573
  441TIP3    H2 1267   6.619   1.033   1.627
  442TIP3   OH2 1268   2.120   4.779   1.300
  442TIP3    H1 1269   2.030   4.804   1.322
  442TIP3    H2 1270   2.173   4.855   1.325
  443TIP3   OH2 1271   4.457   7.779   1.964
  443TIP3    H1 1272   4.390   7.792   2.031
  443TIP3    H2 1273   4.528   7.837   1.989
  444TIP3   OH2 1274   8.025   1.469   5.828
  444TIP3    H1 1275   8.077   1.545   5.853
  444TIP3    H2 1276   8.025   1.470   5.732
  445TIP3   OH2 1277   0.227   4.335   2.019
  445TIP3    H1 1278   0.291   4.388   1.971
  445TIP3    H2 1279   0.256   4.339   2.110
  446TIP3   OH2 1280   2.947   3.450   3.612
  446TIP3    H1 1281   3.018   3.402   3.569
  446TIP3    H2 1282   2.990   3.503   3.679
  447TIP3   OH2 1283   0.123   5.096   5.556
  447TIP3    H1 1284   0.047   5.131   5.509
  447TIP3    H2 1285   0.141   5.013   5.512
  448TIP3   OH2 1286   1.314   2.048   4.204
  448TIP3    H1 1287   1.328   2.090   4.289
  448TIP3    H2 1288   1.280   1.961   4.225
  449TIP3   OH2 1289   0.438   4.568   6.015
  449TIP3    H1 1290   0.398   4.603   6.095
  449TIP3    H2 1291   0.437   4.473   6.028
  450TIP3   OH2 1292   0.592   5.889   3.974
  450TIP3    H1 1293   0.630   5.805   4.002
  450TIP3    H2 1294   0.651   5.920   3.906
  451TIP3   OH2 1295   7.261   4.697   0.887
  451TIP3    H1 1296   7.192   4.639   0.854
  451TIP3    H2 1297   7.276   4.760   0.816
  452TIP3   OH2 1298   3.555   4.203   2.009
  452TIP3    H1 1299   3.511   4.194   2.094
  452TIP3    H2 1300   3.595   4.290   2.012
  453TIP3   OH2 1301   2.603   3.059   1.224
  453TIP3    H1 1302   2.524   3.067   1.171
  453TIP3    H2 1303   2.582   2.993   1.290
  454TIP3   OH2 1304   6.719   5.766   6.526
  454TIP3    H1 1305   6.768   5.716   6.461
  454TIP3    H2 1306   6.648   5.806   6.477
  455TIP3   OH2 1307   0.125   1.260   2.689
  455TIP3    H1 1308   0.145   1.216   2.772
  455TIP3    H2 1309   0.167   1.205   2.622
  456TIP3   OH2 1310   5.454   3.562   5.210
  456TIP3    H1 1311   5.382   3.551   5.272
  456TIP3    H2 1312   5.458   3.478   5.164
  457TIP3   OH2 1313   6.269   5.671   5.235
  457TIP3    H1 1314   6.357   5.650   5.203
  457TIP3    H2 1315   6.270   5.647   5.327
  458TIP3   OH2 1316   6.069   0.339   5.042
  458TIP3    H1 1317   6.135   0.396   5.002
  458TIP3    H2 1318   6.098   0.250   5.023
  459TIP3   OH2 1319   1.958   2.577   3.265
  459TIP3    H1 1320   1.875   2.610   3.298
  459TIP3    H2 1321   1.969   2.621   3.180
  460TIP3   OH2 1322   0.556   5.768   4.912
  460TIP3    H1 1323   0.643   5.733   4.931
  460TIP3    H2 1324   0.553   5.851   4.960
  461TIP3   OH2 1325   7.334   4.303   1.233
  461TIP3    H1 1326   7.364   4.384   1.274
  461TIP3    H2 1327   7.239   4.304   1.244
  462TIP3   OH2 1328   2.102   4.580   2.630
  462TIP3    H1 1329   2.131   4.667   2.655
  462TIP3    H2 1330   2.143   4.565   2.544
  463TIP3   OH2 1331   4.538   0.111   6.294
  463TIP3    H1 1332   4.492   0.032   6.266
  463TIP3    H2 1333   4.600   0.129   6.224
  464TIP3   OH2 1334   2.346   1.921   0.188
  464TIP3    H1 1335   2.337   1.884   0.276
  464TIP3    H2 1336   2.381   1.849   0.135
  465TIP3   OH2 1337   2.443   3.094   0.039
  465TIP3    H1 1338   2.380   3.024   0.055
  465TIP3    H2 1339   2.430   3.119  -0.052
  466TIP3   OH2 1340   5.059   3.302   4.463
  466TIP3    H1 1341   5.074   3.228   4.522
  466TIP3    H2 1342   5.146   3.339   4.449
  467TIP3   OH2 1343   1.589   5.428   4.869
  467TIP3    H1 1344   1.588   5.430   4.773
  467TIP3    H2 1345   1.620   5.515   4.895
  468TIP3   OH2 1346   3.775   6.153   4.594
  468TIP3    H1 1347   3.770   6.191   4.506
  468TIP3    H2 1348   3.868   6.151   4.614
  469TIP3   OH2 1349   1.531   6.540   5.950
  469TIP3    H1 1350   1.461   6.514   6.009
  469TIP3    H2 1351   1.520   6.634   5.939
  470TIP3   OH2 1352   3.206   2.881   5.155
  470TIP3    H1 1353   3.153   2.835   5.220
  470TIP3    H2 1354   3.222   2.967   5.194
  471TIP3   OH2 1355   6.682   2.642   6.028
  471TIP3    H1 1356   6.663   2.635   5.935
  471TIP3    H2 1357   6.759   2.698   6.033
  472TIP3   OH2 1358   4.423   5.053   1.705
  472TIP3    H1 1359   4.386   5.070   1.618
  472TIP3    H2 1360   4.461   5.136   1.732
  473TIP3   OH2 1361   1.561   1.155   5.247
  473TIP3    H1 1362   1.583   1.177   5.338
  473TIP3    H2 1363   1.641   1.115   5.212
  474TIP3   OH2 1364   2.610   4.430   0.102
  474TIP3    H1 1365   2.616   4.335   0.090
  474TIP3    H2 1366   2.691   4.464   0.063
  475TIP3   OH2 1367   5.113   7.574   2.323
  475TIP3    H1 1368   5.021   7.549   2.317
  475TIP3    H2 1369   5.116   7.641   2.391
  476TIP3   OH2 1370   3.167   2.403   1.535
  476TIP3    H1 1371   3.135   2.398   1.625
  476TIP3    H2 1372   3.110   2.467   1.493
  477TIP3   OH2 1373   4.219   6.180   4.295
  477TIP3    H1 1374   4.240   6.120   4.366
  477TIP3    H2 1375   4.245   6.266   4.328
  478TIP3   OH2 1376   0.994   1.320   2.665
  478TIP3    H1 1377   0.935   1.274   2.724
  478TIP3    H2 1378   1.073   1.334   2.716
  479TIP3   OH2 1379   5.100   3.849   6.216
  479TIP3    H1 1380   5.072   3.768   6.258
  479TIP3    H2 1381   5.196   3.842   6.211
  480TIP3   OH2 1382   2.083   7.078   2.403
  480TIP3    H1 1383   2.045   7.067   2.490
  480TIP3    H2 1384   2.173   7.106   2.421
  481TIP3   OH2 1385   6.127   5.203   4.881
  481TIP3    H1 1386   6.044   5.173   4.845
  481TIP3    H2 1387   6.107   5.223   4.973
  482TIP3   OH2 1388   4.286   3.899   0.119
  482TIP3    H1 1389   4.208   3.942   0.154
  482TIP3    H2 1390   4.357   3.925   0.178
  483TIP3   OH2 1391   3.226   7.801   0.241
  483TIP3    H1 1392   3.246   7.852   0.163
  483TIP3    H2 1393   3.133   7.817   0.256
  484TIP3   OH2 1394   0.197   4.612   0.378
  484TIP3    H1 1395   0.155   4.697   0.392
  484TIP3    H2 1396   0.217   4.610   0.284
  485TIP3   OH2 1397   6.768   2.478   5.245
  485TIP3    H1 1398   6.806   2.564   5.229
  485TIP3    H2 1399   6.694   2.494   5.303
  486TIP3   OH2 1400   7.078   0.880   5.800
  486TIP3    H1 1401   7.165   0.919   5.811
  486TIP3    H2 1402   7.053   0.853   5.889
  487TIP3   OH2 1403   2.671   5.461   4.032
  487TIP3    H1 1404   2.627   5.530   3.983
  487TIP3    H2 1405   2.602   5.398   4.053
  488TIP3   OH2 1406   3.604   6.242   6.622
  488TIP3    H1 1407   3.519   6.214   6.588
  488TIP3    H2 1408   3.584   6.284   6.705
  489TIP3   OH2 1409   5.160   0.574   3.330
  489TIP3    H1 1410   5.187   0.572   3.422
  489TIP3    H2 1411   5.120   0.488   3.315
  490TIP3   OH2 1412   3.443   5.036   5.255
  490TIP3    H1 1413   3.372   4.995   5.305
  490TIP3    H2 1414   3.486   5.093   5.319
  491TIP3   OH2 1415   7.705   4.442   1.902
  491TIP3    H1 1416   7.693   4.467   1.811
  491TIP3    H2 1417   7.642   4.371   1.917
  492TIP3   OH2 1418   7.143   6.335   0.726
  492TIP3    H1 1419   7.103   6.364   0.808
  492TIP3    H2 1420   7.128   6.408   0.666
  493TIP3   OH2 1421   1.337   6.635   0.333
  493TIP3    H1 1422   1.344   6.712   0.277
  493TIP3    H2 1423   1.427   6.601   0.339
  494TIP3   OH2 1424   6.011   6.417   4.490
  494TIP3    H1 1425   5.980   6.506   4.475
  494TIP3    H2 1426   5.949   6.379   4.551
  495TIP3   OH2 1427   7.289   3.150   6.036
  495TIP3    H1 1428   7.294   3.134   5.942
  495TIP3    H2 1429   7.288   3.245   6.045
  496TIP3   OH2 1430   2.771   2.117   3.157
  496TIP3    H1 1431   2.703   2.140   3.221
  496TIP3    H2 1432   2.744   2.161   3.077
  497TIP3   OH2 1433   6.515   1.495   5.554
  497TIP3    H1 1434   6.454   1.467   5.486
  497TIP3    H2 1435   6.483   1.452   5.633
  498TIP3   OH2 1436   3.424   2.081   3.420
  498TIP3    H1 1437   3.400   2.017   3.487
  498TIP3    H2 1438   3.388   2.046   3.338
  499TIP3   OH2 1439   1.390   3.473   1.035
  499TIP3    H1 1440   1.356   3.495   1.123
  499TIP3    H2 1441   1.332   3.520   0.975
  500TIP3   OH2 1442   7.724   6.689   0.978
  500TIP3    H1 1443   7.794   6.698   0.913
  500TIP3    H2 1444   7.652   6.742   0.943
  501TIP3   OH2 1445   3.006   7.181   0.487
  501TIP3    H1 1446   2.943   7.250   0.507
  501TIP3    H2 1447   2.955   7.100   0.489
  502TIP3   OH2 1448   1.463   0.289   0.526
  502TIP3    H1 1449   1.556   0.272   0.514
  502TIP3    H2 1450   1.444   0.257   0.614
  503TIP3   OH2 1451   2.268   5.008   1.315
  503TIP3    H1 1452   2.288   4.992   1.223
  503TIP3    H2 1453   2.183   5.051   1.313
  504TIP3   OH2 1454   0.164  -0.061   0.039
  504TIP3    H1 1455   0.222   0.014   0.050
  504TIP3    H2 1456   0.151  -0.069  -0.055
  505TIP3   OH2 1457   5.419   7.765   6.668
  505TIP3    H1 1458   5.455   7.790   6.583
  505TIP3    H2 1459   5.431   7.842   6.723
  506TIP3   OH2 1460   8.178   4.481   2.561
  506TIP3    H1 1461   8.163   4.520   2.647
  506TIP3    H2 1462   8.196   4.389   2.579
  507TIP3   OH2 1463   2.965   7.204   2.509
  507TIP3    H1 1464   3.017   7.284   2.510
  507TIP3    H2 1465   3.017   7.141   2.559
  508TIP3   OH2 1466   0.517   1.865   5.521
  508TIP3    H1 1467   0.534   1.905   5.606
  508TIP3    H2 1468   0.567   1.784   5.523
  509TIP3   OH2 1469   4.353   3.254   5.750
  509TIP3    H1 1470   4.264   3.287   5.761
  509TIP3    H2 1471   4.404   3.332   5.727
  510TIP3   OH2 1472   1.237   2.088   5.505
  510TIP3    H1 1473   1.241   2.177   5.470
  510TIP3    H2 1474   1.152   2.084   5.550
  511TIP3   OH2 1475   6.392   7.507   3.448
  511TIP3    H1 1476   6.421   7.443   3.514
  511TIP3    H2 1477   6.435   7.479   3.368
  512TIP3   OH2 1478   3.076   2.966   0.345
  512TIP3    H1 1479   3.118   3.036   0.394
  512TIP3    H2 1480   3.096   2.887   0.394
  513TIP3   OH2 1481   8.224   5.676   6.121
  513TIP3    H1 1482   8.207   5.738   6.192
  513TIP3    H2 1483   8.268   5.602   6.163
  514TIP3   OH2 1484   1.068   2.368   4.989
  514TIP3    H1 1485   1.137   2.358   5.055
  514TIP3    H2 1486   1.093   2.307   4.920
  515TIP3   OH2 1487   6.534   1.267   2.025
  515TIP3    H1 1488   6.468   1.198   2.009
  515TIP3    H2 1489   6.599   1.225   2.080
  516TIP3   OH2 1490   7.337   0.898   3.601
  516TIP3    H1 1491   7.342   0.975   3.544
  516TIP3    H2 1492   7.289   0.834   3.549
  517TIP3   OH2 1493   4.549   3.906   0.202
  517TIP3    H1 1494   4.616   3.879   0.265
  517TIP3    H2 1495   4.564   3.849   0.126
  518TIP3   OH2 1496   3.915   2.142   3.924
  518TIP3    H1 1497   3.979   2.211   3.905
  518TIP3    H2 1498   3.911   2.140   4.020
  519TIP3   OH2 1499   4.826   2.416   1.388
  519TIP3    H1 1500   4.735   2.385   1.384
  519TIP3    H2 1501   4.828   2.490   1.326
  520TIP3   OH2 1502   2.273   2.800   1.170
  520TIP3    H1 1503   2.180   2.820   1.159
  520TIP3    H2 1504   2.316   2.885   1.178
  521TIP3   OH2 1505   0.918   6.128   6.746
  521TIP3    H1 1506   0.964   6.061   6.796
  521TIP3    H2 1507   0.865   6.174   6.811
  522TIP3   OH2 1508   7.400   5.188   4.056
  522TIP3    H1 1509   7.333   5.166   3.990
  522TIP3    H2 1510   7.460   5.114   4.053
  523TIP3   OH2 1511   2.134   6.831   1.466
  523TIP3    H1 1512   2.158   6.768   1.534
  523TIP3    H2 1513   2.043   6.854   1.486
  524TIP3   OH2 1514   7.102   7.820   5.380
  524TIP3    H1 1515   7.034   7.811   5.447
  524TIP3    H2 1516   7.166   7.753   5.402
  525TIP3   OH2 1517   0.945   7.450   4.718
  525TIP3    H1 1518   0.870   7.414   4.669
  525TIP3    H2 1519   0.918   7.538   4.742
  526TIP3   OH2 1520   3.747   6.825   4.978
  526TIP3    H1 1521   3.751   6.916   4.948
  526TIP3    H2 1522   3.796   6.824   5.061
  527TIP3   OH2 1523   4.709   4.026   1.964
  527TIP3    H1 1524   4.741   4.090   2.028
  527TIP3    H2 1525   4.630   3.991   2.004
  528TIP3   OH2 1526   5.033   2.602   2.557
  528TIP3    H1 1527   4.949   2.603   2.603
  528TIP3    H2 1528   5.095   2.640   2.621
  529TIP3   OH2 1529   1.868   5.842   5.031
  529TIP3    H1 1530   1.910   5.901   5.094
  529TIP3    H2 1531   1.869   5.891   4.949
  530TIP3   OH2 1532   3.537   2.043   3.982
  530TIP3    H1 1533   3.584   2.045   3.899
  530TIP3    H2 1534   3.482   1.965   3.977
  531TIP3   OH2 1535   4.225   2.602   0.703
  531TIP3    H1 1536   4.144   2.648   0.679
  531TIP3    H2 1537   4.236   2.620   0.797
  532TIP3   OH2 1538   2.858   1.038   6.194
  532TIP3    H1 1539   2.931   1.061   6.137
  532TIP3    H2 1540   2.898   1.006   6.274
  533TIP3   OH2 1541   7.093   6.853   3.702
  533TIP3    H1 1542   7.050   6.798   3.637
  533TIP3    H2 1543   7.126   6.792   3.768
  534TIP3   OH2 1544   7.075   2.681   4.614
  534TIP3    H1 1545   7.105   2.770   4.630
  534TIP3    H2 1546   7.101   2.663   4.523
  535TIP3   OH2 1547   6.942  -0.017   0.847
  535TIP3    H1 1548   6.947   0.077   0.833
  535TIP3    H2 1549   6.934  -0.028   0.941
  536TIP3   OH2 1550   2.788   0.213   5.410
  536TIP3    H1 1551   2.795   0.118   5.415
  536TIP3    H2 1552   2.869   0.241   5.368
  537TIP3   OH2 1553   3.599   4.934   1.049
  537TIP3    H1 1554   3.508   4.906   1.063
  537TIP3    H2 1555   3.648   4.852   1.045
  538TIP3   OH2 1556   3.527   0.374   4.820
  538TIP3    H1 1557   3.568   0.384   4.735
  538TIP3    H2 1558   3.549   0.455   4.867
  539TIP3   OH2 1559   1.741   7.316   2.447
  539TIP3    H1 1560   1.787   7.310   2.531
  539TIP3    H2 1561   1.719   7.226   2.424
  540TIP3   OH2 1562   2.842   3.078   5.274
  540TIP3    H1 1563   2.860   3.047   5.186
  540TIP3    H2 1564   2.890   3.161   5.280
  541TIP3   OH2 1565   5.967   0.160   0.701
  541TIP3    H1 1566   5.924   0.244   0.720
  541TIP3    H2 1567   5.989   0.165   0.608
  542TIP3   OH2 1568   5.499   4.848   6.103
  542TIP3    H1 1569   5.420   4.899   6.121
  542TIP3    H2 1570   5.537   4.831   6.190
  543TIP3   OH2 1571   5.193   3.534   2.356
  543TIP3    H1 1572   5.146   3.457   2.326
  543TIP3    H2 1573   5.221   3.512   2.445
  544TIP3   OH2 1574   6.941   3.990   6.183
  544TIP3    H1 1575   6.990   4.010   6.102
  544TIP3    H2 1576   6.853   3.967   6.152
  545TIP3   OH2 1577   3.737   4.404   2.041
  545TIP3    H1 1578   3.777   4.466   1.980
  545TIP3    H2 1579   3.726   4.455   2.122
  546TIP3   OH2 1580   2.599   1.319   3.327
  546TIP3    H1 1581   2.623   1.278   3.244
  546TIP3    H2 1582   2.681   1.354   3.361
  547TIP3   OH2 1583   7.351   7.082   1.501
  547TIP3    H1 1584   7.406   7.031   1.442
  547TIP3    H2 1585   7.295   7.017   1.544
  548TIP3   OH2 1586   7.418   1.507   0.872
  548TIP3    H1 1587   7.487   1.560   0.833
  548TIP3    H2 1588   7.371   1.568   0.929
  549TIP3   OH2 1589   0.615   4.818   3.811
  549TIP3    H1 1590   0.620   4.856   3.898
  549TIP3    H2 1591   0.592   4.891   3.754
  550TIP3   OH2 1592   1.275   1.692   6.622
  550TIP3    H1 1593   1.272   1.738   6.706
  550TIP3    H2 1594   1.205   1.732   6.570
  551TIP3   OH2 1595   8.252   3.976   2.838
  551TIP3    H1 1596   8.277   3.950   2.927
  551TIP3    H2 1597   8.288   3.908   2.782
  552TIP3   OH2 1598   3.312   6.656   4.848
  552TIP3    H1 1599   3.350   6.699   4.924
  552TIP3    H2 1600   3.294   6.566   4.877
  553TIP3   OH2 1601   5.811   5.571   1.829
  553TIP3    H1 1602   5.752   5.590   1.755
  553TIP3    H2 1603   5.859   5.493   1.802
  554TIP3   OH2 1604   5.972   7.410   5.346
  554TIP3    H1 1605   5.963   7.437   5.437
  554TIP3    H2 1606   6.038   7.340   5.348
  555TIP3   OH2 1607   5.194   7.414   3.041
  555TIP3    H1 1608   5.128   7.370   3.095
  555TIP3    H2 1609   5.148   7.487   3.001
  556TIP3   OH2 1610   5.036   3.021   0.488
  556TIP3    H1 1611   4.950   2.980   0.481
  556TIP3    H2 1612   5.097   2.948   0.497
  557TIP3   OH2 1613   2.967   1.952   0.453
  557TIP3    H1 1614   3.032   2.016   0.424
  557TIP3    H2 1615   3.004   1.868   0.427
  558TIP3   OH2 1616   4.928   1.046   2.932
  558TIP3    H1 1617   5.010   1.018   2.893
  558TIP3    H2 1618   4.951   1.119   2.989
  559TIP3   OH2 1619   6.361   1.740   4.824
  559TIP3    H1 1620   6.388   1.797   4.752
  559TIP3    H2 1621   6.407   1.776   4.900
  560TIP3   OH2 1622   2.159   7.674   4.277
  560TIP3    H1 1623   2.216   7.622   4.220
  560TIP3    H2 1624   2.086   7.615   4.298
  561TIP3   OH2 1625   1.796   1.680   2.682
  561TIP3    H1 1626   1.828   1.747   2.742
  561TIP3    H2 1627   1.872   1.657   2.629
  562TIP3   OH2 1628   5.015   6.853   2.112
  562TIP3    H1 1629   5.007   6.837   2.018
  562TIP3    H2 1630   4.996   6.768   2.153
  563TIP3   OH2 1631   5.099   2.109   5.270
  563TIP3    H1 1632   5.083   2.197   5.236
  563TIP3    H2 1633   5.121   2.056   5.193
  564TIP3   OH2 1634   6.959   4.972   4.700
  564TIP3    H1 1635   7.001   4.899   4.654
  564TIP3    H2 1636   6.972   4.953   4.793
  565TIP3   OH2 1637   6.081   5.354   1.983
  565TIP3    H1 1638   6.009   5.342   1.921
  565TIP3    H2 1639   6.151   5.394   1.932
  566TIP3   OH2 1640   2.997   1.482   6.433
  566TIP3    H1 1641   3.031   1.450   6.350
  566TIP3    H2 1642   3.052   1.440   6.499
  567TIP3   OH2 1643   7.809   1.708   5.843
  567TIP3    H1 1644   7.857   1.642   5.894
  567TIP3    H2 1645   7.817   1.788   5.896
  568TIP3   OH2 1646   2.895   6.087   0.774
  568TIP3    H1 1647   2.956   6.072   0.702
  568TIP3    H2 1648   2.860   6.001   0.794
  569TIP3   OH2 1649   4.647   0.255   4.079
  569TIP3    H1 1650   4.580   0.217   4.136
  569TIP3    H2 1651   4.602   0.324   4.030
  570TIP3   OH2 1652   5.482   6.046   4.659
  570TIP3    H1 1653   5.563   5.995   4.664
  570TIP3    H2 1654   5.425   5.993   4.603
  571TIP3   OH2 1655   0.599   2.868   0.609
  571TIP3    H1 1656   0.516   2.828   0.637
  571TIP3    H2 1657   0.590   2.960   0.634
  572TIP3   OH2 1658   6.519   2.009   3.213
  572TIP3    H1 1659   6.536   2.055   3.294
  572TIP3    H2 1660   6.587   2.039   3.153
  573TIP3   OH2 1661   1.098   7.840   5.835
  573TIP3    H1 1662   1.180   7.814   5.794
  573TIP3    H2 1663   1.030   7.807   5.776
  574TIP3   OH2 1664   0.257   3.808   5.365
  574TIP3    H1 1665   0.256   3.892   5.410
  574TIP3    H2 1666   0.164   3.785   5.355
  575TIP3   OH2 1667   5.448   1.509   5.903
  575TIP3    H1 1668   5.449   1.450   5.828
  575TIP3    H2 1669   5.370   1.483   5.953
  576TIP3   OH2 1670   7.101   0.354   1.772
  576TIP3    H1 1671   7.136   0.310   1.850
  576TIP3    H2 1672   7.172   0.350   1.708
  577TIP3   OH2 1673   2.158   0.118   2.144
  577TIP3    H1 1674   2.103   0.175   2.199
  577TIP3    H2 1675   2.231   0.094   2.201
  578TIP3   OH2 1676   6.950   4.043   3.720
  578TIP3    H1 1677   6.877   4.077   3.772
  578TIP3    H2 1678   7.008   4.117   3.708
  579TIP3   OH2 1679   0.175   7.642   1.653
  579TIP3    H1 1680   0.184   7.588   1.574
  579TIP3    H2 1681   0.264   7.670   1.674
  580TIP3   OH2 1682   5.121   4.249   0.369
  580TIP3    H1 1683   5.189   4.271   0.433
  580TIP3    H2 1684   5.119   4.323   0.309
  581TIP3   OH2 1685   3.581   1.701   5.130
  581TIP3    H1 1686   3.644   1.718   5.199
  581TIP3    H2 1687   3.536   1.784   5.117
  582TIP3   OH2 1688   1.274   3.158   3.459
  582TIP3    H1 1689   1.328   3.086   3.427
  582TIP3    H2 1690   1.195   3.156   3.404
  583TIP3   OH2 1691   5.167   2.887   4.086
  583TIP3    H1 1692   5.097   2.925   4.033
  583TIP3    H2 1693   5.187   2.953   4.152
  584TIP3   OH2 1694   3.038   3.847   3.811
  584TIP3    H1 1695   3.121   3.799   3.819
  584TIP3    H2 1696   3.044   3.918   3.874
  585TIP3   OH2 1697   1.453   4.630   2.060
  585TIP3    H1 1698   1.378   4.632   2.000
  585TIP3    H2 1699   1.506   4.556   2.030
  586TIP3   OH2 1700   5.410   3.014   0.572
  586TIP3    H1 1701   5.331   2.960   0.562
  586TIP3    H2 1702   5.418   3.059   0.488
  587TIP3   OH2 1703   1.911   1.034   4.409
  587TIP3    H1 1704   1.966   1.033   4.488
  587TIP3    H2 1705   1.973   1.038   4.337
  588TIP3   OH2 1706   0.685   3.828   6.303
  588TIP3    H1 1707   0.714   3.756   6.247
  588TIP3    H2 1708   0.590   3.827   6.297
  589TIP3   OH2 1709   1.125   0.333   3.192
  589TIP3    H1 1710   1.147   0.348   3.284
  589TIP3    H2 1711   1.083   0.414   3.164
  590TIP3   OH2 1712   5.034   1.073   6.517
  590TIP3    H1 1713   5.080   0.990   6.512
  590TIP3    H2 1714   5.006   1.091   6.427
  591TIP3   OH2 1715   1.659   4.540   3.064
  591TIP3    H1 1716   1.626   4.613   3.116
  591TIP3    H2 1717   1.649   4.464   3.121
  592TIP3   OH2 1718   6.998   2.607   3.707
  592TIP3    H1 1719   6.909   2.640   3.709
  592TIP3    H2 1720   6.998   2.544   3.634
  593TIP3   OH2 1721   2.303   6.638   3.322
  593TIP3    H1 1722   2.260   6.581   3.258
  593TIP3    H2 1723   2.390   6.600   3.334
  594TIP3   OH2 1724   2.577   3.870   6.278
  594TIP3    H1 1725   2.484   3.875   6.299
  594TIP3    H2 1726   2.579   3.838   6.188
  595TIP3   OH2 1727   8.075   0.564  -0.015
  595TIP3    H1 1728   8.026   0.488  -0.046
  595TIP3    H2 1729   8.043   0.579   0.074
  596TIP3   OH2 1730   6.041   1.153   6.615
  596TIP3    H1 1731   6.134   1.140   6.633
  596TIP3    H2 1732   6.005   1.064   6.609
  597TIP3   OH2 1733   7.494  -0.009   3.187
  597TIP3    H1 1734   7.510  -0.090   3.138
  597TIP3    H2 1735   7.479   0.057   3.120
  598TIP3   OH2 1736   7.635   7.441   5.868
  598TIP3    H1 1737   7.656   7.532   5.846
  598TIP3    H2 1738   7.544   7.429   5.840
  599TIP3   OH2 1739   7.549   4.282   0.073
  599TIP3    H1 1740   7.460   4.307   0.095
  599TIP3    H2 1741   7.576   4.224   0.144
  600TIP3   OH2 1742   4.888   5.658   0.990
  600TIP3    H1 1743   4.959   5.679   1.051
  600TIP3    H2 1744   4.917   5.579   0.945
  601TIP3   OH2 1745   2.951   2.711   2.752
  601TIP3    H1 1746   2.955   2.807   2.757
  601TIP3    H2 1747   2.974   2.681   2.840
  602TIP3   OH2 1748   4.526   2.123   6.547
  602TIP3    H1 1749   4.606   2.158   6.584
  602TIP3    H2 1750   4.545   2.030   6.533
  603TIP3   OH2 1751   7.811   7.241   4.724
  603TIP3    H1 1752   7.888   7.188   4.706
  603TIP3    H2 1753   7.830   7.285   4.807
  604TIP3   OH2 1754   6.429   6.499   2.974
  604TIP3    H1 1755   6.350   6.519   2.923
  604TIP3    H2 1756   6.489   6.571   2.954
  605TIP3   OH2 1757   1.537   6.180   1.772
  605TIP3    H1 1758   1.444   6.160   1.771
  605TIP3    H2 1759   1.545   6.251   1.836
  606TIP3   OH2 1760   2.548   4.144   4.016
  606TIP3    H1 1761   2.457   4.164   4.039
  606TIP3    H2 1762   2.545   4.129   3.921
  607TIP3   OH2 1763   7.842   7.668   3.865
  607TIP3    H1 1764   7.840   7.582   3.908
  607TIP3    H2 1765   7.882   7.725   3.930
  608TIP3   OH2 1766   1.708   0.725   5.450
  608TIP3    H1 1767   1.796   0.750   5.424
  608TIP3    H2 1768   1.713   0.631   5.467
  609TIP3   OH2 1769   6.165   4.224   4.706
  609TIP3    H1 1770   6.231   4.284   4.671
  609TIP3    H2 1771   6.214   4.157   4.753
  610TIP3   OH2 1772   5.893   1.247   5.627
  610TIP3    H1 1773   5.942   1.172   5.661
  610TIP3    H2 1774   5.959   1.317   5.620
  611TIP3   OH2 1775   2.205   1.184   5.351
  611TIP3    H1 1776   2.181   1.259   5.297
  611TIP3    H2 1777   2.274   1.140   5.302
  612TIP3   OH2 1778   2.062   6.831   4.598
  612TIP3    H1 1779   2.119   6.774   4.649
  612TIP3    H2 1780   1.974   6.812   4.630
  613TIP3   OH2 1781   0.671   3.907   4.828
  613TIP3    H1 1782   0.631   3.979   4.877
  613TIP3    H2 1783   0.614   3.832   4.845
  614TIP3   OH2 1784   1.905   7.543   2.169
  614TIP3    H1 1785   1.917   7.452   2.197
  614TIP3    H2 1786   1.811   7.557   2.174
  615TIP3   OH2 1787   2.242   0.368   6.167
  615TIP3    H1 1788   2.171   0.333   6.220
  615TIP3    H2 1789   2.272   0.445   6.216
  616TIP3   OH2 1790   5.970   2.570   2.149
  616TIP3    H1 1791   6.045   2.588   2.092
  616TIP3    H2 1792   5.904   2.635   2.124
  617TIP3   OH2 1793   1.110   0.112   4.081
  617TIP3    H1 1794   1.144   0.186   4.032
  617TIP3    H2 1795   1.015   0.123   4.078
  618TIP3   OH2 1796   6.555   5.202   5.988
  618TIP3    H1 1797   6.473   5.163   5.960
  618TIP3    H2 1798   6.563   5.177   6.080
  619TIP3   OH2 1799   3.573   6.089   5.043
  619TIP3    H1 1800   3.610   6.163   5.091
  619TIP3    H2 1801   3.581   6.113   4.951
  620TIP3   OH2 1802   6.132   7.318   0.545
  620TIP3    H1 1803   6.078   7.327   0.624
  620TIP3    H2 1804   6.094   7.243   0.499
  621TIP3   OH2 1805   4.458   5.456   0.045
  621TIP3    H1 1806   4.461   5.522  -0.024
  621TIP3    H2 1807   4.510   5.383   0.011
  622TIP3   OH2 1808   1.836   4.048   3.990
  622TIP3    H1 1809   1.765   4.070   4.050
  622TIP3    H2 1810   1.850   3.954   4.002
  623TIP3   OH2 1811   1.867   4.909   3.366
  623TIP3    H1 1812   1.911   4.922   3.450
  623TIP3    H2 1813   1.896   4.983   3.312
  624TIP3   OH2 1814   0.733   6.030   0.528
  624TIP3    H1 1815   0.659   5.993   0.576
  624TIP3    H2 1816   0.712   6.123   0.520
  625TIP3   OH2 1817   7.510   2.158   6.658
  625TIP3    H1 1818   7.541   2.208   6.583
  625TIP3    H2 1819   7.530   2.067   6.636
  626TIP3   OH2 1820   6.598   2.888   1.181
  626TIP3    H1 1821   6.638   2.974   1.179
  626TIP3    H2 1822   6.645   2.841   1.250
  627TIP3   OH2 1823   1.245   3.823   6.685
  627TIP3    H1 1824   1.330   3.853   6.718
  627TIP3    H2 1825   1.267   3.766   6.611
  628TIP3   OH2 1826   6.082   0.258   0.442
  628TIP3    H1 1827   6.136   0.220   0.373
  628TIP3    H2 1828   6.093   0.353   0.432
  629TIP3   OH2 1829   2.112   2.664   6.636
  629TIP3    H1 1830   2.192   2.668   6.688
  629TIP3    H2 1831   2.138   2.622   6.554
  630TIP3   OH2 1832   6.012   0.891   6.492
  630TIP3    H1 1833   6.104   0.866   6.489
  630TIP3    H2 1834   5.970   0.834   6.428
  631TIP3   OH2 1835   1.165   7.013   3.944
  631TIP3    H1 1836   1.081   6.968   3.943
  631TIP3    H2 1837   1.155   7.085   3.881
  632TIP3   OH2 1838   7.771   4.588   2.317
  632TIP3    H1 1839   7.818   4.669   2.295
  632TIP3    H2 1840   7.837   4.519   2.310
  633TIP3   OH2 1841   6.914   1.433   1.405
  633TIP3    H1 1842   6.937   1.447   1.313
  633TIP3    H2 1843   6.916   1.521   1.443
  634TIP3   OH2 1844   0.732   3.264   3.763
  634TIP3    H1 1845   0.691   3.268   3.849
  634TIP3    H2 1846   0.662   3.235   3.704
  635TIP3   OH2 1847   3.681   0.691   2.222
  635TIP3    H1 1848   3.601   0.694   2.168
  635TIP3    H2 1849   3.687   0.779   2.260
  636TIP3   OH2 1850   1.685   2.176   5.109
  636TIP3    H1 1851   1.771   2.143   5.083
  636TIP3    H2 1852   1.662   2.125   5.187
  637TIP3   OH2 1853   6.122   0.382   2.626
  637TIP3    H1 1854   6.073   0.457   2.660
  637TIP3    H2 1855   6.104   0.381   2.533
  638TIP3   OH2 1856   0.840   5.678   5.753
  638TIP3    H1 1857   0.851   5.595   5.799
  638TIP3    H2 1858   0.827   5.654   5.661
  639TIP3   OH2 1859   2.765   3.536   5.573
  639TIP3    H1 1860   2.783   3.576   5.487
  639TIP3    H2 1861   2.672   3.513   5.568
  640TIP3   OH2 1862   3.391   0.408   2.721
  640TIP3    H1 1863   3.480   0.400   2.687
  640TIP3    H2 1864   3.339   0.441   2.648
  641TIP3   OH2 1865   1.455   1.382   4.583
  641TIP3    H1 1866   1.522   1.329   4.626
  641TIP3    H2 1867   1.475   1.472   4.610
  642TIP3   OH2 1868   0.679   5.926   4.560
  642TIP3    H1 1869   0.722   5.930   4.646
  642TIP3    H2 1870   0.587   5.910   4.581
  643TIP3   OH2 1871   0.523   4.546   6.451
  643TIP3    H1 1872   0.453   4.574   6.391
  643TIP3    H2 1873   0.477   4.528   6.533
  644TIP3   OH2 1874   0.223   6.402   3.227
  644TIP3    H1 1875   0.178   6.439   3.151
  644TIP3    H2 1876   0.231   6.475   3.288
  645TIP3   OH2 1877   5.375   6.507   2.599
  645TIP3    H1 1878   5.372   6.422   2.642
  645TIP3    H2 1879   5.464   6.513   2.564
  646TIP3   OH2 1880   7.915   7.701   5.930
  646TIP3    H1 1881   7.845   7.762   5.953
  646TIP3    H2 1882   7.966   7.690   6.010
  647TIP3   OH2 1883   5.114   2.539   0.481
  647TIP3    H1 1884   5.166   2.552   0.401
  647TIP3    H2 1885   5.034   2.588   0.467
  648TIP3   OH2 1886   2.923   2.990   0.750
  648TIP3    H1 1887   2.994   2.957   0.695
  648TIP3    H2 1888   2.844   2.949   0.714
  649TIP3   OH2 1889   7.633   3.234   1.306
  649TIP3    H1 1890   7.595   3.255   1.221
  649TIP3    H2 1891   7.717   3.281   1.307
  650TIP3   OH2 1892   4.702   5.289   3.063
  650TIP3    H1 1893   4.692   5.206   3.016
  650TIP3    H2 1894   4.685   5.356   2.997
  651TIP3   OH2 1895   0.900   1.563   3.194
  651TIP3    H1 1896   0.909   1.589   3.286
  651TIP3    H2 1897   0.822   1.610   3.164
  652TIP3   OH2 1898   5.988   0.958   4.472
  652TIP3    H1 1899   6.057   0.915   4.422
  652TIP3    H2 1900   5.913   0.959   4.412
  653TIP3   OH2 1901   7.287   1.274   6.175
  653TIP3    H1 1902   7.230   1.325   6.118
  653TIP3    H2 1903   7.366   1.260   6.124
  654TIP3   OH2 1904   3.325   7.602   4.915
  654TIP3    H1 1905   3.387   7.674   4.899
  654TIP3    H2 1906   3.244   7.646   4.941
  655TIP3   OH2 1907   7.521   5.783   6.189
  655TIP3    H1 1908   7.500   5.725   6.263
  655TIP3    H2 1909   7.616   5.794   6.194
  656TIP3   OH2 1910   5.915   0.513   2.899
  656TIP3    H1 1911   5.916   0.526   2.994
  656TIP3    H2 1912   5.848   0.573   2.867
  657TIP3   OH2 1913   3.980   0.826   2.012
  657TIP3    H1 1914   3.932   0.873   2.080
  657TIP3    H2 1915   3.920   0.758   1.982
  658TIP3   OH2 1916   4.008   6.704   4.886
  658TIP3    H1 1917   3.960   6.780   4.918
  658TIP3    H2 1918   4.094   6.711   4.927
  659TIP3   OH2 1919   0.076   5.074   3.156
  659TIP3    H1 1920   0.035   4.987   3.154
  659TIP3    H2 1921   0.009   5.130   3.195
  660TIP3   OH2 1922   7.973   7.798   6.189
  660TIP3    H1 1923   7.978   7.712   6.230
  660TIP3    H2 1924   8.061   7.814   6.154
  661TIP3   OH2 1925   2.467   1.596   2.156
  661TIP3    H1 1926   2.501   1.681   2.182
  661TIP3    H2 1927   2.373   1.601   2.173
  662TIP3   OH2 1928   5.808   5.270   3.260
  662TIP3    H1 1929   5.807   5.200   3.196
  662TIP3    H2 1930   5.866   5.238   3.330
  663TIP3   OH2 1931   4.156   4.418   6.045
  663TIP3    H1 1932   4.234   4.363   6.046
  663TIP3    H2 1933   4.156   4.459   5.959
  664TIP3   OH2 1934   3.964   2.508   4.130
  664TIP3    H1 1935   3.975   2.465   4.046
  664TIP3    H2 1936   3.878   2.550   4.124
  665TIP3   OH2 1937   4.601   6.117   4.717
  665TIP3    H1 1938   4.687   6.097   4.752
  665TIP3    H2 1939   4.544   6.047   4.749
  666TIP3   OH2 1940   7.512   4.606   4.655
  666TIP3    H1 1941   7.499   4.686   4.605
  666TIP3    H2 1942   7.564   4.633   4.731
  667TIP3   OH2 1943   8.000   2.163   0.653
  667TIP3    H1 1944   7.926   2.141   0.596
  667TIP3    H2 1945   8.013   2.084   0.705
  668TIP3   OH2 1946   3.538   1.386   4.355
  668TIP3    H1 1947   3.468   1.362   4.416
  668TIP3    H2 1948   3.523   1.329   4.279
  669TIP3   OH2 1949   5.244   2.409   5.157
  669TIP3    H1 1950   5.167   2.372   5.114
  669TIP3    H2 1951   5.318   2.369   5.113
  670TIP3   OH2 1952   6.318   3.282   0.675
  670TIP3    H1 1953   6.265   3.351   0.635
  670TIP3    H2 1954   6.258   3.236   0.733
  671TIP3   OH2 1955   1.720   5.309   1.583
  671TIP3    H1 1956   1.639   5.315   1.532
  671TIP3    H2 1957   1.741   5.216   1.583
  672TIP3   OH2 1958   2.743   0.156   1.541
  672TIP3    H1 1959   2.693   0.132   1.463
  672TIP3    H2 1960   2.835   0.145   1.516
  673TIP3   OH2 1961   4.971   7.193   1.210
  673TIP3    H1 1962   5.054   7.226   1.244
  673TIP3    H2 1963   4.976   7.206   1.116
  674TIP3   OH2 1964   2.218   1.797   2.243
  674TIP3    H1 1965   2.279   1.870   2.250
  674TIP3    H2 1966   2.134   1.832   2.272
  675TIP3   OH2 1967   0.244   4.268   4.658
  675TIP3    H1 1968   0.306   4.209   4.615
  675TIP3    H2 1969   0.297   4.343   4.685
  676TIP3   OH2 1970   2.827   4.914   0.606
  676TIP3    H1 1971   2.893   4.959   0.552
  676TIP3    H2 1972   2.743   4.948   0.575
  677TIP3   OH2 1973   3.056   7.635   6.608
  677TIP3    H1 1974   3.067   7.681   6.525
  677TIP3    H2 1975   3.007   7.695   6.663
  678TIP3   OH2 1976   6.725   1.423   2.266
  678TIP3    H1 1977   6.716   1.515   2.293
  678TIP3    H2 1978   6.799   1.423   2.206
  679TIP3   OH2 1979   4.932   1.594   5.406
  679TIP3    H1 1980   4.872   1.655   5.449
  679TIP3    H2 1981   5.014   1.643   5.398
  680TIP3   OH2 1982   0.385   4.459   5.738
  680TIP3    H1 1983   0.371   4.488   5.648
  680TIP3    H2 1984   0.333   4.519   5.791
  681TIP3   OH2 1985   6.942   0.170   2.352
  681TIP3    H1 1986   6.966   0.212   2.269
  681TIP3    H2 1987   6.861   0.124   2.333
  682TIP3   OH2 1988   3.303   5.775   5.406
  682TIP3    H1 1989   3.322   5.714   5.335
  682TIP3    H2 1990   3.277   5.719   5.479
  683TIP3   OH2 1991   4.938   1.621   0.676
  683TIP3    H1 1992   4.921   1.656   0.764
  683TIP3    H2 1993   5.032   1.605   0.674
  684TIP3   OH2 1994   7.973   7.605   0.307
  684TIP3    H1 1995   8.062   7.639   0.314
  684TIP3    H2 1996   7.941   7.641   0.224
  685TIP3   OH2 1997   0.844   5.040   2.628
  685TIP3    H1 1998   0.833   5.055   2.722
  685TIP3    H2 1999   0.848   4.944   2.620
  686TIP3   OH2 2000   5.797   1.102   0.621
  686TIP3    H1 2001   5.872   1.156   0.645
  686TIP3    H2 2002   5.744   1.097   0.700
  687TIP3   OH2 2003   0.801   3.670   0.653
  687TIP3    H1 2004   0.865   3.627   0.596
  687TIP3    H2 2005   0.855   3.711   0.721
  688TIP3   OH2 2006   2.255   1.854   2.598
  688TIP3    H1 2007   2.329   1.808   2.559
  688TIP3    H2 2008   2.230   1.920   2.533
  689TIP3   OH2 2009   2.446   7.748   6.643
  689TIP3    H1 2010   2.501   7.672   6.621
  689TIP3    H2 2011   2.377   7.712   6.699
  690TIP3   OH2 2012   1.324   1.522   5.903
  690TIP3    H1 2013   1.305   1.431   5.927
  690TIP3    H2 2014   1.419   1.526   5.898
  691TIP3   OH2 2015   5.737   7.199   2.193
  691TIP3    H1 2016   5.832   7.199   2.203
  691TIP3    H2 2017   5.704   7.152   2.270
  692TIP3   OH2 2018   7.402   4.727   1.926
  692TIP3    H1 2019   7.489   4.723   1.966
  692TIP3    H2 2020   7.414   4.693   1.838
  693TIP3   OH2 2021   3.556   3.634   3.815
  693TIP3    H1 2022   3.574   3.696   3.885
  693TIP3    H2 2023   3.605   3.555   3.839
  694TIP3   OH2 2024   7.721   6.790   5.835
  694TIP3    H1 2025   7.680   6.746   5.761
  694TIP3    H2 2026   7.815   6.774   5.824
  695TIP3   OH2 2027   1.125   3.293   0.250
  695TIP3    H1 2028   1.082   3.347   0.183
  695TIP3    H2 2029   1.218   3.316   0.243
  696TIP3   OH2 2030   5.251   4.760   1.061
  696TIP3    H1 2031   5.203   4.766   1.143
  696TIP3    H2 2032   5.287   4.847   1.047
  697TIP3   OH2 2033   7.666   5.898   3.077
  697TIP3    H1 2034   7.598   5.869   3.138
  697TIP3    H2 2035   7.677   5.825   3.017
  698TIP3   OH2 2036   1.502   4.543   5.539
  698TIP3    H1 2037   1.442   4.471   5.524
  698TIP3    H2 2038   1.509   4.549   5.634
  699TIP3   OH2 2039   5.022   1.251   3.756
  699TIP3    H1 2040   5.002   1.183   3.692
  699TIP3    H2 2041   4.938   1.295   3.771
  700TIP3   OH2 2042   5.455   0.515   4.587
  700TIP3    H1 2043   5.381   0.549   4.637
  700TIP3    H2 2044   5.415   0.478   4.508
  701TIP3   OH2 2045   0.281   5.174   6.366
  701TIP3    H1 2046   0.333   5.138   6.294
  701TIP3    H2 2047   0.207   5.216   6.324
  702TIP3   OH2 2048   5.189   1.524   0.661
  702TIP3    H1 2049   5.234   1.593   0.612
  702TIP3    H2 2050   5.257   1.485   0.716
  703TIP3   OH2 2051   2.424   6.451   6.368
  703TIP3    H1 2052   2.379   6.535   6.364
  703TIP3    H2 2053   2.353   6.386   6.370
  704TIP3   OH2 2054   5.217   0.653   5.267
  704TIP3    H1 2055   5.230   0.722   5.202
  704TIP3    H2 2056   5.126   0.628   5.258
  705TIP3   OH2 2057   1.571   5.028   4.817
  705TIP3    H1 2058   1.633   5.095   4.846
  705TIP3    H2 2059   1.524   5.003   4.896
  706TIP3   OH2 2060   4.999   4.545   0.724
  706TIP3    H1 2061   5.006   4.637   0.748
  706TIP3    H2 2062   5.061   4.533   0.653
  707TIP3   OH2 2063   6.514   5.879   1.700
  707TIP3    H1 2064   6.518   5.835   1.786
  707TIP3    H2 2065   6.549   5.814   1.639
  708TIP3   OH2 2066   7.901   0.188   0.424
  708TIP3    H1 2067   7.824   0.240   0.449
  708TIP3    H2 2068   7.900   0.114   0.485
  709TIP3   OH2 2069   7.084   2.588   0.000
  709TIP3    H1 2070   7.170   2.596   0.042
  709TIP3    H2 2071   7.059   2.497   0.012
  710TIP3   OH2 2072   8.093   4.217   1.797
  710TIP3    H1 2073   8.020   4.157   1.780
  710TIP3    H2 2074   8.058   4.280   1.861
  711TIP3   OH2 2075   1.127   7.409   0.073
  711TIP3    H1 2076   1.052   7.383   0.128
  711TIP3    H2 2077   1.199   7.355   0.105
  712TIP3   OH2 2078   7.182   4.844   3.401
  712TIP3    H1 2079   7.245   4.845   3.473
  712TIP3    H2 2080   7.235   4.825   3.323
  713TIP3   OH2 2081   5.366   6.393   3.318
  713TIP3    H1 2082   5.407   6.465   3.367
  713TIP3    H2 2083   5.302   6.436   3.262
  714TIP3   OH2 2084   6.829   0.523   2.031
  714TIP3    H1 2085   6.849   0.608   2.070
  714TIP3    H2 2086   6.734   0.516   2.036
  715TIP3   OH2 2087   2.800   1.083   5.714
  715TIP3    H1 2088   2.841   1.014   5.767
  715TIP3    H2 2089   2.800   1.160   5.771
  716TIP3   OH2 2090   7.646   4.863   5.027
  716TIP3    H1 2091   7.682   4.948   5.002
  716TIP3    H2 2092   7.569   4.884   5.080
  717TIP3   OH2 2093   2.772   5.240   6.439
  717TIP3    H1 2094   2.860   5.239   6.476
  717TIP3    H2 2095   2.717   5.198   6.506
  718TIP3   OH2 2096   7.907   6.571   4.981
  718TIP3    H1 2097   7.943   6.486   4.955
  718TIP3    H2 2098   7.958   6.595   5.059
  719TIP3   OH2 2099   2.798   2.422   1.726
  719TIP3    H1 2100   2.714   2.389   1.758
  719TIP3    H2 2101   2.798   2.514   1.753
  720TIP3   OH2 2102   3.811   2.832   3.813
  720TIP3    H1 2103   3.891   2.788   3.841
  720TIP3    H2 2104   3.841   2.912   3.771
  721TIP3   OH2 2105   0.124   7.373   2.585
  721TIP3    H1 2106   0.156   7.287   2.613
  721TIP3    H2 2107   0.078   7.407   2.662
  722TIP3   OH2 2108   6.847   3.773   1.545
  722TIP3    H1 2109   6.922   3.716   1.528
  722TIP3    H2 2110   6.771   3.714   1.546
  723TIP3   OH2 2111   0.556   2.591   3.863
  723TIP3    H1 2112   0.552   2.498   3.887
  723TIP3    H2 2113   0.482   2.630   3.909
  724TIP3   OH2 2114   0.805   0.203   3.554
  724TIP3    H1 2115   0.781   0.122   3.509
  724TIP3    H2 2116   0.873   0.176   3.617
  725TIP3   OH2 2117   6.237   5.561   3.725
  725TIP3    H1 2118   6.187   5.641   3.711
  725TIP3    H2 2119   6.178   5.504   3.775
  726TIP3   OH2 2120   6.159   3.928   4.356
  726TIP3    H1 2121   6.248   3.892   4.350
  726TIP3    H2 2122   6.104   3.865   4.311
  727TIP3   OH2 2123   3.025   3.045   1.212
  727TIP3    H1 2124   3.104   3.097   1.198
  727TIP3    H2 2125   2.964   3.105   1.256
  728TIP3   OH2 2126   3.672   5.124   4.250
  728TIP3    H1 2127   3.605   5.073   4.295
  728TIP3    H2 2128   3.679   5.204   4.301
  729TIP3   OH2 2129   2.645   4.378   1.599
  729TIP3    H1 2130   2.599   4.328   1.667
  729TIP3    H2 2131   2.731   4.336   1.592
  730TIP3   OH2 2132   0.710   2.509   3.182
  730TIP3    H1 2133   0.803   2.530   3.175
  730TIP3    H2 2134   0.665   2.587   3.150
  731TIP3   OH2 2135   1.688   6.322   0.561
  731TIP3    H1 2136   1.600   6.300   0.530
  731TIP3    H2 2137   1.742   6.323   0.483
  732TIP3   OH2 2138   7.424   7.097   5.906
  732TIP3    H1 2139   7.363   7.120   5.976
  732TIP3    H2 2140   7.373   7.110   5.825
  733TIP3   OH2 2141   4.189   0.839   3.179
  733TIP3    H1 2142   4.210   0.796   3.096
  733TIP3    H2 2143   4.231   0.924   3.174
  734TIP3   OH2 2144   0.340   7.040   4.819
  734TIP3    H1 2145   0.270   6.974   4.831
  734TIP3    H2 2146   0.326   7.074   4.731
  735TIP3   OH2 2147   5.735   0.930   4.889
  735TIP3    H1 2148   5.749   0.848   4.841
  735TIP3    H2 2149   5.809   0.936   4.949
  736TIP3   OH2 2150   1.085   5.757   5.214
  736TIP3    H1 2151   1.082   5.672   5.259
  736TIP3    H2 2152   1.071   5.736   5.122
  737TIP3   OH2 2153   5.494   7.779   0.523
  737TIP3    H1 2154   5.480   7.782   0.429
  737TIP3    H2 2155   5.417   7.734   0.558
  738TIP3   OH2 2156   0.088   1.206   5.014
  738TIP3    H1 2157   0.107   1.131   4.957
  738TIP3    H2 2158   0.167   1.260   5.009
  739TIP3   OH2 2159   4.806   0.959   6.140
  739TIP3    H1 2160   4.776   1.048   6.152
  739TIP3    H2 2161   4.741   0.905   6.186
  740TIP3   OH2 2162   0.459   5.814   0.252
  740TIP3    H1 2163   0.465   5.719   0.265
  740TIP3    H2 2164   0.421   5.847   0.333
  741TIP3   OH2 2165   6.215   1.015   1.458
  741TIP3    H1 2166   6.173   0.929   1.458
  741TIP3    H2 2167   6.290   1.005   1.399
  742TIP3   OH2 2168   2.657   5.850   4.150
  742TIP3    H1 2169   2.562   5.843   4.143
  742TIP3    H2 2170   2.671   5.934   4.193
  743TIP3   OH2 2171   3.245   6.985   4.469
  743TIP3    H1 2172   3.322   6.950   4.424
  743TIP3    H2 2173   3.181   6.914   4.463
  744TIP3   OH2 2174   7.374   5.276   3.157
  744TIP3    H1 2175   7.354   5.352   3.212
  744TIP3    H2 2176   7.465   5.288   3.132
  745TIP3   OH2 2177   8.189   6.937   5.868
  745TIP3    H1 2178   8.194   6.859   5.922
  745TIP3    H2 2179   8.097   6.945   5.844
  746TIP3   OH2 2180   5.420   3.634   3.619
  746TIP3    H1 2181   5.409   3.649   3.525
  746TIP3    H2 2182   5.511   3.660   3.637
  747TIP3   OH2 2183   1.330   1.781   2.149
  747TIP3    H1 2184   1.395   1.783   2.219
  747TIP3    H2 2185   1.362   1.842   2.084
  748TIP3   OH2 2186   5.084   1.370   6.296
  748TIP3    H1 2187   5.030   1.425   6.353
  748TIP3    H2 2188   5.021   1.321   6.242
  749TIP3   OH2 2189   2.106   0.903   6.510
  749TIP3    H1 2190   2.025   0.856   6.531
  749TIP3    H2 2191   2.119   0.963   6.583
  750TIP3   OH2 2192   3.624   5.305   2.764
  750TIP3    H1 2193   3.701   5.249   2.779
  750TIP3    H2 2194   3.621   5.362   2.841
  751TIP3   OH2 2195   3.306   3.388   2.472
  751TIP3    H1 2196   3.263   3.327   2.412
  751TIP3    H2 2197   3.334   3.461   2.416
  752TIP3   OH2 2198   8.160   2.062   4.620
  752TIP3    H1 2199   8.126   2.120   4.688
  752TIP3    H2 2200   8.092   2.061   4.553
  753TIP3   OH2 2201   7.215   5.845   1.214
  753TIP3    H1 2202   7.235   5.918   1.156
  753TIP3    H2 2203   7.119   5.841   1.217
  754TIP3   OH2 2204   6.735   6.454   0.942
  754TIP3    H1 2205   6.693   6.388   0.887
  754TIP3    H2 2206   6.825   6.458   0.910
  755TIP3   OH2 2207   1.392   6.918   1.585
  755TIP3    H1 2208   1.446   6.839   1.586
  755TIP3    H2 2209   1.307   6.888   1.551
  756TIP3   OH2 2210   0.227   2.594   5.358
  756TIP3    H1 2211   0.293   2.639   5.307
  756TIP3    H2 2212   0.204   2.517   5.306
  757TIP3   OH2 2213   6.120   2.830   2.366
  757TIP3    H1 2214   6.091   2.908   2.318
  757TIP3    H2 2215   6.043   2.803   2.416
  758TIP3   OH2 2216   4.283   6.245   4.879
  758TIP3    H1 2217   4.237   6.302   4.817
  758TIP3    H2 2218   4.281   6.294   4.962
  759TIP3   OH2 2219   1.862   3.124   2.518
  759TIP3    H1 2220   1.921   3.051   2.539
  759TIP3    H2 2221   1.897   3.198   2.567
  760TIP3   OH2 2222   6.865   3.899   2.125
  760TIP3    H1 2223   6.903   3.891   2.212
  760TIP3    H2 2224   6.901   3.982   2.091
  761TIP3   OH2 2225   6.216   3.924   2.308
  761TIP3    H1 2226   6.235   3.949   2.217
  761TIP3    H2 2227   6.130   3.962   2.326
  762TIP3   OH2 2228   0.166   0.465   0.738
  762TIP3    H1 2229   0.151   0.515   0.819
  762TIP3    H2 2230   0.258   0.441   0.742
  763TIP3   OH2 2231   4.514   6.148   1.911
  763TIP3    H1 2232   4.542   6.074   1.858
  763TIP3    H2 2233   4.594   6.182   1.950
  764TIP3   OH2 2234   1.968   0.034   4.183
  764TIP3    H1 2235   1.922   0.059   4.103
  764TIP3    H2 2236   1.950   0.105   4.244
  765TIP3   OH2 2237   5.836   0.808   2.806
  765TIP3    H1 2238   5.917   0.857   2.803
  765TIP3    H2 2239   5.789   0.843   2.882
  766TIP3   OH2 2240   1.065   1.408   0.795
  766TIP3    H1 2241   1.137   1.348   0.776
  766TIP3    H2 2242   1.022   1.421   0.710
  767TIP3   OH2 2243   8.109   6.389   4.856
  767TIP3    H1 2244   8.131   6.420   4.768
  767TIP3    H2 2245   8.193   6.382   4.901
  768TIP3   OH2 2246   1.761   7.771   0.814
  768TIP3    H1 2247   1.795   7.697   0.865
  768TIP3    H2 2248   1.714   7.730   0.741
  769TIP3   OH2 2249   4.624   6.388   3.645
  769TIP3    H1 2250   4.681   6.365   3.718
  769TIP3    H2 2251   4.542   6.341   3.663
  770TIP3   OH2 2252   4.586   1.352   3.320
  770TIP3    H1 2253   4.607   1.417   3.252
  770TIP3    H2 2254   4.638   1.380   3.395
  771TIP3   OH2 2255   1.771   5.745   2.149
  771TIP3    H1 2256   1.685   5.759   2.109
  771TIP3    H2 2257   1.828   5.809   2.107
  772TIP3   OH2 2258   6.044   1.210   2.610
  772TIP3    H1 2259   6.103   1.284   2.599
  772TIP3    H2 2260   6.085   1.139   2.561
  773TIP3   OH2 2261   8.129   4.399   6.272
  773TIP3    H1 2262   8.155   4.328   6.214
  773TIP3    H2 2263   8.195   4.400   6.341
  774TIP3   OH2 2264   2.777   2.294   1.462
  774TIP3    H1 2265   2.848   2.274   1.401
  774TIP3    H2 2266   2.812   2.363   1.519
  775TIP3   OH2 2267   1.278   1.220   4.902
  775TIP3    H1 2268   1.277   1.204   4.808
  775TIP3    H2 2269   1.196   1.267   4.919
  776TIP3   OH2 2270   4.411   5.863   5.119
  776TIP3    H1 2271   4.331   5.912   5.133
  776TIP3    H2 2272   4.473   5.898   5.183
  777TIP3   OH2 2273   5.290   0.573   5.742
  777TIP3    H1 2274   5.287   0.554   5.649
  777TIP3    H2 2275   5.341   0.501   5.780
  778TIP3   OH2 2276   4.810   5.425   6.550
  778TIP3    H1 2277   4.768   5.381   6.477
  778TIP3    H2 2278   4.813   5.358   6.619
  779TIP3   OH2 2279   3.103   2.929   3.329
  779TIP3    H1 2280   3.091   2.891   3.242
  779TIP3    H2 2281   3.149   3.012   3.313
  780TIP3   OH2 2282   8.120   2.524   2.982
  780TIP3    H1 2283   8.189   2.487   3.037
  780TIP3    H2 2284   8.041   2.520   3.037
  781TIP3   OH2 2285   4.119   0.462   2.691
  781TIP3    H1 2286   4.212   0.466   2.714
  781TIP3    H2 2287   4.118   0.421   2.604
  782TIP3   OH2 2288   1.415   4.150   3.503
  782TIP3    H1 2289   1.396   4.126   3.412
  782TIP3    H2 2290   1.502   4.189   3.499
  783TIP3   OH2 2291   1.347   5.458   1.029
  783TIP3    H1 2292   1.279   5.447   1.096
  783TIP3    H2 2293   1.324   5.538   0.984
  784TIP3   OH2 2294   0.543   0.581   2.015
  784TIP3    H1 2295   0.524   0.550   2.104
  784TIP3    H2 2296   0.633   0.551   1.999
  785TIP3   OH2 2297   1.873   6.035   0.156
  785TIP3    H1 2298   1.894   5.993   0.240
  785TIP3    H2 2299   1.931   5.993   0.093
  786TIP3   OH2 2300   3.024   0.501   2.274
  786TIP3    H1 2301   2.949   0.495   2.333
  786TIP3    H2 2302   3.056   0.591   2.286
  787TIP3   OH2 2303   0.085   4.094   4.485
  787TIP3    H1 2304   0.113   4.129   4.569
  787TIP3    H2 2305   0.154   4.032   4.460
  788TIP3   OH2 2306   2.452   6.810   5.379
  788TIP3    H1 2307   2.409   6.894   5.396
  788TIP3    H2 2308   2.485   6.818   5.290
  789TIP3   OH2 2309   6.189   7.229   0.841
  789TIP3    H1 2310   6.257   7.166   0.863
  789TIP3    H2 2311   6.129   7.180   0.785
  790TIP3   OH2 2312   7.188   7.630   3.799
  790TIP3    H1 2313   7.122   7.565   3.775
  790TIP3    H2 2314   7.227   7.595   3.880
  791TIP3   OH2 2315   5.566   4.634   5.174
  791TIP3    H1 2316   5.646   4.639   5.227
  791TIP3    H2 2317   5.562   4.718   5.128
  792TIP3   OH2 2318   7.132   0.849   4.536
  792TIP3    H1 2319   7.081   0.801   4.470
  792TIP3    H2 2320   7.070   0.911   4.574
  793TIP3   OH2 2321   5.831   4.594   5.746
  793TIP3    H1 2322   5.905   4.575   5.804
  793TIP3    H2 2323   5.866   4.657   5.683
  794TIP3   OH2 2324   0.482   3.183   3.625
  794TIP3    H1 2325   0.495   3.092   3.597
  794TIP3    H2 2326   0.435   3.224   3.552
  795TIP3   OH2 2327   0.989   4.457   0.818
  795TIP3    H1 2328   0.894   4.467   0.808
  795TIP3    H2 2329   1.013   4.389   0.756
  796TIP3   OH2 2330   0.001   7.542   6.497
  796TIP3    H1 2331   0.069   7.607   6.478
  796TIP3    H2 2332  -0.010   7.547   6.592
  797TIP3   OH2 2333   6.091   2.502   1.747
  797TIP3    H1 2334   6.174   2.501   1.699
  797TIP3    H2 2335   6.106   2.566   1.817
  798TIP3   OH2 2336   0.769   1.187   1.676
  798TIP3    H1 2337   0.743   1.202   1.585
  798TIP3    H2 2338   0.705   1.124   1.709
  799TIP3   OH2 2339   6.137   7.256   5.760
  799TIP3    H1 2340   6.114   7.275   5.852
  799TIP3    H2 2341   6.153   7.162   5.758
  800TIP3   OH2 2342   4.765   6.952   0.888
  800TIP3    H1 2343   4.750   6.962   0.982
  800TIP3    H2 2344   4.697   6.891   0.859
  801TIP3   OH2 2345   2.730   3.727   1.981
  801TIP3    H1 2346   2.773   3.641   1.977
  801TIP3    H2 2347   2.673   3.721   2.057
  802TIP3   OH2 2348   4.475   3.011   2.816
  802TIP3    H1 2349   4.564   2.998   2.849
  802TIP3    H2 2350   4.430   2.929   2.835
  803TIP3   OH2 2351   5.593   1.154   1.990
  803TIP3    H1 2352   5.603   1.109   1.907
  803TIP3    H2 2353   5.662   1.222   1.989
  804TIP3   OH2 2354   2.812   2.491   5.640
  804TIP3    H1 2355   2.829   2.573   5.595
  804TIP3    H2 2356   2.814   2.514   5.733
  805TIP3   OH2 2357   2.934   7.632   2.408
  805TIP3    H1 2358   2.896   7.706   2.454
  805TIP3    H2 2359   2.868   7.609   2.342
  806TIP3   OH2 2360   5.192   2.578   0.747
  806TIP3    H1 2361   5.112   2.539   0.711
  806TIP3    H2 2362   5.162   2.636   0.817
  807TIP3   OH2 2363   3.665   5.883   6.317
  807TIP3    H1 2364   3.714   5.956   6.353
  807TIP3    H2 2365   3.731   5.814   6.303
  808TIP3   OH2 2366   4.765   7.039   1.940
  808TIP3    H1 2367   4.816   7.091   2.003
  808TIP3    H2 2368   4.816   6.959   1.929
  809TIP3   OH2 2369   2.693   0.242   2.825
  809TIP3    H1 2370   2.749   0.275   2.755
  809TIP3    H2 2371   2.726   0.283   2.904
  810TIP3   OH2 2372   5.876   4.678   3.202
  810TIP3    H1 2373   5.891   4.590   3.237
  810TIP3    H2 2374   5.962   4.708   3.174
  811TIP3   OH2 2375   3.367   7.700   1.324
  811TIP3    H1 2376   3.273   7.716   1.310
  811TIP3    H2 2377   3.379   7.608   1.303
  812TIP3   OH2 2378   7.510   6.987   3.151
  812TIP3    H1 2379   7.415   6.997   3.157
  812TIP3    H2 2380   7.535   6.947   3.234
  813TIP3   OH2 2381   4.263   3.517   2.499
  813TIP3    H1 2382   4.223   3.600   2.527
  813TIP3    H2 2383   4.306   3.483   2.577
  814TIP3   OH2 2384   0.288   2.033   5.403
  814TIP3    H1 2385   0.376   2.063   5.428
  814TIP3    H2 2386   0.274   2.070   5.316
  815TIP3   OH2 2387   1.212   7.405   2.175
  815TIP3    H1 2388   1.241   7.476   2.117
  815TIP3    H2 2389   1.169   7.450   2.248
  816TIP3   OH2 2390   2.018   4.106   2.737
  816TIP3    H1 2391   2.004   4.045   2.664
  816TIP3    H2 2392   1.999   4.192   2.700
  817TIP3   OH2 2393   1.425   0.750   4.673
  817TIP3    H1 2394   1.410   0.783   4.585
  817TIP3    H2 2395   1.505   0.698   4.666
  818TIP3   OH2 2396   0.279   1.979   1.576
  818TIP3    H1 2397   0.287   1.998   1.669
  818TIP3    H2 2398   0.186   1.995   1.556
  819TIP3   OH2 2399   5.529   1.587   4.031
  819TIP3    H1 2400   5.524   1.650   3.960
  819TIP3    H2 2401   5.543   1.503   3.987
  820TIP3   OH2 2402   6.463   1.271   4.064
  820TIP3    H1 2403   6.405   1.336   4.103
  820TIP3    H2 2404   6.425   1.253   3.978
  821TIP3   OH2 2405   5.371   2.495   4.244
  821TIP3    H1 2406   5.393   2.415   4.197
  821TIP3    H2 2407   5.372   2.470   4.336
  822TIP3   OH2 2408   6.697   1.210   5.440
  822TIP3    H1 2409   6.685   1.272   5.369
  822TIP3    H2 2410   6.610   1.176   5.458
  823TIP3   OH2 2411   6.407   5.984   3.394
  823TIP3    H1 2412   6.471   5.949   3.456
  823TIP3    H2 2413   6.444   6.067   3.365
  824TIP3   OH2 2414   2.034   7.557   4.848
  824TIP3    H1 2415   2.001   7.646   4.862
  824TIP3    H2 2416   2.037   7.548   4.753
  825TIP3   OH2 2417   4.917   0.889   0.952
  825TIP3    H1 2418   4.903   0.798   0.925
  825TIP3    H2 2419   4.834   0.932   0.936
  826TIP3   OH2 2420   0.386   6.294   3.545
  826TIP3    H1 2421   0.336   6.329   3.619
  826TIP3    H2 2422   0.423   6.372   3.502
  827TIP3   OH2 2423   1.318   6.013   5.706
  827TIP3    H1 2424   1.381   6.024   5.777
  827TIP3    H2 2425   1.355   5.943   5.652
  828TIP3   OH2 2426   6.378   7.548   3.957
  828TIP3    H1 2427   6.419   7.611   4.016
  828TIP3    H2 2428   6.371   7.595   3.874
  829TIP3   OH2 2429   1.876   5.649   0.304
  829TIP3    H1 2430   1.802   5.647   0.244
  829TIP3    H2 2431   1.840   5.685   0.385
  830TIP3   OH2 2432   5.671   0.934   5.847
  830TIP3    H1 2433   5.594   0.937   5.789
  830TIP3    H2 2434   5.635   0.936   5.935
  831TIP3   OH2 2435   4.266   5.887   0.980
  831TIP3    H1 2436   4.227   5.947   0.917
  831TIP3    H2 2437   4.357   5.879   0.952
  832TIP3   OH2 2438   1.764   4.128   5.347
  832TIP3    H1 2439   1.685   4.127   5.293
  832TIP3    H2 2440   1.733   4.107   5.435
  833TIP3   OH2 2441   1.085   3.130   3.061
  833TIP3    H1 2442   1.173   3.117   3.028
  833TIP3    H2 2443   1.065   3.222   3.042
  834TIP3   OH2 2444   3.605   1.790   4.219
  834TIP3    H1 2445   3.554   1.732   4.162
  834TIP3    H2 2446   3.696   1.766   4.201
  835TIP3   OH2 2447   2.837   2.525   0.149
  835TIP3    H1 2448   2.880   2.442   0.128
  835TIP3    H2 2449   2.884   2.557   0.226
  836TIP3   OH2 2450   6.149   2.416   3.517
  836TIP3    H1 2451   6.093   2.493   3.506
  836TIP3    H2 2452   6.088   2.345   3.538
  837TIP3   OH2 2453   2.556   2.085   5.824
  837TIP3    H1 2454   2.649   2.100   5.810
  837TIP3    H2 2455   2.545   2.079   5.919
  838TIP3   OH2 2456   4.518   5.045   4.454
  838TIP3    H1 2457   4.574   5.119   4.479
  838TIP3    H2 2458   4.429   5.075   4.474
  839TIP3   OH2 2459   7.236   1.062   4.354
  839TIP3    H1 2460   7.269   0.975   4.335
  839TIP3    H2 2461   7.294   1.097   4.422
  840TIP3   OH2 2462   5.281   3.163   0.820
  840TIP3    H1 2463   5.349   3.115   0.773
  840TIP3    H2 2464   5.202   3.111   0.807
  841TIP3   OH2 2465   5.597   1.393   1.113
  841TIP3    H1 2466   5.644   1.359   1.037
  841TIP3    H2 2467   5.640   1.352   1.188
  842TIP3   OH2 2468   0.257   6.115   0.867
  842TIP3    H1 2469   0.278   6.204   0.896
  842TIP3    H2 2470   0.254   6.065   0.948
  843TIP3   OH2 2471   1.223   7.317   4.989
  843TIP3    H1 2472   1.167   7.381   5.032
  843TIP3    H2 2473   1.169   7.239   4.981
  844TIP3   OH2 2474   0.428   1.180   1.175
  844TIP3    H1 2475   0.354   1.199   1.233
  844TIP3    H2 2476   0.486   1.255   1.185
  845TIP3   OH2 2477   6.695   6.012   5.260
  845TIP3    H1 2478   6.603   5.998   5.281
  845TIP3    H2 2479   6.736   5.927   5.276
  846TIP3   OH2 2480   7.076   5.795   6.196
  846TIP3    H1 2481   7.036   5.789   6.283
  846TIP3    H2 2482   7.160   5.837   6.210
  847TIP3   OH2 2483   2.397   5.201   4.675
  847TIP3    H1 2484   2.381   5.115   4.637
  847TIP3    H2 2485   2.390   5.262   4.601
  848TIP3   OH2 2486   6.312   6.125   0.536
  848TIP3    H1 2487   6.304   6.211   0.577
  848TIP3    H2 2488   6.259   6.131   0.457
  849TIP3   OH2 2489   3.537   0.696   1.967
  849TIP3    H1 2490   3.471   0.760   1.994
  849TIP3    H2 2491   3.611   0.749   1.939
  850TIP3   OH2 2492   5.525   1.514   3.185
  850TIP3    H1 2493   5.546   1.463   3.263
  850TIP3    H2 2494   5.600   1.573   3.174
  851TIP3   OH2 2495   3.624   2.258   3.385
  851TIP3    H1 2496   3.699   2.203   3.410
  851TIP3    H2 2497   3.549   2.216   3.425
  852TIP3   OH2 2498   1.517   4.395   1.939
  852TIP3    H1 2499   1.579   4.377   1.868
  852TIP3    H2 2500   1.522   4.319   1.996
  853TIP3   OH2 2501   6.595   7.348   0.407
  853TIP3    H1 2502   6.608   7.443   0.413
  853TIP3    H2 2503   6.545   7.335   0.327
  854TIP3   OH2 2504   4.716   7.502   5.891
  854TIP3    H1 2505   4.690   7.575   5.835
  854TIP3    H2 2506   4.694   7.531   5.980
  855TIP3   OH2 2507   6.557   6.085   4.793
  855TIP3    H1 2508   6.549   6.109   4.885
  855TIP3    H2 2509   6.573   5.991   4.793
  856TIP3   OH2 2510   0.987   0.426   4.522
  856TIP3    H1 2511   1.026   0.360   4.464
  856TIP3    H2 2512   1.045   0.429   4.598
  857TIP3   OH2 2513   5.689   2.293   0.369
  857TIP3    H1 2514   5.655   2.373   0.409
  857TIP3    H2 2515   5.623   2.269   0.304
  858TIP3   OH2 2516   4.273   4.457   1.818
  858TIP3    H1 2517   4.236   4.383   1.769
  858TIP3    H2 2518   4.365   4.432   1.833
  859TIP3   OH2 2519   8.178   4.263   6.568
  859TIP3    H1 2520   8.230   4.254   6.648
  859TIP3    H2 2521   8.224   4.329   6.516
  860TIP3   OH2 2522   7.714   6.597   4.065
  860TIP3    H1 2523   7.624   6.577   4.093
  860TIP3    H2 2524   7.714   6.692   4.053
  861TIP3   OH2 2525   6.182   3.816   4.623
  861TIP3    H1 2526   6.173   3.867   4.543
  861TIP3    H2 2527   6.106   3.841   4.676
  862TIP3   OH2 2528   4.948   2.654   5.432
  862TIP3    H1 2529   4.867   2.608   5.409
  862TIP3    H2 2530   5.016   2.588   5.426
  863TIP3   OH2 2531   7.785   0.248   5.886
  863TIP3    H1 2532   7.809   0.165   5.845
  863TIP3    H2 2533   7.693   0.261   5.862
  864TIP3   OH2 2534   2.669   4.961   4.485
  864TIP3    H1 2535   2.619   4.882   4.462
  864TIP3    H2 2536   2.637   4.984   4.573
  865TIP3   OH2 2537   6.710   1.541   5.902
  865TIP3    H1 2538   6.798   1.535   5.863
  865TIP3    H2 2539   6.664   1.605   5.848
  866TIP3   OH2 2540   0.206   3.593   2.091
  866TIP3    H1 2541   0.217   3.685   2.068
  866TIP3    H2 2542   0.225   3.545   2.011
  867TIP3   OH2 2543   6.458   3.735   3.972
  867TIP3    H1 2544   6.413   3.817   3.992
  867TIP3    H2 2545   6.388   3.670   3.968
  868TIP3   OH2 2546   2.949   4.823   5.290
  868TIP3    H1 2547   2.929   4.912   5.319
  868TIP3    H2 2548   2.887   4.808   5.218
  869TIP3   OH2 2549   4.233   3.394   2.020
  869TIP3    H1 2550   4.182   3.371   2.097
  869TIP3    H2 2551   4.180   3.460   1.975
  870TIP3   OH2 2552   3.711   3.034   4.510
  870TIP3    H1 2553   3.647   3.085   4.559
  870TIP3    H2 2554   3.794   3.079   4.523
  871TIP3   OH2 2555   1.100   5.941   0.162
  871TIP3    H1 2556   1.151   5.919   0.239
  871TIP3    H2 2557   1.009   5.942   0.192
  872TIP3   OH2 2558   6.646   2.929   1.925
  872TIP3    H1 2559   6.572   2.986   1.902
  872TIP3    H2 2560   6.606   2.842   1.933
  873TIP3   OH2 2561   7.106   2.986   6.150
  873TIP3    H1 2562   7.148   2.967   6.233
  873TIP3    H2 2563   7.165   3.048   6.106
  874TIP3   OH2 2564   4.212   1.249   0.627
  874TIP3    H1 2565   4.149   1.295   0.572
  874TIP3    H2 2566   4.178   1.258   0.716
  875TIP3   OH2 2567   0.350   5.987   2.149
  875TIP3    H1 2568   0.308   6.058   2.197
  875TIP3    H2 2569   0.421   6.029   2.100
  876TIP3   OH2 2570   1.994   6.156   3.920
  876TIP3    H1 2571   1.919   6.099   3.900
  876TIP3    H2 2572   1.977   6.235   3.869
  877TIP3   OH2 2573   7.069   0.395   0.313
  877TIP3    H1 2574   7.012   0.467   0.340
  877TIP3    H2 2575   7.052   0.326   0.377
  878TIP3   OH2 2576   3.914   3.866   1.565
  878TIP3    H1 2577   4.000   3.828   1.581
  878TIP3    H2 2578   3.868   3.800   1.512
  879TIP3   OH2 2579   7.960   6.132   6.151
  879TIP3    H1 2580   8.036   6.150   6.206
  879TIP3    H2 2581   7.898   6.086   6.208
  880TIP3   OH2 2582   0.111   3.066   1.284
  880TIP3    H1 2583   0.033   3.067   1.228
  880TIP3    H2 2584   0.077   3.071   1.374
  881TIP3   OH2 2585   1.798   6.724   0.610
  881TIP3    H1 2586   1.875   6.779   0.619
  881TIP3    H2 2587   1.776   6.699   0.700
  882TIP3   OH2 2588   4.926   2.540   4.865
  882TIP3    H1 2589   4.914   2.489   4.784
  882TIP3    H2 2590   4.965   2.478   4.926
  883TIP3   OH2 2591   3.506   4.503   5.413
  883TIP3    H1 2592   3.461   4.559   5.477
  883TIP3    H2 2593   3.594   4.539   5.407
  884TIP3   OH2 2594   1.545   4.583   3.633
  884TIP3    H1 2595   1.612   4.652   3.630
  884TIP3    H2 2596   1.494   4.596   3.553
  885TIP3   OH2 2597   3.282   0.639   2.845
  885TIP3    H1 2598   3.335   0.564   2.819
  885TIP3    H2 2599   3.344   0.711   2.853
  886TIP3   OH2 2600   6.821   3.301   3.253
  886TIP3    H1 2601   6.777   3.221   3.224
  886TIP3    H2 2602   6.911   3.292   3.221
  887TIP3   OH2 2603   2.401   4.146   4.678
  887TIP3    H1 2604   2.313   4.126   4.709
  887TIP3    H2 2605   2.455   4.144   4.757
  888TIP3   OH2 2606   5.709   3.743   0.498
  888TIP3    H1 2607   5.637   3.750   0.435
  888TIP3    H2 2608   5.788   3.761   0.447
  889TIP3   OH2 2609   7.778   1.354   5.662
  889TIP3    H1 2610   7.865   1.388   5.638
  889TIP3    H2 2611   7.742   1.421   5.720
  890TIP3   OH2 2612   5.727   2.274   2.920
  890TIP3    H1 2613   5.818   2.245   2.930
  890TIP3    H2 2614   5.695   2.226   2.844
  891TIP3   OH2 2615   8.129   0.753   5.757
  891TIP3    H1 2616   8.204   0.696   5.773
  891TIP3    H2 2617   8.098   0.728   5.670
  892TIP3   OH2 2618   7.849   7.302   0.686
  892TIP3    H1 2619   7.900   7.306   0.605
  892TIP3    H2 2620   7.783   7.235   0.668
  893TIP3   OH2 2621   1.260   0.654   3.002
  893TIP3    H1 2622   1.308   0.625   3.080
  893TIP3    H2 2623   1.169   0.658   3.031
  894TIP3   OH2 2624   7.811   3.542   5.388
  894TIP3    H1 2625   7.824   3.580   5.302
  894TIP3    H2 2626   7.718   3.555   5.407
  895TIP3   OH2 2627   6.898   4.993   3.273
  895TIP3    H1 2628   6.940   4.908   3.286
  895TIP3    H2 2629   6.965   5.045   3.228
  896TIP3   OH2 2630   1.270   0.165   1.285
  896TIP3    H1 2631   1.188   0.118   1.299
  896TIP3    H2 2632   1.327   0.102   1.241
  897TIP3   OH2 2633   0.982   0.838   6.659
  897TIP3    H1 2634   0.989   0.744   6.645
  897TIP3    H2 2635   1.070   0.871   6.640
  898TIP3   OH2 2636   6.370   0.315   2.714
  898TIP3    H1 2637   6.299   0.325   2.777
  898TIP3    H2 2638   6.330   0.331   2.629
  899TIP3   OH2 2639   6.692   0.398   1.142
  899TIP3    H1 2640   6.691   0.303   1.150
  899TIP3    H2 2641   6.765   0.417   1.083
  900TIP3   OH2 2642   1.082   1.957   6.137
  900TIP3    H1 2643   1.029   2.023   6.181
  900TIP3    H2 2644   1.088   1.988   6.046
  901TIP3   OH2 2645   1.724   3.120   1.366
  901TIP3    H1 2646   1.751   3.037   1.325
  901TIP3    H2 2647   1.681   3.168   1.296
  902TIP3   OH2 2648   4.516   7.527   4.357
  902TIP3    H1 2649   4.474   7.448   4.323
  902TIP3    H2 2650   4.562   7.497   4.436
  903TIP3   OH2 2651   5.522   4.342   0.223
  903TIP3    H1 2652   5.596   4.403   0.218
  903TIP3    H2 2653   5.563   4.255   0.225
  904TIP3   OH2 2654   5.159   7.743   3.410
  904TIP3    H1 2655   5.140   7.777   3.498
  904TIP3    H2 2656   5.249   7.770   3.394
  905TIP3   OH2 2657   1.605   4.656   4.270
  905TIP3    H1 2658   1.569   4.741   4.245
  905TIP3    H2 2659   1.592   4.600   4.194
  906TIP3   OH2 2660   6.382   2.920   4.034
  906TIP3    H1 2661   6.346   2.832   4.018
  906TIP3    H2 2662   6.337   2.951   4.112
  907TIP3   OH2 2663   4.766   4.951   3.607
  907TIP3    H1 2664   4.675   4.921   3.607
  907TIP3    H2 2665   4.805   4.905   3.681
  908TIP3   OH2 2666   4.085   1.475   2.632
  908TIP3    H1 2667   4.102   1.385   2.659
  908TIP3    H2 2668   3.990   1.480   2.621
  909TIP3   OH2 2669   5.313   7.010   0.654
  909TIP3    H1 2670   5.385   6.948   0.651
  909TIP3    H2 2671   5.355   7.095   0.667
  910TIP3   OH2 2672   1.520   2.964   4.942
  910TIP3    H1 2673   1.446   3.013   4.977
  910TIP3    H2 2674   1.493   2.940   4.853
  911TIP3   OH2 2675   6.406   0.678   4.380
  911TIP3    H1 2676   6.323   0.634   4.397
  911TIP3    H2 2677   6.451   0.621   4.317
  912TIP3   OH2 2678   2.444   7.778   4.831
  912TIP3    H1 2679   2.408   7.728   4.904
  912TIP3    H2 2680   2.391   7.753   4.756
  913TIP3   OH2 2681   1.128   0.651   0.792
  913TIP3    H1 2682   1.221   0.672   0.798
  913TIP3    H2 2683   1.103   0.627   0.881
  914TIP3   OH2 2684   5.977   1.404   5.165
  914TIP3    H1 2685   5.891   1.363   5.160
  914TIP3    H2 2686   5.974   1.457   5.244
  915TIP3   OH2 2687   7.039   2.458   2.942
  915TIP3    H1 2688   6.971   2.492   2.884
  915TIP3    H2 2689   7.091   2.534   2.966
  916TIP3   OH2 2690   6.732   4.964   3.936
  916TIP3    H1 2691   6.723   4.995   4.027
  916TIP3    H2 2692   6.818   4.921   3.934
  917TIP3   OH2 2693   4.140   4.104   2.610
  917TIP3    H1 2694   4.124   4.168   2.541
  917TIP3    H2 2695   4.065   4.044   2.605
  918TIP3   OH2 2696   2.766   3.715   3.142
  918TIP3    H1 2697   2.738   3.625   3.159
  918TIP3    H2 2698   2.686   3.761   3.119
  919TIP3   OH2 2699   1.252   3.076   4.616
  919TIP3    H1 2700   1.193   3.006   4.589
  919TIP3    H2 2701   1.323   3.030   4.662
  920TIP3   OH2 2702   3.572   6.414   5.499
  920TIP3    H1 2703   3.650   6.403   5.553
  920TIP3    H2 2704   3.528   6.329   5.503
  921TIP3   OH2 2705   1.993   2.715   5.961
  921TIP3    H1 2706   1.992   2.778   6.033
  921TIP3    H2 2707   1.914   2.734   5.910
  922TIP3   OH2 2708   6.423   0.650   6.447
  922TIP3    H1 2709   6.400   0.587   6.379
  922TIP3    H2 2710   6.516   0.635   6.464
  923TIP3   OH2 2711   1.180   1.087   3.274
  923TIP3    H1 2712   1.265   1.108   3.312
  923TIP3    H2 2713   1.195   1.091   3.179
  924TIP3   OH2 2714   0.269   5.778   4.801
  924TIP3    H1 2715   0.356   5.743   4.819
  924TIP3    H2 2716   0.221   5.705   4.761
  925TIP3   OH2 2717   2.273   2.875   0.073
  925TIP3    H1 2718   2.291   2.877   0.167
  925TIP3    H2 2719   2.178   2.863   0.067
  926TIP3   OH2 2720   6.367   5.390   5.648
  926TIP3    H1 2721   6.308   5.380   5.723
  926TIP3    H2 2722   6.386   5.300   5.620
  927TIP3   OH2 2723   6.192   3.513   3.531
  927TIP3    H1 2724   6.229   3.591   3.571
  927TIP3    H2 2725   6.148   3.468   3.604
  928TIP3   OH2 2726   1.104   2.025   4.970
  928TIP3    H1 2727   1.028   1.975   4.942
  928TIP3    H2 2728   1.105   2.101   4.912
  929TIP3   OH2 2729   5.151   3.069   2.296
  929TIP3    H1 2730   5.179   3.036   2.211
  929TIP3    H2 2731   5.091   3.141   2.275
  930TIP3   OH2 2732   0.962   3.991   5.814
  930TIP3    H1 2733   0.966   4.081   5.782
  930TIP3    H2 2734   0.915   3.943   5.746
  931TIP3   OH2 2735   0.988   1.100   4.568
  931TIP3    H1 2736   1.080   1.120   4.583
  931TIP3    H2 2737   0.965   1.040   4.639
  932TIP3   OH2 2738   0.596   4.109   2.187
  932TIP3    H1 2739   0.685   4.111   2.224
  932TIP3    H2 2740   0.577   4.016   2.176
  933TIP3   OH2 2741   3.675   3.239   5.163
  933TIP3    H1 2742   3.586   3.244   5.197
  933TIP3    H2 2743   3.726   3.201   5.235
  934TIP3   OH2 2744   2.168   6.006   1.119
  934TIP3    H1 2745   2.237   5.941   1.112
  934TIP3    H2 2746   2.100   5.964   1.173
  935TIP3   OH2 2747   6.806   5.134   0.487
  935TIP3    H1 2748   6.721   5.089   0.476
  935TIP3    H2 2749   6.840   5.143   0.398
  936TIP3   OH2 2750   5.336   2.898   5.432
  936TIP3    H1 2751   5.317   2.821   5.379
  936TIP3    H2 2752   5.282   2.886   5.511
  937TIP3   OH2 2753   1.974   6.596   2.121
  937TIP3    H1 2754   1.950   6.661   2.055
  937TIP3    H2 2755   2.069   6.588   2.114
  938TIP3   OH2 2756   7.504   2.989   0.196
  938TIP3    H1 2757   7.531   3.012   0.285
  938TIP3    H2 2758   7.549   3.053   0.140
  939TIP3   OH2 2759   7.415   0.791   3.834
  939TIP3    H1 2760   7.381   0.831   3.754
  939TIP3    H2 2761   7.498   0.751   3.807
  940TIP3   OH2 2762   8.225   7.800   2.493
  940TIP3    H1 2763   8.298   7.817   2.552
  940TIP3    H2 2764   8.246   7.716   2.452
  941TIP3   OH2 2765   5.953   1.996   0.151
  941TIP3    H1 2766   5.947   1.918   0.096
  941TIP3    H2 2767   5.998   2.061   0.097
  942TIP3   OH2 2768   5.994   3.929   2.059
  942TIP3    H1 2769   5.950   3.998   2.009
  942TIP3    H2 2770   6.087   3.948   2.049
  943TIP3   OH2 2771   1.186   5.379   5.952
  943TIP3    H1 2772   1.229   5.306   5.995
  943TIP3    H2 2773   1.206   5.455   6.007
  944TIP3   OH2 2774   0.079   4.211   4.231
  944TIP3    H1 2775   0.049   4.127   4.197
  944TIP3    H2 2776   0.054   4.210   4.323
  945TIP3   OH2 2777   5.641   3.777   5.176
  945TIP3    H1 2778   5.621   3.809   5.264
  945TIP3    H2 2779   5.574   3.712   5.159
  946TIP3   OH2 2780   6.845   1.584   1.685
  946TIP3    H1 2781   6.793   1.521   1.734
  946TIP3    H2 2782   6.782   1.628   1.628
  947TIP3   OH2 2783   6.658   7.764   5.301
  947TIP3    H1 2784   6.749   7.744   5.279
  947TIP3    H2 2785   6.661   7.854   5.334
  948TIP3   OH2 2786   2.366   2.733   2.890
  948TIP3    H1 2787   2.420   2.788   2.833
  948TIP3    H2 2788   2.289   2.713   2.837
  949TIP3   OH2 2789   5.347   1.085   3.053
  949TIP3    H1 2790   5.368   1.177   3.037
  949TIP3    H2 2791   5.407   1.059   3.123
  950TIP3   OH2 2792   1.925   4.937   2.561
  950TIP3    H1 2793   1.979   4.908   2.634
  950TIP3    H2 2794   1.851   4.982   2.602
  951TIP3   OH2 2795   3.070   5.140   2.677
  951TIP3    H1 2796   2.997   5.088   2.709
  951TIP3    H2 2797   3.119   5.164   2.756
  952TIP3   OH2 2798   7.122   0.780   0.283
  952TIP3    H1 2799   7.195   0.822   0.238
  952TIP3    H2 2800   7.070   0.740   0.213
  953TIP3   OH2 2801   5.204   1.974   5.030
  953TIP3    H1 2802   5.288   1.939   5.057
  953TIP3    H2 2803   5.192   1.943   4.941
  954TIP3   OH2 2804   1.754   5.171   3.602
  954TIP3    H1 2805   1.804   5.252   3.608
  954TIP3    H2 2806   1.761   5.145   3.511
  955TIP3   OH2 2807   2.396   6.056   4.298
  955TIP3    H1 2808   2.396   6.001   4.376
  955TIP3    H2 2809   2.408   5.995   4.225
  956TIP3   OH2 2810   2.324   4.252   0.352
  956TIP3    H1 2811   2.379   4.198   0.410
  956TIP3    H2 2812   2.302   4.329   0.405
  957TIP3   OH2 2813   6.433   1.471   2.423
  957TIP3    H1 2814   6.460   1.407   2.490
  957TIP3    H2 2815   6.466   1.555   2.456
  958TIP3   OH2 2816   2.665   7.118   5.696
  958TIP3    H1 2817   2.729   7.162   5.752
  958TIP3    H2 2818   2.616   7.062   5.756
  959TIP3   OH2 2819   3.646   0.133   4.895
  959TIP3    H1 2820   3.742   0.134   4.898
  959TIP3    H2 2821   3.623   0.218   4.856
  960TIP3   OH2 2822   3.437   2.302   2.837
  960TIP3    H1 2823   3.465   2.316   2.747
  960TIP3    H2 2824   3.517   2.310   2.889
  961TIP3   OH2 2825   1.031   7.305   6.022
  961TIP3    H1 2826   0.955   7.247   6.030
  961TIP3    H2 2827   1.101   7.249   5.988
  962TIP3   OH2 2828   3.375   5.980   0.565
  962TIP3    H1 2829   3.406   5.895   0.533
  962TIP3    H2 2830   3.452   6.036   0.561
  963TIP3   OH2 2831   1.727   5.687   0.652
  963TIP3    H1 2832   1.676   5.622   0.700
  963TIP3    H2 2833   1.757   5.748   0.719
  964TIP3   OH2 2834   4.767  -0.050   1.100
  964TIP3    H1 2835   4.770  -0.036   1.195
  964TIP3    H2 2836   4.764   0.038   1.063
  965TIP3   OH2 2837   6.235   0.859   5.713
  965TIP3    H1 2838   6.330   0.863   5.699
  965TIP3    H2 2839   6.226   0.811   5.796
  966TIP3   OH2 2840   1.716   4.769   3.541
  966TIP3    H1 2841   1.772   4.799   3.469
  966TIP3    H2 2842   1.722   4.838   3.607
  967TIP3   OH2 2843   7.574   1.224   6.597
  967TIP3    H1 2844   7.664   1.248   6.576
  967TIP3    H2 2845   7.546   1.288   6.662
  968TIP3   OH2 2846   0.700   1.208   2.452
  968TIP3    H1 2847   0.735   1.216   2.541
  968TIP3    H2 2848   0.631   1.141   2.459
  969TIP3   OH2 2849   5.262   4.968   6.277
  969TIP3    H1 2850   5.228   4.887   6.239
  969TIP3    H2 2851   5.215   4.977   6.360
  970TIP3   OH2 2852   0.147   4.289   1.227
  970TIP3    H1 2853   0.223   4.300   1.171
  970TIP3    H2 2854   0.167   4.212   1.280
  971TIP3   OH2 2855   3.936   6.052   4.282
  971TIP3    H1 2856   4.013   6.019   4.329
  971TIP3    H2 2857   3.927   6.143   4.311
  972TIP3   OH2 2858   3.064   7.754   4.989
  972TIP3    H1 2859   2.996   7.688   5.000
  972TIP3    H2 2860   3.080   7.786   5.078
  973TIP3   OH2 2861   0.433   1.891   6.226
  973TIP3    H1 2862   0.509   1.945   6.205
  973TIP3    H2 2863   0.470   1.804   6.245
  974TIP3   OH2 2864   2.066   1.775   2.777
  974TIP3    H1 2865   2.119   1.791   2.699
  974TIP3    H2 2866   2.105   1.698   2.818
  975TIP3   OH2 2867   0.553   0.199   2.878
  975TIP3    H1 2868   0.505   0.189   2.796
  975TIP3    H2 2869   0.486   0.197   2.946
  976TIP3   OH2 2870   4.869   2.588   4.445
  976TIP3    H1 2871   4.865   2.495   4.466
  976TIP3    H2 2872   4.951   2.597   4.395
  977TIP3   OH2 2873   4.341   0.201   4.246
  977TIP3    H1 2874   4.422   0.247   4.268
  977TIP3    H2 2875   4.272   0.259   4.277
  978TIP3   OH2 2876   2.940   4.452   3.526
  978TIP3    H1 2877   2.871   4.510   3.492
  978TIP3    H2 2878   2.999   4.440   3.451
  979TIP3   OH2 2879   2.468   5.025   1.510
  979TIP3    H1 2880   2.486   5.117   1.530
  979TIP3    H2 2881   2.401   5.028   1.442
  980TIP3   OH2 2882   2.341   4.106   3.144
  980TIP3    H1 2883   2.281   4.178   3.122
  980TIP3    H2 2884   2.383   4.134   3.225
  981TIP3   OH2 2885   2.527   3.359   0.241
  981TIP3    H1 2886   2.594   3.332   0.178
  981TIP3    H2 2887   2.450   3.376   0.187
  982TIP3   OH2 2888   1.427   7.329   2.912
  982TIP3    H1 2889   1.521   7.313   2.899
  982TIP3    H2 2890   1.413   7.310   3.005
  983TIP3   OH2 2891   5.933   5.301   6.177
  983TIP3    H1 2892   5.862   5.365   6.171
  983TIP3    H2 2893   5.893   5.223   6.215
  984TIP3   OH2 2894   2.515   6.543   4.500
  984TIP3    H1 2895   2.539   6.501   4.582
  984TIP3    H2 2896   2.598   6.561   4.457
  985TIP3   OH2 2897   0.715   1.980   6.186
  985TIP3    H1 2898   0.761   2.048   6.136
  985TIP3    H2 2899   0.739   1.998   6.277
  986TIP3   OH2 2900   3.837   3.967   0.406
  986TIP3    H1 2901   3.804   4.042   0.355
  986TIP3    H2 2902   3.843   4.000   0.495
  987TIP3   OH2 2903   6.201   5.182   6.772
  987TIP3    H1 2904   6.189   5.094   6.737
  987TIP3    H2 2905   6.234   5.233   6.698
  988TIP3   OH2 2906   6.068   4.038   3.854
  988TIP3    H1 2907   6.162   4.051   3.843
  988TIP3    H2 2908   6.028   4.103   3.795
  989TIP3   OH2 2909   7.923   3.265   1.949
  989TIP3    H1 2910   7.849   3.279   2.008
  989TIP3    H2 2911   7.969   3.189   1.986
  990TIP3   OH2 2912   4.554   3.622   1.579
  990TIP3    H1 2913   4.643   3.587   1.575
  990TIP3    H2 2914   4.534   3.625   1.673
  991TIP3   OH2 2915   3.861   7.007   1.596
  991TIP3    H1 2916   3.891   7.088   1.637
  991TIP3    H2 2917   3.784   6.981   1.646
  992TIP3   OH2 2918   1.496   3.312   4.967
  992TIP3    H1 2919   1.411   3.355   4.968
  992TIP3    H2 2920   1.477   3.220   4.986
  993TIP3   OH2 2921   1.997   6.337   3.694
  993TIP3    H1 2922   2.054   6.362   3.766
  993TIP3    H2 2923   2.024   6.393   3.621
  994TIP3   OH2 2924   1.880   5.806   2.759
  994TIP3    H1 2925   1.831   5.880   2.795
  994TIP3    H2 2926   1.929   5.771   2.833
  995TIP3   OH2 2927   4.031   5.872   0.470
  995TIP3    H1 2928   4.104   5.923   0.435
  995TIP3    H2 2929   4.050   5.782   0.444
  996TIP3   OH2 2930   2.818   7.314   0.819
  996TIP3    H1 2931   2.796   7.233   0.773
  996TIP3    H2 2932   2.810   7.292   0.912
  997TIP3   OH2 2933   8.058   2.645   1.067
  997TIP3    H1 2934   7.984   2.620   1.011
  997TIP3    H2 2935   8.093   2.725   1.028
  998TIP3   OH2 2936   8.163   7.373   6.342
  998TIP3    H1 2937   8.185   7.440   6.407
  998TIP3    H2 2938   8.220   7.299   6.365
  999TIP3   OH2 2939   6.944   5.751   3.443
  999TIP3    H1 2940   7.000   5.687   3.399
  999TIP3    H2 2941   6.958   5.735   3.536
 1000TIP3   OH2 2942   2.425   5.644   0.577
 1000TIP3    H1 2943   2.374   5.610   0.504
 1000TIP3    H2 2944   2.441   5.567   0.632
 1001TIP3   OH2 2945   1.582   1.769   4.841
 1001TIP3    H1 2946   1.554   1.836   4.903
 1001TIP3    H2 2947   1.617   1.699   4.895
 1002TIP3   OH2 2948   7.885   5.506   0.600
 1002TIP3    H1 2949   7.872   5.600   0.608
 1002TIP3    H2 2950   7.826   5.468   0.665
 1003TIP3   OH2 2951   1.079   7.041   5.148
 1003TIP3    H1 2952   1.065   7.117   5.204
 1003TIP3    H2 2953   0.991   7.017   5.118
 1004TIP3   OH2 2954   2.510   1.133   4.104
 1004TIP3    H1 2955   2.496   1.212   4.052
 1004TIP3    H2 2956   2.562   1.162   4.179
 1005TIP3   OH2 2957   4.983   7.448   1.565
 1005TIP3    H1 2958   4.945   7.361   1.577
 1005TIP3    H2 2959   4.908   7.508   1.573
 1006TIP3   OH2 2960   0.487   0.819   1.409
 1006TIP3    H1 2961   0.416   0.860   1.360
 1006TIP3    H2 2962   0.563   0.876   1.394
 1007TIP3   OH2 2963   6.934   7.120   2.541
 1007TIP3    H1 2964   6.928   7.183   2.613
 1007TIP3    H2 2965   7.024   7.088   2.545
 1008TIP3   OH2 2966   5.179   5.037   2.290
 1008TIP3    H1 2967   5.144   5.051   2.378
 1008TIP3    H2 2968   5.244   4.968   2.300
 1009TIP3   OH2 2969   1.573   1.964   0.653
 1009TIP3    H1 2970   1.527   1.924   0.727
 1009TIP3    H2 2971   1.636   1.898   0.625
 1010TIP3   OH2 2972   6.974   3.886   5.769
 1010TIP3    H1 2973   7.029   3.861   5.695
 1010TIP3    H2 2974   6.976   3.982   5.768
 1011TIP3   OH2 2975   3.206   1.377   5.297
 1011TIP3    H1 2976   3.276   1.316   5.321
 1011TIP3    H2 2977   3.251   1.456   5.270
 1012TIP3   OH2 2978   3.969   2.719   6.074
 1012TIP3    H1 2979   4.003   2.664   6.003
 1012TIP3    H2 2980   3.902   2.665   6.116
 1013TIP3   OH2 2981   4.522   0.190   5.849
 1013TIP3    H1 2982   4.452   0.249   5.820
 1013TIP3    H2 2983   4.571   0.171   5.769
 1014TIP3   OH2 2984   4.393   7.381   4.754
 1014TIP3    H1 2985   4.465   7.421   4.705
 1014TIP3    H2 2986   4.435   7.345   4.833
 1015TIP3   OH2 2987   4.853   2.582   6.084
 1015TIP3    H1 2988   4.795   2.507   6.101
 1015TIP3    H2 2989   4.913   2.583   6.158
 1016TIP3   OH2 2990   1.223   5.126   3.809
 1016TIP3    H1 2991   1.255   5.216   3.808
 1016TIP3    H2 2992   1.191   5.111   3.720
 1017TIP3   OH2 2993   5.704   0.002   0.380
 1017TIP3    H1 2994   5.651   0.049   0.316
 1017TIP3    H2 2995   5.688   0.049   0.463
 1018TIP3   OH2 2996   0.080   3.112   6.108
 1018TIP3    H1 2997   0.103   3.083   6.196
 1018TIP3    H2 2998   0.140   3.186   6.092
 1019TIP3   OH2 2999   1.989   1.563   0.531
 1019TIP3    H1 3000   1.987   1.599   0.620
 1019TIP3    H2 3001   1.932   1.621   0.481
 1020TIP3   OH2 3002   6.822   5.503   5.676
 1020TIP3    H1 3003   6.787   5.418   5.702
 1020TIP3    H2 3004   6.914   5.501   5.704
 1021TIP3   OH2 3005   3.425   5.447   0.078
 1021TIP3    H1 3006   3.451   5.538   0.068
 1021TIP3    H2 3007   3.408   5.416  -0.011
 1022TIP3   OH2 3008   4.120   6.783   2.671
 1022TIP3    H1 3009   4.201   6.826   2.697
 1022TIP3    H2 3010   4.078   6.845   2.611
 1023TIP3   OH2 3011  -0.027   6.821   6.755
 1023TIP3    H1 3012  -0.007   6.910   6.783
 1023TIP3    H2 3013   0.056   6.774   6.762
 1024TIP3   OH2 3014   0.255   6.411   6.588
 1024TIP3    H1 3015   0.253   6.426   6.493
 1024TIP3    H2 3016   0.204   6.331   6.600
 1025TIP3   OH2 3017   2.023   3.241   1.323
 1025TIP3    H1 3018   1.940   3.283   1.300
 1025TIP3    H2 3019   2.067   3.303   1.382
 1026TIP3   OH2 3020   6.313   7.016   6.011
 1026TIP3    H1 3021   6.278   7.101   6.039
 1026TIP3    H2 3022   6.267   6.998   5.929
 1027TIP3   OH2 3023   6.540   3.881   0.569
 1027TIP3    H1 3024   6.568   3.942   0.637
 1027TIP3    H2 3025   6.567   3.795   0.601
 1028TIP3   OH2 3026   3.819   1.586   5.000
 1028TIP3    H1 3027   3.737   1.585   5.049
 1028TIP3    H2 3028   3.796   1.624   4.915
 1029TIP3   OH2 3029   4.286   7.737   3.531
 1029TIP3    H1 3030   4.220   7.701   3.472
 1029TIP3    H2 3031   4.367   7.734   3.480
 1030TIP3   OH2 3032   6.228   4.192   5.068
 1030TIP3    H1 3033   6.148   4.139   5.071
 1030TIP3    H2 3034   6.263   4.189   5.157
 1031TIP3   OH2 3035   2.542   0.084   0.564
 1031TIP3    H1 3036   2.586   0.059   0.646
 1031TIP3    H2 3037   2.523   0.177   0.575
 1032TIP3   OH2 3038   3.557   5.554   0.950
 1032TIP3    H1 3039   3.569   5.628   1.009
 1032TIP3    H2 3040   3.544   5.479   1.008
 1033TIP3   OH2 3041   5.379   1.061   4.245
 1033TIP3    H1 3042   5.450   1.022   4.193
 1033TIP3    H2 3043   5.379   1.010   4.326
 1034TIP3   OH2 3044   6.903   0.458   6.143
 1034TIP3    H1 3045   6.952   0.538   6.162
 1034TIP3    H2 3046   6.958   0.387   6.176
 1035TIP3   OH2 3047   6.283   2.830   3.002
 1035TIP3    H1 3048   6.237   2.853   3.083
 1035TIP3    H2 3049   6.216   2.831   2.934
 1036TIP3   OH2 3050   0.153   3.500   0.684
 1036TIP3    H1 3051   0.228   3.482   0.741
 1036TIP3    H2 3052   0.104   3.569   0.729
 1037TIP3   OH2 3053   5.188   3.493   2.968
 1037TIP3    H1 3054   5.102   3.529   2.990
 1037TIP3    H2 3055   5.248   3.567   2.980
 1038TIP3   OH2 3056   7.769   0.250   1.893
 1038TIP3    H1 3057   7.839   0.279   1.835
 1038TIP3    H2 3058   7.775   0.154   1.891
 1039TIP3   OH2 3059   7.967   6.751   5.714
 1039TIP3    H1 3060   8.040   6.695   5.742
 1039TIP3    H2 3061   7.964   6.741   5.619
 1040TIP3   OH2 3062   8.265   2.663   3.355
 1040TIP3    H1 3063   8.271   2.607   3.277
 1040TIP3    H2 3064   8.298   2.748   3.325
 1041TIP3   OH2 3065   3.240   3.038   0.961
 1041TIP3    H1 3066   3.296   3.029   1.038
 1041TIP3    H2 3067   3.258   3.127   0.929
 1042TIP3   OH2 3068   0.376   6.179   3.871
 1042TIP3    H1 3069   0.304   6.125   3.836
 1042TIP3    H2 3070   0.336   6.264   3.889
 1043TIP3   OH2 3071   4.479   2.450   4.022
 1043TIP3    H1 3072   4.518   2.392   3.957
 1043TIP3    H2 3073   4.549   2.512   4.044
 1044TIP3   OH2 3074   3.485   3.304   5.344
 1044TIP3    H1 3075   3.447   3.385   5.379
 1044TIP3    H2 3076   3.484   3.243   5.418
 1045TIP3   OH2 3077   3.024   5.607   5.057
 1045TIP3    H1 3078   3.069   5.664   4.995
 1045TIP3    H2 3079   3.005   5.662   5.133
 1046TIP3   OH2 3080   2.666   2.629   2.121
 1046TIP3    H1 3081   2.675   2.623   2.026
 1046TIP3    H2 3082   2.715   2.554   2.155
 1047TIP3   OH2 3083   3.916   0.477   0.704
 1047TIP3    H1 3084   3.833   0.431   0.715
 1047TIP3    H2 3085   3.951   0.484   0.793
 1048TIP3   OH2 3086   5.389   0.278   5.662
 1048TIP3    H1 3087   5.371   0.338   5.590
 1048TIP3    H2 3088   5.454   0.217   5.627
 1049TIP3   OH2 3089   0.257   0.159   1.028
 1049TIP3    H1 3090   0.177   0.159   1.081
 1049TIP3    H2 3091   0.327   0.143   1.091
 1050TIP3   OH2 3092   1.799   5.107   2.746
 1050TIP3    H1 3093   1.768   5.155   2.669
 1050TIP3    H2 3094   1.739   5.033   2.754
 1051TIP3   OH2 3095   6.832   5.752   5.291
 1051TIP3    H1 3096   6.808   5.686   5.357
 1051TIP3    H2 3097   6.882   5.703   5.226
 1052TIP3   OH2 3098   5.906   2.889   3.553
 1052TIP3    H1 3099   5.818   2.879   3.591
 1052TIP3    H2 3100   5.962   2.908   3.628
 1053TIP3   OH2 3101   1.047   2.067   5.877
 1053TIP3    H1 3102   0.976   2.018   5.834
 1053TIP3    H2 3103   1.061   2.142   5.820
 1054TIP3   OH2 3104   7.668   4.403   1.617
 1054TIP3    H1 3105   7.763   4.412   1.603
 1054TIP3    H2 3106   7.653   4.309   1.617
 1055TIP3   OH2 3107   1.938   3.048   4.821
 1055TIP3    H1 3108   1.907   3.030   4.732
 1055TIP3    H2 3109   1.888   3.125   4.849
 1056TIP3   OH2 3110   1.933   1.309   0.467
 1056TIP3    H1 3111   1.920   1.292   0.560
 1056TIP3    H2 3112   1.945   1.404   0.461
 1057TIP3   OH2 3113   5.924   6.600   0.064
 1057TIP3    H1 3114   6.018   6.612   0.076
 1057TIP3    H2 3115   5.887   6.619   0.150
 1058TIP3   OH2 3116   6.446   5.765   0.988
 1058TIP3    H1 3117   6.530   5.807   0.971
 1058TIP3    H2 3118   6.381   5.835   0.976
 1059TIP3   OH2 3119   6.225   2.012   0.991
 1059TIP3    H1 3120   6.225   2.096   0.947
 1059TIP3    H2 3121   6.133   1.994   1.010
 1060TIP3   OH2 3122   0.588   6.563   4.166
 1060TIP3    H1 3123   0.546   6.478   4.180
 1060TIP3    H2 3124   0.677   6.542   4.139
 1061TIP3   OH2 3125   6.691   4.741   1.913
 1061TIP3    H1 3126   6.668   4.805   1.980
 1061TIP3    H2 3127   6.686   4.656   1.957
 1062TIP3   OH2 3128   7.534   5.879   5.596
 1062TIP3    H1 3129   7.568   5.880   5.507
 1062TIP3    H2 3130   7.557   5.965   5.632
 1063TIP3   OH2 3131   3.833   0.776   5.434
 1063TIP3    H1 3132   3.828   0.693   5.481
 1063TIP3    H2 3133   3.745   0.791   5.400
 1064TIP3   OH2 3134   6.332   1.115   6.634
 1064TIP3    H1 3135   6.416   1.105   6.591
 1064TIP3    H2 3136   6.351   1.103   6.727
 1065TIP3   OH2 3137   3.989   5.420   4.543
 1065TIP3    H1 3138   4.008   5.379   4.458
 1065TIP3    H2 3139   3.900   5.453   4.534
 1066TIP3   OH2 3140   2.745   0.512   3.141
 1066TIP3    H1 3141   2.690   0.580   3.179
 1066TIP3    H2 3142   2.755   0.538   3.049
 1067TIP3   OH2 3143   2.100   2.976   1.360
 1067TIP3    H1 3144   2.010   2.946   1.372
 1067TIP3    H2 3145   2.093   3.071   1.350
 1068TIP3   OH2 3146   7.372   6.962   5.377
 1068TIP3    H1 3147   7.416   7.047   5.383
 1068TIP3    H2 3148   7.281   6.983   5.360
 1069TIP3   OH2 3149   1.949   6.406   4.197
 1069TIP3    H1 3150   1.885   6.352   4.245
 1069TIP3    H2 3151   1.956   6.486   4.249
 1070TIP3   OH2 3152   5.141   0.304   5.788
 1070TIP3    H1 3153   5.212   0.280   5.728
 1070TIP3    H2 3154   5.178   0.372   5.843
 1071TIP3   OH2 3155   6.052   6.640   3.134
 1071TIP3    H1 3156   6.071   6.705   3.066
 1071TIP3    H2 3157   6.031   6.692   3.212
 1072TIP3   OH2 3158   7.707   1.842   6.113
 1072TIP3    H1 3159   7.622   1.832   6.156
 1072TIP3    H2 3160   7.748   1.755   6.119
 1073TIP3   OH2 3161   5.264   2.631   6.349
 1073TIP3    H1 3162   5.257   2.541   6.382
 1073TIP3    H2 3163   5.258   2.686   6.427
 1074TIP3   OH2 3164   4.033   0.557   0.955
 1074TIP3    H1 3165   4.068   0.575   1.043
 1074TIP3    H2 3166   4.074   0.623   0.899
 1075TIP3   OH2 3167   7.055   4.618   3.991
 1075TIP3    H1 3168   7.015   4.536   4.020
 1075TIP3    H2 3169   7.050   4.614   3.895
 1076TIP3   OH2 3170   1.458   4.744   0.532
 1076TIP3    H1 3171   1.433   4.825   0.487
 1076TIP3    H2 3172   1.445   4.675   0.467
 1077TIP3   OH2 3173   0.268   1.422   4.944
 1077TIP3    H1 3174   0.343   1.445   4.999
 1077TIP3    H2 3175   0.306   1.390   4.862
 1078TIP3   OH2 3176   1.756   1.896   6.275
 1078TIP3    H1 3177   1.710   1.943   6.204
 1078TIP3    H2 3178   1.722   1.807   6.271
 1079TIP3   OH2 3179   4.961   4.408   2.210
 1079TIP3    H1 3180   5.024   4.376   2.146
 1079TIP3    H2 3181   4.876   4.398   2.168
 1080TIP3   OH2 3182   1.174   2.758   0.171
 1080TIP3    H1 3183   1.137   2.670   0.175
 1080TIP3    H2 3184   1.099   2.816   0.161
 1081TIP3   OH2 3185   7.778   6.035   6.350
 1081TIP3    H1 3186   7.780   6.084   6.432
 1081TIP3    H2 3187   7.687   6.006   6.342
 1082TIP3   OH2 3188   0.186   2.101   5.159
 1082TIP3    H1 3189   0.099   2.062   5.154
 1082TIP3    H2 3190   0.240   2.049   5.099
 1083TIP3   OH2 3191   2.119   6.485   1.085
 1083TIP3    H1 3192   2.084   6.569   1.115
 1083TIP3    H2 3193   2.151   6.443   1.165
 1084TIP3   OH2 3194   3.587   0.610   1.217
 1084TIP3    H1 3195   3.502   0.580   1.248
 1084TIP3    H2 3196   3.638   0.627   1.296
 1085TIP3   OH2 3197   4.157   6.915   1.935
 1085TIP3    H1 3198   4.128   6.934   1.846
 1085TIP3    H2 3199   4.225   6.979   1.952
 1086TIP3   OH2 3200   3.238   4.387   5.544
 1086TIP3    H1 3201   3.293   4.379   5.621
 1086TIP3    H2 3202   3.278   4.329   5.480
 1087TIP3   OH2 3203   2.528   3.681   6.651
 1087TIP3    H1 3204   2.450   3.705   6.700
 1087TIP3    H2 3205   2.506   3.698   6.559
 1088TIP3   OH2 3206   3.379   7.771   1.924
 1088TIP3    H1 3207   3.316   7.827   1.879
 1088TIP3    H2 3208   3.403   7.705   1.859
 1089TIP3   OH2 3209   3.660   1.104   0.576
 1089TIP3    H1 3210   3.567   1.108   0.595
 1089TIP3    H2 3211   3.680   1.010   0.575
 1090TIP3   OH2 3212   8.191   5.769   0.023
 1090TIP3    H1 3213   8.234   5.690   0.055
 1090TIP3    H2 3214   8.103   5.766   0.061
 1091TIP3   OH2 3215   8.071   2.570   2.131
 1091TIP3    H1 3216   8.037   2.626   2.062
 1091TIP3    H2 3217   7.995   2.552   2.187
 1092TIP3   OH2 3218   0.134   3.952   3.750
 1092TIP3    H1 3219   0.206   3.893   3.727
 1092TIP3    H2 3220   0.114   3.930   3.841
 1093TIP3   OH2 3221   4.503   2.018   1.211
 1093TIP3    H1 3222   4.588   2.045   1.178
 1093TIP3    H2 3223   4.491   1.929   1.176
 1094TIP3   OH2 3224   7.794   6.926   3.597
 1094TIP3    H1 3225   7.806   6.852   3.657
 1094TIP3    H2 3226   7.883   6.954   3.575
 1095TIP3   OH2 3227   1.887   3.723   3.060
 1095TIP3    H1 3228   1.974   3.688   3.073
 1095TIP3    H2 3229   1.895   3.781   2.984
 1096TIP3   OH2 3230   2.310   5.179   3.406
 1096TIP3    H1 3231   2.272   5.174   3.318
 1096TIP3    H2 3232   2.251   5.127   3.460
 1097TIP3   OH2 3233   5.854   7.089   4.272
 1097TIP3    H1 3234   5.832   6.996   4.263
 1097TIP3    H2 3235   5.947   7.089   4.296
 1098TIP3   OH2 3236   4.320   5.080   5.848
 1098TIP3    H1 3237   4.345   5.064   5.758
 1098TIP3    H2 3238   4.323   5.175   5.857
 1099TIP3   OH2 3239   2.840   2.010   5.273
 1099TIP3    H1 3240   2.929   2.007   5.308
 1099TIP3    H2 3241   2.790   1.949   5.327
 1100TIP3   OH2 3242   0.536   1.039   1.799
 1100TIP3    H1 3243   0.469   1.000   1.743
 1100TIP3    H2 3244   0.527   0.995   1.883
 1101TIP3   OH2 3245   1.135   4.980   6.165
 1101TIP3    H1 3246   1.081   4.908   6.130
 1101TIP3    H2 3247   1.074   5.054   6.170
 1102TIP3   OH2 3248   4.101   5.593   6.390
 1102TIP3    H1 3249   4.074   5.675   6.348
 1102TIP3    H2 3250   4.197   5.600   6.395
 1103TIP3   OH2 3251   4.682   4.139   1.714
 1103TIP3    H1 3252   4.696   4.095   1.798
 1103TIP3    H2 3253   4.770   4.163   1.685
 1104TIP3   OH2 3254   5.874   4.982   2.760
 1104TIP3    H1 3255   5.958   5.022   2.780
 1104TIP3    H2 3256   5.810   5.053   2.769
 1105TIP3   OH2 3257   3.391   1.792   3.920
 1105TIP3    H1 3258   3.358   1.705   3.900
 1105TIP3    H2 3259   3.482   1.792   3.890
 1106TIP3   OH2 3260   6.197   4.479   0.707
 1106TIP3    H1 3261   6.113   4.482   0.662
 1106TIP3    H2 3262   6.227   4.569   0.709
 1107TIP3   OH2 3263   5.912   6.851   0.966
 1107TIP3    H1 3264   5.855   6.866   0.890
 1107TIP3    H2 3265   6.001   6.855   0.931
 1108TIP3   OH2 3266   6.455   2.113   0.439
 1108TIP3    H1 3267   6.452   2.095   0.345
 1108TIP3    H2 3268   6.538   2.160   0.452
 1109TIP3   OH2 3269   8.033   7.294   1.056
 1109TIP3    H1 3270   8.010   7.387   1.058
 1109TIP3    H2 3271   7.958   7.250   1.096
 1110TIP3   OH2 3272   4.420   3.118   0.524
 1110TIP3    H1 3273   4.361   3.042   0.517
 1110TIP3    H2 3274   4.421   3.139   0.617
 1111TIP3   OH2 3275   4.163   4.912   3.377
 1111TIP3    H1 3276   4.256   4.886   3.377
 1111TIP3    H2 3277   4.164   5.005   3.395
 1112TIP3   OH2 3278   4.582   7.454   6.748
 1112TIP3    H1 3279   4.597   7.361   6.765
 1112TIP3    H2 3280   4.624   7.470   6.663
 1113TIP3   OH2 3281   6.154   6.570   1.657
 1113TIP3    H1 3282   6.169   6.643   1.718
 1113TIP3    H2 3283   6.228   6.575   1.596
 1114TIP3   OH2 3284   3.376   5.147   5.981
 1114TIP3    H1 3285   3.283   5.153   5.961
 1114TIP3    H2 3286   3.388   5.203   6.057
 1115TIP3   OH2 3287   3.586   5.342   2.391
 1115TIP3    H1 3288   3.662   5.400   2.393
 1115TIP3    H2 3289   3.599   5.282   2.464
 1116TIP3   OH2 3290   6.284   4.184   5.679
 1116TIP3    H1 3291   6.272   4.092   5.658
 1116TIP3    H2 3292   6.371   4.206   5.645
 1117TIP3   OH2 3293   4.852   0.752   6.570
 1117TIP3    H1 3294   4.939   0.754   6.609
 1117TIP3    H2 3295   4.862   0.700   6.490
 1118TIP3   OH2 3296   7.568   3.508   3.002
 1118TIP3    H1 3297   7.503   3.554   3.055
 1118TIP3    H2 3298   7.581   3.565   2.926
 1119TIP3   OH2 3299   6.249   6.470   3.295
 1119TIP3    H1 3300   6.299   6.545   3.327
 1119TIP3    H2 3301   6.204   6.503   3.217
 1120TIP3   OH2 3302   7.623   5.159   5.464
 1120TIP3    H1 3303   7.613   5.151   5.369
 1120TIP3    H2 3304   7.717   5.165   5.478
 1121TIP3   OH2 3305   3.870   3.619   0.581
 1121TIP3    H1 3306   3.845   3.610   0.489
 1121TIP3    H2 3307   3.961   3.590   0.584
 1122TIP3   OH2 3308   0.177   6.586   0.692
 1122TIP3    H1 3309   0.083   6.571   0.696
 1122TIP3    H2 3310   0.191   6.626   0.605
 1123TIP3   OH2 3311   1.861   6.267   0.349
 1123TIP3    H1 3312   1.890   6.348   0.307
 1123TIP3    H2 3313   1.865   6.201   0.280
 1124TIP3   OH2 3314   3.461   2.982   4.837
 1124TIP3    H1 3315   3.517   3.057   4.818
 1124TIP3    H2 3316   3.522   2.912   4.859
 1125TIP3   OH2 3317   0.517   0.459   4.271
 1125TIP3    H1 3318   0.590   0.466   4.331
 1125TIP3    H2 3319   0.459   0.532   4.294
 1126TIP3   OH2 3320   4.978   6.343   4.486
 1126TIP3    H1 3321   4.905   6.403   4.475
 1126TIP3    H2 3322   4.949   6.262   4.443
 1127TIP3   OH2 3323   1.386   3.424   4.267
 1127TIP3    H1 3324   1.465   3.447   4.218
 1127TIP3    H2 3325   1.414   3.358   4.330
 1128TIP3   OH2 3326   1.355   0.521   5.997
 1128TIP3    H1 3327   1.333   0.580   6.069
 1128TIP3    H2 3328   1.311   0.439   6.020
 1129TIP3   OH2 3329   5.809   5.921   3.032
 1129TIP3    H1 3330   5.836   5.917   3.123
 1129TIP3    H2 3331   5.854   5.998   2.997
 1130TIP3   OH2 3332   3.391   6.513   2.539
 1130TIP3    H1 3333   3.295   6.508   2.535
 1130TIP3    H2 3334   3.417   6.436   2.589
 1131TIP3   OH2 3335   6.645   6.439   6.432
 1131TIP3    H1 3336   6.701   6.373   6.473
 1131TIP3    H2 3337   6.626   6.402   6.345
 1132TIP3   OH2 3338   4.608   4.550   2.950
 1132TIP3    H1 3339   4.610   4.637   2.990
 1132TIP3    H2 3340   4.589   4.491   3.023
 1133TIP3   OH2 3341   5.697   4.602   2.702
 1133TIP3    H1 3342   5.787   4.626   2.680
 1133TIP3    H2 3343   5.667   4.549   2.629
 1134TIP3   OH2 3344   4.633   7.287   1.581
 1134TIP3    H1 3345   4.644   7.192   1.585
 1134TIP3    H2 3346   4.689   7.315   1.508
 1135TIP3   OH2 3347   7.800   3.527   4.834
 1135TIP3    H1 3348   7.803   3.585   4.758
 1135TIP3    H2 3349   7.707   3.503   4.842
 1136TIP3   OH2 3350   2.301   0.266   4.490
 1136TIP3    H1 3351   2.241   0.296   4.558
 1136TIP3    H2 3352   2.266   0.181   4.462
 1137TIP3   OH2 3353   1.012   0.458   1.513
 1137TIP3    H1 3354   0.925   0.451   1.551
 1137TIP3    H2 3355   1.049   0.538   1.550
 1138TIP3   OH2 3356   7.291   0.553   5.294
 1138TIP3    H1 3357   7.261   0.465   5.271
 1138TIP3    H2 3358   7.386   0.550   5.283
 1139TIP3   OH2 3359   2.111   1.770   0.249
 1139TIP3    H1 3360   2.158   1.840   0.203
 1139TIP3    H2 3361   2.150   1.768   0.336
 1140TIP3   OH2 3362   4.998   0.973   2.575
 1140TIP3    H1 3363   4.960   1.060   2.586
 1140TIP3    H2 3364   4.922   0.915   2.567
 1141TIP3   OH2 3365   4.458   3.229   3.979
 1141TIP3    H1 3366   4.426   3.315   3.952
 1141TIP3    H2 3367   4.380   3.182   4.006
 1142TIP3   OH2 3368   4.258   6.466   3.835
 1142TIP3    H1 3369   4.257   6.436   3.926
 1142TIP3    H2 3370   4.166   6.480   3.814
 1143TIP3   OH2 3371   2.867   0.097   5.778
 1143TIP3    H1 3372   2.877   0.187   5.746
 1143TIP3    H2 3373   2.950   0.055   5.759
 1144TIP3   OH2 3374   3.244   5.041   4.590
 1144TIP3    H1 3375   3.201   5.049   4.674
 1144TIP3    H2 3376   3.214   4.957   4.555
 1145TIP3   OH2 3377   4.265   6.740   3.101
 1145TIP3    H1 3378   4.355   6.708   3.112
 1145TIP3    H2 3379   4.220   6.669   3.056
 1146TIP3   OH2 3380   4.431   1.584   5.497
 1146TIP3    H1 3381   4.432   1.679   5.513
 1146TIP3    H2 3382   4.523   1.559   5.493
 1147TIP3   OH2 3383   4.169   2.368   5.468
 1147TIP3    H1 3384   4.078   2.351   5.445
 1147TIP3    H2 3385   4.167   2.391   5.560
 1148TIP3   OH2 3386   1.464   3.133   0.529
 1148TIP3    H1 3387   1.535   3.187   0.564
 1148TIP3    H2 3388   1.508   3.054   0.496
 1149TIP3   OH2 3389   2.826   3.807   5.156
 1149TIP3    H1 3390   2.819   3.713   5.139
 1149TIP3    H2 3391   2.806   3.849   5.071
 1150TIP3   OH2 3392   0.993   0.572   3.086
 1150TIP3    H1 3393   0.976   0.584   2.993
 1150TIP3    H2 3394   0.939   0.637   3.130
 1151TIP3   OH2 3395   2.199   3.333   5.422
 1151TIP3    H1 3396   2.193   3.238   5.434
 1151TIP3    H2 3397   2.156   3.350   5.338
 1152TIP3   OH2 3398   6.724   4.263   5.956
 1152TIP3    H1 3399   6.666   4.334   5.928
 1152TIP3    H2 3400   6.669   4.184   5.952
 1153TIP3   OH2 3401   5.720   5.225   5.348
 1153TIP3    H1 3402   5.750   5.156   5.289
 1153TIP3    H2 3403   5.800   5.261   5.386
 1154TIP3   OH2 3404   0.533   7.783   2.653
 1154TIP3    H1 3405   0.550   7.796   2.560
 1154TIP3    H2 3406   0.516   7.690   2.662
 1155TIP3   OH2 3407   3.638   0.041   0.740
 1155TIP3    H1 3408   3.719   0.000   0.771
 1155TIP3    H2 3409   3.652   0.135   0.754
 1156TIP3   OH2 3410   8.048   6.796   3.973
 1156TIP3    H1 3411   7.986   6.780   3.902
 1156TIP3    H2 3412   8.134   6.789   3.932
 1157TIP3   OH2 3413   1.458   3.567   5.821
 1157TIP3    H1 3414   1.389   3.575   5.755
 1157TIP3    H2 3415   1.483   3.657   5.840
 1158TIP3   OH2 3416   8.013   2.761   2.898
 1158TIP3    H1 3417   8.061   2.682   2.921
 1158TIP3    H2 3418   8.032   2.823   2.968
 1159TIP3   OH2 3419   6.504   5.251   3.878
 1159TIP3    H1 3420   6.490   5.284   3.790
 1159TIP3    H2 3421   6.483   5.158   3.872
 1160TIP3   OH2 3422   8.164   2.817   2.455
 1160TIP3    H1 3423   8.158   2.858   2.542
 1160TIP3    H2 3424   8.113   2.737   2.464
 1161TIP3   OH2 3425   2.209   0.063   6.025
 1161TIP3    H1 3426   2.266   0.068   6.102
 1161TIP3    H2 3427   2.227   0.144   5.977
 1162TIP3   OH2 3428   1.170   0.237   0.476
 1162TIP3    H1 3429   1.260   0.268   0.491
 1162TIP3    H2 3430   1.115   0.305   0.515
 1163TIP3   OH2 3431   5.995   2.439   2.880
 1163TIP3    H1 3432   6.028   2.511   2.827
 1163TIP3    H2 3433   5.975   2.369   2.817
 1164TIP3   OH2 3434   7.315   4.352   0.584
 1164TIP3    H1 3435   7.240   4.407   0.606
 1164TIP3    H2 3436   7.317   4.285   0.653
 1165TIP3   OH2 3437   8.223   7.062   5.020
 1165TIP3    H1 3438   8.231   7.026   4.931
 1165TIP3    H2 3439   8.131   7.051   5.042
 1166TIP3   OH2 3440   6.807   0.874   3.927
 1166TIP3    H1 3441   6.861   0.836   3.858
 1166TIP3    H2 3442   6.859   0.946   3.962
 1167TIP3   OH2 3443   3.108   1.965   0.879
 1167TIP3    H1 3444   3.068   1.904   0.941
 1167TIP3    H2 3445   3.036   1.990   0.820
 1168TIP3   OH2 3446   2.361   4.529   1.094
 1168TIP3    H1 3447   2.374   4.569   1.008
 1168TIP3    H2 3448   2.434   4.561   1.147
 1169TIP3   OH2 3449   5.577   2.891   3.505
 1169TIP3    H1 3450   5.615   2.832   3.570
 1169TIP3    H2 3451   5.488   2.858   3.490
 1170TIP3   OH2 3452   1.426   2.758   1.240
 1170TIP3    H1 3453   1.344   2.711   1.233
 1170TIP3    H2 3454   1.443   2.762   1.334
 1171TIP3   OH2 3455   2.015   0.769   3.266
 1171TIP3    H1 3456   1.928   0.755   3.304
 1171TIP3    H2 3457   2.013   0.719   3.185
 1172TIP3   OH2 3458   6.644   6.378   4.046
 1172TIP3    H1 3459   6.695   6.304   4.013
 1172TIP3    H2 3460   6.623   6.429   3.968
 1173TIP3   OH2 3461   5.314   4.902   1.952
 1173TIP3    H1 3462   5.277   4.902   1.864
 1173TIP3    H2 3463   5.323   4.995   1.975
 1174TIP3   OH2 3464   6.066   0.700   0.837
 1174TIP3    H1 3465   6.153   0.661   0.832
 1174TIP3    H2 3466   6.015   0.656   0.769
 1175TIP3   OH2 3467   4.480   6.306   2.941
 1175TIP3    H1 3468   4.450   6.234   2.886
 1175TIP3    H2 3469   4.462   6.278   3.030
 1176TIP3   OH2 3470   7.299   6.320   2.620
 1176TIP3    H1 3471   7.304   6.328   2.525
 1176TIP3    H2 3472   7.219   6.268   2.635
 1177TIP3   OH2 3473   2.244   1.758   4.651
 1177TIP3    H1 3474   2.250   1.818   4.576
 1177TIP3    H2 3475   2.333   1.756   4.686
 1178TIP3   OH2 3476   2.292   4.542   3.398
 1178TIP3    H1 3477   2.235   4.589   3.459
 1178TIP3    H2 3478   2.297   4.454   3.434
 1179TIP3   OH2 3479   2.797   7.043   3.896
 1179TIP3    H1 3480   2.725   7.074   3.841
 1179TIP3    H2 3481   2.837   7.123   3.930
 1180TIP3   OH2 3482   5.379   2.400   4.506
 1180TIP3    H1 3483   5.373   2.306   4.489
 1180TIP3    H2 3484   5.452   2.409   4.567
 1181TIP3   OH2 3485   1.092   3.674   6.265
 1181TIP3    H1 3486   1.066   3.715   6.183
 1181TIP3    H2 3487   1.019   3.690   6.325
 1182TIP3   OH2 3488   4.707   1.362   5.880
 1182TIP3    H1 3489   4.629   1.408   5.847
 1182TIP3    H2 3490   4.757   1.341   5.801
 1183TIP3   OH2 3491   5.687   6.631   6.200
 1183TIP3    H1 3492   5.774   6.669   6.212
 1183TIP3    H2 3493   5.643   6.644   6.284
 1184TIP3   OH2 3494   5.384   0.204   2.628
 1184TIP3    H1 3495   5.453   0.212   2.694
 1184TIP3    H2 3496   5.429   0.220   2.545
 1185TIP3   OH2 3497   1.399   6.851   3.705
 1185TIP3    H1 3498   1.482   6.843   3.752
 1185TIP3    H2 3499   1.392   6.944   3.684
 1186TIP3   OH2 3500   3.698   2.576   4.129
 1186TIP3    H1 3501   3.678   2.618   4.046
 1186TIP3    H2 3502   3.676   2.642   4.195
 1187TIP3   OH2 3503   3.603   5.877   5.204
 1187TIP3    H1 3504   3.538   5.815   5.172
 1187TIP3    H2 3505   3.610   5.943   5.135
 1188TIP3   OH2 3506   5.654   2.564   2.620
 1188TIP3    H1 3507   5.696   2.611   2.548
 1188TIP3    H2 3508   5.690   2.603   2.699
 1189TIP3   OH2 3509   7.686   5.071   1.622
 1189TIP3    H1 3510   7.646   4.986   1.639
 1189TIP3    H2 3511   7.713   5.103   1.708
 1190TIP3   OH2 3512   3.004   6.782   4.531
 1190TIP3    H1 3513   3.049   6.816   4.608
 1190TIP3    H2 3514   2.911   6.788   4.553
 1191TIP3   OH2 3515   0.896   2.368   4.297
 1191TIP3    H1 3516   0.908   2.432   4.227
 1191TIP3    H2 3517   0.801   2.365   4.311
 1192TIP3   OH2 3518   4.819   7.007   2.582
 1192TIP3    H1 3519   4.819   6.919   2.543
 1192TIP3    H2 3520   4.863   6.995   2.667
 1193TIP3   OH2 3521   4.673   7.678   3.782
 1193TIP3    H1 3522   4.598   7.620   3.765
 1193TIP3    H2 3523   4.669   7.742   3.710
 1194TIP3   OH2 3524   5.274   1.098   5.905
 1194TIP3    H1 3525   5.345   1.153   5.939
 1194TIP3    H2 3526   5.318   1.019   5.874
 1195TIP3   OH2 3527   2.780   5.408   4.809
 1195TIP3    H1 3528   2.762   5.317   4.831
 1195TIP3    H2 3529   2.699   5.454   4.827
 1196TIP3   OH2 3530   0.581   6.409   3.833
 1196TIP3    H1 3531   0.625   6.487   3.799
 1196TIP3    H2 3532   0.643   6.372   3.896
 1197TIP3   OH2 3533   0.457   1.433   0.905
 1197TIP3    H1 3534   0.503   1.403   0.983
 1197TIP3    H2 3535   0.526   1.465   0.847
 1198TIP3   OH2 3536   5.432   7.785   3.383
 1198TIP3    H1 3537   5.427   7.793   3.478
 1198TIP3    H2 3538   5.479   7.864   3.355
 1199TIP3   OH2 3539   5.612   1.747   0.136
 1199TIP3    H1 3540   5.677   1.692   0.181
 1199TIP3    H2 3541   5.528   1.710   0.162
 1200TIP3   OH2 3542   7.221   0.390   4.342
 1200TIP3    H1 3543   7.135   0.401   4.302
 1200TIP3    H2 3544   7.282   0.426   4.278
 1201TIP3   OH2 3545   5.834   1.507   6.094
 1201TIP3    H1 3546   5.912   1.460   6.064
 1201TIP3    H2 3547   5.816   1.570   6.024
 1202TIP3   OH2 3548   3.443   0.883   2.873
 1202TIP3    H1 3549   3.459   0.904   2.781
 1202TIP3    H2 3550   3.504   0.812   2.893
 1203TIP3   OH2 3551   7.016   7.404   5.728
 1203TIP3    H1 3552   7.032   7.401   5.822
 1203TIP3    H2 3553   6.946   7.340   5.714
 1204TIP3   OH2 3554   1.025   6.561   4.428
 1204TIP3    H1 3555   1.041   6.475   4.467
 1204TIP3    H2 3556   1.108   6.607   4.436
 1205TIP3   OH2 3557   6.939   6.780   1.783
 1205TIP3    H1 3558   6.898   6.860   1.817
 1205TIP3    H2 3559   6.918   6.713   1.847
 1206TIP3   OH2 3560   0.121   4.069   0.630
 1206TIP3    H1 3561   0.116   4.156   0.588
 1206TIP3    H2 3562   0.031   4.051   0.657
 1207TIP3   OH2 3563   2.180   4.913   5.764
 1207TIP3    H1 3564   2.265   4.888   5.799
 1207TIP3    H2 3565   2.182   4.886   5.673
 1208TIP3   OH2 3566   0.743   2.932   0.342
 1208TIP3    H1 3567   0.706   2.886   0.418
 1208TIP3    H2 3568   0.829   2.961   0.371
 1209TIP3   OH2 3569   3.881   0.792   2.800
 1209TIP3    H1 3570   3.950   0.734   2.830
 1209TIP3    H2 3571   3.889   0.870   2.855
 1210TIP3   OH2 3572   0.052   3.251   3.598
 1210TIP3    H1 3573  -0.004   3.274   3.524
 1210TIP3    H2 3574  -0.005   3.201   3.657
 1211TIP3   OH2 3575   8.149   1.182   4.334
 1211TIP3    H1 3576   8.238   1.208   4.312
 1211TIP3    H2 3577   8.098   1.262   4.327
 1212TIP3   OH2 3578   7.578   0.905   2.440
 1212TIP3    H1 3579   7.489   0.880   2.413
 1212TIP3    H2 3580   7.565   0.972   2.507
 1213TIP3   OH2 3581   3.387   3.867   2.166
 1213TIP3    H1 3582   3.457   3.816   2.125
 1213TIP3    H2 3583   3.318   3.871   2.100
 1214TIP3   OH2 3584   6.674   3.920   6.136
 1214TIP3    H1 3585   6.675   3.917   6.040
 1214TIP3    H2 3586   6.601   3.977   6.158
 1215TIP3   OH2 3587   0.842   2.727   1.050
 1215TIP3    H1 3588   0.747   2.729   1.043
 1215TIP3    H2 3589   0.873   2.765   0.968
 1216TIP3   OH2 3590   2.900   2.387   0.555
 1216TIP3    H1 3591   2.976   2.395   0.612
 1216TIP3    H2 3592   2.835   2.340   0.607
 1217TIP3   OH2 3593   8.185   1.025   3.987
 1217TIP3    H1 3594   8.137   0.995   4.064
 1217TIP3    H2 3595   8.126   1.009   3.914
 1218TIP3   OH2 3596   7.050   5.069   0.638
 1218TIP3    H1 3597   7.054   5.035   0.549
 1218TIP3    H2 3598   6.960   5.100   0.648
 1219TIP3   OH2 3599   8.211   7.046   1.058
 1219TIP3    H1 3600   8.209   7.141   1.074
 1219TIP3    H2 3601   8.291   7.016   1.100
 1220TIP3   OH2 3602   1.074   6.166   3.949
 1220TIP3    H1 3603   1.001   6.179   4.009
 1220TIP3    H2 3604   1.142   6.225   3.980
 1221TIP3   OH2 3605   5.637   0.413   0.373
 1221TIP3    H1 3606   5.589   0.338   0.410
 1221TIP3    H2 3607   5.706   0.373   0.320
 1222TIP3   OH2 3608   2.400   4.599   1.649
 1222TIP3    H1 3609   2.371   4.592   1.558
 1222TIP3    H2 3610   2.493   4.578   1.646
 1223TIP3   OH2 3611   6.374   4.569   1.151
 1223TIP3    H1 3612   6.317   4.546   1.224
 1223TIP3    H2 3613   6.318   4.620   1.092
 1224TIP3   OH2 3614   6.008   5.255   1.507
 1224TIP3    H1 3615   6.054   5.314   1.449
 1224TIP3    H2 3616   6.073   5.190   1.534
 1225TIP3   OH2 3617   0.802   6.413   3.383
 1225TIP3    H1 3618   0.857   6.445   3.312
 1225TIP3    H2 3619   0.793   6.487   3.442
 1226TIP3   OH2 3620   4.415   6.949   4.421
 1226TIP3    H1 3621   4.382   6.978   4.336
 1226TIP3    H2 3622   4.456   7.027   4.458
 1227TIP3   OH2 3623   8.080   1.427   0.700
 1227TIP3    H1 3624   8.080   1.388   0.787
 1227TIP3    H2 3625   7.989   1.453   0.685
 1228TIP3   OH2 3626   6.426   5.168   2.577
 1228TIP3    H1 3627   6.452   5.076   2.587
 1228TIP3    H2 3628   6.395   5.175   2.487
 1229TIP3   OH2 3629   1.124   3.783   4.187
 1229TIP3    H1 3630   1.180   3.835   4.129
 1229TIP3    H2 3631   1.093   3.711   4.132
 1230TIP3   OH2 3632   6.796   1.972   6.466
 1230TIP3    H1 3633   6.879   1.992   6.422
 1230TIP3    H2 3634   6.814   1.892   6.515
 1231TIP3   OH2 3635   4.655   4.648   0.294
 1231TIP3    H1 3636   4.729   4.675   0.349
 1231TIP3    H2 3637   4.600   4.596   0.352
 1232TIP3   OH2 3638   2.241   1.471   1.551
 1232TIP3    H1 3639   2.286   1.555   1.559
 1232TIP3    H2 3640   2.291   1.411   1.605
 1233TIP3   OH2 3641   5.718   3.868   3.094
 1233TIP3    H1 3642   5.669   3.850   3.014
 1233TIP3    H2 3643   5.695   3.958   3.116
 1234TIP3   OH2 3644   6.091   3.208   5.536
 1234TIP3    H1 3645   6.070   3.174   5.449
 1234TIP3    H2 3646   6.116   3.299   5.520
 1235TIP3   OH2 3647   6.493   3.548   2.537
 1235TIP3    H1 3648   6.423   3.503   2.585
 1235TIP3    H2 3649   6.483   3.518   2.447
 1236TIP3   OH2 3650   0.160   7.230   1.804
 1236TIP3    H1 3651   0.142   7.244   1.711
 1236TIP3    H2 3652   0.216   7.153   1.805
 1237TIP3   OH2 3653   3.631   1.819   3.794
 1237TIP3    H1 3654   3.693   1.821   3.721
 1237TIP3    H2 3655   3.686   1.821   3.872
 1238TIP3   OH2 3656   2.001   6.364   5.346
 1238TIP3    H1 3657   2.045   6.306   5.409
 1238TIP3    H2 3658   2.071   6.410   5.301
 1239TIP3   OH2 3659   2.425   2.968   5.142
 1239TIP3    H1 3660   2.392   2.964   5.053
 1239TIP3    H2 3661   2.424   2.876   5.171
 1240TIP3   OH2 3662   4.312   6.277   0.150
 1240TIP3    H1 3663   4.312   6.201   0.092
 1240TIP3    H2 3664   4.238   6.330   0.119
 1241TIP3   OH2 3665   7.142   7.658   6.414
 1241TIP3    H1 3666   7.220   7.707   6.390
 1241TIP3    H2 3667   7.071   7.701   6.366
 1242TIP3   OH2 3668   0.737   5.859   6.291
 1242TIP3    H1 3669   0.822   5.872   6.250
 1242TIP3    H2 3670   0.676   5.910   6.238
 1243TIP3   OH2 3671   5.364   6.428   1.366
 1243TIP3    H1 3672   5.428   6.375   1.318
 1243TIP3    H2 3673   5.373   6.515   1.328
 1244TIP3   OH2 3674   0.939   4.096   0.080
 1244TIP3    H1 3675   0.929   4.191   0.088
 1244TIP3    H2 3676   1.029   4.079   0.108
 1245TIP3   OH2 3677   3.112   6.293   1.639
 1245TIP3    H1 3678   3.120   6.236   1.715
 1245TIP3    H2 3679   3.194   6.281   1.591
 1246TIP3   OH2 3680   0.779   7.716   4.488
 1246TIP3    H1 3681   0.818   7.691   4.572
 1246TIP3    H2 3682   0.771   7.633   4.441
 1247TIP3   OH2 3683   6.109   1.029   2.358
 1247TIP3    H1 3684   6.109   1.124   2.363
 1247TIP3    H2 3685   6.067   1.009   2.274
 1248TIP3   OH2 3686   6.151   7.214   1.438
 1248TIP3    H1 3687   6.230   7.207   1.492
 1248TIP3    H2 3688   6.083   7.244   1.499
 1249TIP3   OH2 3689   4.124   7.181   4.888
 1249TIP3    H1 3690   4.074   7.102   4.870
 1249TIP3    H2 3691   4.134   7.223   4.802
 1250TIP3   OH2 3692   3.049   5.539   3.834
 1250TIP3    H1 3693   3.066   5.543   3.929
 1250TIP3    H2 3694   2.987   5.610   3.818
 1251TIP3   OH2 3695   7.533   3.735   6.734
 1251TIP3    H1 3696   7.620   3.759   6.768
 1251TIP3    H2 3697   7.473   3.796   6.777
 1252TIP3   OH2 3698   4.725   4.683   6.472
 1252TIP3    H1 3699   4.636   4.670   6.440
 1252TIP3    H2 3700   4.752   4.596   6.504
 1253TIP3   OH2 3701   1.428   2.396   6.663
 1253TIP3    H1 3702   1.384   2.327   6.612
 1253TIP3    H2 3703   1.482   2.442   6.599
 1254TIP3   OH2 3704   7.913   5.715   6.638
 1254TIP3    H1 3705   7.914   5.633   6.687
 1254TIP3    H2 3706   7.846   5.702   6.571
 1255TIP3   OH2 3707   1.495   7.418   1.964
 1255TIP3    H1 3708   1.413   7.368   1.960
 1255TIP3    H2 3709   1.480   7.494   1.908
 1256TIP3   OH2 3710   5.106   1.861   1.095
 1256TIP3    H1 3711   5.191   1.850   1.053
 1256TIP3    H2 3712   5.125   1.877   1.187
 1257TIP3   OH2 3713   2.345   5.500   1.370
 1257TIP3    H1 3714   2.431   5.510   1.329
 1257TIP3    H2 3715   2.285   5.544   1.310
 1258TIP3   OH2 3716   6.723   0.161   6.092
 1258TIP3    H1 3717   6.777   0.200   6.161
 1258TIP3    H2 3718   6.666   0.232   6.064
 1259TIP3   OH2 3719   6.255   5.427   0.371
 1259TIP3    H1 3720   6.252   5.505   0.426
 1259TIP3    H2 3721   6.208   5.360   0.420
 1260TIP3   OH2 3722   6.822   6.189   6.693
 1260TIP3    H1 3723   6.878   6.183   6.770
 1260TIP3    H2 3724   6.733   6.181   6.728
 1261TIP3   OH2 3725   8.303   2.739   6.058
 1261TIP3    H1 3726   8.320   2.665   6.118
 1261TIP3    H2 3727   8.356   2.719   5.981
 1262TIP3   OH2 3728   3.884   1.630   1.737
 1262TIP3    H1 3729   3.915   1.678   1.814
 1262TIP3    H2 3730   3.837   1.554   1.773
 1263TIP3   OH2 3731   2.424   4.819   5.867
 1263TIP3    H1 3732   2.449   4.907   5.893
 1263TIP3    H2 3733   2.379   4.783   5.943
 1264TIP3   OH2 3734   0.697   5.915   3.228
 1264TIP3    H1 3735   0.786   5.906   3.262
 1264TIP3    H2 3736   0.692   5.851   3.157
 1265TIP3   OH2 3737   7.761   5.460   1.434
 1265TIP3    H1 3738   7.770   5.367   1.415
 1265TIP3    H2 3739   7.831   5.479   1.497
 1266TIP3   OH2 3740   0.235   2.878   4.581
 1266TIP3    H1 3741   0.143   2.881   4.604
 1266TIP3    H2 3742   0.279   2.934   4.645
 1267TIP3   OH2 3743   5.818   5.544   3.581
 1267TIP3    H1 3744   5.885   5.481   3.608
 1267TIP3    H2 3745   5.797   5.520   3.491
 1268TIP3   OH2 3746   8.031   3.923   4.781
 1268TIP3    H1 3747   8.057   3.913   4.689
 1268TIP3    H2 3748   8.095   3.984   4.817
 1269TIP3   OH2 3749   7.821   0.389   3.863
 1269TIP3    H1 3750   7.783   0.337   3.792
 1269TIP3    H2 3751   7.806   0.336   3.942
 1270TIP3   OH2 3752   3.410   5.823   3.931
 1270TIP3    H1 3753   3.318   5.803   3.950
 1270TIP3    H2 3754   3.446   5.850   4.016
 1271TIP3   OH2 3755   8.229   0.815   2.509
 1271TIP3    H1 3756   8.282   0.834   2.431
 1271TIP3    H2 3757   8.213   0.721   2.505
 1272TIP3   OH2 3758   4.503   1.363   6.210
 1272TIP3    H1 3759   4.500   1.454   6.179
 1272TIP3    H2 3760   4.507   1.370   6.305
 1273TIP3   OH2 3761   0.873   0.541   5.507
 1273TIP3    H1 3762   0.788   0.537   5.463
 1273TIP3    H2 3763   0.937   0.531   5.437
 1274TIP3   OH2 3764   4.845   0.641   2.845
 1274TIP3    H1 3765   4.849   0.602   2.933
 1274TIP3    H2 3766   4.760   0.685   2.842
 1275TIP3   OH2 3767   1.608   0.885   1.178
 1275TIP3    H1 3768   1.641   0.897   1.089
 1275TIP3    H2 3769   1.657   0.811   1.212
 1276TIP3   OH2 3770   2.808   4.460   1.057
 1276TIP3    H1 3771   2.771   4.386   1.009
 1276TIP3    H2 3772   2.874   4.422   1.115
 1277TIP3   OH2 3773   7.064   2.502   5.358
 1277TIP3    H1 3774   7.010   2.531   5.431
 1277TIP3    H2 3775   7.080   2.409   5.375
 1278TIP3   OH2 3776   6.056   3.595   1.017
 1278TIP3    H1 3777   6.024   3.591   0.927
 1278TIP3    H2 3778   6.101   3.512   1.030
 1279TIP3   OH2 3779   2.616   5.125   1.050
 1279TIP3    H1 3780   2.594   5.193   1.114
 1279TIP3    H2 3781   2.546   5.060   1.059
 1280TIP3   OH2 3782   7.088   3.035   3.260
 1280TIP3    H1 3783   7.024   2.965   3.270
 1280TIP3    H2 3784   7.164   2.994   3.220
 1281TIP3   OH2 3785   1.485   1.963   6.080
 1281TIP3    H1 3786   1.439   2.044   6.101
 1281TIP3    H2 3787   1.519   1.977   5.991
 1282TIP3   OH2 3788   5.856   6.283   1.058
 1282TIP3    H1 3789   5.933   6.339   1.060
 1282TIP3    H2 3790   5.858   6.236   1.141
 1283TIP3   OH2 3791   2.934   5.745   0.545
 1283TIP3    H1 3792   2.971   5.748   0.634
 1283TIP3    H2 3793   2.844   5.775   0.556
 1284TIP3   OH2 3794   0.482   6.599   1.966
 1284TIP3    H1 3795   0.443   6.523   2.009
 1284TIP3    H2 3796   0.424   6.672   1.989
 1285TIP3   OH2 3797   2.011   3.422   5.966
 1285TIP3    H1 3798   1.928   3.377   5.979
 1285TIP3    H2 3799   2.047   3.384   5.886
 1286TIP3   OH2 3800   5.869   0.466   3.759
 1286TIP3    H1 3801   5.963   0.484   3.759
 1286TIP3    H2 3802   5.856   0.402   3.689
 1287TIP3   OH2 3803   6.971   2.689   2.611
 1287TIP3    H1 3804   7.043   2.747   2.585
 1287TIP3    H2 3805   6.983   2.611   2.557
 1288TIP3   OH2 3806   0.189   3.403   3.216
 1288TIP3    H1 3807   0.233   3.446   3.143
 1288TIP3    H2 3808   0.141   3.473   3.260
 1289TIP3   OH2 3809   3.758   5.241   1.868
 1289TIP3    H1 3810   3.843   5.198   1.857
 1289TIP3    H2 3811   3.775   5.333   1.850
 1290TIP3   OH2 3812   7.229   1.198   3.773
 1290TIP3    H1 3813   7.262   1.266   3.833
 1290TIP3    H2 3814   7.304   1.176   3.718
 1291TIP3   OH2 3815   6.085   1.408   1.241
 1291TIP3    H1 3816   6.152   1.476   1.244
 1291TIP3    H2 3817   6.012   1.444   1.292
 1292TIP3   OH2 3818   6.204   0.747   1.507
 1292TIP3    H1 3819   6.275   0.743   1.571
 1292TIP3    H2 3820   6.129   0.706   1.551
 1293TIP3   OH2 3821   5.953   7.054   4.827
 1293TIP3    H1 3822   5.876   7.042   4.772
 1293TIP3    H2 3823   6.005   6.974   4.815
 1294TIP3   OH2 3824   5.605   0.569   1.975
 1294TIP3    H1 3825   5.556   0.591   1.896
 1294TIP3    H2 3826   5.666   0.642   1.986
 1295TIP3   OH2 3827   1.693   2.232   5.881
 1295TIP3    H1 3828   1.664   2.166   5.818
 1295TIP3    H2 3829   1.696   2.313   5.830
 1296TIP3   OH2 3830   0.842   4.650   3.195
 1296TIP3    H1 3831   0.833   4.709   3.270
 1296TIP3    H2 3832   0.905   4.693   3.137
 1297TIP3   OH2 3833   0.713   4.793   2.533
 1297TIP3    H1 3834   0.659   4.757   2.603
 1297TIP3    H2 3835   0.656   4.856   2.489
 1298TIP3   OH2 3836   4.078   5.304   5.698
 1298TIP3    H1 3837   4.162   5.263   5.676
 1298TIP3    H2 3838   4.093   5.345   5.783
 1299TIP3   OH2 3839   2.008   3.168   3.982
 1299TIP3    H1 3840   1.931   3.155   4.038
 1299TIP3    H2 3841   2.007   3.262   3.962
 1300TIP3   OH2 3842   3.969   0.891   3.338
 1300TIP3    H1 3843   4.023   0.861   3.265
 1300TIP3    H2 3844   3.939   0.811   3.380
 1301TIP3   OH2 3845   2.351   3.909   6.420
 1301TIP3    H1 3846   2.313   3.821   6.414
 1301TIP3    H2 3847   2.283   3.962   6.461
 1302TIP3   OH2 3848   2.224   7.444   6.211
 1302TIP3    H1 3849   2.282   7.486   6.274
 1302TIP3    H2 3850   2.283   7.403   6.147
 1303TIP3   OH2 3851   0.375   4.490   4.706
 1303TIP3    H1 3852   0.332   4.549   4.767
 1303TIP3    H2 3853   0.344   4.518   4.620
 1304TIP3   OH2 3854   3.005   1.737   4.662
 1304TIP3    H1 3855   2.948   1.814   4.674
 1304TIP3    H2 3856   3.068   1.764   4.596
 1305TIP3   OH2 3857   5.187   5.225   3.932
 1305TIP3    H1 3858   5.099   5.212   3.897
 1305TIP3    H2 3859   5.184   5.312   3.973
 1306TIP3   OH2 3860   6.095   6.806   4.783
 1306TIP3    H1 3861   6.076   6.712   4.781
 1306TIP3    H2 3862   6.071   6.837   4.696
 1307TIP3   OH2 3863   3.389   5.668   5.160
 1307TIP3    H1 3864   3.324   5.689   5.092
 1307TIP3    H2 3865   3.426   5.584   5.133
 1308TIP3   OH2 3866   4.438   0.843   5.867
 1308TIP3    H1 3867   4.453   0.772   5.805
 1308TIP3    H2 3868   4.371   0.810   5.927
 1309TIP3   OH2 3869   1.003   2.401   5.446
 1309TIP3    H1 3870   1.093   2.399   5.413
 1309TIP3    H2 3871   0.949   2.415   5.368
 1310TIP3   OH2 3872   3.030   7.155   0.159
 1310TIP3    H1 3873   2.951   7.143   0.107
 1310TIP3    H2 3874   3.016   7.239   0.205
 1311TIP3   OH2 3875   7.390   4.196   2.309
 1311TIP3    H1 3876   7.361   4.265   2.249
 1311TIP3    H2 3877   7.485   4.208   2.313
 1312TIP3   OH2 3878   4.707   4.076   5.103
 1312TIP3    H1 3879   4.630   4.020   5.111
 1312TIP3    H2 3880   4.751   4.070   5.187
 1313TIP3   OH2 3881   1.789   2.562   3.598
 1313TIP3    H1 3882   1.806   2.490   3.658
 1313TIP3    H2 3883   1.702   2.594   3.623
 1314TIP3   OH2 3884   1.860   7.019   6.547
 1314TIP3    H1 3885   1.912   7.053   6.474
 1314TIP3    H2 3886   1.888   6.928   6.556
 1315TIP3   OH2 3887   8.287   2.125   6.583
 1315TIP3    H1 3888   8.234   2.060   6.538
 1315TIP3    H2 3889   8.323   2.179   6.512
 1316TIP3   OH2 3890   5.011   3.608   5.262
 1316TIP3    H1 3891   4.973   3.600   5.175
 1316TIP3    H2 3892   5.051   3.695   5.263
 1317TIP3   OH2 3893   0.404   6.447   1.739
 1317TIP3    H1 3894   0.442   6.513   1.797
 1317TIP3    H2 3895   0.447   6.365   1.766
 1318TIP3   OH2 3896   1.960   4.716   6.588
 1318TIP3    H1 3897   1.999   4.725   6.675
 1318TIP3    H2 3898   1.897   4.788   6.582
 1319TIP3   OH2 3899   3.758   4.550   6.168
 1319TIP3    H1 3900   3.743   4.612   6.240
 1319TIP3    H2 3901   3.843   4.576   6.132
 1320TIP3   OH2 3902   0.235   2.835   1.193
 1320TIP3    H1 3903   0.324   2.820   1.226
 1320TIP3    H2 3904   0.209   2.917   1.235
 1321TIP3   OH2 3905   4.798   6.944   4.164
 1321TIP3    H1 3906   4.858   6.980   4.229
 1321TIP3    H2 3907   4.854   6.908   4.096
 1322TIP3   OH2 3908   7.464   2.238   4.097
 1322TIP3    H1 3909   7.546   2.221   4.144
 1322TIP3    H2 3910   7.468   2.180   4.021
 1323TIP3   OH2 3911   0.506   5.719   2.135
 1323TIP3    H1 3912   0.515   5.716   2.040
 1323TIP3    H2 3913   0.476   5.808   2.154
 1324TIP3   OH2 3914   6.394   2.975   6.105
 1324TIP3    H1 3915   6.317   2.934   6.145
 1324TIP3    H2 3916   6.424   3.038   6.170
 1325TIP3   OH2 3917   2.996   6.625   0.194
 1325TIP3    H1 3918   3.043   6.604   0.113
 1325TIP3    H2 3919   3.009   6.720   0.205
 1326TIP3   OH2 3920   2.857   0.055   3.896
 1326TIP3    H1 3921   2.851   0.045   3.991
 1326TIP3    H2 3922   2.865   0.149   3.882
 1327TIP3   OH2 3923   4.950   0.534   5.261
 1327TIP3    H1 3924   4.907   0.494   5.185
 1327TIP3    H2 3925   4.883   0.588   5.301
 1328TIP3   OH2 3926   4.293   0.485   6.314
 1328TIP3    H1 3927   4.250   0.442   6.240
 1328TIP3    H2 3928   4.340   0.415   6.359
 1329TIP3   OH2 3929   6.820   0.776   1.828
 1329TIP3    H1 3930   6.894   0.719   1.849
 1329TIP3    H2 3931   6.801   0.757   1.736
 1330TIP3   OH2 3932   4.492   6.157   0.799
 1330TIP3    H1 3933   4.415   6.121   0.845
 1330TIP3    H2 3934   4.462   6.241   0.765
 1331TIP3   OH2 3935   5.771   1.228   4.491
 1331TIP3    H1 3936   5.684   1.232   4.529
 1331TIP3    H2 3937   5.796   1.320   4.479
 1332TIP3   OH2 3938   8.074   7.435   2.936
 1332TIP3    H1 3939   8.161   7.408   2.965
 1332TIP3    H2 3940   8.040   7.360   2.888
 1333TIP3   OH2 3941   7.479   3.750   1.381
 1333TIP3    H1 3942   7.539   3.677   1.395
 1333TIP3    H2 3943   7.401   3.727   1.432
 1334TIP3   OH2 3944   0.612   2.424   4.283
 1334TIP3    H1 3945   0.660   2.483   4.226
 1334TIP3    H2 3946   0.556   2.481   4.335
 1335TIP3   OH2 3947   4.568   2.711   4.075
 1335TIP3    H1 3948   4.663   2.707   4.065
 1335TIP3    H2 3949   4.555   2.730   4.168
 1336TIP3   OH2 3950   5.579   1.532   4.293
 1336TIP3    H1 3951   5.541   1.447   4.313
 1336TIP3    H2 3952   5.559   1.546   4.200
 1337TIP3   OH2 3953   1.670   2.677   1.507
 1337TIP3    H1 3954   1.636   2.588   1.502
 1337TIP3    H2 3955   1.598   2.728   1.543
 1338TIP3   OH2 3956   1.368   2.167   1.399
 1338TIP3    H1 3957   1.460   2.142   1.404
 1338TIP3    H2 3958   1.329   2.131   1.479
 1339TIP3   OH2 3959   1.722   1.379   4.199
 1339TIP3    H1 3960   1.702   1.466   4.165
 1339TIP3    H2 3961   1.636   1.340   4.216
 1340TIP3   OH2 3962   7.910   6.752   3.311
 1340TIP3    H1 3963   7.861   6.737   3.391
 1340TIP3    H2 3964   7.843   6.771   3.245
 1341TIP3   OH2 3965   4.014   3.294   4.829
 1341TIP3    H1 3966   4.050   3.243   4.901
 1341TIP3    H2 3967   4.084   3.355   4.806
 1342TIP3   OH2 3968   6.642   0.475   1.725
 1342TIP3    H1 3969   6.736   0.470   1.708
 1342TIP3    H2 3970   6.603   0.487   1.639
 1343TIP3   OH2 3971   6.343   1.987   5.971
 1343TIP3    H1 3972   6.332   1.945   5.886
 1343TIP3    H2 3973   6.259   1.974   6.015
 1344TIP3   OH2 3974   7.910   3.251   5.463
 1344TIP3    H1 3975   7.849   3.180   5.441
 1344TIP3    H2 3976   7.972   3.253   5.390
 1345TIP3   OH2 3977   4.407   0.435   5.862
 1345TIP3    H1 3978   4.321   0.463   5.894
 1345TIP3    H2 3979   4.422   0.489   5.784
 1346TIP3   OH2 3980   3.911   4.230   1.524
 1346TIP3    H1 3981   3.892   4.141   1.493
 1346TIP3    H2 3982   3.848   4.244   1.595
 1347TIP3   OH2 3983   0.475   6.978   6.516
 1347TIP3    H1 3984   0.489   6.939   6.603
 1347TIP3    H2 3985   0.387   7.016   6.521
 1348TIP3   OH2 3986   5.968   1.924   3.104
 1348TIP3    H1 3987   6.016   1.844   3.128
 1348TIP3    H2 3988   6.037   1.989   3.088
 1349TIP3   OH2 3989   1.622   4.893   2.732
 1349TIP3    H1 3990   1.526   4.890   2.733
 1349TIP3    H2 3991   1.649   4.802   2.738
 1350TIP3   OH2 3992   7.320   6.373   2.347
 1350TIP3    H1 3993   7.395   6.380   2.288
 1350TIP3    H2 3994   7.258   6.316   2.301
 1351TIP3   OH2 3995   1.598   4.732   3.261
 1351TIP3    H1 3996   1.628   4.820   3.239
 1351TIP3    H2 3997   1.608   4.726   3.356
 1352TIP3   OH2 3998   6.222   2.102   1.442
 1352TIP3    H1 3999   6.131   2.106   1.470
 1352TIP3    H2 4000   6.254   2.019   1.479
 1353TIP3   OH2 4001   7.519   2.504   2.083
 1353TIP3    H1 4002   7.500   2.528   2.174
 1353TIP3    H2 4003   7.446   2.542   2.033
 1354TIP3   OH2 4004   6.793   2.081   5.338
 1354TIP3    H1 4005   6.861   2.131   5.292
 1354TIP3    H2 4006   6.729   2.148   5.364
 1355TIP3   OH2 4007   7.229   4.633   5.123
 1355TIP3    H1 4008   7.278   4.707   5.158
 1355TIP3    H2 4009   7.278   4.556   5.151
 1356TIP3   OH2 4010   6.460   7.344   0.161
 1356TIP3    H1 4011   6.397   7.277   0.187
 1356TIP3    H2 4012   6.478   7.327   0.069
 1357TIP3   OH2 4013   7.161   4.377   5.825
 1357TIP3    H1 4014   7.248   4.417   5.826
 1357TIP3    H2 4015   7.106   4.441   5.779
 1358TIP3   OH2 4016   8.141   1.910   4.866
 1358TIP3    H1 4017   8.190   1.954   4.797
 1358TIP3    H2 4018   8.136   1.819   4.837
 1359TIP3   OH2 4019   7.961   5.254   5.904
 1359TIP3    H1 4020   7.913   5.225   5.982
 1359TIP3    H2 4021   7.966   5.349   5.914
 1360TIP3   OH2 4022   7.126   3.236   1.802
 1360TIP3    H1 4023   7.185   3.299   1.760
 1360TIP3    H2 4024   7.125   3.161   1.742
 1361TIP3   OH2 4025   2.628   3.117   3.887
 1361TIP3    H1 4026   2.675   3.045   3.929
 1361TIP3    H2 4027   2.673   3.196   3.918
 1362TIP3   OH2 4028   1.020   3.605   4.914
 1362TIP3    H1 4029   1.011   3.635   4.823
 1362TIP3    H2 4030   0.955   3.655   4.963
 1363TIP3   OH2 4031   2.374   3.823   2.636
 1363TIP3    H1 4032   2.411   3.752   2.689
 1363TIP3    H2 4033   2.347   3.888   2.701
 1364TIP3   OH2 4034   2.673   6.115   3.247
 1364TIP3    H1 4035   2.724   6.181   3.294
 1364TIP3    H2 4036   2.737   6.051   3.217
 1365TIP3   OH2 4037   5.972   1.666   3.894
 1365TIP3    H1 4038   6.056   1.701   3.925
 1365TIP3    H2 4039   5.911   1.739   3.904
 1366TIP3   OH2 4040   0.612   3.531   4.395
 1366TIP3    H1 4041   0.546   3.546   4.463
 1366TIP3    H2 4042   0.674   3.471   4.436
 1367TIP3   OH2 4043   0.793   0.284   2.386
 1367TIP3    H1 4044   0.772   0.192   2.396
 1367TIP3    H2 4045   0.883   0.292   2.418
 1368TIP3   OH2 4046   3.474   1.661   6.018
 1368TIP3    H1 4047   3.397   1.682   5.965
 1368TIP3    H2 4048   3.521   1.744   6.027
 1369TIP3   OH2 4049   0.128   3.100   4.308
 1369TIP3    H1 4050   0.048   3.063   4.346
 1369TIP3    H2 4051   0.123   3.077   4.215
 1370TIP3   OH2 4052   6.597   2.495   0.686
 1370TIP3    H1 4053   6.660   2.565   0.704
 1370TIP3    H2 4054   6.635   2.447   0.613
 1371TIP3   OH2 4055   7.624   7.130   3.973
 1371TIP3    H1 4056   7.662   7.215   3.996
 1371TIP3    H2 4057   7.554   7.116   4.036
 1372TIP3   OH2 4058   6.963   3.088   1.245
 1372TIP3    H1 4059   7.005   3.174   1.238
 1372TIP3    H2 4060   7.012   3.043   1.315
 1373TIP3   OH2 4061   6.102   6.464   2.324
 1373TIP3    H1 4062   6.020   6.415   2.316
 1373TIP3    H2 4063   6.154   6.413   2.387
 1374TIP3   OH2 4064   8.019   0.895   1.703
 1374TIP3    H1 4065   8.047   0.937   1.622
 1374TIP3    H2 4066   7.945   0.948   1.734
 1375TIP3   OH2 4067   7.782   0.053   4.727
 1375TIP3    H1 4068   7.766  -0.008   4.655
 1375TIP3    H2 4069   7.784  -0.002   4.805
 1376TIP3   OH2 4070   3.808   5.083   4.870
 1376TIP3    H1 4071   3.836   5.111   4.957
 1376TIP3    H2 4072   3.848   5.145   4.809
 1377TIP3   OH2 4073   6.962   3.505   1.478
 1377TIP3    H1 4074   6.882   3.520   1.430
 1377TIP3    H2 4075   7.031   3.508   1.412
 1378TIP3   OH2 4076   7.295   3.225   4.983
 1378TIP3    H1 4077   7.315   3.170   4.907
 1378TIP3    H2 4078   7.199   3.232   4.982
 1379TIP3   OH2 4079   0.219   0.399   2.382
 1379TIP3    H1 4080   0.196   0.351   2.303
 1379TIP3    H2 4081   0.139   0.443   2.408
 1380TIP3   OH2 4082   6.874   1.806   1.090
 1380TIP3    H1 4083   6.848   1.829   1.001
 1380TIP3    H2 4084   6.841   1.716   1.102
 1381TIP3   OH2 4085   4.720   1.514   1.959
 1381TIP3    H1 4086   4.815   1.513   1.972
 1381TIP3    H2 4087   4.700   1.605   1.935
 1382TIP3   OH2 4088   4.281   4.552   2.912
 1382TIP3    H1 4089   4.319   4.575   2.827
 1382TIP3    H2 4090   4.351   4.568   2.975
 1383TIP3   OH2 4091   2.919   5.592   4.072
 1383TIP3    H1 4092   2.826   5.597   4.051
 1383TIP3    H2 4093   2.928   5.507   4.116
 1384TIP3   OH2 4094   6.964   2.436   4.937
 1384TIP3    H1 4095   7.000   2.522   4.961
 1384TIP3    H2 4096   6.870   2.450   4.933
 1385TIP3   OH2 4097   5.270   0.700   4.647
 1385TIP3    H1 4098   5.227   0.764   4.704
 1385TIP3    H2 4099   5.214   0.696   4.569
 1386TIP3   OH2 4100   1.404   4.193   1.547
 1386TIP3    H1 4101   1.427   4.226   1.634
 1386TIP3    H2 4102   1.488   4.180   1.504
 1387TIP3   OH2 4103   1.789   1.975   2.296
 1387TIP3    H1 4104   1.777   1.887   2.260
 1387TIP3    H2 4105   1.702   2.013   2.296
 1388TIP3   OH2 4106   5.346   5.343   1.523
 1388TIP3    H1 4107   5.336   5.320   1.616
 1388TIP3    H2 4108   5.439   5.327   1.505
 1389TIP3   OH2 4109   0.461   4.141   4.500
 1389TIP3    H1 4110   0.474   4.049   4.521
 1389TIP3    H2 4111   0.486   4.148   4.407
 1390TIP3   OH2 4112   3.766   2.503   1.320
 1390TIP3    H1 4113   3.673   2.510   1.344
 1390TIP3    H2 4114   3.790   2.414   1.343
 1391TIP3   OH2 4115   7.836   5.038   4.635
 1391TIP3    H1 4116   7.881   5.101   4.578
 1391TIP3    H2 4117   7.751   5.025   4.593
 1392TIP3   OH2 4118   6.024   0.224   5.595
 1392TIP3    H1 4119   5.997   0.311   5.569
 1392TIP3    H2 4120   5.972   0.205   5.674
 1393TIP3   OH2 4121   0.258   2.512   4.988
 1393TIP3    H1 4122   0.283   2.559   4.908
 1393TIP3    H2 4123   0.170   2.480   4.970
 1394TIP3   OH2 4124   8.133   7.837   4.779
 1394TIP3    H1 4125   8.044   7.824   4.811
 1394TIP3    H2 4126   8.189   7.813   4.853
 1395TIP3   OH2 4127   6.543   3.725   0.149
 1395TIP3    H1 4128   6.612   3.780   0.113
 1395TIP3    H2 4129   6.572   3.705   0.238
 1396TIP3   OH2 4130   4.093   3.544   1.277
 1396TIP3    H1 4131   4.033   3.471   1.291
 1396TIP3    H2 4132   4.111   3.543   1.183
 1397TIP3   OH2 4133   3.439   6.336   2.736
 1397TIP3    H1 4134   3.483   6.397   2.794
 1397TIP3    H2 4135   3.399   6.271   2.794
 1398TIP3   OH2 4136   3.362   1.280   3.794
 1398TIP3    H1 4137   3.380   1.293   3.701
 1398TIP3    H2 4138   3.427   1.216   3.822
 1399TIP3   OH2 4139   0.211   0.669   4.930
 1399TIP3    H1 4140   0.295   0.629   4.909
 1399TIP3    H2 4141   0.229   0.728   5.003
 1400TIP3   OH2 4142   7.722   2.070   3.043
 1400TIP3    H1 4143   7.675   2.078   2.960
 1400TIP3    H2 4144   7.741   2.160   3.069
 1401TIP3   OH2 4145   7.908   3.128   6.594
 1401TIP3    H1 4146   7.944   3.149   6.508
 1401TIP3    H2 4147   7.815   3.112   6.579
 1402TIP3   OH2 4148   5.689   5.885   2.797
 1402TIP3    H1 4149   5.717   5.895   2.888
 1402TIP3    H2 4150   5.769   5.899   2.746
 1403TIP3   OH2 4151   5.289   5.673   0.626
 1403TIP3    H1 4152   5.299   5.579   0.637
 1403TIP3    H2 4153   5.270   5.706   0.713
 1404TIP3   OH2 4154   2.576   0.934   5.710
 1404TIP3    H1 4155   2.608   0.855   5.753
 1404TIP3    H2 4156   2.653   0.990   5.701
 1405TIP3   OH2 4157   1.392   5.767   5.954
 1405TIP3    H1 4158   1.443   5.847   5.970
 1405TIP3    H2 4159   1.445   5.717   5.892
 1406TIP3   OH2 4160   1.599   3.433   6.036
 1406TIP3    H1 4161   1.537   3.489   5.990
 1406TIP3    H2 4162   1.674   3.490   6.055
 1407TIP3   OH2 4163   4.313   0.750   4.491
 1407TIP3    H1 4164   4.386   0.737   4.432
 1407TIP3    H2 4165   4.303   0.845   4.498
 1408TIP3   OH2 4166   0.049   7.581   4.082
 1408TIP3    H1 4167   0.033   7.577   3.988
 1408TIP3    H2 4168   0.011   7.665   4.109
 1409TIP3   OH2 4169   5.681   0.276   3.717
 1409TIP3    H1 4170   5.680   0.271   3.622
 1409TIP3    H2 4171   5.589   0.281   3.742
 1410TIP3   OH2 4172   6.157   2.811   3.267
 1410TIP3    H1 4173   6.161   2.906   3.280
 1410TIP3    H2 4174   6.066   2.793   3.244
 1411TIP3   OH2 4175   5.758   5.822   1.945
 1411TIP3    H1 4176   5.684   5.790   1.996
 1411TIP3    H2 4177   5.797   5.743   1.907
 1412TIP3   OH2 4178   3.552   6.177   1.364
 1412TIP3    H1 4179   3.559   6.255   1.310
 1412TIP3    H2 4180   3.588   6.203   1.449
 1413TIP3   OH2 4181   8.176   4.109   3.892
 1413TIP3    H1 4182   8.119   4.074   3.960
 1413TIP3    H2 4183   8.233   4.171   3.938
 1414TIP3   OH2 4184   3.091   2.709   5.346
 1414TIP3    H1 4185   3.095   2.642   5.277
 1414TIP3    H2 4186   2.999   2.709   5.374
 1415TIP3   OH2 4187   5.093   6.392   4.719
 1415TIP3    H1 4188   5.165   6.332   4.697
 1415TIP3    H2 4189   5.033   6.385   4.645
 1416TIP3   OH2 4190   2.613   0.654   1.737
 1416TIP3    H1 4191   2.615   0.561   1.715
 1416TIP3    H2 4192   2.669   0.662   1.814
 1417TIP3   OH2 4193   0.120   1.559   0.972
 1417TIP3    H1 4194   0.173   1.525   1.044
 1417TIP3    H2 4195   0.045   1.601   1.015
 1418TIP3   OH2 4196   2.538   2.635   1.344
 1418TIP3    H1 4197   2.448   2.626   1.315
 1418TIP3    H2 4198   2.558   2.550   1.383
 1419TIP3   OH2 4199   5.322   4.797   0.711
 1419TIP3    H1 4200   5.336   4.845   0.792
 1419TIP3    H2 4201   5.259   4.850   0.661
 1420TIP3   OH2 4202   5.688   5.382   4.201
 1420TIP3    H1 4203   5.774   5.423   4.192
 1420TIP3    H2 4204   5.705   5.300   4.249
 1421TIP3   OH2 4205   7.589   6.393   5.133
 1421TIP3    H1 4206   7.646   6.395   5.209
 1421TIP3    H2 4207   7.578   6.485   5.109
 1422TIP3   OH2 4208   4.642   0.813   2.896
 1422TIP3    H1 4209   4.677   0.812   2.985
 1422TIP3    H2 4210   4.610   0.902   2.884
 1423TIP3   OH2 4211   4.445   5.646   2.898
 1423TIP3    H1 4212   4.445   5.722   2.957
 1423TIP3    H2 4213   4.393   5.675   2.822
 1424TIP3   OH2 4214   1.953   3.795   6.359
 1424TIP3    H1 4215   2.037   3.756   6.334
 1424TIP3    H2 4216   1.963   3.889   6.340
 1425TIP3   OH2 4217   0.429   7.402   4.190
 1425TIP3    H1 4218   0.494   7.399   4.119
 1425TIP3    H2 4219   0.355   7.352   4.156
 1426TIP3   OH2 4220   7.042   0.944   2.746
 1426TIP3    H1 4221   6.964   0.962   2.797
 1426TIP3    H2 4222   7.041   0.849   2.733
 1427TIP3   OH2 4223   7.666   1.698   2.660
 1427TIP3    H1 4224   7.709   1.764   2.714
 1427TIP3    H2 4225   7.736   1.638   2.635
 1428TIP3   OH2 4226   1.330   6.542   6.144
 1428TIP3    H1 4227   1.292   6.630   6.152
 1428TIP3    H2 4228   1.312   6.502   6.229
 1429TIP3   OH2 4229   1.928   4.235   0.873
 1429TIP3    H1 4230   1.850   4.270   0.917
 1429TIP3    H2 4231   2.000   4.286   0.910
 1430TIP3   OH2 4232   0.528   2.786   5.029
 1430TIP3    H1 4233   0.587   2.805   5.102
 1430TIP3    H2 4234   0.535   2.692   5.016
 1431TIP3   OH2 4235   7.690   5.886   0.820
 1431TIP3    H1 4236   7.724   5.970   0.850
 1431TIP3    H2 4237   7.601   5.906   0.790
 1432TIP3   OH2 4238   1.958   4.742   4.500
 1432TIP3    H1 4239   1.892   4.793   4.547
 1432TIP3    H2 4240   1.914   4.717   4.418
 1433TIP3   OH2 4241   1.178   7.465   5.313
 1433TIP3    H1 4242   1.154   7.546   5.270
 1433TIP3    H2 4243   1.273   7.460   5.303
 1434TIP3   OH2 4244   4.357   7.222   3.029
 1434TIP3    H1 4245   4.326   7.137   3.062
 1434TIP3    H2 4246   4.419   7.251   3.096
 1435TIP3   OH2 4247   4.643   0.397   3.623
 1435TIP3    H1 4248   4.585   0.445   3.564
 1435TIP3    H2 4249   4.717   0.370   3.568
 1436TIP3   OH2 4250   5.603   6.263   0.088
 1436TIP3    H1 4251   5.592   6.174   0.119
 1436TIP3    H2 4252   5.675   6.298   0.141
 1437TIP3   OH2 4253   5.768   1.795   3.997
 1437TIP3    H1 4254   5.779   1.717   4.052
 1437TIP3    H2 4255   5.722   1.858   4.053
 1438TIP3   OH2 4256   0.749   3.241   3.401
 1438TIP3    H1 4257   0.725   3.326   3.364
 1438TIP3    H2 4258   0.684   3.225   3.469
 1439TIP3   OH2 4259   1.780   4.649   2.777
 1439TIP3    H1 4260   1.764   4.618   2.866
 1439TIP3    H2 4261   1.782   4.570   2.724
 1440TIP3   OH2 4262   1.089   7.731   0.298
 1440TIP3    H1 4263   1.025   7.802   0.306
 1440TIP3    H2 4264   1.037   7.651   0.308
 1441TIP3   OH2 4265   1.462   4.777   3.958
 1441TIP3    H1 4266   1.451   4.791   4.052
 1441TIP3    H2 4267   1.557   4.778   3.944
 1442TIP3   OH2 4268   6.166   3.596   2.330
 1442TIP3    H1 4269   6.160   3.655   2.405
 1442TIP3    H2 4270   6.084   3.608   2.283
 1443TIP3   OH2 4271   7.216   6.864   6.139
 1443TIP3    H1 4272   7.166   6.790   6.106
 1443TIP3    H2 4273   7.150   6.926   6.168
 1444TIP3   OH2 4274   7.213   3.169   3.686
 1444TIP3    H1 4275   7.194   3.075   3.675
 1444TIP3    H2 4276   7.181   3.209   3.605
 1445TIP3   OH2 4277   8.186   3.533   5.635
 1445TIP3    H1 4278   8.204   3.621   5.669
 1445TIP3    H2 4279   8.222   3.474   5.700
 1446TIP3   OH2 4280   1.024   3.644   1.425
 1446TIP3    H1 4281   1.091   3.693   1.473
 1446TIP3    H2 4282   1.059   3.636   1.337
 1447TIP3   OH2 4283   0.816   6.919   4.190
 1447TIP3    H1 4284   0.797   6.918   4.097
 1447TIP3    H2 4285   0.826   7.011   4.213
 1448TIP3   OH2 4286   7.307   4.705   1.343
 1448TIP3    H1 4287   7.380   4.643   1.346
 1448TIP3    H2 4288   7.232   4.655   1.377
 1449TIP3   OH2 4289   7.923   1.687   0.025
 1449TIP3    H1 4290   7.905   1.621  -0.041
 1449TIP3    H2 4291   7.848   1.682   0.085
 1450TIP3   OH2 4292   3.019   3.151   4.658
 1450TIP3    H1 4293   3.114   3.137   4.658
 1450TIP3    H2 4294   3.008   3.242   4.683
 1451TIP3   OH2 4295   5.815   4.104   0.482
 1451TIP3    H1 4296   5.757   4.175   0.509
 1451TIP3    H2 4297   5.853   4.072   0.564
 1452TIP3   OH2 4298   0.333   7.600   4.000
 1452TIP3    H1 4299   0.261   7.601   4.063
 1452TIP3    H2 4300   0.337   7.690   3.966
 1453TIP3   OH2 4301   2.121   2.537   5.767
 1453TIP3    H1 4302   2.199   2.590   5.750
 1453TIP3    H2 4303   2.070   2.589   5.829
 1454TIP3   OH2 4304   6.005   5.286   5.887
 1454TIP3    H1 4305   5.985   5.248   5.973
 1454TIP3    H2 4306   5.968   5.374   5.891
 1455TIP3   OH2 4307   7.556   3.081   0.463
 1455TIP3    H1 4308   7.574   3.000   0.511
 1455TIP3    H2 4309   7.638   3.130   0.468
 1456TIP3   OH2 4310   2.303   0.043   1.432
 1456TIP3    H1 4311   2.310   0.138   1.445
 1456TIP3    H2 4312   2.218   0.020   1.468
 1457TIP3   OH2 4313   1.270   3.395   2.553
 1457TIP3    H1 4314   1.336   3.376   2.486
 1457TIP3    H2 4315   1.305   3.471   2.601
 1458TIP3   OH2 4316   7.261   5.000   2.808
 1458TIP3    H1 4317   7.233   5.091   2.805
 1458TIP3    H2 4318   7.296   4.983   2.720
 1459TIP3   OH2 4319   1.214   3.989   6.394
 1459TIP3    H1 4320   1.212   3.893   6.392
 1459TIP3    H2 4321   1.307   4.011   6.385
 1460TIP3   OH2 4322   1.882   4.513   1.831
 1460TIP3    H1 4323   1.837   4.428   1.836
 1460TIP3    H2 4324   1.887   4.531   1.737
 1461TIP3   OH2 4325   3.632   0.302   6.276
 1461TIP3    H1 4326   3.549   0.314   6.323
 1461TIP3    H2 4327   3.680   0.383   6.292
 1462TIP3   OH2 4328   5.026   7.434   1.898
 1462TIP3    H1 4329   5.082   7.484   1.957
 1462TIP3    H2 4330   5.081   7.363   1.866
 1463TIP3   OH2 4331   1.173   0.095   0.736
 1463TIP3    H1 4332   1.140   0.005   0.728
 1463TIP3    H2 4333   1.204   0.116   0.648
 1464TIP3   OH2 4334   6.688   2.627   4.402
 1464TIP3    H1 4335   6.656   2.716   4.391
 1464TIP3    H2 4336   6.700   2.617   4.496
 1465TIP3   OH2 4337   3.911   0.935   4.485
 1465TIP3    H1 4338   3.926   1.026   4.462
 1465TIP3    H2 4339   3.832   0.936   4.540
 1466TIP3   OH2 4340   6.977   2.516   3.995
 1466TIP3    H1 4341   6.988   2.517   3.900
 1466TIP3    H2 4342   6.931   2.598   4.014
 1467TIP3   OH2 4343   5.832   2.446   3.893
 1467TIP3    H1 4344   5.815   2.426   3.801
 1467TIP3    H2 4345   5.905   2.508   3.892
 1468TIP3   OH2 4346   6.356   5.963   5.119
 1468TIP3    H1 4347   6.395   5.941   5.204
 1468TIP3    H2 4348   6.371   5.885   5.065
 1469TIP3   OH2 4349   3.477   7.258   5.925
 1469TIP3    H1 4350   3.519   7.187   5.877
 1469TIP3    H2 4351   3.425   7.304   5.859
 1470TIP3   OH2 4352   0.459   2.447   3.624
 1470TIP3    H1 4353   0.548   2.450   3.588
 1470TIP3    H2 4354   0.429   2.537   3.622
 1471TIP3   OH2 4355   7.476   5.234   6.685
 1471TIP3    H1 4356   7.466   5.246   6.591
 1471TIP3    H2 4357   7.517   5.315   6.715
 1472TIP3   OH2 4358   1.543   4.099   5.832
 1472TIP3    H1 4359   1.451   4.119   5.850
 1472TIP3    H2 4360   1.591   4.171   5.875
 1473TIP3   OH2 4361   2.437   1.573   6.632
 1473TIP3    H1 4362   2.447   1.478   6.625
 1473TIP3    H2 4363   2.376   1.585   6.705
 1474TIP3   OH2 4364   6.070   6.727   5.958
 1474TIP3    H1 4365   6.121   6.751   5.881
 1474TIP3    H2 4366   5.982   6.708   5.925
 1475TIP3   OH2 4367   4.149   2.473   5.733
 1475TIP3    H1 4368   4.089   2.408   5.769
 1475TIP3    H2 4369   4.180   2.522   5.809
 1476TIP3   OH2 4370   5.182   3.837   2.696
 1476TIP3    H1 4371   5.162   3.917   2.646
 1476TIP3    H2 4372   5.269   3.853   2.733
 1477TIP3   OH2 4373   4.376   1.595   6.486
 1477TIP3    H1 4374   4.286   1.564   6.480
 1477TIP3    H2 4375   4.429   1.515   6.484
 1478TIP3   OH2 4376   5.353   6.436   0.013
 1478TIP3    H1 4377   5.413   6.361   0.014
 1478TIP3    H2 4378   5.410   6.512   0.001
 1479TIP3   OH2 4379   8.105   5.297   0.809
 1479TIP3    H1 4380   8.126   5.263   0.722
 1479TIP3    H2 4381   8.190   5.305   0.853
 1480TIP3   OH2 4382   4.266   1.771   2.581
 1480TIP3    H1 4383   4.282   1.826   2.658
 1480TIP3    H2 4384   4.171   1.772   2.571
 1481TIP3   OH2 4385   5.924   4.170   4.817
 1481TIP3    H1 4386   5.897   4.093   4.767
 1481TIP3    H2 4387   6.018   4.175   4.804
 1482TIP3   OH2 4388   1.078   5.636   4.219
 1482TIP3    H1 4389   1.118   5.549   4.215
 1482TIP3    H2 4390   0.986   5.621   4.199
 1483TIP3   OH2 4391   0.647   2.478   5.026
 1483TIP3    H1 4392   0.588   2.404   5.044
 1483TIP3    H2 4393   0.618   2.512   4.941
 1484TIP3   OH2 4394   7.375   7.838   3.768
 1484TIP3    H1 4395   7.317   7.768   3.799
 1484TIP3    H2 4396   7.453   7.831   3.823
 1485TIP3   OH2 4397   6.896   7.218   6.715
 1485TIP3    H1 4398   6.846   7.139   6.692
 1485TIP3    H2 4399   6.857   7.247   6.797
 1486TIP3   OH2 4400   0.627   3.105   4.680
 1486TIP3    H1 4401   0.684   3.151   4.742
 1486TIP3    H2 4402   0.539   3.119   4.713
 1487TIP3   OH2 4403   3.038   4.159   0.976
 1487TIP3    H1 4404   3.111   4.221   0.985
 1487TIP3    H2 4405   2.978   4.182   1.046
 1488TIP3   OH2 4406   5.418   5.030   4.623
 1488TIP3    H1 4407   5.358   5.014   4.551
 1488TIP3    H2 4408   5.502   5.048   4.581
 1489TIP3   OH2 4409   7.396   0.686   2.900
 1489TIP3    H1 4410   7.399   0.712   2.808
 1489TIP3    H2 4411   7.462   0.741   2.942
 1490TIP3   OH2 4412   1.251   7.594   2.002
 1490TIP3    H1 4413   1.180   7.620   1.943
 1490TIP3    H2 4414   1.330   7.600   1.948
 1491TIP3   OH2 4415   0.090   0.066   4.568
 1491TIP3    H1 4416   0.097   0.067   4.472
 1491TIP3    H2 4417   0.017   0.007   4.586
 1492TIP3   OH2 4418   1.657   6.784   0.833
 1492TIP3    H1 4419   1.643   6.691   0.851
 1492TIP3    H2 4420   1.614   6.798   0.748
 1493TIP3   OH2 4421   6.422   3.074   4.479
 1493TIP3    H1 4422   6.348   3.110   4.527
 1493TIP3    H2 4423   6.481   3.149   4.467
 1494TIP3   OH2 4424   0.752   4.027   0.948
 1494TIP3    H1 4425   0.754   3.935   0.975
 1494TIP3    H2 4426   0.708   4.027   0.863
 1495TIP3   OH2 4427   0.179   7.081   1.426
 1495TIP3    H1 4428   0.198   7.031   1.505
 1495TIP3    H2 4429   0.178   7.172   1.455
 1496TIP3   OH2 4430   4.953   2.367   4.623
 1496TIP3    H1 4431   5.034   2.404   4.587
 1496TIP3    H2 4432   4.982   2.303   4.687
 1497TIP3   OH2 4433   1.292   2.526   2.733
 1497TIP3    H1 4434   1.276   2.454   2.794
 1497TIP3    H2 4435   1.329   2.484   2.655
 1498TIP3   OH2 4436   2.685   3.734   0.180
 1498TIP3    H1 4437   2.744   3.658   0.187
 1498TIP3    H2 4438   2.692   3.761   0.088
 1499TIP3   OH2 4439   5.231   6.191   5.583
 1499TIP3    H1 4440   5.188   6.116   5.541
 1499TIP3    H2 4441   5.253   6.159   5.671
 1500TIP3   OH2 4442   3.594   1.999   1.820
 1500TIP3    H1 4443   3.607   1.923   1.762
 1500TIP3    H2 4444   3.499   2.009   1.825
 1501TIP3   OH2 4445   3.658   5.812   1.513
 1501TIP3    H1 4446   3.724   5.754   1.475
 1501TIP3    H2 4447   3.637   5.773   1.598
 1502TIP3   OH2 4448   0.327   2.031   1.891
 1502TIP3    H1 4449   0.399   1.972   1.870
 1502TIP3    H2 4450   0.261   1.974   1.933
 1503TIP3   OH2 4451   4.654   1.062   6.334
 1503TIP3    H1 4452   4.561   1.075   6.356
 1503TIP3    H2 4453   4.688   1.008   6.406
 1504TIP3   OH2 4454   5.066   5.238   0.639
 1504TIP3    H1 4455   4.973   5.252   0.654
 1504TIP3    H2 4456   5.099   5.324   0.614
 1505TIP3   OH2 4457   4.089   3.005   0.166
 1505TIP3    H1 4458   4.083   3.012   0.262
 1505TIP3    H2 4459   4.123   2.917   0.151
 1506TIP3   OH2 4460   1.532   4.462   0.595
 1506TIP3    H1 4461   1.538   4.553   0.622
 1506TIP3    H2 4462   1.572   4.413   0.667
 1507TIP3   OH2 4463   0.848   7.667   4.153
 1507TIP3    H1 4464   0.933   7.686   4.195
 1507TIP3    H2 4465   0.818   7.752   4.122
 1508TIP3   OH2 4466   3.987   1.337   3.116
 1508TIP3    H1 4467   4.049   1.410   3.118
 1508TIP3    H2 4468   4.038   1.264   3.079
 1509TIP3   OH2 4469   6.379   1.271   0.799
 1509TIP3    H1 4470   6.312   1.336   0.820
 1509TIP3    H2 4471   6.438   1.316   0.739
 1510TIP3   OH2 4472   0.102   0.525   0.455
 1510TIP3    H1 4473   0.051   0.507   0.376
 1510TIP3    H2 4474   0.126   0.438   0.488
 1511TIP3   OH2 4475   3.719   0.423   0.258
 1511TIP3    H1 4476   3.692   0.336   0.230
 1511TIP3    H2 4477   3.686   0.481   0.190
 1512TIP3   OH2 4478   5.647   1.046   0.846
 1512TIP3    H1 4479   5.582   1.065   0.914
 1512TIP3    H2 4480   5.683   0.961   0.872
 1513TIP3   OH2 4481   4.606   1.149   6.664
 1513TIP3    H1 4482   4.675   1.151   6.731
 1513TIP3    H2 4483   4.571   1.060   6.669
 1514TIP3   OH2 4484   2.550   4.113   6.422
 1514TIP3    H1 4485   2.560   4.030   6.376
 1514TIP3    H2 4486   2.630   4.161   6.402
 1515TIP3   OH2 4487   7.144   3.968   0.826
 1515TIP3    H1 4488   7.053   3.983   0.852
 1515TIP3    H2 4489   7.143   3.982   0.731
 1516TIP3   OH2 4490   0.595   5.156   2.788
 1516TIP3    H1 4491   0.638   5.170   2.703
 1516TIP3    H2 4492   0.503   5.175   2.772
 1517TIP3   OH2 4493   4.403   5.394   5.460
 1517TIP3    H1 4494   4.390   5.348   5.377
 1517TIP3    H2 4495   4.357   5.477   5.449
 1518TIP3   OH2 4496   1.373   7.672   3.216
 1518TIP3    H1 4497   1.453   7.621   3.202
 1518TIP3    H2 4498   1.371   7.734   3.143
 1519TIP3   OH2 4499   2.178   4.823   5.174
 1519TIP3    H1 4500   2.244   4.765   5.136
 1519TIP3    H2 4501   2.107   4.765   5.202
 1520TIP3   OH2 4502   3.123   0.070   5.690
 1520TIP3    H1 4503   3.173   0.140   5.647
 1520TIP3    H2 4504   3.190   0.019   5.737
 1521TIP3   OH2 4505   5.569   1.606   0.915
 1521TIP3    H1 4506   5.630   1.635   0.848
 1521TIP3    H2 4507   5.606   1.523   0.947
 1522TIP3   OH2 4508   2.735   0.934   1.718
 1522TIP3    H1 4509   2.680   0.855   1.721
 1522TIP3    H2 4510   2.823   0.900   1.704
 1523TIP3   OH2 4511   3.996   0.240   0.483
 1523TIP3    H1 4512   3.987   0.323   0.529
 1523TIP3    H2 4513   3.984   0.262   0.391
 1524TIP3   OH2 4514   7.012   0.670   4.325
 1524TIP3    H1 4515   7.044   0.646   4.238
 1524TIP3    H2 4516   6.917   0.676   4.315
 1525TIP3   OH2 4517   0.741   1.231   2.775
 1525TIP3    H1 4518   0.648   1.247   2.793
 1525TIP3    H2 4519   0.758   1.145   2.812
 1526TIP3   OH2 4520   5.438   1.498   2.799
 1526TIP3    H1 4521   5.480   1.517   2.716
 1526TIP3    H2 4522   5.396   1.580   2.825
 1527TIP3   OH2 4523   4.242   4.485   5.749
 1527TIP3    H1 4524   4.310   4.426   5.718
 1527TIP3    H2 4525   4.287   4.568   5.763
 1528TIP3   OH2 4526   2.093   0.578   5.617
 1528TIP3    H1 4527   2.020   0.535   5.661
 1528TIP3    H2 4528   2.078   0.560   5.524
 1529TIP3   OH2 4529   6.179   4.723   0.995
 1529TIP3    H1 4530   6.216   4.713   0.907
 1529TIP3    H2 4531   6.182   4.817   1.012
 1530TIP3   OH2 4532   0.810   7.340   2.362
 1530TIP3    H1 4533   0.846   7.362   2.276
 1530TIP3    H2 4534   0.855   7.399   2.422
 1531TIP3   OH2 4535   6.703   2.328   5.755
 1531TIP3    H1 4536   6.757   2.406   5.759
 1531TIP3    H2 4537   6.752   2.263   5.806
 1532TIP3   OH2 4538   4.355   6.043   4.553
 1532TIP3    H1 4539   4.442   6.021   4.520
 1532TIP3    H2 4540   4.366   6.048   4.648
 1533TIP3   OH2 4541   5.281   4.123   3.926
 1533TIP3    H1 4542   5.217   4.089   3.864
 1533TIP3    H2 4543   5.366   4.095   3.892
 1534TIP3   OH2 4544   6.834   7.132   3.867
 1534TIP3    H1 4545   6.906   7.108   3.808
 1534TIP3    H2 4546   6.872   7.198   3.924
 1535TIP3   OH2 4547   8.040   7.580   4.243
 1535TIP3    H1 4548   8.112   7.596   4.304
 1535TIP3    H2 4549   7.969   7.547   4.298
 1536TIP3   OH2 4550   2.032   3.477   3.185
 1536TIP3    H1 4551   2.097   3.492   3.254
 1536TIP3    H2 4552   1.961   3.431   3.229
 1537TIP3   OH2 4553   0.545   5.019   3.619
 1537TIP3    H1 4554   0.487   5.090   3.644
 1537TIP3    H2 4555   0.545   5.021   3.523
 1538TIP3   OH2 4556   2.670   1.447   0.443
 1538TIP3    H1 4557   2.648   1.427   0.534
 1538TIP3    H2 4558   2.707   1.535   0.446
 1539TIP3   OH2 4559   0.504   2.954   1.487
 1539TIP3    H1 4560   0.582   2.950   1.430
 1539TIP3    H2 4561   0.449   2.881   1.457
 1540TIP3   OH2 4562   0.207   5.154   0.272
 1540TIP3    H1 4563   0.167   5.214   0.208
 1540TIP3    H2 4564   0.254   5.212   0.332
 1541TIP3   OH2 4565   6.459   4.672   6.644
 1541TIP3    H1 4566   6.468   4.692   6.551
 1541TIP3    H2 4567   6.523   4.602   6.660
 1542TIP3   OH2 4568   3.982   2.997   4.748
 1542TIP3    H1 4569   3.970   3.077   4.697
 1542TIP3    H2 4570   4.006   3.027   4.835
 1543TIP3   OH2 4571   1.427   1.065   2.724
 1543TIP3    H1 4572   1.408   1.017   2.805
 1543TIP3    H2 4573   1.493   1.130   2.750
 1544TIP3   OH2 4574   2.093   6.031   2.805
 1544TIP3    H1 4575   2.177   6.075   2.817
 1544TIP3    H2 4576   2.099   5.954   2.862
 1545TIP3   OH2 4577   1.260   5.472   6.285
 1545TIP3    H1 4578   1.227   5.522   6.210
 1545TIP3    H2 4579   1.333   5.421   6.250
 1546TIP3   OH2 4580   3.827   6.349   1.817
 1546TIP3    H1 4581   3.893   6.285   1.843
 1546TIP3    H2 4582   3.877   6.422   1.781
 1547TIP3   OH2 4583   6.727   3.679   2.121
 1547TIP3    H1 4584   6.769   3.594   2.108
 1547TIP3    H2 4585   6.788   3.742   2.084
 1548TIP3   OH2 4586   0.180   6.009   3.777
 1548TIP3    H1 4587   0.211   5.919   3.772
 1548TIP3    H2 4588   0.139   6.025   3.692
 1549TIP3   OH2 4589   4.079   5.823   4.418
 1549TIP3    H1 4590   4.105   5.801   4.328
 1549TIP3    H2 4591   4.135   5.768   4.472
 1550TIP3   OH2 4592   1.054   1.137   6.732
 1550TIP3    H1 4593   1.117   1.187   6.784
 1550TIP3    H2 4594   1.107   1.077   6.680
 1551TIP3   OH2 4595   0.077   3.197   1.014
 1551TIP3    H1 4596   0.005   3.142   1.042
 1551TIP3    H2 4597   0.151   3.137   1.004
 1552TIP3   OH2 4598   4.324   3.880   0.596
 1552TIP3    H1 4599   4.382   3.807   0.574
 1552TIP3    H2 4600   4.337   3.943   0.525
 1553TIP3   OH2 4601   2.341   0.276   6.537
 1553TIP3    H1 4602   2.291   0.357   6.521
 1553TIP3    H2 4603   2.323   0.254   6.628
 1554TIP3   OH2 4604   0.022   6.955   3.865
 1554TIP3    H1 4605   0.067   7.025   3.817
 1554TIP3    H2 4606   0.089   6.888   3.877
 1555TIP3   OH2 4607   5.593   0.349   4.385
 1555TIP3    H1 4608   5.644   0.383   4.312
 1555TIP3    H2 4609   5.652   0.355   4.460
 1556TIP3   OH2 4610   7.597   5.400   1.147
 1556TIP3    H1 4611   7.524   5.393   1.084
 1556TIP3    H2 4612   7.675   5.406   1.092
 1557TIP3   OH2 4613   2.671   2.331   0.941
 1557TIP3    H1 4614   2.662   2.244   0.979
 1557TIP3    H2 4615   2.585   2.372   0.954
 1558TIP3   OH2 4616   5.766   6.817   4.956
 1558TIP3    H1 4617   5.680   6.789   4.987
 1558TIP3    H2 4618   5.762   6.806   4.861
 1559TIP3   OH2 4619   0.800   3.861   0.185
 1559TIP3    H1 4620   0.844   3.793   0.134
 1559TIP3    H2 4621   0.832   3.943   0.150
 1560TIP3   OH2 4622   7.677   1.833   1.445
 1560TIP3    H1 4623   7.714   1.757   1.490
 1560TIP3    H2 4624   7.585   1.833   1.470
 1561TIP3   OH2 4625   5.046   6.048   3.426
 1561TIP3    H1 4626   5.097   6.068   3.347
 1561TIP3    H2 4627   5.004   5.964   3.407
 1562TIP3   OH2 4628   7.079   5.484   2.911
 1562TIP3    H1 4629   7.114   5.570   2.889
 1562TIP3    H2 4630   6.984   5.492   2.898
 1563TIP3   OH2 4631   5.994   3.189   0.337
 1563TIP3    H1 4632   6.035   3.131   0.400
 1563TIP3    H2 4633   6.032   3.164   0.253
 1564TIP3   OH2 4634   0.518   2.969   4.384
 1564TIP3    H1 4635   0.490   3.019   4.461
 1564TIP3    H2 4636   0.471   3.010   4.312
 1565TIP3   OH2 4637   7.700   1.646   0.188
 1565TIP3    H1 4638   7.707   1.725   0.242
 1565TIP3    H2 4639   7.607   1.624   0.189
 1566TIP3   OH2 4640   7.804   2.239   1.933
 1566TIP3    H1 4641   7.711   2.262   1.933
 1566TIP3    H2 4642   7.824   2.219   2.025
 1567TIP3   OH2 4643   2.522   5.428   1.038
 1567TIP3    H1 4644   2.546   5.423   1.130
 1567TIP3    H2 4645   2.597   5.470   0.996
 1568TIP3   OH2 4646   5.708   7.442   3.271
 1568TIP3    H1 4647   5.788   7.477   3.232
 1568TIP3    H2 4648   5.737   7.394   3.348
 1569TIP3   OH2 4649   6.523   0.557   1.472
 1569TIP3    H1 4650   6.449   0.500   1.454
 1569TIP3    H2 4651   6.523   0.620   1.399
 1570TIP3   OH2 4652   2.075   2.557   4.163
 1570TIP3    H1 4653   2.122   2.480   4.132
 1570TIP3    H2 4654   2.058   2.607   4.083
 1571TIP3   OH2 4655   3.249   4.562   3.633
 1571TIP3    H1 4656   3.275   4.572   3.542
 1571TIP3    H2 4657   3.278   4.474   3.657
 1572TIP3   OH2 4658   2.118   1.268   3.839
 1572TIP3    H1 4659   2.051   1.329   3.807
 1572TIP3    H2 4660   2.078   1.181   3.829
 1573TIP3   OH2 4661   3.198   7.218   0.705
 1573TIP3    H1 4662   3.135   7.206   0.634
 1573TIP3    H2 4663   3.217   7.312   0.703
 1574TIP3   OH2 4664   0.831   6.987   5.028
 1574TIP3    H1 4665   0.783   7.068   5.011
 1574TIP3    H2 4666   0.832   6.941   4.944
 1575TIP3   OH2 4667   5.466   2.432   3.540
 1575TIP3    H1 4668   5.457   2.394   3.453
 1575TIP3    H2 4669   5.376   2.443   3.570
 1576TIP3   OH2 4670   5.690   1.573   4.888
 1576TIP3    H1 4671   5.768   1.581   4.833
 1576TIP3    H2 4672   5.722   1.587   4.977
 1577TIP3   OH2 4673   2.722   0.991   0.530
 1577TIP3    H1 4674   2.741   1.035   0.614
 1577TIP3    H2 4675   2.716   0.898   0.553
 1578TIP3   OH2 4676   4.876   5.232   3.845
 1578TIP3    H1 4677   4.892   5.142   3.874
 1578TIP3    H2 4678   4.839   5.222   3.757
 1579TIP3   OH2 4679   4.537   0.574   3.454
 1579TIP3    H1 4680   4.552   0.589   3.360
 1579TIP3    H2 4681   4.592   0.639   3.498
 1580TIP3   OH2 4682   6.411   2.871   5.673
 1580TIP3    H1 4683   6.459   2.912   5.745
 1580TIP3    H2 4684   6.410   2.778   5.695
 1581TIP3   OH2 4685   7.049   6.122   3.244
 1581TIP3    H1 4686   7.137   6.161   3.246
 1581TIP3    H2 4687   6.991   6.196   3.229
 1582TIP3   OH2 4688   2.118   3.124   6.234
 1582TIP3    H1 4689   2.188   3.120   6.299
 1582TIP3    H2 4690   2.069   3.203   6.258
 1583TIP3   OH2 4691   3.808   4.788   1.523
 1583TIP3    H1 4692   3.819   4.871   1.476
 1583TIP3    H2 4693   3.740   4.742   1.474
 1584TIP3   OH2 4694   5.074   3.202   6.165
 1584TIP3    H1 4695   5.121   3.144   6.226
 1584TIP3    H2 4696   5.052   3.146   6.090
 1585TIP3   OH2 4697   3.989   7.839   4.307
 1585TIP3    H1 4698   3.917   7.829   4.246
 1585TIP3    H2 4699   3.994   7.755   4.352
 1586TIP3   OH2 4700   5.956   5.312   3.625
 1586TIP3    H1 4701   5.887   5.244   3.622
 1586TIP3    H2 4702   6.003   5.302   3.543
 1587TIP3   OH2 4703   0.276   2.928   5.911
 1587TIP3    H1 4704   0.272   2.975   5.828
 1587TIP3    H2 4705   0.191   2.943   5.952
 1588TIP3   OH2 4706   1.388  -0.037   6.295
 1588TIP3    H1 4707   1.295  -0.045   6.272
 1588TIP3    H2 4708   1.408   0.055   6.280
 1589TIP3   OH2 4709   7.032   6.721   5.384
 1589TIP3    H1 4710   7.119   6.715   5.344
 1589TIP3    H2 4711   6.972   6.725   5.309
 1590TIP3   OH2 4712   3.040   3.967   0.030
 1590TIP3    H1 4713   2.953   3.989  -0.004
 1590TIP3    H2 4714   3.074   4.050   0.063
 1591TIP3   OH2 4715   6.995   7.503   2.694
 1591TIP3    H1 4716   7.086   7.516   2.666
 1591TIP3    H2 4717   6.962   7.591   2.711
 1592TIP3   OH2 4718   6.889   6.342   3.271
 1592TIP3    H1 4719   6.826   6.361   3.341
 1592TIP3    H2 4720   6.884   6.418   3.213
 1593TIP3   OH2 4721   2.911   4.111   5.524
 1593TIP3    H1 4722   2.972   4.081   5.457
 1593TIP3    H2 4723   2.935   4.202   5.540
 1594TIP3   OH2 4724   7.909   7.178   2.226
 1594TIP3    H1 4725   7.866   7.234   2.291
 1594TIP3    H2 4726   7.997   7.165   2.261
 1595TIP3   OH2 4727   2.253   0.559   2.847
 1595TIP3    H1 4728   2.164   0.529   2.864
 1595TIP3    H2 4729   2.305   0.480   2.842
 1596TIP3   OH2 4730   0.898   7.160   0.543
 1596TIP3    H1 4731   0.867   7.239   0.587
 1596TIP3    H2 4732   0.819   7.108   0.527
 1597TIP3   OH2 4733   3.445   7.338   0.996
 1597TIP3    H1 4734   3.419   7.350   0.905
 1597TIP3    H2 4735   3.455   7.244   1.006
 1598TIP3   OH2 4736   8.197   1.733   5.223
 1598TIP3    H1 4737   8.268   1.673   5.246
 1598TIP3    H2 4738   8.120   1.677   5.215
 1599TIP3   OH2 4739   1.432   2.058   3.942
 1599TIP3    H1 4740   1.375   2.075   4.018
 1599TIP3    H2 4741   1.480   2.140   3.931
 1600TIP3   OH2 4742   3.253   2.432   6.741
 1600TIP3    H1 4743   3.298   2.432   6.657
 1600TIP3    H2 4744   3.218   2.521   6.750
 1601TIP3   OH2 4745   3.273   2.584   2.768
 1601TIP3    H1 4746   3.346   2.640   2.793
 1601TIP3    H2 4747   3.310   2.495   2.764
 1602TIP3   OH2 4748   6.518   0.455   6.648
 1602TIP3    H1 4749   6.576   0.530   6.666
 1602TIP3    H2 4750   6.465   0.448   6.727
 1603TIP3   OH2 4751   0.686   6.620   0.269
 1603TIP3    H1 4752   0.598   6.601   0.236
 1603TIP3    H2 4753   0.742   6.555   0.228
 1604TIP3   OH2 4754   6.386   2.518   5.688
 1604TIP3    H1 4755   6.302   2.537   5.646
 1604TIP3    H2 4756   6.370   2.439   5.739
 1605TIP3   OH2 4757   4.392   3.517   5.462
 1605TIP3    H1 4758   4.430   3.499   5.548
 1605TIP3    H2 4759   4.311   3.467   5.461
 1606TIP3   OH2 4760   2.876   1.316   6.757
 1606TIP3    H1 4761   2.794   1.339   6.713
 1606TIP3    H2 4762   2.856   1.235   6.804
 1607TIP3   OH2 4763   3.544   3.542   0.584
 1607TIP3    H1 4764   3.568   3.598   0.511
 1607TIP3    H2 4765   3.494   3.599   0.643
 1608TIP3   OH2 4766   6.284   6.223   5.689
 1608TIP3    H1 4767   6.376   6.211   5.709
 1608TIP3    H2 4768   6.253   6.285   5.755
 1609TIP3   OH2 4769   0.429   0.497   6.438
 1609TIP3    H1 4770   0.370   0.435   6.395
 1609TIP3    H2 4771   0.449   0.562   6.371
 1610TIP3   OH2 4772   0.489   6.085   1.797
 1610TIP3    H1 4773   0.464   5.994   1.780
 1610TIP3    H2 4774   0.495   6.125   1.711
 1611TIP3   OH2 4775   6.521   4.202   5.469
 1611TIP3    H1 4776   6.464   4.204   5.392
 1611TIP3    H2 4777   6.579   4.277   5.457
 1612TIP3   OH2 4778   1.745   1.524   2.045
 1612TIP3    H1 4779   1.812   1.541   2.112
 1612TIP3    H2 4780   1.794   1.489   1.971
 1613TIP3   OH2 4781   0.995   4.194   4.110
 1613TIP3    H1 4782   0.908   4.233   4.098
 1613TIP3    H2 4783   1.006   4.136   4.035
 1614TIP3   OH2 4784   4.167   1.925   4.847
 1614TIP3    H1 4785   4.239   1.869   4.875
 1614TIP3    H2 4786   4.107   1.866   4.801
 1615TIP3   OH2 4787   4.724   1.169   1.371
 1615TIP3    H1 4788   4.724   1.086   1.418
 1615TIP3    H2 4789   4.799   1.164   1.311
 1616TIP3   OH2 4790   5.122   7.684   4.901
 1616TIP3    H1 4791   5.096   7.594   4.917
 1616TIP3    H2 4792   5.199   7.698   4.956
 1617TIP3   OH2 4793   5.824   0.000   5.511
 1617TIP3    H1 4794   5.802  -0.025   5.421
 1617TIP3    H2 4795   5.872   0.082   5.503
 1618TIP3   OH2 4796   2.434   1.516   5.988
 1618TIP3    H1 4797   2.428   1.517   5.892
 1618TIP3    H2 4798   2.346   1.536   6.018
 1619TIP3   OH2 4799   3.654   1.987   2.622
 1619TIP3    H1 4800   3.718   2.058   2.615
 1619TIP3    H2 4801   3.697   1.921   2.675
 1620TIP3   OH2 4802   0.745   1.022   2.973
 1620TIP3    H1 4803   0.821   0.976   3.009
 1620TIP3    H2 4804   0.693   1.045   3.049
 1621TIP3   OH2 4805   3.829   2.009   1.127
 1621TIP3    H1 4806   3.891   2.057   1.181
 1621TIP3    H2 4807   3.820   2.062   1.048
 1622TIP3   OH2 4808   7.542   6.570   0.081
 1622TIP3    H1 4809   7.457   6.600   0.049
 1622TIP3    H2 4810   7.527   6.479   0.108
 1623TIP3   OH2 4811   0.426   3.820   3.507
 1623TIP3    H1 4812   0.474   3.845   3.586
 1623TIP3    H2 4813   0.433   3.897   3.450
 1624TIP3   OH2 4814   7.366   5.539   5.730
 1624TIP3    H1 4815   7.397   5.598   5.798
 1624TIP3    H2 4816   7.343   5.458   5.776
 1625TIP3   OH2 4817   2.309   4.576   1.395
 1625TIP3    H1 4818   2.375   4.621   1.342
 1625TIP3    H2 4819   2.225   4.606   1.360
 1626TIP3   OH2 4820   7.859   1.415   4.434
 1626TIP3    H1 4821   7.934   1.456   4.476
 1626TIP3    H2 4822   7.834   1.343   4.492
 1627TIP3   OH2 4823   3.751   6.650   3.494
 1627TIP3    H1 4824   3.830   6.704   3.483
 1627TIP3    H2 4825   3.708   6.654   3.409
 1628TIP3   OH2 4826   6.982   2.299   6.270
 1628TIP3    H1 4827   6.952   2.213   6.242
 1628TIP3    H2 4828   7.050   2.280   6.335
 1629TIP3   OH2 4829   6.764   1.201   3.599
 1629TIP3    H1 4830   6.671   1.217   3.587
 1629TIP3    H2 4831   6.781   1.119   3.551
 1630TIP3   OH2 4832   7.669   2.314   5.722
 1630TIP3    H1 4833   7.659   2.297   5.816
 1630TIP3    H2 4834   7.579   2.322   5.690
 1631TIP3   OH2 4835   1.273   1.176   4.251
 1631TIP3    H1 4836   1.187   1.219   4.256
 1631TIP3    H2 4837   1.278   1.121   4.329
 1632TIP3   OH2 4838   3.577   3.395   6.619
 1632TIP3    H1 4839   3.522   3.469   6.643
 1632TIP3    H2 4840   3.660   3.434   6.593
 1633TIP3   OH2 4841   5.323   3.122   1.563
 1633TIP3    H1 4842   5.341   3.199   1.509
 1633TIP3    H2 4843   5.348   3.147   1.652
 1634TIP3   OH2 4844   7.959   3.866   3.695
 1634TIP3    H1 4845   8.006   3.831   3.771
 1634TIP3    H2 4846   7.955   3.792   3.634
 1635TIP3   OH2 4847   1.109   1.143   2.147
 1635TIP3    H1 4848   1.088   1.202   2.074
 1635TIP3    H2 4849   1.113   1.200   2.224
 1636TIP3   OH2 4850   7.674   4.183   2.349
 1636TIP3    H1 4851   7.735   4.194   2.422
 1636TIP3    H2 4852   7.730   4.183   2.271
 1637TIP3   OH2 4853   7.138   5.197   1.990
 1637TIP3    H1 4854   7.202   5.208   2.061
 1637TIP3    H2 4855   7.173   5.125   1.937
 1638TIP3   OH2 4856   0.214   3.512   5.909
 1638TIP3    H1 4857   0.148   3.579   5.894
 1638TIP3    H2 4858   0.249   3.531   5.996
 1639TIP3   OH2 4859   4.853   0.770   1.277
 1639TIP3    H1 4860   4.783   0.718   1.237
 1639TIP3    H2 4861   4.879   0.831   1.208
 1640TIP3   OH2 4862   3.114   3.945   3.090
 1640TIP3    H1 4863   3.052   3.976   3.156
 1640TIP3    H2 4864   3.059   3.909   3.020
 1641TIP3   OH2 4865   5.872   3.340   6.183
 1641TIP3    H1 4866   5.821   3.420   6.170
 1641TIP3    H2 4867   5.807   3.270   6.186
 1642TIP3   OH2 4868   0.121   1.055   1.953
 1642TIP3    H1 4869   0.122   1.088   1.863
 1642TIP3    H2 4870   0.207   1.077   1.988
 1643TIP3   OH2 4871   7.157   1.971   6.016
 1643TIP3    H1 4872   7.221   2.008   5.955
 1643TIP3    H2 4873   7.203   1.896   6.055
 1644TIP3   OH2 4874   8.172   0.953   2.757
 1644TIP3    H1 4875   8.125   0.872   2.772
 1644TIP3    H2 4876   8.201   0.948   2.666
 1645TIP3   OH2 4877   2.523   4.721   4.416
 1645TIP3    H1 4878   2.478   4.729   4.332
 1645TIP3    H2 4879   2.552   4.629   4.418
 1646TIP3   OH2 4880   6.434   3.543   4.392
 1646TIP3    H1 4881   6.395   3.497   4.318
 1646TIP3    H2 4882   6.487   3.612   4.352
 1647TIP3   OH2 4883   6.518   2.660   2.090
 1647TIP3    H1 4884   6.484   2.600   2.024
 1647TIP3    H2 4885   6.460   2.648   2.165
 1648TIP3   OH2 4886   7.111   1.346   4.948
 1648TIP3    H1 4887   7.132   1.411   5.015
 1648TIP3    H2 4888   7.036   1.298   4.983
 1649TIP3   OH2 4889   1.074   7.537   3.352
 1649TIP3    H1 4890   1.155   7.586   3.364
 1649TIP3    H2 4891   1.076   7.470   3.421
 1650TIP3   OH2 4892   1.482   6.319   1.994
 1650TIP3    H1 4893   1.531   6.330   2.076
 1650TIP3    H2 4894   1.391   6.305   2.022
 1651TIP3   OH2 4895   8.064   0.056   0.029
 1651TIP3    H1 4896   8.009   0.126  -0.005
 1651TIP3    H2 4897   8.143   0.058  -0.025
 1652TIP3   OH2 4898   0.751   5.862   5.483
 1652TIP3    H1 4899   0.782   5.901   5.565
 1652TIP3    H2 4900   0.791   5.775   5.480
 1653TIP3   OH2 4901   0.496   5.796   5.436
 1653TIP3    H1 4902   0.587   5.816   5.461
 1653TIP3    H2 4903   0.459   5.753   5.513
 1654TIP3   OH2 4904   1.091   2.321   4.519
 1654TIP3    H1 4905   1.004   2.356   4.499
 1654TIP3    H2 4906   1.147   2.398   4.522
 1655TIP3   OH2 4907   5.890   3.290   0.804
 1655TIP3    H1 4908   5.944   3.212   0.815
 1655TIP3    H2 4909   5.830   3.268   0.733
 1656TIP3   OH2 4910   1.344   1.213   3.056
 1656TIP3    H1 4911   1.396   1.137   3.082
 1656TIP3    H2 4912   1.398   1.288   3.081
 1657TIP3   OH2 4913   7.467   4.298   2.005
 1657TIP3    H1 4914   7.412   4.298   1.927
 1657TIP3    H2 4915   7.420   4.353   2.067
 1658TIP3   OH2 4916   0.409   4.355   1.149
 1658TIP3    H1 4917   0.431   4.262   1.152
 1658TIP3    H2 4918   0.487   4.397   1.113
 1659TIP3   OH2 4919   5.452   3.300   6.325
 1659TIP3    H1 4920   5.531   3.353   6.337
 1659TIP3    H2 4921   5.429   3.312   6.233
 1660TIP3   OH2 4922   0.296   7.112   2.541
 1660TIP3    H1 4923   0.203   7.113   2.518
 1660TIP3    H2 4924   0.298   7.122   2.636
 1661TIP3   OH2 4925   0.483   4.652   0.523
 1661TIP3    H1 4926   0.456   4.601   0.599
 1661TIP3    H2 4927   0.418   4.631   0.456
 1662TIP3   OH2 4928   3.902   0.619   3.103
 1662TIP3    H1 4929   3.969   0.630   3.035
 1662TIP3    H2 4930   3.948   0.574   3.174
 1663TIP3   OH2 4931   4.807   0.144   2.117
 1663TIP3    H1 4932   4.835   0.142   2.208
 1663TIP3    H2 4933   4.711   0.140   2.121
 1664TIP3   OH2 4934   6.374   1.614   3.096
 1664TIP3    H1 4935   6.466   1.594   3.080
 1664TIP3    H2 4936   6.375   1.698   3.141
 1665TIP3   OH2 4937   2.963   5.740   6.682
 1665TIP3    H1 4938   2.901   5.792   6.631
 1665TIP3    H2 4939   3.048   5.780   6.665
 1666TIP3   OH2 4940   3.749   3.214   3.800
 1666TIP3    H1 4941   3.813   3.153   3.838
 1666TIP3    H2 4942   3.735   3.279   3.869
 1667TIP3   OH2 4943   2.196   4.248   1.980
 1667TIP3    H1 4944   2.242   4.205   1.908
 1667TIP3    H2 4945   2.261   4.307   2.018
 1668TIP3   OH2 4946   2.363   2.623   5.710
 1668TIP3    H1 4947   2.424   2.640   5.782
 1668TIP3    H2 4948   2.387   2.687   5.643
 1669TIP3   OH2 4949   8.064   3.353   4.720
 1669TIP3    H1 4950   7.995   3.287   4.725
 1669TIP3    H2 4951   8.037   3.410   4.648
 1670TIP3   OH2 4952   1.197   2.731   2.204
 1670TIP3    H1 4953   1.166   2.756   2.118
 1670TIP3    H2 4954   1.238   2.645   2.191
 1671TIP3   OH2 4955   1.026   3.091   3.352
 1671TIP3    H1 4956   1.029   3.107   3.258
 1671TIP3    H2 4957   0.940   3.052   3.367
 1672TIP3   OH2 4958   2.181   2.376   3.740
 1672TIP3    H1 4959   2.266   2.418   3.755
 1672TIP3    H2 4960   2.181   2.353   3.647
 1673TIP3   OH2 4961   7.407   4.868   2.217
 1673TIP3    H1 4962   7.365   4.791   2.255
 1673TIP3    H2 4963   7.492   4.836   2.187
 1674TIP3   OH2 4964   6.333   4.485   5.673
 1674TIP3    H1 4965   6.360   4.520   5.588
 1674TIP3    H2 4966   6.238   4.483   5.669
 1675TIP3   OH2 4967   4.500   7.593   2.863
 1675TIP3    H1 4968   4.490   7.505   2.826
 1675TIP3    H2 4969   4.431   7.645   2.822
 1676TIP3   OH2 4970   6.745   6.292   2.963
 1676TIP3    H1 4971   6.752   6.320   2.871
 1676TIP3    H2 4972   6.755   6.373   3.013
 1677TIP3   OH2 4973   5.740   3.890   4.935
 1677TIP3    H1 4974   5.709   3.831   5.003
 1677TIP3    H2 4975   5.685   3.968   4.945
 1678TIP3   OH2 4976   3.020   0.442   1.927
 1678TIP3    H1 4977   3.022   0.513   1.863
 1678TIP3    H2 4978   3.064   0.478   2.004
 1679TIP3   OH2 4979   1.679   7.008   5.604
 1679TIP3    H1 4980   1.638   7.074   5.547
 1679TIP3    H2 4981   1.657   6.924   5.564
 1680TIP3   OH2 4982   7.877   2.590   3.112
 1680TIP3    H1 4983   7.862   2.644   3.189
 1680TIP3    H2 4984   7.817   2.625   3.046
 1681TIP3   OH2 4985   5.022   0.444   0.572
 1681TIP3    H1 4986   4.963   0.386   0.524
 1681TIP3    H2 4987   5.040   0.516   0.511
 1682TIP3   OH2 4988   4.941   3.605   4.976
 1682TIP3    H1 4989   4.956   3.566   4.890
 1682TIP3    H2 4990   4.904   3.691   4.957
 1683TIP3   OH2 4991   7.316   0.918   0.151
 1683TIP3    H1 4992   7.325   1.013   0.160
 1683TIP3    H2 4993   7.403   0.889   0.123
 1684TIP3   OH2 4994   2.038   6.450   6.143
 1684TIP3    H1 4995   1.943   6.443   6.154
 1684TIP3    H2 4996   2.073   6.427   6.228
 1685TIP3   OH2 4997   5.036   4.142   5.502
 1685TIP3    H1 4998   5.057   4.220   5.451
 1685TIP3    H2 4999   5.115   4.125   5.554
 1686TIP3   OH2 5000   1.404   0.543   3.214
 1686TIP3    H1 5001   1.397   0.630   3.252
 1686TIP3    H2 5002   1.412   0.485   3.289
 1687TIP3   OH2 5003   0.540   2.606   6.209
 1687TIP3    H1 5004   0.469   2.657   6.170
 1687TIP3    H2 5005   0.620   2.655   6.185
 1688TIP3   OH2 5006   1.010   3.434   0.593
 1688TIP3    H1 5007   0.958   3.440   0.513
 1688TIP3    H2 5008   1.073   3.365   0.576
 1689TIP3   OH2 5009   5.691   4.537   0.796
 1689TIP3    H1 5010   5.735   4.621   0.808
 1689TIP3    H2 5011   5.656   4.515   0.882
 1690TIP3   OH2 5012   3.215   1.933   0.090
 1690TIP3    H1 5013   3.132   1.947   0.043
 1690TIP3    H2 5014   3.281   1.930   0.021
 1691TIP3   OH2 5015   5.849   0.120   6.654
 1691TIP3    H1 5016   5.890   0.098   6.738
 1691TIP3    H2 5017   5.922   0.127   6.593
 1692TIP3   OH2 5018   7.113   3.587   2.470
 1692TIP3    H1 5019   7.161   3.564   2.391
 1692TIP3    H2 5020   7.052   3.514   2.483
 1693TIP3   OH2 5021   4.535   0.421   4.645
 1693TIP3    H1 5022   4.469   0.440   4.712
 1693TIP3    H2 5023   4.605   0.485   4.661
 1694TIP3   OH2 5024   4.878   0.820   5.147
 1694TIP3    H1 5025   4.803   0.784   5.194
 1694TIP3    H2 5026   4.858   0.913   5.137
 1695TIP3   OH2 5027   4.025   0.952   6.619
 1695TIP3    H1 5028   4.017   0.996   6.704
 1695TIP3    H2 5029   4.114   0.970   6.591
 1696TIP3   OH2 5030   0.233   0.912   1.348
 1696TIP3    H1 5031   0.209   1.003   1.331
 1696TIP3    H2 5032   0.257   0.877   1.262
 1697TIP3   OH2 5033   2.089   4.352   6.347
 1697TIP3    H1 5034   2.042   4.434   6.362
 1697TIP3    H2 5035   2.151   4.346   6.419
 1698TIP3   OH2 5036   0.703   3.496   1.943
 1698TIP3    H1 5037   0.797   3.515   1.942
 1698TIP3    H2 5038   0.668   3.547   1.870
 1699TIP3   OH2 5039   7.840   0.711   1.825
 1699TIP3    H1 5040   7.911   0.773   1.806
 1699TIP3    H2 5041   7.760   0.761   1.808
 1700TIP3   OH2 5042   6.134   6.169   0.289
 1700TIP3    H1 5043   6.052   6.159   0.240
 1700TIP3    H2 5044   6.200   6.125   0.236
 1701TIP3   OH2 5045   2.586   0.496   3.873
 1701TIP3    H1 5046   2.614   0.451   3.794
 1701TIP3    H2 5047   2.541   0.429   3.925
 1702TIP3   OH2 5048   5.235   1.576   4.384
 1702TIP3    H1 5049   5.258   1.627   4.462
 1702TIP3    H2 5050   5.293   1.501   4.387
 1703TIP3   OH2 5051   4.823   3.865   4.895
 1703TIP3    H1 5052   4.905   3.911   4.878
 1703TIP3    H2 5053   4.775   3.923   4.955
 1704TIP3   OH2 5054   7.011   0.831   3.722
 1704TIP3    H1 5055   7.082   0.809   3.661
 1704TIP3    H2 5056   7.056   0.861   3.801
 1705TIP3   OH2 5057   1.709   6.194   4.065
 1705TIP3    H1 5058   1.676   6.144   4.140
 1705TIP3    H2 5059   1.749   6.128   4.008
 1706TIP3   OH2 5060   2.389   4.312   5.472
 1706TIP3    H1 5061   2.343   4.237   5.510
 1706TIP3    H2 5062   2.335   4.387   5.496
 1707TIP3   OH2 5063   2.582   6.832   3.896
 1707TIP3    H1 5064   2.515   6.900   3.905
 1707TIP3    H2 5065   2.647   6.853   3.963
 1708TIP3   OH2 5066   6.652   1.378   5.183
 1708TIP3    H1 5067   6.672   1.436   5.257
 1708TIP3    H2 5068   6.641   1.438   5.109
 1709TIP3   OH2 5069   7.922   3.083   2.298
 1709TIP3    H1 5070   7.850   3.124   2.250
 1709TIP3    H2 5071   7.879   3.023   2.359
 1710TIP3   OH2 5072   7.288   6.529   3.576
 1710TIP3    H1 5073   7.229   6.527   3.652
 1710TIP3    H2 5074   7.236   6.492   3.505
 1711TIP3   OH2 5075   1.519   0.529   1.989
 1711TIP3    H1 5076   1.475   0.591   1.930
 1711TIP3    H2 5077   1.607   0.521   1.953
 1712TIP3   OH2 5078   2.404   2.054   2.053
 1712TIP3    H1 5079   2.472   2.010   2.106
 1712TIP3    H2 5080   2.393   1.996   1.977
 1713TIP3   OH2 5081   5.456   3.620   2.299
 1713TIP3    H1 5082   5.379   3.581   2.258
 1713TIP3    H2 5083   5.519   3.549   2.306
 1714TIP3   OH2 5084   2.226   4.663   4.406
 1714TIP3    H1 5085   2.135   4.687   4.423
 1714TIP3    H2 5086   2.259   4.733   4.350
 1715TIP3   OH2 5087   4.548   2.636   1.912
 1715TIP3    H1 5088   4.538   2.708   1.975
 1715TIP3    H2 5089   4.612   2.668   1.849
 1716TIP3   OH2 5090   4.269   6.511   1.016
 1716TIP3    H1 5091   4.227   6.478   1.095
 1716TIP3    H2 5092   4.266   6.607   1.024
 1717TIP3   OH2 5093   7.955   1.098   3.507
 1717TIP3    H1 5094   7.967   1.158   3.581
 1717TIP3    H2 5095   8.033   1.111   3.452
 1718TIP3   OH2 5096   6.839   0.796   2.105
 1718TIP3    H1 5097   6.910   0.858   2.121
 1718TIP3    H2 5098   6.815   0.810   2.014
 1719TIP3   OH2 5099   3.040   1.213   1.777
 1719TIP3    H1 5100   2.981   1.289   1.780
 1719TIP3    H2 5101   3.025   1.176   1.689
 1720TIP3   OH2 5102   6.200   1.539   0.668
 1720TIP3    H1 5103   6.142   1.606   0.630
 1720TIP3    H2 5104   6.218   1.570   0.756
 1721TIP3   OH2 5105   5.688   0.762   5.127
 1721TIP3    H1 5106   5.755   0.694   5.122
 1721TIP3    H2 5107   5.708   0.809   5.208
 1722TIP3   OH2 5108   7.502   6.426   2.827
 1722TIP3    H1 5109   7.438   6.360   2.799
 1722TIP3    H2 5110   7.585   6.393   2.795
 1723TIP3   OH2 5111   6.678   2.518   4.914
 1723TIP3    H1 5112   6.736   2.594   4.917
 1723TIP3    H2 5113   6.595   2.550   4.951
 1724TIP3   OH2 5114   7.800   4.448   4.547
 1724TIP3    H1 5115   7.768   4.504   4.476
 1724TIP3    H2 5116   7.842   4.374   4.503
 1725TIP3   OH2 5117   0.319   6.683   4.296
 1725TIP3    H1 5118   0.271   6.653   4.219
 1725TIP3    H2 5119   0.411   6.680   4.270
 1726TIP3   OH2 5120   4.896   2.702   6.400
 1726TIP3    H1 5121   4.947   2.625   6.375
 1726TIP3    H2 5122   4.914   2.766   6.330
 1727TIP3   OH2 5123   5.061   1.910   2.148
 1727TIP3    H1 5124   5.156   1.903   2.134
 1727TIP3    H2 5125   5.024   1.918   2.060
 1728TIP3   OH2 5126   5.118   1.658   1.325
 1728TIP3    H1 5127   5.049   1.724   1.338
 1728TIP3    H2 5128   5.181   1.700   1.267
 1729TIP3   OH2 5129   0.506   4.789   1.298
 1729TIP3    H1 5130   0.442   4.725   1.267
 1729TIP3    H2 5131   0.463   4.874   1.286
 1730TIP3   OH2 5132   3.021   0.377   3.247
 1730TIP3    H1 5133   2.931   0.407   3.233
 1730TIP3    H2 5134   3.075   0.435   3.193
 1731TIP3   OH2 5135   2.039   6.690   4.088
 1731TIP3    H1 5136   2.005   6.779   4.095
 1731TIP3    H2 5137   2.051   6.662   4.179
 1732TIP3   OH2 5138   7.134   6.927   2.565
 1732TIP3    H1 5139   7.196   6.950   2.634
 1732TIP3    H2 5140   7.088   6.850   2.599
 1733TIP3   OH2 5141   3.116   0.754   3.540
 1733TIP3    H1 5142   3.141   0.809   3.465
 1733TIP3    H2 5143   3.022   0.767   3.548
 1734TIP3   OH2 5144   0.190   3.003   3.480
 1734TIP3    H1 5145   0.212   3.091   3.509
 1734TIP3    H2 5146   0.229   2.996   3.392
 1735TIP3   OH2 5147   0.154   0.702   2.194
 1735TIP3    H1 5148   0.077   0.653   2.162
 1735TIP3    H2 5149   0.121   0.790   2.208
 1736TIP3   OH2 5150   6.062   7.475   2.554
 1736TIP3    H1 5151   5.982   7.518   2.523
 1736TIP3    H2 5152   6.133   7.532   2.524
 1737TIP3   OH2 5153   4.562   4.164   1.174
 1737TIP3    H1 5154   4.605   4.118   1.246
 1737TIP3    H2 5155   4.625   4.230   1.147
 1738TIP3   OH2 5156   7.315   0.242   5.388
 1738TIP3    H1 5157   7.359   0.224   5.305
 1738TIP3    H2 5158   7.232   0.195   5.382
 1739TIP3   OH2 5159   1.530   7.372   3.562
 1739TIP3    H1 5160   1.491   7.445   3.610
 1739TIP3    H2 5161   1.573   7.412   3.487
 1740TIP3   OH2 5162   1.323   5.393   3.767
 1740TIP3    H1 5163   1.317   5.446   3.847
 1740TIP3    H2 5164   1.416   5.376   3.756
 1741TIP3   OH2 5165   2.503   4.238   2.806
 1741TIP3    H1 5166   2.423   4.288   2.823
 1741TIP3    H2 5167   2.472   4.153   2.774
 1742TIP3   OH2 5168   3.935   0.198   5.581
 1742TIP3    H1 5169   4.028   0.199   5.560
 1742TIP3    H2 5170   3.893   0.160   5.503
 1743TIP3   OH2 5171   4.980   3.580   3.517
 1743TIP3    H1 5172   4.910   3.608   3.458
 1743TIP3    H2 5173   4.942   3.586   3.604
 1744TIP3   OH2 5174   8.027   7.082   1.331
 1744TIP3    H1 5175   8.095   7.016   1.349
 1744TIP3    H2 5176   8.009   7.071   1.237
 1745TIP3   OH2 5177   5.260   6.724   2.434
 1745TIP3    H1 5178   5.189   6.667   2.463
 1745TIP3    H2 5179   5.331   6.709   2.496
 1746TIP3   OH2 5180   8.008   0.502   4.791
 1746TIP3    H1 5181   8.094   0.482   4.753
 1746TIP3    H2 5182   7.972   0.416   4.815
 1747TIP3   OH2 5183   2.633   0.832   2.983
 1747TIP3    H1 5184   2.656   0.863   3.070
 1747TIP3    H2 5185   2.672   0.744   2.978
 1748TIP3   OH2 5186   6.150   0.085   4.985
 1748TIP3    H1 5187   6.225   0.066   5.041
 1748TIP3    H2 5188   6.181   0.065   4.897
 1749TIP3   OH2 5189   5.152   2.655   1.504
 1749TIP3    H1 5190   5.148   2.672   1.410
 1749TIP3    H2 5191   5.216   2.718   1.537
 1750TIP3   OH2 5192   4.962   6.450   0.430
 1750TIP3    H1 5193   4.942   6.539   0.456
 1750TIP3    H2 5194   5.044   6.429   0.476
 1751TIP3   OH2 5195   2.956   4.408   5.481
 1751TIP3    H1 5196   3.049   4.389   5.493
 1751TIP3    H2 5197   2.946   4.497   5.514
 1752TIP3   OH2 5198   3.354   1.590   5.503
 1752TIP3    H1 5199   3.330   1.605   5.411
 1752TIP3    H2 5200   3.381   1.676   5.535
 1753TIP3   OH2 5201   2.749   7.539   2.009
 1753TIP3    H1 5202   2.783   7.515   1.923
 1753TIP3    H2 5203   2.778   7.629   2.022
 1754TIP3   OH2 5204   4.541   0.553   6.070
 1754TIP3    H1 5205   4.505   0.506   5.995
 1754TIP3    H2 5206   4.570   0.484   6.130
 1755TIP3   OH2 5207   0.379   4.837   2.252
 1755TIP3    H1 5208   0.373   4.810   2.160
 1755TIP3    H2 5209   0.298   4.886   2.267
 1756TIP3   OH2 5210   3.961   3.166   6.044
 1756TIP3    H1 5211   4.003   3.143   5.961
 1756TIP3    H2 5212   3.923   3.084   6.075
 1757TIP3   OH2 5213   3.753   2.819   5.674
 1757TIP3    H1 5214   3.723   2.771   5.597
 1757TIP3    H2 5215   3.675   2.830   5.728
 1758TIP3   OH2 5216   1.070   5.746   4.475
 1758TIP3    H1 5217   1.059   5.840   4.463
 1758TIP3    H2 5218   1.083   5.712   4.387
 1759TIP3   OH2 5219   3.124   6.608   2.291
 1759TIP3    H1 5220   3.032   6.632   2.280
 1759TIP3    H2 5221   3.127   6.557   2.372
 1760TIP3   OH2 5222   1.469   1.036   1.487
 1760TIP3    H1 5223   1.512   1.119   1.507
 1760TIP3    H2 5224   1.529   0.970   1.520
 1761TIP3   OH2 5225   0.054   6.506   0.145
 1761TIP3    H1 5226   0.069   6.521   0.052
 1761TIP3    H2 5227   0.070   6.412   0.157
 1762TIP3   OH2 5228   2.200   6.393   2.238
 1762TIP3    H1 5229   2.129   6.365   2.181
 1762TIP3    H2 5230   2.231   6.475   2.199
 1763TIP3   OH2 5231   5.993   5.284   1.136
 1763TIP3    H1 5232   6.040   5.350   1.085
 1763TIP3    H2 5233   5.932   5.335   1.189
 1764TIP3   OH2 5234   5.396   5.936   1.282
 1764TIP3    H1 5235   5.373   5.933   1.189
 1764TIP3    H2 5236   5.404   6.030   1.301
 1765TIP3   OH2 5237   1.109   1.833   4.708
 1765TIP3    H1 5238   1.190   1.885   4.708
 1765TIP3    H2 5239   1.124   1.766   4.775
 1766TIP3   OH2 5240   6.607   7.015   2.660
 1766TIP3    H1 5241   6.532   7.070   2.640
 1766TIP3    H2 5242   6.641   6.989   2.575
 1767TIP3   OH2 5243   6.079   1.261   2.936
 1767TIP3    H1 5244   6.117   1.341   2.902
 1767TIP3    H2 5245   6.006   1.242   2.876
 1768TIP3   OH2 5246   2.568   1.166   3.792
 1768TIP3    H1 5247   2.652   1.212   3.789
 1768TIP3    H2 5248   2.590   1.078   3.821
 1769TIP3   OH2 5249   7.928   6.020   6.649
 1769TIP3    H1 5250   7.917   5.926   6.658
 1769TIP3    H2 5251   8.020   6.032   6.626
 1770TIP3   OH2 5252   2.669   4.627   0.354
 1770TIP3    H1 5253   2.666   4.532   0.350
 1770TIP3    H2 5254   2.749   4.650   0.306
 1771TIP3   OH2 5255   1.542   3.810   5.911
 1771TIP3    H1 5256   1.638   3.813   5.908
 1771TIP3    H2 5257   1.514   3.877   5.850
 1772TIP3   OH2 5258   4.302   0.224   5.006
 1772TIP3    H1 5259   4.304   0.186   4.918
 1772TIP3    H2 5260   4.342   0.157   5.062
 1773TIP3   OH2 5261   2.561   7.188   1.181
 1773TIP3    H1 5262   2.588   7.152   1.097
 1773TIP3    H2 5263   2.589   7.279   1.178
 1774TIP3   OH2 5264   5.625   3.265   4.909
 1774TIP3    H1 5265   5.566   3.195   4.936
 1774TIP3    H2 5266   5.581   3.346   4.934
 1775TIP3   OH2 5267   1.109   0.961   2.729
 1775TIP3    H1 5268   1.018   0.957   2.699
 1775TIP3    H2 5269   1.104   0.993   2.819
 1776TIP3   OH2 5270   5.515   1.113   1.082
 1776TIP3    H1 5271   5.536   1.101   1.174
 1776TIP3    H2 5272   5.444   1.178   1.082
 1777TIP3   OH2 5273   3.171   0.824   4.769
 1777TIP3    H1 5274   3.088   0.778   4.765
 1777TIP3    H2 5275   3.149   0.915   4.751
 1778TIP3   OH2 5276   2.301   0.708   5.741
 1778TIP3    H1 5277   2.229   0.649   5.719
 1778TIP3    H2 5278   2.281   0.788   5.693
 1779TIP3   OH2 5279   2.118   7.681   2.073
 1779TIP3    H1 5280   2.040   7.636   2.105
 1779TIP3    H2 5281   2.089   7.770   2.053
 1780TIP3   OH2 5282   0.209   5.244   4.566
 1780TIP3    H1 5283   0.227   5.166   4.618
 1780TIP3    H2 5284   0.278   5.246   4.500
 1781TIP3   OH2 5285   1.674   3.791   6.260
 1781TIP3    H1 5286   1.723   3.871   6.242
 1781TIP3    H2 5287   1.702   3.730   6.192
 1782TIP3   OH2 5288   4.575   6.763   6.234
 1782TIP3    H1 5289   4.573   6.674   6.269
 1782TIP3    H2 5290   4.612   6.816   6.305
 1783TIP3   OH2 5291   0.644   5.533   3.300
 1783TIP3    H1 5292   0.714   5.596   3.317
 1783TIP3    H2 5293   0.583   5.581   3.242
 1784TIP3   OH2 5294   4.193   2.730   4.222
 1784TIP3    H1 5295   4.182   2.798   4.155
 1784TIP3    H2 5296   4.110   2.683   4.222
 1785TIP3   OH2 5297   5.968   4.015   2.365
 1785TIP3    H1 5298   5.921   3.934   2.347
 1785TIP3    H2 5299   5.925   4.081   2.310
 1786TIP3   OH2 5300   3.844   0.388   1.777
 1786TIP3    H1 5301   3.898   0.361   1.702
 1786TIP3    H2 5302   3.778   0.446   1.739
 1787TIP3   OH2 5303   2.951   7.524   3.376
 1787TIP3    H1 5304   3.037   7.557   3.399
 1787TIP3    H2 5305   2.895   7.601   3.372
 1788TIP3   OH2 5306   0.313   3.230   2.660
 1788TIP3    H1 5307   0.236   3.192   2.702
 1788TIP3    H2 5308   0.385   3.171   2.683
 1789TIP3   OH2 5309   0.502   7.363   1.915
 1789TIP3    H1 5310   0.551   7.293   1.958
 1789TIP3    H2 5311   0.469   7.418   1.986
 1790TIP3   OH2 5312   4.321   1.819   3.610
 1790TIP3    H1 5313   4.325   1.842   3.518
 1790TIP3    H2 5314   4.407   1.844   3.645
 1791TIP3   OH2 5315   4.209   2.528   4.792
 1791TIP3    H1 5316   4.208   2.552   4.699
 1791TIP3    H2 5317   4.156   2.596   4.835
 1792TIP3   OH2 5318   3.689   7.418   3.796
 1792TIP3    H1 5319   3.610   7.422   3.742
 1792TIP3    H2 5320   3.669   7.472   3.872
 1793TIP3   OH2 5321   2.011   2.785   1.102
 1793TIP3    H1 5322   1.978   2.874   1.112
 1793TIP3    H2 5323   1.999   2.745   1.188
 1794TIP3   OH2 5324   2.345   2.095   4.728
 1794TIP3    H1 5325   2.374   2.143   4.805
 1794TIP3    H2 5326   2.257   2.066   4.751
 1795TIP3   OH2 5327   4.329   3.263   5.338
 1795TIP3    H1 5328   4.365   3.229   5.420
 1795TIP3    H2 5329   4.307   3.186   5.286
 1796TIP3   OH2 5330   1.531   5.691   6.194
 1796TIP3    H1 5331   1.471   5.680   6.121
 1796TIP3    H2 5332   1.612   5.722   6.154
 1797TIP3   OH2 5333   4.331   6.330   1.422
 1797TIP3    H1 5334   4.395   6.360   1.486
 1797TIP3    H2 5335   4.383   6.284   1.356
 1798TIP3   OH2 5336   0.259   5.881   5.872
 1798TIP3    H1 5337   0.282   5.896   5.964
 1798TIP3    H2 5338   0.165   5.864   5.872
 1799TIP3   OH2 5339   1.233   6.831   5.326
 1799TIP3    H1 5340   1.207   6.921   5.348
 1799TIP3    H2 5341   1.171   6.804   5.259
 1800TIP3   OH2 5342   5.579   1.525   6.220
 1800TIP3    H1 5343   5.565   1.620   6.218
 1800TIP3    H2 5344   5.665   1.513   6.181
 1801TIP3   OH2 5345   0.994   5.936   2.412
 1801TIP3    H1 5346   0.970   6.020   2.451
 1801TIP3    H2 5347   1.076   5.911   2.455
 1802TIP3   OH2 5348   2.297   1.829   0.453
 1802TIP3    H1 5349   2.357   1.777   0.508
 1802TIP3    H2 5350   2.251   1.885   0.515
 1803TIP3   OH2 5351   7.123   5.940   0.677
 1803TIP3    H1 5352   7.179   5.867   0.652
 1803TIP3    H2 5353   7.123   5.940   0.772
 1804TIP3   OH2 5354   3.726   4.036   3.882
 1804TIP3    H1 5355   3.680   4.091   3.945
 1804TIP3    H2 5356   3.721   3.948   3.919
 1805TIP3   OH2 5357   4.186   3.515   3.350
 1805TIP3    H1 5358   4.091   3.529   3.344
 1805TIP3    H2 5359   4.194   3.420   3.365
 1806TIP3   OH2 5360   6.976   7.265   1.483
 1806TIP3    H1 5361   6.957   7.355   1.453
 1806TIP3    H2 5362   6.914   7.251   1.555
 1807TIP3   OH2 5363   6.975   4.317   0.204
 1807TIP3    H1 5364   6.893   4.324   0.155
 1807TIP3    H2 5365   7.043   4.320   0.137
 1808TIP3   OH2 5366   2.601   0.785   3.539
 1808TIP3    H1 5367   2.539   0.741   3.597
 1808TIP3    H2 5368   2.583   0.879   3.552
 1809TIP3   OH2 5369   3.230   5.920   1.620
 1809TIP3    H1 5370   3.266   5.837   1.651
 1809TIP3    H2 5371   3.272   5.933   1.534
 1810TIP3   OH2 5372   7.769   1.629   4.994
 1810TIP3    H1 5373   7.800   1.717   4.972
 1810TIP3    H2 5374   7.844   1.587   5.035
 1811TIP3   OH2 5375   7.432   1.570   1.975
 1811TIP3    H1 5376   7.403   1.650   2.019
 1811TIP3    H2 5377   7.434   1.504   2.044
 1812TIP3   OH2 5378   2.881   2.330   4.426
 1812TIP3    H1 5379   2.973   2.309   4.409
 1812TIP3    H2 5380   2.847   2.359   4.341
 1813TIP3   OH2 5381   4.488   3.755   2.703
 1813TIP3    H1 5382   4.470   3.827   2.764
 1813TIP3    H2 5383   4.483   3.796   2.616
 1814TIP3   OH2 5384   4.966   4.642   4.379
 1814TIP3    H1 5385   4.944   4.733   4.398
 1814TIP3    H2 5386   4.985   4.603   4.464
 1815TIP3   OH2 5387   1.537   6.909   6.192
 1815TIP3    H1 5388   1.597   6.956   6.134
 1815TIP3    H2 5389   1.498   6.841   6.137
 1816TIP3   OH2 5390   1.658   4.492   6.337
 1816TIP3    H1 5391   1.729   4.464   6.395
 1816TIP3    H2 5392   1.596   4.419   6.337
 1817TIP3   OH2 5393   5.138   0.084   2.912
 1817TIP3    H1 5394   5.148  -0.006   2.880
 1817TIP3    H2 5395   5.138   0.138   2.833
 1818TIP3   OH2 5396   5.622   2.290   5.524
 1818TIP3    H1 5397   5.699   2.305   5.579
 1818TIP3    H2 5398   5.636   2.202   5.489
 1819TIP3   OH2 5399   8.118   0.361   4.006
 1819TIP3    H1 5400   8.091   0.453   4.004
 1819TIP3    H2 5401   8.175   0.351   3.930
 1820TIP3   OH2 5402   7.455   2.065   3.866
 1820TIP3    H1 5403   7.549   2.044   3.860
 1820TIP3    H2 5404   7.412   1.992   3.821
 1821TIP3   OH2 5405   4.263   3.021   5.228
 1821TIP3    H1 5406   4.205   3.021   5.151
 1821TIP3    H2 5407   4.262   2.930   5.258
 1822TIP3   OH2 5408   4.059   6.246   3.688
 1822TIP3    H1 5409   4.032   6.255   3.780
 1822TIP3    H2 5410   3.987   6.287   3.639
 1823TIP3   OH2 5411   3.005   3.635   2.238
 1823TIP3    H1 5412   3.073   3.678   2.291
 1823TIP3    H2 5413   2.925   3.682   2.260
 1824TIP3   OH2 5414   5.865   3.224   2.687
 1824TIP3    H1 5415   5.872   3.266   2.773
 1824TIP3    H2 5416   5.952   3.232   2.649
 1825TIP3   OH2 5417   1.573   6.259   2.319
 1825TIP3    H1 5418   1.587   6.167   2.299
 1825TIP3    H2 5419   1.642   6.282   2.381
 1826TIP3   OH2 5420   2.658   6.524   1.160
 1826TIP3    H1 5421   2.638   6.557   1.073
 1826TIP3    H2 5422   2.741   6.477   1.149
 1827TIP3   OH2 5423   6.765   2.396   2.293
 1827TIP3    H1 5424   6.730   2.311   2.320
 1827TIP3    H2 5425   6.699   2.459   2.323
 1828TIP3   OH2 5426   1.832   3.404   2.231
 1828TIP3    H1 5427   1.817   3.423   2.324
 1828TIP3    H2 5428   1.887   3.477   2.201
 1829TIP3   OH2 5429   0.985   3.929   6.717
 1829TIP3    H1 5430   1.014   4.020   6.724
 1829TIP3    H2 5431   1.066   3.879   6.713
 1830TIP3   OH2 5432   0.327   5.459   5.046
 1830TIP3    H1 5433   0.385   5.479   4.973
 1830TIP3    H2 5434   0.376   5.485   5.124
 1831TIP3   OH2 5435   7.469   7.845   2.409
 1831TIP3    H1 5436   7.547   7.804   2.447
 1831TIP3    H2 5437   7.496   7.933   2.387
 1832TIP3   OH2 5438   0.560   1.934   0.433
 1832TIP3    H1 5439   0.468   1.918   0.413
 1832TIP3    H2 5440   0.590   1.854   0.477
 1833TIP3   OH2 5441   1.808   0.658   1.227
 1833TIP3    H1 5442   1.726   0.641   1.274
 1833TIP3    H2 5443   1.875   0.659   1.295
 1834TIP3   OH2 5444   1.121   6.616   5.854
 1834TIP3    H1 5445   1.103   6.591   5.764
 1834TIP3    H2 5446   1.152   6.535   5.896
 1835TIP3   OH2 5447   3.730   7.567   1.887
 1835TIP3    H1 5448   3.690   7.480   1.897
 1835TIP3    H2 5449   3.713   7.611   1.970
 1836TIP3   OH2 5450   5.043   4.021   6.437
 1836TIP3    H1 5451   5.034   3.984   6.524
 1836TIP3    H2 5452   5.054   3.945   6.379
 1837TIP3   OH2 5453   1.806   3.777   3.909
 1837TIP3    H1 5454   1.867   3.829   3.857
 1837TIP3    H2 5455   1.744   3.741   3.846
 1838TIP3   OH2 5456   5.623   7.281   4.720
 1838TIP3    H1 5457   5.582   7.276   4.806
 1838TIP3    H2 5458   5.666   7.196   4.708
 1839TIP3   OH2 5459   4.332   5.715   0.565
 1839TIP3    H1 5460   4.335   5.774   0.490
 1839TIP3    H2 5461   4.280   5.640   0.535
 1840TIP3   OH2 5462   6.476   3.326   5.013
 1840TIP3    H1 5463   6.401   3.359   5.061
 1840TIP3    H2 5464   6.450   3.330   4.921
 1841TIP3   OH2 5465   0.541   0.987   3.196
 1841TIP3    H1 5466   0.546   0.893   3.214
 1841TIP3    H2 5467   0.555   1.029   3.281
 1842TIP3   OH2 5468   2.429   3.900   4.410
 1842TIP3    H1 5469   2.359   3.863   4.464
 1842TIP3    H2 5470   2.383   3.941   4.336
 1843TIP3   OH2 5471   1.894   7.387   3.461
 1843TIP3    H1 5472   1.830   7.316   3.466
 1843TIP3    H2 5473   1.951   7.373   3.536
 1844TIP3   OH2 5474   4.790   2.786   4.890
 1844TIP3    H1 5475   4.808   2.693   4.901
 1844TIP3    H2 5476   4.802   2.801   4.796
 1845TIP3   OH2 5477   1.740   2.793   2.193
 1845TIP3    H1 5478   1.764   2.732   2.263
 1845TIP3    H2 5479   1.730   2.877   2.237
 1846TIP3   OH2 5480   3.789   4.245   6.423
 1846TIP3    H1 5481   3.866   4.198   6.453
 1846TIP3    H2 5482   3.809   4.270   6.333
 1847TIP3   OH2 5483   1.680   2.929   6.687
 1847TIP3    H1 5484   1.640   2.988   6.623
 1847TIP3    H2 5485   1.606   2.890   6.734
 1848TIP3   OH2 5486   7.768   3.304   5.130
 1848TIP3    H1 5487   7.837   3.342   5.076
 1848TIP3    H2 5488   7.759   3.364   5.204
 1849TIP3   OH2 5489   7.089   4.807   0.160
 1849TIP3    H1 5490   7.088   4.716   0.190
 1849TIP3    H2 5491   7.146   4.806   0.083
 1850TIP3   OH2 5492   1.508   7.185   5.419
 1850TIP3    H1 5493   1.428   7.191   5.471
 1850TIP3    H2 5494   1.483   7.135   5.341
 1851TIP3   OH2 5495   5.677   0.458   5.020
 1851TIP3    H1 5496   5.627   0.518   4.964
 1851TIP3    H2 5497   5.749   0.428   4.965
 1852TIP3   OH2 5498   3.506   7.837   0.343
 1852TIP3    H1 5499   3.511   7.801   0.254
 1852TIP3    H2 5500   3.416   7.821   0.370
 1853TIP3   OH2 5501   0.399   3.127   1.696
 1853TIP3    H1 5502   0.463   3.148   1.764
 1853TIP3    H2 5503   0.448   3.072   1.634
 1854TIP3   OH2 5504   5.557   4.958   0.070
 1854TIP3    H1 5505   5.594   4.891   0.127
 1854TIP3    H2 5506   5.468   4.928   0.053
 1855TIP3   OH2 5507   0.638   3.834   1.447
 1855TIP3    H1 5508   0.653   3.894   1.373
 1855TIP3    H2 5509   0.650   3.747   1.410
 1856TIP3   OH2 5510   4.340   6.944   2.714
 1856TIP3    H1 5511   4.392   6.937   2.794
 1856TIP3    H2 5512   4.404   6.939   2.643
 1857TIP3   OH2 5513   0.611   5.651   4.111
 1857TIP3    H1 5514   0.699   5.674   4.140
 1857TIP3    H2 5515   0.567   5.620   4.190
 1858TIP3   OH2 5516   6.026   0.694   6.768
 1858TIP3    H1 5517   6.092   0.633   6.737
 1858TIP3    H2 5518   6.068   0.780   6.760
 1859TIP3   OH2 5519   2.723   0.980   4.467
 1859TIP3    H1 5520   2.697   0.893   4.439
 1859TIP3    H2 5521   2.738   1.028   4.386
 1860TIP3   OH2 5522   6.509   5.290   6.709
 1860TIP3    H1 5523   6.490   5.332   6.793
 1860TIP3    H2 5524   6.443   5.324   6.649
 1861TIP3   OH2 5525   1.866   4.189   6.391
 1861TIP3    H1 5526   1.864   4.199   6.486
 1861TIP3    H2 5527   1.938   4.246   6.362
 1862TIP3   OH2 5528   4.310   6.428   5.083
 1862TIP3    H1 5529   4.224   6.450   5.119
 1862TIP3    H2 5530   4.330   6.500   5.023
 1863TIP3   OH2 5531   7.898   1.823   4.675
 1863TIP3    H1 5532   7.983   1.780   4.674
 1863TIP3    H2 5533   7.886   1.849   4.767
 1864TIP3   OH2 5534   2.074   2.037   4.782
 1864TIP3    H1 5535   2.060   1.943   4.787
 1864TIP3    H2 5536   2.001   2.075   4.832
 1865TIP3   OH2 5537   0.548   6.168   2.055
 1865TIP3    H1 5538   0.506   6.254   2.059
 1865TIP3    H2 5539   0.531   6.137   1.966
 1866TIP3   OH2 5540   3.252   4.784   5.324
 1866TIP3    H1 5541   3.162   4.787   5.356
 1866TIP3    H2 5542   3.303   4.824   5.393
 1867TIP3   OH2 5543   4.673   4.546   1.407
 1867TIP3    H1 5544   4.625   4.616   1.362
 1867TIP3    H2 5545   4.606   4.480   1.426
 1868TIP3   OH2 5546   0.486   1.867   5.810
 1868TIP3    H1 5547   0.564   1.840   5.856
 1868TIP3    H2 5548   0.421   1.800   5.831
 1869TIP3   OH2 5549   1.281   2.717   5.738
 1869TIP3    H1 5550   1.238   2.795   5.774
 1869TIP3    H2 5551   1.208   2.659   5.715
 1870TIP3   OH2 5552   0.622   1.413   6.598
 1870TIP3    H1 5553   0.583   1.364   6.525
 1870TIP3    H2 5554   0.716   1.397   6.589
 1871TIP3   OH2 5555   0.545   0.038   2.026
 1871TIP3    H1 5556   0.612   0.105   2.038
 1871TIP3    H2 5557   0.495   0.039   2.108
 1872TIP3   OH2 5558   2.635   1.160   6.045
 1872TIP3    H1 5559   2.692   1.101   6.094
 1872TIP3    H2 5560   2.556   1.107   6.028
 1873TIP3   OH2 5561   3.242   5.481   2.756
 1873TIP3    H1 5562   3.333   5.466   2.730
 1873TIP3    H2 5563   3.245   5.489   2.851
 1874TIP3   OH2 5564   4.372   7.251   3.526
 1874TIP3    H1 5565   4.404   7.317   3.464
 1874TIP3    H2 5566   4.352   7.175   3.472
 1875TIP3   OH2 5567   6.103   1.572   0.240
 1875TIP3    H1 5568   6.171   1.586   0.174
 1875TIP3    H2 5569   6.125   1.632   0.311
 1876TIP3   OH2 5570   6.613   1.073   1.185
 1876TIP3    H1 5571   6.630   1.146   1.126
 1876TIP3    H2 5572   6.646   1.103   1.270
 1877TIP3   OH2 5573   6.027   4.072   2.614
 1877TIP3    H1 5574   6.027   4.009   2.542
 1877TIP3    H2 5575   5.978   4.147   2.581
 1878TIP3   OH2 5576   0.198   3.585   2.959
 1878TIP3    H1 5577   0.271   3.647   2.963
 1878TIP3    H2 5578   0.178   3.577   2.866
 1879TIP3   OH2 5579   5.912   3.985   0.808
 1879TIP3    H1 5580   5.962   3.929   0.749
 1879TIP3    H2 5581   5.947   4.073   0.793
 1880TIP3   OH2 5582   7.192   1.701   0.040
 1880TIP3    H1 5583   7.269   1.685   0.094
 1880TIP3    H2 5584   7.151   1.615   0.030
 1881TIP3   OH2 5585  -0.002   7.555   2.388
 1881TIP3    H1 5586   0.054   7.570   2.312
 1881TIP3    H2 5587   0.053   7.510   2.451
 1882TIP3   OH2 5588   2.055   5.081   1.490
 1882TIP3    H1 5589   2.132   5.082   1.548
 1882TIP3    H2 5590   2.061   5.163   1.441
 1883TIP3   OH2 5591   7.112   0.055   5.397
 1883TIP3    H1 5592   7.059   0.015   5.328
 1883TIP3    H2 5593   7.063   0.040   5.478
 1884TIP3   OH2 5594   7.001   1.476   5.826
 1884TIP3    H1 5595   6.949   1.432   5.759
 1884TIP3    H2 5596   7.024   1.408   5.888
 1885TIP3   OH2 5597   5.079   2.494   4.247
 1885TIP3    H1 5598   5.101   2.420   4.303
 1885TIP3    H2 5599   5.158   2.508   4.195
 1886TIP3   OH2 5600   0.292   1.681   5.838
 1886TIP3    H1 5601   0.209   1.633   5.843
 1886TIP3    H2 5602   0.343   1.634   5.772
 1887TIP3   OH2 5603   6.241   3.079   3.198
 1887TIP3    H1 5604   6.195   3.108   3.120
 1887TIP3    H2 5605   6.280   3.159   3.234
 1888TIP3   OH2 5606   6.613   3.624   0.644
 1888TIP3    H1 5607   6.703   3.591   0.635
 1888TIP3    H2 5608   6.579   3.580   0.722
 1889TIP3   OH2 5609   1.290   3.487   1.427
 1889TIP3    H1 5610   1.227   3.500   1.357
 1889TIP3    H2 5611   1.267   3.554   1.492
 1890TIP3   OH2 5612   0.857   1.887   4.993
 1890TIP3    H1 5613   0.810   1.805   5.010
 1890TIP3    H2 5614   0.867   1.927   5.080
 1891TIP3   OH2 5615   5.077   5.430   6.613
 1891TIP3    H1 5616   4.986   5.400   6.607
 1891TIP3    H2 5617   5.125   5.354   6.645
 1892TIP3   OH2 5618   1.741   6.189   6.451
 1892TIP3    H1 5619   1.699   6.259   6.501
 1892TIP3    H2 5620   1.767   6.124   6.517
 1893TIP3   OH2 5621   5.496   1.365   4.896
 1893TIP3    H1 5622   5.553   1.292   4.874
 1893TIP3    H2 5623   5.554   1.433   4.930
 1894TIP3   OH2 5624   6.468   7.574   4.360
 1894TIP3    H1 5625   6.419   7.493   4.349
 1894TIP3    H2 5626   6.532   7.574   4.289
 1895TIP3   OH2 5627   3.331   2.228   0.322
 1895TIP3    H1 5628   3.277   2.246   0.245
 1895TIP3    H2 5629   3.282   2.162   0.370
 1896TIP3   OH2 5630   2.905   5.538   2.842
 1896TIP3    H1 5631   2.842   5.592   2.794
 1896TIP3    H2 5632   2.934   5.473   2.779
 1897TIP3   OH2 5633   7.742   3.667   5.872
 1897TIP3    H1 5634   7.695   3.741   5.835
 1897TIP3    H2 5635   7.742   3.683   5.966
 1898TIP3   OH2 5636   2.571   6.293   4.358
 1898TIP3    H1 5637   2.530   6.375   4.385
 1898TIP3    H2 5638   2.498   6.235   4.338
 1899TIP3   OH2 5639   2.425   4.472   0.556
 1899TIP3    H1 5640   2.348   4.466   0.613
 1899TIP3    H2 5641   2.453   4.563   0.563
 1900TIP3   OH2 5642   5.330   2.666   5.271
 1900TIP3    H1 5643   5.284   2.593   5.231
 1900TIP3    H2 5644   5.413   2.629   5.301
 1901TIP3   OH2 5645   2.569   5.637   3.849
 1901TIP3    H1 5646   2.493   5.612   3.796
 1901TIP3    H2 5647   2.628   5.678   3.786
 1902TIP3   OH2 5648   5.508   4.919   4.872
 1902TIP3    H1 5649   5.464   4.931   4.788
 1902TIP3    H2 5650   5.507   4.824   4.886
 1903TIP3   OH2 5651   6.013   0.296   3.311
 1903TIP3    H1 5652   6.022   0.283   3.406
 1903TIP3    H2 5653   6.103   0.306   3.280
 1904TIP3   OH2 5654   5.797   0.537   5.888
 1904TIP3    H1 5655   5.714   0.548   5.935
 1904TIP3    H2 5656   5.846   0.617   5.906
 1905TIP3   OH2 5657   2.271   1.115   4.970
 1905TIP3    H1 5658   2.333   1.128   5.043
 1905TIP3    H2 5659   2.327   1.098   4.894
 1906TIP3   OH2 5660   3.249   0.951   1.501
 1906TIP3    H1 5661   3.298   0.997   1.433
 1906TIP3    H2 5662   3.179   1.012   1.526
 1907TIP3   OH2 5663   3.308   1.291   2.211
 1907TIP3    H1 5664   3.267   1.354   2.151
 1907TIP3    H2 5665   3.244   1.220   2.218
 1908TIP3   OH2 5666   6.534   5.645   3.472
 1908TIP3    H1 5667   6.571   5.610   3.391
 1908TIP3    H2 5668   6.440   5.635   3.461
 1909TIP3   OH2 5669   7.368   2.299   6.044
 1909TIP3    H1 5670   7.276   2.324   6.051
 1909TIP3    H2 5671   7.382   2.239   6.118
 1910TIP3   OH2 5672   7.285   4.037   0.196
 1910TIP3    H1 5673   7.286   3.962   0.255
 1910TIP3    H2 5674   7.327   4.107   0.245
 1911TIP3   OH2 5675   5.221   3.077   2.958
 1911TIP3    H1 5676   5.192   3.056   2.869
 1911TIP3    H2 5677   5.141   3.078   3.010
 1912TIP3   OH2 5678   6.235   1.021   1.723
 1912TIP3    H1 5679   6.141   1.020   1.742
 1912TIP3    H2 5680   6.241   1.029   1.628
 1913TIP3   OH2 5681   7.153   1.379   4.103
 1913TIP3    H1 5682   7.072   1.418   4.071
 1913TIP3    H2 5683   7.219   1.408   4.040
 1914TIP3   OH2 5684   0.779   5.724   4.335
 1914TIP3    H1 5685   0.748   5.658   4.397
 1914TIP3    H2 5686   0.768   5.807   4.381
 1915TIP3   OH2 5687   7.919   6.822   2.379
 1915TIP3    H1 5688   7.982   6.812   2.308
 1915TIP3    H2 5689   7.911   6.734   2.416
 1916TIP3   OH2 5690   5.855   7.427   4.294
 1916TIP3    H1 5691   5.912   7.434   4.371
 1916TIP3    H2 5692   5.802   7.349   4.310
 1917TIP3   OH2 5693   4.675   0.257   4.829
 1917TIP3    H1 5694   4.760   0.225   4.798
 1917TIP3    H2 5695   4.631   0.289   4.751
 1918TIP3   OH2 5696   6.760   6.504   6.090
 1918TIP3    H1 5697   6.787   6.424   6.044
 1918TIP3    H2 5698   6.830   6.520   6.153
 1919TIP3   OH2 5699   2.643   5.577   0.095
 1919TIP3    H1 5700   2.630   5.657   0.145
 1919TIP3    H2 5701   2.715   5.598   0.034
 1920TIP3   OH2 5702   6.929   0.987   4.727
 1920TIP3    H1 5703   6.950   0.946   4.811
 1920TIP3    H2 5704   6.845   1.031   4.743
 1921TIP3   OH2 5705   0.647   7.563   2.952
 1921TIP3    H1 5706   0.725   7.571   3.006
 1921TIP3    H2 5707   0.670   7.605   2.869
 1922TIP3   OH2 5708   1.483   5.832   2.532
 1922TIP3    H1 5709   1.521   5.764   2.588
 1922TIP3    H2 5710   1.391   5.807   2.524
 1923TIP3   OH2 5711   0.476   4.515   2.100
 1923TIP3    H1 5712   0.433   4.476   2.176
 1923TIP3    H2 5713   0.554   4.461   2.086
 1924TIP3   OH2 5714   3.871   4.681   1.969
 1924TIP3    H1 5715   3.961   4.651   1.953
 1924TIP3    H2 5716   3.859   4.754   1.908
 1925TIP3   OH2 5717   5.374   7.509   6.496
 1925TIP3    H1 5718   5.421   7.572   6.550
 1925TIP3    H2 5719   5.303   7.559   6.456
 1926TIP3   OH2 5720   3.979   6.902   6.153
 1926TIP3    H1 5721   3.977   6.842   6.227
 1926TIP3    H2 5722   3.992   6.846   6.076
 1927TIP3   OH2 5723   7.015   5.727   5.942
 1927TIP3    H1 5724   7.034   5.766   6.027
 1927TIP3    H2 5725   6.936   5.773   5.911
 1928TIP3   OH2 5726   6.265   0.928   0.971
 1928TIP3    H1 5727   6.220   0.844   0.983
 1928TIP3    H2 5728   6.256   0.947   0.878
 1929TIP3   OH2 5729   3.234   0.537   6.145
 1929TIP3    H1 5730   3.242   0.553   6.051
 1929TIP3    H2 5731   3.193   0.451   6.152
 1930TIP3   OH2 5732   1.584   0.269   5.337
 1930TIP3    H1 5733   1.594   0.179   5.369
 1930TIP3    H2 5734   1.651   0.318   5.385
 1931TIP3   OH2 5735   1.055   4.809   5.732
 1931TIP3    H1 5736   1.033   4.743   5.665
 1931TIP3    H2 5737   1.032   4.893   5.692
 1932TIP3   OH2 5738   1.666   4.296   1.041
 1932TIP3    H1 5739   1.635   4.366   1.098
 1932TIP3    H2 5740   1.678   4.221   1.100
 1933TIP3   OH2 5741   1.054   1.154   2.444
 1933TIP3    H1 5742   1.139   1.118   2.471
 1933TIP3    H2 5743   1.033   1.219   2.511
 1934TIP3   OH2 5744   0.040   6.348   1.420
 1934TIP3    H1 5745   0.013   6.280   1.357
 1934TIP3    H2 5746  -0.043   6.384   1.452
 1935TIP3   OH2 5747   3.554   7.421   2.773
 1935TIP3    H1 5748   3.497   7.495   2.797
 1935TIP3    H2 5749   3.643   7.455   2.784
 1936TIP3   OH2 5750   2.468   0.404   0.086
 1936TIP3    H1 5751   2.423   0.328   0.122
 1936TIP3    H2 5752   2.405   0.443   0.025
 1937TIP3   OH2 5753   7.697   5.321   0.523
 1937TIP3    H1 5754   7.761   5.391   0.510
 1937TIP3    H2 5755   7.724   5.278   0.604
 1938TIP3   OH2 5756   8.277   6.997   6.495
 1938TIP3    H1 5757   8.310   7.083   6.468
 1938TIP3    H2 5758   8.203   6.980   6.436
 1939TIP3   OH2 5759   3.842   4.413   5.891
 1939TIP3    H1 5760   3.869   4.503   5.871
 1939TIP3    H2 5761   3.769   4.396   5.832
 1940TIP3   OH2 5762   0.530   5.673   6.120
 1940TIP3    H1 5763   0.601   5.733   6.098
 1940TIP3    H2 5764   0.485   5.715   6.193
 1941TIP3   OH2 5765   2.801   4.345   5.819
 1941TIP3    H1 5766   2.751   4.382   5.746
 1941TIP3    H2 5767   2.883   4.394   5.819
 1942TIP3   OH2 5768   7.724   5.423   0.810
 1942TIP3    H1 5769   7.704   5.511   0.842
 1942TIP3    H2 5770   7.638   5.386   0.788
 1943TIP3   OH2 5771   0.211   3.855   4.400
 1943TIP3    H1 5772   0.204   3.767   4.363
 1943TIP3    H2 5773   0.287   3.851   4.457
 1944TIP3   OH2 5774   3.525   4.112   5.837
 1944TIP3    H1 5775   3.590   4.148   5.896
 1944TIP3    H2 5776   3.453   4.085   5.894
 1945TIP3   OH2 5777   7.353   2.732   5.722
 1945TIP3    H1 5778   7.262   2.757   5.733
 1945TIP3    H2 5779   7.350   2.636   5.713
 1946TIP3   OH2 5780   0.637   0.359   0.555
 1946TIP3    H1 5781   0.642   0.410   0.637
 1946TIP3    H2 5782   0.631   0.268   0.584
 1947TIP3   OH2 5783   5.657   7.586   5.669
 1947TIP3    H1 5784   5.716   7.655   5.638
 1947TIP3    H2 5785   5.600   7.568   5.594
 1948TIP3   OH2 5786   3.631   6.689   1.675
 1948TIP3    H1 5787   3.671   6.666   1.591
 1948TIP3    H2 5788   3.614   6.783   1.670
 1949TIP3   OH2 5789   3.310   3.645   1.923
 1949TIP3    H1 5790   3.264   3.601   1.995
 1949TIP3    H2 5791   3.269   3.731   1.917
 1950TIP3   OH2 5792   3.423   0.478   3.158
 1950TIP3    H1 5793   3.450   0.399   3.112
 1950TIP3    H2 5794   3.491   0.542   3.139
 1951TIP3   OH2 5795   1.278   2.806   0.517
 1951TIP3    H1 5796   1.308   2.897   0.524
 1951TIP3    H2 5797   1.326   2.771   0.442
 1952TIP3   OH2 5798   7.343   1.496   4.810
 1952TIP3    H1 5799   7.372   1.551   4.883
 1952TIP3    H2 5800   7.288   1.429   4.850
 1953TIP3   OH2 5801   6.279   3.794   2.814
 1953TIP3    H1 5802   6.209   3.859   2.823
 1953TIP3    H2 5803   6.278   3.771   2.721
 1954TIP3   OH2 5804   1.057   7.203   4.671
 1954TIP3    H1 5805   1.032   7.293   4.690
 1954TIP3    H2 5806   0.978   7.152   4.687
 1955TIP3   OH2 5807   3.395   1.427   1.336
 1955TIP3    H1 5808   3.399   1.470   1.250
 1955TIP3    H2 5809   3.470   1.368   1.336
 1956TIP3   OH2 5810   5.652   7.446   1.621
 1956TIP3    H1 5811   5.692   7.527   1.651
 1956TIP3    H2 5812   5.709   7.416   1.550
 1957TIP3   OH2 5813   2.649   3.721   0.996
 1957TIP3    H1 5814   2.655   3.816   1.009
 1957TIP3    H2 5815   2.573   3.709   0.939
 1958TIP3   OH2 5816   1.988   1.413   5.342
 1958TIP3    H1 5817   2.065   1.409   5.285
 1958TIP3    H2 5818   1.989   1.502   5.377
 1959TIP3   OH2 5819   5.159   4.878   3.471
 1959TIP3    H1 5820   5.178   4.794   3.514
 1959TIP3    H2 5821   5.232   4.890   3.410
 1960TIP3   OH2 5822   7.425   7.318   5.034
 1960TIP3    H1 5823   7.493   7.274   5.085
 1960TIP3    H2 5824   7.371   7.248   5.000
 1961TIP3   OH2 5825   6.009   6.459   0.410
 1961TIP3    H1 5826   6.061   6.379   0.407
 1961TIP3    H2 5827   5.979   6.464   0.501
 1962TIP3   OH2 5828   1.958   3.915   3.705
 1962TIP3    H1 5829   1.972   3.859   3.629
 1962TIP3    H2 5830   1.977   4.004   3.673
 1963TIP3   OH2 5831   1.758   6.733   1.703
 1963TIP3    H1 5832   1.684   6.687   1.663
 1963TIP3    H2 5833   1.731   6.825   1.707
 1964TIP3   OH2 5834   1.033   2.351   6.539
 1964TIP3    H1 5835   0.990   2.432   6.566
 1964TIP3    H2 5836   0.994   2.283   6.594
 1965TIP3   OH2 5837   4.553   4.394   6.707
 1965TIP3    H1 5838   4.500   4.436   6.775
 1965TIP3    H2 5839   4.608   4.332   6.755
 1966TIP3   OH2 5840   2.423   7.184   0.640
 1966TIP3    H1 5841   2.384   7.271   0.647
 1966TIP3    H2 5842   2.439   7.173   0.546
 1967TIP3   OH2 5843   5.037   2.748   0.872
 1967TIP3    H1 5844   5.016   2.838   0.897
 1967TIP3    H2 5845   4.967   2.723   0.811
 1968TIP3   OH2 5846   4.446   5.451   6.305
 1968TIP3    H1 5847   4.420   5.521   6.366
 1968TIP3    H2 5848   4.457   5.496   6.221
 1969TIP3   OH2 5849   2.941   1.140   2.046
 1969TIP3    H1 5850   3.011   1.145   2.111
 1969TIP3    H2 5851   2.981   1.175   1.966
 1970TIP3   OH2 5852   5.127   6.304   2.911
 1970TIP3    H1 5853   5.204   6.311   2.854
 1970TIP3    H2 5854   5.151   6.356   2.988
 1971TIP3   OH2 5855   4.565   0.478   1.781
 1971TIP3    H1 5856   4.525   0.400   1.741
 1971TIP3    H2 5857   4.504   0.502   1.851
 1972TIP3   OH2 5858   0.511   2.189   2.157
 1972TIP3    H1 5859   0.431   2.241   2.147
 1972TIP3    H2 5860   0.488   2.120   2.218
 1973TIP3   OH2 5861   5.175   1.310   2.765
 1973TIP3    H1 5862   5.103   1.346   2.817
 1973TIP3    H2 5863   5.233   1.268   2.828
 1974TIP3   OH2 5864   0.686   0.681   5.996
 1974TIP3    H1 5865   0.693   0.776   6.002
 1974TIP3    H2 5866   0.776   0.650   6.001
 1975TIP3   OH2 5867   2.602   7.310   0.202
 1975TIP3    H1 5868   2.592   7.382   0.264
 1975TIP3    H2 5869   2.523   7.314   0.148
 1976TIP3   OH2 5870   3.643   4.527   4.887
 1976TIP3    H1 5871   3.623   4.505   4.977
 1976TIP3    H2 5872   3.704   4.602   4.894
 1977TIP3   OH2 5873   4.124   4.886   5.919
 1977TIP3    H1 5874   4.095   4.862   5.831
 1977TIP3    H2 5875   4.188   4.956   5.905
 1978TIP3   OH2 5876   4.294   7.557   1.335
 1978TIP3    H1 5877   4.291   7.647   1.305
 1978TIP3    H2 5878   4.377   7.549   1.382
 1979TIP3   OH2 5879   5.818   7.446   3.715
 1979TIP3    H1 5880   5.724   7.443   3.732
 1979TIP3    H2 5881   5.825   7.442   3.620
 1980TIP3   OH2 5882   4.279   4.141   1.469
 1980TIP3    H1 5883   4.195   4.134   1.514
 1980TIP3    H2 5884   4.342   4.102   1.530
 1981TIP3   OH2 5885   7.191   3.992   0.571
 1981TIP3    H1 5886   7.190   3.908   0.525
 1981TIP3    H2 5887   7.161   4.055   0.505
 1982TIP3   OH2 5888   2.468   5.902   4.516
 1982TIP3    H1 5889   2.457   5.834   4.582
 1982TIP3    H2 5890   2.544   5.952   4.546
 1983TIP3   OH2 5891   3.839   0.910   4.179
 1983TIP3    H1 5892   3.810   0.823   4.206
 1983TIP3    H2 5893   3.925   0.920   4.220
 1984TIP3   OH2 5894   6.021   3.588   2.964
 1984TIP3    H1 5895   6.011   3.499   2.931
 1984TIP3    H2 5896   6.107   3.616   2.932
 1985TIP3   OH2 5897   7.137   0.602   4.698
 1985TIP3    H1 5898   7.174   0.637   4.779
 1985TIP3    H2 5899   7.145   0.674   4.636
 1986TIP3   OH2 5900   8.256   5.850   2.578
 1986TIP3    H1 5901   8.188   5.806   2.528
 1986TIP3    H2 5902   8.331   5.791   2.575
 1987TIP3   OH2 5903   2.285   7.692   5.625
 1987TIP3    H1 5904   2.375   7.724   5.617
 1987TIP3    H2 5905   2.285   7.640   5.705
 1988TIP3   OH2 5906   0.918   0.252   1.068
 1988TIP3    H1 5907   1.007   0.265   1.037
 1988TIP3    H2 5908   0.875   0.337   1.055
 1989TIP3   OH2 5909   4.346   4.084   4.321
 1989TIP3    H1 5910   4.263   4.110   4.282
 1989TIP3    H2 5911   4.321   4.029   4.395
 1990TIP3   OH2 5912   7.477   1.082   1.564
 1990TIP3    H1 5913   7.523   1.045   1.489
 1990TIP3    H2 5914   7.426   1.009   1.600
 1991TIP3   OH2 5915   3.115   4.196   0.199
 1991TIP3    H1 5916   3.125   4.290   0.190
 1991TIP3    H2 5917   3.023   4.183   0.222
 1992TIP3   OH2 5918   3.546   1.372   0.749
 1992TIP3    H1 5919   3.457   1.339   0.758
 1992TIP3    H2 5920   3.601   1.303   0.786
 1993TIP3   OH2 5921   1.271   4.660   2.237
 1993TIP3    H1 5922   1.254   4.583   2.292
 1993TIP3    H2 5923   1.357   4.644   2.199
 1994TIP3   OH2 5924   2.286   5.080   1.974
 1994TIP3    H1 5925   2.265   5.149   2.037
 1994TIP3    H2 5926   2.239   5.105   1.895
 1995TIP3   OH2 5927   1.260   2.866   5.479
 1995TIP3    H1 5928   1.290   2.852   5.569
 1995TIP3    H2 5929   1.302   2.797   5.429
 1996TIP3   OH2 5930   6.062   2.890   4.048
 1996TIP3    H1 5931   6.050   2.953   4.119
 1996TIP3    H2 5932   6.041   2.806   4.087
 1997TIP3   OH2 5933   1.966   3.173   3.147
 1997TIP3    H1 5934   1.914   3.233   3.201
 1997TIP3    H2 5935   1.904   3.106   3.118
 1998TIP3   OH2 5936   5.506   5.456   1.844
 1998TIP3    H1 5937   5.426   5.407   1.826
 1998TIP3    H2 5938   5.531   5.493   1.760
 1999TIP3   OH2 5939   2.363   2.561   1.750
 1999TIP3    H1 5940   2.366   2.653   1.723
 1999TIP3    H2 5941   2.337   2.565   1.843
 2000TIP3   OH2 5942   3.747   7.675   5.573
 2000TIP3    H1 5943   3.679   7.726   5.616
 2000TIP3    H2 5944   3.717   7.665   5.483
 2001TIP3   OH2 5945   7.001   0.246   2.605
 2001TIP3    H1 5946   6.990   0.247   2.509
 2001TIP3    H2 5947   6.940   0.180   2.635
 2002TIP3   OH2 5948   7.561   6.655   5.024
 2002TIP3    H1 5949   7.484   6.685   4.976
 2002TIP3    H2 5950   7.596   6.735   5.064
 2003TIP3   OH2 5951   0.041   3.059   4.662
 2003TIP3    H1 5952   0.059   3.052   4.756
 2003TIP3    H2 5953   0.038   3.153   4.645
 2004TIP3   OH2 5954   5.110   3.239   6.592
 2004TIP3    H1 5955   5.025   3.277   6.568
 2004TIP3    H2 5956   5.142   3.198   6.511
 2005TIP3   OH2 5957   0.431   0.021   0.357
 2005TIP3    H1 5958   0.410   0.070   0.277
 2005TIP3    H2 5959   0.487  -0.050   0.327
 2006TIP3   OH2 5960   5.851   2.080   4.563
 2006TIP3    H1 5961   5.832   2.087   4.656
 2006TIP3    H2 5962   5.947   2.082   4.558
 2007TIP3   OH2 5963   6.490   2.558   0.985
 2007TIP3    H1 5964   6.428   2.574   0.914
 2007TIP3    H2 5965   6.436   2.561   1.064
 2008TIP3   OH2 5966   6.469   5.853   4.101
 2008TIP3    H1 5967   6.466   5.910   4.178
 2008TIP3    H2 5968   6.562   5.848   4.078
 2009TIP3   OH2 5969   6.108   1.989   6.652
 2009TIP3    H1 5970   6.141   2.027   6.733
 2009TIP3    H2 5971   6.013   1.985   6.664
 2010TIP3   OH2 5972   7.560   1.344   3.266
 2010TIP3    H1 5973   7.571   1.377   3.177
 2010TIP3    H2 5974   7.485   1.393   3.301
 2011TIP3   OH2 5975   1.513   1.609   2.695
 2011TIP3    H1 5976   1.609   1.615   2.690
 2011TIP3    H2 5977   1.496   1.551   2.769
 2012TIP3   OH2 5978   5.674   7.495   4.082
 2012TIP3    H1 5979   5.721   7.440   4.018
 2012TIP3    H2 5980   5.714   7.473   4.166
 2013TIP3   OH2 5981   7.020   7.758   3.482
 2013TIP3    H1 5982   7.058   7.770   3.395
 2013TIP3    H2 5983   6.937   7.712   3.465
 2014TIP3   OH2 5984   3.185   3.362   3.475
 2014TIP3    H1 5985   3.221   3.273   3.482
 2014TIP3    H2 5986   3.214   3.406   3.555
 2015TIP3   OH2 5987   7.182   6.699   5.051
 2015TIP3    H1 5988   7.210   6.617   5.011
 2015TIP3    H2 5989   7.185   6.763   4.979
 2016TIP3   OH2 5990   2.441   4.815   0.209
 2016TIP3    H1 5991   2.394   4.756   0.269
 2016TIP3    H2 5992   2.408   4.902   0.231
 2017TIP3   OH2 5993   5.433   4.798   3.689
 2017TIP3    H1 5994   5.460   4.724   3.743
 2017TIP3    H2 5995   5.419   4.869   3.751
 2018TIP3   OH2 5996   7.187   6.203   0.462
 2018TIP3    H1 5997   7.191   6.111   0.488
 2018TIP3    H2 5998   7.222   6.251   0.537
 2019TIP3   OH2 5999   3.469   6.481   1.609
 2019TIP3    H1 6000   3.521   6.406   1.636
 2019TIP3    H2 6001   3.509   6.556   1.654
 2020TIP3   OH2 6002   5.655   7.144   6.488
 2020TIP3    H1 6003   5.686   7.101   6.409
 2020TIP3    H2 6004   5.680   7.086   6.559
 2021TIP3   OH2 6005   6.053   4.826   4.157
 2021TIP3    H1 6006   6.148   4.821   4.172
 2021TIP3    H2 6007   6.035   4.920   4.148
 2022TIP3   OH2 6008   2.043   5.358   1.386
 2022TIP3    H1 6009   2.112   5.422   1.365
 2022TIP3    H2 6010   1.964   5.392   1.345
 2023TIP3   OH2 6011   3.363   7.464   6.092
 2023TIP3    H1 6012   3.420   7.519   6.039
 2023TIP3    H2 6013   3.391   7.374   6.073
 2024TIP3   OH2 6014   3.273   6.299   4.630
 2024TIP3    H1 6015   3.360   6.267   4.605
 2024TIP3    H2 6016   3.271   6.390   4.600
 2025TIP3   OH2 6017   2.057   0.577   0.485
 2025TIP3    H1 6018   2.006   0.658   0.490
 2025TIP3    H2 6019   2.009   0.523   0.423
 2026TIP3   OH2 6020   4.152   4.997   6.299
 2026TIP3    H1 6021   4.234   4.987   6.252
 2026TIP3    H2 6022   4.111   5.074   6.260
 2027TIP3   OH2 6023   4.227   5.980   0.081
 2027TIP3    H1 6024   4.200   5.962  -0.009
 2027TIP3    H2 6025   4.322   5.974   0.079
 2028TIP3   OH2 6026   1.920   5.918   2.019
 2028TIP3    H1 6027   1.834   5.956   2.000
 2028TIP3    H2 6028   1.983   5.982   1.988
 2029TIP3   OH2 6029   1.883   1.050   0.707
 2029TIP3    H1 6030   1.812   1.003   0.663
 2029TIP3    H2 6031   1.961   0.997   0.692
 2030TIP3   OH2 6032   0.733   2.317   5.531
 2030TIP3    H1 6033   0.726   2.281   5.619
 2030TIP3    H2 6034   0.827   2.328   5.516
 2031TIP3   OH2 6035   4.665   7.139   3.431
 2031TIP3    H1 6036   4.742   7.083   3.419
 2031TIP3    H2 6037   4.631   7.115   3.517
 2032TIP3   OH2 6038   1.491   6.711   2.158
 2032TIP3    H1 6039   1.492   6.617   2.176
 2032TIP3    H2 6040   1.451   6.750   2.236
 2033TIP3   OH2 6041   0.539   7.501   3.661
 2033TIP3    H1 6042   0.543   7.405   3.666
 2033TIP3    H2 6043   0.614   7.526   3.607
 2034TIP3   OH2 6044   3.043   1.624   2.192
 2034TIP3    H1 6045   3.065   1.631   2.285
 2034TIP3    H2 6046   2.980   1.553   2.187
 2035TIP3   OH2 6047   2.581   3.213   5.191
 2035TIP3    H1 6048   2.527   3.136   5.172
 2035TIP3    H2 6049   2.669   3.178   5.202
 2036TIP3   OH2 6050   1.780   5.774   1.165
 2036TIP3    H1 6051   1.710   5.836   1.185
 2036TIP3    H2 6052   1.856   5.808   1.212
 2037TIP3   OH2 6053   4.841   3.285   3.039
 2037TIP3    H1 6054   4.755   3.296   3.079
 2037TIP3    H2 6055   4.884   3.217   3.091
 2038TIP3   OH2 6056   2.593   6.006   3.750
 2038TIP3    H1 6057   2.662   5.953   3.711
 2038TIP3    H2 6058   2.637   6.052   3.822
 2039TIP3   OH2 6059   2.407   5.070   4.078
 2039TIP3    H1 6060   2.437   5.083   4.168
 2039TIP3    H2 6061   2.478   5.104   4.024
 2040TIP3   OH2 6062   5.928   5.017   5.041
 2040TIP3    H1 6063   5.916   5.032   4.947
 2040TIP3    H2 6064   5.993   5.082   5.067
 2041TIP3   OH2 6065   4.811   5.867   5.053
 2041TIP3    H1 6066   4.744   5.867   5.121
 2041TIP3    H2 6067   4.803   5.781   5.012
 2042TIP3   OH2 6068   4.599   2.255   3.869
 2042TIP3    H1 6069   4.599   2.211   3.955
 2042TIP3    H2 6070   4.690   2.247   3.839
 2043TIP3   OH2 6071   4.371   1.476   1.632
 2043TIP3    H1 6072   4.294   1.522   1.598
 2043TIP3    H2 6073   4.365   1.489   1.727
 2044TIP3   OH2 6074   5.538   5.804   3.440
 2044TIP3    H1 6075   5.470   5.871   3.436
 2044TIP3    H2 6076   5.603   5.832   3.376
 2045TIP3   OH2 6077   5.337   3.729   3.060
 2045TIP3    H1 6078   5.374   3.784   2.991
 2045TIP3    H2 6079   5.343   3.782   3.139
 2046TIP3   OH2 6080   5.358   2.314   4.837
 2046TIP3    H1 6081   5.424   2.276   4.779
 2046TIP3    H2 6082   5.408   2.345   4.913
 2047TIP3   OH2 6083   7.870   4.198   2.164
 2047TIP3    H1 6084   7.842   4.145   2.089
 2047TIP3    H2 6085   7.922   4.268   2.125
 2048TIP3   OH2 6086   5.740   7.288   2.550
 2048TIP3    H1 6087   5.779   7.325   2.630
 2048TIP3    H2 6088   5.796   7.320   2.479
 2049TIP3   OH2 6089   2.264   4.444   4.244
 2049TIP3    H1 6090   2.280   4.520   4.300
 2049TIP3    H2 6091   2.318   4.375   4.281
 2050TIP3   OH2 6092   1.399   5.202   3.328
 2050TIP3    H1 6093   1.493   5.220   3.337
 2050TIP3    H2 6094   1.358   5.288   3.334
 2051TIP3   OH2 6095   3.062   6.984   2.924
 2051TIP3    H1 6096   3.011   6.932   2.986
 2051TIP3    H2 6097   3.000   7.051   2.894
 2052TIP3   OH2 6098   1.924   3.041   1.127
 2052TIP3    H1 6099   1.915   3.108   1.194
 2052TIP3    H2 6100   1.899   3.084   1.045
 2053TIP3   OH2 6101   7.072   7.444   3.121
 2053TIP3    H1 6102   7.058   7.467   3.029
 2053TIP3    H2 6103   7.050   7.351   3.125
 2054TIP3   OH2 6104   8.263   4.554   2.126
 2054TIP3    H1 6105   8.287   4.580   2.038
 2054TIP3    H2 6106   8.345   4.555   2.175
 2055TIP3   OH2 6107   3.552   3.731   1.002
 2055TIP3    H1 6108   3.520   3.821   1.003
 2055TIP3    H2 6109   3.616   3.729   0.931
 2056TIP3   OH2 6110   0.455   2.651   5.625
 2056TIP3    H1 6111   0.474   2.561   5.648
 2056TIP3    H2 6112   0.395   2.645   5.550
 2057TIP3   OH2 6113   6.286   5.077   2.317
 2057TIP3    H1 6114   6.248   5.082   2.229
 2057TIP3    H2 6115   6.290   4.983   2.336
 2058TIP3   OH2 6116   4.104   5.580   0.433
 2058TIP3    H1 6117   4.150   5.517   0.377
 2058TIP3    H2 6118   4.014   5.549   0.435
 2059TIP3   OH2 6119   5.654   3.062   6.638
 2059TIP3    H1 6120   5.719   3.128   6.662
 2059TIP3    H2 6121   5.571   3.098   6.668
 2060TIP3   OH2 6122   7.262   1.398   1.600
 2060TIP3    H1 6123   7.205   1.329   1.636
 2060TIP3    H2 6124   7.348   1.381   1.639
 2061TIP3   OH2 6125   3.904   0.157   5.192
 2061TIP3    H1 6126   3.986   0.186   5.232
 2061TIP3    H2 6127   3.907   0.192   5.103
 2062TIP3   OH2 6128   2.921   2.223   2.326
 2062TIP3    H1 6129   2.880   2.148   2.283
 2062TIP3    H2 6130   3.014   2.216   2.302
 2063TIP3   OH2 6131   1.668   0.999   4.229
 2063TIP3    H1 6132   1.742   1.026   4.284
 2063TIP3    H2 6133   1.591   1.025   4.279
 2064TIP3   OH2 6134   7.436   3.662   3.426
 2064TIP3    H1 6135   7.431   3.729   3.358
 2064TIP3    H2 6136   7.514   3.611   3.404
 2065TIP3   OH2 6137   4.239   7.737   6.411
 2065TIP3    H1 6138   4.271   7.681   6.340
 2065TIP3    H2 6139   4.151   7.704   6.429
 2066TIP3   OH2 6140   3.457   0.263   2.981
 2066TIP3    H1 6141   3.523   0.206   2.940
 2066TIP3    H2 6142   3.378   0.249   2.929
 2067TIP3   OH2 6143   0.082   3.734   5.754
 2067TIP3    H1 6144   0.083   3.827   5.776
 2067TIP3    H2 6145   0.130   3.729   5.671
 2068TIP3   OH2 6146   8.128   6.024   4.516
 2068TIP3    H1 6147   8.175   6.074   4.583
 2068TIP3    H2 6148   8.103   5.943   4.560
 2069TIP3   OH2 6149   5.159   5.859   2.093
 2069TIP3    H1 6150   5.097   5.835   2.161
 2069TIP3    H2 6151   5.212   5.929   2.131
 2070TIP3   OH2 6152   0.127   2.107   3.784
 2070TIP3    H1 6153   0.205   2.080   3.737
 2070TIP3    H2 6154   0.124   2.202   3.774
 2071TIP3   OH2 6155   3.607   1.958   5.760
 2071TIP3    H1 6156   3.532   1.987   5.812
 2071TIP3    H2 6157   3.611   1.864   5.775
 2072TIP3   OH2 6158   7.306   4.548   6.214
 2072TIP3    H1 6159   7.350   4.603   6.279
 2072TIP3    H2 6160   7.284   4.468   6.262
 2073TIP3   OH2 6161   0.421   6.859   4.561
 2073TIP3    H1 6162   0.476   6.807   4.503
 2073TIP3    H2 6163   0.448   6.949   4.545
 2074TIP3   OH2 6164   7.171   1.551   5.135
 2074TIP3    H1 6165   7.258   1.582   5.160
 2074TIP3    H2 6166   7.117   1.566   5.213
 2075TIP3   OH2 6167   7.822   2.897   4.350
 2075TIP3    H1 6168   7.772   2.947   4.286
 2075TIP3    H2 6169   7.898   2.865   4.302
 2076TIP3   OH2 6170   0.340   4.983   1.174
 2076TIP3    H1 6171   0.251   4.950   1.159
 2076TIP3    H2 6172   0.329   5.055   1.237
 2077TIP3   OH2 6173   5.703   2.194   4.353
 2077TIP3    H1 6174   5.754   2.180   4.433
 2077TIP3    H2 6175   5.741   2.272   4.313
 2078TIP3   OH2 6176   0.843   2.183   6.047
 2078TIP3    H1 6177   0.908   2.150   5.986
 2078TIP3    H2 6178   0.767   2.203   5.993
 2079TIP3   OH2 6179   5.190   6.713   2.970
 2079TIP3    H1 6180   5.283   6.695   2.954
 2079TIP3    H2 6181   5.167   6.778   2.903
 2080TIP3   OH2 6182   6.061   2.884   2.815
 2080TIP3    H1 6183   6.065   2.946   2.742
 2080TIP3    H2 6184   5.992   2.918   2.872
 2081TIP3   OH2 6185   4.138   6.491   0.104
 2081TIP3    H1 6186   4.180   6.516   0.022
 2081TIP3    H2 6187   4.044   6.501   0.087
 2082TIP3   OH2 6188   4.592   5.486   1.993
 2082TIP3    H1 6189   4.603   5.398   1.957
 2082TIP3    H2 6190   4.513   5.520   1.950
 2083TIP3   OH2 6191   4.979   0.661   4.942
 2083TIP3    H1 6192   4.994   0.587   5.001
 2083TIP3    H2 6193   4.915   0.715   4.987
 2084TIP3   OH2 6194   5.823   5.254   3.978
 2084TIP3    H1 6195   5.746   5.297   4.015
 2084TIP3    H2 6196   5.794   5.223   3.892
 2085TIP3   OH2 6197   4.648   4.063   6.222
 2085TIP3    H1 6198   4.735   4.091   6.192
 2085TIP3    H2 6199   4.632   4.115   6.300
 2086TIP3   OH2 6200   2.435   1.741   6.259
 2086TIP3    H1 6201   2.361   1.712   6.313
 2086TIP3    H2 6202   2.417   1.702   6.173
 2087TIP3   OH2 6203   4.983   4.097   4.774
 2087TIP3    H1 6204   4.974   4.112   4.680
 2087TIP3    H2 6205   5.068   4.135   4.797
 2088TIP3   OH2 6206   4.120   6.250   6.142
 2088TIP3    H1 6207   4.165   6.331   6.117
 2088TIP3    H2 6208   4.133   6.191   6.068
 2089TIP3   OH2 6209   6.102   5.228   5.597
 2089TIP3    H1 6210   6.197   5.219   5.610
 2089TIP3    H2 6211   6.067   5.232   5.686
 2090TIP3   OH2 6212   0.072   0.444   5.801
 2090TIP3    H1 6213   0.028   0.472   5.721
 2090TIP3    H2 6214   0.067   0.520   5.859
 2091TIP3   OH2 6215   5.418   0.284   3.636
 2091TIP3    H1 6216   5.388   0.208   3.685
 2091TIP3    H2 6217   5.402   0.262   3.545
 2092TIP3   OH2 6218   7.708   2.465   5.477
 2092TIP3    H1 6219   7.639   2.532   5.478
 2092TIP3    H2 6220   7.717   2.439   5.569
 2093TIP3   OH2 6221   5.825   6.353   2.372
 2093TIP3    H1 6222   5.855   6.263   2.358
 2093TIP3    H2 6223   5.778   6.375   2.291
 2094TIP3   OH2 6224   6.625   4.238   6.234
 2094TIP3    H1 6225   6.716   4.234   6.204
 2094TIP3    H2 6226   6.573   4.230   6.154
 2095TIP3   OH2 6227   6.697   4.620   3.557
 2095TIP3    H1 6228   6.783   4.662   3.554
 2095TIP3    H2 6229   6.712   4.531   3.525
 2096TIP3   OH2 6230   1.063   2.083   1.038
 2096TIP3    H1 6231   1.029   2.000   1.005
 2096TIP3    H2 6232   1.108   2.061   1.119
 2097TIP3   OH2 6233   5.256   7.259   4.900
 2097TIP3    H1 6234   5.234   7.222   4.986
 2097TIP3    H2 6235   5.349   7.282   4.908
 2098TIP3   OH2 6236   0.277   1.255   3.884
 2098TIP3    H1 6237   0.367   1.225   3.872
 2098TIP3    H2 6238   0.285   1.340   3.927
 2099TIP3   OH2 6239   5.402   1.762   2.885
 2099TIP3    H1 6240   5.440   1.821   2.950
 2099TIP3    H2 6241   5.467   1.757   2.816
 2100TIP3   OH2 6242   6.152   1.978   1.895
 2100TIP3    H1 6243   6.153   2.072   1.876
 2100TIP3    H2 6244   6.147   1.937   1.809
 2101TIP3   OH2 6245   7.774   0.348   0.765
 2101TIP3    H1 6246   7.726   0.367   0.685
 2101TIP3    H2 6247   7.841   0.416   0.770
 2102TIP3   OH2 6248   6.137   7.481   3.582
 2102TIP3    H1 6249   6.213   7.467   3.526
 2102TIP3    H2 6250   6.165   7.453   3.669
 2103TIP3   OH2 6251   1.192   7.059   2.863
 2103TIP3    H1 6252   1.162   7.118   2.793
 2103TIP3    H2 6253   1.178   7.108   2.944
 2104TIP3   OH2 6254   7.484   7.581   0.519
 2104TIP3    H1 6255   7.570   7.577   0.477
 2104TIP3    H2 6256   7.440   7.655   0.477
 2105TIP3   OH2 6257   6.517   0.569   4.153
 2105TIP3    H1 6258   6.560   0.655   4.150
 2105TIP3    H2 6259   6.575   0.511   4.104
 2106TIP3   OH2 6260   0.766   7.609   0.701
 2106TIP3    H1 6261   0.756   7.696   0.738
 2106TIP3    H2 6262   0.853   7.610   0.660
 2107TIP3   OH2 6263   5.532   2.881   4.088
 2107TIP3    H1 6264   5.559   2.793   4.063
 2107TIP3    H2 6265   5.445   2.892   4.050
 2108TIP3   OH2 6266   2.912   5.107   3.199
 2108TIP3    H1 6267   3.001   5.113   3.164
 2108TIP3    H2 6268   2.858   5.082   3.125
 2109TIP3   OH2 6269   3.294   4.754   0.408
 2109TIP3    H1 6270   3.258   4.791   0.327
 2109TIP3    H2 6271   3.331   4.829   0.454
 2110TIP3   OH2 6272   4.063   0.027   3.006
 2110TIP3    H1 6273   4.006   0.098   3.037
 2110TIP3    H2 6274   4.022  -0.002   2.924
 2111TIP3   OH2 6275   0.623   1.823   6.661
 2111TIP3    H1 6276   0.545   1.874   6.684
 2111TIP3    H2 6277   0.672   1.816   6.743
 2112TIP3   OH2 6278   5.269   0.796   0.641
 2112TIP3    H1 6279   5.328   0.746   0.697
 2112TIP3    H2 6280   5.314   0.880   0.627
 2113TIP3   OH2 6281   6.549   2.050   0.157
 2113TIP3    H1 6282   6.528   1.959   0.177
 2113TIP3    H2 6283   6.637   2.046   0.120
 2114TIP3   OH2 6284   7.975   0.315   5.315
 2114TIP3    H1 6285   7.982   0.406   5.346
 2114TIP3    H2 6286   8.032   0.311   5.238
 2115TIP3   OH2 6287   5.847   2.854   1.948
 2115TIP3    H1 6288   5.929   2.888   1.984
 2115TIP3    H2 6289   5.819   2.921   1.885
 2116TIP3   OH2 6290   5.448   1.016   2.478
 2116TIP3    H1 6291   5.393   1.087   2.512
 2116TIP3    H2 6292   5.394   0.937   2.488
 2117TIP3   OH2 6293   3.401   6.669   5.524
 2117TIP3    H1 6294   3.350   6.697   5.448
 2117TIP3    H2 6295   3.460   6.601   5.490
 2118TIP3   OH2 6296   3.698   3.099   4.932
 2118TIP3    H1 6297   3.703   3.131   5.022
 2118TIP3    H2 6298   3.697   3.003   4.941
 2119TIP3   OH2 6299   0.689   2.808   0.114
 2119TIP3    H1 6300   0.707   2.838   0.203
 2119TIP3    H2 6301   0.595   2.821   0.102
 2120TIP3   OH2 6302   6.158   3.461   0.519
 2120TIP3    H1 6303   6.123   3.467   0.430
 2120TIP3    H2 6304   6.238   3.514   0.516
 2121TIP3   OH2 6305   5.244   2.646   3.987
 2121TIP3    H1 6306   5.329   2.634   3.946
 2121TIP3    H2 6307   5.249   2.732   4.028
 2122TIP3   OH2 6308   6.110   2.019   5.235
 2122TIP3    H1 6309   6.134   1.959   5.164
 2122TIP3    H2 6310   6.015   2.013   5.239
 2123TIP3   OH2 6311   4.910   0.550   3.984
 2123TIP3    H1 6312   4.993   0.561   3.938
 2123TIP3    H2 6313   4.864   0.632   3.969
 2124TIP3   OH2 6314   2.438   1.165   0.598
 2124TIP3    H1 6315   2.351   1.184   0.563
 2124TIP3    H2 6316   2.485   1.125   0.526
 2125TIP3   OH2 6317   7.297   0.421   2.915
 2125TIP3    H1 6318   7.348   0.484   2.865
 2125TIP3    H2 6319   7.239   0.475   2.970
 2126TIP3   OH2 6320   0.566   3.084   5.358
 2126TIP3    H1 6321   0.560   3.179   5.352
 2126TIP3    H2 6322   0.530   3.063   5.445
 2127TIP3   OH2 6323   0.125   6.166   5.789
 2127TIP3    H1 6324   0.213   6.200   5.802
 2127TIP3    H2 6325   0.100   6.131   5.874
 2128TIP3   OH2 6326   4.933   1.734   4.012
 2128TIP3    H1 6327   4.848   1.726   3.968
 2128TIP3    H2 6328   4.915   1.714   4.103
 2129TIP3   OH2 6329   3.703   4.046   0.049
 2129TIP3    H1 6330   3.660   4.126   0.018
 2129TIP3    H2 6331   3.704   4.054   0.144
 2130TIP3   OH2 6332   6.539   4.292   5.203
 2130TIP3    H1 6333   6.499   4.377   5.219
 2130TIP3    H2 6334   6.628   4.301   5.237
 2131TIP3   OH2 6335   6.152   2.794   1.749
 2131TIP3    H1 6336   6.067   2.814   1.712
 2131TIP3    H2 6337   6.215   2.830   1.687
 2132TIP3   OH2 6338   2.995   1.051   6.425
 2132TIP3    H1 6339   3.011   1.005   6.507
 2132TIP3    H2 6340   3.029   1.139   6.439
 2133TIP3   OH2 6341   0.155   0.684   1.777
 2133TIP3    H1 6342   0.230   0.741   1.766
 2133TIP3    H2 6343   0.085   0.741   1.809
 2134TIP3   OH2 6344   1.990   0.848   1.680
 2134TIP3    H1 6345   1.911   0.844   1.735
 2134TIP3    H2 6346   2.001   0.941   1.661
 2135TIP3   OH2 6347   1.737   5.722   6.549
 2135TIP3    H1 6348   1.651   5.709   6.510
 2135TIP3    H2 6349   1.738   5.663   6.624
 2136TIP3   OH2 6350   6.738   1.833   0.839
 2136TIP3    H1 6351   6.681   1.908   0.859
 2136TIP3    H2 6352   6.786   1.860   0.761
 2137TIP3   OH2 6353   2.931   0.077   1.326
 2137TIP3    H1 6354   2.866   0.101   1.260
 2137TIP3    H2 6355   2.974   0.000   1.290
 2138TIP3   OH2 6356   2.509   3.068   2.302
 2138TIP3    H1 6357   2.503   3.128   2.376
 2138TIP3    H2 6358   2.584   3.100   2.251
 2139TIP3   OH2 6359   7.298   3.147   5.771
 2139TIP3    H1 6360   7.307   3.118   5.680
 2139TIP3    H2 6361   7.231   3.216   5.767
 2140TIP3   OH2 6362   0.094   7.314   1.550
 2140TIP3    H1 6363   0.006   7.307   1.515
 2140TIP3    H2 6364   0.133   7.389   1.505
 2141TIP3   OH2 6365   7.419   6.462   6.477
 2141TIP3    H1 6366   7.333   6.444   6.516
 2141TIP3    H2 6367   7.404   6.455   6.382
 2142TIP3   OH2 6368   1.250   5.614   5.451
 2142TIP3    H1 6369   1.168   5.579   5.486
 2142TIP3    H2 6370   1.279   5.549   5.387
 2143TIP3   OH2 6371   4.150   3.792   1.704
 2143TIP3    H1 6372   4.147   3.885   1.727
 2143TIP3    H2 6373   4.177   3.791   1.612
 2144TIP3   OH2 6374   7.032   4.314   1.326
 2144TIP3    H1 6375   7.059   4.329   1.417
 2144TIP3    H2 6376   6.958   4.255   1.332
 2145TIP3   OH2 6377   1.109   5.528   0.752
 2145TIP3    H1 6378   1.080   5.599   0.694
 2145TIP3    H2 6379   1.132   5.456   0.694
 2146TIP3   OH2 6380   3.976   3.601   2.368
 2146TIP3    H1 6381   4.036   3.661   2.325
 2146TIP3    H2 6382   3.889   3.631   2.341
 2147TIP3   OH2 6383   7.498   2.907   3.539
 2147TIP3    H1 6384   7.452   2.834   3.498
 2147TIP3    H2 6385   7.514   2.878   3.629
 2148TIP3   OH2 6386   5.474   6.652   1.238
 2148TIP3    H1 6387   5.455   6.727   1.294
 2148TIP3    H2 6388   5.566   6.662   1.215
 2149TIP3   OH2 6389   5.197   4.645   2.581
 2149TIP3    H1 6390   5.204   4.734   2.614
 2149TIP3    H2 6391   5.223   4.589   2.654
 2150TIP3   OH2 6392   5.371   2.948   2.424
 2150TIP3    H1 6393   5.359   3.043   2.415
 2150TIP3    H2 6394   5.312   2.911   2.358
 2151TIP3   OH2 6395   6.060   4.243   5.536
 2151TIP3    H1 6396   5.989   4.256   5.598
 2151TIP3    H2 6397   6.137   4.228   5.591
 2152TIP3   OH2 6398   0.520   6.277   4.110
 2152TIP3    H1 6399   0.530   6.269   4.015
 2152TIP3    H2 6400   0.554   6.194   4.144
 2153TIP3   OH2 6401   6.059   0.277   3.607
 2153TIP3    H1 6402   6.115   0.345   3.644
 2153TIP3    H2 6403   6.108   0.195   3.620
 2154TIP3   OH2 6404   6.162   7.265   5.106
 2154TIP3    H1 6405   6.075   7.255   5.067
 2154TIP3    H2 6406   6.156   7.220   5.190
 2155TIP3   OH2 6407   5.864  -0.004   4.243
 2155TIP3    H1 6408   5.806  -0.080   4.238
 2155TIP3    H2 6409   5.805   0.070   4.258
 2156TIP3   OH2 6410   4.686   1.556   3.163
 2156TIP3    H1 6411   4.665   1.641   3.202
 2156TIP3    H2 6412   4.771   1.533   3.200
 2157TIP3   OH2 6413   5.953   6.446   6.027
 2157TIP3    H1 6414   5.922   6.537   6.027
 2157TIP3    H2 6415   6.020   6.444   5.960
 2158TIP3   OH2 6416   7.800   4.627   5.409
 2158TIP3    H1 6417   7.816   4.720   5.394
 2158TIP3    H2 6418   7.725   4.606   5.354
 2159TIP3   OH2 6419   5.092   6.198   2.425
 2159TIP3    H1 6420   5.069   6.218   2.516
 2159TIP3    H2 6421   5.137   6.114   2.430
 2160TIP3   OH2 6422   7.296   1.801   0.594
 2160TIP3    H1 6423   7.204   1.777   0.584
 2160TIP3    H2 6424   7.300   1.844   0.680
 2161TIP3   OH2 6425   2.733   3.488   1.213
 2161TIP3    H1 6426   2.712   3.526   1.128
 2161TIP3    H2 6427   2.781   3.557   1.259
 2162TIP3   OH2 6428   2.272   4.943   3.879
 2162TIP3    H1 6429   2.349   4.904   3.838
 2162TIP3    H2 6430   2.307   5.001   3.947
 2163TIP3   OH2 6431   7.674   5.874   5.338
 2163TIP3    H1 6432   7.661   5.949   5.280
 2163TIP3    H2 6433   7.627   5.802   5.295
 2164TIP3   OH2 6434   0.244   2.707   3.165
 2164TIP3    H1 6435   0.158   2.674   3.139
 2164TIP3    H2 6436   0.275   2.644   3.230
 2165TIP3   OH2 6437   7.373   2.063   5.356
 2165TIP3    H1 6438   7.283   2.072   5.387
 2165TIP3    H2 6439   7.414   2.147   5.375
 2166TIP3   OH2 6440   3.596   7.658   2.983
 2166TIP3    H1 6441   3.620   7.572   3.017
 2166TIP3    H2 6442   3.654   7.719   3.027
 2167TIP3   OH2 6443   7.774   2.981   3.464
 2167TIP3    H1 6444   7.757   3.007   3.374
 2167TIP3    H2 6445   7.695   2.933   3.490
 2168TIP3   OH2 6446   7.123   7.807   2.975
 2168TIP3    H1 6447   7.091   7.819   3.065
 2168TIP3    H2 6448   7.051   7.762   2.930
 2169TIP3   OH2 6449   1.143   0.635   1.073
 2169TIP3    H1 6450   1.197   0.686   1.133
 2169TIP3    H2 6451   1.097   0.573   1.129
 2170TIP3   OH2 6452   4.044   4.430   6.702
 2170TIP3    H1 6453   4.120   4.482   6.728
 2170TIP3    H2 6454   3.971   4.492   6.702
 2171TIP3   OH2 6455   3.809   1.332   5.940
 2171TIP3    H1 6456   3.836   1.242   5.958
 2171TIP3    H2 6457   3.765   1.360   6.020
 2172TIP3   OH2 6458   3.535   3.788   1.965
 2172TIP3    H1 6459   3.550   3.831   1.881
 2172TIP3    H2 6460   3.482   3.711   1.943
 2173TIP3   OH2 6461   5.866   5.533   5.854
 2173TIP3    H1 6462   5.815   5.599   5.900
 2173TIP3    H2 6463   5.804   5.493   5.793
 2174TIP3   OH2 6464   6.640   3.751   3.595
 2174TIP3    H1 6465   6.601   3.706   3.669
 2174TIP3    H2 6466   6.670   3.680   3.537
 2175TIP3   OH2 6467   8.057   0.708   2.777
 2175TIP3    H1 6468   8.049   0.653   2.699
 2175TIP3    H2 6469   8.124   0.665   2.830
 2176TIP3   OH2 6470   3.245   0.252   0.099
 2176TIP3    H1 6471   3.178   0.196   0.062
 2176TIP3    H2 6472   3.213   0.275   0.186
 2177TIP3   OH2 6473   0.525   5.039   6.436
 2177TIP3    H1 6474   0.481   5.050   6.352
 2177TIP3    H2 6475   0.617   5.058   6.418
 2178TIP3   OH2 6476   5.561   5.793   5.642
 2178TIP3    H1 6477   5.497   5.793   5.713
 2178TIP3    H2 6478   5.548   5.710   5.597
 2179TIP3   OH2 6479   0.259   6.786   6.550
 2179TIP3    H1 6480   0.175   6.741   6.544
 2179TIP3    H2 6481   0.258   6.848   6.477
 2180TIP3   OH2 6482   8.070   7.460   5.775
 2180TIP3    H1 6483   8.023   7.503   5.846
 2180TIP3    H2 6484   8.114   7.532   5.728
 2181TIP3   OH2 6485   1.643   7.146   2.813
 2181TIP3    H1 6486   1.695   7.133   2.892
 2181TIP3    H2 6487   1.573   7.081   2.819
 2182TIP3   OH2 6488   6.770   1.559   0.827
 2182TIP3    H1 6489   6.770   1.652   0.802
 2182TIP3    H2 6490   6.862   1.535   0.831
 2183TIP3   OH2 6491   7.480   4.851   1.679
 2183TIP3    H1 6492   7.538   4.793   1.629
 2183TIP3    H2 6493   7.394   4.838   1.640
 2184TIP3   OH2 6494   7.055   5.155   1.156
 2184TIP3    H1 6495   7.011   5.210   1.091
 2184TIP3    H2 6496   7.058   5.068   1.116
 2185TIP3   OH2 6497   1.612   1.425   5.915
 2185TIP3    H1 6498   1.707   1.423   5.925
 2185TIP3    H2 6499   1.579   1.441   6.004
 2186TIP3   OH2 6500   1.327   0.920   0.160
 2186TIP3    H1 6501   1.305   0.995   0.215
 2186TIP3    H2 6502   1.246   0.899   0.114
 2187TIP3   OH2 6503   2.078   0.042   1.603
 2187TIP3    H1 6504   2.110  -0.025   1.664
 2187TIP3    H2 6505   1.984   0.023   1.594
 2188TIP3   OH2 6506   2.536   4.216   2.476
 2188TIP3    H1 6507   2.579   4.150   2.531
 2188TIP3    H2 6508   2.449   4.226   2.514
 2189TIP3   OH2 6509   6.247   2.279   1.123
 2189TIP3    H1 6510   6.181   2.212   1.142
 2189TIP3    H2 6511   6.314   2.266   1.190
 2190TIP3   OH2 6512   1.720   5.281   0.990
 2190TIP3    H1 6513   1.782   5.352   1.000
 2190TIP3    H2 6514   1.752   5.231   0.915
 2191TIP3   OH2 6515   7.796  -0.022   2.506
 2191TIP3    H1 6516   7.875   0.030   2.522
 2191TIP3    H2 6517   7.727   0.042   2.491
 2192TIP3   OH2 6518   1.183   6.024   5.248
 2192TIP3    H1 6519   1.123   5.953   5.273
 2192TIP3    H2 6520   1.259   5.978   5.212
 2193TIP3   OH2 6521   5.852   5.643   2.936
 2193TIP3    H1 6522   5.945   5.651   2.958
 2193TIP3    H2 6523   5.829   5.728   2.897
 2194TIP3   OH2 6524   0.925   3.038   6.278
 2194TIP3    H1 6525   0.975   2.984   6.216
 2194TIP3    H2 6526   0.834   3.029   6.250
 2195TIP3   OH2 6527   3.843   5.981   2.242
 2195TIP3    H1 6528   3.863   6.066   2.201
 2195TIP3    H2 6529   3.906   5.975   2.314
 2196TIP3   OH2 6530   3.821   5.694   2.783
 2196TIP3    H1 6531   3.740   5.645   2.771
 2196TIP3    H2 6532   3.793   5.778   2.817
 2197TIP3   OH2 6533   5.144   4.323   2.024
 2197TIP3    H1 6534   5.239   4.328   2.015
 2197TIP3    H2 6535   5.110   4.351   1.939
 2198TIP3   OH2 6536   3.660   2.992   0.556
 2198TIP3    H1 6537   3.700   2.918   0.510
 2198TIP3    H2 6538   3.704   3.069   0.521
 2199TIP3   OH2 6539   3.693   1.454   3.040
 2199TIP3    H1 6540   3.688   1.362   3.016
 2199TIP3    H2 6541   3.731   1.454   3.129
 2200TIP3   OH2 6542   7.652   1.853   1.021
 2200TIP3    H1 6543   7.586   1.847   1.090
 2200TIP3    H2 6544   7.663   1.947   1.007
 2201TIP3   OH2 6545   7.723   5.174   1.382
 2201TIP3    H1 6546   7.653   5.160   1.319
 2201TIP3    H2 6547   7.694   5.128   1.461
 2202TIP3   OH2 6548   7.058   1.284   0.974
 2202TIP3    H1 6549   7.080   1.339   1.049
 2202TIP3    H2 6550   7.005   1.213   1.011
 2203TIP3   OH2 6551   5.595   7.157   5.221
 2203TIP3    H1 6552   5.550   7.075   5.203
 2203TIP3    H2 6553   5.686   7.131   5.240
 2204TIP3   OH2 6554   0.847   2.173   3.981
 2204TIP3    H1 6555   0.894   2.133   3.908
 2204TIP3    H2 6556   0.916   2.216   4.033
 2205TIP3   OH2 6557   6.154   4.326   5.864
 2205TIP3    H1 6558   6.221   4.297   5.803
 2205TIP3    H2 6559   6.075   4.278   5.838
 2206TIP3   OH2 6560   6.404   3.931   6.458
 2206TIP3    H1 6561   6.418   3.920   6.364
 2206TIP3    H2 6562   6.317   3.970   6.465
 2207TIP3   OH2 6563   7.403   1.220   5.645
 2207TIP3    H1 6564   7.428   1.292   5.587
 2207TIP3    H2 6565   7.307   1.227   5.651
 2208TIP3   OH2 6566   1.284   4.647   4.204
 2208TIP3    H1 6567   1.197   4.624   4.170
 2208TIP3    H2 6568   1.265   4.696   4.285
 2209TIP3   OH2 6569   4.015   7.857   3.847
 2209TIP3    H1 6570   3.956   7.931   3.861
 2209TIP3    H2 6571   3.996   7.827   3.758
 2210TIP3   OH2 6572   0.685   6.833   3.569
 2210TIP3    H1 6573   0.704   6.865   3.481
 2210TIP3    H2 6574   0.679   6.912   3.623
 2211TIP3   OH2 6575   4.853   4.701   6.734
 2211TIP3    H1 6576   4.839   4.686   6.640
 2211TIP3    H2 6577   4.787   4.766   6.758
 2212TIP3   OH2 6578   0.381   3.300   6.170
 2212TIP3    H1 6579   0.418   3.265   6.089
 2212TIP3    H2 6580   0.309   3.356   6.141
 2213TIP3   OH2 6581   2.510   0.087   3.741
 2213TIP3    H1 6582   2.526   0.133   3.823
 2213TIP3    H2 6583   2.582   0.114   3.684
 2214TIP3   OH2 6584   3.616   1.131   0.187
 2214TIP3    H1 6585   3.572   1.185   0.253
 2214TIP3    H2 6586   3.594   1.173   0.104
 2215TIP3   OH2 6587   5.785   2.817   0.406
 2215TIP3    H1 6588   5.752   2.843   0.492
 2215TIP3    H2 6589   5.879   2.807   0.418
 2216TIP3   OH2 6590   6.524   6.284   4.258
 2216TIP3    H1 6591   6.587   6.309   4.191
 2216TIP3    H2 6592   6.505   6.365   4.305
 2217TIP3   OH2 6593   2.677   5.294   0.581
 2217TIP3    H1 6594   2.706   5.368   0.528
 2217TIP3    H2 6595   2.750   5.278   0.642
 2218TIP3   OH2 6596   1.030   2.590   5.673
 2218TIP3    H1 6597   0.994   2.518   5.725
 2218TIP3    H2 6598   1.007   2.568   5.583
 2219TIP3   OH2 6599   5.507   7.081   1.648
 2219TIP3    H1 6600   5.559   7.137   1.705
 2219TIP3    H2 6601   5.431   7.135   1.625
 2220TIP3   OH2 6602   5.570   5.986   1.024
 2220TIP3    H1 6603   5.631   5.949   1.089
 2220TIP3    H2 6604   5.571   5.924   0.952
 2221TIP3   OH2 6605   5.779   7.217   4.033
 2221TIP3    H1 6606   5.811   7.166   4.108
 2221TIP3    H2 6607   5.702   7.168   4.002
 2222TIP3   OH2 6608   4.529   4.830   2.982
 2222TIP3    H1 6609   4.475   4.792   3.052
 2222TIP3    H2 6610   4.479   4.905   2.951
 2223TIP3   OH2 6611   5.053   0.071   3.760
 2223TIP3    H1 6612   5.006   0.010   3.817
 2223TIP3    H2 6613   5.018   0.157   3.783
 2224TIP3   OH2 6614   0.961   4.456   3.577
 2224TIP3    H1 6615   0.885   4.490   3.529
 2224TIP3    H2 6616   1.019   4.532   3.586
 2225TIP3   OH2 6617   3.124   2.422   3.917
 2225TIP3    H1 6618   3.080   2.338   3.926
 2225TIP3    H2 6619   3.083   2.479   3.982
 2226TIP3   OH2 6620   5.197   3.298   0.118
 2226TIP3    H1 6621   5.224   3.206   0.123
 2226TIP3    H2 6622   5.128   3.299   0.051
 2227TIP3   OH2 6623   2.131   0.217   0.344
 2227TIP3    H1 6624   2.217   0.195   0.308
 2227TIP3    H2 6625   2.147   0.231   0.437
 2228TIP3   OH2 6626   5.629   4.971   0.750
 2228TIP3    H1 6627   5.688   4.937   0.817
 2228TIP3    H2 6628   5.551   4.917   0.757
 2229TIP3   OH2 6629   6.386   5.424   0.125
 2229TIP3    H1 6630   6.336   5.477   0.064
 2229TIP3    H2 6631   6.335   5.424   0.206
 2230TIP3   OH2 6632   3.941   5.545   4.207
 2230TIP3    H1 6633   3.927   5.475   4.271
 2230TIP3    H2 6634   4.021   5.520   4.162
 2231TIP3   OH2 6635   2.199   0.264   0.035
 2231TIP3    H1 6636   2.157   0.307  -0.040
 2231TIP3    H2 6637   2.133   0.270   0.105
 2232TIP3   OH2 6638   3.670   0.137   4.402
 2232TIP3    H1 6639   3.659   0.043   4.413
 2232TIP3    H2 6640   3.581   0.171   4.394
 2233TIP3   OH2 6641   6.419   6.253   2.721
 2233TIP3    H1 6642   6.510   6.225   2.708
 2233TIP3    H2 6643   6.390   6.204   2.797
 2234TIP3   OH2 6644   7.979   1.566   5.164
 2234TIP3    H1 6645   8.046   1.507   5.129
 2234TIP3    H2 6646   7.950   1.523   5.245
 2235TIP3   OH2 6647   0.504   1.081   3.460
 2235TIP3    H1 6648   0.568   1.144   3.495
 2235TIP3    H2 6649   0.500   1.012   3.527
 2236TIP3   OH2 6650   2.535   1.931   4.862
 2236TIP3    H1 6651   2.584   2.013   4.867
 2236TIP3    H2 6652   2.444   1.959   4.847
 2237TIP3   OH2 6653   3.900   5.033   3.432
 2237TIP3    H1 6654   3.923   5.058   3.342
 2237TIP3    H2 6655   3.944   5.098   3.487
 2238TIP3   OH2 6656   5.828   0.997   2.187
 2238TIP3    H1 6657   5.796   0.966   2.271
 2238TIP3    H2 6658   5.784   1.080   2.173
 2239TIP3   OH2 6659   5.210   5.531   3.562
 2239TIP3    H1 6660   5.209   5.439   3.588
 2239TIP3    H2 6661   5.182   5.578   3.641
 2240TIP3   OH2 6662   3.165   1.266   4.256
 2240TIP3    H1 6663   3.142   1.311   4.175
 2240TIP3    H2 6664   3.105   1.191   4.259
 2241TIP3   OH2 6665   1.436   6.181   0.050
 2241TIP3    H1 6666   1.478   6.106   0.008
 2241TIP3    H2 6667   1.460   6.173   0.142
 2242TIP3   OH2 6668   1.081   0.738   3.902
 2242TIP3    H1 6669   1.105   0.820   3.857
 2242TIP3    H2 6670   1.095   0.757   3.995
 2243TIP3   OH2 6671   4.933   0.838   4.170
 2243TIP3    H1 6672   4.866   0.842   4.238
 2243TIP3    H2 6673   5.016   0.849   4.218
 2244TIP3   OH2 6674   5.256   1.904   6.577
 2244TIP3    H1 6675   5.270   1.825   6.526
 2244TIP3    H2 6676   5.315   1.895   6.651
 2245TIP3   OH2 6677   4.923   0.909   0.301
 2245TIP3    H1 6678   4.963   0.855   0.370
 2245TIP3    H2 6679   4.987   0.978   0.284
 2246TIP3   OH2 6680  -0.055   3.523   2.269
 2246TIP3    H1 6681  -0.062   3.428   2.268
 2246TIP3    H2 6682   0.034   3.541   2.240
 2247TIP3   OH2 6683   3.421   4.255   4.288
 2247TIP3    H1 6684   3.341   4.278   4.240
 2247TIP3    H2 6685   3.413   4.299   4.373
 2248TIP3   OH2 6686   2.389   1.982   3.354
 2248TIP3    H1 6687   2.465   2.039   3.346
 2248TIP3    H2 6688   2.417   1.899   3.316
 2249TIP3   OH2 6689   5.369   5.091   3.795
 2249TIP3    H1 6690   5.343   5.176   3.831
 2249TIP3    H2 6691   5.287   5.052   3.765
 2250TIP3   OH2 6692   3.804   0.459   1.137
 2250TIP3    H1 6693   3.733   0.522   1.152
 2250TIP3    H2 6694   3.855   0.497   1.065
 2251TIP3   OH2 6695   0.330   4.202   1.648
 2251TIP3    H1 6696   0.373   4.183   1.565
 2251TIP3    H2 6697   0.372   4.146   1.712
 2252TIP3   OH2 6698   3.250   7.140   6.398
 2252TIP3    H1 6699   3.197   7.128   6.319
 2252TIP3    H2 6700   3.330   7.183   6.368
 2253TIP3   OH2 6701   5.363   3.733   1.130
 2253TIP3    H1 6702   5.394   3.643   1.142
 2253TIP3    H2 6703   5.318   3.733   1.046
 2254TIP3   OH2 6704   5.481   1.266   6.046
 2254TIP3    H1 6705   5.562   1.216   6.054
 2254TIP3    H2 6706   5.503   1.354   6.076
 2255TIP3   OH2 6707   4.369   3.404   2.752
 2255TIP3    H1 6708   4.344   3.384   2.843
 2255TIP3    H2 6709   4.456   3.444   2.759
 2256TIP3   OH2 6710   4.558   1.699   2.156
 2256TIP3    H1 6711   4.594   1.786   2.140
 2256TIP3    H2 6712   4.633   1.648   2.188
 2257TIP3   OH2 6713   5.054   1.654   4.576
 2257TIP3    H1 6714   4.998   1.579   4.558
 2257TIP3    H2 6715   5.077   1.688   4.490
 2258TIP3   OH2 6716   2.113   6.359   2.862
 2258TIP3    H1 6717   2.187   6.335   2.807
 2258TIP3    H2 6718   2.047   6.293   2.844
 2259TIP3   OH2 6719   1.317   3.125   2.919
 2259TIP3    H1 6720   1.336   3.088   2.833
 2259TIP3    H2 6721   1.311   3.219   2.904
 2260TIP3   OH2 6722   8.172   5.135   6.394
 2260TIP3    H1 6723   8.086   5.130   6.354
 2260TIP3    H2 6724   8.158   5.110   6.486
 2261TIP3   OH2 6725   7.564   4.535   5.916
 2261TIP3    H1 6726   7.476   4.564   5.892
 2261TIP3    H2 6727   7.621   4.607   5.888
 2262TIP3   OH2 6728   1.018   4.485   6.300
 2262TIP3    H1 6729   1.017   4.457   6.209
 2262TIP3    H2 6730   0.933   4.525   6.314
 2263TIP3   OH2 6731   2.516   2.928   0.866
 2263TIP3    H1 6732   2.562   3.002   0.825
 2263TIP3    H2 6733   2.461   2.969   0.933
 2264TIP3   OH2 6734   4.157   2.232   5.142
 2264TIP3    H1 6735   4.143   2.160   5.204
 2264TIP3    H2 6736   4.113   2.203   5.062
 2265TIP3   OH2 6737   7.804   6.101   0.597
 2265TIP3    H1 6738   7.735   6.156   0.635
 2265TIP3    H2 6739   7.868   6.164   0.561
 2266TIP3   OH2 6740   1.610   5.118   6.671
 2266TIP3    H1 6741   1.537   5.077   6.718
 2266TIP3    H2 6742   1.675   5.136   6.739
 2267TIP3   OH2 6743   6.344   0.319   4.465
 2267TIP3    H1 6744   6.316   0.233   4.433
 2267TIP3    H2 6745   6.408   0.348   4.400
 2268TIP3   OH2 6746   1.856   6.073   3.639
 2268TIP3    H1 6747   1.946   6.049   3.659
 2268TIP3    H2 6748   1.862   6.124   3.559
 2269TIP3   OH2 6749   0.058   7.431   3.017
 2269TIP3    H1 6750   0.121   7.360   3.021
 2269TIP3    H2 6751   0.107   7.508   3.047
 2270TIP3   OH2 6752   4.346   1.428   5.268
 2270TIP3    H1 6753   4.365   1.336   5.285
 2270TIP3    H2 6754   4.368   1.473   5.349
 2271TIP3   OH2 6755   3.312   0.489   3.713
 2271TIP3    H1 6756   3.262   0.415   3.680
 2271TIP3    H2 6757   3.340   0.536   3.634
 2272TIP3   OH2 6758   3.821   5.492   1.754
 2272TIP3    H1 6759   3.811   5.587   1.758
 2272TIP3    H2 6760   3.748   5.463   1.698
 2273TIP3   OH2 6761   4.932   2.966   0.075
 2273TIP3    H1 6762   4.930   2.871   0.082
 2273TIP3    H2 6763   5.015   2.985   0.031
 2274TIP3   OH2 6764   1.728   0.533   4.380
 2274TIP3    H1 6765   1.680   0.604   4.339
 2274TIP3    H2 6766   1.718   0.459   4.320
 2275TIP3   OH2 6767   2.256   4.587   4.004
 2275TIP3    H1 6768   2.251   4.509   4.060
 2275TIP3    H2 6769   2.336   4.575   3.953
 2276TIP3   OH2 6770   7.511   4.378   4.304
 2276TIP3    H1 6771   7.567   4.347   4.233
 2276TIP3    H2 6772   7.509   4.305   4.366
 2277TIP3   OH2 6773   3.360  -0.019   2.394
 2277TIP3    H1 6774   3.413  -0.081   2.344
 2277TIP3    H2 6775   3.401   0.066   2.378
 2278TIP3   OH2 6776   2.486   3.260   2.472
 2278TIP3    H1 6777   2.415   3.325   2.471
 2278TIP3    H2 6778   2.564   3.309   2.448
 2279TIP3   OH2 6779   7.756   7.162   6.728
 2279TIP3    H1 6780   7.704   7.197   6.656
 2279TIP3    H2 6781   7.697   7.103   6.774
 2280TIP3   OH2 6782   4.960   7.128   2.131
 2280TIP3    H1 6783   5.043   7.175   2.140
 2280TIP3    H2 6784   4.983   7.036   2.146
 2281TIP3   OH2 6785   2.965   1.705   5.286
 2281TIP3    H1 6786   2.927   1.618   5.275
 2281TIP3    H2 6787   2.916   1.761   5.225
 2282TIP3   OH2 6788   3.851   6.300   3.348
 2282TIP3    H1 6789   3.918   6.244   3.308
 2282TIP3    H2 6790   3.878   6.309   3.439
 2283TIP3   OH2 6791   5.874   7.727   2.220
 2283TIP3    H1 6792   5.925   7.653   2.187
 2283TIP3    H2 6793   5.885   7.723   2.315
 2284TIP3   OH2 6794   3.312   7.705   4.106
 2284TIP3    H1 6795   3.354   7.636   4.158
 2284TIP3    H2 6796   3.242   7.738   4.161
 2285TIP3   OH2 6797   0.346   4.103   5.384
 2285TIP3    H1 6798   0.341   4.092   5.480
 2285TIP3    H2 6799   0.416   4.166   5.371
 2286TIP3   OH2 6800   3.420   5.074   0.239
 2286TIP3    H1 6801   3.373   5.148   0.276
 2286TIP3    H2 6802   3.355   5.003   0.235
 2287TIP3   OH2 6803   2.296   0.628   3.870
 2287TIP3    H1 6804   2.372   0.662   3.917
 2287TIP3    H2 6805   2.329   0.605   3.783
 2288TIP3   OH2 6806   5.759   2.062   3.852
 2288TIP3    H1 6807   5.778   1.972   3.880
 2288TIP3    H2 6808   5.761   2.058   3.756
 2289TIP3   OH2 6809   0.822   5.272   5.458
 2289TIP3    H1 6810   0.786   5.234   5.378
 2289TIP3    H2 6811   0.767   5.348   5.475
 2290TIP3   OH2 6812   3.723   5.272   4.498
 2290TIP3    H1 6813   3.780   5.196   4.482
 2290TIP3    H2 6814   3.667   5.244   4.570
 2291TIP3   OH2 6815   6.290   6.642   2.188
 2291TIP3    H1 6816   6.350   6.574   2.158
 2291TIP3    H2 6817   6.208   6.595   2.205
 2292TIP3   OH2 6818   1.647   0.110   3.985
 2292TIP3    H1 6819   1.583   0.180   4.002
 2292TIP3    H2 6820   1.703   0.145   3.916
 2293TIP3   OH2 6821   7.231   7.608   2.553
 2293TIP3    H1 6822   7.318   7.572   2.572
 2293TIP3    H2 6823   7.238   7.700   2.575
 2294TIP3   OH2 6824   1.178   6.148   4.425
 2294TIP3    H1 6825   1.222   6.129   4.508
 2294TIP3    H2 6826   1.095   6.188   4.451
 2295TIP3   OH2 6827   0.206   1.580   3.732
 2295TIP3    H1 6828   0.186   1.573   3.639
 2295TIP3    H2 6829   0.258   1.661   3.739
 2296TIP3   OH2 6830   3.416   0.119   0.964
 2296TIP3    H1 6831   3.508   0.116   0.991
 2296TIP3    H2 6832   3.391   0.211   0.974
 2297TIP3   OH2 6833   3.074   6.936   2.589
 2297TIP3    H1 6834   3.011   6.875   2.551
 2297TIP3    H2 6835   3.137   6.881   2.634
 2298TIP3   OH2 6836   6.990   1.243   5.961
 2298TIP3    H1 6837   6.895   1.236   5.965
 2298TIP3    H2 6838   7.022   1.175   6.020
 2299TIP3   OH2 6839   5.625   3.492   3.231
 2299TIP3    H1 6840   5.707   3.541   3.227
 2299TIP3    H2 6841   5.651   3.400   3.230
 2300TIP3   OH2 6842   5.067   2.802   4.428
 2300TIP3    H1 6843   5.090   2.872   4.489
 2300TIP3    H2 6844   4.988   2.833   4.384
 2301TIP3   OH2 6845   0.653   6.426   1.406
 2301TIP3    H1 6846   0.707   6.409   1.328
 2301TIP3    H2 6847   0.707   6.484   1.460
 2302TIP3   OH2 6848   5.352   6.602   6.273
 2302TIP3    H1 6849   5.420   6.571   6.214
 2302TIP3    H2 6850   5.398   6.629   6.352
 2303TIP3   OH2 6851   5.503   6.593   5.991
 2303TIP3    H1 6852   5.549   6.532   5.933
 2303TIP3    H2 6853   5.572   6.630   6.046
 2304TIP3   OH2 6854   7.777   2.360   2.977
 2304TIP3    H1 6855   7.803   2.427   3.040
 2304TIP3    H2 6856   7.837   2.372   2.903
 2305TIP3   OH2 6857   1.760   0.853   4.790
 2305TIP3    H1 6858   1.848   0.886   4.779
 2305TIP3    H2 6859   1.769   0.757   4.785
 2306TIP3   OH2 6860   1.114  -0.010   0.349
 2306TIP3    H1 6861   1.118  -0.050   0.437
 2306TIP3    H2 6862   1.157   0.075   0.360
 2307TIP3   OH2 6863   3.370   2.149   5.653
 2307TIP3    H1 6864   3.310   2.142   5.578
 2307TIP3    H2 6865   3.313   2.153   5.729
 2308TIP3   OH2 6866   8.186   4.820   0.373
 2308TIP3    H1 6867   8.268   4.850   0.334
 2308TIP3    H2 6868   8.213   4.780   0.456
 2309TIP3   OH2 6869   1.708   0.250   3.352
 2309TIP3    H1 6870   1.787   0.197   3.343
 2309TIP3    H2 6871   1.635   0.188   3.341
 2310TIP3   OH2 6872   6.431   0.962   6.012
 2310TIP3    H1 6873   6.363   0.928   6.070
 2310TIP3    H2 6874   6.505   0.902   6.024
 2311TIP3   OH2 6875   0.890   2.629   1.534
 2311TIP3    H1 6876   0.838   2.700   1.571
 2311TIP3    H2 6877   0.851   2.612   1.449
 2312TIP3   OH2 6878   6.290   6.389   0.224
 2312TIP3    H1 6879   6.337   6.358   0.146
 2312TIP3    H2 6880   6.228   6.319   0.244
 2313TIP3   OH2 6881   6.131   3.109   2.665
 2313TIP3    H1 6882   6.154   3.141   2.578
 2313TIP3    H2 6883   6.213   3.077   2.701
 2314TIP3   OH2 6884   7.934   2.845   3.764
 2314TIP3    H1 6885   7.920   2.835   3.670
 2314TIP3    H2 6886   7.877   2.918   3.789
 2315TIP3   OH2 6887   1.334   7.197   0.163
 2315TIP3    H1 6888   1.351   7.118   0.112
 2315TIP3    H2 6889   1.366   7.177   0.251
 2316TIP3   OH2 6890   7.918   6.024   3.093
 2316TIP3    H1 6891   7.840   5.971   3.074
 2316TIP3    H2 6892   7.989   5.960   3.098
 2317TIP3   OH2 6893   0.388   1.018   6.635
 2317TIP3    H1 6894   0.350   1.038   6.549
 2317TIP3    H2 6895   0.475   1.058   6.632
 2318TIP3   OH2 6896   3.918   2.436   2.722
 2318TIP3    H1 6897   4.012   2.451   2.716
 2318TIP3    H2 6898   3.888   2.494   2.791
 2319TIP3   OH2 6899   8.031   5.278   1.326
 2319TIP3    H1 6900   7.972   5.314   1.259
 2319TIP3    H2 6901   8.018   5.183   1.320
 2320TIP3   OH2 6902   4.425   1.795   0.468
 2320TIP3    H1 6903   4.441   1.700   0.462
 2320TIP3    H2 6904   4.474   1.832   0.395
 2321TIP3   OH2 6905   3.562   3.596   0.121
 2321TIP3    H1 6906   3.490   3.650   0.153
 2321TIP3    H2 6907   3.549   3.511   0.163
 2322TIP3   OH2 6908   0.970   4.245   0.631
 2322TIP3    H1 6909   1.012   4.176   0.580
 2322TIP3    H2 6910   0.909   4.286   0.570
 2323TIP3   OH2 6911   8.204   6.220   1.195
 2323TIP3    H1 6912   8.227   6.254   1.108
 2323TIP3    H2 6913   8.111   6.196   1.187
 2324TIP3   OH2 6914   2.869   6.784   1.835
 2324TIP3    H1 6915   2.865   6.872   1.874
 2324TIP3    H2 6916   2.959   6.775   1.806
 2325TIP3   OH2 6917   3.679   1.646   3.433
 2325TIP3    H1 6918   3.625   1.567   3.425
 2325TIP3    H2 6919   3.658   1.697   3.355
 2326TIP3   OH2 6920   1.798   4.657   2.062
 2326TIP3    H1 6921   1.833   4.645   2.150
 2326TIP3    H2 6922   1.840   4.589   2.009
 2327TIP3   OH2 6923   5.905   4.291   5.171
 2327TIP3    H1 6924   5.883   4.215   5.225
 2327TIP3    H2 6925   5.854   4.280   5.091
 2328TIP3   OH2 6926   0.963   0.681   5.923
 2328TIP3    H1 6927   0.959   0.685   5.827
 2328TIP3    H2 6928   1.013   0.759   5.947
 2329TIP3   OH2 6929   7.682   4.788   0.695
 2329TIP3    H1 6930   7.621   4.717   0.674
 2329TIP3    H2 6931   7.658   4.859   0.634
 2330TIP3   OH2 6932   7.208   3.982   2.271
 2330TIP3    H1 6933   7.261   4.062   2.272
 2330TIP3    H2 6934   7.229   3.940   2.187
 2331TIP3   OH2 6935   6.711   5.061   5.584
 2331TIP3    H1 6936   6.772   5.063   5.511
 2331TIP3    H2 6937   6.674   4.972   5.582
 2332TIP3   OH2 6938   0.736   3.215   1.127
 2332TIP3    H1 6939   0.810   3.189   1.072
 2332TIP3    H2 6940   0.776   3.261   1.201
 2333TIP3   OH2 6941   6.456   1.115   3.045
 2333TIP3    H1 6942   6.365   1.139   3.064
 2333TIP3    H2 6943   6.508   1.180   3.092
 2334TIP3   OH2 6944   7.842   4.092   0.056
 2334TIP3    H1 6945   7.921   4.042   0.039
 2334TIP3    H2 6946   7.870   4.162   0.115
 2335TIP3   OH2 6947   3.696   4.029   1.497
 2335TIP3    H1 6948   3.666   4.082   1.571
 2335TIP3    H2 6949   3.764   3.974   1.533
 2336TIP3   OH2 6950   0.055   6.321   6.047
 2336TIP3    H1 6951   0.076   6.392   5.986
 2336TIP3    H2 6952   0.135   6.268   6.051
 2337TIP3   OH2 6953   3.113   2.072   6.617
 2337TIP3    H1 6954   3.029   2.100   6.582
 2337TIP3    H2 6955   3.108   1.976   6.616
 2338TIP3   OH2 6956   2.254   6.892   6.621
 2338TIP3    H1 6957   2.169   6.852   6.636
 2338TIP3    H2 6958   2.272   6.878   6.528
 2339TIP3   OH2 6959   0.236   6.760   0.152
 2339TIP3    H1 6960   0.278   6.786   0.070
 2339TIP3    H2 6961   0.199   6.841   0.188
 2340TIP3   OH2 6962   6.486   0.017   5.851
 2340TIP3    H1 6963   6.549   0.080   5.887
 2340TIP3    H2 6964   6.423   0.070   5.803
 2341TIP3   OH2 6965   7.380   1.852   1.153
 2341TIP3    H1 6966   7.374   1.760   1.178
 2341TIP3    H2 6967   7.304   1.893   1.194
 2342TIP3   OH2 6968   3.590   3.171   2.474
 2342TIP3    H1 6969   3.628   3.240   2.528
 2342TIP3    H2 6970   3.582   3.209   2.387
 2343TIP3   OH2 6971   2.574   0.728   2.063
 2343TIP3    H1 6972   2.654   0.743   2.012
 2343TIP3    H2 6973   2.532   0.654   2.019
 2344TIP3   OH2 6974   2.516   0.417   2.097
 2344TIP3    H1 6975   2.604   0.416   2.061
 2344TIP3    H2 6976   2.466   0.359   2.039
 2345TIP3   OH2 6977   0.437   2.757   1.764
 2345TIP3    H1 6978   0.504   2.724   1.824
 2345TIP3    H2 6979   0.355   2.746   1.811
 2346TIP3   OH2 6980   5.103   7.703   0.035
 2346TIP3    H1 6981   5.168   7.773   0.046
 2346TIP3    H2 6982   5.040   7.739  -0.028
 2347TIP3   OH2 6983   1.120   5.719   3.246
 2347TIP3    H1 6984   1.183   5.716   3.318
 2347TIP3    H2 6985   1.155   5.657   3.181
 2348TIP3   OH2 6986   1.997   3.106   0.486
 2348TIP3    H1 6987   1.968   3.021   0.517
 2348TIP3    H2 6988   1.932   3.131   0.420
 2349TIP3   OH2 6989   3.202   6.705   0.615
 2349TIP3    H1 6990   3.140   6.655   0.669
 2349TIP3    H2 6991   3.285   6.697   0.661
 2350TIP3   OH2 6992   0.738   6.084   5.327
 2350TIP3    H1 6993   0.745   6.023   5.400
 2350TIP3    H2 6994   0.667   6.048   5.273
 2351TIP3   OH2 6995   2.244   6.492   4.969
 2351TIP3    H1 6996   2.268   6.582   4.991
 2351TIP3    H2 6997   2.278   6.440   5.042
 2352TIP3   OH2 6998   7.877   0.130   0.924
 2352TIP3    H1 6999   7.860   0.193   0.853
 2352TIP3    H2 7000   7.833   0.168   1.000
 2353TIP3   OH2 7001   6.490   0.874   2.157
 2353TIP3    H1 7002   6.544   0.952   2.169
 2353TIP3    H2 7003   6.546   0.801   2.184
 2354TIP3   OH2 7004   0.846   4.771   6.579
 2354TIP3    H1 7005   0.923   4.823   6.553
 2354TIP3    H2 7006   0.866   4.743   6.668
 2355TIP3   OH2 7007   4.821   2.430   4.164
 2355TIP3    H1 7008   4.772   2.399   4.240
 2355TIP3    H2 7009   4.892   2.482   4.201
 2356TIP3   OH2 7010   3.867   7.535   5.111
 2356TIP3    H1 7011   3.954   7.496   5.112
 2356TIP3    H2 7012   3.876   7.613   5.057
 2357TIP3   OH2 7013   2.552   6.768   1.552
 2357TIP3    H1 7014   2.509   6.759   1.637
 2357TIP3    H2 7015   2.487   6.813   1.497
 2358TIP3   OH2 7016   0.705   1.285   0.187
 2358TIP3    H1 7017   0.764   1.222   0.145
 2358TIP3    H2 7018   0.683   1.245   0.271
 2359TIP3   OH2 7019   4.985   6.046   2.923
 2359TIP3    H1 7020   4.893   6.028   2.941
 2359TIP3    H2 7021   4.991   6.142   2.920
 2360TIP3   OH2 7022   6.213   5.083   6.336
 2360TIP3    H1 7023   6.246   4.996   6.362
 2360TIP3    H2 7024   6.129   5.064   6.295
 2361TIP3   OH2 7025   3.703   5.972   5.445
 2361TIP3    H1 7026   3.679   5.920   5.368
 2361TIP3    H2 7027   3.659   5.928   5.518
 2362TIP3   OH2 7028   1.581   5.172   5.743
 2362TIP3    H1 7029   1.639   5.154   5.818
 2362TIP3    H2 7030   1.494   5.149   5.775
 2363TIP3   OH2 7031   2.749   3.731   2.284
 2363TIP3    H1 7032   2.769   3.820   2.313
 2363TIP3    H2 7033   2.667   3.709   2.328
 2364TIP3   OH2 7034   1.806   7.121   5.162
 2364TIP3    H1 7035   1.747   7.114   5.086
 2364TIP3    H2 7036   1.795   7.212   5.191
 2365TIP3   OH2 7037   0.745   4.728   1.050
 2365TIP3    H1 7038   0.820   4.786   1.036
 2365TIP3    H2 7039   0.669   4.782   1.030
 2366TIP3   OH2 7040   3.642   1.275   1.345
 2366TIP3    H1 7041   3.619   1.190   1.384
 2366TIP3    H2 7042   3.708   1.311   1.404
 2367TIP3   OH2 7043   0.926   1.304   3.073
 2367TIP3    H1 7044   0.862   1.245   3.113
 2367TIP3    H2 7045   0.908   1.389   3.113
 2368TIP3   OH2 7046   0.832   1.525   2.331
 2368TIP3    H1 7047   0.888   1.564   2.398
 2368TIP3    H2 7048   0.879   1.446   2.303
 2369TIP3   OH2 7049   3.880   6.551   1.663
 2369TIP3    H1 7050   3.858   6.510   1.579
 2369TIP3    H2 7051   3.796   6.582   1.697
 2370TIP3   OH2 7052   6.179   6.629   0.117
 2370TIP3    H1 7053   6.233   6.560   0.155
 2370TIP3    H2 7054   6.241   6.689   0.077
 2371TIP3   OH2 7055   6.710   4.145   2.869
 2371TIP3    H1 7056   6.717   4.080   2.798
 2371TIP3    H2 7057   6.799   4.149   2.906
 2372TIP3   OH2 7058   7.834   1.734   2.070
 2372TIP3    H1 7059   7.791   1.704   2.150
 2372TIP3    H2 7060   7.872   1.655   2.032
 2373TIP3   OH2 7061   7.227   5.855   1.634
 2373TIP3    H1 7062   7.295   5.811   1.685
 2373TIP3    H2 7063   7.276   5.903   1.567
 2374TIP3   OH2 7064   3.959   2.886   1.447
 2374TIP3    H1 7065   4.054   2.882   1.435
 2374TIP3    H2 7066   3.943   2.973   1.483
 2375TIP3   OH2 7067   2.764   3.794   4.577
 2375TIP3    H1 7068   2.800   3.877   4.609
 2375TIP3    H2 7069   2.800   3.785   4.489
 2376TIP3   OH2 7070   7.774   2.021   5.923
 2376TIP3    H1 7071   7.788   1.976   6.006
 2376TIP3    H2 7072   7.685   2.057   5.929
 2377TIP3   OH2 7073   5.406   3.947   2.903
 2377TIP3    H1 7074   5.492   3.957   2.860
 2377TIP3    H2 7075   5.370   4.036   2.904
 2378TIP3   OH2 7076   1.793   7.205   0.952
 2378TIP3    H1 7077   1.866   7.250   0.995
 2378TIP3    H2 7078   1.715   7.251   0.984
 2379TIP3   OH2 7079   3.069   4.488   0.157
 2379TIP3    H1 7080   3.012   4.563   0.175
 2379TIP3    H2 7081   3.109   4.509   0.073
 2380TIP3   OH2 7082   0.862   0.175   0.730
 2380TIP3    H1 7083   0.901   0.115   0.793
 2380TIP3    H2 7084   0.937   0.220   0.691
 2381TIP3   OH2 7085   5.534   6.756   5.350
 2381TIP3    H1 7086   5.573   6.741   5.436
 2381TIP3    H2 7087   5.440   6.757   5.367
 2382TIP3   OH2 7088   2.017   0.022   5.222
 2382TIP3    H1 7089   2.018  -0.069   5.253
 2382TIP3    H2 7090   2.110   0.044   5.212
 2383TIP3   OH2 7091   7.444   7.490   4.662
 2383TIP3    H1 7092   7.509   7.560   4.676
 2383TIP3    H2 7093   7.374   7.510   4.724
 2384TIP3   OH2 7094   7.844   3.271   4.208
 2384TIP3    H1 7095   7.859   3.177   4.199
 2384TIP3    H2 7096   7.882   3.310   4.129
 2385TIP3   OH2 7097   5.993   4.597   0.550
 2385TIP3    H1 7098   5.981   4.692   0.551
 2385TIP3    H2 7099   6.049   4.581   0.474
 2386TIP3   OH2 7100   6.975   4.283   6.058
 2386TIP3    H1 7101   6.892   4.264   6.014
 2386TIP3    H2 7102   7.036   4.219   6.022
 2387TIP3   OH2 7103   3.990   5.853   1.094
 2387TIP3    H1 7104   3.950   5.848   1.008
 2387TIP3    H2 7105   4.075   5.895   1.079
 2388TIP3   OH2 7106   7.691   5.715  -0.018
 2388TIP3    H1 7107   7.673   5.646  -0.083
 2388TIP3    H2 7108   7.704   5.668   0.064
 2389TIP3   OH2 7109   2.034   1.767   1.457
 2389TIP3    H1 7110   2.080   1.848   1.480
 2389TIP3    H2 7111   2.080   1.733   1.380
 2390TIP3   OH2 7112   6.207   0.466   2.365
 2390TIP3    H1 7113   6.115   0.492   2.371
 2390TIP3    H2 7114   6.254   0.531   2.417
 2391TIP3   OH2 7115   0.291   7.592   3.586
 2391TIP3    H1 7116   0.348   7.630   3.520
 2391TIP3    H2 7117   0.351   7.544   3.644
 2392TIP3   OH2 7118   1.690   3.722   5.073
 2392TIP3    H1 7119   1.774   3.769   5.070
 2392TIP3    H2 7120   1.674   3.695   4.983
 2393TIP3   OH2 7121   6.991   0.656   0.048
 2393TIP3    H1 7122   6.900   0.635   0.027
 2393TIP3    H2 7123   7.036   0.656  -0.037
 2394TIP3   OH2 7124   3.184   7.676   6.068
 2394TIP3    H1 7125   3.256   7.615   6.087
 2394TIP3    H2 7126   3.167   7.666   5.975
 2395TIP3   OH2 7127   4.215   2.909   6.283
 2395TIP3    H1 7128   4.233   2.883   6.193
 2395TIP3    H2 7129   4.120   2.920   6.286
 2396TIP3   OH2 7130   2.205   3.311   2.585
 2396TIP3    H1 7131   2.238   3.252   2.653
 2396TIP3    H2 7132   2.113   3.326   2.610
 2397TIP3   OH2 7133   4.579   0.227   0.504
 2397TIP3    H1 7134   4.562   0.212   0.411
 2397TIP3    H2 7135   4.515   0.293   0.530
 2398TIP3   OH2 7136   8.087   4.743   1.651
 2398TIP3    H1 7137   8.015   4.797   1.685
 2398TIP3    H2 7138   8.111   4.785   1.568
 2399TIP3   OH2 7139   3.827   0.900   6.393
 2399TIP3    H1 7140   3.882   0.943   6.459
 2399TIP3    H2 7141   3.885   0.892   6.317
 2400TIP3   OH2 7142   8.056   1.390   1.428
 2400TIP3    H1 7143   8.077   1.457   1.363
 2400TIP3    H2 7144   8.022   1.316   1.376
 2401TIP3   OH2 7145   1.635   6.303   2.633
 2401TIP3    H1 7146   1.717   6.256   2.618
 2401TIP3    H2 7147   1.568   6.248   2.592
 2402TIP3   OH2 7148   3.849   4.095   2.233
 2402TIP3    H1 7149   3.844   4.071   2.141
 2402TIP3    H2 7150   3.780   4.044   2.275
 2403TIP3   OH2 7151   7.510   3.841   5.876
 2403TIP3    H1 7152   7.481   3.911   5.935
 2403TIP3    H2 7153   7.429   3.793   5.855
 2404TIP3   OH2 7154   2.161   2.371   3.353
 2404TIP3    H1 7155   2.085   2.429   3.367
 2404TIP3    H2 7156   2.235   2.431   3.345
 2405TIP3   OH2 7157   0.814   3.365   6.062
 2405TIP3    H1 7158   0.884   3.317   6.017
 2405TIP3    H2 7159   0.843   3.369   6.153
 2406TIP3   OH2 7160   5.388   5.818   3.134
 2406TIP3    H1 7161   5.329   5.795   3.063
 2406TIP3    H2 7162   5.356   5.769   3.210
 2407TIP3   OH2 7163   3.550   4.091   6.468
 2407TIP3    H1 7164   3.487   4.162   6.458
 2407TIP3    H2 7165   3.634   4.131   6.445
 2408TIP3   OH2 7166   2.722   6.267   0.896
 2408TIP3    H1 7167   2.780   6.198   0.865
 2408TIP3    H2 7168   2.769   6.309   0.968
 2409TIP3   OH2 7169   2.041   6.000   5.173
 2409TIP3    H1 7170   2.095   6.071   5.137
 2409TIP3    H2 7171   2.002   6.036   5.252
 2410TIP3   OH2 7172   1.088   7.177   2.244
 2410TIP3    H1 7173   1.150   7.227   2.192
 2410TIP3    H2 7174   1.014   7.237   2.258
 2411TIP3   OH2 7175   6.782   6.867   4.803
 2411TIP3    H1 7176   6.717   6.927   4.765
 2411TIP3    H2 7177   6.744   6.841   4.886
 2412TIP3   OH2 7178   3.164   6.453   0.348
 2412TIP3    H1 7179   3.137   6.532   0.301
 2412TIP3    H2 7180   3.083   6.406   0.365
 2413TIP3   OH2 7181   5.858   4.109   2.829
 2413TIP3    H1 7182   5.940   4.132   2.784
 2413TIP3    H2 7183   5.839   4.020   2.800
 2414TIP3   OH2 7184   0.957   6.263   3.085
 2414TIP3    H1 7185   0.962   6.170   3.110
 2414TIP3    H2 7186   0.872   6.292   3.118
 2415TIP3   OH2 7187   0.140   3.144   3.170
 2415TIP3    H1 7188   0.154   3.239   3.176
 2415TIP3    H2 7189   0.204   3.114   3.105
 2416TIP3   OH2 7190   4.048   2.705   3.805
 2416TIP3    H1 7191   4.027   2.646   3.732
 2416TIP3    H2 7192   4.142   2.693   3.819
 2417TIP3   OH2 7193   2.502   4.841   4.977
 2417TIP3    H1 7194   2.511   4.818   5.069
 2417TIP3    H2 7195   2.476   4.933   4.977
 2418TIP3   OH2 7196   0.106   5.079   4.283
 2418TIP3    H1 7197   0.165   5.137   4.330
 2418TIP3    H2 7198   0.061   5.030   4.352
 2419TIP3   OH2 7199   0.841   4.536   5.829
 2419TIP3    H1 7200   0.865   4.549   5.737
 2419TIP3    H2 7201   0.782   4.609   5.849
 2420TIP3   OH2 7202   6.826   0.724   4.869
 2420TIP3    H1 7203   6.861   0.635   4.869
 2420TIP3    H2 7204   6.876   0.769   4.937
 2421TIP3   OH2 7205   2.730   3.157   1.553
 2421TIP3    H1 7206   2.768   3.185   1.470
 2421TIP3    H2 7207   2.738   3.062   1.553
 2422TIP3   OH2 7208   5.165   5.139   4.650
 2422TIP3    H1 7209   5.219   5.096   4.716
 2422TIP3    H2 7210   5.214   5.218   4.626
 2423TIP3   OH2 7211   6.371   7.769   3.395
 2423TIP3    H1 7212   6.378   7.678   3.424
 2423TIP3    H2 7213   6.294   7.771   3.338
 2424TIP3   OH2 7214   5.852   1.348   6.681
 2424TIP3    H1 7215   5.905   1.270   6.663
 2424TIP3    H2 7216   5.852   1.397   6.598
 2425TIP3   OH2 7217   3.674   7.324   6.373
 2425TIP3    H1 7218   3.629   7.298   6.293
 2425TIP3    H2 7219   3.731   7.396   6.347
 2426TIP3   OH2 7220   2.173   3.784   4.547
 2426TIP3    H1 7221   2.096   3.754   4.498
 2426TIP3    H2 7222   2.157   3.877   4.562
 2427TIP3   OH2 7223   2.003   7.545   1.834
 2427TIP3    H1 7224   1.965   7.467   1.875
 2427TIP3    H2 7225   2.089   7.553   1.876
 2428TIP3   OH2 7226   4.274   2.108   3.735
 2428TIP3    H1 7227   4.203   2.112   3.672
 2428TIP3    H2 7228   4.318   2.025   3.717
 2429TIP3   OH2 7229   2.908   3.859   3.327
 2429TIP3    H1 7230   2.858   3.815   3.259
 2429TIP3    H2 7231   2.989   3.808   3.334
 2430TIP3   OH2 7232   3.188   1.750   2.644
 2430TIP3    H1 7233   3.226   1.827   2.601
 2430TIP3    H2 7234   3.129   1.713   2.579
 2431TIP3   OH2 7235   1.579   5.405   3.646
 2431TIP3    H1 7236   1.675   5.404   3.649
 2431TIP3    H2 7237   1.558   5.388   3.554
 2432TIP3   OH2 7238   5.567   7.515   4.416
 2432TIP3    H1 7239   5.499   7.498   4.480
 2432TIP3    H2 7240   5.586   7.430   4.378
 2433TIP3   OH2 7241   1.561   6.185   4.637
 2433TIP3    H1 7242   1.617   6.110   4.616
 2433TIP3    H2 7243   1.621   6.260   4.635
 2434TIP3   OH2 7244   5.697   6.158   6.382
 2434TIP3    H1 7245   5.784   6.132   6.412
 2434TIP3    H2 7246   5.714   6.212   6.304
 2435TIP3   OH2 7247   6.785   6.191   0.769
 2435TIP3    H1 7248   6.767   6.141   0.690
 2435TIP3    H2 7249   6.855   6.143   0.813
 2436TIP3   OH2 7250   2.036   7.110   4.640
 2436TIP3    H1 7251   2.046   7.016   4.620
 2436TIP3    H2 7252   1.989   7.112   4.723
 2437TIP3   OH2 7253   7.699   6.452   0.731
 2437TIP3    H1 7254   7.650   6.372   0.752
 2437TIP3    H2 7255   7.657   6.485   0.651
 2438TIP3   OH2 7256   4.571   3.455   6.185
 2438TIP3    H1 7257   4.642   3.402   6.149
 2438TIP3    H2 7258   4.493   3.426   6.138
 2439TIP3   OH2 7259   0.306   5.538   6.015
 2439TIP3    H1 7260   0.232   5.558   6.073
 2439TIP3    H2 7261   0.383   5.563   6.065
 2440TIP3   OH2 7262   6.872   4.778   6.020
 2440TIP3    H1 7263   6.926   4.703   6.044
 2440TIP3    H2 7264   6.930   4.853   6.027
 2441TIP3   OH2 7265   7.735   2.038   3.878
 2441TIP3    H1 7266   7.752   2.027   3.972
 2441TIP3    H2 7267   7.778   1.962   3.838
 2442TIP3   OH2 7268   1.850   0.703   2.121
 2442TIP3    H1 7269   1.789   0.746   2.181
 2442TIP3    H2 7270   1.922   0.675   2.177
 2443TIP3   OH2 7271   2.629   7.139   5.411
 2443TIP3    H1 7272   2.545   7.096   5.400
 2443TIP3    H2 7273   2.659   7.111   5.498
 2444TIP3   OH2 7274   3.734   0.686   1.422
 2444TIP3    H1 7275   3.805   0.629   1.453
 2444TIP3    H2 7276   3.720   0.748   1.493
 2445TIP3   OH2 7277   4.264   3.053   4.080
 2445TIP3    H1 7278   4.179   3.017   4.057
 2445TIP3    H2 7279   4.259   3.068   4.175
 2446TIP3   OH2 7280   2.018   5.505   5.279
 2446TIP3    H1 7281   1.937   5.505   5.227
 2446TIP3    H2 7282   2.039   5.597   5.290
 2447TIP3   OH2 7283   6.727   6.650   2.629
 2447TIP3    H1 7284   6.815   6.684   2.643
 2447TIP3    H2 7285   6.713   6.659   2.535
 2448TIP3   OH2 7286   7.232   4.864   1.120
 2448TIP3    H1 7287   7.228   4.817   1.037
 2448TIP3    H2 7288   7.272   4.802   1.181
 2449TIP3   OH2 7289   1.393   3.695   0.109
 2449TIP3    H1 7290   1.475   3.728   0.072
 2449TIP3    H2 7291   1.353   3.645   0.037
 2450TIP3   OH2 7292   2.396   7.324   6.041
 2450TIP3    H1 7293   2.412   7.264   5.968
 2450TIP3    H2 7294   2.481   7.330   6.085
 2451TIP3   OH2 7295   7.438   2.656   2.733
 2451TIP3    H1 7296   7.532   2.642   2.725
 2451TIP3    H2 7297   7.400   2.600   2.665
 2452TIP3   OH2 7298   7.482   2.159   4.541
 2452TIP3    H1 7299   7.502   2.100   4.468
 2452TIP3    H2 7300   7.390   2.142   4.561
 2453TIP3   OH2 7301   7.669   2.615   2.436
 2453TIP3    H1 7302   7.714   2.608   2.520
 2453TIP3    H2 7303   7.638   2.705   2.433
 2454TIP3   OH2 7304   8.289   4.593   1.833
 2454TIP3    H1 7305   8.251   4.532   1.769
 2454TIP3    H2 7306   8.258   4.679   1.804
 2455TIP3   OH2 7307   7.642   2.662   3.567
 2455TIP3    H1 7308   7.580   2.684   3.636
 2455TIP3    H2 7309   7.615   2.574   3.538
 2456TIP3   OH2 7310   2.594   7.778   3.047
 2456TIP3    H1 7311   2.506   7.813   3.059
 2456TIP3    H2 7312   2.602   7.709   3.114
 2457TIP3   OH2 7313   1.648   6.813   3.802
 2457TIP3    H1 7314   1.604   6.771   3.876
 2457TIP3    H2 7315   1.703   6.744   3.765
 2458TIP3   OH2 7316   5.625   0.358   2.785
 2458TIP3    H1 7317   5.654   0.284   2.838
 2458TIP3    H2 7318   5.541   0.384   2.823
 2459TIP3   OH2 7319   0.469   4.921   5.193
 2459TIP3    H1 7320   0.452   4.831   5.221
 2459TIP3    H2 7321   0.389   4.969   5.214
 2460TIP3   OH2 7322   1.573   5.470   0.757
 2460TIP3    H1 7323   1.635   5.406   0.794
 2460TIP3    H2 7324   1.513   5.489   0.829
 2461TIP3   OH2 7325   0.596   4.300   1.937
 2461TIP3    H1 7326   0.685   4.298   1.970
 2461TIP3    H2 7327   0.605   4.320   1.844
 2462TIP3   OH2 7328   6.821   6.777   2.998
 2462TIP3    H1 7329   6.825   6.871   2.984
 2462TIP3    H2 7330   6.763   6.744   2.929
 2463TIP3   OH2 7331   7.821   2.635   0.516
 2463TIP3    H1 7332   7.875   2.673   0.447
 2463TIP3    H2 7333   7.840   2.541   0.512
 2464TIP3   OH2 7334   1.107   4.450   5.601
 2464TIP3    H1 7335   1.024   4.493   5.580
 2464TIP3    H2 7336   1.172   4.500   5.552
 2465TIP3   OH2 7337   0.382   6.793   3.165
 2465TIP3    H1 7338   0.468   6.751   3.160
 2465TIP3    H2 7339   0.369   6.833   3.079
 2466TIP3   OH2 7340   0.084   3.373   0.328
 2466TIP3    H1 7341   0.012   3.393   0.268
 2466TIP3    H2 7342   0.127   3.457   0.342
 2467TIP3   OH2 7343   2.765   3.436   4.430
 2467TIP3    H1 7344   2.723   3.478   4.355
 2467TIP3    H2 7345   2.693   3.417   4.490
 2468TIP3   OH2 7346   6.822   3.608   5.511
 2468TIP3    H1 7347   6.785   3.596   5.598
 2468TIP3    H2 7348   6.768   3.553   5.454
 2469TIP3   OH2 7349   7.260   2.652   4.818
 2469TIP3    H1 7350   7.315   2.585   4.777
 2469TIP3    H2 7351   7.184   2.658   4.761
 2470TIP3   OH2 7352   4.775   5.573   0.724
 2470TIP3    H1 7353   4.717   5.587   0.799
 2470TIP3    H2 7354   4.817   5.658   0.711
 2471TIP3   OH2 7355   3.883   3.718   0.301
 2471TIP3    H1 7356   3.964   3.740   0.253
 2471TIP3    H2 7357   3.867   3.794   0.357
 2472TIP3   OH2 7358   2.297   3.125   3.943
 2472TIP3    H1 7359   2.206   3.152   3.942
 2472TIP3    H2 7360   2.299   3.050   4.003
 2473TIP3   OH2 7361   4.385   4.851   6.470
 2473TIP3    H1 7362   4.327   4.926   6.460
 2473TIP3    H2 7363   4.411   4.828   6.381
 2474TIP3   OH2 7364   1.632   0.825   6.694
 2474TIP3    H1 7365   1.621   0.805   6.788
 2474TIP3    H2 7366   1.547   0.803   6.656
 2475TIP3   OH2 7367   6.789   5.519   5.407
 2475TIP3    H1 7368   6.745   5.435   5.395
 2475TIP3    H2 7369   6.802   5.526   5.502
 2476TIP3   OH2 7370   2.418   1.943   6.747
 2476TIP3    H1 7371   2.418   1.860   6.794
 2476TIP3    H2 7372   2.459   1.924   6.663
 2477TIP3   OH2 7373   4.734   1.776   4.630
 2477TIP3    H1 7374   4.653   1.822   4.612
 2477TIP3    H2 7375   4.790   1.841   4.673
 2478TIP3   OH2 7376   3.369   3.960   0.992
 2478TIP3    H1 7377   3.288   3.992   0.952
 2478TIP3    H2 7378   3.436   3.974   0.925
 2479TIP3   OH2 7379   0.762   1.579   3.606
 2479TIP3    H1 7380   0.713   1.580   3.688
 2479TIP3    H2 7381   0.842   1.531   3.626
 2480TIP3   OH2 7382   4.559   3.116   0.300
 2480TIP3    H1 7383   4.479   3.138   0.253
 2480TIP3    H2 7384   4.535   3.119   0.392
 2481TIP3   OH2 7385   7.406   1.821   1.512
 2481TIP3    H1 7386   7.356   1.752   1.470
 2481TIP3    H2 7387   7.350   1.851   1.584
 2482TIP3   OH2 7388   6.056   4.197   0.670
 2482TIP3    H1 7389   6.055   4.214   0.576
 2482TIP3    H2 7390   6.149   4.182   0.690
 2483TIP3   OH2 7391   2.467   2.588   0.984
 2483TIP3    H1 7392   2.384   2.548   0.956
 2483TIP3    H2 7393   2.440   2.662   1.039
 2484TIP3   OH2 7394   7.988   7.832   3.450
 2484TIP3    H1 7395   8.016   7.771   3.381
 2484TIP3    H2 7396   8.066   7.883   3.470
 2485TIP3   OH2 7397   3.212   5.627   5.639
 2485TIP3    H1 7398   3.287   5.615   5.698
 2485TIP3    H2 7399   3.139   5.587   5.686
 2486TIP3   OH2 7400   0.275   4.123   3.445
 2486TIP3    H1 7401   0.307   4.134   3.356
 2486TIP3    H2 7402   0.186   4.091   3.435
 2487TIP3   OH2 7403   1.387   4.766   3.469
 2487TIP3    H1 7404   1.352   4.795   3.553
 2487TIP3    H2 7405   1.342   4.821   3.405
 2488TIP3   OH2 7406   1.219   6.474   1.030
 2488TIP3    H1 7407   1.226   6.499   0.938
 2488TIP3    H2 7408   1.193   6.554   1.076
 2489TIP3   OH2 7409   3.855   6.408   3.592
 2489TIP3    H1 7410   3.825   6.489   3.551
 2489TIP3    H2 7411   3.774   6.364   3.619
 2490TIP3   OH2 7412   5.327   0.399   4.079
 2490TIP3    H1 7413   5.303   0.486   4.110
 2490TIP3    H2 7414   5.423   0.398   4.082
 2491TIP3   OH2 7415   3.316   3.782   3.807
 2491TIP3    H1 7416   3.367   3.863   3.809
 2491TIP3    H2 7417   3.381   3.712   3.810
 2492TIP3   OH2 7418   1.037   1.920   1.549
 2492TIP3    H1 7419   0.975   1.940   1.619
 2492TIP3    H2 7420   1.015   1.831   1.521
 2493TIP3   OH2 7421   4.674   1.093   3.284
 2493TIP3    H1 7422   4.625   1.070   3.205
 2493TIP3    H2 7423   4.647   1.183   3.303
 2494TIP3   OH2 7424   6.834   6.024   0.073
 2494TIP3    H1 7425   6.781   6.048   0.149
 2494TIP3    H2 7426   6.924   6.037   0.102
 2495TIP3   OH2 7427   4.154   4.980   0.541
 2495TIP3    H1 7428   4.139   4.916   0.472
 2495TIP3    H2 7429   4.109   5.059   0.511
 2496TIP3   OH2 7430   2.372   5.069  -0.045
 2496TIP3    H1 7431   2.382   5.071   0.050
 2496TIP3    H2 7432   2.345   5.157  -0.069
 2497TIP3   OH2 7433   2.690   4.673   2.649
 2497TIP3    H1 7434   2.685   4.585   2.685
 2497TIP3    H2 7435   2.726   4.726   2.721
 2498TIP3   OH2 7436   3.771   0.934   2.452
 2498TIP3    H1 7437   3.802   0.953   2.363
 2498TIP3    H2 7438   3.816   0.853   2.476
 2499TIP3   OH2 7439   3.699   4.697   6.387
 2499TIP3    H1 7440   3.763   4.655   6.444
 2499TIP3    H2 7441   3.716   4.790   6.397
 2500TIP3   OH2 7442   3.644   5.286   3.984
 2500TIP3    H1 7443   3.610   5.197   3.971
 2500TIP3    H2 7444   3.650   5.296   4.079
 2501TIP3   OH2 7445   6.466   5.934   6.726
 2501TIP3    H1 7446   6.549   5.919   6.771
 2501TIP3    H2 7447   6.400   5.896   6.783
 2502TIP3   OH2 7448   1.604   2.719   1.951
 2502TIP3    H1 7449   1.608   2.782   2.023
 2502TIP3    H2 7450   1.620   2.634   1.993
 2503TIP3   OH2 7451   5.684   3.379   4.661
 2503TIP3    H1 7452   5.690   3.468   4.695
 2503TIP3    H2 7453   5.649   3.327   4.734
 2504TIP3   OH2 7454  -0.052   1.816   6.061
 2504TIP3    H1 7455   0.040   1.804   6.084
 2504TIP3    H2 7456  -0.061   1.911   6.047
 2505TIP3   OH2 7457   1.405   6.964   2.306
 2505TIP3    H1 7458   1.414   6.993   2.216
 2505TIP3    H2 7459   1.486   6.992   2.349
 2506TIP3   OH2 7460   2.294   4.307   3.514
 2506TIP3    H1 7461   2.386   4.288   3.499
 2506TIP3    H2 7462   2.277   4.277   3.603
 2507TIP3   OH2 7463   1.536   5.670   3.737
 2507TIP3    H1 7464   1.488   5.647   3.816
 2507TIP3    H2 7465   1.554   5.586   3.695
 2508TIP3   OH2 7466   1.829   5.244   5.496
 2508TIP3    H1 7467   1.790   5.289   5.420
 2508TIP3    H2 7468   1.868   5.314   5.548
 2509TIP3   OH2 7469   3.717   1.032   1.677
 2509TIP3    H1 7470   3.785   1.091   1.644
 2509TIP3    H2 7471   3.682   0.989   1.599
 2510TIP3   OH2 7472   3.093   2.554   3.395
 2510TIP3    H1 7473   3.045   2.614   3.451
 2510TIP3    H2 7474   3.108   2.603   3.314
 2511TIP3   OH2 7475   1.385   2.997   5.778
 2511TIP3    H1 7476   1.305   3.048   5.766
 2511TIP3    H2 7477   1.435   3.011   5.698
 2512TIP3   OH2 7478   7.063   5.841   1.912
 2512TIP3    H1 7479   7.078   5.836   1.818
 2512TIP3    H2 7480   7.131   5.899   1.944
 2513TIP3   OH2 7481   7.809   5.136   3.662
 2513TIP3    H1 7482   7.805   5.175   3.750
 2513TIP3    H2 7483   7.850   5.050   3.676
 2514TIP3   OH2 7484   0.889   0.190   5.367
 2514TIP3    H1 7485   0.966   0.198   5.424
 2514TIP3    H2 7486   0.903   0.256   5.299
 2515TIP3   OH2 7487   2.896   1.774   4.920
 2515TIP3    H1 7488   2.924   1.720   4.846
 2515TIP3    H2 7489   2.971   1.829   4.940
 2516TIP3   OH2 7490   4.443   3.150   2.320
 2516TIP3    H1 7491   4.451   3.182   2.410
 2516TIP3    H2 7492   4.349   3.135   2.309
 2517TIP3   OH2 7493   0.783   5.111   3.684
 2517TIP3    H1 7494   0.807   5.135   3.595
 2517TIP3    H2 7495   0.691   5.086   3.678
 2518TIP3   OH2 7496   5.254   2.054   6.052
 2518TIP3    H1 7497   5.170   2.051   6.099
 2518TIP3    H2 7498   5.248   1.983   5.988
 2519TIP3   OH2 7499   7.278   4.587   0.057
 2519TIP3    H1 7500   7.267   4.601  -0.037
 2519TIP3    H2 7501   7.263   4.493   0.069
 2520TIP3   OH2 7502   6.267   3.982   2.029
 2520TIP3    H1 7503   6.237   4.062   1.986
 2520TIP3    H2 7504   6.358   3.973   2.002
 2521TIP3   OH2 7505   1.392   4.852   2.886
 2521TIP3    H1 7506   1.371   4.800   2.964
 2521TIP3    H2 7507   1.319   4.836   2.826
 2522TIP3   OH2 7508   4.789   0.212   1.504
 2522TIP3    H1 7509   4.726   0.278   1.475
 2522TIP3    H2 7510   4.744   0.164   1.573
 2523TIP3   OH2 7511   5.862   7.390   1.858
 2523TIP3    H1 7512   5.783   7.434   1.892
 2523TIP3    H2 7513   5.931   7.414   1.921
 2524TIP3   OH2 7514   2.866   5.074   6.715
 2524TIP3    H1 7515   2.865   5.135   6.790
 2524TIP3    H2 7516   2.929   5.112   6.654
 2525TIP3   OH2 7517   7.625   2.409   6.498
 2525TIP3    H1 7518   7.646   2.493   6.457
 2525TIP3    H2 7519   7.695   2.396   6.562
 2526TIP3   OH2 7520   6.869   7.255   2.038
 2526TIP3    H1 7521   6.844   7.345   2.057
 2526TIP3    H2 7522   6.929   7.231   2.108
 2527TIP3   OH2 7523   3.834   2.795   6.506
 2527TIP3    H1 7524   3.883   2.730   6.557
 2527TIP3    H2 7525   3.886   2.875   6.513
 2528TIP3   OH2 7526   2.617   4.081   4.494
 2528TIP3    H1 7527   2.588   3.992   4.473
 2528TIP3    H2 7528   2.541   4.122   4.536
 2529TIP3   OH2 7529   4.438   4.602   2.703
 2529TIP3    H1 7530   4.484   4.649   2.772
 2529TIP3    H2 7531   4.442   4.661   2.628
 2530TIP3   OH2 7532   1.064   4.009   0.465
 2530TIP3    H1 7533   1.126   3.999   0.537
 2530TIP3    H2 7534   1.116   4.049   0.395
 2531TIP3   OH2 7535   3.907   2.312   0.581
 2531TIP3    H1 7536   3.862   2.337   0.662
 2531TIP3    H2 7537   3.913   2.217   0.585
 2532TIP3   OH2 7538   3.614   5.620   4.192
 2532TIP3    H1 7539   3.544   5.685   4.202
 2532TIP3    H2 7540   3.692   5.672   4.174
 2533TIP3   OH2 7541   0.539   4.935   0.976
 2533TIP3    H1 7542   0.472   4.929   1.044
 2533TIP3    H2 7543   0.573   5.025   0.984
 2534TIP3   OH2 7544   7.673   2.958   1.334
 2534TIP3    H1 7545   7.753   2.965   1.282
 2534TIP3    H2 7546   7.634   3.045   1.330
 2535TIP3   OH2 7547   5.867   6.893   2.096
 2535TIP3    H1 7548   5.823   6.822   2.141
 2535TIP3    H2 7549   5.888   6.858   2.009
 2536TIP3   OH2 7550   4.481   0.155   6.692
 2536TIP3    H1 7551   4.499   0.133   6.783
 2536TIP3    H2 7552   4.488   0.072   6.645
 2537TIP3   OH2 7553   6.553   4.090   0.060
 2537TIP3    H1 7554   6.468   4.056   0.088
 2537TIP3    H2 7555   6.540   4.116  -0.031
 2538TIP3   OH2 7556   4.310   0.981   6.540
 2538TIP3    H1 7557   4.386   0.925   6.524
 2538TIP3    H2 7558   4.297   1.028   6.458
 2539TIP3   OH2 7559   7.496   1.295   1.728
 2539TIP3    H1 7560   7.507   1.230   1.659
 2539TIP3    H2 7561   7.585   1.321   1.751
 2540TIP3   OH2 7562   1.482   5.501   3.377
 2540TIP3    H1 7563   1.463   5.591   3.405
 2540TIP3    H2 7564   1.494   5.508   3.282
 2541TIP3   OH2 7565   0.330   6.773   5.241
 2541TIP3    H1 7566   0.279   6.847   5.208
 2541TIP3    H2 7567   0.309   6.700   5.183
 2542TIP3   OH2 7568   0.846   2.344   2.317
 2542TIP3    H1 7569   0.773   2.400   2.291
 2542TIP3    H2 7570   0.836   2.265   2.263
 2543TIP3   OH2 7571   5.708   1.643   5.891
 2543TIP3    H1 7572   5.646   1.571   5.897
 2543TIP3    H2 7573   5.655   1.722   5.903
 2544TIP3   OH2 7574   2.278   1.333   3.167
 2544TIP3    H1 7575   2.303   1.240   3.172
 2544TIP3    H2 7576   2.356   1.380   3.196
 2545TIP3   OH2 7577   3.077   2.863   3.844
 2545TIP3    H1 7578   3.159   2.844   3.890
 2545TIP3    H2 7579   3.103   2.914   3.767
 2546TIP3   OH2 7580   6.930   2.064   6.117
 2546TIP3    H1 7581   6.894   1.978   6.096
 2546TIP3    H2 7582   7.024   2.053   6.107
 2547TIP3   OH2 7583   6.042   4.370   2.166
 2547TIP3    H1 7584   6.014   4.459   2.187
 2547TIP3    H2 7585   5.962   4.324   2.140
 2548TIP3   OH2 7586   1.149   4.545   5.024
 2548TIP3    H1 7587   1.194   4.597   5.091
 2548TIP3    H2 7588   1.217   4.528   4.958
 2549TIP3   OH2 7589   4.421   4.436   1.397
 2549TIP3    H1 7590   4.356   4.374   1.430
 2549TIP3    H2 7591   4.386   4.522   1.422
 2550TIP3   OH2 7592   3.425   3.598   5.853
 2550TIP3    H1 7593   3.359   3.639   5.909
 2550TIP3    H2 7594   3.435   3.658   5.779
 2551TIP3   OH2 7595   7.971   5.616   4.778
 2551TIP3    H1 7596   7.880   5.640   4.762
 2551TIP3    H2 7597   7.989   5.548   4.713
 2552TIP3   OH2 7598   4.032   6.750   0.432
 2552TIP3    H1 7599   4.064   6.665   0.464
 2552TIP3    H2 7600   3.983   6.786   0.506
 2553TIP3   OH2 7601   5.376   6.135   4.322
 2553TIP3    H1 7602   5.380   6.102   4.233
 2553TIP3    H2 7603   5.385   6.057   4.377
 2554TIP3   OH2 7604   1.554   5.621   5.768
 2554TIP3    H1 7605   1.549   5.534   5.728
 2554TIP3    H2 7606   1.644   5.650   5.752
 2555TIP3   OH2 7607   5.021   1.716   6.347
 2555TIP3    H1 7608   4.974   1.647   6.394
 2555TIP3    H2 7609   5.110   1.711   6.381
 2556TIP3   OH2 7610   3.482   7.264   4.037
 2556TIP3    H1 7611   3.442   7.177   4.042
 2556TIP3    H2 7612   3.563   7.256   4.088
 2557TIP3   OH2 7613   5.655   6.671   3.930
 2557TIP3    H1 7614   5.738   6.624   3.918
 2557TIP3    H2 7615   5.615   6.629   4.006
 2558TIP3   OH2 7616   2.423   4.046   0.897
 2558TIP3    H1 7617   2.449   4.111   0.962
 2558TIP3    H2 7618   2.372   4.094   0.832
 2559TIP3   OH2 7619   1.738   3.230   0.604
 2559TIP3    H1 7620   1.730   3.163   0.672
 2559TIP3    H2 7621   1.679   3.300   0.632
 2560TIP3   OH2 7622   6.528   1.768   2.255
 2560TIP3    H1 7623   6.451   1.822   2.236
 2560TIP3    H2 7624   6.516   1.688   2.204
 2561TIP3   OH2 7625   7.989   4.647   3.006
 2561TIP3    H1 7626   7.981   4.735   3.042
 2561TIP3    H2 7627   8.068   4.650   2.952
 2562TIP3   OH2 7628   2.996   7.744   1.629
 2562TIP3    H1 7629   3.034   7.799   1.696
 2562TIP3    H2 7630   3.051   7.758   1.552
 2563TIP3   OH2 7631   3.526   3.941   4.556
 2563TIP3    H1 7632   3.593   3.976   4.616
 2563TIP3    H2 7633   3.448   3.992   4.576
 2564TIP3   OH2 7634   5.693   5.171   2.830
 2564TIP3    H1 7635   5.737   5.153   2.912
 2564TIP3    H2 7636   5.682   5.267   2.829
 2565TIP3   OH2 7637   0.363   0.430   3.820
 2565TIP3    H1 7638   0.303   0.356   3.816
 2565TIP3    H2 7639   0.446   0.396   3.788
 2566TIP3   OH2 7640   6.609   1.742   2.511
 2566TIP3    H1 7641   6.701   1.758   2.530
 2566TIP3    H2 7642   6.602   1.751   2.416
 2567TIP3   OH2 7643   4.183   0.146   1.834
 2567TIP3    H1 7644   4.098   0.111   1.809
 2567TIP3    H2 7645   4.163   0.219   1.892
 2568TIP3   OH2 7646   0.518   2.052   3.802
 2568TIP3    H1 7647   0.472   2.098   3.732
 2568TIP3    H2 7648   0.579   2.118   3.836
 2569TIP3   OH2 7649   6.251   2.304   0.147
 2569TIP3    H1 7650   6.168   2.350   0.131
 2569TIP3    H2 7651   6.229   2.211   0.141
 2570TIP3   OH2 7652   0.413   4.188   3.674
 2570TIP3    H1 7653   0.369   4.184   3.590
 2570TIP3    H2 7654   0.488   4.246   3.660
 2571TIP3   OH2 7655   6.321   1.836   3.247
 2571TIP3    H1 7656   6.384   1.904   3.222
 2571TIP3    H2 7657   6.269   1.876   3.317
 2572TIP3   OH2 7658   4.048   5.435   4.971
 2572TIP3    H1 7659   4.100   5.406   5.046
 2572TIP3    H2 7660   4.086   5.520   4.948
 2573TIP3   OH2 7661   3.091   5.440   0.491
 2573TIP3    H1 7662   3.154   5.401   0.430
 2573TIP3    H2 7663   3.060   5.367   0.543
 2574TIP3   OH2 7664   4.290   0.686   6.084
 2574TIP3    H1 7665   4.231   0.630   6.134
 2574TIP3    H2 7666   4.377   0.649   6.099
 2575TIP3   OH2 7667   3.575   3.224   0.950
 2575TIP3    H1 7668   3.565   3.198   1.042
 2575TIP3    H2 7669   3.546   3.147   0.901
 2576TIP3   OH2 7670   3.941   4.855   5.110
 2576TIP3    H1 7671   3.996   4.855   5.031
 2576TIP3    H2 7672   3.861   4.809   5.083
 2577TIP3   OH2 7673   5.379   7.527   4.631
 2577TIP3    H1 7674   5.333   7.611   4.622
 2577TIP3    H2 7675   5.385   7.513   4.725
 2578TIP3   OH2 7676   2.527   7.200   5.128
 2578TIP3    H1 7677   2.618   7.190   5.155
 2578TIP3    H2 7678   2.488   7.114   5.143
 2579TIP3   OH2 7679   2.679   2.965   3.545
 2579TIP3    H1 7680   2.705   2.953   3.454
 2579TIP3    H2 7681   2.584   2.976   3.543
 2580TIP3   OH2 7682   4.819   0.815   3.918
 2580TIP3    H1 7683   4.868   0.837   3.998
 2580TIP3    H2 7684   4.739   0.866   3.924
 2581TIP3   OH2 7685   1.416   0.593   2.282
 2581TIP3    H1 7686   1.433   0.615   2.191
 2581TIP3    H2 7687   1.502   0.586   2.322
 2582TIP3   OH2 7688   7.627   5.007   0.006
 2582TIP3    H1 7689   7.672   5.023  -0.077
 2582TIP3    H2 7690   7.666   4.927   0.040
 2583TIP3   OH2 7691   2.378   6.151   0.204
 2583TIP3    H1 7692   2.442   6.219   0.225
 2583TIP3    H2 7693   2.298   6.199   0.183
 2584TIP3   OH2 7694   3.371   3.153   3.408
 2584TIP3    H1 7695   3.404   3.088   3.346
 2584TIP3    H2 7696   3.419   3.135   3.489
 2585TIP3   OH2 7697   7.955   5.439   2.306
 2585TIP3    H1 7698   8.010   5.471   2.235
 2585TIP3    H2 7699   7.954   5.344   2.296
 2586TIP3   OH2 7700   4.433   2.246  -0.005
 2586TIP3    H1 7701   4.349   2.240   0.039
 2586TIP3    H2 7702   4.480   2.314   0.043
 2587TIP3   OH2 7703   2.193   5.766   2.384
 2587TIP3    H1 7704   2.272   5.767   2.438
 2587TIP3    H2 7705   2.222   5.802   2.300
 2588TIP3   OH2 7706   0.861   4.057   5.100
 2588TIP3    H1 7707   0.791   4.105   5.056
 2588TIP3    H2 7708   0.942   4.097   5.066
 2589TIP3   OH2 7709   2.442   2.901   3.097
 2589TIP3    H1 7710   2.376   2.867   3.157
 2589TIP3    H2 7711   2.410   2.877   3.010
 2590TIP3   OH2 7712   5.926   4.598   6.515
 2590TIP3    H1 7713   5.842   4.623   6.551
 2590TIP3    H2 7714   5.977   4.568   6.590
 2591TIP3   OH2 7715   3.804   2.964   5.258
 2591TIP3    H1 7716   3.711   2.941   5.261
 2591TIP3    H2 7717   3.850   2.881   5.270
 2592TIP3   OH2 7718   6.409   3.312   1.252
 2592TIP3    H1 7719   6.342   3.307   1.320
 2592TIP3    H2 7720   6.490   3.289   1.296
 2593TIP3   OH2 7721   2.164   6.658   2.890
 2593TIP3    H1 7722   2.212   6.576   2.877
 2593TIP3    H2 7723   2.217   6.724   2.845
 2594TIP3   OH2 7724   0.918   4.701   1.277
 2594TIP3    H1 7725   0.918   4.794   1.254
 2594TIP3    H2 7726   0.873   4.658   1.204
 2595TIP3   OH2 7727   8.156   6.800   3.093
 2595TIP3    H1 7728   8.164   6.759   3.007
 2595TIP3    H2 7729   8.127   6.730   3.151
 2596TIP3   OH2 7730   0.995   5.445   5.335
 2596TIP3    H1 7731   0.960   5.369   5.382
 2596TIP3    H2 7732   1.072   5.411   5.289
 2597TIP3   OH2 7733   4.255   3.425   4.832
 2597TIP3    H1 7734   4.307   3.350   4.861
 2597TIP3    H2 7735   4.313   3.500   4.843
 2598TIP3   OH2 7736   3.738   6.354   1.134
 2598TIP3    H1 7737   3.810   6.295   1.155
 2598TIP3    H2 7738   3.777   6.422   1.079
 2599TIP3   OH2 7739   5.048   5.792   0.282
 2599TIP3    H1 7740   5.064   5.881   0.250
 2599TIP3    H2 7741   5.134   5.751   0.283
 2600TIP3   OH2 7742   6.658   2.294   1.477
 2600TIP3    H1 7743   6.665   2.266   1.386
 2600TIP3    H2 7744   6.675   2.388   1.474
 2601TIP3   OH2 7745   4.064   4.709   1.153
 2601TIP3    H1 7746   4.025   4.678   1.235
 2601TIP3    H2 7747   4.123   4.638   1.127
 2602TIP3   OH2 7748   7.094   2.074   1.474
 2602TIP3    H1 7749   7.059   2.135   1.539
 2602TIP3    H2 7750   7.038   1.996   1.481
 2603TIP3   OH2 7751   0.858   2.464   4.599
 2603TIP3    H1 7752   0.783   2.406   4.611
 2603TIP3    H2 7753   0.822   2.542   4.557
 2604TIP3   OH2 7754   5.349   2.021   6.335
 2604TIP3    H1 7755   5.276   2.017   6.273
 2604TIP3    H2 7756   5.310   1.999   6.419
 2605TIP3   OH2 7757   1.154   6.268   3.710
 2605TIP3    H1 7758   1.061   6.246   3.701
 2605TIP3    H2 7759   1.189   6.198   3.764
 2606TIP3   OH2 7760   4.644   5.426   5.202
 2606TIP3    H1 7761   4.688   5.502   5.240
 2606TIP3    H2 7762   4.634   5.449   5.110
 2607TIP3   OH2 7763   6.432   1.426   6.413
 2607TIP3    H1 7764   6.409   1.485   6.341
 2607TIP3    H2 7765   6.376   1.455   6.486
 2608TIP3   OH2 7766   1.141   3.464   3.463
 2608TIP3    H1 7767   1.067   3.462   3.524
 2608TIP3    H2 7768   1.205   3.405   3.503
 2609TIP3   OH2 7769   6.352   4.375   6.066
 2609TIP3    H1 7770   6.349   4.466   6.096
 2609TIP3    H2 7771   6.282   4.369   6.002
 2610TIP3   OH2 7772   4.502   4.862   3.642
 2610TIP3    H1 7773   4.451   4.941   3.660
 2610TIP3    H2 7774   4.476   4.801   3.712
 2611TIP3   OH2 7775   4.511   4.769   1.320
 2611TIP3    H1 7776   4.474   4.742   1.236
 2611TIP3    H2 7777   4.451   4.735   1.386
 2612TIP3   OH2 7778   5.426   3.986   4.368
 2612TIP3    H1 7779   5.443   4.041   4.292
 2612TIP3    H2 7780   5.490   4.015   4.433
 2613TIP3   OH2 7781   0.691   5.353   2.446
 2613TIP3    H1 7782   0.775   5.308   2.457
 2613TIP3    H2 7783   0.714   5.440   2.415
 2614TIP3   OH2 7784   1.766   2.346   2.291
 2614TIP3    H1 7785   1.689   2.303   2.329
 2614TIP3    H2 7786   1.750   2.439   2.305
 2615TIP3   OH2 7787   0.282   1.308   2.258
 2615TIP3    H1 7788   0.276   1.367   2.333
 2615TIP3    H2 7789   0.376   1.288   2.251
 2616TIP3   OH2 7790   8.181   2.320   4.035
 2616TIP3    H1 7791   8.267   2.337   3.995
 2616TIP3    H2 7792   8.120   2.369   3.980
 2617TIP3   OH2 7793   0.274   6.950   0.620
 2617TIP3    H1 7794   0.250   6.936   0.712
 2617TIP3    H2 7795   0.193   6.977   0.578
 2618TIP3   OH2 7796   7.686   2.996   4.576
 2618TIP3    H1 7797   7.745   2.967   4.507
 2618TIP3    H2 7798   7.616   2.931   4.577
 2619TIP3   OH2 7799   7.640   0.883   1.458
 2619TIP3    H1 7800   7.724   0.888   1.413
 2619TIP3    H2 7801   7.603   0.798   1.432
 2620TIP3   OH2 7802   7.833   3.957   5.940
 2620TIP3    H1 7803   7.746   3.989   5.965
 2620TIP3    H2 7804   7.837   3.970   5.845
 2621TIP3   OH2 7805   5.478   0.817   1.926
 2621TIP3    H1 7806   5.447   0.894   1.972
 2621TIP3    H2 7807   5.410   0.751   1.941
 2622TIP3   OH2 7808   6.096   3.665   4.215
 2622TIP3    H1 7809   6.078   3.584   4.168
 2622TIP3    H2 7810   6.010   3.703   4.231
 2623TIP3   OH2 7811   2.478   7.123   0.368
 2623TIP3    H1 7812   2.501   7.031   0.358
 2623TIP3    H2 7813   2.484   7.159   0.279
 2624TIP3   OH2 7814   6.740   4.644   1.422
 2624TIP3    H1 7815   6.789   4.710   1.471
 2624TIP3    H2 7816   6.679   4.608   1.486
 2625TIP3   OH2 7817   2.262   4.222   2.573
 2625TIP3    H1 7818   2.270   4.288   2.643
 2625TIP3    H2 7819   2.174   4.234   2.539
 2626TIP3   OH2 7820   1.771   4.956   0.457
 2626TIP3    H1 7821   1.721   4.949   0.376
 2626TIP3    H2 7822   1.859   4.979   0.429
 2627TIP3   OH2 7823   5.465   4.081   1.220
 2627TIP3    H1 7824   5.497   4.171   1.219
 2627TIP3    H2 7825   5.413   4.074   1.140
 2628TIP3   OH2 7826   2.372   0.615   3.122
 2628TIP3    H1 7827   2.355   0.709   3.117
 2628TIP3    H2 7828   2.412   0.593   3.038
 2629TIP3   OH2 7829   2.560   6.653   0.916
 2629TIP3    H1 7830   2.577   6.694   0.831
 2629TIP3    H2 7831   2.511   6.574   0.895
 2630TIP3   OH2 7832   7.739   0.124   3.003
 2630TIP3    H1 7833   7.725   0.053   3.066
 2630TIP3    H2 7834   7.651   0.157   2.984
 2631TIP3   OH2 7835   4.091   5.416   1.775
 2631TIP3    H1 7836   3.995   5.420   1.778
 2631TIP3    H2 7837   4.113   5.461   1.693
 2632TIP3   OH2 7838   2.257   6.719   5.745
 2632TIP3    H1 7839   2.262   6.637   5.794
 2632TIP3    H2 7840   2.177   6.711   5.693
 2633TIP3   OH2 7841   2.252   0.598   1.424
 2633TIP3    H1 7842   2.290   0.510   1.423
 2633TIP3    H2 7843   2.319   0.652   1.466
 2634TIP3   OH2 7844   0.763   3.817   3.497
 2634TIP3    H1 7845   0.828   3.768   3.446
 2634TIP3    H2 7846   0.727   3.752   3.558
 2635TIP3   OH2 7847   0.467   5.109   6.180
 2635TIP3    H1 7848   0.550   5.121   6.133
 2635TIP3    H2 7849   0.405   5.166   6.134
 2636TIP3   OH2 7850   3.136   5.813   6.020
 2636TIP3    H1 7851   3.117   5.723   5.994
 2636TIP3    H2 7852   3.229   5.825   6.000
 2637TIP3   OH2 7853   4.821   5.826   1.539
 2637TIP3    H1 7854   4.744   5.789   1.496
 2637TIP3    H2 7855   4.813   5.797   1.630
 2638TIP3   OH2 7856   4.522   2.740   0.643
 2638TIP3    H1 7857   4.456   2.808   0.631
 2638TIP3    H2 7858   4.499   2.673   0.577
 2639TIP3   OH2 7859   1.392   7.468   4.838
 2639TIP3    H1 7860   1.323   7.416   4.880
 2639TIP3    H2 7861   1.390   7.439   4.747
 2640TIP3   OH2 7862   7.530   7.395   2.260
 2640TIP3    H1 7863   7.467   7.349   2.316
 2640TIP3    H2 7864   7.481   7.468   2.222
 2641TIP3   OH2 7865   1.078   1.174   1.240
 2641TIP3    H1 7866   0.985   1.152   1.245
 2641TIP3    H2 7867   1.110   1.167   1.330
 2642TIP3   OH2 7868   7.353   2.857   0.874
 2642TIP3    H1 7869   7.422   2.922   0.858
 2642TIP3    H2 7870   7.355   2.801   0.796
 2643TIP3   OH2 7871   0.455   0.514   5.561
 2643TIP3    H1 7872   0.424   0.429   5.527
 2643TIP3    H2 7873   0.454   0.503   5.656
 2644TIP3   OH2 7874   7.775   2.227   4.878
 2644TIP3    H1 7875   7.687   2.227   4.916
 2644TIP3    H2 7876   7.761   2.224   4.784
 2645TIP3   OH2 7877   3.145   2.269   4.395
 2645TIP3    H1 7878   3.219   2.253   4.336
 2645TIP3    H2 7879   3.131   2.186   4.439
 2646TIP3   OH2 7880   6.947   0.754   5.168
 2646TIP3    H1 7881   6.875   0.693   5.189
 2646TIP3    H2 7882   7.021   0.720   5.217
 2647TIP3   OH2 7883   3.843   3.838   6.729
 2647TIP3    H1 7884   3.766   3.810   6.778
 2647TIP3    H2 7885   3.904   3.764   6.734
 2648TIP3   OH2 7886   2.197   5.604   5.498
 2648TIP3    H1 7887   2.257   5.542   5.458
 2648TIP3    H2 7888   2.195   5.679   5.438
 2649TIP3   OH2 7889   7.864   4.682   1.120
 2649TIP3    H1 7890   7.856   4.586   1.112
 2649TIP3    H2 7891   7.955   4.696   1.147
 2650TIP3   OH2 7892   2.319   6.356   0.414
 2650TIP3    H1 7893   2.345   6.439   0.374
 2650TIP3    H2 7894   2.307   6.377   0.506
 2651TIP3   OH2 7895   3.935   3.733   5.525
 2651TIP3    H1 7896   3.939   3.798   5.455
 2651TIP3    H2 7897   3.881   3.663   5.490
 2652TIP3   OH2 7898   2.261   2.366   6.515
 2652TIP3    H1 7899   2.305   2.444   6.548
 2652TIP3    H2 7900   2.170   2.393   6.504
 2653TIP3   OH2 7901   4.514   7.751   3.389
 2653TIP3    H1 7902   4.469   7.718   3.311
 2653TIP3    H2 7903   4.605   7.762   3.362
 2654TIP3   OH2 7904   7.070   4.830   4.913
 2654TIP3    H1 7905   7.147   4.782   4.880
 2654TIP3    H2 7906   7.107   4.893   4.974
 2655TIP3   OH2 7907   0.202   3.113   6.601
 2655TIP3    H1 7908   0.262   3.140   6.532
 2655TIP3    H2 7909   0.226   3.023   6.621
 2656TIP3   OH2 7910   6.156   0.053   2.683
 2656TIP3    H1 7911   6.196   0.132   2.647
 2656TIP3    H2 7912   6.230  -0.001   2.711
 2657TIP3   OH2 7913   4.922   2.392   6.579
 2657TIP3    H1 7914   4.967   2.340   6.645
 2657TIP3    H2 7915   4.830   2.391   6.605
 2658TIP3   OH2 7916   0.775   2.426   0.652
 2658TIP3    H1 7917   0.826   2.382   0.584
 2658TIP3    H2 7918   0.783   2.519   0.631
 2659TIP3   OH2 7919   3.115   2.730   5.668
 2659TIP3    H1 7920   3.145   2.686   5.589
 2659TIP3    H2 7921   3.161   2.814   5.668
 2660TIP3   OH2 7922   4.064   6.128   3.288
 2660TIP3    H1 7923   4.114   6.076   3.351
 2660TIP3    H2 7924   4.122   6.201   3.265
 2661TIP3   OH2 7925   1.313   5.586   1.751
 2661TIP3    H1 7926   1.236   5.611   1.801
 2661TIP3    H2 7927   1.303   5.492   1.737
 2662TIP3   OH2 7928   6.702   0.103   1.768
 2662TIP3    H1 7929   6.656   0.038   1.715
 2662TIP3    H2 7930   6.632   0.156   1.807
 2663TIP3   OH2 7931   5.495   0.754   4.931
 2663TIP3    H1 7932   5.566   0.783   4.988
 2663TIP3    H2 7933   5.422   0.812   4.953
 2664TIP3   OH2 7934   5.101   1.107   5.264
 2664TIP3    H1 7935   5.023   1.069   5.224
 2664TIP3    H2 7936   5.160   1.123   5.191
 2665TIP3   OH2 7937   7.845   6.164   1.593
 2665TIP3    H1 7938   7.820   6.142   1.683
 2665TIP3    H2 7939   7.851   6.259   1.593
 2666TIP3   OH2 7940   7.447   0.574   1.601
 2666TIP3    H1 7941   7.423   0.658   1.640
 2666TIP3    H2 7942   7.485   0.524   1.673
 2667TIP3   OH2 7943   4.683   5.327   6.297
 2667TIP3    H1 7944   4.623   5.401   6.307
 2667TIP3    H2 7945   4.692   5.316   6.203
 2668TIP3   OH2 7946   5.248   0.623   1.219
 2668TIP3    H1 7947   5.284   0.699   1.173
 2668TIP3    H2 7948   5.275   0.548   1.165
 2669TIP3   OH2 7949   7.694   3.875   5.473
 2669TIP3    H1 7950   7.712   3.934   5.400
 2669TIP3    H2 7951   7.621   3.821   5.443
 2670TIP3   OH2 7952   2.537   7.285   2.242
 2670TIP3    H1 7953   2.602   7.275   2.173
 2670TIP3    H2 7954   2.515   7.195   2.267
 2671TIP3   OH2 7955   6.686   0.014   2.360
 2671TIP3    H1 7956   6.633   0.061   2.295
 2671TIP3    H2 7957   6.695  -0.074   2.322
 2672TIP3   OH2 7958   1.984   4.261   4.067
 2672TIP3    H1 7959   1.934   4.190   4.026
 2672TIP3    H2 7960   1.964   4.338   4.013
 2673TIP3   OH2 7961   8.052   0.622   3.947
 2673TIP3    H1 7962   8.140   0.656   3.961
 2673TIP3    H2 7963   8.038   0.628   3.852
 2674TIP3   OH2 7964   4.114   4.968   1.062
 2674TIP3    H1 7965   4.044   5.023   1.097
 2674TIP3    H2 7966   4.091   4.880   1.091
 2675TIP3   OH2 7967  -0.053   5.705   2.191
 2675TIP3    H1 7968  -0.032   5.612   2.186
 2675TIP3    H2 7969   0.026   5.749   2.160
 2676TIP3   OH2 7970   8.055   2.966   4.631
 2676TIP3    H1 7971   8.008   3.010   4.702
 2676TIP3    H2 7972   8.147   2.989   4.646
 2677TIP3   OH2 7973   3.295   2.035   3.001
 2677TIP3    H1 7974   3.326   2.013   2.913
 2677TIP3    H2 7975   3.372   2.072   3.044
 2678TIP3   OH2 7976   4.070   1.447   0.180
 2678TIP3    H1 7977   4.134   1.403   0.124
 2678TIP3    H2 7978   4.118   1.522   0.216
 2679TIP3   OH2 7979   6.213   0.534   5.310
 2679TIP3    H1 7980   6.129   0.493   5.288
 2679TIP3    H2 7981   6.199   0.571   5.397
 2680TIP3   OH2 7982   4.483   7.031   4.760
 2680TIP3    H1 7983   4.504   7.086   4.684
 2680TIP3    H2 7984   4.558   6.973   4.768
 2681TIP3   OH2 7985   7.061   5.489   6.240
 2681TIP3    H1 7986   7.092   5.460   6.325
 2681TIP3    H2 7987   7.130   5.548   6.208
 2682TIP3   OH2 7988   1.757   3.501   3.884
 2682TIP3    H1 7989   1.844   3.462   3.891
 2682TIP3    H2 7990   1.732   3.486   3.793
 2683TIP3   OH2 7991   1.991   2.659   3.887
 2683TIP3    H1 7992   1.978   2.618   3.801
 2683TIP3    H2 7993   1.902   2.685   3.914
 2684TIP3   OH2 7994   0.108   2.625   1.750
 2684TIP3    H1 7995   0.143   2.540   1.725
 2684TIP3    H2 7996   0.022   2.629   1.708
 2685TIP3   OH2 7997   7.819   3.515   0.733
 2685TIP3    H1 7998   7.879   3.553   0.669
 2685TIP3    H2 7999   7.819   3.577   0.806
 2686TIP3   OH2 8000   3.798   1.755   0.951
 2686TIP3    H1 8001   3.756   1.786   0.871
 2686TIP3    H2 8002   3.785   1.826   1.014
 2687TIP3   OH2 8003   5.132   0.798   5.775
 2687TIP3    H1 8004   5.159   0.708   5.792
 2687TIP3    H2 8005   5.107   0.798   5.682
 2688TIP3   OH2 8006   3.668   6.495   3.240
 2688TIP3    H1 8007   3.661   6.482   3.145
 2688TIP3    H2 8008   3.750   6.452   3.264
 2689TIP3   OH2 8009   4.763   3.027   0.980
 2689TIP3    H1 8010   4.790   3.117   0.966
 2689TIP3    H2 8011   4.837   2.985   1.023
 2690TIP3   OH2 8012   1.430  -0.060   2.744
 2690TIP3    H1 8013   1.452  -0.007   2.668
 2690TIP3    H2 8014   1.344  -0.030   2.771
 2691TIP3   OH2 8015   2.193   7.590   1.584
 2691TIP3    H1 8016   2.145   7.563   1.662
 2691TIP3    H2 8017   2.196   7.685   1.589
 2692TIP3   OH2 8018   5.234   5.805   2.907
 2692TIP3    H1 8019   5.200   5.890   2.880
 2692TIP3    H2 8020   5.163   5.766   2.959
 2693TIP3   OH2 8021   1.509   5.418   5.594
 2693TIP3    H1 8022   1.563   5.340   5.597
 2693TIP3    H2 8023   1.421   5.387   5.614
 2694TIP3   OH2 8024   3.147   0.194   1.868
 2694TIP3    H1 8025   3.087   0.261   1.901
 2694TIP3    H2 8026   3.121   0.181   1.777
 2695TIP3   OH2 8027   6.962   4.672   3.467
 2695TIP3    H1 8028   6.992   4.763   3.461
 2695TIP3    H2 8029   6.996   4.631   3.388
 2696TIP3   OH2 8030   1.812   6.430   3.964
 2696TIP3    H1 8031   1.762   6.355   3.997
 2696TIP3    H2 8032   1.882   6.442   4.029
 2697TIP3   OH2 8033   7.644   3.844   3.017
 2697TIP3    H1 8034   7.647   3.822   2.924
 2697TIP3    H2 8035   7.727   3.811   3.052
 2698TIP3   OH2 8036   7.208   7.657   3.245
 2698TIP3    H1 8037   7.238   7.597   3.313
 2698TIP3    H2 8038   7.163   7.600   3.182
 2699TIP3   OH2 8039   7.641   4.069   0.221
 2699TIP3    H1 8040   7.678   4.036   0.303
 2699TIP3    H2 8041   7.713   4.065   0.159
 2700TIP3   OH2 8042   2.849   2.367   4.703
 2700TIP3    H1 8043   2.873   2.377   4.611
 2700TIP3    H2 8044   2.877   2.450   4.743
 2701TIP3   OH2 8045   4.359   0.471   2.843
 2701TIP3    H1 8046   4.426   0.410   2.813
 2701TIP3    H2 8047   4.338   0.443   2.932
 2702TIP3   OH2 8048   0.370   5.108   4.803
 2702TIP3    H1 8049   0.335   5.021   4.782
 2702TIP3    H2 8050   0.386   5.105   4.897
 2703TIP3   OH2 8051   8.134   3.425   5.392
 2703TIP3    H1 8052   8.193   3.480   5.444
 2703TIP3    H2 8053   8.191   3.359   5.353
 2704TIP3   OH2 8054   2.123   3.088   5.931
 2704TIP3    H1 8055   2.033   3.082   5.900
 2704TIP3    H2 8056   2.116   3.084   6.026
 2705TIP3   OH2 8057   8.073   4.265   5.629
 2705TIP3    H1 8058   8.004   4.276   5.565
 2705TIP3    H2 8059   8.047   4.321   5.703
 2706TIP3   OH2 8060   0.522   1.513   3.794
 2706TIP3    H1 8061   0.509   1.419   3.807
 2706TIP3    H2 8062   0.462   1.554   3.856
 2707TIP3   OH2 8063   7.332   6.259   0.933
 2707TIP3    H1 8064   7.274   6.281   0.861
 2707TIP3    H2 8065   7.396   6.330   0.935
 2708TIP3   OH2 8066   4.892   1.920   2.355
 2708TIP3    H1 8067   4.923   1.859   2.421
 2708TIP3    H2 8068   4.952   1.908   2.281
 2709TIP3   OH2 8069   3.482   2.441   1.319
 2709TIP3    H1 8070   3.472   2.367   1.378
 2709TIP3    H2 8071   3.434   2.512   1.362
 2710TIP3   OH2 8072   1.208   6.815   6.006
 2710TIP3    H1 8073   1.302   6.812   5.991
 2710TIP3    H2 8074   1.174   6.739   5.959
 2711TIP3   OH2 8075   6.379   4.640   5.442
 2711TIP3    H1 8076   6.426   4.645   5.359
 2711TIP3    H2 8077   6.303   4.698   5.430
 2712TIP3   OH2 8078   8.167   5.786   4.218
 2712TIP3    H1 8079   8.227   5.785   4.292
 2712TIP3    H2 8080   8.089   5.741   4.250
 2713TIP3   OH2 8081   2.417   6.164   1.212
 2713TIP3    H1 8082   2.349   6.142   1.148
 2713TIP3    H2 8083   2.376   6.146   1.297
 2714TIP3   OH2 8084   4.906   5.068   4.636
 2714TIP3    H1 8085   4.990   5.095   4.600
 2714TIP3    H2 8086   4.921   5.063   4.730
 2715TIP3   OH2 8087   5.358   6.838   3.983
 2715TIP3    H1 8088   5.359   6.743   3.988
 2715TIP3    H2 8089   5.405   6.866   4.062
 2716TIP3   OH2 8090   3.223   1.556   2.397
 2716TIP3    H1 8091   3.239   1.516   2.311
 2716TIP3    H2 8092   3.272   1.501   2.458
 2717TIP3   OH2 8093   0.875   2.199   1.196
 2717TIP3    H1 8094   0.900   2.290   1.177
 2717TIP3    H2 8095   0.942   2.146   1.153
 2718TIP3   OH2 8096   0.577   4.468   4.436
 2718TIP3    H1 8097   0.581   4.389   4.490
 2718TIP3    H2 8098   0.514   4.447   4.367
 2719TIP3   OH2 8099   4.584   6.363   6.767
 2719TIP3    H1 8100   4.516   6.296   6.763
 2719TIP3    H2 8101   4.591   6.397   6.678
 2720TIP3   OH2 8102   0.128   5.403   4.325
 2720TIP3    H1 8103   0.084   5.481   4.358
 2720TIP3    H2 8104   0.092   5.331   4.376
 2721TIP3   OH2 8105   1.769   0.475   3.170
 2721TIP3    H1 8106   1.766   0.415   3.245
 2721TIP3    H2 8107   1.706   0.439   3.108
 2722TIP3   OH2 8108   4.752   0.192   6.636
 2722TIP3    H1 8109   4.657   0.202   6.641
 2722TIP3    H2 8110   4.785   0.243   6.710
 2723TIP3   OH2 8111   0.018   3.356   6.677
 2723TIP3    H1 8112  -0.067   3.354   6.721
 2723TIP3    H2 8113   0.044   3.265   6.669
 2724TIP3   OH2 8114   3.148   6.504   0.008
 2724TIP3    H1 8115   3.127   6.416  -0.023
 2724TIP3    H2 8116   3.229   6.493   0.058
 2725TIP3   OH2 8117   1.274   5.344   5.694
 2725TIP3    H1 8118   1.238   5.357   5.782
 2725TIP3    H2 8119   1.230   5.266   5.661
 2726TIP3   OH2 8120   0.379   0.616   1.056
 2726TIP3    H1 8121   0.354   0.679   0.988
 2726TIP3    H2 8122   0.377   0.531   1.012
 2727TIP3   OH2 8123   7.820   0.444   4.584
 2727TIP3    H1 8124   7.735   0.425   4.624
 2727TIP3    H2 8125   7.859   0.511   4.641
 2728TIP3   OH2 8126   1.554   3.912   0.549
 2728TIP3    H1 8127   1.489   3.982   0.539
 2728TIP3    H2 8128   1.628   3.940   0.496
 2729TIP3   OH2 8129   6.548   3.925   1.395
 2729TIP3    H1 8130   6.526   3.941   1.303
 2729TIP3    H2 8131   6.637   3.957   1.404
 2730TIP3   OH2 8132   7.118   7.816   1.741
 2730TIP3    H1 8133   7.083   7.733   1.709
 2730TIP3    H2 8134   7.069   7.883   1.694
 2731TIP3   OH2 8135   7.284   7.430   4.449
 2731TIP3    H1 8136   7.249   7.506   4.402
 2731TIP3    H2 8137   7.343   7.467   4.514
 2732TIP3   OH2 8138   5.296   1.008   2.094
 2732TIP3    H1 8139   5.366   1.070   2.116
 2732TIP3    H2 8140   5.287   0.953   2.171
 2733TIP3   OH2 8141   0.542   3.036   2.466
 2733TIP3    H1 8142   0.625   2.993   2.446
 2733TIP3    H2 8143   0.503   3.055   2.380
 2734TIP3   OH2 8144   6.603   4.285   4.705
 2734TIP3    H1 8145   6.563   4.267   4.790
 2734TIP3    H2 8146   6.686   4.238   4.707
 2735TIP3   OH2 8147   1.346   0.510   5.658
 2735TIP3    H1 8148   1.351   0.493   5.564
 2735TIP3    H2 8149   1.416   0.457   5.696
 2736TIP3   OH2 8150   6.460   3.465   3.721
 2736TIP3    H1 8151   6.456   3.371   3.708
 2736TIP3    H2 8152   6.549   3.481   3.754
 2737TIP3   OH2 8153   8.224   1.082   3.031
 2737TIP3    H1 8154   8.225   1.032   2.950
 2737TIP3    H2 8155   8.313   1.075   3.065
 2738TIP3   OH2 8156   8.202   7.160   4.079
 2738TIP3    H1 8157   8.155   7.241   4.059
 2738TIP3    H2 8158   8.207   7.115   3.995
 2739TIP3   OH2 8159   1.932   6.765   5.580
 2739TIP3    H1 8160   1.854   6.758   5.526
 2739TIP3    H2 8161   1.989   6.825   5.532
 2740TIP3   OH2 8162   6.709   2.150   3.852
 2740TIP3    H1 8163   6.634   2.107   3.891
 2740TIP3    H2 8164   6.760   2.182   3.927
 2741TIP3   OH2 8165   1.365   7.354   5.953
 2741TIP3    H1 8166   1.458   7.336   5.936
 2741TIP3    H2 8167   1.351   7.325   6.043
 2742TIP3   OH2 8168   6.856   6.934   1.154
 2742TIP3    H1 8169   6.940   6.962   1.191
 2742TIP3    H2 8170   6.844   6.845   1.187
 2743TIP3   OH2 8171   6.067   3.125   5.274
 2743TIP3    H1 8172   6.015   3.047   5.255
 2743TIP3    H2 8173   6.074   3.170   5.190
 2744TIP3   OH2 8174   3.449   4.685   3.107
 2744TIP3    H1 8175   3.475   4.593   3.108
 2744TIP3    H2 8176   3.507   4.727   3.171
 2745TIP3   OH2 8177   2.742   1.248   6.376
 2745TIP3    H1 8178   2.748   1.180   6.309
 2745TIP3    H2 8179   2.824   1.298   6.366
 2746TIP3   OH2 8180   5.428   2.249   3.317
 2746TIP3    H1 8181   5.505   2.281   3.271
 2746TIP3    H2 8182   5.434   2.154   3.311
 2747TIP3   OH2 8183   6.492   4.134   3.396
 2747TIP3    H1 8184   6.568   4.176   3.354
 2747TIP3    H2 8185   6.529   4.087   3.470
 2748TIP3   OH2 8186   0.966   4.421   3.865
 2748TIP3    H1 8187   0.891   4.464   3.823
 2748TIP3    H2 8188   1.017   4.386   3.792
 2749TIP3   OH2 8189   1.911   2.027   4.350
 2749TIP3    H1 8190   1.901   2.101   4.290
 2749TIP3    H2 8191   1.985   2.050   4.405
 2750TIP3   OH2 8192   7.849   0.549   4.320
 2750TIP3    H1 8193   7.806   0.499   4.389
 2750TIP3    H2 8194   7.780   0.565   4.255
 2751TIP3   OH2 8195   5.310   6.086   1.042
 2751TIP3    H1 8196   5.399   6.064   1.014
 2751TIP3    H2 8197   5.322   6.138   1.122
 2752TIP3   OH2 8198   0.273   4.403   5.371
 2752TIP3    H1 8199   0.280   4.310   5.393
 2752TIP3    H2 8200   0.189   4.409   5.324
 2753TIP3   OH2 8201   5.562   1.582   2.540
 2753TIP3    H1 8202   5.615   1.508   2.510
 2753TIP3    H2 8203   5.494   1.591   2.472
 2754TIP3   OH2 8204   3.620   0.356   6.625
 2754TIP3    H1 8205   3.597   0.264   6.633
 2754TIP3    H2 8206   3.547   0.396   6.579
 2755TIP3   OH2 8207   6.267   3.670   3.213
 2755TIP3    H1 8208   6.303   3.642   3.129
 2755TIP3    H2 8209   6.230   3.757   3.196
 2756TIP3   OH2 8210   2.223   1.026   6.733
 2756TIP3    H1 8211   2.159   1.028   6.803
 2756TIP3    H2 8212   2.288   0.962   6.762
 2757TIP3   OH2 8213   5.375   7.291   6.741
 2757TIP3    H1 8214   5.359   7.267   6.649
 2757TIP3    H2 8215   5.468   7.311   6.745
 2758TIP3   OH2 8216   3.383   6.016   5.270
 2758TIP3    H1 8217   3.334   5.943   5.308
 2758TIP3    H2 8218   3.466   5.978   5.242
 2759TIP3   OH2 8219   2.832   7.457   4.643
 2759TIP3    H1 8220   2.868   7.471   4.555
 2759TIP3    H2 8221   2.789   7.539   4.665
 2760TIP3   OH2 8222   5.402   1.564   3.720
 2760TIP3    H1 8223   5.444   1.649   3.730
 2760TIP3    H2 8224   5.330   1.564   3.784
 2761TIP3   OH2 8225   6.680   5.336   2.025
 2761TIP3    H1 8226   6.760   5.298   2.063
 2761TIP3    H2 8227   6.632   5.260   1.992
 2762TIP3   OH2 8228   3.374   6.778   1.088
 2762TIP3    H1 8229   3.405   6.798   1.177
 2762TIP3    H2 8230   3.448   6.801   1.032
 2763TIP3   OH2 8231   1.752   7.120   2.043
 2763TIP3    H1 8232   1.838   7.098   2.080
 2763TIP3    H2 8233   1.713   7.035   2.023
 2764TIP3   OH2 8234   3.738   0.459   2.954
 2764TIP3    H1 8235   3.676   0.532   2.952
 2764TIP3    H2 8236   3.803   0.485   3.019
 2765TIP3   OH2 8237   6.154   4.794   4.588
 2765TIP3    H1 8238   6.208   4.849   4.645
 2765TIP3    H2 8239   6.203   4.713   4.579
 2766TIP3   OH2 8240   6.037   3.766   3.889
 2766TIP3    H1 8241   5.947   3.737   3.878
 2766TIP3    H2 8242   6.032   3.861   3.884
 2767TIP3   OH2 8243   2.213   6.251   5.493
 2767TIP3    H1 8244   2.309   6.253   5.490
 2767TIP3    H2 8245   2.190   6.292   5.576
 2768TIP3   OH2 8246   4.352   6.575   2.365
 2768TIP3    H1 8247   4.341   6.533   2.280
 2768TIP3    H2 8248   4.328   6.667   2.350
 2769TIP3   OH2 8249   4.969   0.482   5.561
 2769TIP3    H1 8250   4.983   0.574   5.584
 2769TIP3    H2 8251   4.964   0.482   5.465
 2770TIP3   OH2 8252   1.753   4.764   5.852
 2770TIP3    H1 8253   1.811   4.810   5.913
 2770TIP3    H2 8254   1.795   4.774   5.767
 2771TIP3   OH2 8255   3.277   5.266   6.269
 2771TIP3    H1 8256   3.336   5.332   6.232
 2771TIP3    H2 8257   3.205   5.318   6.307
 2772TIP3   OH2 8258   3.192   5.262   3.177
 2772TIP3    H1 8259   3.241   5.185   3.206
 2772TIP3    H2 8260   3.145   5.292   3.254
 2773TIP3   OH2 8261   8.119   4.825   1.392
 2773TIP3    H1 8262   8.119   4.742   1.343
 2773TIP3    H2 8263   8.043   4.873   1.358
 2774TIP3   OH2 8264   0.057   7.594   5.986
 2774TIP3    H1 8265   0.029   7.503   5.976
 2774TIP3    H2 8266   0.124   7.606   5.919
 2775TIP3   OH2 8267   6.860   7.308   6.387
 2775TIP3    H1 8268   6.834   7.328   6.478
 2775TIP3    H2 8269   6.801   7.237   6.361
 2776TIP3   OH2 8270   3.767   6.555   2.468
 2776TIP3    H1 8271   3.685   6.601   2.451
 2776TIP3    H2 8272   3.807   6.604   2.541
 2777TIP3   OH2 8273   6.740   0.783   1.062
 2777TIP3    H1 8274   6.685   0.853   1.027
 2777TIP3    H2 8275   6.718   0.707   1.009
 2778TIP3   OH2 8276   5.042   3.361   4.160
 2778TIP3    H1 8277   5.055   3.309   4.240
 2778TIP3    H2 8278   5.062   3.451   4.186
 2779TIP3   OH2 8279   1.576   6.130   3.037
 2779TIP3    H1 8280   1.569   6.158   3.129
 2779TIP3    H2 8281   1.541   6.204   2.987
 2780TIP3   OH2 8282   4.761   2.292   0.026
 2780TIP3    H1 8283   4.684   2.345   0.004
 2780TIP3    H2 8284   4.821   2.305  -0.047
 2781TIP3   OH2 8285   1.318   1.362   1.536
 2781TIP3    H1 8286   1.282   1.419   1.604
 2781TIP3    H2 8287   1.338   1.420   1.463
 2782TIP3   OH2 8288   1.771   5.046   1.520
 2782TIP3    H1 8289   1.862   5.069   1.498
 2782TIP3    H2 8290   1.779   4.965   1.570
 2783TIP3   OH2 8291   7.971   3.601   1.172
 2783TIP3    H1 8292   8.004   3.671   1.228
 2783TIP3    H2 8293   7.918   3.646   1.106
 2784TIP3   OH2 8294   0.624   3.506   0.809
 2784TIP3    H1 8295   0.674   3.567   0.755
 2784TIP3    H2 8296   0.686   3.435   0.828
 2785TIP3   OH2 8297   3.998   5.869   5.324
 2785TIP3    H1 8298   4.023   5.825   5.405
 2785TIP3    H2 8299   3.918   5.825   5.296
 2786TIP3   OH2 8300   7.248   1.152   1.230
 2786TIP3    H1 8301   7.278   1.242   1.243
 2786TIP3    H2 8302   7.226   1.121   1.318
 2787TIP3   OH2 8303   7.383   7.590   6.193
 2787TIP3    H1 8304   7.324   7.520   6.164
 2787TIP3    H2 8305   7.418   7.627   6.112
 2788TIP3   OH2 8306   8.011   0.330   1.758
 2788TIP3    H1 8307   8.079   0.274   1.720
 2788TIP3    H2 8308   8.028   0.416   1.721
 2789TIP3   OH2 8309   1.119   1.409   3.277
 2789TIP3    H1 8310   1.150   1.321   3.301
 2789TIP3    H2 8311   1.080   1.398   3.191
 2790TIP3   OH2 8312   1.151   3.049   0.682
 2790TIP3    H1 8313   1.082   3.001   0.637
 2790TIP3    H2 8314   1.148   3.137   0.644
 2791TIP3   OH2 8315   1.600   6.621   0.436
 2791TIP3    H1 8316   1.601   6.568   0.356
 2791TIP3    H2 8317   1.687   6.609   0.475
 2792TIP3   OH2 8318   3.587   7.341   1.930
 2792TIP3    H1 8319   3.548   7.276   1.871
 2792TIP3    H2 8320   3.589   7.299   2.016
 2793TIP3   OH2 8321   2.473   6.677   6.105
 2793TIP3    H1 8322   2.564   6.700   6.120
 2793TIP3    H2 8323   2.431   6.760   6.083
 2794TIP3   OH2 8324   1.959   4.084   5.918
 2794TIP3    H1 8325   1.994   4.125   5.997
 2794TIP3    H2 8326   2.023   4.104   5.850
 2795TIP3   OH2 8327   7.310   2.718   1.543
 2795TIP3    H1 8328   7.263   2.768   1.476
 2795TIP3    H2 8329   7.282   2.757   1.626
 2796TIP3   OH2 8330   6.040   2.645   3.746
 2796TIP3    H1 8331   5.999   2.626   3.662
 2796TIP3    H2 8332   6.044   2.741   3.750
 2797TIP3   OH2 8333   6.194   6.118   1.866
 2797TIP3    H1 8334   6.156   6.180   1.929
 2797TIP3    H2 8335   6.266   6.076   1.914
 2798TIP3   OH2 8336   5.754   0.312   5.470
 2798TIP3    H1 8337   5.830   0.353   5.428
 2798TIP3    H2 8338   5.718   0.381   5.526
 2799TIP3   OH2 8339   3.356   6.462   5.831
 2799TIP3    H1 8340   3.294   6.492   5.897
 2799TIP3    H2 8341   3.312   6.478   5.747
 2800TIP3   OH2 8342   6.296   4.831   1.783
 2800TIP3    H1 8343   6.218   4.862   1.830
 2800TIP3    H2 8344   6.264   4.807   1.696
 2801TIP3   OH2 8345   8.229   6.066   1.798
 2801TIP3    H1 8346   8.189   6.136   1.849
 2801TIP3    H2 8347   8.180   5.987   1.821
 2802TIP3   OH2 8348   3.222   6.210   0.162
 2802TIP3    H1 8349   3.136   6.224   0.122
 2802TIP3    H2 8350   3.229   6.277   0.230
 2803TIP3   OH2 8351   0.963   3.028   2.342
 2803TIP3    H1 8352   1.035   3.051   2.400
 2803TIP3    H2 8353   0.933   2.943   2.373
 2804TIP3   OH2 8354   5.475   4.612   3.125
 2804TIP3    H1 8355   5.542   4.573   3.068
 2804TIP3    H2 8356   5.525   4.662   3.189
 2805TIP3   OH2 8357   7.403   6.787   3.515
 2805TIP3    H1 8358   7.355   6.704   3.526
 2805TIP3    H2 8359   7.418   6.818   3.605
 2806TIP3   OH2 8360   1.266   4.286   6.171
 2806TIP3    H1 8361   1.299   4.324   6.090
 2806TIP3    H2 8362   1.203   4.220   6.143
 2807TIP3   OH2 8363   1.399   2.377   4.800
 2807TIP3    H1 8364   1.477   2.327   4.824
 2807TIP3    H2 8365   1.340   2.366   4.875
 2808TIP3   OH2 8366   2.909   6.318   5.687
 2808TIP3    H1 8367   2.842   6.356   5.629
 2808TIP3    H2 8368   2.987   6.370   5.671
 2809TIP3   OH2 8369   0.340   5.465   3.101
 2809TIP3    H1 8370   0.363   5.415   3.022
 2809TIP3    H2 8371   0.380   5.551   3.088
 2810TIP3   OH2 8372   5.631   2.941   0.702
 2810TIP3    H1 8373   5.554   2.958   0.649
 2810TIP3    H2 8374   5.660   3.027   0.731
 2811TIP3   OH2 8375   3.524   3.628   5.339
 2811TIP3    H1 8376   3.490   3.706   5.383
 2811TIP3    H2 8377   3.450   3.598   5.284
 2812TIP3   OH2 8378   5.032   5.895   6.345
 2812TIP3    H1 8379   5.100   5.951   6.308
 2812TIP3    H2 8380   5.062   5.876   6.434
 2813TIP3   OH2 8381   3.235   3.182   5.821
 2813TIP3    H1 8382   3.165   3.244   5.802
 2813TIP3    H2 8383   3.207   3.139   5.902
 2814TIP3   OH2 8384   0.038   6.253   3.820
 2814TIP3    H1 8385   0.068   6.163   3.834
 2814TIP3    H2 8386  -0.002   6.252   3.734
 2815TIP3   OH2 8387   7.284   6.626   0.027
 2815TIP3    H1 8388   7.238   6.680   0.092
 2815TIP3    H2 8389   7.285   6.681  -0.052
 2816TIP3   OH2 8390   5.600   3.389   4.382
 2816TIP3    H1 8391   5.589   3.483   4.396
 2816TIP3    H2 8392   5.613   3.352   4.469
 2817TIP3   OH2 8393   0.445   7.423   0.590
 2817TIP3    H1 8394   0.443   7.330   0.612
 2817TIP3    H2 8395   0.486   7.426   0.503
 2818TIP3   OH2 8396   5.759   4.297   6.599
 2818TIP3    H1 8397   5.848   4.302   6.563
 2818TIP3    H2 8398   5.735   4.388   6.618
 2819TIP3   OH2 8399   7.902   6.465   1.568
 2819TIP3    H1 8400   7.916   6.521   1.645
 2819TIP3    H2 8401   7.962   6.499   1.502
 2820TIP3   OH2 8402   3.419   6.780   4.385
 2820TIP3    H1 8403   3.367   6.725   4.328
 2820TIP3    H2 8404   3.509   6.772   4.351
 2821TIP3   OH2 8405   1.210   7.098   5.460
 2821TIP3    H1 8406   1.145   7.140   5.404
 2821TIP3    H2 8407   1.191   7.129   5.548
 2822TIP3   OH2 8408   0.791   3.520   3.066
 2822TIP3    H1 8409   0.827   3.478   3.145
 2822TIP3    H2 8410   0.725   3.459   3.034
 2823TIP3   OH2 8411   3.155   2.765   1.287
 2823TIP3    H1 8412   3.110   2.812   1.357
 2823TIP3    H2 8413   3.104   2.785   1.208
 2824TIP3   OH2 8414   1.220   4.864   4.386
 2824TIP3    H1 8415   1.140   4.812   4.384
 2824TIP3    H2 8416   1.196   4.947   4.343
 2825TIP3   OH2 8417   8.266   3.138   5.653
 2825TIP3    H1 8418   8.295   3.208   5.711
 2825TIP3    H2 8419   8.177   3.118   5.682
 2826TIP3   OH2 8420   2.692   2.888   5.401
 2826TIP3    H1 8421   2.733   2.967   5.367
 2826TIP3    H2 8422   2.702   2.894   5.496
 2827TIP3   OH2 8423   7.416   5.593   2.796
 2827TIP3    H1 8424   7.378   5.679   2.814
 2827TIP3    H2 8425   7.378   5.567   2.712
 2828TIP3   OH2 8426   2.127   7.054   6.818
 2828TIP3    H1 8427   2.190   7.125   6.827
 2828TIP3    H2 8428   2.158   7.004   6.742
 2829TIP3   OH2 8429   6.835   3.402   5.259
 2829TIP3    H1 8430   6.821   3.478   5.203
 2829TIP3    H2 8431   6.749   3.361   5.266
 2830TIP3   OH2 8432   4.159   6.431   6.623
 2830TIP3    H1 8433   4.227   6.496   6.640
 2830TIP3    H2 8434   4.125   6.408   6.709
 2831TIP3   OH2 8435   2.492   3.659   0.788
 2831TIP3    H1 8436   2.439   3.606   0.729
 2831TIP3    H2 8437   2.521   3.732   0.735
 2832TIP3   OH2 8438   0.765   7.075   2.687
 2832TIP3    H1 8439   0.734   7.159   2.721
 2832TIP3    H2 8440   0.772   7.019   2.764
 2833TIP3   OH2 8441   6.355   4.619   4.632
 2833TIP3    H1 8442   6.341   4.620   4.727
 2833TIP3    H2 8443   6.383   4.529   4.614
 2834TIP3   OH2 8444   0.341   7.303   2.238
 2834TIP3    H1 8445   0.388   7.337   2.314
 2834TIP3    H2 8446   0.408   7.260   2.186
 2835TIP3   OH2 8447   7.983   0.731   3.350
 2835TIP3    H1 8448   8.058   0.699   3.400
 2835TIP3    H2 8449   8.011   0.816   3.315
 2836TIP3   OH2 8450   5.035   5.016   2.577
 2836TIP3    H1 8451   5.001   5.086   2.632
 2836TIP3    H2 8452   5.119   4.992   2.618
 2837TIP3   OH2 8453   8.182   7.094   3.014
 2837TIP3    H1 8454   8.167   7.098   2.920
 2837TIP3    H2 8455   8.181   7.001   3.035
 2838TIP3   OH2 8456   0.593   3.749   3.972
 2838TIP3    H1 8457   0.527   3.818   3.971
 2838TIP3    H2 8458   0.671   3.790   4.008
 2839TIP3   OH2 8459   2.850   5.069   5.318
 2839TIP3    H1 8460   2.904   5.121   5.378
 2839TIP3    H2 8461   2.762   5.107   5.327
 2840TIP3   OH2 8462   7.107   1.857   2.194
 2840TIP3    H1 8463   7.058   1.883   2.117
 2840TIP3    H2 8464   7.059   1.896   2.267
 2841TIP3   OH2 8465   3.605   7.699   6.351
 2841TIP3    H1 8466   3.621   7.752   6.272
 2841TIP3    H2 8467   3.522   7.655   6.334
 2842TIP3   OH2 8468   3.143   7.073   6.131
 2842TIP3    H1 8469   3.151   6.984   6.166
 2842TIP3    H2 8470   3.201   7.074   6.054
 2843TIP3   OH2 8471   2.890   1.600   4.345
 2843TIP3    H1 8472   2.853   1.687   4.355
 2843TIP3    H2 8473   2.945   1.606   4.267
 2844TIP3   OH2 8474   5.984   6.076   0.083
 2844TIP3    H1 8475   5.936   6.018   0.024
 2844TIP3    H2 8476   5.991   6.158   0.034
 2845TIP3   OH2 8477   7.400   3.804   3.188
 2845TIP3    H1 8478   7.476   3.809   3.130
 2845TIP3    H2 8479   7.351   3.729   3.156
 2846TIP3   OH2 8480   7.855   4.017   5.674
 2846TIP3    H1 8481   7.879   4.109   5.666
 2846TIP3    H2 8482   7.799   4.000   5.599
 2847TIP3   OH2 8483   0.612   7.217   5.878
 2847TIP3    H1 8484   0.649   7.132   5.854
 2847TIP3    H2 8485   0.524   7.216   5.841
 2848TIP3   OH2 8486   4.632   1.742   1.839
 2848TIP3    H1 8487   4.559   1.788   1.795
 2848TIP3    H2 8488   4.686   1.813   1.875
 2849TIP3   OH2 8489   7.334   3.849   6.126
 2849TIP3    H1 8490   7.344   3.780   6.060
 2849TIP3    H2 8491   7.246   3.883   6.112
 2850TIP3   OH2 8492   6.447   5.173   1.996
 2850TIP3    H1 8493   6.428   5.171   1.902
 2850TIP3    H2 8494   6.373   5.130   2.037
 2851TIP3   OH2 8495   0.810   0.077   4.857
 2851TIP3    H1 8496   0.903   0.094   4.871
 2851TIP3    H2 8497   0.792   0.111   4.769
 2852TIP3   OH2 8498   7.258   7.143   0.886
 2852TIP3    H1 8499   7.242   7.102   0.801
 2852TIP3    H2 8500   7.239   7.074   0.950
 2853TIP3   OH2 8501   5.909   4.237   5.755
 2853TIP3    H1 8502   5.899   4.210   5.846
 2853TIP3    H2 8503   5.819   4.256   5.725
 2854TIP3   OH2 8504   5.400   1.787   5.919
 2854TIP3    H1 8505   5.328   1.819   5.865
 2854TIP3    H2 8506   5.394   1.692   5.914
 2855TIP3   OH2 8507   0.466   0.149   1.238
 2855TIP3    H1 8508   0.450   0.083   1.304
 2855TIP3    H2 8509   0.549   0.189   1.263
 2856TIP3   OH2 8510   5.060   3.914   6.701
 2856TIP3    H1 8511   5.032   3.846   6.763
 2856TIP3    H2 8512   5.043   3.996   6.747
 2857TIP3   OH2 8513   5.387   5.188   5.071
 2857TIP3    H1 8514   5.322   5.252   5.101
 2857TIP3    H2 8515   5.471   5.223   5.101
 2858TIP3   OH2 8516   5.213   1.238   4.563
 2858TIP3    H1 8517   5.124   1.267   4.542
 2858TIP3    H2 8518   5.205   1.199   4.650
 2859TIP3   OH2 8519   6.766   0.923   3.006
 2859TIP3    H1 8520   6.704   0.868   3.053
 2859TIP3    H2 8521   6.807   0.977   3.074
 2860TIP3   OH2 8522   4.229   3.024   3.204
 2860TIP3    H1 8523   4.177   3.067   3.136
 2860TIP3    H2 8524   4.204   2.932   3.198
 2861TIP3   OH2 8525   6.107   5.597   2.190
 2861TIP3    H1 8526   6.027   5.588   2.242
 2861TIP3    H2 8527   6.150   5.512   2.198
 2862TIP3   OH2 8528   3.534   0.607   0.394
 2862TIP3    H1 8529   3.541   0.671   0.322
 2862TIP3    H2 8530   3.620   0.567   0.399
 2863TIP3   OH2 8531   7.271   7.580   3.508
 2863TIP3    H1 8532   7.194   7.636   3.510
 2863TIP3    H2 8533   7.316   7.598   3.591
 2864TIP3   OH2 8534   5.423   3.803   5.718
 2864TIP3    H1 8535   5.442   3.722   5.671
 2864TIP3    H2 8536   5.425   3.779   5.810
 2865TIP3   OH2 8537   4.127   2.248   0.844
 2865TIP3    H1 8538   4.176   2.291   0.915
 2865TIP3    H2 8539   4.162   2.287   0.764
 2866TIP3   OH2 8540   3.028   1.664   1.928
 2866TIP3    H1 8541   2.951   1.611   1.907
 2866TIP3    H2 8542   3.044   1.648   2.020
 2867TIP3   OH2 8543   7.440   6.276   6.205
 2867TIP3    H1 8544   7.434   6.196   6.153
 2867TIP3    H2 8545   7.366   6.329   6.177
 2868TIP3   OH2 8546   5.269   5.290   1.198
 2868TIP3    H1 8547   5.329   5.219   1.221
 2868TIP3    H2 8548   5.305   5.367   1.241
 2869TIP3   OH2 8549   1.779   0.504   1.951
 2869TIP3    H1 8550   1.866   0.465   1.935
 2869TIP3    H2 8551   1.795   0.570   2.018
 2870TIP3   OH2 8552   7.807   6.785   2.046
 2870TIP3    H1 8553   7.769   6.860   2.091
 2870TIP3    H2 8554   7.901   6.795   2.058
 2871TIP3   OH2 8555   0.821   3.241   4.827
 2871TIP3    H1 8556   0.910   3.268   4.808
 2871TIP3    H2 8557   0.828   3.192   4.909
 2872TIP3   OH2 8558   6.510   1.010   6.282
 2872TIP3    H1 8559   6.453   0.955   6.336
 2872TIP3    H2 8560   6.572   0.949   6.242
 2873TIP3   OH2 8561   1.376   5.076   5.095
 2873TIP3    H1 8562   1.319   5.007   5.131
 2873TIP3    H2 8563   1.463   5.055   5.128
 2874TIP3   OH2 8564   4.577   2.805   2.145
 2874TIP3    H1 8565   4.662   2.761   2.144
 2874TIP3    H2 8566   4.574   2.850   2.229
 2875TIP3   OH2 8567   7.976   6.651   4.189
 2875TIP3    H1 8568   7.990   6.711   4.115
 2875TIP3    H2 8569   7.882   6.631   4.185
 2876TIP3   OH2 8570   0.585   4.115   1.485
 2876TIP3    H1 8571   0.622   4.085   1.403
 2876TIP3    H2 8572   0.593   4.041   1.544
 2877TIP3   OH2 8573   4.968   4.934   4.295
 2877TIP3    H1 8574   5.016   4.885   4.228
 2877TIP3    H2 8575   4.995   5.025   4.282
 2878TIP3   OH2 8576   1.608   6.003   4.269
 2878TIP3    H1 8577   1.587   5.928   4.214
 2878TIP3    H2 8578   1.540   6.067   4.249
 2879TIP3   OH2 8579   1.388   6.702   6.614
 2879TIP3    H1 8580   1.426   6.623   6.653
 2879TIP3    H2 8581   1.398   6.769   6.681
 2880TIP3   OH2 8582   8.273   6.150   0.936
 2880TIP3    H1 8583   8.245   6.137   0.845
 2880TIP3    H2 8584   8.368   6.145   0.933
 2881TIP3   OH2 8585   7.948   1.271   2.489
 2881TIP3    H1 8586   8.031   1.275   2.535
 2881TIP3    H2 8587   7.957   1.195   2.431
 2882TIP3   OH2 8588   2.172   2.988   1.999
 2882TIP3    H1 8589   2.183   3.074   2.041
 2882TIP3    H2 8590   2.257   2.946   2.009
 2883TIP3   OH2 8591   5.510   0.634   5.997
 2883TIP3    H1 8592   5.471   0.672   5.918
 2883TIP3    H2 8593   5.477   0.544   6.000
 2884TIP3   OH2 8594   0.871   2.400   5.795
 2884TIP3    H1 8595   0.789   2.352   5.780
 2884TIP3    H2 8596   0.922   2.343   5.853
 2885TIP3   OH2 8597   2.298   4.780   6.129
 2885TIP3    H1 8598   2.362   4.744   6.191
 2885TIP3    H2 8599   2.241   4.835   6.183
 2886TIP3   OH2 8600   3.951   1.331   6.218
 2886TIP3    H1 8601   3.937   1.419   6.184
 2886TIP3    H2 8602   4.043   1.313   6.201
 2887TIP3   OH2 8603   2.958   5.121   2.098
 2887TIP3    H1 8604   2.916   5.195   2.142
 2887TIP3    H2 8605   3.046   5.152   2.079
 2888TIP3   OH2 8606   6.807   2.867   5.745
 2888TIP3    H1 8607   6.744   2.795   5.743
 2888TIP3    H2 8608   6.889   2.827   5.719
 2889TIP3   OH2 8609   1.420   0.643   1.559
 2889TIP3    H1 8610   1.429   0.549   1.575
 2889TIP3    H2 8611   1.395   0.650   1.467
 2890TIP3   OH2 8612   0.394   5.771   6.352
 2890TIP3    H1 8613   0.370   5.696   6.406
 2890TIP3    H2 8614   0.419   5.839   6.414
 2891TIP3   OH2 8615   7.681   5.637   6.495
 2891TIP3    H1 8616   7.679   5.542   6.493
 2891TIP3    H2 8617   7.589   5.663   6.503
 2892TIP3   OH2 8618   3.801   6.954   1.965
 2892TIP3    H1 8619   3.856   7.017   2.012
 2892TIP3    H2 8620   3.711   6.979   1.989
 2893TIP3   OH2 8621   7.586   0.599   1.381
 2893TIP3    H1 8622   7.541   0.574   1.462
 2893TIP3    H2 8623   7.665   0.546   1.381
 2894TIP3   OH2 8624   3.448   5.849   4.207
 2894TIP3    H1 8625   3.495   5.933   4.210
 2894TIP3    H2 8626   3.380   5.857   4.274
 2895TIP3   OH2 8627   1.155   7.422   1.060
 2895TIP3    H1 8628   1.073   7.454   1.098
 2895TIP3    H2 8629   1.160   7.331   1.088
 2896TIP3   OH2 8630   6.615   3.722   4.314
 2896TIP3    H1 8631   6.628   3.815   4.296
 2896TIP3    H2 8632   6.652   3.677   4.238
 2897TIP3   OH2 8633   2.091   6.112   1.929
 2897TIP3    H1 8634   2.043   6.161   1.996
 2897TIP3    H2 8635   2.083   6.166   1.850
 2898TIP3   OH2 8636   6.505   4.277   4.341
 2898TIP3    H1 8637   6.556   4.352   4.308
 2898TIP3    H2 8638   6.471   4.236   4.262
 2899TIP3   OH2 8639   0.569   0.613   1.259
 2899TIP3    H1 8640   0.574   0.702   1.295
 2899TIP3    H2 8641   0.497   0.616   1.196
 2900TIP3   OH2 8642   8.115   6.642   5.151
 2900TIP3    H1 8643   8.185   6.660   5.088
 2900TIP3    H2 8644   8.155   6.655   5.237
 2901TIP3   OH2 8645   1.027   3.042   4.321
 2901TIP3    H1 8646   1.036   2.947   4.329
 2901TIP3    H2 8647   0.933   3.058   4.331
 2902TIP3   OH2 8648   4.784   0.815   0.650
 2902TIP3    H1 8649   4.751   0.769   0.728
 2902TIP3    H2 8650   4.706   0.831   0.597
 2903TIP3   OH2 8651   3.883   3.876   5.299
 2903TIP3    H1 8652   3.798   3.919   5.305
 2903TIP3    H2 8653   3.931   3.926   5.233
 2904TIP3   OH2 8654   4.858   4.562   1.621
 2904TIP3    H1 8655   4.851   4.652   1.650
 2904TIP3    H2 8656   4.783   4.548   1.564
 2905TIP3   OH2 8657   7.402   7.151   0.311
 2905TIP3    H1 8658   7.452   7.172   0.390
 2905TIP3    H2 8659   7.380   7.236   0.273
 2906TIP3   OH2 8660   2.997   5.696   2.439
 2906TIP3    H1 8661   3.006   5.714   2.345
 2906TIP3    H2 8662   2.954   5.611   2.443
 2907TIP3   OH2 8663   7.694   0.322   4.220
 2907TIP3    H1 8664   7.768   0.316   4.160
 2907TIP3    H2 8665   7.644   0.397   4.190
 2908TIP3   OH2 8666   4.596   6.048   0.345
 2908TIP3    H1 8667   4.539   6.118   0.377
 2908TIP3    H2 8668   4.667   6.094   0.300
 2909TIP3   OH2 8669   7.718   3.622   2.220
 2909TIP3    H1 8670   7.799   3.593   2.178
 2909TIP3    H2 8671   7.693   3.701   2.172
 2910TIP3   OH2 8672   6.278   0.845   3.739
 2910TIP3    H1 8673   6.362   0.867   3.780
 2910TIP3    H2 8674   6.270   0.906   3.666
 2911TIP3   OH2 8675   3.856   1.638   4.494
 2911TIP3    H1 8676   3.760   1.631   4.489
 2911TIP3    H2 8677   3.888   1.555   4.459
 2912TIP3   OH2 8678   7.846   5.221   3.932
 2912TIP3    H1 8679   7.826   5.216   4.026
 2912TIP3    H2 8680   7.904   5.297   3.924
 2913TIP3   OH2 8681   6.621   6.950   3.852
 2913TIP3    H1 8682   6.704   6.993   3.870
 2913TIP3    H2 8683   6.644   6.861   3.825
 2914TIP3   OH2 8684   1.934   3.533   4.622
 2914TIP3    H1 8685   2.003   3.556   4.560
 2914TIP3    H2 8686   1.861   3.503   4.567
 2915TIP3   OH2 8687   5.910   6.608   3.831
 2915TIP3    H1 8688   5.892   6.565   3.747
 2915TIP3    H2 8689   5.959   6.687   3.808
 2916TIP3   OH2 8690   2.673   1.492   5.740
 2916TIP3    H1 8691   2.583   1.518   5.720
 2916TIP3    H2 8692   2.719   1.500   5.657
 2917TIP3   OH2 8693   6.927   2.745   3.038
 2917TIP3    H1 8694   6.963   2.775   2.954
 2917TIP3    H2 8695   6.877   2.667   3.016
 2918TIP3   OH2 8696   0.656   4.892   2.230
 2918TIP3    H1 8697   0.670   4.824   2.165
 2918TIP3    H2 8698   0.569   4.872   2.266
 2919TIP3   OH2 8699   4.072   7.319   3.353
 2919TIP3    H1 8700   4.091   7.355   3.266
 2919TIP3    H2 8701   4.118   7.235   3.354
 2920TIP3   OH2 8702   5.615   4.956   3.503
 2920TIP3    H1 8703   5.577   5.037   3.468
 2920TIP3    H2 8704   5.540   4.902   3.526
 2921TIP3   OH2 8705   4.742   1.640   1.574
 2921TIP3    H1 8706   4.698   1.652   1.658
 2921TIP3    H2 8707   4.732   1.547   1.554
 2922TIP3   OH2 8708   6.611   5.327   1.082
 2922TIP3    H1 8709   6.658   5.355   1.160
 2922TIP3    H2 8710   6.671   5.267   1.038
 2923TIP3   OH2 8711   1.025   3.137   5.187
 2923TIP3    H1 8712   0.988   3.225   5.184
 2923TIP3    H2 8713   0.962   3.083   5.139
 2924TIP3   OH2 8714   0.859   7.419   0.926
 2924TIP3    H1 8715   0.820   7.448   0.844
 2924TIP3    H2 8716   0.947   7.390   0.902
 2925TIP3   OH2 8717   4.655   5.031   5.717
 2925TIP3    H1 8718   4.674   5.125   5.718
 2925TIP3    H2 8719   4.673   5.001   5.806
 2926TIP3   OH2 8720   2.224   1.952   0.682
 2926TIP3    H1 8721   2.148   1.970   0.736
 2926TIP3    H2 8722   2.281   2.029   0.694
 2927TIP3   OH2 8723   3.857   5.870   1.986
 2927TIP3    H1 8724   3.844   5.882   2.080
 2927TIP3    H2 8725   3.950   5.853   1.976
 2928TIP3   OH2 8726   6.727   5.276   4.478
 2928TIP3    H1 8727   6.727   5.187   4.514
 2928TIP3    H2 8728   6.803   5.318   4.519
 2929TIP3   OH2 8729   7.969   3.158   6.305
 2929TIP3    H1 8730   7.895   3.162   6.244
 2929TIP3    H2 8731   7.989   3.065   6.314
 2930TIP3   OH2 8732   0.751   6.577   6.609
 2930TIP3    H1 8733   0.763   6.548   6.519
 2930TIP3    H2 8734   0.657   6.592   6.618
 2931TIP3   OH2 8735   4.641   5.279   2.558
 2931TIP3    H1 8736   4.732   5.306   2.550
 2931TIP3    H2 8737   4.639   5.226   2.638
 2932TIP3   OH2 8738   3.688   4.786   3.841
 2932TIP3    H1 8739   3.625   4.720   3.812
 2932TIP3    H2 8740   3.690   4.850   3.769
 2933TIP3   OH2 8741   6.968   2.413   2.501
 2933TIP3    H1 8742   6.884   2.408   2.455
 2933TIP3    H2 8743   6.945   2.409   2.594
 2934TIP3   OH2 8744   1.052   4.032   1.991
 2934TIP3    H1 8745   1.029   3.984   2.071
 2934TIP3    H2 8746   1.038   3.969   1.920
 2935TIP3   OH2 8747   7.075   4.915   1.363
 2935TIP3    H1 8748   7.138   4.941   1.295
 2935TIP3    H2 8749   7.007   4.983   1.359
 2936TIP3   OH2 8750   0.918   4.733   6.154
 2936TIP3    H1 8751   0.980   4.667   6.184
 2936TIP3    H2 8752   0.834   4.686   6.150
 2937TIP3   OH2 8753   5.227   4.559   3.063
 2937TIP3    H1 8754   5.202   4.509   3.141
 2937TIP3    H2 8755   5.322   4.570   3.072
 2938TIP3   OH2 8756   8.153   2.182   1.011
 2938TIP3    H1 8757   8.137   2.251   1.075
 2938TIP3    H2 8758   8.248   2.179   1.002
 2939TIP3   OH2 8759   6.593   6.619   0.674
 2939TIP3    H1 8760   6.618   6.678   0.745
 2939TIP3    H2 8761   6.561   6.676   0.605
 2940TIP3   OH2 8762   4.521   2.687   4.635
 2940TIP3    H1 8763   4.584   2.758   4.643
 2940TIP3    H2 8764   4.437   2.730   4.616
 2941TIP3   OH2 8765   2.967   6.158   4.445
 2941TIP3    H1 8766   2.955   6.212   4.522
 2941TIP3    H2 8767   3.007   6.077   4.478
 2942TIP3   OH2 8768   2.289   0.503   2.558
 2942TIP3    H1 8769   2.337   0.560   2.618
 2942TIP3    H2 8770   2.343   0.501   2.479
 2943TIP3   OH2 8771   2.282   4.246   4.060
 2943TIP3    H1 8772   2.261   4.313   4.126
 2943TIP3    H2 8773   2.206   4.188   4.061
 2944TIP3   OH2 8774   0.436   1.438   4.218
 2944TIP3    H1 8775   0.401   1.467   4.134
 2944TIP3    H2 8776   0.406   1.347   4.226
 2945TIP3   OH2 8777   7.875   2.241   6.194
 2945TIP3    H1 8778   7.874   2.308   6.261
 2945TIP3    H2 8779   7.962   2.202   6.200
 2946TIP3   OH2 8780   2.783   7.123   1.666
 2946TIP3    H1 8781   2.793   7.109   1.760
 2946TIP3    H2 8782   2.689   7.128   1.652
 2947TIP3   OH2 8783   6.122   4.230   4.084
 2947TIP3    H1 8784   6.047   4.273   4.125
 2947TIP3    H2 8785   6.084   4.162   4.028
 2948TIP3   OH2 8786   3.288   2.661   0.283
 2948TIP3    H1 8787   3.285   2.590   0.347
 2948TIP3    H2 8788   3.337   2.730   0.327
 2949TIP3   OH2 8789   1.777   7.128   3.410
 2949TIP3    H1 8790   1.762   7.050   3.357
 2949TIP3    H2 8791   1.795   7.094   3.498
 2950TIP3   OH2 8792   1.454   4.961   4.586
 2950TIP3    H1 8793   1.490   4.948   4.674
 2950TIP3    H2 8794   1.464   4.876   4.544
 2951TIP3   OH2 8795   0.393   2.130   3.351
 2951TIP3    H1 8796   0.457   2.146   3.281
 2951TIP3    H2 8797   0.388   2.035   3.358
 2952TIP3   OH2 8798   3.382   5.598   1.270
 2952TIP3    H1 8799   3.329   5.550   1.334
 2952TIP3    H2 8800   3.318   5.636   1.210
 2953TIP3   OH2 8801   3.101   0.688   0.152
 2953TIP3    H1 8802   3.150   0.636   0.088
 2953TIP3    H2 8803   3.137   0.661   0.237
 2954TIP3   OH2 8804   7.011   2.933   3.903
 2954TIP3    H1 8805   7.098   2.951   3.937
 2954TIP3    H2 8806   7.021   2.940   3.808
 2955TIP3   OH2 8807   6.594   5.157   6.260
 2955TIP3    H1 8808   6.563   5.136   6.348
 2955TIP3    H2 8809   6.686   5.130   6.260
 2956TIP3   OH2 8810   7.079   6.588   4.219
 2956TIP3    H1 8811   7.040   6.620   4.138
 2956TIP3    H2 8812   7.063   6.658   4.282
 2957TIP3   OH2 8813   4.519   2.847   5.049
 2957TIP3    H1 8814   4.475   2.922   5.007
 2957TIP3    H2 8815   4.585   2.820   4.985
 2958TIP3   OH2 8816   5.788   0.007   2.923
 2958TIP3    H1 8817   5.855   0.074   2.931
 2958TIP3    H2 8818   5.712   0.043   2.969
 2959TIP3   OH2 8819   5.391   5.995   1.860
 2959TIP3    H1 8820   5.386   6.014   1.954
 2959TIP3    H2 8821   5.319   5.935   1.844
 2960TIP3   OH2 8822   5.870   5.686   1.352
 2960TIP3    H1 8823   5.878   5.622   1.423
 2960TIP3    H2 8824   5.930   5.757   1.376
 2961TIP3   OH2 8825   5.400   1.839   5.178
 2961TIP3    H1 8826   5.448   1.760   5.151
 2961TIP3    H2 8827   5.375   1.821   5.269
 2962TIP3   OH2 8828   7.977   4.400   5.292
 2962TIP3    H1 8829   7.976   4.333   5.360
 2962TIP3    H2 8830   7.929   4.474   5.331
 2963TIP3   OH2 8831   6.182   0.084   6.237
 2963TIP3    H1 8832   6.108   0.081   6.177
 2963TIP3    H2 8833   6.243   0.146   6.196
 2964TIP3   OH2 8834   6.699   5.655   4.605
 2964TIP3    H1 8835   6.749   5.671   4.525
 2964TIP3    H2 8836   6.609   5.643   4.576
 2965TIP3   OH2 8837   4.065   1.845   1.479
 2965TIP3    H1 8838   4.106   1.922   1.440
 2965TIP3    H2 8839   4.065   1.863   1.573
 2966TIP3   OH2 8840   2.870   6.997   2.024
 2966TIP3    H1 8841   2.920   7.059   2.077
 2966TIP3    H2 8842   2.783   6.995   2.064
 2967TIP3   OH2 8843   5.226   3.399   5.870
 2967TIP3    H1 8844   5.182   3.432   5.791
 2967TIP3    H2 8845   5.191   3.311   5.882
 2968TIP3   OH2 8846   1.485   3.227   3.877
 2968TIP3    H1 8847   1.500   3.133   3.873
 2968TIP3    H2 8848   1.404   3.237   3.928
 2969TIP3   OH2 8849   4.048   5.190   0.397
 2969TIP3    H1 8850   3.960   5.213   0.427
 2969TIP3    H2 8851   4.067   5.253   0.327
 2970TIP3   OH2 8852   1.712   0.161   2.088
 2970TIP3    H1 8853   1.687   0.247   2.124
 2970TIP3    H2 8854   1.707   0.102   2.163
 2971TIP3   OH2 8855   6.368   2.443   2.886
 2971TIP3    H1 8856   6.288   2.486   2.855
 2971TIP3    H2 8857   6.337   2.372   2.942
 2972TIP3   OH2 8858   4.199   5.995   3.490
 2972TIP3    H1 8859   4.175   5.993   3.582
 2972TIP3    H2 8860   4.293   5.975   3.488
 2973TIP3   OH2 8861   0.879   6.515   2.278
 2973TIP3    H1 8862   0.949   6.463   2.239
 2973TIP3    H2 8863   0.896   6.604   2.249
 2974TIP3   OH2 8864   8.254   1.665   0.235
 2974TIP3    H1 8865   8.269   1.667   0.141
 2974TIP3    H2 8866   8.319   1.726   0.271
 2975TIP3   OH2 8867   7.017   5.456   0.565
 2975TIP3    H1 8868   7.091   5.405   0.599
 2975TIP3    H2 8869   7.029   5.454   0.470
 2976TIP3   OH2 8870   0.759   0.040   2.964
 2976TIP3    H1 8871   0.791   0.099   3.031
 2976TIP3    H2 8872   0.673   0.075   2.939
 2977TIP3   OH2 8873   7.263   0.420   2.590
 2977TIP3    H1 8874   7.205   0.374   2.651
 2977TIP3    H2 8875   7.232   0.394   2.503
 2978TIP3   OH2 8876   3.591   3.164   3.017
 2978TIP3    H1 8877   3.496   3.168   3.002
 2978TIP3    H2 8878   3.609   3.072   3.032
 2979TIP3   OH2 8879   8.153   2.420   3.653
 2979TIP3    H1 8880   8.109   2.433   3.737
 2979TIP3    H2 8881   8.121   2.335   3.622
 2980TIP3   OH2 8882   2.567   5.364   2.005
 2980TIP3    H1 8883   2.500   5.410   1.955
 2980TIP3    H2 8884   2.531   5.359   2.094
 2981TIP3   OH2 8885   4.617   3.531   0.162
 2981TIP3    H1 8886   4.610   3.483   0.245
 2981TIP3    H2 8887   4.711   3.537   0.146
 2982TIP3   OH2 8888   2.426   5.959   1.712
 2982TIP3    H1 8889   2.371   5.987   1.640
 2982TIP3    H2 8890   2.372   5.897   1.761
 2983TIP3   OH2 8891   3.477   5.082   2.930
 2983TIP3    H1 8892   3.496   5.160   2.982
 2983TIP3    H2 8893   3.543   5.018   2.957
 2984TIP3   OH2 8894   4.233   5.094   4.508
 2984TIP3    H1 8895   4.139   5.078   4.496
 2984TIP3    H2 8896   4.240   5.130   4.596
 2985TIP3   OH2 8897   5.108   3.093   6.815
 2985TIP3    H1 8898   5.050   3.018   6.811
 2985TIP3    H2 8899   5.087   3.145   6.738
 2986TIP3   OH2 8900   4.309   4.043   6.131
 2986TIP3    H1 8901   4.216   4.024   6.140
 2986TIP3    H2 8902   4.312   4.135   6.104
 2987TIP3   OH2 8903   2.240   5.430   2.978
 2987TIP3    H1 8904   2.186   5.451   2.901
 2987TIP3    H2 8905   2.182   5.379   3.035
 2988TIP3   OH2 8906   6.277   2.959   4.277
 2988TIP3    H1 8907   6.226   2.902   4.334
 2988TIP3    H2 8908   6.335   3.006   4.337
 2989TIP3   OH2 8909   3.783   5.880   0.594
 2989TIP3    H1 8910   3.810   5.850   0.680
 2989TIP3    H2 8911   3.863   5.876   0.541
 2990TIP3   OH2 8912   1.861   6.292   1.590
 2990TIP3    H1 8913   1.895   6.278   1.502
 2990TIP3    H2 8914   1.767   6.277   1.582
 2991TIP3   OH2 8915   2.344   3.972   2.110
 2991TIP3    H1 8916   2.256   3.996   2.081
 2991TIP3    H2 8917   2.343   3.984   2.205
 2992TIP3   OH2 8918   3.748   0.923   3.694
 2992TIP3    H1 8919   3.799   0.843   3.710
 2992TIP3    H2 8920   3.811   0.984   3.656
 2993TIP3   OH2 8921   3.156   7.346   5.342
 2993TIP3    H1 8922   3.112   7.380   5.263
 2993TIP3    H2 8923   3.085   7.327   5.402
 2994TIP3   OH2 8924   6.188   0.570   4.619
 2994TIP3    H1 8925   6.187   0.528   4.533
 2994TIP3    H2 8926   6.108   0.623   4.621
 2995TIP3   OH2 8927   4.112   5.682   0.116
 2995TIP3    H1 8928   4.159   5.733   0.182
 2995TIP3    H2 8929   4.143   5.593   0.126
 2996TIP3   OH2 8930   5.583   0.817   2.732
 2996TIP3    H1 8931   5.675   0.811   2.758
 2996TIP3    H2 8932   5.582   0.788   2.641
 2997TIP3   OH2 8933   0.534   5.412   0.682
 2997TIP3    H1 8934   0.562   5.328   0.717
 2997TIP3    H2 8935   0.445   5.425   0.717
 2998TIP3   OH2 8936   5.616   2.502   6.599
 2998TIP3    H1 8937   5.605   2.552   6.518
 2998TIP3    H2 8938   5.709   2.479   6.601
 2999TIP3   OH2 8939   2.933   6.718   0.567
 2999TIP3    H1 8940   2.952   6.683   0.654
 2999TIP3    H2 8941   2.971   6.654   0.506
 3000TIP3   OH2 8942   8.184   3.510   3.789
 3000TIP3    H1 8943   8.192   3.595   3.746
 3000TIP3    H2 8944   8.101   3.475   3.756
 3001TIP3   OH2 8945   5.440   5.507   1.246
 3001TIP3    H1 8946   5.473   5.558   1.173
 3001TIP3    H2 8947   5.446   5.565   1.322
 3002TIP3   OH2 8948   5.328   2.441   1.817
 3002TIP3    H1 8949   5.245   2.404   1.788
 3002TIP3    H2 8950   5.384   2.365   1.832
 3003TIP3   OH2 8951   0.262   7.277   4.019
 3003TIP3    H1 8952   0.206   7.226   3.961
 3003TIP3    H2 8953   0.285   7.355   3.968
 3004TIP3   OH2 8954   0.604   2.363   1.855
 3004TIP3    H1 8955   0.652   2.345   1.774
 3004TIP3    H2 8956   0.661   2.330   1.925
 3005TIP3   OH2 8957   5.980   2.234   6.172
 3005TIP3    H1 8958   5.928   2.157   6.148
 3005TIP3    H2 8959   5.998   2.278   6.089
 3006TIP3   OH2 8960   1.322   6.630   4.060
 3006TIP3    H1 8961   1.306   6.722   4.082
 3006TIP3    H2 8962   1.416   6.624   4.048
 3007TIP3   OH2 8963   4.635   3.186   4.162
 3007TIP3    H1 8964   4.555   3.214   4.117
 3007TIP3    H2 8965   4.613   3.101   4.200
 3008TIP3   OH2 8966   3.912   2.899   2.994
 3008TIP3    H1 8967   3.963   2.827   3.031
 3008TIP3    H2 8968   3.823   2.885   3.025
 3009TIP3   OH2 8969   2.197   1.257   6.306
 3009TIP3    H1 8970   2.122   1.311   6.327
 3009TIP3    H2 8971   2.233   1.231   6.391
 3010TIP3   OH2 8972   2.089   6.260   1.715
 3010TIP3    H1 8973   2.006   6.282   1.673
 3010TIP3    H2 8974   2.124   6.186   1.664
 3011TIP3   OH2 8975   2.767   7.727   6.647
 3011TIP3    H1 8976   2.781   7.820   6.633
 3011TIP3    H2 8977   2.714   7.721   6.726
 3012TIP3   OH2 8978   2.451   6.695   3.085
 3012TIP3    H1 8979   2.429   6.633   3.015
 3012TIP3    H2 8980   2.370   6.702   3.137
 3013TIP3   OH2 8981   1.638   6.464   0.811
 3013TIP3    H1 8982   1.678   6.430   0.731
 3013TIP3    H2 8983   1.687   6.423   0.882
 3014TIP3   OH2 8984   2.460   4.003   6.008
 3014TIP3    H1 8985   2.501   4.039   5.929
 3014TIP3    H2 8986   2.418   4.078   6.049
 3015TIP3   OH2 8987   8.245   7.698   5.238
 3015TIP3    H1 8988   8.175   7.683   5.301
 3015TIP3    H2 8989   8.317   7.642   5.267
 3016TIP3   OH2 8990   0.878   1.580   4.504
 3016TIP3    H1 8991   0.930   1.577   4.584
 3016TIP3    H2 8992   0.796   1.621   4.531
 3017TIP3   OH2 8993   1.447   7.118   4.322
 3017TIP3    H1 8994   1.381   7.123   4.392
 3017TIP3    H2 8995   1.530   7.108   4.369
 3018TIP3   OH2 8996   0.135   4.760   3.172
 3018TIP3    H1 8997   0.183   4.814   3.234
 3018TIP3    H2 8998   0.112   4.681   3.222
 3019TIP3   OH2 8999   3.473   5.347   2.148
 3019TIP3    H1 9000   3.489   5.337   2.242
 3019TIP3    H2 9001   3.544   5.403   2.118
 3020TIP3   OH2 9002   0.370   3.232   4.389
 3020TIP3    H1 9003   0.312   3.157   4.401
 3020TIP3    H2 9004   0.339   3.297   4.452
 3021TIP3   OH2 9005   3.315   5.186   1.008
 3021TIP3    H1 9006   3.306   5.218   1.098
 3021TIP3    H2 9007   3.409   5.170   0.998
 3022TIP3   OH2 9008   1.561   2.686  -0.007
 3022TIP3    H1 9009   1.583   2.779  -0.006
 3022TIP3    H2 9010   1.574   2.657   0.083
 3023TIP3   OH2 9011   6.684   2.092   2.675
 3023TIP3    H1 9012   6.742   2.023   2.709
 3023TIP3    H2 9013   6.725   2.174   2.703
 3024TIP3   OH2 9014   3.737   1.215   4.538
 3024TIP3    H1 9015   3.728   1.185   4.628
 3024TIP3    H2 9016   3.655   1.191   4.496
 3025TIP3   OH2 9017   6.036   3.979   0.329
 3025TIP3    H1 9018   5.958   4.018   0.370
 3025TIP3    H2 9019   6.006   3.893   0.300
 3026TIP3   OH2 9020   1.694   1.622   4.108
 3026TIP3    H1 9021   1.773   1.636   4.056
 3026TIP3    H2 9022   1.626   1.670   4.062
 3027TIP3   OH2 9023   7.815   1.615   2.958
 3027TIP3    H1 9024   7.800   1.526   2.925
 3027TIP3    H2 9025   7.803   1.671   2.881
 3028TIP3   OH2 9026   4.571   0.968   3.683
 3028TIP3    H1 9027   4.562   0.893   3.742
 3028TIP3    H2 9028   4.632   0.938   3.615
 3029TIP3   OH2 9029   6.903   3.988   4.238
 3029TIP3    H1 9030   6.871   3.970   4.150
 3029TIP3    H2 9031   6.825   4.015   4.286
 3030TIP3   OH2 9032   6.674   7.119   1.705
 3030TIP3    H1 9033   6.618   7.182   1.751
 3030TIP3    H2 9034   6.763   7.152   1.717
 3031TIP3   OH2 9035   2.466   3.569   1.288
 3031TIP3    H1 9036   2.457   3.615   1.371
 3031TIP3    H2 9037   2.557   3.540   1.286
 3032TIP3   OH2 9038   4.182   7.429   2.450
 3032TIP3    H1 9039   4.238   7.452   2.376
 3032TIP3    H2 9040   4.168   7.334   2.441
 3033TIP3   OH2 9041   4.790   2.938   5.141
 3033TIP3    H1 9042   4.880   2.921   5.170
 3033TIP3    H2 9043   4.778   2.881   5.065
 3034TIP3   OH2 9044   5.667   1.251   3.319
 3034TIP3    H1 9045   5.696   1.273   3.230
 3034TIP3    H2 9046   5.609   1.176   3.308
 3035TIP3   OH2 9047   2.518   1.793   2.533
 3035TIP3    H1 9048   2.541   1.854   2.462
 3035TIP3    H2 9049   2.597   1.789   2.587
 3036TIP3   OH2 9050   3.708   2.489   3.239
 3036TIP3    H1 9051   3.702   2.413   3.297
 3036TIP3    H2 9052   3.617   2.513   3.221
 3037TIP3   OH2 9053   3.694   6.007   1.743
 3037TIP3    H1 9054   3.651   5.921   1.746
 3037TIP3    H2 9055   3.787   5.987   1.743
 3038TIP3   OH2 9056   4.149   6.400   4.695
 3038TIP3    H1 9057   4.089   6.396   4.769
 3038TIP3    H2 9058   4.093   6.420   4.620
 3039TIP3   OH2 9059   6.159   7.150   4.405
 3039TIP3    H1 9060   6.219   7.183   4.339
 3039TIP3    H2 9061   6.124   7.229   4.447
 3040TIP3   OH2 9062   8.168   7.288   0.792
 3040TIP3    H1 9063   8.103   7.276   0.861
 3040TIP3    H2 9064   8.117   7.313   0.715
 3041TIP3   OH2 9065   7.908   5.780   0.957
 3041TIP3    H1 9066   7.945   5.710   0.904
 3041TIP3    H2 9067   7.839   5.818   0.902
 3042TIP3   OH2 9068   1.585   4.488   1.549
 3042TIP3    H1 9069   1.618   4.431   1.617
 3042TIP3    H2 9070   1.492   4.500   1.570
 3043TIP3   OH2 9071   5.020   7.430   4.903
 3043TIP3    H1 9072   5.090   7.366   4.897
 3043TIP3    H2 9073   4.940   7.378   4.915
 3044TIP3   OH2 9074   0.247   1.378   1.239
 3044TIP3    H1 9075   0.182   1.384   1.309
 3044TIP3    H2 9076   0.298   1.459   1.248
 3045TIP3   OH2 9077   0.011   4.155   5.519
 3045TIP3    H1 9078   0.031   4.187   5.431
 3045TIP3    H2 9079  -0.053   4.218   5.552
 3046TIP3   OH2 9080   6.233   5.429   5.893
 3046TIP3    H1 9081   6.145   5.390   5.897
 3046TIP3    H2 9082   6.274   5.405   5.976
 3047TIP3   OH2 9083   1.747   7.193   0.392
 3047TIP3    H1 9084   1.707   7.159   0.472
 3047TIP3    H2 9085   1.773   7.283   0.414
 3048TIP3   OH2 9086   4.743   7.472   6.175
 3048TIP3    H1 9087   4.741   7.377   6.170
 3048TIP3    H2 9088   4.740   7.491   6.269
 3049TIP3   OH2 9089   2.197   7.315   4.900
 3049TIP3    H1 9090   2.151   7.261   4.964
 3049TIP3    H2 9091   2.128   7.360   4.851
 3050TIP3   OH2 9092   0.908   1.801   5.551
 3050TIP3    H1 9093   0.918   1.890   5.517
 3050TIP3    H2 9094   0.997   1.775   5.576
 3051TIP3   OH2 9095   4.340   4.895   1.933
 3051TIP3    H1 9096   4.362   4.968   1.990
 3051TIP3    H2 9097   4.375   4.920   1.847
 3052TIP3   OH2 9098   4.204   0.912   2.616
 3052TIP3    H1 9099   4.300   0.916   2.623
 3052TIP3    H2 9100   4.174   0.911   2.707
 3053TIP3   OH2 9101   5.574   7.368   5.862
 3053TIP3    H1 9102   5.606   7.411   5.782
 3053TIP3    H2 9103   5.498   7.317   5.833
 3054TIP3   OH2 9104   6.155   7.022   3.973
 3054TIP3    H1 9105   6.097   7.098   3.981
 3054TIP3    H2 9106   6.243   7.059   3.984
 3055TIP3   OH2 9107   7.493   3.171   3.668
 3055TIP3    H1 9108   7.402   3.192   3.648
 3055TIP3    H2 9109   7.516   3.102   3.606
 3056TIP3   OH2 9110   3.684   2.288   1.490
 3056TIP3    H1 9111   3.589   2.277   1.502
 3056TIP3    H2 9112   3.722   2.207   1.526
 3057TIP3   OH2 9113   7.916   6.164   1.192
 3057TIP3    H1 9114   7.872   6.231   1.246
 3057TIP3    H2 9115   7.876   6.082   1.220
 3058TIP3   OH2 9116   0.383   3.155   1.340
 3058TIP3    H1 9117   0.303   3.112   1.310
 3058TIP3    H2 9118   0.425   3.090   1.398
 3059TIP3   OH2 9119   7.631   6.982   2.916
 3059TIP3    H1 9120   7.580   7.003   2.995
 3059TIP3    H2 9121   7.701   6.926   2.947
 3060TIP3   OH2 9122   7.746   5.879   3.758
 3060TIP3    H1 9123   7.651   5.881   3.766
 3060TIP3    H2 9124   7.778   5.909   3.843
 3061TIP3   OH2 9125   6.719   6.695   3.772
 3061TIP3    H1 9126   6.668   6.614   3.783
 3061TIP3    H2 9127   6.692   6.728   3.686
 3062TIP3   OH2 9128   5.241   5.674   5.624
 3062TIP3    H1 9129   5.282   5.685   5.710
 3062TIP3    H2 9130   5.297   5.610   5.579
 3063TIP3   OH2 9131   7.310   0.364   5.651
 3063TIP3    H1 9132   7.244   0.305   5.688
 3063TIP3    H2 9133   7.313   0.340   5.558
 3064TIP3   OH2 9134   3.171   3.724   6.797
 3064TIP3    H1 9135   3.089   3.765   6.826
 3064TIP3    H2 9136   3.156   3.703   6.705
 3065TIP3   OH2 9137   5.322   5.963   6.244
 3065TIP3    H1 9138   5.346   6.055   6.236
 3065TIP3    H2 9139   5.403   5.918   6.268
 3066TIP3   OH2 9140   7.660   2.512   1.825
 3066TIP3    H1 9141   7.660   2.591   1.880
 3066TIP3    H2 9142   7.624   2.542   1.741
 3067TIP3   OH2 9143   1.245   1.426   5.501
 3067TIP3    H1 9144   1.304   1.378   5.559
 3067TIP3    H2 9145   1.281   1.514   5.497
 3068TIP3   OH2 9146   2.824   1.544   3.949
 3068TIP3    H1 9147   2.768   1.607   3.994
 3068TIP3    H2 9148   2.910   1.586   3.947
 3069TIP3   OH2 9149   8.161   3.111   4.391
 3069TIP3    H1 9150   8.095   3.069   4.446
 3069TIP3    H2 9151   8.174   3.197   4.431
 3070TIP3   OH2 9152   0.161   1.903   1.110
 3070TIP3    H1 9153   0.180   1.996   1.120
 3070TIP3    H2 9154   0.216   1.874   1.038
 3071TIP3   OH2 9155   2.910   1.922   2.332
 3071TIP3    H1 9156   2.816   1.909   2.317
 3071TIP3    H2 9157   2.930   1.864   2.405
 3072TIP3   OH2 9158   6.733   1.374  -0.012
 3072TIP3    H1 9159   6.797   1.415  -0.070
 3072TIP3    H2 9160   6.727   1.432   0.063
 3073TIP3   OH2 9161   6.881   5.391   1.546
 3073TIP3    H1 9162   6.885   5.485   1.529
 3073TIP3    H2 9163   6.842   5.384   1.633
 3074TIP3   OH2 9164   3.576   5.651   3.604
 3074TIP3    H1 9165   3.531   5.616   3.680
 3074TIP3    H2 9166   3.523   5.726   3.576
 3075TIP3   OH2 9167   2.096   3.430   3.925
 3075TIP3    H1 9168   2.167   3.374   3.895
 3075TIP3    H2 9169   2.140   3.501   3.973
 3076TIP3   OH2 9170   2.049   4.994   0.902
 3076TIP3    H1 9171   2.061   5.051   0.978
 3076TIP3    H2 9172   2.021   4.910   0.939
 3077TIP3   OH2 9173   4.345   7.655   4.592
 3077TIP3    H1 9174   4.279   7.603   4.639
 3077TIP3    H2 9175   4.339   7.625   4.501
 3078TIP3   OH2 9176   5.856   7.837   2.544
 3078TIP3    H1 9177   5.912   7.883   2.607
 3078TIP3    H2 9178   5.768   7.844   2.581
 3079TIP3   OH2 9179   6.566   6.720   2.872
 3079TIP3    H1 9180   6.616   6.721   2.791
 3079TIP3    H2 9181   6.496   6.784   2.858
 3080TIP3   OH2 9182   8.122   2.917   2.190
 3080TIP3    H1 9183   8.147   2.838   2.238
 3080TIP3    H2 9184   8.043   2.948   2.233
 3081TIP3   OH2 9185   3.316   2.997   2.496
 3081TIP3    H1 9186   3.346   3.020   2.409
 3081TIP3    H2 9187   3.220   3.000   2.491
 3082TIP3   OH2 9188   6.611   6.923   0.296
 3082TIP3    H1 9189   6.644   7.006   0.331
 3082TIP3    H2 9190   6.590   6.942   0.205
 3083TIP3   OH2 9191   2.394   2.668   4.100
 3083TIP3    H1 9192   2.333   2.694   4.031
 3083TIP3    H2 9193   2.470   2.726   4.088
 3084TIP3   OH2 9194   1.091   1.657   3.899
 3084TIP3    H1 9195   1.094   1.596   3.825
 3084TIP3    H2 9196   1.021   1.624   3.955
 3085TIP3   OH2 9197   6.245   5.778   2.622
 3085TIP3    H1 9198   6.338   5.763   2.640
 3085TIP3    H2 9199   6.244   5.827   2.540
 3086TIP3   OH2 9200   3.160   5.523   5.974
 3086TIP3    H1 9201   3.136   5.474   6.052
 3086TIP3    H2 9202   3.122   5.473   5.902
 3087TIP3   OH2 9203   3.636   2.089   0.503
 3087TIP3    H1 9204   3.727   2.064   0.517
 3087TIP3    H2 9205   3.591   2.008   0.480
 3088TIP3   OH2 9206   3.733   1.133   4.805
 3088TIP3    H1 9207   3.650   1.103   4.842
 3088TIP3    H2 9208   3.782   1.169   4.879
 3089TIP3   OH2 9209   1.532   2.630   3.591
 3089TIP3    H1 9210   1.466   2.642   3.659
 3089TIP3    H2 9211   1.522   2.706   3.534
 3090TIP3   OH2 9212   4.945   4.962   3.329
 3090TIP3    H1 9213   5.015   4.915   3.375
 3090TIP3    H2 9214   4.891   4.999   3.399
 3091TIP3   OH2 9215   3.622   1.533   1.699
 3091TIP3    H1 9216   3.668   1.491   1.626
 3091TIP3    H2 9217   3.688   1.540   1.768
 3092TIP3   OH2 9218   2.684   5.756   5.557
 3092TIP3    H1 9219   2.751   5.824   5.562
 3092TIP3    H2 9220   2.619   5.791   5.496
 3093TIP3   OH2 9221   7.589   4.001   1.398
 3093TIP3    H1 9222   7.554   3.913   1.410
 3093TIP3    H2 9223   7.669   3.988   1.346
 3094TIP3   OH2 9224   5.490   3.200  -0.018
 3094TIP3    H1 9225   5.447   3.285  -0.008
 3094TIP3    H2 9226   5.482   3.180  -0.111
 3095TIP3   OH2 9227   5.469   5.372   5.285
 3095TIP3    H1 9228   5.552   5.330   5.307
 3095TIP3    H2 9229   5.411   5.349   5.357
 3096TIP3   OH2 9230   3.705   4.985   0.551
 3096TIP3    H1 9231   3.794   4.965   0.583
 3096TIP3    H2 9232   3.667   4.899   0.533
 3097TIP3   OH2 9233   0.978   4.075   2.941
 3097TIP3    H1 9234   0.924   4.143   2.981
 3097TIP3    H2 9235   0.991   4.105   2.851
 3098TIP3   OH2 9236   2.214   0.869   2.348
 3098TIP3    H1 9237   2.150   0.919   2.298
 3098TIP3    H2 9238   2.247   0.803   2.286
 3099TIP3   OH2 9239   4.471   1.185   0.552
 3099TIP3    H1 9240   4.503   1.240   0.480
 3099TIP3    H2 9241   4.383   1.217   0.569
 3100TIP3   OH2 9242   0.604   0.009   1.581
 3100TIP3    H1 9243   0.653   0.089   1.560
 3100TIP3    H2 9244   0.512   0.035   1.572
 3101TIP3   OH2 9245   1.257   0.488   1.934
 3101TIP3    H1 9246   1.260   0.577   1.901
 3101TIP3    H2 9247   1.344   0.472   1.970
 3102TIP3   OH2 9248   0.377   3.319   2.951
 3102TIP3    H1 9249   0.355   3.392   2.893
 3102TIP3    H2 9250   0.309   3.254   2.936
 3103TIP3   OH2 9251   0.119   6.033   3.513
 3103TIP3    H1 9252   0.089   6.115   3.473
 3103TIP3    H2 9253   0.196   6.008   3.462
 3104TIP3   OH2 9254   6.068   5.019   3.221
 3104TIP3    H1 9255   6.154   5.056   3.204
 3104TIP3    H2 9256   6.047   5.047   3.311
 3105TIP3   OH2 9257   1.500   2.249   0.714
 3105TIP3    H1 9258   1.585   2.250   0.757
 3105TIP3    H2 9259   1.490   2.160   0.682
 3106TIP3   OH2 9260   7.213   5.890   3.470
 3106TIP3    H1 9261   7.195   5.818   3.410
 3106TIP3    H2 9262   7.134   5.943   3.469
 3107TIP3   OH2 9263   0.415   1.062   5.176
 3107TIP3    H1 9264   0.488   1.101   5.127
 3107TIP3    H2 9265   0.411   1.112   5.257
 3108TIP3   OH2 9266   4.955   7.515   3.373
 3108TIP3    H1 9267   4.976   7.528   3.466
 3108TIP3    H2 9268   5.012   7.576   3.327
 3109TIP3   OH2 9269   1.189  -0.064   4.673
 3109TIP3    H1 9270   1.205  -0.009   4.750
 3109TIP3    H2 9271   1.094  -0.066   4.665
 3110TIP3   OH2 9272   3.317   3.545   5.171
 3110TIP3    H1 9273   3.273   3.482   5.113
 3110TIP3    H2 9274   3.322   3.625   5.119
 3111TIP3   OH2 9275   6.329   2.251   3.722
 3111TIP3    H1 9276   6.280   2.313   3.775
 3111TIP3    H2 9277   6.279   2.243   3.641
 3112TIP3   OH2 9278   0.426   7.853   3.429
 3112TIP3    H1 9279   0.502   7.850   3.487
 3112TIP3    H2 9280   0.460   7.831   3.342
 3113TIP3   OH2 9281   7.406   1.974   1.954
 3113TIP3    H1 9282   7.394   2.067   1.935
 3113TIP3    H2 9283   7.487   1.950   1.910
 3114TIP3   OH2 9284   5.889   1.388   4.238
 3114TIP3    H1 9285   5.894   1.483   4.228
 3114TIP3    H2 9286   5.841   1.358   4.161
 3115TIP3   OH2 9287   0.328   1.469   3.251
 3115TIP3    H1 9288   0.357   1.545   3.302
 3115TIP3    H2 9289   0.406   1.415   3.242
 3116TIP3   OH2 9290   0.123   7.270   0.688
 3116TIP3    H1 9291   0.033   7.289   0.713
 3116TIP3    H2 9292   0.122   7.268   0.592
 3117TIP3   OH2 9293   0.275   1.075   5.488
 3117TIP3    H1 9294   0.342   1.040   5.547
 3117TIP3    H2 9295   0.236   1.148   5.536
 3118TIP3   OH2 9296   5.924   7.737   5.158
 3118TIP3    H1 9297   5.859   7.807   5.165
 3118TIP3    H2 9298   5.879   7.668   5.109
 3119TIP3   OH2 9299   3.335   2.341   3.300
 3119TIP3    H1 9300   3.402   2.280   3.331
 3119TIP3    H2 9301   3.321   2.316   3.208
 3120TIP3   OH2 9302   6.885   2.622   6.451
 3120TIP3    H1 9303   6.830   2.558   6.496
 3120TIP3    H2 9304   6.974   2.603   6.482
 3121TIP3   OH2 9305   5.933   6.007   6.487
 3121TIP3    H1 9306   5.952   5.917   6.459
 3121TIP3    H2 9307   6.013   6.035   6.533
 3122TIP3   OH2 9308   7.276   0.180   2.813
 3122TIP3    H1 9309   7.192   0.151   2.849
 3122TIP3    H2 9310   7.282   0.272   2.838
 3123TIP3   OH2 9311   4.012   1.530   0.664
 3123TIP3    H1 9312   4.010   1.535   0.760
 3123TIP3    H2 9313   4.104   1.548   0.642
 3124TIP3   OH2 9314   2.106   1.142   3.562
 3124TIP3    H1 9315   2.095   1.108   3.473
 3124TIP3    H2 9316   2.199   1.128   3.582
 3125TIP3   OH2 9317   0.142   4.911   0.907
 3125TIP3    H1 9318   0.124   4.941   0.996
 3125TIP3    H2 9319   0.055   4.892   0.870
 3126TIP3   OH2 9320   3.427   2.881   3.314
 3126TIP3    H1 9321   3.383   2.845   3.238
 3126TIP3    H2 9322   3.423   2.812   3.380
 3127TIP3   OH2 9323   3.662   0.921   4.616
 3127TIP3    H1 9324   3.632   0.973   4.691
 3127TIP3    H2 9325   3.610   0.841   4.620
 3128TIP3   OH2 9326   3.693   7.788   3.828
 3128TIP3    H1 9327   3.746   7.757   3.755
 3128TIP3    H2 9328   3.747   7.855   3.870
 3129TIP3   OH2 9329   6.434   7.622   0.364
 3129TIP3    H1 9330   6.442   7.604   0.457
 3129TIP3    H2 9331   6.468   7.710   0.353
 3130TIP3   OH2 9332   2.155   7.361   6.669
 3130TIP3    H1 9333   2.157   7.333   6.577
 3130TIP3    H2 9334   2.239   7.331   6.705
 3131TIP3   OH2 9335   4.416   1.781   1.567
 3131TIP3    H1 9336   4.455   1.694   1.573
 3131TIP3    H2 9337   4.326   1.768   1.597
 3132TIP3   OH2 9338   3.488   4.417   3.087
 3132TIP3    H1 9339   3.479   4.326   3.059
 3132TIP3    H2 9340   3.573   4.420   3.133
 3133TIP3   OH2 9341   6.348   1.528   6.162
 3133TIP3    H1 9342   6.389   1.615   6.157
 3133TIP3    H2 9343   6.278   1.531   6.097
 3134TIP3   OH2 9344   6.255   5.372   2.237
 3134TIP3    H1 9345   6.346   5.343   2.246
 3134TIP3    H2 9346   6.207   5.292   2.217
 3135TIP3   OH2 9347   2.453   1.342   6.397
 3135TIP3    H1 9348   2.520   1.379   6.339
 3135TIP3    H2 9349   2.371   1.358   6.352
 3136TIP3   OH2 9350   7.113  -0.004   1.238
 3136TIP3    H1 9351   7.141   0.021   1.150
 3136TIP3    H2 9352   7.131   0.073   1.292
 3137TIP3   OH2 9353   1.656   5.686   4.904
 3137TIP3    H1 9354   1.571   5.702   4.945
 3137TIP3    H2 9355   1.713   5.755   4.938
 3138TIP3   OH2 9356   6.623   7.157   4.272
 3138TIP3    H1 9357   6.601   7.068   4.245
 3138TIP3    H2 9358   6.553   7.182   4.332
 3139TIP3   OH2 9359   1.973   6.867   0.026
 3139TIP3    H1 9360   2.066   6.889   0.029
 3139TIP3    H2 9361   1.952   6.837   0.114
 3140TIP3   OH2 9362   0.808   7.462   6.644
 3140TIP3    H1 9363   0.819   7.453   6.739
 3140TIP3    H2 9364   0.778   7.376   6.615
 3141TIP3   OH2 9365   2.555   6.990   2.302
 3141TIP3    H1 9366   2.622   6.964   2.365
 3141TIP3    H2 9367   2.578   6.942   2.222
 3142TIP3   OH2 9368   5.842   7.073   1.898
 3142TIP3    H1 9369   5.769   7.135   1.901
 3142TIP3    H2 9370   5.831   7.018   1.976
 3143TIP3   OH2 9371   5.952   6.667   6.698
 3143TIP3    H1 9372   5.859   6.644   6.695
 3143TIP3    H2 9373   5.990   6.615   6.627
 3144TIP3   OH2 9374   6.074   6.632   3.477
 3144TIP3    H1 9375   6.124   6.583   3.412
 3144TIP3    H2 9376   6.136   6.646   3.549
 3145TIP3   OH2 9377   4.255   2.753   5.177
 3145TIP3    H1 9378   4.324   2.797   5.127
 3145TIP3    H2 9379   4.297   2.674   5.211
 3146TIP3   OH2 9380   3.905   5.436   2.162
 3146TIP3    H1 9381   3.932   5.448   2.254
 3146TIP3    H2 9382   3.824   5.485   2.155
 3147TIP3   OH2 9383   0.061   1.882   2.482
 3147TIP3    H1 9384   0.001   1.957   2.479
 3147TIP3    H2 9385   0.135   1.913   2.535
 3148TIP3   OH2 9386   5.158   1.000   1.177
 3148TIP3    H1 9387   5.196   0.915   1.157
 3148TIP3    H2 9388   5.144   0.999   1.272
 3149TIP3   OH2 9389   7.360   6.170   5.792
 3149TIP3    H1 9390   7.333   6.233   5.725
 3149TIP3    H2 9391   7.298   6.097   5.783
 3150TIP3   OH2 9392   2.491   5.299   0.378
 3150TIP3    H1 9393   2.539   5.280   0.458
 3150TIP3    H2 9394   2.436   5.374   0.400
 3151TIP3   OH2 9395   0.804   6.463   2.563
 3151TIP3    H1 9396   0.829   6.472   2.471
 3151TIP3    H2 9397   0.866   6.517   2.611
 3152TIP3   OH2 9398   2.039   3.640   2.486
 3152TIP3    H1 9399   2.117   3.595   2.517
 3152TIP3    H2 9400   2.041   3.630   2.391
 3153TIP3   OH2 9401   8.053   1.423   4.226
 3153TIP3    H1 9402   8.019   1.394   4.141
 3153TIP3    H2 9403   7.976   1.429   4.282
 3154TIP3   OH2 9404   2.333   7.538   2.547
 3154TIP3    H1 9405   2.373   7.460   2.585
 3154TIP3    H2 9406   2.367   7.541   2.457
 3155TIP3   OH2 9407   2.221   2.307   3.082
 3155TIP3    H1 9408   2.306   2.284   3.120
 3155TIP3    H2 9409   2.171   2.341   3.156
 3156TIP3   OH2 9410   7.671   0.182   4.467
 3156TIP3    H1 9411   7.742   0.123   4.492
 3156TIP3    H2 9412   7.707   0.233   4.394
 3157TIP3   OH2 9413   0.735   0.081   3.832
 3157TIP3    H1 9414   0.799   0.145   3.801
 3157TIP3    H2 9415   0.766  -0.002   3.797
 3158TIP3   OH2 9416   0.026   0.339   0.205
 3158TIP3    H1 9417  -0.032   0.264   0.218
 3158TIP3    H2 9418   0.040   0.342   0.110
 3159TIP3   OH2 9419   7.001   3.013   4.955
 3159TIP3    H1 9420   7.022   3.021   5.048
 3159TIP3    H2 9421   7.003   3.103   4.922
 3160TIP3   OH2 9422   0.802   1.911   5.779
 3160TIP3    H1 9423   0.835   1.880   5.695
 3160TIP3    H2 9424   0.790   1.831   5.831
 3161TIP3   OH2 9425   7.027   3.720   0.946
 3161TIP3    H1 9426   7.091   3.789   0.964
 3161TIP3    H2 9427   7.054   3.683   0.862
 3162TIP3   OH2 9428   5.135   6.717   5.688
 3162TIP3    H1 9429   5.124   6.623   5.705
 3162TIP3    H2 9430   5.048   6.747   5.661
 3163TIP3   OH2 9431   0.358   0.115   0.070
 3163TIP3    H1 9432   0.409   0.116  -0.011
 3163TIP3    H2 9433   0.342   0.207   0.088
 3164TIP3   OH2 9434   0.371   1.792   0.936
 3164TIP3    H1 9435   0.323   1.793   0.853
 3164TIP3    H2 9436   0.460   1.819   0.912
 3165TIP3   OH2 9437   0.059   5.711   0.860
 3165TIP3    H1 9438   0.090   5.725   0.771
 3165TIP3    H2 9439  -0.027   5.671   0.850
 3166TIP3   OH2 9440   6.023   4.945   0.112
 3166TIP3    H1 9441   6.066   4.879   0.166
 3166TIP3    H2 9442   6.081   5.021   0.114
 3167TIP3   OH2 9443   5.744   1.299   5.077
 3167TIP3    H1 9444   5.678   1.235   5.105
 3167TIP3    H2 9445   5.771   1.270   4.990
 3168TIP3   OH2 9446   3.817   2.297   4.565
 3168TIP3    H1 9447   3.835   2.205   4.585
 3168TIP3    H2 9448   3.899   2.331   4.529
 3169TIP3   OH2 9449   7.069   5.581   5.724
 3169TIP3    H1 9450   7.040   5.647   5.787
 3169TIP3    H2 9451   7.123   5.521   5.776
 3170TIP3   OH2 9452   0.039   0.903   6.198
 3170TIP3    H1 9453   0.114   0.919   6.142
 3170TIP3    H2 9454  -0.037   0.920   6.143
 3171TIP3   OH2 9455   7.950   6.427   0.874
 3171TIP3    H1 9456   8.033   6.452   0.833
 3171TIP3    H2 9457   7.886   6.433   0.803
 3172TIP3   OH2 9458   7.195   7.151   2.232
 3172TIP3    H1 9459   7.244   7.186   2.307
 3172TIP3    H2 9460   7.263   7.132   2.167
 3173TIP3   OH2 9461   4.175   7.366   2.923
 3173TIP3    H1 9462   4.156   7.316   2.844
 3173TIP3    H2 9463   4.246   7.318   2.966
 3174TIP3   OH2 9464   4.559   1.314   2.993
 3174TIP3    H1 9465   4.517   1.235   3.028
 3174TIP3    H2 9466   4.619   1.283   2.926
 3175TIP3   OH2 9467   6.993   1.846   5.761
 3175TIP3    H1 9468   6.911   1.853   5.712
 3175TIP3    H2 9469   6.967   1.857   5.853
 3176TIP3   OH2 9470   4.653   7.442   3.570
 3176TIP3    H1 9471   4.584   7.473   3.629
 3176TIP3    H2 9472   4.638   7.347   3.563
 3177TIP3   OH2 9473   0.031   1.484   6.133
 3177TIP3    H1 9474   0.007   1.418   6.197
 3177TIP3    H2 9475  -0.038   1.550   6.139
 3178TIP3   OH2 9476   4.801   3.212   0.487
 3178TIP3    H1 9477   4.893   3.234   0.471
 3178TIP3    H2 9478   4.784   3.241   0.577
 3179TIP3   OH2 9479   4.093   5.589   2.465
 3179TIP3    H1 9480   4.175   5.630   2.438
 3179TIP3    H2 9481   4.119   5.513   2.517
 3180TIP3   OH2 9482   5.321   6.957   5.713
 3180TIP3    H1 9483   5.334   7.020   5.785
 3180TIP3    H2 9484   5.242   6.910   5.737
 3181TIP3   OH2 9485   0.598   6.002   1.082
 3181TIP3    H1 9486   0.652   6.072   1.045
 3181TIP3    H2 9487   0.648   5.971   1.158
 3182TIP3   OH2 9488   6.699   1.908   4.533
 3182TIP3    H1 9489   6.721   1.869   4.617
 3182TIP3    H2 9490   6.675   1.834   4.477
 3183TIP3   OH2 9491   7.227   2.114   6.636
 3183TIP3    H1 9492   7.311   2.128   6.681
 3183TIP3    H2 9493   7.236   2.164   6.554
 3184TIP3   OH2 9494   0.699   4.594   6.073
 3184TIP3    H1 9495   0.604   4.586   6.069
 3184TIP3    H2 9496   0.731   4.503   6.071
 3185TIP3   OH2 9497   7.392   6.387   2.041
 3185TIP3    H1 9498   7.456   6.318   2.059
 3185TIP3    H2 9499   7.375   6.382   1.947
 3186TIP3   OH2 9500   7.478   7.400   4.098
 3186TIP3    H1 9501   7.401   7.449   4.069
 3186TIP3    H2 9502   7.445   7.311   4.115
 3187TIP3   OH2 9503   2.653   5.764   0.501
 3187TIP3    H1 9504   2.692   5.697   0.445
 3187TIP3    H2 9505   2.564   5.733   0.517
 3188TIP3   OH2 9506   0.962   7.133   4.389
 3188TIP3    H1 9507   1.023   7.061   4.409
 3188TIP3    H2 9508   1.008   7.186   4.324
 3189TIP3   OH2 9509   4.184   4.411   0.432
 3189TIP3    H1 9510   4.142   4.446   0.510
 3189TIP3    H2 9511   4.181   4.316   0.442
 3190TIP3   OH2 9512   2.019   5.609   3.222
 3190TIP3    H1 9513   2.004   5.681   3.283
 3190TIP3    H2 9514   1.954   5.621   3.154
 3191TIP3   OH2 9515   5.499   3.785   1.464
 3191TIP3    H1 9516   5.443   3.708   1.456
 3191TIP3    H2 9517   5.588   3.750   1.465
 3192TIP3   OH2 9518   5.453   1.198   6.672
 3192TIP3    H1 9519   5.529   1.219   6.618
 3192TIP3    H2 9520   5.409   1.127   6.625
 3193TIP3   OH2 9521   6.284   0.015   0.813
 3193TIP3    H1 9522   6.192   0.038   0.805
 3193TIP3    H2 9523   6.314   0.062   0.890
 3194TIP3   OH2 9524   1.727   4.063   5.634
 3194TIP3    H1 9525   1.652   4.062   5.692
 3194TIP3    H2 9526   1.753   4.155   5.630
 3195TIP3   OH2 9527   7.526   1.520   3.075
 3195TIP3    H1 9528   7.587   1.585   3.110
 3195TIP3    H2 9529   7.444   1.567   3.064
 3196TIP3   OH2 9530   2.808   3.624   4.832
 3196TIP3    H1 9531   2.761   3.548   4.798
 3196TIP3    H2 9532   2.797   3.692   4.766
 3197TIP3   OH2 9533   6.697   7.390   2.237
 3197TIP3    H1 9534   6.721   7.481   2.253
 3197TIP3    H2 9535   6.779   7.341   2.247
 3198TIP3   OH2 9536   6.668   5.050   3.670
 3198TIP3    H1 9537   6.721   5.118   3.628
 3198TIP3    H2 9538   6.725   5.015   3.739
 3199TIP3   OH2 9539   6.479   1.474   1.694
 3199TIP3    H1 9540   6.411   1.417   1.659
 3199TIP3    H2 9541   6.537   1.414   1.742
 3200TIP3   OH2 9542   5.235   4.907   4.432
 3200TIP3    H1 9543   5.144   4.932   4.413
 3200TIP3    H2 9544   5.227   4.833   4.492
 3201TIP3   OH2 9545   4.056   4.158   4.222
 3201TIP3    H1 9546   4.012   4.200   4.295
 3201TIP3    H2 9547   4.060   4.227   4.155
 3202TIP3   OH2 9548   4.165   2.980   2.041
 3202TIP3    H1 9549   4.160   2.987   2.136
 3202TIP3    H2 9550   4.258   2.983   2.021
 3203TIP3   OH2 9551   5.682   6.466   1.402
 3203TIP3    H1 9552   5.703   6.515   1.322
 3203TIP3    H2 9553   5.767   6.448   1.442
 3204TIP3   OH2 9554   3.676   1.742   5.404
 3204TIP3    H1 9555   3.750   1.776   5.453
 3204TIP3    H2 9556   3.600   1.759   5.460
 3205TIP3   OH2 9557   4.597   4.607   5.826
 3205TIP3    H1 9558   4.536   4.680   5.813
 3205TIP3    H2 9559   4.548   4.529   5.802
 3206TIP3   OH2 9560   4.410   6.195   1.655
 3206TIP3    H1 9561   4.454   6.216   1.737
 3206TIP3    H2 9562   4.337   6.138   1.681
 3207TIP3   OH2 9563   3.339   1.641   0.795
 3207TIP3    H1 9564   3.276   1.674   0.859
 3207TIP3    H2 9565   3.371   1.559   0.832
 3208TIP3   OH2 9566   6.418   1.514   0.418
 3208TIP3    H1 9567   6.374   1.519   0.503
 3208TIP3    H2 9568   6.488   1.450   0.431
 3209TIP3   OH2 9569   6.807   4.557   6.306
 3209TIP3    H1 9570   6.836   4.638   6.347
 3209TIP3    H2 9571   6.887   4.508   6.290
 3210TIP3   OH2 9572   7.109   1.594   2.268
 3210TIP3    H1 9573   7.015   1.577   2.271
 3210TIP3    H2 9574   7.117   1.680   2.226
 3211TIP3   OH2 9575   5.205   4.006   0.087
 3211TIP3    H1 9576   5.281   4.047   0.045
 3211TIP3    H2 9577   5.132   4.064   0.069
 3212TIP3   OH2 9578   7.755   6.546   2.233
 3212TIP3    H1 9579   7.812   6.601   2.286
 3212TIP3    H2 9580   7.695   6.608   2.191
 3213TIP3   OH2 9581   2.597   3.784   0.555
 3213TIP3    H1 9582   2.671   3.840   0.581
 3213TIP3    H2 9583   2.636   3.716   0.501
 3214TIP3   OH2 9584   1.354   0.517   0.351
 3214TIP3    H1 9585   1.399   0.557   0.277
 3214TIP3    H2 9586   1.409   0.442   0.374
 3215TIP3   OH2 9587   0.162   3.848   1.185
 3215TIP3    H1 9588   0.135   3.935   1.156
 3215TIP3    H2 9589   0.106   3.788   1.136
 3216TIP3   OH2 9590   6.859   7.202   5.511
 3216TIP3    H1 9591   6.892   7.152   5.435
 3216TIP3    H2 9592   6.825   7.283   5.473
 3217TIP3   OH2 9593   6.269   2.124   4.864
 3217TIP3    H1 9594   6.348   2.103   4.914
 3217TIP3    H2 9595   6.281   2.216   4.838
 3218TIP3   OH2 9596   2.738   0.560   2.875
 3218TIP3    H1 9597   2.698   0.508   2.805
 3218TIP3    H2 9598   2.814   0.601   2.834
 3219TIP3   OH2 9599   8.042   1.619   3.098
 3219TIP3    H1 9600   7.954   1.604   3.064
 3219TIP3    H2 9601   8.068   1.534   3.135
 3220TIP3   OH2 9602   6.767   0.573   5.270
 3220TIP3    H1 9603   6.684   0.532   5.248
 3220TIP3    H2 9604   6.828   0.500   5.282
 3221TIP3   OH2 9605   8.127   1.435   4.520
 3221TIP3    H1 9606   8.197   1.381   4.558
 3221TIP3    H2 9607   8.168   1.477   4.445
 3222TIP3   OH2 9608   6.571   0.923   3.437
 3222TIP3    H1 9609   6.658   0.895   3.466
 3222TIP3    H2 9610   6.553   0.871   3.360
 3223TIP3   OH2 9611   6.778   4.954   2.981
 3223TIP3    H1 9612   6.815   5.041   2.994
 3223TIP3    H2 9613   6.824   4.899   3.045
 3224TIP3   OH2 9614   0.846   5.086   5.071
 3224TIP3    H1 9615   0.791   5.144   5.018
 3224TIP3    H2 9616   0.899   5.038   5.008
 3225TIP3   OH2 9617   4.346   0.962   0.146
 3225TIP3    H1 9618   4.282   1.015   0.195
 3225TIP3    H2 9619   4.323   0.975   0.054
 3226TIP3   OH2 9620   3.908   5.309   4.787
 3226TIP3    H1 9621   3.957   5.351   4.857
 3226TIP3    H2 9622   3.927   5.361   4.709
 3227TIP3   OH2 9623   6.930   0.158   2.958
 3227TIP3    H1 9624   6.956   0.108   3.036
 3227TIP3    H2 9625   6.897   0.091   2.897
 3228TIP3   OH2 9626   4.044   2.241   6.171
 3228TIP3    H1 9627   3.955   2.273   6.163
 3228TIP3    H2 9628   4.077   2.238   6.081
 3229TIP3   OH2 9629   6.632   6.464   2.162
 3229TIP3    H1 9630   6.547   6.422   2.177
 3229TIP3    H2 9631   6.685   6.397   2.119
 3230TIP3   OH2 9632   6.939   4.597   2.306
 3230TIP3    H1 9633   7.018   4.567   2.351
 3230TIP3    H2 9634   6.965   4.680   2.265
 3231TIP3   OH2 9635   0.103   6.663   3.910
 3231TIP3    H1 9636   0.178   6.637   3.964
 3231TIP3    H2 9637   0.032   6.606   3.940
 3232TIP3   OH2 9638   8.272   6.199   0.650
 3232TIP3    H1 9639   8.187   6.159   0.667
 3232TIP3    H2 9640   8.262   6.290   0.679
 3233TIP3   OH2 9641   3.750   3.588   1.893
 3233TIP3    H1 9642   3.686   3.582   1.963
 3233TIP3    H2 9643   3.720   3.661   1.839
 3234TIP3   OH2 9644   3.810   4.394   0.965
 3234TIP3    H1 9645   3.741   4.416   1.028
 3234TIP3    H2 9646   3.881   4.360   1.018
 3235TIP3   OH2 9647   1.007   3.748   3.388
 3235TIP3    H1 9648   1.075   3.709   3.443
 3235TIP3    H2 9649   1.048   3.825   3.349
 3236TIP3   OH2 9650   8.187   2.411   1.166
 3236TIP3    H1 9651   8.132   2.474   1.118
 3236TIP3    H2 9652   8.242   2.465   1.223
 3237TIP3   OH2 9653   5.468   4.610   3.873
 3237TIP3    H1 9654   5.518   4.686   3.902
 3237TIP3    H2 9655   5.531   4.559   3.821
 3238TIP3   OH2 9656   2.747   5.018   2.975
 3238TIP3    H1 9657   2.766   4.973   2.892
 3238TIP3    H2 9658   2.681   5.083   2.952
 3239TIP3   OH2 9659   5.572   0.108   0.613
 3239TIP3    H1 9660   5.634   0.067   0.673
 3239TIP3    H2 9661   5.487   0.072   0.638
 3240TIP3   OH2 9662   4.973   5.035   2.084
 3240TIP3    H1 9663   5.023   4.982   2.147
 3240TIP3    H2 9664   4.885   4.997   2.085
 3241TIP3   OH2 9665   5.863   4.607   1.455
 3241TIP3    H1 9666   5.820   4.602   1.541
 3241TIP3    H2 9667   5.819   4.541   1.402
 3242TIP3   OH2 9668   6.235   7.146   0.167
 3242TIP3    H1 9669   6.174   7.081   0.133
 3242TIP3    H2 9670   6.182   7.198   0.229
 3243TIP3   OH2 9671   5.954   5.327   0.298
 3243TIP3    H1 9672   5.981   5.418   0.287
 3243TIP3    H2 9673   5.974   5.286   0.214
 3244TIP3   OH2 9674   2.499   6.257   5.482
 3244TIP3    H1 9675   2.547   6.326   5.526
 3244TIP3    H2 9676   2.561   6.220   5.419
 3245TIP3   OH2 9677   5.053   5.609   1.244
 3245TIP3    H1 9678   5.014   5.525   1.266
 3245TIP3    H2 9679   5.110   5.629   1.319
 3246TIP3   OH2 9680   7.122   6.844   1.355
 3246TIP3    H1 9681   7.111   6.812   1.445
 3246TIP3    H2 9682   7.106   6.767   1.300
 3247TIP3   OH2 9683   0.139   7.004   5.176
 3247TIP3    H1 9684   0.084   7.015   5.253
 3247TIP3    H2 9685   0.078   7.005   5.102
 3248TIP3   OH2 9686   5.375   0.451   5.446
 3248TIP3    H1 9687   5.463   0.483   5.426
 3248TIP3    H2 9688   5.330   0.451   5.362
 3249TIP3   OH2 9689   6.609   4.868   6.096
 3249TIP3    H1 9690   6.646   4.955   6.114
 3249TIP3    H2 9691   6.685   4.811   6.087
 3250TIP3   OH2 9692   3.485   1.074   4.457
 3250TIP3    H1 9693   3.541   1.007   4.496
 3250TIP3    H2 9694   3.442   1.116   4.531
 3251TIP3   OH2 9695   8.117   5.393   2.586
 3251TIP3    H1 9696   8.113   5.488   2.579
 3251TIP3    H2 9697   8.208   5.371   2.564
 3252TIP3   OH2 9698   5.350   6.837   2.763
 3252TIP3    H1 9699   5.433   6.812   2.804
 3252TIP3    H2 9700   5.352   6.933   2.763
 3253TIP3   OH2 9701   1.118   2.456   3.376
 3253TIP3    H1 9702   1.085   2.367   3.361
 3253TIP3    H2 9703   1.039   2.511   3.374
 3254TIP3   OH2 9704   6.872   1.955   3.737
 3254TIP3    H1 9705   6.800   2.009   3.771
 3254TIP3    H2 9706   6.843   1.865   3.749
 3255TIP3   OH2 9707   5.397   0.853   3.465
 3255TIP3    H1 9708   5.360   0.834   3.378
 3255TIP3    H2 9709   5.409   0.767   3.505
 3256TIP3   OH2 9710   4.432   5.131   3.687
 3256TIP3    H1 9711   4.359   5.183   3.722
 3256TIP3    H2 9712   4.505   5.192   3.681
 3257TIP3   OH2 9713   3.397   5.234   4.945
 3257TIP3    H1 9714   3.445   5.221   5.027
 3257TIP3    H2 9715   3.353   5.319   4.955
 3258TIP3   OH2 9716   0.447   0.582   5.842
 3258TIP3    H1 9717   0.413   0.553   5.927
 3258TIP3    H2 9718   0.530   0.625   5.864
 3259TIP3   OH2 9719   6.450   5.345   4.494
 3259TIP3    H1 9720   6.545   5.347   4.498
 3259TIP3    H2 9721   6.423   5.425   4.539
 3260TIP3   OH2 9722   6.860   0.523   3.857
 3260TIP3    H1 9723   6.784   0.581   3.862
 3260TIP3    H2 9724   6.927   0.567   3.909
 3261TIP3   OH2 9725   2.222   4.173   5.827
 3261TIP3    H1 9726   2.246   4.258   5.791
 3261TIP3    H2 9727   2.258   4.173   5.916
 3262TIP3   OH2 9728   1.743   3.863   4.635
 3262TIP3    H1 9729   1.787   3.910   4.706
 3262TIP3    H2 9730   1.813   3.844   4.573
 3263TIP3   OH2 9731   5.301   7.005   4.373
 3263TIP3    H1 9732   5.344   6.938   4.425
 3263TIP3    H2 9733   5.352   7.085   4.390
 3264TIP3   OH2 9734   2.382   5.590   4.165
 3264TIP3    H1 9735   2.445   5.531   4.207
 3264TIP3    H2 9736   2.299   5.569   4.207
 3265TIP3   OH2 9737   4.714   4.491   0.064
 3265TIP3    H1 9738   4.656   4.415   0.056
 3265TIP3    H2 9739   4.671   4.547   0.129
 3266TIP3   OH2 9740   0.771   1.525   2.827
 3266TIP3    H1 9741   0.759   1.568   2.912
 3266TIP3    H2 9742   0.825   1.448   2.846
 3267TIP3   OH2 9743   6.029   4.734   2.849
 3267TIP3    H1 9744   6.047   4.809   2.792
 3267TIP3    H2 9745   6.068   4.759   2.933
 3268TIP3   OH2 9746   4.834   1.490   0.144
 3268TIP3    H1 9747   4.838   1.510   0.238
 3268TIP3    H2 9748   4.797   1.569   0.105
 3269TIP3   OH2 9749   6.127   2.731   0.898
 3269TIP3    H1 9750   6.186   2.695   0.833
 3269TIP3    H2 9751   6.184   2.781   0.957
 3270TIP3   OH2 9752   6.315   5.811   2.339
 3270TIP3    H1 9753   6.371   5.740   2.308
 3270TIP3    H2 9754   6.303   5.867   2.262
 3271TIP3   OH2 9755   7.492   1.706   4.960
 3271TIP3    H1 9756   7.560   1.639   4.970
 3271TIP3    H2 9757   7.489   1.749   5.045
 3272TIP3   OH2 9758   2.048   1.770   6.675
 3272TIP3    H1 9759   1.966   1.761   6.627
 3272TIP3    H2 9760   2.080   1.857   6.652
 3273TIP3   OH2 9761   1.336   1.772   2.534
 3273TIP3    H1 9762   1.310   1.757   2.444
 3273TIP3    H2 9763   1.381   1.692   2.560
 3274TIP3   OH2 9764   0.382   3.440   5.172
 3274TIP3    H1 9765   0.349   3.521   5.132
 3274TIP3    H2 9766   0.306   3.382   5.177
 3275TIP3   OH2 9767   3.099   4.000   2.494
 3275TIP3    H1 9768   3.099   3.905   2.504
 3275TIP3    H2 9769   3.048   4.032   2.568
 3276TIP3   OH2 9770   3.165   1.434   0.630
 3276TIP3    H1 9771   3.187   1.430   0.537
 3276TIP3    H2 9772   3.223   1.502   0.665
 3277TIP3   OH2 9773   3.617   5.840   5.652
 3277TIP3    H1 9774   3.599   5.757   5.608
 3277TIP3    H2 9775   3.634   5.817   5.743
 3278TIP3   OH2 9776   5.101   1.621   0.207
 3278TIP3    H1 9777   5.049   1.683   0.156
 3278TIP3    H2 9778   5.048   1.603   0.285
 3279TIP3   OH2 9779   5.163   4.260   0.907
 3279TIP3    H1 9780   5.120   4.319   0.968
 3279TIP3    H2 9781   5.108   4.263   0.828
 3280TIP3   OH2 9782   7.554   6.879   0.834
 3280TIP3    H1 9783   7.604   6.869   0.754
 3280TIP3    H2 9784   7.555   6.974   0.852
 3281TIP3   OH2 9785   4.125   7.365   1.484
 3281TIP3    H1 9786   4.197   7.427   1.476
 3281TIP3    H2 9787   4.051   7.419   1.512
 3282TIP3   OH2 9788   1.977   2.062   0.183
 3282TIP3    H1 9789   2.039   2.033   0.115
 3282TIP3    H2 9790   1.916   1.989   0.192
 3283TIP3   OH2 9791   1.631   1.515   0.152
 3283TIP3    H1 9792   1.712   1.502   0.102
 3283TIP3    H2 9793   1.660   1.547   0.237
 3284TIP3   OH2 9794   7.406   1.846   5.184
 3284TIP3    H1 9795   7.411   1.920   5.244
 3284TIP3    H2 9796   7.317   1.812   5.194
 3285TIP3   OH2 9797   0.779   1.534   3.912
 3285TIP3    H1 9798   0.788   1.533   4.007
 3285TIP3    H2 9799   0.686   1.552   3.897
 3286TIP3   OH2 9800   8.019   4.787   4.026
 3286TIP3    H1 9801   8.059   4.872   4.045
 3286TIP3    H2 9802   8.092   4.732   3.998
 3287TIP3   OH2 9803   0.908   1.422   0.544
 3287TIP3    H1 9804   0.898   1.448   0.453
 3287TIP3    H2 9805   0.929   1.328   0.540
 3288TIP3   OH2 9806   4.458   7.852   0.950
 3288TIP3    H1 9807   4.550   7.847   0.924
 3288TIP3    H2 9808   4.427   7.761   0.945
 3289TIP3   OH2 9809   5.863   1.140   2.785
 3289TIP3    H1 9810   5.774   1.157   2.754
 3289TIP3    H2 9811   5.919   1.169   2.714
 3290TIP3   OH2 9812   4.124   5.566   3.194
 3290TIP3    H1 9813   4.035   5.584   3.223
 3290TIP3    H2 9814   4.180   5.612   3.257
 3291TIP3   OH2 9815   2.014   6.383   3.355
 3291TIP3    H1 9816   2.008   6.297   3.313
 3291TIP3    H2 9817   2.094   6.378   3.409
 3292TIP3   OH2 9818   0.657   4.807  -0.031
 3292TIP3    H1 9819   0.684   4.893   0.003
 3292TIP3    H2 9820   0.737   4.755  -0.029
 3293TIP3   OH2 9821   7.881   0.523   2.329
 3293TIP3    H1 9822   7.856   0.495   2.241
 3293TIP3    H2 9823   7.839   0.608   2.340
 3294TIP3   OH2 9824   1.316   2.503   0.105
 3294TIP3    H1 9825   1.372   2.551   0.166
 3294TIP3    H2 9826   1.278   2.432   0.158
 3295TIP3   OH2 9827   2.039   1.059   2.265
 3295TIP3    H1 9828   2.073   1.130   2.319
 3295TIP3    H2 9829   1.962   1.096   2.223
 3296TIP3   OH2 9830   7.022   3.956   1.176
 3296TIP3    H1 9831   6.971   3.972   1.096
 3296TIP3    H2 9832   7.098   3.907   1.146
 3297TIP3   OH2 9833   0.700   0.191   4.643
 3297TIP3    H1 9834   0.622   0.147   4.607
 3297TIP3    H2 9835   0.693   0.281   4.612
 3298TIP3   OH2 9836   0.251   1.733   4.147
 3298TIP3    H1 9837   0.215   1.755   4.234
 3298TIP3    H2 9838   0.192   1.777   4.086
 3299TIP3   OH2 9839   8.301   4.401   4.526
 3299TIP3    H1 9840   8.236   4.338   4.558
 3299TIP3    H2 9841   8.385   4.367   4.558
 3300TIP3   OH2 9842   6.202   1.805   0.779
 3300TIP3    H1 9843   6.256   1.827   0.703
 3300TIP3    H2 9844   6.257   1.826   0.854
 3301TIP3   OH2 9845   5.875   2.404   6.612
 3301TIP3    H1 9846   5.890   2.462   6.538
 3301TIP3    H2 9847   5.879   2.316   6.575
 3302TIP3   OH2 9848   1.492   4.022   5.301
 3302TIP3    H1 9849   1.437   4.099   5.313
 3302TIP3    H2 9850   1.431   3.948   5.307
 3303TIP3   OH2 9851   5.460   0.630   0.845
 3303TIP3    H1 9852   5.544   0.674   0.830
 3303TIP3    H2 9853   5.469   0.546   0.801
 3304TIP3   OH2 9854   1.789   4.263   1.398
 3304TIP3    H1 9855   1.860   4.200   1.408
 3304TIP3    H2 9856   1.757   4.278   1.487
 3305TIP3   OH2 9857   8.224   5.269   5.431
 3305TIP3    H1 9858   8.141   5.231   5.405
 3305TIP3    H2 9859   8.200   5.349   5.478
 3306TIP3   OH2 9860   0.932   6.403   0.447
 3306TIP3    H1 9861   0.962   6.321   0.486
 3306TIP3    H2 9862   0.845   6.417   0.485
 3307TIP3   OH2 9863   6.832   4.698   0.405
 3307TIP3    H1 9864   6.750   4.664   0.441
 3307TIP3    H2 9865   6.897   4.631   0.424
 3308TIP3   OH2 9866   6.356   6.557   0.445
 3308TIP3    H1 9867   6.438   6.601   0.421
 3308TIP3    H2 9868   6.344   6.491   0.377
 3309TIP3   OH2 9869   2.950   2.370   2.784
 3309TIP3    H1 9870   2.999   2.419   2.717
 3309TIP3    H2 9871   2.890   2.315   2.734
 3310TIP3   OH2 9872   2.576   4.087   2.013
 3310TIP3    H1 9873   2.592   4.140   2.092
 3310TIP3    H2 9874   2.511   4.022   2.041
 3311TIP3   OH2 9875   8.156   6.089   5.975
 3311TIP3    H1 9876   8.195   6.173   6.000
 3311TIP3    H2 9877   8.075   6.084   6.024
 3312TIP3   OH2 9878   3.286   0.404   2.106
 3312TIP3    H1 9879   3.222   0.423   2.174
 3312TIP3    H2 9880   3.280   0.478   2.046
 3313TIP3   OH2 9881   3.403   5.746   0.822
 3313TIP3    H1 9882   3.438   5.661   0.850
 3313TIP3    H2 9883   3.339   5.725   0.754
 3314TIP3   OH2 9884   6.795   6.427   0.613
 3314TIP3    H1 9885   6.811   6.343   0.656
 3314TIP3    H2 9886   6.713   6.459   0.651
 3315TIP3   OH2 9887   2.479   2.653   5.045
 3315TIP3    H1 9888   2.557   2.699   5.016
 3315TIP3    H2 9889   2.512   2.574   5.089
 3316TIP3   OH2 9890   6.088   4.809   3.843
 3316TIP3    H1 9891   6.066   4.826   3.935
 3316TIP3    H2 9892   6.183   4.799   3.843
 3317TIP3   OH2 9893   4.274   0.425   0.821
 3317TIP3    H1 9894   4.281   0.475   0.740
 3317TIP3    H2 9895   4.202   0.467   0.869
 3318TIP3   OH2 9896   1.330   0.212   2.982
 3318TIP3    H1 9897   1.299   0.141   2.926
 3318TIP3    H2 9898   1.254   0.269   2.991
 3319TIP3   OH2 9899   2.411   1.552   5.716
 3319TIP3    H1 9900   2.370   1.481   5.666
 3319TIP3    H2 9901   2.396   1.630   5.662
 3320TIP3   OH2 9902   7.191   3.306   3.155
 3320TIP3    H1 9903   7.148   3.221   3.157
 3320TIP3    H2 9904   7.283   3.287   3.137
 3321TIP3   OH2 9905   2.293   4.227   0.709
 3321TIP3    H1 9906   2.281   4.321   0.724
 3321TIP3    H2 9907   2.220   4.202   0.653
 3322TIP3   OH2 9908   7.140   2.948   4.632
 3322TIP3    H1 9909   7.082   3.020   4.655
 3322TIP3    H2 9910   7.222   2.967   4.677
 3323TIP3   OH2 9911   3.492   0.219   3.275
 3323TIP3    H1 9912   3.449   0.300   3.303
 3323TIP3    H2 9913   3.482   0.218   3.180
 3324TIP3   OH2 9914   2.246   6.468   5.245
 3324TIP3    H1 9915   2.266   6.483   5.338
 3324TIP3    H2 9916   2.207   6.550   5.215
 3325TIP3   OH2 9917   4.397   3.888   3.782
 3325TIP3    H1 9918   4.302   3.878   3.787
 3325TIP3    H2 9919   4.418   3.870   3.691
 3326TIP3   OH2 9920   7.841   2.974   0.866
 3326TIP3    H1 9921   7.881   2.991   0.952
 3326TIP3    H2 9922   7.915   2.959   0.808
 3327TIP3   OH2 9923   0.029   4.968   1.146
 3327TIP3    H1 9924  -0.067   4.965   1.136
 3327TIP3    H2 9925   0.042   4.993   1.238
 3328TIP3   OH2 9926   5.811   6.974   3.710
 3328TIP3    H1 9927   5.768   6.964   3.795
 3328TIP3    H2 9928   5.770   6.910   3.653
 3329TIP3   OH2 9929   5.140   6.814   3.619
 3329TIP3    H1 9930   5.229   6.846   3.609
 3329TIP3    H2 9931   5.148   6.719   3.622
 3330TIP3   OH2 9932   1.664   1.784   3.439
 3330TIP3    H1 9933   1.716   1.826   3.371
 3330TIP3    H2 9934   1.704   1.814   3.521
 3331TIP3   OH2 9935   6.369   2.633   0.448
 3331TIP3    H1 9936   6.312   2.576   0.499
 3331TIP3    H2 9937   6.351   2.611   0.357
 3332TIP3   OH2 9938   6.059   1.974   4.942
 3332TIP3    H1 9939   5.992   2.039   4.962
 3332TIP3    H2 9940   6.134   2.024   4.910
 3333TIP3   OH2 9941   2.148   6.783   6.105
 3333TIP3    H1 9942   2.131   6.759   6.014
 3333TIP3    H2 9943   2.064   6.771   6.149
 3334TIP3   OH2 9944   0.954   2.115   0.739
 3334TIP3    H1 9945   1.029   2.169   0.764
 3334TIP3    H2 9946   0.880   2.156   0.784
 3335TIP3   OH2 9947   8.161   4.461   0.084
 3335TIP3    H1 9948   8.070   4.468   0.112
 3335TIP3    H2 9949   8.201   4.400   0.145
 3336TIP3   OH2 9950   1.406   0.044   6.578
 3336TIP3    H1 9951   1.383   0.055   6.485
 3336TIP3    H2 9952   1.322   0.024   6.620
 3337TIP3   OH2 9953   8.317   1.228   5.985
 3337TIP3    H1 9954   8.243   1.221   6.045
 3337TIP3    H2 9955   8.355   1.314   6.003
 3338TIP3   OH2 9956   7.773   7.264   3.658
 3338TIP3    H1 9957   7.815   7.273   3.573
 3338TIP3    H2 9958   7.704   7.199   3.644
 3339TIP3   OH2 9959   4.764   3.139   4.659
 3339TIP3    H1 9960   4.852   3.141   4.621
 3339TIP3    H2 9961   4.777   3.168   4.750
 3340TIP3   OH2 9962   4.821   5.660   2.464
 3340TIP3    H1 9963   4.758   5.719   2.423
 3340TIP3    H2 9964   4.847   5.600   2.393
 3341TIP3   OH2 9965   4.147   1.511   4.277
 3341TIP3    H1 9966   4.216   1.517   4.343
 3341TIP3    H2 9967   4.068   1.486   4.326
 3342TIP3   OH2 9968   0.182   7.622   4.771
 3342TIP3    H1 9969   0.146   7.535   4.757
 3342TIP3    H2 9970   0.156   7.645   4.860
 3343TIP3   OH2 9971   4.125   1.464   6.422
 3343TIP3    H1 9972   4.178   1.443   6.345
 3343TIP3    H2 9973   4.037   1.480   6.387
 3344TIP3   OH2 9974   2.710   2.227   2.636
 3344TIP3    H1 9975   2.683   2.137   2.655
 3344TIP3    H2 9976   2.737   2.225   2.544
 3345TIP3   OH2 9977   6.904   1.085   4.285
 3345TIP3    H1 9978   6.852   1.077   4.365
 3345TIP3    H2 9979   6.995   1.085   4.316
 3346TIP3   OH2 9980   5.311   5.018   0.942
 3346TIP3    H1 9981   5.258   5.096   0.923
 3346TIP3    H2 9982   5.401   5.049   0.935
 3347TIP3   OH2 9983   8.016   1.185   2.841
 3347TIP3    H1 9984   8.056   1.241   2.907
 3347TIP3    H2 9985   8.075   1.109   2.837
 3348TIP3   OH2 9986   7.048   6.809   0.869
 3348TIP3    H1 9987   6.979   6.769   0.817
 3348TIP3    H2 9988   7.116   6.832   0.806
 3349TIP3   OH2 9989   6.294   3.198   2.388
 3349TIP3    H1 9990   6.297   3.256   2.312
 3349TIP3    H2 9991   6.382   3.162   2.394
 3350TIP3   OH2 9992   0.564   3.148   1.919
 3350TIP3    H1 9993   0.546   3.203   1.996
 3350TIP3    H2 9994   0.659   3.144   1.915
 3351TIP3   OH2 9995   1.841   2.739   0.359
 3351TIP3    H1 9996   1.841   2.829   0.393
 3351TIP3    H2 9997   1.891   2.744   0.278
 3352TIP3   OH2 9998   2.464   0.699   2.701
 3352TIP3    H1 9999   2.493   0.779   2.743
 3352TIP3    H210000   2.397   0.664   2.760
 3353TIP3   OH210001   3.121   6.831   4.775
 3353TIP3    H110002   3.133   6.862   4.865
 3353TIP3    H210003   3.177   6.754   4.768
 3354TIP3   OH210004   2.500   1.940   6.486
 3354TIP3    H110005   2.490   2.027   6.447
 3354TIP3    H210006   2.490   1.879   6.412
 3355TIP3   OH210007   4.621   3.388   0.387
 3355TIP3    H110008   4.694   3.329   0.404
 3355TIP3    H210009   4.551   3.357   0.445
 3356TIP3   OH210010   1.113   7.694   5.191
 3356TIP3    H110011   1.026   7.660   5.174
 3356TIP3    H210012   1.101   7.789   5.198
 3357TIP3   OH210013   6.300   6.385   5.456
 3357TIP3    H110014   6.379   6.369   5.404
 3357TIP3    H210015   6.295   6.309   5.515
 3358TIP3   OH210016   0.793   1.947   6.457
 3358TIP3    H110017   0.748   1.936   6.541
 3358TIP3    H210018   0.878   1.983   6.479
 3359TIP3   OH210019   2.200   0.094   3.620
 3359TIP3    H110020   2.195   0.174   3.672
 3359TIP3    H210021   2.195   0.124   3.529
 3360TIP3   OH210022   2.054   2.212   0.644
 3360TIP3    H110023   2.050   2.303   0.614
 3360TIP3    H210024   2.018   2.161   0.571
 3361TIP3   OH210025   0.321   1.477   2.821
 3361TIP3    H110026   0.386   1.509   2.759
 3361TIP3    H210027   0.249   1.445   2.767
 3362TIP3   OH210028   1.441   6.508   2.323
 3362TIP3    H110029   1.475   6.418   2.325
 3362TIP3    H210030   1.445   6.538   2.414
 3363TIP3   OH210031   2.720   2.116   2.140
 3363TIP3    H110032   2.692   2.031   2.174
 3363TIP3    H210033   2.640   2.169   2.139
 3364TIP3   OH210034   3.962   3.211   4.247
 3364TIP3    H110035   4.001   3.227   4.161
 3364TIP3    H210036   3.888   3.154   4.229
 3365TIP3   OH210037   6.783   7.653   2.518
 3365TIP3    H110038   6.732   7.592   2.571
 3365TIP3    H210039   6.748   7.643   2.429
 3366TIP3   OH210040   4.598   6.932   1.310
 3366TIP3    H110041   4.566   6.881   1.384
 3366TIP3    H210042   4.603   6.869   1.238
 3367TIP3   OH210043   4.913   0.268   1.076
 3367TIP3    H110044   4.818   0.271   1.083
 3367TIP3    H210045   4.932   0.316   0.995
 3368TIP3   OH210046   3.477   4.983   1.759
 3368TIP3    H110047   3.476   5.028   1.843
 3368TIP3    H210048   3.493   5.052   1.694
 3369TIP3   OH210049   3.960   4.516   5.167
 3369TIP3    H110050   3.971   4.472   5.082
 3369TIP3    H210051   4.047   4.516   5.205
 3370TIP3   OH210052   5.567   0.540   5.281
 3370TIP3    H110053   5.617   0.619   5.261
 3370TIP3    H210054   5.578   0.485   5.204
 3371TIP3   OH210055   4.412   6.564   2.912
 3371TIP3    H110056   4.419   6.469   2.903
 3371TIP3    H210057   4.485   6.588   2.969
 3372TIP3   OH210058   2.017   4.313   2.192
 3372TIP3    H110059   2.064   4.395   2.179
 3372TIP3    H210060   2.057   4.252   2.130
 3373TIP3   OH210061   6.144   2.122   3.009
 3373TIP3    H110062   6.238   2.132   3.000
 3373TIP3    H210063   6.114   2.089   2.924
 3374TIP3   OH210064   4.725   5.702   5.733
 3374TIP3    H110065   4.813   5.696   5.771
 3374TIP3    H210066   4.708   5.615   5.697
 3375TIP3   OH210067   2.018   4.244   2.466
 3375TIP3    H110068   1.939   4.293   2.490
 3375TIP3    H210069   2.033   4.267   2.375
 3376TIP3   OH210070   3.537   5.302   3.085
 3376TIP3    H110071   3.544   5.275   3.176
 3376TIP3    H210072   3.624   5.335   3.062
 3377TIP3   OH210073   3.034   5.194   0.989
 3377TIP3    H110074   3.124   5.165   0.978
 3377TIP3    H210075   3.039   5.268   1.049
 3378TIP3   OH210076   6.462   4.569   5.177
 3378TIP3    H110077   6.442   4.662   5.188
 3378TIP3    H210078   6.456   4.555   5.082
 3379TIP3   OH210079   4.053   4.788   5.351
 3379TIP3    H110080   4.014   4.797   5.263
 3379TIP3    H210081   4.070   4.694   5.359
 3380TIP3   OH210082   7.881   1.337   3.229
 3380TIP3    H110083   7.974   1.357   3.231
 3380TIP3    H210084   7.842   1.401   3.289
 3381TIP3   OH210085   5.516   2.115   5.074
 3381TIP3    H110086   5.527   2.210   5.070
 3381TIP3    H210087   5.492   2.097   5.165
 3382TIP3   OH210088   4.203   3.922   5.248
 3382TIP3    H110089   4.147   3.997   5.226
 3382TIP3    H210090   4.203   3.920   5.344
 3383TIP3   OH210091   2.185   1.576   2.120
 3383TIP3    H110092   2.169   1.572   2.025
 3383TIP3    H210093   2.170   1.667   2.143
 3384TIP3   OH210094   0.899   7.406   2.112
 3384TIP3    H110095   0.928   7.494   2.137
 3384TIP3    H210096   0.970   7.372   2.058
 3385TIP3   OH210097   0.105   3.767   6.116
 3385TIP3    H110098   0.138   3.730   6.198
 3385TIP3    H210099   0.011   3.753   6.120
 3386TIP3   OH210100   0.484   4.430   5.187
 3386TIP3    H110101   0.412   4.435   5.250
 3386TIP3    H210102   0.544   4.500   5.214
 3387TIP3   OH210103   1.432   3.905   4.215
 3387TIP3    H110104   1.424   3.895   4.120
 3387TIP3    H210105   1.366   3.970   4.238
 3388TIP3   OH210106   1.411   7.622   2.375
 3388TIP3    H110107   1.337   7.561   2.379
 3388TIP3    H210108   1.371   7.708   2.366
 3389TIP3   OH210109   6.499   5.890   0.356
 3389TIP3    H110110   6.484   5.823   0.289
 3389TIP3    H210111   6.547   5.959   0.310
 3390TIP3   OH210112   2.667   6.720   5.617
 3390TIP3    H110113   2.720   6.782   5.667
 3390TIP3    H210114   2.680   6.745   5.525
 3391TIP3   OH210115   1.640   7.614   4.789
 3391TIP3    H110116   1.650   7.586   4.698
 3391TIP3    H210117   1.569   7.560   4.824
 3392TIP3   OH210118   0.982   3.127   2.729
 3392TIP3    H110119   1.052   3.123   2.664
 3392TIP3    H210120   0.975   3.220   2.751
 3393TIP3   OH210121   0.073   3.880   3.084
 3393TIP3    H110122   0.160   3.843   3.101
 3393TIP3    H210123   0.051   3.926   3.164
 3394TIP3   OH210124   0.692   7.711   3.830
 3394TIP3    H110125   0.620   7.667   3.784
 3394TIP3    H210126   0.652   7.750   3.907
 3395TIP3   OH210127   5.169   7.710   3.915
 3395TIP3    H110128   5.116   7.665   3.981
 3395TIP3    H210129   5.254   7.665   3.918
 3396TIP3   OH210130   1.371   1.739   0.294
 3396TIP3    H110131   1.369   1.828   0.328
 3396TIP3    H210132   1.438   1.741   0.225
 3397TIP3   OH210133   3.961   1.847   0.041
 3397TIP3    H110134   4.041   1.813   0.080
 3397TIP3    H210135   3.974   1.839  -0.054
 3398TIP3   OH210136   2.617   4.785   3.151
 3398TIP3    H110137   2.704   4.746   3.146
 3398TIP3    H210138   2.626   4.870   3.107
 3399TIP3   OH210139   3.084   2.919   1.533
 3399TIP3    H110140   3.077   2.886   1.622
 3399TIP3    H210141   3.125   3.005   1.543
 3400TIP3   OH210142   8.091   6.520   3.249
 3400TIP3    H110143   8.128   6.471   3.322
 3400TIP3    H210144   8.021   6.573   3.289
 3401TIP3   OH210145   3.386   7.205   5.321
 3401TIP3    H110146   3.380   7.217   5.226
 3401TIP3    H210147   3.306   7.244   5.355
 3402TIP3   OH210148   3.039   2.246   1.758
 3402TIP3    H110149   3.038   2.164   1.808
 3402TIP3    H210150   2.974   2.301   1.802
 3403TIP3   OH210151   5.491   0.597   6.272
 3403TIP3    H110152   5.559   0.583   6.338
 3403TIP3    H210153   5.537   0.593   6.188
 3404TIP3   OH210154   3.413   4.718   4.317
 3404TIP3    H110155   3.342   4.701   4.378
 3404TIP3    H210156   3.468   4.640   4.322
 3405TIP3   OH210157   3.944   5.633   3.916
 3405TIP3    H110158   3.911   5.543   3.928
 3405TIP3    H210159   3.974   5.635   3.826
 3406TIP3   OH210160   6.013   0.207   0.038
 3406TIP3    H110161   5.988   0.156  -0.039
 3406TIP3    H210162   6.108   0.216   0.031
 3407TIP3   OH210163   7.614   6.769   4.382
 3407TIP3    H110164   7.666   6.850   4.387
 3407TIP3    H210165   7.533   6.790   4.430
 3408TIP3   OH210166   6.726   6.981   6.706
 3408TIP3    H110167   6.653   7.041   6.722
 3408TIP3    H210168   6.758   6.959   6.794
 3409TIP3   OH210169   4.864   0.928   1.509
 3409TIP3    H110170   4.850   0.860   1.442
 3409TIP3    H210171   4.959   0.940   1.511
 3410TIP3   OH210172   4.058   1.925   0.781
 3410TIP3    H110173   4.088   2.003   0.734
 3410TIP3    H210174   3.966   1.942   0.799
 3411TIP3   OH210175   3.154   1.029   2.971
 3411TIP3    H110176   3.218   1.100   2.974
 3411TIP3    H210177   3.069   1.073   2.964
 3412TIP3   OH210178   6.158   0.557   4.359
 3412TIP3    H110179   6.070   0.594   4.351
 3412TIP3    H210180   6.169   0.504   4.280
 3413TIP3   OH210181   6.741   0.101   3.173
 3413TIP3    H110182   6.681   0.028   3.157
 3413TIP3    H210183   6.705   0.173   3.121
 3414TIP3   OH210184   7.720   6.408   3.369
 3414TIP3    H110185   7.686   6.324   3.339
 3414TIP3    H210186   7.672   6.425   3.450
 3415TIP3   OH210187   4.972   0.842   3.419
 3415TIP3    H110188   5.015   0.764   3.384
 3415TIP3    H210189   5.016   0.915   3.376
 3416TIP3   OH210190   7.323   0.506   0.549
 3416TIP3    H110191   7.388   0.551   0.602
 3416TIP3    H210192   7.337   0.413   0.566
 3417TIP3   OH210193   0.316   0.673   3.994
 3417TIP3    H110194   0.345   0.583   3.983
 3417TIP3    H210195   0.392   0.719   4.029
 3418TIP3   OH210196   5.414   1.339   1.836
 3418TIP3    H110197   5.465   1.287   1.899
 3418TIP3    H210198   5.470   1.414   1.817
 3419TIP3   OH210199   7.325   4.176   1.528
 3419TIP3    H110200   7.394   4.162   1.462
 3419TIP3    H210201   7.251   4.125   1.497
 3420TIP3   OH210202   7.653   6.485   6.181
 3420TIP3    H110203   7.738   6.441   6.183
 3420TIP3    H210204   7.591   6.419   6.213
 3421TIP3   OH210205   5.467   7.604   1.215
 3421TIP3    H110206   5.397   7.574   1.273
 3421TIP3    H210207   5.427   7.674   1.163
 3422TIP3   OH210208   4.103   5.852   6.289
 3422TIP3    H110209   4.104   5.942   6.322
 3422TIP3    H210210   4.042   5.854   6.215
 3423TIP3   OH210211   0.052   6.106   5.524
 3423TIP3    H110212   0.090   6.114   5.612
 3423TIP3    H210213   0.075   6.017   5.496
 3424TIP3   OH210214   3.518   0.434   5.962
 3424TIP3    H110215   3.532   0.482   6.044
 3424TIP3    H210216   3.530   0.500   5.894
 3425TIP3   OH210217   6.107   1.983   5.519
 3425TIP3    H110218   6.097   2.008   5.427
 3425TIP3    H210219   6.141   1.894   5.516
 3426TIP3   OH210220   7.181   6.858   1.681
 3426TIP3    H110221   7.120   6.837   1.752
 3426TIP3    H210222   7.268   6.841   1.717
 3427TIP3   OH210223   7.544   2.245   0.404
 3427TIP3    H110224   7.481   2.175   0.420
 3427TIP3    H210225   7.618   2.224   0.463
 3428TIP3   OH210226   0.987   1.226   4.196
 3428TIP3    H110227   0.998   1.313   4.157
 3428TIP3    H210228   0.936   1.241   4.275
 3429TIP3   OH210229   3.282   1.344   5.030
 3429TIP3    H110230   3.249   1.347   5.120
 3429TIP3    H210231   3.334   1.264   5.027
 3430TIP3   OH210232   1.636   1.612   5.232
 3430TIP3    H110233   1.708   1.650   5.283
 3430TIP3    H210234   1.677   1.545   5.178
 3431TIP3   OH210235   2.653   1.381   2.038
 3431TIP3    H110236   2.593   1.320   1.995
 3431TIP3    H210237   2.596   1.437   2.091
 3432TIP3   OH210238   0.820   0.010   1.085
 3432TIP3    H110239   0.866   0.093   1.091
 3432TIP3    H210240   0.828  -0.029   1.172
 3433TIP3   OH210241   6.379   6.773   6.637
 3433TIP3    H110242   6.309   6.823   6.596
 3433TIP3    H210243   6.391   6.697   6.580
 3434TIP3   OH210244   7.467   7.739   5.947
 3434TIP3    H110245   7.441   7.831   5.950
 3434TIP3    H210246   7.559   7.741   5.921
 3435TIP3   OH210247   0.849   4.616   0.541
 3435TIP3    H110248   0.932   4.665   0.532
 3435TIP3    H210249   0.781   4.681   0.522
 3436TIP3   OH210250   6.758   7.496   0.680
 3436TIP3    H110251   6.767   7.420   0.737
 3436TIP3    H210252   6.847   7.522   0.660
 3437TIP3   OH210253   5.215   2.454   3.661
 3437TIP3    H110254   5.185   2.365   3.677
 3437TIP3    H210255   5.142   2.510   3.688
 3438TIP3   OH210256   5.925   0.506   6.524
 3438TIP3    H110257   6.005   0.474   6.566
 3438TIP3    H210258   5.923   0.599   6.545
 3439TIP3   OH210259   0.688   1.355   2.054
 3439TIP3    H110260   0.723   1.297   2.121
 3439TIP3    H210261   0.764   1.385   2.005
 3440TIP3   OH210262   7.499   1.756   3.971
 3440TIP3    H110263   7.471   1.795   3.889
 3440TIP3    H210264   7.593   1.742   3.960
 3441TIP3   OH210265   4.098   1.377   5.910
 3441TIP3    H110266   4.096   1.432   5.832
 3441TIP3    H210267   4.005   1.366   5.933
 3442TIP3   OH210268   5.827   1.837   5.328
 3442TIP3    H110269   5.810   1.908   5.389
 3442TIP3    H210270   5.860   1.765   5.382
 3443TIP3   OH210271   4.518   1.748   0.774
 3443TIP3    H110272   4.586   1.686   0.747
 3443TIP3    H210273   4.502   1.802   0.696
 3444TIP3   OH210274   3.366   0.259   1.577
 3444TIP3    H110275   3.420   0.202   1.523
 3444TIP3    H210276   3.277   0.226   1.565
 3445TIP3   OH210277   2.043   4.415   3.000
 3445TIP3    H110278   2.093   4.352   3.053
 3445TIP3    H210279   2.003   4.473   3.065
 3446TIP3   OH210280   0.790   3.991   0.449
 3446TIP3    H110281   0.881   4.019   0.452
 3446TIP3    H210282   0.789   3.918   0.387
 3447TIP3   OH210283   0.453   0.633   2.665
 3447TIP3    H110284   0.409   0.656   2.583
 3447TIP3    H210285   0.513   0.562   2.641
 3448TIP3   OH210286   0.678   0.692   6.597
 3448TIP3    H110287   0.723   0.612   6.568
 3448TIP3    H210288   0.724   0.763   6.553
 3449TIP3   OH210289   4.106   1.835   2.843
 3449TIP3    H110290   4.090   1.780   2.919
 3449TIP3    H210291   4.045   1.803   2.777
 3450TIP3   OH210292   7.787   5.423   5.134
 3450TIP3    H110293   7.816   5.379   5.054
 3450TIP3    H210294   7.693   5.411   5.136
 3451TIP3   OH210295   2.483   3.533   5.943
 3451TIP3    H110296   2.519   3.476   6.010
 3451TIP3    H210297   2.388   3.519   5.947
 3452TIP3   OH210298   8.036   6.059   0.734
 3452TIP3    H110299   8.065   5.969   0.720
 3452TIP3    H210300   7.944   6.059   0.708
 3453TIP3   OH210301   4.810   3.361   6.544
 3453TIP3    H110302   4.790   3.325   6.631
 3453TIP3    H210303   4.778   3.295   6.483
 3454TIP3   OH210304   7.156   0.935   0.500
 3454TIP3    H110305   7.117   0.912   0.584
 3454TIP3    H210306   7.135   0.861   0.443
 3455TIP3   OH210307   4.146   3.729   5.890
 3455TIP3    H110308   4.126   3.683   5.808
 3455TIP3    H210309   4.087   3.689   5.954
 3456TIP3   OH210310   2.065   3.339   5.176
 3456TIP3    H110311   1.994   3.399   5.153
 3456TIP3    H210312   2.124   3.342   5.101
 3457TIP3   OH210313   6.411   2.511   1.898
 3457TIP3    H110314   6.455   2.545   1.819
 3457TIP3    H210315   6.397   2.418   1.879
 3458TIP3   OH210316   7.105   0.336   5.036
 3458TIP3    H110317   7.191   0.375   5.022
 3458TIP3    H210318   7.121   0.241   5.033
 3459TIP3   OH210319   2.831   2.947   3.969
 3459TIP3    H110320   2.856   2.903   4.050
 3459TIP3    H210321   2.902   2.927   3.908
 3460TIP3   OH210322   5.956   6.545   5.225
 3460TIP3    H110323   6.036   6.592   5.204
 3460TIP3    H210324   5.949   6.548   5.320
 3461TIP3   OH210325   3.076   0.764   6.352
 3461TIP3    H110326   3.033   0.849   6.365
 3461TIP3    H210327   3.012   0.711   6.305
 3462TIP3   OH210328   2.122   0.308   3.839
 3462TIP3    H110329   2.119   0.396   3.876
 3462TIP3    H210330   2.167   0.256   3.906
 3463TIP3   OH210331   6.906   5.307   1.023
 3463TIP3    H110332   6.926   5.400   1.024
 3463TIP3    H210333   6.899   5.285   0.930
 3464TIP3   OH210334   2.494   5.260   1.649
 3464TIP3    H110335   2.573   5.245   1.701
 3464TIP3    H210336   2.507   5.346   1.610
 3465TIP3   OH210337   2.517   1.061   0.352
 3465TIP3    H110338   2.567   1.025   0.425
 3465TIP3    H210339   2.465   0.988   0.319
 3466TIP3   OH210340   6.321   7.698   2.139
 3466TIP3    H110341   6.255   7.700   2.208
 3466TIP3    H210342   6.339   7.790   2.120
 3467TIP3   OH210343   8.018   2.402   3.388
 3467TIP3    H110344   7.951   2.470   3.378
 3467TIP3    H210345   8.095   2.450   3.420
 3468TIP3   OH210346   3.020   2.066   4.538
 3468TIP3    H110347   3.051   2.015   4.613
 3468TIP3    H210348   2.931   2.035   4.522
 3469TIP3   OH210349   6.986   6.495   5.716
 3469TIP3    H110350   7.054   6.448   5.667
 3469TIP3    H210351   6.919   6.516   5.651
 3470TIP3   OH210352   6.298   2.189   4.203
 3470TIP3    H110353   6.251   2.229   4.276
 3470TIP3    H210354   6.373   2.146   4.244
 3471TIP3   OH210355   3.898   5.371   3.923
 3471TIP3    H110356   3.956   5.341   3.993
 3471TIP3    H210357   3.809   5.352   3.955
 3472TIP3   OH210358   7.401   4.218   0.368
 3472TIP3    H110359   7.391   4.281   0.440
 3472TIP3    H210360   7.486   4.177   0.384
 3473TIP3   OH210361   0.927   5.413   5.853
 3473TIP3    H110362   1.011   5.444   5.887
 3473TIP3    H210363   0.951   5.349   5.785
 3474TIP3   OH210364   6.578   5.052   1.311
 3474TIP3    H110365   6.517   5.116   1.347
 3474TIP3    H210366   6.663   5.096   1.315
 3475TIP3   OH210367   5.753   6.573   0.881
 3475TIP3    H110368   5.783   6.549   0.968
 3475TIP3    H210369   5.686   6.508   0.859
 3476TIP3   OH210370   4.216   1.296   3.508
 3476TIP3    H110371   4.267   1.229   3.554
 3476TIP3    H210372   4.234   1.279   3.415
 3477TIP3   OH210373   7.573   1.530   4.381
 3477TIP3    H110374   7.657   1.488   4.397
 3477TIP3    H210375   7.580   1.615   4.424
 3478TIP3   OH210376   5.610   6.365   6.176
 3478TIP3    H110377   5.639   6.355   6.086
 3478TIP3    H210378   5.632   6.456   6.199
 3479TIP3   OH210379   4.103   0.760   5.345
 3479TIP3    H110380   4.026   0.809   5.373
 3479TIP3    H210381   4.070   0.699   5.279
 3480TIP3   OH210382   1.874   2.859   1.471
 3480TIP3    H110383   1.929   2.825   1.542
 3480TIP3    H210384   1.793   2.810   1.478
 3481TIP3   OH210385   0.340   0.255   0.630
 3481TIP3    H110386   0.423   0.226   0.668
 3481TIP3    H210387   0.365   0.301   0.550
 3482TIP3   OH210388   0.490   2.408   5.753
 3482TIP3    H110389   0.485   2.386   5.846
 3482TIP3    H210390   0.414   2.364   5.714
 3483TIP3   OH210391   8.095   2.698   3.583
 3483TIP3    H110392   8.148   2.733   3.512
 3483TIP3    H210393   8.135   2.614   3.604
 3484TIP3   OH210394   4.455   5.701   4.897
 3484TIP3    H110395   4.519   5.635   4.924
 3484TIP3    H210396   4.444   5.756   4.974
 3485TIP3   OH210397   2.364   3.997   2.882
 3485TIP3    H110398   2.268   3.998   2.886
 3485TIP3    H210399   2.392   4.020   2.971
 3486TIP3   OH210400   0.760   0.706   3.139
 3486TIP3    H110401   0.766   0.740   3.050
 3486TIP3    H210402   0.666   0.695   3.154
 3487TIP3   OH210403   2.327   6.719   6.348
 3487TIP3    H110404   2.245   6.680   6.380
 3487TIP3    H210405   2.303   6.761   6.266
 3488TIP3   OH210406   7.760   6.706   1.410
 3488TIP3    H110407   7.714   6.679   1.330
 3488TIP3    H210408   7.853   6.705   1.385
 3489TIP3   OH210409   2.408   3.788   5.130
 3489TIP3    H110410   2.415   3.862   5.190
 3489TIP3    H210411   2.403   3.711   5.187
 3490TIP3   OH210412   6.698   4.568   2.148
 3490TIP3    H110413   6.639   4.569   2.223
 3490TIP3    H210414   6.785   4.574   2.186
 3491TIP3   OH210415   3.398   1.241   0.403
 3491TIP3    H110416   3.352   1.324   0.414
 3491TIP3    H210417   3.490   1.262   0.423
 3492TIP3   OH210418   6.770   4.632   4.074
 3492TIP3    H110419   6.836   4.688   4.114
 3492TIP3    H210420   6.767   4.554   4.129
 3493TIP3   OH210421   1.329   0.752   6.192
 3493TIP3    H110422   1.413   0.784   6.222
 3493TIP3    H210423   1.299   0.818   6.129
 3494TIP3   OH210424   3.031   3.464   5.603
 3494TIP3    H110425   2.948   3.507   5.583
 3494TIP3    H210426   3.014   3.371   5.590
 3495TIP3   OH210427   0.356   2.515   3.338
 3495TIP3    H110428   0.447   2.490   3.322
 3495TIP3    H210429   0.320   2.442   3.389
 3496TIP3   OH210430   6.991   5.162   2.392
 3496TIP3    H110431   7.020   5.209   2.470
 3496TIP3    H210432   7.053   5.089   2.383
 3497TIP3   OH210433   2.469   7.578   4.462
 3497TIP3    H110434   2.403   7.520   4.424
 3497TIP3    H210435   2.511   7.525   4.530
 3498TIP3   OH210436   0.701   6.636   5.811
 3498TIP3    H110437   0.732   6.547   5.798
 3498TIP3    H210438   0.764   6.675   5.872
 3499TIP3   OH210439   7.392   4.095   5.922
 3499TIP3    H110440   7.438   4.103   5.839
 3499TIP3    H210441   7.418   4.173   5.972
 3500TIP3   OH210442   1.003   2.422   1.694
 3500TIP3    H110443   0.968   2.495   1.642
 3500TIP3    H210444   1.093   2.412   1.663
 3501TIP3   OH210445   7.307   2.392   5.063
 3501TIP3    H110446   7.360   2.381   4.984
 3501TIP3    H210447   7.232   2.334   5.050
 3502TIP3   OH210448   7.738   0.230   3.641
 3502TIP3    H110449   7.664   0.225   3.580
 3502TIP3    H210450   7.770   0.140   3.647
 3503TIP3   OH210451   1.830   2.829   5.379
 3503TIP3    H110452   1.909   2.854   5.330
 3503TIP3    H210453   1.760   2.879   5.337
 3504TIP3   OH210454   5.326   5.528   3.079
 3504TIP3    H110455   5.420   5.545   3.072
 3504TIP3    H210456   5.313   5.498   3.169
 3505TIP3   OH210457   5.678   5.262   6.008
 3505TIP3    H110458   5.583   5.268   6.001
 3505TIP3    H210459   5.709   5.256   5.918
 3506TIP3   OH210460   3.783   1.910   2.013
 3506TIP3    H110461   3.730   1.939   1.939
 3506TIP3    H210462   3.836   1.986   2.037
 3507TIP3   OH210463   5.226   1.877   4.780
 3507TIP3    H110464   5.160   1.819   4.743
 3507TIP3    H210465   5.303   1.821   4.793
 3508TIP3   OH210466   0.201   0.092   2.811
 3508TIP3    H110467   0.140   0.049   2.752
 3508TIP3    H210468   0.171   0.183   2.816
 3509TIP3   OH210469   1.728   3.024   2.305
 3509TIP3    H110470   1.727   3.085   2.231
 3509TIP3    H210471   1.774   3.071   2.374
 3510TIP3   OH210472   2.049   6.882   2.226
 3510TIP3    H110473   2.067   6.949   2.161
 3510TIP3    H210474   2.061   6.926   2.310
 3511TIP3   OH210475   1.021   4.697   0.937
 3511TIP3    H110476   1.039   4.661   0.850
 3511TIP3    H210477   0.988   4.623   0.987
 3512TIP3   OH210478   5.150   1.281   3.361
 3512TIP3    H110479   5.088   1.345   3.396
 3512TIP3    H210480   5.236   1.317   3.384
 3513TIP3   OH210481   1.453   1.342   5.669
 3513TIP3    H110482   1.518   1.291   5.619
 3513TIP3    H210483   1.502   1.376   5.744
 3514TIP3   OH210484   5.813   3.122   4.504
 3514TIP3    H110485   5.867   3.091   4.577
 3514TIP3    H210486   5.727   3.138   4.542
 3515TIP3   OH210487   7.029   3.232   4.231
 3515TIP3    H110488   6.993   3.293   4.167
 3515TIP3    H210489   6.978   3.152   4.219
 3516TIP3   OH210490   5.345   5.955   4.862
 3516TIP3    H110491   5.393   6.021   4.812
 3516TIP3    H210492   5.253   5.980   4.855
 3517TIP3   OH210493   4.293   3.971   2.315
 3517TIP3    H110494   4.387   3.959   2.308
 3517TIP3    H210495   4.274   4.046   2.259
 3518TIP3   OH210496   4.668   3.699   2.113
 3518TIP3    H110497   4.759   3.706   2.084
 3518TIP3    H210498   4.674   3.701   2.209
 3519TIP3   OH210499   4.752   0.479   4.192
 3519TIP3    H110500   4.824   0.520   4.144
 3519TIP3    H210501   4.745   0.391   4.155
 3520TIP3   OH210502   6.653   3.200   0.937
 3520TIP3    H110503   6.585   3.134   0.948
 3520TIP3    H210504   6.705   3.195   1.017
 3521TIP3   OH210505   5.140   4.743   2.110
 3521TIP3    H110506   5.215   4.797   2.084
 3521TIP3    H210507   5.176   4.682   2.175
 3522TIP3   OH210508   4.569   0.189   2.380
 3522TIP3    H110509   4.613   0.258   2.332
 3522TIP3    H210510   4.538   0.128   2.313
 3523TIP3   OH210511   6.932   7.348   1.132
 3523TIP3    H110512   6.858   7.349   1.193
 3523TIP3    H210513   7.007   7.323   1.186
 3524TIP3   OH210514   2.482   2.161   0.356
 3524TIP3    H110515   2.499   2.169   0.262
 3524TIP3    H210516   2.387   2.154   0.363
 3525TIP3   OH210517   2.852   6.697   4.777
 3525TIP3    H110518   2.784   6.678   4.841
 3525TIP3    H210519   2.816   6.768   4.724
 3526TIP3   OH210520   2.991   2.784   1.021
 3526TIP3    H110521   2.898   2.771   1.042
 3526TIP3    H210522   3.010   2.717   0.956
 3527TIP3   OH210523   4.230   0.442   6.618
 3527TIP3    H110524   4.284   0.448   6.539
 3527TIP3    H210525   4.179   0.523   6.619
 3528TIP3   OH210526   6.664   3.757   2.468
 3528TIP3    H110527   6.596   3.701   2.505
 3528TIP3    H210528   6.710   3.701   2.406
 3529TIP3   OH210529   5.583   1.041   5.105
 3529TIP3    H110530   5.575   1.017   5.197
 3529TIP3    H210531   5.640   0.974   5.067
 3530TIP3   OH210532   8.008   1.581   1.239
 3530TIP3    H110533   7.968   1.663   1.210
 3530TIP3    H210534   8.087   1.572   1.185
 3531TIP3   OH210535   7.428   5.496   1.999
 3531TIP3    H110536   7.359   5.498   2.065
 3531TIP3    H210537   7.412   5.414   1.951
 3532TIP3   OH210538   6.974   2.553   1.490
 3532TIP3    H110539   7.056   2.520   1.528
 3532TIP3    H210540   6.960   2.637   1.534
 3533TIP3   OH210541   5.256   5.843   0.869
 3533TIP3    H110542   5.201   5.919   0.852
 3533TIP3    H210543   5.248   5.828   0.963
 3534TIP3   OH210544   7.427   6.034   0.450
 3534TIP3    H110545   7.413   6.117   0.403
 3534TIP3    H210546   7.388   5.968   0.392
 3535TIP3   OH210547   2.805   4.145   6.335
 3535TIP3    H110548   2.875   4.099   6.380
 3535TIP3    H210549   2.829   4.141   6.242
 3536TIP3   OH210550   7.163   4.248   3.977
 3536TIP3    H110551   7.179   4.176   4.038
 3536TIP3    H210552   7.072   4.273   3.993
 3537TIP3   OH210553   1.924   7.515   4.140
 3537TIP3    H110554   1.940   7.527   4.046
 3537TIP3    H210555   1.898   7.602   4.171
 3538TIP3   OH210556   7.952   7.214   3.458
 3538TIP3    H110557   7.959   7.119   3.453
 3538TIP3    H210558   7.955   7.243   3.367
 3539TIP3   OH210559   1.359   0.382   5.421
 3539TIP3    H110560   1.300   0.411   5.351
 3539TIP3    H210561   1.433   0.342   5.375
 3540TIP3   OH210562   4.194   3.786   2.513
 3540TIP3    H110563   4.152   3.829   2.588
 3540TIP3    H210564   4.203   3.855   2.448
 3541TIP3   OH210565   7.455   3.694   0.920
 3541TIP3    H110566   7.514   3.638   0.869
 3541TIP3    H210567   7.512   3.759   0.960
 3542TIP3   OH210568   0.959   6.732   1.807
 3542TIP3    H110569   1.051   6.756   1.821
 3542TIP3    H210570   0.911   6.778   1.877
 3543TIP3   OH210571   2.752   0.054   5.018
 3543TIP3    H110572   2.738  -0.014   5.084
 3543TIP3    H210573   2.840   0.088   5.036
 3544TIP3   OH210574   6.460   3.558   3.429
 3544TIP3    H110575   6.552   3.532   3.440
 3544TIP3    H210576   6.427   3.567   3.518
 3545TIP3   OH210577   1.346   2.644   1.877
 3545TIP3    H110578   1.312   2.612   1.961
 3545TIP3    H210579   1.429   2.686   1.899
 3546TIP3   OH210580   6.342   5.357   1.098
 3546TIP3    H110581   6.431   5.331   1.076
 3546TIP3    H210582   6.352   5.429   1.160
 3547TIP3   OH210583   7.358   1.165   2.998
 3547TIP3    H110584   7.300   1.101   3.040
 3547TIP3    H210585   7.330   1.249   3.033
 3548TIP3   OH210586   1.105   1.675   5.229
 3548TIP3    H110587   1.193   1.646   5.251
 3548TIP3    H210588   1.051   1.596   5.237
 3549TIP3   OH210589   6.664   6.483   1.221
 3549TIP3    H110590   6.691   6.442   1.304
 3549TIP3    H210591   6.687   6.418   1.154
 3550TIP3   OH210592   1.879   6.897   5.257
 3550TIP3    H110593   1.880   6.838   5.182
 3550TIP3    H210594   1.836   6.977   5.225
 3551TIP3   OH210595   5.565   0.156   3.008
 3551TIP3    H110596   5.499   0.087   3.010
 3551TIP3    H210597   5.522   0.231   3.051
 3552TIP3   OH210598   2.588   3.386   6.169
 3552TIP3    H110599   2.522   3.397   6.237
 3552TIP3    H210600   2.562   3.307   6.122
 3553TIP3   OH210601   3.512   5.371   5.163
 3553TIP3    H110602   3.568   5.344   5.235
 3553TIP3    H210603   3.572   5.390   5.091
 3554TIP3   OH210604   4.939   5.556   5.839
 3554TIP3    H110605   4.987   5.555   5.922
 3554TIP3    H210606   4.975   5.482   5.790
 3555TIP3   OH210607   7.216   3.626   0.136
 3555TIP3    H110608   7.127   3.635   0.102
 3555TIP3    H210609   7.265   3.584   0.066
 3556TIP3   OH210610   7.545   5.175   0.729
 3556TIP3    H110611   7.628   5.134   0.755
 3556TIP3    H210612   7.526   5.139   0.643
 3557TIP3   OH210613   0.927   4.021   1.635
 3557TIP3    H110614   0.906   4.049   1.546
 3557TIP3    H210615   0.975   4.095   1.673
 3558TIP3   OH210616   0.867   6.431   1.215
 3558TIP3    H110617   0.961   6.419   1.219
 3558TIP3    H210618   0.854   6.525   1.231
 3559TIP3   OH210619   1.200   6.362   1.789
 3559TIP3    H110620   1.126   6.386   1.845
 3559TIP3    H210621   1.221   6.272   1.815
 3560TIP3   OH210622   3.065   3.589   0.395
 3560TIP3    H110623   3.038   3.635   0.315
 3560TIP3    H210624   2.985   3.549   0.428
 3561TIP3   OH210625   1.270   4.220   6.590
 3561TIP3    H110626   1.187   4.267   6.584
 3561TIP3    H210627   1.270   4.164   6.513
 3562TIP3   OH210628   6.774   3.156   2.037
 3562TIP3    H110629   6.742   3.070   2.010
 3562TIP3    H210630   6.695   3.208   2.053
 3563TIP3   OH210631   5.202   1.201   2.512
 3563TIP3    H110632   5.123   1.146   2.512
 3563TIP3    H210633   5.206   1.237   2.601
 3564TIP3   OH210634   4.176   1.996   6.413
 3564TIP3    H110635   4.170   2.047   6.332
 3564TIP3    H210636   4.207   2.058   6.479
 3565TIP3   OH210637   4.820   3.571   4.034
 3565TIP3    H110638   4.791   3.556   4.124
 3565TIP3    H210639   4.799   3.490   3.988
 3566TIP3   OH210640   7.301   4.315   1.785
 3566TIP3    H110641   7.206   4.322   1.777
 3566TIP3    H210642   7.328   4.267   1.707
 3567TIP3   OH210643   2.774   2.303   5.427
 3567TIP3    H110644   2.850   2.254   5.394
 3567TIP3    H210645   2.810   2.361   5.494
 3568TIP3   OH210646   4.510   2.934   0.886
 3568TIP3    H110647   4.516   2.864   0.951
 3568TIP3    H210648   4.597   2.973   0.886
 3569TIP3   OH210649   5.422   3.664   3.344
 3569TIP3    H110650   5.342   3.626   3.307
 3569TIP3    H210651   5.493   3.611   3.309
 3570TIP3   OH210652   2.669   6.221   1.275
 3570TIP3    H110653   2.669   6.220   1.370
 3570TIP3    H210654   2.582   6.189   1.251
 3571TIP3   OH210655   0.637   5.080   4.056
 3571TIP3    H110656   0.731   5.095   4.046
 3571TIP3    H210657   0.600   5.167   4.072
 3572TIP3   OH210658   4.878   3.850   1.418
 3572TIP3    H110659   4.794   3.897   1.422
 3572TIP3    H210660   4.892   3.834   1.325
 3573TIP3   OH210661   0.640   1.797   1.143
 3573TIP3    H110662   0.648   1.892   1.136
 3573TIP3    H210663   0.653   1.765   1.054
 3574TIP3   OH210664   0.483   1.544   6.249
 3574TIP3    H110665   0.544   1.568   6.319
 3574TIP3    H210666   0.523   1.468   6.207
 3575TIP3   OH210667   6.225   5.114   3.847
 3575TIP3    H110668   6.236   5.176   3.775
 3575TIP3    H210669   6.302   5.057   3.841
 3576TIP3   OH210670   5.015   7.586   6.027
 3576TIP3    H110671   5.028   7.528   5.952
 3576TIP3    H210672   4.920   7.601   6.028
 3577TIP3   OH210673   8.202   4.154   3.160
 3577TIP3    H110674   8.267   4.224   3.161
 3577TIP3    H210675   8.162   4.159   3.074
 3578TIP3   OH210676   2.858   3.728   4.318
 3578TIP3    H110677   2.800   3.693   4.251
 3578TIP3    H210678   2.946   3.717   4.282
 3579TIP3   OH210679   1.598   2.014   3.675
 3579TIP3    H110680   1.672   1.957   3.653
 3579TIP3    H210681   1.610   2.036   3.767
 3580TIP3   OH210682   0.295   1.840   3.773
 3580TIP3    H110683   0.373   1.885   3.804
 3580TIP3    H210684   0.232   1.848   3.845
 3581TIP3   OH210685   8.188   3.402   1.680
 3581TIP3    H110686   8.258   3.463   1.655
 3581TIP3    H210687   8.130   3.455   1.735
 3582TIP3   OH210688   7.211   7.006   0.134
 3582TIP3    H110689   7.163   7.076   0.177
 3582TIP3    H210690   7.299   7.041   0.122
 3583TIP3   OH210691   5.295   4.313   4.858
 3583TIP3    H110692   5.391   4.312   4.859
 3583TIP3    H210693   5.272   4.400   4.892
 3584TIP3   OH210694   0.522   5.145   0.749
 3584TIP3    H110695   0.429   5.131   0.767
 3584TIP3    H210696   0.548   5.071   0.695
 3585TIP3   OH210697   0.454   3.878   4.518
 3585TIP3    H110698   0.453   3.854   4.425
 3585TIP3    H210699   0.464   3.794   4.564
 3586TIP3   OH210700   0.790   1.952   2.064
 3586TIP3    H110701   0.737   1.927   1.988
 3586TIP3    H210702   0.759   1.894   2.134
 3587TIP3   OH210703   4.614   4.995   3.215
 3587TIP3    H110704   4.685   4.937   3.243
 3587TIP3    H210705   4.609   4.981   3.120
 3588TIP3   OH210706   6.884   4.827   5.747
 3588TIP3    H110707   6.873   4.796   5.837
 3588TIP3    H210708   6.944   4.901   5.754
 3589TIP3   OH210709   1.140   6.742   1.126
 3589TIP3    H110710   1.193   6.806   1.173
 3589TIP3    H210711   1.075   6.794   1.079
 3590TIP3   OH210712   3.503   6.091   3.537
 3590TIP3    H110713   3.534   6.042   3.613
 3590TIP3    H210714   3.546   6.176   3.544
 3591TIP3   OH210715   3.055   5.059   0.449
 3591TIP3    H110716   3.145   5.028   0.458
 3591TIP3    H210717   3.036   5.050   0.355
 3592TIP3   OH210718   0.723   2.137   4.901
 3592TIP3    H110719   0.747   2.065   4.960
 3592TIP3    H210720   0.658   2.187   4.950
 3593TIP3   OH210721   8.063   1.546   0.390
 3593TIP3    H110722   8.133   1.582   0.335
 3593TIP3    H210723   8.099   1.547   0.478
 3594TIP3   OH210724   8.172   5.316   1.574
 3594TIP3    H110725   8.124   5.233   1.566
 3594TIP3    H210726   8.130   5.374   1.511
 3595TIP3   OH210727   3.464   0.038   3.473
 3595TIP3    H110728   3.461   0.094   3.396
 3595TIP3    H210729   3.551   0.052   3.510
 3596TIP3   OH210730   0.497   5.965   3.642
 3596TIP3    H110731   0.547   5.914   3.578
 3596TIP3    H210732   0.453   5.900   3.696
 3597TIP3   OH210733   6.301   3.887   3.441
 3597TIP3    H110734   6.317   3.956   3.376
 3597TIP3    H210735   6.362   3.817   3.417
 3598TIP3   OH210736   8.104   4.109   0.376
 3598TIP3    H110737   8.112   4.132   0.469
 3598TIP3    H210738   8.015   4.078   0.367
 3599TIP3   OH210739   6.204   3.225   6.434
 3599TIP3    H110740   6.210   3.203   6.527
 3599TIP3    H210741   6.137   3.294   6.429
 3600TIP3   OH210742   5.530   6.887   2.302
 3600TIP3    H110743   5.539   6.974   2.342
 3600TIP3    H210744   5.524   6.905   2.208
 3601TIP3   OH210745   4.218   5.952   0.684
 3601TIP3    H110746   4.145   5.927   0.629
 3601TIP3    H210747   4.223   6.048   0.675
 3602TIP3   OH210748   3.754   2.530   5.787
 3602TIP3    H110749   3.700   2.549   5.711
 3602TIP3    H210750   3.742   2.605   5.846
 3603TIP3   OH210751   2.309   6.803   4.957
 3603TIP3    H110752   2.287   6.893   4.934
 3603TIP3    H210753   2.392   6.809   5.003
 3604TIP3   OH210754   4.537   5.115   2.348
 3604TIP3    H110755   4.596   5.158   2.410
 3604TIP3    H210756   4.595   5.067   2.289
 3605TIP3   OH210757   5.517   4.898   2.580
 3605TIP3    H110758   5.588   4.896   2.645
 3605TIP3    H210759   5.439   4.875   2.630
 3606TIP3   OH210760   2.647   5.572   6.723
 3606TIP3    H110761   2.664   5.603   6.633
 3606TIP3    H210762   2.557   5.598   6.740
 3607TIP3   OH210763   2.172   0.897   6.244
 3607TIP3    H110764   2.134   0.905   6.331
 3607TIP3    H210765   2.148   0.809   6.215
 3608TIP3   OH210766   6.940   0.297   2.100
 3608TIP3    H110767   6.953   0.225   2.038
 3608TIP3    H210768   6.908   0.369   2.046
 3609TIP3   OH210769   2.236   6.575   3.640
 3609TIP3    H110770   2.275   6.612   3.561
 3609TIP3    H210771   2.244   6.645   3.705
 3610TIP3   OH210772   6.876   0.173   3.497
 3610TIP3    H110773   6.925   0.103   3.540
 3610TIP3    H210774   6.826   0.129   3.428
 3611TIP3   OH210775   5.419   3.946   3.332
 3611TIP3    H110776   5.391   3.855   3.335
 3611TIP3    H210777   5.513   3.944   3.354
 3612TIP3   OH210778   7.462   4.396   3.593
 3612TIP3    H110779   7.548   4.371   3.561
 3612TIP3    H210780   7.480   4.468   3.654
 3613TIP3   OH210781   6.096   1.839   6.099
 3613TIP3    H110782   6.054   1.849   6.013
 3613TIP3    H210783   6.155   1.764   6.088
 3614TIP3   OH210784   4.494   3.779   3.553
 3614TIP3    H110785   4.475   3.814   3.466
 3614TIP3    H210786   4.557   3.709   3.537
 3615TIP3   OH210787   1.997   5.795   3.432
 3615TIP3    H110788   2.037   5.873   3.471
 3615TIP3    H210789   1.902   5.812   3.436
 3616TIP3   OH210790   4.228   7.119   1.416
 3616TIP3    H110791   4.189   7.205   1.428
 3616TIP3    H210792   4.316   7.136   1.385
 3617TIP3   OH210793   1.471   6.382   2.939
 3617TIP3    H110794   1.538   6.449   2.931
 3617TIP3    H210795   1.410   6.399   2.867
 3618TIP3   OH210796   3.781   7.405   5.624
 3618TIP3    H110797   3.748   7.493   5.604
 3618TIP3    H210798   3.810   7.411   5.715
 3619TIP3   OH210799   7.197   4.887   3.055
 3619TIP3    H110800   7.229   4.905   2.967
 3619TIP3    H210801   7.270   4.844   3.099
 3620TIP3   OH210802   4.785   7.634   1.580
 3620TIP3    H110803   4.750   7.723   1.573
 3620TIP3    H210804   4.738   7.595   1.654
 3621TIP3   OH210805   0.985   7.670   2.154
 3621TIP3    H110806   0.930   7.745   2.172
 3621TIP3    H210807   1.029   7.690   2.071
 3622TIP3   OH210808   5.776   0.153   1.365
 3622TIP3    H110809   5.721   0.174   1.441
 3622TIP3    H210810   5.714   0.130   1.296
 3623TIP3   OH210811   0.920   7.732   4.746
 3623TIP3    H110812   0.889   7.804   4.801
 3623TIP3    H210813   1.015   7.734   4.755
 3624TIP3   OH210814   7.235   2.668   4.393
 3624TIP3    H110815   7.171   2.691   4.326
 3624TIP3    H210816   7.279   2.590   4.360
 3625TIP3   OH210817   1.524   2.728   0.833
 3625TIP3    H110818   1.612   2.691   0.828
 3625TIP3    H210819   1.469   2.654   0.860
 3626TIP3   OH210820   4.213   2.279   1.767
 3626TIP3    H110821   4.206   2.362   1.719
 3626TIP3    H210822   4.302   2.248   1.748
 3627TIP3   OH210823   5.515   5.502   3.736
 3627TIP3    H110824   5.553   5.589   3.728
 3627TIP3    H210825   5.466   5.490   3.654
 3628TIP3   OH210826   8.067   0.960   4.225
 3628TIP3    H110827   8.084   1.045   4.264
 3628TIP3    H210828   8.009   0.916   4.287
 3629TIP3   OH210829   2.498   4.296   1.020
 3629TIP3    H110830   2.498   4.321   0.928
 3629TIP3    H210831   2.446   4.364   1.063
 3630TIP3   OH210832   3.484   5.766   2.526
 3630TIP3    H110833   3.503   5.739   2.616
 3630TIP3    H210834   3.389   5.758   2.519
 3631TIP3   OH210835   3.472   7.546   2.313
 3631TIP3    H110836   3.429   7.492   2.380
 3631TIP3    H210837   3.404   7.564   2.249
 3632TIP3   OH210838   4.795   7.621   4.348
 3632TIP3    H110839   4.780   7.713   4.324
 3632TIP3    H210840   4.717   7.575   4.319
 3633TIP3   OH210841   4.259   6.104   2.002
 3633TIP3    H110842   4.348   6.120   1.972
 3633TIP3    H210843   4.258   6.135   2.093
 3634TIP3   OH210844   3.934   6.473   6.370
 3634TIP3    H110845   3.922   6.529   6.293
 3634TIP3    H210846   4.020   6.498   6.405
 3635TIP3   OH210847   7.319   1.494   3.355
 3635TIP3    H110848   7.305   1.588   3.342
 3635TIP3    H210849   7.235   1.454   3.331
 3636TIP3   OH210850   3.118   3.700   5.774
 3636TIP3    H110851   3.207   3.726   5.752
 3636TIP3    H210852   3.106   3.615   5.731
 3637TIP3   OH210853   8.151   4.863   2.220
 3637TIP3    H110854   8.150   4.937   2.159
 3637TIP3    H210855   8.223   4.808   2.190
 3638TIP3   OH210856   4.065   0.633   1.215
 3638TIP3    H110857   4.017   0.609   1.295
 3638TIP3    H210858   4.075   0.728   1.221
 3639TIP3   OH210859   3.017   2.246   1.060
 3639TIP3    H110860   3.017   2.219   1.152
 3639TIP3    H210861   2.968   2.328   1.059
 3640TIP3   OH210862   5.213   3.811   3.759
 3640TIP3    H110863   5.297   3.781   3.723
 3640TIP3    H210864   5.159   3.732   3.761
 3641TIP3   OH210865   1.991   2.086   1.059
 3641TIP3    H110866   2.008   2.176   1.031
 3641TIP3    H210867   1.964   2.041   0.979
 3642TIP3   OH210868   3.157   5.950   0.887
 3642TIP3    H110869   3.250   5.954   0.907
 3642TIP3    H210870   3.139   5.857   0.874
 3643TIP3   OH210871   6.420   1.184   5.450
 3643TIP3    H110872   6.366   1.217   5.521
 3643TIP3    H210873   6.371   1.206   5.370
 3644TIP3   OH210874   3.977   3.044   6.554
 3644TIP3    H110875   3.967   3.118   6.494
 3644TIP3    H210876   4.032   3.077   6.625
 3645TIP3   OH210877   4.263   3.927   4.541
 3645TIP3    H110878   4.286   3.842   4.503
 3645TIP3    H210879   4.201   3.905   4.611
 3646TIP3   OH210880   3.878   4.226   4.870
 3646TIP3    H110881   3.908   4.199   4.784
 3646TIP3    H210882   3.923   4.309   4.887
 3647TIP3   OH210883   0.034   5.335   1.271
 3647TIP3    H110884  -0.057   5.307   1.285
 3647TIP3    H210885   0.035   5.426   1.301
 3648TIP3   OH210886   1.772   4.159   4.659
 3648TIP3    H110887   1.753   4.107   4.737
 3648TIP3    H210888   1.707   4.131   4.595
 3649TIP3   OH210889   3.958   7.158   0.081
 3649TIP3    H110890   3.926   7.096   0.016
 3649TIP3    H210891   4.053   7.153   0.075
 3650TIP3   OH210892   7.688   0.472   5.013
 3650TIP3    H110893   7.673   0.429   5.097
 3650TIP3    H210894   7.777   0.508   5.020
 3651TIP3   OH210895   6.810   2.550   0.387
 3651TIP3    H110896   6.819   2.564   0.293
 3651TIP3    H210897   6.793   2.638   0.422
 3652TIP3   OH210898   2.601   3.133   0.691
 3652TIP3    H110899   2.626   3.138   0.599
 3652TIP3    H210900   2.611   3.223   0.723
 3653TIP3   OH210901   2.114   7.771   5.865
 3653TIP3    H110902   2.136   7.678   5.871
 3653TIP3    H210903   2.138   7.807   5.950
 3654TIP3   OH210904   4.611   0.701   2.373
 3654TIP3    H110905   4.570   0.689   2.459
 3654TIP3    H210906   4.699   0.667   2.383
 3655TIP3   OH210907   2.507   7.559   3.827
 3655TIP3    H110908   2.449   7.496   3.869
 3655TIP3    H210909   2.546   7.608   3.899
 3656TIP3   OH210910   2.197   2.756   2.261
 3656TIP3    H110911   2.257   2.706   2.317
 3656TIP3    H210912   2.123   2.697   2.247
 3657TIP3   OH210913   8.306   5.157   2.812
 3657TIP3    H110914   8.348   5.223   2.757
 3657TIP3    H210915   8.287   5.203   2.894
 3658TIP3   OH210916   7.851   6.856   3.020
 3658TIP3    H110917   7.801   6.785   3.060
 3658TIP3    H210918   7.922   6.874   3.082
 3659TIP3   OH210919   5.420   6.656   2.228
 3659TIP3    H110920   5.336   6.631   2.267
 3659TIP3    H210921   5.448   6.733   2.278
 3660TIP3   OH210922   7.306   2.313   0.633
 3660TIP3    H110923   7.340   2.396   0.666
 3660TIP3    H210924   7.292   2.260   0.711
 3661TIP3   OH210925   3.769   5.566   6.540
 3661TIP3    H110926   3.719   5.533   6.614
 3661TIP3    H210927   3.854   5.590   6.577
 3662TIP3   OH210928   4.783   2.603   3.052
 3662TIP3    H110929   4.845   2.631   3.120
 3662TIP3    H210930   4.707   2.659   3.064
 3663TIP3   OH210931   3.892   2.527   5.317
 3663TIP3    H110932   3.883   2.462   5.386
 3663TIP3    H210933   3.912   2.476   5.239
 3664TIP3   OH210934   4.432   5.254   4.195
 3664TIP3    H110935   4.353   5.276   4.145
 3664TIP3    H210936   4.453   5.333   4.244
 3665TIP3   OH210937   7.256   2.626   2.940
 3665TIP3    H110938   7.313   2.549   2.931
 3665TIP3    H210939   7.285   2.685   2.870
 3666TIP3   OH210940   0.504   3.583   2.666
 3666TIP3    H110941   0.547   3.661   2.631
 3666TIP3    H210942   0.537   3.511   2.612
 3667TIP3   OH210943   5.474   6.061   3.652
 3667TIP3    H110944   5.555   6.112   3.662
 3667TIP3    H210945   5.433   6.097   3.574
 3668TIP3   OH210946   4.654   7.040   2.206
 3668TIP3    H110947   4.604   7.031   2.125
 3668TIP3    H210948   4.664   6.950   2.238
 3669TIP3   OH210949   3.997   1.779   2.538
 3669TIP3    H110950   3.965   1.700   2.496
 3669TIP3    H210951   3.929   1.801   2.602
 3670TIP3   OH210952   6.885   0.784   1.534
 3670TIP3    H110953   6.841   0.701   1.516
 3670TIP3    H210954   6.976   0.768   1.508
 3671TIP3   OH210955   2.720   0.819   5.074
 3671TIP3    H110956   2.805   0.778   5.091
 3671TIP3    H210957   2.728   0.906   5.114
 3672TIP3   OH210958   4.083   0.370   6.129
 3672TIP3    H110959   4.040   0.287   6.110
 3672TIP3    H210960   4.097   0.410   6.043
 3673TIP3   OH210961   3.004   2.845   6.248
 3673TIP3    H110962   3.097   2.822   6.241
 3673TIP3    H210963   2.965   2.814   6.166
 3674TIP3   OH210964   1.363   2.795   2.700
 3674TIP3    H110965   1.279   2.836   2.680
 3674TIP3    H210966   1.342   2.704   2.719
 3675TIP3   OH210967   4.500   2.879   3.756
 3675TIP3    H110968   4.518   2.799   3.708
 3675TIP3    H210969   4.586   2.914   3.778
 3676TIP3   OH210970   0.700   1.193   1.047
 3676TIP3    H110971   0.766   1.223   0.984
 3676TIP3    H210972   0.665   1.273   1.085
 3677TIP3   OH210973   0.559   4.724   4.500
 3677TIP3    H110974   0.539   4.633   4.476
 3677TIP3    H210975   0.474   4.767   4.500
 3678TIP3   OH210976   2.890   3.643   3.923
 3678TIP3    H110977   2.902   3.721   3.869
 3678TIP3    H210978   2.948   3.656   3.998
 3679TIP3   OH210979   6.421   0.166   1.008
 3679TIP3    H110980   6.473   0.122   1.074
 3679TIP3    H210981   6.450   0.257   1.010
 3680TIP3   OH210982   3.222   5.802   4.976
 3680TIP3    H110983   3.150   5.839   4.924
 3680TIP3    H210984   3.301   5.819   4.925
 3681TIP3   OH210985   0.964   0.245   3.790
 3681TIP3    H110986   1.021   0.170   3.771
 3681TIP3    H210987   1.000   0.283   3.870
 3682TIP3   OH210988   0.623   1.932   2.536
 3682TIP3    H110989   0.661   1.875   2.603
 3682TIP3    H210990   0.537   1.893   2.518
 3683TIP3   OH210991   8.223   0.635   4.491
 3683TIP3    H110992   8.272   0.553   4.490
 3683TIP3    H210993   8.162   0.627   4.417
 3684TIP3   OH210994   0.726   3.372   6.673
 3684TIP3    H110995   0.760   3.449   6.627
 3684TIP3    H210996   0.780   3.366   6.752
 3685TIP3   OH210997   7.603   7.535   1.257
 3685TIP3    H110998   7.577   7.472   1.189
 3685TIP3    H210999   7.568   7.498   1.338
 3686TIP3   OH211000   5.016   2.236   2.088
 3686TIP3    H111001   5.052   2.213   2.173
 3686TIP3    H211002   5.071   2.190   2.024
 3687TIP3   OH211003   7.887   7.846   4.895
 3687TIP3    H111004   7.802   7.888   4.883
 3687TIP3    H211005   7.867   7.760   4.931
 3688TIP3   OH211006   1.864   3.639   6.621
 3688TIP3    H111007   1.852   3.649   6.526
 3688TIP3    H211008   1.896   3.550   6.632
 3689TIP3   OH211009   7.926   5.340   4.884
 3689TIP3    H111010   7.990   5.279   4.847
 3689TIP3    H211011   7.978   5.413   4.917
 3690TIP3   OH211012   1.167   6.460   2.430
 3690TIP3    H111013   1.105   6.522   2.469
 3690TIP3    H211014   1.194   6.502   2.348
 3691TIP3   OH211015   5.349   0.058   3.767
 3691TIP3    H111016   5.351  -0.038   3.764
 3691TIP3    H211017   5.256   0.080   3.760
 3692TIP3   OH211018   3.733   5.477   2.991
 3692TIP3    H111019   3.813   5.479   2.939
 3692TIP3    H211020   3.757   5.518   3.074
 3693TIP3   OH211021   0.118   4.435   2.882
 3693TIP3    H111022   0.083   4.372   2.819
 3693TIP3    H211023   0.048   4.500   2.893
 3694TIP3   OH211024   7.940   1.885   3.764
 3694TIP3    H111025   7.902   1.818   3.708
 3694TIP3    H211026   8.012   1.841   3.809
 3695TIP3   OH211027   6.544   6.882   0.592
 3695TIP3    H111028   6.550   6.878   0.497
 3695TIP3    H211029   6.467   6.937   0.609
 3696TIP3   OH211030   6.285   4.398   6.421
 3696TIP3    H111031   6.260   4.441   6.339
 3696TIP3    H211032   6.377   4.419   6.432
 3697TIP3   OH211033   5.763   2.401   1.355
 3697TIP3    H111034   5.827   2.445   1.412
 3697TIP3    H211035   5.711   2.472   1.318
 3698TIP3   OH211036   0.063   7.728   6.739
 3698TIP3    H111037   0.004   7.795   6.704
 3698TIP3    H211038   0.151   7.762   6.721
 3699TIP3   OH211039   3.882   3.643   3.836
 3699TIP3    H111040   3.974   3.629   3.857
 3699TIP3    H211041   3.884   3.700   3.759
 3700TIP3   OH211042   0.033   3.159   3.979
 3700TIP3    H111043   0.014   3.110   3.899
 3700TIP3    H211044   0.114   3.120   4.012
 3701TIP3   OH211045   3.191   1.366   0.102
 3701TIP3    H111046   3.274   1.326   0.078
 3701TIP3    H211047   3.204   1.395   0.192
 3702TIP3   OH211048   5.209   4.613   5.466
 3702TIP3    H111049   5.181   4.694   5.510
 3702TIP3    H211050   5.165   4.615   5.381
 3703TIP3   OH211051   1.172   4.826   4.688
 3703TIP3    H111052   1.231   4.827   4.764
 3703TIP3    H211053   1.215   4.882   4.624
 3704TIP3   OH211054   7.141   6.100   3.674
 3704TIP3    H111055   7.052   6.096   3.641
 3704TIP3    H211056   7.132   6.137   3.762
 3705TIP3   OH211057   0.045   3.996   3.352
 3705TIP3    H111058  -0.013   4.060   3.310
 3705TIP3    H211059   0.007   3.984   3.439
 3706TIP3   OH211060   1.657   7.453   6.422
 3706TIP3    H111061   1.750   7.434   6.413
 3706TIP3    H211062   1.623   7.382   6.477
 3707TIP3   OH211063   2.766   3.930   4.906
 3707TIP3    H111064   2.693   3.877   4.874
 3707TIP3    H211065   2.791   3.985   4.831
 3708TIP3   OH211066   5.831   6.314   4.958
 3708TIP3    H111067   5.756   6.329   5.015
 3708TIP3    H211068   5.906   6.306   5.017
 3709TIP3   OH211069   7.644   0.226   2.464
 3709TIP3    H111070   7.550   0.209   2.458
 3709TIP3    H211071   7.664   0.277   2.385
 3710TIP3   OH211072   3.131   2.760   0.595
 3710TIP3    H111073   3.220   2.779   0.564
 3710TIP3    H211074   3.144   2.707   0.673
 3711TIP3   OH211075   6.673   0.630   5.752
 3711TIP3    H111076   6.669   0.714   5.706
 3711TIP3    H211077   6.678   0.564   5.682
 3712TIP3   OH211078   0.044   2.597   5.579
 3712TIP3    H111079   0.003   2.670   5.533
 3712TIP3    H211080   0.104   2.559   5.515
 3713TIP3   OH211081   5.218   6.833   5.446
 3713TIP3    H111082   5.243   6.925   5.453
 3713TIP3    H211083   5.176   6.813   5.530
 3714TIP3   OH211084   2.658   1.251   5.084
 3714TIP3    H111085   2.625   1.192   5.016
 3714TIP3    H211086   2.671   1.335   5.039
 3715TIP3   OH211087   6.405   5.172   3.577
 3715TIP3    H111088   6.484   5.120   3.588
 3715TIP3    H211089   6.424   5.229   3.503
 3716TIP3   OH211090   7.865   6.165   1.868
 3716TIP3    H111091   7.864   6.087   1.923
 3716TIP3    H211092   7.853   6.238   1.929
 3717TIP3   OH211093   7.498   1.656   0.488
 3717TIP3    H111094   7.458   1.571   0.509
 3717TIP3    H211095   7.428   1.719   0.503
 3718TIP3   OH211096   4.947   2.082   0.029
 3718TIP3    H111097   5.010   2.120  -0.032
 3718TIP3    H211098   4.880   2.150   0.039
 3719TIP3   OH211099   5.940   5.340   2.247
 3719TIP3    H111100   5.963   5.269   2.307
 3719TIP3    H211101   5.985   5.318   2.166
 3720TIP3   OH211102   1.752   5.581   4.503
 3720TIP3    H111103   1.700   5.536   4.570
 3720TIP3    H211104   1.807   5.513   4.465
 3721TIP3   OH211105   0.139   4.673   1.375
 3721TIP3    H111106   0.092   4.589   1.383
 3721TIP3    H211107   0.200   4.659   1.303
 3722TIP3   OH211108   2.042   6.430   2.512
 3722TIP3    H111109   2.078   6.341   2.506
 3722TIP3    H211110   2.100   6.484   2.459
 3723TIP3   OH211111   2.207   1.139   1.248
 3723TIP3    H111112   2.244   1.155   1.335
 3723TIP3    H211113   2.283   1.126   1.191
 3724TIP3   OH211114   8.154   4.871   0.847
 3724TIP3    H111115   8.093   4.800   0.864
 3724TIP3    H211116   8.119   4.916   0.770
 3725TIP3   OH211117   7.423   0.207   6.413
 3725TIP3    H111118   7.457   0.133   6.363
 3725TIP3    H211119   7.347   0.172   6.458
 3726TIP3   OH211120   4.155   4.672   1.952
 3726TIP3    H111121   4.217   4.744   1.959
 3726TIP3    H211122   4.203   4.604   1.905
 3727TIP3   OH211123   6.931   5.298   2.143
 3727TIP3    H111124   6.997   5.285   2.076
 3727TIP3    H211125   6.962   5.247   2.218
 3728TIP3   OH211126   0.223   4.971   4.600
 3728TIP3    H111127   0.139   4.962   4.555
 3728TIP3    H211128   0.258   4.882   4.603
 3729TIP3   OH211129   5.317   6.239   4.011
 3729TIP3    H111130   5.338   6.150   4.038
 3729TIP3    H211131   5.240   6.263   4.062
 3730TIP3   OH211132   1.899   2.824   6.503
 3730TIP3    H111133   1.899   2.911   6.543
 3730TIP3    H211134   1.967   2.776   6.551
 3731TIP3   OH211135   3.185   1.784   4.437
 3731TIP3    H111136   3.216   1.715   4.378
 3731TIP3    H211137   3.146   1.849   4.378
 3732TIP3   OH211138   7.501   7.685   0.912
 3732TIP3    H111139   7.586   7.657   0.879
 3732TIP3    H211140   7.441   7.615   0.887
 3733TIP3   OH211141   7.796   0.542   3.079
 3733TIP3    H111142   7.795   0.459   3.126
 3733TIP3    H211143   7.876   0.586   3.110
 3734TIP3   OH211144   2.693   7.075   0.671
 3734TIP3    H111145   2.601   7.100   0.675
 3734TIP3    H211146   2.723   7.104   0.584
 3735TIP3   OH211147   2.965   1.838   2.819
 3735TIP3    H111148   3.038   1.784   2.790
 3735TIP3    H211149   2.996   1.928   2.807
 3736TIP3   OH211150   3.759   5.482   0.138
 3736TIP3    H111151   3.693   5.414   0.152
 3736TIP3    H211152   3.756   5.499   0.044
 3737TIP3   OH211153   1.449   1.474   2.933
 3737TIP3    H111154   1.525   1.432   2.975
 3737TIP3    H211155   1.428   1.548   2.990
 3738TIP3   OH211156   4.904   2.193   2.921
 3738TIP3    H111157   4.901   2.198   3.017
 3738TIP3    H211158   4.971   2.257   2.896
 3739TIP3   OH211159   7.198   0.738   3.079
 3739TIP3    H111160   7.167   0.658   3.122
 3739TIP3    H211161   7.256   0.707   3.010
 3740TIP3   OH211162   3.659   1.328   0.435
 3740TIP3    H111163   3.672   1.413   0.478
 3740TIP3    H211164   3.686   1.264   0.500
 3741TIP3   OH211165   2.544   2.502   2.956
 3741TIP3    H111166   2.521   2.435   2.891
 3741TIP3    H211167   2.506   2.583   2.922
 3742TIP3   OH211168   2.825   5.511   0.454
 3742TIP3    H111169   2.902   5.459   0.430
 3742TIP3    H211170   2.861   5.586   0.501
 3743TIP3   OH211171   1.925   7.480   3.194
 3743TIP3    H111172   2.016   7.465   3.170
 3743TIP3    H211173   1.918   7.447   3.284
 3744TIP3   OH211174   5.267   3.045   2.012
 3744TIP3    H111175   5.319   2.974   1.975
 3744TIP3    H211176   5.197   3.059   1.948
 3745TIP3   OH211177   1.263   2.213   2.264
 3745TIP3    H111178   1.231   2.207   2.353
 3745TIP3    H211179   1.185   2.234   2.211
 3746TIP3   OH211180   2.109   2.404   4.455
 3746TIP3    H111181   2.062   2.478   4.494
 3746TIP3    H211182   2.176   2.445   4.399
 3747TIP3   OH211183   0.828   6.490   3.979
 3747TIP3    H111184   0.899   6.501   3.915
 3747TIP3    H211185   0.864   6.525   4.060
 3748TIP3   OH211186   2.426   0.836   0.223
 3748TIP3    H111187   2.396   0.861   0.136
 3748TIP3    H211188   2.355   0.783   0.259
 3749TIP3   OH211189   5.951   2.178   2.769
 3749TIP3    H111190   5.974   2.164   2.678
 3749TIP3    H211191   5.921   2.092   2.800
 3750TIP3   OH211192   1.812   2.467   6.033
 3750TIP3    H111193   1.754   2.541   6.051
 3750TIP3    H211194   1.818   2.464   5.937
 3751TIP3   OH211195   0.792   0.991   6.529
 3751TIP3    H111196   0.744   1.017   6.608
 3751TIP3    H211197   0.876   0.961   6.560
 3752TIP3   OH211198   5.436   4.310   0.903
 3752TIP3    H111199   5.350   4.282   0.936
 3752TIP3    H211200   5.427   4.405   0.893
 3753TIP3   OH211201   1.197   4.062   5.429
 3753TIP3    H111202   1.107   4.040   5.402
 3753TIP3    H211203   1.222   4.134   5.372
 3754TIP3   OH211204   4.485   3.025   3.315
 3754TIP3    H111205   4.510   2.939   3.349
 3754TIP3    H211206   4.395   3.013   3.285
 3755TIP3   OH211207   0.230   1.834   3.108
 3755TIP3    H111208   0.161   1.872   3.163
 3755TIP3    H211209   0.307   1.831   3.165
 3756TIP3   OH211210   1.736   7.386   5.741
 3756TIP3    H111211   1.755   7.479   5.732
 3756TIP3    H211212   1.714   7.357   5.653
 3757TIP3   OH211213   1.639   1.253   1.957
 3757TIP3    H111214   1.724   1.223   1.924
 3757TIP3    H211215   1.575   1.195   1.915
 3758TIP3   OH211216   5.504   7.331   4.974
 3758TIP3    H111217   5.520   7.317   5.067
 3758TIP3    H211218   5.491   7.425   4.966
 3759TIP3   OH211219   1.287   1.109   5.204
 3759TIP3    H111220   1.376   1.141   5.215
 3759TIP3    H211221   1.296   1.014   5.200
 3760TIP3   OH211222   2.935   4.609   0.669
 3760TIP3    H111223   2.968   4.581   0.584
 3760TIP3    H211224   2.862   4.668   0.649
 3761TIP3   OH211225   0.286   0.942   6.352
 3761TIP3    H111226   0.280   1.020   6.298
 3761TIP3    H211227   0.211   0.888   6.326
 3762TIP3   OH211228   7.997   5.273   1.849
 3762TIP3    H111229   7.936   5.199   1.853
 3762TIP3    H211230   7.976   5.317   1.767
 3763TIP3   OH211231   3.162   6.475   3.986
 3763TIP3    H111232   3.112   6.556   3.996
 3763TIP3    H211233   3.137   6.441   3.900
 3764TIP3   OH211234   3.080   0.047   4.247
 3764TIP3    H111235   3.139   0.052   4.323
 3764TIP3    H211236   3.095   0.129   4.199
 3765TIP3   OH211237   3.879   4.016   3.097
 3765TIP3    H111238   3.871   3.943   3.158
 3765TIP3    H211239   3.938   4.077   3.140
 3766TIP3   OH211240   5.008   5.333   5.678
 3766TIP3    H111241   5.084   5.277   5.693
 3766TIP3    H211242   5.035   5.392   5.607
 3767TIP3   OH211243   1.760   1.796   5.389
 3767TIP3    H111244   1.829   1.861   5.396
 3767TIP3    H211245   1.755   1.756   5.476
 3768TIP3   OH211246   6.371   6.221   1.566
 3768TIP3    H111247   6.453   6.195   1.608
 3768TIP3    H211248   6.315   6.248   1.638
 3769TIP3   OH211249   5.631   5.169   2.490
 3769TIP3    H111250   5.716   5.177   2.534
 3769TIP3    H211251   5.584   5.102   2.540
 3770TIP3   OH211252   1.130   6.296   1.349
 3770TIP3    H111253   1.079   6.309   1.429
 3770TIP3    H211254   1.201   6.237   1.374
 3771TIP3   OH211255   3.577   0.143   1.355
 3771TIP3    H111256   3.562   0.145   1.260
 3771TIP3    H211257   3.632   0.220   1.372
 3772TIP3   OH211258   3.842   5.782   0.855
 3772TIP3    H111259   3.788   5.799   0.932
 3772TIP3    H211260   3.838   5.687   0.844
 3773TIP3   OH211261   0.366   5.452   4.203
 3773TIP3    H111262   0.284   5.429   4.246
 3773TIP3    H211263   0.341   5.476   4.114
 3774TIP3   OH211264   0.854   5.035   0.144
 3774TIP3    H111265   0.797   5.112   0.141
 3774TIP3    H211266   0.910   5.050   0.220
 3775TIP3   OH211267   5.457   5.708   4.658
 3775TIP3    H111268   5.388   5.679   4.717
 3775TIP3    H211269   5.524   5.746   4.715
 3776TIP3   OH211270   5.465   1.791   6.197
 3776TIP3    H111271   5.425   1.807   6.112
 3776TIP3    H211272   5.503   1.876   6.222
 3777TIP3   OH211273   3.216   6.987   4.128
 3777TIP3    H111274   3.306   7.004   4.101
 3777TIP3    H211275   3.211   7.019   4.218
 3778TIP3   OH211276   6.949   6.061   3.485
 3778TIP3    H111277   6.858   6.092   3.490
 3778TIP3    H211278   6.973   6.073   3.393
 3779TIP3   OH211279   0.118   1.241   3.650
 3779TIP3    H111280   0.095   1.332   3.669
 3779TIP3    H211281   0.162   1.210   3.729
 3780TIP3   OH211282   6.749   1.523   1.107
 3780TIP3    H111283   6.701   1.442   1.125
 3780TIP3    H211284   6.720   1.550   1.020
 3781TIP3   OH211285   2.978   1.091   4.385
 3781TIP3    H111286   2.943   1.023   4.442
 3781TIP3    H211287   2.944   1.173   4.423
 3782TIP3   OH211288   6.649   6.943   5.350
 3782TIP3    H111289   6.686   6.873   5.403
 3782TIP3    H211290   6.569   6.968   5.395
 3783TIP3   OH211291   1.470   0.380   3.974
 3783TIP3    H111292   1.415   0.453   4.000
 3783TIP3    H211293   1.482   0.390   3.880
 3784TIP3   OH211294   2.743   2.225   3.950
 3784TIP3    H111295   2.766   2.291   3.885
 3784TIP3    H211296   2.741   2.272   4.033
 3785TIP3   OH211297   4.513   0.813   2.149
 3785TIP3    H111298   4.546   0.903   2.146
 3785TIP3    H211299   4.544   0.779   2.233
 3786TIP3   OH211300   7.534   6.320   0.158
 3786TIP3    H111301   7.457   6.265   0.138
 3786TIP3    H211302   7.606   6.279   0.111
 3787TIP3   OH211303   2.837   7.377   6.769
 3787TIP3    H111304   2.875   7.317   6.832
 3787TIP3    H211305   2.792   7.320   6.706
 3788TIP3   OH211306   2.916   3.044   4.418
 3788TIP3    H111307   2.965   2.968   4.449
 3788TIP3    H211308   2.923   3.108   4.490
 3789TIP3   OH211309   4.740   1.712   5.217
 3789TIP3    H111310   4.732   1.758   5.301
 3789TIP3    H211311   4.803   1.642   5.234
 3790TIP3   OH211312   0.334   4.699   1.559
 3790TIP3    H111313   0.283   4.716   1.480
 3790TIP3    H211314   0.270   4.669   1.623
 3791TIP3   OH211315   5.430   3.187   5.781
 3791TIP3    H111316   5.384   3.252   5.833
 3791TIP3    H211317   5.520   3.221   5.774
 3792TIP3   OH211318   2.333   0.529   6.374
 3792TIP3    H111319   2.342   0.606   6.431
 3792TIP3    H211320   2.415   0.482   6.384
 3793TIP3   OH211321   4.610   2.759   5.328
 3793TIP3    H111322   4.591   2.809   5.249
 3793TIP3    H211323   4.691   2.711   5.307
 3794TIP3   OH211324   0.109   5.851   5.439
 3794TIP3    H111325   0.084   5.823   5.351
 3794TIP3    H211326   0.096   5.773   5.494
 3795TIP3   OH211327   2.931   7.283   1.980
 3795TIP3    H111328   2.943   7.296   2.074
 3795TIP3    H211329   3.018   7.257   1.948
 3796TIP3   OH211330   6.160   4.073   6.451
 3796TIP3    H111331   6.108   4.153   6.459
 3796TIP3    H211332   6.097   4.002   6.461
 3797TIP3   OH211333   4.881   4.069   4.316
 3797TIP3    H111334   4.967   4.036   4.292
 3797TIP3    H211335   4.900   4.148   4.367
 3798TIP3   OH211336   3.228   3.933   0.430
 3798TIP3    H111337   3.136   3.946   0.407
 3798TIP3    H211338   3.265   4.022   0.430
 3799TIP3   OH211339   3.282   2.982   6.003
 3799TIP3    H111340   3.307   2.927   5.928
 3799TIP3    H211341   3.294   2.926   6.079
 3800TIP3   OH211342   1.575   1.711   6.545
 3800TIP3    H111343   1.539   1.623   6.543
 3800TIP3    H211344   1.509   1.763   6.592
 3801TIP3   OH211345   2.579   6.595   2.579
 3801TIP3    H111346   2.648   6.570   2.641
 3801TIP3    H211347   2.611   6.564   2.494
 3802TIP3   OH211348   0.600   7.631   0.130
 3802TIP3    H111349   0.687   7.665   0.108
 3802TIP3    H211350   0.588   7.653   0.223
 3803TIP3   OH211351   6.482   2.971   5.438
 3803TIP3    H111352   6.576   2.985   5.431
 3803TIP3    H211353   6.469   2.943   5.529
 3804TIP3   OH211354   7.537   5.642   4.949
 3804TIP3    H111355   7.501   5.619   5.034
 3804TIP3    H211356   7.535   5.738   4.947
 3805TIP3   OH211357   0.651   1.596   1.654
 3805TIP3    H111358   0.710   1.629   1.587
 3805TIP3    H211359   0.563   1.618   1.622
 3806TIP3   OH211360   6.670   0.226   4.922
 3806TIP3    H111361   6.730   0.188   4.986
 3806TIP3    H211362   6.627   0.297   4.970
 3807TIP3   OH211363   0.196   3.240   5.202
 3807TIP3    H111364   0.144   3.206   5.274
 3807TIP3    H211365   0.152   3.209   5.123
 3808TIP3   OH211366   4.710   0.210   6.098
 3808TIP3    H111367   4.784   0.151   6.086
 3808TIP3    H211368   4.654   0.195   6.021
 3809TIP3   OH211369   0.434   0.717   3.725
 3809TIP3    H111370   0.376   0.695   3.798
 3809TIP3    H211371   0.408   0.657   3.655
 3810TIP3   OH211372   5.393   2.355   6.619
 3810TIP3    H111373   5.465   2.417   6.610
 3810TIP3    H211374   5.428   2.285   6.676
 3811TIP3   OH211375   1.926   4.450   1.253
 3811TIP3    H111376   1.862   4.389   1.291
 3811TIP3    H211377   2.008   4.401   1.255
 3812TIP3   OH211378   2.191   1.555   1.287
 3812TIP3    H111379   2.271   1.605   1.273
 3812TIP3    H211380   2.195   1.529   1.379
 3813TIP3   OH211381   1.814   1.332   3.857
 3813TIP3    H111382   1.727   1.327   3.817
 3813TIP3    H211383   1.845   1.420   3.835
 3814TIP3   OH211384   2.047   1.700   3.639
 3814TIP3    H111385   2.027   1.607   3.628
 3814TIP3    H211386   2.140   1.702   3.663
 3815TIP3   OH211387   8.035   6.380   4.166
 3815TIP3    H111388   7.995   6.445   4.224
 3815TIP3    H211389   8.077   6.318   4.225
 3816TIP3   OH211390   6.545   0.424   5.226
 3816TIP3    H111391   6.518   0.464   5.144
 3816TIP3    H211392   6.476   0.362   5.247
 3817TIP3   OH211393   0.375   7.826   6.260
 3817TIP3    H111394   0.325   7.746   6.245
 3817TIP3    H211395   0.440   7.826   6.190
 3818TIP3   OH211396   0.143   3.844   0.812
 3818TIP3    H111397   0.239   3.848   0.821
 3818TIP3    H211398   0.114   3.934   0.821
 3819TIP3   OH211399   6.746   0.559   3.440
 3819TIP3    H111400   6.694   0.524   3.368
 3819TIP3    H211401   6.731   0.498   3.513
 3820TIP3   OH211402   7.899   7.074   5.029
 3820TIP3    H111403   7.871   7.062   5.120
 3820TIP3    H211404   7.881   6.991   4.986
 3821TIP3   OH211405   3.866   6.207   2.590
 3821TIP3    H111406   3.805   6.263   2.542
 3821TIP3    H211407   3.899   6.262   2.661
 3822TIP3   OH211408   5.773   2.824   4.302
 3822TIP3    H111409   5.805   2.885   4.235
 3822TIP3    H211410   5.700   2.869   4.343
 3823TIP3   OH211411   3.796   1.050   6.062
 3823TIP3    H111412   3.759   1.052   6.151
 3823TIP3    H211413   3.877   1.001   6.071
 3824TIP3   OH211414   0.798   2.705   4.946
 3824TIP3    H111415   0.756   2.701   5.032
 3824TIP3    H211416   0.810   2.614   4.921
 3825TIP3   OH211417   7.036   5.866   6.466
 3825TIP3    H111418   7.018   5.781   6.507
 3825TIP3    H211419   6.959   5.919   6.488
 3826TIP3   OH211420   3.365   2.013   0.782
 3826TIP3    H111421   3.385   2.024   0.875
 3826TIP3    H211422   3.278   1.974   0.781
 3827TIP3   OH211423   7.543   0.183   4.890
 3827TIP3    H111424   7.523   0.109   4.833
 3827TIP3    H211425   7.572   0.253   4.831
 3828TIP3   OH211426   0.015   4.787   6.295
 3828TIP3    H111427   0.090   4.843   6.275
 3828TIP3    H211428  -0.007   4.807   6.386
 3829TIP3   OH211429   4.781   1.328   6.349
 3829TIP3    H111430   4.758   1.243   6.385
 3829TIP3    H211431   4.798   1.312   6.257
 3830TIP3   OH211432   3.525   5.373   1.158
 3830TIP3    H111433   3.516   5.305   1.225
 3830TIP3    H211434   3.505   5.454   1.204
 3831TIP3   OH211435   2.148   5.704   0.238
 3831TIP3    H111436   2.063   5.673   0.271
 3831TIP3    H211437   2.190   5.743   0.315
 3832TIP3   OH211438   6.853   3.591   1.856
 3832TIP3    H111439   6.779   3.534   1.835
 3832TIP3    H211440   6.892   3.551   1.934
 3833TIP3   OH211441   5.114   5.456   4.066
 3833TIP3    H111442   5.049   5.457   4.137
 3833TIP3    H211443   5.160   5.539   4.076
 3834TIP3   OH211444   7.574   7.411   2.661
 3834TIP3    H111445   7.533   7.496   2.649
 3834TIP3    H211446   7.649   7.427   2.719
 3835TIP3   OH211447   5.650   1.963   5.938
 3835TIP3    H111448   5.626   2.053   5.961
 3835TIP3    H211449   5.567   1.916   5.942
 3836TIP3   OH211450   1.717   0.356   2.283
 3836TIP3    H111451   1.648   0.397   2.232
 3836TIP3    H211452   1.685   0.357   2.373
 3837TIP3   OH211453   2.963   6.126   0.313
 3837TIP3    H111454   2.893   6.082   0.361
 3837TIP3    H211455   3.036   6.065   0.314
 3838TIP3   OH211456   1.673   4.043   1.155
 3838TIP3    H111457   1.656   3.954   1.125
 3838TIP3    H211458   1.642   4.043   1.246
 3839TIP3   OH211459   3.799   4.854   1.789
 3839TIP3    H111460   3.757   4.939   1.802
 3839TIP3    H211461   3.802   4.844   1.694
 3840TIP3   OH211462   5.482   3.843   0.352
 3840TIP3    H111463   5.399   3.891   0.358
 3840TIP3    H211464   5.456   3.752   0.338
 3841TIP3   OH211465   6.138   3.502   5.624
 3841TIP3    H111466   6.124   3.570   5.690
 3841TIP3    H211467   6.089   3.531   5.548
 3842TIP3   OH211468   7.798   0.514   1.200
 3842TIP3    H111469   7.739   0.584   1.225
 3842TIP3    H211470   7.869   0.558   1.152
 3843TIP3   OH211471   4.034   4.630   3.042
 3843TIP3    H111472   4.115   4.594   3.005
 3843TIP3    H211473   4.054   4.722   3.059
 3844TIP3   OH211474   6.802   4.344   0.501
 3844TIP3    H111475   6.782   4.314   0.412
 3844TIP3    H211476   6.746   4.421   0.513
 3845TIP3   OH211477   2.853   6.458   1.440
 3845TIP3    H111478   2.775   6.472   1.386
 3845TIP3    H211479   2.866   6.542   1.485
 3846TIP3   OH211480   3.807   6.755   2.984
 3846TIP3    H111481   3.802   6.815   3.058
 3846TIP3    H211482   3.900   6.753   2.961
 3847TIP3   OH211483   2.419   2.822   6.206
 3847TIP3    H111484   2.480   2.830   6.280
 3847TIP3    H211485   2.374   2.907   6.203
 3848TIP3   OH211486   1.724   7.534   4.485
 3848TIP3    H111487   1.654   7.580   4.438
 3848TIP3    H211488   1.742   7.456   4.432
 3849TIP3   OH211489   3.530   0.755   5.905
 3849TIP3    H111490   3.618   0.751   5.869
 3849TIP3    H211491   3.514   0.849   5.918
 3850TIP3   OH211492   3.992   4.634   1.396
 3850TIP3    H111493   3.946   4.674   1.469
 3850TIP3    H211494   3.953   4.547   1.388
 3851TIP3   OH211495   0.353   4.100   5.703
 3851TIP3    H111496   0.434   4.151   5.714
 3851TIP3    H211497   0.300   4.125   5.779
 3852TIP3   OH211498   5.740   2.726   2.172
 3852TIP3    H111499   5.693   2.737   2.255
 3852TIP3    H211500   5.710   2.800   2.119
 3853TIP3   OH211501   1.944   3.629   0.793
 3853TIP3    H111502   2.010   3.561   0.805
 3853TIP3    H211503   1.964   3.695   0.860
 3854TIP3   OH211504   0.843   2.857   5.615
 3854TIP3    H111505   0.904   2.816   5.677
 3854TIP3    H211506   0.884   2.843   5.529
 3855TIP3   OH211507   0.171   3.949   5.582
 3855TIP3    H111508   0.238   3.973   5.646
 3855TIP3    H211509   0.115   4.026   5.576
 3856TIP3   OH211510   2.303   4.576   5.173
 3856TIP3    H111511   2.282   4.496   5.123
 3856TIP3    H211512   2.370   4.548   5.235
 3857TIP3   OH211513   5.030   2.761   2.327
 3857TIP3    H111514   5.121   2.756   2.296
 3857TIP3    H211515   5.019   2.681   2.379
 3858TIP3   OH211516   6.641   5.275   3.398
 3858TIP3    H111517   6.723   5.244   3.436
 3858TIP3    H211518   6.667   5.340   3.334
 3859TIP3   OH211519   1.308   3.108   5.024
 3859TIP3    H111520   1.317   3.153   5.108
 3859TIP3    H211521   1.219   3.073   5.025
 3860TIP3   OH211522   0.062   2.421   3.842
 3860TIP3    H111523   0.052   2.498   3.898
 3860TIP3    H211524  -0.002   2.434   3.772
 3861TIP3   OH211525   6.349   0.231   6.111
 3861TIP3    H111526   6.417   0.297   6.105
 3861TIP3    H211527   6.335   0.203   6.020
 3862TIP3   OH211528   1.945   5.280   2.915
 3862TIP3    H111529   1.885   5.222   2.869
 3862TIP3    H211530   2.009   5.307   2.849
 3863TIP3   OH211531   6.237   6.635   3.703
 3863TIP3    H111532   6.223   6.558   3.759
 3863TIP3    H211533   6.190   6.706   3.748
 3864TIP3   OH211534   1.926   7.538   0.244
 3864TIP3    H111535   1.908   7.504   0.332
 3864TIP3    H211536   1.878   7.479   0.185
 3865TIP3   OH211537   1.065   3.255   6.372
 3865TIP3    H111538   0.995   3.319   6.362
 3865TIP3    H211539   1.031   3.176   6.331
 3866TIP3   OH211540   4.619   3.704   3.154
 3866TIP3    H111541   4.540   3.733   3.200
 3866TIP3    H211542   4.586   3.658   3.077
 3867TIP3   OH211543   1.786   6.439   3.495
 3867TIP3    H111544   1.863   6.406   3.448
 3867TIP3    H211545   1.713   6.427   3.434
 3868TIP3   OH211546   6.612   4.016   3.587
 3868TIP3    H111547   6.681   4.044   3.647
 3868TIP3    H211548   6.613   3.920   3.593
 3869TIP3   OH211549   8.291   2.742   5.223
 3869TIP3    H111550   8.295   2.751   5.128
 3869TIP3    H211551   8.382   2.723   5.249
 3870TIP3   OH211552   5.379   2.776   0.834
 3870TIP3    H111553   5.455   2.753   0.779
 3870TIP3    H211554   5.311   2.716   0.804
 3871TIP3   OH211555   2.285   6.862   2.739
 3871TIP3    H111556   2.351   6.870   2.670
 3871TIP3    H211557   2.287   6.946   2.784
 3872TIP3   OH211558   5.850   1.622   0.213
 3872TIP3    H111559   5.803   1.592   0.291
 3872TIP3    H211560   5.942   1.604   0.232
 3873TIP3   OH211561   7.880   2.703   3.994
 3873TIP3    H111562   7.789   2.731   4.001
 3873TIP3    H211563   7.907   2.729   3.906
 3874TIP3   OH211564   4.018   5.488   2.841
 3874TIP3    H111565   3.970   5.560   2.799
 3874TIP3    H211566   4.102   5.485   2.794
 3875TIP3   OH211567   1.017   0.459   4.816
 3875TIP3    H111568   1.105   0.496   4.813
 3875TIP3    H211569   1.031   0.366   4.834
 3876TIP3   OH211570   8.130   5.431   5.102
 3876TIP3    H111571   8.114   5.504   5.162
 3876TIP3    H211572   8.202   5.460   5.047
 3877TIP3   OH211573   6.025   5.499   5.118
 3877TIP3    H111574   6.118   5.524   5.117
 3877TIP3    H211575   5.978   5.582   5.118
 3878TIP3   OH211576   2.767   0.369   2.021
 3878TIP3    H111577   2.767   0.275   2.040
 3878TIP3    H211578   2.834   0.379   1.953
 3879TIP3   OH211579   6.218   0.033   5.560
 3879TIP3    H111580   6.185   0.036   5.470
 3879TIP3    H211581   6.144   0.063   5.613
 3880TIP3   OH211582   0.215   7.495   4.387
 3880TIP3    H111583   0.250   7.467   4.303
 3880TIP3    H211584   0.120   7.491   4.377
 3881TIP3   OH211585   3.792   6.730   4.000
 3881TIP3    H111586   3.883   6.701   4.015
 3881TIP3    H211587   3.771   6.698   3.913
 3882TIP3   OH211588   2.550   3.611   4.614
 3882TIP3    H111589   2.625   3.670   4.616
 3882TIP3    H211590   2.490   3.650   4.550
 3883TIP3   OH211591   2.282   2.708   0.441
 3883TIP3    H111592   2.254   2.704   0.350
 3883TIP3    H211593   2.366   2.753   0.439
 3884TIP3   OH211594   5.318   2.868   4.753
 3884TIP3    H111595   5.262   2.930   4.706
 3884TIP3    H211596   5.296   2.783   4.714
 3885TIP3   OH211597   1.226   3.434   6.589
 3885TIP3    H111598   1.194   3.359   6.539
 3885TIP3    H211599   1.316   3.410   6.612
 3886TIP3   OH211600   3.765   7.040   5.252
 3886TIP3    H111601   3.754   7.047   5.158
 3886TIP3    H211602   3.694   6.982   5.281
 3887TIP3   OH211603   7.583   3.085   3.912
 3887TIP3    H111604   7.667   3.123   3.937
 3887TIP3    H211605   7.557   3.135   3.834
 3888TIP3   OH211606   7.240   1.586   1.790
 3888TIP3    H111607   7.323   1.564   1.833
 3888TIP3    H211608   7.238   1.531   1.713
 3889TIP3   OH211609   5.121   3.166   3.794
 3889TIP3    H111610   5.097   3.189   3.704
 3889TIP3    H211611   5.199   3.219   3.812
 3890TIP3   OH211612   0.400   2.758   0.803
 3890TIP3    H111613   0.353   2.809   0.737
 3890TIP3    H211614   0.361   2.671   0.799
 3891TIP3   OH211615   3.302   5.219   3.519
 3891TIP3    H111616   3.211   5.217   3.548
 3891TIP3    H211617   3.350   5.261   3.591
 3892TIP3   OH211618   7.430   0.244   6.709
 3892TIP3    H111619   7.386   0.329   6.706
 3892TIP3    H211620   7.464   0.232   6.620
 3893TIP3   OH211621   2.742   1.504   4.983
 3893TIP3    H111622   2.828   1.545   4.997
 3893TIP3    H211623   2.686   1.541   5.051
 3894TIP3   OH211624   7.153   1.592   6.264
 3894TIP3    H111625   7.210   1.519   6.290
 3894TIP3    H211626   7.213   1.655   6.223
 3895TIP3   OH211627   6.014   1.015   6.073
 3895TIP3    H111628   6.099   0.988   6.108
 3895TIP3    H211629   5.983   1.082   6.135
 3896TIP3   OH211630   3.330   6.402   4.947
 3896TIP3    H111631   3.394   6.371   4.883
 3896TIP3    H211632   3.361   6.368   5.031
 3897TIP3   OH211633   1.214   4.214   0.894
 3897TIP3    H111634   1.217   4.221   0.799
 3897TIP3    H211635   1.279   4.278   0.925
 3898TIP3   OH211636   1.756   5.795   1.591
 3898TIP3    H111637   1.806   5.875   1.605
 3898TIP3    H211638   1.789   5.734   1.656
 3899TIP3   OH211639   4.541   6.681   1.193
 3899TIP3    H111640   4.521   6.609   1.133
 3899TIP3    H211641   4.481   6.668   1.267
 3900TIP3   OH211642   7.343   7.303   3.664
 3900TIP3    H111643   7.377   7.387   3.695
 3900TIP3    H211644   7.416   7.243   3.674
 3901TIP3   OH211645   2.614   3.511   5.331
 3901TIP3    H111646   2.696   3.555   5.313
 3901TIP3    H211647   2.604   3.447   5.260
 3902TIP3   OH211648   3.565   7.644   3.458
 3902TIP3    H111649   3.477   7.613   3.478
 3902TIP3    H211650   3.621   7.568   3.478
 3903TIP3   OH211651   6.998   6.701   4.811
 3903TIP3    H111652   6.932   6.769   4.799
 3903TIP3    H211653   6.956   6.637   4.868
 3904TIP3   OH211654   7.686   4.747   3.574
 3904TIP3    H111655   7.635   4.695   3.636
 3904TIP3    H211656   7.715   4.683   3.509
 3905TIP3   OH211657   6.394   4.583   0.015
 3905TIP3    H111658   6.478   4.607  -0.024
 3905TIP3    H211659   6.412   4.502   0.063
 3906TIP3   OH211660   0.048   2.943   1.524
 3906TIP3    H111661  -0.026   2.905   1.477
 3906TIP3    H211662   0.094   2.868   1.561
 3907TIP3   OH211663   5.566   6.607   0.016
 3907TIP3    H111664   5.634   6.544   0.040
 3907TIP3    H211665   5.607   6.664  -0.049
 3908TIP3   OH211666   3.501   1.216   2.532
 3908TIP3    H111667   3.541   1.255   2.454
 3908TIP3    H211668   3.574   1.180   2.582
 3909TIP3   OH211669   6.154   2.621   5.837
 3909TIP3    H111670   6.103   2.689   5.881
 3909TIP3    H211671   6.125   2.626   5.745
 3910TIP3   OH211672   5.475   4.921   6.652
 3910TIP3    H111673   5.442   4.836   6.623
 3910TIP3    H211674   5.435   4.934   6.738
 3911TIP3   OH211675   8.270   7.049   1.971
 3911TIP3    H111676   8.297   7.124   1.918
 3911TIP3    H211677   8.178   7.035   1.949
 3912TIP3   OH211678   4.137   7.434   5.025
 3912TIP3    H111679   4.196   7.405   5.095
 3912TIP3    H211680   4.113   7.353   4.980
 3913TIP3   OH211681   1.700   0.999   0.926
 3913TIP3    H111682   1.794   0.988   0.940
 3913TIP3    H211683   1.685   0.964   0.838
 3914TIP3   OH211684   6.962   7.570   1.668
 3914TIP3    H111685   6.882   7.517   1.676
 3914TIP3    H211686   6.977   7.577   1.574
 3915TIP3   OH211687   5.733   3.106   0.197
 3915TIP3    H111688   5.775   3.191   0.187
 3915TIP3    H211689   5.769   3.071   0.279
 3916TIP3   OH211690   0.761   7.565   1.923
 3916TIP3    H111691   0.679   7.597   1.961
 3916TIP3    H211692   0.798   7.508   1.990
 3917TIP3   OH211693   6.928   2.904   3.454
 3917TIP3    H111694   6.909   2.815   3.424
 3917TIP3    H211695   6.847   2.953   3.436
 3918TIP3   OH211696   6.086   7.185   6.065
 3918TIP3    H111697   6.092   7.134   6.146
 3918TIP3    H211698   6.051   7.270   6.092
 3919TIP3   OH211699   4.215   2.451   2.304
 3919TIP3    H111700   4.207   2.417   2.215
 3919TIP3    H211701   4.310   2.462   2.317
 3920TIP3   OH211702   5.833   0.021   3.385
 3920TIP3    H111703   5.890  -0.035   3.438
 3920TIP3    H211704   5.887   0.045   3.310
 3921TIP3   OH211705   7.747   5.092   4.913
 3921TIP3    H111706   7.728   5.184   4.894
 3921TIP3    H211707   7.777   5.056   4.829
 3922TIP3   OH211708   1.516   0.752   3.932
 3922TIP3    H111709   1.480   0.839   3.919
 3922TIP3    H211710   1.572   0.738   3.856
 3923TIP3   OH211711   0.132   7.207   4.273
 3923TIP3    H111712   0.069   7.238   4.208
 3923TIP3    H211713   0.183   7.141   4.226
 3924TIP3   OH211714   3.887   3.853   2.064
 3924TIP3    H111715   3.980   3.844   2.086
 3924TIP3    H211716   3.886   3.873   1.971
 3925TIP3   OH211717   7.070   0.803   6.542
 3925TIP3    H111718   7.113   0.888   6.533
 3925TIP3    H211719   7.138   0.739   6.520
 3926TIP3   OH211720   6.766   2.109   0.371
 3926TIP3    H111721   6.744   2.016   0.364
 3926TIP3    H211722   6.797   2.133   0.284
 3927TIP3   OH211723   4.691   1.346   4.774
 3927TIP3    H111724   4.710   1.431   4.813
 3927TIP3    H211725   4.672   1.290   4.849
 3928TIP3   OH211726   4.321   1.252   2.301
 3928TIP3    H111727   4.313   1.314   2.373
 3928TIP3    H211728   4.373   1.298   2.235
 3929TIP3   OH211729   0.786   4.953   4.303
 3929TIP3    H111730   0.723   4.920   4.239
 3929TIP3    H211731   0.780   5.049   4.295
 3930TIP3   OH211732   7.571   5.142   5.160
 3930TIP3    H111733   7.665   5.146   5.179
 3930TIP3    H211734   7.555   5.217   5.102
 3931TIP3   OH211735   3.023   7.240   3.590
 3931TIP3    H111736   2.958   7.260   3.523
 3931TIP3    H211737   3.029   7.319   3.643
 3932TIP3   OH211738   6.530   7.308   4.053
 3932TIP3    H111739   6.597   7.275   4.112
 3932TIP3    H211740   6.573   7.381   4.007
 3933TIP3   OH211741   0.080   3.012   0.503
 3933TIP3    H111742   0.104   3.104   0.512
 3933TIP3    H211743   0.089   2.994   0.409
 3934TIP3   OH211744   6.665   6.263   5.150
 3934TIP3    H111745   6.669   6.169   5.166
 3934TIP3    H211746   6.748   6.297   5.183
 3935TIP3   OH211747   1.405   7.343   2.435
 3935TIP3    H111748   1.359   7.304   2.360
 3935TIP3    H211749   1.389   7.281   2.507
 3936TIP3   OH211750   1.705   1.307   1.102
 3936TIP3    H111751   1.715   1.238   1.168
 3936TIP3    H211752   1.790   1.311   1.058
 3937TIP3   OH211753   6.981   2.141   3.533
 3937TIP3    H111754   6.943   2.114   3.617
 3937TIP3    H211755   6.925   2.100   3.467
 3938TIP3   OH211756   5.321   0.974   6.501
 3938TIP3    H111757   5.308   0.879   6.498
 3938TIP3    H211758   5.327   1.001   6.410
 3939TIP3   OH211759   6.267   3.468   2.090
 3939TIP3    H111760   6.246   3.501   2.177
 3939TIP3    H211761   6.252   3.542   2.031
 3940TIP3   OH211762   3.830   7.136   3.302
 3940TIP3    H111763   3.742   7.170   3.317
 3940TIP3    H211764   3.870   7.199   3.242
 3941TIP3   OH211765   1.418   3.533   0.481
 3941TIP3    H111766   1.441   3.523   0.573
 3941TIP3    H211767   1.497   3.570   0.441
 3942TIP3   OH211768   5.326   7.336   0.721
 3942TIP3    H111769   5.404   7.287   0.695
 3942TIP3    H211770   5.258   7.305   0.661
 3943TIP3   OH211771   7.162   3.142   6.713
 3943TIP3    H111772   7.217   3.073   6.676
 3943TIP3    H211773   7.170   3.214   6.651
 3944TIP3   OH211774   7.888   6.356   3.704
 3944TIP3    H111775   7.958   6.422   3.706
 3944TIP3    H211776   7.857   6.351   3.794
 3945TIP3   OH211777   5.695   4.176   0.922
 3945TIP3    H111778   5.747   4.199   0.844
 3945TIP3    H211779   5.605   4.198   0.898
 3946TIP3   OH211780   2.712   1.473   5.450
 3946TIP3    H111781   2.784   1.452   5.390
 3946TIP3    H211782   2.640   1.418   5.421
 3947TIP3   OH211783   1.407   2.805   1.518
 3947TIP3    H111784   1.313   2.822   1.514
 3947TIP3    H211785   1.440   2.868   1.582
 3948TIP3   OH211786   3.102   0.286   4.076
 3948TIP3    H111787   3.014   0.323   4.077
 3948TIP3    H211788   3.160   0.361   4.084
 3949TIP3   OH211789   0.343   4.254   2.695
 3949TIP3    H111790   0.371   4.242   2.604
 3949TIP3    H211791   0.338   4.165   2.730
 3950TIP3   OH211792   4.353   6.737   0.475
 3950TIP3    H111793   4.340   6.722   0.381
 3950TIP3    H211794   4.332   6.829   0.488
 3951TIP3   OH211795   0.143   3.632   0.357
 3951TIP3    H111796   0.207   3.692   0.396
 3951TIP3    H211797   0.062   3.649   0.405
 3952TIP3   OH211798   7.228   4.288   2.524
 3952TIP3    H111799   7.288   4.279   2.450
 3952TIP3    H211800   7.161   4.221   2.509
 3953TIP3   OH211801   1.896   2.302   1.741
 3953TIP3    H111802   1.986   2.308   1.707
 3953TIP3    H211803   1.878   2.390   1.776
 3954TIP3   OH211804   0.965   4.498   2.291
 3954TIP3    H111805   1.004   4.579   2.323
 3954TIP3    H211806   0.919   4.462   2.368
 3955TIP3   OH211807   3.756   4.707   1.043
 3955TIP3    H111808   3.705   4.635   1.081
 3955TIP3    H211809   3.847   4.684   1.060
 3956TIP3   OH211810   5.948   0.552   2.423
 3956TIP3    H111811   5.858   0.536   2.451
 3956TIP3    H211812   5.959   0.647   2.427
 3957TIP3   OH211813   1.376   1.649   3.107
 3957TIP3    H111814   1.300   1.707   3.116
 3957TIP3    H211815   1.448   1.707   3.082
 3958TIP3   OH211816   2.365   6.058   6.070
 3958TIP3    H111817   2.364   5.965   6.093
 3958TIP3    H211818   2.408   6.101   6.143
 3959TIP3   OH211819   2.558   1.170   4.835
 3959TIP3    H111820   2.639   1.152   4.787
 3959TIP3    H211821   2.515   1.240   4.786
 3960TIP3   OH211822   5.750   4.033   5.226
 3960TIP3    H111823   5.734   3.941   5.203
 3960TIP3    H211824   5.685   4.053   5.293
 3961TIP3   OH211825   4.950   5.527   4.280
 3961TIP3    H111826   4.975   5.588   4.349
 3961TIP3    H211827   4.883   5.472   4.320
 3962TIP3   OH211828   6.632   5.848   0.079
 3962TIP3    H111829   6.642   5.773   0.138
 3962TIP3    H211830   6.716   5.895   0.085
 3963TIP3   OH211831   5.269   7.337   1.007
 3963TIP3    H111832   5.241   7.392   0.934
 3963TIP3    H211833   5.364   7.334   0.999
 3964TIP3   OH211834   0.501   4.280   2.403
 3964TIP3    H111835   0.504   4.195   2.359
 3964TIP3    H211836   0.593   4.305   2.413
 3965TIP3   OH211837   1.722   0.798   3.245
 3965TIP3    H111838   1.687   0.719   3.286
 3965TIP3    H211839   1.729   0.861   3.317
 3966TIP3   OH211840   6.124   7.658   1.794
 3966TIP3    H111841   6.100   7.710   1.870
 3966TIP3    H211842   6.137   7.721   1.724
 3967TIP3   OH211843   0.975   2.181   2.845
 3967TIP3    H111844   0.940   2.215   2.763
 3967TIP3    H211845   1.068   2.205   2.843
 3968TIP3   OH211846   6.752   3.277   4.714
 3968TIP3    H111847   6.808   3.235   4.650
 3968TIP3    H211848   6.730   3.208   4.777
 3969TIP3   OH211849   3.871   4.078   6.850
 3969TIP3    H111850   3.844   4.002   6.798
 3969TIP3    H211851   3.805   4.084   6.919
 3970TIP3   OH211852   6.531   5.342   2.262
 3970TIP3    H111853   6.598   5.326   2.329
 3970TIP3    H211854   6.578   5.333   2.179
 3971TIP3   OH211855   5.744   4.907   5.258
 3971TIP3    H111856   5.650   4.921   5.242
 3971TIP3    H211857   5.786   4.944   5.180
 3972TIP3   OH211858   5.798   4.430   4.825
 3972TIP3    H111859   5.760   4.387   4.748
 3972TIP3    H211860   5.888   4.400   4.827
 3973TIP3   OH211861   4.916   1.438   2.852
 3973TIP3    H111862   4.937   1.409   2.940
 3973TIP3    H211863   4.888   1.529   2.863
 3974TIP3   OH211864   7.286   5.943   2.706
 3974TIP3    H111865   7.272   5.895   2.625
 3974TIP3    H211866   7.381   5.951   2.713
 3975TIP3   OH211867   1.941   3.356   2.619
 3975TIP3    H111868   1.898   3.415   2.556
 3975TIP3    H211869   1.893   3.368   2.700
 3976TIP3   OH211870   5.349   3.329   2.168
 3976TIP3    H111871   5.337   3.247   2.119
 3976TIP3    H211872   5.314   3.397   2.111
 3977TIP3   OH211873   4.141   0.184   6.638
 3977TIP3    H111874   4.163   0.273   6.612
 3977TIP3    H211875   4.205   0.129   6.592
 3978TIP3   OH211876   0.571   6.598   4.576
 3978TIP3    H111877   0.601   6.516   4.537
 3978TIP3    H211878   0.586   6.586   4.670
 3979TIP3   OH211879   0.189   1.023   4.075
 3979TIP3    H111880   0.163   0.950   4.131
 3979TIP3    H211881   0.117   1.034   4.013
 3980TIP3   OH211882   6.979   7.656   0.021
 3980TIP3    H111883   7.056   7.713   0.022
 3980TIP3    H211884   7.015   7.567   0.018
 3981TIP3   OH211885   1.034   1.685   4.279
 3981TIP3    H111886   0.966   1.644   4.333
 3981TIP3    H211887   0.990   1.707   4.197
 3982TIP3   OH211888   1.854   6.761   6.553
 3982TIP3    H111889   1.785   6.744   6.617
 3982TIP3    H211890   1.862   6.680   6.504
 3983TIP3   OH211891   2.342   1.072   5.725
 3983TIP3    H111892   2.424   1.036   5.758
 3983TIP3    H211893   2.305   1.002   5.671
 3984TIP3   OH211894   3.472   6.759   1.350
 3984TIP3    H111895   3.547   6.817   1.361
 3984TIP3    H211896   3.505   6.672   1.370
 3985TIP3   OH211897   6.848   4.638   4.479
 3985TIP3    H111898   6.833   4.569   4.545
 3985TIP3    H211899   6.928   4.681   4.508
 3986TIP3   OH211900   2.037   3.791   3.465
 3986TIP3    H111901   1.984   3.814   3.388
 3986TIP3    H211902   1.990   3.718   3.505
 3987TIP3   OH211903   8.049   4.057   6.439
 3987TIP3    H111904   8.091   4.128   6.488
 3987TIP3    H211905   8.012   4.099   6.362
 3988TIP3   OH211906   7.701   3.533   3.410
 3988TIP3    H111907   7.705   3.465   3.478
 3988TIP3    H211908   7.736   3.490   3.332
 3989TIP3   OH211909   2.676   6.265   0.477
 3989TIP3    H111910   2.740   6.197   0.454
 3989TIP3    H211911   2.597   6.216   0.499
 3990TIP3   OH211912   0.244   0.033   6.439
 3990TIP3    H111913   0.156   0.000   6.455
 3990TIP3    H211914   0.234   0.128   6.434
 3991TIP3   OH211915   7.204   0.590   5.894
 3991TIP3    H111916   7.192   0.621   5.984
 3991TIP3    H211917   7.291   0.549   5.894
 3992TIP3   OH211918   6.069   4.051   6.030
 3992TIP3    H111919   6.150   4.074   6.076
 3992TIP3    H211920   6.009   4.122   6.050
 3993TIP3   OH211921   2.637   0.436   1.108
 3993TIP3    H111922   2.556   0.487   1.101
 3993TIP3    H211923   2.668   0.428   1.018
 3994TIP3   OH211924   0.580   3.353   5.351
 3994TIP3    H111925   0.527   3.397   5.285
 3994TIP3    H211926   0.671   3.375   5.328
 3995TIP3   OH211927   1.907   4.700   2.345
 3995TIP3    H111928   1.999   4.682   2.365
 3995TIP3    H211929   1.891   4.787   2.383
 3996TIP3   OH211930   3.098   3.893   1.509
 3996TIP3    H111931   3.009   3.914   1.540
 3996TIP3    H211932   3.109   3.800   1.530
 3997TIP3   OH211933   3.217   3.251   1.216
 3997TIP3    H111934   3.195   3.310   1.288
 3997TIP3    H211935   3.201   3.303   1.137
 3998TIP3   OH211936   1.817   0.102   1.121
 3998TIP3    H111937   1.764   0.023   1.109
 3998TIP3    H211938   1.908   0.070   1.118
 3999TIP3   OH211939   1.349   0.296   0.096
 3999TIP3    H111940   1.269   0.247   0.118
 3999TIP3    H211941   1.317   0.380   0.064
 4000TIP3   OH211942   2.813   7.725   5.346
 4000TIP3    H111943   2.800   7.647   5.399
 4000TIP3    H211944   2.875   7.698   5.278
 4001TIP3   OH211945   0.908   4.968   5.519
 4001TIP3    H111946   0.847   4.987   5.449
 4001TIP3    H211947   0.908   4.873   5.526
 4002TIP3   OH211948   1.161   7.147   0.614
 4002TIP3    H111949   1.152   7.222   0.672
 4002TIP3    H211950   1.079   7.144   0.565
 4003TIP3   OH211951   3.505   3.452   4.696
 4003TIP3    H111952   3.473   3.541   4.710
 4003TIP3    H211953   3.595   3.453   4.729
 4004TIP3   OH211954   7.437   4.040   4.218
 4004TIP3    H111955   7.446   4.028   4.124
 4004TIP3    H211956   7.424   4.134   4.230
 4005TIP3   OH211957   6.317   6.695   2.594
 4005TIP3    H111958   6.362   6.708   2.511
 4005TIP3    H211959   6.312   6.783   2.632
 4006TIP3   OH211960   2.368   3.436   2.140
 4006TIP3    H111961   2.347   3.416   2.048
 4006TIP3    H211962   2.462   3.452   2.140
 4007TIP3   OH211963   8.126   1.203   5.465
 4007TIP3    H111964   8.176   1.123   5.480
 4007TIP3    H211965   8.051   1.174   5.412
 4008TIP3   OH211966   3.583   2.282   1.118
 4008TIP3    H111967   3.677   2.298   1.117
 4008TIP3    H211968   3.552   2.323   1.199
 4009TIP3   OH211969   1.667   7.806   0.499
 4009TIP3    H111970   1.586   7.845   0.532
 4009TIP3    H211971   1.733   7.875   0.511
 4010TIP3   OH211972   3.219   6.016   3.688
 4010TIP3    H111973   3.167   6.036   3.766
 4010TIP3    H211974   3.210   5.922   3.677
 4011TIP3   OH211975   1.196   1.386   1.096
 4011TIP3    H111976   1.138   1.374   1.020
 4011TIP3    H211977   1.169   1.318   1.157
 4012TIP3   OH211978   3.194   0.719   4.448
 4012TIP3    H111979   3.182   0.733   4.354
 4012TIP3    H211980   3.127   0.655   4.472
 4013TIP3   OH211981   5.784   0.308   1.780
 4013TIP3    H111982   5.722   0.246   1.818
 4013TIP3    H211983   5.730   0.380   1.748
 4014TIP3   OH211984   1.394   0.628   0.844
 4014TIP3    H111985   1.480   0.648   0.881
 4014TIP3    H211986   1.360   0.557   0.898
 4015TIP3   OH211987   0.747   4.140   5.949
 4015TIP3    H111988   0.771   4.171   6.036
 4015TIP3    H211989   0.815   4.076   5.927
 4016TIP3   OH211990   8.183   2.635   1.586
 4016TIP3    H111991   8.178   2.668   1.497
 4016TIP3    H211992   8.133   2.553   1.585
 4017TIP3   OH211993   0.171   4.883   2.530
 4017TIP3    H111994   0.262   4.888   2.561
 4017TIP3    H211995   0.175   4.914   2.440
 4018TIP3   OH211996   4.249   6.557   5.877
 4018TIP3    H111997   4.331   6.606   5.870
 4018TIP3    H211998   4.276   6.469   5.904
 4019TIP3   OH211999   3.737   6.817   5.477
 4019TIP3    H112000   3.775   6.773   5.554
 4019TIP3    H212001   3.651   6.776   5.467
 4020TIP3   OH212002   0.015   3.438   3.999
 4020TIP3    H112003   0.028   3.343   3.998
 4020TIP3    H212004  -0.033   3.457   3.918
 4021TIP3   OH212005   3.246   1.030   5.394
 4021TIP3    H112006   3.220   0.950   5.439
 4021TIP3    H212007   3.187   1.036   5.319
 4022TIP3   OH212008   8.121   4.616   1.216
 4022TIP3    H112009   8.127   4.530   1.257
 4022TIP3    H212010   8.204   4.628   1.170
 4023TIP3   OH212011   6.521   6.502   5.229
 4023TIP3    H112012   6.506   6.513   5.135
 4023TIP3    H212013   6.568   6.419   5.237
 4024TIP3   OH212014   6.939   4.493   4.260
 4024TIP3    H112015   6.936   4.557   4.332
 4024TIP3    H212016   6.989   4.420   4.296
 4025TIP3   OH212017   3.105   6.093   5.625
 4025TIP3    H112018   3.198   6.075   5.642
 4025TIP3    H212019   3.090   6.178   5.666
 4026TIP3   OH212020   5.357   6.988   3.562
 4026TIP3    H112021   5.407   6.932   3.502
 4026TIP3    H212022   5.423   7.022   3.623
 4027TIP3   OH212023   1.612   5.940   5.977
 4027TIP3    H112024   1.658   5.967   5.898
 4027TIP3    H212025   1.662   5.978   6.049
 4028TIP3   OH212026   3.193   5.110   1.506
 4028TIP3    H112027   3.099   5.130   1.512
 4028TIP3    H212028   3.196   5.015   1.495
 4029TIP3   OH212029   4.397   6.231   3.708
 4029TIP3    H112030   4.332   6.284   3.755
 4029TIP3    H212031   4.354   6.209   3.625
 4030TIP3   OH212032   7.438   3.614  -0.058
 4030TIP3    H112033   7.501   3.543  -0.070
 4030TIP3    H212034   7.473   3.666   0.014
 4031TIP3   OH212035   7.996   5.467   0.172
 4031TIP3    H112036   7.904   5.493   0.170
 4031TIP3    H212037   8.017   5.441   0.082
 4032TIP3   OH212038   0.950   4.404   2.942
 4032TIP3    H112039   0.859   4.411   2.913
 4032TIP3    H212040   0.993   4.357   2.871
 4033TIP3   OH212041   3.139   0.341   0.346
 4033TIP3    H112042   3.180   0.426   0.361
 4033TIP3    H212043   3.162   0.289   0.423
 4034TIP3   OH212044   5.853   0.279   6.327
 4034TIP3    H112045   5.915   0.273   6.400
 4034TIP3    H212046   5.777   0.323   6.364
 4035TIP3   OH212047   1.933   4.748   0.575
 4035TIP3    H112048   1.895   4.673   0.529
 4035TIP3    H212049   1.873   4.820   0.554
 4036TIP3   OH212050   8.129   2.927   6.089
 4036TIP3    H112051   8.183   3.002   6.063
 4036TIP3    H212052   8.190   2.853   6.088
 4037TIP3   OH212053   6.174   7.280   4.723
 4037TIP3    H112054   6.157   7.207   4.782
 4037TIP3    H212055   6.207   7.350   4.779
 4038TIP3   OH212056   3.736   5.277   5.331
 4038TIP3    H112057   3.805   5.256   5.268
 4038TIP3    H212058   3.760   5.228   5.410
 4039TIP3   OH212059   0.029   0.543   6.406
 4039TIP3    H112060  -0.017   0.626   6.407
 4039TIP3    H212061   0.106   0.559   6.352
 4040TIP3   OH212062   1.742   4.160   2.215
 4040TIP3    H112063   1.837   4.175   2.208
 4040TIP3    H212064   1.714   4.144   2.125
 4041TIP3   OH212065   0.449   3.894   5.978
 4041TIP3    H112066   0.467   3.852   5.895
 4041TIP3    H212067   0.460   3.988   5.960
 4042TIP3   OH212068   7.535   6.189   2.177
 4042TIP3    H112069   7.583   6.206   2.258
 4042TIP3    H212070   7.483   6.111   2.197
 4043TIP3   OH212071   5.081   6.896   4.637
 4043TIP3    H112072   5.113   6.820   4.686
 4043TIP3    H212073   5.096   6.874   4.545
 4044TIP3   OH212074   2.145   2.206   5.230
 4044TIP3    H112075   2.072   2.247   5.276
 4044TIP3    H212076   2.216   2.270   5.235
 4045TIP3   OH212077   5.527   6.438   0.729
 4045TIP3    H112078   5.518   6.375   0.799
 4045TIP3    H212079   5.470   6.511   0.754
 4046TIP3   OH212080   2.427   7.414   1.626
 4046TIP3    H112081   2.362   7.482   1.611
 4046TIP3    H212082   2.489   7.424   1.554
 4047TIP3   OH212083   1.343   5.780   3.405
 4047TIP3    H112084   1.324   5.794   3.498
 4047TIP3    H212085   1.323   5.864   3.363
 4048TIP3   OH212086   7.960   3.588   6.578
 4048TIP3    H112087   7.960   3.526   6.650
 4048TIP3    H212088   7.954   3.674   6.620
 4049TIP3   OH212089   7.607   3.403   1.868
 4049TIP3    H112090   7.556   3.339   1.819
 4049TIP3    H212091   7.546   3.435   1.935
 4050TIP3   OH212092   2.677   3.707   4.109
 4050TIP3    H112093   2.635   3.784   4.073
 4050TIP3    H212094   2.713   3.661   4.033
 4051TIP3   OH212095   3.125   4.379   0.755
 4051TIP3    H112096   3.187   4.403   0.686
 4051TIP3    H212097   3.051   4.439   0.742
 4052TIP3   OH212098   0.065   3.575   1.527
 4052TIP3    H112099   0.105   3.487   1.522
 4052TIP3    H212100   0.140   3.635   1.527
 4053TIP3   OH212101   5.114   6.993   0.828
 4053TIP3    H112102   5.176   7.014   0.758
 4053TIP3    H212103   5.144   6.909   0.863
 4054TIP3   OH212104   4.746   2.292   5.923
 4054TIP3    H112105   4.689   2.225   5.886
 4054TIP3    H212106   4.741   2.365   5.862
 4055TIP3   OH212107   0.864   5.472   6.644
 4055TIP3    H112108   0.845   5.393   6.694
 4055TIP3    H212109   0.922   5.443   6.573
 4056TIP3   OH212110   3.863   3.731   4.845
 4056TIP3    H112111   3.783   3.759   4.891
 4056TIP3    H212112   3.854   3.636   4.837
 4057TIP3   OH212113   4.609   4.385   5.132
 4057TIP3    H112114   4.598   4.377   5.038
 4057TIP3    H212115   4.626   4.295   5.161
 4058TIP3   OH212116   7.784   7.696   1.726
 4058TIP3    H112117   7.842   7.725   1.796
 4058TIP3    H212118   7.844   7.662   1.659
 4059TIP3   OH212119   2.805   5.119   4.081
 4059TIP3    H112120   2.798   5.161   4.167
 4059TIP3    H212121   2.893   5.140   4.051
 4060TIP3   OH212122   4.097   3.878   2.936
 4060TIP3    H112123   4.048   3.938   2.992
 4060TIP3    H212124   4.061   3.893   2.848
 4061TIP3   OH212125   3.299   1.583   4.271
 4061TIP3    H112126   3.297   1.506   4.328
 4061TIP3    H212127   3.377   1.570   4.216
 4062TIP3   OH212128   3.447   4.641   3.787
 4062TIP3    H112129   3.379   4.629   3.721
 4062TIP3    H212130   3.405   4.694   3.855
 4063TIP3   OH212131   4.637   5.665   6.134
 4063TIP3    H112132   4.703   5.646   6.200
 4063TIP3    H212133   4.646   5.758   6.117
 4064TIP3   OH212134   6.002   4.328   6.429
 4064TIP3    H112135   5.943   4.383   6.376
 4064TIP3    H212136   6.089   4.366   6.416
 4065TIP3   OH212137   1.576   3.247   2.549
 4065TIP3    H112138   1.526   3.264   2.470
 4065TIP3    H212139   1.604   3.156   2.540
 4066TIP3   OH212140   4.411   1.054   1.330
 4066TIP3    H112141   4.416   1.148   1.347
 4066TIP3    H212142   4.427   1.013   1.415
 4067TIP3   OH212143   7.566   3.616   6.413
 4067TIP3    H112144   7.622   3.576   6.480
 4067TIP3    H212145   7.490   3.558   6.407
 4068TIP3   OH212146   4.494   7.217   5.370
 4068TIP3    H112147   4.500   7.258   5.457
 4068TIP3    H212148   4.442   7.138   5.384
 4069TIP3   OH212149   2.296   0.681   2.151
 4069TIP3    H112150   2.258   0.734   2.081
 4069TIP3    H212151   2.248   0.599   2.147
 4070TIP3   OH212152   0.416   4.468   3.548
 4070TIP3    H112153   0.323   4.447   3.561
 4070TIP3    H212154   0.450   4.394   3.498
 4071TIP3   OH212155   1.028   5.456   0.009
 4071TIP3    H112156   1.056   5.543   0.038
 4071TIP3    H212157   1.103   5.423  -0.041
 4072TIP3   OH212158   7.534   2.279   3.187
 4072TIP3    H112159   7.535   2.359   3.134
 4072TIP3    H212160   7.620   2.278   3.230
 4073TIP3   OH212161   3.372   6.300   5.198
 4073TIP3    H112162   3.400   6.209   5.191
 4073TIP3    H212163   3.317   6.304   5.276
 4074TIP3   OH212164   0.907   5.479   2.699
 4074TIP3    H112165   0.976   5.485   2.633
 4074TIP3    H212166   0.855   5.558   2.689
 4075TIP3   OH212167   4.022   6.462   4.395
 4075TIP3    H112168   4.035   6.532   4.331
 4075TIP3    H212169   4.009   6.508   4.478
 4076TIP3   OH212170   5.126   2.396   5.805
 4076TIP3    H112171   5.139   2.309   5.766
 4076TIP3    H212172   5.173   2.391   5.888
 4077TIP3   OH212173   1.395   7.777   5.722
 4077TIP3    H112174   1.445   7.708   5.678
 4077TIP3    H212175   1.408   7.760   5.816
 4078TIP3   OH212176   3.945   0.802   1.602
 4078TIP3    H112177   4.030   0.808   1.646
 4078TIP3    H212178   3.960   0.842   1.516
 4079TIP3   OH212179   3.935   6.190   1.248
 4079TIP3    H112180   3.997   6.118   1.236
 4079TIP3    H212181   3.904   6.179   1.338
 4080TIP3   OH212182   0.634   4.520   1.412
 4080TIP3    H112183   0.615   4.461   1.339
 4080TIP3    H212184   0.729   4.518   1.421
 4081TIP3   OH212185   2.121   4.654   6.369
 4081TIP3    H112186   2.206   4.699   6.367
 4081TIP3    H212187   2.089   4.668   6.458
 4082TIP3   OH212188   2.254   3.814   3.113
 4082TIP3    H112189   2.266   3.878   3.184
 4082TIP3    H212190   2.187   3.853   3.057
 4083TIP3   OH212191   5.982   3.628   6.208
 4083TIP3    H112192   5.956   3.609   6.299
 4083TIP3    H212193   6.053   3.567   6.190
 4084TIP3   OH212194   0.962   1.679   0.562
 4084TIP3    H112195   0.896   1.610   0.565
 4084TIP3    H212196   1.041   1.636   0.533
 4085TIP3   OH212197   1.491   3.949   6.740
 4085TIP3    H112198   1.513   4.042   6.752
 4085TIP3    H212199   1.553   3.918   6.674
 4086TIP3   OH212200   6.370   0.525   3.509
 4086TIP3    H112201   6.409   0.602   3.467
 4086TIP3    H212202   6.393   0.452   3.452
 4087TIP3   OH212203   2.292   1.510   4.847
 4087TIP3    H112204   2.231   1.554   4.907
 4087TIP3    H212205   2.361   1.574   4.832
 4088TIP3   OH212206   7.808   2.090   1.355
 4088TIP3    H112207   7.740   2.157   1.344
 4088TIP3    H212208   7.760   2.009   1.368
 4089TIP3   OH212209   2.553   2.241   1.319
 4089TIP3    H112210   2.624   2.266   1.379
 4089TIP3    H212211   2.595   2.183   1.256
 4090TIP3   OH212212   0.821   3.914   5.575
 4090TIP3    H112213   0.727   3.929   5.585
 4090TIP3    H212214   0.842   3.950   5.489
 4091TIP3   OH212215   3.223   2.396   3.628
 4091TIP3    H112216   3.183   2.446   3.699
 4091TIP3    H212217   3.276   2.330   3.672
 4092TIP3   OH212218   3.878   0.700   2.542
 4092TIP3    H112219   3.794   0.657   2.552
 4092TIP3    H212220   3.896   0.739   2.628
 4093TIP3   OH212221   4.247   0.706   1.451
 4093TIP3    H112222   4.270   0.615   1.471
 4093TIP3    H212223   4.321   0.739   1.401
 4094TIP3   OH212224   4.269   1.996   3.196
 4094TIP3    H112225   4.223   1.914   3.215
 4094TIP3    H212226   4.201   2.062   3.193
 4095TIP3   OH212227   0.110   7.224   6.380
 4095TIP3    H112228   0.148   7.188   6.299
 4095TIP3    H212229   0.175   7.287   6.411
 4096TIP3   OH212230   2.757   7.089   0.152
 4096TIP3    H112231   2.699   7.158   0.184
 4096TIP3    H212232   2.700   7.030   0.103
 4097TIP3   OH212233   6.950   2.759   6.077
 4097TIP3    H112234   7.000   2.833   6.111
 4097TIP3    H212235   6.969   2.688   6.138
 4098TIP3   OH212236   6.542   4.094   1.955
 4098TIP3    H112237   6.552   4.151   2.031
 4098TIP3    H212238   6.631   4.080   1.923
 4099TIP3   OH212239   7.575   3.792   4.953
 4099TIP3    H112240   7.644   3.859   4.963
 4099TIP3    H212241   7.586   3.760   4.864
 4100TIP3   OH212242   7.924   6.993   0.576
 4100TIP3    H112243   7.993   7.038   0.624
 4100TIP3    H212244   7.965   6.968   0.493
 4101TIP3   OH212245   5.508   6.908   5.118
 4101TIP3    H112246   5.413   6.919   5.117
 4101TIP3    H212247   5.525   6.855   5.197
 4102TIP3   OH212248   2.242   6.431   3.159
 4102TIP3    H112249   2.178   6.376   3.205
 4102TIP3    H212250   2.225   6.415   3.066
 4103TIP3   OH212251   3.512   3.237   4.243
 4103TIP3    H112252   3.452   3.223   4.317
 4103TIP3    H212253   3.488   3.323   4.209
 4104TIP3   OH212254   5.335   2.886   2.707
 4104TIP3    H112255   5.336   2.901   2.613
 4104TIP3    H212256   5.414   2.929   2.739
 4105TIP3   OH212257   5.535   5.773   4.946
 4105TIP3    H112258   5.475   5.844   4.925
 4105TIP3    H212259   5.480   5.708   4.990
 4106TIP3   OH212260   0.553   7.501   2.612
 4106TIP3    H112261   0.641   7.476   2.640
 4106TIP3    H212262   0.494   7.457   2.673
 4107TIP3   OH212263   5.029   3.101   3.176
 4107TIP3    H112264   5.084   3.154   3.233
 4107TIP3    H212265   5.057   3.011   3.193
 4108TIP3   OH212266   6.802   1.930   2.184
 4108TIP3    H112267   6.740   1.986   2.232
 4108TIP3    H212268   6.749   1.890   2.115
 4109TIP3   OH212269   8.023   3.860   3.317
 4109TIP3    H112270   7.932   3.889   3.305
 4109TIP3    H212271   8.070   3.940   3.340
 4110TIP3   OH212272   5.201   0.932   0.289
 4110TIP3    H112273   5.229   0.871   0.357
 4110TIP3    H212274   5.264   1.004   0.293
 4111TIP3   OH212275   1.683   2.125   2.725
 4111TIP3    H112276   1.655   2.034   2.736
 4111TIP3    H212277   1.709   2.153   2.813
 4112TIP3   OH212278   3.444   4.938   4.168
 4112TIP3    H112279   3.395   4.877   4.223
 4112TIP3    H212280   3.419   5.025   4.199
 4113TIP3   OH212281   0.328   4.612   1.178
 4113TIP3    H112282   0.315   4.643   1.088
 4113TIP3    H212283   0.346   4.519   1.169
 4114TIP3   OH212284   7.063   0.753   6.085
 4114TIP3    H112285   7.140   0.799   6.118
 4114TIP3    H212286   6.992   0.818   6.090
 4115TIP3   OH212287   0.717   0.985   0.377
 4115TIP3    H112288   0.807   1.012   0.356
 4115TIP3    H212289   0.675   1.065   0.409
 4116TIP3   OH212290   2.220   4.295   1.334
 4116TIP3    H112291   2.283   4.357   1.370
 4116TIP3    H212292   2.273   4.233   1.284
 4117TIP3   OH212293   7.543   0.974   0.708
 4117TIP3    H112294   7.588   1.058   0.722
 4117TIP3    H212295   7.608   0.908   0.732
 4118TIP3   OH212296   5.025   1.648   5.953
 4118TIP3    H112297   5.048   1.590   5.880
 4118TIP3    H212298   5.015   1.589   6.028
 4119TIP3   OH212299   0.732   6.037   6.520
 4119TIP3    H112300   0.743   5.967   6.455
 4119TIP3    H212301   0.821   6.057   6.549
 4120TIP3   OH212302   4.880   4.963   3.854
 4120TIP3    H112303   4.952   4.983   3.795
 4120TIP3    H212304   4.920   4.917   3.927
 4121TIP3   OH212305   4.489   3.988   1.557
 4121TIP3    H112306   4.454   3.926   1.622
 4121TIP3    H212307   4.563   4.029   1.602
 4122TIP3   OH212308   2.310   6.251   2.715
 4122TIP3    H112309   2.367   6.180   2.745
 4122TIP3    H212310   2.279   6.223   2.629
 4123TIP3   OH212311   2.650   7.175   4.794
 4123TIP3    H112312   2.626   7.084   4.774
 4123TIP3    H212313   2.616   7.190   4.882
 4124TIP3   OH212314   1.396   7.578   1.756
 4124TIP3    H112315   1.446   7.652   1.722
 4124TIP3    H212316   1.359   7.537   1.678
 4125TIP3   OH212317   6.209   7.435   5.504
 4125TIP3    H112318   6.210   7.353   5.554
 4125TIP3    H212319   6.254   7.497   5.561
 4126TIP3   OH212320   1.027   7.165   2.644
 4126TIP3    H112321   0.936   7.150   2.669
 4126TIP3    H212322   1.040   7.259   2.653
 4127TIP3   OH212323   4.355   3.697   4.420
 4127TIP3    H112324   4.434   3.718   4.470
 4127TIP3    H212325   4.388   3.660   4.338
 4128TIP3   OH212326   7.638   2.677   2.995
 4128TIP3    H112327   7.588   2.602   2.964
 4128TIP3    H212328   7.583   2.717   3.062
 4129TIP3   OH212329   4.456   3.119   6.241
 4129TIP3    H112330   4.405   3.074   6.309
 4129TIP3    H212331   4.390   3.146   6.176
 4130TIP3   OH212332   4.611   6.938   6.036
 4130TIP3    H112333   4.584   6.879   6.106
 4130TIP3    H212334   4.695   6.903   6.006
 4131TIP3   OH212335   7.897   1.893   6.672
 4131TIP3    H112336   7.849   1.973   6.649
 4131TIP3    H212337   7.962   1.883   6.603
 4132TIP3   OH212338   2.106   7.196   3.398
 4132TIP3    H112339   2.094   7.159   3.485
 4132TIP3    H212340   2.048   7.272   3.396
 4133TIP3   OH212341   5.754   7.296   6.169
 4133TIP3    H112342   5.710   7.378   6.192
 4133TIP3    H212343   5.842   7.323   6.142
 4134TIP3   OH212344   6.254   7.017   4.960
 4134TIP3    H112345   6.185   6.981   4.905
 4134TIP3    H212346   6.210   7.044   5.040
 4135TIP3   OH212347   1.487   5.245   1.429
 4135TIP3    H112348   1.444   5.323   1.395
 4135TIP3    H212349   1.418   5.198   1.475
 4136TIP3   OH212350   8.328   0.649   5.983
 4136TIP3    H112351   8.263   0.602   6.035
 4136TIP3    H212352   8.296   0.739   5.980
 4137TIP3   OH212353   7.293   2.799   2.236
 4137TIP3    H112354   7.292   2.704   2.221
 4137TIP3    H212355   7.218   2.831   2.185
 4138TIP3   OH212356   0.881   3.469   3.619
 4138TIP3    H112357   0.837   3.387   3.641
 4138TIP3    H212358   0.815   3.520   3.572
 4139TIP3   OH212359   0.032   4.891   2.797
 4139TIP3    H112360   0.079   4.867   2.717
 4139TIP3    H212361   0.033   4.986   2.798
 4140TIP3   OH212362   3.989   1.183   4.434
 4140TIP3    H112363   4.034   1.263   4.406
 4140TIP3    H212364   3.903   1.212   4.463
 4141TIP3   OH212365   3.734   2.802   0.373
 4141TIP3    H112366   3.734   2.707   0.364
 4141TIP3    H212367   3.705   2.835   0.288
 4142TIP3   OH212368   7.439   5.445   3.358
 4142TIP3    H112369   7.391   5.454   3.441
 4142TIP3    H212370   7.531   5.452   3.383
 4143TIP3   OH212371   0.430   0.905   1.159
 4143TIP3    H112372   0.420   0.865   1.072
 4143TIP3    H212373   0.450   0.996   1.140
 4144TIP3   OH212374   1.393   0.613   3.586
 4144TIP3    H112375   1.340   0.692   3.595
 4144TIP3    H212376   1.351   0.549   3.644
 4145TIP3   OH212377   6.586   3.412   0.235
 4145TIP3    H112378   6.605   3.503   0.211
 4145TIP3    H212379   6.649   3.392   0.305
 4146TIP3   OH212380   4.045   6.981   6.825
 4146TIP3    H112381   4.022   7.017   6.740
 4146TIP3    H212382   3.963   6.984   6.876
 4147TIP3   OH212383   8.090   5.565   0.863
 4147TIP3    H112384   8.110   5.546   0.954
 4147TIP3    H212385   8.039   5.490   0.833
 4148TIP3   OH212386   0.046   2.508   0.936
 4148TIP3    H112387   0.046   2.412   0.941
 4148TIP3    H212388   0.049   2.537   1.027
 4149TIP3   OH212389   2.872   3.692   0.834
 4149TIP3    H112390   2.781   3.692   0.862
 4149TIP3    H212391   2.922   3.716   0.912
 4150TIP3   OH212392   1.989   4.438   5.485
 4150TIP3    H112393   2.007   4.353   5.445
 4150TIP3    H212394   1.899   4.432   5.516
 4151TIP3   OH212395   2.021   2.743   5.568
 4151TIP3    H112396   2.005   2.744   5.473
 4151TIP3    H212397   2.065   2.660   5.584
 4152TIP3   OH212398   3.302   2.298   2.381
 4152TIP3    H112399   3.303   2.204   2.363
 4152TIP3    H212400   3.365   2.310   2.452
 4153TIP3   OH212401   6.943   1.509   3.976
 4153TIP3    H112402   6.919   1.418   3.961
 4153TIP3    H212403   6.979   1.539   3.892
 4154TIP3   OH212404   4.585   6.232   5.735
 4154TIP3    H112405   4.637   6.275   5.803
 4154TIP3    H212406   4.569   6.144   5.769
 4155TIP3   OH212407   5.564   3.674   4.773
 4155TIP3    H112408   5.521   3.755   4.802
 4155TIP3    H212409   5.581   3.688   4.680
 4156TIP3   OH212410   1.510   7.801   2.581
 4156TIP3    H112411   1.533   7.886   2.617
 4156TIP3    H212412   1.479   7.819   2.492
 4157TIP3   OH212413   4.580   0.900   5.161
 4157TIP3    H112414   4.578   0.857   5.076
 4157TIP3    H212415   4.488   0.917   5.182
 4158TIP3   OH212416   7.570   7.699   6.512
 4158TIP3    H112417   7.645   7.755   6.493
 4158TIP3    H212418   7.583   7.623   6.454
 4159TIP3   OH212419   3.271   4.236   1.107
 4159TIP3    H112420   3.195   4.222   1.163
 4159TIP3    H212421   3.335   4.170   1.136
 4160TIP3   OH212422   7.154   0.219   1.435
 4160TIP3    H112423   7.161   0.314   1.427
 4160TIP3    H212424   7.192   0.198   1.520
 4161TIP3   OH212425   7.263   4.711   4.134
 4161TIP3    H112426   7.191   4.666   4.090
 4161TIP3    H212427   7.221   4.774   4.192
 4162TIP3   OH212428   1.835   7.271   3.985
 4162TIP3    H112429   1.809   7.337   4.050
 4162TIP3    H212430   1.772   7.200   3.998
 4163TIP3   OH212431   1.887   3.888   1.833
 4163TIP3    H112432   1.835   3.808   1.826
 4163TIP3    H212433   1.969   3.867   1.787
 4164TIP3   OH212434   0.448   5.394   3.854
 4164TIP3    H112435   0.503   5.379   3.931
 4164TIP3    H212436   0.412   5.482   3.867
 4165TIP3   OH212437   6.518   2.446   2.653
 4165TIP3    H112438   6.487   2.469   2.740
 4165TIP3    H212439   6.442   2.408   2.609
 4166TIP3   OH212440   2.582   5.274   0.083
 4166TIP3    H112441   2.550   5.215   0.150
 4166TIP3    H212442   2.598   5.357   0.129
 4167TIP3   OH212443   7.974   1.102   2.290
 4167TIP3    H112444   8.028   1.023   2.299
 4167TIP3    H212445   7.903   1.076   2.232
 4168TIP3   OH212446   0.244   1.369   5.593
 4168TIP3    H112447   0.199   1.300   5.642
 4168TIP3    H212448   0.179   1.399   5.530
 4169TIP3   OH212449   0.515   3.754   5.426
 4169TIP3    H112450   0.422   3.758   5.401
 4169TIP3    H212451   0.562   3.776   5.345
 4170TIP3   OH212452   4.680   4.589   4.097
 4170TIP3    H112453   4.622   4.583   4.173
 4170TIP3    H212454   4.756   4.535   4.119
 4171TIP3   OH212455   4.993   1.362   2.129
 4171TIP3    H112456   5.068   1.328   2.179
 4171TIP3    H212457   5.030   1.428   2.071
 4172TIP3   OH212458   7.742   2.227   4.579
 4172TIP3    H112459   7.648   2.207   4.575
 4172TIP3    H212460   7.746   2.323   4.571
 4173TIP3   OH212461   0.891   1.802   4.067
 4173TIP3    H112462   0.970   1.849   4.041
 4173TIP3    H212463   0.844   1.787   3.985
 4174TIP3   OH212464   3.142   3.864   1.945
 4174TIP3    H112465   3.062   3.895   1.987
 4174TIP3    H212466   3.184   3.944   1.913
 4175TIP3   OH212467   7.568   4.919   6.142
 4175TIP3    H112468   7.596   4.941   6.231
 4175TIP3    H212469   7.587   4.825   6.133
 4176TIP3   OH212470   2.735   7.815   0.074
 4176TIP3    H112471   2.827   7.788   0.070
 4176TIP3    H212472   2.703   7.801  -0.015
 4177TIP3   OH212473   7.984   4.236   4.898
 4177TIP3    H112474   7.999   4.327   4.921
 4177TIP3    H212475   7.991   4.188   4.981
 4178TIP3   OH212476   5.019   2.823   1.861
 4178TIP3    H112477   4.985   2.844   1.948
 4178TIP3    H212478   5.100   2.775   1.878
 4179TIP3   OH212479   7.856   1.937   0.809
 4179TIP3    H112480   7.786   2.002   0.811
 4179TIP3    H212481   7.849   1.891   0.893
 4180TIP3   OH212482   7.956   4.938   3.090
 4180TIP3    H112483   7.958   4.941   3.185
 4180TIP3    H212484   7.927   5.025   3.063
 4181TIP3   OH212485   7.488   6.883   1.371
 4181TIP3    H112486   7.572   6.848   1.342
 4181TIP3    H212487   7.455   6.817   1.432
 4182TIP3   OH212488   3.623   7.332   2.204
 4182TIP3    H112489   3.565   7.263   2.235
 4182TIP3    H212490   3.577   7.413   2.223
 4183TIP3   OH212491   0.178   6.045   4.879
 4183TIP3    H112492   0.191   5.960   4.838
 4183TIP3    H212493   0.130   6.026   4.960
 4184TIP3   OH212494   1.359   5.301   4.926
 4184TIP3    H112495   1.353   5.229   4.989
 4184TIP3    H212496   1.443   5.344   4.946
 4185TIP3   OH212497   0.759   3.493   0.122
 4185TIP3    H112498   0.703   3.416   0.128
 4185TIP3    H212499   0.713   3.552   0.062
 4186TIP3   OH212500   1.871   6.979   5.788
 4186TIP3    H112501   1.829   7.049   5.739
 4186TIP3    H212502   1.885   6.909   5.724
 4187TIP3   OH212503   4.508   7.321   5.632
 4187TIP3    H112504   4.508   7.393   5.696
 4187TIP3    H212505   4.505   7.242   5.685
 4188TIP3   OH212506   4.279   5.459   2.678
 4188TIP3    H112507   4.348   5.505   2.631
 4188TIP3    H212508   4.267   5.378   2.629
 4189TIP3   OH212509   3.621   0.827   4.016
 4189TIP3    H112510   3.658   0.911   4.043
 4189TIP3    H212511   3.576   0.794   4.094
 4190TIP3   OH212512   3.226   7.383   1.829
 4190TIP3    H112513   3.303   7.434   1.804
 4190TIP3    H212514   3.152   7.442   1.813
 4191TIP3   OH212515   7.679   2.738   0.987
 4191TIP3    H112516   7.709   2.656   1.025
 4191TIP3    H212517   7.757   2.773   0.942
 4192TIP3   OH212518   3.838   4.197   0.610
 4192TIP3    H112519   3.800   4.283   0.630
 4192TIP3    H212520   3.778   4.134   0.650
 4193TIP3   OH212521   5.902   4.363   0.286
 4193TIP3    H112522   5.958   4.339   0.359
 4193TIP3    H212523   5.911   4.292   0.223
 4194TIP3   OH212524   8.066   6.733   6.612
 4194TIP3    H112525   8.141   6.777   6.653
 4194TIP3    H212526   7.996   6.797   6.613
 4195TIP3   OH212527   3.696   0.114   2.803
 4195TIP3    H112528   3.686   0.138   2.711
 4195TIP3    H212529   3.778   0.064   2.806
 4196TIP3   OH212530   7.359   2.039   0.432
 4196TIP3    H112531   7.356   1.967   0.494
 4196TIP3    H212532   7.269   2.046   0.400
 4197TIP3   OH212533   6.790   3.928   0.052
 4197TIP3    H112534   6.834   3.975  -0.019
 4197TIP3    H212535   6.701   3.963   0.053
 4198TIP3   OH212536   7.881   6.037   5.763
 4198TIP3    H112537   7.966   6.080   5.756
 4198TIP3    H212538   7.819   6.108   5.780
 4199TIP3   OH212539   2.216   1.585   4.385
 4199TIP3    H112540   2.163   1.520   4.432
 4199TIP3    H212541   2.217   1.662   4.442
 4200TIP3   OH212542   3.349   6.218   0.754
 4200TIP3    H112543   3.259   6.229   0.785
 4200TIP3    H212544   3.366   6.124   0.763
 4201TIP3   OH212545   6.369   2.102   6.578
 4201TIP3    H112546   6.367   2.149   6.661
 4201TIP3    H212547   6.447   2.135   6.534
 4202TIP3   OH212548   1.180   0.230   1.570
 4202TIP3    H112549   1.158   0.316   1.535
 4202TIP3    H212550   1.140   0.228   1.657
 4203TIP3   OH212551   5.222   6.867   1.270
 4203TIP3    H112552   5.245   6.888   1.360
 4203TIP3    H212553   5.132   6.899   1.260
 4204TIP3   OH212554   0.216   1.889   2.090
 4204TIP3    H112555   0.259   1.823   2.144
 4204TIP3    H212556   0.211   1.966   2.147
 4205TIP3   OH212557   2.240   2.018   6.179
 4205TIP3    H112558   2.174   1.949   6.193
 4205TIP3    H212559   2.320   1.970   6.158
 4206TIP3   OH212560   8.106   4.819   5.873
 4206TIP3    H112561   8.138   4.746   5.821
 4206TIP3    H212562   8.159   4.893   5.847
 4207TIP3   OH212563   1.001   3.940   1.345
 4207TIP3    H112564   0.995   3.914   1.437
 4207TIP3    H212565   1.095   3.954   1.331
 4208TIP3   OH212566   8.282   1.260   6.310
 4208TIP3    H112567   8.272   1.169   6.283
 4208TIP3    H212568   8.238   1.264   6.395
 4209TIP3   OH212569   6.860   2.765   5.464
 4209TIP3    H112570   6.877   2.859   5.475
 4209TIP3    H212571   6.801   2.760   5.389
 4210TIP3   OH212572   5.945   4.318   1.744
 4210TIP3    H112573   5.932   4.410   1.723
 4210TIP3    H212574   5.906   4.271   1.670
 4211TIP3   OH212575   2.623   7.538   0.385
 4211TIP3    H112576   2.706   7.558   0.428
 4211TIP3    H212577   2.588   7.624   0.360
 4212TIP3   OH212578   4.339   0.097   4.748
 4212TIP3    H112579   4.332   0.091   4.653
 4212TIP3    H212580   4.325   0.007   4.779
 4213TIP3   OH212581   0.211   1.005   0.373
 4213TIP3    H112582   0.269   1.065   0.326
 4213TIP3    H212583   0.222   0.921   0.327
 4214TIP3   OH212584   1.194   1.383   6.695
 4214TIP3    H112585   1.161   1.472   6.705
 4214TIP3    H212586   1.171   1.358   6.606
 4215TIP3   OH212587   3.473   6.981   6.601
 4215TIP3    H112588   3.539   6.953   6.665
 4215TIP3    H212589   3.428   6.900   6.577
 4216TIP3   OH212590   2.758   6.827   5.364
 4216TIP3    H112591   2.828   6.883   5.330
 4216TIP3    H212592   2.691   6.828   5.295
 4217TIP3   OH212593   7.717   2.799   5.250
 4217TIP3    H112594   7.757   2.713   5.265
 4217TIP3    H212595   7.711   2.806   5.155
 4218TIP3   OH212596   6.353   5.869   3.806
 4218TIP3    H112597   6.445   5.894   3.810
 4218TIP3    H212598   6.332   5.842   3.896
 4219TIP3   OH212599   6.060   1.282   0.279
 4219TIP3    H112600   6.095   1.370   0.262
 4219TIP3    H212601   6.041   1.246   0.192
 4220TIP3   OH212602   3.039   1.835   6.686
 4220TIP3    H112603   3.035   1.759   6.745
 4220TIP3    H212604   3.112   1.817   6.628
 4221TIP3   OH212605   4.279   6.870   5.554
 4221TIP3    H112606   4.269   6.927   5.477
 4221TIP3    H212607   4.246   6.922   5.627
 4222TIP3   OH212608   5.634   0.668   6.660
 4222TIP3    H112609   5.539   0.658   6.667
 4222TIP3    H212610   5.666   0.670   6.750
 4223TIP3   OH212611   1.674   1.075   3.962
 4223TIP3    H112612   1.762   1.109   3.944
 4223TIP3    H212613   1.680   1.041   4.051
 4224TIP3   OH212614   3.379   3.927   6.014
 4224TIP3    H112615   3.420   3.943   6.100
 4224TIP3    H212616   3.318   3.855   6.029
 4225TIP3   OH212617   7.077   3.682   1.750
 4225TIP3    H112618   7.131   3.736   1.807
 4225TIP3    H212619   6.993   3.674   1.796
 4226TIP3   OH212620   4.400   7.796   0.401
 4226TIP3    H112621   4.452   7.716   0.398
 4226TIP3    H212622   4.329   7.781   0.339
 4227TIP3   OH212623   4.146   3.579   4.540
 4227TIP3    H112624   4.204   3.608   4.470
 4227TIP3    H212625   4.138   3.656   4.597
 4228TIP3   OH212626   3.260   7.597   2.158
 4228TIP3    H112627   3.216   7.651   2.223
 4228TIP3    H212628   3.279   7.656   2.085
 4229TIP3   OH212629   4.111   0.105   2.390
 4229TIP3    H112630   4.062   0.096   2.309
 4229TIP3    H212631   4.143   0.195   2.389
 4230TIP3   OH212632   5.530   2.568   5.428
 4230TIP3    H112633   5.562   2.499   5.486
 4230TIP3    H212634   5.556   2.650   5.470
 4231TIP3   OH212635   6.638   2.908   4.447
 4231TIP3    H112636   6.543   2.913   4.432
 4231TIP3    H212637   6.677   2.949   4.369
 4232TIP3   OH212638   0.254   1.987   2.647
 4232TIP3    H112639   0.347   2.006   2.633
 4232TIP3    H212640   0.253   1.930   2.724
 4233TIP3   OH212641   6.483   4.819   1.442
 4233TIP3    H112642   6.502   4.798   1.533
 4233TIP3    H212643   6.559   4.871   1.413
 4234TIP3   OH212644   7.017   7.836   5.834
 4234TIP3    H112645   7.096   7.781   5.831
 4234TIP3    H212646   6.950   7.780   5.873
 4235TIP3   OH212647   5.956   3.221   3.949
 4235TIP3    H112648   5.986   3.305   3.916
 4235TIP3    H212649   6.009   3.205   4.027
 4236TIP3   OH212650   4.765   4.687   5.489
 4236TIP3    H112651   4.752   4.781   5.494
 4236TIP3    H212652   4.816   4.666   5.568
 4237TIP3   OH212653   6.634   2.960   3.451
 4237TIP3    H112654   6.623   2.961   3.356
 4237TIP3    H212655   6.582   2.885   3.481
 4238TIP3   OH212656   6.392   1.637   1.909
 4238TIP3    H112657   6.427   1.588   1.835
 4238TIP3    H212658   6.440   1.604   1.985
 4239TIP3   OH212659   0.012   4.267   0.250
 4239TIP3    H112660  -0.029   4.200   0.305
 4239TIP3    H212661   0.093   4.290   0.296
 4240TIP3   OH212662   1.823   5.334   6.590
 4240TIP3    H112663   1.737   5.329   6.632
 4240TIP3    H212664   1.805   5.377   6.506
 4241TIP3   OH212665   2.430   1.699   1.209
 4241TIP3    H112666   2.413   1.792   1.200
 4241TIP3    H212667   2.525   1.693   1.217
 4242TIP3   OH212668   5.515   2.378   2.426
 4242TIP3    H112669   5.587   2.366   2.487
 4242TIP3    H212670   5.556   2.381   2.340
 4243TIP3   OH212671   1.216   3.267   0.529
 4243TIP3    H112672   1.175   3.248   0.444
 4243TIP3    H212673   1.296   3.213   0.529
 4244TIP3   OH212674   6.466   0.476   6.130
 4244TIP3    H112675   6.461   0.478   6.035
 4244TIP3    H212676   6.546   0.524   6.151
 4245TIP3   OH212677   8.238   0.244   6.436
 4245TIP3    H112678   8.269   0.332   6.418
 4245TIP3    H212679   8.145   0.246   6.414
 4246TIP3   OH212680   2.191   6.693   0.879
 4246TIP3    H112681   2.250   6.736   0.942
 4246TIP3    H212682   2.165   6.612   0.923
 4247TIP3   OH212683   6.974   0.675   2.721
 4247TIP3    H112684   6.941   0.593   2.758
 4247TIP3    H212685   7.066   0.658   2.703
 4248TIP3   OH212686   4.878   2.659   1.218
 4248TIP3    H112687   4.972   2.655   1.204
 4248TIP3    H212688   4.842   2.696   1.137
 4249TIP3   OH212689   8.142   5.780   4.912
 4249TIP3    H112690   8.190   5.733   4.980
 4249TIP3    H212691   8.079   5.716   4.878
 4250TIP3   OH212692   6.291   1.184   5.929
 4250TIP3    H112693   6.345   1.106   5.923
 4250TIP3    H212694   6.286   1.204   6.022
 4251TIP3   OH212695   2.566   4.748   6.547
 4251TIP3    H112696   2.645   4.799   6.529
 4251TIP3    H212697   2.595   4.679   6.608
 4252TIP3   OH212698   7.925   4.866   3.628
 4252TIP3    H112699   7.935   4.789   3.684
 4252TIP3    H212700   7.839   4.855   3.587
 4253TIP3   OH212701   3.603   3.231   2.197
 4253TIP3    H112702   3.512   3.210   2.220
 4253TIP3    H212703   3.634   3.154   2.149
 4254TIP3   OH212704   0.485   0.255   3.182
 4254TIP3    H112705   0.457   0.241   3.273
 4254TIP3    H212706   0.565   0.307   3.189
 4255TIP3   OH212707   4.680   2.834   0.193
 4255TIP3    H112708   4.743   2.784   0.142
 4255TIP3    H212709   4.627   2.881   0.128
 4256TIP3   OH212710   1.893   2.559   1.864
 4256TIP3    H112711   1.811   2.608   1.868
 4256TIP3    H212712   1.957   2.623   1.832
 4257TIP3   OH212713   5.886   0.377   2.213
 4257TIP3    H112714   5.878   0.408   2.303
 4257TIP3    H212715   5.947   0.437   2.171
 4258TIP3   OH212716   7.365   1.449   0.604
 4258TIP3    H112717   7.270   1.449   0.599
 4258TIP3    H212718   7.384   1.458   0.697
 4259TIP3   OH212719   4.783   5.295   4.543
 4259TIP3    H112720   4.811   5.270   4.455
 4259TIP3    H212721   4.817   5.225   4.599
 4260TIP3   OH212722   2.452   0.752   1.545
 4260TIP3    H112723   2.436   0.837   1.586
 4260TIP3    H212724   2.527   0.716   1.593
 4261TIP3   OH212725   2.051   4.749   0.185
 4261TIP3    H112726   1.957   4.746   0.167
 4261TIP3    H212727   2.084   4.818   0.129
 4262TIP3   OH212728   8.277   7.006   0.559
 4262TIP3    H112729   8.260   6.918   0.525
 4262TIP3    H212730   8.239   7.005   0.647
 4263TIP3   OH212731   5.304   3.060   6.119
 4263TIP3    H112732   5.323   3.106   6.201
 4263TIP3    H212733   5.339   3.117   6.051
 4264TIP3   OH212734   3.983   2.879   0.673
 4264TIP3    H112735   3.949   2.791   0.660
 4264TIP3    H212736   3.953   2.904   0.760
 4265TIP3   OH212737   1.546   3.792   1.038
 4265TIP3    H112738   1.549   3.869   0.981
 4265TIP3    H212739   1.568   3.719   0.981
 4266TIP3   OH212740   2.193   3.482   3.404
 4266TIP3    H112741   2.148   3.476   3.488
 4266TIP3    H212742   2.285   3.493   3.426
 4267TIP3   OH212743   5.321   3.678   5.925
 4267TIP3    H112744   5.337   3.645   6.014
 4267TIP3    H212745   5.292   3.601   5.876
 4268TIP3   OH212746   5.586   2.069   4.769
 4268TIP3    H112747   5.577   2.008   4.696
 4268TIP3    H212748   5.518   2.043   4.831
 4269TIP3   OH212749   0.176   1.040   3.142
 4269TIP3    H112750   0.253   0.986   3.129
 4269TIP3    H212751   0.187   1.076   3.230
 4270TIP3   OH212752   2.998   5.862   3.440
 4270TIP3    H112753   3.055   5.939   3.430
 4270TIP3    H212754   3.055   5.796   3.480
 4271TIP3   OH212755   6.717   2.176   1.210
 4271TIP3    H112756   6.628   2.153   1.186
 4271TIP3    H212757   6.747   2.233   1.138
 4272TIP3   OH212758   4.714   5.537   1.619
 4272TIP3    H112759   4.669   5.567   1.540
 4272TIP3    H212760   4.709   5.611   1.679
 4273TIP3   OH212761   5.853   0.350   4.206
 4273TIP3    H112762   5.874   0.348   4.299
 4273TIP3    H212763   5.938   0.359   4.163
 4274TIP3   OH212764   6.880   3.251   5.494
 4274TIP3    H112765   6.803   3.209   5.455
 4274TIP3    H212766   6.907   3.316   5.429
 4275TIP3   OH212767   4.837   3.626   1.581
 4275TIP3    H112768   4.842   3.675   1.663
 4275TIP3    H212769   4.864   3.689   1.514
 4276TIP3   OH212770   1.581   4.632   6.567
 4276TIP3    H112771   1.621   4.555   6.527
 4276TIP3    H212772   1.648   4.700   6.559
 4277TIP3   OH212773   0.957   4.110   6.446
 4277TIP3    H112774   0.989   4.100   6.536
 4277TIP3    H212775   1.018   4.060   6.393
 4278TIP3   OH212776   0.457   6.105   1.294
 4278TIP3    H112777   0.498   6.045   1.232
 4278TIP3    H212778   0.467   6.191   1.254
 4279TIP3   OH212779   2.943   5.808   5.238
 4279TIP3    H112780   2.893   5.852   5.170
 4279TIP3    H212781   2.998   5.877   5.276
 4280TIP3   OH212782   7.013   4.167   5.759
 4280TIP3    H112783   6.929   4.209   5.745
 4280TIP3    H212784   7.076   4.239   5.760
 4281TIP3   OH212785   7.402   3.514   2.001
 4281TIP3    H112786   7.377   3.606   1.998
 4281TIP3    H212787   7.353   3.473   1.930
 4282TIP3   OH212788   0.495   7.692   1.054
 4282TIP3    H112789   0.475   7.637   0.979
 4282TIP3    H212790   0.541   7.767   1.017
 4283TIP3   OH212791   5.829   2.727   5.267
 4283TIP3    H112792   5.815   2.633   5.260
 4283TIP3    H212793   5.752   2.760   5.313
 4284TIP3   OH212794   1.098   6.483   5.594
 4284TIP3    H112795   1.157   6.539   5.544
 4284TIP3    H212796   1.010   6.512   5.568
 4285TIP3   OH212797   7.296   0.243   5.981
 4285TIP3    H112798   7.228   0.226   5.915
 4285TIP3    H212799   7.249   0.287   6.052
 4286TIP3   OH212800   6.558   3.442   1.866
 4286TIP3    H112801   6.554   3.377   1.937
 4286TIP3    H212802   6.484   3.419   1.810
 4287TIP3   OH212803   2.356   7.087   5.370
 4287TIP3    H112804   2.301   7.159   5.338
 4287TIP3    H212805   2.319   7.065   5.455
 4288TIP3   OH212806   2.324   1.740   5.533
 4288TIP3    H112807   2.254   1.704   5.478
 4288TIP3    H212808   2.326   1.833   5.511
 4289TIP3   OH212809   1.141   3.575   4.020
 4289TIP3    H112810   1.090   3.560   3.940
 4289TIP3    H212811   1.231   3.554   3.995
 4290TIP3   OH212812   4.818   2.004   1.702
 4290TIP3    H112813   4.785   1.984   1.615
 4290TIP3    H212814   4.806   2.098   1.712
 4291TIP3   OH212815   0.750   1.010   1.273
 4291TIP3    H112816   0.798   0.945   1.222
 4291TIP3    H212817   0.729   1.079   1.210
 4292TIP3   OH212818   1.905   2.005   6.093
 4292TIP3    H112819   1.913   1.947   6.169
 4292TIP3    H212820   1.922   1.950   6.017
 4293TIP3   OH212821   4.962   3.572   6.500
 4293TIP3    H112822   4.903   3.503   6.468
 4293TIP3    H212823   5.050   3.535   6.491
 4294TIP3   OH212824   2.051   0.403   2.485
 4294TIP3    H112825   2.142   0.423   2.506
 4294TIP3    H212826   2.015   0.485   2.452
 4295TIP3   OH212827   2.600   5.196   3.915
 4295TIP3    H112828   2.633   5.199   3.825
 4295TIP3    H212829   2.672   5.160   3.966
 4296TIP3   OH212830   0.389   0.807   0.838
 4296TIP3    H112831   0.329   0.875   0.808
 4296TIP3    H212832   0.473   0.852   0.849
 4297TIP3   OH212833   1.615   2.421   3.251
 4297TIP3    H112834   1.531   2.465   3.265
 4297TIP3    H212835   1.611   2.344   3.307
 4298TIP3   OH212836   5.747   7.667   1.215
 4298TIP3    H112837   5.655   7.654   1.193
 4298TIP3    H212838   5.772   7.586   1.260
 4299TIP3   OH212839   3.336   7.218   2.796
 4299TIP3    H112840   3.402   7.286   2.781
 4299TIP3    H212841   3.258   7.267   2.822
 4300TIP3   OH212842   5.841   7.670   0.965
 4300TIP3    H112843   5.907   7.739   0.961
 4300TIP3    H212844   5.811   7.669   1.056
 4301TIP3   OH212845   2.382   2.155   6.349
 4301TIP3    H112846   2.325   2.210   6.403
 4301TIP3    H212847   2.321   2.110   6.289
 4302TIP3   OH212848   3.572  -0.017   0.091
 4302TIP3    H112849   3.662  -0.039   0.068
 4302TIP3    H212850   3.555   0.065   0.046
 4303TIP3   OH212851   6.585   5.697   1.520
 4303TIP3    H112852   6.560   5.606   1.540
 4303TIP3    H212853   6.679   5.694   1.506
 4304TIP3   OH212854   5.191   5.752   4.232
 4304TIP3    H112855   5.192   5.694   4.308
 4304TIP3    H212856   5.270   5.805   4.241
 4305TIP3   OH212857   5.364   0.950   6.188
 4305TIP3    H112858   5.294   0.905   6.141
 4305TIP3    H212859   5.330   1.038   6.204
 4306TIP3   OH212860   2.141   5.599   2.727
 4306TIP3    H112861   2.118   5.535   2.659
 4306TIP3    H212862   2.067   5.660   2.728
 4307TIP3   OH212863   7.800   1.474   0.694
 4307TIP3    H112864   7.740   1.537   0.653
 4307TIP3    H212865   7.753   1.442   0.771
 4308TIP3   OH212866   1.889   1.377   5.938
 4308TIP3    H112867   1.960   1.396   5.877
 4308TIP3    H212868   1.903   1.286   5.964
 4309TIP3   OH212869   0.437   7.552   5.242
 4309TIP3    H112870   0.485   7.557   5.159
 4309TIP3    H212871   0.488   7.606   5.302
 4310TIP3   OH212872   1.643   3.361   3.694
 4310TIP3    H112873   1.706   3.302   3.652
 4310TIP3    H212874   1.613   3.312   3.771
 4311TIP3   OH212875   5.358   6.498   0.996
 4311TIP3    H112876   5.407   6.554   1.055
 4311TIP3    H212877   5.420   6.429   0.971
 4312TIP3   OH212878   4.440   1.953   3.400
 4312TIP3    H112879   4.517   2.009   3.391
 4312TIP3    H212880   4.378   1.986   3.335
 4313TIP3   OH212881   2.890   5.506   2.002
 4313TIP3    H112882   2.965   5.458   1.967
 4313TIP3    H212883   2.849   5.546   1.926
 4314TIP3   OH212884   2.805   7.011   3.598
 4314TIP3    H112885   2.808   7.075   3.527
 4314TIP3    H212886   2.844   7.054   3.673
 4315TIP3   OH212887   4.667   5.891   3.289
 4315TIP3    H112888   4.628   5.826   3.347
 4315TIP3    H212889   4.761   5.872   3.292
 4316TIP3   OH212890   1.720   7.371   2.969
 4316TIP3    H112891   1.790   7.377   2.905
 4316TIP3    H212892   1.761   7.392   3.052
 4317TIP3   OH212893   3.198   3.490   1.018
 4317TIP3    H112894   3.282   3.518   1.054
 4317TIP3    H212895   3.220   3.454   0.932
 4318TIP3   OH212896   0.152   2.528   2.892
 4318TIP3    H112897   0.088   2.560   2.829
 4318TIP3    H212898   0.208   2.469   2.842
 4319TIP3   OH212899   2.555   5.406   5.059
 4319TIP3    H112900   2.632   5.455   5.086
 4319TIP3    H212901   2.535   5.438   4.971
 4320TIP3   OH212902   6.282   5.986   5.556
 4320TIP3    H112903   6.289   6.075   5.593
 4320TIP3    H212904   6.291   5.928   5.632
 4321TIP3   OH212905   1.089   5.225   4.902
 4321TIP3    H112906   1.096   5.163   4.975
 4321TIP3    H212907   1.180   5.251   4.885
 4322TIP3   OH212908   6.822   2.076   0.088
 4322TIP3    H112909   6.839   2.163   0.052
 4322TIP3    H212910   6.888   2.020   0.048
 4323TIP3   OH212911   6.092   0.537   0.374
 4323TIP3    H112912   6.009   0.584   0.383
 4323TIP3    H212913   6.158   0.597   0.408
 4324TIP3   OH212914   4.622   3.153   5.122
 4324TIP3    H112915   4.661   3.071   5.153
 4324TIP3    H212916   4.615   3.207   5.201
 4325TIP3   OH212917   2.241   5.457   3.471
 4325TIP3    H112918   2.306   5.423   3.409
 4325TIP3    H212919   2.163   5.405   3.453
 4326TIP3   OH212920   4.524   0.121   3.022
 4326TIP3    H112921   4.528   0.179   3.098
 4326TIP3    H212922   4.508   0.179   2.947
 4327TIP3   OH212923   6.908   6.322   5.947
 4327TIP3    H112924   6.956   6.372   5.881
 4327TIP3    H212925   6.972   6.260   5.982
 4328TIP3   OH212926   6.680   3.000   4.181
 4328TIP3    H112927   6.649   3.085   4.149
 4328TIP3    H212928   6.641   2.936   4.121
 4329TIP3   OH212929   3.132   3.932   1.229
 4329TIP3    H112930   3.197   3.865   1.205
 4329TIP3    H212931   3.121   3.922   1.323
 4330TIP3   OH212932   6.712   2.393   0.998
 4330TIP3    H112933   6.795   2.440   0.989
 4330TIP3    H212934   6.645   2.462   0.998
 4331TIP3   OH212935   5.604   4.765   6.349
 4331TIP3    H112936   5.576   4.680   6.384
 4331TIP3    H212937   5.686   4.783   6.395
 4332TIP3   OH212938   0.942   3.894   0.731
 4332TIP3    H112939   0.937   3.894   0.635
 4332TIP3    H212940   0.867   3.947   0.758
 4333TIP3   OH212941   8.306   5.754   3.301
 4333TIP3    H112942   8.305   5.671   3.253
 4333TIP3    H212943   8.349   5.816   3.242
 4334TIP3   OH212944   3.215   5.375   2.217
 4334TIP3    H112945   3.305   5.381   2.185
 4334TIP3    H212946   3.223   5.335   2.303
 4335TIP3   OH212947   3.840   1.885   4.888
 4335TIP3    H112948   3.910   1.850   4.833
 4335TIP3    H212949   3.765   1.829   4.868
 4336TIP3   OH212950   2.445   5.105   4.955
 4336TIP3    H112951   2.411   5.106   4.866
 4336TIP3    H212952   2.428   5.193   4.988
 4337TIP3   OH212953   5.648   1.799   3.085
 4337TIP3    H112954   5.695   1.746   3.149
 4337TIP3    H212955   5.713   1.818   3.017
 4338TIP3   OH212956   0.131   5.786   4.066
 4338TIP3    H112957   0.211   5.839   4.070
 4338TIP3    H212958   0.060   5.849   4.065
 4339TIP3   OH212959   1.142   6.588   2.816
 4339TIP3    H112960   1.145   6.495   2.791
 4339TIP3    H212961   1.049   6.611   2.807
 4340TIP3   OH212962   2.399   0.332   1.475
 4340TIP3    H112963   2.306   0.312   1.482
 4340TIP3    H212964   2.438   0.294   1.554
 4341TIP3   OH212965   4.737   3.290   2.501
 4341TIP3    H112966   4.683   3.212   2.511
 4341TIP3    H212967   4.740   3.328   2.589
 4342TIP3   OH212968   0.966   6.819   3.970
 4342TIP3    H112969   0.952   6.763   4.046
 4342TIP3    H212970   1.054   6.798   3.940
 4343TIP3   OH212971   4.221   2.751   3.565
 4343TIP3    H112972   4.237   2.828   3.619
 4343TIP3    H212973   4.149   2.777   3.507
 4344TIP3   OH212974   1.680   3.482   4.473
 4344TIP3    H112975   1.663   3.552   4.411
 4344TIP3    H212976   1.609   3.489   4.537
 4345TIP3   OH212977   3.540   6.265   5.904
 4345TIP3    H112978   3.601   6.246   5.833
 4345TIP3    H212979   3.477   6.326   5.865
 4346TIP3   OH212980   7.071   5.878   5.494
 4346TIP3    H112981   7.031   5.842   5.415
 4346TIP3    H212982   7.139   5.815   5.517
 4347TIP3   OH212983   2.047   0.105   2.908
 4347TIP3    H112984   2.128   0.068   2.874
 4347TIP3    H212985   2.003   0.142   2.832
 4348TIP3   OH212986   6.268   4.459   3.986
 4348TIP3    H112987   6.212   4.382   3.991
 4348TIP3    H212988   6.284   4.484   4.077
 4349TIP3   OH212989   3.268   5.297   5.572
 4349TIP3    H112990   3.199   5.362   5.587
 4349TIP3    H212991   3.299   5.316   5.483
 4350TIP3   OH212992   7.432   0.022   1.435
 4350TIP3    H112993   7.427   0.114   1.411
 4350TIP3    H212994   7.351   0.006   1.485
 4351TIP3   OH212995   5.686   2.742   0.154
 4351TIP3    H112996   5.655   2.756   0.244
 4351TIP3    H212997   5.780   2.760   0.159
 4352TIP3   OH212998   6.964   1.711   1.468
 4352TIP3    H112999   6.909   1.772   1.418
 4352TIP3    H213000   6.960   1.743   1.558
 4353TIP3   OH213001   8.047   4.670   0.623
 4353TIP3    H113002   8.005   4.737   0.568
 4353TIP3    H213003   8.016   4.689   0.711
 4354TIP3   OH213004   1.080   7.337   3.908
 4354TIP3    H113005   1.160   7.385   3.889
 4354TIP3    H213006   1.069   7.277   3.833
 4355TIP3   OH213007   4.398   5.652   4.351
 4355TIP3    H113008   4.490   5.671   4.335
 4355TIP3    H213009   4.360   5.644   4.263
 4356TIP3   OH213010   6.044   1.712   4.673
 4356TIP3    H113011   6.127   1.709   4.625
 4356TIP3    H213012   5.984   1.657   4.623
 4357TIP3   OH213013   2.629   3.168   2.684
 4357TIP3    H113014   2.717   3.195   2.655
 4357TIP3    H213015   2.571   3.195   2.613
 4358TIP3   OH213016   7.970   6.349   0.131
 4358TIP3    H113017   8.060   6.321   0.117
 4358TIP3    H213018   7.934   6.286   0.193
 4359TIP3   OH213019   4.030   6.877   1.143
 4359TIP3    H113020   4.078   6.864   1.224
 4359TIP3    H213021   4.097   6.880   1.075
 4360TIP3   OH213022   4.610   3.569   2.861
 4360TIP3    H113023   4.572   3.635   2.803
 4360TIP3    H213024   4.694   3.548   2.822
 4361TIP3   OH213025   0.794   5.654   1.986
 4361TIP3    H113026   0.789   5.712   2.062
 4361TIP3    H213027   0.743   5.577   2.012
 4362TIP3   OH213028   3.344   5.931   5.678
 4362TIP3    H113029   3.328   5.837   5.668
 4362TIP3    H213030   3.437   5.942   5.658
 4363TIP3   OH213031   1.747   6.441   6.129
 4363TIP3    H113032   1.693   6.372   6.167
 4363TIP3    H213033   1.699   6.469   6.051
 4364TIP3   OH213034   1.724   3.438   5.040
 4364TIP3    H113035   1.633   3.408   5.039
 4364TIP3    H213036   1.735   3.477   5.127
 4365TIP3   OH213037   1.236   0.394   6.671
 4365TIP3    H113038   1.218   0.389   6.765
 4365TIP3    H213039   1.205   0.310   6.636
 4366TIP3   OH213040   6.643   5.019   0.074
 4366TIP3    H113041   6.571   4.960   0.096
 4366TIP3    H213042   6.608   5.106   0.091
 4367TIP3   OH213043   5.907   3.727   6.745
 4367TIP3    H113044   5.981   3.697   6.797
 4367TIP3    H213045   5.941   3.737   6.656
 4368TIP3   OH213046   7.229   3.521   4.383
 4368TIP3    H113047   7.217   3.577   4.306
 4368TIP3    H213048   7.180   3.441   4.362
 4369TIP3   OH213049   5.364   2.361   0.747
 4369TIP3    H113050   5.299   2.432   0.747
 4369TIP3    H213051   5.448   2.406   0.748
 4370TIP3   OH213052   6.943   2.292   5.190
 4370TIP3    H113053   6.959   2.345   5.113
 4370TIP3    H213054   6.894   2.349   5.249
 4371TIP3   OH213055   6.435   3.029   2.624
 4371TIP3    H113056   6.494   2.970   2.669
 4371TIP3    H213057   6.470   3.116   2.641
 4372TIP3   OH213058   4.189   3.927   5.527
 4372TIP3    H113059   4.215   3.932   5.619
 4372TIP3    H213060   4.114   3.985   5.519
 4373TIP3   OH213061   2.073   3.955   2.967
 4373TIP3    H113062   2.019   3.983   3.041
 4373TIP3    H213063   2.048   4.014   2.896
 4374TIP3   OH213064   0.555   1.594   2.684
 4374TIP3    H113065   0.643   1.576   2.719
 4374TIP3    H213066   0.526   1.671   2.732
 4375TIP3   OH213067   4.846   1.253   6.082
 4375TIP3    H113068   4.791   1.310   6.028
 4375TIP3    H213069   4.892   1.198   6.019
 4376TIP3   OH213070   0.138   7.774   4.506
 4376TIP3    H113071   0.206   7.759   4.441
 4376TIP3    H213072   0.149   7.704   4.570
 4377TIP3   OH213073   2.708   2.668   3.979
 4377TIP3    H113074   2.628   2.631   3.941
 4377TIP3    H213075   2.769   2.674   3.905
 4378TIP3   OH213076   1.858   6.244   2.969
 4378TIP3    H113077   1.835   6.320   3.022
 4378TIP3    H213078   1.806   6.253   2.889
 4379TIP3   OH213079   3.932   5.836   1.366
 4379TIP3    H113080   3.938   5.928   1.393
 4379TIP3    H213081   3.953   5.837   1.273
 4380TIP3   OH213082   2.382   2.976   5.952
 4380TIP3    H113083   2.297   3.003   5.920
 4380TIP3    H213084   2.417   2.918   5.884
 4381TIP3   OH213085   3.863   1.234   2.095
 4381TIP3    H113086   3.906   1.223   2.010
 4381TIP3    H213087   3.911   1.305   2.137
 4382TIP3   OH213088   3.926   4.943   3.789
 4382TIP3    H113089   3.896   5.030   3.762
 4382TIP3    H213090   3.874   4.923   3.867
 4383TIP3   OH213091   8.137   7.334   1.392
 4383TIP3    H113092   8.183   7.349   1.310
 4383TIP3    H213093   8.088   7.252   1.378
 4384TIP3   OH213094   0.223   1.735   4.802
 4384TIP3    H113095   0.247   1.804   4.864
 4384TIP3    H213096   0.147   1.693   4.842
 4385TIP3   OH213097   7.575   3.246   5.897
 4385TIP3    H113098   7.563   3.321   5.839
 4385TIP3    H213099   7.520   3.177   5.858
 4386TIP3   OH213100   2.850   2.438   3.807
 4386TIP3    H113101   2.923   2.397   3.762
 4386TIP3    H213102   2.856   2.531   3.785
 4387TIP3   OH213103   0.777   7.430   5.889
 4387TIP3    H113104   0.713   7.360   5.905
 4387TIP3    H213105   0.813   7.450   5.975
 4388TIP3   OH213106   1.765   0.835   5.758
 4388TIP3    H113107   1.801   0.870   5.677
 4388TIP3    H213108   1.673   0.817   5.737
 4389TIP3   OH213109   3.768   5.102   2.192
 4389TIP3    H113110   3.717   5.176   2.160
 4389TIP3    H213111   3.748   5.096   2.285
 4390TIP3   OH213112   0.632   3.608   5.164
 4390TIP3    H113113   0.634   3.558   5.083
 4390TIP3    H213114   0.596   3.693   5.139
 4391TIP3   OH213115   1.906   5.074   3.135
 4391TIP3    H113116   1.853   5.003   3.099
 4391TIP3    H213117   1.914   5.137   3.064
 4392TIP3   OH213118   2.945   0.790   1.589
 4392TIP3    H113119   2.889   0.823   1.519
 4392TIP3    H213120   2.960   0.698   1.567
 4393TIP3   OH213121   7.408   5.741   1.831
 4393TIP3    H113122   7.430   5.651   1.856
 4393TIP3    H213123   7.425   5.793   1.909
 4394TIP3   OH213124   0.488   6.080   4.895
 4394TIP3    H113125   0.411   6.038   4.856
 4394TIP3    H213126   0.533   6.121   4.821
 4395TIP3   OH213127   6.545   5.436   1.664
 4395TIP3    H113128   6.631   5.455   1.702
 4395TIP3    H213129   6.555   5.351   1.621
 4396TIP3   OH213130   1.647   5.276   4.140
 4396TIP3    H113131   1.643   5.219   4.217
 4396TIP3    H213132   1.739   5.278   4.116
 4397TIP3   OH213133   4.996   5.951   5.740
 4397TIP3    H113134   4.945   6.023   5.704
 4397TIP3    H213135   5.043   5.914   5.665
 4398TIP3   OH213136   3.736   7.133   6.066
 4398TIP3    H113137   3.687   7.051   6.073
 4398TIP3    H213138   3.820   7.115   6.108
 4399TIP3   OH213139   3.631   4.409   5.707
 4399TIP3    H113140   3.547   4.413   5.752
 4399TIP3    H213141   3.623   4.335   5.647
 4400TIP3   OH213142   2.695   5.555   3.555
 4400TIP3    H113143   2.701   5.492   3.627
 4400TIP3    H213144   2.720   5.505   3.477
 4401TIP3   OH213145   6.598   0.396   4.400
 4401TIP3    H113146   6.610   0.488   4.377
 4401TIP3    H213147   6.687   0.363   4.413
 4402TIP3   OH213148   2.547   3.095   4.458
 4402TIP3    H113149   2.501   3.169   4.498
 4402TIP3    H213150   2.592   3.133   4.383
 4403TIP3   OH213151   8.210   5.584   4.037
 4403TIP3    H113152   8.304   5.601   4.045
 4403TIP3    H213153   8.169   5.656   4.086
 4404TIP3   OH213154   7.085   6.870   2.218
 4404TIP3    H113155   7.039   6.879   2.135
 4404TIP3    H213156   7.126   6.955   2.231
 4405TIP3   OH213157   0.536   0.446   6.699
 4405TIP3    H113158   0.526   0.536   6.730
 4405TIP3    H213159   0.496   0.446   6.612
 4406TIP3   OH213160   6.762   2.769   1.365
 4406TIP3    H113161   6.827   2.744   1.300
 4406TIP3    H213162   6.811   2.817   1.431
 4407TIP3   OH213163   8.045   2.596   5.845
 4407TIP3    H113164   8.067   2.676   5.797
 4407TIP3    H213165   7.973   2.621   5.902
 4408TIP3   OH213166   4.077   4.553   2.176
 4408TIP3    H113167   4.087   4.459   2.166
 4408TIP3    H213168   4.120   4.590   2.099
 4409TIP3   OH213169   4.962   2.956   2.110
 4409TIP3    H113170   4.880   3.005   2.113
 4409TIP3    H213171   4.966   2.909   2.193
 4410TIP3   OH213172   2.570   4.267   4.904
 4410TIP3    H113173   2.660   4.296   4.894
 4410TIP3    H213174   2.573   4.203   4.975
 4411TIP3   OH213175   2.182   7.065   5.614
 4411TIP3    H113176   2.132   7.143   5.638
 4411TIP3    H213177   2.129   7.023   5.546
 4412TIP3   OH213178   6.059   6.877   4.519
 4412TIP3    H113179   6.075   6.831   4.437
 4412TIP3    H213180   6.075   6.969   4.499
 4413TIP3   OH213181   2.267   7.062   3.664
 4413TIP3    H113182   2.259   7.000   3.592
 4413TIP3    H213183   2.177   7.094   3.677
 4414TIP3   OH213184   6.786   3.013   0.748
 4414TIP3    H113185   6.874   2.986   0.719
 4414TIP3    H213186   6.794   3.022   0.843
 4415TIP3   OH213187   7.230   5.071   0.236
 4415TIP3    H113188   7.175   5.048   0.162
 4415TIP3    H213189   7.294   5.000   0.242
 4416TIP3   OH213190   4.690   7.391   6.493
 4416TIP3    H113191   4.648   7.305   6.496
 4416TIP3    H213192   4.621   7.450   6.462
 4417TIP3   OH213193   7.994   6.582   2.743
 4417TIP3    H113194   8.085   6.603   2.767
 4417TIP3    H213195   7.955   6.548   2.823
 4418TIP3   OH213196   6.241   0.888   6.189
 4418TIP3    H113197   6.206   0.799   6.189
 4418TIP3    H213198   6.279   0.899   6.276
 4419TIP3   OH213199   5.957   0.630   5.083
 4419TIP3    H113200   6.028   0.566   5.080
 4419TIP3    H213201   6.001   0.714   5.069
 4420TIP3   OH213202   0.070   0.442   4.213
 4420TIP3    H113203  -0.007   0.434   4.270
 4420TIP3    H213204   0.129   0.373   4.243
 4421TIP3   OH213205   7.262  -0.026   6.221
 4421TIP3    H113206   7.228  -0.072   6.144
 4421TIP3    H213207   7.262   0.066   6.195
 4422TIP3   OH213208   2.668   0.173   3.519
 4422TIP3    H113209   2.759   0.151   3.538
 4422TIP3    H213210   2.668   0.192   3.425
 4423TIP3   OH213211   1.775   2.468   5.744
 4423TIP3    H113212   1.790   2.562   5.730
 4423TIP3    H213213   1.765   2.432   5.656
 4424TIP3   OH213214   0.442   3.220   4.939
 4424TIP3    H113215   0.482   3.173   5.012
 4424TIP3    H213216   0.370   3.164   4.911
 4425TIP3   OH213217   1.632   7.649   5.449
 4425TIP3    H113218   1.679   7.722   5.406
 4425TIP3    H213219   1.677   7.638   5.532
 4426TIP3   OH213220   0.066   4.919   1.480
 4426TIP3    H113221   0.101   4.841   1.436
 4426TIP3    H213222  -0.028   4.916   1.462
 4427TIP3   OH213223   4.662   6.147   2.452
 4427TIP3    H113224   4.613   6.229   2.448
 4427TIP3    H213225   4.715   6.146   2.372
 4428TIP3   OH213226   2.292   6.812   4.450
 4428TIP3    H113227   2.200   6.836   4.454
 4428TIP3    H213228   2.311   6.772   4.535
 4429TIP3   OH213229   7.759   1.027   6.533
 4429TIP3    H113230   7.809   1.057   6.610
 4429TIP3    H213231   7.670   1.058   6.549
 4430TIP3   OH213232   1.402   7.026   4.778
 4430TIP3    H113233   1.323   6.994   4.821
 4430TIP3    H213234   1.375   7.043   4.687
 4431TIP3   OH213235   0.433   6.274   5.767
 4431TIP3    H113236   0.440   6.314   5.681
 4431TIP3    H213237   0.434   6.180   5.751
 4432TIP3   OH213238   1.390   0.429   4.461
 4432TIP3    H113239   1.455   0.359   4.462
 4432TIP3    H213240   1.309   0.386   4.489
 4433TIP3   OH213241   5.835   6.206   0.656
 4433TIP3    H113242   5.894   6.158   0.597
 4433TIP3    H213243   5.769   6.141   0.682
 4434TIP3   OH213244   4.175   0.629   5.630
 4434TIP3    H113245   4.132   0.662   5.551
 4434TIP3    H213246   4.236   0.563   5.599
 4435TIP3   OH213247   2.934   0.203   2.604
 4435TIP3    H113248   3.022   0.222   2.637
 4435TIP3    H213249   2.904   0.129   2.657
 4436TIP3   OH213250   3.063   2.596   0.829
 4436TIP3    H113251   2.969   2.579   0.831
 4436TIP3    H213252   3.102   2.512   0.804
 4437TIP3   OH213253   2.238   4.491   0.754
 4437TIP3    H113254   2.213   4.483   0.846
 4437TIP3    H213255   2.155   4.493   0.706
 4438TIP3   OH213256   6.400   7.302   3.620
 4438TIP3    H113257   6.398   7.208   3.598
 4438TIP3    H213258   6.344   7.309   3.697
 4439TIP3   OH213259   2.562   1.775   5.955
 4439TIP3    H113260   2.534   1.683   5.957
 4439TIP3    H213261   2.658   1.770   5.955
 4440TIP3   OH213262   6.610   4.575   0.516
 4440TIP3    H113263   6.579   4.573   0.606
 4440TIP3    H213264   6.549   4.518   0.468
 4441TIP3   OH213265   7.127   7.635   2.128
 4441TIP3    H113266   7.079   7.636   2.211
 4441TIP3    H213267   7.215   7.666   2.151
 4442TIP3   OH213268   6.073   4.743   6.341
 4442TIP3    H113269   6.008   4.688   6.386
 4442TIP3    H213270   6.135   4.766   6.410
 4443TIP3   OH213271   2.705   6.983   3.064
 4443TIP3    H113272   2.758   7.050   3.020
 4443TIP3    H213273   2.765   6.909   3.076
 4444TIP3   OH213274   4.462   3.988   5.128
 4444TIP3    H113275   4.448   3.902   5.088
 4444TIP3    H213276   4.399   3.991   5.200
 4445TIP3   OH213277   0.058   2.631   2.133
 4445TIP3    H113278  -0.038   2.625   2.138
 4445TIP3    H213279   0.085   2.657   2.221
 4446TIP3   OH213280   4.803   5.211   3.558
 4446TIP3    H113281   4.725   5.235   3.507
 4446TIP3    H213282   4.794   5.117   3.573
 4447TIP3   OH213283   1.543   2.706   0.560
 4447TIP3    H113284   1.598   2.676   0.632
 4447TIP3    H213285   1.454   2.708   0.596
 4448TIP3   OH213286   3.283   6.615   4.187
 4448TIP3    H113287   3.314   6.525   4.180
 4448TIP3    H213288   3.188   6.608   4.199
 4449TIP3   OH213289   5.698   0.373  -0.052
 4449TIP3    H113290   5.685   0.446   0.008
 4449TIP3    H213291   5.673   0.296  -0.002
 4450TIP3   OH213292   1.372   7.579   2.695
 4450TIP3    H113293   1.410   7.655   2.650
 4450TIP3    H213294   1.448   7.533   2.731
 4451TIP3   OH213295   6.370   4.612   1.908
 4451TIP3    H113296   6.378   4.706   1.893
 4451TIP3    H213297   6.326   4.605   1.993
 4452TIP3   OH213298   2.329   3.786   5.567
 4452TIP3    H113299   2.348   3.769   5.475
 4452TIP3    H213300   2.406   3.753   5.613
 4453TIP3   OH213301   1.815   5.439   5.064
 4453TIP3    H113302   1.865   5.504   5.015
 4453TIP3    H213303   1.771   5.387   4.996
 4454TIP3   OH213304   4.099   2.731   4.962
 4454TIP3    H113305   4.147   2.737   5.045
 4454TIP3    H213306   4.144   2.791   4.903
 4455TIP3   OH213307   1.842   2.944   1.807
 4455TIP3    H113308   1.863   2.959   1.899
 4455TIP3    H213309   1.922   2.908   1.769
 4456TIP3   OH213310   6.135   2.916   5.663
 4456TIP3    H113311   6.152   2.994   5.716
 4456TIP3    H213312   6.222   2.883   5.640
 4457TIP3   OH213313   3.072   5.230   5.932
 4457TIP3    H113314   2.992   5.257   5.977
 4457TIP3    H213315   3.063   5.267   5.844
 4458TIP3   OH213316   7.039   6.345   4.727
 4458TIP3    H113317   6.990   6.355   4.645
 4458TIP3    H213318   7.067   6.254   4.728
 4459TIP3   OH213319   6.775   7.364   6.120
 4459TIP3    H113320   6.704   7.300   6.119
 4459TIP3    H213321   6.793   7.378   6.213
 4460TIP3   OH213322   4.291   6.217   2.553
 4460TIP3    H113323   4.227   6.287   2.564
 4460TIP3    H213324   4.253   6.160   2.485
 4461TIP3   OH213325   0.941   3.367   3.236
 4461TIP3    H113326   0.891   3.326   3.307
 4461TIP3    H213327   1.026   3.389   3.276
 4462TIP3   OH213328   4.761   6.560   0.170
 4462TIP3    H113329   4.829   6.495   0.153
 4462TIP3    H213330   4.801   6.619   0.235
 4463TIP3   OH213331   5.316   3.366   4.388
 4463TIP3    H113332   5.373   3.350   4.463
 4463TIP3    H213333   5.361   3.325   4.314
 4464TIP3   OH213334   2.145   1.518   0.151
 4464TIP3    H113335   2.237   1.498   0.171
 4464TIP3    H213336   2.135   1.610   0.173
 4465TIP3   OH213337   0.299   0.284   6.294
 4465TIP3    H113338   0.210   0.263   6.266
 4465TIP3    H213339   0.352   0.209   6.265
 4466TIP3   OH213340   0.167   1.887   3.524
 4466TIP3    H113341   0.219   1.888   3.605
 4466TIP3    H213342   0.087   1.935   3.546
 4467TIP3   OH213343   1.388   1.698   5.403
 4467TIP3    H113344   1.433   1.662   5.326
 4467TIP3    H213345   1.425   1.786   5.412
 4468TIP3   OH213346   5.838   0.902   1.334
 4468TIP3    H113347   5.862   0.904   1.427
 4468TIP3    H213348   5.868   0.987   1.300
 4469TIP3   OH213349   7.501   2.817   3.175
 4469TIP3    H113350   7.464   2.893   3.220
 4469TIP3    H213351   7.495   2.746   3.239
 4470TIP3   OH213352   1.045   5.362   2.018
 4470TIP3    H113353   1.107   5.310   2.069
 4470TIP3    H213354   0.966   5.308   2.012
 4471TIP3   OH213355   1.414   3.894   2.903
 4471TIP3    H113356   1.328   3.864   2.875
 4471TIP3    H213357   1.468   3.887   2.824
 4472TIP3   OH213358   1.345   7.770   5.039
 4472TIP3    H113359   1.268   7.747   5.091
 4472TIP3    H213360   1.312   7.776   4.949
 4473TIP3   OH213361   0.626   5.266   1.755
 4473TIP3    H113362   0.675   5.240   1.677
 4473TIP3    H213363   0.693   5.283   1.821
 4474TIP3   OH213364   0.248   5.455   0.737
 4474TIP3    H113365   0.208   5.531   0.694
 4474TIP3    H213366   0.237   5.472   0.831
 4475TIP3   OH213367   2.346   2.963   4.197
 4475TIP3    H113368   2.360   3.056   4.213
 4475TIP3    H213369   2.426   2.933   4.154
 4476TIP3   OH213370   0.887   3.696   6.470
 4476TIP3    H113371   0.833   3.773   6.486
 4476TIP3    H213372   0.926   3.676   6.555
 4477TIP3   OH213373   3.578   4.401   3.519
 4477TIP3    H113374   3.633   4.479   3.520
 4477TIP3    H213375   3.534   4.402   3.603
 4478TIP3   OH213376   0.535   3.781   0.525
 4478TIP3    H113377   0.514   3.781   0.431
 4478TIP3    H213378   0.622   3.742   0.529
 4479TIP3   OH213379   8.094   6.757   2.190
 4479TIP3    H113380   8.174   6.742   2.240
 4479TIP3    H213381   8.116   6.729   2.101
 4480TIP3   OH213382   7.541   6.557   2.584
 4480TIP3    H113383   7.568   6.643   2.617
 4480TIP3    H213384   7.536   6.502   2.662
 4481TIP3   OH213385   5.006   4.170   3.010
 4481TIP3    H113386   5.084   4.225   3.017
 4481TIP3    H213387   5.040   4.081   3.008
 4482TIP3   OH213388   2.509   5.929   4.972
 4482TIP3    H113389   2.486   5.864   4.906
 4482TIP3    H213390   2.581   5.979   4.933
 4483TIP3   OH213391   5.264   2.378   2.574
 4483TIP3    H113392   5.345   2.374   2.523
 4483TIP3    H213393   5.251   2.471   2.591
 4484TIP3   OH213394   4.297   1.547   4.033
 4484TIP3    H113395   4.257   1.489   3.968
 4484TIP3    H213396   4.250   1.528   4.114
 4485TIP3   OH213397   3.180   7.663   5.705
 4485TIP3    H113398   3.255   7.646   5.648
 4485TIP3    H213399   3.118   7.709   5.650
 4486TIP3   OH213400   7.724   1.522   1.160
 4486TIP3    H113401   7.802   1.576   1.146
 4486TIP3    H213402   7.759   1.437   1.188
 4487TIP3   OH213403   4.170   0.799   0.899
 4487TIP3    H113404   4.161   0.870   0.835
 4487TIP3    H213405   4.189   0.844   0.982
 4488TIP3   OH213406   2.766   6.153   5.356
 4488TIP3    H113407   2.797   6.217   5.420
 4488TIP3    H213408   2.822   6.168   5.279
 4489TIP3   OH213409   3.494   6.980   4.073
 4489TIP3    H113410   3.580   6.973   4.115
 4489TIP3    H213411   3.482   6.897   4.027
 4490TIP3   OH213412   3.237   5.056   1.993
 4490TIP3    H113413   3.215   5.047   1.901
 4490TIP3    H213414   3.326   5.092   1.993
 4491TIP3   OH213415   8.185   1.399   5.117
 4491TIP3    H113416   8.236   1.329   5.076
 4491TIP3    H213417   8.236   1.425   5.193
 4492TIP3   OH213418   5.998   5.058   5.410
 4492TIP3    H113419   5.996   5.112   5.490
 4492TIP3    H213420   5.915   5.012   5.411
 4493TIP3   OH213421   6.110   5.796   3.671
 4493TIP3    H113422   6.200   5.812   3.699
 4493TIP3    H213423   6.094   5.862   3.604
 4494TIP3   OH213424   2.987   2.648   0.369
 4494TIP3    H113425   3.042   2.691   0.435
 4494TIP3    H213426   2.944   2.577   0.418
 4495TIP3   OH213427   1.535   7.133   1.275
 4495TIP3    H113428   1.516   7.097   1.189
 4495TIP3    H213429   1.487   7.217   1.277
 4496TIP3   OH213430   7.897   6.569   2.489
 4496TIP3    H113431   7.847   6.489   2.475
 4496TIP3    H213432   7.933   6.560   2.577
 4497TIP3   OH213433   1.244   1.220   0.810
 4497TIP3    H113434   1.197   1.145   0.773
 4497TIP3    H213435   1.322   1.182   0.849
 4498TIP3   OH213436   6.732   5.891   2.812
 4498TIP3    H113437   6.662   5.841   2.771
 4498TIP3    H213438   6.723   5.873   2.906
 4499TIP3   OH213439   4.001   0.426   3.913
 4499TIP3    H113440   3.928   0.482   3.939
 4499TIP3    H213441   3.960   0.351   3.871
 4500TIP3   OH213442   2.419   0.779   4.558
 4500TIP3    H113443   2.333   0.760   4.596
 4500TIP3    H213444   2.481   0.751   4.624
 4501TIP3   OH213445   3.718   0.151   1.880
 4501TIP3    H113446   3.774   0.225   1.858
 4501TIP3    H213447   3.630   0.188   1.885
 4502TIP3   OH213448   6.191   2.629   2.762
 4502TIP3    H113449   6.119   2.692   2.763
 4502TIP3    H213450   6.259   2.671   2.710
 4503TIP3   OH213451   1.152   0.185   5.498
 4503TIP3    H113452   1.196   0.256   5.451
 4503TIP3    H213453   1.122   0.226   5.580
 4504TIP3   OH213454   2.165   4.053   6.538
 4504TIP3    H113455   2.098   4.121   6.526
 4504TIP3    H213456   2.118   3.979   6.577
 4505TIP3   OH213457   0.195   0.908   2.713
 4505TIP3    H113458   0.264   0.847   2.685
 4505TIP3    H213459   0.117   0.878   2.666
 4506TIP3   OH213460   5.453   0.987   4.796
 4506TIP3    H113461   5.533   0.966   4.843
 4506TIP3    H213462   5.419   0.902   4.767
 4507TIP3   OH213463   0.795   6.712   1.146
 4507TIP3    H113464   0.703   6.722   1.167
 4507TIP3    H213465   0.797   6.663   1.064
 4508TIP3   OH213466   4.592   6.847   3.632
 4508TIP3    H113467   4.550   6.777   3.682
 4508TIP3    H213468   4.685   6.827   3.638
 4509TIP3   OH213469   3.308   7.283   3.824
 4509TIP3    H113470   3.368   7.267   3.896
 4509TIP3    H213471   3.227   7.239   3.850
 4510TIP3   OH213472   4.914   2.641   3.275
 4510TIP3    H113473   4.962   2.622   3.355
 4510TIP3    H213474   4.866   2.722   3.294
 4511TIP3   OH213475   7.129   6.605   4.594
 4511TIP3    H113476   7.075   6.645   4.662
 4511TIP3    H213477   7.092   6.518   4.582
 4512TIP3   OH213478   3.437   5.572   4.537
 4512TIP3    H113479   3.391   5.489   4.555
 4512TIP3    H213480   3.371   5.629   4.500
 4513TIP3   OH213481   5.317   4.569   2.279
 4513TIP3    H113482   5.345   4.479   2.266
 4513TIP3    H213483   5.299   4.576   2.372
 4514TIP3   OH213484   3.444   7.095   2.560
 4514TIP3    H113485   3.392   7.046   2.497
 4514TIP3    H213486   3.405   7.073   2.645
 4515TIP3   OH213487   3.221   1.059   1.886
 4515TIP3    H113488   3.301   1.072   1.836
 4515TIP3    H213489   3.165   1.133   1.862
 4516TIP3   OH213490   1.112   1.191   1.524
 4516TIP3    H113491   1.190   1.246   1.532
 4516TIP3    H213492   1.101   1.150   1.610
 4517TIP3   OH213493   1.527   7.590   0.466
 4517TIP3    H113494   1.582   7.667   0.476
 4517TIP3    H213495   1.491   7.597   0.377
 4518TIP3   OH213496   4.221   6.250   0.930
 4518TIP3    H113497   4.129   6.225   0.933
 4518TIP3    H213498   4.221   6.343   0.949
 4519TIP3   OH213499   3.958   0.750   0.167
 4519TIP3    H113500   3.898   0.699   0.113
 4519TIP3    H213501   3.923   0.839   0.165
 4520TIP3   OH213502   0.798   0.367   2.884
 4520TIP3    H113503   0.762   0.281   2.862
 4520TIP3    H213504   0.781   0.377   2.977
 4521TIP3   OH213505   4.763   5.675   2.089
 4521TIP3    H113506   4.709   5.603   2.055
 4521TIP3    H213507   4.835   5.631   2.134
 4522TIP3   OH213508   4.927   1.252   2.635
 4522TIP3    H113509   4.944   1.325   2.575
 4522TIP3    H213510   4.974   1.275   2.715
 4523TIP3   OH213511   7.699   4.638   2.824
 4523TIP3    H113512   7.723   4.679   2.907
 4523TIP3    H213513   7.780   4.640   2.772
 4524TIP3   OH213514   2.537   7.372   3.111
 4524TIP3    H113515   2.543   7.299   3.173
 4524TIP3    H213516   2.607   7.431   3.137
 4525TIP3   OH213517   6.168   2.105   0.487
 4525TIP3    H113518   6.171   2.183   0.542
 4525TIP3    H213519   6.255   2.099   0.448
 4526TIP3   OH213520   2.109   0.757   3.560
 4526TIP3    H113521   2.097   0.666   3.586
 4526TIP3    H213522   2.070   0.763   3.473
 4527TIP3   OH213523   3.642   5.033   2.443
 4527TIP3    H113524   3.574   5.047   2.510
 4527TIP3    H213525   3.662   4.940   2.449
 4528TIP3   OH213526   3.319   0.009   0.712
 4528TIP3    H113527   3.372   0.039   0.786
 4528TIP3    H213528   3.328  -0.086   0.713
 4529TIP3   OH213529   0.938   1.968   1.788
 4529TIP3    H113530   0.988   1.942   1.865
 4529TIP3    H213531   0.847   1.948   1.810
 4530TIP3   OH213532   6.549   6.486   3.816
 4530TIP3    H113533   6.456   6.500   3.799
 4530TIP3    H213534   6.560   6.391   3.808
 4531TIP3   OH213535   0.924   3.856   4.903
 4531TIP3    H113536   0.934   3.925   4.968
 4531TIP3    H213537   0.838   3.873   4.864
 4532TIP3   OH213538   7.816   2.283   3.795
 4532TIP3    H113539   7.741   2.328   3.756
 4532TIP3    H213540   7.778   2.209   3.843
 4533TIP3   OH213541   1.715   1.623   4.412
 4533TIP3    H113542   1.674   1.609   4.327
 4533TIP3    H213543   1.789   1.563   4.413
 4534TIP3   OH213544   7.845   5.069   5.151
 4534TIP3    H113545   7.937   5.093   5.164
 4534TIP3    H213546   7.830   5.082   5.057
 4535TIP3   OH213547   0.252   2.023   5.874
 4535TIP3    H113548   0.339   2.003   5.839
 4535TIP3    H213549   0.195   2.024   5.798
 4536TIP3   OH213550   6.551   4.459   6.354
 4536TIP3    H113551   6.550   4.370   6.320
 4536TIP3    H213552   6.642   4.487   6.345
 4537TIP3   OH213553   7.284   3.588   6.628
 4537TIP3    H113554   7.220   3.650   6.594
 4537TIP3    H213555   7.360   3.643   6.651
 4538TIP3   OH213556   3.364   6.149   3.252
 4538TIP3    H113557   3.424   6.201   3.306
 4538TIP3    H213558   3.291   6.130   3.310
 4539TIP3   OH213559   7.298   5.515   5.071
 4539TIP3    H113560   7.229   5.520   5.136
 4539TIP3    H213561   7.256   5.541   4.989
 4540TIP3   OH213562   4.094   5.602   0.732
 4540TIP3    H113563   4.079   5.578   0.641
 4540TIP3    H213564   4.159   5.672   0.728
 4541TIP3   OH213565   6.883   3.542   0.645
 4541TIP3    H113566   6.868   3.482   0.717
 4541TIP3    H213567   6.963   3.589   0.669
 4542TIP3   OH213568   0.451   7.389   2.880
 4542TIP3    H113569   0.518   7.454   2.900
 4542TIP3    H213570   0.409   7.372   2.965
 4543TIP3   OH213571   7.434   1.576   0.173
 4543TIP3    H113572   7.474   1.489   0.167
 4543TIP3    H213573   7.357   1.563   0.228
 4544TIP3   OH213574   6.988   7.393   5.052
 4544TIP3    H113575   6.968   7.486   5.046
 4544TIP3    H213576   7.000   7.365   4.961
 4545TIP3   OH213577   7.017   1.257   2.357
 4545TIP3    H113578   7.030   1.169   2.393
 4545TIP3    H213579   7.079   1.312   2.405
 4546TIP3   OH213580   5.927   1.781  -0.019
 4546TIP3    H113581   5.881   1.708   0.023
 4546TIP3    H213582   5.858   1.829  -0.065
 4547TIP3   OH213583   3.143   3.054   2.958
 4547TIP3    H113584   3.091   2.983   2.997
 4547TIP3    H213585   3.224   3.012   2.930
 4548TIP3   OH213586   3.602   1.451   6.159
 4548TIP3    H113587   3.664   1.502   6.211
 4548TIP3    H213588   3.556   1.516   6.106
 4549TIP3   OH213589   0.770   5.428   1.451
 4549TIP3    H113590   0.707   5.491   1.415
 4549TIP3    H213591   0.825   5.405   1.377
 4550TIP3   OH213592   2.089   2.501   5.422
 4550TIP3    H113593   2.075   2.516   5.328
 4550TIP3    H213594   2.018   2.441   5.447
 4551TIP3   OH213595   3.713   4.019   1.017
 4551TIP3    H113596   3.795   3.976   0.991
 4551TIP3    H213597   3.667   4.033   0.935
 4552TIP3   OH213598   4.781   3.696   4.308
 4552TIP3    H113599   4.758   3.768   4.366
 4552TIP3    H213600   4.870   3.672   4.334
 4553TIP3   OH213601   5.372   1.819   5.460
 4553TIP3    H113602   5.366   1.725   5.445
 4553TIP3    H213603   5.285   1.845   5.490
 4554TIP3   OH213604   7.444   4.317   6.068
 4554TIP3    H113605   7.486   4.388   6.019
 4554TIP3    H213606   7.470   4.333   6.159
 4555TIP3   OH213607   5.924   0.478   5.330
 4555TIP3    H113608   5.910   0.520   5.245
 4555TIP3    H213609   5.935   0.551   5.391
 4556TIP3   OH213610   3.041   7.760   4.658
 4556TIP3    H113611   3.047   7.825   4.728
 4556TIP3    H213612   2.948   7.739   4.653
 4557TIP3   OH213613   3.713   4.145   3.542
 4557TIP3    H113614   3.654   4.072   3.520
 4557TIP3    H213615   3.662   4.224   3.522
 4558TIP3   OH213616   4.031   1.119   1.915
 4558TIP3    H113617   4.073   1.056   1.973
 4558TIP3    H213618   4.103   1.166   1.874
 4559TIP3   OH213619   1.230   2.614   1.004
 4559TIP3    H113620   1.193   2.640   0.920
 4559TIP3    H213621   1.285   2.538   0.984
 4560TIP3   OH213622   5.539   7.294   4.294
 4560TIP3    H113623   5.478   7.249   4.352
 4560TIP3    H213624   5.531   7.248   4.211
 4561TIP3   OH213625   0.292   1.165   4.485
 4561TIP3    H113626   0.287   1.072   4.462
 4561TIP3    H213627   0.216   1.205   4.442
 4562TIP3   OH213628   0.242   5.665   3.439
 4562TIP3    H113629   0.167   5.711   3.401
 4562TIP3    H213630   0.239   5.577   3.400
 4563TIP3   OH213631   0.724   6.936   3.291
 4563TIP3    H113632   0.806   6.961   3.247
 4563TIP3    H213633   0.681   7.019   3.311
 4564TIP3   OH213634   3.809   3.837   6.440
 4564TIP3    H113635   3.764   3.753   6.432
 4564TIP3    H213636   3.796   3.863   6.531
 4565TIP3   OH213637   6.398   2.668   3.246
 4565TIP3    H113638   6.313   2.711   3.241
 4565TIP3    H213639   6.390   2.609   3.322
 4566TIP3   OH213640   7.300   3.456   1.422
 4566TIP3    H113641   7.283   3.362   1.419
 4566TIP3    H213642   7.335   3.476   1.335
 4567TIP3   OH213643   0.166   6.594   4.529
 4567TIP3    H113644   0.092   6.602   4.469
 4567TIP3    H213645   0.243   6.608   4.473
 4568TIP3   OH213646   2.385   1.067   3.214
 4568TIP3    H113647   2.382   0.981   3.255
 4568TIP3    H213648   2.478   1.085   3.202
 4569TIP3   OH213649   4.578   2.417   4.586
 4569TIP3    H113650   4.585   2.427   4.681
 4569TIP3    H213651   4.511   2.480   4.560
 4570TIP3   OH213652   5.329   0.768   3.986
 4570TIP3    H113653   5.404   0.731   3.939
 4570TIP3    H213654   5.317   0.855   3.947
 4571TIP3   OH213655   5.027   0.341   3.445
 4571TIP3    H113656   5.021   0.247   3.429
 4571TIP3    H213657   5.109   0.352   3.494
 4572TIP3   OH213658   2.340   3.089   2.727
 4572TIP3    H113659   2.419   3.041   2.755
 4572TIP3    H213660   2.308   3.039   2.652
 4573TIP3   OH213661   7.974   1.166   5.080
 4573TIP3    H113662   7.994   1.259   5.095
 4573TIP3    H213663   8.027   1.143   5.003
 4574TIP3   OH213664   3.946   7.089   6.560
 4574TIP3    H113665   3.868   7.139   6.583
 4574TIP3    H213666   3.996   7.148   6.503
 4575TIP3   OH213667   0.995   1.577   6.635
 4575TIP3    H113668   0.976   1.493   6.592
 4575TIP3    H213669   1.018   1.636   6.563
 4576TIP3   OH213670   6.527   2.249   0.811
 4576TIP3    H113671   6.592   2.281   0.874
 4576TIP3    H213672   6.540   2.304   0.734
 4577TIP3   OH213673   2.789   3.478   6.364
 4577TIP3    H113674   2.734   3.415   6.317
 4577TIP3    H213675   2.832   3.528   6.294
 4578TIP3   OH213676   8.106   3.980   4.505
 4578TIP3    H113677   8.106   3.917   4.432
 4578TIP3    H213678   8.189   4.026   4.497
 4579TIP3   OH213679   5.830   7.428   1.385
 4579TIP3    H113680   5.924   7.416   1.396
 4579TIP3    H213681   5.802   7.352   1.334
 4580TIP3   OH213682   4.769   1.672   2.680
 4580TIP3    H113683   4.681   1.636   2.691
 4580TIP3    H213684   4.806   1.671   2.768
 4581TIP3   OH213685   1.882   2.355   3.752
 4581TIP3    H113686   1.976   2.347   3.772
 4581TIP3    H213687   1.866   2.288   3.686
 4582TIP3   OH213688   4.770   6.442   2.495
 4582TIP3    H113689   4.833   6.405   2.557
 4582TIP3    H213690   4.687   6.443   2.542
 4583TIP3   OH213691   7.232   4.977   5.075
 4583TIP3    H113692   7.284   4.960   5.153
 4583TIP3    H213693   7.213   5.071   5.078
 4584TIP3   OH213694   0.365   3.518   0.897
 4584TIP3    H113695   0.370   3.515   0.993
 4584TIP3    H213696   0.454   3.499   0.868
 4585TIP3   OH213697   1.006   7.635   1.152
 4585TIP3    H113698   1.078   7.688   1.186
 4585TIP3    H213699   0.928   7.687   1.170
 4586TIP3   OH213700   3.350   0.990   3.961
 4586TIP3    H113701   3.342   0.930   3.887
 4586TIP3    H213702   3.420   0.953   4.015
 4587TIP3   OH213703   2.119   0.593   1.001
 4587TIP3    H113704   2.056   0.535   1.043
 4587TIP3    H213705   2.098   0.680   1.035
 4588TIP3   OH213706   5.582   6.285   4.417
 4588TIP3    H113707   5.525   6.218   4.380
 4588TIP3    H213708   5.671   6.256   4.396
 4589TIP3   OH213709   2.409   5.807   6.197
 4589TIP3    H113710   2.450   5.721   6.198
 4589TIP3    H213711   2.365   5.814   6.281
 4590TIP3   OH213712   6.857   1.376   2.616
 4590TIP3    H113713   6.801   1.318   2.564
 4590TIP3    H213714   6.943   1.371   2.573
 4591TIP3   OH213715   5.014   0.782   1.941
 4591TIP3    H113716   4.986   0.852   1.883
 4591TIP3    H213717   4.962   0.794   2.021
 4592TIP3   OH213718   0.442   1.069   2.535
 4592TIP3    H113719   0.351   1.061   2.508
 4592TIP3    H213720   0.478   0.981   2.526
 4593TIP3   OH213721   6.400   3.460   5.520
 4593TIP3    H113722   6.308   3.451   5.544
 4593TIP3    H213723   6.430   3.370   5.507
 4594TIP3   OH213724   1.947   1.357   4.363
 4594TIP3    H113725   1.880   1.361   4.295
 4594TIP3    H213726   2.024   1.322   4.319
 4595TIP3   OH213727   0.965   2.290   0.474
 4595TIP3    H113728   0.911   2.211   0.474
 4595TIP3    H213729   1.055   2.259   0.487
 4596TIP3   OH213730   6.336   6.885   2.795
 4596TIP3    H113731   6.265   6.884   2.859
 4596TIP3    H213732   6.375   6.973   2.804
 4597TIP3   OH213733   1.055   1.803   6.446
 4597TIP3    H113734   1.067   1.896   6.466
 4597TIP3    H213735   0.976   1.800   6.392
 4598TIP3   OH213736   4.488   7.168   1.273
 4598TIP3    H113737   4.529   7.085   1.300
 4598TIP3    H213738   4.559   7.220   1.236
 4599TIP3   OH213739   6.954   7.259   2.311
 4599TIP3    H113740   7.039   7.232   2.276
 4599TIP3    H213741   6.951   7.220   2.398
 4600TIP3   OH213742   4.082   1.837   3.296
 4600TIP3    H113743   4.013   1.877   3.350
 4600TIP3    H213744   4.093   1.749   3.333
 4601TIP3   OH213745   7.792   0.821   2.294
 4601TIP3    H113746   7.768   0.813   2.201
 4601TIP3    H213747   7.723   0.877   2.331
 4602TIP3   OH213748   3.726   1.163   2.671
 4602TIP3    H113749   3.804   1.219   2.666
 4602TIP3    H213750   3.757   1.076   2.647
 4603TIP3   OH213751   7.344   5.219   1.377
 4603TIP3    H113752   7.357   5.125   1.373
 4603TIP3    H213753   7.289   5.233   1.454
 4604TIP3   OH213754   2.486   1.036   6.406
 4604TIP3    H113755   2.573   0.997   6.401
 4604TIP3    H213756   2.499   1.120   6.450
 4605TIP3   OH213757   1.222   5.322   5.218
 4605TIP3    H113758   1.289   5.362   5.162
 4605TIP3    H213759   1.218   5.231   5.190
 4606TIP3   OH213760   4.504   4.551   4.304
 4606TIP3    H113761   4.537   4.524   4.390
 4606TIP3    H213762   4.433   4.612   4.324
 4607TIP3   OH213763   0.364   0.263   5.438
 4607TIP3    H113764   0.381   0.169   5.434
 4607TIP3    H213765   0.414   0.299   5.364
 4608TIP3   OH213766   4.343   4.161   3.985
 4608TIP3    H113767   4.363   4.254   3.996
 4608TIP3    H213768   4.249   4.159   3.967
 4609TIP3   OH213769   1.920   6.248   4.824
 4609TIP3    H113770   1.938   6.155   4.814
 4609TIP3    H213771   1.861   6.254   4.899
 4610TIP3   OH213772   6.840   6.687   1.262
 4610TIP3    H113773   6.844   6.682   1.358
 4610TIP3    H213774   6.761   6.639   1.239
 4611TIP3   OH213775   1.672   6.544   4.254
 4611TIP3    H113776   1.718   6.591   4.324
 4611TIP3    H213777   1.690   6.451   4.273
 4612TIP3   OH213778   3.561   2.863   0.126
 4612TIP3    H113779   3.466   2.863   0.115
 4612TIP3    H213780   3.594   2.850   0.037
 4613TIP3   OH213781   1.839   0.039   4.522
 4613TIP3    H113782   1.885   0.091   4.457
 4613TIP3    H213783   1.901   0.031   4.594
 4614TIP3   OH213784   5.074   5.470   2.918
 4614TIP3    H113785   5.160   5.506   2.938
 4614TIP3    H213786   5.073   5.458   2.823
 4615TIP3   OH213787   2.576   7.636   5.725
 4615TIP3    H113788   2.534   7.696   5.787
 4615TIP3    H213789   2.517   7.561   5.720
 4616TIP3   OH213790   8.086   3.689   4.931
 4616TIP3    H113791   8.028   3.729   4.866
 4616TIP3    H213792   8.131   3.764   4.970
 4617TIP3   OH213793   1.910   1.581   6.136
 4617TIP3    H113794   1.831   1.593   6.189
 4617TIP3    H213795   1.897   1.496   6.093
 4618TIP3   OH213796   1.461   1.941   3.235
 4618TIP3    H113797   1.524   1.987   3.291
 4618TIP3    H213798   1.462   1.851   3.268
 4619TIP3   OH213799   7.194   7.371   0.375
 4619TIP3    H113800   7.236   7.363   0.461
 4619TIP3    H213801   7.102   7.384   0.394
 4620TIP3   OH213802   5.976   7.495   2.148
 4620TIP3    H113803   5.949   7.418   2.197
 4620TIP3    H213804   6.065   7.475   2.118
 4621TIP3   OH213805   4.219   4.737   4.677
 4621TIP3    H113806   4.280   4.800   4.640
 4621TIP3    H213807   4.274   4.675   4.726
 4622TIP3   OH213808   1.171   3.914   0.934
 4622TIP3    H113809   1.095   3.905   0.878
 4622TIP3    H213810   1.176   4.007   0.955
 4623TIP3   OH213811   2.887   3.217   5.555
 4623TIP3    H113812   2.891   3.123   5.537
 4623TIP3    H213813   2.795   3.240   5.537
 4624TIP3   OH213814   4.926   5.801   3.349
 4624TIP3    H113815   4.931   5.713   3.386
 4624TIP3    H213816   4.989   5.800   3.278
 4625TIP3   OH213817   2.377   5.099   2.815
 4625TIP3    H113818   2.289   5.136   2.815
 4625TIP3    H213819   2.383   5.050   2.733
 4626TIP3   OH213820   6.462   5.943   5.386
 4626TIP3    H113821   6.491   5.866   5.434
 4626TIP3    H213822   6.378   5.966   5.427
 4627TIP3   OH213823   4.192   6.561   0.603
 4627TIP3    H113824   4.263   6.620   0.578
 4627TIP3    H213825   4.171   6.515   0.521
 4628TIP3   OH213826   8.042   0.612   3.647
 4628TIP3    H113827   7.971   0.592   3.586
 4628TIP3    H213828   8.077   0.527   3.672
 4629TIP3   OH213829   0.195   7.736   2.668
 4629TIP3    H113830   0.241   7.720   2.585
 4629TIP3    H213831   0.147   7.655   2.684
 4630TIP3   OH213832   5.143   2.580   4.573
 4630TIP3    H113833   5.103   2.643   4.513
 4630TIP3    H213834   5.236   2.581   4.549
 4631TIP3   OH213835   0.636   7.775   1.478
 4631TIP3    H113836   0.674   7.688   1.471
 4631TIP3    H213837   0.701   7.833   1.440
 4632TIP3   OH213838   0.933   7.380   2.942
 4632TIP3    H113839   0.897   7.451   2.996
 4632TIP3    H213840   0.998   7.338   2.998
 4633TIP3   OH213841   6.692   6.197   5.917
 4633TIP3    H113842   6.694   6.146   5.998
 4633TIP3    H213843   6.769   6.254   5.922
 4634TIP3   OH213844   5.744   6.446   0.569
 4634TIP3    H113845   5.662   6.455   0.617
 4634TIP3    H213846   5.778   6.361   0.595
 4635TIP3   OH213847   6.119   5.894   4.313
 4635TIP3    H113848   6.185   5.869   4.378
 4635TIP3    H213849   6.147   5.850   4.233
 4636TIP3   OH213850   7.306   6.694   5.312
 4636TIP3    H113851   7.266   6.704   5.226
 4636TIP3    H213852   7.344   6.779   5.332
 4637TIP3   OH213853   5.987   0.033   1.502
 4637TIP3    H113854   6.071   0.028   1.456
 4637TIP3    H213855   5.927   0.070   1.437
 4638TIP3   OH213856   6.998   2.397   0.220
 4638TIP3    H113857   6.972   2.390   0.312
 4638TIP3    H213858   7.080   2.349   0.215
 4639TIP3   OH213859   5.536   5.260   2.240
 4639TIP3    H113860   5.535   5.212   2.323
 4639TIP3    H213861   5.591   5.208   2.182
 4640TIP3   OH213862   6.834   5.671   6.289
 4640TIP3    H113863   6.923   5.645   6.263
 4640TIP3    H213864   6.799   5.716   6.212
 4641TIP3   OH213865   0.345   6.842   1.365
 4641TIP3    H113866   0.428   6.849   1.412
 4641TIP3    H213867   0.340   6.922   1.313
 4642TIP3   OH213868   0.644   1.579   0.769
 4642TIP3    H113869   0.647   1.572   0.674
 4642TIP3    H213870   0.637   1.673   0.786
 4643TIP3   OH213871   5.609   1.290   2.737
 4643TIP3    H113872   5.579   1.210   2.781
 4643TIP3    H213873   5.545   1.357   2.763
 4644TIP3   OH213874   5.908   4.911   0.919
 4644TIP3    H113875   5.913   4.816   0.933
 4644TIP3    H213876   5.999   4.940   0.922
 4645TIP3   OH213877   5.653   0.326   2.045
 4645TIP3    H113878   5.659   0.412   2.004
 4645TIP3    H213879   5.719   0.328   2.114
 4646TIP3   OH213880   7.899   5.918   3.983
 4646TIP3    H113881   7.893   5.950   4.073
 4646TIP3    H213882   7.991   5.934   3.958
 4647TIP3   OH213883   5.560   4.203   6.374
 4647TIP3    H113884   5.580   4.268   6.441
 4647TIP3    H213885   5.477   4.164   6.402
 4648TIP3   OH213886   3.643   6.190   0.837
 4648TIP3    H113887   3.638   6.147   0.752
 4648TIP3    H213888   3.552   6.210   0.859
 4649TIP3   OH213889   6.203   0.551   4.904
 4649TIP3    H113890   6.227   0.562   4.812
 4649TIP3    H213891   6.237   0.629   4.947
 4650TIP3   OH213892   6.911   6.684   1.535
 4650TIP3    H113893   6.914   6.716   1.625
 4650TIP3    H213894   6.951   6.597   1.539
 4651TIP3   OH213895   5.020   4.444   5.535
 4651TIP3    H113896   4.991   4.501   5.606
 4651TIP3    H213897   5.097   4.487   5.499
 4652TIP3   OH213898   6.920   1.197   6.569
 4652TIP3    H113899   6.871   1.118   6.548
 4652TIP3    H213900   7.011   1.167   6.575
 4653TIP3   OH213901   1.663   0.027   2.347
 4653TIP3    H113902   1.748   0.003   2.385
 4653TIP3    H213903   1.605   0.037   2.423
 4654TIP3   OH213904   4.350   3.523   0.120
 4654TIP3    H113905   4.438   3.485   0.125
 4654TIP3    H213906   4.355   3.583   0.045
 4655TIP3   OH213907   0.145   0.343   3.955
 4655TIP3    H113908   0.092   0.382   3.885
 4655TIP3    H213909   0.091   0.352   4.033
 4656TIP3   OH213910   2.336   3.623   4.359
 4656TIP3    H113911   2.267   3.632   4.425
 4656TIP3    H213912   2.353   3.713   4.329
 4657TIP3   OH213913   0.894   2.646   3.404
 4657TIP3    H113914   0.848   2.663   3.486
 4657TIP3    H213915   0.965   2.710   3.402
 4658TIP3   OH213916   5.446   5.644   2.792
 4658TIP3    H113917   5.369   5.698   2.809
 4658TIP3    H213918   5.499   5.652   2.872
 4659TIP3   OH213919   1.442   6.663   5.409
 4659TIP3    H113920   1.379   6.734   5.398
 4659TIP3    H213921   1.426   6.604   5.336
 4660TIP3   OH213922   1.413   4.288   2.282
 4660TIP3    H113923   1.439   4.196   2.274
 4660TIP3    H213924   1.494   4.337   2.271
 4661TIP3   OH213925   3.363   3.261   3.726
 4661TIP3    H113926   3.393   3.172   3.705
 4661TIP3    H213927   3.282   3.249   3.774
 4662TIP3   OH213928   2.978   3.714   0.171
 4662TIP3    H113929   2.959   3.638   0.115
 4662TIP3    H213930   2.991   3.786   0.109
 4663TIP3   OH213931   4.245   0.431   5.403
 4663TIP3    H113932   4.266   0.345   5.438
 4663TIP3    H213933   4.164   0.419   5.354
 4664TIP3   OH213934   4.238   2.087   1.474
 4664TIP3    H113935   4.176   2.139   1.525
 4664TIP3    H213936   4.296   2.049   1.539
 4665TIP3   OH213937   0.246   3.849   0.514
 4665TIP3    H113938   0.223   3.918   0.576
 4665TIP3    H213939   0.341   3.844   0.518
 4666TIP3   OH213940   1.543   6.650   1.261
 4666TIP3    H113941   1.486   6.724   1.240
 4666TIP3    H213942   1.617   6.688   1.308
 4667TIP3   OH213943   0.411   5.954   4.614
 4667TIP3    H113944   0.369   5.869   4.624
 4667TIP3    H213945   0.363   5.997   4.543
 4668TIP3   OH213946   4.473   5.851   0.753
 4668TIP3    H113947   4.434   5.787   0.693
 4668TIP3    H213948   4.498   5.924   0.696
 4669TIP3   OH213949   0.295   1.785   0.423
 4669TIP3    H113950   0.265   1.821   0.339
 4669TIP3    H213951   0.254   1.841   0.489
 4670TIP3   OH213952   6.460   4.157   5.958
 4670TIP3    H113953   6.395   4.226   5.971
 4670TIP3    H213954   6.434   4.117   5.874
 4671TIP3   OH213955   2.815   1.301   5.879
 4671TIP3    H113956   2.760   1.375   5.852
 4671TIP3    H213957   2.759   1.248   5.935
 4672TIP3   OH213958   3.339   6.933   2.846
 4672TIP3    H113959   3.307   7.022   2.835
 4672TIP3    H213960   3.312   6.909   2.934
 4673TIP3   OH213961   2.989   2.700   5.920
 4673TIP3    H113962   3.018   2.727   5.833
 4673TIP3    H213963   2.963   2.609   5.909
 4674TIP3   OH213964   4.594   1.279   0.870
 4674TIP3    H113965   4.587   1.187   0.844
 4674TIP3    H213966   4.669   1.313   0.822
 4675TIP3   OH213967   2.122   6.231   0.081
 4675TIP3    H113968   2.080   6.154   0.042
 4675TIP3    H213969   2.061   6.302   0.065
 4676TIP3   OH213970   7.860   0.438   5.627
 4676TIP3    H113971   7.817   0.362   5.587
 4676TIP3    H213972   7.810   0.454   5.708
 4677TIP3   OH213973   7.944   3.365   3.707
 4677TIP3    H113974   7.862   3.378   3.659
 4677TIP3    H213975   7.983   3.287   3.669
 4678TIP3   OH213976   1.396   3.676   4.780
 4678TIP3    H113977   1.492   3.683   4.782
 4678TIP3    H213978   1.374   3.641   4.866
 4679TIP3   OH213979   4.772   1.369   0.678
 4679TIP3    H113980   4.824   1.327   0.609
 4679TIP3    H213981   4.833   1.429   0.721
 4680TIP3   OH213982   7.575   0.407   1.806
 4680TIP3    H113983   7.553   0.476   1.869
 4680TIP3    H213984   7.653   0.364   1.843
 4681TIP3   OH213985   6.013   5.045   4.491
 4681TIP3    H113986   6.030   4.959   4.531
 4681TIP3    H213987   6.087   5.099   4.518
 4682TIP3   OH213988   6.610   6.641   0.352
 4682TIP3    H113989   6.619   6.736   0.354
 4682TIP3    H213990   6.700   6.609   0.341
 4683TIP3   OH213991   1.812   3.316   3.313
 4683TIP3    H113992   1.790   3.272   3.395
 4683TIP3    H213993   1.729   3.353   3.283
 4684TIP3   OH213994   3.097   5.517   4.797
 4684TIP3    H113995   3.049   5.533   4.878
 4684TIP3    H213996   3.188   5.506   4.825
 4685TIP3   OH213997   3.481   3.093   0.205
 4685TIP3    H113998   3.542   3.019   0.200
 4685TIP3    H213999   3.397   3.057   0.174
 4686TIP3   OH214000   6.547   2.053   5.559
 4686TIP3    H114001   6.538   2.143   5.527
 4686TIP3    H214002   6.546   1.999   5.480
 4687TIP3   OH214003   7.040   1.439   0.015
 4687TIP3    H114004   7.039   1.345   0.036
 4687TIP3    H214005   6.983   1.447  -0.061
 4688TIP3   OH214006   0.294   3.041   0.925
 4688TIP3    H114007   0.378   3.021   0.966
 4688TIP3    H214008   0.287   2.980   0.851
 4689TIP3   OH214009   3.418   1.060   0.979
 4689TIP3    H114010   3.331   1.096   0.964
 4689TIP3    H214011   3.403   0.967   0.998
 4690TIP3   OH214012   7.146   5.436   1.794
 4690TIP3    H114013   7.092   5.508   1.826
 4690TIP3    H214014   7.147   5.373   1.866
 4691TIP3   OH214015   6.075   1.146   0.917
 4691TIP3    H114016   6.007   1.081   0.934
 4691TIP3    H214017   6.154   1.110   0.956
 4692TIP3   OH214018   2.186   3.095   5.110
 4692TIP3    H114019   2.171   3.175   5.060
 4692TIP3    H214020   2.281   3.092   5.122
 4693TIP3   OH214021   2.489   2.839   6.627
 4693TIP3    H114022   2.530   2.875   6.548
 4693TIP3    H214023   2.459   2.751   6.601
 4694TIP3   OH214024   7.157   6.170   1.747
 4694TIP3    H114025   7.242   6.139   1.778
 4694TIP3    H214026   7.174   6.200   1.657
 4695TIP3   OH214027   3.676   2.466   6.753
 4695TIP3    H114028   3.767   2.436   6.749
 4695TIP3    H214029   3.662   2.513   6.671
 4696TIP3   OH214030   5.307   4.330   0.573
 4696TIP3    H114031   5.301   4.267   0.646
 4696TIP3    H214032   5.401   4.339   0.557
 4697TIP3   OH214033   7.307   5.166   3.665
 4697TIP3    H114034   7.244   5.148   3.736
 4697TIP3    H214035   7.389   5.128   3.695
 4698TIP3   OH214036   7.480   4.973   2.976
 4698TIP3    H114037   7.427   4.980   2.898
 4698TIP3    H214038   7.431   5.020   3.043
 4699TIP3   OH214039   1.188   3.586   5.357
 4699TIP3    H114040   1.196   3.495   5.385
 4699TIP3    H214041   1.095   3.607   5.370
 4700TIP3   OH214042   3.891   0.233   6.547
 4700TIP3    H114043   3.984   0.209   6.557
 4700TIP3    H214044   3.893   0.321   6.511
 4701TIP3   OH214045   3.145   0.816   1.773
 4701TIP3    H114046   3.167   0.907   1.792
 4701TIP3    H214047   3.088   0.821   1.696
 4702TIP3   OH214048   1.067   1.597   2.975
 4702TIP3    H114049   0.993   1.584   3.035
 4702TIP3    H214050   1.112   1.675   3.009
 4703TIP3   OH214051   1.137   0.480   3.472
 4703TIP3    H114052   1.138   0.498   3.566
 4703TIP3    H214053   1.217   0.430   3.456
 4704TIP3   OH214054   0.956   5.267   1.342
 4704TIP3    H114055   0.993   5.250   1.428
 4704TIP3    H214056   1.025   5.240   1.281
 4705TIP3   OH214057   7.288   2.445   3.662
 4705TIP3    H114058   7.286   2.509   3.733
 4705TIP3    H214059   7.200   2.408   3.660
 4706TIP3   OH214060   0.726   2.280   0.872
 4706TIP3    H114061   0.755   2.326   0.793
 4706TIP3    H214062   0.711   2.349   0.936
 4707TIP3   OH214063   0.527   5.913   0.720
 4707TIP3    H114064   0.486   5.860   0.788
 4707TIP3    H214065   0.544   5.997   0.763
 4708TIP3   OH214066   7.266   0.846   0.775
 4708TIP3    H114067   7.287   0.885   0.859
 4708TIP3    H214068   7.243   0.755   0.795
 4709TIP3   OH214069   3.536   7.075   1.979
 4709TIP3    H114070   3.474   7.006   1.954
 4709TIP3    H214071   3.530   7.080   2.074
 4710TIP3   OH214072   3.717   6.541   4.849
 4710TIP3    H114073   3.654   6.595   4.802
 4710TIP3    H214074   3.763   6.602   4.906
 4711TIP3   OH214075   3.616   0.305   0.756
 4711TIP3    H114076   3.583   0.294   0.667
 4711TIP3    H214077   3.563   0.374   0.794
 4712TIP3   OH214078   4.380   7.525   2.281
 4712TIP3    H114079   4.371   7.610   2.239
 4712TIP3    H214080   4.451   7.537   2.345
 4713TIP3   OH214081   0.137   4.796   5.495
 4713TIP3    H114082   0.123   4.849   5.416
 4713TIP3    H214083   0.204   4.844   5.545
 4714TIP3   OH214084   2.986   7.410   6.238
 4714TIP3    H114085   3.024   7.403   6.151
 4714TIP3    H214086   2.966   7.319   6.262
 4715TIP3   OH214087   3.921   6.752   4.375
 4715TIP3    H114088   3.935   6.692   4.449
 4715TIP3    H214089   3.991   6.817   4.383
 4716TIP3   OH214090   2.440   1.499   0.261
 4716TIP3    H114091   2.532   1.494   0.289
 4716TIP3    H214092   2.391   1.508   0.342
 4717TIP3   OH214093   1.413   0.802   3.325
 4717TIP3    H114094   1.353   0.831   3.393
 4717TIP3    H214095   1.439   0.882   3.280
 4718TIP3   OH214096   0.153   2.826   2.541
 4718TIP3    H114097   0.180   2.753   2.486
 4718TIP3    H214098   0.102   2.882   2.484
 4719TIP3   OH214099   4.584   0.794   6.187
 4719TIP3    H114100   4.559   0.830   6.102
 4719TIP3    H214101   4.570   0.700   6.178
 4720TIP3   OH214102   2.648   2.141   6.256
 4720TIP3    H114103   2.562   2.169   6.287
 4720TIP3    H214104   2.681   2.085   6.326
 4721TIP3   OH214105   3.812   1.224   6.436
 4721TIP3    H114106   3.831   1.297   6.495
 4721TIP3    H214107   3.814   1.262   6.349
 4722TIP3   OH214108   1.883   7.013   3.014
 4722TIP3    H114109   1.954   7.073   3.037
 4722TIP3    H214110   1.911   6.928   3.049
 4723TIP3   OH214111   4.521   1.525   3.870
 4723TIP3    H114112   4.437   1.506   3.912
 4723TIP3    H214113   4.549   1.441   3.833
 4724TIP3   OH214114   2.891   4.743   3.099
 4724TIP3    H114115   2.979   4.706   3.095
 4724TIP3    H214116   2.900   4.830   3.059
 4725TIP3   OH214117   6.584   7.651   1.963
 4725TIP3    H114118   6.670   7.617   1.940
 4725TIP3    H214119   6.523   7.582   1.937
 4726TIP3   OH214120   5.575   0.694   2.477
 4726TIP3    H114121   5.622   0.614   2.501
 4726TIP3    H214122   5.521   0.670   2.402
 4727TIP3   OH214123   7.685   2.732   2.008
 4727TIP3    H114124   7.634   2.809   2.031
 4727TIP3    H214125   7.636   2.659   2.047
 4728TIP3   OH214126   3.322   3.758   3.159
 4728TIP3    H114127   3.251   3.755   3.094
 4728TIP3    H214128   3.401   3.769   3.106
 4729TIP3   OH214129   1.466   4.708   4.498
 4729TIP3    H114130   1.404   4.636   4.505
 4729TIP3    H214131   1.512   4.692   4.416
 4730TIP3   OH214132   7.344   1.770   3.259
 4730TIP3    H114133   7.308   1.856   3.239
 4730TIP3    H214134   7.433   1.787   3.288
 4731TIP3   OH214135   0.388   0.282   2.623
 4731TIP3    H114136   0.334   0.344   2.673
 4731TIP3    H214137   0.361   0.296   2.532
 4732TIP3   OH214138   5.890   4.365   4.105
 4732TIP3    H114139   5.852   4.436   4.054
 4732TIP3    H214140   5.860   4.381   4.195
 4733TIP3   OH214141   0.866   5.374   0.238
 4733TIP3    H114142   0.815   5.453   0.218
 4733TIP3    H214143   0.897   5.344   0.152
 4734TIP3   OH214144   5.992   4.208   3.641
 4734TIP3    H114145   5.939   4.192   3.563
 4734TIP3    H214146   6.071   4.252   3.608
 4735TIP3   OH214147   7.711   7.043   0.310
 4735TIP3    H114148   7.777   6.973   0.311
 4735TIP3    H214149   7.640   7.008   0.257
 4736TIP3   OH214150   5.448   3.301   6.052
 4736TIP3    H114151   5.540   3.327   6.043
 4736TIP3    H214152   5.399   3.368   6.005
 4737TIP3   OH214153   7.613   6.147   5.603
 4737TIP3    H114154   7.550   6.216   5.581
 4737TIP3    H214155   7.693   6.174   5.558
 4738TIP3   OH214156   3.670   7.374   5.005
 4738TIP3    H114157   3.740   7.434   5.030
 4738TIP3    H214158   3.593   7.404   5.052
 4739TIP3   OH214159   3.992   6.760   3.543
 4739TIP3    H114160   4.010   6.843   3.500
 4739TIP3    H214161   4.022   6.773   3.633
 4740TIP3   OH214162   5.488   2.942   6.437
 4740TIP3    H114163   5.539   2.980   6.508
 4740TIP3    H214164   5.438   2.871   6.478
 4741TIP3   OH214165   4.529   0.269   2.779
 4741TIP3    H114166   4.471   0.245   2.706
 4741TIP3    H214167   4.617   0.257   2.745
 4742TIP3   OH214168   5.297   6.158   3.466
 4742TIP3    H114169   5.303   6.242   3.421
 4742TIP3    H214170   5.203   6.143   3.475
 4743TIP3   OH214171   0.272   4.884   6.167
 4743TIP3    H114172   0.322   4.964   6.153
 4743TIP3    H214173   0.257   4.849   6.079
 4744TIP3   OH214174   0.103   0.407   3.561
 4744TIP3    H114175   0.153   0.423   3.481
 4744TIP3    H214176   0.116   0.314   3.579
 4745TIP3   OH214177   5.142   6.112   6.089
 4745TIP3    H114178   5.185   6.092   6.173
 4745TIP3    H214179   5.101   6.030   6.063
 4746TIP3   OH214180   0.693   6.212   3.512
 4746TIP3    H114181   0.723   6.266   3.439
 4746TIP3    H214182   0.773   6.189   3.559
 4747TIP3   OH214183   5.417   0.907   4.477
 4747TIP3    H114184   5.508   0.878   4.478
 4747TIP3    H214185   5.368   0.830   4.507
 4748TIP3   OH214186   3.261   4.383   2.227
 4748TIP3    H114187   3.322   4.311   2.215
 4748TIP3    H214188   3.313   4.462   2.212
 4749TIP3   OH214189   3.685   4.675   6.774
 4749TIP3    H114190   3.683   4.598   6.717
 4749TIP3    H214191   3.634   4.649   6.851
 4750TIP3   OH214192   6.965   4.947   2.017
 4750TIP3    H114193   6.976   4.892   1.938
 4750TIP3    H214194   6.952   5.035   1.983
 4751TIP3   OH214195   7.405   4.414   6.433
 4751TIP3    H114196   7.389   4.494   6.482
 4751TIP3    H214197   7.494   4.425   6.398
 4752TIP3   OH214198   0.907   4.698   0.102
 4752TIP3    H114199   0.969   4.655   0.161
 4752TIP3    H214200   0.867   4.767   0.155
 4753TIP3   OH214201   2.073   4.105   3.371
 4753TIP3    H114202   2.046   4.142   3.455
 4753TIP3    H214203   2.009   4.036   3.354
 4754TIP3   OH214204   7.229   2.639   3.866
 4754TIP3    H114205   7.183   2.624   3.949
 4754TIP3    H214206   7.159   2.641   3.800
 4755TIP3   OH214207   1.104   0.678   1.622
 4755TIP3    H114208   1.053   0.738   1.676
 4755TIP3    H214209   1.184   0.726   1.601
 4756TIP3   OH214210   5.121   0.330   6.474
 4756TIP3    H114211   5.132   0.395   6.404
 4756TIP3    H214212   5.089   0.381   6.548
 4757TIP3   OH214213   0.306   5.678   4.445
 4757TIP3    H114214   0.362   5.687   4.522
 4757TIP3    H214215   0.366   5.650   4.376
 4758TIP3   OH214216   2.986   3.313   5.213
 4758TIP3    H114217   2.994   3.388   5.272
 4758TIP3    H214218   3.057   3.324   5.150
 4759TIP3   OH214219   5.060   4.412   1.769
 4759TIP3    H114220   4.984   4.464   1.742
 4759TIP3    H214221   5.131   4.441   1.712
 4760TIP3   OH214222   6.106   7.724   4.554
 4760TIP3    H114223   6.180   7.722   4.614
 4760TIP3    H214224   6.052   7.650   4.582
 4761TIP3   OH214225   3.403   0.244   2.312
 4761TIP3    H114226   3.373   0.288   2.232
 4761TIP3    H214227   3.421   0.315   2.373
 4762TIP3   OH214228   0.692   1.191   4.087
 4762TIP3    H114229   0.610   1.160   4.125
 4762TIP3    H214230   0.735   1.239   4.157
 4763TIP3   OH214231   5.160   6.534   3.630
 4763TIP3    H114232   5.252   6.543   3.607
 4763TIP3    H214233   5.156   6.457   3.687
 4764TIP3   OH214234   2.712   6.817   4.570
 4764TIP3    H114235   2.727   6.731   4.530
 4764TIP3    H214236   2.638   6.803   4.630
 4765TIP3   OH214237   7.576   6.120   2.838
 4765TIP3    H114238   7.666   6.137   2.864
 4765TIP3    H214239   7.584   6.068   2.757
 4766TIP3   OH214240   6.433   7.222   4.478
 4766TIP3    H114241   6.352   7.171   4.488
 4766TIP3    H214242   6.435   7.277   4.556
 4767TIP3   OH214243   6.440   6.665   4.981
 4767TIP3    H114244   6.484   6.596   4.932
 4767TIP3    H214245   6.431   6.737   4.917
 4768TIP3   OH214246   7.950   7.385   0.112
 4768TIP3    H114247   7.957   7.403   0.206
 4768TIP3    H214248   7.874   7.327   0.105
 4769TIP3   OH214249   6.711   3.913   5.860
 4769TIP3    H114250   6.653   3.936   5.787
 4769TIP3    H214251   6.797   3.904   5.819
 4770TIP3   OH214252   6.947   1.604   4.860
 4770TIP3    H114253   6.929   1.663   4.933
 4770TIP3    H214254   7.019   1.549   4.891
 4771TIP3   OH214255   7.866   1.495   6.433
 4771TIP3    H114256   7.837   1.582   6.407
 4771TIP3    H214257   7.958   1.507   6.457
 4772TIP3   OH214258   2.878   1.338   4.460
 4772TIP3    H114259   2.906   1.401   4.394
 4772TIP3    H214260   2.882   1.386   4.543
 4773TIP3   OH214261   2.373   0.911   2.884
 4773TIP3    H114262   2.463   0.894   2.913
 4773TIP3    H214263   2.359   1.004   2.903
 4774TIP3   OH214264   4.887   2.764   4.102
 4774TIP3    H114265   4.903   2.858   4.100
 4774TIP3    H214266   4.973   2.726   4.119
 4775TIP3   OH214267   2.780   2.569   3.117
 4775TIP3    H114268   2.784   2.523   3.200
 4775TIP3    H214269   2.690   2.556   3.086
 4776TIP3   OH214270   0.363   0.976   0.609
 4776TIP3    H114271   0.381   1.070   0.611
 4776TIP3    H214272   0.293   0.967   0.544
 4777TIP3   OH214273   5.649   4.493   2.943
 4777TIP3    H114274   5.682   4.549   2.873
 4777TIP3    H214275   5.648   4.405   2.905
 4778TIP3   OH214276   1.791   7.362   1.930
 4778TIP3    H114277   1.809   7.288   1.988
 4778TIP3    H214278   1.696   7.376   1.939
 4779TIP3   OH214279   7.513   1.007   4.494
 4779TIP3    H114280   7.472   0.932   4.536
 4779TIP3    H214281   7.523   1.072   4.563
 4780TIP3   OH214282   7.745   1.739   0.553
 4780TIP3    H114283   7.670   1.696   0.512
 4780TIP3    H214284   7.713   1.762   0.641
 4781TIP3   OH214285   6.015   4.185   4.462
 4781TIP3    H114286   6.058   4.128   4.399
 4781TIP3    H214287   6.046   4.155   4.548
 4782TIP3   OH214288   6.775   7.492   3.950
 4782TIP3    H114289   6.846   7.428   3.955
 4782TIP3    H214290   6.762   7.505   3.856
 4783TIP3   OH214291   6.520   5.599   5.759
 4783TIP3    H114292   6.490   5.520   5.714
 4783TIP3    H214293   6.537   5.571   5.848
 4784TIP3   OH214294   7.401   2.873   4.240
 4784TIP3    H114295   7.369   2.921   4.163
 4784TIP3    H214296   7.325   2.823   4.270
 4785TIP3   OH214297   8.152   1.925   0.884
 4785TIP3    H114298   8.065   1.886   0.891
 4785TIP3    H214299   8.148   2.005   0.936
 4786TIP3   OH214300   8.240   3.810   0.495
 4786TIP3    H114301   8.222   3.900   0.523
 4786TIP3    H214302   8.330   3.794   0.523
 4787TIP3   OH214303   2.514   5.448   4.789
 4787TIP3    H114304   2.452   5.517   4.764
 4787TIP3    H214305   2.489   5.372   4.737
 4788TIP3   OH214306   2.861   0.921   2.253
 4788TIP3    H114307   2.893   0.965   2.174
 4788TIP3    H214308   2.941   0.892   2.298
 4789TIP3   OH214309   3.595   4.495   1.134
 4789TIP3    H114310   3.583   4.409   1.175
 4789TIP3    H214311   3.509   4.517   1.100
 4790TIP3   OH214312   5.121   6.940   2.350
 4790TIP3    H114313   5.071   6.911   2.273
 4790TIP3    H214314   5.180   6.868   2.370
 4791TIP3   OH214315   2.221   3.268   4.395
 4791TIP3    H114316   2.168   3.191   4.417
 4791TIP3    H214317   2.262   3.247   4.312
 4792TIP3   OH214318   6.954   0.470   4.838
 4792TIP3    H114319   7.003   0.435   4.912
 4792TIP3    H214320   7.020   0.511   4.783
 4793TIP3   OH214321   7.330   1.694   6.530
 4793TIP3    H114322   7.417   1.697   6.569
 4793TIP3    H214323   7.338   1.742   6.448
 4794TIP3   OH214324   0.080   2.208   2.982
 4794TIP3    H114325   0.066   2.119   3.013
 4794TIP3    H214326   0.164   2.234   3.021
 4795TIP3   OH214327   0.736   0.057   0.405
 4795TIP3    H114328   0.745  -0.037   0.424
 4795TIP3    H214329   0.654   0.082   0.447
 4796TIP3   OH214330   1.120   4.642   3.691
 4796TIP3    H114331   1.073   4.724   3.704
 4796TIP3    H214332   1.161   4.623   3.775
 4797TIP3   OH214333   1.849   1.068   5.608
 4797TIP3    H114334   1.926   1.098   5.656
 4797TIP3    H214335   1.778   1.124   5.639
 4798TIP3   OH214336   4.292   3.663   0.370
 4798TIP3    H114337   4.346   3.742   0.359
 4798TIP3    H214338   4.285   3.626   0.282
 4799TIP3   OH214339   2.268   3.708   1.189
 4799TIP3    H114340   2.210   3.634   1.167
 4799TIP3    H214341   2.348   3.666   1.220
 4800TIP3   OH214342   6.906   3.422   4.067
 4800TIP3    H114343   6.901   3.512   4.098
 4800TIP3    H214344   6.972   3.423   3.998
 4801TIP3   OH214345   4.598   6.462   1.023
 4801TIP3    H114346   4.659   6.524   1.061
 4801TIP3    H214347   4.643   6.427   0.947
 4802TIP3   OH214348   7.267   3.287   0.279
 4802TIP3    H114349   7.317   3.270   0.200
 4802TIP3    H214350   7.179   3.309   0.248
 4803TIP3   OH214351   6.308   2.601   1.262
 4803TIP3    H114352   6.339   2.514   1.287
 4803TIP3    H214353   6.213   2.596   1.268
 4804TIP3   OH214354   8.292   5.611   2.907
 4804TIP3    H114355   8.362   5.590   2.845
 4804TIP3    H214356   8.227   5.542   2.894
 4805TIP3   OH214357   2.111   7.497   5.554
 4805TIP3    H114358   2.133   7.589   5.564
 4805TIP3    H214359   2.080   7.471   5.641
 4806TIP3   OH214360   4.259   2.828   1.366
 4806TIP3    H114361   4.332   2.801   1.311
 4806TIP3    H214362   4.285   2.913   1.401
 4807TIP3   OH214363   5.568   3.178   3.339
 4807TIP3    H114364   5.645   3.144   3.385
 4807TIP3    H214365   5.495   3.156   3.397
 4808TIP3   OH214366   1.942   6.833   3.578
 4808TIP3    H114367   1.931   6.755   3.632
 4808TIP3    H214368   1.864   6.837   3.524
 4809TIP3   OH214369   7.217   5.637   4.833
 4809TIP3    H114370   7.169   5.709   4.874
 4809TIP3    H214371   7.258   5.676   4.755
 4810TIP3   OH214372   2.081   5.265   3.663
 4810TIP3    H114373   2.034   5.184   3.685
 4810TIP3    H214374   2.156   5.266   3.722
 4811TIP3   OH214375   1.281   3.069   4.205
 4811TIP3    H114376   1.349   3.013   4.241
 4811TIP3    H214377   1.203   3.050   4.258
 4812TIP3   OH214378   1.564   2.634   4.391
 4812TIP3    H114379   1.527   2.565   4.446
 4812TIP3    H214380   1.600   2.588   4.316
 4813TIP3   OH214381   1.312   6.051   3.320
 4813TIP3    H114382   1.292   6.088   3.234
 4813TIP3    H214383   1.297   6.123   3.381
 4814TIP3   OH214384   6.172   3.192   4.138
 4814TIP3    H114385   6.231   3.126   4.174
 4814TIP3    H214386   6.214   3.276   4.158
 4815TIP3   OH214387   6.559   0.203   3.885
 4815TIP3    H114388   6.601   0.265   3.945
 4815TIP3    H214389   6.501   0.257   3.831
 4816TIP3   OH214390   4.847   3.538   5.836
 4816TIP3    H114391   4.803   3.461   5.798
 4816TIP3    H214392   4.792   3.612   5.810
 4817TIP3   OH214393   2.491   1.988   6.101
 4817TIP3    H114394   2.528   1.917   6.049
 4817TIP3    H214395   2.561   2.010   6.163
 4818TIP3   OH214396   7.278   1.172   2.741
 4818TIP3    H114397   7.254   1.079   2.739
 4818TIP3    H214398   7.307   1.187   2.832
 4819TIP3   OH214399   4.872   1.085   5.107
 4819TIP3    H114400   4.779   1.107   5.104
 4819TIP3    H214401   4.914   1.150   5.050
 4820TIP3   OH214402   2.453   2.338   2.721
 4820TIP3    H114403   2.539   2.314   2.686
 4820TIP3    H214404   2.419   2.402   2.660
 4821TIP3   OH214405   1.829   1.429   1.533
 4821TIP3    H114406   1.866   1.383   1.457
 4821TIP3    H214407   1.820   1.519   1.503
 4822TIP3   OH214408   6.382   7.343   3.195
 4822TIP3    H114409   6.354   7.358   3.105
 4822TIP3    H214410   6.435   7.264   3.191
 4823TIP3   OH214411   2.526   7.751   1.459
 4823TIP3    H114412   2.489   7.664   1.470
 4823TIP3    H214413   2.457   7.801   1.415
 4824TIP3   OH214414   7.684   6.776   6.119
 4824TIP3    H114415   7.694   6.777   6.023
 4824TIP3    H214416   7.673   6.684   6.140
 4825TIP3   OH214417   0.872   1.506   5.740
 4825TIP3    H114418   0.836   1.573   5.682
 4825TIP3    H214419   0.830   1.425   5.712
 4826TIP3   OH214420   6.038   0.709   1.279
 4826TIP3    H114421   5.973   0.775   1.302
 4826TIP3    H214422   6.119   0.740   1.321
 4827TIP3   OH214423   5.576   1.561   4.565
 4827TIP3    H114424   5.544   1.561   4.475
 4827TIP3    H214425   5.497   1.555   4.619
 4828TIP3   OH214426   0.034   3.618   5.182
 4828TIP3    H114427   0.066   3.553   5.244
 4828TIP3    H214428  -0.014   3.681   5.235
 4829TIP3   OH214429   5.917   6.020   0.915
 4829TIP3    H114430   5.987   6.068   0.869
 4829TIP3    H214431   5.873   6.086   0.968
 4830TIP3   OH214432   1.253   3.259   3.983
 4830TIP3    H114433   1.161   3.279   3.966
 4830TIP3    H214434   1.252   3.198   4.056
 4831TIP3   OH214435   5.935   4.168   0.100
 4831TIP3    H114436   5.975   4.081   0.095
 4831TIP3    H214437   5.849   4.157   0.060
 4832TIP3   OH214438   4.712   7.382   5.269
 4832TIP3    H114439   4.663   7.324   5.327
 4832TIP3    H214440   4.664   7.380   5.186
 4833TIP3   OH214441   4.184   0.438   1.655
 4833TIP3    H114442   4.277   0.459   1.648
 4833TIP3    H214443   4.168   0.431   1.749
 4834TIP3   OH214444   6.317   4.260   1.247
 4834TIP3    H114445   6.374   4.192   1.213
 4834TIP3    H214446   6.229   4.235   1.218
 4835TIP3   OH214447   1.768   3.445   5.710
 4835TIP3    H114448   1.799   3.426   5.799
 4835TIP3    H214449   1.760   3.540   5.707
 4836TIP3   OH214450   2.980   3.390   0.080
 4836TIP3    H114451   2.968   3.308   0.128
 4836TIP3    H214452   3.074   3.395   0.064
 4837TIP3   OH214453   0.383   3.502   1.658
 4837TIP3    H114454   0.420   3.565   1.596
 4837TIP3    H214455   0.459   3.466   1.704
 4838TIP3   OH214456   5.075   3.583   5.686
 4838TIP3    H114457   5.001   3.600   5.744
 4838TIP3    H214458   5.104   3.670   5.658
 4839TIP3   OH214459   0.601   0.729   2.902
 4839TIP3    H114460   0.680   0.679   2.880
 4839TIP3    H214461   0.538   0.704   2.834
 4840TIP3   OH214462   4.478   2.560   2.264
 4840TIP3    H114463   4.551   2.499   2.253
 4840TIP3    H214464   4.500   2.634   2.208
 4841TIP3   OH214465   6.594   7.244   5.761
 4841TIP3    H114466   6.595   7.236   5.665
 4841TIP3    H214467   6.596   7.338   5.778
 4842TIP3   OH214468   1.993   1.341   3.217
 4842TIP3    H114469   2.087   1.354   3.204
 4842TIP3    H214470   1.986   1.301   3.304
 4843TIP3   OH214471   3.105   1.118   2.562
 4843TIP3    H114472   3.121   1.029   2.594
 4843TIP3    H214473   3.154   1.175   2.621
 4844TIP3   OH214474   6.047   6.387   2.888
 4844TIP3    H114475   6.134   6.427   2.884
 4844TIP3    H214476   5.989   6.452   2.849
 4845TIP3   OH214477   5.531   3.855   2.432
 4845TIP3    H114478   5.491   3.781   2.387
 4845TIP3    H214479   5.459   3.916   2.447
 4846TIP3   OH214480   3.972   4.323   4.427
 4846TIP3    H114481   4.023   4.382   4.482
 4846TIP3    H214482   3.952   4.249   4.485
 4847TIP3   OH214483   2.980   0.724   5.734
 4847TIP3    H114484   3.066   0.756   5.759
 4847TIP3    H214485   2.920   0.762   5.800
 4848TIP3   OH214486   3.371   7.570   3.796
 4848TIP3    H114487   3.338   7.583   3.707
 4848TIP3    H214488   3.340   7.482   3.820
 4849TIP3   OH214489   2.176   3.232   3.614
 4849TIP3    H114490   2.194   3.182   3.534
 4849TIP3    H214491   2.257   3.280   3.631
 4850TIP3   OH214492   2.656   2.998   1.811
 4850TIP3    H114493   2.741   2.972   1.846
 4850TIP3    H214494   2.658   2.968   1.720
 4851TIP3   OH214495   5.429   5.673   6.802
 4851TIP3    H114496   5.407   5.766   6.808
 4851TIP3    H214497   5.346   5.631   6.779
 4852TIP3   OH214498   5.960   3.684   2.152
 4852TIP3    H114499   5.979   3.764   2.104
 4852TIP3    H214500   5.893   3.709   2.216
 4853TIP3   OH214501   3.070   5.700   0.784
 4853TIP3    H114502   3.021   5.627   0.822
 4853TIP3    H214503   3.131   5.658   0.723
 4854TIP3   OH214504   3.009   7.775   0.772
 4854TIP3    H114505   3.085   7.816   0.730
 4854TIP3    H214506   3.015   7.683   0.748
 4855TIP3   OH214507   7.084   5.632   4.435
 4855TIP3    H114508   7.103   5.539   4.420
 4855TIP3    H214509   6.991   5.641   4.413
 4856TIP3   OH214510   7.968   4.701   4.592
 4856TIP3    H114511   7.954   4.743   4.507
 4856TIP3    H214512   7.928   4.615   4.583
 4857TIP3   OH214513   7.159   1.848   6.682
 4857TIP3    H114514   7.186   1.940   6.674
 4857TIP3    H214515   7.230   1.799   6.641
 4858TIP3   OH214516   0.318   5.347   1.082
 4858TIP3    H114517   0.295   5.296   1.160
 4858TIP3    H214518   0.303   5.438   1.108
 4859TIP3   OH214519   4.260   5.036   0.860
 4859TIP3    H114520   4.237   5.129   0.869
 4859TIP3    H214521   4.203   4.991   0.922
 4860TIP3   OH214522   5.692   2.958   5.962
 4860TIP3    H114523   5.746   2.962   6.041
 4860TIP3    H214524   5.717   2.876   5.919
 4861TIP3   OH214525   8.275   0.508   2.484
 4861TIP3    H114526   8.222   0.468   2.415
 4861TIP3    H214527   8.235   0.476   2.566
 4862TIP3   OH214528   1.401   2.925   3.394
 4862TIP3    H114529   1.409   2.932   3.299
 4862TIP3    H214530   1.489   2.906   3.425
 4863TIP3   OH214531   7.369   0.714   1.233
 4863TIP3    H114532   7.438   0.667   1.281
 4863TIP3    H214533   7.303   0.648   1.215
 4864TIP3   OH214534   7.990   0.858   3.784
 4864TIP3    H114535   7.936   0.869   3.705
 4864TIP3    H214536   8.050   0.786   3.761
 4865TIP3   OH214537   6.085   4.494   5.000
 4865TIP3    H114538   6.172   4.473   5.033
 4865TIP3    H214539   6.031   4.418   5.023
 4866TIP3   OH214540   5.328   1.166   5.127
 4866TIP3    H114541   5.420   1.137   5.125
 4866TIP3    H214542   5.320   1.223   5.051
 4867TIP3   OH214543   0.569   4.938   4.941
 4867TIP3    H114544   0.556   4.920   5.034
 4867TIP3    H214545   0.568   5.034   4.935
 4868TIP3   OH214546   3.271   6.911   3.114
 4868TIP3    H114547   3.205   6.953   3.058
 4868TIP3    H214548   3.273   6.965   3.193
 4869TIP3   OH214549   4.208   6.873   4.087
 4869TIP3    H114550   4.178   6.928   4.014
 4869TIP3    H214551   4.290   6.914   4.115
 4870TIP3   OH214552   6.961   1.586   4.554
 4870TIP3    H114553   7.000   1.622   4.634
 4870TIP3    H214554   6.981   1.651   4.486
 4871TIP3   OH214555   4.812   3.303   2.762
 4871TIP3    H114556   4.907   3.295   2.763
 4871TIP3    H214557   4.786   3.294   2.854
 4872TIP3   OH214558   3.888   2.125   2.957
 4872TIP3    H114559   3.869   2.035   2.984
 4872TIP3    H214560   3.867   2.127   2.864
 4873TIP3   OH214561   3.127   0.900   4.241
 4873TIP3    H114562   3.136   0.947   4.159
 4873TIP3    H214563   3.090   0.964   4.302
 4874TIP3   OH214564   6.986   1.997   1.987
 4874TIP3    H114565   6.931   2.014   2.063
 4874TIP3    H214566   7.042   2.074   1.980
 4875TIP3   OH214567   2.139   7.415   1.368
 4875TIP3    H114568   2.157   7.504   1.399
 4875TIP3    H214569   2.119   7.366   1.447
 4876TIP3   OH214570   4.752   7.639   2.218
 4876TIP3    H114571   4.769   7.606   2.306
 4876TIP3    H214572   4.747   7.560   2.163
 4877TIP3   OH214573   4.948   7.354   5.174
 4877TIP3    H114574   4.865   7.362   5.220
 4877TIP3    H214575   5.005   7.420   5.214
 4878TIP3   OH214576   2.045   6.729   1.150
 4878TIP3    H114577   2.037   6.773   1.235
 4878TIP3    H214578   2.062   6.800   1.088
 4879TIP3   OH214579   5.620   0.296   4.058
 4879TIP3    H114580   5.705   0.320   4.093
 4879TIP3    H214581   5.600   0.211   4.097
 4880TIP3   OH214582   5.401   2.077   0.476
 4880TIP3    H114583   5.360   2.019   0.411
 4880TIP3    H214584   5.493   2.079   0.451
 4881TIP3   OH214585   5.728   1.288   2.242
 4881TIP3    H114586   5.823   1.283   2.231
 4881TIP3    H214587   5.716   1.319   2.332
 4882TIP3   OH214588   1.733   3.480   2.478
 4882TIP3    H114589   1.707   3.561   2.521
 4882TIP3    H214590   1.683   3.412   2.523
 4883TIP3   OH214591   0.199   5.314   2.317
 4883TIP3    H114592   0.218   5.315   2.411
 4883TIP3    H214593   0.106   5.291   2.312
 4884TIP3   OH214594   0.099   6.829   2.029
 4884TIP3    H114595   0.022   6.776   2.008
 4884TIP3    H214596   0.068   6.920   2.021
 4885TIP3   OH214597   1.737   3.701   5.607
 4885TIP3    H114598   1.806   3.699   5.541
 4885TIP3    H214599   1.656   3.689   5.558
 4886TIP3   OH214600   1.886   1.973   0.573
 4886TIP3    H114601   1.870   2.050   0.518
 4886TIP3    H214602   1.814   1.913   0.552
 4887TIP3   OH214603   8.241   3.867   6.561
 4887TIP3    H114604   8.163   3.903   6.520
 4887TIP3    H214605   8.239   3.774   6.539
 4888TIP3   OH214606   2.615   6.853   2.059
 4888TIP3    H114607   2.666   6.826   1.982
 4888TIP3    H214608   2.604   6.772   2.109
 4889TIP3   OH214609   8.000   1.933   2.621
 4889TIP3    H114610   8.023   1.842   2.643
 4889TIP3    H214611   7.958   1.926   2.536
 4890TIP3   OH214612   0.506   1.850   4.848
 4890TIP3    H114613   0.528   1.757   4.852
 4890TIP3    H214614   0.568   1.887   4.785
 4891TIP3   OH214615   5.067   5.150   2.824
 4891TIP3    H114616   5.019   5.120   2.901
 4891TIP3    H214617   5.112   5.229   2.853
 4892TIP3   OH214618   3.785   0.392   4.124
 4892TIP3    H114619   3.819   0.466   4.073
 4892TIP3    H214620   3.707   0.426   4.168
 4893TIP3   OH214621   4.618   5.518   6.761
 4893TIP3    H114622   4.643   5.582   6.695
 4893TIP3    H214623   4.615   5.435   6.715
 4894TIP3   OH214624   1.099   4.264   4.745
 4894TIP3    H114625   1.109   4.317   4.666
 4894TIP3    H214626   1.006   4.242   4.749
 4895TIP3   OH214627   4.706   7.589   4.052
 4895TIP3    H114628   4.685   7.641   3.974
 4895TIP3    H214629   4.740   7.653   4.115
 4896TIP3   OH214630   4.853   6.111   2.259
 4896TIP3    H114631   4.818   6.152   2.180
 4896TIP3    H214632   4.900   6.181   2.303
 4897TIP3   OH214633   0.448   7.668   6.022
 4897TIP3    H114634   0.494   7.676   5.939
 4897TIP3    H214635   0.367   7.622   6.001
 4898TIP3   OH214636   3.620   7.775   2.152
 4898TIP3    H114637   3.567   7.822   2.088
 4898TIP3    H214638   3.562   7.763   2.227
 4899TIP3   OH214639   0.911   1.072   3.952
 4899TIP3    H114640   0.844   1.121   4.000
 4899TIP3    H214641   0.943   1.007   4.015
 4900TIP3   OH214642   0.869   5.219   0.699
 4900TIP3    H114643   0.958   5.229   0.665
 4900TIP3    H214644   0.875   5.146   0.761
 4901TIP3   OH214645   5.767   3.484   5.844
 4901TIP3    H114646   5.749   3.390   5.850
 4901TIP3    H214647   5.761   3.503   5.750
 4902TIP3   OH214648   1.978   5.955   0.398
 4902TIP3    H114649   2.048   6.015   0.373
 4902TIP3    H214650   2.023   5.883   0.442
 4903TIP3   OH214651   2.042   3.921   0.179
 4903TIP3    H114652   2.110   3.898   0.243
 4903TIP3    H214653   2.040   4.017   0.181
 4904TIP3   OH214654   3.571   3.108   3.583
 4904TIP3    H114655   3.622   3.160   3.645
 4904TIP3    H214656   3.630   3.040   3.553
 4905TIP3   OH214657   4.266   4.057   3.500
 4905TIP3    H114658   4.319   4.098   3.568
 4905TIP3    H214659   4.329   4.015   3.442
 4906TIP3   OH214660   4.322   4.947   0.158
 4906TIP3    H114661   4.341   4.857   0.183
 4906TIP3    H214662   4.397   4.997   0.191
 4907TIP3   OH214663   3.614   0.423   2.012
 4907TIP3    H114664   3.584   0.512   1.992
 4907TIP3    H214665   3.571   0.368   1.945
 4908TIP3   OH214666   3.255   1.487   0.359
 4908TIP3    H114667   3.222   1.556   0.302
 4908TIP3    H214668   3.329   1.528   0.405
 4909TIP3   OH214669   2.678   0.796   6.469
 4909TIP3    H114670   2.762   0.768   6.434
 4909TIP3    H214671   2.613   0.768   6.404
 4910TIP3   OH214672   4.683   2.380   3.170
 4910TIP3    H114673   4.617   2.424   3.224
 4910TIP3    H214674   4.724   2.451   3.120
 4911TIP3   OH214675   6.598   6.946   1.037
 4911TIP3    H114676   6.593   6.869   0.981
 4911TIP3    H214677   6.692   6.958   1.053
 4912TIP3   OH214678   3.463   2.398   4.058
 4912TIP3    H114679   3.554   2.393   4.029
 4912TIP3    H214680   3.433   2.484   4.030
 4913TIP3   OH214681   1.822   5.123   0.769
 4913TIP3    H114682   1.885   5.071   0.817
 4913TIP3    H214683   1.753   5.062   0.745
 4914TIP3   OH214684   4.341   2.391   1.002
 4914TIP3    H114685   4.395   2.469   0.989
 4914TIP3    H214686   4.403   2.318   0.995
 4915TIP3   OH214687   7.340   6.024   2.292
 4915TIP3    H114688   7.308   6.112   2.310
 4915TIP3    H214689   7.290   5.967   2.350
 4916TIP3   OH214690   2.041   3.087   4.511
 4916TIP3    H114691   2.014   2.995   4.508
 4916TIP3    H214692   1.959   3.136   4.518
 4917TIP3   OH214693   4.955   4.169   1.685
 4917TIP3    H114694   5.017   4.150   1.614
 4917TIP3    H214695   4.981   4.256   1.716
 4918TIP3   OH214696   4.737   2.120   1.156
 4918TIP3    H114697   4.800   2.118   1.228
 4918TIP3    H214698   4.763   2.195   1.103
 4919TIP3   OH214699   7.952   5.804   0.154
 4919TIP3    H114700   7.872   5.799   0.101
 4919TIP3    H214701   7.923   5.839   0.238
 4920TIP3   OH214702   3.534   1.899   6.166
 4920TIP3    H114703   3.572   1.975   6.210
 4920TIP3    H214704   3.494   1.934   6.087
 4921TIP3   OH214705   4.020   0.155   3.491
 4921TIP3    H114706   4.038   0.068   3.524
 4921TIP3    H214707   4.098   0.206   3.513
 4922TIP3   OH214708   4.229   7.192   3.774
 4922TIP3    H114709   4.242   7.119   3.713
 4922TIP3    H214710   4.195   7.263   3.720
 4923TIP3   OH214711   3.069   0.915   0.713
 4923TIP3    H114712   3.051   0.997   0.667
 4923TIP3    H214713   3.104   0.943   0.798
 4924TIP3   OH214714   2.158   2.337   1.682
 4924TIP3    H114715   2.232   2.278   1.665
 4924TIP3    H214716   2.189   2.393   1.754
 4925TIP3   OH214717   1.226   2.589   4.478
 4925TIP3    H114718   1.214   2.564   4.386
 4925TIP3    H214719   1.303   2.541   4.506
 4926TIP3   OH214720   7.122   7.602   6.677
 4926TIP3    H114721   7.090   7.679   6.724
 4926TIP3    H214722   7.144   7.635   6.590
 4927TIP3   OH214723   5.442   7.413   0.022
 4927TIP3    H114724   5.490   7.472   0.080
 4927TIP3    H214725   5.393   7.472  -0.036
 4928TIP3   OH214726   6.569   5.065   6.515
 4928TIP3    H114727   6.522   5.128   6.571
 4928TIP3    H214728   6.642   5.035   6.570
 4929TIP3   OH214729   1.778   0.765   3.766
 4929TIP3    H114730   1.752   0.748   3.675
 4929TIP3    H214731   1.818   0.852   3.763
 4930TIP3   OH214732   7.265   1.957   5.744
 4930TIP3    H114733   7.173   1.930   5.745
 4930TIP3    H214734   7.308   1.894   5.688
 4931TIP3   OH214735   6.135   3.889   3.147
 4931TIP3    H114736   6.214   3.935   3.175
 4931TIP3    H214737   6.081   3.957   3.107
 4932TIP3   OH214738   1.753   5.029   2.009
 4932TIP3    H114739   1.679   4.983   2.049
 4932TIP3    H214740   1.784   4.970   1.941
 4933TIP3   OH214741   1.457   2.621   3.016
 4933TIP3    H114742   1.482   2.711   2.994
 4933TIP3    H214743   1.524   2.567   2.975
 4934TIP3   OH214744   1.929   0.822   1.018
 4934TIP3    H114745   1.985   0.878   1.072
 4934TIP3    H214746   1.889   0.762   1.081
 4935TIP3   OH214747   0.544   6.853   5.074
 4935TIP3    H114748   0.494   6.932   5.056
 4935TIP3    H214749   0.501   6.813   5.149
 4936TIP3   OH214750   5.766   1.916   0.995
 4936TIP3    H114751   5.779   1.888   0.904
 4936TIP3    H214752   5.724   1.842   1.038
 4937TIP3   OH214753   1.899   1.629   3.071
 4937TIP3    H114754   1.909   1.543   3.111
 4937TIP3    H214755   1.946   1.689   3.129
 4938TIP3   OH214756   6.633   4.043   4.381
 4938TIP3    H114757   6.599   4.004   4.462
 4938TIP3    H214758   6.615   4.136   4.390
 4939TIP3   OH214759   2.154   4.305   3.215
 4939TIP3    H114760   2.183   4.381   3.266
 4939TIP3    H214761   2.124   4.242   3.280
 4940TIP3   OH214762   6.591   1.477   3.896
 4940TIP3    H114763   6.543   1.420   3.955
 4940TIP3    H214764   6.679   1.439   3.892
 4941TIP3   OH214765   3.386   3.830   5.460
 4941TIP3    H114766   3.395   3.916   5.420
 4941TIP3    H214767   3.370   3.848   5.553
 4942TIP3   OH214768   8.217   6.068   0.088
 4942TIP3    H114769   8.253   6.119   0.160
 4942TIP3    H214770   8.202   5.981   0.125
 4943TIP3   OH214771   7.227   5.234   5.130
 4943TIP3    H114772   7.303   5.282   5.099
 4943TIP3    H214773   7.157   5.299   5.133
 4944TIP3   OH214774   7.706   0.891   4.974
 4944TIP3    H114775   7.715   0.957   4.905
 4944TIP3    H214776   7.787   0.841   4.970
 4945TIP3   OH214777   1.288   4.354   0.059
 4945TIP3    H114778   1.245   4.290   0.116
 4945TIP3    H214779   1.377   4.361   0.094
 4946TIP3   OH214780   2.773   5.405   3.341
 4946TIP3    H114781   2.723   5.325   3.354
 4946TIP3    H214782   2.761   5.426   3.248
 4947TIP3   OH214783   0.767   5.182   4.658
 4947TIP3    H114784   0.862   5.178   4.660
 4947TIP3    H214785   0.740   5.101   4.615
 4948TIP3   OH214786   8.265   5.306   4.737
 4948TIP3    H114787   8.314   5.269   4.663
 4948TIP3    H214788   8.276   5.243   4.807
 4949TIP3   OH214789   1.619   7.451   2.682
 4949TIP3    H114790   1.665   7.521   2.728
 4949TIP3    H214791   1.662   7.371   2.712
 4950TIP3   OH214792   0.366   4.514   0.714
 4950TIP3    H114793   0.413   4.453   0.770
 4950TIP3    H214794   0.276   4.483   0.714
 4951TIP3   OH214795   6.769   6.688   6.411
 4951TIP3    H114796   6.864   6.674   6.412
 4951TIP3    H214797   6.733   6.601   6.428
 4952TIP3   OH214798   3.898   0.988   2.204
 4952TIP3    H114799   3.869   1.070   2.166
 4952TIP3    H214800   3.985   1.006   2.237
 4953TIP3   OH214801   6.879   3.043   6.708
 4953TIP3    H114802   6.790   3.033   6.673
 4953TIP3    H214803   6.911   3.124   6.670
 4954TIP3   OH214804   5.412   5.608   4.017
 4954TIP3    H114805   5.366   5.599   3.934
 4954TIP3    H214806   5.505   5.609   3.994
 4955TIP3   OH214807   2.323   1.842   5.176
 4955TIP3    H114808   2.365   1.892   5.247
 4955TIP3    H214809   2.306   1.908   5.109
 4956TIP3   OH214810   0.594   6.456   2.337
 4956TIP3    H114811   0.674   6.483   2.292
 4956TIP3    H214812   0.603   6.490   2.426
 4957TIP3   OH214813   6.749   7.042   0.689
 4957TIP3    H114814   6.669   6.991   0.675
 4957TIP3    H214815   6.794   6.995   0.760
 4958TIP3   OH214816   7.326   4.794   4.778
 4958TIP3    H114817   7.296   4.706   4.756
 4958TIP3    H214818   7.361   4.828   4.696
 4959TIP3   OH214819   5.539   1.746   0.523
 4959TIP3    H114820   5.582   1.788   0.598
 4959TIP3    H214821   5.549   1.808   0.451
 4960TIP3   OH214822   4.896   4.767   1.973
 4960TIP3    H114823   4.938   4.723   2.048
 4960TIP3    H214824   4.966   4.818   1.933
 4961TIP3   OH214825   0.069   2.254   4.593
 4961TIP3    H114826   0.007   2.184   4.575
 4961TIP3    H214827   0.125   2.219   4.662
 4962TIP3   OH214828   6.997   1.565   5.359
 4962TIP3    H114829   6.902   1.577   5.370
 4962TIP3    H214830   7.018   1.490   5.416
 4963TIP3   OH214831   7.930   3.382   6.785
 4963TIP3    H114832   7.908   3.319   6.716
 4963TIP3    H214833   7.855   3.381   6.844
 4964TIP3   OH214834   4.257   6.901   0.131
 4964TIP3    H114835   4.244   6.991   0.101
 4964TIP3    H214836   4.169   6.866   0.140
 4965TIP3   OH214837   2.329   4.013   2.378
 4965TIP3    H114838   2.288   4.076   2.437
 4965TIP3    H214839   2.411   3.988   2.422
 4966TIP3   OH214840   3.859   1.541   6.407
 4966TIP3    H114841   3.826   1.610   6.465
 4966TIP3    H214842   3.870   1.583   6.322
 4967TIP3   OH214843   2.653   4.686   1.494
 4967TIP3    H114844   2.666   4.759   1.555
 4967TIP3    H214845   2.691   4.610   1.539
 4968TIP3   OH214846   7.886   4.431   0.670
 4968TIP3    H114847   7.917   4.504   0.725
 4968TIP3    H214848   7.912   4.352   0.718
 4969TIP3   OH214849   2.723   4.374   0.691
 4969TIP3    H114850   2.764   4.460   0.684
 4969TIP3    H214851   2.693   4.354   0.602
 4970TIP3   OH214852   1.614   0.328   2.547
 4970TIP3    H114853   1.529   0.369   2.531
 4970TIP3    H214854   1.618   0.319   2.642
 4971TIP3   OH214855   3.807   6.700   5.247
 4971TIP3    H114856   3.784   6.748   5.326
 4971TIP3    H214857   3.742   6.630   5.242
 4972TIP3   OH214858   6.395   7.275   1.210
 4972TIP3    H114859   6.309   7.294   1.246
 4972TIP3    H214860   6.456   7.290   1.283
 4973TIP3   OH214861   2.536   2.747   2.344
 4973TIP3    H114862   2.560   2.678   2.282
 4973TIP3    H214863   2.603   2.814   2.333
 4974TIP3   OH214864   0.122   2.369   5.220
 4974TIP3    H114865   0.154   2.404   5.137
 4974TIP3    H214866   0.147   2.277   5.219
 4975TIP3   OH214867   5.601   2.053   6.383
 4975TIP3    H114868   5.610   2.001   6.463
 4975TIP3    H214869   5.507   2.059   6.369
 4976TIP3   OH214870   2.694   1.761   1.930
 4976TIP3    H114871   2.670   1.740   2.020
 4976TIP3    H214872   2.717   1.854   1.933
 4977TIP3   OH214873   3.718   6.926   2.356
 4977TIP3    H114874   3.643   6.957   2.405
 4977TIP3    H214875   3.700   6.833   2.340
 4978TIP3   OH214876   5.915   0.679   4.274
 4978TIP3    H114877   5.945   0.676   4.183
 4978TIP3    H214878   5.822   0.657   4.269
 4979TIP3   OH214879   5.834   3.054   5.654
 4979TIP3    H114880   5.924   3.080   5.634
 4979TIP3    H214881   5.838   2.959   5.663
 4980TIP3   OH214882   0.720   2.216   4.531
 4980TIP3    H114883   0.778   2.221   4.455
 4980TIP3    H214884   0.750   2.139   4.579
 4981TIP3   OH214885   4.981   6.378   0.167
 4981TIP3    H114886   4.920   6.305   0.158
 4981TIP3    H214887   5.000   6.383   0.260
 4982TIP3   OH214888   0.180   2.332   0.258
 4982TIP3    H114889   0.113   2.397   0.279
 4982TIP3    H214890   0.193   2.283   0.339
 4983TIP3   OH214891   0.396   0.254   4.603
 4983TIP3    H114892   0.359   0.175   4.641
 4983TIP3    H214893   0.379   0.323   4.667
 4984TIP3   OH214894   0.322   7.033   1.703
 4984TIP3    H114895   0.394   7.021   1.641
 4984TIP3    H214896   0.275   6.950   1.700
 4985TIP3   OH214897   7.118   2.082   0.321
 4985TIP3    H114898   7.101   2.036   0.238
 4985TIP3    H214899   7.031   2.107   0.353
 4986TIP3   OH214900   4.635   6.760   2.241
 4986TIP3    H114901   4.586   6.787   2.164
 4986TIP3    H214902   4.666   6.671   2.220
 4987TIP3   OH214903   3.085   1.028   3.934
 4987TIP3    H114904   3.072   1.010   3.841
 4987TIP3    H214905   3.178   1.012   3.949
 4988TIP3   OH214906   7.386   6.335   1.455
 4988TIP3    H114907   7.353   6.348   1.366
 4988TIP3    H214908   7.482   6.335   1.445
 4989TIP3   OH214909   7.615   1.769   2.335
 4989TIP3    H114910   7.567   1.724   2.405
 4989TIP3    H214911   7.559   1.759   2.258
 4990TIP3   OH214912   1.408   3.543   3.024
 4990TIP3    H114913   1.486   3.598   3.035
 4990TIP3    H214914   1.348   3.573   3.092
 4991TIP3   OH214915   3.003   5.645   1.303
 4991TIP3    H114916   3.011   5.722   1.247
 4991TIP3    H214917   2.915   5.651   1.340
 4992TIP3   OH214918   6.724   7.433   4.878
 4992TIP3    H114919   6.774   7.383   4.943
 4992TIP3    H214920   6.691   7.509   4.926
 4993TIP3   OH214921   4.298   3.501   6.775
 4993TIP3    H114922   4.276   3.417   6.734
 4993TIP3    H214923   4.393   3.500   6.782
 4994TIP3   OH214924   4.837   0.064   4.746
 4994TIP3    H114925   4.838   0.116   4.666
 4994TIP3    H214926   4.928   0.038   4.759
 4995TIP3   OH214927   6.766   1.408   4.678
 4995TIP3    H114928   6.724   1.415   4.592
 4995TIP3    H214929   6.832   1.477   4.678
 4996TIP3   OH214930   5.602   3.091   2.075
 4996TIP3    H114931   5.630   3.150   2.004
 4996TIP3    H214932   5.556   3.020   2.030
 4997TIP3   OH214933   2.836   2.193   6.072
 4997TIP3    H114934   2.772   2.144   6.123
 4997TIP3    H214935   2.839   2.148   5.988
 4998TIP3   OH214936   6.395   0.180   6.471
 4998TIP3    H114937   6.374   0.092   6.439
 4998TIP3    H214938   6.472   0.205   6.420
 4999TIP3   OH214939   7.473   4.027   1.882
 4999TIP3    H114940   7.394   3.979   1.905
 4999TIP3    H214941   7.490   4.082   1.959
 5000TIP3   OH214942   4.938   3.413   2.023
 5000TIP3    H114943   4.935   3.504   2.052
 5000TIP3    H214944   4.890   3.412   1.940
 5001TIP3   OH214945   3.402   3.989   1.382
 5001TIP3    H114946   3.422   3.940   1.462
 5001TIP3    H214947   3.378   3.923   1.318
 5002TIP3   OH214948   1.186   5.228   2.568
 5002TIP3    H114949   1.237   5.217   2.488
 5002TIP3    H214950   1.096   5.241   2.538
 5003TIP3   OH214951   7.968   0.748   6.211
 5003TIP3    H114952   7.936   0.706   6.291
 5003TIP3    H214953   7.930   0.836   6.214
 5004TIP3   OH214954   6.491   1.981   0.845
 5004TIP3    H114955   6.480   2.075   0.831
 5004TIP3    H214956   6.420   1.957   0.904
 5005TIP3   OH214957   4.728   3.847   5.462
 5005TIP3    H114958   4.720   3.756   5.433
 5005TIP3    H214959   4.758   3.841   5.552
 5006TIP3   OH214960   4.493   5.943   6.032
 5006TIP3    H114961   4.434   5.885   6.081
 5006TIP3    H214962   4.569   5.953   6.088
 5007TIP3   OH214963   2.793   6.090   2.271
 5007TIP3    H114964   2.773   6.020   2.332
 5007TIP3    H214965   2.765   6.057   2.185
 5008TIP3   OH214966   7.127   2.945   5.222
 5008TIP3    H114967   7.099   2.945   5.313
 5008TIP3    H214968   7.208   2.996   5.221
 5009TIP3   OH214969   5.567   2.795   4.527
 5009TIP3    H114970   5.555   2.886   4.552
 5009TIP3    H214971   5.493   2.775   4.470
 5010TIP3   OH214972   6.126   1.137   4.863
 5010TIP3    H114973   6.095   1.216   4.818
 5010TIP3    H214974   6.140   1.074   4.793
 5011TIP3   OH214975   3.930   4.764   3.428
 5011TIP3    H114976   3.934   4.856   3.456
 5011TIP3    H214977   4.013   4.750   3.382
 5012TIP3   OH214978   6.521   6.218   0.863
 5012TIP3    H114979   6.606   6.192   0.828
 5012TIP3    H214980   6.505   6.157   0.935
 5013TIP3   OH214981   1.801   7.748   6.574
 5013TIP3    H114982   1.817   7.660   6.607
 5013TIP3    H214983   1.867   7.760   6.506
 5014TIP3   OH214984   1.277   3.955   1.336
 5014TIP3    H114985   1.309   4.045   1.331
 5014TIP3    H214986   1.349   3.902   1.300
 5015TIP3   OH214987   7.939   0.191   2.816
 5015TIP3    H114988   7.883   0.251   2.766
 5015TIP3    H214989   7.886   0.167   2.892
 5016TIP3   OH214990   6.361   6.241   3.616
 5016TIP3    H114991   6.368   6.267   3.524
 5016TIP3    H214992   6.436   6.183   3.630
 5017TIP3   OH214993   4.899   0.627   2.294
 5017TIP3    H114994   4.905   0.718   2.266
 5017TIP3    H214995   4.912   0.577   2.213
 5018TIP3   OH214996   4.059   2.182   3.169
 5018TIP3    H114997   4.017   2.176   3.083
 5018TIP3    H214998   3.989   2.159   3.231
 5019TIP3   OH214999   4.788   4.112   5.381
 5019TIP3    H115000   4.788   4.016   5.383
 5019TIP3    H215001   4.871   4.137   5.421
 5020TIP3   OH215002   1.706   4.520   6.081
 5020TIP3    H115003   1.678   4.522   6.173
 5020TIP3    H215004   1.800   4.537   6.084
 5021TIP3   OH215005   4.113   0.333   5.169
 5021TIP3    H115006   4.189   0.309   5.116
 5021TIP3    H215007   4.087   0.419   5.136
 5022TIP3   OH215008   6.727   1.019   4.481
 5022TIP3    H115009   6.636   0.991   4.469
 5022TIP3    H215010   6.762   0.960   4.547
 5023TIP3   OH215011   2.060   5.133   5.055
 5023TIP3    H115012   2.138   5.188   5.059
 5023TIP3    H215013   2.038   5.115   5.146
 5024TIP3   OH215014   8.266   4.694   3.924
 5024TIP3    H115015   8.359   4.717   3.927
 5024TIP3    H215016   8.232   4.741   3.848
 5025TIP3   OH215017   6.973   5.943   2.397
 5025TIP3    H115018   6.969   5.939   2.493
 5025TIP3    H215019   6.990   5.853   2.370
 5026TIP3   OH215020   2.577   6.388   0.713
 5026TIP3    H115021   2.613   6.356   0.796
 5026TIP3    H215022   2.628   6.344   0.646
 5027TIP3   OH215023   5.152   7.263   3.786
 5027TIP3    H115024   5.180   7.279   3.695
 5027TIP3    H215025   5.171   7.171   3.801
 5028TIP3   OH215026   8.301   0.294   6.116
 5028TIP3    H115027   8.259   0.209   6.104
 5028TIP3    H215028   8.238   0.356   6.079
 5029TIP3   OH215029   2.078   5.707   0.946
 5029TIP3    H115030   2.013   5.769   0.912
 5029TIP3    H215031   2.090   5.644   0.875
 5030TIP3   OH215032   5.590   2.272   3.729
 5030TIP3    H115033   5.568   2.347   3.673
 5030TIP3    H215034   5.556   2.297   3.816
 5031TIP3   OH215035   3.779   3.540   5.393
 5031TIP3    H115036   3.688   3.565   5.374
 5031TIP3    H215037   3.827   3.565   5.314
 5032TIP3   OH215038   8.085   7.160   2.734
 5032TIP3    H115039   8.054   7.149   2.644
 5032TIP3    H215040   8.006   7.179   2.784
 5033TIP3   OH215041   5.319   2.733   4.369
 5033TIP3    H115042   5.223   2.736   4.370
 5033TIP3    H215043   5.340   2.664   4.306
 5034TIP3   OH215044   2.576   6.461   5.938
 5034TIP3    H115045   2.516   6.531   5.965
 5034TIP3    H215046   2.579   6.402   6.013
 5035TIP3   OH215047   7.697   1.246   2.393
 5035TIP3    H115048   7.635   1.216   2.460
 5035TIP3    H215049   7.781   1.249   2.439
 5036TIP3   OH215050   6.273   4.263   3.548
 5036TIP3    H115051   6.311   4.351   3.537
 5036TIP3    H215052   6.317   4.210   3.481
 5037TIP3   OH215053   7.664   4.176   2.767
 5037TIP3    H115054   7.698   4.117   2.699
 5037TIP3    H215055   7.712   4.151   2.846
 5038TIP3   OH215056   3.911   0.268   1.546
 5038TIP3    H115057   3.839   0.287   1.487
 5038TIP3    H215058   3.878   0.200   1.604
 5039TIP3   OH215059   6.050   0.833   1.962
 5039TIP3    H115060   6.124   0.810   2.017
 5039TIP3    H215061   6.060   0.781   1.883
 5040TIP3   OH215062   4.696   1.048   1.071
 5040TIP3    H115063   4.786   1.077   1.086
 5040TIP3    H215064   4.672   1.088   0.988
 5041TIP3   OH215065   2.565   4.727   5.516
 5041TIP3    H115066   2.650   4.764   5.539
 5041TIP3    H215067   2.524   4.707   5.600
 5042TIP3   OH215068   6.986   0.542   5.701
 5042TIP3    H115069   6.992   0.590   5.618
 5042TIP3    H215070   7.061   0.573   5.752
 5043TIP3   OH215071   7.989   1.365   4.787
 5043TIP3    H115072   8.013   1.397   4.700
 5043TIP3    H215073   8.041   1.285   4.798
 5044TIP3   OH215074   6.634   2.291   5.427
 5044TIP3    H115075   6.681   2.323   5.505
 5044TIP3    H215076   6.563   2.354   5.416
 5045TIP3   OH215077   6.745   6.633   3.237
 5045TIP3    H115078   6.728   6.726   3.222
 5045TIP3    H215079   6.803   6.608   3.164
 5046TIP3   OH215080   3.325   4.559   6.677
 5046TIP3    H115081   3.244   4.537   6.632
 5046TIP3    H215082   3.346   4.648   6.647
 5047TIP3   OH215083   2.646   4.350   1.314
 5047TIP3    H115084   2.597   4.424   1.280
 5047TIP3    H215085   2.632   4.353   1.408
 5048TIP3   OH215086   5.188   6.208   1.429
 5048TIP3    H115087   5.244   6.187   1.503
 5048TIP3    H215088   5.221   6.291   1.395
 5049TIP3   OH215089   5.574   6.015   3.207
 5049TIP3    H115090   5.532   5.934   3.181
 5049TIP3    H215091   5.668   6.000   3.192
 5050TIP3   OH215092   3.333   2.436   0.498
 5050TIP3    H115093   3.307   2.354   0.458
 5050TIP3    H215094   3.358   2.413   0.587
 5051TIP3   OH215095   4.174   3.286   0.437
 5051TIP3    H115096   4.255   3.235   0.429
 5051TIP3    H215097   4.107   3.221   0.457
 5052TIP3   OH215098   2.160   1.121   4.315
 5052TIP3    H115099   2.194   1.174   4.243
 5052TIP3    H215100   2.237   1.101   4.368
 5053TIP3   OH215101   2.768   1.005   1.013
 5053TIP3    H115102   2.785   1.039   1.101
 5053TIP3    H215103   2.769   0.909   1.024
 5054TIP3   OH215104   4.109   0.715   2.363
 5054TIP3    H115105   4.022   0.687   2.391
 5054TIP3    H215106   4.126   0.793   2.416
 5055TIP3   OH215107   4.894   5.979   2.569
 5055TIP3    H115108   4.840   5.960   2.493
 5055TIP3    H215109   4.834   6.020   2.632
 5056TIP3   OH215110   6.716   1.526   3.578
 5056TIP3    H115111   6.688   1.505   3.667
 5056TIP3    H215112   6.638   1.560   3.536
 5057TIP3   OH215113   4.021   6.598   3.301
 5057TIP3    H115114   4.038   6.642   3.384
 5057TIP3    H215115   3.978   6.665   3.247
 5058TIP3   OH215116   1.041   4.128   6.088
 5058TIP3    H115117   0.963   4.157   6.135
 5058TIP3    H215118   1.058   4.040   6.122
 5059TIP3   OH215119   2.818   5.892   2.474
 5059TIP3    H115120   2.886   5.827   2.459
 5059TIP3    H215121   2.829   5.918   2.565
 5060TIP3   OH215122   5.300   5.214   6.125
 5060TIP3    H115123   5.316   5.184   6.036
 5060TIP3    H215124   5.305   5.134   6.178
 5061TIP3   OH215125   5.918   1.544   5.388
 5061TIP3    H115126   5.997   1.586   5.424
 5061TIP3    H215127   5.853   1.553   5.458
 5062TIP3   OH215128   0.668   5.839   5.947
 5062TIP3    H115129   0.758   5.808   5.947
 5062TIP3    H215130   0.629   5.802   5.868
 5063TIP3   OH215131   6.200   0.804   4.994
 5063TIP3    H115132   6.135   0.822   4.926
 5063TIP3    H215133   6.194   0.878   5.054
 5064TIP3   OH215134   4.831   6.417   1.798
 5064TIP3    H115135   4.905   6.476   1.816
 5064TIP3    H215136   4.852   6.379   1.713
 5065TIP3   OH215137   4.301   1.364   3.218
 5065TIP3    H115138   4.290   1.458   3.227
 5065TIP3    H215139   4.395   1.350   3.224
 5066TIP3   OH215140   7.473   0.783   6.589
 5066TIP3    H115141   7.399   0.740   6.545
 5066TIP3    H215142   7.528   0.711   6.619
 5067TIP3   OH215143   2.630   5.452   1.295
 5067TIP3    H115144   2.691   5.398   1.345
 5067TIP3    H215145   2.663   5.541   1.303
 5068TIP3   OH215146   5.010   1.946   3.567
 5068TIP3    H115147   5.010   1.978   3.477
 5068TIP3    H215148   5.091   1.896   3.575
 5069TIP3   OH215149   4.327   6.421   2.094
 5069TIP3    H115150   4.309   6.445   2.004
 5069TIP3    H215151   4.244   6.433   2.140
 5070TIP3   OH215152   1.856   1.160   1.822
 5070TIP3    H115153   1.896   1.140   1.738
 5070TIP3    H215154   1.906   1.108   1.885
 5071TIP3   OH215155   6.863   6.481   5.464
 5071TIP3    H115156   6.866   6.411   5.398
 5071TIP3    H215157   6.879   6.561   5.414
 5072TIP3   OH215158   2.462   0.747   4.930
 5072TIP3    H115159   2.526   0.808   4.894
 5072TIP3    H215160   2.500   0.721   5.015
 5073TIP3   OH215161   7.183   3.959   3.553
 5073TIP3    H115162   7.088   3.947   3.561
 5073TIP3    H215163   7.198   3.966   3.458
 5074TIP3   OH215164   2.051   6.192   3.160
 5074TIP3    H115165   1.995   6.210   3.085
 5074TIP3    H215166   2.098   6.112   3.137
 5075TIP3   OH215167   2.177   2.682   6.371
 5075TIP3    H115168   2.172   2.616   6.302
 5075TIP3    H215169   2.144   2.762   6.330
 5076TIP3   OH215170   3.299   0.893   0.485
 5076TIP3    H115171   3.372   0.946   0.516
 5076TIP3    H215172   3.221   0.936   0.522
 5077TIP3   OH215173   2.907   4.285   0.356
 5077TIP3    H115174   2.925   4.227   0.430
 5077TIP3    H215175   2.823   4.327   0.378
 5078TIP3   OH215176   6.529   3.378   5.998
 5078TIP3    H115177   6.603   3.323   6.025
 5078TIP3    H215178   6.492   3.411   6.081
 5079TIP3   OH215179   3.993   4.992   4.569
 5079TIP3    H115180   3.903   4.965   4.550
 5079TIP3    H215181   4.045   4.915   4.547
 5080TIP3   OH215182   1.685   2.478   2.979
 5080TIP3    H115183   1.674   2.494   3.073
 5080TIP3    H215184   1.698   2.384   2.972
 5081TIP3   OH215185   6.746   7.206   0.026
 5081TIP3    H115186   6.818   7.151   0.056
 5081TIP3    H215187   6.784   7.293   0.017
 5082TIP3   OH215188   5.728   0.439   2.538
 5082TIP3    H115189   5.725   0.431   2.634
 5082TIP3    H215190   5.661   0.377   2.507
 5083TIP3   OH215191   0.904   5.036   2.203
 5083TIP3    H115192   0.974   4.973   2.185
 5083TIP3    H215193   0.831   4.982   2.233
 5084TIP3   OH215194   7.221   0.169   0.586
 5084TIP3    H115195   7.230   0.116   0.507
 5084TIP3    H215196   7.139   0.217   0.575
 5085TIP3   OH215197   0.689   2.922   3.813
 5085TIP3    H115198   0.619   2.861   3.789
 5085TIP3    H215199   0.767   2.884   3.773
 5086TIP3   OH215200   3.542   1.542   0.963
 5086TIP3    H115201   3.527   1.618   1.019
 5086TIP3    H215202   3.634   1.519   0.978
 5087TIP3   OH215203   3.441   6.154   4.460
 5087TIP3    H115204   3.428   6.075   4.513
 5087TIP3    H215205   3.505   6.128   4.394
 5088TIP3   OH215206   1.645   4.350   4.309
 5088TIP3    H115207   1.715   4.396   4.353
 5088TIP3    H215208   1.613   4.411   4.242
 5089TIP3   OH215209   3.845   1.266   5.026
 5089TIP3    H115210   3.754   1.291   5.041
 5089TIP3    H215211   3.890   1.294   5.106
 5090TIP3   OH215212   3.533   7.330   4.433
 5090TIP3    H115213   3.507   7.378   4.512
 5090TIP3    H215214   3.578   7.253   4.466
 5091TIP3   OH215215   0.343   5.179   5.063
 5091TIP3    H115216   0.361   5.268   5.034
 5091TIP3    H215217   0.307   5.189   5.151
 5092TIP3   OH215218   6.412   5.590   4.593
 5092TIP3    H115219   6.388   5.670   4.545
 5092TIP3    H215220   6.372   5.601   4.679
 5093TIP3   OH215221   1.150   5.188   6.517
 5093TIP3    H115222   1.087   5.254   6.487
 5093TIP3    H215223   1.172   5.216   6.606
 5094TIP3   OH215224   4.578   3.902   4.287
 5094TIP3    H115225   4.490   3.940   4.292
 5094TIP3    H215226   4.583   3.841   4.361
 5095TIP3   OH215227   6.334   0.269   5.357
 5095TIP3    H115228   6.282   0.349   5.357
 5095TIP3    H215229   6.308   0.225   5.438
 5096TIP3   OH215230   8.036   0.857   5.276
 5096TIP3    H115231   8.009   0.766   5.284
 5096TIP3    H215232   8.065   0.865   5.185
 5097TIP3   OH215233   0.398   2.798   4.079
 5097TIP3    H115234   0.364   2.772   4.164
 5097TIP3    H215235   0.468   2.860   4.099
 5098TIP3   OH215236   0.790   0.919   2.460
 5098TIP3    H115237   0.776   0.936   2.553
 5098TIP3    H215238   0.853   0.985   2.432
 5099TIP3   OH215239   7.287   6.002   6.536
 5099TIP3    H115240   7.203   5.981   6.495
 5099TIP3    H215241   7.264   6.062   6.607
 5100TIP3   OH215242   1.895   2.788   0.856
 5100TIP3    H115243   1.974   2.819   0.811
 5100TIP3    H215244   1.925   2.762   0.943
 5101TIP3   OH215245   5.181   1.567   1.927
 5101TIP3    H115246   5.178   1.504   1.856
 5101TIP3    H215247   5.172   1.652   1.884
 5102TIP3   OH215248   8.329   5.980   5.106
 5102TIP3    H115249   8.239   6.011   5.103
 5102TIP3    H215250   8.321   5.885   5.096
 5103TIP3   OH215251   1.566   4.472   1.235
 5103TIP3    H115252   1.555   4.567   1.232
 5103TIP3    H215253   1.584   4.453   1.327
 5104TIP3   OH215254   6.767   5.538   4.115
 5104TIP3    H115255   6.688   5.537   4.061
 5104TIP3    H215256   6.784   5.446   4.134
 5105TIP3   OH215257   0.207   3.256   0.587
 5105TIP3    H115258   0.198   3.350   0.604
 5105TIP3    H215259   0.294   3.246   0.550
 5106TIP3   OH215260   7.939   3.739   0.238
 5106TIP3    H115261   7.882   3.722   0.163
 5106TIP3    H215262   8.027   3.748   0.201
 5107TIP3   OH215263   1.649   2.957   3.205
 5107TIP3    H115264   1.696   2.978   3.124
 5107TIP3    H215265   1.685   2.873   3.233
 5108TIP3   OH215266   3.415   0.802   4.900
 5108TIP3    H115267   3.430   0.894   4.922
 5108TIP3    H215268   3.320   0.795   4.889
 5109TIP3   OH215269   4.151   2.090   2.478
 5109TIP3    H115270   4.245   2.105   2.483
 5109TIP3    H215271   4.142   2.007   2.433
 5110TIP3   OH215272   3.559   5.217   4.726
 5110TIP3    H115273   3.639   5.264   4.752
 5110TIP3    H215274   3.508   5.209   4.806
 5111TIP3   OH215275   6.975   0.400   4.235
 5111TIP3    H115276   6.925   0.386   4.316
 5111TIP3    H215277   6.948   0.328   4.178
 5112TIP3   OH215278   3.622   1.696   0.181
 5112TIP3    H115279   3.677   1.618   0.185
 5112TIP3    H215280   3.620   1.720   0.088
 5113TIP3   OH215281   6.642   1.756   6.396
 5113TIP3    H115282   6.713   1.815   6.372
 5113TIP3    H215283   6.663   1.673   6.352
 5114TIP3   OH215284   3.594   5.574   2.686
 5114TIP3    H115285   3.640   5.586   2.603
 5114TIP3    H215286   3.610   5.483   2.709
 5115TIP3   OH215287   2.738   3.988   6.610
 5115TIP3    H115288   2.684   4.032   6.544
 5115TIP3    H215289   2.735   3.896   6.586
 5116TIP3   OH215290   4.926   7.168   3.526
 5116TIP3    H115291   4.882   7.218   3.458
 5116TIP3    H215292   4.994   7.228   3.559
 5117TIP3   OH215293   7.175   4.398   4.948
 5117TIP3    H115294   7.218   4.345   5.015
 5117TIP3    H215295   7.163   4.484   4.989
 5118TIP3   OH215296   1.819   6.281   5.073
 5118TIP3    H115297   1.815   6.214   5.142
 5118TIP3    H215298   1.899   6.331   5.093
 5119TIP3   OH215299   4.928   7.440   0.419
 5119TIP3    H115300   4.986   7.508   0.384
 5119TIP3    H215301   4.896   7.394   0.342
 5120TIP3   OH215302   3.657   2.078   6.309
 5120TIP3    H115303   3.662   2.173   6.321
 5120TIP3    H215304   3.740   2.045   6.344
 5121TIP3   OH215305   0.264   4.876   3.413
 5121TIP3    H115306   0.221   4.907   3.493
 5121TIP3    H215307   0.337   4.937   3.401
 5122TIP3   OH215308   5.923   7.142   0.702
 5122TIP3    H115309   5.903   7.143   0.796
 5122TIP3    H215310   5.842   7.116   0.660
 5123TIP3   OH215311   6.351   1.849   4.229
 5123TIP3    H115312   6.411   1.788   4.185
 5123TIP3    H215313   6.396   1.934   4.224
 5124TIP3   OH215314   2.602   3.290   1.756
 5124TIP3    H115315   2.610   3.240   1.838
 5124TIP3    H215316   2.653   3.240   1.692
 5125TIP3   OH215317   6.216   5.116   0.056
 5125TIP3    H115318   6.253   5.067  -0.018
 5125TIP3    H215319   6.219   5.207   0.028
 5126TIP3   OH215320   5.328   2.851   1.560
 5126TIP3    H115321   5.297   2.942   1.561
 5126TIP3    H215322   5.400   2.851   1.498
 5127TIP3   OH215323   2.461   2.705   5.974
 5127TIP3    H115324   2.416   2.749   6.045
 5127TIP3    H215325   2.552   2.736   5.980
 5128TIP3   OH215326   7.929   1.400   3.971
 5128TIP3    H115327   7.867   1.470   3.992
 5128TIP3    H215328   7.885   1.320   3.999
 5129TIP3   OH215329   7.175   2.257   2.555
 5129TIP3    H115330   7.160   2.249   2.649
 5129TIP3    H215331   7.102   2.310   2.523
 5130TIP3   OH215332   7.125   1.548   3.752
 5130TIP3    H115333   7.178   1.477   3.718
 5130TIP3    H215334   7.189   1.612   3.785
 5131TIP3   OH215335   6.605   6.393   5.578
 5131TIP3    H115336   6.689   6.352   5.558
 5131TIP3    H215337   6.563   6.334   5.640
 5132TIP3   OH215338   4.696   4.528   3.813
 5132TIP3    H115339   4.784   4.564   3.815
 5132TIP3    H215340   4.660   4.548   3.900
 5133TIP3   OH215341   1.098   2.853   2.659
 5133TIP3    H115342   1.022   2.831   2.605
 5133TIP3    H215343   1.060   2.891   2.738
 5134TIP3   OH215344   0.732   5.034   5.738
 5134TIP3    H115345   0.771   4.970   5.796
 5134TIP3    H215346   0.799   5.050   5.671
 5135TIP3   OH215347   6.201   6.299   4.855
 5135TIP3    H115348   6.283   6.256   4.879
 5135TIP3    H215349   6.138   6.268   4.920
 5136TIP3   OH215350   4.746   2.510   5.339
 5136TIP3    H115351   4.690   2.491   5.263
 5136TIP3    H215352   4.773   2.423   5.370
 5137TIP3   OH215353   1.850   5.696   5.752
 5137TIP3    H115354   1.882   5.628   5.693
 5137TIP3    H215355   1.917   5.764   5.748
 5138TIP3   OH215356   4.316   6.895   6.274
 5138TIP3    H115357   4.273   6.861   6.353
 5138TIP3    H215358   4.395   6.842   6.266
 5139TIP3   OH215359   4.905   2.382   0.239
 5139TIP3    H115360   4.944   2.457   0.192
 5139TIP3    H215361   4.838   2.350   0.179
 5140TIP3   OH215362   1.579   7.107   4.980
 5140TIP3    H115363   1.522   7.101   5.057
 5140TIP3    H215364   1.519   7.104   4.906
 5141TIP3   OH215365   1.484   4.738   6.300
 5141TIP3    H115366   1.404   4.714   6.345
 5141TIP3    H215367   1.550   4.676   6.331
 5142TIP3   OH215368   2.875   1.986   6.532
 5142TIP3    H115369   2.837   2.018   6.614
 5142TIP3    H215370   2.898   1.895   6.549
 5143TIP3   OH215371   5.453   4.358   1.360
 5143TIP3    H115372   5.401   4.433   1.389
 5143TIP3    H215373   5.440   4.293   1.428
 5144TIP3   OH215374   5.854   3.789   4.307
 5144TIP3    H115375   5.788   3.762   4.243
 5144TIP3    H215376   5.879   3.877   4.279
 5145TIP3   OH215377   4.282   4.409   3.591
 5145TIP3    H115378   4.314   4.321   3.612
 5145TIP3    H215379   4.348   4.468   3.627
 5146TIP3   OH215380   4.800   1.731   3.408
 5146TIP3    H115381   4.846   1.805   3.368
 5146TIP3    H215382   4.760   1.767   3.487
 5147TIP3   OH215383   4.251   4.288   4.519
 5147TIP3    H115384   4.257   4.248   4.432
 5147TIP3    H215385   4.342   4.295   4.548
 5148TIP3   OH215386   0.020   5.526   5.913
 5148TIP3    H115387  -0.034   5.594   5.953
 5148TIP3    H215388   0.109   5.561   5.916
 5149TIP3   OH215389   2.501   0.863   5.419
 5149TIP3    H115390   2.480   0.771   5.407
 5149TIP3    H215391   2.482   0.881   5.511
 5150TIP3   OH215392   7.139   6.755   2.992
 5150TIP3    H115393   7.115   6.848   2.985
 5150TIP3    H215394   7.228   6.756   3.026
 5151TIP3   OH215395   8.176   0.911   0.551
 5151TIP3    H115396   8.234   0.981   0.521
 5151TIP3    H215397   8.116   0.954   0.612
 5152TIP3   OH215398   8.281   0.843   0.997
 5152TIP3    H115399   8.201   0.869   1.044
 5152TIP3    H215400   8.308   0.922   0.951
 5153TIP3   OH215401   5.268   5.637   6.431
 5153TIP3    H115402   5.279   5.545   6.409
 5153TIP3    H215403   5.280   5.684   6.349
 5154TIP3   OH215404   0.900   5.150   3.946
 5154TIP3    H115405   0.994   5.130   3.937
 5154TIP3    H215406   0.864   5.136   3.859
 5155TIP3   OH215407   7.801   3.778   6.176
 5155TIP3    H115408   7.838   3.832   6.106
 5155TIP3    H215409   7.781   3.840   6.246
 5156TIP3   OH215410   4.588   6.053   6.699
 5156TIP3    H115411   4.617   6.088   6.783
 5156TIP3    H215412   4.502   6.015   6.717
 5157TIP3   OH215413   1.549   6.744   3.112
 5157TIP3    H115414   1.555   6.689   3.034
 5157TIP3    H215415   1.575   6.831   3.083
 5158TIP3   OH215416   7.079   2.951   0.678
 5158TIP3    H115417   7.121   3.012   0.617
 5158TIP3    H215418   7.135   2.873   0.675
 5159TIP3   OH215419   4.917   6.315   2.684
 5159TIP3    H115420   4.956   6.336   2.769
 5159TIP3    H215421   4.858   6.242   2.702
 5160TIP3   OH215422   6.378   3.893   6.180
 5160TIP3    H115423   6.335   3.833   6.119
 5160TIP3    H215424   6.343   3.979   6.158
 5161TIP3   OH215425   3.294   4.961   3.214
 5161TIP3    H115426   3.284   4.881   3.162
 5161TIP3    H215427   3.316   4.930   3.302
 5162TIP3   OH215428   1.952   5.975   4.806
 5162TIP3    H115429   2.043   5.955   4.827
 5162TIP3    H215430   1.932   5.922   4.729
 5163TIP3   OH215431   6.640   0.826   4.136
 5163TIP3    H115432   6.603   0.909   4.169
 5163TIP3    H215433   6.691   0.851   4.060
 5164TIP3   OH215434   0.975   7.684   6.616
 5164TIP3    H115435   1.067   7.659   6.610
 5164TIP3    H215436   0.927   7.602   6.614
 5165TIP3   OH215437   4.091   3.425   5.368
 5165TIP3    H115438   4.008   3.405   5.324
 5165TIP3    H215439   4.158   3.381   5.315
 5166TIP3   OH215440   0.984   2.491   3.679
 5166TIP3    H115441   0.933   2.572   3.674
 5166TIP3    H215442   0.936   2.430   3.622
 5167TIP3   OH215443   2.077   6.787   0.651
 5167TIP3    H115444   2.104   6.772   0.741
 5167TIP3    H215445   2.126   6.865   0.624
 5168TIP3   OH215446   7.554   5.068   3.742
 5168TIP3    H115447   7.629   5.101   3.692
 5168TIP3    H215448   7.586   5.062   3.832
 5169TIP3   OH215449   4.562   0.542   2.061
 5169TIP3    H115450   4.607   0.548   2.146
 5169TIP3    H215451   4.633   0.535   1.997
 5170TIP3   OH215452   6.474   6.753   3.632
 5170TIP3    H115453   6.387   6.715   3.638
 5170TIP3    H215454   6.467   6.838   3.675
 5171TIP3   OH215455   1.076   3.290   4.748
 5171TIP3    H115456   1.136   3.218   4.729
 5171TIP3    H215457   1.036   3.311   4.664
 5172TIP3   OH215458   1.676   3.219   5.255
 5172TIP3    H115459   1.735   3.212   5.330
 5172TIP3    H215460   1.709   3.154   5.192
 5173TIP3   OH215461   7.842   6.193   2.891
 5173TIP3    H115462   7.827   6.261   2.957
 5173TIP3    H215463   7.887   6.123   2.939
 5174TIP3   OH215464   3.915   2.504   6.495
 5174TIP3    H115465   3.910   2.425   6.549
 5174TIP3    H215466   4.006   2.507   6.465
 5175TIP3   OH215467   6.732   2.320   0.515
 5175TIP3    H115468   6.753   2.389   0.452
 5175TIP3    H215469   6.729   2.240   0.463
 5176TIP3   OH215470   5.275   1.218   0.336
 5176TIP3    H115471   5.301   1.251   0.422
 5176TIP3    H215472   5.356   1.183   0.298
 5177TIP3   OH215473   3.177   6.053   5.104
 5177TIP3    H115474   3.250   6.059   5.165
 5177TIP3    H215475   3.164   5.959   5.091
 5178TIP3   OH215476   1.427   5.945   0.791
 5178TIP3    H115477   1.432   5.932   0.696
 5178TIP3    H215478   1.518   5.938   0.821
 5179TIP3   OH215479   3.613   7.210   1.298
 5179TIP3    H115480   3.703   7.178   1.295
 5179TIP3    H215481   3.595   7.224   1.391
 5180TIP3   OH215482   7.608   1.491   1.404
 5180TIP3    H115483   7.658   1.545   1.464
 5180TIP3    H215484   7.644   1.509   1.318
 5181TIP3   OH215485   6.238   6.480   4.128
 5181TIP3    H115486   6.246   6.458   4.221
 5181TIP3    H215487   6.321   6.452   4.090
 5182TIP3   OH215488   7.936   2.533   1.761
 5182TIP3    H115489   7.849   2.510   1.795
 5182TIP3    H215490   7.952   2.621   1.794
 5183TIP3   OH215491   3.513   3.653   3.396
 5183TIP3    H115492   3.486   3.567   3.363
 5183TIP3    H215493   3.443   3.712   3.369
 5184TIP3   OH215494   4.867   0.806   0.051
 5184TIP3    H115495   4.948   0.763   0.026
 5184TIP3    H215496   4.881   0.832   0.143
 5185TIP3   OH215497   3.268   1.614   3.635
 5185TIP3    H115498   3.340   1.573   3.684
 5185TIP3    H215499   3.230   1.543   3.584
 5186TIP3   OH215500   5.713   7.256   3.513
 5186TIP3    H115501   5.691   7.190   3.447
 5186TIP3    H215502   5.671   7.226   3.593
 5187TIP3   OH215503   6.566   5.482   6.006
 5187TIP3    H115504   6.656   5.491   6.039
 5187TIP3    H215505   6.557   5.389   5.986
 5188TIP3   OH215506   2.613   7.593   2.789
 5188TIP3    H115507   2.538   7.538   2.765
 5188TIP3    H215508   2.575   7.660   2.846
 5189TIP3   OH215509   7.362   3.343   2.477
 5189TIP3    H115510   7.358   3.375   2.567
 5189TIP3    H215511   7.387   3.420   2.426
 5190TIP3   OH215512   1.240   4.561   0.786
 5190TIP3    H115513   1.310   4.527   0.841
 5190TIP3    H215514   1.162   4.512   0.814
 5191TIP3   OH215515   7.419   6.606   4.230
 5191TIP3    H115516   7.400   6.684   4.179
 5191TIP3    H215517   7.494   6.630   4.285
 5192TIP3   OH215518   2.268   1.605   3.348
 5192TIP3    H115519   2.334   1.669   3.324
 5192TIP3    H215520   2.316   1.535   3.392
 5193TIP3   OH215521   1.223   6.297   2.115
 5193TIP3    H115522   1.221   6.274   2.208
 5193TIP3    H215523   1.206   6.391   2.113
 5194TIP3   OH215524   2.581   3.475   3.197
 5194TIP3    H115525   2.589   3.381   3.212
 5194TIP3    H215526   2.514   3.504   3.259
 5195TIP3   OH215527   2.630   6.513   0.382
 5195TIP3    H115528   2.622   6.420   0.401
 5195TIP3    H215529   2.618   6.556   0.467
 5196TIP3   OH215530   1.626   7.169   6.474
 5196TIP3    H115531   1.699   7.116   6.507
 5196TIP3    H215532   1.554   7.107   6.465
 5197TIP3   OH215533   6.729   5.962   1.429
 5197TIP3    H115534   6.740   5.977   1.523
 5197TIP3    H215535   6.640   5.929   1.420
 5198TIP3   OH215536   5.653   4.594   1.076
 5198TIP3    H115537   5.655   4.547   1.159
 5198TIP3    H215538   5.744   4.620   1.060
 5199TIP3   OH215539   3.117   1.595   0.963
 5199TIP3    H115540   3.031   1.588   0.921
 5199TIP3    H215541   3.113   1.533   1.035
 5200TIP3   OH215542   7.012   4.265   3.426
 5200TIP3    H115543   7.002   4.175   3.395
 5200TIP3    H215544   7.099   4.268   3.465
 5201TIP3   OH215545   6.437   6.046   4.342
 5201TIP3    H115546   6.357   6.091   4.369
 5201TIP3    H215547   6.492   6.114   4.306
 5202TIP3   OH215548   7.220   7.344   1.261
 5202TIP3    H115549   7.278   7.365   1.334
 5202TIP3    H215550   7.171   7.267   1.290
 5203TIP3   OH215551   1.709   1.068   5.950
 5203TIP3    H115552   1.714   0.978   5.916
 5203TIP3    H215553   1.799   1.087   5.977
 5204TIP3   OH215554   5.961   6.075   3.500
 5204TIP3    H115555   5.948   6.165   3.471
 5204TIP3    H215556   6.011   6.083   3.581
 5205TIP3   OH215557   7.360   1.443   2.198
 5205TIP3    H115558   7.333   1.352   2.183
 5205TIP3    H215559   7.280   1.487   2.225
 5206TIP3   OH215560   6.256   2.244   0.840
 5206TIP3    H115561   6.350   2.261   0.829
 5206TIP3    H215562   6.238   2.267   0.932
 5207TIP3   OH215563   2.021   5.382   1.720
 5207TIP3    H115564   1.981   5.378   1.633
 5207TIP3    H215565   1.992   5.302   1.763
 5208TIP3   OH215566   0.985   2.105   4.315
 5208TIP3    H115567   0.914   2.065   4.265
 5208TIP3    H215568   0.981   2.198   4.292
 5209TIP3   OH215569   4.466   6.064   6.418
 5209TIP3    H115570   4.490   5.999   6.352
 5209TIP3    H215571   4.549   6.100   6.449
 5210TIP3   OH215572   4.473   4.602   5.255
 5210TIP3    H115573   4.535   4.536   5.226
 5210TIP3    H215574   4.451   4.650   5.175
 5211TIP3   OH215575   4.894   6.769   0.322
 5211TIP3    H115576   4.971   6.802   0.368
 5211TIP3    H215577   4.820   6.790   0.380
 5212TIP3   OH215578   5.397   5.966   4.098
 5212TIP3    H115579   5.492   5.963   4.101
 5212TIP3    H215580   5.372   5.889   4.048
 5213TIP3   OH215581   3.751   3.042   4.178
 5213TIP3    H115582   3.696   2.997   4.242
 5213TIP3    H215583   3.692   3.065   4.106
 5214TIP3   OH215584   1.369   5.169   2.375
 5214TIP3    H115585   1.361   5.088   2.425
 5214TIP3    H215586   1.448   5.156   2.321
 5215TIP3   OH215587   5.178   3.718   4.811
 5215TIP3    H115588   5.204   3.700   4.901
 5215TIP3    H215589   5.247   3.775   4.777
 5216TIP3   OH215590   4.093   4.987   2.672
 5216TIP3    H115591   4.180   4.947   2.665
 5216TIP3    H215592   4.101   5.048   2.745
 5217TIP3   OH215593   0.553   1.897   4.392
 5217TIP3    H115594   0.619   1.953   4.351
 5217TIP3    H215595   0.523   1.946   4.468
 5218TIP3   OH215596   7.541   0.505   3.077
 5218TIP3    H115597   7.486   0.559   3.020
 5218TIP3    H215598   7.628   0.545   3.071
 5219TIP3   OH215599   2.277   6.323   4.204
 5219TIP3    H115600   2.248   6.361   4.287
 5219TIP3    H215601   2.325   6.244   4.230
 5220TIP3   OH215602   0.510   5.508   2.607
 5220TIP3    H115603   0.566   5.456   2.549
 5220TIP3    H215604   0.462   5.566   2.549
 5221TIP3   OH215605   6.917   4.621   2.821
 5221TIP3    H115606   6.970   4.562   2.769
 5221TIP3    H215607   6.979   4.684   2.857
 5222TIP3   OH215608   7.054   4.310   3.709
 5222TIP3    H115609   7.051   4.294   3.804
 5222TIP3    H215610   7.088   4.399   3.701
 5223TIP3   OH215611   6.697   5.832   0.837
 5223TIP3    H115612   6.690   5.895   0.765
 5223TIP3    H215613   6.748   5.760   0.801
 5224TIP3   OH215614   3.324   3.765   4.943
 5224TIP3    H115615   3.319   3.860   4.929
 5224TIP3    H215616   3.246   3.730   4.902
 5225TIP3   OH215617   5.405   0.876   5.764
 5225TIP3    H115618   5.431   0.823   5.689
 5225TIP3    H215619   5.314   0.851   5.781
 5226TIP3   OH215620   5.099   7.780   1.687
 5226TIP3    H115621   5.186   7.806   1.656
 5226TIP3    H215622   5.038   7.824   1.628
 5227TIP3   OH215623   4.219   1.571   4.752
 5227TIP3    H115624   4.192   1.529   4.834
 5227TIP3    H215625   4.307   1.604   4.770
 5228TIP3   OH215626   4.312   1.828   1.306
 5228TIP3    H115627   4.372   1.816   1.380
 5228TIP3    H215628   4.247   1.759   1.316
 5229TIP3   OH215629   4.918   1.969   4.723
 5229TIP3    H115630   4.927   1.911   4.799
 5229TIP3    H215631   4.863   2.041   4.753
 5230TIP3   OH215632   5.117   0.644   2.880
 5230TIP3    H115633   5.141   0.614   2.793
 5230TIP3    H215634   5.021   0.640   2.881
 5231TIP3   OH215635   1.560   7.327   1.046
 5231TIP3    H115636   1.518   7.388   0.984
 5231TIP3    H215637   1.501   7.251   1.048
 5232TIP3   OH215638   0.571   3.921   5.673
 5232TIP3    H115639   0.536   3.872   5.599
 5232TIP3    H215640   0.519   4.002   5.674
 5233TIP3   OH215641   1.500   6.213   5.918
 5233TIP3    H115642   1.573   6.192   5.860
 5233TIP3    H215643   1.541   6.237   6.001
 5234TIP3   OH215644   0.436   3.826   0.788
 5234TIP3    H115645   0.519   3.870   0.769
 5234TIP3    H215646   0.433   3.753   0.727
 5235TIP3   OH215647   6.502   3.989   1.138
 5235TIP3    H115648   6.517   3.910   1.087
 5235TIP3    H215649   6.544   4.058   1.087
 5236TIP3   OH215650   0.998   3.032   1.117
 5236TIP3    H115651   0.995   3.048   1.211
 5236TIP3    H215652   0.982   2.939   1.108
 5237TIP3   OH215653   1.913   4.618   4.228
 5237TIP3    H115654   1.945   4.573   4.150
 5237TIP3    H215655   1.818   4.619   4.217
 5238TIP3   OH215656   3.020   5.074   5.106
 5238TIP3    H115657   3.093   5.032   5.152
 5238TIP3    H215658   2.951   5.078   5.172
 5239TIP3   OH215659   4.194   5.689   4.919
 5239TIP3    H115660   4.171   5.768   4.967
 5239TIP3    H215661   4.288   5.699   4.901
 5240TIP3   OH215662   1.125   0.139   6.314
 5240TIP3    H115663   1.120   0.163   6.406
 5240TIP3    H215664   1.050   0.082   6.299
 5241TIP3   OH215665   7.225   0.115   4.203
 5241TIP3    H115666   7.136   0.116   4.240
 5241TIP3    H215667   7.253   0.206   4.205
 5242TIP3   OH215668   5.622   0.738   1.274
 5242TIP3    H115669   5.686   0.808   1.283
 5242TIP3    H215670   5.542   0.781   1.242
 5243TIP3   OH215671   2.151   5.245   3.176
 5243TIP3    H115672   2.106   5.171   3.135
 5243TIP3    H215673   2.088   5.280   3.239
 5244TIP3   OH215674   8.056   0.022   5.908
 5244TIP3    H115675   8.032  -0.058   5.862
 5244TIP3    H215676   8.066   0.088   5.839
 5245TIP3   OH215677   2.421   4.145   1.243
 5245TIP3    H115678   2.495   4.195   1.208
 5245TIP3    H215679   2.461   4.082   1.303
 5246TIP3   OH215680   2.379   6.205   5.843
 5246TIP3    H115681   2.354   6.134   5.902
 5246TIP3    H215682   2.473   6.218   5.859
 5247TIP3   OH215683   1.662   2.451   1.133
 5247TIP3    H115684   1.690   2.543   1.142
 5247TIP3    H215685   1.623   2.430   1.218
 5248TIP3   OH215686   3.916   7.034   2.617
 5248TIP3    H115687   3.853   7.104   2.635
 5248TIP3    H215688   3.866   6.953   2.628
 5249TIP3   OH215689   2.303   1.760   3.873
 5249TIP3    H115690   2.362   1.740   3.801
 5249TIP3    H215691   2.361   1.794   3.942
 5250TIP3   OH215692   4.704   2.006   2.856
 5250TIP3    H115693   4.756   2.059   2.916
 5250TIP3    H215694   4.625   1.984   2.905
 5251TIP3   OH215695   7.935   6.794   0.832
 5251TIP3    H115696   7.988   6.730   0.785
 5251TIP3    H215697   7.900   6.850   0.763
 5252TIP3   OH215698   1.745   2.168   6.493
 5252TIP3    H115699   1.711   2.197   6.408
 5252TIP3    H215700   1.824   2.119   6.473
 5253TIP3   OH215701   2.444   6.922   5.721
 5253TIP3    H115702   2.484   6.891   5.639
 5253TIP3    H215703   2.388   6.849   5.749
 5254TIP3   OH215704   4.953   6.684   4.965
 5254TIP3    H115705   4.924   6.733   5.041
 5254TIP3    H215706   5.049   6.685   4.970
 5255TIP3   OH215707   5.016   7.795   1.944
 5255TIP3    H115708   5.058   7.732   2.003
 5255TIP3    H215709   5.038   7.764   1.856
 5256TIP3   OH215710   1.180   2.383   3.827
 5256TIP3    H115711   1.253   2.427   3.782
 5256TIP3    H215712   1.103   2.406   3.775
 5257TIP3   OH215713   1.938   0.017   0.372
 5257TIP3    H115714   1.927  -0.019   0.284
 5257TIP3    H215715   2.008   0.081   0.362
 5258TIP3   OH215716   6.776   7.316   0.890
 5258TIP3    H115717   6.778   7.228   0.852
 5258TIP3    H215718   6.840   7.313   0.961
 5259TIP3   OH215719   3.349   0.766   6.275
 5259TIP3    H115720   3.255   0.773   6.288
 5259TIP3    H215721   3.374   0.688   6.325
 5260TIP3   OH215722   6.129   3.400   6.696
 5260TIP3    H115723   6.221   3.427   6.699
 5260TIP3    H215724   6.124   3.323   6.752
 5261TIP3   OH215725   7.065   5.994   0.238
 5261TIP3    H115726   7.027   6.014   0.324
 5261TIP3    H215727   7.054   5.900   0.228
 5262TIP3   OH215728   6.899   1.064   5.560
 5262TIP3    H115729   6.861   1.085   5.474
 5262TIP3    H215730   6.923   0.972   5.554
 5263TIP3   OH215731   4.594   1.843   6.498
 5263TIP3    H115732   4.640   1.805   6.423
 5263TIP3    H215733   4.556   1.767   6.544
 5264TIP3   OH215734   8.296   5.352   3.790
 5264TIP3    H115735   8.301   5.264   3.753
 5264TIP3    H215736   8.323   5.341   3.881
 5265TIP3   OH215737   3.896   0.733   5.878
 5265TIP3    H115738   3.880   0.656   5.933
 5265TIP3    H215739   3.867   0.707   5.791
 5266TIP3   OH215740   0.436   5.985   1.539
 5266TIP3    H115741   0.469   5.896   1.549
 5266TIP3    H215742   0.410   5.991   1.447
 5267TIP3   OH215743   0.721   7.494   4.331
 5267TIP3    H115744   0.654   7.443   4.285
 5267TIP3    H215745   0.763   7.547   4.262
 5268TIP3   OH215746   7.600   4.430   0.831
 5268TIP3    H115747   7.664   4.447   0.763
 5268TIP3    H215748   7.604   4.335   0.845
 5269TIP3   OH215749   3.902   6.847   0.717
 5269TIP3    H115750   3.887   6.753   0.726
 5269TIP3    H215751   3.835   6.876   0.656
 5270TIP3   OH215752   0.065   2.489   3.143
 5270TIP3    H115753   0.075   2.397   3.167
 5270TIP3    H215754   0.103   2.494   3.055
 5271TIP3   OH215755   6.764   2.790   0.159
 5271TIP3    H115756   6.758   2.881   0.189
 5271TIP3    H215757   6.778   2.797   0.065
 5272TIP3   OH215758   5.506   0.749   3.718
 5272TIP3    H115759   5.597   0.776   3.711
 5272TIP3    H215760   5.499   0.673   3.660
 5273TIP3   OH215761   2.390   2.257   0.915
 5273TIP3    H115762   2.381   2.259   1.010
 5273TIP3    H215763   2.371   2.167   0.890
 5274TIP3   OH215764   4.681   0.618   4.764
 5274TIP3    H115765   4.638   0.590   4.845
 5274TIP3    H215766   4.612   0.662   4.714
 5275TIP3   OH215767   3.226   3.096   6.560
 5275TIP3    H115768   3.263   3.182   6.539
 5275TIP3    H215769   3.152   3.086   6.500
 5276TIP3   OH215770   2.089   5.006   2.328
 5276TIP3    H115771   2.034   4.974   2.399
 5276TIP3    H215772   2.096   5.101   2.343
 5277TIP3   OH215773   6.988   6.108   5.594
 5277TIP3    H115774   7.028   6.029   5.558
 5277TIP3    H215775   6.894   6.093   5.588
 5278TIP3   OH215776   5.202   4.087   1.328
 5278TIP3    H115777   5.157   4.164   1.293
 5278TIP3    H215778   5.294   4.099   1.303
 5279TIP3   OH215779   1.912   6.788   6.267
 5279TIP3    H115780   1.853   6.776   6.193
 5279TIP3    H215781   1.855   6.785   6.344
 5280TIP3   OH215782   3.781   1.827   2.785
 5280TIP3    H115783   3.817   1.859   2.867
 5280TIP3    H215784   3.770   1.733   2.799
 5281TIP3   OH215785   1.493   6.664   1.604
 5281TIP3    H115786   1.451   6.605   1.542
 5281TIP3    H215787   1.487   6.619   1.688
 5282TIP3   OH215788   4.080   2.762   1.167
 5282TIP3    H115789   4.017   2.712   1.219
 5282TIP3    H215790   4.137   2.803   1.232
 5283TIP3   OH215791   4.759   2.247   1.964
 5283TIP3    H115792   4.848   2.239   1.999
 5283TIP3    H215793   4.771   2.256   1.869
 5284TIP3   OH215794   3.423   3.082   1.164
 5284TIP3    H115795   3.358   3.144   1.197
 5284TIP3    H215796   3.449   3.032   1.241
 5285TIP3   OH215797   5.490   2.795   6.183
 5285TIP3    H115798   5.507   2.843   6.264
 5285TIP3    H215799   5.396   2.806   6.168
 5286TIP3   OH215800   2.294   7.889   3.481
 5286TIP3    H115801   2.286   7.886   3.577
 5286TIP3    H215802   2.259   7.806   3.451
 5287TIP3   OH215803   6.281   0.729   2.033
 5287TIP3    H115804   6.339   0.684   1.971
 5287TIP3    H215805   6.341   0.774   2.093
 5288TIP3   OH215806   6.515   2.902   3.140
 5288TIP3    H115807   6.497   2.811   3.164
 5288TIP3    H215808   6.432   2.934   3.104
 5289TIP3   OH215809   2.633   5.781   1.635
 5289TIP3    H115810   2.561   5.843   1.642
 5289TIP3    H215811   2.706   5.823   1.681
 5290TIP3   OH215812   1.258   4.009   1.794
 5290TIP3    H115813   1.294   4.092   1.764
 5290TIP3    H215814   1.239   4.022   1.887
 5291TIP3   OH215815   4.029   2.923   4.025
 5291TIP3    H115816   4.032   2.892   3.934
 5291TIP3    H215817   3.951   2.882   4.062
 5292TIP3   OH215818   2.823   6.632   6.259
 5292TIP3    H115819   2.826   6.715   6.304
 5292TIP3    H215820   2.832   6.654   6.166
 5293TIP3   OH215821   7.785   3.241   0.693
 5293TIP3    H115822   7.798   3.335   0.701
 5293TIP3    H215823   7.790   3.224   0.599
 5294TIP3   OH215824   1.457   2.283   4.192
 5294TIP3    H115825   1.426   2.193   4.179
 5294TIP3    H215826   1.465   2.293   4.286
 5295TIP3   OH215827   5.481   3.081   0.306
 5295TIP3    H115828   5.542   3.111   0.239
 5295TIP3    H215829   5.394   3.095   0.268
 5296TIP3   OH215830   4.117   3.542   0.561
 5296TIP3    H115831   4.147   3.452   0.572
 5296TIP3    H215832   4.147   3.568   0.474
 5297TIP3   OH215833   7.183   1.510   0.278
 5297TIP3    H115834   7.132   1.472   0.207
 5297TIP3    H215835   7.132   1.491   0.357
 5298TIP3   OH215836   7.427   3.529   4.109
 5298TIP3    H115837   7.410   3.586   4.035
 5298TIP3    H215838   7.522   3.533   4.120
 5299TIP3   OH215839   2.935   7.532   4.369
 5299TIP3    H115840   2.948   7.501   4.279
 5299TIP3    H215841   2.861   7.591   4.364
 5300TIP3   OH215842   6.732   5.441   4.773
 5300TIP3    H115843   6.730   5.509   4.705
 5300TIP3    H215844   6.818   5.450   4.813
 5301TIP3   OH215845   4.781   6.439   1.346
 5301TIP3    H115846   4.862   6.485   1.370
 5301TIP3    H215847   4.781   6.438   1.250
 5302TIP3   OH215848   7.934   2.475   4.839
 5302TIP3    H115849   7.968   2.386   4.835
 5302TIP3    H215850   7.845   2.465   4.872
 5303TIP3   OH215851   3.979   5.965   1.722
 5303TIP3    H115852   3.974   6.022   1.799
 5303TIP3    H215853   4.035   5.892   1.749
 5304TIP3   OH215854   7.189   5.115   4.429
 5304TIP3    H115855   7.217   5.165   4.352
 5304TIP3    H215856   7.218   5.168   4.504
 5305TIP3   OH215857   5.590   4.143   2.538
 5305TIP3    H115858   5.551   4.116   2.455
 5305TIP3    H215859   5.609   4.236   2.526
 5306TIP3   OH215860   7.177   5.408   5.920
 5306TIP3    H115861   7.231   5.331   5.905
 5306TIP3    H215862   7.212   5.448   5.999
 5307TIP3   OH215863   2.621   4.356   3.696
 5307TIP3    H115864   2.558   4.407   3.747
 5307TIP3    H215865   2.618   4.395   3.608
 5308TIP3   OH215866   0.931   2.968   2.089
 5308TIP3    H115867   0.938   2.984   2.184
 5308TIP3    H215868   0.898   2.879   2.082
 5309TIP3   OH215869   2.294   1.334   5.597
 5309TIP3    H115870   2.237   1.289   5.534
 5309TIP3    H215871   2.342   1.264   5.641
 5310TIP3   OH215872   7.019   7.050   4.783
 5310TIP3    H115873   7.004   6.994   4.859
 5310TIP3    H215874   7.114   7.054   4.774
 5311TIP3   OH215875   5.868   0.140   2.623
 5311TIP3    H115876   5.907   0.083   2.690
 5311TIP3    H215877   5.924   0.218   2.623
 5312TIP3   OH215878   5.899   5.878   4.441
 5312TIP3    H115879   5.983   5.885   4.396
 5312TIP3    H215880   5.837   5.849   4.374
 5313TIP3   OH215881   3.714   3.358   0.724
 5313TIP3    H115882   3.661   3.346   0.803
 5313TIP3    H215883   3.680   3.438   0.684
 5314TIP3   OH215884   0.745   0.393   3.137
 5314TIP3    H115885   0.786   0.472   3.171
 5314TIP3    H215886   0.791   0.321   3.181
 5315TIP3   OH215887   3.344   4.159   2.569
 5315TIP3    H115888   3.295   4.218   2.626
 5315TIP3    H215889   3.278   4.121   2.511
 5316TIP3   OH215890   0.877   0.605   2.809
 5316TIP3    H115891   0.963   0.579   2.776
 5316TIP3    H215892   0.831   0.522   2.824
 5317TIP3   OH215893   3.538   5.567   3.868
 5317TIP3    H115894   3.475   5.634   3.895
 5317TIP3    H215895   3.594   5.555   3.945
 5318TIP3   OH215896   6.285   2.668   6.490
 5318TIP3    H115897   6.367   2.685   6.535
 5318TIP3    H215898   6.221   2.657   6.561
 5319TIP3   OH215899   1.923   3.793   5.210
 5319TIP3    H115900   2.003   3.761   5.169
 5319TIP3    H215901   1.951   3.874   5.253
 5320TIP3   OH215902   0.888   6.508   2.880
 5320TIP3    H115903   0.803   6.466   2.873
 5320TIP3    H215904   0.908   6.507   2.974
 5321TIP3   OH215905   2.336   1.277   6.668
 5321TIP3    H115906   2.344   1.190   6.707
 5321TIP3    H215907   2.421   1.293   6.626
 5322TIP3   OH215908   4.713   1.591   6.074
 5322TIP3    H115909   4.750   1.667   6.029
 5322TIP3    H215910   4.730   1.517   6.015
 5323TIP3   OH215911   2.185   2.245   2.810
 5323TIP3    H115912   2.276   2.258   2.785
 5323TIP3    H215913   2.185   2.246   2.906
 5324TIP3   OH215914   2.887   4.212   6.683
 5324TIP3    H115915   2.855   4.124   6.661
 5324TIP3    H215916   2.980   4.199   6.702
 5325TIP3   OH215917   0.914   6.781   5.243
 5325TIP3    H115918   0.932   6.846   5.174
 5325TIP3    H215919   0.922   6.830   5.324
 5326TIP3   OH215920   3.167   4.655   3.155
 5326TIP3    H115921   3.149   4.566   3.124
 5326TIP3    H215922   3.260   4.667   3.140
 5327TIP3   OH215923   5.040   5.520   0.630
 5327TIP3    H115924   4.989   5.568   0.696
 5327TIP3    H215925   5.092   5.588   0.586
 5328TIP3   OH215926   2.323   2.286   1.184
 5328TIP3    H115927   2.283   2.371   1.202
 5328TIP3    H215928   2.396   2.280   1.246
 5329TIP3   OH215929   2.191   7.150   2.851
 5329TIP3    H115930   2.258   7.218   2.854
 5329TIP3    H215931   2.166   7.138   2.943
 5330TIP3   OH215932   0.361   2.486   0.869
 5330TIP3    H115933   0.293   2.518   0.928
 5330TIP3    H215934   0.391   2.405   0.908
 5331TIP3   OH215935   8.003   3.432   0.286
 5331TIP3    H115936   8.067   3.486   0.239
 5331TIP3    H215937   8.038   3.426   0.376
 5332TIP3   OH215938   1.789   7.339   4.285
 5332TIP3    H115939   1.847   7.263   4.294
 5332TIP3    H215940   1.840   7.401   4.232
 5333TIP3   OH215941   0.896   1.838   0.772
 5333TIP3    H115942   0.912   1.778   0.699
 5333TIP3    H215943   0.931   1.922   0.743
 5334TIP3   OH215944   1.410   3.192   5.319
 5334TIP3    H115945   1.378   3.141   5.394
 5334TIP3    H215946   1.503   3.170   5.312
 5335TIP3   OH215947   6.108   5.670   5.705
 5335TIP3    H115948   6.113   5.591   5.759
 5335TIP3    H215949   6.018   5.670   5.672
 5336TIP3   OH215950   1.763   1.726   1.583
 5336TIP3    H115951   1.698   1.713   1.515
 5336TIP3    H215952   1.836   1.769   1.539
 5337TIP3   OH215953   0.733   5.380   3.081
 5337TIP3    H115954   0.706   5.301   3.127
 5337TIP3    H215955   0.691   5.451   3.130
 5338TIP3   OH215956   4.906   1.522   2.515
 5338TIP3    H115957   4.863   1.580   2.577
 5338TIP3    H215958   5.000   1.539   2.527
 5339TIP3   OH215959   4.135   5.768   2.943
 5339TIP3    H115960   4.143   5.843   3.002
 5339TIP3    H215961   4.108   5.696   2.999
 5340TIP3   OH215962   2.700   0.358   0.500
 5340TIP3    H115963   2.657   0.352   0.585
 5340TIP3    H215964   2.647   0.420   0.451
 5341TIP3   OH215965   2.504   2.387   4.023
 5341TIP3    H115966   2.470   2.461   3.974
 5341TIP3    H215967   2.548   2.332   3.958
 5342TIP3   OH215968   5.324   5.966   2.403
 5342TIP3    H115969   5.348   5.983   2.494
 5342TIP3    H215970   5.391   5.906   2.370
 5343TIP3   OH215971   7.847   4.177   4.466
 5343TIP3    H115972   7.910   4.106   4.455
 5343TIP3    H215973   7.810   4.189   4.379
 5344TIP3   OH215974   5.487   7.131   0.128
 5344TIP3    H115975   5.530   7.079   0.060
 5344TIP3    H215976   5.473   7.217   0.087
 5345TIP3   OH215977   7.147   0.387   6.294
 5345TIP3    H115978   7.125   0.319   6.358
 5345TIP3    H215979   7.239   0.407   6.311
 5346TIP3   OH215980   3.777   3.249   0.470
 5346TIP3    H115981   3.748   3.287   0.553
 5346TIP3    H215982   3.780   3.323   0.409
 5347TIP3   OH215983   5.266   1.871   4.452
 5347TIP3    H115984   5.174   1.896   4.436
 5347TIP3    H215985   5.299   1.845   4.366
 5348TIP3   OH215986   5.380   6.220   6.285
 5348TIP3    H115987   5.472   6.245   6.290
 5348TIP3    H215988   5.339   6.292   6.236
 5349TIP3   OH215989   4.184   1.184   3.049
 5349TIP3    H115990   4.244   1.110   3.050
 5349TIP3    H215991   4.239   1.261   3.062
 5350TIP3   OH215992   0.990   0.517   5.265
 5350TIP3    H115993   1.067   0.502   5.211
 5350TIP3    H215994   0.952   0.599   5.231
 5351TIP3   OH215995   0.359   0.279   1.768
 5351TIP3    H115996   0.339   0.333   1.845
 5351TIP3    H215997   0.349   0.189   1.798
 5352TIP3   OH215998   6.994   2.864   0.365
 5352TIP3    H115999   6.981   2.935   0.428
 5352TIP3    H216000   6.915   2.866   0.310
 5353TIP3   OH216001   4.108   4.795   2.326
 5353TIP3    H116002   4.045   4.740   2.281
 5353TIP3    H216003   4.102   4.880   2.282
 5354TIP3   OH216004   6.618   7.178   6.316
 5354TIP3    H116005   6.589   7.135   6.236
 5354TIP3    H216006   6.567   7.136   6.386
 5355TIP3   OH216007   1.578   3.338   4.718
 5355TIP3    H116008   1.529   3.318   4.798
 5355TIP3    H216009   1.662   3.294   4.730
 5356TIP3   OH216010   4.508   3.476   5.708
 5356TIP3    H116011   4.522   3.563   5.747
 5356TIP3    H216012   4.591   3.431   5.721
 5357TIP3   OH216013   2.101   0.908   0.633
 5357TIP3    H116014   2.175   0.949   0.679
 5357TIP3    H216015   2.139   0.873   0.553
 5358TIP3   OH216016   5.937   0.696   3.121
 5358TIP3    H116017   6.015   0.678   3.069
 5358TIP3    H216018   5.940   0.790   3.138
 5359TIP3   OH216019   5.064   7.556   5.300
 5359TIP3    H116020   5.092   7.640   5.263
 5359TIP3    H216021   4.990   7.579   5.356
 5360TIP3   OH216022   8.282   7.545   2.737
 5360TIP3    H116023   8.277   7.530   2.832
 5360TIP3    H216024   8.195   7.523   2.705
 5361TIP3   OH216025   6.321   2.841   1.155
 5361TIP3    H116026   6.413   2.857   1.179
 5361TIP3    H216027   6.298   2.761   1.203
 5362TIP3   OH216028   7.321   3.855   5.368
 5362TIP3    H116029   7.312   3.894   5.281
 5362TIP3    H216030   7.336   3.929   5.427
 5363TIP3   OH216031   5.132   3.774   2.405
 5363TIP3    H116032   5.169   3.703   2.353
 5363TIP3    H216033   5.117   3.736   2.491
 5364TIP3   OH216034   4.785   0.904   3.124
 5364TIP3    H116035   4.790   0.970   3.194
 5364TIP3    H216036   4.842   0.938   3.055
 5365TIP3   OH216037   5.048   5.426   1.861
 5365TIP3    H116038   5.014   5.377   1.936
 5365TIP3    H216039   5.094   5.500   1.900
 5366TIP3   OH216040   0.688   4.790   0.770
 5366TIP3    H116041   0.617   4.799   0.832
 5366TIP3    H216042   0.655   4.829   0.689
 5367TIP3   OH216043   1.757   1.090   1.330
 5367TIP3    H116044   1.675   1.098   1.378
 5367TIP3    H216045   1.749   1.007   1.283
 5368TIP3   OH216046   1.227   7.004   3.412
 5368TIP3    H116047   1.154   6.991   3.351
 5368TIP3    H216048   1.196   7.070   3.473
 5369TIP3   OH216049   6.276   7.507   2.903
 5369TIP3    H116050   6.183   7.494   2.884
 5369TIP3    H216051   6.287   7.602   2.904
 5370TIP3   OH216052   3.590   1.009   1.397
 5370TIP3    H116053   3.618   0.969   1.315
 5370TIP3    H216054   3.494   1.002   1.396
 5371TIP3   OH216055   5.457   4.304   2.224
 5371TIP3    H116056   5.519   4.351   2.279
 5371TIP3    H216057   5.508   4.234   2.184
 5372TIP3   OH216058   2.793   0.556   5.317
 5372TIP3    H116059   2.776   0.560   5.223
 5372TIP3    H216060   2.807   0.648   5.342
 5373TIP3   OH216061   8.173   1.517   3.584
 5373TIP3    H116062   8.244   1.571   3.618
 5373TIP3    H216063   8.188   1.514   3.490
 5374TIP3   OH216064   3.501   2.926   4.333
 5374TIP3    H116065   3.565   2.948   4.400
 5374TIP3    H216066   3.448   2.856   4.372
 5375TIP3   OH216067   6.131   6.031   5.002
 5375TIP3    H116068   6.102   6.096   5.067
 5375TIP3    H216069   6.217   6.004   5.033
 5376TIP3   OH216070   7.667   3.967   4.527
 5376TIP3    H116071   7.705   3.953   4.440
 5376TIP3    H216072   7.692   4.057   4.549
 5377TIP3   OH216073   0.124   3.987   5.895
 5377TIP3    H116074   0.149   3.918   5.956
 5377TIP3    H216075   0.148   4.068   5.939
 5378TIP3   OH216076   3.634   2.206   5.628
 5378TIP3    H116077   3.541   2.199   5.604
 5378TIP3    H216078   3.648   2.136   5.691
 5379TIP3   OH216079   6.877   4.449   1.115
 5379TIP3    H116080   6.902   4.364   1.150
 5379TIP3    H216081   6.923   4.512   1.171
 5380TIP3   OH216082   6.542   1.923   1.957
 5380TIP3    H116083   6.461   1.875   1.941
 5380TIP3    H216084   6.611   1.858   1.943
 5381TIP3   OH216085   2.131   7.330   0.683
 5381TIP3    H116086   2.069   7.403   0.687
 5381TIP3    H216087   2.214   7.371   0.659
 5382TIP3   OH216088   1.528   5.433   0.390
 5382TIP3    H116089   1.509   5.422   0.297
 5382TIP3    H216090   1.501   5.522   0.410
 5383TIP3   OH216091   6.513   0.639   0.868
 5383TIP3    H116092   6.465   0.624   0.787
 5383TIP3    H216093   6.530   0.733   0.869
 5384TIP3   OH216094   8.102   0.389   0.440
 5384TIP3    H116095   8.066   0.327   0.377
 5384TIP3    H216096   8.150   0.334   0.503
 5385TIP3   OH216097   4.027   2.575   6.812
 5385TIP3    H116098   4.057   2.489   6.780
 5385TIP3    H216099   4.096   2.635   6.785
 5386TIP3   OH216100   6.793   7.567   3.472
 5386TIP3    H116101   6.732   7.534   3.538
 5386TIP3    H216102   6.831   7.488   3.434
 5387TIP3   OH216103   5.677   5.324   0.345
 5387TIP3    H116104   5.653   5.263   0.415
 5387TIP3    H216105   5.773   5.318   0.340
 5388TIP3   OH216106   1.572   3.680   4.297
 5388TIP3    H116107   1.509   3.743   4.264
 5388TIP3    H216108   1.597   3.628   4.221
 5389TIP3   OH216109   2.212   4.665   3.721
 5389TIP3    H116110   2.164   4.638   3.799
 5389TIP3    H216111   2.270   4.735   3.752
 5390TIP3   OH216112   4.068   6.633   6.097
 5390TIP3    H116113   4.137   6.636   6.032
 5390TIP3    H216114   4.111   6.605   6.177
 5391TIP3   OH216115   4.461   6.988   4.138
 5391TIP3    H116116   4.425   7.045   4.070
 5391TIP3    H216117   4.540   7.032   4.167
 5392TIP3   OH216118   1.816   1.172   6.325
 5392TIP3    H116119   1.728   1.165   6.288
 5392TIP3    H216120   1.805   1.155   6.419
 5393TIP3   OH216121   1.935   0.409   0.848
 5393TIP3    H116122   2.003   0.341   0.849
 5393TIP3    H216123   1.983   0.491   0.866
 5394TIP3   OH216124   2.807   6.437   5.403
 5394TIP3    H116125   2.862   6.513   5.421
 5394TIP3    H216126   2.729   6.473   5.360
 5395TIP3   OH216127   2.244   6.523   5.985
 5395TIP3    H116128   2.173   6.494   6.042
 5395TIP3    H216129   2.305   6.569   6.043
 5396TIP3   OH216130   2.018   5.398   2.203
 5396TIP3    H116131   2.103   5.353   2.195
 5396TIP3    H216132   2.023   5.442   2.288
 5397TIP3   OH216133   1.710   0.450   2.787
 5397TIP3    H116134   1.650   0.380   2.808
 5397TIP3    H216135   1.665   0.530   2.813
 5398TIP3   OH216136   7.312   4.851   0.443
 5398TIP3    H116137   7.319   4.810   0.357
 5398TIP3    H216138   7.221   4.882   0.447
 5399TIP3   OH216139   1.954   2.181   4.994
 5399TIP3    H116140   2.021   2.173   5.062
 5399TIP3    H216141   1.968   2.268   4.957
 5400TIP3   OH216142   2.531   7.441   1.371
 5400TIP3    H116143   2.513   7.457   1.278
 5400TIP3    H216144   2.624   7.418   1.373
 5401TIP3   OH216145   6.797   2.647   4.666
 5401TIP3    H116146   6.856   2.573   4.654
 5401TIP3    H216147   6.853   2.724   4.669
 5402TIP3   OH216148   1.267   6.736   3.125
 5402TIP3    H116149   1.358   6.764   3.123
 5402TIP3    H216150   1.269   6.646   3.093
 5403TIP3   OH216151   7.188   2.833   2.566
 5403TIP3    H116152   7.263   2.788   2.527
 5403TIP3    H216153   7.207   2.926   2.553
 5404TIP3   OH216154   4.239   2.994   3.715
 5404TIP3    H116155   4.309   2.957   3.768
 5404TIP3    H216156   4.279   3.070   3.672
 5405TIP3   OH216157   1.028   6.594   6.618
 5405TIP3    H116158   1.046   6.686   6.637
 5405TIP3    H216159   0.933   6.589   6.611
 5406TIP3   OH216160   0.754   0.955   6.046
 5406TIP3    H116161   0.746   0.940   6.140
 5406TIP3    H216162   0.848   0.967   6.031
 5407TIP3   OH216163   5.676   2.464   2.233
 5407TIP3    H116164   5.769   2.477   2.252
 5407TIP3    H216165   5.648   2.546   2.193
 5408TIP3   OH216166   5.239   5.606   4.519
 5408TIP3    H116167   5.334   5.611   4.523
 5408TIP3    H216168   5.215   5.542   4.587
 5409TIP3   OH216169   5.231   2.183   1.293
 5409TIP3    H116170   5.157   2.171   1.234
 5409TIP3    H216171   5.192   2.190   1.380
 5410TIP3   OH216172   1.143   7.423   2.739
 5410TIP3    H116173   1.130   7.435   2.833
 5410TIP3    H216174   1.232   7.455   2.722
 5411TIP3   OH216175   7.772   3.945   2.650
 5411TIP3    H116176   7.730   3.878   2.703
 5411TIP3    H216177   7.768   3.912   2.560
 5412TIP3   OH216178   7.718   1.297   1.558
 5412TIP3    H116179   7.670   1.377   1.535
 5412TIP3    H216180   7.710   1.241   1.481
 5413TIP3   OH216181   4.827   7.213   2.387
 5413TIP3    H116182   4.803   7.178   2.301
 5413TIP3    H216183   4.845   7.135   2.440
 5414TIP3   OH216184   1.883   4.192   6.684
 5414TIP3    H116185   1.916   4.267   6.734
 5414TIP3    H216186   1.825   4.146   6.746
 5415TIP3   OH216187   0.648   1.893   1.586
 5415TIP3    H116188   0.722   1.897   1.525
 5415TIP3    H216189   0.571   1.912   1.533
 5416TIP3   OH216190   7.177   3.971   3.903
 5416TIP3    H116191   7.250   4.031   3.891
 5416TIP3    H216192   7.124   3.979   3.824
 5417TIP3   OH216193   6.776   3.044   0.280
 5417TIP3    H116194   6.825   3.120   0.310
 5417TIP3    H216195   6.700   3.081   0.234
 5418TIP3   OH216196   2.650   1.698   3.786
 5418TIP3    H116197   2.722   1.637   3.797
 5418TIP3    H216198   2.683   1.781   3.820
 5419TIP3   OH216199   2.953   2.006   3.332
 5419TIP3    H116200   3.030   1.987   3.278
 5419TIP3    H216201   2.894   2.053   3.273
 5420TIP3   OH216202   3.958   1.183   1.527
 5420TIP3    H116203   4.020   1.191   1.455
 5420TIP3    H216204   4.011   1.157   1.602
 5421TIP3   OH216205   6.858   5.668   1.498
 5421TIP3    H116206   6.876   5.678   1.405
 5421TIP3    H216207   6.897   5.745   1.538
 5422TIP3   OH216208   4.889   1.521   0.408
 5422TIP3    H116209   4.889   1.429   0.435
 5422TIP3    H216210   4.912   1.569   0.488
 5423TIP3   OH216211   4.836   7.260   4.777
 5423TIP3    H116212   4.894   7.319   4.729
 5423TIP3    H216213   4.830   7.182   4.721
 5424TIP3   OH216214   6.233   0.465   0.675
 5424TIP3    H116215   6.272   0.530   0.617
 5424TIP3    H216216   6.146   0.450   0.640
 5425TIP3   OH216217   4.457   6.847   2.049
 5425TIP3    H116218   4.435   6.792   1.973
 5425TIP3    H216219   4.377   6.895   2.068
 5426TIP3   OH216220   7.371   1.906   0.846
 5426TIP3    H116221   7.320   1.986   0.839
 5426TIP3    H216222   7.361   1.879   0.937
 5427TIP3   OH216223   5.063   5.715   3.099
 5427TIP3    H116224   4.979   5.722   3.054
 5427TIP3    H216225   5.051   5.641   3.159
 5428TIP3   OH216226   6.647   6.820   5.056
 5428TIP3    H116227   6.568   6.767   5.047
 5428TIP3    H216228   6.630   6.879   5.129
 5429TIP3   OH216229   6.124   1.750   6.467
 5429TIP3    H116230   6.087   1.684   6.409
 5429TIP3    H216231   6.049   1.782   6.518
 5430TIP3   OH216232   7.554   3.634   4.396
 5430TIP3    H116233   7.473   3.674   4.362
 5430TIP3    H216234   7.593   3.592   4.320
 5431TIP3   OH216235   1.346   5.065   5.895
 5431TIP3    H116236   1.294   5.024   5.964
 5431TIP3    H216237   1.400   4.994   5.861
 5432TIP3   OH216238   3.646   6.273   2.008
 5432TIP3    H116239   3.676   6.247   2.095
 5432TIP3    H216240   3.722   6.260   1.951
 5433TIP3   OH216241   5.555   7.425   3.823
 5433TIP3    H116242   5.560   7.389   3.911
 5433TIP3    H216243   5.518   7.513   3.835
 5434TIP3   OH216244   4.884   7.022   5.958
 5434TIP3    H116245   4.922   7.075   6.029
 5434TIP3    H216246   4.895   7.076   5.880
 5435TIP3   OH216247   5.940   7.347   3.431
 5435TIP3    H116248   6.003   7.386   3.492
 5435TIP3    H216249   5.887   7.289   3.486
 5436TIP3   OH216250   0.280   0.953   3.687
 5436TIP3    H116251   0.269   1.001   3.769
 5436TIP3    H216252   0.346   0.887   3.707
 5437TIP3   OH216253   2.000   7.083   3.641
 5437TIP3    H116254   1.925   7.083   3.702
 5437TIP3    H216255   1.993   7.000   3.594
 5438TIP3   OH216256   1.668   7.210   4.747
 5438TIP3    H116257   1.659   7.143   4.815
 5438TIP3    H216258   1.590   7.264   4.755
 5439TIP3   OH216259   1.822   2.476   0.422
 5439TIP3    H116260   1.840   2.568   0.403
 5439TIP3    H216261   1.806   2.474   0.516
 5440TIP3   OH216262   5.226   6.999   3.804
 5440TIP3    H116263   5.261   6.940   3.870
 5440TIP3    H216264   5.207   6.943   3.729
 5441TIP3   OH216265   4.447   0.456   0.551
 5441TIP3    H116266   4.399   0.530   0.587
 5441TIP3    H216267   4.530   0.493   0.521
 5442TIP3   OH216268   4.594   2.251   1.412
 5442TIP3    H116269   4.514   2.258   1.359
 5442TIP3    H216270   4.619   2.159   1.404
 5443TIP3   OH216271   2.251   6.331   3.503
 5443TIP3    H116272   2.254   6.404   3.565
 5443TIP3    H216273   2.317   6.270   3.535
 5444TIP3   OH216274   6.546   1.334   1.101
 5444TIP3    H116275   6.493   1.339   1.180
 5444TIP3    H216276   6.500   1.390   1.038
 5445TIP3   OH216277   6.049   5.565   1.034
 5445TIP3    H116278   6.113   5.596   1.098
 5445TIP3    H216279   6.006   5.644   1.002
 5446TIP3   OH216280   1.831   6.620   5.817
 5446TIP3    H116281   1.880   6.539   5.804
 5446TIP3    H216282   1.856   6.676   5.744
 5447TIP3   OH216283   0.907   0.598   4.991
 5447TIP3    H116284   0.972   0.669   4.998
 5447TIP3    H216285   0.944   0.540   4.924
 5448TIP3   OH216286   2.840   6.968   0.444
 5448TIP3    H116287   2.866   6.955   0.353
 5448TIP3    H216288   2.877   6.893   0.490
 5449TIP3   OH216289   5.158   0.471   2.368
 5449TIP3    H116290   5.175   0.380   2.346
 5449TIP3    H216291   5.067   0.486   2.344
 5450TIP3   OH216292   0.231   1.112   2.884
 5450TIP3    H116293   0.235   1.071   2.970
 5450TIP3    H216294   0.231   1.039   2.822
 5451TIP3   OH216295   0.822   7.221   5.639
 5451TIP3    H116296   0.772   7.242   5.560
 5451TIP3    H216297   0.770   7.258   5.710
 5452TIP3   OH216298   1.659   5.870   0.933
 5452TIP3    H116299   1.675   5.802   0.998
 5452TIP3    H216300   1.646   5.950   0.984
 5453TIP3   OH216301   7.870   0.894   1.309
 5453TIP3    H116302   7.951   0.943   1.323
 5453TIP3    H216303   7.894   0.827   1.245
 5454TIP3   OH216304   3.520   4.476   6.370
 5454TIP3    H116305   3.580   4.551   6.375
 5454TIP3    H216306   3.542   4.423   6.447
 5455TIP3   OH216307   1.574   4.711   4.956
 5455TIP3    H116308   1.597   4.637   4.900
 5455TIP3    H216309   1.659   4.745   4.987
 5456TIP3   OH216310   2.210   2.479   0.905
 5456TIP3    H116311   2.118   2.464   0.925
 5456TIP3    H216312   2.251   2.393   0.909
 5457TIP3   OH216313   3.786   0.608   5.650
 5457TIP3    H116314   3.731   0.563   5.586
 5457TIP3    H216315   3.828   0.538   5.699
 5458TIP3   OH216316   2.150   0.748   0.212
 5458TIP3    H116317   2.156   0.759   0.117
 5458TIP3    H216318   2.082   0.683   0.225
 5459TIP3   OH216319   0.907   2.958   0.000
 5459TIP3    H116320   0.961   2.911  -0.063
 5459TIP3    H216321   0.843   2.893   0.030
 5460TIP3   OH216322   4.725   3.177   6.336
 5460TIP3    H116323   4.754   3.087   6.318
 5460TIP3    H216324   4.669   3.200   6.261
 5461TIP3   OH216325   5.106   3.859   5.569
 5461TIP3    H116326   5.115   3.854   5.474
 5461TIP3    H216327   5.180   3.911   5.598
 5462TIP3   OH216328   4.391   7.482   5.814
 5462TIP3    H116329   4.338   7.512   5.740
 5462TIP3    H216330   4.336   7.418   5.859
 5463TIP3   OH216331   7.076   4.920   6.157
 5463TIP3    H116332   7.158   4.870   6.158
 5463TIP3    H216333   7.105   5.011   6.146
 5464TIP3   OH216334   6.627   6.970   1.953
 5464TIP3    H116335   6.604   6.878   1.940
 5464TIP3    H216336   6.652   7.001   1.866
 5465TIP3   OH216337   3.842   1.341   3.359
 5465TIP3    H116338   3.905   1.333   3.287
 5465TIP3    H216339   3.838   1.435   3.378
 5466TIP3   OH216340   0.837   7.060   3.739
 5466TIP3    H116341   0.828   7.099   3.826
 5466TIP3    H216342   0.930   7.063   3.720
 5467TIP3   OH216343   2.521   1.931   1.457
 5467TIP3    H116344   2.582   1.875   1.408
 5467TIP3    H216345   2.464   1.968   1.389
 5468TIP3   OH216346   4.887   7.648   1.071
 5468TIP3    H116347   4.933   7.683   1.147
 5468TIP3    H216348   4.795   7.650   1.095
 5469TIP3   OH216349   1.575   6.593   2.600
 5469TIP3    H116350   1.638   6.636   2.542
 5469TIP3    H216351   1.623   6.519   2.637
 5470TIP3   OH216352   7.483   2.002   4.317
 5470TIP3    H116353   7.458   1.911   4.333
 5470TIP3    H216354   7.563   1.996   4.264
 5471TIP3   OH216355   2.500   6.075   0.553
 5471TIP3    H116356   2.436   6.017   0.513
 5471TIP3    H216357   2.477   6.076   0.646
 5472TIP3   OH216358   7.367   5.264   0.097
 5472TIP3    H116359   7.311   5.218   0.160
 5472TIP3    H216360   7.348   5.222   0.013
 5473TIP3   OH216361   6.699   6.540   3.481
 5473TIP3    H116362   6.608   6.554   3.509
 5473TIP3    H216363   6.701   6.567   3.390
 5474TIP3   OH216364   2.103   0.142   0.879
 5474TIP3    H116365   2.075   0.050   0.882
 5474TIP3    H216366   2.132   0.162   0.968
 5475TIP3   OH216367   4.644   4.342   5.982
 5475TIP3    H116368   4.674   4.335   5.891
 5475TIP3    H216369   4.704   4.287   6.032
 5476TIP3   OH216370   6.974   2.965   0.980
 5476TIP3    H116371   7.062   2.930   0.997
 5476TIP3    H216372   6.953   3.017   1.057
 5477TIP3   OH216373   1.006   0.166   4.388
 5477TIP3    H116374   0.946   0.137   4.319
 5477TIP3    H216375   0.968   0.132   4.469
 5478TIP3   OH216376   2.331   2.854   3.381
 5478TIP3    H116377   2.259   2.871   3.320
 5478TIP3    H216378   2.371   2.939   3.395
 5479TIP3   OH216379   4.331   7.152   6.167
 5479TIP3    H116380   4.369   7.072   6.204
 5479TIP3    H216381   4.324   7.134   6.074
 5480TIP3   OH216382   1.500   6.379   1.073
 5480TIP3    H116383   1.471   6.452   1.128
 5480TIP3    H216384   1.443   6.383   0.997
 5481TIP3   OH216385   4.819   4.850   1.629
 5481TIP3    H116386   4.851   4.900   1.704
 5481TIP3    H216387   4.873   4.879   1.556
 5482TIP3   OH216388   3.219   4.135   1.493
 5482TIP3    H116389   3.165   4.060   1.518
 5482TIP3    H216390   3.275   4.103   1.423
 5483TIP3   OH216391   5.883   4.140   3.374
 5483TIP3    H116392   5.795   4.110   3.351
 5483TIP3    H216393   5.935   4.126   3.294
 5484TIP3   OH216394   6.155   4.992   2.784
 5484TIP3    H116395   6.150   5.083   2.812
 5484TIP3    H216396   6.247   4.979   2.760
 5485TIP3   OH216397   5.864   0.826   0.641
 5485TIP3    H116398   5.836   0.916   0.628
 5485TIP3    H216399   5.886   0.794   0.553
 5486TIP3   OH216400   4.720   3.430   4.949
 5486TIP3    H116401   4.756   3.344   4.926
 5486TIP3    H216402   4.787   3.470   5.004
 5487TIP3   OH216403   0.560   2.566   4.788
 5487TIP3    H116404   0.465   2.570   4.775
 5487TIP3    H216405   0.594   2.640   4.737
 5488TIP3   OH216406   4.777   5.281   6.034
 5488TIP3    H116407   4.866   5.247   6.030
 5488TIP3    H216408   4.764   5.321   5.948
 5489TIP3   OH216409   3.400   4.422   5.848
 5489TIP3    H116410   3.366   4.500   5.892
 5489TIP3    H216411   3.381   4.350   5.908
 5490TIP3   OH216412   5.109   2.208   4.783
 5490TIP3    H116413   5.117   2.116   4.761
 5490TIP3    H216414   5.199   2.239   4.791
 5491TIP3   OH216415   6.471   0.444   4.959
 5491TIP3    H116416   6.376   0.446   4.961
 5491TIP3    H216417   6.494   0.488   4.877
 5492TIP3   OH216418   8.212   6.206   4.314
 5492TIP3    H116419   8.278   6.270   4.341
 5492TIP3    H216420   8.189   6.161   4.395
 5493TIP3   OH216421   0.942   2.890   2.875
 5493TIP3    H116422   0.920   2.977   2.843
 5493TIP3    H216423   0.868   2.835   2.850
 5494TIP3   OH216424   8.111   3.624   3.196
 5494TIP3    H116425   8.072   3.708   3.220
 5494TIP3    H216426   8.164   3.643   3.119
 5495TIP3   OH216427   4.310   3.392   3.005
 5495TIP3    H116428   4.237   3.330   3.015
 5495TIP3    H216429   4.283   3.469   3.055
 5496TIP3   OH216430   7.947   5.044   6.276
 5496TIP3    H116431   8.007   4.973   6.252
 5496TIP3    H216432   7.876   5.000   6.323
 5497TIP3   OH216433   4.353   3.799   6.265
 5497TIP3    H116434   4.299   3.872   6.294
 5497TIP3    H216435   4.339   3.731   6.330
 5498TIP3   OH216436   2.103   6.860   0.381
 5498TIP3    H116437   2.009   6.856   0.360
 5498TIP3    H216438   2.119   6.954   0.395
 5499TIP3   OH216439   1.380   4.168   2.987
 5499TIP3    H116440   1.401   4.086   2.943
 5499TIP3    H216441   1.431   4.234   2.941
 5500TIP3   OH216442   7.245   6.499   4.884
 5500TIP3    H116443   7.309   6.530   4.820
 5500TIP3    H216444   7.182   6.448   4.833
 5501TIP3   OH216445   6.332   6.810   0.000
 5501TIP3    H116446   6.249   6.854   0.020
 5501TIP3    H216447   6.399   6.871   0.031
 5502TIP3   OH216448   6.822   2.076   3.329
 5502TIP3    H116449   6.892   2.070   3.264
 5502TIP3    H216450   6.779   1.991   3.327
 5503TIP3   OH216451   2.979   1.208   4.981
 5503TIP3    H116452   2.886   1.209   4.958
 5503TIP3    H216453   3.002   1.300   4.991
 5504TIP3   OH216454   7.775   7.723   3.269
 5504TIP3    H116455   7.856   7.671   3.270
 5504TIP3    H216456   7.784   7.782   3.343
 5505TIP3   OH216457   2.724   3.094   4.215
 5505TIP3    H116458   2.772   3.066   4.293
 5505TIP3    H216459   2.773   3.170   4.183
 5506TIP3   OH216460   3.358   2.786   3.581
 5506TIP3    H116461   3.314   2.870   3.565
 5506TIP3    H216462   3.330   2.761   3.669
 5507TIP3   OH216463   3.445   4.724   1.726
 5507TIP3    H116464   3.444   4.819   1.737
 5507TIP3    H216465   3.457   4.711   1.632
 5508TIP3   OH216466   1.435   6.519   1.818
 5508TIP3    H116467   1.473   6.466   1.888
 5508TIP3    H216468   1.363   6.466   1.784
 5509TIP3   OH216469   6.155   2.258   4.452
 5509TIP3    H116470   6.177   2.165   4.462
 5509TIP3    H216471   6.154   2.292   4.541
 5510TIP3   OH216472   3.525   4.058   6.745
 5510TIP3    H116473   3.522   4.153   6.756
 5510TIP3    H216474   3.539   4.046   6.651
 5511TIP3   OH216475   8.042   3.379   4.420
 5511TIP3    H116476   7.968   3.341   4.373
 5511TIP3    H216477   8.088   3.432   4.354
 5512TIP3   OH216478   2.719   2.835   5.941
 5512TIP3    H116479   2.698   2.903   6.004
 5512TIP3    H216480   2.800   2.796   5.974
 5513TIP3   OH216481   1.859   2.188   5.652
 5513TIP3    H116482   1.888   2.221   5.737
 5513TIP3    H216483   1.938   2.185   5.599
 5514TIP3   OH216484   0.393   7.337   6.088
 5514TIP3    H116485   0.466   7.384   6.129
 5514TIP3    H216486   0.384   7.257   6.140
 5515TIP3   OH216487   3.930   1.614   6.141
 5515TIP3    H116488   3.958   1.688   6.196
 5515TIP3    H216489   3.930   1.649   6.052
 5516TIP3   OH216490   7.620   4.064   0.523
 5516TIP3    H116491   7.549   4.091   0.581
 5516TIP3    H216492   7.651   3.982   0.561
 5517TIP3   OH216493   0.628   5.278   3.384
 5517TIP3    H116494   0.715   5.279   3.422
 5517TIP3    H216495   0.608   5.370   3.367
 5518TIP3   OH216496   1.813   2.789   5.741
 5518TIP3    H116497   1.739   2.750   5.695
 5518TIP3    H216498   1.878   2.805   5.672
 5519TIP3   OH216499   8.192   1.734   4.256
 5519TIP3    H116500   8.275   1.767   4.290
 5519TIP3    H216501   8.216   1.676   4.184
 5520TIP3   OH216502   7.895   6.771   5.411
 5520TIP3    H116503   7.823   6.708   5.413
 5520TIP3    H216504   7.974   6.717   5.409
 5521TIP3   OH216505   6.952   6.704   3.520
 5521TIP3    H116506   6.968   6.740   3.432
 5521TIP3    H216507   6.873   6.650   3.510
 5522TIP3   OH216508   4.153   2.434   6.372
 5522TIP3    H116509   4.117   2.356   6.329
 5522TIP3    H216510   4.225   2.461   6.315
 5523TIP3   OH216511   4.150   3.785   2.202
 5523TIP3    H116512   4.212   3.717   2.176
 5523TIP3    H216513   4.205   3.857   2.234
 5524TIP3   OH216514   4.890   3.884   2.287
 5524TIP3    H116515   4.974   3.874   2.332
 5524TIP3    H216516   4.895   3.970   2.246
 5525TIP3   OH216517   3.263   7.316   2.122
 5525TIP3    H116518   3.267   7.411   2.124
 5525TIP3    H216519   3.259   7.293   2.029
 5526TIP3   OH216520   2.368   1.592   4.132
 5526TIP3    H116521   2.423   1.671   4.133
 5526TIP3    H216522   2.332   1.588   4.221
 5527TIP3   OH216523   5.011   0.199   1.325
 5527TIP3    H116524   4.935   0.201   1.382
 5527TIP3    H216525   4.981   0.244   1.245
 5528TIP3   OH216526   4.358   5.043   4.993
 5528TIP3    H116527   4.262   5.040   4.998
 5528TIP3    H216528   4.387   4.967   5.043
 5529TIP3   OH216529   3.956   0.149   2.616
 5529TIP3    H116530   4.014   0.120   2.546
 5529TIP3    H216531   3.919   0.231   2.584
 5530TIP3   OH216532   2.060   3.519   1.146
 5530TIP3    H116533   1.988   3.485   1.199
 5530TIP3    H216534   2.028   3.513   1.056
 5531TIP3   OH216535   5.538   1.332   1.561
 5531TIP3    H116536   5.571   1.402   1.617
 5531TIP3    H216537   5.446   1.353   1.547
 5532TIP3   OH216538   1.603   2.163   5.562
 5532TIP3    H116539   1.572   2.253   5.550
 5532TIP3    H216540   1.694   2.173   5.592
 5533TIP3   OH216541   3.757   2.979   2.335
 5533TIP3    H116542   3.697   3.037   2.381
 5533TIP3    H216543   3.815   2.945   2.404
 5534TIP3   OH216544   0.731   3.598   1.295
 5534TIP3    H116545   0.820   3.568   1.312
 5534TIP3    H216546   0.676   3.522   1.315
 5535TIP3   OH216547   7.064   7.258   2.793
 5535TIP3    H116548   7.154   7.260   2.825
 5535TIP3    H216549   7.053   7.341   2.747
 5536TIP3   OH216550   2.070   3.807   6.661
 5536TIP3    H116551   2.059   3.782   6.753
 5536TIP3    H216552   2.011   3.748   6.613
 5537TIP3   OH216553   7.298   6.159   2.906
 5537TIP3    H116554   7.390   6.158   2.881
 5537TIP3    H216555   7.254   6.108   2.838
 5538TIP3   OH216556   6.702   3.427   6.238
 5538TIP3    H116557   6.657   3.510   6.224
 5538TIP3    H216558   6.791   3.442   6.204
 5539TIP3   OH216559   1.948   6.383   5.758
 5539TIP3    H116560   1.917   6.294   5.745
 5539TIP3    H216561   2.040   6.381   5.730
 5540TIP3   OH216562   5.749   1.631   2.302
 5540TIP3    H116563   5.754   1.726   2.318
 5540TIP3    H216564   5.669   1.620   2.251
 5541TIP3   OH216565   1.458   1.977   1.962
 5541TIP3    H116566   1.502   2.053   2.000
 5541TIP3    H216567   1.523   1.941   1.901
 5542TIP3   OH216568   0.978   3.556   6.679
 5542TIP3    H116569   0.984   3.520   6.768
 5542TIP3    H216570   1.069   3.566   6.651
 5543TIP3   OH216571   7.145   0.267   0.077
 5543TIP3    H116572   7.142   0.323   0.000
 5543TIP3    H216573   7.131   0.326   0.151
 5544TIP3   OH216574   0.315   2.632   0.279
 5544TIP3    H116575   0.228   2.666   0.260
 5544TIP3    H216576   0.319   2.625   0.374
 5545TIP3   OH216577   5.965   4.954   6.189
 5545TIP3    H116578   5.891   4.966   6.248
 5545TIP3    H216579   6.013   4.879   6.226
 5546TIP3   OH216580   2.975   1.305   0.787
 5546TIP3    H116581   2.931   1.387   0.807
 5546TIP3    H216582   3.059   1.331   0.750
 5547TIP3   OH216583   2.249   3.814   6.046
 5547TIP3    H116584   2.235   3.748   5.978
 5547TIP3    H216585   2.313   3.874   6.009
 5548TIP3   OH216586   6.061   0.966   2.825
 5548TIP3    H116587   6.008   1.042   2.802
 5548TIP3    H216588   6.138   0.972   2.768
 5549TIP3   OH216589   7.445   7.634   2.134
 5549TIP3    H116590   7.431   7.717   2.179
 5549TIP3    H216591   7.507   7.655   2.064
 5550TIP3   OH216592   3.808   6.535   0.940
 5550TIP3    H116593   3.892   6.537   0.894
 5550TIP3    H216594   3.743   6.545   0.871
 5551TIP3   OH216595   6.429   0.833   1.693
 5551TIP3    H116596   6.490   0.847   1.621
 5551TIP3    H216597   6.380   0.915   1.700
 5552TIP3   OH216598   2.432   3.329   3.809
 5552TIP3    H116599   2.527   3.336   3.816
 5552TIP3    H216600   2.411   3.251   3.860
 5553TIP3   OH216601   1.686   4.490   4.066
 5553TIP3    H116602   1.605   4.450   4.032
 5553TIP3    H216603   1.755   4.456   4.008
 5554TIP3   OH216604   6.201   7.642   0.642
 5554TIP3    H116605   6.116   7.599   0.632
 5554TIP3    H216606   6.244   7.591   0.711
 5555TIP3   OH216607   3.477   5.114   2.642
 5555TIP3    H116608   3.519   5.189   2.683
 5555TIP3    H216609   3.455   5.055   2.715
 5556TIP3   OH216610   7.580   3.012   0.786
 5556TIP3    H116611   7.594   3.105   0.767
 5556TIP3    H216612   7.664   2.982   0.820
 5557TIP3   OH216613   7.237   2.049   3.443
 5557TIP3    H116614   7.170   2.116   3.458
 5557TIP3    H216615   7.211   1.976   3.499
 5558TIP3   OH216616   2.751   5.831   2.987
 5558TIP3    H116617   2.770   5.822   3.080
 5558TIP3    H216618   2.657   5.812   2.979
 5559TIP3   OH216619   7.735   5.451   4.541
 5559TIP3    H116620   7.734   5.528   4.598
 5559TIP3    H216621   7.718   5.486   4.454
 5560TIP3   OH216622   0.611   2.307   3.962
 5560TIP3    H116623   0.611   2.344   4.050
 5560TIP3    H216624   0.703   2.293   3.941
 5561TIP3   OH216625   5.288   1.294   3.837
 5561TIP3    H116626   5.199   1.284   3.803
 5561TIP3    H216627   5.277   1.304   3.931
 5562TIP3   OH216628   3.904   4.097   5.800
 5562TIP3    H116629   3.847   4.025   5.774
 5562TIP3    H216630   3.851   4.148   5.862
 5563TIP3   OH216631   5.606   6.188   1.907
 5563TIP3    H116632   5.622   6.106   1.859
 5563TIP3    H216633   5.514   6.208   1.889
 5564TIP3   OH216634   4.590   7.131   3.718
 5564TIP3    H116635   4.596   7.038   3.696
 5564TIP3    H216636   4.502   7.157   3.691
 5565TIP3   OH216637   0.630   0.250   0.974
 5565TIP3    H116638   0.573   0.200   1.032
 5565TIP3    H216639   0.715   0.208   0.983
 5566TIP3   OH216640   2.557   4.176   5.185
 5566TIP3    H116641   2.644   4.215   5.192
 5566TIP3    H216642   2.556   4.105   5.250
 5567TIP3   OH216643   1.265   7.201   1.881
 5567TIP3    H116644   1.176   7.237   1.875
 5567TIP3    H216645   1.296   7.198   1.791
 5568TIP3   OH216646   2.732   0.027   3.011
 5568TIP3    H116647   2.661  -0.035   3.028
 5568TIP3    H216648   2.691   0.096   2.958
 5569TIP3   OH216649   2.573   2.177   3.364
 5569TIP3    H116650   2.571   2.200   3.457
 5569TIP3    H216651   2.567   2.260   3.318
 5570TIP3   OH216652   7.232   7.295   3.394
 5570TIP3    H116653   7.254   7.217   3.445
 5570TIP3    H216654   7.279   7.367   3.436
 5571TIP3   OH216655   8.050   1.748   5.467
 5571TIP3    H116656   7.964   1.781   5.440
 5571TIP3    H216657   8.107   1.766   5.392
 5572TIP3   OH216658   2.090   4.238   4.897
 5572TIP3    H116659   2.052   4.248   4.810
 5572TIP3    H216660   2.082   4.324   4.937
 5573TIP3   OH216661   8.017   5.009   4.318
 5573TIP3    H116662   7.955   5.052   4.259
 5573TIP3    H216663   7.988   4.918   4.321
 5574TIP3   OH216664   5.207   0.880   1.721
 5574TIP3    H116665   5.238   0.890   1.811
 5574TIP3    H216666   5.129   0.825   1.729
 5575TIP3   OH216667   2.137   1.525   1.010
 5575TIP3    H116668   2.110   1.535   1.101
 5575TIP3    H216669   2.170   1.435   1.005
 5576TIP3   OH216670   6.717   1.573   5.373
 5576TIP3    H116671   6.692   1.663   5.394
 5576TIP3    H216672   6.676   1.520   5.441
 5577TIP3   OH216673   2.934   4.935   0.843
 5577TIP3    H116674   2.906   4.915   0.753
 5577TIP3    H216675   2.905   4.860   0.894
 5578TIP3   OH216676   6.232   6.027   3.016
 5578TIP3    H116677   6.218   6.081   3.093
 5578TIP3    H216678   6.305   6.070   2.970
 5579TIP3   OH216679   1.603   4.994   1.084
 5579TIP3    H116680   1.555   5.075   1.102
 5579TIP3    H216681   1.664   4.985   1.157
 5580TIP3   OH216682   4.285   3.627   6.469
 5580TIP3    H116683   4.375   3.604   6.491
 5580TIP3    H216684   4.243   3.641   6.555
 5581TIP3   OH216685   7.302   3.394   5.271
 5581TIP3    H116686   7.333   3.455   5.204
 5581TIP3    H216687   7.331   3.308   5.240
 5582TIP3   OH216688   0.123   7.366   4.765
 5582TIP3    H116689   0.102   7.318   4.685
 5582TIP3    H216690   0.056   7.339   4.828
 5583TIP3   OH216691   5.427   4.911   2.332
 5583TIP3    H116692   5.423   4.904   2.427
 5583TIP3    H216693   5.462   4.826   2.303
 5584TIP3   OH216694   6.808   5.637   0.688
 5584TIP3    H116695   6.745   5.571   0.718
 5584TIP3    H216696   6.858   5.593   0.619
 5585TIP3   OH216697   8.249   6.923   2.628
 5585TIP3    H116698   8.263   6.959   2.540
 5585TIP3    H216699   8.232   7.000   2.683
 5586TIP3   OH216700   5.224   5.998   5.379
 5586TIP3    H116701   5.287   6.067   5.356
 5586TIP3    H216702   5.274   5.916   5.370
 5587TIP3   OH216703   2.988   5.155   3.797
 5587TIP3    H116704   3.000   5.183   3.707
 5587TIP3    H216705   2.960   5.064   3.790
 5588TIP3   OH216706   5.206   3.227   0.400
 5588TIP3    H116707   5.156   3.295   0.355
 5588TIP3    H216708   5.142   3.159   0.420
 5589TIP3   OH216709   4.910   1.340   5.691
 5589TIP3    H116710   4.972   1.360   5.761
 5589TIP3    H216711   4.958   1.283   5.632
 5590TIP3   OH216712   1.751   6.285   4.342
 5590TIP3    H116713   1.677   6.225   4.338
 5590TIP3    H216714   1.819   6.238   4.390
 5591TIP3   OH216715   7.732   2.483   1.065
 5591TIP3    H116716   7.790   2.408   1.047
 5591TIP3    H216717   7.645   2.451   1.042
 5592TIP3   OH216718   7.631   3.528   2.451
 5592TIP3    H116719   7.726   3.516   2.462
 5592TIP3    H216720   7.622   3.558   2.361
 5593TIP3   OH216721   8.101   1.129   6.142
 5593TIP3    H116722   8.027   1.119   6.083
 5593TIP3    H216723   8.070   1.189   6.210
 5594TIP3   OH216724   2.897   6.574   2.876
 5594TIP3    H116725   2.845   6.507   2.830
 5594TIP3    H216726   2.976   6.527   2.904
 5595TIP3   OH216727   2.308   7.664   2.806
 5595TIP3    H116728   2.231   7.721   2.802
 5595TIP3    H216729   2.294   7.601   2.736
 5596TIP3   OH216730   2.772   0.292  -0.025
 5596TIP3    H116731   2.862   0.296  -0.058
 5596TIP3    H216732   2.776   0.338   0.059
 5597TIP3   OH216733   8.270   0.281   0.638
 5597TIP3    H116734   8.218   0.252   0.713
 5597TIP3    H216735   8.323   0.353   0.671
 5598TIP3   OH216736   3.344   7.323   3.556
 5598TIP3    H116737   3.330   7.298   3.647
 5598TIP3    H216738   3.294   7.404   3.545
 5599TIP3   OH216739   1.292   3.748   1.555
 5599TIP3    H116740   1.345   3.784   1.627
 5599TIP3    H216741   1.300   3.813   1.485
 5600TIP3   OH216742   4.961   6.368   0.791
 5600TIP3    H116743   4.904   6.293   0.806
 5600TIP3    H216744   4.981   6.364   0.697
 5601TIP3   OH216745   3.072   3.649   4.143
 5601TIP3    H116746   3.160   3.679   4.164
 5601TIP3    H216747   3.084   3.559   4.111
 5602TIP3   OH216748   5.558   4.236   5.283
 5602TIP3    H116749   5.637   4.271   5.323
 5602TIP3    H216750   5.490   4.299   5.305
 5603TIP3   OH216751   5.769   0.513   1.180
 5603TIP3    H116752   5.843   0.489   1.236
 5603TIP3    H216753   5.730   0.590   1.223
 5604TIP3   OH216754   4.658   5.859   0.969
 5604TIP3    H116755   4.607   5.851   0.888
 5604TIP3    H216756   4.738   5.810   0.952
 5605TIP3   OH216757   3.978   5.301   0.743
 5605TIP3    H116758   3.952   5.310   0.651
 5605TIP3    H216759   3.952   5.212   0.766
 5606TIP3   OH216760   7.649   1.811   3.144
 5606TIP3    H116761   7.674   1.898   3.112
 5606TIP3    H216762   7.685   1.751   3.079
 5607TIP3   OH216763   6.179   5.117   2.053
 5607TIP3    H116764   6.115   5.060   2.011
 5607TIP3    H216765   6.149   5.206   2.032
 5608TIP3   OH216766   7.353   0.261   1.835
 5608TIP3    H116767   7.429   0.316   1.818
 5608TIP3    H216768   7.355   0.246   1.930
 5609TIP3   OH216769   3.651   5.765   1.106
 5609TIP3    H116770   3.616   5.851   1.129
 5609TIP3    H216771   3.673   5.725   1.189
 5610TIP3   OH216772   8.129   1.104   1.539
 5610TIP3    H116773   8.070   1.177   1.562
 5610TIP3    H216774   8.104   1.080   1.450
 5611TIP3   OH216775   3.842   3.839   6.044
 5611TIP3    H116776   3.816   3.811   5.956
 5611TIP3    H216777   3.885   3.763   6.082
 5612TIP3   OH216778   5.514   0.341   2.384
 5612TIP3    H116779   5.541   0.314   2.296
 5612TIP3    H216780   5.459   0.418   2.369
 5613TIP3   OH216781   4.519   2.359   6.129
 5613TIP3    H116782   4.508   2.388   6.039
 5613TIP3    H216783   4.613   2.351   6.142
 5614TIP3   OH216784   4.650   7.451   4.608
 5614TIP3    H116785   4.626   7.535   4.649
 5614TIP3    H216786   4.743   7.461   4.589
 5615TIP3   OH216787   4.718   4.128   3.430
 5615TIP3    H116788   4.747   4.044   3.464
 5615TIP3    H216789   4.798   4.180   3.420
 5616TIP3   OH216790   4.813   0.388   3.284
 5616TIP3    H116791   4.888   0.386   3.344
 5616TIP3    H216792   4.754   0.320   3.318
 5617TIP3   OH216793   6.227   1.166   3.153
 5617TIP3    H116794   6.178   1.096   3.196
 5617TIP3    H216795   6.162   1.209   3.097
 5618TIP3   OH216796   8.211   3.069   2.618
 5618TIP3    H116797   8.225   3.121   2.539
 5618TIP3    H216798   8.248   3.122   2.689
 5619TIP3   OH216799   0.562   6.687   2.740
 5619TIP3    H116800   0.547   6.754   2.673
 5619TIP3    H216801   0.518   6.609   2.707
 5620TIP3   OH216802   7.429   2.290   2.462
 5620TIP3    H116803   7.452   2.213   2.410
 5620TIP3    H216804   7.335   2.281   2.480
 5621TIP3   OH216805   1.811   3.551   5.312
 5621TIP3    H116806   1.875   3.616   5.283
 5621TIP3    H216807   1.848   3.517   5.394
 5622TIP3   OH216808   5.350   2.296   2.223
 5622TIP3    H116809   5.387   2.321   2.308
 5622TIP3    H216810   5.257   2.284   2.241
 5623TIP3   OH216811   8.274   4.652   6.630
 5623TIP3    H116812   8.184   4.663   6.600
 5623TIP3    H216813   8.267   4.594   6.705
 5624TIP3   OH216814   3.538   4.880   5.049
 5624TIP3    H116815   3.468   4.857   4.987
 5624TIP3    H216816   3.503   4.954   5.098
 5625TIP3   OH216817   6.676   0.805   6.206
 5625TIP3    H116818   6.667   0.752   6.285
 5625TIP3    H216819   6.682   0.740   6.135
 5626TIP3   OH216820   8.103   2.228   5.086
 5626TIP3    H116821   8.163   2.164   5.123
 5626TIP3    H216822   8.097   2.297   5.151
 5627TIP3   OH216823   4.397   1.612   1.892
 5627TIP3    H116824   4.390   1.613   1.988
 5627TIP3    H216825   4.484   1.647   1.874
 5628TIP3   OH216826   7.357   1.821   3.725
 5628TIP3    H116827   7.409   1.760   3.672
 5628TIP3    H216828   7.272   1.825   3.681
 5629TIP3   OH216829   1.673   0.370   4.158
 5629TIP3    H116830   1.760   0.373   4.118
 5629TIP3    H216831   1.614   0.398   4.088
 5630TIP3   OH216832   6.728   3.474   3.789
 5630TIP3    H116833   6.787   3.537   3.830
 5630TIP3    H216834   6.782   3.396   3.776
 5631TIP3   OH216835   2.682   6.590   4.192
 5631TIP3    H116836   2.587   6.592   4.181
 5631TIP3    H216837   2.714   6.668   4.147
 5632TIP3   OH216838   4.430   0.413   6.807
 5632TIP3    H116839   4.375   0.434   6.731
 5632TIP3    H216840   4.474   0.331   6.782
 5633TIP3   OH216841   5.972   6.677   2.463
 5633TIP3    H116842   6.015   6.607   2.413
 5633TIP3    H216843   5.890   6.692   2.416
 5634TIP3   OH216844   5.819   1.317   0.078
 5634TIP3    H116845   5.844   1.372   0.004
 5634TIP3    H216846   5.884   1.246   0.078
 5635TIP3   OH216847   5.721   5.500   6.212
 5635TIP3    H116848   5.726   5.591   6.239
 5635TIP3    H216849   5.690   5.453   6.289
 5636TIP3   OH216850   6.818   5.704   4.366
 5636TIP3    H116851   6.772   5.767   4.311
 5636TIP3    H216852   6.815   5.622   4.318
 5637TIP3   OH216853   3.663   6.472   6.420
 5637TIP3    H116854   3.642   6.394   6.472
 5637TIP3    H216855   3.758   6.470   6.410
 5638TIP3   OH216856   7.434   5.388   5.507
 5638TIP3    H116857   7.509   5.328   5.505
 5638TIP3    H216858   7.440   5.430   5.593
 5639TIP3   OH216859   5.953   4.538   3.834
 5639TIP3    H116860   5.999   4.622   3.837
 5639TIP3    H216861   6.012   4.477   3.878
 5640TIP3   OH216862   6.802   5.472   2.887
 5640TIP3    H116863   6.747   5.447   2.812
 5640TIP3    H216864   6.747   5.456   2.964
 5641TIP3   OH216865   0.364   3.106   6.379
 5641TIP3    H116866   0.455   3.124   6.404
 5641TIP3    H216867   0.349   3.162   6.303
 5642TIP3   OH216868   4.738   0.246   4.551
 5642TIP3    H116869   4.742   0.318   4.489
 5642TIP3    H216870   4.653   0.254   4.593
 5643TIP3   OH216871   7.288   1.145   1.857
 5643TIP3    H116872   7.372   1.179   1.825
 5643TIP3    H216873   7.305   1.125   1.949
 5644TIP3   OH216874   1.891   4.111   4.324
 5644TIP3    H116875   1.924   4.200   4.339
 5644TIP3    H216876   1.806   4.123   4.283
 5645TIP3   OH216877   0.568   0.111   0.672
 5645TIP3    H116878   0.595   0.019   0.669
 5645TIP3    H216879   0.611   0.146   0.751
 5646TIP3   OH216880   5.437   7.845   6.130
 5646TIP3    H116881   5.519   7.796   6.126
 5646TIP3    H216882   5.396   7.830   6.046
 5647TIP3   OH216883   7.222   7.345   5.506
 5647TIP3    H116884   7.163   7.372   5.575
 5647TIP3    H216885   7.175   7.364   5.425
 5648TIP3   OH216886   6.551   2.846   1.657
 5648TIP3    H116887   6.465   2.867   1.620
 5648TIP3    H216888   6.597   2.929   1.660
 5649TIP3   OH216889   5.540   4.579   4.595
 5649TIP3    H116890   5.569   4.653   4.542
 5649TIP3    H216891   5.581   4.502   4.554
 5650TIP3   OH216892   0.016   0.695   3.959
 5650TIP3    H116893   0.104   0.665   3.982
 5650TIP3    H216894  -0.004   0.764   4.022
 5651TIP3   OH216895   5.862   2.526   1.578
 5651TIP3    H116896   5.928   2.537   1.647
 5651TIP3    H216897   5.818   2.611   1.573
 5652TIP3   OH216898   3.020   4.547   5.222
 5652TIP3    H116899   3.037   4.641   5.230
 5652TIP3    H216900   2.932   4.542   5.183
 5653TIP3   OH216901   2.996   2.782   5.021
 5653TIP3    H116902   3.088   2.796   4.999
 5653TIP3    H216903   2.992   2.692   5.053
 5654TIP3   OH216904   3.027   4.293   2.848
 5654TIP3    H116905   3.068   4.324   2.929
 5654TIP3    H216906   3.080   4.333   2.778
 5655TIP3   OH216907   4.505   6.652   5.936
 5655TIP3    H116908   4.549   6.581   5.982
 5655TIP3    H216909   4.575   6.699   5.890
 5656TIP3   OH216910   7.685   7.497   0.774
 5656TIP3    H116911   7.761   7.445   0.749
 5656TIP3    H216912   7.623   7.485   0.702
 5657TIP3   OH216913   1.225   6.138   2.354
 5657TIP3    H116914   1.185   6.069   2.302
 5657TIP3    H216915   1.159   6.160   2.420
 5658TIP3   OH216916   3.003   3.344   5.878
 5658TIP3    H116917   2.953   3.420   5.849
 5658TIP3    H216918   3.012   3.356   5.972
 5659TIP3   OH216919   3.421   4.337   0.274
 5659TIP3    H116920   3.364   4.277   0.225
 5659TIP3    H216921   3.442   4.406   0.211
 5660TIP3   OH216922   1.911   6.519   2.755
 5660TIP3    H116923   1.983   6.486   2.809
 5660TIP3    H216924   1.928   6.482   2.668
 5661TIP3   OH216925   0.960   3.393   5.120
 5661TIP3    H116926   0.922   3.400   5.033
 5661TIP3    H216927   0.980   3.483   5.146
 5662TIP3   OH216928   1.433   0.500   6.377
 5662TIP3    H116929   1.506   0.543   6.333
 5662TIP3    H216930   1.405   0.562   6.444
 5663TIP3   OH216931   5.119   4.730   6.716
 5663TIP3    H116932   5.027   4.735   6.690
 5663TIP3    H216933   5.137   4.637   6.724
 5664TIP3   OH216934   0.661   4.480   1.083
 5664TIP3    H116935   0.711   4.560   1.071
 5664TIP3    H216936   0.719   4.410   1.051
 5665TIP3   OH216937   1.025   5.478   2.425
 5665TIP3    H116938   1.107   5.481   2.375
 5665TIP3    H216939   0.989   5.391   2.408
 5666TIP3   OH216940   7.494   2.359   4.880
 5666TIP3    H116941   7.465   2.357   4.789
 5666TIP3    H216942   7.531   2.446   4.892
 5667TIP3   OH216943   7.050   4.424   1.575
 5667TIP3    H116944   7.044   4.517   1.555
 5667TIP3    H216945   6.962   4.400   1.605
 5668TIP3   OH216946   2.175   6.721   5.181
 5668TIP3    H116947   2.230   6.767   5.117
 5668TIP3    H216948   2.086   6.730   5.148
 5669TIP3   OH216949   4.138   4.041   1.004
 5669TIP3    H116950   4.191   3.999   1.072
 5669TIP3    H216951   4.201   4.090   0.951
 5670TIP3   OH216952   1.924   0.479   4.673
 5670TIP3    H116953   1.838   0.439   4.686
 5670TIP3    H216954   1.906   0.557   4.619
 5671TIP3   OH216955   1.987   3.410   6.657
 5671TIP3    H116956   1.984   3.318   6.683
 5671TIP3    H216957   2.059   3.447   6.708
 5672TIP3   OH216958   0.196   0.406   6.590
 5672TIP3    H116959   0.283   0.438   6.568
 5672TIP3    H216960   0.138   0.451   6.529
 5673TIP3   OH216961   8.004   3.145   3.564
 5673TIP3    H116962   7.938   3.077   3.549
 5673TIP3    H216963   8.018   3.184   3.478
 5674TIP3   OH216964   8.256   2.821   0.987
 5674TIP3    H116965   8.341   2.777   1.001
 5674TIP3    H216966   8.244   2.820   0.892
 5675TIP3   OH216967   0.166   7.638   6.235
 5675TIP3    H116968   0.185   7.628   6.142
 5675TIP3    H216969   0.089   7.583   6.250
 5676TIP3   OH216970   0.361   3.223   3.384
 5676TIP3    H116971   0.307   3.294   3.348
 5676TIP3    H216972   0.374   3.163   3.310
 5677TIP3   OH216973   7.320   3.088   5.481
 5677TIP3    H116974   7.354   3.108   5.394
 5677TIP3    H216975   7.390   3.039   5.524
 5678TIP3   OH216976   0.473   2.088   6.711
 5678TIP3    H116977   0.425   2.157   6.758
 5678TIP3    H216978   0.542   2.134   6.664
 5679TIP3   OH216979   2.488   6.442   6.614
 5679TIP3    H116980   2.581   6.458   6.594
 5679TIP3    H216981   2.447   6.430   6.529
 5680TIP3   OH216982   6.920   7.659   5.003
 5680TIP3    H116983   6.980   7.727   4.973
 5680TIP3    H216984   6.836   7.683   4.964
 5681TIP3   OH216985   6.593   5.377   0.684
 5681TIP3    H116986   6.517   5.427   0.712
 5681TIP3    H216987   6.581   5.291   0.725
 5682TIP3   OH216988   0.418   7.742   1.737
 5682TIP3    H116989   0.416   7.708   1.826
 5682TIP3    H216990   0.496   7.703   1.698
 5683TIP3   OH216991   4.455   2.004   5.320
 5683TIP3    H116992   4.430   2.034   5.232
 5683TIP3    H216993   4.527   2.061   5.345
 5684TIP3   OH216994   5.655   6.753   2.607
 5684TIP3    H116995   5.663   6.761   2.702
 5684TIP3    H216996   5.599   6.826   2.581
 5685TIP3   OH216997   6.083   5.228   5.157
 5685TIP3    H116998   6.065   5.191   5.243
 5685TIP3    H216999   6.059   5.320   5.165
 5686TIP3   OH217000   0.740   0.089   5.586
 5686TIP3    H117001   0.785   0.112   5.505
 5686TIP3    H217002   0.780   0.146   5.652
 5687TIP3   OH217003   4.904   0.679   4.648
 5687TIP3    H117004   4.825   0.645   4.690
 5687TIP3    H217005   4.937   0.744   4.709
 5688TIP3   OH217006   7.535   6.233   0.683
 5688TIP3    H117007   7.511   6.152   0.639
 5688TIP3    H217008   7.453   6.281   0.691
 5689TIP3   OH217009   8.110   2.725   1.343
 5689TIP3    H117010   8.074   2.813   1.335
 5689TIP3    H217011   8.039   2.667   1.316
 5690TIP3   OH217012   5.698   4.549   0.445
 5690TIP3    H117013   5.745   4.512   0.370
 5690TIP3    H217014   5.765   4.595   0.496
 5691TIP3   OH217015   1.827   7.435   5.207
 5691TIP3    H117016   1.902   7.495   5.205
 5691TIP3    H217017   1.751   7.491   5.190
 5692TIP3   OH217018   6.285   3.710   0.468
 5692TIP3    H117019   6.301   3.722   0.374
 5692TIP3    H217020   6.372   3.706   0.507
 5693TIP3   OH217021   1.002   4.414   6.572
 5693TIP3    H117022   1.007   4.380   6.483
 5693TIP3    H217023   0.912   4.443   6.582
 5694TIP3   OH217024   7.292   3.299   0.681
 5694TIP3    H117025   7.347   3.224   0.660
 5694TIP3    H217026   7.264   3.333   0.596
 5695TIP3   OH217027   5.240   6.392   4.401
 5695TIP3    H117028   5.149   6.370   4.421
 5695TIP3    H217029   5.274   6.315   4.355
 5696TIP3   OH217030   4.421   6.625   3.462
 5696TIP3    H117031   4.347   6.569   3.482
 5696TIP3    H217032   4.438   6.673   3.543
 5697TIP3   OH217033   4.975   5.448   1.600
 5697TIP3    H117034   4.883   5.475   1.610
 5697TIP3    H217035   5.013   5.463   1.687
 5698TIP3   OH217036   0.804   7.143   4.019
 5698TIP3    H117037   0.822   7.235   4.042
 5698TIP3    H217038   0.711   7.142   3.999
 5699TIP3   OH217039   2.722   4.492   4.264
 5699TIP3    H117040   2.774   4.493   4.183
 5699TIP3    H217041   2.778   4.533   4.329
 5700TIP3   OH217042   4.531   5.853   1.218
 5700TIP3    H117043   4.542   5.928   1.276
 5700TIP3    H217044   4.588   5.872   1.143
 5701TIP3   OH217045   0.803   0.458   6.485
 5701TIP3    H117046   0.884   0.454   6.435
 5701TIP3    H217047   0.827   0.425   6.572
 5702TIP3   OH217048   3.211   2.005   1.223
 5702TIP3    H117049   3.145   2.056   1.269
 5702TIP3    H217050   3.164   1.928   1.190
 5703TIP3   OH217051   0.696   6.715   2.232
 5703TIP3    H117052   0.736   6.775   2.295
 5703TIP3    H217053   0.603   6.717   2.253
 5704TIP3   OH217054   1.656   5.620   0.158
 5704TIP3    H117055   1.565   5.592   0.164
 5704TIP3    H217056   1.655   5.692   0.095
 5705TIP3   OH217057   0.916   4.811   2.847
 5705TIP3    H117058   0.912   4.851   2.934
 5705TIP3    H217059   0.841   4.751   2.845
 5706TIP3   OH217060   7.780   4.954   5.714
 5706TIP3    H117061   7.873   4.969   5.697
 5706TIP3    H217062   7.776   4.873   5.764
 5707TIP3   OH217063   2.079   5.824   4.355
 5707TIP3    H117064   2.065   5.828   4.261
 5707TIP3    H217065   2.106   5.913   4.379
 5708TIP3   OH217066   4.422   0.802   1.886
 5708TIP3    H117067   4.506   0.783   1.843
 5708TIP3    H217068   4.439   0.786   1.979
 5709TIP3   OH217069   5.927   1.155   5.304
 5709TIP3    H117070   5.908   1.062   5.297
 5709TIP3    H217071   5.867   1.187   5.372
 5710TIP3   OH217072   4.069   0.631   6.246
 5710TIP3    H117073   4.006   0.559   6.250
 5710TIP3    H217074   4.142   0.602   6.302
 5711TIP3   OH217075   1.110   2.618   3.972
 5711TIP3    H117076   1.114   2.549   3.905
 5711TIP3    H217077   1.060   2.688   3.932
 5712TIP3   OH217078   4.269   1.024   1.079
 5712TIP3    H117079   4.301   1.103   1.036
 5712TIP3    H217080   4.254   1.051   1.170
 5713TIP3   OH217081   7.344   4.181   2.931
 5713TIP3    H117082   7.405   4.247   2.898
 5713TIP3    H217083   7.351   4.109   2.869
 5714TIP3   OH217084   4.205   7.012   3.089
 5714TIP3    H117085   4.163   7.008   3.003
 5714TIP3    H217086   4.238   6.924   3.104
 5715TIP3   OH217087   6.617   3.959   2.293
 5715TIP3    H117088   6.626   3.881   2.347
 5715TIP3    H217089   6.677   3.945   2.220
 5716TIP3   OH217090   1.139   1.435   4.446
 5716TIP3    H117091   1.059   1.477   4.416
 5716TIP3    H217092   1.191   1.505   4.485
 5717TIP3   OH217093   3.208   5.967   4.264
 5717TIP3    H117094   3.202   5.961   4.360
 5717TIP3    H217095   3.186   6.058   4.244
 5718TIP3   OH217096   3.342   5.328   0.757
 5718TIP3    H117097   3.324   5.267   0.828
 5718TIP3    H217098   3.273   5.394   0.764
 5719TIP3   OH217099   1.220   4.568   5.398
 5719TIP3    H117100   1.291   4.555   5.335
 5719TIP3    H217101   1.164   4.633   5.357
 5720TIP3   OH217102   0.604   1.542   0.160
 5720TIP3    H117103   0.544   1.555   0.233
 5720TIP3    H217104   0.641   1.455   0.174
 5721TIP3   OH217105   2.124   7.200   0.094
 5721TIP3    H117106   2.145   7.110   0.071
 5721TIP3    H217107   2.096   7.196   0.186
 5722TIP3   OH217108   2.355   6.572   5.476
 5722TIP3    H117109   2.390   6.657   5.450
 5722TIP3    H217110   2.358   6.573   5.572
 5723TIP3   OH217111   2.978   1.457   4.686
 5723TIP3    H117112   3.014   1.543   4.666
 5723TIP3    H217113   3.050   1.409   4.727
 5724TIP3   OH217114   2.173   5.534   6.187
 5724TIP3    H117115   2.260   5.570   6.168
 5724TIP3    H217116   2.151   5.570   6.273
 5725TIP3   OH217117   5.346   2.370   0.472
 5725TIP3    H117118   5.291   2.390   0.548
 5725TIP3    H217119   5.356   2.275   0.474
 5726TIP3   OH217120   5.924   5.348   6.608
 5726TIP3    H117121   5.912   5.331   6.702
 5726TIP3    H217122   5.972   5.272   6.575
 5727TIP3   OH217123   0.482   7.233   4.970
 5727TIP3    H117124   0.417   7.173   4.934
 5727TIP3    H217125   0.465   7.316   4.926
 5728TIP3   OH217126   1.687   4.057   1.936
 5728TIP3    H117127   1.684   4.140   1.888
 5728TIP3    H217128   1.758   4.008   1.895
 5729TIP3   OH217129   5.441   6.259   2.419
 5729TIP3    H117130   5.412   6.237   2.508
 5729TIP3    H217131   5.492   6.339   2.430
 5730TIP3   OH217132   0.179   6.491   6.292
 5730TIP3    H117133   0.125   6.526   6.363
 5730TIP3    H217134   0.140   6.528   6.213
 5731TIP3   OH217135   2.082   0.157   4.893
 5731TIP3    H117136   2.106   0.229   4.834
 5731TIP3    H217137   2.072   0.199   4.979
 5732TIP3   OH217138   3.951   0.317   2.266
 5732TIP3    H117139   3.865   0.359   2.270
 5732TIP3    H217140   3.986   0.344   2.181
 5733TIP3   OH217141   7.464   5.086   3.332
 5733TIP3    H117142   7.442   5.105   3.423
 5733TIP3    H217143   7.417   5.153   3.281
 5734TIP3   OH217144   6.626   2.626   5.751
 5734TIP3    H117145   6.547   2.572   5.748
 5734TIP3    H217146   6.683   2.589   5.684
 5735TIP3   OH217147   6.885   4.307   4.035
 5735TIP3    H117148   6.839   4.266   3.962
 5735TIP3    H217149   6.815   4.339   4.092
 5736TIP3   OH217150   7.264   2.316   0.270
 5736TIP3    H117151   7.213   2.250   0.315
 5736TIP3    H217152   7.355   2.297   0.294
 5737TIP3   OH217153   2.312   6.328   0.705
 5737TIP3    H117154   2.402   6.357   0.718
 5737TIP3    H217155   2.298   6.261   0.772
 5738TIP3   OH217156   3.344   0.628   5.705
 5738TIP3    H117157   3.365   0.697   5.768
 5738TIP3    H217158   3.293   0.564   5.755
 5739TIP3   OH217159   6.445   1.720   3.926
 5739TIP3    H117160   6.521   1.738   3.980
 5739TIP3    H217161   6.461   1.632   3.890
 5740TIP3   OH217162   1.551   2.868   2.898
 5740TIP3    H117163   1.491   2.829   2.834
 5740TIP3    H217164   1.637   2.863   2.856
 5741TIP3   OH217165   8.106   3.406   4.992
 5741TIP3    H117166   8.066   3.421   4.906
 5741TIP3    H217167   8.129   3.494   5.023
 5742TIP3   OH217168   1.232   0.839   3.586
 5742TIP3    H117169   1.157   0.869   3.535
 5742TIP3    H217170   1.219   0.877   3.673
 5743TIP3   OH217171   5.750   1.971   1.532
 5743TIP3    H117172   5.720   2.015   1.453
 5743TIP3    H217173   5.704   2.014   1.603
 5744TIP3   OH217174   6.099   2.775   1.464
 5744TIP3    H117175   6.047   2.733   1.396
 5744TIP3    H217176   6.033   2.809   1.526
 5745TIP3   OH217177   1.566   4.231   0.766
 5745TIP3    H117178   1.594   4.140   0.777
 5745TIP3    H217179   1.560   4.265   0.856
 5746TIP3   OH217180   5.681   3.935   3.434
 5746TIP3    H117181   5.689   3.898   3.522
 5746TIP3    H217182   5.735   3.879   3.379
 5747TIP3   OH217183   7.377   2.065   1.385
 5747TIP3    H117184   7.290   2.082   1.419
 5747TIP3    H217185   7.392   1.972   1.402
 5748TIP3   OH217186   7.802   7.616   5.016
 5748TIP3    H117187   7.847   7.533   4.997
 5748TIP3    H217188   7.729   7.591   5.073
 5749TIP3   OH217189   0.046   4.560   1.000
 5749TIP3    H117190   0.067   4.487   0.941
 5749TIP3    H217191   0.108   4.629   0.976
 5750TIP3   OH217192   6.530   2.752   4.746
 5750TIP3    H117193   6.607   2.701   4.720
 5750TIP3    H217194   6.562   2.842   4.753
 5751TIP3   OH217195   7.305   1.540   4.325
 5751TIP3    H117196   7.307   1.610   4.259
 5751TIP3    H217197   7.396   1.528   4.350
 5752TIP3   OH217198   3.540   5.717   0.110
 5752TIP3    H117199   3.470   5.780   0.124
 5752TIP3    H217200   3.621   5.765   0.129
 5753TIP3   OH217201   3.569   3.874   3.046
 5753TIP3    H117202   3.641   3.938   3.046
 5753TIP3    H217203   3.612   3.791   3.067
 5754TIP3   OH217204   1.034   6.882   6.657
 5754TIP3    H117205   0.953   6.922   6.623
 5754TIP3    H217206   1.074   6.950   6.711
 5755TIP3   OH217207   1.566   5.909   1.241
 5755TIP3    H117208   1.500   5.975   1.217
 5755TIP3    H217209   1.643   5.961   1.267
 5756TIP3   OH217210   1.382   7.691   6.099
 5756TIP3    H117211   1.459   7.713   6.046
 5756TIP3    H217212   1.414   7.622   6.158
 5757TIP3   OH217213   5.011   5.010   1.807
 5757TIP3    H117214   4.965   5.093   1.793
 5757TIP3    H217215   5.038   5.012   1.898
 5758TIP3   OH217216   2.765   6.141   1.728
 5758TIP3    H117217   2.700   6.175   1.665
 5758TIP3    H217218   2.811   6.073   1.680
 5759TIP3   OH217219   6.373   2.323   1.381
 5759TIP3    H117220   6.318   2.250   1.407
 5759TIP3    H217221   6.461   2.299   1.409
 5760TIP3   OH217222   1.038   7.569   1.457
 5760TIP3    H117223   0.942   7.571   1.462
 5760TIP3    H217224   1.058   7.604   1.370
 5761TIP3   OH217225   7.382   4.420   3.956
 5761TIP3    H117226   7.308   4.386   4.007
 5761TIP3    H217227   7.383   4.366   3.877
 5762TIP3   OH217228   3.447   7.214   1.743
 5762TIP3    H117229   3.361   7.250   1.768
 5762TIP3    H217230   3.427   7.151   1.673
 5763TIP3   OH217231   6.057   0.115   0.949
 5763TIP3    H117232   6.022   0.154   0.869
 5763TIP3    H217233   6.073   0.190   1.007
 5764TIP3   OH217234   4.279   2.931   0.655
 5764TIP3    H117235   4.188   2.907   0.674
 5764TIP3    H217236   4.322   2.934   0.740
 5765TIP3   OH217237   5.375   0.298   3.183
 5765TIP3    H117238   5.350   0.252   3.263
 5765TIP3    H217239   5.291   0.326   3.145
 5766TIP3   OH217240   2.700   7.204   6.607
 5766TIP3    H117241   2.702   7.129   6.667
 5766TIP3    H217242   2.650   7.174   6.532
 5767TIP3   OH217243   1.547   7.764   1.304
 5767TIP3    H117244   1.580   7.801   1.222
 5767TIP3    H217245   1.621   7.718   1.343
 5768TIP3   OH217246   2.447   6.736   0.006
 5768TIP3    H117247   2.508   6.684   0.058
 5768TIP3    H217248   2.365   6.686   0.007
 5769TIP3   OH217249   1.586   2.507   6.456
 5769TIP3    H117250   1.504   2.503   6.407
 5769TIP3    H217251   1.651   2.537   6.392
 5770TIP3   OH217252   8.242   4.405   3.900
 5770TIP3    H117253   8.308   4.454   3.950
 5770TIP3    H217254   8.207   4.470   3.838
 5771TIP3   OH217255   0.886   5.738   1.409
 5771TIP3    H117256   0.930   5.702   1.332
 5771TIP3    H217257   0.803   5.690   1.414
 5772TIP3   OH217258   4.191   3.106   4.355
 5772TIP3    H117259   4.097   3.113   4.336
 5772TIP3    H217260   4.209   3.178   4.417
 5773TIP3   OH217261   7.463   5.817   6.723
 5773TIP3    H117262   7.552   5.853   6.729
 5773TIP3    H217263   7.410   5.890   6.690
 5774TIP3   OH217264   2.416   5.491   2.265
 5774TIP3    H117265   2.433   5.576   2.224
 5774TIP3    H217266   2.432   5.506   2.358
 5775TIP3   OH217267   0.425   1.548   0.396
 5775TIP3    H117268   0.396   1.638   0.382
 5775TIP3    H217269   0.348   1.494   0.378
 5776TIP3   OH217270   5.843   7.828   1.850
 5776TIP3    H117271   5.905   7.813   1.921
 5776TIP3    H217272   5.759   7.842   1.892
 5777TIP3   OH217273   6.327   0.361   1.414
 5777TIP3    H117274   6.343   0.282   1.466
 5777TIP3    H217275   6.272   0.331   1.341
 5778TIP3   OH217276   6.320   1.462   4.719
 5778TIP3    H117277   6.362   1.485   4.636
 5778TIP3    H217278   6.291   1.546   4.755
 5779TIP3   OH217279   6.047   4.401   1.318
 5779TIP3    H117280   5.998   4.473   1.357
 5779TIP3    H217281   6.132   4.403   1.361
 5780TIP3   OH217282   4.797   0.806   5.497
 5780TIP3    H117283   4.738   0.735   5.473
 5780TIP3    H217284   4.769   0.880   5.443
 5781TIP3   OH217285   3.676   0.815   0.870
 5781TIP3    H117286   3.631   0.813   0.954
 5781TIP3    H217287   3.757   0.863   0.887
 5782TIP3   OH217288   1.142   1.922   3.988
 5782TIP3    H117289   1.167   1.835   3.956
 5782TIP3    H217290   1.223   1.960   4.021
 5783TIP3   OH217291   4.200   3.650   3.030
 5783TIP3    H117292   4.197   3.733   2.982
 5783TIP3    H217293   4.128   3.598   2.993
 5784TIP3   OH217294   7.288   6.156   4.442
 5784TIP3    H117295   7.210   6.118   4.482
 5784TIP3    H217296   7.271   6.250   4.439
 5785TIP3   OH217297   5.776   4.560   0.151
 5785TIP3    H117298   5.781   4.555   0.056
 5785TIP3    H217299   5.833   4.490   0.182
 5786TIP3   OH217300   5.171   3.376   4.829
 5786TIP3    H117301   5.130   3.290   4.818
 5786TIP3    H217302   5.109   3.437   4.789
 5787TIP3   OH217303   0.566   7.603   5.006
 5787TIP3    H117304   0.537   7.542   4.939
 5787TIP3    H217305   0.584   7.685   4.959
 5788TIP3   OH217306   3.668   2.864   1.011
 5788TIP3    H117307   3.595   2.873   0.949
 5788TIP3    H217308   3.638   2.798   1.074
 5789TIP3   OH217309   5.813   1.647   4.265
 5789TIP3    H117310   5.799   1.733   4.305
 5789TIP3    H217311   5.734   1.598   4.285
 5790TIP3   OH217312   5.149   5.432   2.613
 5790TIP3    H117313   5.225   5.384   2.580
 5790TIP3    H217314   5.169   5.524   2.596
 5791TIP3   OH217315   0.649   5.791   6.669
 5791TIP3    H117316   0.578   5.739   6.709
 5791TIP3    H217317   0.603   5.857   6.617
 5792TIP3   OH217318   0.842   4.179   4.800
 5792TIP3    H117319   0.806   4.102   4.756
 5792TIP3    H217320   0.765   4.234   4.819
 5793TIP3   OH217321   7.515   2.087   2.300
 5793TIP3    H117322   7.543   2.022   2.235
 5793TIP3    H217323   7.448   2.138   2.255
 5794TIP3   OH217324   7.252   7.678   5.790
 5794TIP3    H117325   7.235   7.594   5.748
 5794TIP3    H217326   7.339   7.669   5.828
 5795TIP3   OH217327   0.684   7.198   1.088
 5795TIP3    H117328   0.746   7.270   1.074
 5795TIP3    H217329   0.726   7.121   1.051
 5796TIP3   OH217330   1.392   2.570   3.299
 5796TIP3    H117331   1.385   2.575   3.204
 5796TIP3    H217332   1.302   2.568   3.330
 5797TIP3   OH217333   0.652   3.913   2.889
 5797TIP3    H117334   0.689   3.987   2.937
 5797TIP3    H217335   0.722   3.847   2.890
 5798TIP3   OH217336   3.407   0.644   5.429
 5798TIP3    H117337   3.368   0.628   5.515
 5798TIP3    H217338   3.473   0.575   5.420
 5799TIP3   OH217339   3.452   1.001   0.695
 5799TIP3    H117340   3.507   0.922   0.689
 5799TIP3    H217341   3.433   1.010   0.788
 5800TIP3   OH217342   2.978   4.562   2.625
 5800TIP3    H117343   3.024   4.543   2.543
 5800TIP3    H217344   2.918   4.632   2.604
 5801TIP3   OH217345   0.889   4.835   3.977
 5801TIP3    H117346   0.890   4.823   3.883
 5801TIP3    H217347   0.980   4.823   4.004
 5802TIP3   OH217348   5.136   7.663   6.385
 5802TIP3    H117349   5.110   7.750   6.417
 5802TIP3    H217350   5.171   7.681   6.297
 5803TIP3   OH217351   1.108   4.023   3.325
 5803TIP3    H117352   1.187   4.076   3.318
 5803TIP3    H217353   1.069   4.049   3.409
 5804TIP3   OH217354   3.430   0.832   1.655
 5804TIP3    H117355   3.382   0.897   1.604
 5804TIP3    H217356   3.363   0.771   1.686
 5805TIP3   OH217357   1.052   1.696   3.445
 5805TIP3    H117358   1.017   1.622   3.494
 5805TIP3    H217359   1.128   1.724   3.496
 5806TIP3   OH217360   4.214   7.318   5.255
 5806TIP3    H117361   4.138   7.260   5.258
 5806TIP3    H217362   4.288   7.265   5.283
 5807TIP3   OH217363   3.132   1.401   6.785
 5807TIP3    H117364   3.057   1.342   6.788
 5807TIP3    H217365   3.169   1.389   6.698
 5808TIP3   OH217366   6.395   2.572   4.428
 5808TIP3    H117367   6.362   2.546   4.342
 5808TIP3    H217368   6.490   2.562   4.421
 5809TIP3   OH217369   8.279   1.279   0.179
 5809TIP3    H117370   8.202   1.334   0.164
 5809TIP3    H217371   8.243   1.190   0.189
 5810TIP3   OH217372   3.954   5.480   3.589
 5810TIP3    H117373   4.034   5.532   3.579
 5810TIP3    H217374   3.883   5.543   3.581
 5811TIP3   OH217375   5.014   2.950   4.916
 5811TIP3    H117376   4.941   2.889   4.907
 5811TIP3    H217377   5.045   2.963   4.827
 5812TIP3   OH217378   8.023   6.654   6.167
 5812TIP3    H117379   8.010   6.748   6.161
 5812TIP3    H217380   7.997   6.632   6.257
 5813TIP3   OH217381   4.435   2.946   1.961
 5813TIP3    H117382   4.438   3.038   1.987
 5813TIP3    H217383   4.493   2.901   2.024
 5814TIP3   OH217384   6.317   7.153   1.657
 5814TIP3    H117385   6.238   7.142   1.711
 5814TIP3    H217386   6.378   7.200   1.714
 5815TIP3   OH217387   7.582   7.414   5.507
 5815TIP3    H117388   7.625   7.492   5.472
 5815TIP3    H217389   7.654   7.358   5.535
 5816TIP3   OH217390   2.174   4.846   2.715
 5816TIP3    H117391   2.194   4.878   2.803
 5816TIP3    H217392   2.258   4.851   2.669
 5817TIP3   OH217393   6.750   3.927   2.709
 5817TIP3    H117394   6.795   3.857   2.756
 5817TIP3    H217395   6.724   3.887   2.626
 5818TIP3   OH217396   2.788   3.935   0.672
 5818TIP3    H117397   2.855   4.001   0.691
 5818TIP3    H217398   2.807   3.863   0.733
 5819TIP3   OH217399   2.387   6.634   4.241
 5819TIP3    H117400   2.427   6.714   4.273
 5819TIP3    H217401   2.311   6.621   4.297
 5820TIP3   OH217402   5.859   2.223   4.049
 5820TIP3    H117403   5.832   2.305   4.009
 5820TIP3    H217404   5.813   2.156   3.999
 5821TIP3   OH217405   7.090   3.656   4.156
 5821TIP3    H117406   7.181   3.679   4.137
 5821TIP3    H217407   7.046   3.740   4.170
 5822TIP3   OH217408   4.989   2.593   3.766
 5822TIP3    H117409   5.012   2.640   3.846
 5822TIP3    H217410   4.918   2.644   3.727
 5823TIP3   OH217411   0.273   0.273   4.318
 5823TIP3    H117412   0.350   0.323   4.293
 5823TIP3    H217413   0.308   0.191   4.354
 5824TIP3   OH217414   1.011   4.429   6.040
 5824TIP3    H117415   0.942   4.442   5.975
 5824TIP3    H217416   1.015   4.334   6.053
 5825TIP3   OH217417   5.563   6.375   4.781
 5825TIP3    H117418   5.562   6.378   4.876
 5825TIP3    H217419   5.490   6.318   4.757
 5826TIP3   OH217420   6.534   0.909   0.935
 5826TIP3    H117421   6.441   0.931   0.940
 5826TIP3    H217422   6.577   0.993   0.917
 5827TIP3   OH217423   5.970   4.119   3.101
 5827TIP3    H117424   6.034   4.187   3.081
 5827TIP3    H217425   5.912   4.116   3.025
 5828TIP3   OH217426   4.385   4.684   0.193
 5828TIP3    H117427   4.466   4.704   0.239
 5828TIP3    H217428   4.394   4.593   0.167
 5829TIP3   OH217429   6.173   6.193   3.252
 5829TIP3    H117430   6.116   6.269   3.244
 5829TIP3    H217431   6.253   6.228   3.293
 5830TIP3   OH217432   0.453   4.652   2.443
 5830TIP3    H117433   0.408   4.671   2.526
 5830TIP3    H217434   0.408   4.707   2.379
 5831TIP3   OH217435   1.256   6.805   1.831
 5831TIP3    H117436   1.295   6.718   1.821
 5831TIP3    H217437   1.284   6.853   1.754
 5832TIP3   OH217438   1.492   3.663   5.494
 5832TIP3    H117439   1.434   3.587   5.490
 5832TIP3    H217440   1.436   3.735   5.525
 5833TIP3   OH217441   4.354   6.342   6.453
 5833TIP3    H117442   4.300   6.385   6.519
 5833TIP3    H217443   4.334   6.249   6.462
 5834TIP3   OH217444   7.152   2.599   6.227
 5834TIP3    H117445   7.213   2.671   6.241
 5834TIP3    H217446   7.164   2.542   6.304
 5835TIP3   OH217447   6.599   6.888   3.394
 5835TIP3    H117448   6.580   6.931   3.478
 5835TIP3    H217449   6.533   6.923   3.334
 5836TIP3   OH217450   4.914   4.315   3.332
 5836TIP3    H117451   4.921   4.398   3.379
 5836TIP3    H217452   5.001   4.301   3.296
 5837TIP3   OH217453   5.900   1.722   5.018
 5837TIP3    H117454   5.897   1.716   5.114
 5837TIP3    H217455   5.815   1.760   4.994
 5838TIP3   OH217456   4.444   3.148   3.599
 5838TIP3    H117457   4.494   3.095   3.538
 5838TIP3    H217458   4.510   3.190   3.655
 5839TIP3   OH217459   5.936   7.343   2.776
 5839TIP3    H117460   5.962   7.371   2.688
 5839TIP3    H217461   5.972   7.410   2.834
 5840TIP3   OH217462   2.390   6.018   2.878
 5840TIP3    H117463   2.380   5.926   2.852
 5840TIP3    H217464   2.350   6.023   2.964
 5841TIP3   OH217465   5.858   0.851   5.330
 5841TIP3    H117466   5.845   0.846   5.425
 5841TIP3    H217467   5.946   0.817   5.317
 5842TIP3   OH217468   6.862   5.234   5.003
 5842TIP3    H117469   6.881   5.252   4.911
 5842TIP3    H217470   6.854   5.139   5.008
 5843TIP3   OH217471   2.214   2.649   1.990
 5843TIP3    H117472   2.264   2.697   2.055
 5843TIP3    H217473   2.162   2.586   2.040
 5844TIP3   OH217474   5.798   6.186   1.649
 5844TIP3    H117475   5.847   6.262   1.683
 5844TIP3    H217476   5.839   6.111   1.692
 5845TIP3   OH217477   1.252   5.435   2.297
 5845TIP3    H117478   1.321   5.398   2.352
 5845TIP3    H217479   1.293   5.443   2.210
 5846TIP3   OH217480   6.240   4.153   6.725
 5846TIP3    H117481   6.162   4.162   6.779
 5846TIP3    H217482   6.206   4.140   6.636
 5847TIP3   OH217483   8.088   5.708   5.213
 5847TIP3    H117484   8.081   5.803   5.208
 5847TIP3    H217485   8.001   5.679   5.241
 5848TIP3   OH217486   2.352   7.686   0.459
 5848TIP3    H117487   2.416   7.722   0.397
 5848TIP3    H217488   2.281   7.654   0.403
 5849TIP3   OH217489   1.920   5.249   1.932
 5849TIP3    H117490   1.854   5.187   1.964
 5849TIP3    H217491   1.954   5.290   2.012
 5850TIP3   OH217492   3.371   1.996   6.418
 5850TIP3    H117493   3.289   2.007   6.370
 5850TIP3    H217494   3.437   2.039   6.364
 5851TIP3   OH217495   6.955   5.870   1.630
 5851TIP3    H117496   6.927   5.952   1.671
 5851TIP3    H217497   7.048   5.884   1.612
 5852TIP3   OH217498   1.096   4.601   3.352
 5852TIP3    H117499   1.159   4.601   3.281
 5852TIP3    H217500   1.029   4.537   3.326
 5853TIP3   OH217501   5.611   4.841   3.966
 5853TIP3    H117502   5.667   4.899   3.914
 5853TIP3    H217503   5.664   4.819   4.043
 5854TIP3   OH217504   4.372   1.345   1.357
 5854TIP3    H117505   4.412   1.422   1.317
 5854TIP3    H217506   4.357   1.370   1.448
 5855TIP3   OH217507   3.281   0.505   4.085
 5855TIP3    H117508   3.358   0.525   4.031
 5855TIP3    H217509   3.213   0.564   4.053
 5856TIP3   OH217510   5.827   7.175   5.547
 5856TIP3    H117511   5.861   7.148   5.462
 5856TIP3    H217512   5.864   7.262   5.561
 5857TIP3   OH217513   3.117   6.366   2.849
 5857TIP3    H117514   3.208   6.393   2.863
 5857TIP3    H217515   3.119   6.271   2.859
 5858TIP3   OH217516   2.053   2.778   1.799
 5858TIP3    H117517   2.111   2.753   1.871
 5858TIP3    H217518   2.111   2.791   1.725
 5859TIP3   OH217519   8.226   0.832   6.427
 5859TIP3    H117520   8.251   0.860   6.339
 5859TIP3    H217521   8.157   0.893   6.453
 5860TIP3   OH217522   6.522   7.415   0.954
 5860TIP3    H117523   6.513   7.371   1.039
 5860TIP3    H217524   6.617   7.414   0.937
 5861TIP3   OH217525   7.019   7.569   2.374
 5861TIP3    H117526   7.106   7.539   2.400
 5861TIP3    H217527   6.968   7.566   2.455
 5862TIP3   OH217528   2.386   4.973   1.055
 5862TIP3    H117529   2.356   5.048   1.003
 5862TIP3    H217530   2.351   4.897   1.010
 5863TIP3   OH217531   3.450   5.853   4.833
 5863TIP3    H117532   3.529   5.884   4.876
 5863TIP3    H217533   3.458   5.884   4.743
 5864TIP3   OH217534   8.036   5.850   1.737
 5864TIP3    H117535   8.045   5.778   1.799
 5864TIP3    H217536   7.947   5.884   1.753
 5865TIP3   OH217537   1.317   0.266   6.119
 5865TIP3    H117538   1.377   0.256   6.193
 5865TIP3    H217539   1.232   0.240   6.154
 5866TIP3   OH217540   6.768   5.764   5.754
 5866TIP3    H117541   6.676   5.739   5.750
 5866TIP3    H217542   6.815   5.689   5.717
 5867TIP3   OH217543   5.311   7.248   2.714
 5867TIP3    H117544   5.286   7.340   2.720
 5867TIP3    H217545   5.255   7.212   2.646
 5868TIP3   OH217546   3.442   2.011   6.701
 5868TIP3    H117547   3.386   1.988   6.776
 5868TIP3    H217548   3.380   2.043   6.635
 5869TIP3   OH217549   4.489   6.422   2.601
 5869TIP3    H117550   4.414   6.364   2.587
 5869TIP3    H217551   4.452   6.510   2.601
 5870TIP3   OH217552   5.606   3.849   5.429
 5870TIP3    H117553   5.517   3.831   5.460
 5870TIP3    H217554   5.659   3.847   5.509
 5871TIP3   OH217555   5.586   2.561   6.311
 5871TIP3    H117556   5.547   2.637   6.269
 5871TIP3    H217557   5.516   2.496   6.315
 5872TIP3   OH217558   4.998   1.898   3.008
 5872TIP3    H117559   5.000   1.971   2.946
 5872TIP3    H217560   5.073   1.914   3.066
 5873TIP3   OH217561   5.506   3.111   5.475
 5873TIP3    H117562   5.436   3.048   5.458
 5873TIP3    H217563   5.553   3.075   5.551
 5874TIP3   OH217564   4.043   6.883   5.096
 5874TIP3    H117565   4.000   6.939   5.160
 5874TIP3    H217566   4.129   6.865   5.133
 5875TIP3   OH217567   3.184   3.518   2.715
 5875TIP3    H117568   3.130   3.468   2.654
 5875TIP3    H217569   3.205   3.457   2.785
 5876TIP3   OH217570   8.219   4.236   3.625
 5876TIP3    H117571   8.159   4.310   3.623
 5876TIP3    H217572   8.193   4.185   3.701
 5877TIP3   OH217573   7.410   0.141   5.153
 5877TIP3    H117574   7.328   0.100   5.126
 5877TIP3    H217575   7.455   0.160   5.071
 5878TIP3   OH217576   4.963   3.799   0.239
 5878TIP3    H117577   4.900   3.850   0.290
 5878TIP3    H217578   5.027   3.768   0.303
 5879TIP3   OH217579   7.112   0.343   3.649
 5879TIP3    H117580   7.119   0.249   3.665
 5879TIP3    H217581   7.101   0.382   3.736
 5880TIP3   OH217582   4.159   7.717   4.983
 5880TIP3    H117583   4.091   7.719   4.916
 5880TIP3    H217584   4.195   7.629   4.978
 5881TIP3   OH217585   0.710   2.161   5.795
 5881TIP3    H117586   0.747   2.074   5.780
 5881TIP3    H217587   0.616   2.147   5.798
 5882TIP3   OH217588   1.235   3.380   2.892
 5882TIP3    H117589   1.145   3.395   2.921
 5882TIP3    H217590   1.287   3.440   2.945
 5883TIP3   OH217591   7.741   6.388   5.341
 5883TIP3    H117592   7.701   6.454   5.396
 5883TIP3    H217593   7.786   6.330   5.403
 5884TIP3   OH217594   3.680   5.293   5.906
 5884TIP3    H117595   3.743   5.239   5.858
 5884TIP3    H217596   3.599   5.286   5.855
 5885TIP3   OH217597   4.612   2.402   2.914
 5885TIP3    H117598   4.531   2.357   2.889
 5885TIP3    H217599   4.647   2.352   2.987
 5886TIP3   OH217600   0.656   0.231   5.034
 5886TIP3    H117601   0.673   0.155   4.978
 5886TIP3    H217602   0.740   0.247   5.078
 5887TIP3   OH217603   4.348   5.508   0.299
 5887TIP3    H117604   4.392   5.483   0.218
 5887TIP3    H217605   4.394   5.587   0.329
 5888TIP3   OH217606   7.964   4.170   1.247
 5888TIP3    H117607   8.025   4.141   1.180
 5888TIP3    H217608   7.904   4.097   1.258
 5889TIP3   OH217609   3.764   7.358   1.069
 5889TIP3    H117610   3.817   7.326   1.143
 5889TIP3    H217611   3.674   7.333   1.091
 5890TIP3   OH217612   4.300   0.670   0.677
 5890TIP3    H117613   4.258   0.717   0.750
 5890TIP3    H217614   4.308   0.736   0.608
 5891TIP3   OH217615   5.217   4.055   3.492
 5891TIP3    H117616   5.288   4.027   3.435
 5891TIP3    H217617   5.144   3.998   3.469
 5892TIP3   OH217618   4.042   0.677   4.454
 5892TIP3    H117619   4.133   0.678   4.481
 5892TIP3    H217620   4.011   0.766   4.468
 5893TIP3   OH217621   7.793   3.100   6.096
 5893TIP3    H117622   7.712   3.104   6.046
 5893TIP3    H217623   7.836   3.020   6.068
 5894TIP3   OH217624   2.181   0.309   5.883
 5894TIP3    H117625   2.106   0.345   5.836
 5894TIP3    H217626   2.168   0.338   5.974
 5895TIP3   OH217627   7.244   7.138   6.361
 5895TIP3    H117628   7.152   7.119   6.341
 5895TIP3    H217629   7.252   7.233   6.352
 5896TIP3   OH217630   7.700   5.335   6.431
 5896TIP3    H117631   7.741   5.249   6.439
 5896TIP3    H217632   7.612   5.316   6.399
 5897TIP3   OH217633   8.151   6.656   5.930
 5897TIP3    H117634   8.160   6.569   5.890
 5897TIP3    H217635   8.092   6.642   6.004
 5898TIP3   OH217636   8.158   4.048   5.792
 5898TIP3    H117637   8.129   4.123   5.740
 5898TIP3    H217638   8.246   4.072   5.821
 5899TIP3   OH217639   0.922   2.644   0.070
 5899TIP3    H117640   0.849   2.669   0.126
 5899TIP3    H217641   0.934   2.551   0.085
 5900TIP3   OH217642   4.894   0.907   2.191
 5900TIP3    H117643   4.906   0.982   2.133
 5900TIP3    H217644   4.818   0.930   2.245
 5901TIP3   OH217645   0.752   7.609   5.634
 5901TIP3    H117646   0.722   7.544   5.570
 5901TIP3    H217647   0.822   7.565   5.682
 5902TIP3   OH217648   2.437   6.174   3.140
 5902TIP3    H117649   2.419   6.268   3.144
 5902TIP3    H217650   2.518   6.163   3.190
 5903TIP3   OH217651   1.042   5.218   4.628
 5903TIP3    H117652   1.039   5.241   4.721
 5903TIP3    H217653   1.133   5.192   4.612
 5904TIP3   OH217654   1.781   4.213   3.303
 5904TIP3    H117655   1.746   4.197   3.390
 5904TIP3    H217656   1.705   4.237   3.250
 5905TIP3   OH217657   2.362   5.385   4.465
 5905TIP3    H117658   2.452   5.405   4.439
 5905TIP3    H217659   2.319   5.470   4.472
 5906TIP3   OH217660   0.268   1.805   1.342
 5906TIP3    H117661   0.292   1.849   1.424
 5906TIP3    H217662   0.195   1.856   1.308
 5907TIP3   OH217663   2.817   4.649   3.362
 5907TIP3    H117664   2.863   4.712   3.417
 5907TIP3    H217665   2.859   4.657   3.276
 5908TIP3   OH217666   4.840   3.886   4.000
 5908TIP3    H117667   4.790   3.917   3.924
 5908TIP3    H217668   4.813   3.795   4.010
 5909TIP3   OH217669   1.779   0.458   3.502
 5909TIP3    H117670   1.749   0.388   3.445
 5909TIP3    H217671   1.826   0.414   3.572
 5910TIP3   OH217672   1.384   0.716   6.607
 5910TIP3    H117673   1.346   0.773   6.674
 5910TIP3    H217674   1.316   0.709   6.540
 5911TIP3   OH217675   4.089   1.159   3.993
 5911TIP3    H117676   4.017   1.168   3.931
 5911TIP3    H217677   4.152   1.226   3.967
 5912TIP3   OH217678   5.792   4.715   2.401
 5912TIP3    H117679   5.851   4.711   2.477
 5912TIP3    H217680   5.764   4.624   2.388
 5913TIP3   OH217681   3.784   3.877   0.671
 5913TIP3    H117682   3.804   3.819   0.745
 5913TIP3    H217683   3.739   3.820   0.608
 5914TIP3   OH217684   1.767   6.744   4.424
 5914TIP3    H117685   1.714   6.794   4.486
 5914TIP3    H217686   1.819   6.809   4.378
 5915TIP3   OH217687   5.634   5.844   4.258
 5915TIP3    H117688   5.630   5.769   4.199
 5915TIP3    H217689   5.575   5.821   4.330
 5916TIP3   OH217690   4.514   5.093   0.272
 5916TIP3    H117691   4.456   5.162   0.302
 5916TIP3    H217692   4.600   5.115   0.309
 5917TIP3   OH217693   5.321   5.700   0.330
 5917TIP3    H117694   5.329   5.678   0.423
 5917TIP3    H217695   5.387   5.768   0.316
 5918TIP3   OH217696   3.447   6.222   3.995
 5918TIP3    H117697   3.365   6.226   4.044
 5918TIP3    H217698   3.431   6.158   3.926
 5919TIP3   OH217699   3.245   3.693   6.051
 5919TIP3    H117700   3.207   3.676   6.137
 5919TIP3    H217701   3.170   3.699   5.992
 5920TIP3   OH217702   5.110   6.423   5.685
 5920TIP3    H117703   5.150   6.353   5.634
 5920TIP3    H217704   5.091   6.382   5.770
 5921TIP3   OH217705   3.700   7.457   3.166
 5921TIP3    H117706   3.764   7.390   3.142
 5921TIP3    H217707   3.632   7.410   3.213
 5922TIP3   OH217708   6.675   0.300   6.486
 5922TIP3    H117709   6.626   0.368   6.533
 5922TIP3    H217710   6.737   0.266   6.550
 5923TIP3   OH217711   5.339   5.407   0.721
 5923TIP3    H117712   5.275   5.387   0.790
 5923TIP3    H217713   5.423   5.378   0.756
 5924TIP3   OH217714   5.323   6.226   2.701
 5924TIP3    H117715   5.398   6.180   2.738
 5924TIP3    H217716   5.257   6.158   2.690
 5925TIP3   OH217717   3.254   5.617   0.609
 5925TIP3    H117718   3.319   5.637   0.542
 5925TIP3    H217719   3.179   5.583   0.560
 5926TIP3   OH217720   3.088   4.722   3.425
 5926TIP3    H117721   3.166   4.722   3.480
 5926TIP3    H217722   3.120   4.694   3.339
 5927TIP3   OH217723   0.644   1.138   0.662
 5927TIP3    H117724   0.687   1.205   0.715
 5927TIP3    H217725   0.629   1.065   0.724
 5928TIP3   OH217726   0.865   7.086   6.111
 5928TIP3    H117727   0.920   7.008   6.119
 5928TIP3    H217728   0.808   7.068   6.037
 5929TIP3   OH217729   4.747   2.124   4.853
 5929TIP3    H117730   4.718   2.145   4.942
 5929TIP3    H217731   4.689   2.174   4.796
 5930TIP3   OH217732   3.573   1.577   2.638
 5930TIP3    H117733   3.638   1.523   2.685
 5930TIP3    H217734   3.527   1.624   2.707
 5931TIP3   OH217735   1.511   0.188   0.781
 5931TIP3    H117736   1.435   0.222   0.828
 5931TIP3    H217737   1.585   0.241   0.811
 5932TIP3   OH217738   7.065   2.215   2.831
 5932TIP3    H117739   7.043   2.303   2.860
 5932TIP3    H217740   7.122   2.180   2.901
 5933TIP3   OH217741   4.867   1.083   3.576
 5933TIP3    H117742   4.918   1.043   3.505
 5933TIP3    H217743   4.831   1.163   3.538
 5934TIP3   OH217744   3.054   0.049   6.686
 5934TIP3    H117745   3.020   0.123   6.636
 5934TIP3    H217746   3.127   0.016   6.632
 5935TIP3   OH217747   0.764   7.557   3.472
 5935TIP3    H117748   0.758   7.652   3.461
 5935TIP3    H217749   0.858   7.540   3.483
 5936TIP3   OH217750   7.533   4.859   5.626
 5936TIP3    H117751   7.596   4.789   5.611
 5936TIP3    H217752   7.448   4.815   5.624
 5937TIP3   OH217753   4.585   0.943   0.501
 5937TIP3    H117754   4.640   0.961   0.425
 5937TIP3    H217755   4.528   1.019   0.508
 5938TIP3   OH217756   2.384   6.545   3.974
 5938TIP3    H117757   2.380   6.572   4.066
 5938TIP3    H217758   2.301   6.499   3.959
 5939TIP3   OH217759   7.924   3.535   2.480
 5939TIP3    H117760   7.960   3.448   2.462
 5939TIP3    H217761   7.946   3.552   2.571
 5940TIP3   OH217762   1.196   1.401   0.185
 5940TIP3    H117763   1.163   1.463   0.120
 5940TIP3    H217764   1.286   1.384   0.158
 5941TIP3   OH217765   3.266   3.468   0.138
 5941TIP3    H117766   3.283   3.526   0.212
 5941TIP3    H217767   3.339   3.405   0.140
 5942TIP3   OH217768   1.888   1.285   0.853
 5942TIP3    H117769   1.979   1.268   0.880
 5942TIP3    H217770   1.860   1.204   0.810
 5943TIP3   OH217771   3.241   3.206   4.375
 5943TIP3    H117772   3.252   3.157   4.456
 5943TIP3    H217773   3.167   3.264   4.392
 5944TIP3   OH217774   7.494   0.813   5.447
 5944TIP3    H117775   7.471   0.760   5.523
 5944TIP3    H217776   7.410   0.835   5.406
 5945TIP3   OH217777   2.731   4.867   6.221
 5945TIP3    H117778   2.689   4.781   6.216
 5945TIP3    H217779   2.780   4.866   6.303
 5946TIP3   OH217780   7.316   6.762   2.165
 5946TIP3    H117781   7.234   6.810   2.174
 5946TIP3    H217782   7.324   6.713   2.247
 5947TIP3   OH217783   3.500   2.022   4.838
 5947TIP3    H117784   3.534   1.981   4.759
 5947TIP3    H217785   3.554   2.100   4.849
 5948TIP3   OH217786   6.905   3.542   3.080
 5948TIP3    H117787   6.814   3.532   3.107
 5948TIP3    H217788   6.948   3.586   3.154
 5949TIP3   OH217789   6.819   2.744   5.003
 5949TIP3    H117790   6.900   2.730   5.052
 5949TIP3    H217791   6.836   2.824   4.953
 5950TIP3   OH217792   7.836   7.710   1.180
 5950TIP3    H117793   7.762   7.652   1.197
 5950TIP3    H217794   7.862   7.742   1.266
 5951TIP3   OH217795   5.658   5.675   2.617
 5951TIP3    H117796   5.671   5.754   2.669
 5951TIP3    H217797   5.571   5.643   2.644
 5952TIP3   OH217798   1.268   4.031   5.848
 5952TIP3    H117799   1.250   4.029   5.942
 5952TIP3    H217800   1.193   4.077   5.811
 5953TIP3   OH217801   1.774   5.999   3.893
 5953TIP3    H117802   1.747   6.025   3.805
 5953TIP3    H217803   1.743   5.909   3.903
 5954TIP3   OH217804   7.192   5.271   2.781
 5954TIP3    H117805   7.163   5.324   2.854
 5954TIP3    H217806   7.221   5.334   2.715
 5955TIP3   OH217807   1.413   3.734   6.171
 5955TIP3    H117808   1.439   3.767   6.085
 5955TIP3    H217809   1.476   3.771   6.232
 5956TIP3   OH217810   2.085   4.179   0.227
 5956TIP3    H117811   2.170   4.200   0.265
 5956TIP3    H217812   2.031   4.256   0.245
 5957TIP3   OH217813   1.085   6.293   0.099
 5957TIP3    H117814   1.108   6.201   0.115
 5957TIP3    H217815   1.132   6.316   0.019
 5958TIP3   OH217816   5.203   2.647   2.765
 5958TIP3    H117817   5.155   2.675   2.844
 5958TIP3    H217818   5.250   2.725   2.737
 5959TIP3   OH217819   3.582   2.762   3.945
 5959TIP3    H117820   3.652   2.767   3.880
 5959TIP3    H217821   3.581   2.848   3.986
 5960TIP3   OH217822   4.881   7.078   4.578
 5960TIP3    H117823   4.911   7.071   4.487
 5960TIP3    H217824   4.944   7.027   4.629
 5961TIP3   OH217825   1.290   6.369   5.811
 5961TIP3    H117826   1.342   6.445   5.786
 5961TIP3    H217827   1.354   6.305   5.842
 5962TIP3   OH217828   7.582   4.073   5.002
 5962TIP3    H117829   7.599   4.168   5.000
 5962TIP3    H217830   7.613   4.041   4.917
 5963TIP3   OH217831   0.804   1.040   0.098
 5963TIP3    H117832   0.876   0.991   0.060
 5963TIP3    H217833   0.725   0.998   0.064
 5964TIP3   OH217834   8.186   0.337   2.804
 5964TIP3    H117835   8.108   0.293   2.839
 5964TIP3    H217836   8.191   0.420   2.852
 5965TIP3   OH217837   4.315   6.748   1.730
 5965TIP3    H117838   4.230   6.788   1.712
 5965TIP3    H217839   4.295   6.670   1.781
 5966TIP3   OH217840   3.499   5.352   6.134
 5966TIP3    H117841   3.568   5.326   6.073
 5966TIP3    H217842   3.498   5.448   6.129
 5967TIP3   OH217843   7.923   6.385   6.089
 5967TIP3    H117844   7.984   6.446   6.130
 5967TIP3    H217845   7.963   6.299   6.101
 5968TIP3   OH217846   7.867   2.637   3.417
 5968TIP3    H117847   7.779   2.658   3.450
 5968TIP3    H217848   7.926   2.688   3.472
 5969TIP3   OH217849   3.263   7.381   5.755
 5969TIP3    H117850   3.224   7.348   5.673
 5969TIP3    H217851   3.237   7.473   5.759
 5970TIP3   OH217852   5.155   6.856   0.182
 5970TIP3    H117853   5.250   6.847   0.187
 5970TIP3    H217854   5.122   6.767   0.175
 5971TIP3   OH217855   5.305   5.281   1.806
 5971TIP3    H117856   5.337   5.237   1.885
 5971TIP3    H217857   5.221   5.318   1.833
 5972TIP3   OH217858   0.243   7.037   0.241
 5972TIP3    H117859   0.175   7.093   0.203
 5972TIP3    H217860   0.273   7.085   0.318
 5973TIP3   OH217861   3.635   7.035   3.581
 5973TIP3    H117862   3.711   7.038   3.640
 5973TIP3    H217863   3.564   7.001   3.637
 5974TIP3   OH217864   6.628   0.480   3.207
 5974TIP3    H117865   6.573   0.428   3.264
 5974TIP3    H217866   6.655   0.419   3.138
 5975TIP3   OH217867   6.931   6.740   5.852
 5975TIP3    H117868   6.860   6.718   5.912
 5975TIP3    H217869   6.979   6.658   5.841
 5976TIP3   OH217870   4.021   4.913   1.366
 5976TIP3    H117871   4.061   4.871   1.442
 5976TIP3    H217872   4.004   4.840   1.305
 5977TIP3   OH217873   6.464   2.315   2.252
 5977TIP3    H117874   6.396   2.380   2.234
 5977TIP3    H217875   6.485   2.278   2.166
 5978TIP3   OH217876   1.899   0.092   1.871
 5978TIP3    H117877   1.870   0.097   1.962
 5978TIP3    H217878   1.918  -0.001   1.856
 5979TIP3   OH217879   4.996   2.847   6.782
 5979TIP3    H117880   4.915   2.814   6.820
 5979TIP3    H217881   5.038   2.769   6.745
 5980TIP3   OH217882   4.373   2.818   1.724
 5980TIP3    H117883   4.416   2.872   1.790
 5980TIP3    H217884   4.368   2.875   1.647
 5981TIP3   OH217885   5.498   6.413   3.048
 5981TIP3    H117886   5.553   6.393   3.124
 5981TIP3    H217887   5.426   6.351   3.054
 5982TIP3   OH217888   5.834   7.763   0.580
 5982TIP3    H117889   5.869   7.782   0.493
 5982TIP3    H217890   5.890   7.812   0.640
 5983TIP3   OH217891   0.558   2.732   1.051
 5983TIP3    H117892   0.563   2.828   1.055
 5983TIP3    H217893   0.497   2.715   0.980
 5984TIP3   OH217894   5.695   0.906   3.020
 5984TIP3    H117895   5.634   0.956   2.966
 5984TIP3    H217896   5.652   0.901   3.106
 5985TIP3   OH217897   1.487   7.000   3.297
 5985TIP3    H117898   1.526   6.931   3.350
 5985TIP3    H217899   1.406   7.024   3.344
 5986TIP3   OH217900   0.530   3.538   5.594
 5986TIP3    H117901   0.521   3.596   5.518
 5986TIP3    H217902   0.619   3.503   5.586
 5987TIP3   OH217903   1.665   0.288   4.561
 5987TIP3    H117904   1.604   0.258   4.493
 5987TIP3    H217905   1.710   0.208   4.589
 5988TIP3   OH217906   7.310   3.831   4.845
 5988TIP3    H117907   7.404   3.822   4.854
 5988TIP3    H217908   7.290   3.794   4.759
 5989TIP3   OH217909   1.029   2.407   0.161
 5989TIP3    H117910   1.100   2.379   0.219
 5989TIP3    H217911   0.966   2.335   0.164
 5990TIP3   OH217912   2.975   5.392   5.724
 5990TIP3    H117913   2.926   5.436   5.655
 5990TIP3    H217914   2.909   5.371   5.790
 5991TIP3   OH217915   1.983   1.658   3.338
 5991TIP3    H117916   2.068   1.616   3.351
 5991TIP3    H217917   1.993   1.744   3.381
 5992TIP3   OH217918   8.106   3.525   4.176
 5992TIP3    H117919   8.046   3.499   4.106
 5992TIP3    H217920   8.193   3.503   4.142
 5993TIP3   OH217921   2.151   4.284   5.288
 5993TIP3    H117922   2.241   4.261   5.313
 5993TIP3    H217923   2.160   4.330   5.204
 5994TIP3   OH217924   1.880   6.787   2.761
 5994TIP3    H117925   1.908   6.698   2.740
 5994TIP3    H217926   1.938   6.815   2.832
 5995TIP3   OH217927   4.493   1.631   5.112
 5995TIP3    H117928   4.489   1.544   5.153
 5995TIP3    H217929   4.578   1.666   5.139
 5996TIP3   OH217930   6.589   4.171   0.696
 5996TIP3    H117931   6.609   4.264   0.693
 5996TIP3    H217932   6.674   4.128   0.692
 5997TIP3   OH217933   7.706   5.622   3.205
 5997TIP3    H117934   7.661   5.640   3.288
 5997TIP3    H217935   7.797   5.650   3.222
 5998TIP3   OH217936   1.405   2.912   0.298
 5998TIP3    H117937   1.460   2.960   0.235
 5998TIP3    H217938   1.327   2.889   0.248
 5999TIP3   OH217939   2.526   0.199   5.085
 5999TIP3    H117940   2.608   0.151   5.077
 5999TIP3    H217941   2.479   0.181   5.003
 6000TIP3   OH217942   3.906   0.642   6.737
 6000TIP3    H117943   3.957   0.702   6.791
 6000TIP3    H217944   3.950   0.558   6.747
 6001TIP3   OH217945   5.028   1.093   0.599
 6001TIP3    H117946   5.022   1.001   0.572
 6001TIP3    H217947   5.044   1.090   0.693
 6002TIP3   OH217948   5.503   0.363   0.775
 6002TIP3    H117949   5.566   0.292   0.772
 6002TIP3    H217950   5.420   0.321   0.796
 6003TIP3   OH217951   6.532   7.647   5.531
 6003TIP3    H117952   6.578   7.699   5.597
 6003TIP3    H217953   6.574   7.672   5.448
 6004TIP3   OH217954   8.042   5.668   2.559
 6004TIP3    H117955   7.965   5.620   2.530
 6004TIP3    H217956   8.007   5.749   2.597
 6005TIP3   OH217957   6.046   5.151   2.414
 6005TIP3    H117958   6.135   5.115   2.413
 6005TIP3    H217959   5.995   5.089   2.465
 6006TIP3   OH217960   7.835   1.012   0.553
 6006TIP3    H117961   7.913   1.066   0.539
 6006TIP3    H217962   7.795   1.047   0.633
 6007TIP3   OH217963   6.285   5.515   1.645
 6007TIP3    H117964   6.246   5.566   1.716
 6007TIP3    H217965   6.376   5.502   1.673
 6008TIP3   OH217966   7.913   3.460   3.966
 6008TIP3    H117967   7.902   3.555   3.955
 6008TIP3    H217968   7.931   3.428   3.878
 6009TIP3   OH217969   4.565   0.257   5.383
 6009TIP3    H117970   4.568   0.268   5.288
 6009TIP3    H217971   4.594   0.167   5.397
 6010TIP3   OH217972   7.644   5.202   2.187
 6010TIP3    H117973   7.567   5.146   2.187
 6010TIP3    H217974   7.622   5.274   2.246
 6011TIP3   OH217975   7.567   5.948   3.475
 6011TIP3    H117976   7.578   5.858   3.444
 6011TIP3    H217977   7.655   5.978   3.496
 6012TIP3   OH217978   7.647   5.559   6.028
 6012TIP3    H117979   7.707   5.562   6.103
 6012TIP3    H217980   7.703   5.581   5.953
 6013TIP3   OH217981   2.589   7.442   5.324
 6013TIP3    H117982   2.576   7.353   5.291
 6013TIP3    H217983   2.529   7.495   5.271
 6014TIP3   OH217984   3.329   2.711   6.515
 6014TIP3    H117985   3.240   2.678   6.511
 6014TIP3    H217986   3.321   2.805   6.506
 6015TIP3   OH217987   6.422   7.175   5.407
 6015TIP3    H117988   6.472   7.235   5.463
 6015TIP3    H217989   6.463   7.183   5.321
 6016TIP3   OH217990   1.549  -0.021   0.316
 6016TIP3    H117991   1.618  -0.034   0.381
 6016TIP3    H217992   1.493   0.046   0.354
 6017TIP3   OH217993   7.778   6.151   3.563
 6017TIP3    H117994   7.814   6.225   3.611
 6017TIP3    H217995   7.841   6.134   3.493
 6018TIP3   OH217996   3.475   6.787   5.039
 6018TIP3    H117997   3.479   6.835   5.121
 6018TIP3    H217998   3.551   6.817   4.989
 6019TIP3   OH217999   7.530   4.908   6.632
 6019TIP3    H118000   7.547   4.864   6.715
 6019TIP3    H218001   7.437   4.931   6.636
 6020TIP3   OH218002   6.701   2.566   3.625
 6020TIP3    H118003   6.611   2.597   3.639
 6020TIP3    H218004   6.696   2.472   3.643
 6021TIP3   OH218005   8.035   4.891   2.790
 6021TIP3    H118006   8.036   4.985   2.811
 6021TIP3    H218007   8.127   4.866   2.792
 6022TIP3   OH218008   7.314   3.029   3.096
 6022TIP3    H118009   7.382   3.096   3.084
 6022TIP3    H218010   7.325   2.971   3.021
 6023TIP3   OH218011   3.901   2.167   2.110
 6023TIP3    H118012   3.927   2.127   2.193
 6023TIP3    H218013   3.849   2.243   2.135
 6024TIP3   OH218014   5.257   4.049   5.678
 6024TIP3    H118015   5.332   3.990   5.674
 6024TIP3    H218016   5.296   4.137   5.680
 6025TIP3   OH218017   5.709   3.192   3.685
 6025TIP3    H118018   5.634   3.247   3.706
 6025TIP3    H218019   5.696   3.113   3.739
 6026TIP3   OH218020   6.869   0.939   6.049
 6026TIP3    H118021   6.822   0.981   5.978
 6026TIP3    H218022   6.804   0.885   6.093
 6027TIP3   OH218023   2.120   7.682   3.464
 6027TIP3    H118024   2.115   7.594   3.502
 6027TIP3    H218025   2.050   7.683   3.399
 6028TIP3   OH218026   5.676   3.318   4.123
 6028TIP3    H118027   5.623   3.329   4.202
 6028TIP3    H218028   5.629   3.369   4.056
 6029TIP3   OH218029   6.458   1.031   2.464
 6029TIP3    H118030   6.550   1.017   2.441
 6029TIP3    H218031   6.419   1.066   2.384
 6030TIP3   OH218032   4.392   1.754   4.896
 6030TIP3    H118033   4.420   1.715   4.979
 6030TIP3    H218034   4.473   1.762   4.845
 6031TIP3   OH218035   0.809   4.655   4.765
 6031TIP3    H118036   0.879   4.623   4.708
 6031TIP3    H218037   0.812   4.751   4.756
 6032TIP3   OH218038   7.045   1.701   0.531
 6032TIP3    H118039   7.004   1.713   0.445
 6032TIP3    H218040   7.049   1.606   0.542
 6033TIP3   OH218041   4.618   5.982   5.793
 6033TIP3    H118042   4.581   5.959   5.879
 6033TIP3    H218043   4.671   5.906   5.769
 6034TIP3   OH218044   5.916   0.507   6.193
 6034TIP3    H118045   5.917   0.429   6.248
 6034TIP3    H218046   5.868   0.480   6.114
 6035TIP3   OH218047   2.639   3.977   2.845
 6035TIP3    H118048   2.674   4.057   2.883
 6035TIP3    H218049   2.582   3.941   2.914
 6036TIP3   OH218050   1.917   2.901   3.569
 6036TIP3    H118051   1.983   2.927   3.633
 6036TIP3    H218052   1.955   2.825   3.524
 6037TIP3   OH218053   0.513   0.728   0.202
 6037TIP3    H118054   0.599   0.736   0.243
 6037TIP3    H218055   0.525   0.662   0.134
 6038TIP3   OH218056   0.469   1.035   5.995
 6038TIP3    H118057   0.531   1.001   6.059
 6038TIP3    H218058   0.386   1.042   6.043
 6039TIP3   OH218059   1.482   5.787   1.775
 6039TIP3    H118060   1.569   5.761   1.744
 6039TIP3    H218061   1.430   5.706   1.770
 6040TIP3   OH218062   4.156   3.117   2.332
 6040TIP3    H118063   4.083   3.097   2.391
 6040TIP3    H218064   4.143   3.210   2.310
 6041TIP3   OH218065   0.316   7.702   2.412
 6041TIP3    H118066   0.359   7.768   2.358
 6041TIP3    H218067   0.303   7.628   2.354
 6042TIP3   OH218068   3.730   0.975   5.102
 6042TIP3    H118069   3.685   0.908   5.154
 6042TIP3    H218070   3.661   1.037   5.079
 6043TIP3   OH218071   2.660   0.149   6.324
 6043TIP3    H118072   2.655   0.112   6.236
 6043TIP3    H218073   2.717   0.088   6.372
 6044TIP3   OH218074   2.280   4.597   4.672
 6044TIP3    H118075   2.256   4.598   4.580
 6044TIP3    H218076   2.363   4.550   4.676
 6045TIP3   OH218077   6.057   5.109   4.060
 6045TIP3    H118078   6.120   5.144   3.996
 6045TIP3    H218079   5.973   5.142   4.031
 6046TIP3   OH218080   3.345   7.462   0.620
 6046TIP3    H118081   3.419   7.521   0.605
 6046TIP3    H218082   3.279   7.488   0.556
 6047TIP3   OH218083   4.923   0.597   6.340
 6047TIP3    H118084   4.862   0.635   6.276
 6047TIP3    H218085   4.998   0.570   6.288
 6048TIP3   OH218086   1.008   7.684   1.877
 6048TIP3    H118087   0.927   7.633   1.878
 6048TIP3    H218088   0.979   7.775   1.874
 6049TIP3   OH218089   3.801   4.388   3.100
 6049TIP3    H118090   3.845   4.468   3.073
 6049TIP3    H218091   3.821   4.325   3.030
 6050TIP3   OH218092   2.538   2.442   4.662
 6050TIP3    H118093   2.528   2.432   4.568
 6050TIP3    H218094   2.588   2.365   4.690
 6051TIP3   OH218095   1.318   5.679   0.443
 6051TIP3    H118096   1.227   5.689   0.472
 6051TIP3    H218097   1.357   5.766   0.456
 6052TIP3   OH218098   7.879   6.519   2.978
 6052TIP3    H118099   7.799   6.567   3.002
 6052TIP3    H218100   7.892   6.458   3.050
 6053TIP3   OH218101   4.669   3.372   2.234
 6053TIP3    H118102   4.689   3.322   2.313
 6053TIP3    H218103   4.628   3.453   2.266
 6054TIP3   OH218104   2.130   0.275   1.484
 6054TIP3    H118105   2.092   0.196   1.522
 6054TIP3    H218106   2.058   0.337   1.480
 6055TIP3   OH218107   4.524   1.135   4.943
 6055TIP3    H118108   4.575   1.146   5.024
 6055TIP3    H218109   4.445   1.188   4.957
 6056TIP3   OH218110   1.427   2.616   5.998
 6056TIP3    H118111   1.446   2.634   5.906
 6056TIP3    H218112   1.364   2.684   6.023
 6057TIP3   OH218113   3.336   4.501   0.547
 6057TIP3    H118114   3.402   4.525   0.612
 6057TIP3    H218115   3.325   4.580   0.494
 6058TIP3   OH218116   3.032   5.402   2.578
 6058TIP3    H118117   3.025   5.313   2.612
 6058TIP3    H218118   3.125   5.424   2.586
 6059TIP3   OH218119   1.132   2.530   4.242
 6059TIP3    H118120   1.117   2.439   4.217
 6059TIP3    H218121   1.117   2.579   4.161
 6060TIP3   OH218122   1.020   3.325   4.473
 6060TIP3    H118123   1.049   3.246   4.428
 6060TIP3    H218124   1.058   3.397   4.423
 6061TIP3   OH218125   1.530   4.336   3.204
 6061TIP3    H118126   1.468   4.390   3.252
 6061TIP3    H218127   1.477   4.265   3.167
 6062TIP3   OH218128   0.709   2.590   2.526
 6062TIP3    H118129   0.755   2.578   2.609
 6062TIP3    H218130   0.678   2.502   2.503
 6063TIP3   OH218131   2.773   2.969   3.276
 6063TIP3    H118132   2.821   3.049   3.254
 6063TIP3    H218133   2.823   2.899   3.235
 6064TIP3   OH218134   0.812   3.833   4.085
 6064TIP3    H118135   0.801   3.868   4.174
 6064TIP3    H218136   0.906   3.835   4.069
 6065TIP3   OH218137   5.746   1.187   4.825
 6065TIP3    H118138   5.717   1.101   4.855
 6065TIP3    H218139   5.738   1.183   4.730
 6066TIP3   OH218140   1.845   4.473   6.541
 6066TIP3    H118141   1.862   4.465   6.634
 6066TIP3    H218142   1.882   4.557   6.516
 6067TIP3   OH218143   4.472   6.190   3.233
 6067TIP3    H118144   4.519   6.261   3.276
 6067TIP3    H218145   4.414   6.154   3.301
 6068TIP3   OH218146   4.124   6.919   0.846
 6068TIP3    H118147   4.152   6.830   0.867
 6068TIP3    H218148   4.042   6.907   0.797
 6069TIP3   OH218149   7.805   6.345   5.823
 6069TIP3    H118150   7.714   6.349   5.851
 6069TIP3    H218151   7.856   6.343   5.904
 6070TIP3   OH218152   1.573   7.265   1.543
 6070TIP3    H118153   1.580   7.224   1.457
 6070TIP3    H218154   1.652   7.317   1.552
 6071TIP3   OH218155   5.830   3.574   6.414
 6071TIP3    H118156   5.888   3.505   6.446
 6071TIP3    H218157   5.743   3.549   6.445
 6072TIP3   OH218158   8.020   4.928   0.156
 6072TIP3    H118159   8.083   4.995   0.130
 6072TIP3    H218160   8.060   4.883   0.230
 6073TIP3   OH218161   3.508   0.028   2.159
 6073TIP3    H118162   3.419   0.039   2.124
 6073TIP3    H218163   3.531   0.115   2.193
 6074TIP3   OH218164   6.636   4.766   4.340
 6074TIP3    H118165   6.565   4.720   4.295
 6074TIP3    H218166   6.692   4.696   4.375
 6075TIP3   OH218167   5.579   2.642   5.933
 6075TIP3    H118168   5.664   2.599   5.945
 6075TIP3    H218169   5.568   2.697   6.011
 6076TIP3   OH218170   6.806   1.905   5.585
 6076TIP3    H118171   6.823   1.951   5.503
 6076TIP3    H218172   6.727   1.946   5.620
 6077TIP3   OH218173   0.473   6.816   0.900
 6077TIP3    H118174   0.468   6.743   0.961
 6077TIP3    H218175   0.384   6.849   0.895
 6078TIP3   OH218176   2.088   7.798   6.436
 6078TIP3    H118177   2.183   7.810   6.428
 6078TIP3    H218178   2.060   7.872   6.490
 6079TIP3   OH218179   5.645   4.528   6.075
 6079TIP3    H118180   5.656   4.437   6.103
 6079TIP3    H218181   5.734   4.560   6.061
 6080TIP3   OH218182   0.099   3.717   4.006
 6080TIP3    H118183   0.095   3.621   3.998
 6080TIP3    H218184   0.177   3.734   4.059
 6081TIP3   OH218185   2.320   2.008   5.396
 6081TIP3    H118186   2.255   2.063   5.351
 6081TIP3    H218187   2.386   2.069   5.427
 6082TIP3   OH218188   4.947   1.254   4.567
 6082TIP3    H118189   4.920   1.346   4.568
 6082TIP3    H218190   4.927   1.224   4.478
 6083TIP3   OH218191   2.434   2.713   3.588
 6083TIP3    H118192   2.368   2.743   3.526
 6083TIP3    H218193   2.459   2.792   3.637
 6084TIP3   OH218194   0.067   2.628   1.214
 6084TIP3    H118195  -0.010   2.679   1.239
 6084TIP3    H218196   0.140   2.690   1.222
 6085TIP3   OH218197   1.128   3.452   1.698
 6085TIP3    H118198   1.163   3.366   1.674
 6085TIP3    H218199   1.044   3.457   1.652
 6086TIP3   OH218200   7.565   6.580   5.434
 6086TIP3    H118201   7.478   6.612   5.410
 6086TIP3    H218202   7.595   6.641   5.502
 6087TIP3   OH218203   4.027   4.614   4.096
 6087TIP3    H118204   4.002   4.628   4.187
 6087TIP3    H218205   4.074   4.693   4.071
 6088TIP3   OH218206   2.379   6.087   2.091
 6088TIP3    H118207   2.447   6.063   2.029
 6088TIP3    H218208   2.300   6.095   2.039
 6089TIP3   OH218209   4.703   7.291   4.010
 6089TIP3    H118210   4.693   7.382   4.036
 6089TIP3    H218211   4.636   7.278   3.943
 6090TIP3   OH218212   7.652   3.190   6.487
 6090TIP3    H118213   7.627   3.255   6.552
 6090TIP3    H218214   7.600   3.211   6.410
 6091TIP3   OH218215   1.201   0.401   5.119
 6091TIP3    H118216   1.273   0.455   5.087
 6091TIP3    H218217   1.199   0.326   5.059
 6092TIP3   OH218218   0.728   1.009   5.283
 6092TIP3    H118219   0.766   1.010   5.195
 6092TIP3    H218220   0.711   0.917   5.300
 6093TIP3   OH218221   4.856   5.236   1.773
 6093TIP3    H118222   4.903   5.319   1.773
 6093TIP3    H218223   4.792   5.244   1.702
 6094TIP3   OH218224   5.195   1.465   4.099
 6094TIP3    H118225   5.192   1.379   4.141
 6094TIP3    H218226   5.174   1.527   4.169
 6095TIP3   OH218227   7.768   4.565   3.378
 6095TIP3    H118228   7.724   4.497   3.430
 6095TIP3    H218229   7.861   4.547   3.388
 6096TIP3   OH218230   5.874   0.746   6.308
 6096TIP3    H118231   5.832   0.769   6.225
 6096TIP3    H218232   5.870   0.651   6.311
 6097TIP3   OH218233   4.848   5.118   4.907
 6097TIP3    H118234   4.777   5.054   4.898
 6097TIP3    H218235   4.878   5.108   4.998
 6098TIP3   OH218236   7.805   5.735   6.261
 6098TIP3    H118237   7.753   5.709   6.338
 6098TIP3    H218238   7.830   5.826   6.279
 6099TIP3   OH218239   7.761   2.214   1.637
 6099TIP3    H118240   7.777   2.180   1.726
 6099TIP3    H218241   7.788   2.142   1.580
 6100TIP3   OH218242   5.946   1.320   0.735
 6100TIP3    H118243   5.971   1.265   0.809
 6100TIP3    H218244   6.025   1.370   0.714
 6101TIP3   OH218245   3.463   0.278   1.849
 6101TIP3    H118246   3.429   0.277   1.759
 6101TIP3    H218247   3.388   0.258   1.904
 6102TIP3   OH218248   5.720   3.508   5.547
 6102TIP3    H118249   5.798   3.553   5.515
 6102TIP3    H218250   5.727   3.419   5.512
 6103TIP3   OH218251   3.395   2.992   1.597
 6103TIP3    H118252   3.329   2.961   1.660
 6103TIP3    H218253   3.404   2.920   1.535
 6104TIP3   OH218254   7.161   0.537   1.198
 6104TIP3    H118255   7.069   0.563   1.187
 6104TIP3    H218256   7.160   0.442   1.185
 6105TIP3   OH218257   2.814   6.191   3.821
 6105TIP3    H118258   2.874   6.129   3.862
 6105TIP3    H218259   2.794   6.255   3.889
 6106TIP3   OH218260   1.452   6.999   5.202
 6106TIP3    H118261   1.511   6.929   5.173
 6106TIP3    H218262   1.368   6.956   5.216
 6107TIP3   OH218263   8.188   0.109   1.697
 6107TIP3    H118264   8.275   0.141   1.676
 6107TIP3    H218265   8.164   0.053   1.623
 6108TIP3   OH218266   7.654   2.847   4.985
 6108TIP3    H118267   7.673   2.939   4.969
 6108TIP3    H218268   7.565   2.845   5.019
 6109TIP3   OH218269   2.838   4.327   5.219
 6109TIP3    H118270   2.876   4.361   5.300
 6109TIP3    H218271   2.904   4.267   5.185
 6110TIP3   OH218272   3.350   1.071   1.266
 6110TIP3    H118273   3.397   1.090   1.184
 6110TIP3    H218274   3.270   1.027   1.238
 6111TIP3   OH218275   4.349   6.972   3.607
 6111TIP3    H118276   4.349   6.976   3.511
 6111TIP3    H218277   4.419   6.911   3.629
 6112TIP3   OH218278   2.067   3.886   0.546
 6112TIP3    H118279   2.120   3.875   0.467
 6112TIP3    H218280   2.128   3.923   0.610
 6113TIP3   OH218281   5.435   1.992   1.377
 6113TIP3    H118282   5.522   2.030   1.370
 6113TIP3    H218283   5.377   2.054   1.334
 6114TIP3   OH218284   3.075   6.360   3.733
 6114TIP3    H118285   3.019   6.323   3.665
 6114TIP3    H218286   3.161   6.319   3.718
 6115TIP3   OH218287   1.365   7.238   3.190
 6115TIP3    H118288   1.357   7.255   3.284
 6115TIP3    H218289   1.412   7.154   3.186
 6116TIP3   OH218290   5.671   5.675   4.032
 6116TIP3    H118291   5.714   5.759   4.015
 6116TIP3    H218292   5.740   5.619   4.066
 6117TIP3   OH218293   0.717   7.326   2.765
 6117TIP3    H118294   0.792   7.347   2.821
 6117TIP3    H218295   0.644   7.315   2.826
 6118TIP3   OH218296   0.191   4.392   4.069
 6118TIP3    H118297   0.220   4.347   3.989
 6118TIP3    H218298   0.164   4.322   4.128
 6119TIP3   OH218299   4.672   0.593   5.370
 6119TIP3    H118300   4.674   0.519   5.432
 6119TIP3    H218301   4.584   0.592   5.333
 6120TIP3   OH218302   2.376   7.376   2.866
 6120TIP3    H118303   2.429   7.333   2.800
 6120TIP3    H218304   2.435   7.389   2.940
 6121TIP3   OH218305   7.562   5.994   0.126
 6121TIP3    H118306   7.485   6.050   0.124
 6121TIP3    H218307   7.532   5.912   0.166
 6122TIP3   OH218308   5.441   0.917   1.565
 6122TIP3    H118309   5.497   0.842   1.586
 6122TIP3    H218310   5.381   0.923   1.640
 6123TIP3   OH218311   5.159   7.790   0.609
 6123TIP3    H118312   5.129   7.713   0.561
 6123TIP3    H218313   5.213   7.755   0.680
 6124TIP3   OH218314   2.293   3.507   2.406
 6124TIP3    H118315   2.247   3.438   2.454
 6124TIP3    H218316   2.298   3.473   2.316
 6125TIP3   OH218317   2.697   0.325   5.984
 6125TIP3    H118318   2.747   0.361   5.910
 6125TIP3    H218319   2.662   0.403   6.028
 6126TIP3   OH218320   1.779   2.563   2.709
 6126TIP3    H118321   1.867   2.533   2.735
 6126TIP3    H218322   1.723   2.537   2.782
 6127TIP3   OH218323   3.131   4.963   1.753
 6127TIP3    H118324   3.130   4.869   1.769
 6127TIP3    H218325   3.204   4.976   1.692
 6128TIP3   OH218326   3.809   1.432   1.512
 6128TIP3    H118327   3.872   1.361   1.522
 6128TIP3    H218328   3.862   1.509   1.491
 6129TIP3   OH218329   4.233   7.488   4.057
 6129TIP3    H118330   4.231   7.501   3.962
 6129TIP3    H218331   4.252   7.574   4.092
 6130TIP3   OH218332   0.775   0.196   2.095
 6130TIP3    H118333   0.780   0.281   2.051
 6130TIP3    H218334   0.833   0.204   2.170
 6131TIP3   OH218335   1.704   0.310   0.974
 6131TIP3    H118336   1.789   0.339   0.939
 6131TIP3    H218337   1.726   0.241   1.035
 6132TIP3   OH218338   2.933   5.363   2.224
 6132TIP3    H118339   2.904   5.424   2.157
 6132TIP3    H218340   3.023   5.389   2.244
 6133TIP3   OH218341   0.103   1.470   3.100
 6133TIP3    H118342   0.179   1.483   3.158
 6133TIP3    H218343   0.140   1.475   3.012
 6134TIP3   OH218344   7.361   3.171   2.130
 6134TIP3    H118345   7.422   3.157   2.202
 6134TIP3    H218346   7.405   3.132   2.054
 6135TIP3   OH218347   3.735   4.474   3.812
 6135TIP3    H118348   3.782   4.557   3.819
 6135TIP3    H218349   3.670   4.478   3.882
 6136TIP3   OH218350   5.202   3.457   6.167
 6136TIP3    H118351   5.129   3.502   6.125
 6136TIP3    H218352   5.179   3.364   6.162
 6137TIP3   OH218353   2.542   1.352   2.335
 6137TIP3    H118354   2.462   1.384   2.292
 6137TIP3    H218355   2.566   1.274   2.286
 6138TIP3   OH218356   1.820   3.624   3.591
 6138TIP3    H118357   1.766   3.597   3.517
 6138TIP3    H218358   1.759   3.664   3.652
 6139TIP3   OH218359   0.749   6.368   4.323
 6139TIP3    H118360   0.741   6.309   4.397
 6139TIP3    H218361   0.785   6.449   4.360
 6140TIP3   OH218362   0.758   0.627   2.367
 6140TIP3    H118363   0.803   0.710   2.384
 6140TIP3    H218364   0.730   0.598   2.454
 6141TIP3   OH218365   5.838   6.318   0.217
 6141TIP3    H118366   5.894   6.337   0.142
 6141TIP3    H218367   5.873   6.373   0.287
 6142TIP3   OH218368   4.205   2.459   2.693
 6142TIP3    H118369   4.277   2.403   2.665
 6142TIP3    H218370   4.247   2.529   2.743
 6143TIP3   OH218371   8.316   7.569   0.683
 6143TIP3    H118372   8.316   7.501   0.750
 6143TIP3    H218373   8.240   7.623   0.704
 6144TIP3   OH218374   3.186   6.023   4.549
 6144TIP3    H118375   3.215   6.114   4.546
 6144TIP3    H218376   3.145   6.014   4.635
 6145TIP3   OH218377   8.214   5.222   4.432
 6145TIP3    H118378   8.127   5.204   4.467
 6145TIP3    H218379   8.272   5.159   4.475
 6146TIP3   OH218380   4.715   6.327   4.569
 6146TIP3    H118381   4.630   6.369   4.553
 6146TIP3    H218382   4.694   6.247   4.617
 6147TIP3   OH218383   2.111   2.574   1.493
 6147TIP3    H118384   2.152   2.639   1.549
 6147TIP3    H218385   2.093   2.500   1.550
 6148TIP3   OH218386   0.524   3.734   0.247
 6148TIP3    H118387   0.486   3.687   0.173
 6148TIP3    H218388   0.618   3.724   0.235
 6149TIP3   OH218389   7.911   3.301   0.016
 6149TIP3    H118390   7.942   3.353   0.091
 6149TIP3    H218391   7.980   3.235   0.003
 6150TIP3   OH218392   3.006   4.639   3.726
 6150TIP3    H118393   2.971   4.571   3.668
 6150TIP3    H218394   3.101   4.636   3.711
 6151TIP3   OH218395   3.258   7.207   0.354
 6151TIP3    H118396   3.164   7.190   0.362
 6151TIP3    H218397   3.265   7.268   0.280
 6152TIP3   OH218398   3.902   5.178   6.519
 6152TIP3    H118399   3.960   5.236   6.568
 6152TIP3    H218400   3.886   5.224   6.436
 6153TIP3   OH218401   7.014   3.622   2.103
 6153TIP3    H118402   7.074   3.681   2.057
 6153TIP3    H218403   6.964   3.680   2.162
 6154TIP3   OH218404   8.042   2.565   2.501
 6154TIP3    H118405   7.991   2.579   2.582
 6154TIP3    H218406   8.036   2.471   2.486
 6155TIP3   OH218407   1.218   2.968   6.254
 6155TIP3    H118408   1.287   2.956   6.321
 6155TIP3    H218409   1.245   3.047   6.207
 6156TIP3   OH218410   0.841   3.420   6.338
 6156TIP3    H118411   0.851   3.492   6.400
 6156TIP3    H218412   0.751   3.427   6.307
 6157TIP3   OH218413   3.677   5.894   0.260
 6157TIP3    H118414   3.592   5.938   0.266
 6157TIP3    H218415   3.730   5.932   0.330
 6158TIP3   OH218416   3.331   1.593   5.200
 6158TIP3    H118417   3.418   1.606   5.163
 6158TIP3    H218418   3.297   1.681   5.213
 6159TIP3   OH218419   3.320   6.899   1.943
 6159TIP3    H118420   3.337   6.835   2.012
 6159TIP3    H218421   3.262   6.853   1.882
 6160TIP3   OH218422   7.852   1.548   3.438
 6160TIP3    H118423   7.935   1.596   3.436
 6160TIP3    H218424   7.785   1.616   3.425
 6161TIP3   OH218425   3.025   4.507   6.099
 6161TIP3    H118426   3.097   4.446   6.120
 6161TIP3    H218427   2.973   4.512   6.179
 6162TIP3   OH218428   6.445   6.728   5.403
 6162TIP3    H118429   6.465   6.702   5.493
 6162TIP3    H218430   6.477   6.656   5.350
 6163TIP3   OH218431   6.176   3.095   3.576
 6163TIP3    H118432   6.150   3.037   3.648
 6163TIP3    H218433   6.096   3.145   3.556
 6164TIP3   OH218434   0.244   1.452   2.474
 6164TIP3    H118435   0.291   1.417   2.549
 6164TIP3    H218436   0.173   1.503   2.512
 6165TIP3   OH218437   2.357   2.871   2.552
 6165TIP3    H118438   2.416   2.913   2.489
 6165TIP3    H218439   2.405   2.795   2.583
 6166TIP3   OH218440   3.603   2.368   6.477
 6166TIP3    H118441   3.613   2.463   6.474
 6166TIP3    H218442   3.539   2.349   6.409
 6167TIP3   OH218443   6.510   0.503   4.657
 6167TIP3    H118444   6.427   0.480   4.614
 6167TIP3    H218445   6.577   0.461   4.603
 6168TIP3   OH218446   7.346   3.965   6.762
 6168TIP3    H118447   7.269   3.910   6.778
 6168TIP3    H218448   7.363   3.956   6.668
 6169TIP3   OH218449   4.513   2.379   1.882
 6169TIP3    H118450   4.512   2.470   1.914
 6169TIP3    H218451   4.602   2.349   1.896
 6170TIP3   OH218452   7.533   7.515   3.452
 6170TIP3    H118453   7.442   7.545   3.456
 6170TIP3    H218454   7.558   7.499   3.543
 6171TIP3   OH218455   6.847   4.390   3.091
 6171TIP3    H118456   6.923   4.344   3.056
 6171TIP3    H218457   6.884   4.468   3.134
 6172TIP3   OH218458   3.818   2.087   1.611
 6172TIP3    H118459   3.843   2.102   1.702
 6172TIP3    H218460   3.771   2.003   1.613
 6173TIP3   OH218461   6.857   2.249   4.065
 6173TIP3    H118462   6.841   2.279   4.155
 6173TIP3    H218463   6.899   2.323   4.022
 6174TIP3   OH218464   0.475   6.341   6.021
 6174TIP3    H118465   0.568   6.326   6.038
 6174TIP3    H218466   0.462   6.307   5.932
 6175TIP3   OH218467   0.497   4.222   0.095
 6175TIP3    H118468   0.411   4.256   0.071
 6175TIP3    H218469   0.481   4.132   0.121
 6176TIP3   OH218470   3.961   3.603   3.532
 6176TIP3    H118471   3.911   3.533   3.574
 6176TIP3    H218472   3.896   3.651   3.481
 6177TIP3   OH218473   1.962   1.113   6.065
 6177TIP3    H118474   1.928   1.127   6.154
 6177TIP3    H218475   2.055   1.134   6.072
 6178TIP3   OH218476   2.236   2.354   4.097
 6178TIP3    H118477   2.256   2.295   4.023
 6178TIP3    H218478   2.321   2.370   4.137
 6179TIP3   OH218479   2.588   6.891   6.331
 6179TIP3    H118480   2.522   6.823   6.343
 6179TIP3    H218481   2.631   6.867   6.249
 6180TIP3   OH218482   7.380   5.280   5.830
 6180TIP3    H118483   7.379   5.235   5.746
 6180TIP3    H218484   7.455   5.243   5.877
 6181TIP3   OH218485   4.599   4.979   4.843
 6181TIP3    H118486   4.527   5.011   4.897
 6181TIP3    H218487   4.576   5.006   4.754
 6182TIP3   OH218488   6.615   3.017   4.691
 6182TIP3    H118489   6.594   2.981   4.604
 6182TIP3    H218490   6.531   3.042   4.728
 6183TIP3   OH218491   2.867   0.335   0.275
 6183TIP3    H118492   2.814   0.345   0.353
 6183TIP3    H218493   2.957   0.344   0.306
 6184TIP3   OH218494   7.756   7.337   1.716
 6184TIP3    H118495   7.735   7.280   1.641
 6184TIP3    H218496   7.681   7.396   1.723
 6185TIP3   OH218497   5.934   5.313   1.757
 6185TIP3    H118498   5.961   5.299   1.667
 6185TIP3    H218499   5.855   5.260   1.767
 6186TIP3   OH218500   3.096   6.491   2.568
 6186TIP3    H118501   3.066   6.400   2.567
 6186TIP3    H218502   3.115   6.509   2.660
 6187TIP3   OH218503   7.362   1.090   6.360
 6187TIP3    H118504   7.443   1.129   6.393
 6187TIP3    H218505   7.322   1.159   6.307
 6188TIP3   OH218506   3.099   7.167   1.616
 6188TIP3    H118507   3.095   7.166   1.712
 6188TIP3    H218508   3.150   7.246   1.595
 6189TIP3   OH218509   1.235   5.963   0.417
 6189TIP3    H118510   1.286   6.044   0.409
 6189TIP3    H218511   1.198   5.967   0.505
 6190TIP3   OH218512   0.716   2.638   5.848
 6190TIP3    H118513   0.790   2.584   5.822
 6190TIP3    H218514   0.641   2.579   5.848
 6191TIP3   OH218515   7.659   1.349   5.075
 6191TIP3    H118516   7.649   1.436   5.115
 6191TIP3    H218517   7.713   1.365   4.997
 6192TIP3   OH218518   4.104   4.469   3.291
 6192TIP3    H118519   4.048   4.438   3.362
 6192TIP3    H218520   4.043   4.502   3.225
 6193TIP3   OH218521   7.120   6.481   2.075
 6193TIP3    H118522   7.215   6.476   2.071
 6193TIP3    H218523   7.091   6.390   2.065
 6194TIP3   OH218524   7.098   7.027   2.928
 6194TIP3    H118525   7.175   7.072   2.962
 6194TIP3    H218526   7.052   7.093   2.876
 6195TIP3   OH218527   6.446   0.227   0.408
 6195TIP3    H118528   6.462   0.227   0.502
 6195TIP3    H218529   6.380   0.159   0.394
 6196TIP3   OH218530   0.510   0.359   5.234
 6196TIP3    H118531   0.559   0.313   5.165
 6196TIP3    H218532   0.466   0.431   5.189
 6197TIP3   OH218533   1.289   6.254   6.323
 6197TIP3    H118534   1.210   6.300   6.294
 6197TIP3    H218535   1.260   6.205   6.401
 6198TIP3   OH218536   5.675   2.355   1.712
 6198TIP3    H118537   5.687   2.420   1.780
 6198TIP3    H218538   5.740   2.376   1.645
 6199TIP3   OH218539   5.069   5.954   1.361
 6199TIP3    H118540   4.991   5.933   1.412
 6199TIP3    H218541   5.073   6.050   1.362
 6200TIP3   OH218542   1.060   4.451   1.237
 6200TIP3    H118543   1.153   4.438   1.218
 6200TIP3    H218544   1.014   4.400   1.170
 6201TIP3   OH218545   2.825   1.039   3.956
 6201TIP3    H118546   2.804   1.131   3.938
 6201TIP3    H218547   2.920   1.033   3.943
 6202TIP3   OH218548   5.817   2.866   6.430
 6202TIP3    H118549   5.826   2.934   6.363
 6202TIP3    H218550   5.803   2.914   6.512
 6203TIP3   OH218551   3.836   6.118   4.041
 6203TIP3    H118552   3.887   6.096   4.119
 6203TIP3    H218553   3.832   6.037   3.991
 6204TIP3   OH218554   8.050   6.467   6.707
 6204TIP3    H118555   8.130   6.452   6.758
 6204TIP3    H218556   8.043   6.562   6.700
 6205TIP3   OH218557   0.517   1.462   5.071
 6205TIP3    H118558   0.563   1.386   5.108
 6205TIP3    H218559   0.565   1.480   4.990
 6206TIP3   OH218560   0.108   4.981   6.471
 6206TIP3    H118561   0.164   5.054   6.446
 6206TIP3    H218562   0.020   5.020   6.477
 6207TIP3   OH218563   2.863   0.789   3.606
 6207TIP3    H118564   2.778   0.769   3.567
 6207TIP3    H218565   2.881   0.715   3.663
 6208TIP3   OH218566   4.692   5.787   4.761
 6208TIP3    H118567   4.758   5.719   4.746
 6208TIP3    H218568   4.613   5.740   4.785
 6209TIP3   OH218569   6.716   3.644   5.777
 6209TIP3    H118570   6.623   3.631   5.795
 6209TIP3    H218571   6.734   3.733   5.809
 6210TIP3   OH218572   6.945   7.489   0.341
 6210TIP3    H118573   6.883   7.416   0.341
 6210TIP3    H218574   6.922   7.539   0.262
 6211TIP3   OH218575   6.297   7.651   5.660
 6211TIP3    H118576   6.378   7.643   5.610
 6211TIP3    H218577   6.273   7.743   5.652
 6212TIP3   OH218578   1.738   7.661   5.727
 6212TIP3    H118579   1.693   7.704   5.800
 6212TIP3    H218580   1.793   7.730   5.690
 6213TIP3   OH218581   0.889   3.650   5.258
 6213TIP3    H118582   0.806   3.645   5.211
 6213TIP3    H218583   0.880   3.725   5.316
 6214TIP3   OH218584   7.102   1.350   3.274
 6214TIP3    H118585   7.145   1.279   3.322
 6214TIP3    H218586   7.051   1.396   3.341
 6215TIP3   OH218587   6.463   2.753   3.683
 6215TIP3    H118588   6.437   2.662   3.673
 6215TIP3    H218589   6.414   2.799   3.615
 6216TIP3   OH218590   7.054   2.075   3.190
 6216TIP3    H118591   7.104   2.081   3.270
 6216TIP3    H218592   7.118   2.087   3.120
 6217TIP3   OH218593   1.083   4.235   5.777
 6217TIP3    H118594   1.070   4.298   5.707
 6217TIP3    H218595   1.148   4.276   5.834
 6218TIP3   OH218596   5.125   6.549   1.793
 6218TIP3    H118597   5.142   6.564   1.700
 6218TIP3    H218598   5.208   6.571   1.836
 6219TIP3   OH218599   1.403   7.310   5.662
 6219TIP3    H118600   1.373   7.276   5.746
 6219TIP3    H218601   1.489   7.270   5.649
 6220TIP3   OH218602   0.625   7.206   6.647
 6220TIP3    H118603   0.669   7.127   6.613
 6220TIP3    H218604   0.537   7.201   6.609
 6221TIP3   OH218605   7.575   5.362   2.838
 6221TIP3    H118606   7.576   5.305   2.762
 6221TIP3    H218607   7.504   5.423   2.822
 6222TIP3   OH218608   7.529   2.433   2.965
 6222TIP3    H118609   7.601   2.370   2.968
 6222TIP3    H218610   7.486   2.417   2.881
 6223TIP3   OH218611   4.150   7.713   2.804
 6223TIP3    H118612   4.084   7.677   2.746
 6223TIP3    H218613   4.226   7.729   2.747
 6224TIP3   OH218614   5.042   5.542   0.092
 6224TIP3    H118615   5.076   5.471   0.147
 6224TIP3    H218616   5.036   5.618   0.151
 6225TIP3   OH218617   0.134   5.507   6.227
 6225TIP3    H118618   0.121   5.413   6.222
 6225TIP3    H218619   0.161   5.524   6.317
 6226TIP3   OH218620   1.879   1.446   1.828
 6226TIP3    H118621   1.853   1.484   1.744
 6226TIP3    H218622   1.862   1.352   1.818
 6227TIP3   OH218623   6.003   1.068   3.349
 6227TIP3    H118624   5.993   1.034   3.260
 6227TIP3    H218625   5.920   1.048   3.392
 6228TIP3   OH218626   5.212   7.241   2.109
 6228TIP3    H118627   5.276   7.209   2.173
 6228TIP3    H218628   5.253   7.226   2.024
 6229TIP3   OH218629   5.084   4.103   2.646
 6229TIP3    H118630   5.047   4.154   2.573
 6229TIP3    H218631   5.013   4.098   2.710
 6230TIP3   OH218632   2.484   2.909   0.466
 6230TIP3    H118633   2.474   2.998   0.432
 6230TIP3    H218634   2.579   2.898   0.476
 6231TIP3   OH218635   3.496   5.308   3.734
 6231TIP3    H118636   3.557   5.256   3.785
 6231TIP3    H218637   3.480   5.386   3.787
 6232TIP3   OH218638   5.729   1.157   6.048
 6232TIP3    H118639   5.804   1.199   6.006
 6232TIP3    H218640   5.751   1.156   6.141
 6233TIP3   OH218641   5.829   3.884   6.161
 6233TIP3    H118642   5.865   3.798   6.182
 6233TIP3    H218643   5.905   3.943   6.162
 6234TIP3   OH218644   4.675   7.042   5.039
 6234TIP3    H118645   4.668   6.952   5.008
 6234TIP3    H218646   4.652   7.038   5.131
 6235TIP3   OH218647   0.541   3.684   6.694
 6235TIP3    H118648   0.499   3.616   6.747
 6235TIP3    H218649   0.607   3.722   6.752
 6236TIP3   OH218650   6.336   1.042   1.217
 6236TIP3    H118651   6.281   1.008   1.146
 6236TIP3    H218652   6.421   1.056   1.177
 6237TIP3   OH218653   0.234   1.559   1.668
 6237TIP3    H118654   0.296   1.591   1.602
 6237TIP3    H218655   0.237   1.625   1.737
 6238TIP3   OH218656   0.264   5.073   0.727
 6238TIP3    H118657   0.270   5.016   0.650
 6238TIP3    H218658   0.249   5.013   0.800
 6239TIP3   OH218659   3.441   6.530   0.415
 6239TIP3    H118660   3.351   6.499   0.401
 6239TIP3    H218661   3.462   6.503   0.504
 6240TIP3   OH218662   0.807   2.247   0.177
 6240TIP3    H118663   0.735   2.184   0.173
 6240TIP3    H218664   0.770   2.323   0.221
 6241TIP3   OH218665   2.817   0.042   4.164
 6241TIP3    H118666   2.776   0.105   4.223
 6241TIP3    H218667   2.904   0.026   4.203
 6242TIP3   OH218668   7.693   5.528   5.605
 6242TIP3    H118669   7.734   5.550   5.521
 6242TIP3    H218670   7.654   5.611   5.635
 6243TIP3   OH218671   2.871   0.321   6.210
 6243TIP3    H118672   2.840   0.389   6.150
 6243TIP3    H218673   2.791   0.281   6.243
 6244TIP3   OH218674   7.876   4.616   5.675
 6244TIP3    H118675   7.836   4.618   5.588
 6244TIP3    H218676   7.968   4.636   5.659
 6245TIP3   OH218677   8.045   3.555   1.874
 6245TIP3    H118678   8.050   3.470   1.917
 6245TIP3    H218679   8.042   3.618   1.947
 6246TIP3   OH218680   7.725   0.586   4.021
 6246TIP3    H118681   7.789   0.653   4.043
 6246TIP3    H218682   7.766   0.536   3.950
 6247TIP3   OH218683   3.439   7.561   1.753
 6247TIP3    H118684   3.509   7.513   1.798
 6247TIP3    H218685   3.482   7.602   1.678
 6248TIP3   OH218686   3.986   4.173   6.604
 6248TIP3    H118687   4.033   4.253   6.627
 6248TIP3    H218688   3.953   4.140   6.687
 6249TIP3   OH218689   8.276   1.738   1.478
 6249TIP3    H118690   8.304   1.825   1.448
 6249TIP3    H218691   8.305   1.734   1.569
 6250TIP3   OH218692   4.185   7.642   1.711
 6250TIP3    H118693   4.269   7.631   1.667
 6250TIP3    H218694   4.170   7.558   1.754
 6251TIP3   OH218695   8.258   3.253   0.739
 6251TIP3    H118696   8.325   3.281   0.676
 6251TIP3    H218697   8.307   3.211   0.810
 6252TIP3   OH218698   5.294   2.778   2.242
 6252TIP3    H118699   5.265   2.778   2.151
 6252TIP3    H218700   5.379   2.733   2.240
 6253TIP3   OH218701   4.887   3.615   6.789
 6253TIP3    H118702   4.938   3.590   6.712
 6253TIP3    H218703   4.884   3.536   6.843
 6254TIP3   OH218704   7.387   4.840   3.233
 6254TIP3    H118705   7.449   4.903   3.270
 6254TIP3    H218706   7.440   4.762   3.216
 6255TIP3   OH218707   5.153   6.475   6.148
 6255TIP3    H118708   5.144   6.473   6.244
 6255TIP3    H218709   5.233   6.526   6.132
 6256TIP3   OH218710   2.843   7.761   2.160
 6256TIP3    H118711   2.781   7.820   2.203
 6256TIP3    H218712   2.918   7.816   2.139
 6257TIP3   OH218713   3.585   2.500   4.503
 6257TIP3    H118714   3.626   2.414   4.493
 6257TIP3    H218715   3.615   2.532   4.588
 6258TIP3   OH218716   2.257   4.808   1.934
 6258TIP3    H118717   2.273   4.903   1.936
 6258TIP3    H218718   2.192   4.794   2.003
 6259TIP3   OH218719   5.903   6.977   1.662
 6259TIP3    H118720   5.881   7.004   1.752
 6259TIP3    H218721   5.918   7.059   1.615
 6260TIP3   OH218722   5.828   2.070   5.150
 6260TIP3    H118723   5.787   2.070   5.064
 6260TIP3    H218724   5.802   1.987   5.189
 6261TIP3   OH218725   4.832   3.947   0.595
 6261TIP3    H118726   4.782   3.935   0.676
 6261TIP3    H218727   4.924   3.945   0.623
 6262TIP3   OH218728   3.942   4.301   0.161
 6262TIP3    H118729   3.856   4.278   0.195
 6262TIP3    H218730   3.957   4.390   0.194
 6263TIP3   OH218731   2.736   3.388   2.417
 6263TIP3    H118732   2.813   3.380   2.361
 6263TIP3    H218733   2.735   3.480   2.443
 6264TIP3   OH218734   2.765   6.804   1.184
 6264TIP3    H118735   2.736   6.714   1.196
 6264TIP3    H218736   2.707   6.840   1.117
 6265TIP3   OH218737   2.687   2.604   6.434
 6265TIP3    H118738   2.680   2.569   6.345
 6265TIP3    H218739   2.744   2.542   6.480
 6266TIP3   OH218740   4.412   2.235   2.844
 6266TIP3    H118741   4.318   2.223   2.849
 6266TIP3    H218742   4.437   2.199   2.759
 6267TIP3   OH218743   6.925   3.625   4.582
 6267TIP3    H118744   6.901   3.590   4.497
 6267TIP3    H218745   6.940   3.719   4.566
 6268TIP3   OH218746   6.433   7.066   3.062
 6268TIP3    H118747   6.393   7.125   2.998
 6268TIP3    H218748   6.521   7.051   3.029
 6269TIP3   OH218749   0.837   4.644   5.056
 6269TIP3    H118750   0.762   4.628   4.998
 6269TIP3    H218751   0.913   4.613   5.007
 6270TIP3   OH218752   6.152   0.663   0.103
 6270TIP3    H118753   6.159   0.604   0.028
 6270TIP3    H218754   6.115   0.609   0.172
 6271TIP3   OH218755   3.340   1.373   0.939
 6271TIP3    H118756   3.409   1.436   0.960
 6271TIP3    H218757   3.285   1.371   1.017
 6272TIP3   OH218758   3.826   7.527   6.284
 6272TIP3    H118759   3.757   7.586   6.314
 6272TIP3    H218760   3.868   7.573   6.211
 6273TIP3   OH218761   6.216   2.266   5.151
 6273TIP3    H118762   6.150   2.197   5.160
 6273TIP3    H218763   6.296   2.220   5.124
 6274TIP3   OH218764   5.547   2.570   3.289
 6274TIP3    H118765   5.580   2.493   3.242
 6274TIP3    H218766   5.501   2.621   3.221
 6275TIP3   OH218767   5.934   4.666   1.034
 6275TIP3    H118768   6.029   4.676   1.037
 6275TIP3    H218769   5.920   4.571   1.031
 6276TIP3   OH218770   7.793   3.959   6.366
 6276TIP3    H118771   7.875   3.961   6.416
 6276TIP3    H218772   7.726   3.987   6.429
 6277TIP3   OH218773   5.800   3.371   0.127
 6277TIP3    H118774   5.769   3.422   0.203
 6277TIP3    H218775   5.769   3.420   0.051
 6278TIP3   OH218776   2.386   0.267   0.929
 6278TIP3    H118777   2.363   0.297   1.017
 6278TIP3    H218778   2.342   0.182   0.920
 6279TIP3   OH218779   4.431   4.865   3.349
 6279TIP3    H118780   4.492   4.901   3.285
 6279TIP3    H218781   4.475   4.876   3.433
 6280TIP3   OH218782   5.136   2.173   2.354
 6280TIP3    H118783   5.187   2.093   2.347
 6280TIP3    H218784   5.128   2.189   2.448
 6281TIP3   OH218785   3.491   7.244   0.523
 6281TIP3    H118786   3.414   7.212   0.475
 6281TIP3    H218787   3.454   7.303   0.589
 6282TIP3   OH218788   2.707   4.902   3.868
 6282TIP3    H118789   2.702   4.963   3.795
 6282TIP3    H218790   2.801   4.891   3.884
 6283TIP3   OH218791   0.000   0.738   1.493
 6283TIP3    H118792   0.043   0.706   1.573
 6283TIP3    H218793   0.056   0.708   1.422
 6284TIP3   OH218794   3.434   2.047   1.058
 6284TIP3    H118795   3.493   2.104   1.107
 6284TIP3    H218796   3.356   2.040   1.114
 6285TIP3   OH218797   4.761   2.286   0.687
 6285TIP3    H118798   4.742   2.193   0.698
 6285TIP3    H218799   4.726   2.309   0.601
 6286TIP3   OH218800   3.079   3.464   1.360
 6286TIP3    H118801   3.056   3.531   1.295
 6286TIP3    H218802   2.996   3.418   1.376
 6287TIP3   OH218803   5.450   7.678   2.083
 6287TIP3    H118804   5.462   7.606   2.145
 6287TIP3    H218805   5.522   7.737   2.101
 6288TIP3   OH218806   0.647   5.654   1.301
 6288TIP3    H118807   0.552   5.650   1.291
 6288TIP3    H218808   0.679   5.692   1.219
 6289TIP3   OH218809   0.582   2.445   0.346
 6289TIP3    H118810   0.531   2.471   0.270
 6289TIP3    H218811   0.662   2.497   0.341
 6290TIP3   OH218812   4.561   6.521   0.382
 6290TIP3    H118813   4.473   6.555   0.365
 6290TIP3    H218814   4.611   6.545   0.304
 6291TIP3   OH218815   7.636   7.720   1.962
 6291TIP3    H118816   7.676   7.727   1.875
 6291TIP3    H218817   7.648   7.806   2.001
 6292TIP3   OH218818   3.943   0.225   1.215
 6292TIP3    H118819   3.947   0.319   1.230
 6292TIP3    H218820   4.001   0.210   1.140
 6293TIP3   OH218821   2.432   3.748   1.514
 6293TIP3    H118822   2.409   3.831   1.472
 6293TIP3    H218823   2.390   3.752   1.600
 6294TIP3   OH218824   2.862   3.377   6.606
 6294TIP3    H118825   2.804   3.416   6.672
 6294TIP3    H218826   2.832   3.413   6.523
 6295TIP3   OH218827   8.157   3.454   3.462
 6295TIP3    H118828   8.079   3.510   3.461
 6295TIP3    H218829   8.227   3.510   3.495
 6296TIP3   OH218830   5.942   7.655   3.845
 6296TIP3    H118831   5.922   7.569   3.808
 6296TIP3    H218832   5.959   7.637   3.938
 6297TIP3   OH218833   8.112   6.440   2.286
 6297TIP3    H118834   8.127   6.507   2.353
 6297TIP3    H218835   8.021   6.413   2.300
 6298TIP3   OH218836   7.915   7.051   2.543
 6298TIP3    H118837   7.923   6.999   2.463
 6298TIP3    H218838   7.895   6.987   2.611
 6299TIP3   OH218839   7.910   3.848   6.654
 6299TIP3    H118840   7.898   3.866   6.747
 6299TIP3    H218841   7.847   3.905   6.610
 6300TIP3   OH218842   8.063   3.080   6.811
 6300TIP3    H118843   8.069   2.984   6.808
 6300TIP3    H218844   8.003   3.102   6.739
 6301TIP3   OH218845   1.092   4.624   2.531
 6301TIP3    H118846   1.157   4.558   2.508
 6301TIP3    H218847   1.105   4.639   2.625
 6302TIP3   OH218848   4.726   3.565   1.258
 6302TIP3    H118849   4.665   3.604   1.320
 6302TIP3    H218850   4.672   3.536   1.185
 6303TIP3   OH218851   0.814   4.204   6.236
 6303TIP3    H118852   0.849   4.161   6.314
 6303TIP3    H218853   0.747   4.264   6.269
 6304TIP3   OH218854   7.468   7.724   0.127
 6304TIP3    H118855   7.374   7.705   0.130
 6304TIP3    H218856   7.507   7.645   0.090
 6305TIP3   OH218857   1.215   6.941   6.401
 6305TIP3    H118858   1.182   6.972   6.485
 6305TIP3    H218859   1.301   6.905   6.421
 6306TIP3   OH218860   7.207   6.998   3.975
 6306TIP3    H118861   7.145   7.011   4.047
 6306TIP3    H218862   7.152   6.995   3.896
 6307TIP3   OH218863   0.474   0.843   1.993
 6307TIP3    H118864   0.515   0.857   2.079
 6307TIP3    H218865   0.485   0.750   1.976
 6308TIP3   OH218866   1.934   4.433   3.356
 6308TIP3    H118867   1.903   4.452   3.445
 6308TIP3    H218868   1.898   4.347   3.336
 6309TIP3   OH218869   5.078   2.388   1.481
 6309TIP3    H118870   5.028   2.392   1.400
 6309TIP3    H218871   5.097   2.479   1.502
 6310TIP3   OH218872   7.907   0.245   4.898
 6310TIP3    H118873   7.877   0.192   4.825
 6310TIP3    H218874   7.827   0.277   4.940
 6311TIP3   OH218875   3.744   2.230   2.413
 6311TIP3    H118876   3.725   2.299   2.349
 6311TIP3    H218877   3.838   2.238   2.429
 6312TIP3   OH218878   4.521   0.077   2.110
 6312TIP3    H118879   4.551   0.026   2.034
 6312TIP3    H218880   4.443   0.031   2.140
 6313TIP3   OH218881   5.112   0.063   6.373
 6313TIP3    H118882   5.128   0.145   6.420
 6313TIP3    H218883   5.194   0.047   6.327
 6314TIP3   OH218884   5.334   0.352   0.519
 6314TIP3    H118885   5.404   0.334   0.582
 6314TIP3    H218886   5.253   0.339   0.569
 6315TIP3   OH218887   3.923   2.314   5.853
 6315TIP3    H118888   3.891   2.385   5.798
 6315TIP3    H218889   3.862   2.312   5.927
 6316TIP3   OH218890   1.506   2.996   1.114
 6316TIP3    H118891   1.467   3.013   1.028
 6316TIP3    H218892   1.457   2.922   1.148
 6317TIP3   OH218893   1.974   0.262   2.277
 6317TIP3    H118894   1.887   0.298   2.259
 6317TIP3    H218895   1.999   0.301   2.360
 6318TIP3   OH218896   4.680   3.946   2.819
 6318TIP3    H118897   4.684   3.944   2.914
 6318TIP3    H218898   4.750   3.887   2.791
 6319TIP3   OH218899   4.004   7.145   5.310
 6319TIP3    H118900   3.919   7.128   5.269
 6319TIP3    H218901   3.989   7.133   5.403
 6320TIP3   OH218902   5.147   7.310   4.467
 6320TIP3    H118903   5.240   7.297   4.487
 6320TIP3    H218904   5.106   7.326   4.552
 6321TIP3   OH218905   7.046   4.289   2.127
 6321TIP3    H118906   7.025   4.296   2.034
 6321TIP3    H218907   7.045   4.195   2.144
 6322TIP3   OH218908   3.517   0.747   3.659
 6322TIP3    H118909   3.585   0.807   3.689
 6322TIP3    H218910   3.435   0.789   3.685
 6323TIP3   OH218911   2.377   5.169   0.880
 6323TIP3    H118912   2.467   5.201   0.888
 6323TIP3    H218913   2.324   5.249   0.869
 6324TIP3   OH218914   1.270   4.974   3.310
 6324TIP3    H118915   1.248   4.966   3.217
 6324TIP3    H218916   1.329   5.049   3.314
 6325TIP3   OH218917   2.723   7.702   4.360
 6325TIP3    H118918   2.691   7.777   4.410
 6325TIP3    H218919   2.659   7.633   4.377
 6326TIP3   OH218920   0.302   6.294   4.876
 6326TIP3    H118921   0.306   6.199   4.878
 6326TIP3    H218922   0.383   6.323   4.916
 6327TIP3   OH218923   8.126   2.038   2.172
 6327TIP3    H118924   8.166   2.110   2.123
 6327TIP3    H218925   8.188   1.966   2.164
 6328TIP3   OH218926   1.316   7.187   1.599
 6328TIP3    H118927   1.408   7.201   1.577
 6328TIP3    H218928   1.303   7.093   1.591
 6329TIP3   OH218929   6.545   3.286   2.114
 6329TIP3    H118930   6.479   3.217   2.101
 6329TIP3    H218931   6.558   3.289   2.209
 6330TIP3   OH218932   7.210   7.555   4.816
 6330TIP3    H118933   7.150   7.482   4.803
 6330TIP3    H218934   7.172   7.627   4.766
 6331TIP3   OH218935   6.536   2.192   2.027
 6331TIP3    H118936   6.503   2.217   1.941
 6331TIP3    H218937   6.550   2.097   2.021
 6332TIP3   OH218938   2.396   1.422   1.870
 6332TIP3    H118939   2.373   1.389   1.957
 6332TIP3    H218940   2.419   1.513   1.885
 6333TIP3   OH218941   4.678   4.568   2.488
 6333TIP3    H118942   4.692   4.519   2.569
 6333TIP3    H218943   4.766   4.592   2.459
 6334TIP3   OH218944   0.861   3.373   1.613
 6334TIP3    H118945   0.825   3.307   1.672
 6334TIP3    H218946   0.799   3.446   1.619
 6335TIP3   OH218947   1.842   0.470   0.354
 6335TIP3    H118948   1.805   0.423   0.428
 6335TIP3    H218949   1.791   0.550   0.347
 6336TIP3   OH218950   2.692   5.089   2.573
 6336TIP3    H118951   2.753   5.055   2.638
 6336TIP3    H218952   2.718   5.047   2.491
 6337TIP3   OH218953   4.767   7.372   1.352
 6337TIP3    H118954   4.726   7.320   1.283
 6337TIP3    H218955   4.813   7.442   1.305
 6338TIP3   OH218956   7.988   0.174   2.531
 6338TIP3    H118957   8.080   0.182   2.554
 6338TIP3    H218958   7.951   0.261   2.550
 6339TIP3   OH218959  -0.016   3.343   5.871
 6339TIP3    H118960   0.060   3.380   5.917
 6339TIP3    H218961  -0.090   3.397   5.899
 6340TIP3   OH218962   7.450   3.123   6.253
 6340TIP3    H118963   7.516   3.178   6.209
 6340TIP3    H218964   7.381   3.114   6.188
 6341TIP3   OH218965   5.998   4.016   5.080
 6341TIP3    H118966   5.915   4.055   5.108
 6341TIP3    H218967   5.992   4.012   4.984
 6342TIP3   OH218968   5.763   3.609   0.887
 6342TIP3    H118969   5.695   3.618   0.820
 6342TIP3    H218970   5.833   3.560   0.844
 6343TIP3   OH218971   5.411   1.954   0.140
 6343TIP3    H118972   5.499   1.963   0.176
 6343TIP3    H218973   5.377   1.873   0.180
 6344TIP3   OH218974   2.664   6.457   5.658
 6344TIP3    H118975   2.622   6.454   5.744
 6344TIP3    H218976   2.678   6.550   5.641
 6345TIP3   OH218977   1.901   1.356   5.611
 6345TIP3    H118978   1.935   1.333   5.525
 6345TIP3    H218979   1.976   1.347   5.670
 6346TIP3   OH218980   1.697   0.552   1.683
 6346TIP3    H118981   1.726   0.463   1.665
 6346TIP3    H218982   1.605   0.553   1.658
 6347TIP3   OH218983   1.542   4.022   2.377
 6347TIP3    H118984   1.626   4.064   2.358
 6347TIP3    H218985   1.535   3.953   2.311
 6348TIP3   OH218986   2.276   4.783   0.899
 6348TIP3    H118987   2.265   4.795   0.805
 6348TIP3    H218988   2.191   4.752   0.929
 6349TIP3   OH218989   4.116   2.437   1.127
 6349TIP3    H118990   4.126   2.499   1.199
 6349TIP3    H218991   4.199   2.440   1.081
 6350TIP3   OH218992   6.217   5.220   4.627
 6350TIP3    H118993   6.286   5.281   4.598
 6350TIP3    H218994   6.195   5.250   4.715
 6351TIP3   OH218995   8.229   4.960   4.488
 6351TIP3    H118996   8.153   4.971   4.430
 6351TIP3    H218997   8.222   4.870   4.520
 6352TIP3   OH218998   1.622   1.295   4.774
 6352TIP3    H118999   1.578   1.220   4.815
 6352TIP3    H219000   1.678   1.256   4.706
 6353TIP3   OH219001   0.111   0.827   5.718
 6353TIP3    H119002   0.031   0.872   5.692
 6353TIP3    H219003   0.124   0.759   5.651
 6354TIP3   OH219004   6.695   1.843   5.196
 6354TIP3    H119005   6.722   1.903   5.265
 6354TIP3    H219006   6.772   1.790   5.177
 6355TIP3   OH219007   7.740   2.963   3.130
 6355TIP3    H119008   7.685   2.888   3.153
 6355TIP3    H219009   7.737   2.967   3.035
 6356TIP3   OH219010   1.439   7.089   1.011
 6356TIP3    H119011   1.444   7.055   0.922
 6356TIP3    H219012   1.346   7.082   1.034
 6357TIP3   OH219013   4.175   2.928   2.628
 6357TIP3    H119014   4.244   2.975   2.581
 6357TIP3    H219015   4.146   2.860   2.567
 6358TIP3   OH219016   4.362   7.104   1.992
 6358TIP3    H119017   4.331   7.168   2.056
 6358TIP3    H219018   4.423   7.153   1.937
 6359TIP3   OH219019   0.108   2.578   0.640
 6359TIP3    H119020   0.200   2.565   0.619
 6359TIP3    H219021   0.078   2.492   0.669
 6360TIP3   OH219022   1.311   2.474   2.445
 6360TIP3    H119023   1.369   2.398   2.456
 6360TIP3    H219024   1.290   2.474   2.351
 6361TIP3   OH219025   6.486   3.138   1.835
 6361TIP3    H119026   6.405   3.159   1.790
 6361TIP3    H219027   6.555   3.165   1.774
 6362TIP3   OH219028   2.491   2.640   2.636
 6362TIP3    H119029   2.498   2.661   2.543
 6362TIP3    H219030   2.581   2.643   2.668
 6363TIP3   OH219031   8.042   3.822   2.601
 6363TIP3    H119032   8.084   3.833   2.515
 6363TIP3    H219033   7.952   3.796   2.580
 6364TIP3   OH219034   7.682   3.532   4.192
 6364TIP3    H119035   7.717   3.445   4.210
 6364TIP3    H219036   7.750   3.575   4.140
 6365TIP3   OH219037   4.545   2.898   6.543
 6365TIP3    H119038   4.638   2.921   6.542
 6365TIP3    H219039   4.501   2.978   6.574
 6366TIP3   OH219040   6.701   7.479   1.627
 6366TIP3    H119041   6.619   7.431   1.625
 6366TIP3    H219042   6.677   7.570   1.609
 6367TIP3   OH219043   3.693   4.205   4.532
 6367TIP3    H119044   3.725   4.295   4.537
 6367TIP3    H219045   3.687   4.176   4.623
 6368TIP3   OH219046   0.384   6.338   1.426
 6368TIP3    H119047   0.467   6.379   1.451
 6368TIP3    H219048   0.404   6.245   1.419
 6369TIP3   OH219049   6.680   7.579   0.215
 6369TIP3    H119050   6.671   7.669   0.244
 6369TIP3    H219051   6.590   7.546   0.210
 6370TIP3   OH219052   2.051   0.645   4.898
 6370TIP3    H119053   2.019   0.583   4.964
 6370TIP3    H219054   2.035   0.601   4.815
 6371TIP3   OH219055   1.315   4.804   5.539
 6371TIP3    H119056   1.350   4.825   5.625
 6371TIP3    H219057   1.305   4.708   5.540
 6372TIP3   OH219058   6.851   7.189   4.442
 6372TIP3    H119059   6.783   7.202   4.376
 6372TIP3    H219060   6.844   7.266   4.499
 6373TIP3   OH219061   6.039   3.785   5.271
 6373TIP3    H119062   5.979   3.839   5.220
 6373TIP3    H219063   6.103   3.847   5.306
 6374TIP3   OH219064   0.258   3.457   5.657
 6374TIP3    H119065   0.248   3.450   5.752
 6374TIP3    H219066   0.345   3.496   5.645
 6375TIP3   OH219067   7.463   4.036   6.266
 6375TIP3    H119068   7.414   3.964   6.228
 6375TIP3    H219069   7.448   4.030   6.360
 6376TIP3   OH219070   5.788   7.635   6.111
 6376TIP3    H119071   5.744   7.608   6.191
 6376TIP3    H219072   5.854   7.698   6.140
 6377TIP3   OH219073   4.076   7.480   5.957
 6377TIP3    H119074   3.985   7.498   5.980
 6377TIP3    H219075   4.083   7.509   5.866
 6378TIP3   OH219076   6.266   1.316   1.867
 6378TIP3    H119077   6.327   1.261   1.917
 6378TIP3    H219078   6.192   1.328   1.926
 6379TIP3   OH219079   1.542   4.325   6.605
 6379TIP3    H119080   1.561   4.312   6.512
 6379TIP3    H219081   1.451   4.295   6.616
 6380TIP3   OH219082   1.147   3.149   5.731
 6380TIP3    H119083   1.095   3.120   5.656
 6380TIP3    H219084   1.097   3.221   5.768
 6381TIP3   OH219085   5.981   2.994   4.711
 6381TIP3    H119086   5.959   3.011   4.802
 6381TIP3    H219087   6.007   2.902   4.709
 6382TIP3   OH219088   5.448   1.029   0.627
 6382TIP3    H119089   5.389   1.104   0.621
 6382TIP3    H219090   5.518   1.058   0.686
 6383TIP3   OH219091   4.156   6.623   1.934
 6383TIP3    H119092   4.102   6.576   1.999
 6383TIP3    H219093   4.155   6.714   1.963
 6384TIP3   OH219094   5.329   2.771   6.604
 6384TIP3    H119095   5.365   2.812   6.683
 6384TIP3    H219096   5.271   2.703   6.636
 6385TIP3   OH219097   2.062   5.790   2.982
 6385TIP3    H119098   1.984   5.823   3.026
 6385TIP3    H219099   2.133   5.801   3.045
 6386TIP3   OH219100   5.228   1.196   1.693
 6386TIP3    H119101   5.205   1.124   1.752
 6386TIP3    H219102   5.292   1.248   1.742
 6387TIP3   OH219103   1.573   3.481   2.157
 6387TIP3    H119104   1.665   3.477   2.182
 6387TIP3    H219105   1.526   3.441   2.231
 6388TIP3   OH219106   4.235   7.850   5.669
 6388TIP3    H119107   4.205   7.833   5.758
 6388TIP3    H219108   4.169   7.808   5.613
 6389TIP3   OH219109   0.753   3.664   6.071
 6389TIP3    H119110   0.777   3.578   6.106
 6389TIP3    H219111   0.725   3.646   5.981
 6390TIP3   OH219112   0.301   4.057   1.270
 6390TIP3    H119113   0.368   4.063   1.201
 6390TIP3    H219114   0.295   3.963   1.289
 6391TIP3   OH219115   7.794   0.227   1.179
 6391TIP3    H119116   7.719   0.189   1.226
 6391TIP3    H219117   7.784   0.322   1.192
 6392TIP3   OH219118   4.566   6.693   6.575
 6392TIP3    H119119   4.567   6.752   6.500
 6392TIP3    H219120   4.569   6.606   6.537
 6393TIP3   OH219121   3.112   6.004   0.632
 6393TIP3    H119122   3.129   5.977   0.722
 6393TIP3    H219123   3.198   6.031   0.598
 6394TIP3   OH219124   5.733   3.669   1.444
 6394TIP3    H119125   5.754   3.582   1.411
 6394TIP3    H219126   5.810   3.696   1.493
 6395TIP3   OH219127   3.050   6.546   0.806
 6395TIP3    H119128   3.071   6.544   0.899
 6395TIP3    H219129   3.057   6.455   0.777
 6396TIP3   OH219130   0.723   4.522   0.778
 6396TIP3    H119131   0.757   4.538   0.690
 6396TIP3    H219132   0.712   4.609   0.816
 6397TIP3   OH219133   0.117   2.161   2.163
 6397TIP3    H119134   0.071   2.231   2.117
 6397TIP3    H219135   0.172   2.206   2.227
 6398TIP3   OH219136   3.492   1.661   3.073
 6398TIP3    H119137   3.552   1.589   3.050
 6398TIP3    H219138   3.550   1.733   3.097
 6399TIP3   OH219139   6.319   0.375   2.114
 6399TIP3    H119140   6.294   0.393   2.205
 6399TIP3    H219141   6.236   0.358   2.069
 6400TIP3   OH219142   5.539   3.051   2.784
 6400TIP3    H119143   5.526   3.107   2.861
 6400TIP3    H219144   5.500   3.100   2.712
 6401TIP3   OH219145   4.487   0.723   0.175
 6401TIP3    H119146   4.482   0.817   0.159
 6401TIP3    H219147   4.397   0.697   0.193
 6402TIP3   OH219148   4.200   4.533   5.291
 6402TIP3    H119149   4.204   4.471   5.364
 6402TIP3    H219150   4.290   4.567   5.284
 6403TIP3   OH219151   0.416   2.874   2.667
 6403TIP3    H119152   0.466   2.904   2.591
 6403TIP3    H219153   0.324   2.890   2.642
 6404TIP3   OH219154   8.268   5.532   0.148
 6404TIP3    H119155   8.312   5.459   0.103
 6404TIP3    H219156   8.183   5.496   0.174
 6405TIP3   OH219157   1.461   3.926   4.887
 6405TIP3    H119158   1.393   3.869   4.923
 6405TIP3    H219159   1.426   3.957   4.804
 6406TIP3   OH219160   0.080   0.403   5.403
 6406TIP3    H119161   0.056   0.312   5.421
 6406TIP3    H219162   0.166   0.398   5.363
 6407TIP3   OH219163   7.189   0.643   2.216
 6407TIP3    H119164   7.206   0.694   2.137
 6407TIP3    H219165   7.270   0.594   2.232
 6408TIP3   OH219166   0.781   2.231   2.064
 6408TIP3    H119167   0.795   2.138   2.049
 6408TIP3    H219168   0.696   2.236   2.109
 6409TIP3   OH219169   4.308   7.076   5.053
 6409TIP3    H119170   4.389   7.087   5.003
 6409TIP3    H219171   4.239   7.108   4.994
 6410TIP3   OH219172   0.698   7.073   0.041
 6410TIP3    H119173   0.770   7.018   0.008
 6410TIP3    H219174   0.657   7.019   0.108
 6411TIP3   OH219175   3.412   6.684   3.166
 6411TIP3    H119176   3.389   6.649   3.252
 6411TIP3    H219177   3.355   6.760   3.155
 6412TIP3   OH219178   0.318   1.660   2.183
 6412TIP3    H119179   0.326   1.572   2.218
 6412TIP3    H219180   0.393   1.670   2.124
 6413TIP3   OH219181   4.837   4.135   6.021
 6413TIP3    H119182   4.886   4.182   5.954
 6413TIP3    H219183   4.865   4.044   6.013
 6414TIP3   OH219184   3.009   5.686   3.039
 6414TIP3    H119185   2.942   5.746   3.010
 6414TIP3    H219186   3.002   5.611   2.980
 6415TIP3   OH219187   6.755   3.015   3.206
 6415TIP3    H119188   6.801   3.034   3.124
 6415TIP3    H219189   6.692   2.947   3.183
 6416TIP3   OH219190   0.534   2.948   3.476
 6416TIP3    H119191   0.626   2.935   3.453
 6416TIP3    H219192   0.490   2.956   3.391
 6417TIP3   OH219193   6.636   7.771   5.776
 6417TIP3    H119194   6.715   7.744   5.823
 6417TIP3    H219195   6.645   7.866   5.766
 6418TIP3   OH219196   0.523   3.775   4.267
 6418TIP3    H119197   0.554   3.686   4.281
 6418TIP3    H219198   0.488   3.774   4.178
 6419TIP3   OH219199   3.626   1.840   3.256
 6419TIP3    H119200   3.547   1.842   3.310
 6419TIP3    H219201   3.690   1.891   3.305
 6420TIP3   OH219202   6.380   1.555   0.962
 6420TIP3    H119203   6.394   1.560   0.868
 6420TIP3    H219204   6.302   1.500   0.973
 6421TIP3   OH219205   6.050   2.673   0.504
 6421TIP3    H119206   6.000   2.632   0.575
 6421TIP3    H219207   6.028   2.621   0.427
 6422TIP3   OH219208   6.469   3.707   4.811
 6422TIP3    H119209   6.398   3.647   4.831
 6422TIP3    H219210   6.546   3.651   4.798
 6423TIP3   OH219211   0.503   1.640   3.533
 6423TIP3    H119212   0.475   1.595   3.612
 6423TIP3    H219213   0.599   1.637   3.536
 6424TIP3   OH219214   1.666   6.079   5.726
 6424TIP3    H119215   1.759   6.095   5.708
 6424TIP3    H219216   1.624   6.083   5.640
 6425TIP3   OH219217   1.502   5.602   2.856
 6425TIP3    H119218   1.545   5.600   2.770
 6425TIP3    H219219   1.513   5.692   2.886
 6426TIP3   OH219220   5.540   6.227   1.269
 6426TIP3    H119221   5.600   6.262   1.203
 6426TIP3    H219222   5.595   6.170   1.323
 6427TIP3   OH219223   4.334   2.407   3.765
 6427TIP3    H119224   4.370   2.419   3.854
 6427TIP3    H219225   4.336   2.313   3.751
 6428TIP3   OH219226   0.671   2.366   6.317
 6428TIP3    H119227   0.766   2.357   6.326
 6428TIP3    H219228   0.658   2.454   6.281
 6429TIP3   OH219229   0.725   0.474   4.520
 6429TIP3    H119230   0.697   0.560   4.554
 6429TIP3    H219231   0.820   0.475   4.529
 6430TIP3   OH219232   5.978   2.341   2.283
 6430TIP3    H119233   5.992   2.426   2.241
 6430TIP3    H219234   5.979   2.279   2.210
 6431TIP3   OH219235   3.604   0.658   3.139
 6431TIP3    H119236   3.576   0.731   3.194
 6431TIP3    H219237   3.699   0.658   3.145
 6432TIP3   OH219238   2.820   6.882   5.778
 6432TIP3    H119239   2.844   6.926   5.697
 6432TIP3    H219240   2.862   6.934   5.847
 6433TIP3   OH219241   4.652   5.446   2.841
 6433TIP3    H119242   4.742   5.476   2.837
 6433TIP3    H219243   4.599   5.524   2.825
 6434TIP3   OH219244  -0.017   6.664   4.926
 6434TIP3    H119245   0.064   6.632   4.887
 6434TIP3    H219246  -0.081   6.660   4.856
 6435TIP3   OH219247   3.670   1.342   5.259
 6435TIP3    H119248   3.578   1.340   5.233
 6435TIP3    H219249   3.673   1.290   5.339
 6436TIP3   OH219250   6.979   6.836   0.471
 6436TIP3    H119251   7.012   6.780   0.401
 6436TIP3    H219252   6.971   6.923   0.431
 6437TIP3   OH219253   6.708   5.759   1.894
 6437TIP3    H119254   6.784   5.794   1.848
 6437TIP3    H219255   6.703   5.811   1.974
 6438TIP3   OH219256   3.509   1.755   1.146
 6438TIP3    H119257   3.483   1.823   1.084
 6438TIP3    H219258   3.443   1.759   1.216
 6439TIP3   OH219259   5.745   6.755   3.195
 6439TIP3    H119260   5.815   6.818   3.205
 6439TIP3    H219261   5.780   6.690   3.134
 6440TIP3   OH219262   5.518   6.045   5.504
 6440TIP3    H119263   5.581   6.046   5.432
 6440TIP3    H219264   5.529   5.959   5.544
 6441TIP3   OH219265   4.517   3.479   6.461
 6441TIP3    H119266   4.553   3.440   6.381
 6441TIP3    H219267   4.576   3.552   6.481
 6442TIP3   OH219268   0.155   0.072   3.988
 6442TIP3    H119269   0.244   0.037   3.988
 6442TIP3    H219270   0.166   0.164   3.963
 6443TIP3   OH219271   6.629   7.630   1.164
 6443TIP3    H119272   6.578   7.640   1.245
 6443TIP3    H219273   6.599   7.547   1.127
 6444TIP3   OH219274   2.960   6.674   5.486
 6444TIP3    H119275   2.873   6.711   5.474
 6444TIP3    H219276   2.999   6.674   5.399
 6445TIP3   OH219277   5.645   7.730   5.905
 6445TIP3    H119278   5.634   7.647   5.858
 6445TIP3    H219279   5.697   7.707   5.982
 6446TIP3   OH219280   5.544   6.918   4.203
 6446TIP3    H119281   5.629   6.886   4.233
 6446TIP3    H219282   5.482   6.883   4.266
 6447TIP3   OH219283   6.044   2.363   4.210
 6447TIP3    H119284   5.974   2.309   4.172
 6447TIP3    H219285   6.069   2.316   4.290
 6448TIP3   OH219286   5.404   0.479   2.886
 6448TIP3    H119287   5.326   0.430   2.911
 6448TIP3    H219288   5.382   0.570   2.906
 6449TIP3   OH219289   7.088   1.980   0.061
 6449TIP3    H119290   7.119   2.015  -0.022
 6449TIP3    H219291   7.118   1.889   0.062
 6450TIP3   OH219292   7.520   4.507   1.305
 6450TIP3    H119293   7.521   4.536   1.214
 6450TIP3    H219294   7.601   4.459   1.316
 6451TIP3   OH219295   6.645   4.558   4.866
 6451TIP3    H119296   6.727   4.567   4.915
 6451TIP3    H219297   6.667   4.498   4.794
 6452TIP3   OH219298   3.132   7.108   5.835
 6452TIP3    H119299   3.123   7.081   5.744
 6452TIP3    H219300   3.210   7.064   5.866
 6453TIP3   OH219301   2.913   2.358   3.545
 6453TIP3    H119302   2.876   2.436   3.504
 6453TIP3    H219303   2.837   2.306   3.571
 6454TIP3   OH219304   3.219   5.677   6.435
 6454TIP3    H119305   3.206   5.753   6.377
 6454TIP3    H219306   3.258   5.714   6.514
 6455TIP3   OH219307   5.140   1.897   2.557
 6455TIP3    H119308   5.121   1.829   2.622
 6455TIP3    H219309   5.146   1.978   2.608
 6456TIP3   OH219310   0.036   2.646   3.973
 6456TIP3    H119311  -0.029   2.706   3.936
 6456TIP3    H219312   0.120   2.680   3.941
 6457TIP3   OH219313   5.901   2.685   0.755
 6457TIP3    H119314   5.981   2.682   0.807
 6457TIP3    H219315   5.874   2.593   0.748
 6458TIP3   OH219316   4.938   2.110   6.003
 6458TIP3    H119317   4.936   2.096   6.097
 6458TIP3    H219318   4.876   2.181   5.988
 6459TIP3   OH219319   7.791   1.410   6.671
 6459TIP3    H119320   7.827   1.472   6.735
 6459TIP3    H219321   7.814   1.448   6.586
 6460TIP3   OH219322   3.259   6.872   5.670
 6460TIP3    H119323   3.240   6.814   5.597
 6460TIP3    H219324   3.223   6.827   5.746
 6461TIP3   OH219325   5.462   4.766   1.629
 6461TIP3    H119326   5.501   4.762   1.716
 6461TIP3    H219327   5.386   4.824   1.639
 6462TIP3   OH219328   2.023   3.620   2.215
 6462TIP3    H119329   1.986   3.709   2.208
 6462TIP3    H219330   2.077   3.610   2.137
 6463TIP3   OH219331   3.734   2.386   0.760
 6463TIP3    H119332   3.653   2.344   0.730
 6463TIP3    H219333   3.716   2.410   0.851
 6464TIP3   OH219334   6.369   2.628   0.750
 6464TIP3    H119335   6.354   2.702   0.691
 6464TIP3    H219336   6.450   2.588   0.719
 6465TIP3   OH219337   2.147   6.029   3.460
 6465TIP3    H119338   2.203   6.015   3.384
 6465TIP3    H219339   2.190   6.099   3.509
 6466TIP3   OH219340   7.889   2.181   6.524
 6466TIP3    H119341   7.977   2.197   6.492
 6466TIP3    H219342   7.866   2.261   6.572
 6467TIP3   OH219343   1.478   1.534   2.434
 6467TIP3    H119344   1.471   1.529   2.530
 6467TIP3    H219345   1.444   1.450   2.403
 6468TIP3   OH219346   4.877   3.872   5.697
 6468TIP3    H119347   4.967   3.889   5.670
 6468TIP3    H219348   4.881   3.871   5.793
 6469TIP3   OH219349   1.560   6.521   0.184
 6469TIP3    H119350   1.491   6.465   0.150
 6469TIP3    H219351   1.612   6.544   0.108
 6470TIP3   OH219352   7.115   5.130   3.183
 6470TIP3    H119353   7.142   5.045   3.150
 6470TIP3    H219354   7.183   5.191   3.155
 6471TIP3   OH219355   7.809   4.282   2.555
 6471TIP3    H119356   7.901   4.258   2.559
 6471TIP3    H219357   7.773   4.257   2.640
 6472TIP3   OH219358   7.496   1.425   2.432
 6472TIP3    H119359   7.459   1.474   2.359
 6472TIP3    H219360   7.570   1.378   2.395
 6473TIP3   OH219361   4.206   0.316   3.053
 6473TIP3    H119362   4.244   0.284   3.135
 6473TIP3    H219363   4.166   0.238   3.013
 6474TIP3   OH219364   4.023   7.205   0.367
 6474TIP3    H119365   4.060   7.257   0.295
 6474TIP3    H219366   3.954   7.153   0.327
 6475TIP3   OH219367   3.096   3.659   0.668
 6475TIP3    H119368   3.011   3.646   0.711
 6475TIP3    H219369   3.092   3.604   0.590
 6476TIP3   OH219370   0.109   7.404   3.695
 6476TIP3    H119371   0.076   7.492   3.709
 6476TIP3    H219372   0.033   7.355   3.663
 6477TIP3   OH219373   6.385   2.694   6.736
 6477TIP3    H119374   6.306   2.649   6.765
 6477TIP3    H219375   6.452   2.668   6.799
 6478TIP3   OH219376   3.033   1.025   3.624
 6478TIP3    H119377   2.983   1.097   3.587
 6478TIP3    H219378   2.974   0.950   3.620
 6479TIP3   OH219379   5.973   7.427   6.082
 6479TIP3    H119380   5.903   7.493   6.079
 6479TIP3    H219381   6.033   7.452   6.013
 6480TIP3   OH219382   2.777   2.632   2.573
 6480TIP3    H119383   2.827   2.645   2.654
 6480TIP3    H219384   2.789   2.714   2.524
 6481TIP3   OH219385   7.100   7.631   6.115
 6481TIP3    H119386   7.037   7.690   6.156
 6481TIP3    H219387   7.183   7.678   6.117
 6482TIP3   OH219388   1.472   4.341   3.753
 6482TIP3    H119389   1.501   4.323   3.664
 6482TIP3    H219390   1.484   4.436   3.764
 6483TIP3   OH219391   2.275   4.658   6.642
 6483TIP3    H119392   2.271   4.611   6.725
 6483TIP3    H219393   2.357   4.707   6.647
 6484TIP3   OH219394   7.552   5.753   0.408
 6484TIP3    H119395   7.486   5.803   0.360
 6484TIP3    H219396   7.508   5.670   0.430
 6485TIP3   OH219397   5.670   0.691   4.702
 6485TIP3    H119398   5.585   0.675   4.742
 6485TIP3    H219399   5.655   0.684   4.608
 6486TIP3   OH219400   0.400   2.841   5.338
 6486TIP3    H119401   0.468   2.902   5.366
 6486TIP3    H219402   0.322   2.866   5.389
 6487TIP3   OH219403   8.112   6.604   0.251
 6487TIP3    H119404   8.195   6.566   0.221
 6487TIP3    H219405   8.045   6.549   0.212
 6488TIP3   OH219406   3.293   4.630   6.285
 6488TIP3    H119407   3.267   4.708   6.333
 6488TIP3    H219408   3.382   4.611   6.316
 6489TIP3   OH219409   8.184   3.973   0.128
 6489TIP3    H119410   8.158   4.025   0.052
 6489TIP3    H219411   8.167   4.029   0.203
 6490TIP3   OH219412   4.027   1.009   2.873
 6490TIP3    H119413   4.016   1.048   2.960
 6490TIP3    H219414   4.022   1.084   2.813
 6491TIP3   OH219415   3.068   6.539   1.079
 6491TIP3    H119416   3.083   6.536   1.174
 6491TIP3    H219417   3.016   6.618   1.065
 6492TIP3   OH219418   7.550   3.908   2.326
 6492TIP3    H119419   7.592   3.922   2.240
 6492TIP3    H219420   7.536   3.997   2.359
 6493TIP3   OH219421   7.585   0.117   5.366
 6493TIP3    H119422   7.575   0.022   5.368
 6493TIP3    H219423   7.529   0.146   5.294
 6494TIP3   OH219424   2.253   3.684   6.280
 6494TIP3    H119425   2.246   3.725   6.194
 6494TIP3    H219426   2.296   3.600   6.264
 6495TIP3   OH219427   0.561   5.767   1.873
 6495TIP3    H119428   0.645   5.736   1.907
 6495TIP3    H219429   0.564   5.747   1.779
 6496TIP3   OH219430   5.134   4.396   1.477
 6496TIP3    H119431   5.171   4.482   1.460
 6496TIP3    H219432   5.042   4.403   1.452
 6497TIP3   OH219433   1.181   1.759   5.594
 6497TIP3    H119434   1.233   1.817   5.650
 6497TIP3    H219435   1.227   1.757   5.510
 6498TIP3   OH219436   2.726   5.448   6.279
 6498TIP3    H119437   2.779   5.422   6.203
 6498TIP3    H219438   2.723   5.369   6.333
 6499TIP3   OH219439   7.224   0.682   2.639
 6499TIP3    H119440   7.219   0.735   2.560
 6499TIP3    H219441   7.252   0.596   2.609
 6500TIP3   OH219442   4.724   4.402   6.480
 6500TIP3    H119443   4.658   4.394   6.549
 6500TIP3    H219444   4.783   4.329   6.494
 6501TIP3   OH219445   1.579   5.531   4.107
 6501TIP3    H119446   1.620   5.445   4.112
 6501TIP3    H219447   1.649   5.593   4.129
 6502TIP3   OH219448   2.081   1.624   5.486
 6502TIP3    H119449   2.048   1.714   5.491
 6502TIP3    H219450   2.036   1.578   5.557
 6503TIP3   OH219451   0.877   3.849   2.460
 6503TIP3    H119452   0.792   3.808   2.449
 6503TIP3    H219453   0.871   3.895   2.544
 6504TIP3   OH219454   5.574   2.921   5.684
 6504TIP3    H119455   5.593   2.972   5.762
 6504TIP3    H219456   5.495   2.871   5.705
 6505TIP3   OH219457   6.202   4.661   3.482
 6505TIP3    H119458   6.189   4.754   3.466
 6505TIP3    H219459   6.285   4.641   3.438
 6506TIP3   OH219460   3.655   6.266   2.345
 6506TIP3    H119461   3.604   6.219   2.412
 6506TIP3    H219462   3.646   6.358   2.370
 6507TIP3   OH219463   1.103   1.917   2.294
 6507TIP3    H119464   1.198   1.911   2.305
 6507TIP3    H219465   1.073   1.960   2.375
 6508TIP3   OH219466   5.758   5.849   4.681
 6508TIP3    H119467   5.818   5.904   4.732
 6508TIP3    H219468   5.792   5.855   4.591
 6509TIP3   OH219469   1.267   3.521   6.124
 6509TIP3    H119470   1.341   3.567   6.165
 6509TIP3    H219471   1.190   3.570   6.153
 6510TIP3   OH219472   1.458   7.449   5.330
 6510TIP3    H119473   1.472   7.362   5.368
 6510TIP3    H219474   1.528   7.503   5.367
 6511TIP3   OH219475   1.030   5.403   6.409
 6511TIP3    H119476   1.107   5.442   6.369
 6511TIP3    H219477   0.968   5.390   6.337
 6512TIP3   OH219478   0.565   0.776   4.064
 6512TIP3    H119479   0.633   0.822   4.015
 6512TIP3    H219480   0.541   0.837   4.134
 6513TIP3   OH219481   5.056   7.657   2.896
 6513TIP3    H119482   5.088   7.734   2.851
 6513TIP3    H219483   5.058   7.681   2.989
 6514TIP3   OH219484   5.797   5.555   3.284
 6514TIP3    H119485   5.803   5.460   3.283
 6514TIP3    H219486   5.881   5.584   3.248
 6515TIP3   OH219487   5.287   0.802   3.228
 6515TIP3    H119488   5.345   0.798   3.152
 6515TIP3    H219489   5.254   0.712   3.238
 6516TIP3   OH219490   4.505   5.394   2.253
 6516TIP3    H119491   4.526   5.304   2.275
 6516TIP3    H219492   4.539   5.405   2.164
 6517TIP3   OH219493   6.288   7.291   6.333
 6517TIP3    H119494   6.209   7.343   6.347
 6517TIP3    H219495   6.270   7.207   6.377
 6518TIP3   OH219496   1.582   6.509   3.293
 6518TIP3    H119497   1.577   6.579   3.359
 6518TIP3    H219498   1.556   6.552   3.211
 6519TIP3   OH219499   5.660   6.855   2.859
 6519TIP3    H119500   5.610   6.801   2.921
 6519TIP3    H219501   5.627   6.944   2.874
 6520TIP3   OH219502   6.751   4.409   2.729
 6520TIP3    H119503   6.814   4.341   2.754
 6520TIP3    H219504   6.784   4.488   2.772
 6521TIP3   OH219505   1.000   5.140   3.182
 6521TIP3    H119506   1.004   5.235   3.193
 6521TIP3    H219507   1.079   5.119   3.132
 6522TIP3   OH219508   0.997   4.249   4.444
 6522TIP3    H119509   0.966   4.340   4.447
 6522TIP3    H219510   0.918   4.196   4.460
 6523TIP3   OH219511   2.943   6.220   4.725
 6523TIP3    H119512   2.978   6.308   4.735
 6523TIP3    H219513   3.011   6.162   4.759
 6524TIP3   OH219514   4.245   4.266   5.149
 6524TIP3    H119515   4.274   4.297   5.235
 6524TIP3    H219516   4.159   4.226   5.166
 6525TIP3   OH219517   0.595   4.311   4.745
 6525TIP3    H119518   0.546   4.229   4.742
 6525TIP3    H219519   0.528   4.379   4.743
 6526TIP3   OH219520   4.984   6.616   1.440
 6526TIP3    H119521   5.055   6.627   1.503
 6526TIP3    H219522   5.005   6.677   1.370
 6527TIP3   OH219523   1.678   2.298   6.221
 6527TIP3    H119524   1.703   2.378   6.175
 6527TIP3    H219525   1.585   2.309   6.241
 6528TIP3   OH219526   5.257   0.660   2.017
 6528TIP3    H119527   5.200   0.627   1.947
 6528TIP3    H219528   5.206   0.728   2.060
 6529TIP3   OH219529   6.837   3.090   2.414
 6529TIP3    H119530   6.906   3.083   2.348
 6529TIP3    H219531   6.764   3.132   2.368
 6530TIP3   OH219532   4.417   1.951   1.878
 6530TIP3    H119533   4.425   2.009   1.802
 6530TIP3    H219534   4.367   1.876   1.845
 6531TIP3   OH219535   8.245   0.857   1.846
 6531TIP3    H119536   8.172   0.874   1.786
 6531TIP3    H219537   8.284   0.943   1.861
 6532TIP3   OH219538   2.626   7.353   4.346
 6532TIP3    H119539   2.541   7.324   4.314
 6532TIP3    H219540   2.671   7.388   4.269
 6533TIP3   OH219541   2.242   2.541   1.232
 6533TIP3    H119542   2.227   2.634   1.214
 6533TIP3    H219543   2.215   2.530   1.324
 6534TIP3   OH219544   0.419   4.818   4.750
 6534TIP3    H119545   0.475   4.845   4.822
 6534TIP3    H219546   0.469   4.749   4.706
 6535TIP3   OH219547   2.704   3.945   1.824
 6535TIP3    H119548   2.697   3.863   1.872
 6535TIP3    H219549   2.665   4.010   1.883
 6536TIP3   OH219550   0.940   1.206   6.327
 6536TIP3    H119551   0.938   1.110   6.324
 6536TIP3    H219552   0.918   1.233   6.238
 6537TIP3   OH219553   6.840   7.643   5.928
 6537TIP3    H119554   6.778   7.617   5.996
 6537TIP3    H219555   6.900   7.569   5.921
 6538TIP3   OH219556   1.973   1.024   4.691
 6538TIP3    H119557   2.060   0.984   4.696
 6538TIP3    H219558   1.984   1.110   4.733
 6539TIP3   OH219559   2.464   7.156   6.460
 6539TIP3    H119560   2.466   7.077   6.407
 6539TIP3    H219561   2.370   7.176   6.470
 6540TIP3   OH219562   4.354   7.478   5.480
 6540TIP3    H119563   4.376   7.494   5.388
 6540TIP3    H219564   4.426   7.424   5.513
 6541TIP3   OH219565   6.424   4.840   2.106
 6541TIP3    H119566   6.482   4.858   2.180
 6541TIP3    H219567   6.364   4.773   2.138
 6542TIP3   OH219568   2.639   7.593   4.972
 6542TIP3    H119569   2.555   7.548   4.985
 6542TIP3    H219570   2.639   7.664   5.037
 6543TIP3   OH219571   6.003   3.790   3.389
 6543TIP3    H119572   5.996   3.763   3.298
 6543TIP3    H219573   6.067   3.862   3.388
 6544TIP3   OH219574   2.670   6.096   4.566
 6544TIP3    H119575   2.678   6.190   4.551
 6544TIP3    H219576   2.752   6.060   4.532
 6545TIP3   OH219577   0.056   4.370   0.792
 6545TIP3    H119578  -0.038   4.387   0.800
 6545TIP3    H219579   0.066   4.333   0.704
 6546TIP3   OH219580   2.102   3.617   1.965
 6546TIP3    H119581   2.150   3.535   1.955
 6546TIP3    H219582   2.025   3.607   1.909
 6547TIP3   OH219583   0.309   3.769   2.627
 6547TIP3    H119584   0.214   3.773   2.634
 6547TIP3    H219585   0.330   3.676   2.629
 6548TIP3   OH219586   0.988   2.223   3.245
 6548TIP3    H119587   0.959   2.132   3.234
 6548TIP3    H219588   1.078   2.223   3.212
 6549TIP3   OH219589   8.171   7.332   4.954
 6549TIP3    H119590   8.189   7.238   4.957
 6549TIP3    H219591   8.172   7.360   5.046
 6550TIP3   OH219592   8.058   7.373   1.714
 6550TIP3    H119593   7.965   7.359   1.733
 6550TIP3    H219594   8.066   7.352   1.621
 6551TIP3   OH219595   0.632   0.985   6.324
 6551TIP3    H119596   0.684   0.989   6.404
 6551TIP3    H219597   0.577   1.063   6.328
 6552TIP3   OH219598  -0.003   6.736   5.357
 6552TIP3    H119599   0.062   6.674   5.325
 6552TIP3    H219600   0.045   6.819   5.366
 6553TIP3   OH219601   1.130   3.898   4.448
 6553TIP3    H119602   1.117   3.853   4.365
 6553TIP3    H219603   1.042   3.914   4.481
 6554TIP3   OH219604   1.830   0.084   4.870
 6554TIP3    H119605   1.825   0.081   4.966
 6554TIP3    H219606   1.912   0.128   4.851
 6555TIP3   OH219607   4.560   5.406   3.721
 6555TIP3    H119608   4.577   5.464   3.647
 6555TIP3    H219609   4.552   5.464   3.797
 6556TIP3   OH219610   4.442   6.607   5.352
 6556TIP3    H119611   4.370   6.633   5.409
 6556TIP3    H219612   4.408   6.534   5.301
 6557TIP3   OH219613   5.468   0.266   0.092
 6557TIP3    H119614   5.403   0.267   0.162
 6557TIP3    H219615   5.491   0.174   0.082
 6558TIP3   OH219616   7.883   3.478   3.211
 6558TIP3    H119617   7.971   3.515   3.197
 6558TIP3    H219618   7.825   3.536   3.162
 6559TIP3   OH219619   1.859   1.852   4.552
 6559TIP3    H119620   1.882   1.767   4.514
 6559TIP3    H219621   1.832   1.905   4.478
 6560TIP3   OH219622   0.624   3.419   4.958
 6560TIP3    H119623   0.674   3.339   4.941
 6560TIP3    H219624   0.537   3.387   4.985
 6561TIP3   OH219625   1.968   7.286   2.268
 6561TIP3    H119626   1.997   7.207   2.314
 6561TIP3    H219627   1.876   7.295   2.293
 6562TIP3   OH219628   0.770   6.840   2.872
 6562TIP3    H119629   0.862   6.818   2.886
 6562TIP3    H219630   0.731   6.760   2.837
 6563TIP3   OH219631   0.627   4.715   2.022
 6563TIP3    H119632   0.564   4.658   2.065
 6563TIP3    H219633   0.627   4.685   1.931
 6564TIP3   OH219634   5.929   0.996   0.352
 6564TIP3    H119635   5.924   1.013   0.258
 6564TIP3    H219636   5.973   1.074   0.387
 6565TIP3   OH219637   5.696   2.223   2.091
 6565TIP3    H119638   5.790   2.207   2.088
 6565TIP3    H219639   5.687   2.314   2.118
 6566TIP3   OH219640   1.763   3.124   0.315
 6566TIP3    H119641   1.733   3.087   0.397
 6566TIP3    H219642   1.722   3.211   0.311
 6567TIP3   OH219643   0.252   5.634   1.036
 6567TIP3    H119644   0.175   5.673   0.995
 6567TIP3    H219645   0.326   5.683   1.000
 6568TIP3   OH219646   6.826   6.772   4.201
 6568TIP3    H119647   6.755   6.835   4.196
 6568TIP3    H219648   6.811   6.726   4.284
 6569TIP3   OH219649   3.175   6.255   4.143
 6569TIP3    H119650   3.169   6.320   4.073
 6569TIP3    H219651   3.173   6.305   4.224
 6570TIP3   OH219652   2.566   0.057   5.792
 6570TIP3    H119653   2.510   0.046   5.869
 6570TIP3    H219654   2.635   0.117   5.821
 6571TIP3   OH219655   4.190   3.998   6.457
 6571TIP3    H119656   4.135   4.014   6.380
 6571TIP3    H219657   4.139   4.032   6.530
 6572TIP3   OH219658   6.816   1.354   3.375
 6572TIP3    H119659   6.791   1.435   3.419
 6572TIP3    H219660   6.846   1.297   3.446
 6573TIP3   OH219661   4.887   6.658   0.593
 6573TIP3    H119662   4.965   6.691   0.639
 6573TIP3    H219663   4.814   6.704   0.635
 6574TIP3   OH219664   5.021   7.713   3.165
 6574TIP3    H119665   4.932   7.732   3.197
 6574TIP3    H219666   5.077   7.727   3.241
 6575TIP3   OH219667   4.627   0.934   4.758
 6575TIP3    H119668   4.575   0.987   4.819
 6575TIP3    H219669   4.568   0.861   4.735
 6576TIP3   OH219670   6.385   6.720   0.858
 6576TIP3    H119671   6.426   6.691   0.776
 6576TIP3    H219672   6.350   6.639   0.896
 6577TIP3   OH219673   1.684   1.104   2.454
 6577TIP3    H119674   1.658   1.176   2.511
 6577TIP3    H219675   1.733   1.145   2.383
 6578TIP3   OH219676   4.267   0.581   3.539
 6578TIP3    H119677   4.233   0.669   3.524
 6578TIP3    H219678   4.358   0.586   3.507
 6579TIP3   OH219679   2.936   6.198   1.451
 6579TIP3    H119680   2.908   6.286   1.425
 6579TIP3    H219681   2.988   6.211   1.530
 6580TIP3   OH219682   5.145   0.818   6.073
 6580TIP3    H119683   5.141   0.855   5.985
 6580TIP3    H219684   5.118   0.727   6.062
 6581TIP3   OH219685   2.933   4.893   3.692
 6581TIP3    H119686   2.963   4.803   3.698
 6581TIP3    H219687   2.956   4.920   3.602
 6582TIP3   OH219688   0.406   3.978   0.151
 6582TIP3    H119689   0.315   3.950   0.161
 6582TIP3    H219690   0.457   3.906   0.187
 6583TIP3   OH219691   4.069   6.539   2.174
 6583TIP3    H119692   3.974   6.529   2.185
 6583TIP3    H219693   4.087   6.630   2.199
 6584TIP3   OH219694   6.951   3.565   5.885
 6584TIP3    H119695   6.978   3.519   5.806
 6584TIP3    H219696   6.862   3.594   5.865
 6585TIP3   OH219697   2.158   3.009   5.503
 6585TIP3    H119698   2.122   2.981   5.419
 6585TIP3    H219699   2.122   2.946   5.566
 6586TIP3   OH219700   7.351   6.694   0.766
 6586TIP3    H119701   7.413   6.763   0.788
 6586TIP3    H219702   7.327   6.656   0.850
 6587TIP3   OH219703   2.671   5.421   5.881
 6587TIP3    H119704   2.599   5.416   5.819
 6587TIP3    H219705   2.690   5.515   5.889
 6588TIP3   OH219706   8.344   0.120   5.449
 6588TIP3    H119707   8.264   0.068   5.452
 6588TIP3    H219708   8.368   0.132   5.541
 6589TIP3   OH219709   5.577   4.342   3.245
 6589TIP3    H119710   5.661   4.379   3.218
 6589TIP3    H219711   5.524   4.418   3.270
 6590TIP3   OH219712   8.051   7.426   0.557
 6590TIP3    H119713   8.044   7.513   0.517
 6590TIP3    H219714   8.098   7.374   0.492
 6591TIP3   OH219715   2.047   2.658   3.510
 6591TIP3    H119716   2.054   2.641   3.416
 6591TIP3    H219717   1.973   2.604   3.538
 6592TIP3   OH219718   1.189   4.517   6.772
 6592TIP3    H119719   1.151   4.495   6.686
 6592TIP3    H219720   1.122   4.571   6.814
 6593TIP3   OH219721   5.950   2.623   4.142
 6593TIP3    H119722   5.976   2.542   4.186
 6593TIP3    H219723   5.863   2.643   4.177
 6594TIP3   OH219724   3.710   7.382   4.716
 6594TIP3    H119725   3.729   7.411   4.806
 6594TIP3    H219726   3.617   7.358   4.719
 6595TIP3   OH219727   0.175   3.575   6.639
 6595TIP3    H119728   0.132   3.495   6.668
 6595TIP3    H219729   0.252   3.546   6.590
 6596TIP3   OH219730   5.733   7.116   5.795
 6596TIP3    H119731   5.797   7.110   5.866
 6596TIP3    H219732   5.785   7.139   5.718
 6597TIP3   OH219733   7.138   6.160   6.005
 6597TIP3    H119734   7.165   6.069   5.989
 6597TIP3    H219735   7.187   6.211   5.941
 6598TIP3   OH219736   7.236   7.406   1.667
 6598TIP3    H119737   7.244   7.453   1.750
 6598TIP3    H219738   7.145   7.378   1.664
 6599TIP3   OH219739   6.106   7.680   4.840
 6599TIP3    H119740   6.181   7.736   4.861
 6599TIP3    H219741   6.102   7.619   4.914
 6600TIP3   OH219742   3.539   2.367   3.745
 6600TIP3    H119743   3.589   2.286   3.755
 6600TIP3    H219744   3.452   2.338   3.719
 6601TIP3   OH219745   1.999   6.581   4.393
 6601TIP3    H119746   1.951   6.573   4.475
 6601TIP3    H219747   2.090   6.565   4.416
 6602TIP3   OH219748   4.504   0.855   1.127
 6602TIP3    H119749   4.592   0.892   1.135
 6602TIP3    H219750   4.445   0.930   1.130
 6603TIP3   OH219751   5.202   7.297   6.010
 6603TIP3    H119752   5.141   7.330   5.945
 6603TIP3    H219753   5.171   7.334   6.093
 6604TIP3   OH219754   4.469   0.624   5.657
 6604TIP3    H119755   4.475   0.659   5.568
 6604TIP3    H219756   4.548   0.570   5.666
 6605TIP3   OH219757   6.436   6.266   3.338
 6605TIP3    H119758   6.499   6.277   3.267
 6605TIP3    H219759   6.380   6.344   3.333
 6606TIP3   OH219760   6.427   2.113   5.101
 6606TIP3    H119761   6.459   2.034   5.057
 6606TIP3    H219762   6.505   2.167   5.114
 6607TIP3   OH219763   2.718   2.273   2.927
 6607TIP3    H119764   2.754   2.359   2.907
 6607TIP3    H219765   2.714   2.228   2.842
 6608TIP3   OH219766   2.462   0.203   1.722
 6608TIP3    H119767   2.458   0.110   1.699
 6608TIP3    H219768   2.406   0.212   1.799
 6609TIP3   OH219769   0.592   4.822   6.664
 6609TIP3    H119770   0.663   4.818   6.600
 6609TIP3    H219771   0.512   4.814   6.613
 6610TIP3   OH219772   0.523   7.728   3.212
 6610TIP3    H119773   0.481   7.721   3.126
 6610TIP3    H219774   0.614   7.701   3.196
 6611TIP3   OH219775   1.379   1.699   0.721
 6611TIP3    H119776   1.372   1.673   0.813
 6611TIP3    H219777   1.411   1.621   0.676
 6612TIP3   OH219778   1.216   5.413   1.302
 6612TIP3    H119779   1.141   5.378   1.351
 6612TIP3    H219780   1.275   5.446   1.369
 6613TIP3   OH219781   0.099   7.078   6.044
 6613TIP3    H119782   0.080   7.165   6.009
 6613TIP3    H219783   0.028   7.023   6.011
 6614TIP3   OH219784   4.868   6.127   4.371
 6614TIP3    H119785   4.892   6.064   4.303
 6614TIP3    H219786   4.798   6.179   4.332
 6615TIP3   OH219787   2.276   3.342   1.899
 6615TIP3    H119788   2.230   3.290   1.965
 6615TIP3    H219789   2.233   3.319   1.816
 6616TIP3   OH219790   7.420   2.168   5.696
 6616TIP3    H119791   7.364   2.097   5.728
 6616TIP3    H219792   7.474   2.127   5.628
 6617TIP3   OH219793   0.670   7.640   6.192
 6617TIP3    H119794   0.712   7.692   6.123
 6617TIP3    H219795   0.585   7.617   6.155
 6618TIP3   OH219796   3.651   0.454   5.459
 6618TIP3    H119797   3.668   0.465   5.366
 6618TIP3    H219798   3.639   0.359   5.470
 6619TIP3   OH219799   2.136   7.082   3.130
 6619TIP3    H119800   2.219   7.058   3.172
 6619TIP3    H219801   2.092   7.138   3.194
 6620TIP3   OH219802   5.101   4.458   6.646
 6620TIP3    H119803   5.060   4.499   6.571
 6620TIP3    H219804   5.177   4.412   6.609
 6621TIP3   OH219805   0.784   1.172   3.276
 6621TIP3    H119806   0.773   1.208   3.364
 6621TIP3    H219807   0.834   1.092   3.288
 6622TIP3   OH219808   3.898   4.194   1.920
 6622TIP3    H119809   3.823   4.245   1.951
 6622TIP3    H219810   3.860   4.110   1.894
 6623TIP3   OH219811   8.225   2.095   6.047
 6623TIP3    H119812   8.176   2.107   5.966
 6623TIP3    H219813   8.298   2.157   6.040
 6624TIP3   OH219814   0.158   0.125   3.601
 6624TIP3    H119815   0.168   0.034   3.574
 6624TIP3    H219816   0.231   0.141   3.661
 6625TIP3   OH219817   0.222   1.145   3.393
 6625TIP3    H119818   0.182   1.180   3.473
 6625TIP3    H219819   0.313   1.126   3.418
 6626TIP3   OH219820   7.722   4.951   6.393
 6626TIP3    H119821   7.666   4.940   6.470
 6626TIP3    H219822   7.760   4.865   6.378
 6627TIP3   OH219823   1.552   1.020   4.674
 6627TIP3    H119824   1.499   1.007   4.752
 6627TIP3    H219825   1.641   0.997   4.701
 6628TIP3   OH219826   7.115   1.838   3.598
 6628TIP3    H119827   7.070   1.765   3.556
 6628TIP3    H219828   7.045   1.886   3.642
 6629TIP3   OH219829   0.999   4.259   1.835
 6629TIP3    H119830   1.027   4.191   1.896
 6629TIP3    H219831   0.916   4.291   1.871
 6630TIP3   OH219832   5.249   1.348   2.259
 6630TIP3    H119833   5.332   1.307   2.233
 6630TIP3    H219834   5.255   1.354   2.355
 6631TIP3   OH219835   5.872   0.086   2.113
 6631TIP3    H119836   5.868   0.040   2.197
 6631TIP3    H219837   5.884   0.178   2.137
 6632TIP3   OH219838   7.429   6.116   1.811
 6632TIP3    H119839   7.464   6.065   1.884
 6632TIP3    H219840   7.466   6.074   1.733
 6633TIP3   OH219841   2.607   3.209   5.647
 6633TIP3    H119842   2.537   3.274   5.641
 6633TIP3    H219843   2.563   3.129   5.676
 6634TIP3   OH219844   3.424   0.731   4.632
 6634TIP3    H119845   3.353   0.750   4.571
 6634TIP3    H219846   3.391   0.761   4.717
 6635TIP3   OH219847   5.336   5.469   5.844
 6635TIP3    H119848   5.421   5.476   5.888
 6635TIP3    H219849   5.271   5.487   5.912
 6636TIP3   OH219850   4.317   5.973   3.088
 6636TIP3    H119851   4.392   5.923   3.056
 6636TIP3    H219852   4.339   6.064   3.071
 6637TIP3   OH219853   6.303   5.864   0.580
 6637TIP3    H119854   6.354   5.837   0.502
 6637TIP3    H219855   6.305   5.959   0.578
 6638TIP3   OH219856   4.585   0.056   1.683
 6638TIP3    H119857   4.587   0.013   1.768
 6638TIP3    H219858   4.578  -0.015   1.619
 6639TIP3   OH219859   7.036   4.516   3.268
 6639TIP3    H119860   7.102   4.473   3.213
 6639TIP3    H219861   7.022   4.456   3.341
 6640TIP3   OH219862   0.226   7.761   1.056
 6640TIP3    H119863   0.197   7.745   0.966
 6640TIP3    H219864   0.321   7.746   1.053
 6641TIP3   OH219865   2.076   3.899   2.521
 6641TIP3    H119866   2.054   3.806   2.523
 6641TIP3    H219867   2.172   3.900   2.513
 6642TIP3   OH219868   6.538   5.053   3.247
 6642TIP3    H119869   6.571   4.969   3.279
 6642TIP3    H219870   6.580   5.118   3.303
 6643TIP3   OH219871   1.038   0.912   0.402
 6643TIP3    H119872   1.066   0.822   0.387
 6643TIP3    H219873   1.098   0.964   0.348
 6644TIP3   OH219874   7.753   3.993   4.251
 6644TIP3    H119875   7.824   3.966   4.193
 6644TIP3    H219876   7.675   3.953   4.214
 6645TIP3   OH219877   2.638   1.129   2.187
 6645TIP3    H119878   2.699   1.073   2.236
 6645TIP3    H219879   2.687   1.157   2.110
 6646TIP3   OH219880   1.731   3.245   5.524
 6646TIP3    H119881   1.821   3.222   5.502
 6646TIP3    H219882   1.739   3.314   5.590
 6647TIP3   OH219883   5.603   1.864   6.569
 6647TIP3    H119884   5.548   1.880   6.646
 6647TIP3    H219885   5.616   1.770   6.568
 6648TIP3   OH219886   1.354   4.950   6.387
 6648TIP3    H119887   1.281   4.965   6.327
 6648TIP3    H219888   1.418   4.901   6.335
 6649TIP3   OH219889   6.989   3.495   6.790
 6649TIP3    H119890   6.961   3.475   6.701
 6649TIP3    H219891   6.954   3.424   6.843
 6650TIP3   OH219892   1.540   4.885   2.155
 6650TIP3    H119893   1.501   4.805   2.119
 6650TIP3    H219894   1.602   4.855   2.221
 6651TIP3   OH219895   6.193   1.779   2.839
 6651TIP3    H119896   6.222   1.780   2.748
 6651TIP3    H219897   6.273   1.795   2.889
 6652TIP3   OH219898   1.192   2.819   6.504
 6652TIP3    H119899   1.142   2.861   6.574
 6652TIP3    H219900   1.170   2.869   6.425
 6653TIP3   OH219901   5.793   0.827   5.612
 6653TIP3    H119902   5.711   0.797   5.651
 6653TIP3    H219903   5.819   0.902   5.667
 6654TIP3   OH219904   4.358   1.592   3.043
 6654TIP3    H119905   4.428   1.585   2.979
 6654TIP3    H219906   4.403   1.601   3.127
 6655TIP3   OH219907   6.145   6.122   3.723
 6655TIP3    H119908   6.226   6.136   3.675
 6655TIP3    H219909   6.172   6.108   3.813
 6656TIP3   OH219910   7.787   4.734   5.878
 6656TIP3    H119911   7.863   4.722   5.936
 6656TIP3    H219912   7.802   4.675   5.805
 6657TIP3   OH219913   7.245   5.322   4.239
 6657TIP3    H119914   7.286   5.266   4.173
 6657TIP3    H219915   7.261   5.411   4.207
 6658TIP3   OH219916   5.869   4.238   1.471
 6658TIP3    H119917   5.936   4.276   1.414
 6658TIP3    H219918   5.798   4.213   1.412
 6659TIP3   OH219919   3.076   7.182   5.006
 6659TIP3    H119920   3.042   7.131   5.079
 6659TIP3    H219921   2.998   7.212   4.959
 6660TIP3   OH219922   0.522   1.544   2.392
 6660TIP3    H119923   0.521   1.541   2.487
 6660TIP3    H219924   0.606   1.503   2.368
 6661TIP3   OH219925   5.655   0.572   4.182
 6661TIP3    H119926   5.613   0.586   4.097
 6661TIP3    H219927   5.726   0.510   4.163
 6662TIP3   OH219928   5.237   4.475   3.979
 6662TIP3    H119929   5.313   4.529   3.954
 6662TIP3    H219930   5.265   4.432   4.060
 6663TIP3   OH219931   5.821   6.654   5.907
 6663TIP3    H119932   5.783   6.732   5.865
 6663TIP3    H219933   5.809   6.584   5.843
 6664TIP3   OH219934   5.498   7.799   6.419
 6664TIP3    H119935   5.474   7.778   6.329
 6664TIP3    H219936   5.510   7.894   6.419
 6665TIP3   OH219937   2.657   0.657   0.821
 6665TIP3    H119938   2.705   0.709   0.885
 6665TIP3    H219939   2.685   0.693   0.736
 6666TIP3   OH219940   5.158   1.868   5.606
 6666TIP3    H119941   5.152   1.847   5.699
 6666TIP3    H219942   5.184   1.960   5.603
 6667TIP3   OH219943   3.464   1.416   6.682
 6667TIP3    H119944   3.481   1.510   6.675
 6667TIP3    H219945   3.424   1.392   6.599
 6668TIP3   OH219946   5.295   6.101   5.857
 6668TIP3    H119947   5.226   6.113   5.922
 6668TIP3    H219948   5.377   6.112   5.906
 6669TIP3   OH219949   5.392   1.143   3.564
 6669TIP3    H119950   5.365   1.153   3.656
 6669TIP3    H219951   5.383   1.049   3.547
 6670TIP3   OH219952   1.333   5.672   6.736
 6670TIP3    H119953   1.276   5.673   6.659
 6670TIP3    H219954   1.403   5.611   6.712
 6671TIP3   OH219955   8.363   5.232   6.204
 6671TIP3    H119956   8.297   5.184   6.254
 6671TIP3    H219957   8.346   5.206   6.113
 6672TIP3   OH219958   3.394   2.636   5.966
 6672TIP3    H119959   3.370   2.585   6.043
 6672TIP3    H219960   3.313   2.643   5.916
 6673TIP3   OH219961   4.845   6.002   4.806
 6673TIP3    H119962   4.837   5.976   4.898
 6673TIP3    H219963   4.801   5.931   4.758
 6674TIP3   OH219964   0.585   3.673   5.812
 6674TIP3    H119965   0.602   3.752   5.760
 6674TIP3    H219966   0.548   3.611   5.750
 6675TIP3   OH219967   8.122   6.192   5.156
 6675TIP3    H119968   8.170   6.230   5.082
 6675TIP3    H219969   8.144   6.248   5.230
 6676TIP3   OH219970   1.981   4.499   5.853
 6676TIP3    H119971   1.951   4.563   5.918
 6676TIP3    H219972   1.947   4.531   5.770
 6677TIP3   OH219973   8.286   6.493   4.323
 6677TIP3    H119974   8.254   6.455   4.405
 6677TIP3    H219975   8.208   6.532   4.283
 6678TIP3   OH219976   2.407   4.145   6.653
 6678TIP3    H119977   2.326   4.188   6.627
 6678TIP3    H219978   2.457   4.137   6.572
 6679TIP3   OH219979   3.965   7.722   4.777
 6679TIP3    H119980   3.899   7.747   4.842
 6679TIP3    H219981   3.927   7.747   4.693
 6680TIP3   OH219982   2.654   0.483   5.555
 6680TIP3    H119983   2.707   0.477   5.476
 6680TIP3    H219984   2.570   0.517   5.525
 6681TIP3   OH219985   3.375   4.743   0.859
 6681TIP3    H119986   3.354   4.799   0.784
 6681TIP3    H219987   3.292   4.701   0.881
 6682TIP3   OH219988   6.315   1.579   6.646
 6682TIP3    H119989   6.399   1.602   6.686
 6682TIP3    H219990   6.299   1.648   6.582
 6683TIP3   OH219991   0.706   4.263   2.735
 6683TIP3    H119992   0.779   4.322   2.715
 6683TIP3    H219993   0.730   4.181   2.692
 6684TIP3   OH219994   1.490   3.082   2.149
 6684TIP3    H119995   1.450   3.044   2.071
 6684TIP3    H219996   1.573   3.118   2.118
 6685TIP3   OH219997   2.112   5.198   0.244
 6685TIP3    H119998   2.098   5.274   0.300
 6685TIP3    H219999   2.085   5.227   0.157
 6686TIP3   OH220000   0.936   0.951   3.293
 6686TIP3    H120001   0.948   0.862   3.326
 6686TIP3    H220002   1.017   0.996   3.314
 6687TIP3   OH220003   7.981   6.225   2.431
 6687TIP3    H120004   8.026   6.203   2.349
 6687TIP3    H220005   8.052   6.244   2.493
 6688TIP3   OH220006   0.734   1.216   5.945
 6688TIP3    H120007   0.714   1.123   5.946
 6688TIP3    H220008   0.830   1.220   5.947
 6689TIP3   OH220009   1.507   7.746   6.520
 6689TIP3    H120010   1.601   7.736   6.510
 6689TIP3    H220011   1.481   7.677   6.580
 6690TIP3   OH220012   4.245   1.992   0.516
 6690TIP3    H120013   4.309   2.015   0.583
 6690TIP3    H220014   4.279   1.910   0.478
 6691TIP3   OH220015   5.850   3.651   3.187
 6691TIP3    H120016   5.782   3.713   3.161
 6691TIP3    H220017   5.909   3.646   3.112
 6692TIP3   OH220018   5.879   1.458   1.672
 6692TIP3    H120019   5.829   1.528   1.629
 6692TIP3    H220020   5.967   1.494   1.683
 6693TIP3   OH220021   1.058   4.871   3.448
 6693TIP3    H120022   1.128   4.912   3.397
 6693TIP3    H220023   1.053   4.782   3.414
 6694TIP3   OH220024   1.698   1.181   3.460
 6694TIP3    H120025   1.702   1.261   3.513
 6694TIP3    H220026   1.691   1.111   3.525
 6695TIP3   OH220027   5.573   4.361   4.951
 6695TIP3    H120028   5.634   4.417   4.903
 6695TIP3    H220029   5.558   4.407   5.034
 6696TIP3   OH220030   0.264   4.173   0.408
 6696TIP3    H120031   0.355   4.156   0.382
 6696TIP3    H220032   0.235   4.092   0.449
 6697TIP3   OH220033   3.161   2.535   4.436
 6697TIP3    H120034   3.240   2.519   4.385
 6697TIP3    H220035   3.128   2.448   4.456
 6698TIP3   OH220036   5.531   2.793   1.342
 6698TIP3    H120037   5.480   2.858   1.293
 6698TIP3    H220038   5.564   2.734   1.274
 6699TIP3   OH220039   7.569   5.688   4.043
 6699TIP3    H120040   7.660   5.692   4.013
 6699TIP3    H220041   7.550   5.594   4.048
 6700TIP3   OH220042   3.083   0.982   1.249
 6700TIP3    H120043   3.013   1.038   1.283
 6700TIP3    H220044   3.042   0.896   1.239
 6701TIP3   OH220045   3.875   0.382   5.797
 6701TIP3    H120046   3.838   0.321   5.861
 6701TIP3    H220047   3.892   0.329   5.720
 6702TIP3   OH220048   6.522   0.827   0.350
 6702TIP3    H120049   6.455   0.884   0.313
 6702TIP3    H220050   6.555   0.875   0.426
 6703TIP3   OH220051   2.851   4.695   4.394
 6703TIP3    H120052   2.806   4.757   4.337
 6703TIP3    H220053   2.862   4.743   4.476
 6704TIP3   OH220054   1.056   1.571   5.939
 6704TIP3    H120055   1.142   1.541   5.909
 6704TIP3    H220056   1.001   1.568   5.861
 6705TIP3   OH220057   7.116   1.024   2.491
 6705TIP3    H120058   7.050   0.992   2.553
 6705TIP3    H220059   7.184   1.063   2.546
 6706TIP3   OH220060   0.201   5.924   1.056
 6706TIP3    H120061   0.191   5.937   1.150
 6706TIP3    H220062   0.124   5.873   1.030
 6707TIP3   OH220063   6.231   4.497   1.703
 6707TIP3    H120064   6.155   4.458   1.746
 6707TIP3    H220065   6.273   4.550   1.772
 6708TIP3   OH220066   1.744   2.998   4.650
 6708TIP3    H120067   1.728   2.904   4.650
 6708TIP3    H220068   1.683   3.033   4.585
 6709TIP3   OH220069   0.058   1.358   2.096
 6709TIP3    H120070   0.132   1.339   2.153
 6709TIP3    H220071   0.088   1.335   2.008
 6710TIP3   OH220072   8.088   6.142   2.202
 6710TIP3    H120073   8.149   6.103   2.264
 6710TIP3    H220074   8.081   6.077   2.131
 6711TIP3   OH220075   4.102   1.025   4.247
 6711TIP3    H120076   4.063   1.092   4.303
 6711TIP3    H220077   4.076   1.050   4.158
 6712TIP3   OH220078   0.997   0.782   5.626
 6712TIP3    H120079   0.952   0.864   5.605
 6712TIP3    H220080   0.930   0.715   5.616
 6713TIP3   OH220081   2.530   4.660  -0.015
 6713TIP3    H120082   2.509   4.732   0.045
 6713TIP3    H220083   2.557   4.588   0.043
 6714TIP3   OH220084   3.136   4.990   4.834
 6714TIP3    H120085   3.111   4.903   4.865
 6714TIP3    H220086   3.178   5.032   4.909
 6715TIP3   OH220087   7.041   3.703   3.301
 6715TIP3    H120088   6.985   3.714   3.378
 6715TIP3    H220089   7.130   3.701   3.336
 6716TIP3   OH220090   2.832   6.733   6.758
 6716TIP3    H120091   2.797   6.668   6.697
 6716TIP3    H220092   2.826   6.816   6.710
 6717TIP3   OH220093   4.068   2.352   4.380
 6717TIP3    H120094   4.024   2.392   4.305
 6717TIP3    H220095   4.083   2.424   4.441
 6718TIP3   OH220096   8.191   3.360   6.339
 6718TIP3    H120097   8.235   3.284   6.376
 6718TIP3    H220098   8.108   3.326   6.306
 6719TIP3   OH220099   6.344   6.848   1.595
 6719TIP3    H120100   6.431   6.811   1.605
 6719TIP3    H220101   6.358   6.943   1.593
 6720TIP3   OH220102   2.511   1.739   2.954
 6720TIP3    H120103   2.433   1.776   2.912
 6720TIP3    H220104   2.583   1.763   2.896
 6721TIP3   OH220105   3.454   0.223   5.324
 6721TIP3    H120106   3.518   0.187   5.385
 6721TIP3    H220107   3.372   0.227   5.374
 6722TIP3   OH220108   5.808   6.170   5.518
 6722TIP3    H120109   5.814   6.115   5.439
 6722TIP3    H220110   5.753   6.244   5.491
 6723TIP3   OH220111   3.384   1.679   1.693
 6723TIP3    H120112   3.434   1.599   1.678
 6723TIP3    H220113   3.373   1.684   1.788
 6724TIP3   OH220114   7.164   4.087   4.619
 6724TIP3    H120115   7.257   4.086   4.595
 6724TIP3    H220116   7.163   4.113   4.711
 6725TIP3   OH220117   4.787   7.240   5.778
 6725TIP3    H120118   4.762   7.326   5.813
 6725TIP3    H220119   4.706   7.190   5.778
 6726TIP3   OH220120   3.005   2.650   6.462
 6726TIP3    H120121   2.973   2.699   6.537
 6726TIP3    H220122   2.970   2.696   6.386
 6727TIP3   OH220123   1.433   6.845   0.200
 6727TIP3    H120124   1.517   6.890   0.211
 6727TIP3    H220125   1.405   6.868   0.112
 6728TIP3   OH220126   1.122   3.431   4.256
 6728TIP3    H120127   1.216   3.418   4.268
 6728TIP3    H220128   1.115   3.501   4.191
 6729TIP3   OH220129   1.408   1.993   4.966
 6729TIP3    H120130   1.317   1.970   4.985
 6729TIP3    H220131   1.457   1.959   5.040
 6730TIP3   OH220132   4.756   2.700   1.737
 6730TIP3    H120133   4.803   2.617   1.732
 6730TIP3    H220134   4.823   2.765   1.759
 6731TIP3   OH220135   5.665   2.876   3.241
 6731TIP3    H120136   5.624   2.875   3.327
 6731TIP3    H220137   5.595   2.907   3.182
 6732TIP3   OH220138   5.830   6.157   4.401
 6732TIP3    H120139   5.856   6.230   4.458
 6732TIP3    H220140   5.889   6.086   4.426
 6733TIP3   OH220141   1.093   5.643   1.923
 6733TIP3    H120142   1.077   5.586   1.998
 6733TIP3    H220143   1.005   5.663   1.889
 6734TIP3   OH220144   1.483   1.181   3.808
 6734TIP3    H120145   1.415   1.201   3.872
 6734TIP3    H220146   1.552   1.138   3.859
 6735TIP3   OH220147   2.233   7.338   5.331
 6735TIP3    H120148   2.266   7.418   5.290
 6735TIP3    H220149   2.182   7.368   5.406
 6736TIP3   OH220150   3.808   7.129   2.209
 6736TIP3    H120151   3.740   7.197   2.211
 6736TIP3    H220152   3.775   7.061   2.268
 6737TIP3   OH220153   4.818   0.542   1.783
 6737TIP3    H120154   4.865   0.498   1.713
 6737TIP3    H220155   4.729   0.507   1.779
 6738TIP3   OH220156   8.258   6.684   3.510
 6738TIP3    H120157   8.340   6.679   3.461
 6738TIP3    H220158   8.258   6.772   3.547
 6739TIP3   OH220159   2.332   6.606   0.631
 6739TIP3    H120160   2.348   6.518   0.665
 6739TIP3    H220161   2.290   6.653   0.703
 6740TIP3   OH220162   4.760   1.793   6.280
 6740TIP3    H120163   4.722   1.717   6.235
 6740TIP3    H220164   4.852   1.771   6.292
 6741TIP3   OH220165   6.794   4.124   4.872
 6741TIP3    H120166   6.750   4.108   4.956
 6741TIP3    H220167   6.885   4.143   4.896
 6742TIP3   OH220168   1.158   2.153   2.511
 6742TIP3    H120169   1.161   2.063   2.543
 6742TIP3    H220170   1.078   2.189   2.550
 6743TIP3   OH220171   1.163   5.413   3.487
 6743TIP3    H120172   1.251   5.437   3.515
 6743TIP3    H220173   1.147   5.327   3.526
 6744TIP3   OH220174   3.823   7.499   2.763
 6744TIP3    H120175   3.839   7.529   2.673
 6744TIP3    H220176   3.894   7.437   2.781
 6745TIP3   OH220177   3.978   5.228   4.311
 6745TIP3    H120178   4.003   5.136   4.309
 6745TIP3    H220179   4.040   5.271   4.252
 6746TIP3   OH220180   5.808   2.784   4.628
 6746TIP3    H120181   5.828   2.875   4.649
 6746TIP3    H220182   5.725   2.789   4.579
 6747TIP3   OH220183   6.286   2.617   2.224
 6747TIP3    H120184   6.226   2.629   2.150
 6747TIP3    H220185   6.257   2.682   2.289
 6748TIP3   OH220186   2.298   0.024   4.235
 6748TIP3    H120187   2.211   0.013   4.272
 6748TIP3    H220188   2.358  -0.005   4.305
 6749TIP3   OH220189   6.412   0.110   1.531
 6749TIP3    H120190   6.410   0.072   1.443
 6749TIP3    H220191   6.470   0.052   1.581
 6750TIP3   OH220192   3.142   3.214   3.227
 6750TIP3    H120193   3.152   3.284   3.291
 6750TIP3    H220194   3.158   3.256   3.142
 6751TIP3   OH220195   1.779   0.233   6.361
 6751TIP3    H120196   1.862   0.271   6.332
 6751TIP3    H220197   1.765   0.270   6.449
 6752TIP3   OH220198   6.355   7.687   0.088
 6752TIP3    H120199   6.305   7.768   0.082
 6752TIP3    H220200   6.343   7.658   0.178
 6753TIP3   OH220201   3.849   1.882   3.988
 6753TIP3    H120202   3.848   1.886   4.084
 6753TIP3    H220203   3.894   1.962   3.961
 6754TIP3   OH220204   4.267   6.834   5.983
 6754TIP3    H120205   4.248   6.863   6.072
 6754TIP3    H220206   4.324   6.758   5.993
 6755TIP3   OH220207   5.884   6.734   1.864
 6755TIP3    H120208   5.978   6.745   1.882
 6755TIP3    H220209   5.877   6.741   1.769
 6756TIP3   OH220210   8.057   4.594   3.422
 6756TIP3    H120211   8.135   4.613   3.369
 6756TIP3    H220212   7.996   4.665   3.403
 6757TIP3   OH220213   4.272   1.292   4.990
 6757TIP3    H120214   4.186   1.325   4.964
 6757TIP3    H220215   4.291   1.337   5.073
 6758TIP3   OH220216   7.272   3.078   0.486
 6758TIP3    H120217   7.367   3.063   0.486
 6758TIP3    H220218   7.251   3.102   0.396
 6759TIP3   OH220219   2.951   5.378   4.608
 6759TIP3    H120220   2.870   5.394   4.657
 6759TIP3    H220221   3.015   5.438   4.647
 6760TIP3   OH220222   5.878   6.950   1.240
 6760TIP3    H120223   5.906   6.905   1.160
 6760TIP3    H220224   5.933   6.914   1.309
 6761TIP3   OH220225   0.716   6.150   3.871
 6761TIP3    H120226   0.763   6.077   3.832
 6761TIP3    H220227   0.773   6.181   3.941
 6762TIP3   OH220228   2.195   5.776   3.788
 6762TIP3    H120229   2.253   5.701   3.776
 6762TIP3    H220230   2.253   5.852   3.786
 6763TIP3   OH220231   2.687   5.263   5.612
 6763TIP3    H120232   2.682   5.350   5.572
 6763TIP3    H220233   2.617   5.214   5.571
 6764TIP3   OH220234   6.206   2.711   5.079
 6764TIP3    H120235   6.226   2.793   5.035
 6764TIP3    H220236   6.133   2.731   5.137
 6765TIP3   OH220237   7.425   5.888   2.060
 6765TIP3    H120238   7.368   5.917   2.131
 6765TIP3    H220239   7.506   5.860   2.105
 6766TIP3   OH220240   2.568   7.779   5.194
 6766TIP3    H120241   2.649   7.779   5.244
 6766TIP3    H220242   2.522   7.858   5.220
 6767TIP3   OH220243   7.666   6.654   6.521
 6767TIP3    H120244   7.598   6.587   6.511
 6767TIP3    H220245   7.670   6.669   6.616
 6768TIP3   OH220246   4.700   3.783   0.408
 6768TIP3    H120247   4.734   3.849   0.469
 6768TIP3    H220248   4.760   3.709   0.417
 6769TIP3   OH220249   2.620   1.242   6.630
 6769TIP3    H120250   2.647   1.266   6.542
 6769TIP3    H220251   2.657   1.155   6.645
 6770TIP3   OH220252   2.190   4.003   4.303
 6770TIP3    H120253   2.155   4.056   4.232
 6770TIP3    H220254   2.114   3.979   4.355
 6771TIP3   OH220255   5.202   5.414   2.281
 6771TIP3    H120256   5.272   5.456   2.231
 6771TIP3    H220257   5.238   5.329   2.306
 6772TIP3   OH220258   5.782   4.600   1.715
 6772TIP3    H120259   5.755   4.657   1.787
 6772TIP3    H220260   5.716   4.531   1.713
 6773TIP3   OH220261   5.872   4.434   3.330
 6773TIP3    H120262   5.887   4.342   3.350
 6773TIP3    H220263   5.908   4.482   3.405
 6774TIP3   OH220264   5.299   0.928   3.752
 6774TIP3    H120265   5.363   0.858   3.742
 6774TIP3    H220266   5.214   0.886   3.736
 6775TIP3   OH220267   2.083   6.911   5.426
 6775TIP3    H120268   2.007   6.917   5.368
 6775TIP3    H220269   2.148   6.862   5.376
 6776TIP3   OH220270   7.919   5.115  -0.037
 6776TIP3    H120271   7.906   5.043  -0.099
 6776TIP3    H220272   7.957   5.073   0.040
 6777TIP3   OH220273   7.928   5.260   4.500
 6777TIP3    H120274   7.877   5.334   4.533
 6777TIP3    H220275   7.883   5.235   4.419
 6778TIP3   OH220276   7.997   0.522   2.575
 6778TIP3    H120277   7.958   0.533   2.488
 6778TIP3    H220278   7.931   0.475   2.625
 6779TIP3   OH220279   4.373   6.553   4.795
 6779TIP3    H120280   4.292   6.531   4.748
 6779TIP3    H220281   4.356   6.640   4.831
 6780TIP3   OH220282   3.689   7.156   2.692
 6780TIP3    H120283   3.656   7.242   2.717
 6780TIP3    H220284   3.621   7.121   2.634
 6781TIP3   OH220285   6.783   6.950   2.361
 6781TIP3    H120286   6.843   7.000   2.417
 6781TIP3    H220287   6.833   6.873   2.336
 6782TIP3   OH220288   3.286   2.679   2.351
 6782TIP3    H120289   3.342   2.659   2.426
 6782TIP3    H220290   3.212   2.619   2.359
 6783TIP3   OH220291   4.741   1.249   1.848
 6783TIP3    H120292   4.664   1.193   1.838
 6783TIP3    H220293   4.707   1.329   1.889
 6784TIP3   OH220294   6.414   4.925   2.740
 6784TIP3    H120295   6.454   4.872   2.809
 6784TIP3    H220296   6.424   4.872   2.661
 6785TIP3   OH220297   3.420   2.588   6.270
 6785TIP3    H120298   3.389   2.608   6.358
 6785TIP3    H220299   3.496   2.645   6.258
 6786TIP3   OH220300   2.786   5.784   3.694
 6786TIP3    H120301   2.872   5.824   3.681
 6786TIP3    H220302   2.778   5.720   3.624
 6787TIP3   OH220303   7.391   2.786   5.042
 6787TIP3    H120304   7.337   2.730   4.986
 6787TIP3    H220305   7.372   2.755   5.131
 6788TIP3   OH220306   0.044   7.187   4.548
 6788TIP3    H120307   0.050   7.212   4.456
 6788TIP3    H220308   0.044   7.091   4.547
 6789TIP3   OH220309   2.471   5.949   5.711
 6789TIP3    H120310   2.445   6.014   5.646
 6789TIP3    H220311   2.562   5.971   5.733
 6790TIP3   OH220312   3.663   0.556   1.697
 6790TIP3    H120313   3.609   0.538   1.620
 6790TIP3    H220314   3.613   0.619   1.748
 6791TIP3   OH220315   7.336   2.179   1.071
 6791TIP3    H120316   7.361   2.091   1.102
 6791TIP3    H220317   7.261   2.203   1.126
 6792TIP3   OH220318   5.193   3.360   5.142
 6792TIP3    H120319   5.176   3.352   5.049
 6792TIP3    H220320   5.164   3.277   5.180
 6793TIP3   OH220321   5.288   1.822   0.695
 6793TIP3    H120322   5.207   1.868   0.719
 6793TIP3    H220323   5.340   1.887   0.648
 6794TIP3   OH220324   3.021   0.420   5.395
 6794TIP3    H120325   2.927   0.420   5.376
 6794TIP3    H220326   3.056   0.491   5.340
 6795TIP3   OH220327   7.761   1.078   3.793
 6795TIP3    H120328   7.737   1.020   3.721
 6795TIP3    H220329   7.828   1.135   3.756
 6796TIP3   OH220330   0.292   4.679   0.921
 6796TIP3    H120331   0.332   4.639   0.844
 6796TIP3    H220332   0.266   4.766   0.891
 6797TIP3   OH220333   6.497   0.209   1.935
 6797TIP3    H120334   6.448   0.238   1.858
 6797TIP3    H220335   6.445   0.238   2.010
 6798TIP3   OH220336   0.654   6.327   2.932
 6798TIP3    H120337   0.664   6.264   3.004
 6798TIP3    H220338   0.576   6.377   2.954
 6799TIP3   OH220339   6.843   4.808   6.457
 6799TIP3    H120340   6.935   4.783   6.466
 6799TIP3    H220341   6.815   4.830   6.546
 6800TIP3   OH220342   2.743   1.239   3.107
 6800TIP3    H120343   2.742   1.328   3.073
 6800TIP3    H220344   2.824   1.201   3.073
 6801TIP3   OH220345   0.754   1.674   5.091
 6801TIP3    H120346   0.701   1.730   5.147
 6801TIP3    H220347   0.802   1.618   5.152
 6802TIP3   OH220348   3.446   3.258   0.605
 6802TIP3    H120349   3.464   3.342   0.561
 6802TIP3    H220350   3.533   3.225   0.629
 6803TIP3   OH220351   4.847   7.776   0.417
 6803TIP3    H120352   4.937   7.745   0.424
 6803TIP3    H220353   4.811   7.728   0.342
 6804TIP3   OH220354   1.804   3.398   1.205
 6804TIP3    H120355   1.745   3.451   1.258
 6804TIP3    H220356   1.747   3.336   1.159
 6805TIP3   OH220357   1.508   5.505   5.301
 6805TIP3    H120358   1.567   5.434   5.277
 6805TIP3    H220359   1.500   5.499   5.396
 6806TIP3   OH220360   4.723   0.361   2.264
 6806TIP3    H120361   4.783   0.394   2.198
 6806TIP3    H220362   4.732   0.423   2.337
 6807TIP3   OH220363   0.451   3.619   6.064
 6807TIP3    H120364   0.410   3.697   6.100
 6807TIP3    H220365   0.508   3.651   5.994
 6808TIP3   OH220366   1.317   0.579   4.081
 6808TIP3    H120367   1.358   0.647   4.026
 6808TIP3    H220368   1.305   0.622   4.166
 6809TIP3   OH220369   6.833   0.376   5.881
 6809TIP3    H120370   6.861   0.406   5.968
 6809TIP3    H220371   6.884   0.431   5.821
 6810TIP3   OH220372   1.248   4.757   1.126
 6810TIP3    H120373   1.175   4.724   1.073
 6810TIP3    H220374   1.257   4.848   1.099
 6811TIP3   OH220375   0.399   2.715   3.556
 6811TIP3    H120376   0.381   2.679   3.469
 6811TIP3    H220377   0.442   2.799   3.538
 6812TIP3   OH220378   0.334   1.399   6.056
 6812TIP3    H120379   0.277   1.416   5.982
 6812TIP3    H220380   0.421   1.387   6.017
 6813TIP3   OH220381   5.868   2.748   2.490
 6813TIP3    H120382   5.829   2.792   2.415
 6813TIP3    H220383   5.866   2.813   2.560
 6814TIP3   OH220384   2.302   2.613   3.274
 6814TIP3    H120385   2.320   2.689   3.329
 6814TIP3    H220386   2.242   2.644   3.207
 6815TIP3   OH220387   2.379   6.890   1.373
 6815TIP3    H120388   2.296   6.851   1.402
 6815TIP3    H220389   2.358   6.983   1.359
 6816TIP3   OH220390   5.972   0.404   1.321
 6816TIP3    H120391   6.048   0.408   1.379
 6816TIP3    H220392   5.960   0.310   1.304
 6817TIP3   OH220393   5.001   7.154   1.504
 6817TIP3    H120394   4.919   7.119   1.538
 6817TIP3    H220395   4.981   7.179   1.414
 6818TIP3   OH220396   7.739   7.515   4.086
 6818TIP3    H120397   7.782   7.536   4.168
 6818TIP3    H220398   7.658   7.470   4.112
 6819TIP3   OH220399   6.373   4.349   4.557
 6819TIP3    H120400   6.403   4.336   4.467
 6819TIP3    H220401   6.451   4.331   4.611
 6820TIP3   OH220402   4.189   1.568   5.678
 6820TIP3    H120403   4.267   1.524   5.643
 6820TIP3    H220404   4.176   1.643   5.621
 6821TIP3   OH220405   5.396   4.976   4.058
 6821TIP3    H120406   5.377   5.045   3.994
 6821TIP3    H220407   5.466   4.924   4.017
 6822TIP3   OH220408   0.021   0.918   4.496
 6822TIP3    H120409  -0.039   0.982   4.535
 6822TIP3    H220410  -0.010   0.833   4.528
 6823TIP3   OH220411   0.670   5.631   2.353
 6823TIP3    H120412   0.611   5.631   2.277
 6823TIP3    H220413   0.756   5.652   2.317
 6824TIP3   OH220414   1.605   3.741   3.735
 6824TIP3    H120415   1.522   3.697   3.718
 6824TIP3    H220416   1.586   3.834   3.728
 6825TIP3   OH220417   0.375   6.832   6.806
 6825TIP3    H120418   0.339   6.805   6.721
 6825TIP3    H220419   0.319   6.904   6.834
 6826TIP3   OH220420   3.123   4.837   5.980
 6826TIP3    H120421   3.181   4.896   6.029
 6826TIP3    H220422   3.037   4.878   5.985
 6827TIP3   OH220423   6.273   4.599   2.170
 6827TIP3    H120424   6.341   4.536   2.194
 6827TIP3    H220425   6.216   4.603   2.247
 6828TIP3   OH220426   8.018   4.455   2.305
 6828TIP3    H120427   8.071   4.491   2.234
 6828TIP3    H220428   8.062   4.483   2.385
 6829TIP3   OH220429   4.840   0.222   2.701
 6829TIP3    H120430   4.926   0.205   2.664
 6829TIP3    H220431   4.858   0.250   2.791
 6830TIP3   OH220432   2.964   5.966   5.891
 6830TIP3    H120433   3.002   5.911   5.960
 6830TIP3    H220434   2.998   5.929   5.809
 6831TIP3   OH220435   0.684   4.647   2.845
 6831TIP3    H120436   0.636   4.669   2.925
 6831TIP3    H220437   0.669   4.553   2.833
 6832TIP3   OH220438   0.025   1.159   0.517
 6832TIP3    H120439   0.076   1.112   0.450
 6832TIP3    H220440   0.079   1.235   0.539
 6833TIP3   OH220441   3.069   4.200   5.034
 6833TIP3    H120442   3.157   4.227   5.007
 6833TIP3    H220443   3.056   4.115   4.992
 6834TIP3   OH220444   7.474   7.368   6.645
 6834TIP3    H120445   7.477   7.401   6.735
 6834TIP3    H220446   7.396   7.313   6.642
 6835TIP3   OH220447   0.658   5.561   2.854
 6835TIP3    H120448   0.681   5.474   2.886
 6835TIP3    H220449   0.618   5.545   2.769
 6836TIP3   OH220450   5.613   0.893   0.455
 6836TIP3    H120451   5.685   0.956   0.445
 6836TIP3    H220452   5.555   0.933   0.519
 6837TIP3   OH220453   8.045   3.019   1.928
 6837TIP3    H120454   8.094   3.097   1.901
 6837TIP3    H220455   8.091   2.987   2.006
 6838TIP3   OH220456   2.427   7.390   5.700
 6838TIP3    H120457   2.410   7.311   5.751
 6838TIP3    H220458   2.397   7.369   5.612
 6839TIP3   OH220459   0.792   2.918   3.328
 6839TIP3    H120460   0.765   2.830   3.301
 6839TIP3    H220461   0.781   2.972   3.250
 6840TIP3   OH220462   6.885   4.025   0.933
 6840TIP3    H120463   6.831   4.079   0.991
 6840TIP3    H220464   6.821   3.977   0.879
 6841TIP3   OH220465   0.204   1.337   1.869
 6841TIP3    H120466   0.185   1.399   1.799
 6841TIP3    H220467   0.300   1.336   1.875
 6842TIP3   OH220468   6.313   2.602   4.691
 6842TIP3    H120469   6.319   2.595   4.595
 6842TIP3    H220470   6.363   2.681   4.712
 6843TIP3   OH220471   4.559   5.157   2.004
 6843TIP3    H120472   4.487   5.130   2.060
 6843TIP3    H220473   4.516   5.192   1.925
 6844TIP3   OH220474   6.170   4.502   0.266
 6844TIP3    H120475   6.196   4.420   0.308
 6844TIP3    H220476   6.173   4.483   0.173
 6845TIP3   OH220477   6.747   0.868   0.670
 6845TIP3    H120478   6.773   0.912   0.589
 6845TIP3    H220479   6.776   0.927   0.739
 6846TIP3   OH220480   6.943   6.347   4.057
 6846TIP3    H120481   6.875   6.410   4.030
 6846TIP3    H220482   6.933   6.339   4.152
 6847TIP3   OH220483   6.505   2.524   5.433
 6847TIP3    H120484   6.475   2.609   5.401
 6847TIP3    H220485   6.485   2.525   5.526
 6848TIP3   OH220486   3.822   2.632   4.981
 6848TIP3    H120487   3.909   2.670   4.988
 6848TIP3    H220488   3.833   2.541   5.010
 6849TIP3   OH220489   5.332   4.672   6.542
 6849TIP3    H120490   5.309   4.595   6.490
 6849TIP3    H220491   5.251   4.693   6.589
 6850TIP3   OH220492   2.040   0.406   1.192
 6850TIP3    H120493   1.972   0.445   1.247
 6850TIP3    H220494   2.098   0.363   1.255
 6851TIP3   OH220495   3.290   2.916   0.106
 6851TIP3    H120496   3.274   2.840   0.051
 6851TIP3    H220497   3.218   2.917   0.168
 6852TIP3   OH220498   3.342   1.717   1.956
 6852TIP3    H120499   3.274   1.755   2.012
 6852TIP3    H220500   3.422   1.763   1.981
 6853TIP3   OH220501   3.035   2.533   5.136
 6853TIP3    H120502   2.966   2.474   5.166
 6853TIP3    H220503   3.087   2.480   5.076
 6854TIP3   OH220504   1.130   5.218   0.958
 6854TIP3    H120505   1.071   5.283   0.995
 6854TIP3    H220506   1.124   5.230   0.863
 6855TIP3   OH220507   2.448   1.974   0.886
 6855TIP3    H120508   2.426   1.882   0.901
 6855TIP3    H220509   2.463   1.980   0.791
 6856TIP3   OH220510   6.175   0.171   1.690
 6856TIP3    H120511   6.090   0.143   1.657
 6856TIP3    H220512   6.239   0.129   1.632
 6857TIP3   OH220513   7.544   4.970   0.522
 6857TIP3    H120514   7.466   4.925   0.489
 6857TIP3    H220515   7.573   5.024   0.449
 6858TIP3   OH220516   0.578   3.160   6.512
 6858TIP3    H120517   0.613   3.247   6.529
 6858TIP3    H220518   0.549   3.128   6.598
 6859TIP3   OH220519   6.329   5.823   4.463
 6859TIP3    H120520   6.385   5.887   4.418
 6859TIP3    H220521   6.313   5.861   4.549
 6860TIP3   OH220522   5.615   2.262   5.963
 6860TIP3    H120523   5.527   2.284   5.994
 6860TIP3    H220524   5.673   2.323   6.009
 6861TIP3   OH220525   1.896   1.205   4.076
 6861TIP3    H120526   1.821   1.243   4.121
 6861TIP3    H220527   1.900   1.252   3.993
 6862TIP3   OH220528   3.369   4.254   5.334
 6862TIP3    H120529   3.422   4.213   5.402
 6862TIP3    H220530   3.402   4.344   5.329
 6863TIP3   OH220531   3.293   4.805   3.967
 6863TIP3    H120532   3.329   4.838   4.049
 6863TIP3    H220533   3.212   4.760   3.992
 6864TIP3   OH220534   5.682   6.640   4.708
 6864TIP3    H120535   5.593   6.673   4.719
 6864TIP3    H220536   5.675   6.546   4.727
 6865TIP3   OH220537   8.088   0.982   6.600
 6865TIP3    H120538   8.122   0.902   6.639
 6865TIP3    H220539   8.038   1.023   6.670
 6866TIP3   OH220540   0.983   2.445   1.124
 6866TIP3    H120541   1.043   2.496   1.178
 6866TIP3    H220542   0.901   2.494   1.126
 6867TIP3   OH220543   5.222   6.275   3.736
 6867TIP3    H120544   5.286   6.214   3.701
 6867TIP3    H220545   5.236   6.273   3.831
 6868TIP3   OH220546   3.141   3.014   3.604
 6868TIP3    H120547   3.068   3.073   3.625
 6868TIP3    H220548   3.121   2.981   3.517
 6869TIP3   OH220549   3.907   3.237   6.357
 6869TIP3    H120550   3.906   3.192   6.273
 6869TIP3    H220551   3.826   3.287   6.359
 6870TIP3   OH220552   1.046   0.447   6.347
 6870TIP3    H120553   1.014   0.510   6.282
 6870TIP3    H220554   1.063   0.368   6.297
 6871TIP3   OH220555   5.217   2.208   1.635
 6871TIP3    H120556   5.151   2.253   1.582
 6871TIP3    H220557   5.299   2.223   1.589
 6872TIP3   OH220558   1.480   6.382   6.482
 6872TIP3    H120559   1.447   6.463   6.522
 6872TIP3    H220560   1.412   6.358   6.419
 6873TIP3   OH220561   1.975   1.845   2.056
 6873TIP3    H120562   1.997   1.933   2.026
 6873TIP3    H220563   1.967   1.794   1.976
 6874TIP3   OH220564   3.530   2.135   3.114
 6874TIP3    H120565   3.574   2.211   3.074
 6874TIP3    H220566   3.594   2.100   3.175
 6875TIP3   OH220567   3.790   6.968   0.476
 6875TIP3    H120568   3.702   6.961   0.438
 6875TIP3    H220569   3.828   7.044   0.432
 6876TIP3   OH220570   0.030   3.261   2.385
 6876TIP3    H120571   0.030   3.217   2.300
 6876TIP3    H220572   0.121   3.290   2.397
 6877TIP3   OH220573   2.097   3.396   6.373
 6877TIP3    H120574   2.007   3.425   6.361
 6877TIP3    H220575   2.107   3.385   6.467
 6878TIP3   OH220576   3.709   0.822   0.565
 6878TIP3    H120577   3.782   0.788   0.514
 6878TIP3    H220578   3.729   0.798   0.655
 6879TIP3   OH220579   5.248   3.528   0.443
 6879TIP3    H120580   5.296   3.470   0.502
 6879TIP3    H220581   5.297   3.525   0.361
 6880TIP3   OH220582   2.899   4.534   4.023
 6880TIP3    H120583   2.988   4.526   4.058
 6880TIP3    H220584   2.889   4.461   3.963
 6881TIP3   OH220585   4.560   0.776   3.237
 6881TIP3    H120586   4.507   0.826   3.175
 6881TIP3    H220587   4.651   0.797   3.212
 6882TIP3   OH220588   3.431   7.116   2.221
 6882TIP3    H120589   3.368   7.189   2.226
 6882TIP3    H220590   3.384   7.041   2.257
 6883TIP3   OH220591   2.306   5.015   5.308
 6883TIP3    H120592   2.263   4.956   5.246
 6883TIP3    H220593   2.317   5.097   5.260
 6884TIP3   OH220594   6.344   5.214   1.702
 6884TIP3    H120595   6.368   5.207   1.609
 6884TIP3    H220596   6.318   5.306   1.712
 6885TIP3   OH220597   7.819   6.365   3.978
 6885TIP3    H120598   7.885   6.377   4.046
 6885TIP3    H220599   7.756   6.436   3.992
 6886TIP3   OH220600   4.541   2.476   0.081
 6886TIP3    H120601   4.476   2.546   0.078
 6886TIP3    H220602   4.601   2.502   0.151
 6887TIP3   OH220603   7.672   5.875   2.217
 6887TIP3    H120604   7.648   5.915   2.300
 6887TIP3    H220605   7.730   5.802   2.241
 6888TIP3   OH220606   7.042   1.052   2.094
 6888TIP3    H120607   7.107   1.073   2.161
 6888TIP3    H220608   6.969   1.111   2.112
 6889TIP3   OH220609   2.726   6.684   0.182
 6889TIP3    H120610   2.691   6.624   0.249
 6889TIP3    H220611   2.815   6.653   0.166
 6890TIP3   OH220612   7.822   0.539   2.036
 6890TIP3    H120613   7.809   0.603   1.966
 6890TIP3    H220614   7.899   0.488   2.009
 6891TIP3   OH220615   0.096   1.818   0.823
 6891TIP3    H120616   0.103   1.730   0.859
 6891TIP3    H220617   0.003   1.840   0.828
 6892TIP3   OH220618   0.411   4.376   4.250
 6892TIP3    H120619   0.448   4.302   4.201
 6892TIP3    H220620   0.336   4.403   4.198
 6893TIP3   OH220621   0.873   7.174   3.219
 6893TIP3    H120622   0.815   7.238   3.179
 6893TIP3    H220623   0.869   7.193   3.313
 6894TIP3   OH220624   0.481   1.550   5.355
 6894TIP3    H120625   0.482   1.535   5.260
 6894TIP3    H220626   0.406   1.608   5.369
 6895TIP3   OH220627   1.885   7.808   5.384
 6895TIP3    H120628   1.965   7.835   5.429
 6895TIP3    H220629   1.917   7.768   5.303
 6896TIP3   OH220630   7.125   7.396   6.398
 6896TIP3    H120631   7.031   7.383   6.401
 6896TIP3    H220632   7.137   7.491   6.406
 6897TIP3   OH220633   5.363   5.825   5.827
 6897TIP3    H120634   5.299   5.807   5.896
 6897TIP3    H220635   5.325   5.899   5.779
 6898TIP3   OH220636   1.437   4.875   6.670
 6898TIP3    H120637   1.395   4.935   6.609
 6898TIP3    H220638   1.444   4.792   6.621
 6899TIP3   OH220639   0.531   4.937   1.585
 6899TIP3    H120640   0.544   4.954   1.678
 6899TIP3    H220641   0.557   5.019   1.542
 6900TIP3   OH220642   0.468   5.052   3.349
 6900TIP3    H120643   0.407   5.071   3.277
 6900TIP3    H220644   0.540   5.114   3.337
 6901TIP3   OH220645   5.949   0.970   3.080
 6901TIP3    H120646   5.854   0.968   3.071
 6901TIP3    H220647   5.981   0.969   2.989
 6902TIP3   OH220648   7.101   3.508   2.886
 6902TIP3    H120649   7.096   3.596   2.848
 6902TIP3    H220650   7.038   3.508   2.957
 6903TIP3   OH220651   7.667   7.524   6.302
 6903TIP3    H120652   7.588   7.548   6.253
 6903TIP3    H220653   7.715   7.466   6.243
 6904TIP3   OH220654   6.591   6.916   4.133
 6904TIP3    H120655   6.526   6.846   4.130
 6904TIP3    H220656   6.586   6.958   4.048
 6905TIP3   OH220657   7.008   5.394   5.190
 6905TIP3    H120658   6.972   5.448   5.261
 6905TIP3    H220659   6.930   5.363   5.143
 6906TIP3   OH220660   1.267   5.237   0.146
 6906TIP3    H120661   1.297   5.285   0.069
 6906TIP3    H220662   1.232   5.305   0.204
 6907TIP3   OH220663   4.102   5.335   2.027
 6907TIP3    H120664   4.019   5.371   2.058
 6907TIP3    H220665   4.102   5.352   1.933
 6908TIP3   OH220666   5.536   1.163   0.230
 6908TIP3    H120667   5.573   1.103   0.165
 6908TIP3    H220668   5.503   1.237   0.178
 6909TIP3   OH220669   4.277   7.354   2.072
 6909TIP3    H120670   4.333   7.414   2.122
 6909TIP3    H220671   4.207   7.332   2.133
 6910TIP3   OH220672   7.883   4.808   3.359
 6910TIP3    H120673   7.811   4.759   3.398
 6910TIP3    H220674   7.843   4.888   3.327
 6911TIP3   OH220675   4.742   4.993   5.986
 6911TIP3    H120676   4.751   5.087   5.999
 6911TIP3    H220677   4.737   4.957   6.075
 6912TIP3   OH220678   7.323   6.193   3.456
 6912TIP3    H120679   7.250   6.255   3.463
 6912TIP3    H220680   7.354   6.204   3.366
 6913TIP3   OH220681   1.215   5.763   2.411
 6913TIP3    H120682   1.209   5.770   2.315
 6913TIP3    H220683   1.171   5.681   2.432
 6914TIP3   OH220684   2.653   7.317   3.785
 6914TIP3    H120685   2.589   7.285   3.722
 6914TIP3    H220686   2.702   7.384   3.738
 6915TIP3   OH220687   7.603   4.286   5.312
 6915TIP3    H120688   7.630   4.373   5.281
 6915TIP3    H220689   7.510   4.294   5.329
 6916TIP3   OH220690   6.957   5.348   3.229
 6916TIP3    H120691   7.037   5.394   3.202
 6916TIP3    H220692   6.976   5.255   3.214
 6917TIP3   OH220693   4.059   7.648   2.552
 6917TIP3    H120694   4.025   7.703   2.481
 6917TIP3    H220695   4.080   7.565   2.510
 6918TIP3   OH220696   8.290   7.342   3.396
 6918TIP3    H120697   8.233   7.293   3.456
 6918TIP3    H220698   8.243   7.341   3.313
 6919TIP3   OH220699   7.549   5.565   5.318
 6919TIP3    H120700   7.477   5.627   5.316
 6919TIP3    H220701   7.521   5.497   5.379
 6920TIP3   OH220702   6.251   6.177   1.209
 6920TIP3    H120703   6.214   6.088   1.207
 6920TIP3    H220704   6.275   6.194   1.118
 6921TIP3   OH220705   7.865   7.258   0.355
 6921TIP3    H120706   7.817   7.176   0.367
 6921TIP3    H220707   7.957   7.233   0.359
 6922TIP3   OH220708   4.760   2.785   5.623
 6922TIP3    H120709   4.849   2.766   5.595
 6922TIP3    H220710   4.706   2.725   5.571
 6923TIP3   OH220711   7.957   7.392   3.821
 6923TIP3    H120712   7.892   7.327   3.796
 6923TIP3    H220713   7.997   7.418   3.738
 6924TIP3   OH220714   7.210   5.470   0.867
 6924TIP3    H120715   7.219   5.401   0.801
 6924TIP3    H220716   7.271   5.444   0.936
 6925TIP3   OH220717   6.795   7.061   5.728
 6925TIP3    H120718   6.839   7.106   5.655
 6925TIP3    H220719   6.719   7.116   5.747
 6926TIP3   OH220720   7.076   0.850   4.895
 6926TIP3    H120721   7.076   0.821   4.987
 6926TIP3    H220722   7.164   0.833   4.864
 6927TIP3   OH220723   4.895   6.825   3.884
 6927TIP3    H120724   4.915   6.876   3.805
 6927TIP3    H220725   4.943   6.742   3.871
 6928TIP3   OH220726   1.399   4.730   0.004
 6928TIP3    H120727   1.453   4.709  -0.072
 6928TIP3    H220728   1.444   4.804   0.046
 6929TIP3   OH220729   5.571   0.991   3.294
 6929TIP3    H120730   5.659   0.969   3.325
 6929TIP3    H220731   5.514   0.979   3.370
 6930TIP3   OH220732   0.480   2.805   2.121
 6930TIP3    H120733   0.565   2.836   2.089
 6930TIP3    H220734   0.429   2.885   2.133
 6931TIP3   OH220735   0.697   5.233   0.406
 6931TIP3    H120736   0.747   5.286   0.344
 6931TIP3    H220737   0.723   5.266   0.492
 6932TIP3   OH220738   4.246   1.878   6.747
 6932TIP3    H120739   4.167   1.932   6.752
 6932TIP3    H220740   4.228   1.816   6.677
 6933TIP3   OH220741   1.584   2.331   0.299
 6933TIP3    H120742   1.647   2.398   0.326
 6933TIP3    H220743   1.610   2.308   0.210
 6934TIP3   OH220744   6.582   4.853   2.502
 6934TIP3    H120745   6.656   4.889   2.550
 6934TIP3    H220746   6.618   4.828   2.417
 6935TIP3   OH220747   3.301   0.007   4.863
 6935TIP3    H120748   3.287  -0.030   4.776
 6935TIP3    H220749   3.264   0.095   4.859
 6936TIP3   OH220750   5.314   3.448   4.014
 6936TIP3    H120751   5.251   3.499   4.063
 6936TIP3    H220752   5.321   3.365   4.061
 6937TIP3   OH220753   7.989   1.654   2.663
 6937TIP3    H120754   7.946   1.571   2.686
 6937TIP3    H220755   7.993   1.653   2.567
 6938TIP3   OH220756   2.220   4.905   3.466
 6938TIP3    H120757   2.313   4.884   3.450
 6938TIP3    H220758   2.176   4.881   3.384
 6939TIP3   OH220759   2.169   0.351   4.716
 6939TIP3    H120760   2.232   0.423   4.721
 6939TIP3    H220761   2.097   0.385   4.665
 6940TIP3   OH220762   0.831   0.141   4.110
 6940TIP3    H120763   0.821   0.084   4.186
 6940TIP3    H220764   0.752   0.127   4.059
 6941TIP3   OH220765   0.086   5.606   5.650
 6941TIP3    H120766   0.062   5.553   5.726
 6941TIP3    H220767   0.032   5.572   5.579
 6942TIP3   OH220768   5.831   4.980   2.480
 6942TIP3    H120769   5.835   4.953   2.571
 6942TIP3    H220770   5.796   4.904   2.433
 6943TIP3   OH220771   1.573   4.543   5.835
 6943TIP3    H120772   1.646   4.604   5.819
 6943TIP3    H220773   1.603   4.489   5.909
 6944TIP3   OH220774   0.548   6.183   0.752
 6944TIP3    H120775   0.617   6.239   0.788
 6944TIP3    H220776   0.483   6.244   0.718
 6945TIP3   OH220777   5.870   0.107   5.219
 6945TIP3    H120778   5.918   0.185   5.192
 6945TIP3    H220779   5.782   0.119   5.184
 6946TIP3   OH220780   3.379   2.619   5.660
 6946TIP3    H120781   3.444   2.565   5.616
 6946TIP3    H220782   3.362   2.692   5.601
 6947TIP3   OH220783   0.338   5.511   1.840
 6947TIP3    H120784   0.395   5.585   1.862
 6947TIP3    H220785   0.274   5.547   1.778
 6948TIP3   OH220786   0.457   2.109   1.432
 6948TIP3    H120787   0.395   2.060   1.486
 6948TIP3    H220788   0.410   2.126   1.350
 6949TIP3   OH220789   8.060   3.326   1.052
 6949TIP3    H120790   7.966   3.328   1.034
 6949TIP3    H220791   8.084   3.234   1.042
 6950TIP3   OH220792   3.932   0.191   3.769
 6950TIP3    H120793   3.839   0.167   3.769
 6950TIP3    H220794   3.952   0.203   3.676
 6951TIP3   OH220795   7.035   2.568   0.667
 6951TIP3    H120796   6.955   2.618   0.653
 6951TIP3    H220797   7.094   2.598   0.597
 6952TIP3   OH220798   5.537   6.104   5.995
 6952TIP3    H120799   5.557   6.120   5.902
 6952TIP3    H220800   5.603   6.155   6.042
 6953TIP3   OH220801   4.538   7.583   0.387
 6953TIP3    H120802   4.550   7.538   0.303
 6953TIP3    H220803   4.621   7.628   0.402
 6954TIP3   OH220804   5.873   2.523   4.538
 6954TIP3    H120805   5.866   2.616   4.563
 6954TIP3    H220806   5.937   2.487   4.599
 6955TIP3   OH220807  -0.028   0.496   3.790
 6955TIP3    H120808  -0.018   0.586   3.820
 6955TIP3    H220809   0.017   0.494   3.706
 6956TIP3   OH220810   0.931   5.956   4.428
 6956TIP3    H120811   0.849   5.947   4.475
 6956TIP3    H220812   0.924   6.040   4.382
 6957TIP3   OH220813   7.524   0.233   3.851
 6957TIP3    H120814   7.617   0.217   3.838
 6957TIP3    H220815   7.481   0.159   3.807
 6958TIP3   OH220816   3.811   3.814   3.646
 6958TIP3    H120817   3.819   3.817   3.550
 6958TIP3    H220818   3.726   3.774   3.662
 6959TIP3   OH220819   4.424   1.119   4.157
 6959TIP3    H120820   4.341   1.076   4.175
 6959TIP3    H220821   4.428   1.192   4.219
 6960TIP3   OH220822   4.484   2.186   1.684
 6960TIP3    H120823   4.504   2.219   1.597
 6960TIP3    H220824   4.500   2.260   1.742
 6961TIP3   OH220825   6.397   5.569   0.779
 6961TIP3    H120826   6.351   5.627   0.839
 6961TIP3    H220827   6.340   5.564   0.702
 6962TIP3   OH220828   7.149   0.754   3.460
 6962TIP3    H120829   7.185   0.666   3.448
 6962TIP3    H220830   7.099   0.770   3.380
 6963TIP3   OH220831   6.830   7.069   5.184
 6963TIP3    H120832   6.803   7.158   5.165
 6963TIP3    H220833   6.759   7.032   5.236
 6964TIP3   OH220834   2.796   3.331   3.917
 6964TIP3    H120835   2.848   3.333   3.997
 6964TIP3    H220836   2.823   3.410   3.869
 6965TIP3   OH220837   3.589   7.519   6.605
 6965TIP3    H120838   3.596   7.428   6.575
 6965TIP3    H220839   3.562   7.567   6.527
 6966TIP3   OH220840   2.835   0.067   0.237
 6966TIP3    H120841   2.866   0.153   0.266
 6966TIP3    H220842   2.902   0.037   0.176
 6967TIP3   OH220843   0.531   2.271   0.581
 6967TIP3    H120844   0.581   2.331   0.637
 6967TIP3    H220845   0.590   2.252   0.508
 6968TIP3   OH220846   2.683   2.728   0.072
 6968TIP3    H120847   2.755   2.692   0.125
 6968TIP3    H220848   2.647   2.651   0.027
 6969TIP3   OH220849   2.182   2.324   2.002
 6969TIP3    H120850   2.115   2.306   2.068
 6969TIP3    H220851   2.221   2.239   1.983
 6970TIP3   OH220852   2.155   0.856   1.184
 6970TIP3    H120853   2.242   0.827   1.213
 6970TIP3    H220854   2.158   0.951   1.193
 6971TIP3   OH220855   5.439   3.639   4.389
 6971TIP3    H120856   5.370   3.693   4.428
 6971TIP3    H220857   5.393   3.562   4.356
 6972TIP3   OH220858   6.366   4.342   0.129
 6972TIP3    H120859   6.394   4.290   0.053
 6972TIP3    H220860   6.271   4.345   0.122
 6973TIP3   OH220861   7.170   5.754   2.872
 6973TIP3    H120862   7.187   5.820   2.805
 6973TIP3    H220863   7.100   5.791   2.926
 6974TIP3   OH220864   7.892   6.224   4.743
 6974TIP3    H120865   7.902   6.232   4.648
 6974TIP3    H220866   7.971   6.263   4.779
 6975TIP3   OH220867   2.378   0.201   2.347
 6975TIP3    H120868   2.449   0.161   2.297
 6975TIP3    H220869   2.389   0.295   2.333
 6976TIP3   OH220870   0.692   7.040   4.461
 6976TIP3    H120871   0.755   7.103   4.425
 6976TIP3    H220872   0.617   7.093   4.487
 6977TIP3   OH220873   5.060   6.992   3.062
 6977TIP3    H120874   5.046   6.904   3.097
 6977TIP3    H220875   5.113   7.035   3.129
 6978TIP3   OH220876   2.416   3.109   3.388
 6978TIP3    H120877   2.500   3.153   3.402
 6978TIP3    H220878   2.365   3.169   3.335
 6979TIP3   OH220879   5.793   0.774   1.955
 6979TIP3    H120880   5.733   0.836   1.997
 6979TIP3    H220881   5.880   0.806   1.976
 6980TIP3   OH220882   6.141   0.876   4.740
 6980TIP3    H120883   6.063   0.865   4.686
 6980TIP3    H220884   6.213   0.848   4.683
 6981TIP3   OH220885   2.657   0.899   2.579
 6981TIP3    H120886   2.567   0.926   2.559
 6981TIP3    H220887   2.691   0.863   2.497
 6982TIP3   OH220888   3.861   5.551   6.285
 6982TIP3    H120889   3.954   5.559   6.309
 6982TIP3    H220890   3.815   5.564   6.368
 6983TIP3   OH220891   5.573   5.512   5.960
 6983TIP3    H120892   5.596   5.605   5.961
 6983TIP3    H220893   5.628   5.474   6.029
 6984TIP3   OH220894   4.764   6.357   2.934
 6984TIP3    H120895   4.670   6.351   2.917
 6984TIP3    H220896   4.778   6.301   3.010
 6985TIP3   OH220897   2.698   4.925   0.254
 6985TIP3    H120898   2.639   4.852   0.236
 6985TIP3    H220899   2.670   4.958   0.340
 6986TIP3   OH220900   7.384   0.063   2.353
 6986TIP3    H120901   7.370   0.070   2.447
 6986TIP3    H220902   7.412  -0.028   2.340
 6987TIP3   OH220903   5.262   6.764   0.963
 6987TIP3    H120904   5.281   6.769   1.056
 6987TIP3    H220905   5.197   6.694   0.956
 6988TIP3   OH220906   4.368   2.292   4.223
 6988TIP3    H120907   4.300   2.257   4.165
 6988TIP3    H220908   4.410   2.361   4.171
 6989TIP3   OH220909   2.756   0.452   4.660
 6989TIP3    H120910   2.674   0.430   4.617
 6989TIP3    H220911   2.799   0.368   4.675
 6990TIP3   OH220912   1.262   0.542   4.756
 6990TIP3    H120913   1.286   0.463   4.707
 6990TIP3    H220914   1.317   0.611   4.720
 6991TIP3   OH220915   6.690   3.141   2.875
 6991TIP3    H120916   6.645   3.064   2.841
 6991TIP3    H220917   6.776   3.109   2.902
 6992TIP3   OH220918   7.056   0.572   5.440
 6992TIP3    H120919   7.150   0.563   5.423
 6992TIP3    H220920   7.017   0.497   5.395
 6993TIP3   OH220921   6.714   1.602   2.790
 6993TIP3    H120922   6.800   1.593   2.749
 6993TIP3    H220923   6.655   1.553   2.733
 6994TIP3   OH220924   3.058   1.632   4.131
 6994TIP3    H120925   3.085   1.701   4.070
 6994TIP3    H220926   3.139   1.608   4.176
 6995TIP3   OH220927   6.043   1.330   2.324
 6995TIP3    H120928   6.138   1.316   2.321
 6995TIP3    H220929   6.032   1.424   2.309
 6996TIP3   OH220930   0.839   5.828   2.194
 6996TIP3    H120931   0.829   5.918   2.161
 6996TIP3    H220932   0.917   5.831   2.249
 6997TIP3   OH220933   7.493   2.522   0.490
 6997TIP3    H120934   7.479   2.428   0.483
 6997TIP3    H220935   7.531   2.534   0.577
 6998TIP3   OH220936   5.049   1.052   3.256
 6998TIP3    H120937   5.091   1.031   3.173
 6998TIP3    H220938   5.100   1.124   3.292
 6999TIP3   OH220939   6.391   2.007   2.272
 6999TIP3    H120940   6.422   2.030   2.360
 6999TIP3    H220941   6.452   2.052   2.213
 7000TIP3   OH220942   1.383   4.173   4.969
 7000TIP3    H120943   1.458   4.231   4.962
 7000TIP3    H220944   1.418   4.086   4.949
 7001TIP3   OH220945   5.109   0.688   6.672
 7001TIP3    H120946   5.161   0.688   6.592
 7001TIP3    H220947   5.083   0.596   6.684
 7002TIP3   OH220948   0.238   7.157   3.713
 7002TIP3    H120949   0.229   7.248   3.686
 7002TIP3    H220950   0.331   7.137   3.697
 7003TIP3   OH220951   2.684   0.738   2.348
 7003TIP3    H120952   2.612   0.724   2.286
 7003TIP3    H220953   2.739   0.805   2.305
 7004TIP3   OH220954   2.009   4.450   0.284
 7004TIP3    H120955   1.922   4.464   0.322
 7004TIP3    H220956   2.014   4.512   0.212
 7005TIP3   OH220957   1.487   3.834   4.531
 7005TIP3    H120958   1.482   3.791   4.446
 7005TIP3    H220959   1.581   3.837   4.551
 7006TIP3   OH220960   2.847   5.312   6.071
 7006TIP3    H120961   2.813   5.231   6.110
 7006TIP3    H220962   2.776   5.343   6.013
 7007TIP3   OH220963   7.587   7.724   4.794
 7007TIP3    H120964   7.594   7.818   4.813
 7007TIP3    H220965   7.569   7.683   4.878
 7008TIP3   OH220966   7.838   4.702   6.335
 7008TIP3    H120967   7.892   4.641   6.285
 7008TIP3    H220968   7.752   4.698   6.294
 7009TIP3   OH220969   4.176   2.019   5.334
 7009TIP3    H120970   4.263   2.036   5.369
 7009TIP3    H220971   4.186   1.939   5.283
 7010TIP3   OH220972   3.240   1.088   3.457
 7010TIP3    H120973   3.220   1.040   3.377
 7010TIP3    H220974   3.171   1.063   3.518
 7011TIP3   OH220975   4.541   2.899   2.405
 7011TIP3    H120976   4.604   2.925   2.472
 7011TIP3    H220977   4.476   2.969   2.405
 7012TIP3   OH220978   6.737   4.657   5.349
 7012TIP3    H120979   6.707   4.660   5.259
 7012TIP3    H220980   6.712   4.742   5.386
 7013TIP3   OH220981   5.307   3.692   1.846
 7013TIP3    H120982   5.258   3.644   1.779
 7013TIP3    H220983   5.288   3.645   1.928
 7014TIP3   OH220984   6.929   6.145   1.405
 7014TIP3    H120985   6.881   6.227   1.415
 7014TIP3    H220986   6.870   6.078   1.440
 7015TIP3   OH220987   4.960   3.565   6.078
 7015TIP3    H120988   4.931   3.558   5.987
 7015TIP3    H220989   4.908   3.500   6.124
 7016TIP3   OH220990   1.365   7.147   0.412
 7016TIP3    H120991   1.300   7.187   0.470
 7016TIP3    H220992   1.371   7.056   0.441
 7017TIP3   OH220993   0.996   0.059   2.409
 7017TIP3    H120994   1.021   0.132   2.352
 7017TIP3    H220995   1.043  -0.016   2.374
 7018TIP3   OH220996   5.700   1.349   0.855
 7018TIP3    H120997   5.698   1.253   0.861
 7018TIP3    H220998   5.768   1.368   0.790
 7019TIP3   OH220999   0.663   7.034   0.865
 7019TIP3    H121000   0.706   6.994   0.789
 7019TIP3    H221001   0.602   6.967   0.897
 7020TIP3   OH221002   7.783   6.842   6.379
 7020TIP3    H121003   7.721   6.780   6.417
 7020TIP3    H221004   7.769   6.833   6.284
 7021TIP3   OH221005  -0.062   6.924   1.392
 7021TIP3    H121006  -0.029   6.855   1.334
 7021TIP3    H221007   0.012   6.983   1.404
 7022TIP3   OH221008   3.686   4.640   0.194
 7022TIP3    H121009   3.776   4.640   0.227
 7022TIP3    H221010   3.669   4.731   0.171
 7023TIP3   OH221011   4.381   4.938   6.159
 7023TIP3    H121012   4.364   4.932   6.065
 7023TIP3    H221013   4.474   4.962   6.165
 7024TIP3   OH221014   5.342   3.346   0.613
 7024TIP3    H121015   5.284   3.300   0.552
 7024TIP3    H221016   5.338   3.294   0.693
 7025TIP3   OH221017   7.403   3.045   6.553
 7025TIP3    H121018   7.436   3.016   6.638
 7025TIP3    H221019   7.477   3.093   6.514
 7026TIP3   OH221020   5.162   1.570   2.608
 7026TIP3    H121021   5.201   1.499   2.659
 7026TIP3    H221022   5.145   1.639   2.671
 7027TIP3   OH221023   4.359   5.261   6.500
 7027TIP3    H121024   4.406   5.313   6.435
 7027TIP3    H221025   4.420   5.253   6.573
 7028TIP3   OH221026   6.283   4.947   4.793
 7028TIP3    H121027   6.254   5.035   4.770
 7028TIP3    H221028   6.263   4.938   4.887
 7029TIP3   OH221029   5.677   1.884   4.971
 7029TIP3    H121030   5.623   1.942   5.024
 7029TIP3    H221031   5.684   1.928   4.886
 7030TIP3   OH221032   1.480   3.863   1.711
 7030TIP3    H121033   1.548   3.907   1.660
 7030TIP3    H221034   1.425   3.934   1.744
 7031TIP3   OH221035   0.278   7.000   5.682
 7031TIP3    H121036   0.314   6.969   5.765
 7031TIP3    H221037   0.347   6.981   5.618
 7032TIP3   OH221038   6.824   0.515   1.430
 7032TIP3    H121039   6.865   0.452   1.489
 7032TIP3    H221040   6.739   0.477   1.409
 7033TIP3   OH221041   4.779   2.129   3.614
 7033TIP3    H121042   4.790   2.208   3.667
 7033TIP3    H221043   4.826   2.061   3.661
 7034TIP3   OH221044   0.395   7.159   4.484
 7034TIP3    H121045   0.348   7.146   4.402
 7034TIP3    H221046   0.369   7.247   4.513
 7035TIP3   OH221047   0.147   1.459   6.623
 7035TIP3    H121048   0.137   1.553   6.631
 7035TIP3    H221049   0.065   1.423   6.655
 7036TIP3   OH221050   5.592   5.822   0.782
 7036TIP3    H121051   5.664   5.811   0.719
 7036TIP3    H221052   5.517   5.779   0.740
 7037TIP3   OH221053   0.280   2.992   2.056
 7037TIP3    H121054   0.206   3.040   2.021
 7037TIP3    H221055   0.285   2.912   2.003
 7038TIP3   OH221056   4.254   1.519   0.452
 7038TIP3    H121057   4.169   1.556   0.428
 7038TIP3    H221058   4.249   1.507   0.547
 7039TIP3   OH221059   2.800   6.807   2.723
 7039TIP3    H121060   2.833   6.764   2.645
 7039TIP3    H221061   2.825   6.749   2.795
 7040TIP3   OH221062   7.230   5.915   5.888
 7040TIP3    H121063   7.148   5.867   5.878
 7040TIP3    H221064   7.296   5.847   5.900
 7041TIP3   OH221065   2.316   6.834   1.092
 7041TIP3    H121066   2.342   6.828   1.183
 7041TIP3    H221067   2.275   6.920   1.084
 7042TIP3   OH221068   5.512   4.760   0.505
 7042TIP3    H121069   5.554   4.674   0.506
 7042TIP3    H221070   5.489   4.776   0.597
 7043TIP3   OH221071   3.085   6.267   0.871
 7043TIP3    H121072   3.027   6.191   0.864
 7043TIP3    H221073   3.072   6.299   0.960
 7044TIP3   OH221074   1.068   6.472   5.248
 7044TIP3    H121075   0.995   6.533   5.258
 7044TIP3    H221076   1.044   6.397   5.301
 7045TIP3   OH221077   7.166   5.166   5.421
 7045TIP3    H121078   7.195   5.163   5.330
 7045TIP3    H221079   7.144   5.258   5.436
 7046TIP3   OH221080   0.718   1.269   5.630
 7046TIP3    H121081   0.664   1.234   5.700
 7046TIP3    H221082   0.748   1.192   5.582
 7047TIP3   OH221083   5.583   3.566   0.665
 7047TIP3    H121084   5.627   3.620   0.601
 7047TIP3    H221085   5.532   3.503   0.614
 7048TIP3   OH221086   0.577   7.763   5.817
 7048TIP3    H121087   0.608   7.852   5.832
 7048TIP3    H221088   0.648   7.720   5.770
 7049TIP3   OH221089   5.366   7.563   2.642
 7049TIP3    H121090   5.368   7.653   2.675
 7049TIP3    H221091   5.383   7.509   2.719
 7050TIP3   OH221092   7.937   4.550   6.083
 7050TIP3    H121093   7.876   4.477   6.082
 7050TIP3    H221094   8.022   4.510   6.065
 7051TIP3   OH221095   1.639   0.712   3.522
 7051TIP3    H121096   1.549   0.683   3.537
 7051TIP3    H221097   1.688   0.631   3.509
 7052TIP3   OH221098   0.457   1.297   2.953
 7052TIP3    H121099   0.412   1.369   2.910
 7052TIP3    H221100   0.394   1.225   2.953
 7053TIP3   OH221101   1.270   3.964   0.640
 7053TIP3    H121102   1.258   3.881   0.594
 7053TIP3    H221103   1.281   3.939   0.732
 7054TIP3   OH221104   2.320   0.063   2.846
 7054TIP3    H121105   2.353   0.051   2.757
 7054TIP3    H221106   2.341   0.154   2.867
 7055TIP3   OH221107   7.129   4.728   2.130
 7055TIP3    H121108   7.099   4.818   2.122
 7055TIP3    H221109   7.126   4.693   2.041
 7056TIP3   OH221110   2.480   6.150   6.293
 7056TIP3    H121111   2.531   6.230   6.307
 7056TIP3    H221112   2.528   6.083   6.341
 7057TIP3   OH221113   1.648   4.113   4.929
 7057TIP3    H121114   1.720   4.098   4.990
 7057TIP3    H221115   1.598   4.032   4.930
 7058TIP3   OH221116   8.111   5.306   4.186
 7058TIP3    H121117   8.159   5.274   4.263
 7058TIP3    H221118   8.019   5.296   4.210
 7059TIP3   OH221119   0.262   5.499   5.375
 7059TIP3    H121120   0.257   5.585   5.418
 7059TIP3    H221121   0.276   5.437   5.446
 7060TIP3   OH221122   1.918   3.054   6.658
 7060TIP3    H121123   1.836   3.008   6.676
 7060TIP3    H221124   1.982   3.015   6.718
 7061TIP3   OH221125   5.558   2.542   0.036
 7061TIP3    H121126   5.622   2.602   0.074
 7061TIP3    H221127   5.541   2.478   0.106
 7062TIP3   OH221128   3.767   3.411   4.783
 7062TIP3    H121129   3.745   3.433   4.874
 7062TIP3    H221130   3.850   3.365   4.789
 7063TIP3   OH221131   4.010   7.643   6.495
 7063TIP3    H121132   3.972   7.588   6.427
 7063TIP3    H221133   4.048   7.581   6.558
 7064TIP3   OH221134   0.766   2.265   3.032
 7064TIP3    H121135   0.836   2.248   2.970
 7064TIP3    H221136   0.807   2.316   3.102
 7065TIP3   OH221137   3.400   2.468   4.319
 7065TIP3    H121138   3.446   2.411   4.258
 7065TIP3    H221139   3.466   2.490   4.385
 7066TIP3   OH221140   1.348   4.307   5.568
 7066TIP3    H121141   1.257   4.335   5.577
 7066TIP3    H221142   1.352   4.225   5.618
 7067TIP3   OH221143   8.237   4.784   4.884
 7067TIP3    H121144   8.158   4.835   4.867
 7067TIP3    H221145   8.273   4.766   4.797
 7068TIP3   OH221146   1.605   1.577   1.150
 7068TIP3    H121147   1.534   1.582   1.086
 7068TIP3    H221148   1.635   1.487   1.146
 7069TIP3   OH221149   3.832   3.302  -0.021
 7069TIP3    H121150   3.819   3.310   0.074
 7069TIP3    H221151   3.793   3.381  -0.057
 7070TIP3   OH221152   1.468   4.688   0.989
 7070TIP3    H121153   1.490   4.771   0.946
 7070TIP3    H221154   1.387   4.706   1.036
 7071TIP3   OH221155   1.809   3.734   0.190
 7071TIP3    H121156   1.876   3.802   0.195
 7071TIP3    H221157   1.830   3.685   0.110
 7072TIP3   OH221158   4.914   4.611   5.722
 7072TIP3    H121159   4.840   4.562   5.758
 7072TIP3    H221160   4.955   4.652   5.799
 7073TIP3   OH221161   0.180   3.996   6.476
 7073TIP3    H121162   0.146   4.004   6.386
 7073TIP3    H221163   0.109   3.952   6.523
 7074TIP3   OH221164   6.506   7.721   6.363
 7074TIP3    H121165   6.525   7.629   6.382
 7074TIP3    H221166   6.479   7.757   6.447
 7075TIP3   OH221167   4.579   6.376   4.826
 7075TIP3    H121168   4.548   6.291   4.794
 7075TIP3    H221169   4.505   6.436   4.810
 7076TIP3   OH221170   4.321   2.557   1.656
 7076TIP3    H121171   4.311   2.529   1.747
 7076TIP3    H221172   4.326   2.652   1.660
 7077TIP3   OH221173   1.328   4.325   1.248
 7077TIP3    H121174   1.416   4.354   1.273
 7077TIP3    H221175   1.295   4.279   1.326
 7078TIP3   OH221176   7.587   5.073   4.465
 7078TIP3    H121177   7.644   5.113   4.400
 7078TIP3    H221178   7.515   5.136   4.476
 7079TIP3   OH221179   6.983   7.442   3.706
 7079TIP3    H121180   6.981   7.396   3.621
 7079TIP3    H221181   6.948   7.528   3.686
 7080TIP3   OH221182   4.336   2.917   4.522
 7080TIP3    H121183   4.416   2.966   4.543
 7080TIP3    H221184   4.279   2.982   4.481
 7081TIP3   OH221185   3.638   1.968   2.300
 7081TIP3    H121186   3.647   2.037   2.366
 7081TIP3    H221187   3.728   1.945   2.277
 7082TIP3   OH221188   7.270   0.912   1.052
 7082TIP3    H121189   7.280   0.844   1.119
 7082TIP3    H221190   7.269   0.994   1.102
 7083TIP3   OH221191   1.849   3.356   4.812
 7083TIP3    H121192   1.890   3.423   4.758
 7083TIP3    H221193   1.811   3.404   4.885
 7084TIP3   OH221194   1.431   2.982   0.824
 7084TIP3    H121195   1.356   2.998   0.765
 7084TIP3    H221196   1.448   2.888   0.814
 7085TIP3   OH221197   0.298   3.690   5.094
 7085TIP3    H121198   0.318   3.743   5.170
 7085TIP3    H221199   0.202   3.682   5.094
 7086TIP3   OH221200   0.975   0.477   4.230
 7086TIP3    H121201   0.977   0.492   4.324
 7086TIP3    H221202   0.895   0.521   4.200
 7087TIP3   OH221203   7.209   2.197   4.212
 7087TIP3    H121204   7.246   2.237   4.134
 7087TIP3    H221205   7.278   2.203   4.278
 7088TIP3   OH221206   1.397   6.873   1.292
 7088TIP3    H121207   1.467   6.935   1.315
 7088TIP3    H221208   1.322   6.901   1.345
 7089TIP3   OH221209   7.533   6.914   5.157
 7089TIP3    H121210   7.461   6.945   5.211
 7089TIP3    H221211   7.611   6.931   5.209
 7090TIP3   OH221212   0.078   0.084   0.836
 7090TIP3    H121213   0.139   0.119   0.901
 7090TIP3    H221214  -0.004   0.072   0.884
 7091TIP3   OH221215   2.545   2.883   1.445
 7091TIP3    H121216   2.531   2.794   1.413
 7091TIP3    H221217   2.639   2.886   1.464
 7092TIP3   OH221218   8.286   3.290   2.759
 7092TIP3    H121219   8.198   3.321   2.783
 7092TIP3    H221220   8.341   3.368   2.766
 7093TIP3   OH221221   1.974   7.835   3.773
 7093TIP3    H121222   2.040   7.777   3.811
 7093TIP3    H221223   1.978   7.819   3.679
 7094TIP3   OH221224   7.906   5.470   6.112
 7094TIP3    H121225   7.906   5.488   6.018
 7094TIP3    H221226   7.921   5.555   6.153
 7095TIP3   OH221227   0.480   2.844   6.407
 7095TIP3    H121228   0.436   2.832   6.323
 7095TIP3    H221229   0.418   2.893   6.461
 7096TIP3   OH221230   0.941   1.614   2.587
 7096TIP3    H121231   0.874   1.657   2.640
 7096TIP3    H221232   0.932   1.521   2.607
 7097TIP3   OH221233   8.164   5.822   6.636
 7097TIP3    H121234   8.162   5.839   6.731
 7097TIP3    H221235   8.097   5.756   6.622
 7098TIP3   OH221236   5.575  -0.012   5.720
 7098TIP3    H121237   5.498  -0.058   5.686
 7098TIP3    H221238   5.613   0.029   5.642
 7099TIP3   OH221239   8.152   4.353   0.559
 7099TIP3    H121240   8.210   4.407   0.505
 7099TIP3    H221241   8.070   4.402   0.563
 7100TIP3   OH221242   5.978   7.253   1.041
 7100TIP3    H121243   6.050   7.236   0.980
 7100TIP3    H221244   5.914   7.302   0.990
 7101TIP3   OH221245   8.176   1.028   0.126
 7101TIP3    H121246   8.176   0.936   0.150
 7101TIP3    H221247   8.253   1.039   0.071
 7102TIP3   OH221248   1.058   2.510   2.581
 7102TIP3    H121249   1.147   2.492   2.550
 7102TIP3    H221250   1.069   2.574   2.651
 7103TIP3   OH221251   1.893   5.212   4.059
 7103TIP3    H121252   1.955   5.181   3.993
 7103TIP3    H221253   1.900   5.149   4.131
 7104TIP3   OH221254   1.537   7.483   6.181
 7104TIP3    H121255   1.500   7.396   6.165
 7104TIP3    H221256   1.557   7.483   6.275
 7105TIP3   OH221257   8.230   3.907   2.398
 7105TIP3    H121258   8.254   3.914   2.305
 7105TIP3    H221259   8.176   3.985   2.414
 7106TIP3   OH221260   6.660   2.256   5.055
 7106TIP3    H121261   6.677   2.330   4.996
 7106TIP3    H221262   6.658   2.295   5.143
 7107TIP3   OH221263   4.440   5.395   4.460
 7107TIP3    H121264   4.391   5.464   4.414
 7107TIP3    H221265   4.378   5.361   4.525
 7108TIP3   OH221266   6.615   5.283   0.160
 7108TIP3    H121267   6.529   5.321   0.140
 7108TIP3    H221268   6.633   5.311   0.250
 7109TIP3   OH221269   2.315   2.397   5.537
 7109TIP3    H121270   2.249   2.444   5.485
 7109TIP3    H221271   2.313   2.440   5.622
 7110TIP3   OH221272   2.527   5.998   6.574
 7110TIP3    H121273   2.445   5.990   6.525
 7110TIP3    H221274   2.517   6.078   6.625
 7111TIP3   OH221275   5.364   2.342   5.593
 7111TIP3    H121276   5.393   2.408   5.655
 7111TIP3    H221277   5.441   2.323   5.539
 7112TIP3   OH221278   4.609   1.640   5.764
 7112TIP3    H121279   4.531   1.592   5.737
 7112TIP3    H221280   4.576   1.721   5.803
 7113TIP3   OH221281   1.719   1.114   6.581
 7113TIP3    H121282   1.744   1.178   6.648
 7113TIP3    H221283   1.696   1.036   6.631
 7114TIP3   OH221284   1.196   6.192   0.991
 7114TIP3    H121285   1.110   6.162   1.020
 7114TIP3    H221286   1.197   6.285   1.011
 7115TIP3   OH221287   5.020   2.983   1.643
 7115TIP3    H121288   5.002   2.915   1.708
 7115TIP3    H221289   5.074   3.047   1.689
 7116TIP3   OH221290   2.085   5.345   6.684
 7116TIP3    H121291   1.995   5.328   6.656
 7116TIP3    H221292   2.097   5.288   6.761
 7117TIP3   OH221293   3.461   3.917   2.678
 7117TIP3    H121294   3.373   3.936   2.648
 7117TIP3    H221295   3.454   3.833   2.723
 7118TIP3   OH221296   7.273   0.760   4.081
 7118TIP3    H121297   7.327   0.749   4.003
 7118TIP3    H221298   7.330   0.807   4.143
 7119TIP3   OH221299   2.764   5.192   0.828
 7119TIP3    H121300   2.705   5.197   0.903
 7119TIP3    H221301   2.831   5.129   0.854
 7120TIP3   OH221302   1.353   4.859   4.903
 7120TIP3    H121303   1.348   4.901   4.989
 7120TIP3    H221304   1.436   4.812   4.903
 7121TIP3   OH221305   4.736   4.440   2.725
 7121TIP3    H121306   4.814   4.392   2.754
 7121TIP3    H221307   4.702   4.480   2.805
 7122TIP3   OH221308   0.724   7.276   1.445
 7122TIP3    H121309   0.749   7.188   1.415
 7122TIP3    H221310   0.688   7.261   1.532
 7123TIP3   OH221311   5.090   3.325   2.760
 7123TIP3    H121312   5.086   3.231   2.777
 7123TIP3    H221313   5.124   3.364   2.840
 7124TIP3   OH221314   4.613   1.353   1.176
 7124TIP3    H121315   4.623   1.273   1.227
 7124TIP3    H221316   4.625   1.325   1.085
 7125TIP3   OH221317   5.151   3.853   5.282
 7125TIP3    H121318   5.087   3.917   5.251
 7125TIP3    H221319   5.233   3.901   5.286
 7126TIP3   OH221320   0.539   6.523   3.487
 7126TIP3    H121321   0.605   6.507   3.555
 7126TIP3    H221322   0.502   6.608   3.510
 7127TIP3   OH221323   3.551   3.917   3.502
 7127TIP3    H121324   3.507   3.944   3.422
 7127TIP3    H221325   3.598   3.837   3.478
 7128TIP3   OH221326   4.722   5.068   6.383
 7128TIP3    H121327   4.698   4.996   6.325
 7128TIP3    H221328   4.706   5.147   6.331
 7129TIP3   OH221329   4.272   0.991   4.793
 7129TIP3    H121330   4.309   1.069   4.750
 7129TIP3    H221331   4.191   1.022   4.832
 7130TIP3   OH221332   7.911   5.067   2.508
 7130TIP3    H121333   7.832   5.026   2.544
 7130TIP3    H221334   7.959   5.096   2.585
 7131TIP3   OH221335   3.772   4.658   2.920
 7131TIP3    H121336   3.776   4.674   2.826
 7131TIP3    H221337   3.863   4.646   2.947
 7132TIP3   OH221338   3.423   3.726   1.494
 7132TIP3    H121339   3.337   3.691   1.518
 7132TIP3    H221340   3.478   3.648   1.480
 7133TIP3   OH221341   1.244   2.248   2.849
 7133TIP3    H121342   1.280   2.207   2.928
 7133TIP3    H221343   1.314   2.242   2.785
 7134TIP3   OH221344   6.050   2.299   3.244
 7134TIP3    H121345   6.128   2.328   3.292
 7134TIP3    H221346   6.082   2.231   3.185
 7135TIP3   OH221347   1.779   1.201   2.208
 7135TIP3    H121348   1.728   1.210   2.127
 7135TIP3    H221349   1.784   1.289   2.243
 7136TIP3   OH221350   1.371   3.818   3.986
 7136TIP3    H121351   1.360   3.728   4.016
 7136TIP3    H221352   1.312   3.825   3.910
 7137TIP3   OH221353   7.506   4.616   3.747
 7137TIP3    H121354   7.459   4.699   3.756
 7137TIP3    H221355   7.503   4.577   3.835
 7138TIP3   OH221356   8.130   4.506   4.755
 7138TIP3    H121357   8.121   4.411   4.741
 7138TIP3    H221358   8.105   4.518   4.847
 7139TIP3   OH221359   7.846   3.730   4.026
 7139TIP3    H121360   7.787   3.788   3.978
 7139TIP3    H221361   7.916   3.787   4.057
 7140TIP3   OH221362   5.616   5.555   3.079
 7140TIP3    H121363   5.694   5.602   3.048
 7140TIP3    H221364   5.622   5.561   3.174
 7141TIP3   OH221365   4.570   1.330   0.187
 7141TIP3    H121366   4.541   1.403   0.243
 7141TIP3    H221367   4.660   1.352   0.164
 7142TIP3   OH221368   4.240   2.690   0.970
 7142TIP3    H121369   4.169   2.713   1.030
 7142TIP3    H221370   4.320   2.707   1.019
 7143TIP3   OH221371   1.701   0.282   5.695
 7143TIP3    H121372   1.693   0.187   5.686
 7143TIP3    H221373   1.627   0.307   5.751
 7144TIP3   OH221374   2.592   6.379   4.754
 7144TIP3    H121375   2.609   6.432   4.832
 7144TIP3    H221376   2.578   6.291   4.786
 7145TIP3   OH221377   6.276   3.235   1.522
 7145TIP3    H121378   6.194   3.272   1.555
 7145TIP3    H221379   6.344   3.289   1.561
 7146TIP3   OH221380   0.916   4.972   0.857
 7146TIP3    H121381   0.997   4.936   0.822
 7146TIP3    H221382   0.848   4.910   0.829
 7147TIP3   OH221383   3.577   3.854   4.022
 7147TIP3    H121384   3.542   3.908   4.094
 7147TIP3    H221385   3.623   3.782   4.066
 7148TIP3   OH221386   1.140   0.531   2.780
 7148TIP3    H121387   1.176   0.518   2.692
 7148TIP3    H221388   1.208   0.580   2.826
 7149TIP3   OH221389   4.190   1.870   2.210
 7149TIP3    H121390   4.223   1.784   2.235
 7149TIP3    H221391   4.265   1.929   2.217
 7150TIP3   OH221392   3.573   1.629   4.470
 7150TIP3    H121393   3.580   1.670   4.384
 7150TIP3    H221394   3.562   1.536   4.451
 7151TIP3   OH221395   3.616   6.054   1.103
 7151TIP3    H121396   3.664   6.128   1.065
 7151TIP3    H221397   3.592   6.085   1.191
 7152TIP3   OH221398   6.226   0.655   3.214
 7152TIP3    H121399   6.154   0.596   3.236
 7152TIP3    H221400   6.203   0.691   3.129
 7153TIP3   OH221401   7.636   6.880   3.366
 7153TIP3    H121402   7.558   6.833   3.397
 7153TIP3    H221403   7.685   6.901   3.445
 7154TIP3   OH221404   0.188   5.002   3.652
 7154TIP3    H121405   0.264   5.045   3.691
 7154TIP3    H221406   0.142   5.072   3.606
 7155TIP3   OH221407   5.479   6.695   3.023
 7155TIP3    H121408   5.555   6.724   3.074
 7155TIP3    H221409   5.479   6.600   3.030
 7156TIP3   OH221410   2.354   1.570   2.545
 7156TIP3    H121411   2.406   1.643   2.510
 7156TIP3    H221412   2.401   1.541   2.622
 7157TIP3   OH221413   1.621   4.923   0.677
 7157TIP3    H121414   1.560   4.857   0.644
 7157TIP3    H221415   1.676   4.945   0.602
 7158TIP3   OH221416   5.034   0.831   3.704
 7158TIP3    H121417   4.995   0.835   3.616
 7158TIP3    H221418   4.962   0.846   3.764
 7159TIP3   OH221419   7.298   4.375   0.955
 7159TIP3    H121420   7.305   4.338   1.043
 7159TIP3    H221421   7.385   4.366   0.917
 7160TIP3   OH221422   4.990   7.447   0.019
 7160TIP3    H121423   5.024   7.535   0.038
 7160TIP3    H221424   5.021   7.394   0.092
 7161TIP3   OH221425   5.142   3.989   4.304
 7161TIP3    H121426   5.148   3.961   4.212
 7161TIP3    H221427   5.231   3.978   4.338
 7162TIP3   OH221428   2.921   1.523   6.127
 7162TIP3    H121429   2.827   1.507   6.124
 7162TIP3    H221430   2.951   1.511   6.037
 7163TIP3   OH221431   7.733   7.262   1.204
 7163TIP3    H121432   7.759   7.179   1.164
 7163TIP3    H221433   7.650   7.283   1.162
 7164TIP3   OH221434   6.070   2.213   1.802
 7164TIP3    H121435   6.056   2.304   1.777
 7164TIP3    H221436   6.051   2.163   1.723
 7165TIP3   OH221437   7.636   3.097   1.931
 7165TIP3    H121438   7.636   3.104   1.835
 7165TIP3    H221439   7.576   3.025   1.949
 7166TIP3   OH221440   4.501   0.217   0.213
 7166TIP3    H121441   4.556   0.183   0.142
 7166TIP3    H221442   4.412   0.196   0.187
 7167TIP3   OH221443   6.577   6.415   3.169
 7167TIP3    H121444   6.517   6.441   3.099
 7167TIP3    H221445   6.632   6.493   3.183
 7168TIP3   OH221446   3.508   6.422   1.235
 7168TIP3    H121447   3.438   6.424   1.171
 7168TIP3    H221448   3.587   6.401   1.185
 7169TIP3   OH221449   1.216   2.087   1.933
 7169TIP3    H121450   1.162   2.021   1.975
 7169TIP3    H221451   1.302   2.047   1.925
 7170TIP3   OH221452   0.355   1.196   0.270
 7170TIP3    H121453   0.319   1.285   0.267
 7170TIP3    H221454   0.439   1.205   0.314
 7171TIP3   OH221455   3.213   4.425   2.678
 7171TIP3    H121456   3.270   4.491   2.717
 7171TIP3    H221457   3.168   4.471   2.607
 7172TIP3   OH221458   8.115   1.114   4.857
 7172TIP3    H121459   8.100   1.107   4.763
 7172TIP3    H221460   8.194   1.062   4.873
 7173TIP3   OH221461   4.371   4.876   0.676
 7173TIP3    H121462   4.360   4.934   0.751
 7173TIP3    H221463   4.291   4.887   0.625
 7174TIP3   OH221464   3.304   2.063   1.853
 7174TIP3    H121465   3.306   2.132   1.919
 7174TIP3    H221466   3.225   2.013   1.874
 7175TIP3   OH221467   6.429   5.630   6.689
 7175TIP3    H121468   6.383   5.629   6.605
 7175TIP3    H221469   6.515   5.665   6.669
 7176TIP3   OH221470   2.569   4.621   1.242
 7176TIP3    H121471   2.657   4.604   1.208
 7176TIP3    H221472   2.583   4.677   1.318
 7177TIP3   OH221473   7.615   4.644   6.187
 7177TIP3    H121474   7.600   4.614   6.097
 7177TIP3    H221475   7.646   4.565   6.233
 7178TIP3   OH221476   6.314   3.913   5.659
 7178TIP3    H121477   6.393   3.864   5.681
 7178TIP3    H221478   6.253   3.893   5.729
 7179TIP3   OH221479   5.094   3.955   1.561
 7179TIP3    H121480   5.001   3.933   1.561
 7179TIP3    H221481   5.113   3.981   1.471
 7180TIP3   OH221482   6.557   3.322   4.493
 7180TIP3    H121483   6.643   3.359   4.478
 7180TIP3    H221484   6.496   3.393   4.472
 7181TIP3   OH221485   6.121   7.569   5.897
 7181TIP3    H121486   6.113   7.660   5.925
 7181TIP3    H221487   6.155   7.574   5.807
 7182TIP3   OH221488   4.001   5.538   6.677
 7182TIP3    H121489   4.052   5.463   6.648
 7182TIP3    H221490   4.066   5.605   6.700
 7183TIP3   OH221491   4.379   7.257   4.049
 7183TIP3    H121492   4.343   7.339   4.082
 7183TIP3    H221493   4.329   7.240   3.969
 7184TIP3   OH221494   0.157   7.532   5.310
 7184TIP3    H121495   0.223   7.490   5.255
 7184TIP3    H221496   0.198   7.541   5.395
 7185TIP3   OH221497   1.630   2.152   3.449
 7185TIP3    H121498   1.725   2.159   3.460
 7185TIP3    H221499   1.600   2.114   3.532
 7186TIP3   OH221500   6.717   1.171   4.778
 7186TIP3    H121501   6.626   1.152   4.754
 7186TIP3    H221502   6.736   1.255   4.735
 7187TIP3   OH221503   0.290   4.679   5.278
 7187TIP3    H121504   0.312   4.596   5.321
 7187TIP3    H221505   0.257   4.734   5.349
 7188TIP3   OH221506   4.756   2.275   4.404
 7188TIP3    H121507   4.841   2.243   4.433
 7188TIP3    H221508   4.722   2.325   4.478
 7189TIP3   OH221509   4.774   3.326   6.073
 7189TIP3    H121510   4.734   3.302   5.990
 7189TIP3    H221511   4.843   3.261   6.087
 7190TIP3   OH221512   3.576   1.924   4.575
 7190TIP3    H121513   3.524   1.861   4.525
 7190TIP3    H221514   3.667   1.901   4.555
 7191TIP3   OH221515   4.606   5.202  -0.027
 7191TIP3    H121516   4.578   5.191   0.064
 7191TIP3    H221517   4.700   5.217  -0.022
 7192TIP3   OH221518   7.993   7.564   6.746
 7192TIP3    H121519   7.923   7.534   6.688
 7192TIP3    H221520   7.995   7.659   6.736
 7193TIP3   OH221521   4.519   2.634   3.669
 7193TIP3    H121522   4.437   2.637   3.719
 7193TIP3    H221523   4.534   2.540   3.655
 7194TIP3   OH221524   4.165   4.031   5.835
 7194TIP3    H121525   4.162   3.945   5.877
 7194TIP3    H221526   4.074   4.059   5.831
 7195TIP3   OH221527   3.519   2.868   1.357
 7195TIP3    H121528   3.587   2.817   1.401
 7195TIP3    H221529   3.512   2.829   1.270
 7196TIP3   OH221530   6.810   5.203   1.320
 7196TIP3    H121531   6.869   5.189   1.245
 7196TIP3    H221532   6.838   5.286   1.357
 7197TIP3   OH221533   6.277   4.917   0.532
 7197TIP3    H121534   6.247   4.865   0.458
 7197TIP3    H221535   6.232   5.001   0.522
 7198TIP3   OH221536   8.041   7.047   1.831
 7198TIP3    H121537   7.969   7.001   1.788
 7198TIP3    H221538   8.000   7.123   1.872
 7199TIP3   OH221539   6.235   5.881   2.057
 7199TIP3    H121540   6.228   5.809   1.993
 7199TIP3    H221541   6.149   5.885   2.098
 7200TIP3   OH221542   6.237   5.618   1.919
 7200TIP3    H121543   6.329   5.621   1.947
 7200TIP3    H221544   6.187   5.626   2.000
 7201TIP3   OH221545   1.886   6.979   1.505
 7201TIP3    H121546   1.822   6.980   1.576
 7201TIP3    H221547   1.871   6.895   1.461
 7202TIP3   OH221548   4.649   7.681   1.214
 7202TIP3    H121549   4.553   7.671   1.217
 7202TIP3    H221550   4.670   7.735   1.290
 7203TIP3   OH221551   4.661   1.422   5.397
 7203TIP3    H121552   4.736   1.454   5.446
 7203TIP3    H221553   4.645   1.334   5.432
 7204TIP3   OH221554   2.864   5.771   1.774
 7204TIP3    H121555   2.904   5.819   1.701
 7204TIP3    H221556   2.847   5.684   1.739
 7205TIP3   OH221557   1.082   6.055   2.087
 7205TIP3    H121558   1.138   6.131   2.074
 7205TIP3    H221559   0.993   6.089   2.080
 7206TIP3   OH221560   1.939   4.388   2.750
 7206TIP3    H121561   1.982   4.409   2.833
 7206TIP3    H221562   1.970   4.455   2.690
 7207TIP3   OH221563   1.065   0.720   2.561
 7207TIP3    H121564   1.115   0.768   2.495
 7207TIP3    H221565   1.092   0.759   2.644
 7208TIP3   OH221566   7.981   4.075   2.765
 7208TIP3    H121567   7.911   4.041   2.709
 7208TIP3    H221568   8.053   4.012   2.754
 7209TIP3   OH221569   3.465   5.508   6.677
 7209TIP3    H121570   3.469   5.603   6.664
 7209TIP3    H221571   3.453   5.497   6.771
 7210TIP3   OH221572   3.157   7.772   2.351
 7210TIP3    H121573   3.166   7.842   2.416
 7210TIP3    H221574   3.099   7.708   2.393
 7211TIP3   OH221575   0.921   7.635   3.707
 7211TIP3    H121576   0.855   7.662   3.771
 7211TIP3    H221577   0.942   7.715   3.659
 7212TIP3   OH221578   4.184   7.090   1.702
 7212TIP3    H121579   4.257   7.134   1.746
 7212TIP3    H221580   4.204   7.096   1.609
 7213TIP3   OH221581   3.904   5.858   0.079
 7213TIP3    H121582   3.837   5.838   0.145
 7213TIP3    H221583   3.977   5.800   0.102
 7214TIP3   OH221584   7.253   2.760   6.813
 7214TIP3    H121585   7.284   2.832   6.867
 7214TIP3    H221586   7.228   2.801   6.730
 7215TIP3   OH221587   1.894   4.145   3.055
 7215TIP3    H121588   1.953   4.193   2.996
 7215TIP3    H221589   1.866   4.211   3.119
 7216TIP3   OH221590   5.234   0.500   3.592
 7216TIP3    H121591   5.203   0.545   3.671
 7216TIP3    H221592   5.310   0.450   3.621
 7217TIP3   OH221593   5.220   6.154   6.497
 7217TIP3    H121594   5.205   6.061   6.512
 7217TIP3    H221595   5.296   6.157   6.438
 7218TIP3   OH221596   8.111   5.917   2.034
 7218TIP3    H121597   8.018   5.895   2.033
 7218TIP3    H221598   8.155   5.832   2.041
 7219TIP3   OH221599   0.202   0.565   6.166
 7219TIP3    H121600   0.146   0.583   6.090
 7219TIP3    H221601   0.240   0.479   6.148
 7220TIP3   OH221602   5.108   7.649   0.349
 7220TIP3    H121603   5.200   7.628   0.364
 7220TIP3    H221604   5.102   7.669   0.256
 7221TIP3   OH221605   5.459   3.891   1.972
 7221TIP3    H121606   5.401   3.815   1.963
 7221TIP3    H221607   5.515   3.887   1.894
 7222TIP3   OH221608   0.887   3.353   4.070
 7222TIP3    H121609   0.922   3.376   4.156
 7222TIP3    H221610   0.799   3.391   4.069
 7223TIP3   OH221611   0.040   0.954   2.239
 7223TIP3    H121612  -0.051   0.926   2.230
 7223TIP3    H221613   0.060   0.999   2.157
 7224TIP3   OH221614   3.909   0.228   4.368
 7224TIP3    H121615   3.918   0.213   4.273
 7224TIP3    H221616   3.819   0.203   4.388
 7225TIP3   OH221617   2.340   1.027   0.799
 7225TIP3    H121618   2.366   0.936   0.784
 7225TIP3    H221619   2.386   1.076   0.731
 7226TIP3   OH221620   0.718   6.781   1.963
 7226TIP3    H121621   0.707   6.769   2.057
 7226TIP3    H221622   0.667   6.710   1.924
 7227TIP3   OH221623   0.859   4.850   5.904
 7227TIP3    H121624   0.869   4.797   5.983
 7227TIP3    H221625   0.920   4.811   5.841
 7228TIP3   OH221626   4.096   6.580   5.202
 7228TIP3    H121627   4.010   6.620   5.207
 7228TIP3    H221628   4.135   6.595   5.288
 7229TIP3   OH221629   4.649   6.931   6.440
 7229TIP3    H121630   4.736   6.939   6.480
 7229TIP3    H221631   4.614   7.020   6.443
 7230TIP3   OH221632   1.456   4.898   4.218
 7230TIP3    H121633   1.396   4.875   4.290
 7230TIP3    H221634   1.416   4.975   4.177
 7231TIP3   OH221635   6.085   2.485   5.007
 7231TIP3    H121636   6.126   2.416   5.058
 7231TIP3    H221637   6.125   2.566   5.037
 7232TIP3   OH221638   4.560   5.696   3.434
 7232TIP3    H121639   4.493   5.631   3.412
 7232TIP3    H221640   4.620   5.649   3.492
 7233TIP3   OH221641   0.291   5.838   3.085
 7233TIP3    H121642   0.264   5.841   2.993
 7233TIP3    H221643   0.271   5.925   3.119
 7234TIP3   OH221644   6.532   4.748   6.371
 7234TIP3    H121645   6.621   4.714   6.377
 7234TIP3    H221646   6.529   4.794   6.287
 7235TIP3   OH221647   7.943   2.359   5.699
 7235TIP3    H121648   7.847   2.355   5.704
 7235TIP3    H221649   7.966   2.440   5.745
 7236TIP3   OH221650   4.724   7.266   4.312
 7236TIP3    H121651   4.811   7.229   4.326
 7236TIP3    H221652   4.718   7.278   4.217
 7237TIP3   OH221653   6.881   7.736   3.172
 7237TIP3    H121654   6.800   7.735   3.224
 7237TIP3    H221655   6.861   7.682   3.096
 7238TIP3   OH221656   6.675   3.341   6.481
 7238TIP3    H121657   6.698   3.374   6.394
 7238TIP3    H221658   6.625   3.412   6.521
 7239TIP3   OH221659   7.851   2.361   0.429
 7239TIP3    H121660   7.800   2.280   0.425
 7239TIP3    H221661   7.925   2.346   0.370
 7240TIP3   OH221662   7.017   3.877   4.457
 7240TIP3    H121663   6.979   3.939   4.395
 7240TIP3    H221664   7.082   3.928   4.505
 7241TIP3   OH221665   7.684   1.220   0.428
 7241TIP3    H121666   7.756   1.158   0.438
 7241TIP3    H221667   7.727   1.306   0.424
 7242TIP3   OH221668   3.421   1.239   6.232
 7242TIP3    H121669   3.483   1.312   6.226
 7242TIP3    H221670   3.476   1.161   6.231
 7243TIP3   OH221671   1.486   0.227   6.333
 7243TIP3    H121672   1.471   0.320   6.350
 7243TIP3    H221673   1.581   0.217   6.335
 7244TIP3   OH221674   1.465   7.584   3.690
 7244TIP3    H121675   1.541   7.555   3.742
 7244TIP3    H221676   1.392   7.585   3.752
 7245TIP3   OH221677   4.692   6.687   5.433
 7245TIP3    H121678   4.724   6.623   5.369
 7245TIP3    H221679   4.596   6.685   5.423
 7246TIP3   OH221680   7.519   6.813   5.573
 7246TIP3    H121681   7.477   6.883   5.522
 7246TIP3    H221682   7.473   6.813   5.657
 7247TIP3   OH221683   1.419   5.321   6.107
 7247TIP3    H121684   1.419   5.246   6.047
 7247TIP3    H221685   1.509   5.353   6.105
 7248TIP3   OH221686   0.694   6.809   3.899
 7248TIP3    H121687   0.763   6.743   3.892
 7248TIP3    H221688   0.728   6.885   3.852
 7249TIP3   OH221689   4.235   3.898   4.040
 7249TIP3    H121690   4.154   3.918   4.087
 7249TIP3    H221691   4.250   3.974   3.984
 7250TIP3   OH221692   5.681   5.017   2.230
 7250TIP3    H121693   5.729   5.039   2.310
 7250TIP3    H221694   5.606   4.965   2.260
 7251TIP3   OH221695   1.542   5.954   3.700
 7251TIP3    H121696   1.539   5.862   3.728
 7251TIP3    H221697   1.530   5.950   3.605
 7252TIP3   OH221698   1.143   6.192   5.595
 7252TIP3    H121699   1.178   6.269   5.640
 7252TIP3    H221700   1.196   6.120   5.627
 7253TIP3   OH221701   0.229   7.541   1.931
 7253TIP3    H121702   0.220   7.463   1.876
 7253TIP3    H221703   0.225   7.614   1.869
 7254TIP3   OH221704   2.296   2.118   3.900
 7254TIP3    H121705   2.265   2.192   3.847
 7254TIP3    H221706   2.309   2.047   3.837
 7255TIP3   OH221707   4.004   0.972   5.559
 7255TIP3    H121708   3.983   1.049   5.507
 7255TIP3    H221709   3.953   0.902   5.518
 7256TIP3   OH221710   5.893   2.477   3.136
 7256TIP3    H121711   5.929   2.484   3.048
 7256TIP3    H221712   5.938   2.402   3.174
 7257TIP3   OH221713   3.422   4.334   0.908
 7257TIP3    H121714   3.362   4.386   0.856
 7257TIP3    H221715   3.367   4.292   0.975
 7258TIP3   OH221716   6.415   6.569   4.388
 7258TIP3    H121717   6.484   6.623   4.427
 7258TIP3    H221718   6.358   6.545   4.461
 7259TIP3   OH221719   6.023   0.952   4.064
 7259TIP3    H121720   6.051   1.040   4.039
 7259TIP3    H221721   5.983   0.962   4.150
 7260TIP3   OH221722   6.441   0.389   3.735
 7260TIP3    H121723   6.394   0.435   3.666
 7260TIP3    H221724   6.519   0.354   3.691
 7261TIP3   OH221725   5.388   2.434   3.925
 7261TIP3    H121726   5.385   2.415   4.018
 7261TIP3    H221727   5.314   2.386   3.888
 7262TIP3   OH221728   4.050   6.257   5.115
 7262TIP3    H121729   4.001   6.175   5.104
 7262TIP3    H221730   4.029   6.308   5.037
 7263TIP3   OH221731   6.246   5.490   4.064
 7263TIP3    H121732   6.277   5.425   4.127
 7263TIP3    H221733   6.175   5.447   4.017
 7264TIP3   OH221734   5.161   4.838   3.020
 7264TIP3    H121735   5.067   4.827   3.010
 7264TIP3    H221736   5.195   4.749   3.029
 7265TIP3   OH221737   0.786   4.205   3.660
 7265TIP3    H121738   0.815   4.296   3.657
 7265TIP3    H221739   0.717   4.200   3.593
 7266TIP3   OH221740   1.026   1.664   6.187
 7266TIP3    H121741   1.027   1.636   6.096
 7266TIP3    H221742   1.062   1.753   6.186
 7267TIP3   OH221743   5.437   2.678   1.761
 7267TIP3    H121744   5.383   2.715   1.691
 7267TIP3    H221745   5.413   2.585   1.761
 7268TIP3   OH221746   4.018   4.420   3.555
 7268TIP3    H121747   4.007   4.509   3.590
 7268TIP3    H221748   4.110   4.399   3.572
 7269TIP3   OH221749   5.278   7.656   5.707
 7269TIP3    H121750   5.364   7.621   5.728
 7269TIP3    H221751   5.282   7.676   5.613
 7270TIP3   OH221752   7.149   7.263   6.643
 7270TIP3    H121753   7.164   7.322   6.570
 7270TIP3    H221754   7.054   7.254   6.648
 7271TIP3   OH221755   7.660   7.209   1.483
 7271TIP3    H121756   7.650   7.116   1.459
 7271TIP3    H221757   7.697   7.249   1.405
 7272TIP3   OH221758   3.681   0.670   6.423
 7272TIP3    H121759   3.739   0.745   6.439
 7272TIP3    H221760   3.621   0.670   6.497
 7273TIP3   OH221761   5.600   6.282   0.972
 7273TIP3    H121762   5.687   6.285   1.013
 7273TIP3    H221763   5.583   6.189   0.957
 7274TIP3   OH221764   5.611   7.377   0.396
 7274TIP3    H121765   5.558   7.297   0.402
 7274TIP3    H221766   5.701   7.345   0.390
 7275TIP3   OH221767   1.765   7.659   2.492
 7275TIP3    H121768   1.753   7.729   2.556
 7275TIP3    H221769   1.857   7.634   2.502
 7276TIP3   OH221770   4.134   3.801   3.644
 7276TIP3    H121771   4.142   3.888   3.604
 7276TIP3    H221772   4.075   3.753   3.586
 7277TIP3   OH221773   1.764   3.922   6.557
 7277TIP3    H121774   1.812   3.988   6.607
 7277TIP3    H221775   1.831   3.879   6.505
 7278TIP3   OH221776   1.479   2.369   1.754
 7278TIP3    H121777   1.546   2.365   1.685
 7278TIP3    H221778   1.411   2.426   1.717
 7279TIP3   OH221779   7.715   7.519   0.353
 7279TIP3    H121780   7.791   7.576   0.346
 7279TIP3    H221781   7.751   7.430   0.351
 7280TIP3   OH221782   6.183   2.621   5.533
 7280TIP3    H121783   6.205   2.705   5.492
 7280TIP3    H221784   6.185   2.558   5.461
 7281TIP3   OH221785   0.113   2.171   0.901
 7281TIP3    H121786   0.122   2.075   0.903
 7281TIP3    H221787   0.075   2.190   0.815
 7282TIP3   OH221788   0.929   3.801   3.791
 7282TIP3    H121789   0.864   3.737   3.762
 7282TIP3    H221790   1.013   3.754   3.788
 7283TIP3   OH221791   0.419   3.572   2.277
 7283TIP3    H121792   0.351   3.582   2.211
 7283TIP3    H221793   0.376   3.527   2.350
 7284TIP3   OH221794   2.589   5.146   6.629
 7284TIP3    H121795   2.580   5.220   6.690
 7284TIP3    H221796   2.505   5.102   6.633
 7285TIP3   OH221797   5.908   6.139   2.227
 7285TIP3    H121798   5.960   6.058   2.226
 7285TIP3    H221799   5.948   6.194   2.160
 7286TIP3   OH221800   6.111   1.217   4.544
 7286TIP3    H121801   6.066   1.257   4.619
 7286TIP3    H221802   6.055   1.144   4.519
 7287TIP3   OH221803   4.363   6.921   6.743
 7287TIP3    H121804   4.357   7.011   6.775
 7287TIP3    H221805   4.307   6.919   6.665
 7288TIP3   OH221806   1.002   0.699   3.365
 7288TIP3    H121807   0.931   0.635   3.360
 7288TIP3    H221808   1.077   0.650   3.398
 7289TIP3   OH221809   7.340   4.652   2.378
 7289TIP3    H121810   7.398   4.577   2.361
 7289TIP3    H221811   7.258   4.612   2.407
 7290TIP3   OH221812   7.223   1.260   6.795
 7290TIP3    H121813   7.276   1.315   6.851
 7290TIP3    H221814   7.189   1.319   6.727
 7291TIP3   OH221815   7.977   5.659   3.188
 7291TIP3    H121816   8.014   5.571   3.198
 7291TIP3    H221817   8.027   5.699   3.118
 7292TIP3   OH221818   8.108   4.301   2.932
 7292TIP3    H121819   8.161   4.293   2.854
 7292TIP3    H221820   8.018   4.287   2.902
 7293TIP3   OH221821   4.826   3.179   4.938
 7293TIP3    H121822   4.870   3.096   4.924
 7293TIP3    H221823   4.761   3.161   5.005
 7294TIP3   OH221824   3.045   0.974   6.698
 7294TIP3    H121825   3.115   1.006   6.755
 7294TIP3    H221826   2.970   0.963   6.757
 7295TIP3   OH221827   1.855   2.942   0.149
 7295TIP3    H121828   1.843   3.019   0.204
 7295TIP3    H221829   1.789   2.952   0.079
 7296TIP3   OH221830   7.007   2.143   4.375
 7296TIP3    H121831   7.058   2.121   4.453
 7296TIP3    H221832   7.073   2.161   4.308
 7297TIP3   OH221833   6.155   5.831   6.659
 7297TIP3    H121834   6.242   5.792   6.670
 7297TIP3    H221835   6.103   5.761   6.618
 7298TIP3   OH221836   6.414   6.135   2.407
 7298TIP3    H121837   6.433   6.121   2.500
 7298TIP3    H221838   6.499   6.144   2.366
 7299TIP3   OH221839   0.386   4.073   1.995
 7299TIP3    H121840   0.314   4.133   2.012
 7299TIP3    H221841   0.465   4.123   2.019
 7300TIP3   OH221842   5.328   3.761   5.077
 7300TIP3    H121843   5.249   3.773   5.130
 7300TIP3    H221844   5.371   3.684   5.114
 7301TIP3   OH221845   1.467   2.684   5.043
 7301TIP3    H121846   1.475   2.766   4.994
 7301TIP3    H221847   1.378   2.686   5.078
 7302TIP3   OH221848   2.042   4.725   1.061
 7302TIP3    H121849   2.061   4.753   1.150
 7302TIP3    H221850   1.953   4.690   1.065
 7303TIP3   OH221851   5.684   5.558   4.513
 7303TIP3    H121852   5.617   5.575   4.446
 7303TIP3    H221853   5.649   5.599   4.592
 7304TIP3   OH221854   0.833   4.335   2.078
 7304TIP3    H121855   0.911   4.386   2.098
 7304TIP3    H221856   0.830   4.268   2.146
 7305TIP3   OH221857   1.442   2.711   6.631
 7305TIP3    H121858   1.507   2.673   6.573
 7305TIP3    H221859   1.371   2.738   6.573
 7306TIP3   OH221860   4.326   3.412   6.093
 7306TIP3    H121861   4.300   3.419   6.001
 7306TIP3    H221862   4.244   3.397   6.139
 7307TIP3   OH221863   6.058   7.094   3.028
 7307TIP3    H121864   6.023   7.174   3.068
 7307TIP3    H221865   6.141   7.121   2.988
 7308TIP3   OH221866   7.595   1.706   0.786
 7308TIP3    H121867   7.625   1.740   0.870
 7308TIP3    H221868   7.522   1.763   0.761
 7309TIP3   OH221869   4.237   5.174   4.766
 7309TIP3    H121870   4.227   5.269   4.762
 7309TIP3    H221871   4.306   5.159   4.830
 7310TIP3   OH221872   0.060   0.572   0.956
 7310TIP3    H121873   0.033   0.663   0.970
 7310TIP3    H221874  -0.021   0.525   0.937
 7311TIP3   OH221875   2.580   0.671   5.771
 7311TIP3    H121876   2.485   0.674   5.763
 7311TIP3    H221877   2.611   0.648   5.683
 7312TIP3   OH221878   5.396   1.522   5.357
 7312TIP3    H121879   5.385   1.433   5.390
 7312TIP3    H221880   5.490   1.535   5.350
 7313TIP3   OH221881   0.312   2.296   3.054
 7313TIP3    H121882   0.396   2.250   3.057
 7313TIP3    H221883   0.334   2.388   3.062
 7314TIP3   OH221884   6.473   1.521   2.123
 7314TIP3    H121885   6.462   1.495   2.214
 7314TIP3    H221886   6.502   1.442   2.078
 7315TIP3   OH221887   7.610   5.006   4.010
 7315TIP3    H121888   7.658   4.924   3.998
 7315TIP3    H221889   7.643   5.042   4.092
 7316TIP3   OH221890   0.368   1.610   1.159
 7316TIP3    H121891   0.345   1.646   1.073
 7316TIP3    H221892   0.347   1.680   1.220
 7317TIP3   OH221893   0.355   6.345   2.029
 7317TIP3    H121894   0.303   6.264   2.029
 7317TIP3    H221895   0.292   6.415   2.014
 7318TIP3   OH221896   1.901   1.633   2.244
 7318TIP3    H121897   1.912   1.705   2.181
 7318TIP3    H221898   1.970   1.646   2.308
 7319TIP3   OH221899   2.680   5.741   4.651
 7319TIP3    H121900   2.599   5.720   4.697
 7319TIP3    H221901   2.739   5.669   4.672
 7320TIP3   OH221902   1.767   2.834   2.747
 7320TIP3    H121903   1.731   2.849   2.659
 7320TIP3    H221904   1.780   2.740   2.752
 7321TIP3   OH221905   8.007   5.422   3.944
 7321TIP3    H121906   8.091   5.449   3.980
 7321TIP3    H221907   8.015   5.434   3.850
 7322TIP3   OH221908   6.992   3.494   4.815
 7322TIP3    H121909   7.008   3.583   4.846
 7322TIP3    H221910   6.977   3.504   4.721
 7323TIP3   OH221911   6.126   1.737   3.625
 7323TIP3    H121912   6.135   1.652   3.581
 7323TIP3    H221913   6.133   1.717   3.718
 7324TIP3   OH221914   0.802   4.767   1.514
 7324TIP3    H121915   0.879   4.764   1.570
 7324TIP3    H221916   0.833   4.736   1.429
 7325TIP3   OH221917   7.566   4.578   5.258
 7325TIP3    H121918   7.486   4.543   5.298
 7325TIP3    H221919   7.554   4.563   5.164
 7326TIP3   OH221920   4.338   5.963   6.783
 7326TIP3    H121921   4.367   5.899   6.847
 7326TIP3    H221922   4.246   5.941   6.767
 7327TIP3   OH221923   6.785   6.803   5.610
 7327TIP3    H121924   6.755   6.748   5.683
 7327TIP3    H221925   6.792   6.891   5.648
 7328TIP3   OH221926   6.124   0.809   5.438
 7328TIP3    H121927   6.165   0.805   5.524
 7328TIP3    H221928   6.197   0.815   5.376
 7329TIP3   OH221929   3.780   7.455   5.915
 7329TIP3    H121930   3.699   7.506   5.913
 7329TIP3    H221931   3.755   7.372   5.956
 7330TIP3   OH221932   6.605   7.605   6.117
 7330TIP3    H121933   6.511   7.620   6.105
 7330TIP3    H221934   6.613   7.572   6.206
 7331TIP3   OH221935   3.418   7.326   4.771
 7331TIP3    H121936   3.342   7.267   4.764
 7331TIP3    H221937   3.380   7.410   4.796
 7332TIP3   OH221938   1.337   6.411   4.596
 7332TIP3    H121939   1.362   6.439   4.508
 7332TIP3    H221940   1.337   6.316   4.592
 7333TIP3   OH221941   7.032   4.906   0.421
 7333TIP3    H121942   7.004   4.880   0.333
 7333TIP3    H221943   6.955   4.891   0.476
 7334TIP3   OH221944   7.383   0.080   3.601
 7334TIP3    H121945   7.385   0.156   3.542
 7334TIP3    H221946   7.347   0.009   3.548
 7335TIP3   OH221947   8.100   0.033   0.292
 7335TIP3    H121948   8.017   0.072   0.319
 7335TIP3    H221949   8.099   0.038   0.197
 7336TIP3   OH221950   4.285   5.875   0.337
 7336TIP3    H121951   4.246   5.932   0.270
 7336TIP3    H221952   4.379   5.881   0.321
 7337TIP3   OH221953   7.957   3.607   2.753
 7337TIP3    H121954   8.023   3.676   2.760
 7337TIP3    H221955   8.002   3.528   2.783
 7338TIP3   OH221956   3.723   4.672   4.423
 7338TIP3    H121957   3.663   4.647   4.353
 7338TIP3    H221958   3.728   4.595   4.479
 7339TIP3   OH221959   1.820   0.141   3.053
 7339TIP3    H121960   1.746   0.096   3.011
 7339TIP3    H221961   1.896   0.115   3.001
 7340TIP3   OH221962   8.145   5.072   6.653
 7340TIP3    H121963   8.137   5.154   6.702
 7340TIP3    H221964   8.071   5.019   6.684
 7341TIP3   OH221965   4.418   3.678   1.047
 7341TIP3    H121966   4.344   3.653   0.992
 7341TIP3    H221967   4.387   3.665   1.137
 7342TIP3   OH221968   1.511   2.650   2.435
 7342TIP3    H121969   1.503   2.717   2.502
 7342TIP3    H221970   1.425   2.607   2.434
 7343TIP3   OH221971   2.684   5.154   3.660
 7343TIP3    H121972   2.598   5.194   3.646
 7343TIP3    H221973   2.741   5.228   3.683
 7344TIP3   OH221974   0.769   7.546   1.399
 7344TIP3    H121975   0.730   7.467   1.437
 7344TIP3    H221976   0.764   7.533   1.305
 7345TIP3   OH221977   5.055   4.233   0.024
 7345TIP3    H121978   4.981   4.208   0.080
 7345TIP3    H221979   5.115   4.279   0.082
 7346TIP3   OH221980   6.432   0.142   4.657
 7346TIP3    H121981   6.518   0.184   4.666
 7346TIP3    H221982   6.373   0.214   4.635
 7347TIP3   OH221983   7.657   6.537   5.697
 7347TIP3    H121984   7.727   6.481   5.730
 7347TIP3    H221985   7.577   6.502   5.737
 7348TIP3   OH221986   0.637   2.199   2.614
 7348TIP3    H121987   0.630   2.106   2.593
 7348TIP3    H221988   0.728   2.222   2.593
 7349TIP3   OH221989   4.304   6.717   6.506
 7349TIP3    H121990   4.391   6.708   6.546
 7349TIP3    H221991   4.243   6.700   6.578
 7350TIP3   OH221992   8.007   3.891   5.237
 7350TIP3    H121993   7.925   3.925   5.272
 7350TIP3    H221994   7.997   3.796   5.242
 7351TIP3   OH221995   5.551   2.590   3.763
 7351TIP3    H121996   5.488   2.649   3.723
 7351TIP3    H221997   5.498   2.534   3.820
 7352TIP3   OH221998   3.827   5.297   0.517
 7352TIP3    H121999   3.744   5.279   0.562
 7352TIP3    H222000   3.818   5.387   0.486
 7353TIP3   OH222001   2.182   5.587   1.687
 7353TIP3    H122002   2.145   5.500   1.703
 7353TIP3    H222003   2.138   5.618   1.608
 7354TIP3   OH222004   7.867   1.071   5.590
 7354TIP3    H122005   7.862   0.996   5.531
 7354TIP3    H222006   7.957   1.104   5.580
 7355TIP3   OH222007   5.044   2.284   5.035
 7355TIP3    H122008   5.072   2.235   4.958
 7355TIP3    H222009   4.949   2.278   5.034
 7356TIP3   OH222010   6.193   2.321   5.681
 7356TIP3    H122011   6.231   2.234   5.694
 7356TIP3    H222012   6.145   2.315   5.599
 7357TIP3   OH222013   7.743   6.393   2.735
 7357TIP3    H122014   7.813   6.454   2.759
 7357TIP3    H222015   7.787   6.310   2.723
 7358TIP3   OH222016   5.994   7.348   3.167
 7358TIP3    H122017   6.010   7.441   3.152
 7358TIP3    H222018   5.955   7.344   3.255
 7359TIP3   OH222019   6.578   0.511   2.086
 7359TIP3    H122020   6.505   0.449   2.091
 7359TIP3    H222021   6.554   0.571   2.016
 7360TIP3   OH222022   6.448   3.659   5.350
 7360TIP3    H122023   6.399   3.610   5.284
 7360TIP3    H222024   6.453   3.600   5.425
 7361TIP3   OH222025   5.070   3.727   0.474
 7361TIP3    H122026   5.000   3.691   0.529
 7361TIP3    H222027   5.138   3.659   0.474
 7362TIP3   OH222028   2.700   0.646   6.034
 7362TIP3    H122029   2.657   0.653   5.948
 7362TIP3    H222030   2.635   0.682   6.095
 7363TIP3   OH222031   8.161   6.286   2.632
 7363TIP3    H122032   8.237   6.239   2.595
 7363TIP3    H222033   8.174   6.280   2.727
 7364TIP3   OH222034   1.593   1.858   1.025
 7364TIP3    H122035   1.613   1.921   1.095
 7364TIP3    H222036   1.601   1.909   0.944
 7365TIP3   OH222037   4.293   1.054   3.663
 7365TIP3    H122038   4.382   1.017   3.666
 7365TIP3    H222039   4.268   1.050   3.571
 7366TIP3   OH222040   0.151   4.908   0.372
 7366TIP3    H122041   0.217   4.914   0.441
 7366TIP3    H222042   0.170   4.981   0.314
 7367TIP3   OH222043   0.017   6.742   1.192
 7367TIP3    H122044   0.102   6.702   1.206
 7367TIP3    H222045   0.008   6.746   1.097
 7368TIP3   OH222046   5.356   6.133   1.621
 7368TIP3    H122047   5.360   6.059   1.681
 7368TIP3    H222048   5.426   6.191   1.651
 7369TIP3   OH222049   0.173   2.336   6.479
 7369TIP3    H122050   0.217   2.420   6.469
 7369TIP3    H222051   0.218   2.278   6.416
 7370TIP3   OH222052   7.185   3.954   1.446
 7370TIP3    H122053   7.202   3.875   1.497
 7370TIP3    H222054   7.152   3.921   1.362
 7371TIP3   OH222055   4.345   6.405   4.374
 7371TIP3    H122056   4.413   6.441   4.430
 7371TIP3    H222057   4.296   6.481   4.344
 7372TIP3   OH222058   2.882   2.301   2.028
 7372TIP3    H122059   2.899   2.370   2.092
 7372TIP3    H222060   2.841   2.230   2.078
 7373TIP3   OH222061   4.765   6.624   2.842
 7373TIP3    H122062   4.827   6.667   2.900
 7373TIP3    H222063   4.772   6.531   2.864
 7374TIP3   OH222064   1.962   2.476   1.018
 7374TIP3    H122065   2.010   2.511   1.094
 7374TIP3    H222066   1.870   2.490   1.039
 7375TIP3   OH222067   7.294   2.385   5.560
 7375TIP3    H122068   7.346   2.359   5.484
 7375TIP3    H222069   7.330   2.334   5.633
 7376TIP3   OH222070   6.984   6.827   3.232
 7376TIP3    H122071   7.077   6.815   3.253
 7376TIP3    H222072   6.971   6.777   3.152
 7377TIP3   OH222073   5.013   3.006   5.993
 7377TIP3    H122074   4.964   2.929   5.965
 7377TIP3    H222075   5.009   3.066   5.919
 7378TIP3   OH222076   1.617   3.574   3.403
 7378TIP3    H122077   1.609   3.593   3.310
 7378TIP3    H222078   1.581   3.486   3.413
 7379TIP3   OH222079   1.189   1.937   2.887
 7379TIP3    H122080   1.234   1.978   2.961
 7379TIP3    H222081   1.226   1.980   2.810
 7380TIP3   OH222082   2.268   1.313   2.148
 7380TIP3    H122083   2.235   1.280   2.232
 7380TIP3    H222084   2.230   1.400   2.139
 7381TIP3   OH222085   6.440   3.260   5.767
 7381TIP3    H122086   6.490   3.178   5.771
 7381TIP3    H222087   6.452   3.299   5.854
 7382TIP3   OH222088   2.186   5.663   2.045
 7382TIP3    H122089   2.256   5.688   2.106
 7382TIP3    H222090   2.106   5.670   2.098
 7383TIP3   OH222091   4.627   4.236   4.297
 7383TIP3    H122092   4.666   4.292   4.365
 7383TIP3    H222093   4.532   4.246   4.311
 7384TIP3   OH222094   1.157   4.816   3.997
 7384TIP3    H122095   1.175   4.878   3.927
 7384TIP3    H222096   1.244   4.789   4.028
 7385TIP3   OH222097   5.222   2.807   0.558
 7385TIP3    H122098   5.204   2.727   0.609
 7385TIP3    H222099   5.280   2.777   0.487
 7386TIP3   OH222100   2.127   5.355   5.995
 7386TIP3    H122101   2.140   5.407   6.074
 7386TIP3    H222102   2.173   5.403   5.926
 7387TIP3   OH222103   4.113   5.867   1.968
 7387TIP3    H122104   4.170   5.942   1.981
 7387TIP3    H222105   4.132   5.809   2.042
 7388TIP3   OH222106   6.943   5.274   2.645
 7388TIP3    H122107   6.881   5.217   2.690
 7388TIP3    H222108   7.026   5.259   2.689
 7389TIP3   OH222109   8.191   2.375   6.693
 7389TIP3    H122110   8.223   2.364   6.783
 7389TIP3    H222111   8.193   2.288   6.655
 7390TIP3   OH222112   7.805   5.530   3.560
 7390TIP3    H122113   7.885   5.499   3.602
 7390TIP3    H222114   7.750   5.561   3.632
 7391TIP3   OH222115   5.036   3.052   2.769
 7391TIP3    H122116   5.038   3.003   2.686
 7391TIP3    H222117   4.978   3.000   2.825
 7392TIP3   OH222118   4.207   0.648   0.182
 7392TIP3    H122119   4.202   0.654   0.087
 7392TIP3    H222120   4.129   0.694   0.213
 7393TIP3   OH222121   2.769   2.289   0.268
 7393TIP3    H122122   2.726   2.271   0.352
 7393TIP3    H222123   2.730   2.372   0.239
 7394TIP3   OH222124   6.821   3.870   1.827
 7394TIP3    H122125   6.822   3.777   1.850
 7394TIP3    H222126   6.832   3.871   1.732
 7395TIP3   OH222127   7.124   2.783   4.182
 7395TIP3    H122128   7.142   2.870   4.219
 7395TIP3    H222129   7.042   2.794   4.133
 7396TIP3   OH222130   5.007   7.703   4.492
 7396TIP3    H122131   4.929   7.683   4.441
 7396TIP3    H222132   5.070   7.736   4.427
 7397TIP3   OH222133   3.994   2.454   0.289
 7397TIP3    H122134   3.944   2.401   0.351
 7397TIP3    H222135   3.929   2.483   0.225
 7398TIP3   OH222136   6.529   1.287   2.600
 7398TIP3    H122137   6.533   1.286   2.696
 7398TIP3    H222138   6.472   1.214   2.577
 7399TIP3   OH222139   1.646   2.075   0.412
 7399TIP3    H122140   1.634   2.168   0.393
 7399TIP3    H222141   1.605   2.063   0.498
 7400TIP3   OH222142   6.645   4.139   6.480
 7400TIP3    H122143   6.634   4.175   6.392
 7400TIP3    H222144   6.559   4.147   6.521
 7401TIP3   OH222145   4.223   2.329   0.157
 7401TIP3    H122146   4.167   2.396   0.197
 7401TIP3    H222147   4.297   2.321   0.217
 7402TIP3   OH222148   2.010   4.549   4.798
 7402TIP3    H122149   2.079   4.593   4.749
 7402TIP3    H222150   2.017   4.457   4.773
 7403TIP3   OH222151   3.968   1.007   4.964
 7403TIP3    H122152   3.995   1.088   5.007
 7403TIP3    H222153   3.878   0.993   4.996
 7404TIP3   OH222154   1.793   1.548   0.764
 7404TIP3    H122155   1.828   1.613   0.825
 7404TIP3    H222156   1.837   1.467   0.786
 7405TIP3   OH222157   1.439   7.197   6.171
 7405TIP3    H122158   1.346   7.210   6.190
 7405TIP3    H222159   1.452   7.102   6.175
 7406TIP3   OH222160   5.852   1.453   3.658
 7406TIP3    H122161   5.936   1.421   3.625
 7406TIP3    H222162   5.856   1.437   3.752
 7407TIP3   OH222163   2.691   2.265   0.669
 7407TIP3    H122164   2.687   2.259   0.764
 7407TIP3    H222165   2.604   2.296   0.644
 7408TIP3   OH222166   3.070   0.654   1.041
 7408TIP3    H122167   3.095   0.583   1.100
 7408TIP3    H222168   3.120   0.637   0.961
 7409TIP3   OH222169   6.034   4.546   5.960
 7409TIP3    H122170   6.086   4.625   5.950
 7409TIP3    H222171   6.089   4.476   5.925
 7410TIP3   OH222172   6.594   6.641   5.903
 7410TIP3    H122173   6.655   6.598   5.964
 7410TIP3    H222174   6.613   6.734   5.912
 7411TIP3   OH222175   6.590   3.978   5.635
 7411TIP3    H122176   6.655   3.946   5.572
 7411TIP3    H222177   6.565   4.064   5.603
 7412TIP3   OH222178   4.712   6.123   2.719
 7412TIP3    H122179   4.638   6.157   2.770
 7412TIP3    H222180   4.681   6.122   2.629
 7413TIP3   OH222181   4.922   3.761   4.634
 7413TIP3    H122182   4.950   3.784   4.723
 7413TIP3    H222183   4.868   3.835   4.606
 7414TIP3   OH222184   4.032   4.142   5.251
 7414TIP3    H122185   3.940   4.139   5.227
 7414TIP3    H222186   4.033   4.173   5.341
 7415TIP3   OH222187   5.866   0.544   1.548
 7415TIP3    H122188   5.903   0.480   1.486
 7415TIP3    H222189   5.772   0.528   1.546
 7416TIP3   OH222190   5.505   6.032   6.559
 7416TIP3    H122191   5.583   6.084   6.539
 7416TIP3    H222192   5.491   5.979   6.481
 7417TIP3   OH222193   7.283   3.580   3.119
 7417TIP3    H122194   7.243   3.605   3.036
 7417TIP3    H222195   7.235   3.502   3.147
 7418TIP3   OH222196   5.639   5.702   5.221
 7418TIP3    H122197   5.639   5.631   5.158
 7418TIP3    H222198   5.595   5.774   5.175
 7419TIP3   OH222199   1.404   5.168   4.124
 7419TIP3    H122200   1.341   5.226   4.167
 7419TIP3    H222201   1.481   5.222   4.111
 7420TIP3   OH222202   1.323   4.271   1.790
 7420TIP3    H122203   1.365   4.301   1.871
 7420TIP3    H222204   1.298   4.351   1.744
 7421TIP3   OH222205   2.924   4.410   6.344
 7421TIP3    H122206   2.872   4.443   6.417
 7421TIP3    H222207   2.904   4.316   6.341
 7422TIP3   OH222208   5.839   5.739   5.599
 7422TIP3    H122209   5.881   5.818   5.633
 7422TIP3    H222210   5.747   5.746   5.627
 7423TIP3   OH222211   6.031   5.619   0.308
 7423TIP3    H122212   6.098   5.564   0.268
 7423TIP3    H222213   6.058   5.709   0.287
 7424TIP3   OH222214   6.909   7.716   3.799
 7424TIP3    H122215   6.929   7.710   3.892
 7424TIP3    H222216   6.994   7.724   3.757
 7425TIP3   OH222217   7.086   7.102   1.285
 7425TIP3    H122218   7.094   7.015   1.324
 7425TIP3    H222219   7.019   7.145   1.336
 7426TIP3   OH222220   7.912   1.694   4.142
 7426TIP3    H122221   7.932   1.779   4.182
 7426TIP3    H222222   7.985   1.638   4.169
 7427TIP3   OH222223   0.583   5.423   5.367
 7427TIP3    H122224   0.594   5.423   5.272
 7427TIP3    H222225   0.522   5.351   5.384
 7428TIP3   OH222226   3.769   5.609   1.344
 7428TIP3    H122227   3.843   5.670   1.353
 7428TIP3    H222228   3.809   5.522   1.342
 7429TIP3   OH222229   6.681   0.101   0.254
 7429TIP3    H122230   6.743   0.162   0.214
 7429TIP3    H222231   6.621   0.157   0.304
 7430TIP3   OH222232   0.870   4.451   2.611
 7430TIP3    H122233   0.908   4.539   2.610
 7430TIP3    H222234   0.788   4.458   2.563
 7431TIP3   OH222235   0.339   4.859   6.556
 7431TIP3    H122236   0.395   4.924   6.514
 7431TIP3    H222237   0.250   4.891   6.543
 7432TIP3   OH222238   0.112   0.868   3.484
 7432TIP3    H122239   0.072   0.952   3.463
 7432TIP3    H222240   0.156   0.882   3.568
 7433TIP3   OH222241   2.051   2.543   0.629
 7433TIP3    H122242   2.131   2.553   0.578
 7433TIP3    H222243   2.054   2.613   0.694
 7434TIP3   OH222244   5.193   4.259   5.285
 7434TIP3    H122245   5.110   4.288   5.248
 7434TIP3    H222246   5.257   4.323   5.254
 7435TIP3   OH222247   4.954   7.475   4.641
 7435TIP3    H122248   4.983   7.556   4.599
 7435TIP3    H222249   4.982   7.484   4.733
 7436TIP3   OH222250   4.518   0.692   3.787
 7436TIP3    H122251   4.578   0.623   3.816
 7436TIP3    H222252   4.432   0.649   3.789
 7437TIP3   OH222253   5.328   3.209   3.488
 7437TIP3    H122254   5.238   3.236   3.503
 7437TIP3    H222255   5.380   3.262   3.548
 7438TIP3   OH222256   3.064   6.729   5.794
 7438TIP3    H122257   2.994   6.670   5.821
 7438TIP3    H222258   3.023   6.788   5.731
 7439TIP3   OH222259   7.937   3.002   1.665
 7439TIP3    H122260   7.917   3.095   1.663
 7439TIP3    H222261   7.991   2.991   1.743
 7440TIP3   OH222262   1.952   5.316   4.709
 7440TIP3    H122263   2.009   5.389   4.735
 7440TIP3    H222264   2.007   5.261   4.654
 7441TIP3   OH222265   0.980   2.159   6.298
 7441TIP3    H122266   0.900   2.199   6.266
 7441TIP3    H222267   1.024   2.228   6.347
 7442TIP3   OH222268   4.741   5.292   5.727
 7442TIP3    H122269   4.835   5.311   5.717
 7442TIP3    H222270   4.699   5.346   5.660
 7443TIP3   OH222271   4.356   2.541   4.348
 7443TIP3    H122272   4.295   2.600   4.302
 7443TIP3    H222273   4.337   2.454   4.312
 7444TIP3   OH222274   7.443   5.332   1.776
 7444TIP3    H122275   7.485   5.403   1.728
 7444TIP3    H222276   7.511   5.265   1.785
 7445TIP3   OH222277   5.825   5.136   4.311
 7445TIP3    H122278   5.897   5.181   4.266
 7445TIP3    H222279   5.864   5.104   4.392
 7446TIP3   OH222280   0.587   3.296   4.242
 7446TIP3    H122281   0.514   3.288   4.304
 7446TIP3    H222282   0.621   3.384   4.257
 7447TIP3   OH222283   0.870   7.553   3.166
 7447TIP3    H122284   0.869   7.645   3.138
 7447TIP3    H222285   0.953   7.543   3.212
 7448TIP3   OH222286   1.465   0.164   3.249
 7448TIP3    H122287   1.453   0.218   3.171
 7448TIP3    H222288   1.424   0.080   3.227
 7449TIP3   OH222289   6.853   0.317   1.658
 7449TIP3    H122290   6.937   0.321   1.704
 7449TIP3    H222291   6.806   0.246   1.701
 7450TIP3   OH222292   7.228   7.602   0.196
 7450TIP3    H122293   7.197   7.512   0.207
 7450TIP3    H222294   7.154   7.656   0.226
 7451TIP3   OH222295   6.633   7.830   3.805
 7451TIP3    H122296   6.704   7.777   3.770
 7451TIP3    H222297   6.657   7.844   3.897
 7452TIP3   OH222298   3.951   6.612   4.634
 7452TIP3    H122299   3.862   6.642   4.651
 7452TIP3    H222300   3.998   6.628   4.715
 7453TIP3   OH222301   0.454   2.274   5.085
 7453TIP3    H122302   0.410   2.304   5.006
 7453TIP3    H222303   0.396   2.302   5.157
 7454TIP3   OH222304   7.382   3.108   5.195
 7454TIP3    H122305   7.327   3.145   5.126
 7454TIP3    H222306   7.469   3.104   5.156
 7455TIP3   OH222307   1.599   1.539   1.703
 7455TIP3    H122308   1.673   1.584   1.664
 7455TIP3    H222309   1.586   1.582   1.788
 7456TIP3   OH222310   0.183   6.802   1.742
 7456TIP3    H122311   0.090   6.805   1.718
 7456TIP3    H222312   0.183   6.808   1.838
 7457TIP3   OH222313   4.416   0.262   1.688
 7457TIP3    H122314   4.342   0.214   1.725
 7457TIP3    H222315   4.487   0.197   1.683
 7458TIP3   OH222316   7.322   5.346   1.084
 7458TIP3    H122317   7.304   5.258   1.052
 7458TIP3    H222318   7.292   5.345   1.175
 7459TIP3   OH222319   5.970   6.909   3.242
 7459TIP3    H122320   5.973   6.973   3.171
 7459TIP3    H222321   6.011   6.954   3.316
 7460TIP3   OH222322   2.604   0.716   3.244
 7460TIP3    H122323   2.515   0.680   3.242
 7460TIP3    H222324   2.603   0.778   3.317
 7461TIP3   OH222325   8.234   5.215   5.924
 7461TIP3    H122326   8.140   5.218   5.907
 7461TIP3    H222327   8.265   5.304   5.905
 7462TIP3   OH222328   2.776   7.517   3.187
 7462TIP3    H122329   2.847   7.490   3.245
 7462TIP3    H222330   2.815   7.518   3.099
 7463TIP3   OH222331   5.823   6.307   4.652
 7463TIP3    H122332   5.731   6.331   4.639
 7463TIP3    H222333   5.830   6.284   4.745
 7464TIP3   OH222334   0.490   5.676   4.656
 7464TIP3    H122335   0.553   5.604   4.649
 7464TIP3    H222336   0.531   5.738   4.717
 7465TIP3   OH222337   5.080   4.057   3.744
 7465TIP3    H122338   5.136   4.046   3.668
 7465TIP3    H222339   5.047   3.969   3.762
 7466TIP3   OH222340   6.889   3.130   4.501
 7466TIP3    H122341   6.975   3.093   4.482
 7466TIP3    H222342   6.835   3.055   4.525
 7467TIP3   OH222343   0.063   6.399   1.756
 7467TIP3    H122344  -0.026   6.387   1.789
 7467TIP3    H222345   0.119   6.371   1.829
 7468TIP3   OH222346   1.634   1.943   1.720
 7468TIP3    H122347   1.675   1.862   1.692
 7468TIP3    H222348   1.540   1.923   1.724
 7469TIP3   OH222349   2.829   1.138   2.683
 7469TIP3    H122350   2.902   1.171   2.631
 7469TIP3    H222351   2.756   1.133   2.622
 7470TIP3   OH222352   0.442   3.143   2.241
 7470TIP3    H122353   0.387   3.101   2.175
 7470TIP3    H222354   0.493   3.208   2.191
 7471TIP3   OH222355   4.366   5.917   1.589
 7471TIP3    H122356   4.428   5.926   1.517
 7471TIP3    H222357   4.284   5.954   1.554
 7472TIP3   OH222358   2.205   4.767   0.622
 7472TIP3    H122359   2.238   4.698   0.564
 7472TIP3    H222360   2.110   4.767   0.607
 7473TIP3   OH222361   2.648   7.288   1.997
 7473TIP3    H122362   2.723   7.268   1.940
 7473TIP3    H222363   2.638   7.383   1.992
 7474TIP3   OH222364   6.563   4.402   5.784
 7474TIP3    H122365   6.593   4.492   5.796
 7474TIP3    H222366   6.477   4.411   5.743
 7475TIP3   OH222367   7.482   3.812   1.693
 7475TIP3    H122368   7.396   3.792   1.655
 7475TIP3    H222369   7.462   3.846   1.781
 7476TIP3   OH222370   6.758   1.824   4.796
 7476TIP3    H122371   6.799   1.737   4.804
 7476TIP3    H222372   6.818   1.883   4.843
 7477TIP3   OH222373   6.874   2.893   4.744
 7477TIP3    H122374   6.803   2.951   4.715
 7477TIP3    H222375   6.917   2.942   4.814
 7478TIP3   OH222376   6.297   4.847   6.477
 7478TIP3    H122377   6.275   4.860   6.569
 7478TIP3    H222378   6.392   4.834   6.477
 7479TIP3   OH222379   0.770   7.014   1.394
 7479TIP3    H122380   0.822   6.976   1.323
 7479TIP3    H222381   0.774   6.948   1.463
 7480TIP3   OH222382   4.956   5.074   0.305
 7480TIP3    H122383   5.031   5.087   0.247
 7480TIP3    H222384   4.911   4.998   0.269
 7481TIP3   OH222385   4.193   5.737   2.197
 7481TIP3    H122386   4.179   5.646   2.222
 7481TIP3    H222387   4.227   5.778   2.276
 7482TIP3   OH222388   5.289   7.108   5.434
 7482TIP3    H122389   5.377   7.106   5.471
 7482TIP3    H222390   5.239   7.167   5.491
 7483TIP3   OH222391   3.448   6.054   0.234
 7483TIP3    H122392   3.389   6.098   0.173
 7483TIP3    H222393   3.426   6.091   0.320
 7484TIP3   OH222394   8.149   5.907   1.083
 7484TIP3    H122395   8.192   5.990   1.067
 7484TIP3    H222396   8.062   5.917   1.045
 7485TIP3   OH222397   5.263  -0.012   1.961
 7485TIP3    H122398   5.202  -0.029   2.033
 7485TIP3    H222399   5.256   0.082   1.945
 7486TIP3   OH222400   6.039   3.471   3.312
 7486TIP3    H122401   6.034   3.467   3.407
 7486TIP3    H222402   5.981   3.543   3.287
 7487TIP3   OH222403   1.552   2.388   1.376
 7487TIP3    H122404   1.462   2.358   1.387
 7487TIP3    H222405   1.601   2.344   1.445
 7488TIP3   OH222406   2.914   5.584   5.493
 7488TIP3    H122407   2.845   5.645   5.522
 7488TIP3    H222408   2.956   5.630   5.420
 7489TIP3   OH222409   4.001   2.303   2.409
 7489TIP3    H122410   4.046   2.386   2.394
 7489TIP3    H222411   4.071   2.238   2.415
 7490TIP3   OH222412   6.170   7.758   0.901
 7490TIP3    H122413   6.190   7.666   0.882
 7490TIP3    H222414   6.207   7.773   0.988
 7491TIP3   OH222415   7.416   4.549   1.706
 7491TIP3    H122416   7.494   4.524   1.657
 7491TIP3    H222417   7.379   4.467   1.737
 7492TIP3   OH222418   2.763   0.378   1.356
 7492TIP3    H122419   2.682   0.372   1.407
 7492TIP3    H222420   2.737   0.422   1.275
 7493TIP3   OH222421   7.273   4.418   2.186
 7493TIP3    H122422   7.267   4.513   2.195
 7493TIP3    H222423   7.182   4.390   2.175
 7494TIP3   OH222424   2.461   3.145   6.769
 7494TIP3    H122425   2.528   3.112   6.709
 7494TIP3    H222426   2.450   3.076   6.834
 7495TIP3   OH222427   2.526   6.078   2.547
 7495TIP3    H122428   2.612   6.074   2.589
 7495TIP3    H222429   2.514   6.171   2.527
 7496TIP3   OH222430   3.263   1.309   2.690
 7496TIP3    H122431   3.348   1.291   2.651
 7496TIP3    H222432   3.283   1.361   2.768
 7497TIP3   OH222433   6.600   7.489   5.876
 7497TIP3    H122434   6.627   7.512   5.965
 7497TIP3    H222435   6.596   7.573   5.829
 7498TIP3   OH222436   7.331   2.744   0.601
 7498TIP3    H122437   7.415   2.776   0.568
 7498TIP3    H222438   7.299   2.686   0.532
 7499TIP3   OH222439   3.288   5.308   6.624
 7499TIP3    H122440   3.366   5.360   6.603
 7499TIP3    H222441   3.230   5.369   6.668
 7500TIP3   OH222442   3.276   2.772   0.869
 7500TIP3    H122443   3.199   2.718   0.888
 7500TIP3    H222444   3.291   2.821   0.950
 7501TIP3   OH222445   8.218   0.649   0.679
 7501TIP3    H122446   8.299   0.601   0.663
 7501TIP3    H222447   8.227   0.730   0.630
 7502TIP3   OH222448   4.165   0.896   1.795
 7502TIP3    H122449   4.247   0.872   1.838
 7502TIP3    H222450   4.098   0.884   1.863
 7503TIP3   OH222451   7.736   2.836   1.563
 7503TIP3    H122452   7.696   2.902   1.507
 7503TIP3    H222453   7.809   2.881   1.605
 7504TIP3   OH222454   0.738   6.573   3.677
 7504TIP3    H122455   0.829   6.544   3.669
 7504TIP3    H222456   0.742   6.668   3.665
 7505TIP3   OH222457   1.424   7.850   1.544
 7505TIP3    H122458   1.409   7.941   1.519
 7505TIP3    H222459   1.467   7.812   1.468
 7506TIP3   OH222460   7.553   1.127   2.604
 7506TIP3    H122461   7.616   1.119   2.676
 7506TIP3    H222462   7.480   1.175   2.641
 7507TIP3   OH222463   8.204   1.964   3.565
 7507TIP3    H122464   8.181   1.998   3.651
 7507TIP3    H222465   8.180   2.034   3.504
 7508TIP3   OH222466   4.485   0.218   0.830
 7508TIP3    H122467   4.406   0.239   0.780
 7508TIP3    H222468   4.501   0.125   0.810
 7509TIP3   OH222469   6.071   5.857   5.260
 7509TIP3    H122470   6.014   5.786   5.288
 7509TIP3    H222471   6.149   5.813   5.226
 7510TIP3   OH222472   1.279   2.546   1.610
 7510TIP3    H122473   1.271   2.574   1.701
 7510TIP3    H222474   1.276   2.627   1.559
 7511TIP3   OH222475   1.763   1.996   3.244
 7511TIP3    H122476   1.746   2.090   3.257
 7511TIP3    H222477   1.859   1.990   3.240
 7512TIP3   OH222478   3.063   4.564   0.442
 7512TIP3    H122479   3.067   4.511   0.363
 7512TIP3    H222480   3.127   4.633   0.429
 7513TIP3   OH222481   7.103   0.256   5.798
 7513TIP3    H122482   7.069   0.180   5.753
 7513TIP3    H222483   7.025   0.303   5.829
 7514TIP3   OH222484   1.562   0.880   2.059
 7514TIP3    H122485   1.600   0.820   1.994
 7514TIP3    H222486   1.522   0.950   2.007
 7515TIP3   OH222487   4.825   0.856   4.424
 7515TIP3    H122488   4.821   0.844   4.518
 7515TIP3    H222489   4.760   0.924   4.405
 7516TIP3   OH222490   7.606   6.699   1.842
 7516TIP3    H122491   7.521   6.675   1.877
 7516TIP3    H222492   7.657   6.727   1.918
 7517TIP3   OH222493   7.666   2.319   6.038
 7517TIP3    H122494   7.730   2.271   6.091
 7517TIP3    H222495   7.581   2.287   6.069
 7518TIP3   OH222496   7.671   2.583   4.251
 7518TIP3    H122497   7.697   2.671   4.223
 7518TIP3    H222498   7.598   2.560   4.193
 7519TIP3   OH222499   6.135   1.498   2.541
 7519TIP3    H122500   6.090   1.561   2.597
 7519TIP3    H222501   6.147   1.545   2.458
 7520TIP3   OH222502   1.111   3.979   2.641
 7520TIP3    H122503   1.196   3.967   2.682
 7520TIP3    H222504   1.094   4.073   2.649
 7521TIP3   OH222505   3.349   0.006   4.039
 7521TIP3    H122506   3.305  -0.039   4.111
 7521TIP3    H222507   3.390   0.083   4.080
 7522TIP3   OH222508   7.339   2.248   2.137
 7522TIP3    H122509   7.296   2.305   2.201
 7522TIP3    H222510   7.276   2.241   2.065
 7523TIP3   OH222511   3.457   6.396   3.435
 7523TIP3    H122512   3.367   6.425   3.422
 7523TIP3    H222513   3.510   6.457   3.382
 7524TIP3   OH222514   5.292   7.822   5.245
 7524TIP3    H122515   5.269   7.902   5.199
 7524TIP3    H222516   5.374   7.793   5.205
 7525TIP3   OH222517   4.239   2.287   2.039
 7525TIP3    H122518   4.327   2.256   2.020
 7525TIP3    H222519   4.212   2.334   1.960
 7526TIP3   OH222520   2.886   4.374   4.579
 7526TIP3    H122521   2.838   4.342   4.503
 7526TIP3    H222522   2.952   4.433   4.544
 7527TIP3   OH222523   6.333   3.423   4.155
 7527TIP3    H122524   6.277   3.479   4.100
 7527TIP3    H222525   6.390   3.378   4.093
 7528TIP3   OH222526   7.477   2.329   5.339
 7528TIP3    H122527   7.559   2.368   5.370
 7528TIP3    H222528   7.483   2.331   5.244
 7529TIP3   OH222529   2.240   0.264   5.368
 7529TIP3    H122530   2.328   0.228   5.357
 7529TIP3    H222531   2.206   0.222   5.446
 7530TIP3   OH222532   7.102   4.330   4.375
 7530TIP3    H122533   7.171   4.394   4.396
 7530TIP3    H222534   7.083   4.287   4.458
 7531TIP3   OH222535   7.147   6.342   6.256
 7531TIP3    H122536   7.173   6.349   6.348
 7531TIP3    H222537   7.122   6.250   6.245
 7532TIP3   OH222538   2.379   3.058   1.093
 7532TIP3    H122539   2.315   3.055   1.022
 7532TIP3    H222540   2.355   3.136   1.143
 7533TIP3   OH222541   5.619   4.053   0.240
 7533TIP3    H122542   5.577   3.970   0.260
 7533TIP3    H222543   5.680   4.068   0.311
 7534TIP3   OH222544   1.494   5.743   2.058
 7534TIP3    H122545   1.404   5.755   2.088
 7534TIP3    H222546   1.505   5.806   1.987
 7535TIP3   OH222547   2.796   5.462   2.426
 7535TIP3    H122548   2.808   5.409   2.347
 7535TIP3    H222549   2.864   5.432   2.486
 7536TIP3   OH222550   3.077   7.602   3.072
 7536TIP3    H122551   3.172   7.596   3.073
 7536TIP3    H222552   3.059   7.685   3.027
 7537TIP3   OH222553   6.709   6.281   1.418
 7537TIP3    H122554   6.642   6.225   1.377
 7537TIP3    H222555   6.690   6.276   1.511
 7538TIP3   OH222556   6.016   3.003   0.789
 7538TIP3    H122557   5.986   2.918   0.819
 7538TIP3    H222558   6.107   3.008   0.818
 7539TIP3   OH222559   2.306   6.643   0.365
 7539TIP3    H122560   2.214   6.664   0.350
 7539TIP3    H222561   2.316   6.642   0.460
 7540TIP3   OH222562   0.720   7.441   4.039
 7540TIP3    H122563   0.725   7.471   3.948
 7540TIP3    H222564   0.745   7.518   4.091
 7541TIP3   OH222565   0.299   5.331   6.587
 7541TIP3    H122566   0.394   5.336   6.575
 7541TIP3    H222567   0.271   5.261   6.528
 7542TIP3   OH222568   6.590   0.624   2.334
 7542TIP3    H122569   6.651   0.576   2.389
 7542TIP3    H222570   6.593   0.578   2.250
 7543TIP3   OH222571   6.318   6.928   3.286
 7543TIP3    H122572   6.366   6.973   3.216
 7543TIP3    H222573   6.275   6.997   3.335
 7544TIP3   OH222574   7.163   0.767   1.417
 7544TIP3    H122575   7.097   0.774   1.348
 7544TIP3    H222576   7.247   0.768   1.371
 7545TIP3   OH222577   1.073   1.902   2.623
 7545TIP3    H122578   1.026   1.853   2.690
 7545TIP3    H222579   1.132   1.837   2.583
 7546TIP3   OH222580   1.095   7.781   0.883
 7546TIP3    H122581   1.084   7.705   0.941
 7546TIP3    H222582   1.189   7.791   0.875
 7547TIP3   OH222583   0.780   0.949   2.010
 7547TIP3    H122584   0.807   1.020   2.067
 7547TIP3    H222585   0.697   0.978   1.973
 7548TIP3   OH222586   5.018   6.759   6.264
 7548TIP3    H122587   4.953   6.708   6.215
 7548TIP3    H222588   4.999   6.741   6.356
 7549TIP3   OH222589   6.173   6.906   1.369
 7549TIP3    H122590   6.176   7.002   1.371
 7549TIP3    H222591   6.226   6.879   1.444
 7550TIP3   OH222592   7.303   3.383   6.283
 7550TIP3    H122593   7.247   3.404   6.208
 7550TIP3    H222594   7.370   3.325   6.247
 7551TIP3   OH222595   7.550   4.022   3.469
 7551TIP3    H122596   7.515   4.064   3.390
 7551TIP3    H222597   7.481   4.033   3.535
 7552TIP3   OH222598   0.863   0.197   1.629
 7552TIP3    H122599   0.819   0.277   1.601
 7552TIP3    H222600   0.889   0.215   1.720
 7553TIP3   OH222601   4.261   4.881   3.075
 7553TIP3    H122602   4.297   4.889   3.163
 7553TIP3    H222603   4.302   4.952   3.025
 7554TIP3   OH222604   1.672   0.748   0.279
 7554TIP3    H122605   1.625   0.781   0.355
 7554TIP3    H222606   1.604   0.724   0.217
 7555TIP3   OH222607   1.371   4.479   3.407
 7555TIP3    H122608   1.303   4.416   3.427
 7555TIP3    H222609   1.330   4.564   3.424
 7556TIP3   OH222610   1.849   6.245   2.439
 7556TIP3    H122611   1.904   6.322   2.451
 7556TIP3    H222612   1.873   6.187   2.511
 7557TIP3   OH222613   1.177   7.116   1.075
 7557TIP3    H122614   1.140   7.139   1.160
 7557TIP3    H222615   1.114   7.149   1.011
 7558TIP3   OH222616   0.831   0.260   6.096
 7558TIP3    H122617   0.765   0.277   6.163
 7558TIP3    H222618   0.788   0.202   6.033
 7559TIP3   OH222619   8.278   7.007   5.384
 7559TIP3    H122620   8.258   7.027   5.475
 7559TIP3    H222621   8.194   6.980   5.346
 7560TIP3   OH222622   3.937   4.310   3.779
 7560TIP3    H122623   3.956   4.320   3.686
 7560TIP3    H222624   3.858   4.363   3.794
 7561TIP3   OH222625   2.768   7.070   1.313
 7561TIP3    H122626   2.681   7.106   1.295
 7561TIP3    H222627   2.762   6.978   1.287
 7562TIP3   OH222628   3.311   5.495   3.063
 7562TIP3    H122629   3.399   5.457   3.061
 7562TIP3    H222630   3.259   5.433   3.114
 7563TIP3   OH222631   2.644   1.158   1.842
 7563TIP3    H122632   2.686   1.085   1.796
 7563TIP3    H222633   2.583   1.116   1.903
 7564TIP3   OH222634   1.390   2.927   3.117
 7564TIP3    H122635   1.372   2.957   3.028
 7564TIP3    H222636   1.485   2.932   3.126
 7565TIP3   OH222637   0.272   4.584   4.469
 7565TIP3    H122638   0.193   4.530   4.464
 7565TIP3    H222639   0.246   4.669   4.434
 7566TIP3   OH222640   0.378   0.822   5.063
 7566TIP3    H122641   0.455   0.847   5.012
 7566TIP3    H222642   0.369   0.891   5.129
 7567TIP3   OH222643   5.255   4.909   1.366
 7567TIP3    H122644   5.195   4.983   1.354
 7567TIP3    H222645   5.337   4.938   1.326
 7568TIP3   OH222646   5.167   5.061   4.922
 7568TIP3    H122647   5.153   5.153   4.900
 7568TIP3    H222648   5.202   5.062   5.011
 7569TIP3   OH222649   8.091   1.651   6.196
 7569TIP3    H122650   8.110   1.690   6.281
 7569TIP3    H222651   8.137   1.706   6.133
 7570TIP3   OH222652   7.469   3.699   2.597
 7570TIP3    H122653   7.479   3.631   2.530
 7570TIP3    H222654   7.446   3.778   2.547
 7571TIP3   OH222655   1.354   1.175   6.244
 7571TIP3    H122656   1.329   1.085   6.264
 7571TIP3    H222657   1.278   1.227   6.269
 7572TIP3   OH222658   2.071   5.645   6.712
 7572TIP3    H122659   2.041   5.596   6.635
 7572TIP3    H222660   2.107   5.578   6.771
 7573TIP3   OH222661   5.406   3.854   6.168
 7573TIP3    H122662   5.432   3.789   6.233
 7573TIP3    H222663   5.464   3.929   6.184
 7574TIP3   OH222664   3.757   3.874   5.701
 7574TIP3    H122665   3.832   3.840   5.652
 7574TIP3    H222666   3.732   3.802   5.758
 7575TIP3   OH222667   1.911   3.368   1.855
 7575TIP3    H122668   1.938   3.318   1.932
 7575TIP3    H222669   1.917   3.305   1.782
 7576TIP3   OH222670   1.278   1.153   4.618
 7576TIP3    H122671   1.326   1.230   4.588
 7576TIP3    H222672   1.332   1.079   4.589
 7577TIP3   OH222673   0.939   3.197   6.689
 7577TIP3    H122674   0.860   3.154   6.722
 7577TIP3    H222675   0.928   3.198   6.594
 7578TIP3   OH222676   4.568   0.831   6.587
 7578TIP3    H122677   4.559   0.747   6.542
 7578TIP3    H222678   4.663   0.841   6.597
 7579TIP3   OH222679   2.680   0.695   0.193
 7579TIP3    H122680   2.602   0.749   0.200
 7579TIP3    H222681   2.648   0.605   0.200
 7580TIP3   OH222682   2.773   0.474   6.495
 7580TIP3    H122683   2.682   0.495   6.516
 7580TIP3    H222684   2.824   0.527   6.556
 7581TIP3   OH222685   3.818   0.621   3.971
 7581TIP3    H122686   3.744   0.671   4.005
 7581TIP3    H222687   3.855   0.676   3.902
 7582TIP3   OH222688   2.252   6.680   2.267
 7582TIP3    H122689   2.275   6.684   2.360
 7582TIP3    H222690   2.182   6.744   2.257
 7583TIP3   OH222691   4.409   0.830   5.450
 7583TIP3    H122692   4.317   0.850   5.434
 7583TIP3    H222693   4.432   0.880   5.528
 7584TIP3   OH222694   3.680   1.201   0.941
 7584TIP3    H122695   3.734   1.134   0.899
 7584TIP3    H222696   3.597   1.155   0.960
 7585TIP3   OH222697   5.846   2.577   6.382
 7585TIP3    H122698   5.754   2.576   6.353
 7585TIP3    H222699   5.863   2.669   6.403
 7586TIP3   OH222700   2.284   2.777   4.662
 7586TIP3    H122701   2.366   2.746   4.624
 7586TIP3    H222702   2.240   2.821   4.589
 7587TIP3   OH222703   7.021   4.299   2.748
 7587TIP3    H122704   7.004   4.259   2.663
 7587TIP3    H222705   7.048   4.226   2.804
 7588TIP3   OH222706   0.376   1.175   0.901
 7588TIP3    H122707   0.405   1.266   0.891
 7588TIP3    H222708   0.373   1.161   0.996
 7589TIP3   OH222709   7.803   3.864   0.639
 7589TIP3    H122710   7.802   3.846   0.733
 7589TIP3    H222711   7.855   3.793   0.602
 7590TIP3   OH222712   4.086   4.040   1.785
 7590TIP3    H122713   4.020   4.107   1.804
 7590TIP3    H222714   4.168   4.078   1.818
 7591TIP3   OH222715   3.871   3.197   1.012
 7591TIP3    H122716   3.879   3.101   1.012
 7591TIP3    H222717   3.779   3.213   0.993
 7592TIP3   OH222718   7.545   1.897   6.736
 7592TIP3    H122719   7.549   1.815   6.685
 7592TIP3    H222720   7.582   1.874   6.821
 7593TIP3   OH222721   3.415   1.949   5.087
 7593TIP3    H122722   3.436   1.976   4.997
 7593TIP3    H222723   3.367   2.024   5.123
 7594TIP3   OH222724   7.961   0.693   5.572
 7594TIP3    H122725   7.905   0.615   5.569
 7594TIP3    H222726   7.918   0.756   5.515
 7595TIP3   OH222727   0.504   2.653   2.946
 7595TIP3    H122728   0.570   2.584   2.940
 7595TIP3    H222729   0.433   2.625   2.890
 7596TIP3   OH222730   4.677   5.866   2.351
 7596TIP3    H122731   4.680   5.838   2.260
 7596TIP3    H222732   4.596   5.916   2.358
 7597TIP3   OH222733   3.964   4.708   6.069
 7597TIP3    H122734   4.045   4.727   6.023
 7597TIP3    H222735   3.961   4.772   6.140
 7598TIP3   OH222736   0.110   6.602   2.309
 7598TIP3    H122737   0.070   6.571   2.390
 7598TIP3    H222738   0.168   6.673   2.336
 7599TIP3   OH222739   0.201   1.531   4.490
 7599TIP3    H122740   0.211   1.625   4.503
 7599TIP3    H222741   0.243   1.491   4.567
 7600TIP3   OH222742   0.291   0.478   1.935
 7600TIP3    H122743   0.239   0.554   1.911
 7600TIP3    H222744   0.378   0.513   1.954
 7601TIP3   OH222745   6.956   4.305   1.880
 7601TIP3    H122746   6.981   4.212   1.882
 7601TIP3    H222747   6.900   4.312   1.803
 7602TIP3   OH222748   3.867   3.157   2.849
 7602TIP3    H122749   3.904   3.093   2.910
 7602TIP3    H222750   3.782   3.119   2.824
 7603TIP3   OH222751   7.420   0.874   5.090
 7603TIP3    H122752   7.503   0.825   5.096
 7603TIP3    H222753   7.443   0.951   5.039
 7604TIP3   OH222754   6.881   0.413   2.768
 7604TIP3    H122755   6.936   0.357   2.713
 7604TIP3    H222756   6.905   0.389   2.857
 7605TIP3   OH222757   0.625   4.014   0.701
 7605TIP3    H122758   0.635   3.960   0.622
 7605TIP3    H222759   0.605   4.102   0.668
 7606TIP3   OH222760   6.020   6.514   0.722
 7606TIP3    H122761   5.957   6.519   0.794
 7606TIP3    H222762   6.023   6.603   0.687
 7607TIP3   OH222763   7.015   3.609   6.244
 7607TIP3    H122764   7.094   3.554   6.247
 7607TIP3    H222765   7.027   3.663   6.166
 7608TIP3   OH222766   4.342   1.231   2.008
 7608TIP3    H122767   4.303   1.283   1.938
 7608TIP3    H222768   4.273   1.169   2.033
 7609TIP3   OH222769   6.293   3.942   0.211
 7609TIP3    H122770   6.207   3.931   0.252
 7609TIP3    H222771   6.307   3.861   0.162
 7610TIP3   OH222772   4.140   5.784   4.126
 7610TIP3    H122773   4.213   5.727   4.100
 7610TIP3    H222774   4.072   5.768   4.059
 7611TIP3   OH222775   5.328   0.641   4.259
 7611TIP3    H122776   5.282   0.716   4.298
 7611TIP3    H222777   5.364   0.675   4.177
 7612TIP3   OH222778   8.086   2.436   5.286
 7612TIP3    H122779   8.180   2.423   5.298
 7612TIP3    H222780   8.069   2.522   5.324
 7613TIP3   OH222781   5.734   4.948   6.017
 7613TIP3    H122782   5.794   4.985   6.082
 7613TIP3    H222783   5.671   4.898   6.068
 7614TIP3   OH222784   0.334   6.392   2.362
 7614TIP3    H122785   0.428   6.411   2.356
 7614TIP3    H222786   0.294   6.448   2.296
 7615TIP3   OH222787   4.483   3.420   0.781
 7615TIP3    H122788   4.455   3.329   0.769
 7615TIP3    H222789   4.496   3.428   0.876
 7616TIP3   OH222790   7.906   6.498   4.672
 7616TIP3    H122791   7.820   6.477   4.709
 7616TIP3    H222792   7.942   6.564   4.731
 7617TIP3   OH222793   3.891   2.886   2.571
 7617TIP3    H122794   3.904   2.793   2.587
 7617TIP3    H222795   3.818   2.911   2.628
 7618TIP3   OH222796   3.443   0.818   1.118
 7618TIP3    H122797   3.515   0.756   1.131
 7618TIP3    H222798   3.378   0.793   1.184
 7619TIP3   OH222799   7.101   3.293   3.912
 7619TIP3    H122800   7.021   3.241   3.914
 7619TIP3    H222801   7.164   3.239   3.864
 7620TIP3   OH222802   5.305   7.805   1.455
 7620TIP3    H122803   5.340   7.723   1.421
 7620TIP3    H222804   5.298   7.862   1.378
 7621TIP3   OH222805   6.207   5.601   0.567
 7621TIP3    H122806   6.117   5.595   0.536
 7621TIP3    H222807   6.212   5.687   0.609
 7622TIP3   OH222808   4.042   0.050   2.116
 7622TIP3    H122809   3.998   0.124   2.075
 7622TIP3    H222810   3.989  -0.026   2.092
 7623TIP3   OH222811   0.955   6.255   4.529
 7623TIP3    H122812   0.867   6.236   4.560
 7623TIP3    H222813   0.991   6.315   4.595
 7624TIP3   OH222814   4.792   5.173   6.656
 7624TIP3    H122815   4.781   5.088   6.614
 7624TIP3    H222816   4.857   5.158   6.725
 7625TIP3   OH222817   5.541   0.551   3.534
 7625TIP3    H122818   5.532   0.456   3.542
 7625TIP3    H222819   5.507   0.572   3.447
 7626TIP3   OH222820   2.664   3.389   4.827
 7626TIP3    H122821   2.640   3.307   4.870
 7626TIP3    H222822   2.607   3.393   4.750
 7627TIP3   OH222823   8.319   6.701   0.905
 7627TIP3    H122824   8.404   6.689   0.864
 7627TIP3    H222825   8.258   6.654   0.848
 7628TIP3   OH222826   3.210   4.990   0.836
 7628TIP3    H122827   3.114   4.995   0.833
 7628TIP3    H222828   3.232   5.007   0.927
 7629TIP3   OH222829   2.529   6.829   0.396
 7629TIP3    H122830   2.609   6.847   0.348
 7629TIP3    H222831   2.515   6.735   0.386
 7630TIP3   OH222832   2.985   2.861   3.081
 7630TIP3    H122833   2.909   2.904   3.041
 7630TIP3    H222834   2.968   2.768   3.069
 7631TIP3   OH222835   1.449   5.951   5.113
 7631TIP3    H122836   1.438   5.858   5.095
 7631TIP3    H222837   1.496   5.954   5.196
 7632TIP3   OH222838   6.948   2.682   1.187
 7632TIP3    H122839   7.003   2.604   1.193
 7632TIP3    H222840   6.945   2.702   1.093
 7633TIP3   OH222841   8.063   7.326   5.260
 7633TIP3    H122842   8.078   7.270   5.336
 7633TIP3    H222843   8.018   7.403   5.295
 7634TIP3   OH222844   0.689   3.119   2.756
 7634TIP3    H122845   0.672   3.026   2.744
 7634TIP3    H222846   0.743   3.143   2.680
 7635TIP3   OH222847   3.477   6.618   4.618
 7635TIP3    H122848   3.438   6.662   4.542
 7635TIP3    H222849   3.425   6.649   4.692
 7636TIP3   OH222850   4.804   3.888   3.505
 7636TIP3    H122851   4.875   3.862   3.563
 7636TIP3    H222852   4.761   3.806   3.482
 7637TIP3   OH222853   2.935   4.703   5.548
 7637TIP3    H122854   2.922   4.724   5.455
 7637TIP3    H222855   2.864   4.749   5.593
 7638TIP3   OH222856   4.803   5.743   1.786
 7638TIP3    H122857   4.808   5.814   1.850
 7638TIP3    H222858   4.877   5.686   1.808
 7639TIP3   OH222859   2.824   4.186   3.019
 7639TIP3    H122860   2.882   4.241   2.967
 7639TIP3    H222861   2.750   4.242   3.041
 7640TIP3   OH222862   8.201   6.275   3.577
 7640TIP3    H122863   8.159   6.361   3.576
 7640TIP3    H222864   8.231   6.262   3.487
 7641TIP3   OH222865   6.254   1.350   6.777
 7641TIP3    H122866   6.285   1.301   6.701
 7641TIP3    H222867   6.268   1.441   6.754
 7642TIP3   OH222868   7.821   3.772   2.429
 7642TIP3    H122869   7.828   3.677   2.434
 7642TIP3    H222870   7.736   3.788   2.387
 7643TIP3   OH222871   1.937   5.127   6.339
 7643TIP3    H122872   1.925   5.212   6.382
 7643TIP3    H222873   1.926   5.146   6.246
 7644TIP3   OH222874   0.633   3.046   6.192
 7644TIP3    H122875   0.592   3.127   6.163
 7644TIP3    H222876   0.562   2.994   6.230
 7645TIP3   OH222877   1.814   1.374   5.148
 7645TIP3    H122878   1.873   1.350   5.220
 7645TIP3    H222879   1.807   1.295   5.095
 7646TIP3   OH222880   0.571   5.886   2.770
 7646TIP3    H122881   0.578   5.792   2.786
 7646TIP3    H222882   0.607   5.898   2.682
 7647TIP3   OH222883   7.091   6.156   2.688
 7647TIP3    H122884   7.001   6.186   2.691
 7647TIP3    H222885   7.086   6.061   2.700
 7648TIP3   OH222886   5.299   4.637   1.403
 7648TIP3    H122887   5.395   4.641   1.411
 7648TIP3    H222888   5.274   4.727   1.381
 7649TIP3   OH222889   6.026   5.381   2.774
 7649TIP3    H122890   6.036   5.357   2.866
 7649TIP3    H222891   6.110   5.358   2.734
 7650TIP3   OH222892   6.087   7.055   0.434
 7650TIP3    H122893   6.140   6.978   0.413
 7650TIP3    H222894   5.998   7.030   0.410
 7651TIP3   OH222895   0.649   1.667   0.486
 7651TIP3    H122896   0.560   1.634   0.482
 7651TIP3    H222897   0.700   1.606   0.433
 7652TIP3   OH222898   3.629   5.274   0.245
 7652TIP3    H122899   3.561   5.206   0.241
 7652TIP3    H222900   3.639   5.293   0.338
 7653TIP3   OH222901   0.372   4.688   3.728
 7653TIP3    H122902   0.459   4.719   3.755
 7653TIP3    H222903   0.390   4.625   3.659
 7654TIP3   OH222904   7.147   4.081   4.216
 7654TIP3    H122905   7.059   4.045   4.221
 7654TIP3    H222906   7.143   4.164   4.264
 7655TIP3   OH222907   2.523   6.098   5.186
 7655TIP3    H122908   2.607   6.127   5.220
 7655TIP3    H222909   2.545   6.027   5.125
 7656TIP3   OH222910   1.498   3.793   1.297
 7656TIP3    H122911   1.511   3.775   1.204
 7656TIP3    H222912   1.531   3.715   1.341
 7657TIP3   OH222913   3.254   4.542   5.084
 7657TIP3    H122914   3.166   4.525   5.120
 7657TIP3    H222915   3.313   4.531   5.158
 7658TIP3   OH222916   1.630   3.682   3.143
 7658TIP3    H122917   1.723   3.694   3.124
 7658TIP3    H222918   1.591   3.768   3.126
 7659TIP3   OH222919   7.706   1.366   2.018
 7659TIP3    H122920   7.718   1.411   1.935
 7659TIP3    H222921   7.774   1.402   2.075
 7660TIP3   OH222922   4.923   0.227   3.028
 7660TIP3    H122923   4.882   0.178   3.099
 7660TIP3    H222924   5.003   0.177   3.008
 7661TIP3   OH222925   3.730   0.057   3.556
 7661TIP3    H122926   3.807   0.053   3.498
 7661TIP3    H222927   3.720   0.150   3.576
 7662TIP3   OH222928   7.589   6.179   3.280
 7662TIP3    H122929   7.599   6.102   3.336
 7662TIP3    H222930   7.521   6.155   3.218
 7663TIP3   OH222931   6.961   1.875   1.722
 7663TIP3    H122932   7.054   1.853   1.711
 7663TIP3    H222933   6.956   1.912   1.810
 7664TIP3   OH222934   7.113   4.547   2.538
 7664TIP3    H122935   7.138   4.456   2.552
 7664TIP3    H222936   7.132   4.590   2.621
 7665TIP3   OH222937   7.033   4.355   5.330
 7665TIP3    H122938   7.128   4.369   5.332
 7665TIP3    H222939   7.023   4.260   5.319
 7666TIP3   OH222940   5.992   7.244   2.292
 7666TIP3    H122941   6.022   7.154   2.277
 7666TIP3    H222942   6.064   7.286   2.339
 7667TIP3   OH222943   3.819   7.709   3.154
 7667TIP3    H122944   3.768   7.641   3.197
 7667TIP3    H222945   3.870   7.662   3.088
 7668TIP3   OH222946   4.805   1.700   2.959
 7668TIP3    H122947   4.773   1.665   3.042
 7668TIP3    H222948   4.858   1.776   2.985
 7669TIP3   OH222949   5.629   1.948   2.028
 7669TIP3    H122950   5.623   2.040   2.054
 7669TIP3    H222951   5.675   1.906   2.100
 7670TIP3   OH222952   7.801   5.236   6.126
 7670TIP3    H122953   7.847   5.185   6.193
 7670TIP3    H222954   7.827   5.327   6.143
 7671TIP3   OH222955   6.278   7.306   2.259
 7671TIP3    H122956   6.335   7.230   2.265
 7671TIP3    H222957   6.254   7.311   2.166
 7672TIP3   OH222958   6.547   0.617   2.662
 7672TIP3    H122959   6.634   0.621   2.622
 7672TIP3    H222960   6.487   0.610   2.587
 7673TIP3   OH222961   2.710   3.977   5.344
 7673TIP3    H122962   2.779   4.017   5.396
 7673TIP3    H222963   2.755   3.917   5.285
 7674TIP3   OH222964   2.830   5.885   5.003
 7674TIP3    H122965   2.867   5.826   4.937
 7674TIP3    H222966   2.775   5.945   4.954
 7675TIP3   OH222967   4.141   1.048   2.365
 7675TIP3    H122968   4.202   1.109   2.325
 7675TIP3    H222969   4.187   1.015   2.442
 7676TIP3   OH222970   0.110   3.975   1.724
 7676TIP3    H122971   0.063   4.014   1.798
 7676TIP3    H222972   0.168   4.044   1.693
 7677TIP3   OH222973   0.667   1.703   6.379
 7677TIP3    H122974   0.723   1.779   6.371
 7677TIP3    H222975   0.650   1.695   6.473
 7678TIP3   OH222976   1.377   1.529   3.367
 7678TIP3    H122977   1.293   1.488   3.343
 7678TIP3    H222978   1.417   1.553   3.284
 7679TIP3   OH222979   2.710   4.073   3.260
 7679TIP3    H122980   2.776   4.100   3.196
 7679TIP3    H222981   2.750   3.999   3.306
 7680TIP3   OH222982   4.331   5.756   6.167
 7680TIP3    H122983   4.314   5.692   6.098
 7680TIP3    H222984   4.244   5.773   6.204
 7681TIP3   OH222985   4.915   7.546   0.669
 7681TIP3    H122986   4.913   7.487   0.594
 7681TIP3    H222987   4.853   7.616   0.647
 7682TIP3   OH222988   7.683   3.672   2.761
 7682TIP3    H122989   7.732   3.596   2.732
 7682TIP3    H222990   7.616   3.685   2.694
 7683TIP3   OH222991   6.337   6.796   1.197
 7683TIP3    H122992   6.333   6.841   1.112
 7683TIP3    H222993   6.272   6.840   1.251
 7684TIP3   OH222994   3.039   6.468   4.782
 7684TIP3    H122995   2.984   6.545   4.799
 7684TIP3    H222996   3.082   6.488   4.699
 7685TIP3   OH222997   4.813   2.933   3.318
 7685TIP3    H122998   4.826   2.999   3.386
 7685TIP3    H222999   4.849   2.973   3.239
 7686TIP3   OH223000   4.577   5.812   5.489
 7686TIP3    H123001   4.488   5.839   5.513
 7686TIP3    H223002   4.611   5.768   5.567
 7687TIP3   OH223003   1.966   6.512   4.926
 7687TIP3    H123004   2.060   6.525   4.924
 7687TIP3    H223005   1.953   6.422   4.896
 7688TIP3   OH223006   7.077   6.765   0.215
 7688TIP3    H123007   7.116   6.844   0.178
 7688TIP3    H223008   7.019   6.731   0.146
 7689TIP3   OH223009   7.732   1.656   5.485
 7689TIP3    H123010   7.669   1.672   5.555
 7689TIP3    H223011   7.785   1.735   5.482
 7690TIP3   OH223012   1.822   1.795   6.542
 7690TIP3    H123013   1.842   1.849   6.465
 7690TIP3    H223014   1.735   1.759   6.523
 7691TIP3   OH223015   4.453   4.809   4.587
 7691TIP3    H123016   4.506   4.869   4.535
 7691TIP3    H223017   4.516   4.751   4.630
 7692TIP3   OH223018   2.620   5.191   3.387
 7692TIP3    H123019   2.668   5.112   3.361
 7692TIP3    H223020   2.545   5.159   3.437
 7693TIP3   OH223021   3.826   4.080   1.267
 7693TIP3    H123022   3.779   4.055   1.187
 7693TIP3    H223023   3.765   4.057   1.337
 7694TIP3   OH223024   3.400   5.307   1.562
 7694TIP3    H123025   3.328   5.254   1.598
 7694TIP3    H223026   3.422   5.266   1.479
 7695TIP3   OH223027   4.765   0.532   4.451
 7695TIP3    H123028   4.790   0.537   4.359
 7695TIP3    H223029   4.811   0.606   4.493
 7696TIP3   OH223030   0.025   1.302   4.026
 7696TIP3    H123031  -0.014   1.222   3.992
 7696TIP3    H223032   0.119   1.289   4.017
 7697TIP3   OH223033   1.262   4.387   2.716
 7697TIP3    H123034   1.225   4.475   2.721
 7697TIP3    H223035   1.341   4.392   2.768
 7698TIP3   OH223036   8.083   3.266   1.455
 7698TIP3    H123037   8.098   3.309   1.539
 7698TIP3    H223038   8.158   3.290   1.401
 7699TIP3   OH223039   4.712   6.702   3.358
 7699TIP3    H123040   4.633   6.731   3.403
 7699TIP3    H223041   4.766   6.780   3.351
 7700TIP3   OH223042   5.562   3.052   4.674
 7700TIP3    H123043   5.539   3.018   4.761
 7700TIP3    H223044   5.496   3.119   4.657
 7701TIP3   OH223045   0.596   3.148   0.787
 7701TIP3    H123046   0.541   3.155   0.709
 7701TIP3    H223047   0.670   3.206   0.769
 7702TIP3   OH223048   6.278   3.665   0.136
 7702TIP3    H123049   6.275   3.573   0.161
 7702TIP3    H223050   6.370   3.690   0.144
 7703TIP3   OH223051   6.272   6.440   4.603
 7703TIP3    H123052   6.277   6.428   4.697
 7703TIP3    H223053   6.179   6.430   4.582
 7704TIP3   OH223054   8.050   5.617   1.483
 7704TIP3    H123055   8.016   5.702   1.454
 7704TIP3    H223056   8.131   5.605   1.434
 7705TIP3   OH223057   3.315   6.273   1.476
 7705TIP3    H123058   3.360   6.218   1.412
 7705TIP3    H223059   3.379   6.342   1.497
 7706TIP3   OH223060   7.006   4.506   5.571
 7706TIP3    H123061   6.943   4.458   5.626
 7706TIP3    H223062   7.014   4.452   5.492
 7707TIP3   OH223063   4.232   7.447   0.145
 7707TIP3    H123064   4.241   7.451   0.240
 7707TIP3    H223065   4.138   7.451   0.129
 7708TIP3   OH223066   4.499   5.363   1.056
 7708TIP3    H123067   4.478   5.419   0.981
 7708TIP3    H223068   4.590   5.383   1.076
 7709TIP3   OH223069   5.360   6.650   0.723
 7709TIP3    H123070   5.397   6.727   0.681
 7709TIP3    H223071   5.334   6.680   0.810
 7710TIP3   OH223072   6.028   0.664   3.993
 7710TIP3    H123073   6.001   0.754   3.974
 7710TIP3    H223074   6.117   0.674   4.028
 7711TIP3   OH223075   7.322   7.476   0.875
 7711TIP3    H123076   7.336   7.454   0.783
 7711TIP3    H223077   7.234   7.445   0.895
 7712TIP3   OH223078   5.767   5.042   5.755
 7712TIP3    H123079   5.699   5.012   5.695
 7712TIP3    H223080   5.749   4.995   5.837
 7713TIP3   OH223081   5.731   6.843   5.716
 7713TIP3    H123082   5.718   6.938   5.719
 7713TIP3    H223083   5.646   6.808   5.689
 7714TIP3   OH223084   4.383   3.624   2.089
 7714TIP3    H123085   4.453   3.620   2.155
 7714TIP3    H223086   4.359   3.532   2.076
 7715TIP3   OH223087   2.081   1.131   5.758
 7715TIP3    H123088   2.164   1.088   5.737
 7715TIP3    H223089   2.089   1.154   5.851
 7716TIP3   OH223090   3.677   2.190   6.675
 7716TIP3    H123091   3.606   2.126   6.677
 7716TIP3    H223092   3.645   2.258   6.615
 7717TIP3   OH223093   5.647   1.993   0.324
 7717TIP3    H123094   5.665   2.021   0.234
 7717TIP3    H223095   5.729   2.007   0.371
 7718TIP3   OH223096   3.476   6.920   6.325
 7718TIP3    H123097   3.432   6.926   6.410
 7718TIP3    H223098   3.565   6.893   6.346
 7719TIP3   OH223099   4.023   3.798   3.243
 7719TIP3    H123100   4.058   3.775   3.157
 7719TIP3    H223101   4.066   3.881   3.264
 7720TIP3   OH223102   2.979   5.082   1.259
 7720TIP3    H123103   2.992   5.110   1.168
 7720TIP3    H223104   2.914   5.012   1.252
 7721TIP3   OH223105   0.157   4.378   3.572
 7721TIP3    H123106   0.113   4.400   3.653
 7721TIP3    H223107   0.117   4.295   3.544
 7722TIP3   OH223108   5.456   7.207   4.014
 7722TIP3    H123109   5.377   7.156   3.995
 7722TIP3    H223110   5.425   7.298   4.021
 7723TIP3   OH223111   5.395   2.268   4.117
 7723TIP3    H123112   5.336   2.220   4.176
 7723TIP3    H223113   5.387   2.223   4.034
 7724TIP3   OH223114   6.700   3.550   1.611
 7724TIP3    H123115   6.638   3.581   1.677
 7724TIP3    H223116   6.745   3.477   1.653
 7725TIP3   OH223117   7.852   5.589   5.846
 7725TIP3    H123118   7.927   5.601   5.787
 7725TIP3    H223119   7.788   5.654   5.816
 7726TIP3   OH223120   2.778   1.777   0.650
 7726TIP3    H123121   2.789   1.871   0.637
 7726TIP3    H223122   2.859   1.739   0.615
 7727TIP3   OH223123   0.420   6.494   2.947
 7727TIP3    H123124   0.458   6.499   3.035
 7727TIP3    H223125   0.440   6.578   2.907
 7728TIP3   OH223126   2.549   3.733   3.608
 7728TIP3    H123127   2.614   3.663   3.603
 7728TIP3    H223128   2.599   3.813   3.594
 7729TIP3   OH223129   0.543   2.112   3.104
 7729TIP3    H123130   0.590   2.033   3.130
 7729TIP3    H223131   0.612   2.172   3.075
 7730TIP3   OH223132   2.491   5.882   5.378
 7730TIP3    H123133   2.524   5.961   5.337
 7730TIP3    H223134   2.403   5.905   5.408
 7731TIP3   OH223135   7.282   1.743   4.134
 7731TIP3    H123136   7.256   1.833   4.114
 7731TIP3    H223137   7.364   1.730   4.086
 7732TIP3   OH223138   4.705   4.159   2.262
 7732TIP3    H123139   4.693   4.158   2.357
 7732TIP3    H223140   4.676   4.246   2.234
 7733TIP3   OH223141   3.332   2.699   3.859
 7733TIP3    H123142   3.305   2.651   3.937
 7733TIP3    H223143   3.425   2.718   3.874
 7734TIP3   OH223144   5.957   2.060   5.724
 7734TIP3    H123145   6.013   2.032   5.652
 7734TIP3    H223146   5.967   1.992   5.790
 7735TIP3   OH223147   6.213   0.677   1.061
 7735TIP3    H123148   6.278   0.632   1.115
 7735TIP3    H223149   6.140   0.695   1.120
 7736TIP3   OH223150   8.260   4.649   2.934
 7736TIP3    H123151   8.274   4.726   2.878
 7736TIP3    H223152   8.260   4.685   3.023
 7737TIP3   OH223153   6.265   3.906   5.376
 7737TIP3    H123154   6.274   3.914   5.471
 7737TIP3    H223155   6.336   3.846   5.351
 7738TIP3   OH223156   2.910   0.257   4.777
 7738TIP3    H123157   2.901   0.166   4.748
 7738TIP3    H223158   2.944   0.250   4.866
 7739TIP3   OH223159   0.610   5.890   2.478
 7739TIP3    H123160   0.637   5.961   2.420
 7739TIP3    H223161   0.626   5.810   2.427
 7740TIP3   OH223162   2.843   2.469   2.282
 7740TIP3    H123163   2.869   2.378   2.297
 7740TIP3    H223164   2.904   2.521   2.334
 7741TIP3   OH223165   1.868   5.092   4.370
 7741TIP3    H123166   1.940   5.071   4.430
 7741TIP3    H223167   1.838   5.178   4.398
 7742TIP3   OH223168   8.192   6.196   6.607
 7742TIP3    H123169   8.163   6.202   6.698
 7742TIP3    H223170   8.185   6.285   6.573
 7743TIP3   OH223171   5.819   5.058   3.083
 7743TIP3    H123172   5.899   5.048   3.135
 7743TIP3    H223173   5.768   4.979   3.102
 7744TIP3   OH223174   0.309   1.517   3.978
 7744TIP3    H123175   0.250   1.537   3.906
 7744TIP3    H223176   0.280   1.575   4.049
 7745TIP3   OH223177   4.001   2.936   3.410
 7745TIP3    H123178   3.911   2.907   3.419
 7745TIP3    H223179   3.999   3.029   3.431
 7746TIP3   OH223180   6.066   3.496   1.325
 7746TIP3    H123181   6.102   3.482   1.413
 7746TIP3    H223182   5.978   3.457   1.329
 7747TIP3   OH223183   3.917   2.601   0.673
 7747TIP3    H123184   3.917   2.520   0.725
 7747TIP3    H223185   3.846   2.589   0.610
 7748TIP3   OH223186   5.115   0.771   4.406
 7748TIP3    H123187   5.075   0.685   4.394
 7748TIP3    H223188   5.042   0.828   4.434
 7749TIP3   OH223189   5.688   7.487   2.912
 7749TIP3    H123190   5.683   7.558   2.976
 7749TIP3    H223191   5.598   7.469   2.888
 7750TIP3   OH223192   6.198   5.777   4.080
 7750TIP3    H123193   6.214   5.683   4.073
 7750TIP3    H223194   6.286   5.816   4.086
 7751TIP3   OH223195   7.134   1.182   5.693
 7751TIP3    H123196   7.068   1.120   5.662
 7751TIP3    H223197   7.102   1.210   5.779
 7752TIP3   OH223198   2.803   2.902   1.493
 7752TIP3    H123199   2.886   2.916   1.448
 7752TIP3    H223200   2.823   2.839   1.562
 7753TIP3   OH223201   1.048   1.728   1.202
 7753TIP3    H123202   1.127   1.783   1.202
 7753TIP3    H223203   1.036   1.705   1.110
 7754TIP3   OH223204   5.143   2.172   3.691
 7754TIP3    H123205   5.083   2.112   3.646
 7754TIP3    H223206   5.192   2.116   3.752
 7755TIP3   OH223207   7.199   1.670   5.828
 7755TIP3    H123208   7.155   1.745   5.787
 7755TIP3    H223209   7.137   1.598   5.819
 7756TIP3   OH223210   0.166   0.172   1.593
 7756TIP3    H123211   0.196   0.125   1.515
 7756TIP3    H223212   0.246   0.198   1.638
 7757TIP3   OH223213   3.559   2.820   4.576
 7757TIP3    H123214   3.616   2.897   4.579
 7757TIP3    H223215   3.610   2.750   4.615
 7758TIP3   OH223216   4.641   4.658   3.445
 7758TIP3    H123217   4.730   4.645   3.479
 7758TIP3    H223218   4.654   4.692   3.357
 7759TIP3   OH223219   2.745   6.838   6.067
 7759TIP3    H123220   2.721   6.843   5.975
 7759TIP3    H223221   2.798   6.916   6.083
 7760TIP3   OH223222   0.997   5.671   0.265
 7760TIP3    H123223   0.912   5.633   0.244
 7760TIP3    H223224   1.008   5.741   0.201
 7761TIP3   OH223225   5.127   6.847   4.193
 7761TIP3    H123226   5.172   6.908   4.252
 7761TIP3    H223227   5.116   6.896   4.111
 7762TIP3   OH223228   2.899   6.524   5.908
 7762TIP3    H123229   2.912   6.435   5.874
 7762TIP3    H223230   2.804   6.535   5.909
 7763TIP3   OH223231   1.360   3.194   6.193
 7763TIP3    H123232   1.339   3.258   6.124
 7763TIP3    H223233   1.306   3.221   6.268
 7764TIP3   OH223234   0.493   0.088   6.537
 7764TIP3    H123235   0.415   0.071   6.485
 7764TIP3    H223236   0.548   0.011   6.524
 7765TIP3   OH223237   0.424   2.586   1.565
 7765TIP3    H123238   0.414   2.494   1.589
 7765TIP3    H223239   0.412   2.634   1.647
 7766TIP3   OH223240   4.524   6.278   5.148
 7766TIP3    H123241   4.472   6.209   5.189
 7766TIP3    H223242   4.460   6.341   5.115
 7767TIP3   OH223243   3.541   0.345   0.476
 7767TIP3    H123244   3.616   0.376   0.425
 7767TIP3    H223245   3.476   0.416   0.469
 7768TIP3   OH223246   3.518   6.794   5.748
 7768TIP3    H123247   3.446   6.770   5.690
 7768TIP3    H223248   3.587   6.731   5.727
 7769TIP3   OH223249   1.676   7.086   4.484
 7769TIP3    H123250   1.688   7.130   4.567
 7769TIP3    H223251   1.764   7.079   4.447
 7770TIP3   OH223252   4.084   1.509   5.018
 7770TIP3    H123253   3.997   1.548   5.010
 7770TIP3    H223254   4.089   1.479   5.109
 7771TIP3   OH223255   4.268   5.802   2.720
 7771TIP3    H123256   4.204   5.783   2.789
 7771TIP3    H223257   4.217   5.802   2.639
 7772TIP3   OH223258   2.809   6.174   6.164
 7772TIP3    H123259   2.863   6.192   6.088
 7772TIP3    H223260   2.764   6.256   6.183
 7773TIP3   OH223261   3.869   0.326   3.369
 7773TIP3    H123262   3.824   0.324   3.453
 7773TIP3    H223263   3.932   0.254   3.374
 7774TIP3   OH223264   0.667   6.178   3.198
 7774TIP3    H123265   0.679   6.093   3.240
 7774TIP3    H223266   0.598   6.220   3.250
 7775TIP3   OH223267   6.651   7.391   3.679
 7775TIP3    H123268   6.718   7.322   3.677
 7775TIP3    H223269   6.568   7.344   3.674
 7776TIP3   OH223270   1.270   5.744   3.683
 7776TIP3    H123271   1.359   5.722   3.712
 7776TIP3    H223272   1.224   5.770   3.763
 7777TIP3   OH223273   4.088   4.079   0.187
 7777TIP3    H123274   4.034   4.158   0.187
 7777TIP3    H223275   4.099   4.058   0.280
 7778TIP3   OH223276   4.093   3.281   3.691
 7778TIP3    H123277   4.076   3.259   3.599
 7778TIP3    H223278   4.142   3.363   3.687
 7779TIP3   OH223279   5.213   4.581   0.529
 7779TIP3    H123280   5.260   4.623   0.601
 7779TIP3    H223281   5.252   4.494   0.521
 7780TIP3   OH223282   1.308   4.245   5.244
 7780TIP3    H123283   1.350   4.220   5.161
 7780TIP3    H223284   1.311   4.341   5.244
 7781TIP3   OH223285   5.562  -0.080   3.519
 7781TIP3    H123286   5.624  -0.008   3.503
 7781TIP3    H223287   5.573  -0.099   3.613
 7782TIP3   OH223288   3.851   6.212   6.180
 7782TIP3    H123289   3.946   6.225   6.175
 7782TIP3    H223290   3.815   6.301   6.177
 7783TIP3   OH223291   2.172   4.756   1.651
 7783TIP3    H123292   2.192   4.798   1.735
 7783TIP3    H223293   2.222   4.674   1.654
 7784TIP3   OH223294   5.188   1.195   4.103
 7784TIP3    H123295   5.250   1.128   4.132
 7784TIP3    H223296   5.118   1.145   4.060
 7785TIP3   OH223297   6.229   2.393   0.587
 7785TIP3    H123298   6.267   2.377   0.673
 7785TIP3    H223299   6.289   2.352   0.525
 7786TIP3   OH223300   6.562   2.583   1.435
 7786TIP3    H123301   6.553   2.576   1.340
 7786TIP3    H223302   6.621   2.657   1.449
 7787TIP3   OH223303   7.685   7.414   3.264
 7787TIP3    H123304   7.729   7.499   3.252
 7787TIP3    H223305   7.606   7.435   3.314
 7788TIP3   OH223306   5.445   6.826   4.515
 7788TIP3    H123307   5.442   6.827   4.611
 7788TIP3    H223308   5.468   6.736   4.493
 7789TIP3   OH223309   6.037   2.961   3.790
 7789TIP3    H123310   6.066   2.910   3.866
 7789TIP3    H223311   5.976   3.025   3.828
 7790TIP3   OH223312   1.591   5.159   4.415
 7790TIP3    H123313   1.557   5.246   4.393
 7790TIP3    H223314   1.513   5.108   4.437
 7791TIP3   OH223315   3.390   4.315   3.753
 7791TIP3    H123316   3.418   4.227   3.778
 7791TIP3    H223317   3.450   4.373   3.800
 7792TIP3   OH223318   5.728   0.912   2.436
 7792TIP3    H123319   5.688   0.981   2.489
 7792TIP3    H223320   5.656   0.851   2.416
 7793TIP3   OH223321   2.499   5.811   0.150
 7793TIP3    H123322   2.571   5.874   0.141
 7793TIP3    H223323   2.453   5.814   0.066
 7794TIP3   OH223324   7.980   2.091   5.779
 7794TIP3    H123325   7.978   2.183   5.752
 7794TIP3    H223326   7.899   2.079   5.829
 7795TIP3   OH223327   8.158   1.242   6.560
 7795TIP3    H123328   8.139   1.149   6.564
 7795TIP3    H223329   8.112   1.279   6.635
 7796TIP3   OH223330   4.826   2.752   3.587
 7796TIP3    H123331   4.736   2.745   3.617
 7796TIP3    H223332   4.825   2.823   3.523
 7797TIP3   OH223333   0.309   6.586   5.013
 7797TIP3    H123334   0.399   6.554   5.021
 7797TIP3    H223335   0.313   6.647   4.939
 7798TIP3   OH223336   3.663   2.844   3.541
 7798TIP3    H123337   3.716   2.776   3.581
 7798TIP3    H223338   3.575   2.830   3.577
 7799TIP3   OH223339   2.548   2.904   2.765
 7799TIP3    H123340   2.589   2.979   2.722
 7799TIP3    H223341   2.613   2.876   2.829
 7800TIP3   OH223342   5.446   3.470   4.908
 7800TIP3    H123343   5.356   3.460   4.877
 7800TIP3    H223344   5.480   3.544   4.857
 7801TIP3   OH223345   6.624   1.154   2.271
 7801TIP3    H123346   6.703   1.114   2.306
 7801TIP3    H223347   6.629   1.245   2.301
 7802TIP3   OH223348   3.469   6.931   5.282
 7802TIP3    H123349   3.387   6.883   5.298
 7802TIP3    H223350   3.443   7.023   5.285
 7803TIP3   OH223351   3.018   3.414   4.731
 7803TIP3    H123352   3.084   3.433   4.664
 7803TIP3    H223353   2.997   3.499   4.769
 7804TIP3   OH223354   7.283   0.659   4.923
 7804TIP3    H123355   7.329   0.578   4.947
 7804TIP3    H223356   7.326   0.727   4.976
 7805TIP3   OH223357   3.776   1.452   0.207
 7805TIP3    H123358   3.773   1.402   0.289
 7805TIP3    H223359   3.868   1.478   0.199
 7806TIP3   OH223360   3.381   6.375   4.272
 7806TIP3    H123361   3.407   6.311   4.339
 7806TIP3    H223362   3.450   6.368   4.205
 7807TIP3   OH223363   1.404   6.062   2.117
 7807TIP3    H123364   1.372   6.106   2.195
 7807TIP3    H223365   1.453   5.987   2.151
 7808TIP3   OH223366   2.253   5.975   3.107
 7808TIP3    H123367   2.294   5.896   3.142
 7808TIP3    H223368   2.313   6.046   3.130
 7809TIP3   OH223369   3.279   5.376   5.314
 7809TIP3    H123370   3.343   5.384   5.243
 7809TIP3    H223371   3.196   5.356   5.270
 7810TIP3   OH223372   5.848   7.541   4.984
 7810TIP3    H123373   5.872   7.548   4.891
 7810TIP3    H223374   5.871   7.451   5.007
 7811TIP3   OH223375   6.014   3.662  -0.031
 7811TIP3    H123376   6.063   3.644  -0.111
 7811TIP3    H223377   6.079   3.655   0.039
 7812TIP3   OH223378   1.153   5.936   0.697
 7812TIP3    H123379   1.232   5.918   0.748
 7812TIP3    H223380   1.110   5.851   0.687
 7813TIP3   OH223381   4.629   5.877   3.673
 7813TIP3    H123382   4.720   5.905   3.669
 7813TIP3    H223383   4.634   5.783   3.692
 7814TIP3   OH223384   7.840   1.611   6.141
 7814TIP3    H123385   7.932   1.613   6.166
 7814TIP3    H223386   7.828   1.525   6.102
 7815TIP3   OH223387   0.810   5.042   1.722
 7815TIP3    H123388   0.850   5.116   1.678
 7815TIP3    H223389   0.868   4.968   1.704
 7816TIP3   OH223390   3.610   6.276   0.026
 7816TIP3    H123391   3.671   6.345  -0.002
 7816TIP3    H223392   3.664   6.216   0.078
 7817TIP3   OH223393   0.919   1.394   1.392
 7817TIP3    H123394   0.830   1.370   1.418
 7817TIP3    H223395   0.975   1.337   1.444
 7818TIP3   OH223396   6.922   6.150   4.339
 7818TIP3    H123397   6.973   6.097   4.401
 7818TIP3    H223398   6.910   6.094   4.263
 7819TIP3   OH223399   1.773   7.614   3.870
 7819TIP3    H123400   1.821   7.686   3.830
 7819TIP3    H223401   1.811   7.535   3.831
 7820TIP3   OH223402   7.292   2.736   3.433
 7820TIP3    H123403   7.322   2.645   3.432
 7820TIP3    H223404   7.250   2.748   3.347
 7821TIP3   OH223405   0.411   5.550   0.265
 7821TIP3    H123406   0.396   5.497   0.343
 7821TIP3    H223407   0.444   5.489   0.199
 7822TIP3   OH223408   1.865   4.884   5.132
 7822TIP3    H123409   1.933   4.856   5.193
 7822TIP3    H223410   1.883   4.836   5.051
 7823TIP3   OH223411   3.361   5.546   4.883
 7823TIP3    H123412   3.436   5.591   4.920
 7823TIP3    H223413   3.384   5.531   4.792
 7824TIP3   OH223414   5.557   3.552   3.967
 7824TIP3    H123415   5.587   3.588   3.884
 7824TIP3    H223416   5.469   3.518   3.947
 7825TIP3   OH223417   2.986   6.472   3.144
 7825TIP3    H123418   3.054   6.405   3.139
 7825TIP3    H223419   2.992   6.505   3.233
 7826TIP3   OH223420   1.958   3.737   4.156
 7826TIP3    H123421   2.042   3.692   4.149
 7826TIP3    H223422   1.914   3.718   4.073
 7827TIP3   OH223423   7.929   4.398   6.513
 7827TIP3    H123424   7.934   4.343   6.435
 7827TIP3    H223425   7.991   4.359   6.574
 7828TIP3   OH223426   2.716   2.834   2.995
 7828TIP3    H123427   2.655   2.862   3.063
 7828TIP3    H223428   2.749   2.749   3.025
 7829TIP3   OH223429   4.969   2.233   4.048
 7829TIP3    H123430   5.010   2.185   4.120
 7829TIP3    H223431   4.942   2.316   4.086
 7830TIP3   OH223432   7.530   3.148   2.360
 7830TIP3    H123433   7.550   3.099   2.440
 7830TIP3    H223434   7.485   3.227   2.391
 7831TIP3   OH223435   3.581   2.550   0.343
 7831TIP3    H123436   3.516   2.563   0.413
 7831TIP3    H223437   3.566   2.461   0.314
 7832TIP3   OH223438   4.320   5.743   2.460
 7832TIP3    H123439   4.379   5.671   2.483
 7832TIP3    H223440   4.377   5.819   2.452
 7833TIP3   OH223441   2.770   3.001   1.006
 7833TIP3    H123442   2.710   2.946   0.956
 7833TIP3    H223443   2.725   3.016   1.089
 7834TIP3   OH223444   0.526   5.721   1.588
 7834TIP3    H123445   0.435   5.689   1.580
 7834TIP3    H223446   0.578   5.655   1.542
 7835TIP3   OH223447   7.576   0.306   0.967
 7835TIP3    H123448   7.664   0.328   0.935
 7835TIP3    H223449   7.532   0.266   0.892
 7836TIP3   OH223450   5.646   5.867   1.706
 7836TIP3    H123451   5.576   5.842   1.766
 7836TIP3    H223452   5.707   5.917   1.759
 7837TIP3   OH223453   4.176   3.766   1.440
 7837TIP3    H123454   4.141   3.837   1.387
 7837TIP3    H223455   4.150   3.686   1.394
 7838TIP3   OH223456   0.240   5.686   1.675
 7838TIP3    H123457   0.202   5.734   1.750
 7838TIP3    H223458   0.173   5.693   1.607
 7839TIP3   OH223459   2.424   7.113   1.912
 7839TIP3    H123460   2.459   7.032   1.948
 7839TIP3    H223461   2.486   7.180   1.940
 7840TIP3   OH223462   6.053   2.180   2.520
 7840TIP3    H123463   6.013   2.204   2.437
 7840TIP3    H223464   6.109   2.255   2.542
 7841TIP3   OH223465   3.397   2.421   2.150
 7841TIP3    H123466   3.376   2.396   2.240
 7841TIP3    H223467   3.334   2.373   2.097
 7842TIP3   OH223468   4.692   4.856   6.218
 7842TIP3    H123469   4.716   4.822   6.304
 7842TIP3    H223470   4.694   4.779   6.160
 7843TIP3   OH223471   1.944   4.700   5.635
 7843TIP3    H123472   2.023   4.740   5.599
 7843TIP3    H223473   1.891   4.679   5.557
 7844TIP3   OH223474   1.604   0.633   2.992
 7844TIP3    H123475   1.525   0.619   3.044
 7844TIP3    H223476   1.663   0.682   3.050
 7845TIP3   OH223477   6.305   7.359   4.224
 7845TIP3    H123478   6.258   7.408   4.156
 7845TIP3    H223479   6.385   7.328   4.180
 7846TIP3   OH223480   5.050   6.565   2.138
 7846TIP3    H123481   5.085   6.573   2.049
 7846TIP3    H223482   5.124   6.532   2.190
 7847TIP3   OH223483   4.053   6.803   1.647
 7847TIP3    H123484   3.988   6.870   1.627
 7847TIP3    H223485   4.003   6.730   1.684
 7848TIP3   OH223486   5.482   2.780   0.352
 7848TIP3    H123487   5.391   2.783   0.321
 7848TIP3    H223488   5.513   2.870   0.344
 7849TIP3   OH223489   4.307   6.158   5.242
 7849TIP3    H123490   4.288   6.147   5.335
 7849TIP3    H223491   4.221   6.176   5.203
 7850TIP3   OH223492   6.625   4.356   1.224
 7850TIP3    H123493   6.690   4.419   1.194
 7850TIP3    H223494   6.541   4.400   1.208
 7851TIP3   OH223495   1.201   6.720   3.833
 7851TIP3    H123496   1.259   6.673   3.892
 7851TIP3    H223497   1.259   6.764   3.771
 7852TIP3   OH223498   3.515   2.327   6.189
 7852TIP3    H123499   3.489   2.415   6.218
 7852TIP3    H223500   3.446   2.301   6.128
 7853TIP3   OH223501   1.267   1.208   3.980
 7853TIP3    H123502   1.273   1.200   4.075
 7853TIP3    H223503   1.236   1.297   3.966
 7854TIP3   OH223504   8.126   6.408   4.560
 7854TIP3    H123505   8.117   6.319   4.527
 7854TIP3    H223506   8.036   6.434   4.583
 7855TIP3   OH223507   1.845   6.441   4.605
 7855TIP3    H123508   1.846   6.393   4.522
 7855TIP3    H223509   1.856   6.374   4.672
 7856TIP3   OH223510   0.777   0.578   4.065
 7856TIP3    H123511   0.682   0.589   4.074
 7856TIP3    H223512   0.793   0.582   3.971
 7857TIP3   OH223513   6.617   2.146   6.184
 7857TIP3    H123514   6.633   2.239   6.204
 7857TIP3    H223515   6.681   2.125   6.116
 7858TIP3   OH223516   8.180   5.745   4.630
 7858TIP3    H123517   8.144   5.657   4.626
 7858TIP3    H223518   8.158   5.776   4.719
 7859TIP3   OH223519   1.590   5.692   1.403
 7859TIP3    H123520   1.620   5.730   1.486
 7859TIP3    H223521   1.612   5.758   1.337
 7860TIP3   OH223522   6.694   0.021   0.753
 7860TIP3    H123523   6.683   0.114   0.733
 7860TIP3    H223524   6.788   0.010   0.767
 7861TIP3   OH223525   4.472   3.893   2.049
 7861TIP3    H123526   4.486   3.799   2.060
 7861TIP3    H223527   4.418   3.899   1.969
 7862TIP3   OH223528   1.468   1.143   0.935
 7862TIP3    H123529   1.544   1.085   0.926
 7862TIP3    H223530   1.454   1.149   1.030
 7863TIP3   OH223531   8.242   0.942   5.502
 7863TIP3    H123532   8.324   0.955   5.454
 7863TIP3    H223533   8.202   0.866   5.461
 7864TIP3   OH223534   7.994   3.708   0.523
 7864TIP3    H123535   7.964   3.687   0.434
 7864TIP3    H223536   8.084   3.737   0.512
 7865TIP3   OH223537   3.386   7.036   1.539
 7865TIP3    H123538   3.408   7.009   1.450
 7865TIP3    H223539   3.291   7.047   1.537
 7866TIP3   OH223540   4.315   5.422   1.436
 7866TIP3    H123541   4.348   5.489   1.375
 7866TIP3    H223542   4.240   5.463   1.478
 7867TIP3   OH223543   5.836   1.752   3.622
 7867TIP3    H123544   5.929   1.753   3.600
 7867TIP3    H223545   5.819   1.661   3.645
 7868TIP3   OH223546   4.617   5.885   4.049
 7868TIP3    H123547   4.596   5.948   3.980
 7868TIP3    H223548   4.578   5.923   4.128
 7869TIP3   OH223549   5.037   6.590   3.971
 7869TIP3    H123550   5.061   6.546   3.889
 7869TIP3    H223551   5.119   6.595   4.020
 7870TIP3   OH223552   2.921   3.132   6.691
 7870TIP3    H123553   2.997   3.147   6.747
 7870TIP3    H223554   2.898   3.219   6.657
 7871TIP3   OH223555   2.362   4.462   2.018
 7871TIP3    H123556   2.275   4.495   1.995
 7871TIP3    H223557   2.368   4.471   2.113
 7872TIP3   OH223558   4.860   1.456   5.116
 7872TIP3    H123559   4.921   1.448   5.189
 7872TIP3    H223560   4.904   1.415   5.042
 7873TIP3   OH223561   2.977   0.383   0.628
 7873TIP3    H123562   2.895   0.340   0.602
 7873TIP3    H223563   2.964   0.475   0.606
 7874TIP3   OH223564   5.550   7.335   1.078
 7874TIP3    H123565   5.531   7.413   1.130
 7874TIP3    H223566   5.637   7.351   1.042
 7875TIP3   OH223567   5.615   0.915   6.130
 7875TIP3    H123568   5.522   0.906   6.151
 7875TIP3    H223569   5.649   0.975   6.197
 7876TIP3   OH223570   1.067   5.643   4.951
 7876TIP3    H123571   1.039   5.664   4.862
 7876TIP3    H223572   1.153   5.604   4.941
 7877TIP3   OH223573   8.221   3.926   3.576
 7877TIP3    H123574   8.283   3.936   3.649
 7877TIP3    H223575   8.138   3.962   3.610
 7878TIP3   OH223576   2.777   0.476   3.529
 7878TIP3    H123577   2.774   0.547   3.466
 7878TIP3    H223578   2.715   0.411   3.495
 7879TIP3   OH223579   7.195   5.067   3.903
 7879TIP3    H123580   7.109   5.087   3.941
 7879TIP3    H223581   7.209   4.974   3.923
 7880TIP3   OH223582   0.408   2.561   0.561
 7880TIP3    H123583   0.466   2.511   0.504
 7880TIP3    H223584   0.449   2.555   0.648
 7881TIP3   OH223585   5.604   1.874   5.625
 7881TIP3    H123586   5.520   1.846   5.588
 7881TIP3    H223587   5.649   1.792   5.643
 7882TIP3   OH223588   8.242   6.793   0.052
 7882TIP3    H123589   8.194   6.751   0.124
 7882TIP3    H223590   8.332   6.764   0.063
 7883TIP3   OH223591   5.499   2.281   6.240
 7883TIP3    H123592   5.545   2.201   6.267
 7883TIP3    H223593   5.421   2.284   6.296
 7884TIP3   OH223594   1.926   0.258   4.322
 7884TIP3    H123595   1.997   0.321   4.309
 7884TIP3    H223596   1.858   0.307   4.368
 7885TIP3   OH223597   5.078   3.517   3.867
 7885TIP3    H123598   5.017   3.499   3.939
 7885TIP3    H223599   5.163   3.491   3.901
 7886TIP3   OH223600   6.373   0.480   2.923
 7886TIP3    H123601   6.442   0.538   2.956
 7886TIP3    H223602   6.409   0.444   2.842
 7887TIP3   OH223603   6.439   6.210   3.001
 7887TIP3    H123604   6.405   6.300   3.000
 7887TIP3    H223605   6.534   6.220   2.996
 7888TIP3   OH223606   4.926   7.095   0.126
 7888TIP3    H123607   5.016   7.121   0.107
 7888TIP3    H223608   4.922   7.003   0.101
 7889TIP3   OH223609   1.318   0.485   2.538
 7889TIP3    H123610   1.364   0.569   2.538
 7889TIP3    H223611   1.247   0.497   2.475
 7890TIP3   OH223612   4.912   6.164   3.909
 7890TIP3    H123613   4.924   6.071   3.890
 7890TIP3    H223614   4.954   6.208   3.835
 7891TIP3   OH223615   3.296   3.756   6.451
 7891TIP3    H123616   3.201   3.755   6.464
 7891TIP3    H223617   3.332   3.753   6.540
 7892TIP3   OH223618   1.258   3.807   3.529
 7892TIP3    H123619   1.305   3.836   3.451
 7892TIP3    H223620   1.313   3.738   3.566
 7893TIP3   OH223621   7.257   2.275   6.382
 7893TIP3    H123622   7.318   2.215   6.340
 7893TIP3    H223623   7.301   2.360   6.381
 7894TIP3   OH223624   1.075   6.583   0.717
 7894TIP3    H123625   1.091   6.669   0.679
 7894TIP3    H223626   1.157   6.536   0.705
 7895TIP3   OH223627   1.257   6.803   2.506
 7895TIP3    H123628   1.206   6.882   2.520
 7895TIP3    H223629   1.325   6.828   2.444
 7896TIP3   OH223630   1.844   0.804   2.974
 7896TIP3    H123631   1.933   0.839   2.967
 7896TIP3    H223632   1.808   0.848   3.051
 7897TIP3   OH223633   6.606   4.417   4.131
 7897TIP3    H123634   6.551   4.494   4.151
 7897TIP3    H223635   6.591   4.401   4.038
 7898TIP3   OH223636   1.658   3.959   3.100
 7898TIP3    H123637   1.727   4.018   3.070
 7898TIP3    H223638   1.591   3.964   3.031
 7899TIP3   OH223639   4.783   3.412   4.497
 7899TIP3    H123640   4.804   3.336   4.444
 7899TIP3    H223641   4.703   3.448   4.458
 7900TIP3   OH223642   1.608   1.379   3.640
 7900TIP3    H123643   1.560   1.454   3.674
 7900TIP3    H223644   1.552   1.304   3.659
 7901TIP3   OH223645   3.418   2.817   0.497
 7901TIP3    H123646   3.439   2.759   0.570
 7901TIP3    H223647   3.473   2.894   0.510
 7902TIP3   OH223648   5.756   3.943   1.289
 7902TIP3    H123649   5.819   3.911   1.225
 7902TIP3    H223650   5.756   3.877   1.358
 7903TIP3   OH223651   0.135   5.776   6.650
 7903TIP3    H123652   0.139   5.750   6.742
 7903TIP3    H223653   0.041   5.777   6.630
 7904TIP3   OH223654   6.168   1.534   1.689
 7904TIP3    H123655   6.202   1.488   1.766
 7904TIP3    H223656   6.165   1.468   1.620
 7905TIP3   OH223657   7.842   1.175   4.092
 7905TIP3    H123658   7.863   1.089   4.054
 7905TIP3    H223659   7.791   1.154   4.170
 7906TIP3   OH223660   2.858   1.962   3.753
 7906TIP3    H123661   2.907   1.885   3.723
 7906TIP3    H223662   2.814   1.934   3.833
 7907TIP3   OH223663   0.608   5.335   4.114
 7907TIP3    H123664   0.659   5.357   4.192
 7907TIP3    H223665   0.519   5.362   4.135
 7908TIP3   OH223666   7.032   7.002   4.192
 7908TIP3    H123667   7.076   6.997   4.277
 7908TIP3    H223668   6.979   6.923   4.188
 7909TIP3   OH223669   1.578   1.910   5.185
 7909TIP3    H123670   1.531   1.935   5.265
 7909TIP3    H223671   1.606   1.820   5.200
 7910TIP3   OH223672   2.209   0.911   5.567
 7910TIP3    H123673   2.115   0.897   5.580
 7910TIP3    H223674   2.216   0.947   5.479
 7911TIP3   OH223675   3.667   0.106   1.084
 7911TIP3    H123676   3.717   0.074   1.009
 7911TIP3    H223677   3.699   0.196   1.097
 7912TIP3   OH223678   5.335   6.281   4.631
 7912TIP3    H123679   5.311   6.309   4.543
 7912TIP3    H223680   5.415   6.230   4.618
 7913TIP3   OH223681   2.253   2.744   3.874
 7913TIP3    H123682   2.291   2.826   3.841
 7913TIP3    H223683   2.159   2.754   3.858
 7914TIP3   OH223684   0.368   7.341   5.457
 7914TIP3    H123685   0.397   7.410   5.397
 7914TIP3    H223686   0.367   7.261   5.405
 7915TIP3   OH223687   1.231   0.285   4.656
 7915TIP3    H123688   1.198   0.277   4.745
 7915TIP3    H223689   1.248   0.195   4.628
 7916TIP3   OH223690   6.673   2.783   5.229
 7916TIP3    H123691   6.705   2.763   5.141
 7916TIP3    H223692   6.592   2.832   5.215
 7917TIP3   OH223693   2.355   3.597   5.318
 7917TIP3    H123694   2.330   3.525   5.260
 7917TIP3    H223695   2.444   3.576   5.347
 7918TIP3   OH223696   3.875   2.803   4.238
 7918TIP3    H123697   3.838   2.889   4.222
 7918TIP3    H223698   3.900   2.804   4.331
 7919TIP3   OH223699   4.508   4.461   2.321
 7919TIP3    H123700   4.425   4.508   2.332
 7919TIP3    H223701   4.563   4.493   2.393
 7920TIP3   OH223702   6.915   1.137   3.159
 7920TIP3    H123703   6.930   1.210   3.219
 7920TIP3    H223704   6.916   1.177   3.072
 7921TIP3   OH223705   3.278   3.838   0.034
 7921TIP3    H123706   3.344   3.866  -0.029
 7921TIP3    H223707   3.196   3.875   0.001
 7922TIP3   OH223708   2.297   2.088   5.729
 7922TIP3    H123709   2.275   2.150   5.798
 7922TIP3    H223710   2.393   2.081   5.732
 7923TIP3   OH223711   7.251   3.715   5.790
 7923TIP3    H123712   7.174   3.747   5.838
 7923TIP3    H223713   7.229   3.728   5.698
 7924TIP3   OH223714   0.158   3.513   2.699
 7924TIP3    H123715   0.220   3.443   2.676
 7924TIP3    H223716   0.105   3.525   2.621
 7925TIP3   OH223717   6.626   4.672   1.129
 7925TIP3    H123718   6.665   4.678   1.216
 7925TIP3    H223719   6.537   4.641   1.145
 7926TIP3   OH223720   2.383   0.642   4.315
 7926TIP3    H123721   2.403   0.699   4.240
 7926TIP3    H223722   2.378   0.702   4.389
 7927TIP3   OH223723   5.245   6.884   5.032
 7927TIP3    H123724   5.230   6.790   5.040
 7927TIP3    H223725   5.158   6.922   5.040
 7928TIP3   OH223726   4.579   1.897   3.684
 7928TIP3    H123727   4.558   1.946   3.764
 7928TIP3    H223728   4.626   1.960   3.630
 7929TIP3   OH223729   7.862   4.375   1.108
 7929TIP3    H123730   7.774   4.337   1.112
 7929TIP3    H223731   7.915   4.317   1.163
 7930TIP3   OH223732   1.986   5.645   1.487
 7930TIP3    H123733   1.946   5.721   1.529
 7930TIP3    H223734   1.913   5.599   1.445
 7931TIP3   OH223735   2.606   6.623   3.411
 7931TIP3    H123736   2.570   6.709   3.434
 7931TIP3    H223737   2.671   6.642   3.343
 7932TIP3   OH223738   1.314   5.200   4.608
 7932TIP3    H123739   1.339   5.108   4.607
 7932TIP3    H223740   1.381   5.243   4.661
 7933TIP3   OH223741   3.715   5.866   3.109
 7933TIP3    H123742   3.792   5.915   3.079
 7933TIP3    H223743   3.640   5.919   3.082
 7934TIP3   OH223744   6.408   2.009   6.297
 7934TIP3    H123745   6.345   2.068   6.258
 7934TIP3    H223746   6.493   2.050   6.281
 7935TIP3   OH223747   7.058   6.159   2.014
 7935TIP3    H123748   7.075   6.169   1.921
 7935TIP3    H223749   6.974   6.203   2.028
 7936TIP3   OH223750   7.625   5.775   1.462
 7936TIP3    H123751   7.558   5.836   1.492
 7936TIP3    H223752   7.708   5.821   1.476
 7937TIP3   OH223753   1.128   2.024   1.318
 7937TIP3    H123754   1.100   1.991   1.404
 7937TIP3    H223755   1.201   2.082   1.337
 7938TIP3   OH223756   2.874   7.323   4.887
 7938TIP3    H123757   2.878   7.385   4.814
 7938TIP3    H223758   2.801   7.266   4.865
 7939TIP3   OH223759   7.099   3.608   0.391
 7939TIP3    H123760   7.091   3.513   0.384
 7939TIP3    H223761   7.141   3.635   0.310
 7940TIP3   OH223762   7.585   6.133   4.692
 7940TIP3    H123763   7.541   6.198   4.638
 7940TIP3    H223764   7.644   6.183   4.748
 7941TIP3   OH223765   7.513   0.843   5.947
 7941TIP3    H123766   7.508   0.748   5.942
 7941TIP3    H223767   7.542   0.861   6.036
 7942TIP3   OH223768   1.822   6.076   0.640
 7942TIP3    H123769   1.864   6.039   0.563
 7942TIP3    H223770   1.746   6.124   0.606
 7943TIP3   OH223771   1.064   2.528   0.459
 7943TIP3    H123772   1.016   2.445   0.467
 7943TIP3    H223773   1.146   2.514   0.507
 7944TIP3   OH223774   7.035   3.389   1.059
 7944TIP3    H123775   7.088   3.459   1.021
 7944TIP3    H223776   7.039   3.319   0.994
 7945TIP3   OH223777   6.402   1.095   0.054
 7945TIP3    H123778   6.349   1.027   0.094
 7945TIP3    H223779   6.352   1.123  -0.023
 7946TIP3   OH223780   0.710   7.336   4.577
 7946TIP3    H123781   0.764   7.383   4.513
 7946TIP3    H223782   0.620   7.363   4.558
 7947TIP3   OH223783   7.318   0.524   0.271
 7947TIP3    H123784   7.358   0.545   0.355
 7947TIP3    H223785   7.227   0.504   0.291
 7948TIP3   OH223786   7.907   6.866   2.727
 7948TIP3    H123787   7.927   6.773   2.736
 7948TIP3    H223788   7.908   6.900   2.817
 7949TIP3   OH223789   0.654   2.440   3.438
 7949TIP3    H123790   0.681   2.461   3.349
 7949TIP3    H223791   0.734   2.416   3.483
 7950TIP3   OH223792   4.278   2.486   3.502
 7950TIP3    H123793   4.266   2.443   3.587
 7950TIP3    H223794   4.269   2.579   3.521
 7951TIP3   OH223795   5.150   5.668   1.907
 7951TIP3    H123796   5.191   5.692   1.823
 7951TIP3    H223797   5.145   5.751   1.955
 7952TIP3   OH223798   0.767   4.377   0.454
 7952TIP3    H123799   0.723   4.385   0.369
 7952TIP3    H223800   0.803   4.464   0.471
 7953TIP3   OH223801   1.444   1.322   0.096
 7953TIP3    H123802   1.517   1.375   0.126
 7953TIP3    H223803   1.457   1.236   0.136
 7954TIP3   OH223804   1.762   4.352   5.644
 7954TIP3    H123805   1.788   4.358   5.736
 7954TIP3    H223806   1.670   4.378   5.643
 7955TIP3   OH223807   7.581   5.137   5.981
 7955TIP3    H123808   7.641   5.194   6.028
 7955TIP3    H223809   7.576   5.058   6.035
 7956TIP3   OH223810   2.791   6.013   0.499
 7956TIP3    H123811   2.696   6.001   0.498
 7956TIP3    H223812   2.820   5.972   0.581
 7957TIP3   OH223813   5.040   1.164   5.529
 7957TIP3    H123814   5.011   1.077   5.556
 7957TIP3    H223815   5.070   1.152   5.438
 7958TIP3   OH223816   7.048   6.678   1.105
 7958TIP3    H123817   6.968   6.667   1.156
 7958TIP3    H223818   7.019   6.719   1.023
 7959TIP3   OH223819   4.867   0.987   1.775
 7959TIP3    H123820   4.829   1.073   1.791
 7959TIP3    H223821   4.869   0.978   1.680
 7960TIP3   OH223822   5.794   7.731   3.017
 7960TIP3    H123823   5.732   7.758   3.085
 7960TIP3    H223824   5.786   7.797   2.949
 7961TIP3   OH223825   6.767   3.359   0.451
 7961TIP3    H123826   6.819   3.407   0.516
 7961TIP3    H223827   6.712   3.301   0.503
 7962TIP3   OH223828   5.692   3.951   6.406
 7962TIP3    H123829   5.728   3.938   6.319
 7962TIP3    H223830   5.643   4.033   6.400
 7963TIP3   OH223831   4.422   6.090   2.765
 7963TIP3    H123832   4.396   6.130   2.682
 7963TIP3    H223833   4.372   6.008   2.769
 7964TIP3   OH223834   0.664   0.326   6.278
 7964TIP3    H123835   0.574   0.355   6.292
 7964TIP3    H223836   0.712   0.362   6.354
 7965TIP3   OH223837   1.106   2.587   6.382
 7965TIP3    H123838   1.132   2.518   6.443
 7965TIP3    H223839   1.145   2.667   6.417
 7966TIP3   OH223840   0.664   6.731   3.145
 7966TIP3    H123841   0.674   6.776   3.229
 7966TIP3    H223842   0.727   6.774   3.088
 7967TIP3   OH223843   4.208   1.117   1.644
 7967TIP3    H123844   4.297   1.105   1.612
 7967TIP3    H223845   4.194   1.044   1.703
 7968TIP3   OH223846   7.078   5.503   3.504
 7968TIP3    H123847   7.105   5.418   3.471
 7968TIP3    H223848   7.159   5.554   3.510
 7969TIP3   OH223849   8.080   0.863   2.244
 7969TIP3    H123850   8.108   0.778   2.209
 7969TIP3    H223851   7.990   0.849   2.272
 7970TIP3   OH223852   7.923   4.176   0.814
 7970TIP3    H123853   7.837   4.139   0.830
 7970TIP3    H223854   7.969   4.168   0.898
 7971TIP3   OH223855   7.195   7.179   4.442
 7971TIP3    H123856   7.225   7.270   4.438
 7971TIP3    H223857   7.102   7.185   4.464
 7972TIP3   OH223858   3.180   7.743   6.357
 7972TIP3    H123859   3.174   7.723   6.264
 7972TIP3    H223860   3.274   7.738   6.376
 7973TIP3   OH223861   7.312   3.484   5.578
 7973TIP3    H123862   7.278   3.403   5.618
 7973TIP3    H223863   7.241   3.514   5.521
 7974TIP3   OH223864   2.533   4.655   0.831
 7974TIP3    H123865   2.528   4.651   0.735
 7974TIP3    H223866   2.456   4.705   0.857
 7975TIP3   OH223867   8.164   0.359   0.915
 7975TIP3    H123868   8.201   0.308   0.987
 7975TIP3    H223869   8.083   0.395   0.950
 7976TIP3   OH223870   2.048   0.989   4.037
 7976TIP3    H123871   1.997   1.065   4.064
 7976TIP3    H223872   2.139   1.018   4.043
 7977TIP3   OH223873   6.243   3.751   3.663
 7977TIP3    H123874   6.244   3.817   3.594
 7977TIP3    H223875   6.275   3.797   3.741
 7978TIP3   OH223876   1.248   0.811   2.346
 7978TIP3    H123877   1.317   0.753   2.312
 7978TIP3    H223878   1.202   0.841   2.268
 7979TIP3   OH223879   4.584   1.559   2.880
 7979TIP3    H123880   4.589   1.482   2.937
 7979TIP3    H223881   4.652   1.618   2.913
 7980TIP3   OH223882   0.184   0.307   3.095
 7980TIP3    H123883   0.243   0.250   3.046
 7980TIP3    H223884   0.162   0.377   3.033
 7981TIP3   OH223885   8.107   5.820   3.013
 7981TIP3    H123886   8.166   5.751   2.982
 7981TIP3    H223887   8.117   5.890   2.949
 7982TIP3   OH223888   7.415   7.113   4.128
 7982TIP3    H123889   7.393   7.077   4.214
 7982TIP3    H223890   7.349   7.076   4.069
 7983TIP3   OH223891   5.692   0.302   3.438
 7983TIP3    H123892   5.713   0.354   3.360
 7983TIP3    H223893   5.740   0.220   3.426
 7984TIP3   OH223894   5.918   5.962   2.556
 7984TIP3    H123895   5.971   6.037   2.531
 7984TIP3    H223896   5.833   5.976   2.512
 7985TIP3   OH223897   0.193   1.426   0.329
 7985TIP3    H123898   0.111   1.401   0.287
 7985TIP3    H223899   0.166   1.461   0.414
 7986TIP3   OH223900   3.574   6.895   3.361
 7986TIP3    H123901   3.603   6.959   3.427
 7986TIP3    H223902   3.496   6.855   3.400
 7987TIP3   OH223903   5.252   4.407   0.132
 7987TIP3    H123904   5.347   4.395   0.128
 7987TIP3    H223905   5.238   4.462   0.209
 7988TIP3   OH223906   6.028   1.615   2.300
 7988TIP3    H123907   6.059   1.675   2.231
 7988TIP3    H223908   5.933   1.620   2.294
 7989TIP3   OH223909   0.341   0.661   0.577
 7989TIP3    H123910   0.345   0.750   0.611
 7989TIP3    H223911   0.265   0.622   0.620
 7990TIP3   OH223912   2.558   3.875   3.099
 7990TIP3    H123913   2.462   3.879   3.105
 7990TIP3    H223914   2.588   3.949   3.151
 7991TIP3   OH223915   5.524   1.320   6.426
 7991TIP3    H123916   5.583   1.256   6.386
 7991TIP3    H223917   5.547   1.403   6.384
 7992TIP3   OH223918   5.128   6.008   2.679
 7992TIP3    H123919   5.071   6.015   2.603
 7992TIP3    H223920   5.070   6.020   2.754
 7993TIP3   OH223921   1.028   1.356   1.956
 7993TIP3    H123922   1.101   1.406   1.921
 7993TIP3    H223923   0.950   1.403   1.926
 7994TIP3   OH223924   0.457   3.319   3.897
 7994TIP3    H123925   0.443   3.230   3.930
 7994TIP3    H223926   0.439   3.313   3.803
 7995TIP3   OH223927   4.455   1.317   2.602
 7995TIP3    H123928   4.531   1.290   2.550
 7995TIP3    H223929   4.466   1.412   2.613
 7996TIP3   OH223930   4.852   0.083   5.146
 7996TIP3    H123931   4.859   0.162   5.199
 7996TIP3    H223932   4.779   0.100   5.087
 7997TIP3   OH223933   1.627   5.381   1.856
 7997TIP3    H123934   1.698   5.378   1.920
 7997TIP3    H223935   1.672   5.377   1.771
 7998TIP3   OH223936   1.965   7.330   1.127
 7998TIP3    H123937   1.921   7.278   1.194
 7998TIP3    H223938   2.038   7.372   1.173
 7999TIP3   OH223939   4.422   3.710   5.982
 7999TIP3    H123940   4.339   3.707   5.935
 7999TIP3    H223941   4.401   3.674   6.068
 8000TIP3   OH223942   2.371   6.918   6.065
 8000TIP3    H123943   2.280   6.903   6.092
 8000TIP3    H223944   2.363   6.967   5.983
 8001TIP3   OH223945   3.136   7.160   1.284
 8001TIP3    H123946   3.209   7.099   1.291
 8001TIP3    H223947   3.123   7.171   1.190
 8002TIP3   OH223948   5.288   1.837   0.383
 8002TIP3    H123949   5.193   1.836   0.393
 8002TIP3    H223950   5.318   1.764   0.437
 8003TIP3   OH223951   5.211   6.559   5.335
 8003TIP3    H123952   5.230   6.644   5.373
 8003TIP3    H223953   5.128   6.532   5.376
 8004TIP3   OH223954   2.291   3.706   3.744
 8004TIP3    H123955   2.232   3.654   3.690
 8004TIP3    H223956   2.379   3.682   3.715
 8005TIP3   OH223957   6.459   6.377   5.874
 8005TIP3    H123958   6.491   6.464   5.900
 8005TIP3    H223959   6.524   6.316   5.909
 8006TIP3   OH223960   6.770   1.305   0.690
 8006TIP3    H123961   6.747   1.390   0.727
 8006TIP3    H223962   6.844   1.323   0.632
 8007TIP3   OH223963   1.141   4.302   3.421
 8007TIP3    H123964   1.091   4.312   3.340
 8007TIP3    H223965   1.102   4.365   3.481
 8008TIP3   OH223966   3.144   2.115   3.544
 8008TIP3    H123967   3.186   2.043   3.592
 8008TIP3    H223968   3.093   2.071   3.476
 8009TIP3   OH223969   3.654   6.828   0.911
 8009TIP3    H123970   3.640   6.740   0.878
 8009TIP3    H223971   3.749   6.840   0.912
 8010TIP3   OH223972   3.155   7.537   4.533
 8010TIP3    H123973   3.093   7.531   4.460
 8010TIP3    H223974   3.114   7.599   4.593
 8011TIP3   OH223975   4.810   6.095   1.116
 8011TIP3    H123976   4.871   6.096   1.042
 8011TIP3    H223977   4.727   6.067   1.078
 8012TIP3   OH223978   4.187   2.309   0.560
 8012TIP3    H123979   4.166   2.225   0.518
 8012TIP3    H223980   4.103   2.348   0.580
 8013TIP3   OH223981   5.535   7.024   4.839
 8013TIP3    H123982   5.443   7.028   4.810
 8013TIP3    H223983   5.530   7.010   4.933
 8014TIP3   OH223984   5.929   4.901   4.766
 8014TIP3    H123985   6.018   4.865   4.766
 8014TIP3    H223986   5.884   4.855   4.837
 8015TIP3   OH223987   3.761   7.717   1.667
 8015TIP3    H123988   3.698   7.666   1.615
 8015TIP3    H223989   3.760   7.675   1.753
 8016TIP3   OH223990   1.683   7.461   1.301
 8016TIP3    H123991   1.677   7.409   1.222
 8016TIP3    H223992   1.610   7.432   1.355
 8017TIP3   OH223993   5.239   7.544   1.352
 8017TIP3    H123994   5.159   7.596   1.364
 8017TIP3    H223995   5.210   7.454   1.349
 8018TIP3   OH223996   5.680   1.978   3.511
 8018TIP3    H123997   5.737   1.905   3.536
 8018TIP3    H223998   5.724   2.017   3.435
 8019TIP3   OH223999   3.030   6.621   5.223
 8019TIP3    H124000   3.041   6.530   5.195
 8019TIP3    H224001   3.016   6.670   5.142
 8020TIP3   OH224002   7.364   3.738   3.920
 8020TIP3    H124003   7.362   3.702   3.832
 8020TIP3    H224004   7.325   3.825   3.911
 8021TIP3   OH224005   0.175   6.688   0.415
 8021TIP3    H124006   0.094   6.739   0.416
 8021TIP3    H224007   0.212   6.705   0.328
 8022TIP3   OH224008   6.524   1.901   2.841
 8022TIP3    H124009   6.563   1.815   2.858
 8022TIP3    H224010   6.581   1.941   2.775
 8023TIP3   OH224011   4.391   1.156   5.260
 8023TIP3    H124012   4.361   1.078   5.212
 8023TIP3    H224013   4.346   1.152   5.344
 8024TIP3   OH224014   1.827   7.645   1.508
 8024TIP3    H124015   1.809   7.615   1.419
 8024TIP3    H224016   1.839   7.565   1.559
 8025TIP3   OH224017   6.491   2.973   5.159
 8025TIP3    H124018   6.416   3.005   5.110
 8025TIP3    H224019   6.465   2.980   5.251
 8026TIP3   OH224020   2.289   5.655   4.466
 8026TIP3    H124021   2.302   5.693   4.552
 8026TIP3    H224022   2.205   5.692   4.436
 8027TIP3   OH224023   3.331   2.219   3.858
 8027TIP3    H124024   3.240   2.249   3.867
 8027TIP3    H224025   3.379   2.269   3.925
 8028TIP3   OH224026   5.046   3.597   4.405
 8028TIP3    H124027   5.038   3.505   4.432
 8028TIP3    H224028   5.013   3.647   4.479
 8029TIP3   OH224029   1.552   4.736   1.256
 8029TIP3    H124030   1.561   4.778   1.171
 8029TIP3    H224031   1.580   4.802   1.319
 8030TIP3   OH224032   0.338   5.335   0.480
 8030TIP3    H124033   0.274   5.367   0.543
 8030TIP3    H224034   0.421   5.334   0.528
 8031TIP3   OH224035   0.011   1.601   2.625
 8031TIP3    H124036  -0.034   1.671   2.578
 8031TIP3    H224037   0.006   1.626   2.717
 8032TIP3   OH224038   0.740   5.283   6.356
 8032TIP3    H124039   0.727   5.299   6.263
 8032TIP3    H224040   0.706   5.361   6.399
 8033TIP3   OH224041   1.772   7.383   0.090
 8033TIP3    H124042   1.688   7.346   0.117
 8033TIP3    H224043   1.757   7.412   0.000
 8034TIP3   OH224044   3.827   3.425   0.251
 8034TIP3    H124045   3.916   3.409   0.220
 8034TIP3    H224046   3.818   3.520   0.251
 8035TIP3   OH224047   1.004   3.677   5.636
 8035TIP3    H124048   0.955   3.758   5.624
 8035TIP3    H224049   1.068   3.698   5.705
 8036TIP3   OH224050   5.177   1.358   0.093
 8036TIP3    H124051   5.209   1.341   0.182
 8036TIP3    H224052   5.113   1.428   0.104
 8037TIP3   OH224053   3.078   1.077   6.041
 8037TIP3    H124054   3.095   1.171   6.034
 8037TIP3    H224055   3.165   1.037   6.043
 8038TIP3   OH224056   1.008   6.346   1.573
 8038TIP3    H124057   1.088   6.379   1.613
 8038TIP3    H224058   0.990   6.264   1.618
 8039TIP3   OH224059   2.877   6.383   1.827
 8039TIP3    H124060   2.940   6.348   1.763
 8039TIP3    H224061   2.807   6.318   1.828
 8040TIP3   OH224062   6.976   4.191   0.630
 8040TIP3    H124063   7.028   4.181   0.550
 8040TIP3    H224064   6.907   4.253   0.607
 8041TIP3   OH224065   1.389   1.330   2.625
 8041TIP3    H124066   1.319   1.375   2.671
 8041TIP3    H224067   1.381   1.238   2.650
 8042TIP3   OH224068   5.485   4.061   3.745
 8042TIP3    H124069   5.427   4.032   3.675
 8042TIP3    H224070   5.551   4.115   3.701
 8043TIP3   OH224071   4.237   5.423   4.672
 8043TIP3    H124072   4.222   5.516   4.654
 8043TIP3    H224073   4.166   5.378   4.625
 8044TIP3   OH224074   8.216   7.156   2.207
 8044TIP3    H124075   8.245   7.084   2.150
 8044TIP3    H224076   8.213   7.232   2.149
 8045TIP3   OH224077   3.677   4.181   0.295
 8045TIP3    H124078   3.585   4.162   0.277
 8045TIP3    H224079   3.674   4.247   0.364
 8046TIP3   OH224080   3.101   4.123   5.315
 8046TIP3    H124081   3.149   4.174   5.381
 8046TIP3    H224082   3.088   4.184   5.243
 8047TIP3   OH224083   1.601   0.390   3.723
 8047TIP3    H124084   1.667   0.435   3.671
 8047TIP3    H224085   1.608   0.298   3.697
 8048TIP3   OH224086   0.601   5.083   2.429
 8048TIP3    H124087   0.637   5.053   2.346
 8048TIP3    H224088   0.605   5.178   2.424
 8049TIP3   OH224089   1.825   1.633   5.650
 8049TIP3    H124090   1.768   1.637   5.728
 8049TIP3    H224091   1.826   1.540   5.626
 8050TIP3   OH224092   1.447   1.973   5.411
 8050TIP3    H124093   1.354   1.993   5.420
 8050TIP3    H224094   1.492   2.046   5.453
 8051TIP3   OH224095   4.942   1.830   1.478
 8051TIP3    H124096   4.978   1.891   1.542
 8051TIP3    H224097   4.870   1.787   1.523
 8052TIP3   OH224098   1.319   2.324   5.057
 8052TIP3    H124099   1.374   2.248   5.039
 8052TIP3    H224100   1.327   2.336   5.152
 8053TIP3   OH224101   7.694   1.470   4.072
 8053TIP3    H124102   7.671   1.504   4.158
 8053TIP3    H224103   7.689   1.545   4.014
 8054TIP3   OH224104   1.922   2.624   1.312
 8054TIP3    H124105   1.987   2.617   1.382
 8054TIP3    H224106   1.839   2.633   1.358
 8055TIP3   OH224107   4.683   7.496   3.255
 8055TIP3    H124108   4.778   7.492   3.271
 8055TIP3    H224109   4.644   7.483   3.341
 8056TIP3   OH224110   6.848   0.253   4.423
 8056TIP3    H124111   6.848   0.259   4.519
 8056TIP3    H224112   6.822   0.163   4.405
 8057TIP3   OH224113   7.587   0.908   0.087
 8057TIP3    H124114   7.654   0.930   0.152
 8057TIP3    H224115   7.583   0.984   0.029
 8058TIP3   OH224116   1.293   7.675   3.480
 8058TIP3    H124117   1.321   7.685   3.389
 8058TIP3    H224118   1.360   7.621   3.521
 8059TIP3   OH224119   5.081   3.906   3.006
 8059TIP3    H124120   5.135   3.827   3.013
 8059TIP3    H224121   4.994   3.873   2.984
 8060TIP3   OH224122   6.259   2.993   0.933
 8060TIP3    H124123   6.343   2.991   0.888
 8060TIP3    H224124   6.283   2.988   1.026
 8061TIP3   OH224125   0.949   5.958   5.904
 8061TIP3    H124126   0.907   5.997   5.827
 8061TIP3    H224127   1.004   5.889   5.869
 8062TIP3   OH224128   6.167   2.964   6.535
 8062TIP3    H124129   6.171   2.875   6.501
 8062TIP3    H224130   6.173   3.019   6.457
 8063TIP3   OH224131   6.439   7.675   6.684
 8063TIP3    H124132   6.463   7.762   6.716
 8063TIP3    H224133   6.405   7.630   6.761
 8064TIP3   OH224134   7.596   6.623   1.205
 8064TIP3    H124135   7.502   6.608   1.191
 8064TIP3    H224136   7.629   6.646   1.118
 8065TIP3   OH224137   8.026   3.340   2.880
 8065TIP3    H124138   7.937   3.320   2.910
 8065TIP3    H224139   8.082   3.287   2.937
 8066TIP3   OH224140   5.416   2.986   3.100
 8066TIP3    H124141   5.333   3.011   3.060
 8066TIP3    H224142   5.476   3.057   3.076
 8067TIP3   OH224143   3.141   1.392   1.144
 8067TIP3    H124144   3.086   1.318   1.168
 8067TIP3    H224145   3.162   1.434   1.228
 8068TIP3   OH224146   2.412   5.121   5.929
 8068TIP3    H124147   2.432   5.201   5.977
 8068TIP3    H224148   2.384   5.151   5.842
 8069TIP3   OH224149   7.070   6.644   2.403
 8069TIP3    H124150   7.099   6.727   2.366
 8069TIP3    H224151   7.139   6.619   2.464
 8070TIP3   OH224152   4.259   3.146   6.696
 8070TIP3    H124153   4.317   3.166   6.622
 8070TIP3    H224154   4.318   3.117   6.765
 8071TIP3   OH224155   0.633   2.295   1.497
 8071TIP3    H124156   0.705   2.270   1.554
 8071TIP3    H224157   0.579   2.216   1.491
 8072TIP3   OH224158   4.652   6.535   0.662
 8072TIP3    H124159   4.737   6.502   0.635
 8072TIP3    H224160   4.606   6.551   0.580
 8073TIP3   OH224161   2.123   0.493   5.367
 8073TIP3    H124162   2.177   0.544   5.307
 8073TIP3    H224163   2.163   0.407   5.369
 8074TIP3   OH224164   2.585   6.546   5.287
 8074TIP3    H124165   2.494   6.537   5.312
 8074TIP3    H224166   2.598   6.640   5.275
 8075TIP3   OH224167   4.469   4.739   5.023
 8075TIP3    H124168   4.557   4.720   4.991
 8075TIP3    H224169   4.411   4.692   4.964
 8076TIP3   OH224170   0.690   4.572   5.278
 8076TIP3    H124171   0.729   4.594   5.193
 8076TIP3    H224172   0.764   4.557   5.336
 8077TIP3   OH224173   2.795   1.049   5.209
 8077TIP3    H124174   2.880   1.092   5.224
 8077TIP3    H224175   2.737   1.119   5.180
 8078TIP3   OH224176   2.688   6.316   2.445
 8078TIP3    H124177   2.638   6.353   2.372
 8078TIP3    H224178   2.730   6.238   2.409
 8079TIP3   OH224179   1.871   1.086   0.261
 8079TIP3    H124180   1.859   1.121   0.349
 8079TIP3    H224181   1.874   1.163   0.204
 8080TIP3   OH224182   7.396   1.832   5.530
 8080TIP3    H124183   7.489   1.821   5.551
 8080TIP3    H224184   7.395   1.897   5.460
 8081TIP3   OH224185   6.019   3.450   4.593
 8081TIP3    H124186   6.113   3.466   4.584
 8081TIP3    H224187   5.998   3.385   4.525
 8082TIP3   OH224188   0.834   6.991   6.472
 8082TIP3    H124189   0.876   6.926   6.416
 8082TIP3    H224190   0.855   7.075   6.431
 8083TIP3   OH224191   0.678   5.417   2.030
 8083TIP3    H124192   0.742   5.347   2.014
 8083TIP3    H224193   0.613   5.377   2.088
 8084TIP3   OH224194   0.372   6.367   0.592
 8084TIP3    H124195   0.344   6.424   0.664
 8084TIP3    H224196   0.296   6.312   0.574
 8085TIP3   OH224197   3.144   4.812   4.490
 8085TIP3    H124198   3.068   4.804   4.548
 8085TIP3    H224199   3.109   4.851   4.410
 8086TIP3   OH224200   7.998   7.515   6.186
 8086TIP3    H124201   8.070   7.474   6.235
 8086TIP3    H224202   7.941   7.442   6.162
 8087TIP3   OH224203   2.093   2.893   5.276
 8087TIP3    H124204   2.097   2.944   5.195
 8087TIP3    H224205   2.169   2.835   5.272
 8088TIP3   OH224206   6.118   5.928   3.347
 8088TIP3    H124207   6.207   5.963   3.343
 8088TIP3    H224208   6.063   6.003   3.367
 8089TIP3   OH224209   4.994   4.517   0.040
 8089TIP3    H124210   4.900   4.532   0.048
 8089TIP3    H224211   5.002   4.432  -0.002
 8090TIP3   OH224212   2.946   4.557   2.057
 8090TIP3    H124213   2.912   4.603   1.980
 8090TIP3    H224214   3.027   4.604   2.079
 8091TIP3   OH224215   7.410   4.456   3.107
 8091TIP3    H124216   7.470   4.527   3.131
 8091TIP3    H224217   7.445   4.422   3.025
 8092TIP3   OH224218   3.266   3.471   0.499
 8092TIP3    H124219   3.211   3.533   0.453
 8092TIP3    H224220   3.353   3.512   0.501
 8093TIP3   OH224221   3.997   2.233   1.464
 8093TIP3    H124222   3.958   2.154   1.500
 8093TIP3    H224223   3.969   2.303   1.524
 8094TIP3   OH224224   0.579   0.430   2.279
 8094TIP3    H124225   0.642   0.366   2.312
 8094TIP3    H224226   0.612   0.514   2.312
 8095TIP3   OH224227   5.270   3.010   0.127
 8095TIP3    H124228   5.243   2.924   0.161
 8095TIP3    H224229   5.343   2.991   0.069
 8096TIP3   OH224230   0.200   6.693   3.340
 8096TIP3    H124231   0.255   6.726   3.268
 8096TIP3    H224232   0.245   6.721   3.419
 8097TIP3   OH224233   7.507   6.395   5.900
 8097TIP3    H124234   7.518   6.430   5.988
 8097TIP3    H224235   7.483   6.303   5.913
 8098TIP3   OH224236   8.089   1.323   0.936
 8098TIP3    H124237   8.028   1.356   1.002
 8098TIP3    H224238   8.164   1.291   0.987
 8099TIP3   OH224239   5.788   2.409   0.848
 8099TIP3    H124240   5.818   2.371   0.931
 8099TIP3    H224241   5.853   2.379   0.784
 8100TIP3   OH224242   6.716   0.326   3.003
 8100TIP3    H124243   6.660   0.305   2.929
 8100TIP3    H224244   6.795   0.273   2.989
 8101TIP3   OH224245   1.630   2.256   4.864
 8101TIP3    H124246   1.704   2.197   4.858
 8101TIP3    H224247   1.611   2.262   4.958
 8102TIP3   OH224248   7.793   2.516   4.608
 8102TIP3    H124249   7.825   2.495   4.696
 8102TIP3    H224250   7.838   2.598   4.586
 8103TIP3   OH224251   1.659   2.943   3.481
 8103TIP3    H124252   1.670   2.978   3.392
 8103TIP3    H224253   1.747   2.917   3.507
 8104TIP3   OH224254   8.239   3.106   5.391
 8104TIP3    H124255   8.246   3.129   5.483
 8104TIP3    H224256   8.145   3.096   5.375
 8105TIP3   OH224257   3.139   4.560   2.396
 8105TIP3    H124258   3.193   4.639   2.391
 8105TIP3    H224259   3.168   4.506   2.323
 8106TIP3   OH224260   6.962   7.184   3.097
 8106TIP3    H124261   7.011   7.102   3.095
 8106TIP3    H224262   6.892   7.168   3.160
 8107TIP3   OH224263   6.594   7.129   1.437
 8107TIP3    H124264   6.614   7.116   1.530
 8107TIP3    H224265   6.601   7.041   1.399
 8108TIP3   OH224266   2.780   1.520   3.060
 8108TIP3    H124267   2.804   1.514   3.153
 8108TIP3    H224268   2.773   1.614   3.043
 8109TIP3   OH224269   0.544   6.488   3.199
 8109TIP3    H124270   0.542   6.473   3.293
 8109TIP3    H224271   0.575   6.578   3.189
 8110TIP3   OH224272   2.590   1.272   1.145
 8110TIP3    H124273   2.581   1.344   1.207
 8110TIP3    H224274   2.669   1.226   1.173
 8111TIP3   OH224275   5.680   1.318   5.788
 8111TIP3    H124276   5.756   1.276   5.749
 8111TIP3    H224277   5.637   1.248   5.837
 8112TIP3   OH224278   7.037   0.606   4.069
 8112TIP3    H124279   7.038   0.522   4.115
 8112TIP3    H224280   7.129   0.634   4.069
 8113TIP3   OH224281   6.291   5.286   4.278
 8113TIP3    H124282   6.206   5.260   4.314
 8113TIP3    H224283   6.348   5.294   4.354
 8114TIP3   OH224284   7.078   2.884   2.812
 8114TIP3    H124285   7.073   2.870   2.718
 8114TIP3    H224286   7.172   2.887   2.831
 8115TIP3   OH224287   1.992   2.275   5.878
 8115TIP3    H124288   2.070   2.235   5.917
 8115TIP3    H224289   2.025   2.351   5.830
 8116TIP3   OH224290   2.081   3.220   0.107
 8116TIP3    H124291   2.143   3.285   0.073
 8116TIP3    H224292   2.119   3.193   0.191
 8117TIP3   OH224293   7.514   3.353   1.044
 8117TIP3    H124294   7.567   3.424   1.080
 8117TIP3    H224295   7.449   3.396   0.989
 8118TIP3   OH224296   3.687   6.613   3.760
 8118TIP3    H124297   3.666   6.613   3.666
 8118TIP3    H224298   3.622   6.554   3.799
 8119TIP3   OH224299   8.105   5.485   4.593
 8119TIP3    H124300   8.065   5.426   4.529
 8119TIP3    H224301   8.165   5.429   4.643
 8120TIP3   OH224302   1.845   1.631   3.826
 8120TIP3    H124303   1.915   1.609   3.887
 8120TIP3    H224304   1.890   1.652   3.744
 8121TIP3   OH224305   0.009   1.309   4.672
 8121TIP3    H124306   0.084   1.368   4.674
 8121TIP3    H224307   0.030   1.242   4.737
 8122TIP3   OH224308   3.521   2.921   6.397
 8122TIP3    H124309   3.587   2.938   6.465
 8122TIP3    H224310   3.495   3.008   6.366
 8123TIP3   OH224311   5.638   3.521   6.116
 8123TIP3    H124312   5.594   3.572   6.048
 8123TIP3    H224313   5.650   3.583   6.188
 8124TIP3   OH224314   4.116   1.101   0.250
 8124TIP3    H124315   4.026   1.087   0.221
 8124TIP3    H224316   4.114   1.186   0.294
 8125TIP3   OH224317   3.178   4.864   0.183
 8125TIP3    H124318   3.184   4.825   0.095
 8125TIP3    H224319   3.093   4.907   0.185
 8126TIP3   OH224320   7.910   0.170   4.000
 8126TIP3    H124321   7.991   0.221   4.005
 8126TIP3    H224322   7.937   0.083   3.970
 8127TIP3   OH224323   3.262   0.076   2.071
 8127TIP3    H124324   3.225   0.114   1.991
 8127TIP3    H224325   3.229   0.133   2.141
 8128TIP3   OH224326   1.622   2.435   5.275
 8128TIP3    H124327   1.564   2.379   5.327
 8128TIP3    H224328   1.616   2.399   5.187
 8129TIP3   OH224329   0.502   4.389   2.863
 8129TIP3    H124330   0.589   4.374   2.826
 8129TIP3    H224331   0.442   4.355   2.797
 8130TIP3   OH224332   4.849   0.187   0.581
 8130TIP3    H124333   4.757   0.205   0.562
 8130TIP3    H224334   4.850   0.095   0.608
 8131TIP3   OH224335   1.139   6.230   6.576
 8131TIP3    H124336   1.183   6.235   6.661
 8131TIP3    H224337   1.050   6.260   6.593
 8132TIP3   OH224338   3.479   4.533   0.085
 8132TIP3    H124339   3.560   4.562   0.127
 8132TIP3    H224340   3.489   4.558  -0.007
 8133TIP3   OH224341   1.920   4.017   1.491
 8133TIP3    H124342   1.987   4.055   1.547
 8133TIP3    H224343   1.969   3.977   1.419
 8134TIP3   OH224344   2.778   2.350   6.576
 8134TIP3    H124345   2.725   2.275   6.603
 8134TIP3    H224346   2.838   2.364   6.649
 8135TIP3   OH224347   4.403   3.166   0.829
 8135TIP3    H124348   4.323   3.172   0.882
 8135TIP3    H224349   4.454   3.096   0.871
 8136TIP3   OH224350   4.265   2.177   6.584
 8136TIP3    H124351   4.355   2.169   6.554
 8136TIP3    H224352   4.263   2.259   6.632
 8137TIP3   OH224353   5.606   1.489   5.598
 8137TIP3    H124354   5.622   1.418   5.661
 8137TIP3    H224355   5.692   1.524   5.578
 8138TIP3   OH224356   2.267   3.918   3.396
 8138TIP3    H124357   2.221   4.002   3.392
 8138TIP3    H224358   2.202   3.856   3.429
 8139TIP3   OH224359   1.729   1.150   2.903
 8139TIP3    H124360   1.745   1.103   2.985
 8139TIP3    H224361   1.791   1.112   2.841
 8140TIP3   OH224362   8.149   7.226   3.629
 8140TIP3    H124363   8.072   7.224   3.572
 8140TIP3    H224364   8.114   7.240   3.717
 8141TIP3   OH224365   3.921   0.995   0.922
 8141TIP3    H124366   3.991   1.051   0.887
 8141TIP3    H224367   3.933   0.998   1.017
 8142TIP3   OH224368   5.167   1.583   3.860
 8142TIP3    H124369   5.077   1.590   3.829
 8142TIP3    H224370   5.161   1.530   3.939
 8143TIP3   OH224371   3.937   4.550   2.449
 8143TIP3    H124372   3.972   4.462   2.458
 8143TIP3    H224373   4.006   4.599   2.403
 8144TIP3   OH224374   5.870   6.308   3.383
 8144TIP3    H124375   5.784   6.306   3.341
 8144TIP3    H224376   5.932   6.322   3.312
 8145TIP3   OH224377   4.798   4.790   3.201
 8145TIP3    H124378   4.877   4.839   3.225
 8145TIP3    H224379   4.824   4.738   3.125
 8146TIP3   OH224380   1.999   4.440   5.045
 8146TIP3    H124381   1.979   4.477   5.131
 8146TIP3    H224382   1.988   4.514   4.984
 8147TIP3   OH224383   2.413   7.562   2.053
 8147TIP3    H124384   2.380   7.531   2.138
 8147TIP3    H224385   2.499   7.599   2.074
 8148TIP3   OH224386   7.333   6.635   2.436
 8148TIP3    H124387   7.417   6.640   2.482
 8148TIP3    H224388   7.334   6.548   2.396
 8149TIP3   OH224389   0.957   3.599   1.893
 8149TIP3    H124390   1.020   3.553   1.837
 8149TIP3    H224391   0.953   3.688   1.857
 8150TIP3   OH224392   1.765   4.037   6.165
 8150TIP3    H124393   1.798   4.107   6.221
 8150TIP3    H224394   1.814   4.045   6.084
 8151TIP3   OH224395   5.143   0.803   2.234
 8151TIP3    H124396   5.161   0.801   2.328
 8151TIP3    H224397   5.051   0.828   2.227
 8152TIP3   OH224398   0.732   1.214   4.669
 8152TIP3    H124399   0.773   1.232   4.754
 8152TIP3    H224400   0.806   1.192   4.611
 8153TIP3   OH224401   6.641   2.564   0.098
 8153TIP3    H124402   6.632   2.610   0.014
 8153TIP3    H224403   6.685   2.627   0.155
 8154TIP3   OH224404   5.890   4.546   6.195
 8154TIP3    H124405   5.940   4.577   6.120
 8154TIP3    H224406   5.890   4.620   6.256
 8155TIP3   OH224407   4.071   4.898   4.838
 8155TIP3    H124408   4.134   4.849   4.786
 8155TIP3    H224409   4.035   4.963   4.778
 8156TIP3   OH224410   1.083   6.779   3.572
 8156TIP3    H124411   1.072   6.816   3.659
 8156TIP3    H224412   1.117   6.851   3.519
 8157TIP3   OH224413   4.208   1.955   1.018
 8157TIP3    H124414   4.273   1.913   0.962
 8157TIP3    H224415   4.126   1.947   0.970
 8158TIP3   OH224416   7.615   2.811  -0.022
 8158TIP3    H124417   7.572   2.864   0.045
 8158TIP3    H224418   7.575   2.724  -0.013
 8159TIP3   OH224419   2.224   4.224   3.777
 8159TIP3    H124420   2.233   4.237   3.871
 8159TIP3    H224421   2.223   4.129   3.766
 8160TIP3   OH224422   4.324   6.790   0.994
 8160TIP3    H124423   4.349   6.843   1.070
 8160TIP3    H224424   4.406   6.771   0.950
 8161TIP3   OH224425   7.849   5.899   1.249
 8161TIP3    H124426   7.909   5.853   1.190
 8161TIP3    H224427   7.882   5.880   1.337
 8162TIP3   OH224428   4.407   0.057   1.056
 8162TIP3    H124429   4.456   0.136   1.077
 8162TIP3    H224430   4.459   0.013   0.989
 8163TIP3   OH224431   6.562   6.875   1.316
 8163TIP3    H124432   6.598   6.896   1.230
 8163TIP3    H224433   6.476   6.838   1.298
 8164TIP3   OH224434   6.804   5.267   4.182
 8164TIP3    H124435   6.764   5.181   4.169
 8164TIP3    H224436   6.823   5.271   4.276
 8165TIP3   OH224437   1.861   5.285   6.115
 8165TIP3    H124438   1.813   5.362   6.085
 8165TIP3    H224439   1.943   5.288   6.066
 8166TIP3   OH224440   6.030   4.472   4.645
 8166TIP3    H124441   6.047   4.378   4.650
 8166TIP3    H224442   6.088   4.511   4.711
 8167TIP3   OH224443   3.451   7.098   5.699
 8167TIP3    H124444   3.359   7.123   5.693
 8167TIP3    H224445   3.450   7.002   5.696
 8168TIP3   OH224446   5.724   7.206   2.972
 8168TIP3    H124447   5.810   7.185   2.936
 8168TIP3    H224448   5.718   7.301   2.967
 8169TIP3   OH224449   0.593   3.070   4.088
 8169TIP3    H124450   0.634   3.135   4.146
 8169TIP3    H224451   0.659   3.051   4.022
 8170TIP3   OH224452   0.193   2.582   2.411
 8170TIP3    H124453   0.266   2.538   2.367
 8170TIP3    H224454   0.125   2.515   2.415
 8171TIP3   OH224455   0.457   6.410   6.815
 8171TIP3    H124456   0.479   6.500   6.838
 8171TIP3    H224457   0.398   6.419   6.740
 8172TIP3   OH224458   7.141   6.851   6.780
 8172TIP3    H124459   7.145   6.929   6.836
 8172TIP3    H224460   7.179   6.880   6.696
 8173TIP3   OH224461   1.935   5.413   4.345
 8173TIP3    H124462   2.006   5.356   4.375
 8173TIP3    H224463   1.977   5.476   4.287
 8174TIP3   OH224464   8.094   7.841   4.040
 8174TIP3    H124465   8.057   7.816   4.124
 8174TIP3    H224466   8.183   7.870   4.060
 8175TIP3   OH224467   7.866   3.455   5.747
 8175TIP3    H124468   7.822   3.534   5.776
 8175TIP3    H224469   7.912   3.423   5.824
 8176TIP3   OH224470   4.430   2.089   6.277
 8176TIP3    H124471   4.483   2.139   6.215
 8176TIP3    H224472   4.468   2.108   6.362
 8177TIP3   OH224473   2.435   5.289   3.636
 8177TIP3    H124474   2.382   5.272   3.558
 8177TIP3    H224475   2.432   5.384   3.647
 8178TIP3   OH224476   0.170   2.222   2.543
 8178TIP3    H124477   0.087   2.197   2.501
 8178TIP3    H224478   0.182   2.158   2.613
 8179TIP3   OH224479   8.034   4.282   3.396
 8179TIP3    H124480   8.092   4.359   3.393
 8179TIP3    H224481   8.063   4.228   3.322
 8180TIP3   OH224482   7.645   0.905   5.711
 8180TIP3    H124483   7.598   0.863   5.783
 8180TIP3    H224484   7.737   0.894   5.733
 8181TIP3   OH224485   4.884   5.295   2.046
 8181TIP3    H124486   4.832   5.259   1.975
 8181TIP3    H224487   4.906   5.219   2.101
 8182TIP3   OH224488   4.313   1.389   0.037
 8182TIP3    H124489   4.364   1.429  -0.033
 8182TIP3    H224490   4.375   1.333   0.084
 8183TIP3   OH224491   1.666   6.270   3.674
 8183TIP3    H124492   1.738   6.319   3.634
 8183TIP3    H224493   1.694   6.179   3.670
 8184TIP3   OH224494   3.329   5.352   4.663
 8184TIP3    H124495   3.255   5.314   4.711
 8184TIP3    H224496   3.404   5.299   4.688
 8185TIP3   OH224497   5.254   2.579   4.814
 8185TIP3    H124498   5.281   2.489   4.794
 8185TIP3    H224499   5.187   2.599   4.749
 8186TIP3   OH224500   1.133   5.449   0.289
 8186TIP3    H124501   1.112   5.541   0.272
 8186TIP3    H224502   1.048   5.405   0.292
 8187TIP3   OH224503   5.608   3.511   0.295
 8187TIP3    H124504   5.524   3.519   0.250
 8187TIP3    H224505   5.595   3.439   0.356
 8188TIP3   OH224506   1.754   4.935   4.184
 8188TIP3    H124507   1.663   4.920   4.210
 8188TIP3    H224508   1.791   4.984   4.257
 8189TIP3   OH224509   1.025   5.579   1.239
 8189TIP3    H124510   1.022   5.562   1.145
 8189TIP3    H224511   1.105   5.536   1.269
 8190TIP3   OH224512   0.345   4.229   6.475
 8190TIP3    H124513   0.272   4.171   6.498
 8190TIP3    H224514   0.380   4.259   6.559
 8191TIP3   OH224515   7.989   4.570   0.243
 8191TIP3    H124516   7.946   4.656   0.237
 8191TIP3    H224517   8.067   4.586   0.297
 8192TIP3   OH224518   5.022   0.447   6.718
 8192TIP3    H124519   5.061   0.374   6.765
 8192TIP3    H224520   4.929   0.445   6.744
 8193TIP3   OH224521   6.669   1.886   1.583
 8193TIP3    H124522   6.747   1.882   1.639
 8193TIP3    H224523   6.700   1.927   1.502
 8194TIP3   OH224524   8.057   4.970   5.550
 8194TIP3    H124525   8.096   4.978   5.463
 8194TIP3    H224526   8.099   4.894   5.589
 8195TIP3   OH224527   2.258   3.260   3.236
 8195TIP3    H124528   2.183   3.211   3.204
 8195TIP3    H224529   2.220   3.342   3.270
 8196TIP3   OH224530   1.884   0.833   6.002
 8196TIP3    H124531   1.857   0.840   5.911
 8196TIP3    H224532   1.905   0.922   6.029
 8197TIP3   OH224533   2.627   1.823   5.421
 8197TIP3    H124534   2.553   1.778   5.461
 8197TIP3    H224535   2.692   1.754   5.407
 8198TIP3   OH224536   0.680   6.213   4.524
 8198TIP3    H124537   0.658   6.125   4.494
 8198TIP3    H224538   0.636   6.222   4.608
 8199TIP3   OH224539   0.333   3.641   1.217
 8199TIP3    H124540   0.268   3.572   1.201
 8199TIP3    H224541   0.288   3.722   1.192
 8200TIP3   OH224542   5.411   1.309   4.365
 8200TIP3    H124543   5.391   1.241   4.300
 8200TIP3    H224544   5.359   1.285   4.442
 8201TIP3   OH224545   1.858   6.564   3.222
 8201TIP3    H124546   1.911   6.516   3.286
 8201TIP3    H224547   1.770   6.526   3.230
 8202TIP3   OH224548   1.823   3.266   0.023
 8202TIP3    H124549   1.911   3.241   0.052
 8202TIP3    H224550   1.770   3.264   0.103
 8203TIP3   OH224551   6.902   3.840   2.998
 8203TIP3    H124552   6.968   3.791   2.949
 8203TIP3    H224553   6.847   3.774   3.039
 8204TIP3   OH224554   2.928   5.783   4.302
 8204TIP3    H124555   2.902   5.825   4.219
 8204TIP3    H224556   2.931   5.690   4.281
 8205TIP3   OH224557   0.308   3.349   4.698
 8205TIP3    H124558   0.339   3.308   4.779
 8205TIP3    H224559   0.212   3.350   4.707
 8206TIP3   OH224560   4.731   3.975   3.765
 8206TIP3    H124561   4.730   4.070   3.761
 8206TIP3    H224562   4.725   3.946   3.674
 8207TIP3   OH224563   2.431   1.867   4.157
 8207TIP3    H124564   2.501   1.932   4.151
 8207TIP3    H224565   2.380   1.894   4.234
 8208TIP3   OH224566   1.643   3.624   0.365
 8208TIP3    H124567   1.711   3.632   0.432
 8208TIP3    H224568   1.676   3.674   0.291
 8209TIP3   OH224569   0.689   5.409   6.092
 8209TIP3    H124570   0.683   5.389   5.999
 8209TIP3    H224571   0.652   5.497   6.099
 8210TIP3   OH224572   4.967   5.094   5.563
 8210TIP3    H124573   4.961   5.178   5.608
 8210TIP3    H224574   4.891   5.044   5.595
 8211TIP3   OH224575   4.123   6.905   4.432
 8211TIP3    H124576   4.182   6.846   4.385
 8211TIP3    H224577   4.163   6.916   4.518
 8212TIP3   OH224578   4.210   6.243   0.638
 8212TIP3    H124579   4.273   6.281   0.576
 8212TIP3    H224580   4.240   6.273   0.724
 8213TIP3   OH224581   2.836   4.080   4.646
 8213TIP3    H124582   2.864   4.167   4.674
 8213TIP3    H224583   2.748   4.093   4.612
 8214TIP3   OH224584   6.060   2.020   6.362
 8214TIP3    H124585   6.052   1.933   6.322
 8214TIP3    H224586   6.051   2.081   6.289
 8215TIP3   OH224587   1.234   5.874   2.819
 8215TIP3    H124588   1.207   5.965   2.809
 8215TIP3    H224589   1.151   5.826   2.828
 8216TIP3   OH224590   3.287   0.867   3.171
 8216TIP3    H124591   3.238   0.914   3.104
 8216TIP3    H224592   3.260   0.775   3.160
 8217TIP3   OH224593   5.062   0.281   4.872
 8217TIP3    H124594   5.056   0.351   4.807
 8217TIP3    H224595   5.105   0.209   4.826
 8218TIP3   OH224596   3.564   4.433   5.148
 8218TIP3    H124597   3.528   4.494   5.212
 8218TIP3    H224598   3.627   4.380   5.197
 8219TIP3   OH224599   4.206   2.677   4.531
 8219TIP3    H124600   4.258   2.610   4.486
 8219TIP3    H224601   4.243   2.760   4.501
 8220TIP3   OH224602   6.484   1.788   6.118
 8220TIP3    H124603   6.479   1.863   6.058
 8220TIP3    H224604   6.481   1.827   6.205
 8221TIP3   OH224605   4.410   0.108   3.642
 8221TIP3    H124606   4.490   0.141   3.682
 8221TIP3    H224607   4.351   0.094   3.715
 8222TIP3   OH224608   7.814   0.883   3.987
 8222TIP3    H124609   7.745   0.932   3.942
 8222TIP3    H224610   7.886   0.878   3.923
 8223TIP3   OH224611   6.428   4.634   4.215
 8223TIP3    H124612   6.347   4.593   4.246
 8223TIP3    H224613   6.399   4.709   4.164
 8224TIP3   OH224614   7.221   7.665   1.167
 8224TIP3    H124615   7.247   7.598   1.231
 8224TIP3    H224616   7.197   7.616   1.089
 8225TIP3   OH224617   2.794   1.929   4.615
 8225TIP3    H124618   2.719   1.894   4.567
 8225TIP3    H224619   2.756   1.985   4.682
 8226TIP3   OH224620   5.782   6.795   4.270
 8226TIP3    H124621   5.784   6.749   4.354
 8226TIP3    H224622   5.801   6.726   4.206
 8227TIP3   OH224623   5.972   5.951   4.028
 8227TIP3    H124624   5.884   5.912   4.022
 8227TIP3    H224625   6.030   5.886   3.988
 8228TIP3   OH224626   8.056   4.136   2.388
 8228TIP3    H124627   7.986   4.101   2.333
 8228TIP3    H224628   8.071   4.224   2.354
 8229TIP3   OH224629   4.644   2.641   6.493
 8229TIP3    H124630   4.577   2.706   6.473
 8229TIP3    H224631   4.725   2.680   6.460
 8230TIP3   OH224632   4.937   7.093   5.609
 8230TIP3    H124633   4.878   7.129   5.676
 8230TIP3    H224634   5.002   7.161   5.595
 8231TIP3   OH224635   7.751   7.536   2.332
 8231TIP3    H124636   7.669   7.491   2.314
 8231TIP3    H224637   7.808   7.469   2.369
 8232TIP3   OH224638   0.204   5.006   5.261
 8232TIP3    H124639   0.159   5.091   5.266
 8232TIP3    H224640   0.172   4.966   5.181
 8233TIP3   OH224641   5.620   2.081   2.735
 8233TIP3    H124642   5.619   1.986   2.747
 8233TIP3    H224643   5.614   2.094   2.641
 8234TIP3   OH224644   3.558   6.023   3.803
 8234TIP3    H124645   3.491   5.954   3.810
 8234TIP3    H224646   3.640   5.979   3.825
 8235TIP3   OH224647   3.976   5.873   6.056
 8235TIP3    H124648   3.892   5.917   6.043
 8235TIP3    H224649   3.988   5.820   5.978
 8236TIP3   OH224650   0.074   2.983   4.921
 8236TIP3    H124651   0.009   3.025   4.976
 8236TIP3    H224652   0.143   2.956   4.981
 8237TIP3   OH224653   6.368   5.436   2.509
 8237TIP3    H124654   6.329   5.407   2.427
 8237TIP3    H224655   6.333   5.524   2.523
 8238TIP3   OH224656   7.912   1.870   1.775
 8238TIP3    H124657   7.859   1.893   1.851
 8238TIP3    H224658   7.879   1.784   1.748
 8239TIP3   OH224659   5.179   0.308   5.147
 8239TIP3    H124660   5.236   0.381   5.124
 8239TIP3    H224661   5.153   0.270   5.063
 8240TIP3   OH224662   2.446   0.821   1.223
 8240TIP3    H124663   2.449   0.899   1.167
 8240TIP3    H224664   2.459   0.855   1.312
 8241TIP3   OH224665   5.083   7.453   5.783
 8241TIP3    H124666   5.135   7.529   5.756
 8241TIP3    H224667   5.001   7.461   5.734
 8242TIP3   OH224668   4.877   0.082   5.493
 8242TIP3    H124669   4.948   0.142   5.468
 8242TIP3    H224670   4.921   0.010   5.537
 8243TIP3   OH224671   4.332   5.266   0.423
 8243TIP3    H124672   4.334   5.354   0.384
 8243TIP3    H224673   4.240   5.242   0.424
 8244TIP3   OH224674   2.773   6.582   4.450
 8244TIP3    H124675   2.852   6.531   4.470
 8244TIP3    H224676   2.760   6.570   4.356
 8245TIP3   OH224677   7.443   6.819   4.068
 8245TIP3    H124678   7.383   6.879   4.025
 8245TIP3    H224679   7.519   6.872   4.091
 8246TIP3   OH224680   5.083   5.023   3.693
 8246TIP3    H124681   5.093   5.100   3.637
 8246TIP3    H224682   5.083   4.949   3.633
 8247TIP3   OH224683   7.902   2.660   0.804
 8247TIP3    H124684   7.954   2.580   0.796
 8247TIP3    H224685   7.879   2.683   0.714
 8248TIP3   OH224686   6.349   0.059   5.197
 8248TIP3    H124687   6.370   0.144   5.236
 8248TIP3    H224688   6.280   0.023   5.252
 8249TIP3   OH224689   5.383   1.827   4.203
 8249TIP3    H124690   5.460   1.884   4.198
 8249TIP3    H224691   5.419   1.738   4.206
 8250TIP3   OH224692   8.017   3.334   5.971
 8250TIP3    H124693   8.035   3.420   6.009
 8250TIP3    H224694   7.995   3.279   6.047
 8251TIP3   OH224695   2.506   3.848   4.849
 8251TIP3    H124696   2.438   3.914   4.836
 8251TIP3    H224697   2.477   3.799   4.926
 8252TIP3   OH224698   3.269   2.898   4.137
 8252TIP3    H124699   3.333   2.904   4.207
 8252TIP3    H224700   3.265   2.805   4.114
 8253TIP3   OH224701   2.158   5.091   6.084
 8253TIP3    H124702   2.252   5.079   6.069
 8253TIP3    H224703   2.142   5.183   6.062
 8254TIP3   OH224704   1.431   1.420   2.072
 8254TIP3    H124705   1.414   1.353   2.138
 8254TIP3    H224706   1.521   1.402   2.043
 8255TIP3   OH224707   3.053   2.609   2.989
 8255TIP3    H124708   3.015   2.526   3.016
 8255TIP3    H224709   3.109   2.587   2.914
 8256TIP3   OH224710   0.423   7.258   0.923
 8256TIP3    H124711   0.494   7.194   0.918
 8256TIP3    H224712   0.420   7.284   1.015
 8257TIP3   OH224713   5.169   5.834   1.120
 8257TIP3    H124714   5.158   5.745   1.153
 8257TIP3    H224715   5.138   5.891   1.191
 8258TIP3   OH224716   4.318   0.605   4.107
 8258TIP3    H124717   4.267   0.524   4.111
 8258TIP3    H224718   4.312   0.633   4.015
 8259TIP3   OH224719   7.580   2.338   3.657
 8259TIP3    H124720   7.545   2.274   3.595
 8259TIP3    H224721   7.504   2.371   3.704
 8260TIP3   OH224722   7.614   1.160   5.879
 8260TIP3    H124723   7.683   1.126   5.936
 8260TIP3    H224724   7.540   1.175   5.937
 8261TIP3   OH224725   4.114   6.521   1.512
 8261TIP3    H124726   4.142   6.450   1.569
 8261TIP3    H224727   4.040   6.561   1.557
 8262TIP3   OH224728   5.595   4.730   0.210
 8262TIP3    H124729   5.670   4.671   0.209
 8262TIP3    H224730   5.583   4.753   0.303
 8263TIP3   OH224731   6.275   1.010   5.172
 8263TIP3    H124732   6.228   1.080   5.217
 8263TIP3    H224733   6.336   0.977   5.238
 8264TIP3   OH224734   0.113   2.965   3.754
 8264TIP3    H124735   0.132   2.983   3.662
 8264TIP3    H224736   0.171   2.892   3.776
 8265TIP3   OH224737   4.773   4.857   4.515
 8265TIP3    H124738   4.751   4.891   4.428
 8265TIP3    H224739   4.834   4.922   4.551
 8266TIP3   OH224740   0.224   2.757   1.936
 8266TIP3    H124741   0.163   2.731   1.867
 8266TIP3    H224742   0.200   2.703   2.011
 8267TIP3   OH224743   5.337   0.569   0.310
 8267TIP3    H124744   5.345   0.533   0.398
 8267TIP3    H224745   5.243   0.587   0.301
 8268TIP3   OH224746   4.520   6.864   2.475
 8268TIP3    H124747   4.522   6.805   2.551
 8268TIP3    H224748   4.575   6.821   2.410
 8269TIP3   OH224749   7.614   1.420   3.682
 8269TIP3    H124750   7.612   1.355   3.752
 8269TIP3    H224751   7.667   1.380   3.613
 8270TIP3   OH224752   4.227   6.449   3.559
 8270TIP3    H124753   4.159   6.382   3.545
 8270TIP3    H224754   4.239   6.452   3.654
 8271TIP3   OH224755   1.169   5.907   6.528
 8271TIP3    H124756   1.093   5.889   6.583
 8271TIP3    H224757   1.225   5.963   6.582
 8272TIP3   OH224758   1.960   6.235   2.166
 8272TIP3    H124759   1.878   6.278   2.140
 8272TIP3    H224760   1.939   6.192   2.249
 8273TIP3   OH224761   0.711   0.724   5.163
 8273TIP3    H124762   0.665   0.655   5.211
 8273TIP3    H224763   0.788   0.681   5.126
 8274TIP3   OH224764   6.264   3.552   3.904
 8274TIP3    H124765   6.187   3.593   3.865
 8274TIP3    H224766   6.316   3.524   3.829
 8275TIP3   OH224767   1.887   2.588   4.486
 8275TIP3    H124768   1.841   2.536   4.552
 8275TIP3    H224769   1.830   2.586   4.409
 8276TIP3   OH224770   7.303   6.377   5.122
 8276TIP3    H124771   7.398   6.374   5.121
 8276TIP3    H224772   7.279   6.400   5.032
 8277TIP3   OH224773   7.459   1.206   0.868
 8277TIP3    H124774   7.452   1.298   0.844
 8277TIP3    H224775   7.373   1.169   0.846
 8278TIP3   OH224776   2.019   5.706   0.573
 8278TIP3    H124777   2.069   5.636   0.615
 8278TIP3    H224778   1.929   5.693   0.603
 8279TIP3   OH224779   4.496   5.961   0.106
 8279TIP3    H124780   4.548   5.984   0.183
 8279TIP3    H224781   4.557   5.918   0.047
 8280TIP3   OH224782   6.319   6.974   2.116
 8280TIP3    H124783   6.394   6.946   2.169
 8280TIP3    H224784   6.353   7.043   2.060
 8281TIP3   OH224785   5.476   1.706   1.561
 8281TIP3    H124786   5.414   1.635   1.544
 8281TIP3    H224787   5.421   1.781   1.583
 8282TIP3   OH224788   6.142   4.769   5.827
 8282TIP3    H124789   6.234   4.782   5.805
 8282TIP3    H224790   6.112   4.854   5.858
 8283TIP3   OH224791   5.494   4.145   4.126
 8283TIP3    H124792   5.516   4.233   4.158
 8283TIP3    H224793   5.433   4.160   4.054
 8284TIP3   OH224794   6.403   4.980   0.204
 8284TIP3    H124795   6.330   5.025   0.163
 8284TIP3    H224796   6.371   4.891   0.221
 8285TIP3   OH224797   6.887   4.474   4.952
 8285TIP3    H124798   6.889   4.511   5.040
 8285TIP3    H224799   6.976   4.440   4.938
 8286TIP3   OH224800   0.733   1.788   2.274
 8286TIP3    H124801   0.729   1.696   2.301
 8286TIP3    H224802   0.725   1.837   2.356
 8287TIP3   OH224803   2.108   2.549   6.145
 8287TIP3    H124804   2.056   2.603   6.085
 8287TIP3    H224805   2.045   2.486   6.181
 8288TIP3   OH224806   1.796   6.827   6.001
 8288TIP3    H124807   1.785   6.740   5.961
 8288TIP3    H224808   1.846   6.877   5.937
 8289TIP3   OH224809   7.872   0.981   6.287
 8289TIP3    H124810   7.842   0.962   6.376
 8289TIP3    H224811   7.912   1.067   6.292
 8290TIP3   OH224812   6.564   2.948   2.333
 8290TIP3    H124813   6.658   2.931   2.333
 8290TIP3    H224814   6.547   2.986   2.419
 8291TIP3   OH224815   1.281   7.537   3.909
 8291TIP3    H124816   1.232   7.543   3.991
 8291TIP3    H224817   1.373   7.536   3.937
 8292TIP3   OH224818   3.706   0.910   1.929
 8292TIP3    H124819   3.789   0.953   1.951
 8292TIP3    H224820   3.695   0.927   1.836
 8293TIP3   OH224821   7.442   4.731   2.733
 8293TIP3    H124822   7.525   4.720   2.780
 8293TIP3    H224823   7.467   4.742   2.642
 8294TIP3   OH224824   8.196   3.668   2.943
 8294TIP3    H124825   8.230   3.753   2.973
 8294TIP3    H224826   8.273   3.611   2.940
 8295TIP3   OH224827   4.057   3.313   3.971
 8295TIP3    H124828   4.149   3.286   3.981
 8295TIP3    H224829   4.047   3.329   3.877
 8296TIP3   OH224830   1.257   1.231   5.877
 8296TIP3    H124831   1.335   1.229   5.823
 8296TIP3    H224832   1.187   1.198   5.820
 8297TIP3   OH224833   2.935   2.803   3.507
 8297TIP3    H124834   2.979   2.838   3.430
 8297TIP3    H224835   2.871   2.870   3.530
 8298TIP3   OH224836   3.915   7.251   3.054
 8298TIP3    H124837   3.880   7.167   3.021
 8298TIP3    H224838   3.960   7.289   2.979
 8299TIP3   OH224839   6.546   5.234   4.805
 8299TIP3    H124840   6.621   5.293   4.798
 8299TIP3    H224841   6.561   5.167   4.739
 8300TIP3   OH224842   0.221   4.776   3.932
 8300TIP3    H124843   0.281   4.744   3.999
 8300TIP3    H224844   0.259   4.746   3.849
 8301TIP3   OH224845   4.708   6.470   5.265
 8301TIP3    H124846   4.647   6.396   5.254
 8301TIP3    H224847   4.713   6.510   5.178
 8302TIP3   OH224848   6.904   4.101   6.516
 8302TIP3    H124849   6.903   4.020   6.566
 8302TIP3    H224850   6.814   4.113   6.486
 8303TIP3   OH224851   3.305   7.562   5.462
 8303TIP3    H124852   3.385   7.510   5.455
 8303TIP3    H224853   3.234   7.502   5.441
 8304TIP3   OH224854   0.315   0.878   4.475
 8304TIP3    H124855   0.220   0.877   4.491
 8304TIP3    H224856   0.335   0.788   4.449
 8305TIP3   OH224857   5.646   0.784   1.718
 8305TIP3    H124858   5.713   0.747   1.776
 8305TIP3    H224859   5.572   0.801   1.776
 8306TIP3   OH224860   7.003   7.033   6.248
 8306TIP3    H124861   6.955   7.039   6.165
 8306TIP3    H224862   6.938   7.004   6.312
 8307TIP3   OH224863   7.444   6.791   1.655
 8307TIP3    H124864   7.432   6.707   1.610
 8307TIP3    H224865   7.512   6.774   1.721
 8308TIP3   OH224866   0.961   5.424   4.474
 8308TIP3    H124867   1.044   5.441   4.430
 8308TIP3    H224868   0.985   5.371   4.550
 8309TIP3   OH224869   6.817   2.691   2.188
 8309TIP3    H124870   6.727   2.702   2.158
 8309TIP3    H224871   6.809   2.660   2.278
 8310TIP3   OH224872   1.920   0.111   6.620
 8310TIP3    H124873   1.837   0.099   6.665
 8310TIP3    H224874   1.912   0.057   6.541
 8311TIP3   OH224875   3.728   5.177   5.597
 8311TIP3    H124876   3.641   5.203   5.629
 8311TIP3    H224877   3.735   5.084   5.618
 8312TIP3   OH224878   7.013   1.282   2.835
 8312TIP3    H124879   6.939   1.309   2.780
 8312TIP3    H224880   7.064   1.223   2.779
 8313TIP3   OH224881   4.976   7.179   4.042
 8313TIP3    H124882   4.888   7.184   4.006
 8313TIP3    H224883   5.033   7.211   3.972
 8314TIP3   OH224884   4.229   6.406   4.111
 8314TIP3    H124885   4.216   6.342   4.181
 8314TIP3    H224886   4.319   6.437   4.122
 8315TIP3   OH224887   1.138   2.427   5.996
 8315TIP3    H124888   1.182   2.398   5.917
 8315TIP3    H224889   1.142   2.523   5.993
 8316TIP3   OH224890   5.970   3.881   6.448
 8316TIP3    H124891   6.028   3.805   6.441
 8316TIP3    H224892   5.882   3.845   6.437
 8317TIP3   OH224893   1.620   0.724   4.181
 8317TIP3    H124894   1.648   0.814   4.193
 8317TIP3    H224895   1.569   0.725   4.100
 8318TIP3   OH224896   2.567   3.676   2.790
 8318TIP3    H124897   2.570   3.737   2.864
 8318TIP3    H224898   2.533   3.595   2.828
 8319TIP3   OH224899   6.402   4.885   1.165
 8319TIP3    H124900   6.402   4.878   1.261
 8319TIP3    H224901   6.483   4.843   1.138
 8320TIP3   OH224902   0.611   6.619   0.716
 8320TIP3    H124903   0.656   6.703   0.722
 8320TIP3    H224904   0.519   6.642   0.702
 8321TIP3   OH224905   4.713   3.280   3.715
 8321TIP3    H124906   4.752   3.307   3.798
 8321TIP3    H224907   4.662   3.356   3.686
 8322TIP3   OH224908   4.672   0.395   3.046
 8322TIP3    H124909   4.702   0.440   3.125
 8322TIP3    H224910   4.751   0.358   3.007
 8323TIP3   OH224911   1.030   2.078   3.790
 8323TIP3    H124912   1.043   2.004   3.850
 8323TIP3    H224913   1.115   2.091   3.749
 8324TIP3   OH224914   7.072   4.558   1.896
 8324TIP3    H124915   7.029   4.473   1.902
 8324TIP3    H224916   7.151   4.542   1.844
 8325TIP3   OH224917   7.028   4.716   1.542
 8325TIP3    H124918   6.986   4.751   1.621
 8325TIP3    H224919   7.049   4.794   1.489
 8326TIP3   OH224920   0.403   7.269   5.727
 8326TIP3    H124921   0.346   7.194   5.709
 8326TIP3    H224922   0.419   7.308   5.641
 8327TIP3   OH224923   4.884   3.414   1.737
 8327TIP3    H124924   4.850   3.478   1.675
 8327TIP3    H224925   4.817   3.346   1.741
 8328TIP3   OH224926   4.172   4.907   3.717
 8328TIP3    H124927   4.078   4.921   3.734
 8328TIP3    H224928   4.188   4.948   3.633
 8329TIP3   OH224929   4.914   1.867   1.922
 8329TIP3    H124930   4.867   1.911   1.851
 8329TIP3    H224931   4.992   1.831   1.880
 8330TIP3   OH224932   1.038   4.944   6.459
 8330TIP3    H124933   1.108   5.008   6.465
 8330TIP3    H224934   1.005   4.952   6.370
 8331TIP3   OH224935   4.972   6.542   5.482
 8331TIP3    H124936   4.890   6.575   5.518
 8331TIP3    H224937   5.021   6.511   5.558
 8332TIP3   OH224938   3.765   6.026   6.564
 8332TIP3    H124939   3.706   6.097   6.590
 8332TIP3    H224940   3.849   6.069   6.551
 8333TIP3   OH224941   7.390   3.278   0.032
 8333TIP3    H124942   7.474   3.239   0.057
 8333TIP3    H224943   7.375   3.248  -0.057
 8334TIP3   OH224944   3.582   4.234   2.477
 8334TIP3    H124945   3.501   4.215   2.524
 8334TIP3    H224946   3.613   4.148   2.448
 8335TIP3   OH224947   0.308   2.328   3.896
 8335TIP3    H124948   0.220   2.360   3.878
 8335TIP3    H224949   0.362   2.368   3.828
 8336TIP3   OH224950   6.392   6.545   6.467
 8336TIP3    H124951   6.325   6.521   6.404
 8336TIP3    H224952   6.475   6.529   6.422
 8337TIP3   OH224953   5.464   2.693   4.999
 8337TIP3    H124954   5.400   2.673   4.931
 8337TIP3    H224955   5.411   2.721   5.074
 8338TIP3   OH224956   2.351   5.010   0.655
 8338TIP3    H124957   2.309   4.925   0.652
 8338TIP3    H224958   2.360   5.029   0.749
 8339TIP3   OH224959   5.928   2.445   0.355
 8339TIP3    H124960   5.934   2.499   0.277
 8339TIP3    H224961   5.848   2.394   0.343
 8340TIP3   OH224962   5.021   2.018   3.311
 8340TIP3    H124963   5.096   1.982   3.263
 8340TIP3    H224964   4.978   2.077   3.250
 8341TIP3   OH224965   1.959   3.487   5.518
 8341TIP3    H124966   1.939   3.423   5.586
 8341TIP3    H224967   2.023   3.545   5.558
 8342TIP3   OH224968   8.211   1.135   3.415
 8342TIP3    H124969   8.208   1.205   3.350
 8342TIP3    H224970   8.279   1.162   3.477
 8343TIP3   OH224971   1.133   4.590   2.847
 8343TIP3    H124972   1.073   4.664   2.859
 8343TIP3    H224973   1.123   4.538   2.927
 8344TIP3   OH224974   0.076   6.757   6.121
 8344TIP3    H124975   0.012   6.706   6.071
 8344TIP3    H224976   0.145   6.777   6.058
 8345TIP3   OH224977   3.053   4.937   2.961
 8345TIP3    H124978   3.090   4.854   2.930
 8345TIP3    H224979   3.122   5.002   2.943
 8346TIP3   OH224980   5.119   2.616   6.698
 8346TIP3    H124981   5.042   2.572   6.661
 8346TIP3    H224982   5.147   2.560   6.770
 8347TIP3   OH224983   2.873   4.930   2.739
 8347TIP3    H124984   2.924   4.896   2.813
 8347TIP3    H224985   2.899   4.875   2.665
 8348TIP3   OH224986   5.132   1.729   5.193
 8348TIP3    H124987   5.196   1.772   5.136
 8348TIP3    H224988   5.084   1.802   5.234
 8349TIP3   OH224989   6.463   4.189   2.953
 8349TIP3    H124990   6.558   4.182   2.958
 8349TIP3    H224991   6.444   4.190   2.859
 8350TIP3   OH224992   1.048   3.207   0.921
 8350TIP3    H124993   1.043   3.142   0.992
 8350TIP3    H224994   1.085   3.158   0.847
 8351TIP3   OH224995   2.421   3.387   3.545
 8351TIP3    H124996   2.462   3.301   3.554
 8351TIP3    H224997   2.491   3.450   3.565
 8352TIP3   OH224998   2.962   2.004   1.530
 8352TIP3    H124999   2.886   2.030   1.583
 8352TIP3    H225000   2.961   1.908   1.532
 8353TIP3   OH225001   7.561   5.444   2.285
 8353TIP3    H125002   7.508   5.439   2.205
 8353TIP3    H225003   7.502   5.417   2.355
 8354TIP3   OH225004   1.625   3.917   0.813
 8354TIP3    H125005   1.604   3.899   0.721
 8354TIP3    H225006   1.713   3.955   0.811
 8355TIP3   OH225007   3.765   7.026   4.115
 8355TIP3    H125008   3.756   7.117   4.086
 8355TIP3    H225009   3.772   6.976   4.034
 8356TIP3   OH225010   1.988   4.074   2.033
 8356TIP3    H125011   2.065   4.118   1.997
 8356TIP3    H225012   1.955   4.020   1.962
 8357TIP3   OH225013   5.930   2.872   5.042
 8357TIP3    H125014   5.914   2.816   5.118
 8357TIP3    H225015   5.861   2.849   4.980
 8358TIP3   OH225016   3.882   4.995   4.085
 8358TIP3    H125017   3.829   5.054   4.138
 8358TIP3    H225018   3.829   4.915   4.079
 8359TIP3   OH225019   7.748   6.165   0.046
 8359TIP3    H125020   7.818   6.158   0.112
 8359TIP3    H225021   7.688   6.094   0.068
 8360TIP3   OH225022   0.637   4.430   0.219
 8360TIP3    H125023   0.570   4.370   0.188
 8360TIP3    H225024   0.669   4.474   0.140
 8361TIP3   OH225025   7.452   6.336   5.502
 8361TIP3    H125026   7.366   6.358   5.538
 8361TIP3    H225027   7.494   6.421   5.488
 8362TIP3   OH225028   7.332   3.550   2.291
 8362TIP3    H125029   7.361   3.641   2.292
 8362TIP3    H225030   7.356   3.517   2.204
 8363TIP3   OH225031   4.084   1.714   0.300
 8363TIP3    H125032   4.164   1.754   0.265
 8363TIP3    H225033   4.029   1.789   0.325
 8364TIP3   OH225034   8.075   1.431   0.069
 8364TIP3    H125035   8.015   1.492   0.113
 8364TIP3    H225036   8.130   1.486   0.014
 8365TIP3   OH225037   6.668   2.382   4.246
 8365TIP3    H125038   6.693   2.311   4.305
 8365TIP3    H225039   6.666   2.460   4.302
 8366TIP3   OH225040   3.518   1.870   0.372
 8366TIP3    H125041   3.483   1.808   0.435
 8366TIP3    H225042   3.546   1.817   0.298
 8367TIP3   OH225043   4.178   6.025   3.788
 8367TIP3    H125044   4.121   6.095   3.756
 8367TIP3    H225045   4.186   6.041   3.882
 8368TIP3   OH225046   0.330   5.144   2.745
 8368TIP3    H125047   0.267   5.134   2.816
 8368TIP3    H225048   0.280   5.183   2.674
 8369TIP3   OH225049   1.474   2.846   4.239
 8369TIP3    H125050   1.523   2.795   4.304
 8369TIP3    H225051   1.505   2.814   4.155
 8370TIP3   OH225052   7.753   3.971   4.806
 8370TIP3    H125053   7.848   3.975   4.798
 8370TIP3    H225054   7.722   3.956   4.716
 8371TIP3   OH225055   5.852   5.025   1.471
 8371TIP3    H125056   5.893   4.952   1.425
 8371TIP3    H225057   5.917   5.094   1.469
 8372TIP3   OH225058   5.499   2.119   0.787
 8372TIP3    H125059   5.423   2.174   0.766
 8372TIP3    H225060   5.566   2.147   0.725
 8373TIP3   OH225061   7.323   2.560   1.292
 8373TIP3    H125062   7.383   2.515   1.351
 8373TIP3    H225063   7.369   2.641   1.269
 8374TIP3   OH225064   7.972   0.258   3.137
 8374TIP3    H125065   7.913   0.277   3.210
 8374TIP3    H225066   7.914   0.248   3.061
 8375TIP3   OH225067   7.702   4.841   3.030
 8375TIP3    H125068   7.775   4.898   3.054
 8375TIP3    H225069   7.633   4.901   3.000
 8376TIP3   OH225070   5.771   7.667   3.471
 8376TIP3    H125071   5.767   7.590   3.414
 8376TIP3    H225072   5.864   7.682   3.485
 8377TIP3   OH225073   1.148   5.140   3.550
 8377TIP3    H125074   1.199   5.114   3.473
 8377TIP3    H225075   1.057   5.133   3.522
 8378TIP3   OH225076   1.809   0.341   0.607
 8378TIP3    H125077   1.805   0.395   0.686
 8378TIP3    H225078   1.900   0.315   0.600
 8379TIP3   OH225079   5.133   4.744   0.079
 8379TIP3    H125080   5.094   4.666   0.040
 8379TIP3    H225081   5.188   4.711   0.150
 8380TIP3   OH225082   7.809   1.103   3.156
 8380TIP3    H125083   7.823   1.106   3.061
 8380TIP3    H225084   7.822   1.193   3.186
 8381TIP3   OH225085   6.981   3.943   0.259
 8381TIP3    H125086   6.927   3.969   0.184
 8381TIP3    H225087   7.049   4.010   0.264
 8382TIP3   OH225088   8.333   0.014   2.601
 8382TIP3    H125089   8.261  -0.019   2.655
 8382TIP3    H225090   8.295   0.022   2.513
 8383TIP3   OH225091   2.428   2.095   1.713
 8383TIP3    H125092   2.481   2.165   1.750
 8383TIP3    H225093   2.488   2.045   1.657
 8384TIP3   OH225094   1.903   5.805   4.576
 8384TIP3    H125095   1.855   5.725   4.555
 8384TIP3    H225096   1.966   5.815   4.505
 8385TIP3   OH225097   1.912   4.795   1.534
 8385TIP3    H125098   1.875   4.708   1.549
 8385TIP3    H225099   2.005   4.786   1.552
 8386TIP3   OH225100   3.814   4.438   4.635
 8386TIP3    H125101   3.778   4.476   4.715
 8386TIP3    H225102   3.909   4.443   4.647
 8387TIP3   OH225103   2.031   1.962   3.240
 8387TIP3    H125104   2.072   1.887   3.197
 8387TIP3    H225105   2.086   1.980   3.316
 8388TIP3   OH225106   1.039   1.206   5.129
 8388TIP3    H125107   1.015   1.265   5.200
 8388TIP3    H225108   1.132   1.188   5.143
 8389TIP3   OH225109   1.785   5.149   4.908
 8389TIP3    H125110   1.834   5.113   4.982
 8389TIP3    H225111   1.851   5.193   4.854
 8390TIP3   OH225112   1.749   2.584   5.458
 8390TIP3    H125113   1.768   2.661   5.405
 8390TIP3    H225114   1.707   2.523   5.398
 8391TIP3   OH225115   0.509   0.029   5.444
 8391TIP3    H125116   0.586   0.053   5.496
 8391TIP3    H225117   0.543   0.015   5.356
 8392TIP3   OH225118   3.154   0.890   2.725
 8392TIP3    H125119   3.145   0.950   2.799
 8392TIP3    H225120   3.151   0.803   2.765
 8393TIP3   OH225121   7.774   2.097   0.505
 8393TIP3    H125122   7.709   2.058   0.564
 8393TIP3    H225123   7.798   2.025   0.447
 8394TIP3   OH225124   0.714   2.663   3.643
 8394TIP3    H125125   0.638   2.646   3.588
 8394TIP3    H225126   0.685   2.643   3.732
 8395TIP3   OH225127   7.674   3.432   0.236
 8395TIP3    H125128   7.621   3.483   0.175
 8395TIP3    H225129   7.743   3.492   0.265
 8396TIP3   OH225130   1.039   2.780   4.358
 8396TIP3    H125131   1.087   2.706   4.320
 8396TIP3    H225132   0.963   2.740   4.401
 8397TIP3   OH225133   0.219   6.979   0.891
 8397TIP3    H125134   0.196   7.060   0.845
 8397TIP3    H225135   0.227   7.006   0.983
 8398TIP3   OH225136   7.732   1.445   4.790
 8398TIP3    H125137   7.824   1.429   4.772
 8398TIP3    H225138   7.730   1.522   4.846
 8399TIP3   OH225139   4.958   4.432   4.174
 8399TIP3    H125140   5.049   4.403   4.168
 8399TIP3    H225141   4.964   4.522   4.208
 8400TIP3   OH225142   7.835   6.293   3.153
 8400TIP3    H125143   7.807   6.321   3.240
 8400TIP3    H225144   7.821   6.198   3.153
 8401TIP3   OH225145   0.336   3.033   5.667
 8401TIP3    H125146   0.379   3.115   5.692
 8401TIP3    H225147   0.406   2.970   5.659
 8402TIP3   OH225148   7.986   4.389   5.839
 8402TIP3    H125149   7.925   4.461   5.829
 8402TIP3    H225150   7.942   4.327   5.897
 8403TIP3   OH225151   1.368   4.974   0.359
 8403TIP3    H125152   1.307   5.005   0.292
 8403TIP3    H225153   1.408   5.053   0.394
 8404TIP3   OH225154   5.712   3.211   5.821
 8404TIP3    H125155   5.753   3.160   5.751
 8404TIP3    H225156   5.702   3.148   5.894
 8405TIP3   OH225157   7.144   1.134   0.325
 8405TIP3    H125158   7.130   1.214   0.376
 8405TIP3    H225159   7.135   1.063   0.389
 8406TIP3   OH225160   4.738   5.039   2.862
 8406TIP3    H125161   4.777   5.033   2.949
 8406TIP3    H225162   4.725   4.948   2.834
 8407TIP3   OH225163   0.646   3.653   1.713
 8407TIP3    H125164   0.586   3.720   1.743
 8407TIP3    H225165   0.704   3.698   1.652
 8408TIP3   OH225166   7.611   2.816   0.578
 8408TIP3    H125167   7.683   2.757   0.557
 8408TIP3    H225168   7.628   2.844   0.668
 8409TIP3   OH225169   6.434   3.578   5.768
 8409TIP3    H125170   6.432   3.565   5.674
 8409TIP3    H225171   6.428   3.490   5.805
 8410TIP3   OH225172   4.069   1.748   6.319
 8410TIP3    H125173   4.127   1.824   6.326
 8410TIP3    H225174   4.126   1.677   6.292
 8411TIP3   OH225175   2.871   7.072   5.976
 8411TIP3    H125176   2.832   7.157   5.959
 8411TIP3    H225177   2.962   7.081   5.947
 8412TIP3   OH225178   6.543   2.293   1.742
 8412TIP3    H125179   6.621   2.346   1.759
 8412TIP3    H225180   6.557   2.257   1.655
 8413TIP3   OH225181   3.571   0.089   6.628
 8413TIP3    H125182   3.637   0.025   6.600
 8413TIP3    H225183   3.488   0.052   6.599
 8414TIP3   OH225184   5.743   1.860   4.430
 8414TIP3    H125185   5.676   1.849   4.498
 8414TIP3    H225186   5.799   1.930   4.463
 8415TIP3   OH225187   5.739   1.095   3.708
 8415TIP3    H125188   5.749   1.188   3.690
 8415TIP3    H225189   5.669   1.090   3.773
 8416TIP3   OH225190   7.701   1.246   3.499
 8416TIP3    H125191   7.781   1.197   3.478
 8416TIP3    H225192   7.657   1.257   3.415
 8417TIP3   OH225193   0.253   5.398   3.356
 8417TIP3    H125194   0.278   5.398   3.264
 8417TIP3    H225195   0.320   5.345   3.400
 8418TIP3   OH225196   7.544   3.200   4.697
 8418TIP3    H125197   7.535   3.107   4.718
 8418TIP3    H225198   7.583   3.201   4.609
 8419TIP3   OH225199   7.903   0.792   4.502
 8419TIP3    H125200   7.810   0.774   4.507
 8419TIP3    H225201   7.936   0.731   4.436
 8420TIP3   OH225202   5.705   4.573   3.753
 8420TIP3    H125203   5.791   4.539   3.780
 8420TIP3    H225204   5.712   4.668   3.763
 8421TIP3   OH225205   3.353   3.714   0.726
 8421TIP3    H125206   3.262   3.686   0.718
 8421TIP3    H225207   3.348   3.807   0.750
 8422TIP3   OH225208   5.999   6.541   4.841
 8422TIP3    H125209   5.920   6.514   4.888
 8422TIP3    H225210   6.055   6.463   4.841
 8423TIP3   OH225211   2.809   1.294   3.865
 8423TIP3    H125212   2.797   1.382   3.900
 8423TIP3    H225213   2.845   1.309   3.777
 8424TIP3   OH225214   4.317   7.012   2.358
 8424TIP3    H125215   4.361   6.941   2.404
 8424TIP3    H225216   4.369   7.090   2.380
 8425TIP3   OH225217   1.406   6.679   2.820
 8425TIP3    H125218   1.318   6.642   2.812
 8425TIP3    H225219   1.443   6.670   2.732
 8426TIP3   OH225220   2.865   3.160   2.533
 8426TIP3    H125221   2.936   3.181   2.593
 8426TIP3    H225222   2.848   3.243   2.488
 8427TIP3   OH225223   5.644   7.469   5.280
 8427TIP3    H125224   5.623   7.375   5.280
 8427TIP3    H225225   5.729   7.474   5.323
 8428TIP3   OH225226   6.589   1.253   6.194
 8428TIP3    H125227   6.537   1.320   6.237
 8428TIP3    H225228   6.538   1.173   6.204
 8429TIP3   OH225229   5.238   2.836   1.074
 8429TIP3    H125230   5.299   2.898   1.115
 8429TIP3    H225231   5.273   2.824   0.986
 8430TIP3   OH225232   2.196   4.062   1.127
 8430TIP3    H125233   2.285   4.074   1.161
 8430TIP3    H225234   2.175   4.145   1.084
 8431TIP3   OH225235   6.542   0.787   4.646
 8431TIP3    H125236   6.482   0.772   4.573
 8431TIP3    H225237   6.589   0.704   4.655
 8432TIP3   OH225238   6.474   5.145   2.985
 8432TIP3    H125239   6.444   5.073   2.929
 8432TIP3    H225240   6.509   5.101   3.063
 8433TIP3   OH225241   0.434   4.354   3.114
 8433TIP3    H125242   0.339   4.358   3.117
 8433TIP3    H225243   0.457   4.389   3.028
 8434TIP3   OH225244   2.877   7.513   1.678
 8434TIP3    H125245   2.933   7.590   1.668
 8434TIP3    H225246   2.790   7.548   1.697
 8435TIP3   OH225247   3.087   4.912   4.227
 8435TIP3    H125248   3.034   4.989   4.246
 8435TIP3    H225249   3.038   4.864   4.161
 8436TIP3   OH225250   7.548   6.407   3.583
 8436TIP3    H125251   7.461   6.446   3.589
 8436TIP3    H225252   7.544   6.330   3.639
 8437TIP3   OH225253   5.285   7.061   4.714
 8437TIP3    H125254   5.251   7.127   4.774
 8437TIP3    H225255   5.215   6.996   4.709
 8438TIP3   OH225256   0.741   5.145   1.199
 8438TIP3    H125257   0.805   5.211   1.226
 8438TIP3    H225258   0.677   5.194   1.147
 8439TIP3   OH225259   5.196   5.262   0.933
 8439TIP3    H125260   5.203   5.305   1.018
 8439TIP3    H225261   5.113   5.295   0.897
 8440TIP3   OH225262   6.837   3.990   1.375
 8440TIP3    H125263   6.845   3.923   1.442
 8440TIP3    H225264   6.902   3.967   1.310
 8441TIP3   OH225265   1.067   7.223   4.155
 8441TIP3    H125266   1.072   7.245   4.062
 8441TIP3    H225267   1.076   7.127   4.158
 8442TIP3   OH225268   3.715   6.464   6.154
 8442TIP3    H125269   3.640   6.505   6.110
 8442TIP3    H225270   3.704   6.486   6.246
 8443TIP3   OH225271   0.789   2.584   1.283
 8443TIP3    H125272   0.760   2.635   1.207
 8443TIP3    H225273   0.708   2.548   1.320
 8444TIP3   OH225274   4.006   0.321   1.993
 8444TIP3    H125275   3.944   0.344   1.924
 8444TIP3    H225276   4.078   0.382   1.982
 8445TIP3   OH225277   5.673   5.354   6.437
 8445TIP3    H125278   5.727   5.281   6.408
 8445TIP3    H225279   5.684   5.355   6.532
 8446TIP3   OH225280   6.424   2.490   3.514
 8446TIP3    H125281   6.473   2.412   3.487
 8446TIP3    H225282   6.333   2.461   3.521
 8447TIP3   OH225283   6.236   3.605   4.938
 8447TIP3    H125284   6.215   3.609   5.031
 8447TIP3    H225285   6.160   3.565   4.897
 8448TIP3   OH225286   4.657   5.484   5.564
 8448TIP3    H125287   4.619   5.426   5.497
 8448TIP3    H225288   4.713   5.544   5.515
 8449TIP3   OH225289   0.671   5.225   4.900
 8449TIP3    H125290   0.591   5.253   4.856
 8449TIP3    H225291   0.736   5.217   4.830
 8450TIP3   OH225292   0.132   5.055   3.991
 8450TIP3    H125293   0.127   5.073   4.085
 8450TIP3    H225294   0.180   4.972   3.985
 8451TIP3   OH225295   3.318   5.829   6.661
 8451TIP3    H125296   3.319   5.880   6.742
 8451TIP3    H225297   3.411   5.817   6.639
 8452TIP3   OH225298   7.314   6.128   0.160
 8452TIP3    H125299   7.274   6.044   0.183
 8452TIP3    H225300   7.244   6.192   0.173
 8453TIP3   OH225301   0.211   6.165   1.618
 8453TIP3    H125302   0.125   6.133   1.591
 8453TIP3    H225303   0.269   6.089   1.605
 8454TIP3   OH225304   0.569   7.357   6.314
 8454TIP3    H125305   0.654   7.390   6.284
 8454TIP3    H225306   0.582   7.262   6.320
 8455TIP3   OH225307   3.546   1.818   0.756
 8455TIP3    H125308   3.480   1.755   0.785
 8455TIP3    H225309   3.502   1.903   0.765
 8456TIP3   OH225310   0.032   1.938   3.250
 8456TIP3    H125311  -0.035   2.000   3.279
 8456TIP3    H225312   0.037   1.873   3.320
 8457TIP3   OH225313   5.945   6.810   6.191
 8457TIP3    H125314   6.002   6.871   6.238
 8457TIP3    H225315   5.993   6.789   6.111
 8458TIP3   OH225316   0.826   6.218   4.104
 8458TIP3    H125317   0.804   6.295   4.156
 8458TIP3    H225318   0.795   6.144   4.156
 8459TIP3   OH225319   8.194   2.316   2.075
 8459TIP3    H125320   8.175   2.316   1.981
 8459TIP3    H225321   8.146   2.391   2.109
 8460TIP3   OH225322   6.376   1.395   5.769
 8460TIP3    H125323   6.370   1.321   5.828
 8460TIP3    H225324   6.316   1.460   5.805
 8461TIP3   OH225325   1.234   1.554   1.989
 8461TIP3    H125326   1.281   1.478   2.025
 8461TIP3    H225327   1.241   1.621   2.057
 8462TIP3   OH225328   4.552   2.737   3.107
 8462TIP3    H125329   4.485   2.669   3.109
 8462TIP3    H225330   4.558   2.768   3.197
 8463TIP3   OH225331   0.208   0.128   5.219
 8463TIP3    H125332   0.223   0.221   5.203
 8463TIP3    H225333   0.174   0.124   5.308
 8464TIP3   OH225334   5.503   0.735   5.506
 8464TIP3    H125335   5.450   0.703   5.433
 8464TIP3    H225336   5.556   0.659   5.532
 8465TIP3   OH225337   4.567   3.385   3.070
 8465TIP3    H125338   4.598   3.444   3.002
 8465TIP3    H225339   4.472   3.382   3.058
 8466TIP3   OH225340   0.190   6.553   2.039
 8466TIP3    H125341   0.151   6.638   2.017
 8466TIP3    H225342   0.133   6.518   2.108
 8467TIP3   OH225343   4.705   1.072   0.287
 8467TIP3    H125344   4.709   1.150   0.230
 8467TIP3    H225345   4.781   1.020   0.260
 8468TIP3   OH225346   3.171   4.800   2.066
 8468TIP3    H125347   3.195   4.891   2.052
 8468TIP3    H225348   3.224   4.773   2.141
 8469TIP3   OH225349   7.834   3.952   0.374
 8469TIP3    H125350   7.824   3.934   0.468
 8469TIP3    H225351   7.859   3.867   0.337
 8470TIP3   OH225352   4.376   4.662   1.535
 8470TIP3    H125353   4.432   4.699   1.603
 8470TIP3    H225354   4.287   4.690   1.560
 8471TIP3   OH225355   8.054   7.545   2.550
 8471TIP3    H125356   8.087   7.635   2.551
 8471TIP3    H225357   8.120   7.496   2.501
 8472TIP3   OH225358   7.232   2.451   1.664
 8472TIP3    H125359   7.297   2.442   1.735
 8472TIP3    H225360   7.264   2.524   1.611
 8473TIP3   OH225361   0.609   2.556   0.079
 8473TIP3    H125362   0.521   2.551   0.043
 8473TIP3    H225363   0.627   2.650   0.084
 8474TIP3   OH225364   6.539   4.908   0.885
 8474TIP3    H125365   6.572   4.896   0.796
 8474TIP3    H225366   6.596   4.855   0.940
 8475TIP3   OH225367   6.959   2.046   2.465
 8475TIP3    H125368   6.937   2.092   2.384
 8475TIP3    H225369   7.046   2.078   2.488
 8476TIP3   OH225370   3.263   2.264   0.922
 8476TIP3    H125371   3.184   2.278   0.974
 8476TIP3    H225372   3.317   2.206   0.975
 8477TIP3   OH225373   7.569   0.995   6.741
 8477TIP3    H125374   7.541   0.925   6.681
 8477TIP3    H225375   7.539   1.076   6.699
 8478TIP3   OH225376   6.417   3.369   4.741
 8478TIP3    H125377   6.505   3.361   4.706
 8478TIP3    H225378   6.380   3.444   4.694
 8479TIP3   OH225379   6.522   4.831   4.577
 8479TIP3    H125380   6.569   4.815   4.496
 8479TIP3    H225381   6.486   4.745   4.601
 8480TIP3   OH225382   3.096   0.767   5.475
 8480TIP3    H125383   3.126   0.734   5.560
 8480TIP3    H225384   3.003   0.786   5.488
 8481TIP3   OH225385   1.731   4.246   3.836
 8481TIP3    H125386   1.635   4.239   3.841
 8481TIP3    H225387   1.761   4.155   3.845
 8482TIP3   OH225388   5.231   0.818   2.502
 8482TIP3    H125389   5.208   0.733   2.538
 8482TIP3    H225390   5.179   0.881   2.553
 8483TIP3   OH225391   6.950   3.326   0.219
 8483TIP3    H125392   6.893   3.348   0.293
 8483TIP3    H225393   6.916   3.378   0.147
 8484TIP3   OH225394   3.645   6.694   0.394
 8484TIP3    H125395   3.556   6.659   0.394
 8484TIP3    H225396   3.650   6.745   0.474
 8485TIP3   OH225397   4.124   7.127   4.280
 8485TIP3    H125398   4.123   7.060   4.348
 8485TIP3    H225399   4.104   7.079   4.199
 8486TIP3   OH225400   7.694   1.371   2.909
 8486TIP3    H125401   7.624   1.406   2.965
 8486TIP3    H225402   7.670   1.279   2.896
 8487TIP3   OH225403   8.128   4.227   4.650
 8487TIP3    H125404   8.099   4.150   4.600
 8487TIP3    H225405   8.082   4.220   4.733
 8488TIP3   OH225406   7.675   7.180   5.796
 8488TIP3    H125407   7.596   7.127   5.809
 8488TIP3    H225408   7.663   7.257   5.852
 8489TIP3   OH225409   5.646   0.693   0.279
 8489TIP3    H125410   5.610   0.763   0.333
 8489TIP3    H225411   5.607   0.613   0.315
 8490TIP3   OH225412   2.180   0.753   4.680
 8490TIP3    H125413   2.158   0.725   4.769
 8490TIP3    H225414   2.130   0.694   4.624
 8491TIP3   OH225415   4.206   5.282   2.498
 8491TIP3    H125416   4.135   5.230   2.460
 8491TIP3    H225417   4.254   5.315   2.422
 8492TIP3   OH225418   1.637   7.325   3.289
 8492TIP3    H125419   1.670   7.250   3.339
 8492TIP3    H225420   1.558   7.292   3.246
 8493TIP3   OH225421   7.051   2.689   5.145
 8493TIP3    H125422   7.105   2.768   5.145
 8493TIP3    H225423   7.085   2.637   5.217
 8494TIP3   OH225424   3.130   3.945   3.560
 8494TIP3    H125425   3.110   3.965   3.652
 8494TIP3    H225426   3.138   3.850   3.558
 8495TIP3   OH225427   0.904   2.424   5.199
 8495TIP3    H125428   0.945   2.370   5.131
 8495TIP3    H225429   0.819   2.448   5.162
 8496TIP3   OH225430   4.855   4.056   0.098
 8496TIP3    H125431   4.790   4.050   0.028
 8496TIP3    H225432   4.872   3.965   0.123
 8497TIP3   OH225433   4.596   3.333   5.344
 8497TIP3    H125434   4.506   3.365   5.337
 8497TIP3    H225435   4.594   3.271   5.416
 8498TIP3   OH225436   1.352   2.999   1.941
 8498TIP3    H125437   1.293   2.924   1.935
 8498TIP3    H225438   1.332   3.051   1.863
 8499TIP3   OH225439   6.521   5.550   1.963
 8499TIP3    H125440   6.597   5.599   1.933
 8499TIP3    H225441   6.558   5.466   1.993
 8500TIP3   OH225442   3.397   7.037   1.258
 8500TIP3    H125443   3.375   7.040   1.165
 8500TIP3    H225444   3.469   7.099   1.268
 8501TIP3   OH225445   4.324   1.585   4.473
 8501TIP3    H125446   4.300   1.585   4.566
 8501TIP3    H225447   4.352   1.675   4.456
 8502TIP3   OH225448   4.372   4.146   0.756
 8502TIP3    H125449   4.340   4.073   0.704
 8502TIP3    H225450   4.468   4.137   0.754
 8503TIP3   OH225451   7.702   6.661   3.135
 8503TIP3    H125452   7.702   6.588   3.198
 8503TIP3    H225453   7.611   6.666   3.105
 8504TIP3   OH225454   0.897   3.971   3.166
 8504TIP3    H125455   0.956   3.998   3.237
 8504TIP3    H225456   0.917   4.030   3.094
 8505TIP3   OH225457   1.809   3.432   1.531
 8505TIP3    H125458   1.817   3.348   1.577
 8505TIP3    H225459   1.899   3.461   1.518
 8506TIP3   OH225460   0.737   3.978   6.507
 8506TIP3    H125461   0.819   4.018   6.479
 8506TIP3    H225462   0.705   3.932   6.429
 8507TIP3   OH225463   1.268   1.676   4.491
 8507TIP3    H125464   1.226   1.748   4.538
 8507TIP3    H225465   1.354   1.668   4.533
 8508TIP3   OH225466   4.255   5.308   0.893
 8508TIP3    H125467   4.301   5.332   0.812
 8508TIP3    H225468   4.324   5.307   0.960
 8509TIP3   OH225469   0.429   2.090   4.598
 8509TIP3    H125470   0.398   2.148   4.529
 8509TIP3    H225471   0.484   2.146   4.653
 8510TIP3   OH225472   0.266   1.529   0.753
 8510TIP3    H125473   0.200   1.518   0.822
 8510TIP3    H225474   0.347   1.500   0.794
 8511TIP3   OH225475   8.101   5.022   0.634
 8511TIP3    H125476   8.184   5.069   0.641
 8511TIP3    H225477   8.080   5.023   0.541
 8512TIP3   OH225478   5.582   6.697   1.576
 8512TIP3    H125479   5.581   6.647   1.495
 8512TIP3    H225480   5.671   6.732   1.582
 8513TIP3   OH225481   0.881   6.658   4.192
 8513TIP3    H125482   0.957   6.651   4.250
 8513TIP3    H225483   0.837   6.738   4.220
 8514TIP3   OH225484   8.104   0.950   3.235
 8514TIP3    H125485   8.150   0.976   3.155
 8514TIP3    H225486   8.131   1.015   3.300
 8515TIP3   OH225487   7.982   5.658   1.940
 8515TIP3    H125488   7.899   5.626   1.976
 8515TIP3    H225489   8.049   5.601   1.979
 8516TIP3   OH225490   8.281   6.511   2.534
 8516TIP3    H125491   8.232   6.439   2.571
 8516TIP3    H225492   8.345   6.534   2.602
 8517TIP3   OH225493   6.585   4.874   3.453
 8517TIP3    H125494   6.610   4.794   3.499
 8517TIP3    H225495   6.616   4.945   3.509
 8518TIP3   OH225496   3.818   2.589   0.138
 8518TIP3    H125497   3.728   2.592   0.172
 8518TIP3    H225498   3.819   2.655   0.068
 8519TIP3   OH225499   3.332   4.010   5.186
 8519TIP3    H125500   3.245   3.981   5.158
 8519TIP3    H225501   3.316   4.093   5.230
 8520TIP3   OH225502   6.607   3.061   6.550
 8520TIP3    H125503   6.580   3.130   6.490
 8520TIP3    H225504   6.633   2.989   6.492
 8521TIP3   OH225505   7.180   7.766   0.819
 8521TIP3    H125506   7.133   7.846   0.793
 8521TIP3    H225507   7.263   7.770   0.772
 8522TIP3   OH225508   8.249   4.195   6.130
 8522TIP3    H125509   8.329   4.143   6.126
 8522TIP3    H225510   8.181   4.138   6.094
 8523TIP3   OH225511   1.748   3.438   2.800
 8523TIP3    H125512   1.688   3.512   2.806
 8523TIP3    H225513   1.790   3.433   2.886
 8524TIP3   OH225514   8.013   4.727   6.557
 8524TIP3    H125515   7.979   4.808   6.593
 8524TIP3    H225516   7.968   4.717   6.473
 8525TIP3   OH225517   6.113   4.356   3.009
 8525TIP3    H125518   6.120   4.334   2.916
 8525TIP3    H225519   6.183   4.419   3.025
 8526TIP3   OH225520   3.688   4.769   4.102
 8526TIP3    H125521   3.693   4.761   4.007
 8526TIP3    H225522   3.602   4.808   4.119
 8527TIP3   OH225523   6.034   5.406   3.055
 8527TIP3    H125524   6.046   5.489   3.102
 8527TIP3    H225525   6.011   5.344   3.124
 8528TIP3   OH225526   2.689   7.429   1.123
 8528TIP3    H125527   2.676   7.512   1.077
 8528TIP3    H225528   2.777   7.436   1.160
 8529TIP3   OH225529   2.310   7.732   1.097
 8529TIP3    H125530   2.318   7.638   1.113
 8529TIP3    H225531   2.220   7.754   1.122
 8530TIP3   OH225532   7.114   4.888   4.288
 8530TIP3    H125533   7.084   4.834   4.361
 8530TIP3    H225534   7.126   4.975   4.326
 8531TIP3   OH225535   2.448   2.956   3.737
 8531TIP3    H125536   2.530   2.978   3.782
 8531TIP3    H225537   2.384   3.016   3.774
 8532TIP3   OH225538   5.508   6.730   5.624
 8532TIP3    H125539   5.432   6.789   5.622
 8532TIP3    H225540   5.470   6.643   5.633
 8533TIP3   OH225541   0.368   0.271   4.918
 8533TIP3    H125542   0.338   0.187   4.884
 8533TIP3    H225543   0.463   0.260   4.930
 8534TIP3   OH225544   4.933   7.276   3.259
 8534TIP3    H125545   4.920   7.291   3.165
 8534TIP3    H225546   4.935   7.364   3.297
 8535TIP3   OH225547   2.407   2.531   3.806
 8535TIP3    H125548   2.397   2.573   3.721
 8535TIP3    H225549   2.339   2.571   3.861
 8536TIP3   OH225550   2.214   0.151   1.151
 8536TIP3    H125551   2.213   0.056   1.161
 8536TIP3    H225552   2.303   0.177   1.176
 8537TIP3   OH225553   6.634   3.196   0.618
 8537TIP3    H125554   6.541   3.194   0.638
 8537TIP3    H225555   6.673   3.130   0.676
 8538TIP3   OH225556   1.621   7.042   2.491
 8538TIP3    H125557   1.680   6.984   2.443
 8538TIP3    H225558   1.663   7.055   2.576
 8539TIP3   OH225559   5.347   1.620   2.394
 8539TIP3    H125560   5.267   1.580   2.429
 8539TIP3    H225561   5.334   1.622   2.299
 8540TIP3   OH225562   8.234   0.204   4.843
 8540TIP3    H125563   8.176   0.143   4.798
 8540TIP3    H225564   8.269   0.260   4.774
 8541TIP3   OH225565   0.039   3.341   4.628
 8541TIP3    H125566   0.031   3.430   4.593
 8541TIP3    H225567  -0.039   3.330   4.683
 8542TIP3   OH225568   7.718   7.686   5.735
 8542TIP3    H125569   7.798   7.664   5.783
 8542TIP3    H225570   7.724   7.780   5.720
 8543TIP3   OH225571   5.502   4.648   4.868
 8543TIP3    H125572   5.428   4.606   4.911
 8543TIP3    H225573   5.493   4.624   4.776
 8544TIP3   OH225574   2.085   3.707   5.622
 8544TIP3    H125575   2.175   3.731   5.601
 8544TIP3    H225576   2.040   3.790   5.632
 8545TIP3   OH225577   2.909   7.001   4.757
 8545TIP3    H125578   2.971   6.931   4.779
 8545TIP3    H225579   2.840   6.994   4.822
 8546TIP3   OH225580   8.283   0.715   4.744
 8546TIP3    H125581   8.356   0.662   4.775
 8546TIP3    H225582   8.267   0.685   4.655
 8547TIP3   OH225583   7.519   1.942   0.246
 8547TIP3    H125584   7.574   1.887   0.303
 8547TIP3    H225585   7.457   1.983   0.306
 8548TIP3   OH225586   4.669   2.147   5.388
 8548TIP3    H125587   4.609   2.183   5.454
 8548TIP3    H225588   4.754   2.185   5.410
 8549TIP3   OH225589   0.528   6.981   1.534
 8549TIP3    H125590   0.567   7.051   1.481
 8549TIP3    H225591   0.602   6.933   1.569
 8550TIP3   OH225592   1.986   0.380   6.520
 8550TIP3    H125593   1.995   0.292   6.557
 8550TIP3    H225594   1.906   0.414   6.559
 8551TIP3   OH225595   1.785   5.494   3.037
 8551TIP3    H125596   1.724   5.428   3.068
 8551TIP3    H225597   1.854   5.444   2.993
 8552TIP3   OH225598   2.539   5.574   5.684
 8552TIP3    H125599   2.609   5.636   5.665
 8552TIP3    H225600   2.459   5.623   5.667
 8553TIP3   OH225601   0.747   7.326   0.680
 8553TIP3    H125602   0.746   7.419   0.658
 8553TIP3    H225603   0.660   7.295   0.658
 8554TIP3   OH225604   5.528   1.072   2.846
 8554TIP3    H125605   5.530   0.996   2.787
 8554TIP3    H225606   5.445   1.062   2.894
 8555TIP3   OH225607   1.848   7.156   0.702
 8555TIP3    H125608   1.827   7.203   0.783
 8555TIP3    H225609   1.763   7.130   0.667
 8556TIP3   OH225610   8.061   1.070   0.835
 8556TIP3    H125611   8.147   1.027   0.838
 8556TIP3    H225612   8.070   1.146   0.892
 8557TIP3   OH225613   4.169   4.282   2.891
 8557TIP3    H125614   4.182   4.374   2.913
 8557TIP3    H225615   4.074   4.271   2.889
 8558TIP3   OH225616   3.723   0.960   5.830
 8558TIP3    H125617   3.741   1.002   5.914
 8558TIP3    H225618   3.797   0.901   5.817
 8559TIP3   OH225619   1.943   6.116   5.684
 8559TIP3    H125620   1.986   6.055   5.624
 8559TIP3    H225621   1.937   6.067   5.767
 8560TIP3   OH225622   5.971   6.119   2.928
 8560TIP3    H125623   6.063   6.094   2.932
 8560TIP3    H225624   5.972   6.208   2.891
 8561TIP3   OH225625   4.776   2.952   0.409
 8561TIP3    H125626   4.722   2.930   0.333
 8561TIP3    H225627   4.779   3.048   0.408
 8562TIP3   OH225628   1.465   1.039   4.933
 8562TIP3    H125629   1.524   1.022   5.007
 8562TIP3    H225630   1.415   1.116   4.960
 8563TIP3   OH225631   7.617   4.713   2.113
 8563TIP3    H125632   7.620   4.618   2.120
 8563TIP3    H225633   7.709   4.739   2.110
 8564TIP3   OH225634   0.406   7.315   3.183
 8564TIP3    H125635   0.362   7.338   3.265
 8564TIP3    H225636   0.490   7.362   3.187
 8565TIP3   OH225637   4.449   2.256   5.558
 8565TIP3    H125638   4.490   2.343   5.566
 8565TIP3    H225639   4.360   2.275   5.530
 8566TIP3   OH225640   2.889   6.551   3.642
 8566TIP3    H125641   2.815   6.552   3.701
 8566TIP3    H225642   2.951   6.490   3.683
 8567TIP3   OH225643   3.859   1.869   3.073
 8567TIP3    H125644   3.934   1.882   3.130
 8567TIP3    H225645   3.791   1.834   3.131
 8568TIP3   OH225646   5.006   7.284   0.909
 8568TIP3    H125647   5.096   7.277   0.942
 8568TIP3    H225648   5.001   7.374   0.876
 8569TIP3   OH225649   3.970   2.040   0.490
 8569TIP3    H125650   4.058   2.020   0.522
 8569TIP3    H225651   3.941   1.958   0.449
 8570TIP3   OH225652   2.159   6.289   1.271
 8570TIP3    H125653   2.195   6.253   1.352
 8570TIP3    H225654   2.163   6.216   1.209
 8571TIP3   OH225655   6.266   1.284   1.559
 8571TIP3    H125656   6.215   1.230   1.498
 8571TIP3    H225657   6.265   1.235   1.641
 8572TIP3   OH225658   5.128   4.670   4.588
 8572TIP3    H125659   5.130   4.583   4.627
 8572TIP3    H225660   5.163   4.727   4.656
 8573TIP3   OH225661   2.115   3.951   3.945
 8573TIP3    H125662   2.104   3.874   3.889
 8573TIP3    H225663   2.053   4.015   3.909
 8574TIP3   OH225664   1.397   1.208   3.391
 8574TIP3    H125665   1.408   1.303   3.386
 8574TIP3    H225666   1.480   1.176   3.426
 8575TIP3   OH225667   0.727   2.723   6.453
 8575TIP3    H125668   0.758   2.725   6.363
 8575TIP3    H225669   0.635   2.748   6.448
 8576TIP3   OH225670   2.355   4.943   6.578
 8576TIP3    H125671   2.434   4.890   6.569
 8576TIP3    H225672   2.300   4.917   6.504
 8577TIP3   OH225673   5.667   0.929   0.068
 8577TIP3    H125674   5.624   0.914  -0.016
 8577TIP3    H225675   5.628   0.866   0.128
 8578TIP3   OH225676   2.158   1.732   3.108
 8578TIP3    H125677   2.171   1.681   3.028
 8578TIP3    H225678   2.190   1.675   3.178
 8579TIP3   OH225679   5.062   5.872   5.991
 8579TIP3    H125680   5.050   5.884   5.896
 8579TIP3    H225681   5.021   5.788   6.010
 8580TIP3   OH225682   2.066   3.546   4.401
 8580TIP3    H125683   2.110   3.461   4.394
 8580TIP3    H225684   2.003   3.547   4.329
 8581TIP3   OH225685   0.845   5.959   0.259
 8581TIP3    H125686   0.823   6.032   0.201
 8581TIP3    H225687   0.809   5.984   0.343
 8582TIP3   OH225688   7.101   1.069   1.453
 8582TIP3    H125689   7.066   1.152   1.485
 8582TIP3    H225690   7.076   1.005   1.520
 8583TIP3   OH225691   3.428   4.781   6.524
 8583TIP3    H125692   3.429   4.866   6.568
 8583TIP3    H225693   3.517   4.772   6.489
 8584TIP3   OH225694   4.923   0.962   4.726
 8584TIP3    H125695   4.833   0.967   4.759
 8584TIP3    H225696   4.929   1.036   4.665
 8585TIP3   OH225697   7.027   4.995   6.653
 8585TIP3    H125698   7.099   5.030   6.705
 8585TIP3    H225699   7.017   5.057   6.581
 8586TIP3   OH225700   6.642   6.501   4.861
 8586TIP3    H125701   6.652   6.431   4.797
 8586TIP3    H225702   6.711   6.485   4.925
 8587TIP3   OH225703   2.066   4.993   4.526
 8587TIP3    H125704   2.069   4.998   4.622
 8587TIP3    H225705   2.044   4.902   4.507
 8588TIP3   OH225706   6.475   7.369   1.513
 8588TIP3    H125707   6.398   7.409   1.553
 8588TIP3    H225708   6.470   7.277   1.539
 8589TIP3   OH225709   0.166   2.096   4.199
 8589TIP3    H125710   0.255   2.111   4.167
 8589TIP3    H225711   0.115   2.169   4.164
 8590TIP3   OH225712   3.166   0.515   6.473
 8590TIP3    H125713   3.153   0.568   6.552
 8590TIP3    H225714   3.159   0.577   6.401
 8591TIP3   OH225715   6.002   7.579   2.894
 8591TIP3    H125716   5.997   7.659   2.841
 8591TIP3    H225717   5.915   7.573   2.935
 8592TIP3   OH225718   2.324   5.435   6.579
 8592TIP3    H125719   2.334   5.361   6.519
 8592TIP3    H225720   2.240   5.421   6.621
 8593TIP3   OH225721   4.781   3.901   3.080
 8593TIP3    H125722   4.820   3.962   3.143
 8593TIP3    H225723   4.723   3.846   3.133
 8594TIP3   OH225724   1.376   7.024   0.730
 8594TIP3    H125725   1.392   6.948   0.675
 8594TIP3    H225726   1.304   7.070   0.687
 8595TIP3   OH225727   6.029   5.899   2.235
 8595TIP3    H125728   5.938   5.876   2.254
 8595TIP3    H225729   6.081   5.838   2.288
 8596TIP3   OH225730   5.023  -0.015   0.114
 8596TIP3    H125731   4.978  -0.060   0.185
 8596TIP3    H225732   4.985   0.073   0.114
 8597TIP3   OH225733   4.909   2.717   0.421
 8597TIP3    H125734   4.905   2.685   0.331
 8597TIP3    H225735   4.845   2.789   0.423
 8598TIP3   OH225736   5.906   1.870   5.895
 8598TIP3    H125737   5.824   1.917   5.882
 8598TIP3    H225738   5.881   1.795   5.950
 8599TIP3   OH225739   7.228   2.973   0.200
 8599TIP3    H125740   7.211   2.905   0.265
 8599TIP3    H225741   7.319   2.999   0.214
 8600TIP3   OH225742   4.471   1.668   3.314
 8600TIP3    H125743   4.439   1.618   3.389
 8600TIP3    H225744   4.493   1.754   3.350
 8601TIP3   OH225745   7.443   5.502   4.392
 8601TIP3    H125746   7.465   5.504   4.299
 8601TIP3    H225747   7.403   5.416   4.405
 8602TIP3   OH225748   4.226   2.454   6.625
 8602TIP3    H125749   4.267   2.540   6.621
 8602TIP3    H225750   4.195   2.437   6.537
 8603TIP3   OH225751   8.190   0.082   3.066
 8603TIP3    H125752   8.116   0.127   3.106
 8603TIP3    H225753   8.242   0.050   3.140
 8604TIP3   OH225754   3.584   5.776   6.606
 8604TIP3    H125755   3.639   5.703   6.579
 8604TIP3    H225756   3.624   5.853   6.564
 8605TIP3   OH225757   2.558   4.007   1.435
 8605TIP3    H125758   2.653   4.011   1.434
 8605TIP3    H225759   2.533   4.041   1.521
 8606TIP3   OH225760   0.557   4.298   6.306
 8606TIP3    H125761   0.551   4.389   6.335
 8606TIP3    H225762   0.507   4.249   6.370
 8607TIP3   OH225763   0.429   5.396   1.507
 8607TIP3    H125764   0.358   5.424   1.449
 8607TIP3    H225765   0.456   5.311   1.472
 8608TIP3   OH225766   6.757   2.360   2.024
 8608TIP3    H125767   6.775   2.375   2.116
 8608TIP3    H225768   6.687   2.294   2.024
 8609TIP3   OH225769   6.186   2.320   6.521
 8609TIP3    H125770   6.240   2.255   6.476
 8609TIP3    H225771   6.225   2.329   6.607
 8610TIP3   OH225772   4.878   2.307   5.438
 8610TIP3    H125773   4.918   2.246   5.499
 8610TIP3    H225774   4.948   2.369   5.417
 8611TIP3   OH225775   0.175   7.394   0.963
 8611TIP3    H125776   0.135   7.365   0.881
 8611TIP3    H225777   0.265   7.362   0.958
 8612TIP3   OH225778   2.059   3.832   0.982
 8612TIP3    H125779   2.139   3.883   0.995
 8612TIP3    H225780   2.032   3.806   1.070
 8613TIP3   OH225781   5.689   6.004   2.413
 8613TIP3    H125782   5.692   6.071   2.344
 8613TIP3    H225783   5.685   5.921   2.365
 8614TIP3   OH225784   1.487   0.276   5.858
 8614TIP3    H125785   1.453   0.287   5.947
 8614TIP3    H225786   1.484   0.182   5.843
 8615TIP3   OH225787   2.715   2.681   4.637
 8615TIP3    H125788   2.720   2.712   4.728
 8615TIP3    H225789   2.674   2.595   4.643
 8616TIP3   OH225790   0.618   0.913   0.891
 8616TIP3    H125791   0.644   0.985   0.948
 8616TIP3    H225792   0.673   0.840   0.919
 8617TIP3   OH225793   2.743   7.529   5.523
 8617TIP3    H125794   2.683   7.497   5.456
 8617TIP3    H225795   2.686   7.562   5.592
 8618TIP3   OH225796   6.340   4.696   3.881
 8618TIP3    H125797   6.435   4.690   3.874
 8618TIP3    H225798   6.311   4.608   3.905
 8619TIP3   OH225799   0.665   5.345   5.808
 8619TIP3    H125800   0.755   5.375   5.799
 8619TIP3    H225801   0.669   5.250   5.794
 8620TIP3   OH225802   0.608   4.226   3.447
 8620TIP3    H125803   0.619   4.294   3.381
 8620TIP3    H225804   0.604   4.145   3.397
 8621TIP3   OH225805   3.033   4.520   1.380
 8621TIP3    H125806   3.020   4.524   1.474
 8621TIP3    H225807   3.042   4.426   1.361
 8622TIP3   OH225808   6.425   2.074   3.931
 8622TIP3    H125809   6.395   2.112   3.849
 8622TIP3    H225810   6.351   2.086   3.991
 8623TIP3   OH225811   4.905   5.983   1.938
 8623TIP3    H125812   4.927   5.986   1.845
 8623TIP3    H225813   4.989   5.996   1.982
 8624TIP3   OH225814   1.374   3.643   2.735
 8624TIP3    H125815   1.308   3.713   2.735
 8624TIP3    H225816   1.372   3.608   2.824
 8625TIP3   OH225817   4.010   6.746   6.406
 8625TIP3    H125818   4.068   6.777   6.475
 8625TIP3    H225819   3.930   6.719   6.451
 8626TIP3   OH225820   6.048   1.474   2.024
 8626TIP3    H125821   6.084   1.553   2.064
 8626TIP3    H225822   5.975   1.505   1.971
 8627TIP3   OH225823   0.202   3.860   1.981
 8627TIP3    H125824   0.272   3.925   1.987
 8627TIP3    H225825   0.155   3.882   1.901
 8628TIP3   OH225826   3.292   6.810   6.489
 8628TIP3    H125827   3.280   6.727   6.444
 8628TIP3    H225828   3.207   6.829   6.529
 8629TIP3   OH225829   2.972   3.660   1.187
 8629TIP3    H125830   2.902   3.720   1.161
 8629TIP3    H225831   3.042   3.676   1.124
 8630TIP3   OH225832   3.499   5.043   3.914
 8630TIP3    H125833   3.487   4.991   3.993
 8630TIP3    H225834   3.414   5.086   3.901
 8631TIP3   OH225835   4.972   4.987   1.443
 8631TIP3    H125836   5.022   5.067   1.463
 8631TIP3    H225837   4.901   5.017   1.386
 8632TIP3   OH225838   4.349   5.831   5.818
 8632TIP3    H125839   4.313   5.747   5.848
 8632TIP3    H225840   4.443   5.822   5.832
 8633TIP3   OH225841   4.624   3.567   4.705
 8633TIP3    H125842   4.677   3.514   4.647
 8633TIP3    H225843   4.665   3.557   4.792
 8634TIP3   OH225844   5.926   0.245   2.957
 8634TIP3    H125845   5.925   0.336   2.927
 8634TIP3    H225846   6.015   0.231   2.990
 8635TIP3   OH225847   3.935   2.764   4.561
 8635TIP3    H125848   3.951   2.834   4.624
 8635TIP3    H225849   4.021   2.741   4.528
 8636TIP3   OH225850   4.696   3.663   6.512
 8636TIP3    H125851   4.716   3.748   6.551
 8636TIP3    H225852   4.779   3.615   6.516
 8637TIP3   OH225853   1.972   7.247   5.656
 8637TIP3    H125854   1.945   7.295   5.578
 8637TIP3    H225855   1.906   7.270   5.722
 8638TIP3   OH225856   6.139   1.997   2.190
 8638TIP3    H125857   6.152   1.907   2.161
 8638TIP3    H225858   6.223   2.023   2.228
 8639TIP3   OH225859   5.163   0.407   3.024
 8639TIP3    H125860   5.151   0.492   2.981
 8639TIP3    H225861   5.075   0.370   3.029
 8640TIP3   OH225862   2.749   4.183   0.882
 8640TIP3    H125863   2.694   4.116   0.842
 8640TIP3    H225864   2.739   4.259   0.824
 8641TIP3   OH225865   5.190   6.496   3.143
 8641TIP3    H125866   5.113   6.508   3.198
 8641TIP3    H225867   5.184   6.565   3.077
 8642TIP3   OH225868   1.217   2.201   6.777
 8642TIP3    H125869   1.309   2.192   6.750
 8642TIP3    H225870   1.200   2.123   6.829
 8643TIP3   OH225871   3.517   6.763   2.693
 8643TIP3    H125872   3.477   6.696   2.638
 8643TIP3    H225873   3.443   6.806   2.737
 8644TIP3   OH225874   7.663   5.560   1.716
 8644TIP3    H125875   7.625   5.517   1.639
 8644TIP3    H225876   7.756   5.541   1.712
 8645TIP3   OH225877   4.111   3.441   6.279
 8645TIP3    H125878   4.051   3.378   6.319
 8645TIP3    H225879   4.159   3.478   6.353
 8646TIP3   OH225880   6.960   5.183   3.976
 8646TIP3    H125881   6.915   5.213   4.055
 8646TIP3    H225882   6.925   5.239   3.906
 8647TIP3   OH225883   0.356   7.169   5.252
 8647TIP3    H125884   0.270   7.129   5.239
 8647TIP3    H225885   0.391   7.179   5.163
 8648TIP3   OH225886   7.099   2.498   5.737
 8648TIP3    H125887   7.104   2.468   5.828
 8648TIP3    H225888   7.166   2.448   5.691
 8649TIP3   OH225889   6.295   4.602   6.207
 8649TIP3    H125890   6.380   4.632   6.238
 8649TIP3    H225891   6.237   4.676   6.220
 8650TIP3   OH225892   0.633   6.443   6.339
 8650TIP3    H125893   0.586   6.360   6.328
 8650TIP3    H225894   0.564   6.507   6.357
 8651TIP3   OH225895   5.521   1.174   4.621
 8651TIP3    H125896   5.493   1.115   4.692
 8651TIP3    H225897   5.491   1.131   4.541
 8652TIP3   OH225898   7.519   4.095   3.946
 8652TIP3    H125899   7.472   4.141   3.876
 8652TIP3    H225900   7.549   4.014   3.906
 8653TIP3   OH225901   1.258   4.607   6.416
 8653TIP3    H125902   1.196   4.659   6.467
 8653TIP3    H225903   1.207   4.532   6.385
 8654TIP3   OH225904   6.986   4.072   2.532
 8654TIP3    H125905   6.936   4.132   2.476
 8654TIP3    H225906   6.919   4.026   2.583
 8655TIP3   OH225907   1.945   7.815   0.313
 8655TIP3    H125908   1.865   7.805   0.363
 8655TIP3    H225909   1.956   7.731   0.268
 8656TIP3   OH225910   4.270   2.977   6.017
 8656TIP3    H125911   4.202   3.007   5.957
 8656TIP3    H225912   4.345   3.033   5.997
 8657TIP3   OH225913   0.969   4.351   3.218
 8657TIP3    H125914   0.963   4.388   3.130
 8657TIP3    H225915   0.878   4.338   3.246
 8658TIP3   OH225916   8.040   3.054   4.141
 8658TIP3    H125917   8.077   3.067   4.229
 8658TIP3    H225918   8.078   2.972   4.112
 8659TIP3   OH225919   8.197   2.396   6.236
 8659TIP3    H125920   8.109   2.429   6.218
 8659TIP3    H225921   8.184   2.304   6.257
 8660TIP3   OH225922   3.298   4.530   1.158
 8660TIP3    H125923   3.268   4.439   1.155
 8660TIP3    H225924   3.238   4.576   1.099
 8661TIP3   OH225925   4.726   3.604   3.377
 8661TIP3    H125926   4.712   3.516   3.341
 8661TIP3    H225927   4.701   3.663   3.306
 8662TIP3   OH225928   4.422   0.609   5.247
 8662TIP3    H125929   4.367   0.674   5.292
 8662TIP3    H225930   4.390   0.525   5.279
 8663TIP3   OH225931   3.436   6.002   0.907
 8663TIP3    H125932   3.499   6.018   0.977
 8663TIP3    H225933   3.458   5.915   0.874
 8664TIP3   OH225934   5.111   0.529   1.800
 8664TIP3    H125935   5.083   0.473   1.728
 8664TIP3    H225936   5.035   0.583   1.820
 8665TIP3   OH225937   6.319   4.196   0.730
 8665TIP3    H125938   6.306   4.288   0.707
 8665TIP3    H225939   6.413   4.181   0.718
 8666TIP3   OH225940   6.095   2.834   5.327
 8666TIP3    H125941   6.029   2.821   5.394
 8666TIP3    H225942   6.136   2.918   5.350
 8667TIP3   OH225943   5.226   1.376   6.048
 8667TIP3    H125944   5.293   1.310   6.066
 8667TIP3    H225945   5.188   1.396   6.133
 8668TIP3   OH225946   3.984   1.725   5.885
 8668TIP3    H125947   4.010   1.801   5.832
 8668TIP3    H225948   3.945   1.664   5.823
 8669TIP3   OH225949   3.882   4.407   1.329
 8669TIP3    H125950   3.898   4.335   1.390
 8669TIP3    H225951   3.919   4.376   1.246
 8670TIP3   OH225952   0.711   4.329   5.081
 8670TIP3    H125953   0.780   4.374   5.130
 8670TIP3    H225954   0.629   4.362   5.118
 8671TIP3   OH225955   1.465   1.051   1.837
 8671TIP3    H125956   1.372   1.026   1.843
 8671TIP3    H225957   1.487   1.039   1.745
 8672TIP3   OH225958   2.769   0.296   3.765
 8672TIP3    H125959   2.852   0.344   3.768
 8672TIP3    H225960   2.740   0.305   3.675
 8673TIP3   OH225961   0.212   3.495   3.639
 8673TIP3    H125962   0.143   3.558   3.620
 8673TIP3    H225963   0.166   3.411   3.647
 8674TIP3   OH225964   1.335   6.492   0.777
 8674TIP3    H125965   1.319   6.400   0.757
 8674TIP3    H225966   1.430   6.499   0.786
 8675TIP3   OH225967   6.462   0.285   4.179
 8675TIP3    H125968   6.389   0.303   4.120
 8675TIP3    H225969   6.500   0.371   4.198
 8676TIP3   OH225970   2.114   2.104   4.510
 8676TIP3    H125971   2.125   2.198   4.520
 8676TIP3    H225972   2.109   2.070   4.600
 8677TIP3   OH225973   7.280   7.064   4.998
 8677TIP3    H125974   7.199   7.019   5.022
 8677TIP3    H225975   7.313   7.016   4.923
 8678TIP3   OH225976   4.123   3.567   5.618
 8678TIP3    H125977   4.120   3.490   5.561
 8678TIP3    H225978   4.073   3.634   5.573
 8679TIP3   OH225979   5.716   5.931   3.921
 8679TIP3    H125980   5.759   5.865   3.866
 8679TIP3    H225981   5.738   6.015   3.880
 8680TIP3   OH225982   3.743   0.240   6.037
 8680TIP3    H125983   3.806   0.183   6.080
 8680TIP3    H225984   3.690   0.276   6.109
 8681TIP3   OH225985   3.826   0.909   1.244
 8681TIP3    H125986   3.805   0.824   1.283
 8681TIP3    H225987   3.882   0.952   1.308
 8682TIP3   OH225988   4.007   6.152   6.543
 8682TIP3    H125989   4.037   6.242   6.533
 8682TIP3    H225990   4.060   6.102   6.481
 8683TIP3   OH225991   5.233   6.599   1.534
 8683TIP3    H125992   5.302   6.547   1.493
 8683TIP3    H225993   5.272   6.685   1.546
 8684TIP3   OH225994   2.737   6.371   3.353
 8684TIP3    H125995   2.660   6.429   3.355
 8684TIP3    H225996   2.812   6.431   3.350
 8685TIP3   OH225997   8.033   3.110   5.809
 8685TIP3    H125998   7.942   3.117   5.781
 8685TIP3    H225999   8.050   3.192   5.856
 8686TIP3   OH226000   3.248   5.181   3.880
 8686TIP3    H126001   3.152   5.180   3.873
 8686TIP3    H226002   3.276   5.245   3.815
 8687TIP3   OH226003   8.215   2.112   0.462
 8687TIP3    H126004   8.220   2.061   0.381
 8687TIP3    H226005   8.134   2.081   0.504
 8688TIP3   OH226006   3.966   5.991   3.075
 8688TIP3    H126007   4.011   6.039   3.144
 8688TIP3    H226008   3.978   6.044   2.997
 8689TIP3   OH226009   4.993   4.023   5.126
 8689TIP3    H126010   5.082   4.057   5.124
 8689TIP3    H226011   4.943   4.084   5.071
 8690TIP3   OH226012   7.642   4.878   1.248
 8690TIP3    H126013   7.658   4.813   1.179
 8690TIP3    H226014   7.617   4.957   1.201
 8691TIP3   OH226015   3.803   3.645   1.414
 8691TIP3    H126016   3.823   3.686   1.329
 8691TIP3    H226017   3.840   3.557   1.407
 8692TIP3   OH226018   1.651   6.566   2.877
 8692TIP3    H126019   1.612   6.641   2.832
 8692TIP3    H226020   1.741   6.564   2.846
 8693TIP3   OH226021   4.562   7.573   5.009
 8693TIP3    H126022   4.610   7.491   5.000
 8693TIP3    H226023   4.565   7.612   4.922
 8694TIP3   OH226024   2.379   0.598   6.042
 8694TIP3    H126025   2.400   0.607   5.949
 8694TIP3    H226026   2.293   0.640   6.051
 8695TIP3   OH226027   0.369   5.151   1.926
 8695TIP3    H126028   0.446   5.097   1.909
 8695TIP3    H226029   0.392   5.200   2.005
 8696TIP3   OH226030   7.426   0.478   6.287
 8696TIP3    H126031   7.433   0.396   6.335
 8696TIP3    H226032   7.499   0.532   6.318
 8697TIP3   OH226033   5.066   6.807   2.723
 8697TIP3    H126034   5.027   6.757   2.651
 8697TIP3    H226035   5.160   6.802   2.707
 8698TIP3   OH226036   5.437   5.068   2.937
 8698TIP3    H126037   5.452   4.974   2.926
 8698TIP3    H226038   5.522   5.108   2.918
 8699TIP3   OH226039   7.761   6.830   4.938
 8699TIP3    H126040   7.743   6.835   4.844
 8699TIP3    H226041   7.797   6.742   4.950
 8700TIP3   OH226042   1.577   3.092   4.452
 8700TIP3    H126043   1.543   3.029   4.389
 8700TIP3    H226044   1.507   3.156   4.462
 8701TIP3   OH226045   4.454   7.386   6.218
 8701TIP3    H126046   4.548   7.377   6.203
 8701TIP3    H226047   4.418   7.299   6.200
 8702TIP3   OH226048   6.797   5.452   1.794
 8702TIP3    H126049   6.839   5.522   1.844
 8702TIP3    H226050   6.771   5.388   1.861
 8703TIP3   OH226051   5.894   0.806   5.953
 8703TIP3    H126052   5.923   0.859   6.027
 8703TIP3    H226053   5.820   0.855   5.917
 8704TIP3   OH226054   6.398   6.333   2.204
 8704TIP3    H126055   6.394   6.294   2.291
 8704TIP3    H226056   6.385   6.259   2.144
 8705TIP3   OH226057   2.178   7.458   3.070
 8705TIP3    H126058   2.244   7.413   3.017
 8705TIP3    H226059   2.226   7.492   3.145
 8706TIP3   OH226060   2.847   5.929   3.953
 8706TIP3    H126061   2.796   5.898   4.028
 8706TIP3    H226062   2.837   5.859   3.887
 8707TIP3   OH226063   0.466   6.986   5.470
 8707TIP3    H126064   0.436   7.061   5.419
 8707TIP3    H226065   0.549   6.960   5.429
 8708TIP3   OH226066   4.871   6.165   0.420
 8708TIP3    H126067   4.948   6.123   0.382
 8708TIP3    H226068   4.899   6.255   0.436
 8709TIP3   OH226069   2.615   3.390   0.797
 8709TIP3    H126070   2.536   3.378   0.850
 8709TIP3    H226071   2.618   3.484   0.779
 8710TIP3   OH226072   6.036   6.285   5.140
 8710TIP3    H126073   6.067   6.229   5.211
 8710TIP3    H226074   6.042   6.374   5.175
 8711TIP3   OH226075   3.759   7.066   2.959
 8711TIP3    H126076   3.710   7.002   3.010
 8711TIP3    H226077   3.716   7.067   2.874
 8712TIP3   OH226078   2.420   0.604   5.511
 8712TIP3    H126079   2.348   0.620   5.573
 8712TIP3    H226080   2.376   0.586   5.428
 8713TIP3   OH226081   1.924   1.908   5.822
 8713TIP3    H126082   1.994   1.850   5.796
 8713TIP3    H226083   1.881   1.933   5.740
 8714TIP3   OH226084   5.541   7.140   3.746
 8714TIP3    H126085   5.511   7.220   3.788
 8714TIP3    H226086   5.568   7.083   3.818
 8715TIP3   OH226087   4.359   4.731   5.737
 8715TIP3    H126088   4.406   4.693   5.663
 8715TIP3    H226089   4.331   4.817   5.707
 8716TIP3   OH226090   1.735   6.390   5.420
 8716TIP3    H126091   1.731   6.476   5.461
 8716TIP3    H226092   1.826   6.379   5.396
 8717TIP3   OH226093   4.553   7.334   0.189
 8717TIP3    H126094   4.490   7.377   0.131
 8717TIP3    H226095   4.504   7.262   0.229
 8718TIP3   OH226096   5.494   0.176   1.615
 8718TIP3    H126097   5.520   0.173   1.707
 8718TIP3    H226098   5.413   0.127   1.611
 8719TIP3   OH226099   5.057   2.501   2.052
 8719TIP3    H126100   5.056   2.412   2.015
 8719TIP3    H226101   4.998   2.496   2.127
 8720TIP3   OH226102   6.526   4.385   1.799
 8720TIP3    H126103   6.450   4.436   1.829
 8720TIP3    H226104   6.525   4.307   1.855
 8721TIP3   OH226105   6.796   4.207   2.377
 8721TIP3    H126106   6.718   4.152   2.374
 8721TIP3    H226107   6.774   4.283   2.322
 8722TIP3   OH226108   8.048   4.397   1.995
 8722TIP3    H126109   7.995   4.474   1.976
 8722TIP3    H226110   8.127   4.431   2.036
 8723TIP3   OH226111   7.041   0.627   1.859
 8723TIP3    H126112   7.002   0.560   1.915
 8723TIP3    H226113   7.067   0.580   1.780
 8724TIP3   OH226114   7.731   1.126   1.346
 8724TIP3    H126115   7.651   1.084   1.379
 8724TIP3    H226116   7.779   1.055   1.304
 8725TIP3   OH226117   3.779   0.053   6.358
 8725TIP3    H126118   3.726   0.122   6.318
 8725TIP3    H226119   3.815   0.094   6.437
 8726TIP3   OH226120   7.631   3.344   2.666
 8726TIP3    H126121   7.637   3.271   2.605
 8726TIP3    H226122   7.621   3.421   2.611
 8727TIP3   OH226123   6.005   3.408   3.727
 8727TIP3    H126124   5.949   3.479   3.696
 8727TIP3    H226125   5.992   3.338   3.663
 8728TIP3   OH226126   6.522   7.320   4.733
 8728TIP3    H126127   6.442   7.346   4.777
 8728TIP3    H226128   6.591   7.330   4.799
 8729TIP3   OH226129   1.493   4.007   6.339
 8729TIP3    H126130   1.547   3.983   6.414
 8729TIP3    H226131   1.551   3.996   6.263
 8730TIP3   OH226132   3.534   0.462   4.231
 8730TIP3    H126133   3.452   0.509   4.215
 8730TIP3    H226134   3.556   0.483   4.322
 8731TIP3   OH226135   3.234   1.143   5.731
 8731TIP3    H126136   3.328   1.131   5.744
 8731TIP3    H226137   3.223   1.238   5.722
 8732TIP3   OH226138   2.124   0.474   3.583
 8732TIP3    H126139   2.061   0.407   3.609
 8732TIP3    H226140   2.152   0.449   3.495
 8733TIP3   OH226141   1.399   1.527   0.945
 8733TIP3    H126142   1.327   1.500   1.003
 8733TIP3    H226143   1.424   1.447   0.900
 8734TIP3   OH226144   3.880   2.371   5.086
 8734TIP3    H126145   3.815   2.320   5.135
 8734TIP3    H226146   3.944   2.306   5.056
 8735TIP3   OH226147   8.149   1.442   2.267
 8735TIP3    H126148   8.201   1.396   2.201
 8735TIP3    H226149   8.170   1.398   2.349
 8736TIP3   OH226150   1.402   1.776   6.301
 8736TIP3    H126151   1.427   1.843   6.238
 8736TIP3    H226152   1.482   1.757   6.349
 8737TIP3   OH226153   0.283   5.217   5.745
 8737TIP3    H126154   0.231   5.180   5.674
 8737TIP3    H226155   0.309   5.304   5.714
 8738TIP3   OH226156   4.435   0.515   3.203
 8738TIP3    H126157   4.439   0.610   3.204
 8738TIP3    H226158   4.510   0.488   3.151
 8739TIP3   OH226159   7.226   7.214   6.077
 8739TIP3    H126160   7.198   7.288   6.022
 8739TIP3    H226161   7.156   7.205   6.142
 8740TIP3   OH226162   7.749   4.595   0.494
 8740TIP3    H126163   7.813   4.534   0.533
 8740TIP3    H226164   7.670   4.582   0.546
 8741TIP3   OH226165   7.653   6.488   4.812
 8741TIP3    H126166   7.621   6.532   4.890
 8741TIP3    H226167   7.579   6.489   4.751
 8742TIP3   OH226168   8.068   6.945   3.497
 8742TIP3    H126169   8.074   6.903   3.411
 8742TIP3    H226170   8.159   6.949   3.528
 8743TIP3   OH226171   5.505   6.907   6.623
 8743TIP3    H126172   5.500   6.871   6.711
 8743TIP3    H226173   5.494   7.001   6.634
 8744TIP3   OH226174   6.853   5.145   3.500
 8744TIP3    H126175   6.943   5.175   3.508
 8744TIP3    H226176   6.856   5.073   3.437
 8745TIP3   OH226177   7.527   1.270   4.692
 8745TIP3    H126178   7.482   1.241   4.771
 8745TIP3    H226179   7.590   1.335   4.723
 8746TIP3   OH226180   5.221   0.492   6.210
 8746TIP3    H126181   5.300   0.540   6.235
 8746TIP3    H226182   5.204   0.518   6.120
 8747TIP3   OH226183   4.969   0.029   6.119
 8747TIP3    H126184   5.058  -0.006   6.123
 8747TIP3    H226185   4.948   0.052   6.210
 8748TIP3   OH226186   1.466   3.276   0.004
 8748TIP3    H126187   1.418   3.223   0.067
 8748TIP3    H226188   1.436   3.365   0.020
 8749TIP3   OH226189   7.664   0.553   6.386
 8749TIP3    H126190   7.747   0.590   6.417
 8749TIP3    H226191   7.655   0.472   6.435
 8750TIP3   OH226192   0.829   6.052   5.672
 8750TIP3    H126193   0.860   6.134   5.635
 8750TIP3    H226194   0.737   6.068   5.693
 8751TIP3   OH226195   0.314   6.754   2.425
 8751TIP3    H126196   0.284   6.810   2.353
 8751TIP3    H226197   0.368   6.812   2.479
 8752TIP3   OH226198   4.736   6.263   2.012
 8752TIP3    H126199   4.732   6.314   2.093
 8752TIP3    H226200   4.781   6.319   1.949
 8753TIP3   OH226201   2.115   0.847   2.986
 8753TIP3    H126202   2.116   0.943   2.991
 8753TIP3    H226203   2.201   0.825   2.951
 8754TIP3   OH226204   4.408   0.003   3.367
 8754TIP3    H126205   4.355   0.078   3.338
 8754TIP3    H226206   4.408   0.009   3.462
 8755TIP3   OH226207   6.210   3.081   0.178
 8755TIP3    H126208   6.230   2.991   0.203
 8755TIP3    H226209   6.205   3.080   0.083
 8756TIP3   OH226210   3.704   0.352   4.619
 8756TIP3    H126211   3.789   0.395   4.617
 8756TIP3    H226212   3.700   0.303   4.537
 8757TIP3   OH226213   0.851   3.022   5.018
 8757TIP3    H126214   0.880   2.981   4.936
 8757TIP3    H226215   0.811   2.951   5.068
 8758TIP3   OH226216   0.154   2.555   6.187
 8758TIP3    H126217   0.078   2.498   6.191
 8758TIP3    H226218   0.212   2.514   6.122
 8759TIP3   OH226219   7.136   2.836   1.358
 8759TIP3    H126220   7.071   2.768   1.376
 8759TIP3    H226221   7.134   2.846   1.263
 8760TIP3   OH226222   0.530   7.082   3.982
 8760TIP3    H126223   0.446   7.122   4.004
 8760TIP3    H226224   0.530   6.999   4.029
 8761TIP3   OH226225   2.117   1.430   5.787
 8761TIP3    H126226   2.160   1.512   5.812
 8761TIP3    H226227   2.183   1.383   5.737
 8762TIP3   OH226228   5.981   7.375   4.533
 8762TIP3    H126229   5.924   7.428   4.589
 8762TIP3    H226230   6.052   7.348   4.591
 8763TIP3   OH226231   5.030   0.978   6.256
 8763TIP3    H126232   4.942   0.963   6.220
 8763TIP3    H226233   5.088   0.923   6.204
 8764TIP3   OH226234   0.149   4.394   0.519
 8764TIP3    H126235   0.156   4.480   0.478
 8764TIP3    H226236   0.225   4.345   0.485
 8765TIP3   OH226237   5.542   0.131   5.499
 8765TIP3    H126238   5.552   0.059   5.437
 8765TIP3    H226239   5.609   0.195   5.474
 8766TIP3   OH226240   4.135   7.465   5.686
 8766TIP3    H126241   4.178   7.502   5.609
 8766TIP3    H226242   4.092   7.386   5.654
 8767TIP3   OH226243   6.168   0.684   2.946
 8767TIP3    H126244   6.253   0.641   2.938
 8767TIP3    H226245   6.132   0.682   2.858
 8768TIP3   OH226246   1.107   6.634   4.943
 8768TIP3    H126247   1.165   6.571   4.899
 8768TIP3    H226248   1.059   6.582   5.007
 8769TIP3   OH226249   2.569   1.270   4.588
 8769TIP3    H126250   2.579   1.285   4.494
 8769TIP3    H226251   2.601   1.351   4.628
 8770TIP3   OH226252   6.871   6.559   2.027
 8770TIP3    H126253   6.959   6.560   2.064
 8770TIP3    H226254   6.841   6.469   2.037
 8771TIP3   OH226255   3.110   3.197   2.696
 8771TIP3    H126256   3.113   3.140   2.773
 8771TIP3    H226257   3.200   3.198   2.664
 8772TIP3   OH226258   0.615   2.281   6.558
 8772TIP3    H126259   0.599   2.300   6.466
 8772TIP3    H226260   0.666   2.356   6.590
 8773TIP3   OH226261   2.077   1.481   4.671
 8773TIP3    H126262   2.168   1.498   4.696
 8773TIP3    H226263   2.076   1.388   4.646
 8774TIP3   OH226264   4.431   7.475   3.755
 8774TIP3    H126265   4.363   7.408   3.741
 8774TIP3    H226266   4.382   7.554   3.777
 8775TIP3   OH226267   0.143   3.491   5.425
 8775TIP3    H126268   0.222   3.453   5.385
 8775TIP3    H226269   0.157   3.481   5.519
 8776TIP3   OH226270   1.707   0.060   2.641
 8776TIP3    H126271   1.776   0.125   2.654
 8776TIP3    H226272   1.643   0.104   2.585
 8777TIP3   OH226273   0.473   6.098   2.956
 8777TIP3    H126274   0.536   6.076   3.025
 8777TIP3    H226275   0.479   6.026   2.894
 8778TIP3   OH226276   7.545   3.594   5.428
 8778TIP3    H126277   7.464   3.614   5.474
 8778TIP3    H226278   7.517   3.575   5.338
 8779TIP3   OH226279   3.412   4.140   2.235
 8779TIP3    H126280   3.468   4.119   2.310
 8779TIP3    H226281   3.399   4.056   2.190
 8780TIP3   OH226282   4.555   4.374   3.358
 8780TIP3    H126283   4.599   4.309   3.413
 8780TIP3    H226284   4.552   4.453   3.411
 8781TIP3   OH226285   3.675   5.738   1.785
 8781TIP3    H126286   3.726   5.765   1.861
 8781TIP3    H226287   3.611   5.677   1.820
 8782TIP3   OH226288   7.631   2.155   0.966
 8782TIP3    H126289   7.593   2.200   1.041
 8782TIP3    H226290   7.721   2.188   0.961
 8783TIP3   OH226291   2.317   4.414   5.793
 8783TIP3    H126292   2.247   4.467   5.753
 8783TIP3    H226293   2.397   4.462   5.773
 8784TIP3   OH226294   7.901   5.485   1.127
 8784TIP3    H126295   7.858   5.560   1.166
 8784TIP3    H226296   7.991   5.513   1.113
 8785TIP3   OH226297   4.387   6.004   4.855
 8785TIP3    H126298   4.328   6.079   4.860
 8785TIP3    H226299   4.387   5.969   4.944
 8786TIP3   OH226300   3.022   1.080   0.091
 8786TIP3    H126301   2.957   1.102   0.158
 8786TIP3    H226302   3.104   1.068   0.141
 8787TIP3   OH226303   5.952   3.811   4.779
 8787TIP3    H126304   5.889   3.828   4.849
 8787TIP3    H226305   5.911   3.742   4.726
 8788TIP3   OH226306   6.939   1.142   3.997
 8788TIP3    H126307   7.013   1.090   3.967
 8788TIP3    H226308   6.943   1.137   4.093
 8789TIP3   OH226309   4.986   5.117   6.344
 8789TIP3    H126310   5.058   5.100   6.404
 8789TIP3    H226311   4.907   5.105   6.397
 8790TIP3   OH226312   3.432   2.502   4.987
 8790TIP3    H126313   3.479   2.507   4.904
 8790TIP3    H226314   3.438   2.590   5.024
 8791TIP3   OH226315   1.905   2.986   2.075
 8791TIP3    H126316   1.997   2.968   2.091
 8791TIP3    H226317   1.859   2.910   2.111
 8792TIP3   OH226318   5.225   1.355   1.071
 8792TIP3    H126319   5.137   1.371   1.108
 8792TIP3    H226320   5.283   1.359   1.147
 8793TIP3   OH226321   2.465   5.541   6.216
 8793TIP3    H126322   2.461   5.456   6.172
 8793TIP3    H226323   2.555   5.548   6.247
 8794TIP3   OH226324   3.042   1.144   1.522
 8794TIP3    H126325   3.084   1.229   1.508
 8794TIP3    H226326   2.969   1.143   1.460
 8795TIP3   OH226327   5.009   5.349   4.875
 8795TIP3    H126328   5.008   5.387   4.787
 8795TIP3    H226329   4.945   5.278   4.872
 8796TIP3   OH226330   1.899   0.771   6.655
 8796TIP3    H126331   1.922   0.693   6.706
 8796TIP3    H226332   1.804   0.766   6.644
 8797TIP3   OH226333   4.608   6.351   2.261
 8797TIP3    H126334   4.528   6.399   2.240
 8797TIP3    H226335   4.667   6.417   2.295
 8798TIP3   OH226336   1.945   1.027   3.760
 8798TIP3    H126337   1.991   1.073   3.690
 8798TIP3    H226338   2.015   0.989   3.813
 8799TIP3   OH226339   4.406   5.238   5.229
 8799TIP3    H126340   4.482   5.266   5.178
 8799TIP3    H226341   4.404   5.143   5.219
 8800TIP3   OH226342   7.679   1.387   0.930
 8800TIP3    H126343   7.591   1.357   0.951
 8800TIP3    H226344   7.702   1.445   1.003
 8801TIP3   OH226345   6.290   3.403   2.622
 8801TIP3    H126346   6.278   3.343   2.548
 8801TIP3    H226347   6.205   3.405   2.665
 8802TIP3   OH226348   7.724   3.093   4.978
 8802TIP3    H126349   7.729   3.162   5.044
 8802TIP3    H226350   7.755   3.135   4.897
 8803TIP3   OH226351   3.403   2.246   1.489
 8803TIP3    H126352   3.334   2.296   1.532
 8803TIP3    H226353   3.380   2.154   1.503
 8804TIP3   OH226354   4.229   7.019   5.792
 8804TIP3    H126355   4.260   6.957   5.858
 8804TIP3    H226356   4.183   7.086   5.842
 8805TIP3   OH226357   4.843   2.021   3.898
 8805TIP3    H126358   4.896   1.948   3.929
 8805TIP3    H226359   4.866   2.094   3.956
 8806TIP3   OH226360   7.457   0.202   0.757
 8806TIP3    H126361   7.530   0.201   0.696
 8806TIP3    H226362   7.379   0.192   0.702
 8807TIP3   OH226363   4.060   7.283   2.214
 8807TIP3    H126364   4.073   7.228   2.291
 8807TIP3    H226365   3.981   7.249   2.172
 8808TIP3   OH226366   0.716   4.366   6.689
 8808TIP3    H126367   0.623   4.347   6.677
 8808TIP3    H226368   0.750   4.290   6.737
 8809TIP3   OH226369   0.848   0.636   3.813
 8809TIP3    H126370   0.937   0.616   3.843
 8809TIP3    H226371   0.857   0.721   3.770
 8810TIP3   OH226372   5.484   6.746   3.746
 8810TIP3    H126373   5.572   6.732   3.781
 8810TIP3    H226374   5.430   6.766   3.823
 8811TIP3   OH226375   2.829   6.711   1.561
 8811TIP3    H126376   2.736   6.735   1.556
 8811TIP3    H226377   2.849   6.713   1.655
 8812TIP3   OH226378   0.785   4.595   6.385
 8812TIP3    H126379   0.700   4.569   6.419
 8812TIP3    H226380   0.810   4.672   6.437
 8813TIP3   OH226381   1.557   1.689   1.405
 8813TIP3    H126382   1.467   1.672   1.434
 8813TIP3    H226383   1.563   1.644   1.321
 8814TIP3   OH226384   1.368   4.098   3.238
 8814TIP3    H126385   1.323   4.126   3.158
 8814TIP3    H226386   1.371   4.003   3.232
 8815TIP3   OH226387   4.187   4.057   3.200
 8815TIP3    H126388   4.188   4.125   3.267
 8815TIP3    H226389   4.260   4.078   3.142
 8816TIP3   OH226390   5.841   1.655   5.625
 8816TIP3    H126391   5.933   1.630   5.628
 8816TIP3    H226392   5.813   1.657   5.717
 8817TIP3   OH226393   3.013   6.907   1.455
 8817TIP3    H126394   2.954   6.839   1.489
 8817TIP3    H226395   3.082   6.858   1.410
 8818TIP3   OH226396   7.366   4.115   0.743
 8818TIP3    H126397   7.383   4.097   0.836
 8818TIP3    H226398   7.281   4.074   0.726
 8819TIP3   OH226399   7.333   5.840   0.229
 8819TIP3    H126400   7.260   5.792   0.268
 8819TIP3    H226401   7.332   5.814   0.137
 8820TIP3   OH226402   2.291   7.396   4.360
 8820TIP3    H126403   2.286   7.420   4.268
 8820TIP3    H226404   2.209   7.349   4.377
 8821TIP3   OH226405   5.713   4.441   1.303
 8821TIP3    H126406   5.621   4.436   1.331
 8821TIP3    H226407   5.728   4.357   1.259
 8822TIP3   OH226408   2.003   4.040   5.288
 8822TIP3    H126409   2.062   4.116   5.294
 8822TIP3    H226410   1.915   4.078   5.296
 8823TIP3   OH226411   0.993   0.853   3.048
 8823TIP3    H126412   1.054   0.926   3.034
 8823TIP3    H226413   0.962   0.865   3.137
 8824TIP3   OH226414   2.670   4.332   5.566
 8824TIP3    H126415   2.746   4.381   5.537
 8824TIP3    H226416   2.641   4.283   5.490
 8825TIP3   OH226417   7.658   0.346   2.163
 8825TIP3    H126418   7.695   0.277   2.109
 8825TIP3    H226419   7.684   0.427   2.120
 8826TIP3   OH226420   5.347   1.167   5.435
 8826TIP3    H126421   5.323   1.152   5.344
 8826TIP3    H226422   5.267   1.147   5.485
 8827TIP3   OH226423   6.736   1.403   6.628
 8827TIP3    H126424   6.791   1.325   6.637
 8827TIP3    H226425   6.721   1.411   6.534
 8828TIP3   OH226426   7.910   2.011   0.090
 8828TIP3    H126427   7.861   1.943   0.044
 8828TIP3    H226428   7.885   2.092   0.046
 8829TIP3   OH226429   5.942   4.870   0.542
 8829TIP3    H126430   5.974   4.937   0.481
 8829TIP3    H226431   5.910   4.919   0.617
 8830TIP3   OH226432   0.788   5.592   5.484
 8830TIP3    H126433   0.705   5.561   5.448
 8830TIP3    H226434   0.855   5.554   5.427
 8831TIP3   OH226435   7.646   0.677   3.757
 8831TIP3    H126436   7.688   0.735   3.694
 8831TIP3    H226437   7.701   0.683   3.835
 8832TIP3   OH226438   3.174   3.184   0.481
 8832TIP3    H126439   3.155   3.249   0.413
 8832TIP3    H226440   3.251   3.218   0.526
 8833TIP3   OH226441   7.669   5.660   4.712
 8833TIP3    H126442   7.620   5.639   4.791
 8833TIP3    H226443   7.654   5.753   4.698
 8834TIP3   OH226444   7.601   0.756   2.666
 8834TIP3    H126445   7.631   0.786   2.580
 8834TIP3    H226446   7.672   0.777   2.726
 8835TIP3   OH226447   0.352   0.652   2.379
 8835TIP3    H126448   0.347   0.559   2.401
 8835TIP3    H226449   0.295   0.663   2.303
 8836TIP3   OH226450   3.536   3.365   0.259
 8836TIP3    H126451   3.627   3.339   0.266
 8836TIP3    H226452   3.488   3.283   0.246
 8837TIP3   OH226453   2.791   0.733   1.076
 8837TIP3    H126454   2.765   0.679   1.150
 8837TIP3    H226455   2.887   0.732   1.077
 8838TIP3   OH226456   4.281   7.024   5.331
 8838TIP3    H126457   4.307   7.001   5.242
 8838TIP3    H226458   4.209   7.086   5.319
 8839TIP3   OH226459   3.154   3.494   3.176
 8839TIP3    H126460   3.167   3.562   3.110
 8839TIP3    H226461   3.070   3.454   3.154
 8840TIP3   OH226462   5.234   3.995   0.351
 8840TIP3    H126463   5.222   3.986   0.256
 8840TIP3    H226464   5.176   4.068   0.375
 8841TIP3   OH226465   3.778   3.284   5.495
 8841TIP3    H126466   3.764   3.377   5.478
 8841TIP3    H226467   3.838   3.255   5.427
 8842TIP3   OH226468   1.531   4.190   0.462
 8842TIP3    H126469   1.547   4.256   0.529
 8842TIP3    H226470   1.604   4.200   0.400
 8843TIP3   OH226471   7.258   2.131   3.038
 8843TIP3    H126472   7.336   2.183   3.060
 8843TIP3    H226473   7.293   2.047   3.007
 8844TIP3   OH226474   7.062   3.226   0.839
 8844TIP3    H126475   7.157   3.239   0.829
 8844TIP3    H226476   7.046   3.138   0.806
 8845TIP3   OH226477   4.684   3.036   3.901
 8845TIP3    H126478   4.668   3.123   3.862
 8845TIP3    H226479   4.613   3.024   3.963
 8846TIP3   OH226480   4.952   4.531   3.532
 8846TIP3    H126481   4.925   4.486   3.613
 8846TIP3    H226482   5.043   4.556   3.548
 8847TIP3   OH226483   2.090   7.081   0.585
 8847TIP3    H126484   2.002   7.092   0.621
 8847TIP3    H226485   2.141   7.152   0.624
 8848TIP3   OH226486   5.825   2.468   4.858
 8848TIP3    H126487   5.909   2.505   4.887
 8848TIP3    H226488   5.763   2.491   4.927
 8849TIP3   OH226489   1.676   2.193   2.027
 8849TIP3    H126490   1.754   2.234   2.064
 8849TIP3    H226491   1.709   2.132   1.961
 8850TIP3   OH226492   2.947   4.004   0.420
 8850TIP3    H126493   2.940   4.035   0.510
 8850TIP3    H226494   2.882   3.934   0.413
 8851TIP3   OH226495   4.863   2.356   3.810
 8851TIP3    H126496   4.902   2.322   3.891
 8851TIP3    H226497   4.900   2.443   3.801
 8852TIP3   OH226498   4.940   3.124   5.483
 8852TIP3    H126499   4.967   3.216   5.471
 8852TIP3    H226500   4.991   3.076   5.417
 8853TIP3   OH226501   3.865   7.726   6.078
 8853TIP3    H126502   3.893   7.816   6.097
 8853TIP3    H226503   3.825   7.732   5.991
 8854TIP3   OH226504   4.076   3.781   4.695
 8854TIP3    H126505   3.988   3.799   4.726
 8854TIP3    H226506   4.126   3.763   4.775
 8855TIP3   OH226507   7.673   2.067   6.420
 8855TIP3    H126508   7.722   1.991   6.389
 8855TIP3    H226509   7.736   2.117   6.472
 8856TIP3   OH226510   4.545   6.859   5.684
 8856TIP3    H126511   4.568   6.767   5.694
 8856TIP3    H226512   4.461   6.859   5.638
 8857TIP3   OH226513   7.459   6.814   4.659
 8857TIP3    H126514   7.392   6.881   4.669
 8857TIP3    H226515   7.526   6.837   4.724
 8858TIP3   OH226516   7.891   4.209   6.757
 8858TIP3    H126517   7.973   4.161   6.753
 8858TIP3    H226518   7.887   4.244   6.846
 8859TIP3   OH226519   2.379   3.851   4.105
 8859TIP3    H126520   2.442   3.846   4.033
 8859TIP3    H226521   2.302   3.893   4.067
 8860TIP3   OH226522   7.498   1.008   3.992
 8860TIP3    H126523   7.479   0.953   3.917
 8860TIP3    H226524   7.529   1.090   3.955
 8861TIP3   OH226525   3.497   2.843   2.295
 8861TIP3    H126526   3.426   2.779   2.289
 8861TIP3    H226527   3.455   2.926   2.271
 8862TIP3   OH226528   6.281   0.681   4.091
 8862TIP3    H126529   6.325   0.742   4.032
 8862TIP3    H226530   6.348   0.617   4.113
 8863TIP3   OH226531   4.791   4.730   1.114
 8863TIP3    H126532   4.773   4.670   1.042
 8863TIP3    H226533   4.705   4.765   1.138
 8864TIP3   OH226534   4.567   3.556   1.863
 8864TIP3    H126535   4.618   3.475   1.874
 8864TIP3    H226536   4.587   3.608   1.940
 8865TIP3   OH226537   7.859   4.563   6.728
 8865TIP3    H126538   7.924   4.622   6.692
 8865TIP3    H226539   7.857   4.489   6.667
 8866TIP3   OH226540   1.703   5.780   3.436
 8866TIP3    H126541   1.641   5.734   3.493
 8866TIP3    H226542   1.678   5.755   3.347
 8867TIP3   OH226543   0.699   2.827   4.228
 8867TIP3    H126544   0.635   2.877   4.279
 8867TIP3    H226545   0.746   2.892   4.177
 8868TIP3   OH226546   1.320   5.817   1.370
 8868TIP3    H126547   1.410   5.830   1.340
 8868TIP3    H226548   1.279   5.765   1.300
 8869TIP3   OH226549   0.589   4.126   4.964
 8869TIP3    H126550   0.512   4.122   5.022
 8869TIP3    H226551   0.641   4.199   4.999
 8870TIP3   OH226552   7.104   7.813   4.683
 8870TIP3    H126553   7.080   7.868   4.757
 8870TIP3    H226554   7.191   7.843   4.658
 8871TIP3   OH226555   6.291   3.366   3.110
 8871TIP3    H126556   6.218   3.347   3.052
 8871TIP3    H226557   6.368   3.333   3.063
 8872TIP3   OH226558   7.293   5.707   0.637
 8872TIP3    H126559   7.268   5.661   0.717
 8872TIP3    H226560   7.305   5.637   0.572
 8873TIP3   OH226561   2.724   5.821   1.079
 8873TIP3    H126562   2.680   5.877   1.016
 8873TIP3    H226563   2.656   5.799   1.143
 8874TIP3   OH226564   1.023   6.190   5.074
 8874TIP3    H126565   1.084   6.170   5.145
 8874TIP3    H226566   1.051   6.133   5.002
 8875TIP3   OH226567   5.521   5.279   3.982
 8875TIP3    H126568   5.498   5.360   3.937
 8875TIP3    H226569   5.532   5.305   4.073
 8876TIP3   OH226570   2.133   6.168   0.469
 8876TIP3    H126571   2.214   6.217   0.453
 8876TIP3    H226572   2.063   6.232   0.452
 8877TIP3   OH226573   0.308   4.607   2.770
 8877TIP3    H126574   0.383   4.560   2.806
 8877TIP3    H226575   0.232   4.561   2.804
 8878TIP3   OH226576   5.694   1.290   1.333
 8878TIP3    H126577   5.628   1.293   1.402
 8878TIP3    H226578   5.738   1.206   1.344
 8879TIP3   OH226579   7.718   0.355   5.254
 8879TIP3    H126580   7.679   0.279   5.298
 8879TIP3    H226581   7.813   0.343   5.266
 8880TIP3   OH226582   2.902   1.565   3.295
 8880TIP3    H126583   2.917   1.574   3.389
 8880TIP3    H226584   2.988   1.577   3.255
 8881TIP3   OH226585   3.544   7.154   3.195
 8881TIP3    H126586   3.506   7.139   3.108
 8881TIP3    H226587   3.582   7.069   3.220
 8882TIP3   OH226588   8.176   5.996   2.799
 8882TIP3    H126589   8.227   6.074   2.821
 8882TIP3    H226590   8.227   5.953   2.731
 8883TIP3   OH226591   7.544   3.509   0.720
 8883TIP3    H126592   7.496   3.454   0.658
 8883TIP3    H226593   7.635   3.505   0.690
 8884TIP3   OH226594   2.501   2.366   4.364
 8884TIP3    H126595   2.550   2.387   4.284
 8884TIP3    H226596   2.442   2.441   4.376
 8885TIP3   OH226597   7.520   3.690   0.437
 8885TIP3    H126598   7.500   3.711   0.529
 8885TIP3    H226599   7.509   3.595   0.432
 8886TIP3   OH226600   2.858   7.365   1.432
 8886TIP3    H126601   2.913   7.405   1.365
 8886TIP3    H226602   2.874   7.418   1.511
 8887TIP3   OH226603   5.076   0.502   4.321
 8887TIP3    H126604   5.169   0.522   4.332
 8887TIP3    H226605   5.067   0.473   4.230
 8888TIP3   OH226606   3.439   4.687   4.746
 8888TIP3    H126607   3.515   4.666   4.800
 8888TIP3    H226608   3.456   4.776   4.714
 8889TIP3   OH226609   2.362   0.842   0.556
 8889TIP3    H126610   2.384   0.790   0.633
 8889TIP3    H226611   2.367   0.780   0.483
 8890TIP3   OH226612   7.348   1.164   4.867
 8890TIP3    H126613   7.265   1.210   4.877
 8890TIP3    H226614   7.385   1.160   4.956
 8891TIP3   OH226615   1.933   0.629   2.381
 8891TIP3    H126616   1.996   0.679   2.435
 8891TIP3    H226617   1.861   0.610   2.441
 8892TIP3   OH226618   5.040   4.290   3.870
 8892TIP3    H126619   5.063   4.219   3.810
 8892TIP3    H226620   5.123   4.318   3.908
 8893TIP3   OH226621   5.067   6.563   0.979
 8893TIP3    H126622   5.045   6.507   0.905
 8893TIP3    H226623   5.156   6.537   1.004
 8894TIP3   OH226624   6.839   1.258   5.017
 8894TIP3    H126625   6.786   1.232   4.941
 8894TIP3    H226626   6.782   1.317   5.066
 8895TIP3   OH226627   3.648   4.926   0.170
 8895TIP3    H126628   3.569   4.972   0.200
 8895TIP3    H226629   3.684   4.983   0.101
 8896TIP3   OH226630   7.714   2.114   2.760
 8896TIP3    H126631   7.707   2.130   2.666
 8896TIP3    H226632   7.798   2.152   2.785
 8897TIP3   OH226633   7.346   1.388   5.896
 8897TIP3    H126634   7.344   1.354   5.807
 8897TIP3    H226635   7.348   1.483   5.885
 8898TIP3   OH226636   7.261   6.494   3.151
 8898TIP3    H126637   7.325   6.565   3.143
 8898TIP3    H226638   7.219   6.489   3.065
 8899TIP3   OH226639   5.115   3.964   0.694
 8899TIP3    H126640   5.198   4.012   0.692
 8899TIP3    H226641   5.122   3.900   0.623
 8900TIP3   OH226642   1.344   1.962   4.679
 8900TIP3    H126643   1.433   1.942   4.648
 8900TIP3    H226644   1.357   2.008   4.761
 8901TIP3   OH226645   1.202   7.497   3.007
 8901TIP3    H126646   1.262   7.470   2.938
 8901TIP3    H226647   1.256   7.551   3.065
 8902TIP3   OH226648   1.438   2.406   4.525
 8902TIP3    H126649   1.443   2.313   4.502
 8902TIP3    H226650   1.435   2.407   4.620
 8903TIP3   OH226651   5.395   0.148   4.757
 8903TIP3    H126652   5.364   0.156   4.667
 8903TIP3    H226653   5.337   0.082   4.796
 8904TIP3   OH226654   3.696   6.933   1.373
 8904TIP3    H126655   3.762   6.895   1.315
 8904TIP3    H226656   3.742   6.944   1.456
 8905TIP3   OH226657   6.603   6.681   1.923
 8905TIP3    H126658   6.623   6.654   2.013
 8905TIP3    H226659   6.629   6.606   1.869
 8906TIP3   OH226660   2.666   7.564   2.297
 8906TIP3    H126661   2.632   7.474   2.297
 8906TIP3    H226662   2.729   7.565   2.225
 8907TIP3   OH226663   3.193   3.065   4.923
 8907TIP3    H126664   3.206   2.998   4.990
 8907TIP3    H226665   3.251   3.039   4.852
 8908TIP3   OH226666   1.334   0.430   1.255
 8908TIP3    H126667   1.344   0.346   1.299
 8908TIP3    H226668   1.242   0.434   1.229
 8909TIP3   OH226669   0.123   3.201   0.093
 8909TIP3    H126670   0.036   3.186   0.130
 8909TIP3    H226671   0.128   3.143   0.017
 8910TIP3   OH226672   7.060   2.332   0.502
 8910TIP3    H126673   7.034   2.403   0.562
 8910TIP3    H226674   7.147   2.306   0.533
 8911TIP3   OH226675   4.776   7.624   0.150
 8911TIP3    H126676   4.812   7.538   0.128
 8911TIP3    H226677   4.683   7.617   0.128
 8912TIP3   OH226678   4.643   5.884   2.020
 8912TIP3    H126679   4.716   5.946   2.017
 8912TIP3    H226680   4.684   5.800   2.040
 8913TIP3   OH226681   6.161   1.992   4.517
 8913TIP3    H126682   6.140   1.922   4.456
 8913TIP3    H226683   6.242   1.964   4.559
 8914TIP3   OH226684   0.136   4.573   5.889
 8914TIP3    H126685   0.196   4.648   5.888
 8914TIP3    H226686   0.096   4.575   5.976
 8915TIP3   OH226687   3.082   7.436   2.571
 8915TIP3    H126688   3.143   7.487   2.625
 8915TIP3    H226689   3.040   7.501   2.515
 8916TIP3   OH226690   8.157   6.455   5.757
 8916TIP3    H126691   8.107   6.373   5.759
 8916TIP3    H226692   8.158   6.481   5.665
 8917TIP3   OH226693   7.245   3.867   1.046
 8917TIP3    H126694   7.228   3.911   0.963
 8917TIP3    H226695   7.337   3.842   1.042
 8918TIP3   OH226696   0.406   2.194   4.112
 8918TIP3    H126697   0.498   2.183   4.090
 8918TIP3    H226698   0.372   2.252   4.043
 8919TIP3   OH226699   6.702   7.763   1.552
 8919TIP3    H126700   6.678   7.842   1.504
 8919TIP3    H226701   6.778   7.790   1.605
 8920TIP3   OH226702   7.146   3.241   3.429
 8920TIP3    H126703   7.169   3.309   3.366
 8920TIP3    H226704   7.134   3.162   3.376
 8921TIP3   OH226705   6.899   3.778   3.941
 8921TIP3    H126706   6.957   3.850   3.968
 8921TIP3    H226707   6.951   3.729   3.877
 8922TIP3   OH226708   5.815   5.843   3.317
 8922TIP3    H126709   5.852   5.900   3.384
 8922TIP3    H226710   5.853   5.757   3.335
 8923TIP3   OH226711   2.225   0.488   3.316
 8923TIP3    H126712   2.154   0.454   3.261
 8923TIP3    H226713   2.273   0.547   3.258
 8924TIP3   OH226714   2.018   4.410   4.386
 8924TIP3    H126715   2.108   4.410   4.353
 8924TIP3    H226716   1.977   4.487   4.347
 8925TIP3   OH226717   2.319   2.471   2.340
 8925TIP3    H126718   2.282   2.416   2.409
 8925TIP3    H226719   2.413   2.475   2.359
 8926TIP3   OH226720   7.769   5.752   0.580
 8926TIP3    H126721   7.735   5.786   0.662
 8926TIP3    H226722   7.699   5.767   0.516
 8927TIP3   OH226723   6.162   0.373   0.940
 8927TIP3    H126724   6.176   0.390   0.847
 8927TIP3    H226725   6.139   0.458   0.977
 8928TIP3   OH226726   3.711   1.661   2.131
 8928TIP3    H126727   3.731   1.748   2.098
 8928TIP3    H226728   3.684   1.675   2.221
 8929TIP3   OH226729   0.713   7.517   1.143
 8929TIP3    H126730   0.640   7.548   1.089
 8929TIP3    H226731   0.777   7.483   1.080
 8930TIP3   OH226732   5.975   0.803   2.462
 8930TIP3    H126733   5.889   0.846   2.452
 8930TIP3    H226734   6.038   0.870   2.436
 8931TIP3   OH226735   4.630   2.695   4.366
 8931TIP3    H126736   4.703   2.658   4.415
 8931TIP3    H226737   4.553   2.646   4.397
 8932TIP3   OH226738   4.920   0.502   2.052
 8932TIP3    H126739   4.881   0.511   1.965
 8932TIP3    H226740   4.984   0.431   2.042
 8933TIP3   OH226741   5.113   5.225   1.459
 8933TIP3    H126742   5.207   5.239   1.470
 8933TIP3    H226743   5.073   5.303   1.498
 8934TIP3   OH226744   4.753   6.045   6.461
 8934TIP3    H126745   4.844   6.072   6.466
 8934TIP3    H226746   4.717   6.067   6.547
 8935TIP3   OH226747   1.025   7.260   5.307
 8935TIP3    H126748   0.938   7.297   5.322
 8935TIP3    H226749   1.083   7.336   5.307
 8936TIP3   OH226750   6.763   4.374   0.824
 8936TIP3    H126751   6.749   4.468   0.837
 8936TIP3    H226752   6.858   4.363   0.824
 8937TIP3   OH226753   0.160   6.091   6.558
 8937TIP3    H126754   0.082   6.134   6.593
 8937TIP3    H226755   0.127   6.038   6.485
 8938TIP3   OH226756   1.679   2.676   3.889
 8938TIP3    H126757   1.612   2.657   3.956
 8938TIP3    H226758   1.642   2.748   3.839
 8939TIP3   OH226759   0.658   2.627   1.890
 8939TIP3    H126760   0.645   2.540   1.854
 8939TIP3    H226761   0.683   2.612   1.981
 8940TIP3   OH226762   6.162   1.723   2.048
 8940TIP3    H126763   6.117   1.782   1.987
 8940TIP3    H226764   6.242   1.697   2.002
 8941TIP3   OH226765   4.164   1.760   5.492
 8941TIP3    H126766   4.177   1.725   5.404
 8941TIP3    H226767   4.240   1.816   5.507
 8942TIP3   OH226768   0.329   6.559   4.032
 8942TIP3    H126769   0.420   6.567   4.059
 8942TIP3    H226770   0.312   6.465   4.031
 8943TIP3   OH226771   0.390   6.991   2.280
 8943TIP3    H126772   0.446   7.062   2.248
 8943TIP3    H226773   0.342   7.030   2.353
 8944TIP3   OH226774   0.964   3.345   2.944
 8944TIP3    H126775   0.894   3.381   2.888
 8944TIP3    H226776   0.933   3.363   3.033
 8945TIP3   OH226777   6.036   3.469   0.274
 8945TIP3    H126778   5.986   3.388   0.269
 8945TIP3    H226779   6.126   3.443   0.257
 8946TIP3   OH226780   2.221   7.511   5.858
 8946TIP3    H126781   2.263   7.451   5.796
 8946TIP3    H226782   2.230   7.469   5.943
 8947TIP3   OH226783   6.326   1.245   2.328
 8947TIP3    H126784   6.347   1.325   2.376
 8947TIP3    H226785   6.396   1.237   2.263
 8948TIP3   OH226786   2.087   1.803   6.271
 8948TIP3    H126787   2.154   1.753   6.317
 8948TIP3    H226788   2.034   1.736   6.227
 8949TIP3   OH226789   4.583   1.234   3.773
 8949TIP3    H126790   4.647   1.261   3.840
 8949TIP3    H226791   4.604   1.142   3.756
 8950TIP3   OH226792   5.814   7.681   5.426
 8950TIP3    H126793   5.889   7.737   5.447
 8950TIP3    H226794   5.842   7.632   5.349
 8951TIP3   OH226795   7.285   1.119   3.427
 8951TIP3    H126796   7.268   1.083   3.340
 8951TIP3    H226797   7.199   1.137   3.463
 8952TIP3   OH226798   6.487   6.637   5.649
 8952TIP3    H126799   6.504   6.669   5.737
 8952TIP3    H226800   6.543   6.560   5.640
 8953TIP3   OH226801   7.716   3.245   3.245
 8953TIP3    H126802   7.745   3.162   3.209
 8953TIP3    H226803   7.787   3.306   3.224
 8954TIP3   OH226804   2.144   7.761   0.697
 8954TIP3    H126805   2.171   7.723   0.781
 8954TIP3    H226806   2.213   7.734   0.635
 8955TIP3   OH226807   2.935   3.050   5.030
 8955TIP3    H126808   3.019   3.095   5.035
 8955TIP3    H226809   2.958   2.957   5.024
 8956TIP3   OH226810   3.661   5.552   5.559
 8956TIP3    H126811   3.633   5.462   5.542
 8956TIP3    H226812   3.731   5.544   5.623
 8957TIP3   OH226813   1.788   5.540   6.003
 8957TIP3    H126814   1.797   5.564   5.911
 8957TIP3    H226815   1.783   5.623   6.049
 8958TIP3   OH226816   6.526   1.912   4.969
 8958TIP3    H126817   6.567   1.887   4.886
 8958TIP3    H226818   6.592   1.892   5.035
 8959TIP3   OH226819   6.771   3.619   0.957
 8959TIP3    H126820   6.852   3.668   0.969
 8959TIP3    H226821   6.800   3.533   0.927
 8960TIP3   OH226822   1.344   1.002   0.563
 8960TIP3    H126823   1.249   0.996   0.567
 8960TIP3    H226824   1.374   0.972   0.649
 8961TIP3   OH226825   2.602   7.153   3.270
 8961TIP3    H126826   2.558   7.098   3.335
 8961TIP3    H226827   2.626   7.093   3.200
 8962TIP3   OH226828   3.800   2.305   0.032
 8962TIP3    H126829   3.730   2.289   0.096
 8962TIP3    H226830   3.792   2.398   0.011
 8963TIP3   OH226831   7.521   0.859   3.052
 8963TIP3    H126832   7.614   0.868   3.074
 8963TIP3    H226833   7.477   0.928   3.101
 8964TIP3   OH226834   4.389   1.392   5.799
 8964TIP3    H126835   4.422   1.315   5.845
 8964TIP3    H226836   4.297   1.374   5.783
 8965TIP3   OH226837   1.777   1.158   3.187
 8965TIP3    H126838   1.759   1.168   3.280
 8965TIP3    H226839   1.847   1.221   3.169
 8966TIP3   OH226840   2.303   5.704   3.239
 8966TIP3    H126841   2.295   5.704   3.334
 8966TIP3    H226842   2.238   5.640   3.210
 8967TIP3   OH226843   0.231   2.409   1.351
 8967TIP3    H126844   0.224   2.397   1.446
 8967TIP3    H226845   0.188   2.493   1.335
 8968TIP3   OH226846   2.523   0.519   5.143
 8968TIP3    H126847   2.613   0.510   5.112
 8968TIP3    H226848   2.484   0.432   5.131
 8969TIP3   OH226849   0.841   5.919   3.826
 8969TIP3    H126850   0.870   5.904   3.916
 8969TIP3    H226851   0.804   5.835   3.798
 8970TIP3   OH226852   7.258   5.463   2.202
 8970TIP3    H126853   7.267   5.413   2.283
 8970TIP3    H226854   7.175   5.510   2.211
 8971TIP3   OH226855   2.693   3.632   1.464
 8971TIP3    H126856   2.623   3.689   1.497
 8971TIP3    H226857   2.727   3.589   1.542
 8972TIP3   OH226858   3.142   1.987   4.221
 8972TIP3    H126859   3.219   2.042   4.204
 8972TIP3    H226860   3.140   1.925   4.148
 8973TIP3   OH226861   1.678   2.894   6.327
 8973TIP3    H126862   1.632   2.977   6.332
 8973TIP3    H226863   1.751   2.902   6.388
 8974TIP3   OH226864   7.547   5.121   1.168
 8974TIP3    H126865   7.521   5.210   1.192
 8974TIP3    H226866   7.489   5.098   1.094
 8975TIP3   OH226867   5.350   4.172   2.722
 8975TIP3    H126868   5.265   4.139   2.692
 8975TIP3    H226869   5.400   4.186   2.642
 8976TIP3   OH226870   1.669   2.725   1.140
 8976TIP3    H126871   1.702   2.814   1.128
 8976TIP3    H226872   1.582   2.737   1.178
 8977TIP3   OH226873   1.537   3.053   5.553
 8977TIP3    H126874   1.593   2.975   5.547
 8977TIP3    H226875   1.595   3.126   5.535
 8978TIP3   OH226876   0.656   7.689   5.362
 8978TIP3    H126877   0.708   7.737   5.298
 8978TIP3    H226878   0.700   7.704   5.446
 8979TIP3   OH226879   3.726   5.969   4.816
 8979TIP3    H126880   3.742   6.027   4.742
 8979TIP3    H226881   3.788   5.897   4.805
 8980TIP3   OH226882   2.979   6.400   6.328
 8980TIP3    H126883   2.911   6.452   6.284
 8980TIP3    H226884   3.038   6.374   6.258
 8981TIP3   OH226885   3.265   0.057   6.507
 8981TIP3    H126886   3.227   0.052   6.419
 8981TIP3    H226887   3.330  -0.012   6.509
 8982TIP3   OH226888   4.467   2.204   4.450
 8982TIP3    H126889   4.470   2.280   4.509
 8982TIP3    H226890   4.448   2.242   4.364
 8983TIP3   OH226891   0.649   0.417   2.580
 8983TIP3    H126892   0.595   0.346   2.615
 8983TIP3    H226893   0.716   0.372   2.529
 8984TIP3   OH226894   2.454   4.481   2.261
 8984TIP3    H126895   2.524   4.541   2.288
 8984TIP3    H226896   2.494   4.394   2.265
 8985TIP3   OH226897   0.182   6.051   4.479
 8985TIP3    H126898   0.129   6.078   4.554
 8985TIP3    H226899   0.138   5.973   4.445
 8986TIP3   OH226900   6.883   7.732   1.190
 8986TIP3    H126901   6.795   7.695   1.181
 8986TIP3    H226902   6.937   7.679   1.131
 8987TIP3   OH226903   3.508   4.000   4.241
 8987TIP3    H126904   3.496   4.095   4.249
 8987TIP3    H226905   3.480   3.965   4.326
 8988TIP3   OH226906   5.942   3.455   4.151
 8988TIP3    H126907   5.926   3.406   4.232
 8988TIP3    H226908   5.867   3.436   4.095
 8989TIP3   OH226909   3.380   4.949   5.513
 8989TIP3    H126910   3.347   4.997   5.589
 8989TIP3    H226911   3.446   4.890   5.548
 8990TIP3   OH226912   7.635   6.416   0.398
 8990TIP3    H126913   7.549   6.420   0.441
 8990TIP3    H226914   7.616   6.390   0.308
 8991TIP3   OH226915   5.371   1.455   1.303
 8991TIP3    H126916   5.462   1.443   1.276
 8991TIP3    H226917   5.355   1.549   1.292
 8992TIP3   OH226918   5.178   5.351   5.144
 8992TIP3    H126919   5.147   5.335   5.233
 8992TIP3    H226920   5.099   5.349   5.090
 8993TIP3   OH226921   4.367   2.096   4.814
 8993TIP3    H126922   4.433   2.072   4.749
 8993TIP3    H226923   4.294   2.037   4.797
 8994TIP3   OH226924   7.488   6.917   0.167
 8994TIP3    H126925   7.435   6.983   0.211
 8994TIP3    H226926   7.482   6.840   0.223
 8995TIP3   OH226927   4.964   7.044   5.064
 8995TIP3    H126928   4.990   7.135   5.050
 8995TIP3    H226929   4.870   7.044   5.047
 8996TIP3   OH226930   7.014   7.555   0.663
 8996TIP3    H126931   7.002   7.612   0.587
 8996TIP3    H226932   7.097   7.584   0.702
 8997TIP3   OH226933   4.320   5.146   1.449
 8997TIP3    H126934   4.326   5.241   1.445
 8997TIP3    H226935   4.232   5.129   1.485
 8998TIP3   OH226936   1.755   2.420   3.984
 8998TIP3    H126937   1.743   2.509   3.950
 8998TIP3    H226938   1.815   2.380   3.921
 8999TIP3   OH226939   1.505   2.423   5.577
 8999TIP3    H126940   1.520   2.516   5.561
 8999TIP3    H226941   1.430   2.401   5.521
 9000TIP3   OH226942   4.832   6.540   4.365
 9000TIP3    H126943   4.818   6.547   4.271
 9000TIP3    H226944   4.773   6.605   4.403
 9001TIP3   OH226945   4.337   1.872   4.418
 9001TIP3    H126946   4.267   1.932   4.390
 9001TIP3    H226947   4.402   1.877   4.348
 9002TIP3   OH226948   0.217   7.535   2.217
 9002TIP3    H126949   0.246   7.537   2.125
 9002TIP3    H226950   0.255   7.455   2.252
 9003TIP3   OH226951   7.403   1.196   0.466
 9003TIP3    H126952   7.497   1.200   0.452
 9003TIP3    H226953   7.375   1.288   0.470
 9004TIP3   OH226954   1.258   7.459   1.556
 9004TIP3    H126955   1.173   7.487   1.523
 9004TIP3    H226956   1.240   7.378   1.604
 9005TIP3   OH226957   7.118   1.483   1.177
 9005TIP3    H126958   7.154   1.565   1.143
 9005TIP3    H226959   7.194   1.430   1.199
 9006TIP3   OH226960   0.218   0.696   3.296
 9006TIP3    H126961   0.172   0.761   3.349
 9006TIP3    H226962   0.310   0.722   3.302
 9007TIP3   OH226963   4.930   5.882   0.712
 9007TIP3    H126964   4.873   5.919   0.644
 9007TIP3    H226965   4.914   5.936   0.789
 9008TIP3   OH226966   0.124   2.507   4.509
 9008TIP3    H126967   0.078   2.520   4.426
 9008TIP3    H226968   0.109   2.416   4.531
 9009TIP3   OH226969   4.836   4.181   2.804
 9009TIP3    H126970   4.775   4.108   2.790
 9009TIP3    H226971   4.903   4.146   2.863
 9010TIP3   OH226972   4.271   7.786   2.190
 9010TIP3    H126973   4.243   7.839   2.264
 9010TIP3    H226974   4.201   7.720   2.179
 9011TIP3   OH226975   4.788   6.573   4.710
 9011TIP3    H126976   4.875   6.562   4.748
 9011TIP3    H226977   4.759   6.484   4.691
 9012TIP3   OH226978   4.821   4.773   5.233
 9012TIP3    H126979   4.768   4.706   5.276
 9012TIP3    H226980   4.798   4.766   5.140
 9013TIP3   OH226981   1.066   0.298   1.821
 9013TIP3    H126982   1.116   0.379   1.831
 9013TIP3    H226983   1.106   0.237   1.883
 9014TIP3   OH226984   4.832   1.497   4.590
 9014TIP3    H126985   4.785   1.456   4.662
 9014TIP3    H226986   4.794   1.585   4.584
 9015TIP3   OH226987   7.124   2.563   6.568
 9015TIP3    H126988   7.105   2.491   6.628
 9015TIP3    H226989   7.219   2.572   6.570
 9016TIP3   OH226990   3.940   3.228   2.128
 9016TIP3    H126991   3.991   3.283   2.187
 9016TIP3    H226992   3.879   3.180   2.185
 9017TIP3   OH226993   4.126   5.193   3.510
 9017TIP3    H126994   4.183   5.252   3.460
 9017TIP3    H226995   4.116   5.237   3.594
 9018TIP3   OH226996   5.736   7.067   0.525
 9018TIP3    H126997   5.739   6.971   0.524
 9018TIP3    H226998   5.768   7.094   0.439
 9019TIP3   OH226999   5.939   7.411   5.614
 9019TIP3    H127000   6.022   7.388   5.657
 9019TIP3    H227001   5.932   7.506   5.626
 9020TIP3   OH227002   6.484   6.100   6.499
 9020TIP3    H127003   6.479   6.158   6.576
 9020TIP3    H227004   6.460   6.014   6.534
 9021TIP3   OH227005   8.207   5.462   3.396
 9021TIP3    H127006   8.271   5.482   3.328
 9021TIP3    H227007   8.171   5.377   3.370
 9022TIP3   OH227008   6.866   6.538   0.379
 9022TIP3    H127009   6.887   6.461   0.328
 9022TIP3    H227010   6.824   6.504   0.458
 9023TIP3   OH227011   7.670   0.692   0.328
 9023TIP3    H127012   7.702   0.675   0.417
 9023TIP3    H227013   7.693   0.783   0.311
 9024TIP3   OH227014   4.292   2.485   5.226
 9024TIP3    H127015   4.249   2.402   5.205
 9024TIP3    H227016   4.245   2.516   5.304
 9025TIP3   OH227017   4.923   5.348   0.959
 9025TIP3    H127018   4.931   5.321   1.051
 9025TIP3    H227019   4.906   5.267   0.912
 9026TIP3   OH227020   7.990   2.987   5.340
 9026TIP3    H127021   7.896   2.986   5.355
 9026TIP3    H227022   8.019   2.898   5.361
 9027TIP3   OH227023   3.749   4.459   6.592
 9027TIP3    H127024   3.827   4.510   6.573
 9027TIP3    H227025   3.763   4.376   6.547
 9028TIP3   OH227026   6.060   2.842   4.400
 9028TIP3    H127027   6.034   2.756   4.367
 9028TIP3    H227028   5.977   2.887   4.418
 9029TIP3   OH227029   2.325   3.635   0.533
 9029TIP3    H127030   2.345   3.652   0.441
 9029TIP3    H227031   2.351   3.715   0.578
 9030TIP3   OH227032   0.967   5.215   6.073
 9030TIP3    H127033   0.887   5.261   6.099
 9030TIP3    H227034   0.948   5.181   5.985
 9031TIP3   OH227035   1.108   1.752   0.168
 9031TIP3    H127036   1.146   1.707   0.243
 9031TIP3    H227037   1.154   1.716   0.092
 9032TIP3   OH227038   5.368   5.105   5.881
 9032TIP3    H127039   5.323   5.023   5.902
 9032TIP3    H227040   5.349   5.119   5.788
 9033TIP3   OH227041   7.295   5.038   6.766
 9033TIP3    H127042   7.348   5.107   6.726
 9033TIP3    H227043   7.272   5.073   6.852
 9034TIP3   OH227044   2.443   7.416   4.983
 9034TIP3    H127045   2.482   7.339   5.024
 9034TIP3    H227046   2.352   7.390   4.965
 9035TIP3   OH227047   1.930   0.409   5.793
 9035TIP3    H127048   1.884   0.467   5.853
 9035TIP3    H227049   1.863   0.352   5.757
 9036TIP3   OH227050   3.590   0.604   4.965
 9036TIP3    H127051   3.549   0.581   5.049
 9036TIP3    H227052   3.560   0.693   4.947
 9037TIP3   OH227053   3.591   4.294  -0.003
 9037TIP3    H127054   3.621   4.315   0.086
 9037TIP3    H227055   3.496   4.306   0.000
 9038TIP3   OH227056   6.654   5.558   0.935
 9038TIP3    H127057   6.635   5.473   0.975
 9038TIP3    H227058   6.569   5.592   0.908
 9039TIP3   OH227059   3.952   1.315   4.773
 9039TIP3    H127060   3.884   1.276   4.718
 9039TIP3    H227061   3.915   1.315   4.861
 9040TIP3   OH227062   3.411   5.634   5.819
 9040TIP3    H127063   3.403   5.572   5.892
 9040TIP3    H227064   3.461   5.707   5.855
 9041TIP3   OH227065   7.572   7.085   3.686
 9041TIP3    H127066   7.576   7.092   3.782
 9041TIP3    H227067   7.637   7.019   3.665
 9042TIP3   OH227068   4.422   2.372   2.513
 9042TIP3    H127069   4.415   2.287   2.469
 9042TIP3    H227070   4.514   2.378   2.539
 9043TIP3   OH227071   5.864   3.356   2.935
 9043TIP3    H127072   5.826   3.353   3.023
 9043TIP3    H227073   5.827   3.435   2.896
 9044TIP3   OH227074   6.386   0.552   5.830
 9044TIP3    H127075   6.309   0.591   5.872
 9044TIP3    H227076   6.443   0.626   5.809
 9045TIP3   OH227077   7.109   6.135   3.966
 9045TIP3    H127078   7.196   6.143   4.007
 9045TIP3    H227079   7.062   6.214   3.995
 9046TIP3   OH227080   4.085   7.141   6.307
 9046TIP3    H127081   4.056   7.057   6.271
 9046TIP3    H227082   4.159   7.166   6.253
 9047TIP3   OH227083   0.321   3.987   2.790
 9047TIP3    H127084   0.374   3.963   2.866
 9047TIP3    H227085   0.316   3.906   2.738
 9048TIP3   OH227086   0.652   4.970   0.560
 9048TIP3    H127087   0.622   4.963   0.470
 9048TIP3    H227088   0.741   5.005   0.553
 9049TIP3   OH227089   3.255   0.628   0.377
 9049TIP3    H127090   3.258   0.709   0.428
 9049TIP3    H227091   3.344   0.592   0.384
 9050TIP3   OH227092   0.361   4.915   5.625
 9050TIP3    H127093   0.380   4.923   5.718
 9050TIP3    H227094   0.436   4.869   5.589
 9051TIP3   OH227095   1.053   4.489   4.142
 9051TIP3    H127096   1.071   4.466   4.051
 9051TIP3    H227097   0.999   4.417   4.175
 9052TIP3   OH227098   5.588   5.906   6.273
 9052TIP3    H127099   5.631   5.877   6.192
 9052TIP3    H227100   5.642   5.980   6.303
 9053TIP3   OH227101   3.921   5.358   1.105
 9053TIP3    H127102   3.859   5.403   1.163
 9053TIP3    H227103   3.895   5.266   1.108
 9054TIP3   OH227104   4.712   5.962   6.193
 9054TIP3    H127105   4.743   6.003   6.274
 9054TIP3    H227106   4.787   5.912   6.161
 9055TIP3   OH227107   3.217   7.418   1.515
 9055TIP3    H127108   3.248   7.393   1.429
 9055TIP3    H227109   3.260   7.502   1.533
 9056TIP3   OH227110   5.636   3.950   2.738
 9056TIP3    H127111   5.629   3.866   2.691
 9056TIP3    H227112   5.628   4.016   2.669
 9057TIP3   OH227113   2.429   2.730   0.685
 9057TIP3    H127114   2.477   2.794   0.739
 9057TIP3    H227115   2.408   2.777   0.605
 9058TIP3   OH227116   0.456   1.525   5.694
 9058TIP3    H127117   0.510   1.571   5.629
 9058TIP3    H227118   0.405   1.463   5.643
 9059TIP3   OH227119   3.942   6.091   5.487
 9059TIP3    H127120   3.850   6.101   5.463
 9059TIP3    H227121   3.975   6.020   5.432
 9060TIP3   OH227122   4.937   5.715   4.535
 9060TIP3    H127123   4.992   5.792   4.516
 9060TIP3    H227124   4.865   5.750   4.587
 9061TIP3   OH227125   0.117   0.975   5.284
 9061TIP3    H127126   0.197   1.008   5.325
 9061TIP3    H227127   0.108   1.025   5.203
 9062TIP3   OH227128   5.316   4.525   1.694
 9062TIP3    H127129   5.329   4.615   1.662
 9062TIP3    H227130   5.336   4.530   1.787
 9063TIP3   OH227131   6.296   1.485   4.154
 9063TIP3    H127132   6.238   1.558   4.133
 9063TIP3    H227133   6.276   1.464   4.245
 9064TIP3   OH227134   3.644   2.562   3.557
 9064TIP3    H127135   3.606   2.504   3.623
 9064TIP3    H227136   3.576   2.573   3.491
 9065TIP3   OH227137   2.407   7.033   3.906
 9065TIP3    H127138   2.384   7.080   3.986
 9065TIP3    H227139   2.357   7.076   3.837
 9066TIP3   OH227140   4.711   1.800   5.468
 9066TIP3    H127141   4.752   1.886   5.464
 9066TIP3    H227142   4.628   1.814   5.514
 9067TIP3   OH227143   3.226   5.213   2.448
 9067TIP3    H127144   3.316   5.197   2.476
 9067TIP3    H227145   3.172   5.181   2.521
 9068TIP3   OH227146   4.601   6.744   4.003
 9068TIP3    H127147   4.556   6.816   4.045
 9068TIP3    H227148   4.694   6.770   4.002
 9069TIP3   OH227149   7.336   3.953   5.099
 9069TIP3    H127150   7.296   3.904   5.028
 9069TIP3    H227151   7.430   3.947   5.082
 9070TIP3   OH227152   7.927   6.357   2.074
 9070TIP3    H127153   7.964   6.291   2.133
 9070TIP3    H227154   7.845   6.383   2.116
 9071TIP3   OH227155   4.940   2.258   3.203
 9071TIP3    H127156   4.870   2.323   3.204
 9071TIP3    H227157   5.007   2.293   3.261
 9072TIP3   OH227158   4.070   6.023   2.423
 9072TIP3    H127159   4.013   6.081   2.474
 9072TIP3    H227160   4.048   5.935   2.453
 9073TIP3   OH227161   5.874   1.222   1.571
 9073TIP3    H127162   5.853   1.157   1.638
 9073TIP3    H227163   5.858   1.307   1.613
 9074TIP3   OH227164   2.421   3.412   1.006
 9074TIP3    H127165   2.401   3.497   1.045
 9074TIP3    H227166   2.438   3.354   1.080
 9075TIP3   OH227167   6.953   7.063   3.536
 9075TIP3    H127168   7.039   7.089   3.569
 9075TIP3    H227169   6.960   6.968   3.526
 9076TIP3   OH227170   2.143   1.230   0.937
 9076TIP3    H127171   2.201   1.170   0.891
 9076TIP3    H227172   2.143   1.199   1.028
 9077TIP3   OH227173   5.662   0.714   4.433
 9077TIP3    H127174   5.636   0.662   4.357
 9077TIP3    H227175   5.718   0.783   4.397
 9078TIP3   OH227176   0.565   4.734   5.520
 9078TIP3    H127177   0.647   4.719   5.567
 9078TIP3    H227178   0.573   4.680   5.441
 9079TIP3   OH227179   1.570   1.909   4.360
 9079TIP3    H127180   1.580   1.978   4.425
 9079TIP3    H227181   1.596   1.829   4.406
 9080TIP3   OH227182   4.477   3.211   6.537
 9080TIP3    H127183   4.477   3.306   6.528
 9080TIP3    H227184   4.504   3.179   6.451
 9081TIP3   OH227185   0.443   0.167   5.727
 9081TIP3    H127186   0.358   0.187   5.767
 9081TIP3    H227187   0.433   0.193   5.636
 9082TIP3   OH227188   1.232   4.938   1.807
 9082TIP3    H127189   1.280   4.991   1.871
 9082TIP3    H227190   1.149   4.918   1.851
 9083TIP3   OH227191   1.707   6.161   1.063
 9083TIP3    H127192   1.637   6.226   1.079
 9083TIP3    H227193   1.785   6.214   1.049
 9084TIP3   OH227194   6.686   3.118   4.993
 9084TIP3    H127195   6.657   3.209   4.987
 9084TIP3    H227196   6.612   3.072   5.033
 9085TIP3   OH227197   3.899   1.209   3.820
 9085TIP3    H127198   3.939   1.282   3.772
 9085TIP3    H227199   3.846   1.164   3.755
 9086TIP3   OH227200   1.806   3.626   1.756
 9086TIP3    H127201   1.835   3.545   1.797
 9086TIP3    H227202   1.805   3.608   1.662
 9087TIP3   OH227203   0.859   6.839   4.507
 9087TIP3    H127204   0.809   6.920   4.516
 9087TIP3    H227205   0.793   6.769   4.515
 9088TIP3   OH227206   8.203   1.299   3.202
 9088TIP3    H127207   8.277   1.351   3.173
 9088TIP3    H227208   8.213   1.214   3.158
 9089TIP3   OH227209   0.069   1.504   0.552
 9089TIP3    H127210   0.140   1.536   0.607
 9089TIP3    H227211  -0.009   1.510   0.608
 9090TIP3   OH227212   8.215   0.763   5.016
 9090TIP3    H127213   8.280   0.773   4.946
 9090TIP3    H227214   8.257   0.704   5.079
 9091TIP3   OH227215   2.043   5.907   1.613
 9091TIP3    H127216   2.078   5.989   1.579
 9091TIP3    H227217   2.093   5.892   1.694
 9092TIP3   OH227218   4.630   3.954   1.331
 9092TIP3    H127219   4.577   3.880   1.300
 9092TIP3    H227220   4.593   3.975   1.416
 9093TIP3   OH227221   1.044   3.748   4.674
 9093TIP3    H127222   1.018   3.814   4.738
 9093TIP3    H227223   0.987   3.763   4.599
 9094TIP3   OH227224   5.712   7.542   6.387
 9094TIP3    H127225   5.761   7.616   6.421
 9094TIP3    H227226   5.675   7.499   6.465
 9095TIP3   OH227227   5.251   7.232   3.524
 9095TIP3    H127228   5.308   7.248   3.449
 9095TIP3    H227229   5.278   7.147   3.557
 9096TIP3   OH227230   3.617   2.796   5.927
 9096TIP3    H127231   3.538   2.742   5.928
 9096TIP3    H227232   3.642   2.803   6.019
 9097TIP3   OH227233   5.613   0.293   1.177
 9097TIP3    H127234   5.526   0.330   1.170
 9097TIP3    H227235   5.669   0.367   1.201
 9098TIP3   OH227236   8.182   2.843   3.886
 9098TIP3    H127237   8.092   2.836   3.855
 9098TIP3    H227238   8.231   2.873   3.810
 9099TIP3   OH227239   5.810   3.611   2.782
 9099TIP3    H127240   5.721   3.633   2.811
 9099TIP3    H227241   5.867   3.653   2.846
 9100TIP3   OH227242   5.131   5.703   2.561
 9100TIP3    H127243   5.047   5.737   2.528
 9100TIP3    H227244   5.183   5.782   2.578
 9101TIP3   OH227245   0.813   1.488   1.850
 9101TIP3    H127246   0.738   1.502   1.792
 9101TIP3    H227247   0.888   1.522   1.802
 9102TIP3   OH227248   2.705   0.717   0.519
 9102TIP3    H127249   2.662   0.675   0.444
 9102TIP3    H227250   2.798   0.701   0.506
 9103TIP3   OH227251   7.718   5.586   0.245
 9103TIP3    H127252   7.633   5.544   0.262
 9103TIP3    H227253   7.724   5.656   0.310
 9104TIP3   OH227254   5.976   4.551   3.561
 9104TIP3    H127255   6.044   4.609   3.528
 9104TIP3    H227256   5.986   4.554   3.657
 9105TIP3   OH227257   5.139   7.087   6.560
 9105TIP3    H127258   5.074   7.154   6.539
 9105TIP3    H227259   5.219   7.118   6.517
 9106TIP3   OH227260   0.303   4.633   4.985
 9106TIP3    H127261   0.392   4.603   4.966
 9106TIP3    H227262   0.303   4.646   5.080
 9107TIP3   OH227263   7.772   0.529   5.904
 9107TIP3    H127264   7.795   0.437   5.909
 9107TIP3    H227265   7.683   0.534   5.941
 9108TIP3   OH227266   7.393   4.861   4.529
 9108TIP3    H127267   7.395   4.819   4.443
 9108TIP3    H227268   7.439   4.945   4.516
 9109TIP3   OH227269   6.188   6.766   1.857
 9109TIP3    H127270   6.238   6.823   1.800
 9109TIP3    H227271   6.238   6.763   1.938
 9110TIP3   OH227272   0.024   6.299   2.147
 9110TIP3    H127273  -0.015   6.223   2.191
 9110TIP3    H227274  -0.033   6.372   2.171
 9111TIP3   OH227275   0.317   6.682   5.505
 9111TIP3    H127276   0.381   6.727   5.560
 9111TIP3    H227277   0.318   6.731   5.423
 9112TIP3   OH227278   1.103   2.911   5.878
 9112TIP3    H127279   1.148   2.976   5.824
 9112TIP3    H227280   1.017   2.950   5.894
 9113TIP3   OH227281   2.635   7.494   0.713
 9113TIP3    H127282   2.667   7.542   0.790
 9113TIP3    H227283   2.671   7.406   0.724
 9114TIP3   OH227284   3.542   6.976   0.258
 9114TIP3    H127285   3.488   6.965   0.179
 9114TIP3    H227286   3.479   6.972   0.330
 9115TIP3   OH227287   5.943   0.719   4.601
 9115TIP3    H127288   5.866   0.713   4.659
 9115TIP3    H227289   5.924   0.793   4.544
 9116TIP3   OH227290   4.990   7.512   4.023
 9116TIP3    H127291   5.006   7.482   4.113
 9116TIP3    H227292   4.896   7.496   4.009
 9117TIP3   OH227293   6.080   0.504   2.042
 9117TIP3    H127294   6.137   0.579   2.027
 9117TIP3    H227295   6.049   0.480   1.955
 9118TIP3   OH227296   1.605   3.262   1.074
 9118TIP3    H127297   1.522   3.310   1.075
 9118TIP3    H227298   1.579   3.170   1.080
 9119TIP3   OH227299   3.957   5.142   2.466
 9119TIP3    H127300   3.987   5.092   2.542
 9119TIP3    H227301   3.863   5.153   2.480
 9120TIP3   OH227302   5.455   2.243   1.979
 9120TIP3    H127303   5.544   2.228   2.011
 9120TIP3    H227304   5.400   2.238   2.057
 9121TIP3   OH227305   7.422   5.628   6.383
 9121TIP3    H127306   7.399   5.555   6.326
 9121TIP3    H227307   7.360   5.621   6.456
 9122TIP3   OH227308   3.897   5.732   4.830
 9122TIP3    H127309   3.888   5.653   4.777
 9122TIP3    H227310   3.989   5.732   4.856
 9123TIP3   OH227311   7.450   3.424   0.447
 9123TIP3    H127312   7.532   3.391   0.411
 9123TIP3    H227313   7.381   3.376   0.400
 9124TIP3   OH227314   1.669   1.622   6.267
 9124TIP3    H127315   1.611   1.576   6.207
 9124TIP3    H227316   1.682   1.560   6.339
 9125TIP3   OH227317   0.716   4.559   3.765
 9125TIP3    H127318   0.695   4.649   3.790
 9125TIP3    H227319   0.731   4.563   3.671
 9126TIP3   OH227320   5.395   6.620   3.517
 9126TIP3    H127321   5.431   6.676   3.585
 9126TIP3    H227322   5.420   6.663   3.435
 9127TIP3   OH227323   4.486   3.610   4.994
 9127TIP3    H127324   4.535   3.528   4.989
 9127TIP3    H227325   4.440   3.606   5.078
 9128TIP3   OH227326   1.989   0.717   1.429
 9128TIP3    H127327   2.075   0.692   1.395
 9128TIP3    H227328   2.008   0.781   1.498
 9129TIP3   OH227329   0.328   2.428   2.709
 9129TIP3    H127330   0.353   2.512   2.671
 9129TIP3    H227331   0.298   2.376   2.634
 9130TIP3   OH227332   5.335   4.217   1.595
 9130TIP3    H127333   5.268   4.282   1.572
 9130TIP3    H227334   5.289   4.133   1.593
 9131TIP3   OH227335   3.465   2.653   0.694
 9131TIP3    H127336   3.469   2.562   0.724
 9131TIP3    H227337   3.437   2.702   0.771
 9132TIP3   OH227338   3.909   3.267   5.757
 9132TIP3    H127339   3.890   3.264   5.663
 9132TIP3    H227340   3.830   3.234   5.799
 9133TIP3   OH227341   4.134   0.509   5.869
 9133TIP3    H127342   4.044   0.486   5.845
 9133TIP3    H227343   4.160   0.575   5.805
 9134TIP3   OH227344   0.074   6.922   3.218
 9134TIP3    H127345   0.001   6.886   3.167
 9134TIP3    H227346   0.124   6.845   3.245
 9135TIP3   OH227347   3.005   7.067   5.590
 9135TIP3    H127348   2.986   7.039   5.500
 9135TIP3    H227349   2.976   7.158   5.593
 9136TIP3   OH227350   0.344   4.847   2.921
 9136TIP3    H127351   0.368   4.797   2.843
 9136TIP3    H227352   0.259   4.812   2.946
 9137TIP3   OH227353   4.704   5.259   1.553
 9137TIP3    H127354   4.662   5.225   1.474
 9137TIP3    H227355   4.724   5.350   1.531
 9138TIP3   OH227356   3.429   1.865   5.514
 9138TIP3    H127357   3.349   1.877   5.463
 9138TIP3    H227358   3.445   1.950   5.555
 9139TIP3   OH227359   3.354   5.797   3.473
 9139TIP3    H127360   3.398   5.882   3.474
 9139TIP3    H227361   3.302   5.799   3.392
 9140TIP3   OH227362   0.960   4.861   3.716
 9140TIP3    H127363   0.982   4.847   3.624
 9140TIP3    H227364   0.896   4.932   3.715
 9141TIP3   OH227365   2.137   5.512   0.716
 9141TIP3    H127366   2.100   5.425   0.701
 9141TIP3    H227367   2.220   5.494   0.761
 9142TIP3   OH227368   0.927   5.818   6.646
 9142TIP3    H127369   0.840   5.777   6.647
 9142TIP3    H227370   0.981   5.761   6.700
 9143TIP3   OH227371   3.211   3.991   4.068
 9143TIP3    H127372   3.191   4.054   3.998
 9143TIP3    H227373   3.297   3.956   4.045
 9144TIP3   OH227374   4.086   1.235   0.894
 9144TIP3    H127375   4.172   1.231   0.934
 9144TIP3    H227376   4.036   1.296   0.949
 9145TIP3   OH227377   2.777   4.726   0.952
 9145TIP3    H127378   2.701   4.708   0.896
 9145TIP3    H227379   2.789   4.645   1.002
 9146TIP3   OH227380   2.752   4.524   3.062
 9146TIP3    H127381   2.741   4.521   2.967
 9146TIP3    H227382   2.801   4.605   3.077
 9147TIP3   OH227383   3.718   0.437   5.169
 9147TIP3    H127384   3.779   0.363   5.163
 9147TIP3    H227385   3.666   0.432   5.089
 9148TIP3   OH227386   5.817   2.546   5.584
 9148TIP3    H127387   5.873   2.515   5.513
 9148TIP3    H227388   5.839   2.489   5.658
 9149TIP3   OH227389   4.830   2.066   6.317
 9149TIP3    H127390   4.821   2.063   6.412
 9149TIP3    H227391   4.800   1.980   6.287
 9150TIP3   OH227392   7.705   5.271   5.747
 9150TIP3    H127393   7.793   5.243   5.775
 9150TIP3    H227394   7.716   5.363   5.724
 9151TIP3   OH227395   1.142   7.469   5.830
 9151TIP3    H127396   1.211   7.436   5.888
 9151TIP3    H227397   1.072   7.496   5.890
 9152TIP3   OH227398   7.650   4.298   5.779
 9152TIP3    H127399   7.604   4.378   5.755
 9152TIP3    H227400   7.610   4.230   5.724
 9153TIP3   OH227401   2.390   1.025   3.630
 9153TIP3    H127402   2.323   0.990   3.687
 9153TIP3    H227403   2.448   1.074   3.688
 9154TIP3   OH227404   2.699   4.837   4.178
 9154TIP3    H127405   2.608   4.824   4.150
 9154TIP3    H227406   2.734   4.900   4.115
 9155TIP3   OH227407   1.051   1.873   2.021
 9155TIP3    H127408   0.972   1.894   2.070
 9155TIP3    H227409   1.119   1.862   2.088
 9156TIP3   OH227410   6.729   6.056   2.312
 9156TIP3    H127411   6.725   6.141   2.355
 9156TIP3    H227412   6.820   6.027   2.324
 9157TIP3   OH227413   1.995   2.585   2.222
 9157TIP3    H127414   1.956   2.547   2.143
 9157TIP3    H227415   1.922   2.595   2.283
 9158TIP3   OH227416   5.145   1.441   5.794
 9158TIP3    H127417   5.163   1.422   5.886
 9158TIP3    H227418   5.229   1.432   5.750
 9159TIP3   OH227419   3.728   5.366   4.998
 9159TIP3    H127420   3.782   5.333   5.070
 9159TIP3    H227421   3.778   5.344   4.919
 9160TIP3   OH227422   1.485   2.968   3.926
 9160TIP3    H127423   1.412   3.007   3.976
 9160TIP3    H227424   1.449   2.887   3.891
 9161TIP3   OH227425   4.235   5.749   3.814
 9161TIP3    H127426   4.253   5.841   3.796
 9161TIP3    H227427   4.226   5.709   3.728
 9162TIP3   OH227428   7.167   4.546   4.688
 9162TIP3    H127429   7.218   4.466   4.674
 9162TIP3    H227430   7.078   4.516   4.706
 9163TIP3   OH227431   5.590   4.907   5.600
 9163TIP3    H127432   5.604   4.860   5.518
 9163TIP3    H227433   5.593   4.838   5.667
 9164TIP3   OH227434   7.471   1.489   2.690
 9164TIP3    H127435   7.470   1.462   2.598
 9164TIP3    H227436   7.553   1.537   2.700
 9165TIP3   OH227437   6.964   7.336   3.453
 9165TIP3    H127438   6.908   7.297   3.386
 9165TIP3    H227439   7.053   7.310   3.428
 9166TIP3   OH227440   0.342   3.258   0.290
 9166TIP3    H127441   0.261   3.281   0.336
 9166TIP3    H227442   0.337   3.306   0.207
 9167TIP3   OH227443   4.833   3.677   3.752
 9167TIP3    H127444   4.740   3.684   3.771
 9167TIP3    H227445   4.873   3.653   3.835
 9168TIP3   OH227446   6.858   4.333   6.702
 9168TIP3    H127447   6.943   4.329   6.657
 9168TIP3    H227448   6.800   4.280   6.647
 9169TIP3   OH227449   1.791   6.756   1.338
 9169TIP3    H127450   1.807   6.667   1.306
 9169TIP3    H227451   1.748   6.801   1.265
 9170TIP3   OH227452   1.625   6.776   5.121
 9170TIP3    H127453   1.647   6.801   5.031
 9170TIP3    H227454   1.567   6.700   5.111
 9171TIP3   OH227455   2.411   3.071   1.633
 9171TIP3    H127456   2.459   3.053   1.552
 9171TIP3    H227457   2.397   3.165   1.632
 9172TIP3   OH227458   6.707   0.610   6.032
 9172TIP3    H127459   6.786   0.564   6.059
 9172TIP3    H227460   6.705   0.601   5.936
 9173TIP3   OH227461   6.682   2.586   2.486
 9173TIP3    H127462   6.631   2.553   2.560
 9173TIP3    H227463   6.667   2.681   2.487
 9174TIP3   OH227464   7.872   3.705   3.028
 9174TIP3    H127465   7.858   3.658   2.945
 9174TIP3    H227466   7.959   3.744   3.018
 9175TIP3   OH227467   2.930   3.674   5.363
 9175TIP3    H127468   2.918   3.719   5.279
 9175TIP3    H227469   3.019   3.696   5.389
 9176TIP3   OH227470   1.848   3.220   0.929
 9176TIP3    H127471   1.798   3.152   0.884
 9176TIP3    H227472   1.782   3.280   0.963
 9177TIP3   OH227473   5.474   5.433   0.205
 9177TIP3    H127474   5.428   5.491   0.266
 9177TIP3    H227475   5.546   5.396   0.257
 9178TIP3   OH227476   6.777   5.378   6.383
 9178TIP3    H127477   6.727   5.323   6.322
 9178TIP3    H227478   6.783   5.463   6.340
 9179TIP3   OH227479   8.294   4.141   1.970
 9179TIP3    H127480   8.349   4.217   1.987
 9179TIP3    H227481   8.233   4.170   1.902
 9180TIP3   OH227482   1.210   2.118   0.504
 9180TIP3    H127483   1.187   2.055   0.572
 9180TIP3    H227484   1.241   2.065   0.431
 9181TIP3   OH227485   2.022   7.032   4.931
 9181TIP3    H127486   2.056   7.001   5.015
 9181TIP3    H227487   1.952   7.092   4.955
 9182TIP3   OH227488   5.459   2.039   3.649
 9182TIP3    H127489   5.476   2.132   3.661
 9182TIP3    H227490   5.526   2.009   3.588
 9183TIP3   OH227491   7.618   5.208   2.597
 9183TIP3    H127492   7.655   5.131   2.640
 9183TIP3    H227493   7.693   5.251   2.555
 9184TIP3   OH227494   2.501   2.224   3.639
 9184TIP3    H127495   2.472   2.140   3.674
 9184TIP3    H227496   2.596   2.220   3.640
 9185TIP3   OH227497   7.500   4.595   1.032
 9185TIP3    H127498   7.422   4.638   0.995
 9185TIP3    H227499   7.544   4.557   0.956
 9186TIP3   OH227500   3.977   1.172   2.579
 9186TIP3    H127501   3.978   1.092   2.526
 9186TIP3    H227502   4.069   1.201   2.579
 9187TIP3   OH227503   1.610   6.426   5.699
 9187TIP3    H127504   1.698   6.452   5.675
 9187TIP3    H227505   1.600   6.453   5.791
 9188TIP3   OH227506   3.867   5.093   1.038
 9188TIP3    H127507   3.869   5.081   0.943
 9188TIP3    H227508   3.789   5.044   1.066
 9189TIP3   OH227509   1.610   0.088   1.305
 9189TIP3    H127510   1.683   0.117   1.250
 9189TIP3    H227511   1.599  -0.004   1.283
 9190TIP3   OH227512   1.428   0.371   1.689
 9190TIP3    H127513   1.403   0.287   1.652
 9190TIP3    H227514   1.414   0.361   1.783
 9191TIP3   OH227515   4.595   7.229   1.852
 9191TIP3    H127516   4.670   7.188   1.896
 9191TIP3    H227517   4.628   7.250   1.765
 9192TIP3   OH227518   4.364   1.552   3.525
 9192TIP3    H127519   4.326   1.465   3.532
 9192TIP3    H227520   4.352   1.590   3.612
 9193TIP3   OH227521   3.761   3.405   4.224
 9193TIP3    H127522   3.695   3.399   4.292
 9193TIP3    H227523   3.826   3.338   4.247
 9194TIP3   OH227524   3.962   1.521   0.973
 9194TIP3    H127525   3.895   1.484   1.030
 9194TIP3    H227526   3.926   1.605   0.945
 9195TIP3   OH227527   7.642   7.223   5.157
 9195TIP3    H127528   7.728   7.189   5.184
 9195TIP3    H227529   7.586   7.211   5.233
 9196TIP3   OH227530   6.631   7.703   3.299
 9196TIP3    H127531   6.587   7.777   3.342
 9196TIP3    H227532   6.672   7.655   3.371
 9197TIP3   OH227533   2.718   4.964   1.595
 9197TIP3    H127534   2.634   4.981   1.552
 9197TIP3    H227535   2.698   4.970   1.689
 9198TIP3   OH227536   2.577   4.503   3.423
 9198TIP3    H127537   2.515   4.550   3.478
 9198TIP3    H227538   2.651   4.563   3.413
 9199TIP3   OH227539   3.497   1.253   4.117
 9199TIP3    H127540   3.419   1.226   4.068
 9199TIP3    H227541   3.567   1.199   4.080
 9200TIP3   OH227542   1.449   1.634   3.610
 9200TIP3    H127543   1.534   1.677   3.604
 9200TIP3    H227544   1.430   1.606   3.520
 9201TIP3   OH227545   2.788   5.942   2.738
 9201TIP3    H127546   2.801   5.877   2.807
 9201TIP3    H227547   2.764   6.022   2.785
 9202TIP3   OH227548   7.932   4.670   2.681
 9202TIP3    H127549   7.916   4.714   2.597
 9202TIP3    H227550   7.958   4.740   2.740
 9203TIP3   OH227551   2.754   1.810   4.027
 9203TIP3    H127552   2.724   1.899   4.046
 9203TIP3    H227553   2.815   1.790   4.098
 9204TIP3   OH227554   1.045   7.048   1.635
 9204TIP3    H127555   0.967   7.052   1.691
 9204TIP3    H227556   1.058   7.139   1.606
 9205TIP3   OH227557   4.031   5.400   0.210
 9205TIP3    H127558   3.944   5.418   0.175
 9205TIP3    H227559   4.064   5.327   0.158
 9206TIP3   OH227560   3.232   1.773   5.918
 9206TIP3    H127561   3.158   1.712   5.909
 9206TIP3    H227562   3.200   1.855   5.882
 9207TIP3   OH227563   3.065   2.099   2.804
 9207TIP3    H127564   3.139   2.100   2.864
 9207TIP3    H227565   3.055   2.190   2.775
 9208TIP3   OH227566   1.655   5.170   2.249
 9208TIP3    H127567   1.681   5.256   2.217
 9208TIP3    H227568   1.678   5.110   2.178
 9209TIP3   OH227569   3.219   6.788   5.337
 9209TIP3    H127570   3.166   6.861   5.370
 9209TIP3    H227571   3.160   6.741   5.278
 9210TIP3   OH227572   6.715   2.925   3.817
 9210TIP3    H127573   6.673   2.845   3.851
 9210TIP3    H227574   6.677   2.936   3.730
 9211TIP3   OH227575   8.041   1.199   0.543
 9211TIP3    H127576   8.133   1.173   0.536
 9211TIP3    H227577   8.044   1.288   0.577
 9212TIP3   OH227578   4.093   0.930   3.818
 9212TIP3    H127579   4.174   0.963   3.780
 9212TIP3    H227580   4.062   1.001   3.874
 9213TIP3   OH227581   4.924   1.722   0.946
 9213TIP3    H127582   5.003   1.765   0.977
 9213TIP3    H227583   4.886   1.681   1.024
 9214TIP3   OH227584   3.635   7.578   5.338
 9214TIP3    H127585   3.573   7.577   5.264
 9214TIP3    H227586   3.696   7.508   5.317
 9215TIP3   OH227587   1.569   3.506   1.378
 9215TIP3    H127588   1.628   3.478   1.447
 9215TIP3    H227589   1.483   3.509   1.419
 9216TIP3   OH227590   5.638   5.439   2.833
 9216TIP3    H127591   5.655   5.470   2.921
 9216TIP3    H227592   5.545   5.455   2.819
 9217TIP3   OH227593   4.833   6.134   5.617
 9217TIP3    H127594   4.825   6.158   5.524
 9217TIP3    H227595   4.744   6.110   5.643
 9218TIP3   OH227596   7.102   2.454   1.175
 9218TIP3    H127597   7.115   2.361   1.195
 9218TIP3    H227598   7.186   2.495   1.195
 9219TIP3   OH227599   1.311   3.595   4.468
 9219TIP3    H127600   1.320   3.508   4.508
 9219TIP3    H227601   1.305   3.578   4.374
 9220TIP3   OH227602   5.627   6.276   3.238
 9220TIP3    H127603   5.602   6.189   3.207
 9220TIP3    H227604   5.567   6.294   3.311
 9221TIP3   OH227605   2.229   2.610   2.703
 9221TIP3    H127606   2.322   2.615   2.680
 9221TIP3    H227607   2.189   2.560   2.632
 9222TIP3   OH227608   1.983   6.374   0.671
 9222TIP3    H127609   1.913   6.319   0.637
 9222TIP3    H227610   2.060   6.317   0.671
 9223TIP3   OH227611   2.053   1.093   1.616
 9223TIP3    H127612   2.132   1.138   1.646
 9223TIP3    H227613   2.017   1.150   1.549
 9224TIP3   OH227614   7.197   3.124   2.507
 9224TIP3    H127615   7.251   3.194   2.471
 9224TIP3    H227616   7.134   3.104   2.438
 9225TIP3   OH227617   4.643   1.248   5.168
 9225TIP3    H127618   4.559   1.234   5.213
 9225TIP3    H227619   4.672   1.334   5.198
 9226TIP3   OH227620   4.082   3.597   1.891
 9226TIP3    H127621   4.100   3.661   1.823
 9226TIP3    H227622   3.989   3.610   1.913
 9227TIP3   OH227623   7.860   3.624   5.093
 9227TIP3    H127624   7.944   3.631   5.047
 9227TIP3    H227625   7.801   3.585   5.030
 9228TIP3   OH227626   4.487   6.456   4.087
 9228TIP3    H127627   4.545   6.403   4.031
 9228TIP3    H227628   4.533   6.540   4.094
 9229TIP3   OH227629   0.095   3.988   2.194
 9229TIP3    H127630   0.136   3.937   2.125
 9229TIP3    H227631   0.043   4.054   2.148
 9230TIP3   OH227632   4.756   5.842   0.124
 9230TIP3    H127633   4.784   5.781   0.055
 9230TIP3    H227634   4.817   5.827   0.196
 9231TIP3   OH227635   5.728   6.986   6.274
 9231TIP3    H127636   5.742   7.047   6.202
 9231TIP3    H227637   5.788   6.914   6.257
 9232TIP3   OH227638   2.268   6.333   4.721
 9232TIP3    H127639   2.303   6.381   4.796
 9232TIP3    H227640   2.178   6.312   4.746
 9233TIP3   OH227641   6.952   0.692   1.260
 9233TIP3    H127642   6.919   0.623   1.318
 9233TIP3    H227643   6.877   0.713   1.204
 9234TIP3   OH227644   2.037   7.224   1.543
 9234TIP3    H127645   1.985   7.145   1.525
 9234TIP3    H227646   2.096   7.198   1.614
 9235TIP3   OH227647   0.169   2.671   5.812
 9235TIP3    H127648   0.117   2.648   5.735
 9235TIP3    H227649   0.230   2.738   5.781
 9236TIP3   OH227650   2.669   0.883   3.811
 9236TIP3    H127651   2.715   0.837   3.741
 9236TIP3    H227652   2.737   0.901   3.876
 9237TIP3   OH227653   6.045   5.112   0.438
 9237TIP3    H127654   5.993   5.148   0.509
 9237TIP3    H227655   6.035   5.175   0.366
 9238TIP3   OH227656   8.109   6.512   3.667
 9238TIP3    H127657   8.164   6.481   3.739
 9238TIP3    H227658   8.165   6.574   3.620
 9239TIP3   OH227659   3.560   5.095   0.842
 9239TIP3    H127660   3.577   5.032   0.912
 9239TIP3    H227661   3.513   5.046   0.775
 9240TIP3   OH227662   7.485   2.936   5.623
 9240TIP3    H127663   7.430   2.858   5.620
 9240TIP3    H227664   7.536   2.926   5.704
 9241TIP3   OH227665   3.447   3.505   2.996
 9241TIP3    H127666   3.431   3.517   3.089
 9241TIP3    H227667   3.394   3.430   2.971
 9242TIP3   OH227668   2.163   1.020   0.254
 9242TIP3    H127669   2.071   1.044   0.243
 9242TIP3    H227670   2.166   0.926   0.239
 9243TIP3   OH227671   3.715   0.372   1.376
 9243TIP3    H127672   3.745   0.425   1.302
 9243TIP3    H227673   3.678   0.435   1.437
 9244TIP3   OH227674   4.558   6.022   1.446
 9244TIP3    H127675   4.532   6.088   1.510
 9244TIP3    H227676   4.647   6.047   1.421
 9245TIP3   OH227677   6.378   5.323   5.296
 9245TIP3    H127678   6.333   5.328   5.212
 9245TIP3    H227679   6.442   5.394   5.293
 9246TIP3   OH227680   3.693   4.464   2.342
 9246TIP3    H127681   3.664   4.390   2.396
 9246TIP3    H227682   3.774   4.493   2.384
 9247TIP3   OH227683   8.289   2.838   0.700
 9247TIP3    H127684   8.321   2.867   0.614
 9247TIP3    H227685   8.319   2.748   0.707
 9248TIP3   OH227686   0.201   0.904   5.967
 9248TIP3    H127687   0.169   0.835   5.909
 9248TIP3    H227688   0.280   0.938   5.923
 9249TIP3   OH227689   6.276   2.345   2.607
 9249TIP3    H127690   6.235   2.343   2.694
 9249TIP3    H227691   6.224   2.407   2.557
 9250TIP3   OH227692   2.985   6.795   1.036
 9250TIP3    H127693   2.912   6.805   1.097
 9250TIP3    H227694   2.953   6.832   0.953
 9251TIP3   OH227695   5.091   4.786   4.924
 9251TIP3    H127696   4.999   4.786   4.951
 9251TIP3    H227697   5.111   4.877   4.905
 9252TIP3   OH227698   1.501   3.329   3.431
 9252TIP3    H127699   1.443   3.270   3.383
 9252TIP3    H227700   1.474   3.319   3.523
 9253TIP3   OH227701   6.364   4.029   3.174
 9253TIP3    H127702   6.421   4.055   3.246
 9253TIP3    H227703   6.391   4.085   3.101
 9254TIP3   OH227704   5.601   6.484   2.129
 9254TIP3    H127705   5.562   6.398   2.142
 9254TIP3    H227706   5.532   6.546   2.154
 9255TIP3   OH227707   6.864   2.769   4.062
 9255TIP3    H127708   6.883   2.844   4.006
 9255TIP3    H227709   6.769   2.774   4.078
 9256TIP3   OH227710   5.819   2.301   1.093
 9256TIP3    H127711   5.889   2.236   1.100
 9256TIP3    H227712   5.803   2.328   1.183
 9257TIP3   OH227713   2.823   5.928   2.010
 9257TIP3    H127714   2.734   5.951   1.982
 9257TIP3    H227715   2.864   5.890   1.932
 9258TIP3   OH227716   1.218   0.938   1.843
 9258TIP3    H127717   1.199   0.910   1.933
 9258TIP3    H227718   1.143   0.993   1.819
 9259TIP3   OH227719   7.721   3.211   2.159
 9259TIP3    H127720   7.638   3.228   2.205
 9259TIP3    H227721   7.694   3.181   2.072
 9260TIP3   OH227722   4.467   3.929   5.411
 9260TIP3    H127723   4.554   3.887   5.415
 9260TIP3    H227724   4.414   3.879   5.472
 9261TIP3   OH227725   0.606   6.030   4.210
 9261TIP3    H127726   0.517   6.016   4.241
 9261TIP3    H227727   0.618   5.963   4.142
 9262TIP3   OH227728   5.726   5.115   6.278
 9262TIP3    H127729   5.655   5.105   6.341
 9262TIP3    H227730   5.685   5.156   6.202
 9263TIP3   OH227731   2.763   3.960   5.756
 9263TIP3    H127732   2.687   4.017   5.766
 9263TIP3    H227733   2.799   3.982   5.671
 9264TIP3   OH227734   8.202   1.668   2.894
 9264TIP3    H127735   8.155   1.659   2.977
 9264TIP3    H227736   8.136   1.647   2.827
 9265TIP3   OH227737   1.379   6.907   4.094
 9265TIP3    H127738   1.328   6.953   4.027
 9265TIP3    H227739   1.400   6.973   4.159
 9266TIP3   OH227740   1.887   0.267   2.705
 9266TIP3    H127741   1.928   0.304   2.626
 9266TIP3    H227742   1.823   0.333   2.732
 9267TIP3   OH227743   3.433   2.746   5.139
 9267TIP3    H127744   3.471   2.784   5.218
 9267TIP3    H227745   3.346   2.786   5.132
 9268TIP3   OH227746   2.339   5.562   3.697
 9268TIP3    H127747   2.267   5.540   3.756
 9268TIP3    H227748   2.305   5.542   3.610
 9269TIP3   OH227749   2.059   5.029   0.467
 9269TIP3    H127750   2.087   5.085   0.395
 9269TIP3    H227751   2.132   4.969   0.482
 9270TIP3   OH227752   3.011   4.554   1.651
 9270TIP3    H127753   2.928   4.598   1.670
 9270TIP3    H227754   3.072   4.589   1.716
 9271TIP3   OH227755   2.047   7.071   4.052
 9271TIP3    H127756   2.037   6.996   3.993
 9271TIP3    H227757   1.979   7.132   4.024
 9272TIP3   OH227758   3.844   1.848   5.162
 9272TIP3    H127759   3.822   1.874   5.073
 9272TIP3    H227760   3.840   1.752   5.160
 9273TIP3   OH227761   5.865   5.077   1.996
 9273TIP3    H127762   5.814   5.153   1.967
 9273TIP3    H227763   5.834   5.060   2.085
 9274TIP3   OH227764   7.168   4.350   3.109
 9274TIP3    H127765   7.168   4.279   3.045
 9274TIP3    H227766   7.259   4.378   3.113
 9275TIP3   OH227767   7.829   1.379   6.000
 9275TIP3    H127768   7.785   1.307   5.955
 9275TIP3    H227769   7.910   1.392   5.951
 9276TIP3   OH227770   4.259   1.499   2.421
 9276TIP3    H127771   4.194   1.481   2.488
 9276TIP3    H227772   4.339   1.518   2.469
 9277TIP3   OH227773   0.591   3.754   2.449
 9277TIP3    H127774   0.518   3.816   2.447
 9277TIP3    H227775   0.566   3.686   2.387
 9278TIP3   OH227776   3.956   1.645   1.345
 9278TIP3    H127777   3.871   1.679   1.319
 9278TIP3    H227778   3.997   1.717   1.393
 9279TIP3   OH227779   4.858   4.842   0.207
 9279TIP3    H127780   4.803   4.778   0.163
 9279TIP3    H227781   4.891   4.797   0.285
 9280TIP3   OH227782   1.090   1.098   2.982
 9280TIP3    H127783   1.014   1.151   3.005
 9280TIP3    H227784   1.164   1.159   2.983
 9281TIP3   OH227785   1.725   5.438   2.183
 9281TIP3    H127786   1.691   5.527   2.176
 9281TIP3    H227787   1.816   5.445   2.156
 9282TIP3   OH227788   0.083   1.188   5.720
 9282TIP3    H127789   0.063   1.095   5.724
 9282TIP3    H227790   0.041   1.226   5.797
 9283TIP3   OH227791   6.607   2.147   4.748
 9283TIP3    H127792   6.566   2.220   4.793
 9283TIP3    H227793   6.693   2.138   4.789
 9284TIP3   OH227794   4.357   7.673   2.622
 9284TIP3    H127795   4.333   7.601   2.563
 9284TIP3    H227796   4.447   7.696   2.597
 9285TIP3   OH227797   2.620   6.793   0.645
 9285TIP3    H127798   2.588   6.806   0.556
 9285TIP3    H227799   2.681   6.865   0.660
 9286TIP3   OH227800   8.158   7.213   0.431
 9286TIP3    H127801   8.178   7.141   0.491
 9286TIP3    H227802   8.208   7.193   0.351
 9287TIP3   OH227803   0.552   4.108   0.364
 9287TIP3    H127804   0.626   4.048   0.369
 9287TIP3    H227805   0.589   4.189   0.329
 9288TIP3   OH227806   6.537   6.140   5.682
 9288TIP3    H127807   6.574   6.086   5.613
 9288TIP3    H227808   6.578   6.108   5.762
 9289TIP3   OH227809   0.752   6.838   1.595
 9289TIP3    H127810   0.812   6.831   1.669
 9289TIP3    H227811   0.762   6.755   1.548
 9290TIP3   OH227812   0.437   7.474   4.808
 9290TIP3    H127813   0.456   7.455   4.717
 9290TIP3    H227814   0.345   7.500   4.808
 9291TIP3   OH227815   7.221   1.667   1.382
 9291TIP3    H127816   7.132   1.675   1.415
 9291TIP3    H227817   7.232   1.574   1.363
 9292TIP3   OH227818   7.342   1.680   4.591
 9292TIP3    H127819   7.352   1.633   4.508
 9292TIP3    H227820   7.334   1.611   4.657
 9293TIP3   OH227821   6.466   0.390   0.190
 9293TIP3    H127822   6.460   0.476   0.233
 9293TIP3    H227823   6.450   0.327   0.260
 9294TIP3   OH227824   3.910   1.999   4.491
 9294TIP3    H127825   4.003   1.999   4.513
 9294TIP3    H227826   3.909   2.006   4.395
 9295TIP3   OH227827   1.722   0.279   1.743
 9295TIP3    H127828   1.782   0.212   1.775
 9295TIP3    H227829   1.695   0.327   1.821
 9296TIP3   OH227830   6.050   5.669   3.196
 9296TIP3    H127831   6.068   5.691   3.105
 9296TIP3    H227832   6.039   5.753   3.240
 9297TIP3   OH227833   0.581   1.437   5.946
 9297TIP3    H127834   0.569   1.484   5.864
 9297TIP3    H227835   0.634   1.360   5.923
 9298TIP3   OH227836   3.484   2.460   0.937
 9298TIP3    H127837   3.529   2.400   0.996
 9298TIP3    H227838   3.416   2.407   0.895
 9299TIP3   OH227839   1.513   6.309   3.918
 9299TIP3    H127840   1.578   6.286   3.985
 9299TIP3    H227841   1.559   6.295   3.835
 9300TIP3   OH227842   5.121   5.540   6.076
 9300TIP3    H127843   5.112   5.486   6.154
 9300TIP3    H227844   5.203   5.587   6.088
 9301TIP3   OH227845   5.206   2.122   5.546
 9301TIP3    H127846   5.189   2.140   5.454
 9301TIP3    H227847   5.245   2.203   5.579
 9302TIP3   OH227848   1.782   6.028   1.355
 9302TIP3    H127849   1.823   6.112   1.335
 9302TIP3    H227850   1.710   6.050   1.414
 9303TIP3   OH227851   7.923   0.226   6.432
 9303TIP3    H127852   7.932   0.266   6.346
 9303TIP3    H227853   7.838   0.182   6.429
 9304TIP3   OH227854   2.721   6.064   4.826
 9304TIP3    H127855   2.788   6.131   4.815
 9304TIP3    H227856   2.687   6.048   4.738
 9305TIP3   OH227857   3.046   7.411   1.220
 9305TIP3    H127858   3.084   7.327   1.246
 9305TIP3    H227859   3.059   7.414   1.125
 9306TIP3   OH227860   0.016   2.850   6.580
 9306TIP3    H127861  -0.012   2.758   6.582
 9306TIP3    H227862  -0.037   2.889   6.510
 9307TIP3   OH227863   2.299   1.527   0.484
 9307TIP3    H127864   2.217   1.520   0.533
 9307TIP3    H227865   2.364   1.551   0.550
 9308TIP3   OH227866   3.112   7.379   2.857
 9308TIP3    H127867   3.032   7.423   2.829
 9308TIP3    H227868   3.094   7.350   2.947
 9309TIP3   OH227869   4.782   3.330   5.678
 9309TIP3    H127870   4.857   3.326   5.619
 9309TIP3    H227871   4.764   3.238   5.701
 9310TIP3   OH227872   1.817   4.486   3.607
 9310TIP3    H127873   1.851   4.560   3.658
 9310TIP3    H227874   1.722   4.501   3.604
 9311TIP3   OH227875   2.729   2.703   1.079
 9311TIP3    H127876   2.672   2.676   1.151
 9311TIP3    H227877   2.677   2.689   1.000
 9312TIP3   OH227878   7.719   6.891   4.051
 9312TIP3    H127879   7.690   6.978   4.025
 9312TIP3    H227880   7.814   6.899   4.063
 9313TIP3   OH227881   6.447   3.438   0.868
 9313TIP3    H127882   6.514   3.391   0.918
 9313TIP3    H227883   6.418   3.375   0.802
 9314TIP3   OH227884   5.743   1.302   0.388
 9314TIP3    H127885   5.681   1.265   0.325
 9314TIP3    H227886   5.773   1.226   0.439
 9315TIP3   OH227887   2.404   5.701   6.477
 9315TIP3    H127888   2.498   5.716   6.483
 9315TIP3    H227889   2.395   5.606   6.476
 9316TIP3   OH227890   1.062   0.963   6.255
 9316TIP3    H127891   1.107   0.905   6.317
 9316TIP3    H227892   1.098   0.938   6.170
 9317TIP3   OH227893   4.636   5.933   5.265
 9317TIP3    H127894   4.657   6.026   5.257
 9317TIP3    H227895   4.614   5.921   5.358
 9318TIP3   OH227896   0.886   4.408   1.466
 9318TIP3    H127897   0.949   4.449   1.406
 9318TIP3    H227898   0.928   4.327   1.494
 9319TIP3   OH227899   0.604   1.872   5.252
 9319TIP3    H127900   0.562   1.856   5.336
 9319TIP3    H227901   0.598   1.966   5.239
 9320TIP3   OH227902   0.829   1.496   1.151
 9320TIP3    H127903   0.891   1.538   1.092
 9320TIP3    H227904   0.882   1.471   1.227
 9321TIP3   OH227905   3.715   3.446   3.955
 9321TIP3    H127906   3.785   3.507   3.933
 9321TIP3    H227907   3.720   3.436   4.050
 9322TIP3   OH227908   5.349   3.439   2.596
 9322TIP3    H127909   5.436   3.414   2.567
 9322TIP3    H227910   5.308   3.357   2.624
 9323TIP3   OH227911   5.105   0.168   2.650
 9323TIP3    H127912   5.101   0.110   2.575
 9323TIP3    H227913   5.196   0.199   2.652
 9324TIP3   OH227914   7.483   2.770   3.798
 9324TIP3    H127915   7.535   2.777   3.878
 9324TIP3    H227916   7.398   2.736   3.827
 9325TIP3   OH227917   7.342   2.903   2.843
 9325TIP3    H127918   7.382   2.988   2.826
 9325TIP3    H227919   7.390   2.841   2.788
 9326TIP3   OH227920   3.351   3.778   4.399
 9326TIP3    H127921   3.400   3.795   4.479
 9326TIP3    H227922   3.376   3.689   4.374
 9327TIP3   OH227923   3.158   1.625   1.360
 9327TIP3    H127924   3.233   1.683   1.378
 9327TIP3    H227925   3.158   1.563   1.433
 9328TIP3   OH227926   6.605   1.087   2.828
 9328TIP3    H127927   6.661   1.017   2.862
 9328TIP3    H227928   6.537   1.098   2.894
 9329TIP3   OH227929   8.214   3.500   0.876
 9329TIP3    H127930   8.249   3.449   0.802
 9329TIP3    H227931   8.168   3.435   0.930
 9330TIP3   OH227932   2.084   0.262   0.618
 9330TIP3    H127933   2.082   0.209   0.697
 9330TIP3    H227934   2.149   0.329   0.635
 9331TIP3   OH227935   4.650   0.433   6.322
 9331TIP3    H127936   4.691   0.357   6.280
 9331TIP3    H227937   4.717   0.501   6.321
 9332TIP3   OH227938   7.146   6.409   2.907
 9332TIP3    H127939   7.183   6.335   2.858
 9332TIP3    H227940   7.139   6.479   2.842
 9333TIP3   OH227941   7.217   7.340   5.218
 9333TIP3    H127942   7.279   7.358   5.147
 9333TIP3    H227943   7.131   7.349   5.176
 9334TIP3   OH227944   6.691   2.836   6.434
 9334TIP3    H127945   6.624   2.809   6.371
 9334TIP3    H227946   6.754   2.764   6.434
 9335TIP3   OH227947   4.895   0.935   5.711
 9335TIP3    H127948   4.856   0.874   5.648
 9335TIP3    H227949   4.964   0.885   5.755
 9336TIP3   OH227950   3.384   5.035   6.624
 9336TIP3    H127951   3.350   5.000   6.707
 9336TIP3    H227952   3.349   5.124   6.620
 9337TIP3   OH227953   5.784   4.813   2.957
 9337TIP3    H127954   5.826   4.866   2.890
 9337TIP3    H227955   5.846   4.742   2.975
 9338TIP3   OH227956   8.146   4.726   5.179
 9338TIP3    H127957   8.065   4.695   5.220
 9338TIP3    H227958   8.130   4.716   5.085
 9339TIP3   OH227959   7.545   4.106   5.641
 9339TIP3    H127960   7.572   4.014   5.640
 9339TIP3    H227961   7.476   4.111   5.574
 9340TIP3   OH227962   0.918   4.754   1.976
 9340TIP3    H127963   0.839   4.718   2.015
 9340TIP3    H227964   0.946   4.687   1.913
 9341TIP3   OH227965   4.096   7.094   2.805
 9341TIP3    H127966   4.032   7.067   2.739
 9341TIP3    H227967   4.178   7.053   2.777
 9342TIP3   OH227968   6.971   1.761   4.112
 9342TIP3    H127969   7.055   1.778   4.070
 9342TIP3    H227970   6.961   1.666   4.109
 9343TIP3   OH227971   7.457   1.164   5.101
 9343TIP3    H127972   7.431   1.171   5.193
 9343TIP3    H227973   7.540   1.212   5.096
 9344TIP3   OH227974   1.009   3.434   0.038
 9344TIP3    H127975   0.928   3.467   0.078
 9344TIP3    H227976   0.979   3.377  -0.033
 9345TIP3   OH227977   4.351   2.275   1.246
 9345TIP3    H127978   4.354   2.311   1.158
 9345TIP3    H227979   4.348   2.352   1.303
 9346TIP3   OH227980   2.098   4.047   4.587
 9346TIP3    H127981   2.040   4.004   4.649
 9346TIP3    H227982   2.059   4.134   4.574
 9347TIP3   OH227983   1.790   2.017   4.776
 9347TIP3    H127984   1.800   1.986   4.686
 9347TIP3    H227985   1.785   1.937   4.828
 9348TIP3   OH227986   1.991   4.516   3.984
 9348TIP3    H127987   1.953   4.546   3.901
 9348TIP3    H227988   2.084   4.537   3.977
 9349TIP3   OH227989   1.246   3.208   1.520
 9349TIP3    H127990   1.309   3.183   1.588
 9349TIP3    H227991   1.286   3.285   1.479
 9350TIP3   OH227992   2.155   2.900   3.184
 9350TIP3    H127993   2.108   2.834   3.132
 9350TIP3    H227994   2.119   2.984   3.155
 9351TIP3   OH227995   2.115   7.378   3.875
 9351TIP3    H127996   2.175   7.393   3.948
 9351TIP3    H227997   2.035   7.345   3.916
 9352TIP3   OH227998   2.253   3.460   6.092
 9352TIP3    H127999   2.242   3.368   6.118
 9352TIP3    H228000   2.165   3.491   6.073
 9353TIP3   OH228001   1.169   3.813   2.862
 9353TIP3    H128002   1.119   3.895   2.860
 9353TIP3    H228003   1.113   3.752   2.910
 9354TIP3   OH228004   7.135   4.041   5.984
 9354TIP3    H128005   7.227   4.064   5.969
 9354TIP3    H228006   7.097   4.037   5.896
 9355TIP3   OH228007   0.814   1.328   4.387
 9355TIP3    H128008   0.757   1.296   4.457
 9355TIP3    H228009   0.833   1.419   4.411
 9356TIP3   OH228010   2.970   0.823   3.136
 9356TIP3    H128011   2.984   0.736   3.101
 9356TIP3    H228012   2.942   0.876   3.061
 9357TIP3   OH228013   0.449   3.572   3.549
 9357TIP3    H128014   0.373   3.538   3.596
 9357TIP3    H228015   0.430   3.665   3.536
 9358TIP3   OH228016   1.774   6.867   3.295
 9358TIP3    H128017   1.857   6.833   3.262
 9358TIP3    H228018   1.707   6.822   3.244
 9359TIP3   OH228019   6.373   4.547   4.924
 9359TIP3    H128020   6.351   4.458   4.954
 9359TIP3    H228021   6.460   4.538   4.886
 9360TIP3   OH228022   5.746   1.381   2.513
 9360TIP3    H128023   5.835   1.344   2.507
 9360TIP3    H228024   5.714   1.350   2.598
 9361TIP3   OH228025   1.549   3.670   6.515
 9361TIP3    H128026   1.468   3.655   6.465
 9361TIP3    H228027   1.600   3.730   6.460
 9362TIP3   OH228028   2.802   3.219   1.290
 9362TIP3    H128029   2.784   3.305   1.254
 9362TIP3    H228030   2.747   3.159   1.240
 9363TIP3   OH228031   5.380   0.479   6.614
 9363TIP3    H128032   5.379   0.391   6.652
 9363TIP3    H228033   5.367   0.537   6.688
 9364TIP3   OH228034   2.734   2.943   5.683
 9364TIP3    H128035   2.701   2.888   5.754
 9364TIP3    H228036   2.794   3.004   5.727
 9365TIP3   OH228037   7.133   3.018   4.340
 9365TIP3    H128038   7.146   3.113   4.341
 9365TIP3    H228039   7.160   2.989   4.427
 9366TIP3   OH228040   4.427   5.457   3.434
 9366TIP3    H128041   4.370   5.440   3.360
 9366TIP3    H228042   4.487   5.381   3.436
 9367TIP3   OH228043   2.856   0.013   6.441
 9367TIP3    H128044   2.913   0.089   6.451
 9367TIP3    H228045   2.887  -0.031   6.362
 9368TIP3   OH228046   7.489   4.588   4.967
 9368TIP3    H128047   7.502   4.683   4.970
 9368TIP3    H228048   7.430   4.574   4.893
 9369TIP3   OH228049   5.501   5.690   1.014
 9369TIP3    H128050   5.546   5.753   1.070
 9369TIP3    H228051   5.468   5.743   0.941
 9370TIP3   OH228052   1.758   4.271   5.899
 9370TIP3    H128053   1.779   4.308   5.984
 9370TIP3    H228054   1.826   4.205   5.884
 9371TIP3   OH228055   5.961   4.618   2.629
 9371TIP3    H128056   5.978   4.656   2.715
 9371TIP3    H228057   6.045   4.623   2.583
 9372TIP3   OH228058   1.317   3.283   5.934
 9372TIP3    H128059   1.246   3.347   5.928
 9372TIP3    H228060   1.389   3.323   5.885
 9373TIP3   OH228061   1.260   6.678   4.517
 9373TIP3    H128062   1.292   6.622   4.588
 9373TIP3    H228063   1.305   6.647   4.439
 9374TIP3   OH228064   7.223   1.566   2.800
 9374TIP3    H128065   7.293   1.535   2.742
 9374TIP3    H228066   7.222   1.504   2.872
 9375TIP3   OH228067   6.031   3.255   4.400
 9375TIP3    H128068   5.971   3.187   4.429
 9375TIP3    H228069   6.045   3.238   4.307
 9376TIP3   OH228070   5.045   2.310   0.599
 9376TIP3    H128071   5.058   2.393   0.552
 9376TIP3    H228072   4.965   2.324   0.649
 9377TIP3   OH228073   2.855   4.003   1.617
 9377TIP3    H128074   2.884   4.092   1.636
 9377TIP3    H228075   2.793   3.982   1.687
 9378TIP3   OH228076   2.364   4.915   2.326
 9378TIP3    H128077   2.409   4.983   2.277
 9378TIP3    H228078   2.271   4.930   2.310
 9379TIP3   OH228079   7.530   4.966   1.925
 9379TIP3    H128080   7.474   4.923   1.989
 9379TIP3    H228081   7.488   4.949   1.840
 9380TIP3   OH228082   5.179   3.544   2.062
 9380TIP3    H128083   5.113   3.475   2.058
 9380TIP3    H228084   5.130   3.623   2.085
 9381TIP3   OH228085   7.439   5.752   5.941
 9381TIP3    H128086   7.522   5.735   5.896
 9381TIP3    H228087   7.464   5.762   6.033
 9382TIP3   OH228088   4.431   1.850   5.557
 9382TIP3    H128089   4.408   1.892   5.640
 9382TIP3    H228090   4.447   1.923   5.497
 9383TIP3   OH228091   4.476   2.961   4.210
 9383TIP3    H128092   4.404   2.972   4.147
 9383TIP3    H228093   4.449   2.887   4.265
 9384TIP3   OH228094   3.300   2.328   6.036
 9384TIP3    H128095   3.300   2.372   5.951
 9384TIP3    H228096   3.212   2.345   6.071
 9385TIP3   OH228097   5.098   0.222   5.397
 9385TIP3    H128098   5.097   0.265   5.312
 9385TIP3    H228099   5.185   0.241   5.433
 9386TIP3   OH228100   4.796   2.830   4.615
 9386TIP3    H128101   4.819   2.753   4.564
 9386TIP3    H228102   4.776   2.897   4.550
 9387TIP3   OH228103   7.661   3.533   1.474
 9387TIP3    H128104   7.721   3.524   1.548
 9387TIP3    H228105   7.601   3.458   1.483
 9388TIP3   OH228106   8.060   4.809   6.201
 9388TIP3    H128107   8.150   4.789   6.228
 9388TIP3    H228108   8.035   4.736   6.145
 9389TIP3   OH228109   1.638   2.090   1.131
 9389TIP3    H128110   1.598   2.105   1.216
 9389TIP3    H228111   1.731   2.077   1.150
 9390TIP3   OH228112   4.585   1.191   4.568
 9390TIP3    H128113   4.569   1.104   4.605
 9390TIP3    H228114   4.656   1.227   4.621
 9391TIP3   OH228115   5.824   5.172   0.926
 9391TIP3    H128116   5.850   5.080   0.940
 9391TIP3    H228117   5.889   5.222   0.975
 9392TIP3   OH228118   6.666   1.588   3.076
 9392TIP3    H128119   6.752   1.594   3.116
 9392TIP3    H228120   6.683   1.592   2.982
 9393TIP3   OH228121   3.997   7.373   4.150
 9393TIP3    H128122   4.019   7.313   4.221
 9393TIP3    H228123   4.081   7.408   4.120
 9394TIP3   OH228124   3.558   1.423   3.359
 9394TIP3    H128125   3.480   1.393   3.311
 9394TIP3    H228126   3.588   1.345   3.405
 9395TIP3   OH228127   6.595   5.696   2.663
 9395TIP3    H128128   6.582   5.601   2.666
 9395TIP3    H228129   6.634   5.713   2.577
 9396TIP3   OH228130   5.683   1.495   3.434
 9396TIP3    H128131   5.662   1.404   3.410
 9396TIP3    H228132   5.750   1.486   3.502
 9397TIP3   OH228133   1.257   0.908   4.421
 9397TIP3    H128134   1.170   0.879   4.393
 9397TIP3    H228135   1.316   0.840   4.389
 9398TIP3   OH228136   7.461   0.485   3.661
 9398TIP3    H128137   7.512   0.554   3.702
 9398TIP3    H228138   7.475   0.408   3.717
 9399TIP3   OH228139   2.563   0.385   0.739
 9399TIP3    H128140   2.577   0.477   0.763
 9399TIP3    H228141   2.509   0.350   0.810
 9400TIP3   OH228142   5.021   2.714   2.990
 9400TIP3    H128143   4.975   2.797   3.004
 9400TIP3    H228144   4.952   2.649   2.980
 9401TIP3   OH228145   3.313   6.041   1.222
 9401TIP3    H128146   3.359   5.974   1.272
 9401TIP3    H228147   3.363   6.048   1.140
 9402TIP3   OH228148   7.342   5.451   3.604
 9402TIP3    H128149   7.331   5.360   3.632
 9402TIP3    H228150   7.293   5.502   3.669
 9403TIP3   OH228151   4.160   6.814   2.190
 9403TIP3    H128152   4.159   6.900   2.232
 9403TIP3    H228153   4.172   6.833   2.097
 9404TIP3   OH228154   7.633   4.223   1.176
 9404TIP3    H128155   7.543   4.249   1.156
 9404TIP3    H228156   7.626   4.167   1.253
 9405TIP3   OH228157   6.876   3.374   2.214
 9405TIP3    H128158   6.838   3.308   2.156
 9405TIP3    H228159   6.962   3.394   2.177
 9406TIP3   OH228160   0.826   2.625   0.369
 9406TIP3    H128161   0.901   2.566   0.372
 9406TIP3    H228162   0.841   2.687   0.440
 9407TIP3   OH228163   1.784   2.612   2.395
 9407TIP3    H128164   1.814   2.612   2.486
 9407TIP3    H228165   1.689   2.619   2.402
 9408TIP3   OH228166   8.222   2.303   2.761
 9408TIP3    H128167   8.263   2.382   2.727
 9408TIP3    H228168   8.270   2.284   2.842
 9409TIP3   OH228169   6.722   4.204   3.292
 9409TIP3    H128170   6.799   4.153   3.317
 9409TIP3    H228171   6.757   4.277   3.241
 9410TIP3   OH228172   2.203   4.836   5.499
 9410TIP3    H128173   2.119   4.875   5.478
 9410TIP3    H228174   2.257   4.852   5.421
 9411TIP3   OH228175   4.349   4.339   4.918
 9411TIP3    H128176   4.373   4.263   4.866
 9411TIP3    H228177   4.325   4.304   5.003
 9412TIP3   OH228178   7.764   1.017   5.198
 9412TIP3    H128179   7.726   0.989   5.114
 9412TIP3    H228180   7.835   1.076   5.173
 9413TIP3   OH228181   8.146   5.097   2.053
 9413TIP3    H128182   8.197   5.159   2.001
 9413TIP3    H228183   8.056   5.132   2.050
 9414TIP3   OH228184   3.133   7.117   1.900
 9414TIP3    H128185   3.063   7.054   1.916
 9414TIP3    H228186   3.214   7.066   1.908
 9415TIP3   OH228187   5.940   6.411   1.717
 9415TIP3    H128188   6.030   6.443   1.721
 9415TIP3    H228189   5.899   6.446   1.796
 9416TIP3   OH228190   0.761   3.111   5.734
 9416TIP3    H128191   0.692   3.171   5.704
 9416TIP3    H228192   0.762   3.041   5.669
 9417TIP3   OH228193   1.163   4.931   2.716
 9417TIP3    H128194   1.160   5.027   2.719
 9417TIP3    H228195   1.103   4.903   2.785
 9418TIP3   OH228196   5.147   0.948   1.462
 9418TIP3    H128197   5.151   0.862   1.504
 9418TIP3    H228198   5.177   1.009   1.530
 9419TIP3   OH228199   0.840   4.282   1.038
 9419TIP3    H128200   0.806   4.192   1.038
 9419TIP3    H228201   0.913   4.280   0.976
 9420TIP3   OH228202   6.606   6.069   1.091
 9420TIP3    H128203   6.575   6.064   1.181
 9420TIP3    H228204   6.676   6.004   1.086
 9421TIP3   OH228205   0.552   0.739   1.673
 9421TIP3    H128206   0.500   0.675   1.624
 9421TIP3    H228207   0.543   0.820   1.622
 9422TIP3   OH228208   3.652   1.711   4.780
 9422TIP3    H128209   3.632   1.704   4.687
 9422TIP3    H228210   3.567   1.710   4.823
 9423TIP3   OH228211   2.316   2.927   4.893
 9423TIP3    H128212   2.267   2.985   4.834
 9423TIP3    H228213   2.314   2.842   4.850
 9424TIP3   OH228214   2.241   3.875   0.348
 9424TIP3    H128215   2.297   3.936   0.395
 9424TIP3    H228216   2.301   3.828   0.289
 9425TIP3   OH228217   3.585   4.674   5.956
 9425TIP3    H128218   3.620   4.597   6.001
 9425TIP3    H228219   3.491   4.670   5.972
 9426TIP3   OH228220   1.774   6.037   6.220
 9426TIP3    H128221   1.762   6.058   6.312
 9426TIP3    H228222   1.855   6.083   6.195
 9427TIP3   OH228223   1.270   3.522   2.210
 9427TIP3    H128224   1.185   3.503   2.250
 9427TIP3    H228225   1.292   3.610   2.241
 9428TIP3   OH228226   2.006   1.919   5.451
 9428TIP3    H128227   2.058   1.924   5.371
 9428TIP3    H228228   2.019   2.004   5.494
 9429TIP3   OH228229   6.098   6.945   0.048
 9429TIP3    H128230   6.021   6.935   0.105
 9429TIP3    H228231   6.061   6.962  -0.039
 9430TIP3   OH228232   3.440   6.493   1.960
 9430TIP3    H128233   3.503   6.439   2.008
 9430TIP3    H228234   3.426   6.445   1.878
 9431TIP3   OH228235   5.406   7.815   2.360
 9431TIP3    H128236   5.363   7.730   2.356
 9431TIP3    H228237   5.341   7.877   2.328
 9432TIP3   OH228238   3.646   2.744   6.220
 9432TIP3    H128239   3.608   2.798   6.290
 9432TIP3    H228240   3.708   2.687   6.266
 9433TIP3   OH228241   0.725   6.875   5.632
 9433TIP3    H128242   0.745   6.959   5.675
 9433TIP3    H228243   0.633   6.860   5.650
 9434TIP3   OH228244   2.923   2.838   4.189
 9434TIP3    H128245   2.842   2.821   4.238
 9434TIP3    H228246   2.972   2.900   4.244
 9435TIP3   OH228247   2.078   0.328   3.139
 9435TIP3    H128248   2.116   0.342   3.052
 9435TIP3    H228249   1.984   0.326   3.123
 9436TIP3   OH228250   7.791   4.325   6.009
 9436TIP3    H128251   7.738   4.317   5.929
 9436TIP3    H228252   7.763   4.252   6.063
 9437TIP3   OH228253   4.319   7.100   0.809
 9437TIP3    H128254   4.332   7.124   0.901
 9437TIP3    H228255   4.246   7.038   0.810
 9438TIP3   OH228256   5.305   4.014   2.426
 9438TIP3    H128257   5.242   3.946   2.405
 9438TIP3    H228258   5.307   4.070   2.348
 9439TIP3   OH228259   4.597   2.161   4.145
 9439TIP3    H128260   4.637   2.187   4.228
 9439TIP3    H228261   4.508   2.194   4.149
 9440TIP3   OH228262   7.861   0.788   5.862
 9440TIP3    H128263   7.864   0.695   5.886
 9440TIP3    H228264   7.944   0.803   5.816
 9441TIP3   OH228265   4.977   6.540   3.327
 9441TIP3    H128266   4.997   6.504   3.413
 9441TIP3    H228267   4.885   6.563   3.331
 9442TIP3   OH228268   7.492   2.638   5.482
 9442TIP3    H128269   7.429   2.646   5.411
 9442TIP3    H228270   7.438   2.640   5.562
 9443TIP3   OH228271   4.552   2.427   5.156
 9443TIP3    H128272   4.536   2.409   5.063
 9443TIP3    H228273   4.465   2.441   5.193
 9444TIP3   OH228274   6.142   1.479   4.933
 9444TIP3    H128275   6.120   1.422   4.859
 9444TIP3    H228276   6.097   1.439   5.008
 9445TIP3   OH228277   5.410   7.225   4.533
 9445TIP3    H128278   5.488   7.251   4.582
 9445TIP3    H228279   5.359   7.172   4.594
 9446TIP3   OH228280   4.228   7.662   3.823
 9446TIP3    H128281   4.235   7.719   3.746
 9446TIP3    H228282   4.150   7.694   3.869
 9447TIP3   OH228283   0.571   4.542   4.921
 9447TIP3    H128284   0.617   4.458   4.914
 9447TIP3    H228285   0.603   4.592   4.846
 9448TIP3   OH228286   8.291   2.706   4.950
 9448TIP3    H128287   8.265   2.661   4.870
 9448TIP3    H228288   8.309   2.796   4.923
 9449TIP3   OH228289   7.898   3.075   1.169
 9449TIP3    H128290   7.863   3.157   1.135
 9449TIP3    H228291   7.899   3.086   1.264
 9450TIP3   OH228292  -0.011   4.233   2.724
 9450TIP3    H128293  -0.048   4.155   2.765
 9450TIP3    H228294   0.068   4.202   2.681
 9451TIP3   OH228295   2.143   3.854   1.689
 9451TIP3    H128296   2.153   3.942   1.654
 9451TIP3    H228297   2.223   3.838   1.739
 9452TIP3   OH228298   1.175   4.888   0.732
 9452TIP3    H128299   1.216   4.802   0.726
 9452TIP3    H228300   1.240   4.943   0.776
 9453TIP3   OH228301   4.318   3.499   1.737
 9453TIP3    H128302   4.330   3.503   1.832
 9453TIP3    H228303   4.404   3.522   1.702
 9454TIP3   OH228304   2.936   6.828   3.115
 9454TIP3    H128305   2.948   6.854   3.207
 9454TIP3    H228306   2.883   6.749   3.120
 9455TIP3   OH228307   4.155   1.182   1.291
 9455TIP3    H128308   4.111   1.264   1.268
 9455TIP3    H228309   4.245   1.209   1.312
 9456TIP3   OH228310   6.449   4.845   5.218
 9456TIP3    H128311   6.516   4.888   5.165
 9456TIP3    H228312   6.369   4.895   5.201
 9457TIP3   OH228313   3.281   4.384   1.608
 9457TIP3    H128314   3.274   4.362   1.701
 9457TIP3    H228315   3.272   4.301   1.562
 9458TIP3   OH228316   6.703   0.398   4.048
 9458TIP3    H128317   6.791   0.424   4.024
 9458TIP3    H228318   6.715   0.321   4.104
 9459TIP3   OH228319   1.783   4.688   0.167
 9459TIP3    H128320   1.752   4.775   0.143
 9459TIP3    H228321   1.735   4.666   0.247
 9460TIP3   OH228322   4.387   5.584   1.199
 9460TIP3    H128323   4.400   5.678   1.187
 9460TIP3    H228324   4.461   5.543   1.155
 9461TIP3   OH228325   0.979   2.527   1.957
 9461TIP3    H128326   0.982   2.492   1.868
 9461TIP3    H228327   0.988   2.450   2.013
 9462TIP3   OH228328   0.874   0.979   3.692
 9462TIP3    H128329   0.885   0.996   3.785
 9462TIP3    H228330   0.928   1.047   3.649
 9463TIP3   OH228331   6.121   3.853   5.843
 9463TIP3    H128332   6.036   3.810   5.853
 9463TIP3    H228333   6.118   3.928   5.902
 9464TIP3   OH228334   0.513   5.069   0.315
 9464TIP3    H128335   0.578   5.134   0.343
 9464TIP3    H228336   0.436   5.121   0.293
 9465TIP3   OH228337   4.231   5.429   2.250
 9465TIP3    H128338   4.324   5.442   2.237
 9465TIP3    H228339   4.200   5.388   2.169
 9466TIP3   OH228340   1.657   1.281   5.470
 9466TIP3    H128341   1.743   1.291   5.510
 9466TIP3    H228342   1.621   1.370   5.467
 9467TIP3   OH228343   0.739   6.915   2.422
 9467TIP3    H128344   0.682   6.908   2.498
 9467TIP3    H228345   0.784   6.999   2.433
 9468TIP3   OH228346   2.230   1.198   6.031
 9468TIP3    H128347   2.232   1.226   6.123
 9468TIP3    H228348   2.298   1.131   6.025
 9469TIP3   OH228349   1.731   1.950   4.130
 9469TIP3    H128350   1.659   1.922   4.186
 9469TIP3    H228351   1.795   1.988   4.190
 9470TIP3   OH228352   1.793   1.249   4.552
 9470TIP3    H128353   1.820   1.157   4.555
 9470TIP3    H228354   1.844   1.287   4.480
 9471TIP3   OH228355   1.024   4.356   5.250
 9471TIP3    H128356   1.087   4.318   5.188
 9471TIP3    H228357   1.072   4.429   5.290
 9472TIP3   OH228358   1.147   3.753   2.479
 9472TIP3    H128359   1.186   3.828   2.524
 9472TIP3    H228360   1.064   3.786   2.446
 9473TIP3   OH228361   4.334   1.171   6.756
 9473TIP3    H128362   4.337   1.126   6.672
 9473TIP3    H228363   4.259   1.230   6.749
 9474TIP3   OH228364   2.689   4.606   6.277
 9474TIP3    H128365   2.676   4.557   6.358
 9474TIP3    H228366   2.701   4.539   6.210
 9475TIP3   OH228367   7.853   2.614   1.375
 9475TIP3    H128368   7.768   2.570   1.363
 9475TIP3    H228369   7.830   2.701   1.407
 9476TIP3   OH228370   7.232   4.911   6.469
 9476TIP3    H128371   7.236   4.940   6.560
 9476TIP3    H228372   7.178   4.832   6.472
 9477TIP3   OH228373   0.644   0.832   5.548
 9477TIP3    H128374   0.653   0.739   5.531
 9477TIP3    H228375   0.560   0.841   5.593
 9478TIP3   OH228376   5.868   6.183   4.126
 9478TIP3    H128377   5.915   6.100   4.118
 9478TIP3    H228378   5.854   6.194   4.220
 9479TIP3   OH228379   5.339   1.948   1.630
 9479TIP3    H128380   5.396   1.945   1.553
 9479TIP3    H228381   5.291   2.030   1.621
 9480TIP3   OH228382   6.916   7.061   0.917
 9480TIP3    H128383   6.927   7.033   1.008
 9480TIP3    H228384   6.961   6.994   0.865
 9481TIP3   OH228385   5.507   3.189   2.328
 9481TIP3    H128386   5.446   3.253   2.293
 9481TIP3    H228387   5.539   3.142   2.252
 9482TIP3   OH228388   3.887   2.153   4.215
 9482TIP3    H128389   3.801   2.127   4.248
 9482TIP3    H228390   3.929   2.195   4.290
 9483TIP3   OH228391   3.091   1.148   0.537
 9483TIP3    H128392   3.126   1.223   0.584
 9483TIP3    H228393   3.030   1.185   0.473
 9484TIP3   OH228394   2.371   5.077   0.241
 9484TIP3    H128395   2.412   5.135   0.305
 9484TIP3    H228396   2.283   5.113   0.229
 9485TIP3   OH228397   1.031   6.660   2.558
 9485TIP3    H128398   1.126   6.675   2.559
 9485TIP3    H228399   0.992   6.747   2.555
 9486TIP3   OH228400   6.826   1.962   1.358
 9486TIP3    H128401   6.846   1.910   1.280
 9486TIP3    H228402   6.774   2.036   1.325
 9487TIP3   OH228403   2.410   2.829   1.754
 9487TIP3    H128404   2.442   2.908   1.711
 9487TIP3    H228405   2.400   2.854   1.846
 9488TIP3   OH228406   3.084   3.919   5.036
 9488TIP3    H128407   2.989   3.918   5.047
 9488TIP3    H228408   3.102   3.846   4.977
 9489TIP3   OH228409   5.127   7.591   6.742
 9489TIP3    H128410   5.203   7.594   6.682
 9489TIP3    H228411   5.161   7.625   6.825
 9490TIP3   OH228412   2.398   5.394   3.249
 9490TIP3    H128413   2.413   5.300   3.242
 9490TIP3    H228414   2.359   5.418   3.165
 9491TIP3   OH228415   3.268   4.209   3.522
 9491TIP3    H128416   3.288   4.227   3.614
 9491TIP3    H228417   3.241   4.117   3.521
 9492TIP3   OH228418   7.133   7.103   1.790
 9492TIP3    H128419   7.149   7.015   1.756
 9492TIP3    H228420   7.216   7.149   1.780
 9493TIP3   OH228421   4.538   5.243   6.717
 9493TIP3    H128422   4.526   5.240   6.812
 9493TIP3    H228423   4.630   5.220   6.704
 9494TIP3   OH228424   5.035   6.328   5.922
 9494TIP3    H128425   5.060   6.256   5.980
 9494TIP3    H228426   5.074   6.406   5.962
 9495TIP3   OH228427   8.121   7.576   3.580
 9495TIP3    H128428   8.182   7.566   3.507
 9495TIP3    H228429   8.167   7.632   3.642
 9496TIP3   OH228430   3.246   4.202   0.528
 9496TIP3    H128431   3.263   4.279   0.474
 9496TIP3    H228432   3.154   4.210   0.553
 9497TIP3   OH228433   3.471   4.568   2.193
 9497TIP3    H128434   3.504   4.650   2.157
 9497TIP3    H228435   3.546   4.528   2.236
 9498TIP3   OH228436   7.844   3.171   4.701
 9498TIP3    H128437   7.790   3.236   4.657
 9498TIP3    H228438   7.810   3.087   4.670
 9499TIP3   OH228439   1.269   3.931   2.220
 9499TIP3    H128440   1.325   3.862   2.183
 9499TIP3    H228441   1.183   3.890   2.229
 9500TIP3   OH228442   7.549   3.446   5.726
 9500TIP3    H128443   7.497   3.471   5.649
 9500TIP3    H228444   7.599   3.525   5.748
 9501TIP3   OH228445   4.072   6.324   2.941
 9501TIP3    H128446   4.104   6.296   3.027
 9501TIP3    H228447   4.099   6.415   2.934
 9502TIP3   OH228448   1.896   6.778   1.932
 9502TIP3    H128449   1.808   6.797   1.964
 9502TIP3    H228450   1.883   6.749   1.841
 9503TIP3   OH228451   0.802   0.683   0.219
 9503TIP3    H128452   0.835   0.745   0.283
 9503TIP3    H228453   0.817   0.597   0.259
 9504TIP3   OH228454   0.687   1.660   5.573
 9504TIP3    H128455   0.668   1.595   5.506
 9504TIP3    H228456   0.763   1.708   5.540
 9505TIP3   OH228457   2.948   3.268   1.695
 9505TIP3    H128458   2.874   3.232   1.647
 9505TIP3    H228459   3.018   3.275   1.630
 9506TIP3   OH228460   3.483   2.185   4.487
 9506TIP3    H128461   3.493   2.104   4.536
 9506TIP3    H228462   3.526   2.168   4.403
 9507TIP3   OH228463   5.237   4.824   5.668
 9507TIP3    H128464   5.257   4.831   5.761
 9507TIP3    H228465   5.247   4.912   5.633
 9508TIP3   OH228466   2.189   4.948   6.321
 9508TIP3    H128467   2.167   4.993   6.239
 9508TIP3    H228468   2.105   4.940   6.367
 9509TIP3   OH228469   7.535   1.080   3.249
 9509TIP3    H128470   7.624   1.094   3.216
 9509TIP3    H228471   7.500   1.168   3.264
 9510TIP3   OH228472   2.223   5.195   1.707
 9510TIP3    H128473   2.178   5.279   1.712
 9510TIP3    H228474   2.315   5.217   1.694
 9511TIP3   OH228475   7.997   7.738   3.031
 9511TIP3    H128476   7.949   7.804   2.981
 9511TIP3    H228477   8.008   7.665   2.969
 9512TIP3   OH228478   0.849   6.616   5.551
 9512TIP3    H128479   0.801   6.683   5.601
 9512TIP3    H228480   0.788   6.591   5.482
 9513TIP3   OH228481   0.420   6.018   5.692
 9513TIP3    H128482   0.378   5.976   5.767
 9513TIP3    H228483   0.410   5.955   5.620
 9514TIP3   OH228484   6.118   6.993   6.295
 9514TIP3    H128485   6.201   6.946   6.305
 9514TIP3    H228486   6.097   7.022   6.383
 9515TIP3   OH228487   0.702   0.235   1.334
 9515TIP3    H128488   0.678   0.316   1.378
 9515TIP3    H228489   0.781   0.257   1.284
 9516TIP3   OH228490   0.752   5.658   3.793
 9516TIP3    H128491   0.767   5.577   3.841
 9516TIP3    H228492   0.664   5.648   3.756
 9517TIP3   OH228493   0.925   4.354   0.137
 9517TIP3    H128494   0.996   4.398   0.183
 9517TIP3    H228495   0.846   4.383   0.182
 9518TIP3   OH228496   0.544   4.027   1.745
 9518TIP3    H128497   0.495   3.946   1.758
 9518TIP3    H228498   0.570   4.055   1.833
 9519TIP3   OH228499   2.953   6.195   5.176
 9519TIP3    H128500   2.970   6.281   5.135
 9519TIP3    H228501   3.027   6.141   5.149
 9520TIP3   OH228502   6.898   3.180   6.205
 9520TIP3    H128503   6.955   3.111   6.171
 9520TIP3    H228504   6.919   3.185   6.298
 9521TIP3   OH228505   8.050   2.767   4.240
 9521TIP3    H128506   8.075   2.680   4.272
 9521TIP3    H228507   8.019   2.752   4.150
 9522TIP3   OH228508   0.513   5.627   3.657
 9522TIP3    H128509   0.423   5.605   3.681
 9522TIP3    H228510   0.506   5.664   3.569
 9523TIP3   OH228511   2.959   3.106   0.142
 9523TIP3    H128512   2.999   3.049   0.208
 9523TIP3    H228513   2.865   3.093   0.153
 9524TIP3   OH228514   0.766   3.443   2.743
 9524TIP3    H128515   0.710   3.383   2.692
 9524TIP3    H228516   0.812   3.493   2.676
 9525TIP3   OH228517   5.741   6.584   2.974
 9525TIP3    H128518   5.684   6.507   2.970
 9525TIP3    H228519   5.800   6.574   2.899
 9526TIP3   OH228520   4.472   5.983   3.491
 9526TIP3    H128521   4.551   6.020   3.452
 9526TIP3    H228522   4.504   5.909   3.543
 9527TIP3   OH228523   3.237   5.759   4.485
 9527TIP3    H128524   3.173   5.725   4.422
 9527TIP3    H228525   3.199   5.842   4.515
 9528TIP3   OH228526   3.301   6.923   0.424
 9528TIP3    H128527   3.286   6.848   0.482
 9528TIP3    H228528   3.325   6.994   0.483
 9529TIP3   OH228529   3.927   2.272   6.644
 9529TIP3    H128530   3.996   2.225   6.691
 9529TIP3    H228531   3.850   2.216   6.652
 9530TIP3   OH228532   1.975   0.679   4.473
 9530TIP3    H128533   2.009   0.737   4.405
 9530TIP3    H228534   1.915   0.620   4.427
 9531TIP3   OH228535   1.259   5.862   4.766
 9531TIP3    H128536   1.348   5.829   4.758
 9531TIP3    H228537   1.212   5.795   4.815
 9532TIP3   OH228538   5.286   7.428   3.981
 9532TIP3    H128539   5.212   7.451   4.037
 9532TIP3    H228540   5.247   7.388   3.904
 9533TIP3   OH228541   3.535   4.553   0.729
 9533TIP3    H128542   3.495   4.634   0.761
 9533TIP3    H228543   3.527   4.491   0.802
 9534TIP3   OH228544   2.681   3.228   3.441
 9534TIP3    H128545   2.707   3.158   3.500
 9534TIP3    H228546   2.757   3.243   3.386
 9535TIP3   OH228547   3.210   2.476   5.836
 9535TIP3    H128548   3.146   2.423   5.790
 9535TIP3    H228549   3.266   2.512   5.766
 9536TIP3   OH228550   0.655   3.646   3.728
 9536TIP3    H128551   0.637   3.659   3.821
 9536TIP3    H228552   0.569   3.633   3.688
 9537TIP3   OH228553   0.334   2.576   0.011
 9537TIP3    H128554   0.276   2.502  -0.007
 9537TIP3    H228555   0.329   2.588   0.106
 9538TIP3   OH228556   5.837   7.267   0.041
 9538TIP3    H128557   5.766   7.314  -0.003
 9538TIP3    H228558   5.912   7.327   0.037
 9539TIP3   OH228559   5.375   3.650   0.824
 9539TIP3    H128560   5.384   3.744   0.835
 9539TIP3    H228561   5.434   3.627   0.752
 9540TIP3   OH228562   8.194   6.765   0.449
 9540TIP3    H128563   8.138   6.718   0.387
 9540TIP3    H228564   8.192   6.711   0.528
 9541TIP3   OH228565   6.269   3.574   4.591
 9541TIP3    H128566   6.236   3.660   4.617
 9541TIP3    H228567   6.323   3.591   4.514
 9542TIP3   OH228568   5.865   7.801   1.470
 9542TIP3    H128569   5.843   7.740   1.399
 9542TIP3    H228570   5.886   7.745   1.545
 9543TIP3   OH228571   1.523   1.692   4.593
 9543TIP3    H128572   1.604   1.664   4.549
 9543TIP3    H228573   1.548   1.704   4.684
 9544TIP3   OH228574   2.354   0.787   6.519
 9544TIP3    H128575   2.384   0.857   6.460
 9544TIP3    H228576   2.262   0.807   6.533
 9545TIP3   OH228577   1.781   7.450   0.473
 9545TIP3    H128578   1.708   7.513   0.481
 9545TIP3    H228579   1.840   7.474   0.544
 9546TIP3   OH228580   8.015   7.722   5.434
 9546TIP3    H128581   8.084   7.695   5.494
 9546TIP3    H228582   8.034   7.814   5.414
 9547TIP3   OH228583   5.392   1.413   3.463
 9547TIP3    H128584   5.396   1.318   3.472
 9547TIP3    H228585   5.391   1.445   3.554
 9548TIP3   OH228586   0.843   4.936   3.108
 9548TIP3    H128587   0.762   4.986   3.098
 9548TIP3    H228588   0.910   5.002   3.127
 9549TIP3   OH228589   0.102   3.429   4.923
 9549TIP3    H128590   0.109   3.514   4.965
 9549TIP3    H228591   0.008   3.418   4.907
 9550TIP3   OH228592   1.496   3.402   5.607
 9550TIP3    H128593   1.562   3.337   5.582
 9550TIP3    H228594   1.536   3.449   5.680
 9551TIP3   OH228595   2.829   1.354  -0.019
 9551TIP3    H128596   2.901   1.291  -0.024
 9551TIP3    H228597   2.790   1.339   0.067
 9552TIP3   OH228598   8.270   5.568   5.419
 9552TIP3    H128599   8.191   5.601   5.377
 9552TIP3    H228600   8.337   5.573   5.350
 9553TIP3   OH228601   5.812   2.015   6.158
 9553TIP3    H128602   5.757   1.976   6.225
 9553TIP3    H228603   5.770   1.992   6.075
 9554TIP3   OH228604   3.399   2.056   5.986
 9554TIP3    H128605   3.360   2.122   6.044
 9554TIP3    H228606   3.329   2.033   5.925
 9555TIP3   OH228607   1.017   1.619   1.711
 9555TIP3    H128608   1.109   1.629   1.735
 9555TIP3    H228609   1.004   1.684   1.641
 9556TIP3   OH228610   2.908   5.126   1.534
 9556TIP3    H128611   2.846   5.057   1.557
 9556TIP3    H228612   2.920   5.116   1.439
 9557TIP3   OH228613   3.777   6.817   2.694
 9557TIP3    H128614   3.775   6.779   2.782
 9557TIP3    H228615   3.688   6.807   2.661
 9558TIP3   OH228616   0.133   0.827   6.631
 9558TIP3    H128617   0.196   0.897   6.615
 9558TIP3    H228618   0.065   0.840   6.565
 9559TIP3   OH228619   4.625   4.929   0.570
 9559TIP3    H128620   4.612   5.005   0.513
 9559TIP3    H228621   4.547   4.927   0.625
 9560TIP3   OH228622   2.954   1.636   2.501
 9560TIP3    H128623   2.858   1.634   2.498
 9560TIP3    H228624   2.979   1.553   2.543
 9561TIP3   OH228625   4.824   7.384   2.147
 9561TIP3    H128626   4.859   7.296   2.162
 9561TIP3    H228627   4.887   7.425   2.088
 9562TIP3   OH228628   3.840   7.182   5.802
 9562TIP3    H128629   3.787   7.167   5.880
 9562TIP3    H228630   3.789   7.145   5.730
 9563TIP3   OH228631   3.841   2.554   6.241
 9563TIP3    H128632   3.794   2.472   6.223
 9563TIP3    H228633   3.878   2.541   6.329
 9564TIP3   OH228634   2.243   7.682   4.996
 9564TIP3    H128635   2.210   7.768   5.020
 9564TIP3    H228636   2.166   7.634   4.967
 9565TIP3   OH228637   7.822   4.920   1.928
 9565TIP3    H128638   7.748   4.981   1.927
 9565TIP3    H228639   7.799   4.853   1.864
 9566TIP3   OH228640   5.828   5.456   2.479
 9566TIP3    H128641   5.746   5.433   2.435
 9566TIP3    H228642   5.896   5.423   2.421
 9567TIP3   OH228643   3.354   3.395   2.046
 9567TIP3    H128644   3.330   3.349   2.127
 9567TIP3    H228645   3.299   3.355   1.979
 9568TIP3   OH228646   7.829   7.814   5.207
 9568TIP3    H128647   7.856   7.753   5.139
 9568TIP3    H228648   7.894   7.803   5.277
 9569TIP3   OH228649   6.443   0.615   1.862
 9569TIP3    H128650   6.500   0.557   1.811
 9569TIP3    H228651   6.427   0.689   1.803
 9570TIP3   OH228652   5.626   6.353   5.441
 9570TIP3    H128653   5.544   6.310   5.416
 9570TIP3    H228654   5.655   6.397   5.361
 9571TIP3   OH228655   0.256   4.519   0.115
 9571TIP3    H128656   0.334   4.558   0.075
 9571TIP3    H228657   0.265   4.425   0.099
 9572TIP3   OH228658   3.696   3.094   5.868
 9572TIP3    H128659   3.610   3.107   5.909
 9572TIP3    H228660   3.708   2.999   5.867
 9573TIP3   OH228661   6.296   1.621   1.227
 9573TIP3    H128662   6.301   1.713   1.251
 9573TIP3    H228663   6.330   1.617   1.138
 9574TIP3   OH228664   0.518   0.973   0.059
 9574TIP3    H128665   0.440   1.027   0.071
 9574TIP3    H228666   0.507   0.901   0.121
 9575TIP3   OH228667   6.113   3.497   6.452
 9575TIP3    H128668   6.190   3.551   6.434
 9575TIP3    H228669   6.121   3.473   6.544
 9576TIP3   OH228670   6.148   0.541   3.696
 9576TIP3    H128671   6.219   0.553   3.633
 9576TIP3    H228672   6.137   0.627   3.736
 9577TIP3   OH228673   5.716   0.209   0.921
 9577TIP3    H128674   5.668   0.223   1.003
 9577TIP3    H228675   5.736   0.115   0.921
 9578TIP3   OH228676   5.944   0.910   0.966
 9578TIP3    H128677   5.901   0.873   1.043
 9578TIP3    H228678   5.974   0.833   0.916
 9579TIP3   OH228679   5.119   2.255   0.913
 9579TIP3    H128680   5.136   2.288   0.825
 9579TIP3    H228681   5.192   2.290   0.965
 9580TIP3   OH228682   6.709   3.140   1.670
 9580TIP3    H128683   6.742   3.057   1.705
 9580TIP3    H228684   6.784   3.199   1.675
 9581TIP3   OH228685   4.907   5.311   2.532
 9581TIP3    H128686   4.986   5.339   2.579
 9581TIP3    H228687   4.926   5.331   2.440
 9582TIP3   OH228688   4.932   4.435   2.952
 9582TIP3    H128689   4.973   4.431   3.038
 9582TIP3    H228690   4.938   4.345   2.918
 9583TIP3   OH228691   5.670   2.144   1.322
 9583TIP3    H128692   5.687   2.235   1.346
 9583TIP3    H228693   5.633   2.150   1.234
 9584TIP3   OH228694   3.947   3.190   5.298
 9584TIP3    H128695   3.897   3.109   5.291
 9584TIP3    H228696   4.015   3.171   5.363
 9585TIP3   OH228697   6.699   6.877   5.952
 9585TIP3    H128698   6.779   6.912   5.913
 9585TIP3    H228699   6.650   6.954   5.980
 9586TIP3   OH228700   4.162  -0.042   0.976
 9586TIP3    H128701   4.127   0.045   0.998
 9586TIP3    H228702   4.248  -0.044   1.018
 9587TIP3   OH228703   0.560   5.990   5.123
 9587TIP3    H128704   0.474   5.984   5.164
 9587TIP3    H228705   0.547   6.049   5.050
 9588TIP3   OH228706   1.021   6.308   6.201
 9588TIP3    H128707   1.040   6.308   6.107
 9588TIP3    H228708   1.028   6.216   6.227
 9589TIP3   OH228709   2.806   3.939   3.566
 9589TIP3    H128710   2.876   3.900   3.618
 9589TIP3    H228711   2.830   3.921   3.475
 9590TIP3   OH228712   0.167   1.718   6.385
 9590TIP3    H128713   0.095   1.777   6.366
 9590TIP3    H228714   0.214   1.761   6.458
 9591TIP3   OH228715   6.729   2.520   2.960
 9591TIP3    H128716   6.676   2.596   2.936
 9591TIP3    H228717   6.719   2.511   3.055
 9592TIP3   OH228718   4.334   3.677   5.234
 9592TIP3    H128719   4.348   3.638   5.320
 9592TIP3    H228720   4.313   3.768   5.252
 9593TIP3   OH228721   1.352   6.502   5.203
 9593TIP3    H128722   1.381   6.415   5.230
 9593TIP3    H228723   1.257   6.496   5.199
 9594TIP3   OH228724   2.268   1.872   5.935
 9594TIP3    H128725   2.361   1.850   5.934
 9594TIP3    H228726   2.265   1.965   5.912
 9595TIP3   OH228727   6.705   6.004   2.053
 9595TIP3    H128728   6.731   5.988   2.143
 9595TIP3    H228729   6.766   6.073   2.023
 9596TIP3   OH228730   6.701   6.106   3.176
 9596TIP3    H128731   6.717   6.165   3.250
 9596TIP3    H228732   6.707   6.163   3.099
 9597TIP3   OH228733   1.272   1.006   6.036
 9597TIP3    H128734   1.271   1.101   6.020
 9597TIP3    H228735   1.347   0.974   5.985
 9598TIP3   OH228736   4.565   0.551   5.018
 9598TIP3    H128737   4.528   0.593   5.095
 9598TIP3    H228738   4.509   0.474   5.004
 9599TIP3   OH228739   2.969   3.364   3.025
 9599TIP3    H128740   2.910   3.297   2.990
 9599TIP3    H228741   2.953   3.441   2.971
 9600TIP3   OH228742   0.504   0.706   3.281
 9600TIP3    H128743   0.469   0.643   3.219
 9600TIP3    H228744   0.524   0.655   3.359
 9601TIP3   OH228745   2.326   2.481   4.869
 9601TIP3    H128746   2.405   2.484   4.816
 9601TIP3    H228747   2.330   2.558   4.925
 9602TIP3   OH228748   0.653   1.839   0.869
 9602TIP3    H128749   0.652   1.930   0.897
 9602TIP3    H228750   0.743   1.824   0.839
 9603TIP3   OH228751   6.879   7.552   2.028
 9603TIP3    H128752   6.873   7.625   1.967
 9603TIP3    H228753   6.961   7.567   2.075
 9604TIP3   OH228754   2.682   3.529   0.401
 9604TIP3    H128755   2.767   3.488   0.413
 9604TIP3    H228756   2.633   3.467   0.347
 9605TIP3   OH228757   5.394   5.253   4.788
 9605TIP3    H128758   5.420   5.175   4.739
 9605TIP3    H228759   5.417   5.233   4.879
 9606TIP3   OH228760   2.277   5.761   5.823
 9606TIP3    H128761   2.195   5.791   5.784
 9606TIP3    H228762   2.336   5.836   5.816
 9607TIP3   OH228763   1.969   4.194   3.676
 9607TIP3    H128764   1.899   4.252   3.707
 9607TIP3    H228765   2.050   4.237   3.703
 9608TIP3   OH228766   7.190   0.845   1.965
 9608TIP3    H128767   7.149   0.771   1.920
 9608TIP3    H228768   7.122   0.912   1.969
 9609TIP3   OH228769   5.322   3.014   4.346
 9609TIP3    H128770   5.277   3.038   4.427
 9609TIP3    H228771   5.329   2.918   4.350
 9610TIP3   OH228772   5.658   2.335   3.163
 9610TIP3    H128773   5.736   2.390   3.168
 9610TIP3    H228774   5.657   2.302   3.073
 9611TIP3   OH228775   4.126   5.300   6.626
 9611TIP3    H128776   4.212   5.302   6.583
 9611TIP3    H228777   4.135   5.234   6.695
 9612TIP3   OH228778   1.796   7.706   1.908
 9612TIP3    H128779   1.725   7.658   1.949
 9612TIP3    H228780   1.869   7.645   1.906
 9613TIP3   OH228781   7.799   1.118   0.803
 9613TIP3    H128782   7.802   1.197   0.856
 9613TIP3    H228783   7.890   1.087   0.800
 9614TIP3   OH228784   4.893   5.222   4.310
 9614TIP3    H128785   4.985   5.233   4.287
 9614TIP3    H228786   4.846   5.236   4.228
 9615TIP3   OH228787   0.239   6.123   3.138
 9615TIP3    H128788   0.306   6.170   3.089
 9615TIP3    H228789   0.275   6.115   3.227
 9616TIP3   OH228790   0.725   6.955   5.919
 9616TIP3    H128791   0.670   6.917   5.988
 9616TIP3    H228792   0.802   6.898   5.916
 9617TIP3   OH228793   5.776   0.970   3.468
 9617TIP3    H128794   5.777   0.884   3.508
 9617TIP3    H228795   5.737   1.028   3.533
 9618TIP3   OH228796   6.554   3.782   1.931
 9618TIP3    H128797   6.608   3.724   1.986
 9618TIP3    H228798   6.617   3.833   1.881
 9619TIP3   OH228799   7.479   4.238   6.741
 9619TIP3    H128800   7.459   4.332   6.748
 9619TIP3    H228801   7.420   4.205   6.673
 9620TIP3   OH228802   5.821   2.334   3.600
 9620TIP3    H128803   5.736   2.302   3.632
 9620TIP3    H228804   5.798   2.407   3.542
 9621TIP3   OH228805   5.820   1.679   3.270
 9621TIP3    H128806   5.822   1.619   3.344
 9621TIP3    H228807   5.909   1.676   3.234
 9622TIP3   OH228808   6.956   5.573   2.275
 9622TIP3    H128809   6.898   5.497   2.273
 9622TIP3    H228810   6.978   5.583   2.368
 9623TIP3   OH228811   1.334   3.833   3.167
 9623TIP3    H128812   1.275   3.758   3.155
 9623TIP3    H228813   1.372   3.847   3.080
 9624TIP3   OH228814   3.558   3.107   5.553
 9624TIP3    H128815   3.625   3.166   5.516
 9624TIP3    H228816   3.578   3.104   5.646
 9625TIP3   OH228817   1.460   2.435   0.943
 9625TIP3    H128818   1.519   2.457   1.016
 9625TIP3    H228819   1.507   2.367   0.894
 9626TIP3   OH228820   6.595   2.749   4.074
 9626TIP3    H128821   6.521   2.796   4.037
 9626TIP3    H228822   6.556   2.673   4.117
 9627TIP3   OH228823   6.479   2.095   3.489
 9627TIP3    H128824   6.390   2.069   3.467
 9627TIP3    H228825   6.487   2.075   3.583
 9628TIP3   OH228826   6.944  -0.029   0.220
 9628TIP3    H128827   6.978  -0.002   0.135
 9628TIP3    H228828   6.848  -0.023   0.211
 9629TIP3   OH228829   0.087   0.453   1.229
 9629TIP3    H128830   0.088   0.473   1.135
 9629TIP3    H228831   0.165   0.497   1.263
 9630TIP3   OH228832   0.976   6.137   1.147
 9630TIP3    H128833   0.987   6.209   1.210
 9630TIP3    H228834   0.926   6.071   1.195
 9631TIP3   OH228835   6.633   1.820   6.749
 9631TIP3    H128836   6.662   1.904   6.786
 9631TIP3    H228837   6.710   1.787   6.702
 9632TIP3   OH228838   2.901   6.696   2.503
 9632TIP3    H128839   2.945   6.617   2.535
 9632TIP3    H228840   2.849   6.666   2.428
 9633TIP3   OH228841   2.001   5.282   0.613
 9633TIP3    H128842   2.018   5.196   0.573
 9633TIP3    H228843   1.923   5.268   0.667
 9634TIP3   OH228844   3.751   4.247   5.442
 9634TIP3    H128845   3.751   4.206   5.356
 9634TIP3    H228846   3.764   4.340   5.425
 9635TIP3   OH228847   7.935   7.267   6.470
 9635TIP3    H128848   7.956   7.308   6.386
 9635TIP3    H228849   7.990   7.189   6.474
 9636TIP3   OH228850   3.073   4.099   4.536
 9636TIP3    H128851   2.984   4.076   4.563
 9636TIP3    H228852   3.082   4.064   4.447
 9637TIP3   OH228853   5.131   2.366   2.849
 9637TIP3    H128854   5.146   2.457   2.822
 9637TIP3    H228855   5.205   2.345   2.906
 9638TIP3   OH228856   3.467   0.618   0.894
 9638TIP3    H128857   3.534   0.686   0.878
 9638TIP3    H228858   3.386   0.657   0.860
 9639TIP3   OH228859   3.745   6.278   5.173
 9639TIP3    H128860   3.835   6.288   5.204
 9639TIP3    H228861   3.697   6.348   5.218
 9640TIP3   OH228862   1.102   7.228   5.666
 9640TIP3    H128863   1.139   7.310   5.700
 9640TIP3    H228864   1.009   7.233   5.687
 9641TIP3   OH228865   5.384   0.354   5.930
 9641TIP3    H128866   5.337   0.293   5.987
 9641TIP3    H228867   5.425   0.299   5.864
 9642TIP3   OH228868   2.373   3.411   5.608
 9642TIP3    H128869   2.333   3.397   5.522
 9642TIP3    H228870   2.385   3.506   5.614
 9643TIP3   OH228871   6.074   1.666   3.192
 9643TIP3    H128872   6.156   1.704   3.224
 9643TIP3    H228873   6.101   1.601   3.127
 9644TIP3   OH228874   6.717   1.544   6.186
 9644TIP3    H128875   6.735   1.451   6.200
 9644TIP3    H228876   6.699   1.552   6.093
 9645TIP3   OH228877   7.142   0.151   6.523
 9645TIP3    H128878   7.096   0.072   6.494
 9645TIP3    H228879   7.073   0.209   6.555
 9646TIP3   OH228880   2.356   7.591   5.243
 9646TIP3    H128881   2.364   7.578   5.148
 9646TIP3    H228882   2.429   7.649   5.266
 9647TIP3   OH228883   8.155   5.871   1.355
 9647TIP3    H128884   8.151   5.903   1.264
 9647TIP3    H228885   8.233   5.815   1.357
 9648TIP3   OH228886   4.487   0.678   4.290
 9648TIP3    H128887   4.418   0.637   4.239
 9648TIP3    H228888   4.566   0.669   4.236
 9649TIP3   OH228889   0.697   4.203   2.989
 9649TIP3    H128890   0.678   4.195   2.896
 9649TIP3    H228891   0.616   4.234   3.028
 9650TIP3   OH228892   5.095   4.733   6.245
 9650TIP3    H128893   5.054   4.682   6.314
 9650TIP3    H228894   5.069   4.689   6.164
 9651TIP3   OH228895   6.700   0.381   5.569
 9651TIP3    H128896   6.711   0.295   5.529
 9651TIP3    H228897   6.787   0.407   5.597
 9652TIP3   OH228898   3.233   6.968   0.008
 9652TIP3    H128899   3.187   6.908  -0.050
 9652TIP3    H228900   3.164   7.007   0.062
 9653TIP3   OH228901   4.944   4.380   5.164
 9653TIP3    H128902   4.858   4.382   5.205
 9653TIP3    H228903   4.926   4.375   5.070
 9654TIP3   OH228904   8.099   2.845   5.741
 9654TIP3    H128905   8.098   2.926   5.792
 9654TIP3    H228906   8.145   2.868   5.660
 9655TIP3   OH228907   2.003   7.623   4.562
 9655TIP3    H128908   1.928   7.565   4.555
 9655TIP3    H228909   1.974   7.705   4.523
 9656TIP3   OH228910   2.951   2.844   4.647
 9656TIP3    H128911   2.899   2.913   4.688
 9656TIP3    H228912   2.889   2.775   4.626
 9657TIP3   OH228913   4.510   2.688   1.053
 9657TIP3    H128914   4.587   2.646   1.014
 9657TIP3    H228915   4.542   2.728   1.133
 9658TIP3   OH228916   8.044   2.904   3.142
 9658TIP3    H128917   7.953   2.931   3.153
 9658TIP3    H228918   8.078   2.897   3.231
 9659TIP3   OH228919   1.044   6.074   4.811
 9659TIP3    H128920   1.065   6.153   4.760
 9659TIP3    H228921   1.123   6.020   4.804
 9660TIP3   OH228922   3.104   0.772   2.383
 9660TIP3    H128923   3.041   0.768   2.455
 9660TIP3    H228924   3.150   0.855   2.397
 9661TIP3   OH228925   1.415   1.102   1.216
 9661TIP3    H128926   1.487   1.041   1.200
 9661TIP3    H228927   1.427   1.131   1.306
 9662TIP3   OH228928   1.306   1.495   3.792
 9662TIP3    H128929   1.342   1.523   3.876
 9662TIP3    H228930   1.348   1.553   3.728
 9663TIP3   OH228931   3.722   3.643   5.867
 9663TIP3    H128932   3.632   3.617   5.881
 9663TIP3    H228933   3.773   3.563   5.880
 9664TIP3   OH228934   3.016   0.409   3.758
 9664TIP3    H128935   3.101   0.382   3.794
 9664TIP3    H228936   3.034   0.425   3.665
 9665TIP3   OH228937   0.110   1.304   4.325
 9665TIP3    H128938   0.102   1.333   4.234
 9665TIP3    H228939   0.149   1.378   4.371
 9666TIP3   OH228940   7.933   3.669   3.479
 9666TIP3    H128941   7.854   3.633   3.439
 9666TIP3    H228942   7.971   3.725   3.412
 9667TIP3   OH228943   4.670   2.362   2.209
 9667TIP3    H128944   4.665   2.304   2.134
 9667TIP3    H228945   4.722   2.314   2.273
 9668TIP3   OH228946   0.074   0.993   4.799
 9668TIP3    H128947   0.045   0.906   4.771
 9668TIP3    H228948   0.166   0.998   4.771
 9669TIP3   OH228949   6.528   7.430   6.326
 9669TIP3    H128950   6.589   7.359   6.306
 9669TIP3    H228951   6.442   7.388   6.329
 9670TIP3   OH228952   0.100   4.620   2.390
 9670TIP3    H128953   0.019   4.601   2.437
 9670TIP3    H228954   0.137   4.695   2.436
 9671TIP3   OH228955   3.751   4.606   3.558
 9671TIP3    H128956   3.810   4.603   3.632
 9671TIP3    H228957   3.787   4.674   3.501
 9672TIP3   OH228958   2.808   2.852   2.147
 9672TIP3    H128959   2.769   2.765   2.158
 9672TIP3    H228960   2.841   2.852   2.057
 9673TIP3   OH228961   5.160   1.751   2.800
 9673TIP3    H128962   5.094   1.791   2.855
 9673TIP3    H228963   5.243   1.785   2.833
 9674TIP3   OH228964   6.221   0.267   1.192
 9674TIP3    H128965   6.181   0.324   1.126
 9674TIP3    H228966   6.272   0.205   1.141
 9675TIP3   OH228967   2.935   1.158   5.465
 9675TIP3    H128968   3.028   1.138   5.455
 9675TIP3    H228969   2.913   1.128   5.553
 9676TIP3   OH228970   0.711   2.780   3.092
 9676TIP3    H128971   0.631   2.774   3.039
 9676TIP3    H228972   0.754   2.859   3.059
 9677TIP3   OH228973   7.353   7.759   1.600
 9677TIP3    H128974   7.298   7.791   1.672
 9677TIP3    H228975   7.337   7.665   1.597
 9678TIP3   OH228976   7.195   5.597   4.093
 9678TIP3    H128977   7.242   5.652   4.030
 9678TIP3    H228978   7.115   5.571   4.048
 9679TIP3   OH228979   2.256   1.308   4.063
 9679TIP3    H128980   2.284   1.399   4.061
 9679TIP3    H228981   2.216   1.293   3.977
 9680TIP3   OH228982   6.738   7.321   1.322
 9680TIP3    H128983   6.683   7.246   1.346
 9680TIP3    H228984   6.710   7.391   1.380
 9681TIP3   OH228985   3.521   0.771   5.201
 9681TIP3    H128986   3.457   0.737   5.263
 9681TIP3    H228987   3.469   0.811   5.132
 9682TIP3   OH228988   4.592   0.985   4.003
 9682TIP3    H128989   4.533   0.919   3.968
 9682TIP3    H228990   4.534   1.052   4.040
 9683TIP3   OH228991   7.920   4.726   0.846
 9683TIP3    H128992   7.899   4.714   0.938
 9683TIP3    H228993   7.843   4.771   0.809
 9684TIP3   OH228994   7.869   2.280   5.382
 9684TIP3    H128995   7.950   2.306   5.339
 9684TIP3    H228996   7.843   2.358   5.432
 9685TIP3   OH228997   3.490   1.105   5.858
 9685TIP3    H128998   3.580   1.076   5.869
 9685TIP3    H228999   3.497   1.200   5.846
 9686TIP3   OH229000   6.464   3.208   3.672
 9686TIP3    H129001   6.532   3.143   3.691
 9686TIP3    H229002   6.394   3.189   3.733
 9687TIP3   OH229003   1.669   6.947   4.209
 9687TIP3    H129004   1.603   7.004   4.248
 9687TIP3    H229005   1.624   6.865   4.193
 9688TIP3   OH229006  -0.009   1.782   2.218
 9688TIP3    H129007   0.034   1.808   2.299
 9688TIP3    H229008   0.057   1.796   2.150
 9689TIP3   OH229009   1.271   6.458   3.188
 9689TIP3    H129010   1.318   6.410   3.119
 9689TIP3    H229011   1.269   6.397   3.262
 9690TIP3   OH229012   0.433   4.382   6.685
 9690TIP3    H129013   0.359   4.443   6.677
 9690TIP3    H229014   0.403   4.316   6.747
 9691TIP3   OH229015   0.269   7.834   5.332
 9691TIP3    H129016   0.340   7.831   5.268
 9691TIP3    H229017   0.233   7.745   5.332
 9692TIP3   OH229018   2.897   1.080   0.358
 9692TIP3    H129019   2.970   1.018   0.351
 9692TIP3    H229020   2.842   1.043   0.428
 9693TIP3   OH229021   3.402   5.894   6.205
 9693TIP3    H129022   3.486   5.902   6.249
 9693TIP3    H229023   3.412   5.945   6.125
 9694TIP3   OH229024   4.987   1.362   3.098
 9694TIP3    H129025   5.043   1.299   3.143
 9694TIP3    H229026   4.968   1.429   3.163
 9695TIP3   OH229027   1.842   1.878   3.642
 9695TIP3    H129028   1.919   1.827   3.616
 9695TIP3    H229029   1.843   1.874   3.738
 9696TIP3   OH229030   1.429   5.373   4.333
 9696TIP3    H129031   1.423   5.449   4.390
 9696TIP3    H229032   1.455   5.408   4.248
 9697TIP3   OH229033   0.409   2.247   4.385
 9697TIP3    H129034   0.499   2.281   4.386
 9697TIP3    H229035   0.386   2.242   4.293
 9698TIP3   OH229036   4.263   4.699   4.376
 9698TIP3    H129037   4.286   4.729   4.464
 9698TIP3    H229038   4.167   4.698   4.376
 9699TIP3   OH229039   4.660   5.697   4.371
 9699TIP3    H129040   4.680   5.654   4.454
 9699TIP3    H229041   4.719   5.772   4.369
 9700TIP3   OH229042   2.727   5.918   6.266
 9700TIP3    H129043   2.677   5.913   6.184
 9700TIP3    H229044   2.768   6.004   6.264
 9701TIP3   OH229045   2.071   6.992   1.100
 9701TIP3    H129046   2.024   6.967   1.021
 9701TIP3    H229047   2.006   7.039   1.153
 9702TIP3   OH229048   5.745   7.003   4.670
 9702TIP3    H129049   5.701   7.002   4.585
 9702TIP3    H229050   5.677   6.979   4.733
 9703TIP3   OH229051   7.030   1.881   6.377
 9703TIP3    H129052   7.119   1.878   6.342
 9703TIP3    H229053   7.005   1.790   6.388
 9704TIP3   OH229054   3.301   1.519   3.911
 9704TIP3    H129055   3.327   1.431   3.882
 9704TIP3    H229056   3.222   1.505   3.963
 9705TIP3   OH229057   5.214   5.320   3.280
 9705TIP3    H129058   5.134   5.358   3.245
 9705TIP3    H229059   5.231   5.244   3.225
 9706TIP3   OH229060   3.367   7.542   6.357
 9706TIP3    H129061   3.365   7.505   6.269
 9706TIP3    H229062   3.287   7.512   6.398
 9707TIP3   OH229063   0.193   6.928   6.334
 9707TIP3    H129064   0.145   6.900   6.256
 9707TIP3    H229065   0.126   6.957   6.395
 9708TIP3   OH229066   0.065   1.734   6.660
 9708TIP3    H129067   0.004   1.768   6.594
 9708TIP3    H229068   0.139   1.795   6.658
 9709TIP3   OH229069   7.061   0.492   3.084
 9709TIP3    H129070   6.976   0.528   3.058
 9709TIP3    H229071   7.041   0.438   3.161
 9710TIP3   OH229072   3.248   2.325   4.666
 9710TIP3    H129073   3.327   2.318   4.612
 9710TIP3    H229074   3.213   2.236   4.669
 9711TIP3   OH229075   2.373   5.818   2.176
 9711TIP3    H129076   2.454   5.786   2.216
 9711TIP3    H229077   2.384   5.913   2.174
 9712TIP3   OH229078   7.677   0.748   0.843
 9712TIP3    H129079   7.655   0.749   0.936
 9712TIP3    H229080   7.766   0.713   0.840
 9713TIP3   OH229081   6.873   3.885   5.423
 9713TIP3    H129082   6.848   3.794   5.439
 9713TIP3    H229083   6.883   3.891   5.328
 9714TIP3   OH229084   1.599   3.706   2.605
 9714TIP3    H129085   1.621   3.783   2.657
 9714TIP3    H229086   1.519   3.672   2.645
 9715TIP3   OH229087   0.614   7.076   6.295
 9715TIP3    H129088   0.591   7.019   6.369
 9715TIP3    H229089   0.677   7.026   6.244
 9716TIP3   OH229090   3.505   7.606   1.047
 9716TIP3    H129091   3.430   7.665   1.035
 9716TIP3    H229092   3.474   7.521   1.016
 9717TIP3   OH229093   7.080   3.629   1.256
 9717TIP3    H129094   7.162   3.627   1.207
 9717TIP3    H229095   7.015   3.662   1.194
 9718TIP3   OH229096   5.404   5.630   2.077
 9718TIP3    H129097   5.312   5.653   2.061
 9718TIP3    H229098   5.428   5.578   2.001
 9719TIP3   OH229099   7.340   6.029   1.063
 9719TIP3    H129100   7.345   6.102   1.002
 9719TIP3    H229101   7.430   5.996   1.068
 9720TIP3   OH229102   7.935   3.723   5.567
 9720TIP3    H129103   7.863   3.786   5.556
 9720TIP3    H229104   8.009   3.777   5.594
 9721TIP3   OH229105   0.429   3.916   6.634
 9721TIP3    H129106   0.406   3.934   6.543
 9721TIP3    H229107   0.477   3.833   6.630
 9722TIP3   OH229108   1.245   1.562   6.290
 9722TIP3    H129109   1.162   1.597   6.258
 9722TIP3    H229110   1.296   1.639   6.314
 9723TIP3   OH229111   6.119   0.083   5.896
 9723TIP3    H129112   6.046   0.130   5.936
 9723TIP3    H229113   6.091  -0.008   5.896
 9724TIP3   OH229114   4.849   3.775   1.813
 9724TIP3    H129115   4.843   3.751   1.905
 9724TIP3    H229116   4.821   3.867   1.810
 9725TIP3   OH229117   4.622   0.598   0.393
 9725TIP3    H129118   4.705   0.587   0.346
 9725TIP3    H229119   4.567   0.646   0.332
 9726TIP3   OH229120   4.188   5.736   1.717
 9726TIP3    H129121   4.263   5.792   1.698
 9726TIP3    H229122   4.151   5.772   1.797
 9727TIP3   OH229123   0.699   1.248   3.542
 9727TIP3    H129124   0.770   1.253   3.605
 9727TIP3    H229125   0.677   1.339   3.523
 9728TIP3   OH229126   0.899   0.321   5.085
 9728TIP3    H129127   0.911   0.414   5.103
 9728TIP3    H229128   0.987   0.289   5.064
 9729TIP3   OH229129   2.857   4.698   5.052
 9729TIP3    H129130   2.843   4.735   4.965
 9729TIP3    H229131   2.782   4.642   5.067
 9730TIP3   OH229132   3.696   7.076   5.600
 9730TIP3    H129133   3.602   7.062   5.597
 9730TIP3    H229134   3.733   6.997   5.559
 9731TIP3   OH229135   7.437   1.675   5.951
 9731TIP3    H129136   7.421   1.756   5.999
 9731TIP3    H229137   7.361   1.666   5.893
 9732TIP3   OH229138   5.935   5.992   1.796
 9732TIP3    H129139   6.027   6.010   1.815
 9732TIP3    H229140   5.907   5.933   1.866
 9733TIP3   OH229141   2.319   3.288   1.248
 9733TIP3    H129142   2.233   3.294   1.289
 9733TIP3    H229143   2.377   3.337   1.305
 9734TIP3   OH229144   8.041   2.414   0.758
 9734TIP3    H129145   8.133   2.417   0.784
 9734TIP3    H229146   8.039   2.357   0.681
 9735TIP3   OH229147   6.979   2.992   0.040
 9735TIP3    H129148   7.063   2.991   0.084
 9735TIP3    H229149   6.932   3.066   0.078
 9736TIP3   OH229150   2.603   4.081   3.710
 9736TIP3    H129151   2.669   4.054   3.646
 9736TIP3    H229152   2.617   4.175   3.719
 9737TIP3   OH229153   0.551   4.260   0.588
 9737TIP3    H129154   0.529   4.214   0.507
 9737TIP3    H229155   0.613   4.328   0.561
 9738TIP3   OH229156   0.477   0.564   5.044
 9738TIP3    H129157   0.546   0.554   4.979
 9738TIP3    H229158   0.467   0.659   5.055
 9739TIP3   OH229159   3.346   0.233   5.980
 9739TIP3    H129160   3.267   0.257   6.029
 9739TIP3    H229161   3.399   0.313   5.979
 9740TIP3   OH229162   0.851   1.931   3.615
 9740TIP3    H129163   0.817   1.891   3.695
 9740TIP3    H229164   0.905   2.004   3.646
 9741TIP3   OH229165   1.300   6.116   4.673
 9741TIP3    H129166   1.382   6.149   4.710
 9741TIP3    H229167   1.292   6.028   4.710
 9742TIP3   OH229168   1.181   5.910   3.904
 9742TIP3    H129169   1.121   5.981   3.927
 9742TIP3    H229170   1.267   5.953   3.897
 9743TIP3   OH229171   0.994   0.422   5.940
 9743TIP3    H129172   0.936   0.377   6.002
 9743TIP3    H229173   0.978   0.515   5.955
 9744TIP3   OH229174   4.229   0.835   3.451
 9744TIP3    H129175   4.309   0.877   3.419
 9744TIP3    H229176   4.172   0.829   3.375
 9745TIP3   OH229177   0.490   0.509   3.093
 9745TIP3    H129178   0.449   0.430   3.129
 9745TIP3    H229179   0.571   0.477   3.053
 9746TIP3   OH229180   6.735   0.756   5.487
 9746TIP3    H129181   6.742   0.706   5.405
 9746TIP3    H229182   6.825   0.781   5.507
 9747TIP3   OH229183   7.489   0.320   0.257
 9747TIP3    H129184   7.419   0.385   0.250
 9747TIP3    H229185   7.448   0.238   0.229
 9748TIP3   OH229186   3.485   4.156   5.555
 9748TIP3    H129187   3.510   4.131   5.644
 9748TIP3    H229188   3.566   4.151   5.505
 9749TIP3   OH229189   5.920   0.306   4.470
 9749TIP3    H129190   5.847   0.326   4.528
 9749TIP3    H229191   5.945   0.216   4.494
 9750TIP3   OH229192   0.514   2.972   2.985
 9750TIP3    H129193   0.603   3.005   2.975
 9750TIP3    H229194   0.511   2.894   2.929
 9751TIP3   OH229195   0.255   5.562   3.967
 9751TIP3    H129196   0.187   5.494   3.968
 9751TIP3    H229197   0.208   5.643   3.986
 9752TIP3   OH229198   7.903   4.752   4.311
 9752TIP3    H129199   7.924   4.744   4.218
 9752TIP3    H229200   7.833   4.688   4.325
 9753TIP3   OH229201   3.505   6.616   6.047
 9753TIP3    H129202   3.474   6.616   5.957
 9753TIP3    H229203   3.439   6.565   6.095
 9754TIP3   OH229204   0.094   4.390   6.420
 9754TIP3    H129205   0.133   4.317   6.373
 9754TIP3    H229206   0.163   4.422   6.479
 9755TIP3   OH229207   0.551   1.226   3.854
 9755TIP3    H129208   0.605   1.220   3.933
 9755TIP3    H229209   0.576   1.150   3.802
 9756TIP3   OH229210   3.952   3.582   2.921
 9756TIP3    H129211   3.888   3.511   2.918
 9756TIP3    H229212   3.953   3.618   2.832
 9757TIP3   OH229213   6.308   5.240   3.216
 9757TIP3    H129214   6.389   5.196   3.243
 9757TIP3    H229215   6.337   5.306   3.153
 9758TIP3   OH229216   4.834   1.677   4.308
 9758TIP3    H129217   4.761   1.625   4.275
 9758TIP3    H229218   4.877   1.619   4.371
 9759TIP3   OH229219   2.969   4.798   4.008
 9759TIP3    H129220   2.934   4.709   4.010
 9759TIP3    H229221   3.008   4.806   3.921
 9760TIP3   OH229222   5.404   7.496   2.908
 9760TIP3    H129223   5.331   7.444   2.941
 9760TIP3    H229224   5.421   7.560   2.978
 9761TIP3   OH229225   0.699   1.672   1.387
 9761TIP3    H129226   0.693   1.708   1.299
 9761TIP3    H229227   0.792   1.657   1.402
 9762TIP3   OH229228   6.999   7.275   4.079
 9762TIP3    H129229   7.009   7.184   4.106
 9762TIP3    H229230   6.966   7.320   4.158
 9763TIP3   OH229231   2.691   5.581   0.887
 9763TIP3    H129232   2.723   5.667   0.911
 9763TIP3    H229233   2.770   5.530   0.867
 9764TIP3   OH229234   4.423   4.113   4.771
 9764TIP3    H129235   4.462   4.032   4.805
 9764TIP3    H229236   4.414   4.096   4.677
 9765TIP3   OH229237   1.420   7.383   4.570
 9765TIP3    H129238   1.390   7.299   4.535
 9765TIP3    H229239   1.446   7.433   4.492
 9766TIP3   OH229240   5.924   4.325   2.551
 9766TIP3    H129241   5.833   4.344   2.527
 9766TIP3    H229242   5.949   4.398   2.607
 9767TIP3   OH229243   7.030   6.740   2.739
 9767TIP3    H129244   7.105   6.680   2.735
 9767TIP3    H229245   7.022   6.762   2.832
 9768TIP3   OH229246   2.578   3.398   2.849
 9768TIP3    H129247   2.528   3.381   2.929
 9768TIP3    H229248   2.577   3.315   2.801
 9769TIP3   OH229249   2.170   7.152   1.790
 9769TIP3    H129250   2.244   7.112   1.836
 9769TIP3    H229251   2.176   7.245   1.812
 9770TIP3   OH229252   5.866   4.260   6.026
 9770TIP3    H129253   5.883   4.354   6.037
 9770TIP3    H229254   5.779   4.247   6.065
 9771TIP3   OH229255   0.443   5.434   5.652
 9771TIP3    H129256   0.509   5.423   5.721
 9771TIP3    H229257   0.494   5.432   5.571
 9772TIP3   OH229258   2.388   4.680   6.358
 9772TIP3    H129259   2.472   4.711   6.392
 9772TIP3    H229260   2.380   4.590   6.389
 9773TIP3   OH229261   2.353   0.529   4.800
 9773TIP3    H129262   2.377   0.594   4.866
 9773TIP3    H229263   2.436   0.503   4.760
 9774TIP3   OH229264   0.444   6.428   5.539
 9774TIP3    H129265   0.516   6.448   5.479
 9774TIP3    H229266   0.428   6.510   5.586
 9775TIP3   OH229267   1.073   4.808   0.481
 9775TIP3    H129268   1.114   4.855   0.554
 9775TIP3    H229269   1.144   4.793   0.419
 9776TIP3   OH229270   2.675   1.080   3.501
 9776TIP3    H129271   2.726   1.160   3.515
 9776TIP3    H229272   2.585   1.105   3.520
 9777TIP3   OH229273   1.816   6.137   3.369
 9777TIP3    H129274   1.883   6.110   3.306
 9777TIP3    H229275   1.733   6.116   3.325
 9778TIP3   OH229276   3.905   4.838   0.202
 9778TIP3    H129277   3.834   4.901   0.207
 9778TIP3    H229278   3.969   4.868   0.266
 9779TIP3   OH229279   6.266   0.972   2.643
 9779TIP3    H129280   6.332   0.958   2.711
 9779TIP3    H229281   6.316   0.993   2.565
 9780TIP3   OH229282   3.065   4.956   2.311
 9780TIP3    H129283   3.076   4.984   2.221
 9780TIP3    H229284   3.073   5.036   2.363
 9781TIP3   OH229285   1.469   4.820   5.787
 9781TIP3    H129286   1.556   4.783   5.805
 9781TIP3    H229287   1.408   4.759   5.826
 9782TIP3   OH229288   5.736   2.770   0.962
 9782TIP3    H129289   5.682   2.832   0.914
 9782TIP3    H229290   5.798   2.736   0.898
 9783TIP3   OH229291   4.651   1.619   0.562
 9783TIP3    H129292   4.631   1.590   0.473
 9783TIP3    H229293   4.702   1.548   0.600
 9784TIP3   OH229294   0.830   5.191   1.976
 9784TIP3    H129295   0.793   5.134   1.908
 9784TIP3    H229296   0.850   5.132   2.048
 9785TIP3   OH229297   5.377   2.928   3.866
 9785TIP3    H129298   5.376   2.858   3.800
 9785TIP3    H229299   5.286   2.955   3.874
 9786TIP3   OH229300   6.161   0.621   6.256
 9786TIP3    H129301   6.071   0.594   6.238
 9786TIP3    H229302   6.204   0.543   6.289
 9787TIP3   OH229303   4.069   0.932   1.383
 9787TIP3    H129304   4.114   1.013   1.360
 9787TIP3    H229305   4.135   0.880   1.428
 9788TIP3   OH229306   2.447   2.426   0.680
 9788TIP3    H129307   2.382   2.443   0.748
 9788TIP3    H229308   2.470   2.513   0.648
 9789TIP3   OH229309   1.889   2.143   3.580
 9789TIP3    H129310   1.872   2.071   3.640
 9789TIP3    H229311   1.960   2.112   3.524
 9790TIP3   OH229312   3.216   0.216   5.477
 9790TIP3    H129313   3.176   0.301   5.457
 9790TIP3    H229314   3.156   0.152   5.438
 9791TIP3   OH229315   0.268   1.126   6.140
 9791TIP3    H129316   0.186   1.110   6.093
 9791TIP3    H229317   0.293   1.215   6.116
 9792TIP3   OH229318   2.794   3.162   5.913
 9792TIP3    H129319   2.886   3.176   5.890
 9792TIP3    H229320   2.745   3.217   5.852
 9793TIP3   OH229321   5.897   7.530   6.688
 9793TIP3    H129322   5.937   7.463   6.743
 9793TIP3    H229323   5.921   7.613   6.729
 9794TIP3   OH229324   3.245   4.907   3.703
 9794TIP3    H129325   3.278   4.863   3.781
 9794TIP3    H229326   3.215   4.992   3.734
 9795TIP3   OH229327   3.626   5.495   3.391
 9795TIP3    H129328   3.566   5.553   3.344
 9795TIP3    H229329   3.614   5.517   3.483
 9796TIP3   OH229330   1.459   7.813   0.670
 9796TIP3    H129331   1.387   7.789   0.611
 9796TIP3    H229332   1.416   7.831   0.754
 9797TIP3   OH229333   1.348   4.204   3.949
 9797TIP3    H129334   1.293   4.192   3.872
 9797TIP3    H229335   1.414   4.269   3.922
 9798TIP3   OH229336   6.102   6.150   2.480
 9798TIP3    H129337   6.173   6.112   2.428
 9798TIP3    H229338   6.139   6.229   2.518
 9799TIP3   OH229339   7.529   0.617   1.996
 9799TIP3    H129340   7.539   0.712   1.996
 9799TIP3    H229341   7.496   0.596   2.083
 9800TIP3   OH229342   7.470   4.152   3.225
 9800TIP3    H129343   7.533   4.097   3.178
 9800TIP3    H229344   7.422   4.199   3.157
 9801TIP3   OH229345   1.043   6.624   1.356
 9801TIP3    H129346   1.119   6.565   1.358
 9801TIP3    H229347   1.055   6.676   1.276
 9802TIP3   OH229348   7.006   1.263   1.611
 9802TIP3    H129349   6.951   1.264   1.690
 9802TIP3    H229350   6.977   1.340   1.561
 9803TIP3   OH229351   8.265   1.424   5.513
 9803TIP3    H129352   8.215   1.344   5.493
 9803TIP3    H229353   8.201   1.481   5.555
 9804TIP3   OH229354   7.795   4.898   5.373
 9804TIP3    H129355   7.778   4.965   5.307
 9804TIP3    H229356   7.841   4.944   5.443
 9805TIP3   OH229357   1.006   2.774   5.382
 9805TIP3    H129358   1.035   2.718   5.311
 9805TIP3    H229359   1.086   2.809   5.419
 9806TIP3   OH229360   6.236   5.958   0.988
 9806TIP3    H129361   6.177   5.966   1.063
 9806TIP3    H229362   6.202   6.020   0.924
 9807TIP3   OH229363   5.256   0.875   5.106
 9807TIP3    H129364   5.167   0.889   5.073
 9807TIP3    H229365   5.283   0.961   5.139
 9808TIP3   OH229366   0.002   7.637   3.376
 9808TIP3    H129367   0.052   7.700   3.324
 9808TIP3    H229368   0.059   7.561   3.383
 9809TIP3   OH229369   4.150   3.602   0.933
 9809TIP3    H129370   4.138   3.677   0.875
 9809TIP3    H229371   4.074   3.547   0.917
 9810TIP3   OH229372   0.761   3.349   4.541
 9810TIP3    H129373   0.852   3.361   4.513
 9810TIP3    H229374   0.768   3.300   4.623
 9811TIP3   OH229375   1.241   5.820   2.127
 9811TIP3    H129376   1.179   5.893   2.119
 9811TIP3    H229377   1.217   5.761   2.055
 9812TIP3   OH229378   6.439   6.142   4.032
 9812TIP3    H129379   6.344   6.134   4.033
 9812TIP3    H229380   6.462   6.173   4.120
 9813TIP3   OH229381   6.311   5.619   5.505
 9813TIP3    H129382   6.345   5.531   5.521
 9813TIP3    H229383   6.246   5.633   5.574
 9814TIP3   OH229384   7.376   5.200   0.433
 9814TIP3    H129385   7.317   5.151   0.376
 9814TIP3    H229386   7.464   5.175   0.404
 9815TIP3   OH229387   0.219   4.815   5.917
 9815TIP3    H129388   0.304   4.849   5.889
 9815TIP3    H229389   0.156   4.877   5.882
 9816TIP3   OH229390   7.314   5.742   0.965
 9816TIP3    H129391   7.250   5.671   0.971
 9816TIP3    H229392   7.304   5.790   1.047
 9817TIP3   OH229393   6.090   7.143   1.798
 9817TIP3    H129394   6.032   7.111   1.867
 9817TIP3    H229395   6.032   7.194   1.741
 9818TIP3   OH229396   4.127   4.325   4.008
 9818TIP3    H129397   4.156   4.411   4.039
 9818TIP3    H229398   4.065   4.345   3.938
 9819TIP3   OH229399   0.116   2.040   5.649
 9819TIP3    H129400   0.166   2.018   5.570
 9819TIP3    H229401   0.033   1.994   5.638
 9820TIP3   OH229402   4.358   7.295   4.368
 9820TIP3    H129403   4.269   7.278   4.398
 9820TIP3    H229404   4.369   7.237   4.292
 9821TIP3   OH229405   5.650   2.641   4.033
 9821TIP3    H129406   5.674   2.574   3.970
 9821TIP3    H229407   5.657   2.598   4.118
 9822TIP3   OH229408   0.572   6.048   6.105
 9822TIP3    H129409   0.569   5.970   6.050
 9822TIP3    H229410   0.603   6.117   6.047
 9823TIP3   OH229411   2.301   5.193   6.421
 9823TIP3    H129412   2.364   5.126   6.397
 9823TIP3    H229413   2.216   5.156   6.396
 9824TIP3   OH229414   5.729   4.061   3.975
 9824TIP3    H129415   5.640   4.075   4.008
 9824TIP3    H229416   5.739   4.127   3.906
 9825TIP3   OH229417   5.785   0.888   3.919
 9825TIP3    H129418   5.802   0.918   3.830
 9825TIP3    H229419   5.861   0.915   3.969
 9826TIP3   OH229420   2.615   5.401   4.365
 9826TIP3    H129421   2.600   5.495   4.355
 9826TIP3    H229422   2.708   5.389   4.346
 9827TIP3   OH229423   1.656   3.364   0.269
 9827TIP3    H129424   1.568   3.376   0.233
 9827TIP3    H229425   1.681   3.451   0.301
 9828TIP3   OH229426   1.295   4.845   5.244
 9828TIP3    H129427   1.321   4.857   5.335
 9828TIP3    H229428   1.201   4.825   5.248
 9829TIP3   OH229429   3.106   6.954   6.647
 9829TIP3    H129430   3.096   7.000   6.731
 9829TIP3    H229431   3.085   7.019   6.581
 9830TIP3   OH229432   2.693   5.671   6.423
 9830TIP3    H129433   2.721   5.741   6.365
 9830TIP3    H229434   2.686   5.594   6.366
 9831TIP3   OH229435   7.474   5.893   0.682
 9831TIP3    H129436   7.400   5.832   0.686
 9831TIP3    H229437   7.463   5.939   0.599
 9832TIP3   OH229438   1.330   6.372   2.672
 9832TIP3    H129439   1.419   6.384   2.637
 9832TIP3    H229440   1.272   6.391   2.598
 9833TIP3   OH229441   4.354   1.806   6.266
 9833TIP3    H129442   4.387   1.773   6.350
 9833TIP3    H229443   4.376   1.899   6.267
 9834TIP3   OH229444   3.090   7.178   3.946
 9834TIP3    H129445   3.131   7.153   4.029
 9834TIP3    H229446   2.998   7.193   3.969
 9835TIP3   OH229447   7.343   4.825   3.630
 9835TIP3    H129448   7.331   4.839   3.724
 9835TIP3    H229449   7.420   4.878   3.607
 9836TIP3   OH229450   8.181   2.255   1.416
 9836TIP3    H129451   8.100   2.282   1.460
 9836TIP3    H229452   8.179   2.299   1.332
 9837TIP3   OH229453   1.596   1.095   6.203
 9837TIP3    H129454   1.509   1.134   6.205
 9837TIP3    H229455   1.622   1.099   6.111
 9838TIP3   OH229456   1.318   6.532   1.377
 9838TIP3    H129457   1.300   6.445   1.343
 9838TIP3    H229458   1.379   6.571   1.314
 9839TIP3   OH229459   6.538   4.818   2.978
 9839TIP3    H129460   6.619   4.867   2.964
 9839TIP3    H229461   6.565   4.727   2.982
 9840TIP3   OH229462   3.607   6.958   1.687
 9840TIP3    H129463   3.584   6.993   1.773
 9840TIP3    H229464   3.536   6.987   1.630
 9841TIP3   OH229465   1.723   2.686   3.347
 9841TIP3    H129466   1.709   2.694   3.442
 9841TIP3    H229467   1.651   2.632   3.317
 9842TIP3   OH229468   1.714   3.006   0.821
 9842TIP3    H129469   1.621   3.001   0.843
 9842TIP3    H229470   1.752   2.930   0.865
 9843TIP3   OH229471   5.051   0.456   0.211
 9843TIP3    H129472   5.022   0.533   0.163
 9843TIP3    H229473   4.980   0.393   0.200
 9844TIP3   OH229474   5.560   6.311   1.604
 9844TIP3    H129475   5.652   6.291   1.624
 9844TIP3    H229476   5.564   6.368   1.527
 9845TIP3   OH229477   2.740   1.275   0.234
 9845TIP3    H129478   2.776   1.196   0.274
 9845TIP3    H229479   2.715   1.331   0.308
 9846TIP3   OH229480   3.953   2.454   1.632
 9846TIP3    H129481   3.861   2.470   1.655
 9846TIP3    H229482   4.003   2.514   1.688
 9847TIP3   OH229483   1.303   2.317   0.318
 9847TIP3    H129484   1.396   2.310   0.339
 9847TIP3    H229485   1.259   2.267   0.386
 9848TIP3   OH229486   0.922   6.799   4.824
 9848TIP3    H129487   0.984   6.735   4.860
 9848TIP3    H229488   0.925   6.784   4.730
 9849TIP3   OH229489   5.945   5.576   0.711
 9849TIP3    H129490   5.875   5.563   0.775
 9849TIP3    H229491   5.976   5.487   0.692
 9850TIP3   OH229492   6.645   7.297   5.145
 9850TIP3    H129493   6.575   7.359   5.166
 9850TIP3    H229494   6.602   7.227   5.098
 9851TIP3   OH229495   4.567   3.442   6.750
 9851TIP3    H129496   4.616   3.457   6.669
 9851TIP3    H229497   4.597   3.510   6.810
 9852TIP3   OH229498   1.256   6.359   4.046
 9852TIP3    H129499   1.239   6.453   4.056
 9852TIP3    H229500   1.344   6.355   4.007
 9853TIP3   OH229501   6.065   0.180   6.488
 9853TIP3    H129502   6.134   0.199   6.552
 9853TIP3    H229503   6.112   0.141   6.414
 9854TIP3   OH229504   1.083   0.635   0.349
 9854TIP3    H129505   1.151   0.572   0.323
 9854TIP3    H229506   1.039   0.593   0.423
 9855TIP3   OH229507   0.633   5.438   4.625
 9855TIP3    H129508   0.555   5.404   4.669
 9855TIP3    H229509   0.700   5.372   4.642
 9856TIP3   OH229510   6.243   3.363   1.039
 9856TIP3    H129511   6.300   3.350   1.115
 9856TIP3    H229512   6.303   3.381   0.967
 9857TIP3   OH229513   5.609   1.778   2.710
 9857TIP3    H129514   5.703   1.764   2.716
 9857TIP3    H229515   5.580   1.719   2.641
 9858TIP3   OH229516   7.804   6.324   6.701
 9858TIP3    H129517   7.738   6.388   6.728
 9858TIP3    H229518   7.886   6.374   6.702
 9859TIP3   OH229519   6.442   5.814   1.323
 9859TIP3    H129520   6.494   5.784   1.397
 9859TIP3    H229521   6.440   5.909   1.332
 9860TIP3   OH229522   3.401   3.632   2.295
 9860TIP3    H129523   3.381   3.717   2.256
 9860TIP3    H229524   3.465   3.592   2.235
 9861TIP3   OH229525   4.971   3.027   3.978
 9861TIP3    H129526   5.007   3.087   3.912
 9861TIP3    H229527   4.879   3.018   3.954
 9862TIP3   OH229528   0.437   5.160   5.435
 9862TIP3    H129529   0.379   5.099   5.481
 9862TIP3    H229530   0.523   5.118   5.438
 9863TIP3   OH229531   7.686   2.593   4.867
 9863TIP3    H129532   7.765   2.628   4.910
 9863TIP3    H229533   7.637   2.670   4.840
 9864TIP3   OH229534   6.880   0.139   1.380
 9864TIP3    H129535   6.954   0.178   1.427
 9864TIP3    H229536   6.872   0.051   1.417
 9865TIP3   OH229537   2.690   1.566   2.401
 9865TIP3    H129538   2.645   1.490   2.364
 9865TIP3    H229539   2.662   1.639   2.345
 9866TIP3   OH229540   5.693   7.132   0.897
 9866TIP3    H129541   5.638   7.190   0.950
 9866TIP3    H229542   5.673   7.045   0.930
 9867TIP3   OH229543   6.647   6.673   6.705
 9867TIP3    H129544   6.589   6.730   6.655
 9867TIP3    H229545   6.722   6.729   6.727
 9868TIP3   OH229546   2.667   4.920   3.541
 9868TIP3    H129547   2.663   4.994   3.601
 9868TIP3    H229548   2.757   4.922   3.506
 9869TIP3   OH229549   3.035   1.598   5.844
 9869TIP3    H129550   3.100   1.549   5.794
 9869TIP3    H229551   2.992   1.653   5.779
 9870TIP3   OH229552   3.590   7.562   1.517
 9870TIP3    H129553   3.608   7.585   1.425
 9870TIP3    H229554   3.598   7.467   1.519
 9871TIP3   OH229555   1.551   2.163   2.276
 9871TIP3    H129556   1.583   2.178   2.187
 9871TIP3    H229557   1.456   2.158   2.267
 9872TIP3   OH229558   5.714   2.567   3.493
 9872TIP3    H129559   5.638   2.566   3.552
 9872TIP3    H229560   5.677   2.588   3.407
 9873TIP3   OH229561   2.864   7.306   5.331
 9873TIP3    H129562   2.775   7.274   5.344
 9873TIP3    H229563   2.912   7.231   5.295
 9874TIP3   OH229564   6.151   0.705   5.920
 9874TIP3    H129565   6.061   0.732   5.904
 9874TIP3    H229566   6.154   0.686   6.014
 9875TIP3   OH229567   6.911   1.629   6.362
 9875TIP3    H129568   6.991   1.600   6.319
 9875TIP3    H229569   6.841   1.598   6.304
 9876TIP3   OH229570   3.210   1.794   5.356
 9876TIP3    H129571   3.133   1.740   5.338
 9876TIP3    H229572   3.174   1.881   5.373
 9877TIP3   OH229573   4.805   4.045   1.069
 9877TIP3    H129574   4.788   4.126   1.118
 9877TIP3    H229575   4.746   3.981   1.108
 9878TIP3   OH229576   6.691   2.121   3.031
 9878TIP3    H129577   6.735   2.077   2.958
 9878TIP3    H229578   6.757   2.182   3.066
 9879TIP3   OH229579   3.690   2.530   1.634
 9879TIP3    H129580   3.687   2.447   1.586
 9879TIP3    H229581   3.654   2.594   1.573
 9880TIP3   OH229582   6.405   3.528   6.182
 9880TIP3    H129583   6.402   3.549   6.276
 9880TIP3    H229584   6.342   3.589   6.142
 9881TIP3   OH229585   7.869   3.266   1.672
 9881TIP3    H129586   7.856   3.358   1.652
 9881TIP3    H229587   7.872   3.263   1.768
 9882TIP3   OH229588   5.219   5.020   0.205
 9882TIP3    H129589   5.246   5.093   0.150
 9882TIP3    H229590   5.294   5.003   0.262
 9883TIP3   OH229591   6.752   0.088   2.642
 9883TIP3    H129592   6.810   0.012   2.648
 9883TIP3    H229593   6.725   0.089   2.550
 9884TIP3   OH229594   4.875   0.362   5.781
 9884TIP3    H129595   4.891   0.414   5.702
 9884TIP3    H229596   4.960   0.322   5.800
 9885TIP3   OH229597   0.423   5.934   6.580
 9885TIP3    H129598   0.339   5.975   6.559
 9885TIP3    H229599   0.465   5.996   6.639
 9886TIP3   OH229600   6.102   5.807   1.455
 9886TIP3    H129601   6.144   5.835   1.535
 9886TIP3    H229602   6.137   5.719   1.438
 9887TIP3   OH229603   3.029   0.131   1.586
 9887TIP3    H129604   3.051   0.044   1.619
 9887TIP3    H229605   3.017   0.118   1.491
 9888TIP3   OH229606   2.112   5.497   2.450
 9888TIP3    H129607   2.115   5.587   2.417
 9888TIP3    H229608   2.204   5.475   2.468
 9889TIP3   OH229609   0.878   1.303   6.583
 9889TIP3    H129610   0.870   1.251   6.503
 9889TIP3    H229611   0.934   1.250   6.640
 9890TIP3   OH229612   7.745   0.579   0.077
 9890TIP3    H129613   7.768   0.489   0.099
 9890TIP3    H229614   7.736   0.623   0.161
 9891TIP3   OH229615   0.837   2.719   2.092
 9891TIP3    H129616   0.791   2.668   2.159
 9891TIP3    H229617   0.877   2.653   2.035
 9892TIP3   OH229618   5.320   5.154   2.057
 9892TIP3    H129619   5.394   5.209   2.080
 9892TIP3    H229620   5.274   5.137   2.139
 9893TIP3   OH229621   3.646   4.802   3.258
 9893TIP3    H129622   3.645   4.872   3.323
 9893TIP3    H229623   3.730   4.758   3.272
 9894TIP3   OH229624   7.433   6.657   6.709
 9894TIP3    H129625   7.510   6.623   6.754
 9894TIP3    H229626   7.369   6.586   6.715
 9895TIP3   OH229627   6.404   2.463   4.169
 9895TIP3    H129628   6.488   2.421   4.187
 9895TIP3    H229629   6.349   2.393   4.133
 9896TIP3   OH229630   4.759   2.245   5.120
 9896TIP3    H129631   4.737   2.160   5.158
 9896TIP3    H229632   4.698   2.307   5.161
 9897TIP3   OH229633   3.632   7.750   2.700
 9897TIP3    H129634   3.669   7.681   2.645
 9897TIP3    H229635   3.658   7.727   2.789
 9898TIP3   OH229636   5.618   6.474   2.474
 9898TIP3    H129637   5.703   6.437   2.450
 9898TIP3    H229638   5.637   6.564   2.501
 9899TIP3   OH229639   1.068   0.492   2.139
 9899TIP3    H129640   1.152   0.491   2.092
 9899TIP3    H229641   1.032   0.579   2.121
 9900TIP3   OH229642   3.845   1.866   0.307
 9900TIP3    H129643   3.789   1.790   0.324
 9900TIP3    H229644   3.874   1.854   0.217
 9901TIP3   OH229645   4.965   4.271   5.844
 9901TIP3    H129646   5.029   4.326   5.889
 9901TIP3    H229647   5.007   4.250   5.760
 9902TIP3   OH229648   6.477   4.218   4.933
 9902TIP3    H129649   6.393   4.174   4.946
 9902TIP3    H229650   6.529   4.194   5.010
 9903TIP3   OH229651   0.437   3.598   4.627
 9903TIP3    H129652   0.399   3.511   4.633
 9903TIP3    H229653   0.456   3.624   4.717
 9904TIP3   OH229654   4.017   2.766   5.297
 9904TIP3    H129655   3.971   2.687   5.322
 9904TIP3    H229656   4.108   2.738   5.287
 9905TIP3   OH229657   5.416   7.116   1.243
 9905TIP3    H129658   5.344   7.163   1.284
 9905TIP3    H229659   5.448   7.175   1.174
 9906TIP3   OH229660   8.228   1.556   3.989
 9906TIP3    H129661   8.152   1.525   3.940
 9906TIP3    H229662   8.267   1.477   4.027
 9907TIP3   OH229663   3.869   1.539   2.418
 9907TIP3    H129664   3.777   1.545   2.391
 9907TIP3    H229665   3.912   1.496   2.344
 9908TIP3   OH229666   7.404   3.115   1.709
 9908TIP3    H129667   7.423   3.082   1.621
 9908TIP3    H229668   7.347   3.048   1.747
 9909TIP3   OH229669   1.552   3.093   6.495
 9909TIP3    H129670   1.613   3.167   6.498
 9909TIP3    H229671   1.465   3.133   6.498
 9910TIP3   OH229672   3.083   4.040   6.425
 9910TIP3    H129673   3.129   4.058   6.343
 9910TIP3    H229674   3.118   4.105   6.486
 9911TIP3   OH229675   2.212   6.831   3.498
 9911TIP3    H129676   2.224   6.746   3.454
 9911TIP3    H229677   2.131   6.822   3.548
 9912TIP3   OH229678   6.899   6.679   3.963
 9912TIP3    H129679   6.863   6.717   4.043
 9912TIP3    H229680   6.830   6.691   3.898
 9913TIP3   OH229681   3.065   2.323   5.341
 9913TIP3    H129682   3.146   2.369   5.364
 9913TIP3    H229683   3.081   2.233   5.369
 9914TIP3   OH229684   5.204   4.322   4.219
 9914TIP3    H129685   5.200   4.226   4.217
 9914TIP3    H229686   5.237   4.342   4.307
 9915TIP3   OH229687   1.852   6.938   0.922
 9915TIP3    H129688   1.798   6.888   0.861
 9915TIP3    H229689   1.811   7.025   0.924
 9916TIP3   OH229690   4.597   0.181   5.085
 9916TIP3    H129691   4.612   0.219   4.998
 9916TIP3    H229692   4.564   0.094   5.067
 9917TIP3   OH229693   7.450   1.158   3.624
 9917TIP3    H129694   7.387   1.156   3.552
 9917TIP3    H229695   7.536   1.163   3.581
 9918TIP3   OH229696   7.061   3.018   5.461
 9918TIP3    H129697   7.156   3.023   5.475
 9918TIP3    H229698   7.029   3.104   5.488
 9919TIP3   OH229699   2.250   6.112   0.881
 9919TIP3    H129700   2.183   6.086   0.945
 9919TIP3    H229701   2.233   6.057   0.805
 9920TIP3   OH229702   2.632   1.439   6.164
 9920TIP3    H129703   2.618   1.345   6.166
 9920TIP3    H229704   2.575   1.471   6.094
 9921TIP3   OH229705   0.771   2.104   0.495
 9921TIP3    H129706   0.695   2.060   0.457
 9921TIP3    H229707   0.781   2.065   0.582
 9922TIP3   OH229708   6.341   5.038   5.934
 9922TIP3    H129709   6.247   5.037   5.914
 9922TIP3    H229710   6.367   4.946   5.926
 9923TIP3   OH229711   1.667   6.981   1.681
 9923TIP3    H129712   1.630   7.021   1.760
 9923TIP3    H229713   1.625   7.028   1.609
 9924TIP3   OH229714   7.695   0.870   2.027
 9924TIP3    H129715   7.665   0.870   1.937
 9924TIP3    H229716   7.735   0.956   2.039
 9925TIP3   OH229717   3.008   4.105   3.906
 9925TIP3    H129718   2.973   4.182   3.862
 9925TIP3    H229719   2.930   4.060   3.940
 9926TIP3   OH229720   6.094   7.391   1.238
 9926TIP3    H129721   6.077   7.367   1.147
 9926TIP3    H229722   6.094   7.307   1.284
 9927TIP3   OH229723   7.756   3.283   2.929
 9927TIP3    H129724   7.706   3.309   2.851
 9927TIP3    H229725   7.727   3.344   2.997
 9928TIP3   OH229726   4.761   3.005   2.582
 9928TIP3    H129727   4.829   2.970   2.525
 9928TIP3    H229728   4.808   3.062   2.644
 9929TIP3   OH229729   3.996   7.039   3.518
 9929TIP3    H129730   3.969   7.089   3.595
 9929TIP3    H229731   3.949   7.081   3.445
 9930TIP3   OH229732   7.568   1.300   0.166
 9930TIP3    H129733   7.646   1.265   0.122
 9930TIP3    H229734   7.588   1.293   0.259
 9931TIP3   OH229735   1.497   0.881   5.542
 9931TIP3    H129736   1.438   0.807   5.533
 9931TIP3    H229737   1.583   0.847   5.517
 9932TIP3   OH229738   1.072   2.221   4.768
 9932TIP3    H129739   0.998   2.168   4.738
 9932TIP3    H229740   1.104   2.265   4.690
 9933TIP3   OH229741   8.034   0.583   1.070
 9933TIP3    H129742   8.030   0.671   1.034
 9933TIP3    H229743   8.084   0.592   1.151
 9934TIP3   OH229744   6.726   6.725   0.912
 9934TIP3    H129745   6.703   6.636   0.940
 9934TIP3    H229746   6.776   6.711   0.831
 9935TIP3   OH229747   7.510   7.035   2.527
 9935TIP3    H129748   7.536   6.987   2.449
 9935TIP3    H229749   7.579   7.017   2.590
 9936TIP3   OH229750   5.880   0.461   4.836
 9936TIP3    H129751   5.933   0.517   4.892
 9936TIP3    H229752   5.942   0.398   4.799
 9937TIP3   OH229753   5.012   3.889   0.957
 9937TIP3    H129754   4.942   3.951   0.976
 9937TIP3    H229755   5.063   3.931   0.887
 9938TIP3   OH229756   7.084   1.020   1.720
 9938TIP3    H129757   7.046   1.099   1.682
 9938TIP3    H229758   7.165   1.049   1.761
 9939TIP3   OH229759   1.510   2.300   2.558
 9939TIP3    H129760   1.584   2.296   2.618
 9939TIP3    H229761   1.495   2.209   2.532
 9940TIP3   OH229762   3.374   6.170   6.447
 9940TIP3    H129763   3.349   6.082   6.420
 9940TIP3    H229764   3.387   6.218   6.365
 9941TIP3   OH229765   0.818   5.860   5.104
 9941TIP3    H129766   0.872   5.860   5.183
 9941TIP3    H229767   0.737   5.904   5.131
 9942TIP3   OH229768   7.739   6.115   2.500
 9942TIP3    H129769   7.692   6.189   2.462
 9942TIP3    H229770   7.831   6.142   2.501
 9943TIP3   OH229771   1.104   0.390   3.987
 9943TIP3    H129772   1.192   0.426   4.002
 9943TIP3    H229773   1.054   0.417   4.064
 9944TIP3   OH229774   7.777   7.001   5.295
 9944TIP3    H129775   7.826   6.928   5.333
 9944TIP3    H229776   7.757   7.057   5.370
 9945TIP3   OH229777   5.328   0.170   0.860
 9945TIP3    H129778   5.249   0.183   0.808
 9945TIP3    H229779   5.315   0.085   0.903
 9946TIP3   OH229780   7.893   4.630   3.772
 9946TIP3    H129781   7.820   4.691   3.764
 9946TIP3    H229782   7.881   4.590   3.858
 9947TIP3   OH229783   0.605   7.196   3.389
 9947TIP3    H129784   0.601   7.274   3.334
 9947TIP3    H229785   0.681   7.211   3.445
 9948TIP3   OH229786   2.228   4.554   5.541
 9948TIP3    H129787   2.138   4.537   5.514
 9948TIP3    H229788   2.243   4.645   5.516
 9949TIP3   OH229789   1.566   0.689   5.197
 9949TIP3    H129790   1.608   0.757   5.144
 9949TIP3    H229791   1.611   0.694   5.282
 9950TIP3   OH229792   2.904   4.272   1.684
 9950TIP3    H129793   2.953   4.355   1.678
 9950TIP3    H229794   2.878   4.267   1.776
 9951TIP3   OH229795   4.265   0.882   0.417
 9951TIP3    H129796   4.349   0.861   0.377
 9951TIP3    H229797   4.215   0.924   0.347
 9952TIP3   OH229798   5.418   3.287   1.764
 9952TIP3    H129799   5.478   3.213   1.774
 9952TIP3    H229800   5.476   3.364   1.764
 9953TIP3   OH229801   4.165   2.666   2.499
 9953TIP3    H129802   4.224   2.606   2.454
 9953TIP3    H229803   4.129   2.615   2.571
 9954TIP3   OH229804   0.384   6.760   3.532
 9954TIP3    H129805   0.393   6.757   3.627
 9954TIP3    H229806   0.389   6.853   3.510
 9955TIP3   OH229807   3.223   1.335   6.501
 9955TIP3    H129808   3.213   1.372   6.413
 9955TIP3    H229809   3.253   1.245   6.486
 9956TIP3   OH229810   1.612   0.866   1.628
 9956TIP3    H129811   1.542   0.801   1.621
 9956TIP3    H229812   1.658   0.843   1.709
 9957TIP3   OH229813   7.735   0.336   0.151
 9957TIP3    H129814   7.788   0.272   0.199
 9957TIP3    H229815   7.645   0.314   0.173
 9958TIP3   OH229816   4.394   1.035   3.361
 9958TIP3    H129817   4.479   1.017   3.401
 9958TIP3    H229818   4.413   1.045   3.267
 9959TIP3   OH229819   3.839   6.504   0.356
 9959TIP3    H129820   3.827   6.452   0.276
 9959TIP3    H229821   3.760   6.557   0.363
 9960TIP3   OH229822   4.275   0.988   5.651
 9960TIP3    H129823   4.310   0.963   5.736
 9960TIP3    H229824   4.187   0.952   5.649
 9961TIP3   OH229825   2.093   2.864   4.220
 9961TIP3    H129826   2.183   2.892   4.236
 9961TIP3    H229827   2.101   2.773   4.192
 9962TIP3   OH229828   3.954   5.027   0.766
 9962TIP3    H129829   4.041   5.012   0.802
 9962TIP3    H229830   3.926   4.941   0.733
 9963TIP3   OH229831   5.481   1.693   3.448
 9963TIP3    H129832   5.569   1.702   3.411
 9963TIP3    H229833   5.470   1.599   3.461
 9964TIP3   OH229834   6.025   2.150   3.505
 9964TIP3    H129835   5.975   2.108   3.436
 9964TIP3    H229836   5.965   2.216   3.541
 9965TIP3   OH229837   0.187   0.646   5.529
 9965TIP3    H129838   0.281   0.648   5.548
 9965TIP3    H229839   0.171   0.557   5.497
 9966TIP3   OH229840   3.584   4.254   1.247
 9966TIP3    H129841   3.550   4.223   1.331
 9966TIP3    H229842   3.665   4.204   1.234
 9967TIP3   OH229843   1.420   4.111   2.049
 9967TIP3    H129844   1.486   4.054   2.010
 9967TIP3    H229845   1.352   4.051   2.080
 9968TIP3   OH229846   4.641   5.677   1.392
 9968TIP3    H129847   4.669   5.608   1.331
 9968TIP3    H229848   4.584   5.733   1.340
 9969TIP3   OH229849   5.882   0.880   1.589
 9969TIP3    H129850   5.891   0.946   1.658
 9969TIP3    H229851   5.801   0.834   1.612
 9970TIP3   OH229852   3.979   5.754   5.790
 9970TIP3    H129853   3.950   5.663   5.785
 9970TIP3    H229854   4.012   5.773   5.702
 9971TIP3   OH229855   2.405   6.936   0.764
 9971TIP3    H129856   2.408   7.028   0.737
 9971TIP3    H229857   2.446   6.889   0.691
 9972TIP3   OH229858   3.451   4.299   6.179
 9972TIP3    H129859   3.475   4.370   6.239
 9972TIP3    H229860   3.528   4.286   6.125
 9973TIP3   OH229861   6.183   2.417   3.879
 9973TIP3    H129862   6.106   2.420   3.935
 9973TIP3    H229863   6.178   2.497   3.827
 9974TIP3   OH229864   7.068   3.587   3.808
 9974TIP3    H129865   7.100   3.515   3.862
 9974TIP3    H229866   7.147   3.632   3.778
 9975TIP3   OH229867   1.483   1.454   6.170
 9975TIP3    H129868   1.397   1.493   6.185
 9975TIP3    H229869   1.488   1.381   6.232
 9976TIP3   OH229870   5.427   1.324   3.012
 9976TIP3    H129871   5.448   1.383   3.084
 9976TIP3    H229872   5.436   1.377   2.933
 9977TIP3   OH229873   0.945   1.994   3.042
 9977TIP3    H129874   0.909   2.039   2.966
 9977TIP3    H229875   1.021   1.947   3.007
 9978TIP3   OH229876   2.691  -0.004   0.810
 9978TIP3    H129877   2.679  -0.011   0.904
 9978TIP3    H229878   2.768   0.052   0.799
 9979TIP3   OH229879   6.535   4.851   4.906
 9979TIP3    H129880   6.546   4.769   4.857
 9979TIP3    H229881   6.461   4.894   4.863
 9980TIP3   OH229882   7.991   2.476   3.876
 9980TIP3    H129883   7.936   2.544   3.915
 9980TIP3    H229884   7.930   2.412   3.841
 9981TIP3   OH229885   0.902   2.272   2.571
 9981TIP3    H129886   0.901   2.270   2.476
 9981TIP3    H229887   0.949   2.352   2.593
 9982TIP3   OH229888   8.002   4.471   4.022
 9982TIP3    H129889   8.011   4.439   4.112
 9982TIP3    H229890   8.083   4.443   3.979
 9983TIP3   OH229891   4.302   0.786   2.874
 9983TIP3    H129892   4.347   0.860   2.915
 9983TIP3    H229893   4.372   0.728   2.847
 9984TIP3   OH229894   0.486   7.148   0.632
 9984TIP3    H129895   0.410   7.091   0.623
 9984TIP3    H229896   0.547   7.099   0.687
 9985TIP3   OH229897   5.032   5.566   5.491
 9985TIP3    H129898   5.082   5.622   5.550
 9985TIP3    H229899   4.971   5.626   5.448
 9986TIP3   OH229900   7.001   1.569   3.507
 9986TIP3    H129901   6.911   1.569   3.539
 9986TIP3    H229902   7.054   1.557   3.586
 9987TIP3   OH229903   7.664   2.669   5.765
 9987TIP3    H129904   7.703   2.664   5.678
 9987TIP3    H229905   7.587   2.726   5.753
 9988TIP3   OH229906   2.849   1.704   6.488
 9988TIP3    H129907   2.791   1.680   6.560
 9988TIP3    H229908   2.906   1.628   6.477
 9989TIP3   OH229909   2.222   6.069   6.496
 9989TIP3    H129910   2.186   5.982   6.477
 9989TIP3    H229911   2.189   6.089   6.584
 9990TIP3   OH229912   7.870   5.773   3.443
 9990TIP3    H129913   7.853   5.687   3.481
 9990TIP3    H229914   7.934   5.757   3.375
 9991TIP3   OH229915   7.228   4.915   5.764
 9991TIP3    H129916   7.215   4.820   5.762
 9991TIP3    H229917   7.146   4.950   5.799
 9992TIP3   OH229918   1.096   7.736   4.245
 9992TIP3    H129919   1.154   7.745   4.321
 9992TIP3    H229920   1.121   7.809   4.188
 9993TIP3   OH229921   1.100   0.968   0.028
 9993TIP3    H129922   1.157   0.982  -0.047
 9993TIP3    H229923   1.058   0.884   0.011
 9994TIP3   OH229924   0.362   5.629   1.301
 9994TIP3    H129925   0.313   5.627   1.219
 9994TIP3    H229926   0.296   5.651   1.367
 9995TIP3   OH229927   3.100   3.768   4.541
 9995TIP3    H129928   3.030   3.779   4.478
 9995TIP3    H229929   3.176   3.811   4.502
 9996TIP3   OH229930   0.446   5.303   2.157
 9996TIP3    H129931   0.409   5.254   2.231
 9996TIP3    H229932   0.380   5.368   2.135
 9997TIP3   OH229933   1.025   6.174   0.627
 9997TIP3    H129934   1.080   6.096   0.631
 9997TIP3    H229935   0.949   6.152   0.681
 9998TIP3   OH229936   6.964   2.571   0.939
 9998TIP3    H129937   6.998   2.558   0.850
 9998TIP3    H229938   7.025   2.523   0.995
 9999TIP3   OH229939   0.526   2.273   4.754
 9999TIP3    H129940   0.606   2.221   4.757
 9999TIP3    H229941   0.554   2.358   4.719
10000TIP3   OH229942   7.005   3.806   2.348
10000TIP3    H129943   7.025   3.741   2.415
10000TIP3    H229944   7.075   3.871   2.355
10001TIP3   OH229945   5.534   4.082   4.995
10001TIP3    H129946   5.560   4.109   5.083
10001TIP3    H229947   5.548   4.159   4.941
10002TIP3   OH229948   7.732   5.552   1.985
10002TIP3    H129949   7.691   5.548   1.899
10002TIP3    H229950   7.666   5.592   2.042
10003TIP3   OH229951   4.893   3.875   5.979
10003TIP3    H129952   4.875   3.845   6.068
10003TIP3    H229953   4.987   3.865   5.969
10004TIP3   OH229954   5.597   5.175   4.462
10004TIP3    H129955   5.645   5.149   4.383
10004TIP3    H229956   5.664   5.215   4.518
10005TIP3   OH229957   8.032   5.405   3.670
10005TIP3    H129958   8.014   5.312   3.662
10005TIP3    H229959   8.126   5.413   3.656
10006TIP3   OH229960   6.297   2.873   3.501
10006TIP3    H129961   6.257   2.824   3.429
10006TIP3    H229962   6.256   2.959   3.497
10007TIP3   OH229963   4.916   1.112   3.993
10007TIP3    H129964   4.894   1.021   4.015
10007TIP3    H229965   4.931   1.111   3.899
10008TIP3   OH229966   6.847   6.461   6.717
10008TIP3    H129967   6.761   6.494   6.691
10008TIP3    H229968   6.839   6.366   6.712
10009TIP3   OH229969   1.347   5.567   3.082
10009TIP3    H129970   1.310   5.483   3.053
10009TIP3    H229971   1.401   5.596   3.009
10010TIP3   OH229972   1.538   6.217   5.513
10010TIP3    H129973   1.575   6.289   5.462
10010TIP3    H229974   1.541   6.249   5.603
10011TIP3   OH229975   6.747   2.858   2.540
10011TIP3    H129976   6.785   2.946   2.530
10011TIP3    H229977   6.821   2.802   2.563
10012TIP3   OH229978   2.125   0.140   3.354
10012TIP3    H129979   2.132   0.207   3.286
10012TIP3    H229980   2.054   0.083   3.324
10013TIP3   OH229981   4.803   1.867   0.622
10013TIP3    H129982   4.748   1.790   0.609
10013TIP3    H229983   4.764   1.913   0.696
10014TIP3   OH229984   6.597   1.349   3.211
10014TIP3    H129985   6.605   1.424   3.153
10014TIP3    H229986   6.683   1.340   3.252
10015TIP3   OH229987   6.608   7.460   2.594
10015TIP3    H129988   6.537   7.449   2.531
10015TIP3    H229989   6.641   7.371   2.609
10016TIP3   OH229990   0.039   6.466   3.032
10016TIP3    H129991   0.091   6.547   3.029
10016TIP3    H229992  -0.037   6.489   3.085
10017TIP3   OH229993   7.068   6.070   5.187
10017TIP3    H129994   7.148   6.028   5.156
10017TIP3    H229995   7.053   6.032   5.273
10018TIP3   OH229996   8.161   3.046   1.096
10018TIP3    H129997   8.068   3.042   1.118
10018TIP3    H229998   8.186   2.955   1.082
10019TIP3   OH229999   7.716   4.952   2.689
10019TIP3    H130000   7.685   4.873   2.645
10019TIP3    H230001   7.716   4.929   2.782
10020TIP3   OH230002   4.324   3.159   0.153
10020TIP3    H130003   4.308   3.244   0.111
10020TIP3    H230004   4.238   3.127   0.176
10021TIP3   OH230005   3.743   3.456   4.519
10021TIP3    H130006   3.754   3.402   4.597
10021TIP3    H230007   3.793   3.535   4.538
10022TIP3   OH230008   1.114   3.090   5.454
10022TIP3    H130009   1.065   3.092   5.372
10022TIP3    H230010   1.167   3.011   5.449
10023TIP3   OH230011   5.914   0.056   1.806
10023TIP3    H130012   5.876   0.032   1.890
10023TIP3    H230013   5.893   0.149   1.796
10024TIP3   OH230014   3.071   6.886   0.259
10024TIP3    H130015   3.158   6.887   0.299
10024TIP3    H230016   3.055   6.978   0.235
10025TIP3   OH230017   4.703   4.240   3.764
10025TIP3    H130018   4.740   4.241   3.853
10025TIP3    H230019   4.704   4.332   3.737
10026TIP3   OH230020   1.539   7.522   3.964
10026TIP3    H130021   1.567   7.446   4.015
10026TIP3    H230022   1.614   7.581   3.964
10027TIP3   OH230023   0.481   6.321   1.100
10027TIP3    H130024   0.444   6.303   1.013
10027TIP3    H230025   0.576   6.322   1.086
10028TIP3   OH230026   5.640   4.123   3.125
10028TIP3    H130027   5.634   4.197   3.186
10028TIP3    H230028   5.637   4.163   3.038
10029TIP3   OH230029   5.294   1.413   6.593
10029TIP3    H130030   5.252   1.343   6.642
10029TIP3    H230031   5.367   1.371   6.547
10030TIP3   OH230032   7.808   1.093   4.840
10030TIP3    H130033   7.888   1.042   4.854
10030TIP3    H230034   7.803   1.151   4.916
10031TIP3   OH230035   7.625   2.521   0.751
10031TIP3    H130036   7.702   2.578   0.749
10031TIP3    H230037   7.604   2.513   0.844
10032TIP3   OH230038   7.556   0.587   4.296
10032TIP3    H130039   7.531   0.675   4.267
10032TIP3    H230040   7.515   0.577   4.382
10033TIP3   OH230041   2.346   4.783   4.196
10033TIP3    H130042   2.356   4.872   4.161
10033TIP3    H230043   2.318   4.731   4.121
10034TIP3   OH230044   7.355   3.162   2.751
10034TIP3    H130045   7.363   3.257   2.762
10034TIP3    H230046   7.270   3.150   2.708
10035TIP3   OH230047   5.494   6.989   2.045
10035TIP3    H130048   5.519   6.938   1.968
10035TIP3    H230049   5.521   7.078   2.025
10036TIP3   OH230050   6.804   7.174   0.464
10036TIP3    H130051   6.721   7.223   0.467
10036TIP3    H230052   6.799   7.116   0.540
10037TIP3   OH230053   5.372   6.408   1.801
10037TIP3    H130054   5.293   6.369   1.765
10037TIP3    H230055   5.441   6.389   1.737
10038TIP3   OH230056   5.962   5.619   6.605
10038TIP3    H130057   5.887   5.630   6.663
10038TIP3    H230058   5.965   5.525   6.586
10039TIP3   OH230059   1.805   3.611   6.034
10039TIP3    H130060   1.835   3.694   5.995
10039TIP3    H230061   1.872   3.548   6.011
10040TIP3   OH230062   5.960   4.780   5.570
10040TIP3    H130063   5.969   4.814   5.659
10040TIP3    H230064   6.033   4.817   5.523
10041TIP3   OH230065   7.061   4.099   5.493
10041TIP3    H130066   6.996   4.121   5.559
10041TIP3    H230067   7.042   4.009   5.469
10042TIP3   OH230068   4.535   1.070   1.853
10042TIP3    H130069   4.496   1.102   1.934
10042TIP3    H230070   4.549   0.977   1.869
10043TIP3   OH230071   1.776   0.587   5.950
10043TIP3    H130072   1.807   0.538   6.027
10043TIP3    H230073   1.802   0.677   5.967
10044TIP3   OH230074   6.042   6.937   2.498
10044TIP3    H130075   6.022   6.846   2.476
10044TIP3    H230076   6.053   6.980   2.414
10045TIP3   OH230077   1.679   4.200   3.545
10045TIP3    H130078   1.744   4.260   3.581
10045TIP3    H230079   1.693   4.118   3.592
10046TIP3   OH230080   6.939   4.621   5.191
10046TIP3    H130081   6.889   4.643   5.270
10046TIP3    H230082   7.026   4.658   5.207
10047TIP3   OH230083   8.151   5.103   3.750
10047TIP3    H130084   8.156   5.008   3.738
10047TIP3    H230085   8.145   5.114   3.845
10048TIP3   OH230086   5.377   1.693   2.100
10048TIP3    H130087   5.308   1.643   2.058
10048TIP3    H230088   5.404   1.757   2.034
10049TIP3   OH230089   6.611   5.402   3.066
10049TIP3    H130090   6.591   5.316   3.029
10049TIP3    H230091   6.540   5.458   3.037
10050TIP3   OH230092   7.897   6.549   1.145
10050TIP3    H130093   7.942   6.501   1.076
10050TIP3    H230094   7.832   6.603   1.100
10051TIP3   OH230095   8.200   4.687   4.256
10051TIP3    H130096   8.123   4.733   4.290
10051TIP3    H230097   8.164   4.618   4.200
10052TIP3   OH230098   2.942   2.304  -0.019
10052TIP3    H130099   2.996   2.332  -0.092
10052TIP3    H230100   2.854   2.295  -0.055
10053TIP3   OH230101   4.675   4.242   2.520
10053TIP3    H130102   4.757   4.264   2.565
10053TIP3    H230103   4.611   4.302   2.558
10054TIP3   OH230104   5.254   5.710   3.359
10054TIP3    H130105   5.268   5.796   3.400
10054TIP3    H230106   5.242   5.650   3.432
10055TIP3   OH230107   1.907   3.854   4.393
10055TIP3    H130108   1.916   3.947   4.375
10055TIP3    H230109   1.898   3.814   4.306
10056TIP3   OH230110   4.502   4.368   5.678
10056TIP3    H130111   4.581   4.388   5.627
10056TIP3    H230112   4.466   4.290   5.635
10057TIP3   OH230113   2.155   6.138   6.745
10057TIP3    H130114   2.094   6.065   6.756
10057TIP3    H230115   2.130   6.200   6.814
10058TIP3   OH230116   3.493   7.826   4.375
10058TIP3    H130117   3.483   7.738   4.412
10058TIP3    H230118   3.404   7.862   4.376
10059TIP3   OH230119   3.375   4.579   3.397
10059TIP3    H130120   3.460   4.536   3.399
10059TIP3    H230121   3.394   4.672   3.405
10060TIP3   OH230122   2.265   3.391   0.515
10060TIP3    H130123   2.171   3.409   0.503
10060TIP3    H230124   2.304   3.477   0.529
10061TIP3   OH230125   6.187   3.123   4.587
10061TIP3    H130126   6.117   3.087   4.642
10061TIP3    H230127   6.141   3.176   4.522
10062TIP3   OH230128   2.792   6.307   0.158
10062TIP3    H130129   2.819   6.361   0.233
10062TIP3    H230130   2.817   6.218   0.183
10063TIP3   OH230131   5.150   3.556   1.656
10063TIP3    H130132   5.077   3.511   1.698
10063TIP3    H230133   5.119   3.574   1.567
10064TIP3   OH230134   4.498   4.288   2.839
10064TIP3    H130135   4.480   4.382   2.841
10064TIP3    H230136   4.592   4.281   2.857
10065TIP3   OH230137   5.366   7.199   6.478
10065TIP3    H130138   5.455   7.171   6.459
10065TIP3    H230139   5.368   7.294   6.467
10066TIP3   OH230140   3.343   7.501   3.027
10066TIP3    H130141   3.378   7.420   3.066
10066TIP3    H230142   3.282   7.471   2.960
10067TIP3   OH230143   4.305   7.412   0.396
10067TIP3    H130144   4.384   7.459   0.421
10067TIP3    H230145   4.260   7.396   0.478
10068TIP3   OH230146   5.661   5.148   3.756
10068TIP3    H130147   5.607   5.092   3.700
10068TIP3    H230148   5.600   5.184   3.820
10069TIP3   OH230149   0.565   5.245   0.998
10069TIP3    H130150   0.475   5.257   1.030
10069TIP3    H230151   0.554   5.219   0.906
10070TIP3   OH230152   5.455   3.303   1.408
10070TIP3    H130153   5.497   3.233   1.458
10070TIP3    H230154   5.505   3.307   1.327
10071TIP3   OH230155   0.422   6.483   2.628
10071TIP3    H130156   0.486   6.414   2.644
10071TIP3    H230157   0.375   6.454   2.550
10072TIP3   OH230158   4.132   6.865   1.390
10072TIP3    H130159   4.123   6.843   1.483
10072TIP3    H230160   4.160   6.956   1.390
10073TIP3   OH230161   1.935   6.439   6.715
10073TIP3    H130162   1.844   6.412   6.702
10073TIP3    H230163   1.960   6.400   6.799
10074TIP3   OH230164   5.235   4.890   1.673
10074TIP3    H130165   5.161   4.939   1.709
10074TIP3    H230166   5.210   4.872   1.582
10075TIP3   OH230167   6.188   7.548   6.224
10075TIP3    H130168   6.105   7.501   6.221
10075TIP3    H230169   6.253   7.486   6.192
10076TIP3   OH230170   5.227   5.102   3.102
10076TIP3    H130171   5.207   5.009   3.093
10076TIP3    H230172   5.297   5.117   3.038
10077TIP3   OH230173   4.960   5.414   3.151
10077TIP3    H130174   4.873   5.383   3.128
10077TIP3    H230175   5.000   5.439   3.067
10078TIP3   OH230176   4.254   5.802   3.297
10078TIP3    H130177   4.291   5.835   3.216
10078TIP3    H230178   4.197   5.873   3.328
10079TIP3   OH230179   7.245   3.481   0.908
10079TIP3    H130180   7.304   3.555   0.902
10079TIP3    H230181   7.271   3.423   0.836
10080TIP3   OH230182   0.377   7.021   3.399
10080TIP3    H130183   0.459   7.070   3.392
10080TIP3    H230184   0.356   6.996   3.309
10081TIP3   OH230185   4.196   2.774   6.696
10081TIP3    H130186   4.129   2.841   6.698
10081TIP3    H230187   4.219   2.766   6.604
10082TIP3   OH230188   5.180   4.029   1.821
10082TIP3    H130189   5.092   4.065   1.809
10082TIP3    H230190   5.185   3.956   1.758
10083TIP3   OH230191   2.952   6.878   6.350
10083TIP3    H130192   3.025   6.849   6.295
10083TIP3    H230193   2.969   6.972   6.363
10084TIP3   OH230194   3.637   4.980   3.509
10084TIP3    H130195   3.583   5.057   3.492
10084TIP3    H230196   3.727   5.011   3.498
10085TIP3   OH230197   1.552   6.006   5.346
10085TIP3    H130198   1.528   5.997   5.438
10085TIP3    H230199   1.508   6.086   5.318
10086TIP3   OH230200   2.044   2.489   0.129
10086TIP3    H130201   1.981   2.432   0.085
10086TIP3    H230202   2.018   2.578   0.105
10087TIP3   OH230203   2.566   1.419   1.363
10087TIP3    H130204   2.611   1.398   1.445
10087TIP3    H230205   2.473   1.414   1.386
10088TIP3   OH230206   0.793   1.319   0.825
10088TIP3    H130207   0.771   1.411   0.807
10088TIP3    H230208   0.887   1.314   0.813
10089TIP3   OH230209   2.952   1.519   2.853
10089TIP3    H130210   3.042   1.536   2.880
10089TIP3    H230211   2.907   1.494   2.934
10090TIP3   OH230212   5.649   7.542   4.787
10090TIP3    H130213   5.658   7.541   4.882
10090TIP3    H230214   5.613   7.456   4.764
10091TIP3   OH230215   5.211   6.619   5.039
10091TIP3    H130216   5.257   6.545   4.999
10091TIP3    H230217   5.206   6.597   5.132
10092TIP3   OH230218   1.943   0.467   6.137
10092TIP3    H130219   1.928   0.523   6.213
10092TIP3    H230220   1.989   0.390   6.172
10093TIP3   OH230221   2.100   4.391   0.543
10093TIP3    H130222   2.085   4.426   0.455
10093TIP3    H230223   2.016   4.352   0.567
10094TIP3   OH230224   3.950   7.229   1.783
10094TIP3    H130225   3.992   7.308   1.816
10094TIP3    H230226   4.023   7.171   1.760
10095TIP3   OH230227   2.504   2.298   2.156
10095TIP3    H130228   2.438   2.354   2.197
10095TIP3    H230229   2.454   2.225   2.119
10096TIP3   OH230230   2.881   5.976   5.590
10096TIP3    H130231   2.853   6.005   5.504
10096TIP3    H230232   2.965   6.019   5.604
10097TIP3   OH230233   2.640   7.368   4.049
10097TIP3    H130234   2.557   7.412   4.065
10097TIP3    H230235   2.642   7.355   3.954
10098TIP3   OH230236   1.445   1.113   0.327
10098TIP3    H130237   1.519   1.164   0.360
10098TIP3    H230238   1.423   1.053   0.398
10099TIP3   OH230239   2.354   5.223   5.681
10099TIP3    H130240   2.340   5.314   5.705
10099TIP3    H230241   2.269   5.194   5.645
10100TIP3   OH230242   3.755   4.562   5.335
10100TIP3    H130243   3.835   4.553   5.283
10100TIP3    H230244   3.730   4.654   5.325
10101TIP3   OH230245   3.767   6.658   6.599
10101TIP3    H130246   3.726   6.601   6.534
10101TIP3    H230247   3.749   6.616   6.683
10102TIP3   OH230248   3.051   6.413   5.050
10102TIP3    H130249   3.144   6.403   5.029
10102TIP3    H230250   3.011   6.438   4.967
10103TIP3   OH230251   3.011   5.794   4.798
10103TIP3    H130252   3.007   5.701   4.777
10103TIP3    H230253   3.014   5.838   4.713
10104TIP3   OH230254   3.020   5.187   3.533
10104TIP3    H130255   3.006   5.129   3.458
10104TIP3    H230256   3.035   5.273   3.494
10105TIP3   OH230257   6.874   1.359   5.630
10105TIP3    H130258   6.885   1.265   5.638
10105TIP3    H230259   6.792   1.370   5.583
10106TIP3   OH230260   7.060   7.158   0.298
10106TIP3    H130261   7.125   7.220   0.328
10106TIP3    H230262   6.984   7.172   0.355
10107TIP3   OH230263   4.552   2.671   2.566
10107TIP3    H130264   4.555   2.736   2.496
10107TIP3    H230265   4.525   2.590   2.523
10108TIP3   OH230266   2.991   0.561   4.501
10108TIP3    H130267   2.931   0.504   4.548
10108TIP3    H230268   2.948   0.577   4.417
10109TIP3   OH230269   7.446   2.478   5.803
10109TIP3    H130270   7.530   2.510   5.835
10109TIP3    H230271   7.413   2.423   5.874
10110TIP3   OH230272   7.309   3.846   4.311
10110TIP3    H130273   7.237   3.901   4.342
10110TIP3    H230274   7.371   3.907   4.271
10111TIP3   OH230275   2.130   0.439   4.295
10111TIP3    H130276   2.193   0.492   4.344
10111TIP3    H230277   2.129   0.477   4.207
10112TIP3   OH230278   0.722   1.545   4.181
10112TIP3    H130279   0.693   1.635   4.195
10112TIP3    H230280   0.647   1.491   4.207
10113TIP3   OH230281   0.239   4.225   6.214
10113TIP3    H130282   0.333   4.212   6.221
10113TIP3    H230283   0.224   4.244   6.121
10114TIP3   OH230284   2.496   2.503   0.022
10114TIP3    H130285   2.436   2.542  -0.042
10114TIP3    H230286   2.440   2.446   0.075
10115TIP3   OH230287   1.560   0.999   3.613
10115TIP3    H130288   1.503   0.922   3.608
10115TIP3    H230289   1.522   1.053   3.682
10116TIP3   OH230290   7.408   4.120   4.505
10116TIP3    H130291   7.419   4.069   4.425
10116TIP3    H230292   7.496   4.127   4.542
10117TIP3   OH230293   4.722   1.372   1.593
10117TIP3    H130294   4.744   1.332   1.509
10117TIP3    H230295   4.705   1.298   1.651
10118TIP3   OH230296   1.856   7.781   4.911
10118TIP3    H130297   1.800   7.716   4.870
10118TIP3    H230298   1.900   7.825   4.838
10119TIP3   OH230299   4.115   5.782   5.556
10119TIP3    H130300   4.185   5.847   5.568
10119TIP3    H230301   4.161   5.701   5.533
10120TIP3   OH230302   6.464   6.150   1.998
10120TIP3    H130303   6.519   6.082   2.037
10120TIP3    H230304   6.525   6.219   1.972
10121TIP3   OH230305   2.831   4.913   1.953
10121TIP3    H130306   2.887   4.971   2.005
10121TIP3    H230307   2.743   4.926   1.989
10122TIP3   OH230308   4.719   1.699   3.846
10122TIP3    H130309   4.686   1.783   3.814
10122TIP3    H230310   4.646   1.638   3.833
10123TIP3   OH230311   7.265   3.319   4.588
10123TIP3    H130312   7.337   3.260   4.610
10123TIP3    H230313   7.307   3.397   4.553
10124TIP3   OH230314   4.420   3.206   2.042
10124TIP3    H130315   4.438   3.210   2.135
10124TIP3    H230316   4.372   3.287   2.023
10125TIP3   OH230317   1.036   7.566   0.609
10125TIP3    H130318   1.108   7.628   0.622
10125TIP3    H230319   1.013   7.576   0.516
10126TIP3   OH230320   5.304  -0.029   0.285
10126TIP3    H130321   5.355  -0.030   0.204
10126TIP3    H230322   5.267   0.059   0.290
10127TIP3   OH230323   6.361   5.521   3.035
10127TIP3    H130324   6.354   5.614   3.056
10127TIP3    H230325   6.283   5.503   2.983
10128TIP3   OH230326   5.101   7.053   0.357
10128TIP3    H130327   5.118   6.973   0.307
10128TIP3    H230328   5.086   7.121   0.292
10129TIP3   OH230329   5.350   5.093   5.619
10129TIP3    H130330   5.435   5.050   5.619
10129TIP3    H230331   5.343   5.131   5.531
10130TIP3   OH230332   4.078   7.176   5.968
10130TIP3    H130333   4.034   7.158   6.051
10130TIP3    H230334   4.062   7.269   5.952
10131TIP3   OH230335   5.623   0.028   6.004
10131TIP3    H130336   5.566   0.092   5.961
10131TIP3    H230337   5.627  -0.046   5.943
10132TIP3   OH230338   7.775   6.164   0.940
10132TIP3    H130339   7.752   6.148   1.031
10132TIP3    H230340   7.850   6.222   0.943
10133TIP3   OH230341   5.088   3.860   3.302
10133TIP3    H130342   5.067   3.867   3.209
10133TIP3    H230343   5.101   3.766   3.317
10134TIP3   OH230344   4.802   2.286   1.679
10134TIP3    H130345   4.791   2.313   1.588
10134TIP3    H230346   4.855   2.355   1.719
10135TIP3   OH230347   8.216   3.214   1.882
10135TIP3    H130348   8.221   3.291   1.826
10135TIP3    H230349   8.285   3.156   1.850
10136TIP3   OH230350   4.512   1.990   4.608
10136TIP3    H130351   4.461   1.925   4.561
10136TIP3    H230352   4.520   2.064   4.547
10137TIP3   OH230353   3.632   2.815   4.962
10137TIP3    H130354   3.562   2.789   5.021
10137TIP3    H230355   3.701   2.749   4.976
10138TIP3   OH230356   4.731   5.971   0.553
10138TIP3    H130357   4.794   6.025   0.506
10138TIP3    H230358   4.658   5.960   0.492
10139TIP3   OH230359   7.075   7.346   0.885
10139TIP3    H130360   7.019   7.347   0.962
10139TIP3    H230361   7.121   7.262   0.889
10140TIP3   OH230362   2.455   0.373   3.389
10140TIP3    H130363   2.382   0.424   3.356
10140TIP3    H230364   2.416   0.291   3.421
10141TIP3   OH230365   6.529   2.050   4.240
10141TIP3    H130366   6.588   2.109   4.287
10141TIP3    H230367   6.585   2.008   4.174
10142TIP3   OH230368   5.516   7.150   2.418
10142TIP3    H130369   5.596   7.178   2.463
10142TIP3    H230370   5.446   7.201   2.459
10143TIP3   OH230371   1.590   7.208   5.882
10143TIP3    H130372   1.661   7.144   5.887
10143TIP3    H230373   1.631   7.286   5.845
10144TIP3   OH230374   7.186   2.465   4.154
10144TIP3    H130375   7.117   2.480   4.090
10144TIP3    H230376   7.141   2.425   4.229
10145TIP3   OH230377   0.533   7.556   0.839
10145TIP3    H130378   0.472   7.505   0.786
10145TIP3    H230379   0.619   7.534   0.804
10146TIP3   OH230380   5.729   5.534   0.072
10146TIP3    H130381   5.651   5.520   0.018
10146TIP3    H230382   5.771   5.449   0.076
10147TIP3   OH230383   6.209   1.715   5.136
10147TIP3    H130384   6.162   1.712   5.219
10147TIP3    H230385   6.301   1.703   5.160
10148TIP3   OH230386   4.763   6.677   6.781
10148TIP3    H130387   4.728   6.746   6.837
10148TIP3    H230388   4.703   6.675   6.706
10149TIP3   OH230389   6.568   0.192   2.825
10149TIP3    H130390   6.490   0.224   2.779
10149TIP3    H230391   6.633   0.180   2.756
10150TIP3   OH230392   4.993   4.578   3.821
10150TIP3    H130393   5.069   4.581   3.763
10150TIP3    H230394   5.015   4.510   3.885
10151TIP3   OH230395   6.053   3.354   2.442
10151TIP3    H130396   6.042   3.290   2.372
10151TIP3    H230397   6.088   3.432   2.398
10152TIP3   OH230398   3.845   6.055   1.473
10152TIP3    H130399   3.881   6.055   1.562
10152TIP3    H230400   3.774   5.990   1.477
10153TIP3   OH230401   8.251   2.414   5.851
10153TIP3    H130402   8.225   2.384   5.764
10153TIP3    H230403   8.192   2.486   5.871
10154TIP3   OH230404   2.401   3.674   0.258
10154TIP3    H130405   2.362   3.587   0.261
10154TIP3    H230406   2.495   3.658   0.247
10155TIP3   OH230407   1.298   1.609   1.728
10155TIP3    H130408   1.275   1.601   1.821
10155TIP3    H230409   1.384   1.567   1.720
10156TIP3   OH230410   3.005   1.485   5.039
10156TIP3    H130411   3.092   1.523   5.051
10156TIP3    H230412   2.985   1.445   5.123
10157TIP3   OH230413   1.640   2.018   1.453
10157TIP3    H130414   1.698   1.975   1.391
10157TIP3    H230415   1.650   1.969   1.535
10158TIP3   OH230416   5.334   4.644   0.249
10158TIP3    H130417   5.426   4.661   0.231
10158TIP3    H230418   5.320   4.679   0.337
10159TIP3   OH230419   5.361   4.470   5.250
10159TIP3    H130420   5.407   4.533   5.195
10159TIP3    H230421   5.332   4.519   5.326
10160TIP3   OH230422   4.896   7.556   3.650
10160TIP3    H130423   4.808   7.526   3.629
10160TIP3    H230424   4.891   7.584   3.741
10161TIP3   OH230425   4.500   7.660   3.116
10161TIP3    H130426   4.495   7.632   3.025
10161TIP3    H230427   4.571   7.608   3.154
10162TIP3   OH230428   3.213   0.086   0.479
10162TIP3    H130429   3.252   0.088   0.567
10162TIP3    H230430   3.166   0.002   0.476
10163TIP3   OH230431   3.545   4.470   1.732
10163TIP3    H130432   3.459   4.429   1.720
10163TIP3    H230433   3.526   4.563   1.741
10164TIP3   OH230434   5.511   6.860   1.796
10164TIP3    H130435   5.540   6.782   1.749
10164TIP3    H230436   5.509   6.929   1.729
10165TIP3   OH230437   0.835   6.161   2.108
10165TIP3    H130438   0.824   6.172   2.203
10165TIP3    H230439   0.746   6.171   2.073
10166TIP3   OH230440   4.578   3.666   3.837
10166TIP3    H130441   4.546   3.653   3.926
10166TIP3    H230442   4.532   3.744   3.806
10167TIP3   OH230443   3.778   0.969   3.103
10167TIP3    H130444   3.861   0.937   3.137
10167TIP3    H230445   3.712   0.935   3.164
10168TIP3   OH230446   7.613   3.554   1.196
10168TIP3    H130447   7.663   3.622   1.151
10168TIP3    H230448   7.655   3.547   1.282
10169TIP3   OH230449   0.075   3.777   4.773
10169TIP3    H130450   0.005   3.726   4.733
10169TIP3    H230451   0.153   3.752   4.725
10170TIP3   OH230452   6.345   2.777   2.572
10170TIP3    H130453   6.369   2.865   2.601
10170TIP3    H230454   6.304   2.790   2.487
10171TIP3   OH230455   3.907   4.199   3.294
10171TIP3    H130456   3.834   4.188   3.356
10171TIP3    H230457   3.874   4.260   3.229
10172TIP3   OH230458   1.925   7.382   6.361
10172TIP3    H130459   1.983   7.306   6.359
10172TIP3    H230460   1.974   7.450   6.315
10173TIP3   OH230461   5.810   4.291   0.692
10173TIP3    H130462   5.816   4.377   0.734
10173TIP3    H230463   5.901   4.264   0.682
10174TIP3   OH230464   4.523   7.558   1.469
10174TIP3    H130465   4.597   7.500   1.451
10174TIP3    H230466   4.552   7.612   1.542
10175TIP3   OH230467   4.603   1.893   2.619
10175TIP3    H130468   4.662   1.818   2.613
10175TIP3    H230469   4.635   1.943   2.694
10176TIP3   OH230470   0.636   3.978   3.311
10176TIP3    H130471   0.706   3.982   3.246
10176TIP3    H230472   0.665   3.910   3.372
10177TIP3   OH230473   5.358   1.479   4.693
10177TIP3    H130474   5.325   1.414   4.630
10177TIP3    H230475   5.414   1.428   4.752
10178TIP3   OH230476   4.532   3.458   3.611
10178TIP3    H130477   4.443   3.480   3.584
10178TIP3    H230478   4.546   3.512   3.689
10179TIP3   OH230479   0.149   1.818   2.842
10179TIP3    H130480   0.062   1.779   2.852
10179TIP3    H230481   0.171   1.849   2.930
10180TIP3   OH230482   6.865   5.211   2.972
10180TIP3    H130483   6.937   5.244   3.025
10180TIP3    H230484   6.840   5.285   2.916
10181TIP3   OH230485   4.825   0.744   5.940
10181TIP3    H130486   4.824   0.818   6.002
10181TIP3    H230487   4.734   0.737   5.911
10182TIP3   OH230488   1.681   1.500   4.918
10182TIP3    H130489   1.665   1.423   4.863
10182TIP3    H230490   1.748   1.472   4.980
10183TIP3   OH230491   5.876   2.279   5.367
10183TIP3    H130492   5.881   2.223   5.445
10183TIP3    H230493   5.846   2.220   5.298
10184TIP3   OH230494   0.898   0.664   1.332
10184TIP3    H130495   0.830   0.603   1.302
10184TIP3    H230496   0.972   0.608   1.355
10185TIP3   OH230497   3.082   0.605   1.374
10185TIP3    H130498   3.107   0.545   1.303
10185TIP3    H230499   2.996   0.573   1.401
10186TIP3   OH230500   7.386   5.836   3.740
10186TIP3    H130501   7.464   5.783   3.755
10186TIP3    H230502   7.312   5.778   3.760
10187TIP3   OH230503   0.827   7.099   1.820
10187TIP3    H130504   0.867   7.119   1.904
10187TIP3    H230505   0.744   7.057   1.842
10188TIP3   OH230506   4.478   2.502   3.302
10188TIP3    H130507   4.424   2.485   3.224
10188TIP3    H230508   4.424   2.474   3.375
10189TIP3   OH230509   3.815   5.280   6.239
10189TIP3    H130510   3.725   5.254   6.261
10189TIP3    H230511   3.823   5.369   6.272
10190TIP3   OH230512   3.717   3.104   3.283
10190TIP3    H130513   3.708   3.009   3.295
10190TIP3    H230514   3.661   3.124   3.208
10191TIP3   OH230515   0.050   6.305   5.018
10191TIP3    H130516   0.078   6.396   5.028
10191TIP3    H230517   0.119   6.265   4.964
10192TIP3   OH230518   2.420   4.401   6.381
10192TIP3    H130519   2.424   4.307   6.399
10192TIP3    H230520   2.368   4.408   6.301
10193TIP3   OH230521   0.556   3.471   6.281
10193TIP3    H130522   0.499   3.396   6.264
10193TIP3    H230523   0.541   3.530   6.208
10194TIP3   OH230524   5.913   3.400   2.185
10194TIP3    H130525   5.954   3.350   2.113
10194TIP3    H230526   5.930   3.491   2.163
10195TIP3   OH230527   2.221   6.261   6.319
10195TIP3    H130528   2.306   6.235   6.284
10195TIP3    H230529   2.198   6.191   6.380
10196TIP3   OH230530   5.289   1.240   0.624
10196TIP3    H130531   5.195   1.231   0.609
10196TIP3    H230532   5.296   1.305   0.694
10197TIP3   OH230533   3.425   0.389   5.089
10197TIP3    H130534   3.453   0.341   5.012
10197TIP3    H230535   3.433   0.326   5.161
10198TIP3   OH230536   2.878   7.178   4.558
10198TIP3    H130537   2.900   7.105   4.616
10198TIP3    H230538   2.961   7.221   4.540
10199TIP3   OH230539   7.956   2.473   2.771
10199TIP3    H130540   7.980   2.382   2.759
10199TIP3    H230541   8.013   2.504   2.841
10200TIP3   OH230542   6.902   6.135   1.685
10200TIP3    H130543   6.867   6.165   1.768
10200TIP3    H230544   6.989   6.174   1.680
10201TIP3   OH230545   6.782   3.535   1.217
10201TIP3    H130546   6.733   3.560   1.138
10201TIP3    H230547   6.847   3.473   1.185
10202TIP3   OH230548   1.807   2.569   4.231
10202TIP3    H130549   1.902   2.562   4.231
10202TIP3    H230550   1.778   2.499   4.171
10203TIP3   OH230551   0.094   4.085   0.944
10203TIP3    H130552   0.177   4.095   0.992
10203TIP3    H230553   0.084   4.168   0.897
10204TIP3   OH230554   1.525   2.029   5.788
10204TIP3    H130555   1.561   2.072   5.711
10204TIP3    H230556   1.449   1.981   5.756
10205TIP3   OH230557   3.300   2.847   6.224
10205TIP3    H130558   3.298   2.752   6.214
10205TIP3    H230559   3.360   2.862   6.297
10206TIP3   OH230560   3.804   3.932   1.811
10206TIP3    H130561   3.871   3.920   1.744
10206TIP3    H230562   3.736   3.867   1.789
10207TIP3   OH230563   6.410   7.120   3.923
10207TIP3    H130564   6.464   7.189   3.962
10207TIP3    H230565   6.470   7.074   3.865
10208TIP3   OH230566   2.511   6.883   2.601
10208TIP3    H130567   2.591   6.935   2.596
10208TIP3    H230568   2.541   6.793   2.613
10209TIP3   OH230569   3.603   2.290   0.261
10209TIP3    H130570   3.633   2.208   0.300
10209TIP3    H230571   3.507   2.285   0.265
10210TIP3   OH230572   1.892   4.673   3.796
10210TIP3    H130573   1.913   4.741   3.731
10210TIP3    H230574   1.846   4.720   3.866
10211TIP3   OH230575   1.095   2.295   4.071
10211TIP3    H130576   1.171   2.248   4.104
10211TIP3    H230577   1.127   2.341   3.994
10212TIP3   OH230578   4.363   5.525   1.873
10212TIP3    H130579   4.388   5.611   1.839
10212TIP3    H230580   4.269   5.533   1.892
10213TIP3   OH230581   0.724   3.007   1.350
10213TIP3    H130582   0.737   3.059   1.270
10213TIP3    H230583   0.775   3.052   1.417
10214TIP3   OH230584   3.708   1.831   1.627
10214TIP3    H130585   3.761   1.758   1.660
10214TIP3    H230586   3.686   1.805   1.538
10215TIP3   OH230587   1.528   4.236   4.515
10215TIP3    H130588   1.570   4.293   4.451
10215TIP3    H230589   1.439   4.226   4.483
10216TIP3   OH230590   1.380   5.515   1.481
10216TIP3    H130591   1.357   5.533   1.572
10216TIP3    H230592   1.458   5.568   1.466
10217TIP3   OH230593   4.339   1.012   4.447
10217TIP3    H130594   4.331   1.084   4.510
10217TIP3    H230595   4.252   1.007   4.406
10218TIP3   OH230596   3.431   2.677   1.801
10218TIP3    H130597   3.445   2.750   1.740
10218TIP3    H230598   3.478   2.604   1.761
10219TIP3   OH230599   5.761   1.685   1.509
10219TIP3    H130600   5.783   1.775   1.533
10219TIP3    H230601   5.666   1.680   1.518
10220TIP3   OH230602   6.053   6.663   1.309
10220TIP3    H130603   6.118   6.733   1.310
10220TIP3    H230604   6.104   6.583   1.301
10221TIP3   OH230605   2.974   2.850   6.644
10221TIP3    H130606   3.066   2.843   6.670
10221TIP3    H230607   2.954   2.944   6.651
10222TIP3   OH230608   1.300   1.051   2.481
10222TIP3    H130609   1.302   0.966   2.436
10222TIP3    H230610   1.335   1.032   2.568
10223TIP3   OH230611   7.812   4.288   5.521
10223TIP3    H130612   7.783   4.333   5.601
10223TIP3    H230613   7.735   4.288   5.464
10224TIP3   OH230614   4.147   3.402   5.835
10224TIP3    H130615   4.061   3.362   5.846
10224TIP3    H230616   4.132   3.472   5.771
10225TIP3   OH230617   0.796   0.743   4.609
10225TIP3    H130618   0.857   0.795   4.662
10225TIP3    H230619   0.710   0.765   4.643
10226TIP3   OH230620   7.943   6.656   1.818
10226TIP3    H130621   7.870   6.647   1.879
10226TIP3    H230622   7.923   6.736   1.769
10227TIP3   OH230623   0.771   7.123   4.760
10227TIP3    H130624   0.755   7.189   4.693
10227TIP3    H230625   0.743   7.041   4.720
10228TIP3   OH230626   5.392   3.546   1.517
10228TIP3    H130627   5.408   3.457   1.484
10228TIP3    H230628   5.303   3.543   1.550
10229TIP3   OH230629   4.512   4.193   6.440
10229TIP3    H130630   4.534   4.112   6.488
10229TIP3    H230631   4.416   4.197   6.444
10230TIP3   OH230632   6.166   6.142   4.006
10230TIP3    H130633   6.131   6.213   4.061
10230TIP3    H230634   6.112   6.066   4.029
10231TIP3   OH230635   3.062   5.148   5.485
10231TIP3    H130636   3.076   5.100   5.567
10231TIP3    H230637   3.130   5.216   5.485
10232TIP3   OH230638   6.361   6.430   0.945
10232TIP3    H130639   6.431   6.366   0.933
10232TIP3    H230640   6.374   6.464   1.033
10233TIP3   OH230641   7.026  -0.008   3.156
10233TIP3    H130642   7.089  -0.069   3.116
10233TIP3    H230643   7.071   0.077   3.155
10234TIP3   OH230644   3.894   5.163   5.134
10234TIP3    H130645   3.972   5.217   5.135
10234TIP3    H230646   3.926   5.073   5.143
10235TIP3   OH230647   0.869   5.691   3.300
10235TIP3    H130648   0.879   5.699   3.395
10235TIP3    H230649   0.957   5.704   3.266
10236TIP3   OH230650   1.577   4.377   0.124
10236TIP3    H130651   1.634   4.423   0.063
10236TIP3    H230652   1.634   4.318   0.172
10237TIP3   OH230653   7.846   5.623   5.347
10237TIP3    H130654   7.833   5.718   5.358
10237TIP3    H230655   7.790   5.599   5.273
10238TIP3   OH230656   0.583   7.183   2.189
10238TIP3    H130657   0.639   7.145   2.121
10238TIP3    H230658   0.645   7.222   2.251
10239TIP3   OH230659   3.434   5.731   0.439
10239TIP3    H130660   3.512   5.712   0.492
10239TIP3    H230661   3.464   5.727   0.349
10240TIP3   OH230662   7.357   4.388   4.624
10240TIP3    H130663   7.416   4.463   4.624
10240TIP3    H230664   7.415   4.312   4.620
10241TIP3   OH230665   7.589   4.662   0.242
10241TIP3    H130666   7.659   4.690   0.182
10241TIP3    H230667   7.612   4.572   0.265
10242TIP3   OH230668   2.381   1.060   4.474
10242TIP3    H130669   2.454   1.100   4.521
10242TIP3    H230670   2.398   0.966   4.480
10243TIP3   OH230671   3.069   1.766   3.717
10243TIP3    H130672   3.023   1.707   3.657
10243TIP3    H230673   3.160   1.734   3.716
10244TIP3   OH230674   0.770   1.793   3.400
10244TIP3    H130675   0.859   1.766   3.423
10244TIP3    H230676   0.736   1.834   3.480
10245TIP3   OH230677   1.801   2.962   5.977
10245TIP3    H130678   1.708   2.958   6.001
10245TIP3    H230679   1.808   2.910   5.897
10246TIP3   OH230680   5.986   7.404   6.395
10246TIP3    H130681   5.904   7.364   6.364
10246TIP3    H230682   5.958   7.476   6.451
10247TIP3   OH230683   0.082   1.475   1.453
10247TIP3    H130684   0.120   1.510   1.533
10247TIP3    H230685   0.023   1.543   1.422
10248TIP3   OH230686   3.703   3.681   4.216
10248TIP3    H130687   3.701   3.734   4.296
10248TIP3    H230688   3.742   3.598   4.243
10249TIP3   OH230689   7.401   7.409   5.714
10249TIP3    H130690   7.352   7.345   5.663
10249TIP3    H230691   7.468   7.442   5.653
10250TIP3   OH230692   8.156   6.698   4.690
10250TIP3    H130693   8.081   6.744   4.652
10250TIP3    H230694   8.175   6.628   4.627
10251TIP3   OH230695   2.638   0.021   1.085
10251TIP3    H130696   2.660   0.019   1.178
10251TIP3    H230697   2.587   0.102   1.075
10252TIP3   OH230698   1.572   4.361   5.023
10252TIP3    H130699   1.586   4.408   4.941
10252TIP3    H230700   1.628   4.284   5.017
10253TIP3   OH230701   3.533   0.877   3.265
10253TIP3    H130702   3.544   0.948   3.329
10253TIP3    H230703   3.440   0.878   3.243
10254TIP3   OH230704   2.772   0.034   1.797
10254TIP3    H130705   2.811  -0.047   1.763
10254TIP3    H230706   2.767   0.092   1.721
10255TIP3   OH230707   0.733   5.487   0.916
10255TIP3    H130708   0.709   5.475   0.824
10255TIP3    H230709   0.671   5.432   0.965
10256TIP3   OH230710   7.101   7.178   3.774
10256TIP3    H130711   7.057   7.263   3.780
10256TIP3    H230712   7.189   7.200   3.743
10257TIP3   OH230713   1.423   3.592   3.598
10257TIP3    H130714   1.500   3.576   3.544
10257TIP3    H230715   1.417   3.515   3.655
10258TIP3   OH230716   2.890   3.362   0.486
10258TIP3    H130717   2.932   3.337   0.568
10258TIP3    H230718   2.829   3.291   0.468
10259TIP3   OH230719   1.617   7.459   2.212
10259TIP3    H130720   1.643   7.390   2.272
10259TIP3    H230721   1.581   7.413   2.136
10260TIP3   OH230722   6.535   7.602   2.828
10260TIP3    H130723   6.443   7.581   2.847
10260TIP3    H230724   6.565   7.532   2.770
10261TIP3   OH230725   1.557   7.571   5.107
10261TIP3    H130726   1.511   7.647   5.071
10261TIP3    H230727   1.486   7.513   5.136
10262TIP3   OH230728   6.722   0.888   2.367
10262TIP3    H130729   6.696   0.797   2.378
10262TIP3    H230730   6.785   0.887   2.296
10263TIP3   OH230731   0.052   6.977   3.527
10263TIP3    H130732   0.101   7.035   3.586
10263TIP3    H230733   0.088   6.996   3.440
10264TIP3   OH230734   0.885   3.074   4.093
10264TIP3    H130735   0.893   3.157   4.048
10264TIP3    H230736   0.953   3.076   4.161
10265TIP3   OH230737   0.821   0.917   2.734
10265TIP3    H130738   0.793   0.954   2.817
10265TIP3    H230739   0.826   0.823   2.750
10266TIP3   OH230740   0.323   1.255   0.622
10266TIP3    H130741   0.315   1.350   0.635
10266TIP3    H230742   0.349   1.221   0.708
10267TIP3   OH230743   5.959   1.236   6.319
10267TIP3    H130744   5.962   1.241   6.414
10267TIP3    H230745   6.042   1.274   6.291
10268TIP3   OH230746   0.525   1.745   4.140
10268TIP3    H130747   0.537   1.807   4.213
10268TIP3    H230748   0.434   1.717   4.148
10269TIP3   OH230749   8.106   0.622   4.247
10269TIP3    H130750   8.123   0.648   4.156
10269TIP3    H230751   8.022   0.575   4.243
10270TIP3   OH230752   2.840   4.187   1.171
10270TIP3    H130753   2.778   4.171   1.100
10270TIP3    H230754   2.786   4.217   1.244
10271TIP3   OH230755   5.267   3.108   6.413
10271TIP3    H130756   5.303   3.025   6.444
10271TIP3    H230757   5.344   3.163   6.399
10272TIP3   OH230758   4.698   4.079   5.674
10272TIP3    H130759   4.665   4.088   5.584
10272TIP3    H230760   4.765   4.011   5.668
10273TIP3   OH230761   5.545   7.633   3.177
10273TIP3    H130762   5.496   7.684   3.242
10273TIP3    H230763   5.584   7.561   3.227
10274TIP3   OH230764   0.134   0.017   2.068
10274TIP3    H130765   0.129   0.105   2.103
10274TIP3    H230766   0.192  -0.030   2.129
10275TIP3   OH230767   0.073   5.513   4.987
10275TIP3    H130768   0.145   5.461   5.023
10275TIP3    H230769   0.105   5.543   4.902
10276TIP3   OH230770   5.071   4.607   5.235
10276TIP3    H130771   5.030   4.524   5.212
10276TIP3    H230772   4.998   4.665   5.255
10277TIP3   OH230773   8.110   0.740   1.279
10277TIP3    H130774   8.175   0.722   1.348
10277TIP3    H230775   8.133   0.827   1.247
10278TIP3   OH230776   8.271   3.792   5.390
10278TIP3    H130777   8.201   3.856   5.373
10278TIP3    H230778   8.305   3.815   5.477
10279TIP3   OH230779   6.481   6.499   6.182
10279TIP3    H130780   6.424   6.573   6.162
10279TIP3    H230781   6.568   6.529   6.159
10280TIP3   OH230782   4.930   4.256   4.522
10280TIP3    H130783   4.864   4.325   4.525
10280TIP3    H230784   5.013   4.303   4.525
10281TIP3   OH230785   6.864   0.723   4.589
10281TIP3    H130786   6.905   0.642   4.558
10281TIP3    H230787   6.856   0.711   4.683
10282TIP3   OH230788   2.233   0.030   6.394
10282TIP3    H130789   2.272   0.097   6.450
10282TIP3    H230790   2.304   0.003   6.337
10283TIP3   OH230791   1.889   0.699   0.786
10283TIP3    H130792   1.927   0.768   0.840
10283TIP3    H230793   1.933   0.709   0.701
10284TIP3   OH230794   8.343   5.000   5.795
10284TIP3    H130795   8.364   5.051   5.716
10284TIP3    H230796   8.302   5.064   5.853
10285TIP3   OH230797   7.248   0.899   6.189
10285TIP3    H130798   7.290   0.911   6.104
10285TIP3    H230799   7.298   0.955   6.249
10286TIP3   OH230800   6.549   4.847   5.477
10286TIP3    H130801   6.531   4.867   5.386
10286TIP3    H230802   6.510   4.761   5.491
10287TIP3   OH230803   4.300   2.698   6.456
10287TIP3    H130804   4.302   2.659   6.368
10287TIP3    H230805   4.310   2.792   6.441
10288TIP3   OH230806   6.737   1.078   0.865
10288TIP3    H130807   6.799   1.101   0.934
10288TIP3    H230808   6.734   1.156   0.809
10289TIP3   OH230809   5.729   6.346   5.935
10289TIP3    H130810   5.758   6.365   5.846
10289TIP3    H230811   5.804   6.368   5.991
10290TIP3   OH230812   0.580   7.234   3.701
10290TIP3    H130813   0.559   7.167   3.766
10290TIP3    H230814   0.664   7.207   3.665
10291TIP3   OH230815   3.169   0.548   3.084
10291TIP3    H130816   3.245   0.510   3.127
10291TIP3    H230817   3.200   0.570   2.996
10292TIP3   OH230818   4.772   0.664   0.909
10292TIP3    H130819   4.691   0.625   0.876
10292TIP3    H230820   4.776   0.634   1.000
10293TIP3   OH230821   3.780   3.771   3.386
10293TIP3    H130822   3.851   3.755   3.324
10293TIP3    H230823   3.706   3.721   3.352
10294TIP3   OH230824   0.311   3.350   2.417
10294TIP3    H130825   0.326   3.278   2.356
10294TIP3    H230826   0.311   3.310   2.504
10295TIP3   OH230827   7.714   7.272   0.112
10295TIP3    H130828   7.686   7.202   0.054
10295TIP3    H230829   7.705   7.236   0.200
10296TIP3   OH230830   2.448   2.788   5.473
10296TIP3    H130831   2.396   2.738   5.410
10296TIP3    H230832   2.518   2.827   5.420
10297TIP3   OH230833   5.999   3.218   1.928
10297TIP3    H130834   6.026   3.138   1.974
10297TIP3    H230835   5.932   3.188   1.866
10298TIP3   OH230836   0.750   3.003   6.769
10298TIP3    H130837   0.655   2.988   6.767
10298TIP3    H230838   0.782   2.960   6.690
10299TIP3   OH230839   8.098   0.552   1.612
10299TIP3    H130840   8.113   0.641   1.581
10299TIP3    H230841   8.181   0.506   1.595
10300TIP3   OH230842   4.386   3.725   3.303
10300TIP3    H130843   4.308   3.773   3.328
10300TIP3    H230844   4.354   3.639   3.275
10301TIP3   OH230845   4.073   5.389   5.976
10301TIP3    H130846   3.999   5.422   6.027
10301TIP3    H230847   4.110   5.319   6.030
10302TIP3   OH230848   5.139   3.866   2.051
10302TIP3    H130849   5.161   3.902   1.965
10302TIP3    H230850   5.186   3.921   2.113
10303TIP3   OH230851   2.791   0.824   5.381
10303TIP3    H130852   2.698   0.830   5.404
10303TIP3    H230853   2.808   0.904   5.331
10304TIP3   OH230854   1.294   4.515   1.651
10304TIP3    H130855   1.251   4.551   1.573
10304TIP3    H230856   1.321   4.592   1.701
10305TIP3   OH230857   3.808   6.952   3.782
10305TIP3    H130858   3.754   6.873   3.778
10305TIP3    H230859   3.898   6.920   3.785
10306TIP3   OH230860   6.633   4.488   6.756
10306TIP3    H130861   6.722   4.454   6.746
10306TIP3    H230862   6.576   4.418   6.724
10307TIP3   OH230863   0.957   5.808   1.686
10307TIP3    H130864   0.910   5.763   1.616
10307TIP3    H230865   1.048   5.807   1.657
10308TIP3   OH230866   2.747   0.891   4.198
10308TIP3    H130867   2.653   0.878   4.189
10308TIP3    H230868   2.770   0.955   4.131
10309TIP3   OH230869   7.568   5.654   2.515
10309TIP3    H130870   7.498   5.589   2.520
10309TIP3    H230871   7.628   5.620   2.449
10310TIP3   OH230872   2.921   4.942   3.409
10310TIP3    H130873   2.976   4.870   3.377
10310TIP3    H230874   2.907   4.997   3.332
10311TIP3   OH230875   4.101   5.899   5.053
10311TIP3    H130876   4.033   5.965   5.043
10311TIP3    H230877   4.092   5.869   5.144
10312TIP3   OH230878   2.518   4.249   3.363
10312TIP3    H130879   2.599   4.200   3.354
10312TIP3    H230880   2.545   4.339   3.378
10313TIP3   OH230881   4.236   0.304   3.526
10313TIP3    H130882   4.279   0.276   3.606
10313TIP3    H230883   4.242   0.399   3.527
10314TIP3   OH230884   3.716   5.611   4.628
10314TIP3    H130885   3.625   5.606   4.597
10314TIP3    H230886   3.755   5.681   4.576
10315TIP3   OH230887   2.276   6.783   3.821
10315TIP3    H130888   2.333   6.860   3.830
10315TIP3    H230889   2.321   6.714   3.870
10316TIP3   OH230890   0.750   5.714   1.063
10316TIP3    H130891   0.735   5.640   1.004
10316TIP3    H230892   0.828   5.756   1.029
10317TIP3   OH230893   4.664   1.729   1.340
10317TIP3    H130894   4.716   1.678   1.278
10317TIP3    H230895   4.694   1.701   1.426
10318TIP3   OH230896   3.120   4.279   4.764
10318TIP3    H130897   3.152   4.354   4.715
10318TIP3    H230898   3.060   4.234   4.704
10319TIP3   OH230899   4.319   0.470   4.846
10319TIP3    H130900   4.225   0.474   4.831
10319TIP3    H230901   4.332   0.384   4.887
10320TIP3   OH230902   3.883   1.978   6.056
10320TIP3    H130903   3.807   1.945   6.104
10320TIP3    H230904   3.934   1.900   6.036
10321TIP3   OH230905   1.213   0.222   5.805
10321TIP3    H130906   1.165   0.255   5.881
10321TIP3    H230907   1.269   0.295   5.779
10322TIP3   OH230908   6.617   2.579   1.698
10322TIP3    H130909   6.576   2.528   1.628
10322TIP3    H230910   6.593   2.670   1.678
10323TIP3   OH230911   1.019   7.211   1.279
10323TIP3    H130912   0.924   7.215   1.292
10323TIP3    H230913   1.055   7.252   1.358
10324TIP3   OH230914   5.000   5.460   4.632
10324TIP3    H130915   4.921   5.421   4.594
10324TIP3    H230916   5.004   5.548   4.594
10325TIP3   OH230917   2.879   3.273   0.744
10325TIP3    H130918   2.865   3.180   0.762
10325TIP3    H230919   2.811   3.317   0.794
10326TIP3   OH230920   7.946   2.530   6.227
10326TIP3    H130921   7.909   2.575   6.304
10326TIP3    H230922   7.880   2.543   6.158
10327TIP3   OH230923   8.063   3.798   5.810
10327TIP3    H130924   7.978   3.825   5.847
10327TIP3    H230925   8.108   3.881   5.793
10328TIP3   OH230926   0.800   3.046   3.064
10328TIP3    H130927   0.766   3.134   3.077
10328TIP3    H230928   0.880   3.058   3.013
10329TIP3   OH230929   0.233   2.345   5.634
10329TIP3    H130930   0.188   2.262   5.623
10329TIP3    H230931   0.163   2.410   5.644
10330TIP3   OH230932   4.538   7.168   6.487
10330TIP3    H130933   4.452   7.128   6.472
10330TIP3    H230934   4.545   7.174   6.582
10331TIP3   OH230935   5.588   3.519   1.739
10331TIP3    H130936   5.571   3.513   1.645
10331TIP3    H230937   5.589   3.613   1.757
10332TIP3   OH230938   1.922   7.768   3.248
10332TIP3    H130939   1.948   7.699   3.186
10332TIP3    H230940   1.832   7.788   3.224
10333TIP3   OH230941   7.252   7.005   3.500
10333TIP3    H130942   7.325   6.960   3.456
10333TIP3    H230943   7.223   6.944   3.567
10334TIP3   OH230944   7.762   2.283   3.349
10334TIP3    H130945   7.726   2.337   3.419
10334TIP3    H230946   7.855   2.306   3.346
10335TIP3   OH230947   6.046   1.572   6.285
10335TIP3    H130948   6.027   1.642   6.223
10335TIP3    H230949   6.081   1.501   6.231
10336TIP3   OH230950   2.397   1.969   3.647
10336TIP3    H130951   2.423   1.985   3.557
10336TIP3    H230952   2.409   1.874   3.659
10337TIP3   OH230953   3.691   6.452   2.904
10337TIP3    H130954   3.762   6.462   2.841
10337TIP3    H230955   3.678   6.540   2.940
10338TIP3   OH230956   2.518   7.149   1.662
10338TIP3    H130957   2.491   7.237   1.636
10338TIP3    H230958   2.472   7.131   1.743
10339TIP3   OH230959   7.980   5.451   5.543
10339TIP3    H130960   8.029   5.528   5.570
10339TIP3    H230961   7.942   5.474   5.458
10340TIP3   OH230962   2.899   6.276   6.732
10340TIP3    H130963   2.877   6.240   6.819
10340TIP3    H230964   2.957   6.211   6.693
10341TIP3   OH230965   7.258   6.577   2.709
10341TIP3    H130966   7.313   6.649   2.679
10341TIP3    H230967   7.291   6.501   2.660
10342TIP3   OH230968   0.224   5.844   2.352
10342TIP3    H130969   0.151   5.901   2.328
10342TIP3    H230970   0.291   5.861   2.285
10343TIP3   OH230971   2.237   3.628   4.850
10343TIP3    H130972   2.325   3.665   4.843
10343TIP3    H230973   2.199   3.639   4.763
10344TIP3   OH230974   1.858   7.791   4.181
10344TIP3    H130975   1.917   7.866   4.178
10344TIP3    H230976   1.791   7.811   4.115
10345TIP3   OH230977   3.002   4.008   4.265
10345TIP3    H130978   2.932   4.018   4.200
10345TIP3    H230979   3.083   4.008   4.214
10346TIP3   OH230980   3.834   5.647   3.223
10346TIP3    H130981   3.777   5.616   3.293
10346TIP3    H230982   3.786   5.718   3.182
10347TIP3   OH230983   1.054   2.940   3.603
10347TIP3    H130984   1.140   2.897   3.610
10347TIP3    H230985   1.066   3.006   3.535
10348TIP3   OH230986   6.808   1.844   6.012
10348TIP3    H130987   6.735   1.834   5.951
10348TIP3    H230988   6.800   1.770   6.072
10349TIP3   OH230989   2.275   3.999   4.901
10349TIP3    H130990   2.209   4.068   4.898
10349TIP3    H230991   2.236   3.930   4.954
10350TIP3   OH230992   3.425   6.937   3.748
10350TIP3    H130993   3.423   6.875   3.821
10350TIP3    H230994   3.345   6.989   3.758
10351TIP3   OH230995   1.182   0.522   3.755
10351TIP3    H130996   1.165   0.611   3.786
10351TIP3    H230997   1.106   0.471   3.784
10352TIP3   OH230998   4.754   3.174   0.083
10352TIP3    H130999   4.695   3.183   0.157
10352TIP3    H231000   4.799   3.091   0.097
10353TIP3   OH231001   7.581   2.393   0.176
10353TIP3    H131002   7.591   2.343   0.257
10353TIP3    H231003   7.605   2.483   0.200
10354TIP3   OH231004   0.732   4.862   3.347
10354TIP3    H131005   0.766   4.902   3.267
10354TIP3    H231006   0.638   4.878   3.343
10355TIP3   OH231007   7.317   1.000   5.888
10355TIP3    H131008   7.319   1.042   5.802
10355TIP3    H231009   7.398   0.948   5.891
10356TIP3   OH231010   6.791   3.969   0.663
10356TIP3    H131011   6.872   4.014   0.687
10356TIP3    H231012   6.808   3.935   0.575
10357TIP3   OH231013   4.160   7.689   5.247
10357TIP3    H131014   4.159   7.690   5.151
10357TIP3    H231015   4.105   7.615   5.271
10358TIP3   OH231016   5.884   1.517   2.914
10358TIP3    H131017   5.978   1.525   2.931
10358TIP3    H231018   5.874   1.550   2.825
10359TIP3   OH231019   7.111   2.431   6.025
10359TIP3    H131020   7.067   2.367   6.080
10359TIP3    H231021   7.117   2.509   6.080
10360TIP3   OH231022   6.159   0.684   2.670
10360TIP3    H131023   6.228   0.746   2.644
10360TIP3    H231024   6.103   0.677   2.593
10361TIP3   OH231025   1.130   5.336   1.766
10361TIP3    H131026   1.085   5.368   1.844
10361TIP3    H231027   1.206   5.289   1.799
10362TIP3   OH231028   0.242   6.261   2.883
10362TIP3    H131029   0.324   6.212   2.893
10362TIP3    H231030   0.262   6.349   2.913
10363TIP3   OH231031   5.479   3.697   2.669
10363TIP3    H131032   5.418   3.628   2.642
10363TIP3    H231033   5.479   3.758   2.595
10364TIP3   OH231034   7.130   4.567   3.678
10364TIP3    H131035   7.216   4.603   3.657
10364TIP3    H231036   7.079   4.577   3.598
10365TIP3   OH231037   6.321   2.512   6.053
10365TIP3    H131038   6.272   2.567   5.991
10365TIP3    H231039   6.347   2.435   6.002
10366TIP3   OH231040   7.211   5.891   4.895
10366TIP3    H131041   7.285   5.896   4.834
10366TIP3    H231042   7.251   5.899   4.981
10367TIP3   OH231043   8.004   0.294   3.556
10367TIP3    H131044   7.962   0.331   3.479
10367TIP3    H231045   7.935   0.294   3.623
10368TIP3   OH231046   7.687   5.700   1.180
10368TIP3    H131047   7.662   5.701   1.088
10368TIP3    H231048   7.739   5.779   1.193
10369TIP3   OH231049   3.220   6.544   1.725
10369TIP3    H131050   3.297   6.513   1.677
10369TIP3    H231051   3.153   6.478   1.709
10370TIP3   OH231052   1.903   3.921   3.252
10370TIP3    H131053   1.855   3.991   3.208
10370TIP3    H231054   1.896   3.846   3.192
10371TIP3   OH231055   6.199   7.689   6.451
10371TIP3    H131056   6.197   7.651   6.363
10371TIP3    H231057   6.256   7.631   6.501
10372TIP3   OH231058   2.661   4.706   4.814
10372TIP3    H131059   2.628   4.628   4.769
10372TIP3    H231060   2.593   4.728   4.877
10373TIP3   OH231061   2.330   5.911   0.349
10373TIP3    H131062   2.378   5.857   0.287
10373TIP3    H231063   2.340   6.000   0.316
10374TIP3   OH231064   0.378   5.288   3.569
10374TIP3    H131065   0.468   5.313   3.549
10374TIP3    H231066   0.367   5.312   3.661
10375TIP3   OH231067   8.030   5.192   2.742
10375TIP3    H131068   8.039   5.251   2.666
10375TIP3    H231069   8.116   5.191   2.782
10376TIP3   OH231070   7.645   1.745   4.507
10376TIP3    H131071   7.728   1.741   4.555
10376TIP3    H231072   7.589   1.801   4.561
10377TIP3   OH231073   1.976   6.751   3.073
10377TIP3    H131074   1.929   6.684   3.123
10377TIP3    H231075   2.028   6.702   3.010
10378TIP3   OH231076   5.944   1.394   3.922
10378TIP3    H131077   6.033   1.364   3.942
10378TIP3    H231078   5.952   1.489   3.915
10379TIP3   OH231079   3.568   7.664   0.131
10379TIP3    H131080   3.631   7.637   0.199
10379TIP3    H231081   3.623   7.681   0.054
10380TIP3   OH231082   5.805   1.658   0.738
10380TIP3    H131083   5.783   1.610   0.658
10380TIP3    H231084   5.794   1.750   0.713
10381TIP3   OH231085   5.266   4.094   3.167
10381TIP3    H131086   5.211   4.017   3.154
10381TIP3    H231087   5.354   4.059   3.180
10382TIP3   OH231088   3.635   5.629   4.971
10382TIP3    H131089   3.698   5.688   4.928
10382TIP3    H231090   3.681   5.545   4.975
10383TIP3   OH231091   7.135   2.437   2.271
10383TIP3    H131092   7.057   2.437   2.327
10383TIP3    H231093   7.104   2.471   2.187
10384TIP3   OH231094   7.002   4.886   4.001
10384TIP3    H131095   7.026   4.891   4.094
10384TIP3    H231096   7.029   4.798   3.975
10385TIP3   OH231097   4.412   6.487   3.246
10385TIP3    H131098   4.494   6.438   3.245
10385TIP3    H231099   4.414   6.535   3.329
10386TIP3   OH231100   4.107   1.567   2.917
10386TIP3    H131101   4.142   1.522   2.839
10386TIP3    H231102   4.184   1.600   2.962
10387TIP3   OH231103   1.103   7.362   0.771
10387TIP3    H131104   1.067   7.406   0.694
10387TIP3    H231105   1.165   7.425   0.808
10388TIP3   OH231106   5.448   1.164   2.247
10388TIP3    H131107   5.533   1.205   2.231
10388TIP3    H231108   5.462   1.106   2.322
10389TIP3   OH231109   4.064   4.261   2.126
10389TIP3    H131110   4.083   4.228   2.038
10389TIP3    H231111   3.986   4.212   2.153
10390TIP3   OH231112   6.348   0.046   4.108
10390TIP3    H131113   6.320   0.008   4.191
10390TIP3    H231114   6.395   0.126   4.132
10391TIP3   OH231115   0.323   2.931   0.618
10391TIP3    H131116   0.370   3.013   0.602
10391TIP3    H231117   0.243   2.939   0.566
10392TIP3   OH231118   0.229   2.361   1.622
10392TIP3    H131119   0.280   2.343   1.701
10392TIP3    H231120   0.156   2.299   1.626
10393TIP3   OH231121   6.467   0.698   3.307
10393TIP3    H131122   6.378   0.688   3.274
10393TIP3    H231123   6.523   0.655   3.242
10394TIP3   OH231124   1.006   3.717   0.029
10394TIP3    H131125   0.978   3.626   0.019
10394TIP3    H231126   1.003   3.753  -0.060
10395TIP3   OH231127   8.196   2.120   2.432
10395TIP3    H131128   8.164   2.096   2.345
10395TIP3    H231129   8.135   2.186   2.463
10396TIP3   OH231130   7.033   2.264   1.695
10396TIP3    H131131   6.958   2.312   1.728
10396TIP3    H231132   7.093   2.332   1.664
10397TIP3   OH231133   2.615   0.069   0.077
10397TIP3    H131134   2.650   0.135   0.018
10397TIP3    H231135   2.676   0.067   0.150
10398TIP3   OH231136   3.955  -0.040   1.275
10398TIP3    H131137   3.923   0.050   1.265
10398TIP3    H231138   4.037  -0.031   1.323
10399TIP3   OH231139   6.161   1.821   1.660
10399TIP3    H131140   6.255   1.829   1.648
10399TIP3    H231141   6.148   1.731   1.692
10400TIP3   OH231142   5.547   4.802   0.951
10400TIP3    H131143   5.589   4.821   1.035
10400TIP3    H231144   5.534   4.707   0.952
10401TIP3   OH231145   0.837   6.805   0.392
10401TIP3    H131146   0.791   6.732   0.351
10401TIP3    H231147   0.923   6.769   0.414
10402TIP3   OH231148   4.332   5.083   2.131
10402TIP3    H131149   4.243   5.095   2.165
10402TIP3    H231150   4.388   5.084   2.208
10403TIP3   OH231151   0.229   5.905   6.163
10403TIP3    H131152   0.295   5.883   6.229
10403TIP3    H231153   0.146   5.877   6.201
10404TIP3   OH231154   5.129   1.000  -0.046
10404TIP3    H131155   5.161   0.971   0.039
10404TIP3    H231156   5.044   1.039  -0.028
10405TIP3   OH231157   3.940   5.380   1.416
10405TIP3    H131158   4.002   5.322   1.459
10405TIP3    H231159   3.978   5.468   1.426
10406TIP3   OH231160   4.117   5.160   0.112
10406TIP3    H131161   4.186   5.101   0.143
10406TIP3    H231162   4.143   5.182   0.022
10407TIP3   OH231163   2.396   6.509   2.808
10407TIP3    H131164   2.359   6.432   2.765
10407TIP3    H231165   2.461   6.541   2.745
10408TIP3   OH231166   7.388   0.447   4.058
10408TIP3    H131167   7.451   0.508   4.095
10408TIP3    H231168   7.440   0.392   3.999
10409TIP3   OH231169   4.242   7.391   0.723
10409TIP3    H131170   4.147   7.385   0.715
10409TIP3    H231171   4.268   7.307   0.760
10410TIP3   OH231172   7.743   7.576   2.870
10410TIP3    H131173   7.798   7.653   2.857
10410TIP3    H231174   7.706   7.587   2.957
10411TIP3   OH231175   0.698   7.038   0.396
10411TIP3    H131176   0.620   7.006   0.442
10411TIP3    H231177   0.753   6.961   0.387
10412TIP3   OH231178   0.292   7.487   5.878
10412TIP3    H131179   0.346   7.435   5.818
10412TIP3    H231180   0.290   7.437   5.959
10413TIP3   OH231181   3.170   2.148   0.570
10413TIP3    H131182   3.176   2.078   0.504
10413TIP3    H231183   3.254   2.146   0.614
10414TIP3   OH231184   5.344   0.435   1.042
10414TIP3    H131185   5.296   0.367   0.996
10414TIP3    H231186   5.386   0.487   0.973
10415TIP3   OH231187   3.993   3.589   6.095
10415TIP3    H131188   4.057   3.562   6.161
10415TIP3    H231189   3.926   3.520   6.097
10416TIP3   OH231190   7.749   7.032   4.402
10416TIP3    H131191   7.703   7.111   4.432
10416TIP3    H231192   7.783   7.056   4.316
10417TIP3   OH231193   1.328   6.112   1.445
10417TIP3    H131194   1.325   6.074   1.356
10417TIP3    H231195   1.296   6.042   1.501
10418TIP3   OH231196   2.713   1.469   2.646
10418TIP3    H131197   2.751   1.381   2.638
10418TIP3    H231198   2.683   1.491   2.558
10419TIP3   OH231199   7.548   7.180   0.850
10419TIP3    H131200   7.455   7.182   0.868
10419TIP3    H231201   7.590   7.205   0.932
10420TIP3   OH231202   3.229   4.111   6.217
10420TIP3    H131203   3.290   4.041   6.239
10420TIP3    H231204   3.284   4.181   6.182
10421TIP3   OH231205   1.643   3.611   0.786
10421TIP3    H131206   1.736   3.628   0.803
10421TIP3    H231207   1.606   3.697   0.768
10422TIP3   OH231208   7.560   5.942   2.629
10422TIP3    H131209   7.599   5.857   2.609
10422TIP3    H231210   7.613   6.005   2.581
10423TIP3   OH231211   2.055   1.685   0.783
10423TIP3    H131212   2.092   1.650   0.864
10423TIP3    H231213   2.128   1.730   0.741
10424TIP3   OH231214   2.150   7.659   3.886
10424TIP3    H131215   2.209   7.647   3.960
10424TIP3    H231216   2.158   7.577   3.836
10425TIP3   OH231217   7.903   5.916   5.502
10425TIP3    H131218   7.837   5.916   5.433
10425TIP3    H231219   7.921   6.008   5.518
10426TIP3   OH231220   5.334   4.322   6.569
10426TIP3    H131221   5.327   4.231   6.540
10426TIP3    H231222   5.382   4.317   6.652
10427TIP3   OH231223   2.472   0.995   2.002
10427TIP3    H131224   2.478   1.048   2.082
10427TIP3    H231225   2.466   0.905   2.034
10428TIP3   OH231226   5.352   1.588   0.101
10428TIP3    H131227   5.265   1.566   0.134
10428TIP3    H231228   5.380   1.510   0.053
10429TIP3   OH231229   4.090   1.689   3.624
10429TIP3    H131230   4.167   1.745   3.633
10429TIP3    H231231   4.015   1.749   3.631
10430TIP3   OH231232   6.365   7.706   6.093
10430TIP3    H131233   6.389   7.761   6.168
10430TIP3    H231234   6.281   7.668   6.118
10431TIP3   OH231235   3.794   7.348   5.362
10431TIP3    H131236   3.789   7.365   5.456
10431TIP3    H231237   3.778   7.254   5.353
10432TIP3   OH231238   7.170   4.969   2.388
10432TIP3    H131239   7.186   4.909   2.314
10432TIP3    H231240   7.255   5.010   2.404
10433TIP3   OH231241   1.767   6.407   2.099
10433TIP3    H131242   1.761   6.397   2.004
10433TIP3    H231243   1.831   6.477   2.112
10434TIP3   OH231244   2.684   4.445   2.807
10434TIP3    H131245   2.743   4.391   2.755
10434TIP3    H231246   2.606   4.391   2.819
10435TIP3   OH231247   6.033   7.301   4.023
10435TIP3    H131248   6.039   7.389   4.059
10435TIP3    H231249   5.939   7.286   4.010
10436TIP3   OH231250   4.271   7.040   0.375
10436TIP3    H131251   4.274   7.001   0.287
10436TIP3    H231252   4.212   7.115   0.366
10437TIP3   OH231253   7.460   2.507   4.070
10437TIP3    H131254   7.367   2.531   4.069
10437TIP3    H231255   7.460   2.412   4.070
10438TIP3   OH231256   2.819   2.026   5.857
10438TIP3    H131257   2.816   1.987   5.770
10438TIP3    H231258   2.834   1.952   5.916
10439TIP3   OH231259   2.801   5.401   3.764
10439TIP3    H131260   2.891   5.429   3.783
10439TIP3    H231261   2.759   5.400   3.850
10440TIP3   OH231262   4.543   4.810   1.703
10440TIP3    H131263   4.511   4.900   1.709
10440TIP3    H231264   4.622   4.815   1.649
10441TIP3   OH231265   7.391  -0.038   6.654
10441TIP3    H131266   7.469  -0.093   6.662
10441TIP3    H231267   7.422   0.049   6.679
10442TIP3   OH231268   7.099   5.193   6.080
10442TIP3    H131269   7.046   5.261   6.121
10442TIP3    H231270   7.173   5.181   6.138
10443TIP3   OH231271   3.516   1.213   3.554
10443TIP3    H131272   3.566   1.150   3.606
10443TIP3    H231273   3.448   1.161   3.512
10444TIP3   OH231274   6.399   2.489   5.111
10444TIP3    H131275   6.450   2.501   5.191
10444TIP3    H231276   6.336   2.560   5.111
10445TIP3   OH231277   8.000   1.299   3.694
10445TIP3    H131278   8.061   1.356   3.648
10445TIP3    H231279   7.992   1.337   3.782
10446TIP3   OH231280   6.616   1.677   4.418
10446TIP3    H131281   6.588   1.588   4.439
10446TIP3    H231282   6.600   1.687   4.324
10447TIP3   OH231283   7.817   0.356   3.366
10447TIP3    H131284   7.783   0.444   3.383
10447TIP3    H231285   7.745   0.298   3.390
10448TIP3   OH231286   6.407   6.545   1.207
10448TIP3    H131287   6.502   6.536   1.221
10448TIP3    H231288   6.392   6.640   1.213
10449TIP3   OH231289   6.189   0.484   6.626
10449TIP3    H131290   6.252   0.528   6.568
10449TIP3    H231291   6.225   0.397   6.640
10450TIP3   OH231292   7.973   0.864   4.768
10450TIP3    H131293   7.918   0.867   4.689
10450TIP3    H231294   8.047   0.810   4.743
10451TIP3   OH231295   7.650   3.864   2.081
10451TIP3    H131296   7.568   3.843   2.036
10451TIP3    H231297   7.693   3.928   2.024
10452TIP3   OH231298   3.196   4.683   1.841
10452TIP3    H131299   3.178   4.734   1.921
10452TIP3    H231300   3.276   4.722   1.806
10453TIP3   OH231301   3.514   3.525   4.402
10453TIP3    H131302   3.593   3.520   4.457
10453TIP3    H231303   3.454   3.462   4.441
10454TIP3   OH231304   8.124   3.580   5.972
10454TIP3    H131305   8.134   3.639   6.047
10454TIP3    H231306   8.093   3.637   5.901
10455TIP3   OH231307   7.217   5.279   0.644
10455TIP3    H131308   7.171   5.195   0.647
10455TIP3    H231309   7.288   5.266   0.581
10456TIP3   OH231310   6.553   0.678   2.918
10456TIP3    H131311   6.567   0.658   2.825
10456TIP3    H231312   6.493   0.752   2.918
10457TIP3   OH231313   0.471   0.525   3.484
10457TIP3    H131314   0.397   0.467   3.467
10457TIP3    H231315   0.538   0.469   3.522
10458TIP3   OH231316   8.065   0.003   4.684
10458TIP3    H131317   7.988  -0.023   4.734
10458TIP3    H231318   8.032   0.060   4.615
10459TIP3   OH231319   6.391   3.481   6.678
10459TIP3    H131320   6.379   3.558   6.621
10459TIP3    H231321   6.480   3.490   6.712
10460TIP3   OH231322   1.942   1.472   2.842
10460TIP3    H131323   1.897   1.522   2.911
10460TIP3    H231324   1.872   1.449   2.780
10461TIP3   OH231325   0.114   7.523   0.441
10461TIP3    H131326   0.048   7.564   0.386
10461TIP3    H231327   0.090   7.547   0.530
10462TIP3   OH231328   3.738   1.133   4.080
10462TIP3    H131329   3.799   1.206   4.069
10462TIP3    H231330   3.789   1.065   4.125
10463TIP3   OH231331   1.213   4.641   6.132
10463TIP3    H131332   1.246   4.670   6.217
10463TIP3    H231333   1.174   4.556   6.148
10464TIP3   OH231334   5.574   2.082   2.444
10464TIP3    H131335   5.495   2.028   2.448
10464TIP3    H231336   5.556   2.146   2.376
10465TIP3   OH231337   0.523   0.813   4.713
10465TIP3    H131338   0.554   0.865   4.787
10465TIP3    H231339   0.476   0.875   4.657
10466TIP3   OH231340   6.295   6.003   4.685
10466TIP3    H131341   6.343   5.951   4.748
10466TIP3    H231342   6.293   6.091   4.722
10467TIP3   OH231343   0.650   3.493   3.360
10467TIP3    H131344   0.605   3.512   3.277
10467TIP3    H231345   0.586   3.512   3.428
10468TIP3   OH231346   2.762   2.514   4.189
10468TIP3    H131347   2.734   2.569   4.262
10468TIP3    H231348   2.728   2.558   4.111
10469TIP3   OH231349   2.558   5.133   4.308
10469TIP3    H131350   2.600   5.082   4.378
10469TIP3    H231351   2.585   5.223   4.325
10470TIP3   OH231352   5.941   4.793   1.297
10470TIP3    H131353   5.948   4.730   1.225
10470TIP3    H231354   5.926   4.739   1.375
10471TIP3   OH231355   1.246   0.727   5.534
10471TIP3    H131356   1.260   0.664   5.604
10471TIP3    H231357   1.163   0.770   5.555
10472TIP3   OH231358   8.200   0.800   0.248
10472TIP3    H131359   8.192   0.826   0.339
10472TIP3    H231360   8.156   0.715   0.243
10473TIP3   OH231361   0.994   5.069   0.393
10473TIP3    H131362   1.013   5.134   0.460
10473TIP3    H231363   1.017   4.985   0.433
10474TIP3   OH231364   8.181   4.720   5.569
10474TIP3    H131365   8.197   4.650   5.632
10474TIP3    H231366   8.267   4.756   5.550
10475TIP3   OH231367   4.234   2.619   1.923
10475TIP3    H131368   4.213   2.672   2.000
10475TIP3    H231369   4.329   2.629   1.912
10476TIP3   OH231370   4.079   6.826   3.802
10476TIP3    H131371   4.174   6.826   3.785
10476TIP3    H231372   4.054   6.734   3.797
10477TIP3   OH231373   5.763   5.417   1.284
10477TIP3    H131374   5.814   5.498   1.284
10477TIP3    H231375   5.716   5.418   1.200
10478TIP3   OH231376   7.768   5.525   4.290
10478TIP3    H131377   7.786   5.576   4.211
10478TIP3    H231378   7.745   5.438   4.258
10479TIP3   OH231379   1.439   5.787   5.575
10479TIP3    H131380   1.388   5.743   5.507
10479TIP3    H231381   1.478   5.715   5.625
10480TIP3   OH231382   6.724   0.594   6.368
10480TIP3    H131383   6.724   0.593   6.463
10480TIP3    H231384   6.787   0.527   6.343
10481TIP3   OH231385   4.949   3.489   4.697
10481TIP3    H131386   4.954   3.582   4.679
10481TIP3    H231387   4.902   3.452   4.623
10482TIP3   OH231388   6.795   5.044   0.781
10482TIP3    H131389   6.746   5.024   0.701
10482TIP3    H231390   6.780   5.138   0.795
10483TIP3   OH231391   5.900   0.733   0.370
10483TIP3    H131392   5.912   0.827   0.356
10483TIP3    H231393   5.820   0.711   0.323
10484TIP3   OH231394   6.965   0.120   1.906
10484TIP3    H131395   6.962   0.031   1.940
10484TIP3    H231396   6.888   0.128   1.851
10485TIP3   OH231397   6.979   0.814   5.562
10485TIP3    H131398   7.011   0.822   5.651
10485TIP3    H231399   7.041   0.754   5.519
10486TIP3   OH231400   3.460   1.933   2.097
10486TIP3    H131401   3.502   1.958   2.179
10486TIP3    H231402   3.503   1.987   2.030
10487TIP3   OH231403   4.942   5.698   6.576
10487TIP3    H131404   4.876   5.638   6.542
10487TIP3    H231405   5.023   5.647   6.577
10488TIP3   OH231406   8.041   0.299   6.676
10488TIP3    H131407   7.955   0.334   6.701
10488TIP3    H231408   8.032   0.279   6.583
10489TIP3   OH231409   4.398   1.054   6.289
10489TIP3    H131410   4.420   1.110   6.215
10489TIP3    H231411   4.392   0.966   6.252
10490TIP3   OH231412   6.446   0.311   3.356
10490TIP3    H131413   6.373   0.296   3.296
10490TIP3    H231414   6.465   0.224   3.392
10491TIP3   OH231415   0.082   4.956   1.761
10491TIP3    H131416   0.094   4.920   1.673
10491TIP3    H231417  -0.009   4.937   1.782
10492TIP3   OH231418   3.109   1.639   1.658
10492TIP3    H131419   3.203   1.656   1.669
10492TIP3    H231420   3.073   1.644   1.747
10493TIP3   OH231421   3.264   6.568   3.384
10493TIP3    H131422   3.176   6.589   3.415
10493TIP3    H231423   3.322   6.618   3.441
10494TIP3   OH231424   0.410   2.842   0.054
10494TIP3    H131425   0.387   2.752   0.030
10494TIP3    H231426   0.370   2.896  -0.015
10495TIP3   OH231427   0.661   6.388   0.576
10495TIP3    H131428   0.639   6.466   0.626
10495TIP3    H231429   0.577   6.356   0.542
10496TIP3   OH231430   3.882   3.343   1.866
10496TIP3    H131431   3.837   3.427   1.879
10496TIP3    H231432   3.940   3.335   1.941
10497TIP3   OH231433   3.721   7.158   0.698
10497TIP3    H131434   3.644   7.172   0.643
10497TIP3    H231435   3.768   7.086   0.656
10498TIP3   OH231436   8.105   2.130   6.288
10498TIP3    H131437   8.115   2.052   6.341
10498TIP3    H231438   8.144   2.107   6.203
10499TIP3   OH231439   2.054   1.650   1.871
10499TIP3    H131440   1.965   1.628   1.847
10499TIP3    H231441   2.103   1.644   1.789
10500TIP3   OH231442   6.666   1.040   1.899
10500TIP3    H131443   6.648   1.092   1.820
10500TIP3    H231444   6.731   0.976   1.870
10501TIP3   OH231445   4.489   2.532   5.890
10501TIP3    H131446   4.547   2.607   5.888
10501TIP3    H231447   4.473   2.511   5.797
10502TIP3   OH231448   4.740   5.168   0.433
10502TIP3    H131449   4.819   5.141   0.387
10502TIP3    H231450   4.771   5.225   0.503
10503TIP3   OH231451   7.777   2.582   5.996
10503TIP3    H131452   7.725   2.622   5.926
10503TIP3    H231453   7.730   2.501   6.018
10504TIP3   OH231454   2.956   2.582   1.492
10504TIP3    H131455   2.903   2.620   1.561
10504TIP3    H231456   2.919   2.617   1.411
10505TIP3   OH231457   0.847   3.064   1.689
10505TIP3    H131458   0.802   2.979   1.687
10505TIP3    H231459   0.883   3.074   1.601
10506TIP3   OH231460   0.578   4.257   0.860
10506TIP3    H131461   0.563   4.255   0.766
10506TIP3    H231462   0.643   4.326   0.872
10507TIP3   OH231463   5.459   1.831   1.864
10507TIP3    H131464   5.530   1.867   1.917
10507TIP3    H231465   5.455   1.888   1.788
10508TIP3   OH231466   6.845   5.447   6.085
10508TIP3    H131467   6.875   5.481   6.001
10508TIP3    H231468   6.922   5.449   6.142
10509TIP3   OH231469   0.053   4.548   3.337
10509TIP3    H131470   0.085   4.534   3.427
10509TIP3    H231471  -0.011   4.479   3.323
10510TIP3   OH231472   3.375   6.043   5.936
10510TIP3    H131473   3.437   6.114   5.950
10510TIP3    H231474   3.370   6.034   5.841
10511TIP3   OH231475   6.210   6.951   5.770
10511TIP3    H131476   6.281   6.954   5.706
10511TIP3    H231477   6.133   6.927   5.719
10512TIP3   OH231478   1.952   6.749   5.029
10512TIP3    H131479   1.950   6.802   4.949
10512TIP3    H231480   1.936   6.660   4.999
10513TIP3   OH231481   4.055   1.707   6.607
10513TIP3    H131482   3.994   1.768   6.649
10513TIP3    H231483   4.032   1.710   6.514
10514TIP3   OH231484   1.664   3.995   1.560
10514TIP3    H131485   1.659   4.070   1.619
10514TIP3    H231486   1.750   4.005   1.517
10515TIP3   OH231487   8.124   3.636   1.424
10515TIP3    H131488   8.190   3.649   1.492
10515TIP3    H231489   8.160   3.567   1.369
10516TIP3   OH231490   3.080   7.703   3.944
10516TIP3    H131491   3.056   7.787   3.907
10516TIP3    H231492   3.172   7.714   3.970
10517TIP3   OH231493   1.731   0.080   0.520
10517TIP3    H131494   1.768   0.157   0.564
10517TIP3    H231495   1.797   0.057   0.454
10518TIP3   OH231496   7.891   2.275   0.959
10518TIP3    H131497   7.928   2.330   0.890
10518TIP3    H231498   7.964   2.218   0.986
10519TIP3   OH231499   0.344   7.128   6.240
10519TIP3    H131500   0.436   7.119   6.268
10519TIP3    H231501   0.300   7.053   6.280
10520TIP3   OH231502   3.724   2.764   1.490
10520TIP3    H131503   3.713   2.828   1.561
10520TIP3    H231504   3.815   2.773   1.464
10521TIP3   OH231505   2.978   1.635   0.501
10521TIP3    H131506   2.995   1.544   0.523
10521TIP3    H231507   2.998   1.642   0.408
10522TIP3   OH231508   2.398   0.898   3.990
10522TIP3    H131509   2.415   0.978   4.040
10522TIP3    H231510   2.483   0.854   3.985
10523TIP3   OH231511   7.952   6.583   6.416
10523TIP3    H131512   8.010   6.617   6.484
10523TIP3    H231513   7.864   6.605   6.447
10524TIP3   OH231514   7.704   2.125   5.537
10524TIP3    H131515   7.766   2.152   5.469
10524TIP3    H231516   7.703   2.197   5.600
10525TIP3   OH231517   4.415   4.676   6.674
10525TIP3    H131518   4.414   4.744   6.606
10525TIP3    H231519   4.468   4.606   6.637
10526TIP3   OH231520   2.302   3.862   0.727
10526TIP3    H131521   2.252   3.801   0.780
10526TIP3    H231522   2.360   3.906   0.789
10527TIP3   OH231523   7.400   2.480   3.415
10527TIP3    H131524   7.373   2.457   3.504
10527TIP3    H231525   7.426   2.397   3.376
10528TIP3   OH231526   6.440   4.445   2.309
10528TIP3    H131527   6.506   4.452   2.377
10528TIP3    H231528   6.412   4.354   2.312
10529TIP3   OH231529   6.600   1.779   5.797
10529TIP3    H131530   6.511   1.776   5.832
10529TIP3    H231531   6.588   1.777   5.702
10530TIP3   OH231532   2.642   6.406   6.214
10530TIP3    H131533   2.559   6.410   6.262
10530TIP3    H231534   2.687   6.486   6.238
10531TIP3   OH231535   0.438   2.931   3.229
10531TIP3    H131536   0.467   2.976   3.150
10531TIP3    H231537   0.416   2.843   3.201
10532TIP3   OH231538   1.880   6.267   1.316
10532TIP3    H131539   1.846   6.349   1.281
10532TIP3    H231540   1.975   6.276   1.310
10533TIP3   OH231541   5.080   5.340   0.270
10533TIP3    H131542   5.015   5.276   0.299
10533TIP3    H231543   5.150   5.287   0.231
10534TIP3   OH231544   2.082   1.142   2.953
10534TIP3    H131545   2.009   1.202   2.963
10534TIP3    H231546   2.157   1.188   2.989
10535TIP3   OH231547   0.268   4.474   1.771
10535TIP3    H131548   0.172   4.480   1.762
10535TIP3    H231549   0.286   4.381   1.757
10536TIP3   OH231550   0.054   1.212   1.058
10536TIP3    H131551   0.110   1.254   1.123
10536TIP3    H231552  -0.025   1.189   1.107
10537TIP3   OH231553   5.666   6.953   3.936
10537TIP3    H131554   5.654   6.858   3.923
10537TIP3    H231555   5.616   6.972   4.015
10538TIP3   OH231556   3.512   5.099   6.361
10538TIP3    H131557   3.470   5.091   6.447
10538TIP3    H231558   3.441   5.119   6.301
10539TIP3   OH231559  -0.011   0.395   1.493
10539TIP3    H131560  -0.027   0.440   1.410
10539TIP3    H231561   0.051   0.325   1.471
10540TIP3   OH231562   0.202   7.200   3.068
10540TIP3    H131563   0.273   7.227   3.126
10540TIP3    H231564   0.181   7.111   3.097
10541TIP3   OH231565   5.128   3.072   5.152
10541TIP3    H131566   5.120   3.001   5.216
10541TIP3    H231567   5.082   3.040   5.074
10542TIP3   OH231568   1.027   3.742   2.129
10542TIP3    H131569   1.012   3.684   2.054
10542TIP3    H231570   1.007   3.687   2.206
10543TIP3   OH231571   4.412   4.572   3.141
10543TIP3    H131572   4.452   4.559   3.227
10543TIP3    H231573   4.320   4.550   3.154
10544TIP3   OH231574   3.221   0.206   2.800
10544TIP3    H131575   3.263   0.287   2.771
10544TIP3    H231576   3.259   0.138   2.746
10545TIP3   OH231577   6.345   7.416   6.014
10545TIP3    H131578   6.287   7.469   5.960
10545TIP3    H231579   6.432   7.431   5.978
10546TIP3   OH231580   0.821   0.077   2.623
10546TIP3    H131581   0.871   0.112   2.697
10546TIP3    H231582   0.883   0.076   2.550
10547TIP3   OH231583   7.187   0.511   1.535
10547TIP3    H131584   7.279   0.532   1.546
10547TIP3    H231585   7.146   0.594   1.508
10548TIP3   OH231586   6.752   0.149   5.446
10548TIP3    H131587   6.769   0.061   5.481
10548TIP3    H231588   6.669   0.141   5.399
10549TIP3   OH231589   7.935   7.003   5.818
10549TIP3    H131590   7.856   7.055   5.806
10549TIP3    H231591   7.915   6.918   5.779
10550TIP3   OH231592   1.513   1.017   3.167
10550TIP3    H131593   1.595   1.050   3.203
10550TIP3    H231594   1.536   0.985   3.080
10551TIP3   OH231595   7.877   6.072   0.297
10551TIP3    H131596   7.965   6.082   0.334
10551TIP3    H231597   7.823   6.044   0.371
10552TIP3   OH231598   4.131   1.306   6.642
10552TIP3    H131599   4.153   1.356   6.563
10552TIP3    H231600   4.045   1.269   6.623
10553TIP3   OH231601   0.289   0.494   1.620
10553TIP3    H131602   0.312   0.417   1.672
10553TIP3    H231603   0.216   0.534   1.667
10554TIP3   OH231604   4.587   6.979   3.143
10554TIP3    H131605   4.549   7.066   3.158
10554TIP3    H231606   4.633   6.959   3.224
10555TIP3   OH231607   8.125   3.750   4.344
10555TIP3    H131608   8.116   3.669   4.294
10555TIP3    H231609   8.106   3.819   4.282
10556TIP3   OH231610   0.840   3.335   0.803
10556TIP3    H131611   0.897   3.280   0.857
10556TIP3    H231612   0.900   3.397   0.761
10557TIP3   OH231613   3.103   4.626   0.984
10557TIP3    H131614   3.045   4.592   0.915
10557TIP3    H231615   3.071   4.714   1.002
10558TIP3   OH231616   6.570   5.731   5.500
10558TIP3    H131617   6.612   5.648   5.523
10558TIP3    H231618   6.476   5.713   5.502
10559TIP3   OH231619   0.582   1.366   3.194
10559TIP3    H131620   0.543   1.326   3.116
10559TIP3    H231621   0.646   1.302   3.224
10560TIP3   OH231622   2.208   3.620   5.854
10560TIP3    H131623   2.147   3.646   5.785
10560TIP3    H231624   2.175   3.536   5.885
10561TIP3   OH231625   6.904   1.790   5.059
10561TIP3    H131626   6.884   1.881   5.037
10561TIP3    H231627   6.989   1.794   5.103
10562TIP3   OH231628   2.895   4.792   4.658
10562TIP3    H131629   2.851   4.747   4.731
10562TIP3    H231630   2.848   4.875   4.650
10563TIP3   OH231631   3.141   7.453   0.948
10563TIP3    H131632   3.196   7.520   0.989
10563TIP3    H231633   3.142   7.474   0.855
10564TIP3   OH231634   6.516   7.111   4.953
10564TIP3    H131635   6.541   7.082   4.865
10564TIP3    H231636   6.421   7.099   4.956
10565TIP3   OH231637   5.560   3.674   6.334
10565TIP3    H131638   5.624   3.715   6.392
10565TIP3    H231639   5.524   3.601   6.386
10566TIP3   OH231640   6.449   7.739   1.671
10566TIP3    H131641   6.419   7.830   1.663
10566TIP3    H231642   6.536   7.739   1.631
10567TIP3   OH231643   2.229   4.135   0.000
10567TIP3    H131644   2.272   4.078   0.065
10567TIP3    H231645   2.151   4.168   0.045
10568TIP3   OH231646   2.034   3.501   0.209
10568TIP3    H131647   1.975   3.567   0.174
10568TIP3    H231648   1.998   3.480   0.295
10569TIP3   OH231649   5.300   2.785   5.850
10569TIP3    H131650   5.266   2.730   5.920
10569TIP3    H231651   5.331   2.864   5.894
10570TIP3   OH231652   7.273   6.962   1.107
10570TIP3    H131653   7.329   6.934   1.179
10570TIP3    H231654   7.205   7.015   1.148
10571TIP3   OH231655   7.770   3.947   3.287
10571TIP3    H131656   7.726   3.960   3.371
10571TIP3    H231657   7.700   3.927   3.226
10572TIP3   OH231658   7.806   5.374   2.544
10572TIP3    H131659   7.855   5.398   2.624
10572TIP3    H231660   7.854   5.417   2.473
10573TIP3   OH231661   1.689   0.929   0.576
10573TIP3    H131662   1.617   0.869   0.599
10573TIP3    H231663   1.646   1.012   0.558
10574TIP3   OH231664   7.786   3.242   0.406
10574TIP3    H131665   7.874   3.210   0.387
10574TIP3    H231666   7.772   3.314   0.345
10575TIP3   OH231667   4.512   5.298   1.766
10575TIP3    H131668   4.455   5.374   1.783
10575TIP3    H231669   4.558   5.320   1.686
10576TIP3   OH231670   7.387   5.108   4.799
10576TIP3    H131671   7.468   5.123   4.847
10576TIP3    H231672   7.351   5.028   4.837
10577TIP3   OH231673   2.879   5.048   4.348
10577TIP3    H131674   2.790   5.012   4.349
10577TIP3    H231675   2.897   5.073   4.438
10578TIP3   OH231676   3.534   2.957   5.305
10578TIP3    H131677   3.538   2.995   5.393
10578TIP3    H231678   3.460   3.000   5.263
10579TIP3   OH231679   0.492   5.309   0.146
10579TIP3    H131680   0.569   5.289   0.092
10579TIP3    H231681   0.418   5.272   0.096
10580TIP3   OH231682   0.494   1.469   4.526
10580TIP3    H131683   0.543   1.551   4.523
10580TIP3    H231684   0.472   1.450   4.435
10581TIP3   OH231685   7.555   3.761   0.164
10581TIP3    H131686   7.539   3.754   0.258
10581TIP3    H231687   7.527   3.850   0.141
10582TIP3   OH231688   7.351   6.235   4.146
10582TIP3    H131689   7.325   6.272   4.230
10582TIP3    H231690   7.443   6.212   4.158
10583TIP3   OH231691   2.038   2.409   4.894
10583TIP3    H131692   2.132   2.399   4.911
10583TIP3    H231693   2.033   2.470   4.821
10584TIP3   OH231694   7.971   0.172   2.190
10584TIP3    H131695   7.886   0.209   2.166
10584TIP3    H231696   8.004   0.134   2.108
10585TIP3   OH231697   6.938   5.769   3.724
10585TIP3    H131698   6.848   5.752   3.754
10585TIP3    H231699   6.946   5.864   3.723
10586TIP3   OH231700   2.481   7.259   2.653
10586TIP3    H131701   2.487   7.189   2.718
10586TIP3    H231702   2.559   7.249   2.599
10587TIP3   OH231703   4.197   5.011   5.333
10587TIP3    H131704   4.121   5.063   5.359
10587TIP3    H231705   4.170   4.921   5.347
10588TIP3   OH231706   4.892   6.961   6.608
10588TIP3    H131707   4.834   7.019   6.657
10588TIP3    H231708   4.980   6.992   6.631
10589TIP3   OH231709   7.912   6.732   3.747
10589TIP3    H131710   7.823   6.696   3.742
10589TIP3    H231711   7.966   6.667   3.702
10590TIP3   OH231712   5.878   7.483   0.419
10590TIP3    H131713   5.929   7.552   0.377
10590TIP3    H231714   5.915   7.476   0.507
10591TIP3   OH231715   5.926   1.019   0.088
10591TIP3    H131716   5.832   1.007   0.075
10591TIP3    H231717   5.966   0.951   0.035
10592TIP3   OH231718   7.723   2.094   2.479
10592TIP3    H131719   7.747   2.002   2.477
10592TIP3    H231720   7.650   2.101   2.418
10593TIP3   OH231721   7.092   5.718   0.331
10593TIP3    H131722   7.007   5.714   0.375
10593TIP3    H231723   7.119   5.627   0.322
10594TIP3   OH231724   8.113   0.212   4.258
10594TIP3    H131725   8.197   0.166   4.259
10594TIP3    H231726   8.120   0.274   4.186
10595TIP3   OH231727   5.376   7.492   2.385
10595TIP3    H131728   5.386   7.520   2.476
10595TIP3    H231729   5.282   7.484   2.372
10596TIP3   OH231730   6.827   1.371   0.316
10596TIP3    H131731   6.863   1.310   0.252
10596TIP3    H231732   6.893   1.376   0.385
10597TIP3   OH231733   4.719   3.917   6.598
10597TIP3    H131734   4.624   3.922   6.608
10597TIP3    H231735   4.752   3.920   6.688
10598TIP3   OH231736   1.817   0.618   3.994
10598TIP3    H131737   1.831   0.678   3.921
10598TIP3    H231738   1.761   0.666   4.054
10599TIP3   OH231739   4.033   6.793   5.807
10599TIP3    H131740   4.041   6.887   5.791
10599TIP3    H231741   4.112   6.770   5.855
10600TIP3   OH231742   6.196   3.304   5.082
10600TIP3    H131743   6.153   3.346   5.008
10600TIP3    H231744   6.180   3.364   5.155
10601TIP3   OH231745   4.799   2.916   4.349
10601TIP3    H131746   4.725   2.858   4.334
10601TIP3    H231747   4.808   2.964   4.266
10602TIP3   OH231748   7.222   7.119   5.680
10602TIP3    H131749   7.154   7.058   5.652
10602TIP3    H231750   7.232   7.179   5.606
10603TIP3   OH231751   5.983   5.073   6.573
10603TIP3    H131752   5.926   5.026   6.512
10603TIP3    H231753   6.003   5.010   6.641
10604TIP3   OH231754   2.921   1.799   5.610
10604TIP3    H131755   2.998   1.839   5.571
10604TIP3    H231756   2.850   1.861   5.593
10605TIP3   OH231757   7.050   4.804   5.510
10605TIP3    H131758   7.132   4.754   5.509
10605TIP3    H231759   6.996   4.761   5.576
10606TIP3   OH231760   6.268   7.492   0.862
10606TIP3    H131761   6.217   7.411   0.866
10606TIP3    H231762   6.359   7.463   0.859
10607TIP3   OH231763   2.993   6.106   6.363
10607TIP3    H131764   3.036   6.024   6.340
10607TIP3    H231765   2.953   6.135   6.281
10608TIP3   OH231766   6.507   0.857   5.653
10608TIP3    H131767   6.567   0.836   5.581
10608TIP3    H231768   6.556   0.919   5.707
10609TIP3   OH231769   3.209   0.599   0.791
10609TIP3    H131770   3.171   0.666   0.735
10609TIP3    H231771   3.186   0.516   0.748
10610TIP3   OH231772   0.965   2.883   4.826
10610TIP3    H131773   1.054   2.860   4.800
10610TIP3    H231774   0.931   2.805   4.870
10611TIP3   OH231775   1.447   2.881   4.682
10611TIP3    H131776   1.523   2.823   4.679
10611TIP3    H231777   1.372   2.824   4.668
10612TIP3   OH231778   0.904   6.102   1.651
10612TIP3    H131779   0.876   6.124   1.741
10612TIP3    H231780   0.927   6.009   1.655
10613TIP3   OH231781   5.564   2.521   0.420
10613TIP3    H131782   5.473   2.491   0.419
10613TIP3    H231783   5.558   2.613   0.395
10614TIP3   OH231784   4.159   7.410   1.846
10614TIP3    H131785   4.230   7.391   1.785
10614TIP3    H231786   4.193   7.383   1.931
10615TIP3   OH231787   3.323   1.002   2.360
10615TIP3    H131788   3.238   1.045   2.375
10615TIP3    H231789   3.386   1.059   2.403
10616TIP3   OH231790   1.777   6.496   1.206
10616TIP3    H131791   1.792   6.475   1.114
10616TIP3    H231792   1.685   6.522   1.210
10617TIP3   OH231793   3.274   0.062   4.450
10617TIP3    H131794   3.354   0.013   4.469
10617TIP3    H231795   3.281   0.141   4.503
10618TIP3   OH231796   2.659   1.249   4.324
10618TIP3    H131797   2.739   1.246   4.376
10618TIP3    H231798   2.646   1.342   4.306
10619TIP3   OH231799   5.475   7.702   3.893
10619TIP3    H131800   5.464   7.738   3.805
10619TIP3    H231801   5.539   7.760   3.935
10620TIP3   OH231802   0.952   5.836   0.913
10620TIP3    H131803   0.991   5.879   0.989
10620TIP3    H231804   1.009   5.762   0.896
10621TIP3   OH231805   1.758   3.000   5.107
10621TIP3    H131806   1.821   2.994   5.035
10621TIP3    H231807   1.674   2.977   5.068
10622TIP3   OH231808   1.908   5.874   0.807
10622TIP3    H131809   1.909   5.959   0.762
10622TIP3    H231810   1.838   5.883   0.872
10623TIP3   OH231811   5.471   2.887   1.913
10623TIP3    H131812   5.450   2.818   1.851
10623TIP3    H231813   5.524   2.949   1.863
10624TIP3   OH231814   2.398   0.335   2.860
10624TIP3    H131815   2.439   0.308   2.943
10624TIP3    H231816   2.468   0.327   2.796
10625TIP3   OH231817   3.174   4.446   6.457
10625TIP3    H131818   3.085   4.450   6.423
10625TIP3    H231819   3.225   4.500   6.396
10626TIP3   OH231820   5.505   1.883   4.575
10626TIP3    H131821   5.421   1.878   4.530
10626TIP3    H231822   5.499   1.816   4.644
10627TIP3   OH231823   7.882   6.846   4.565
10627TIP3    H131824   7.967   6.845   4.521
10627TIP3    H231825   7.824   6.891   4.503
10628TIP3   OH231826   4.395   6.249   5.535
10628TIP3    H131827   4.337   6.303   5.589
10628TIP3    H231828   4.483   6.273   5.563
10629TIP3   OH231829   5.107   0.200   0.714
10629TIP3    H131830   5.030   0.245   0.680
10629TIP3    H231831   5.087   0.107   0.706
10630TIP3   OH231832   0.042   0.198   6.697
10630TIP3    H131833   0.104   0.252   6.649
10630TIP3    H231834  -0.040   0.248   6.695
10631TIP3   OH231835   3.028   6.773   4.011
10631TIP3    H131836   2.943   6.767   4.055
10631TIP3    H231837   3.077   6.836   4.064
10632TIP3   OH231838   3.499   4.386   4.714
10632TIP3    H131839   3.558   4.314   4.735
10632TIP3    H231840   3.537   4.462   4.758
10633TIP3   OH231841   3.141   4.751   2.798
10633TIP3    H131842   3.118   4.676   2.743
10633TIP3    H231843   3.233   4.737   2.819
10634TIP3   OH231844   6.498   7.623   4.623
10634TIP3    H131845   6.515   7.538   4.664
10634TIP3    H231846   6.485   7.603   4.530
10635TIP3   OH231847   2.337   7.146   5.834
10635TIP3    H131848   2.351   7.077   5.769
10635TIP3    H231849   2.243   7.146   5.848
10636TIP3   OH231850   0.728   4.585   3.476
10636TIP3    H131851   0.700   4.552   3.391
10636TIP3    H231852   0.730   4.680   3.466
10637TIP3   OH231853   8.145   5.131   5.118
10637TIP3    H131854   8.222   5.126   5.061
10637TIP3    H231855   8.138   5.224   5.140
10638TIP3   OH231856   7.039   4.578   6.054
10638TIP3    H131857   7.114   4.593   6.111
10638TIP3    H231858   7.039   4.484   6.039
10639TIP3   OH231859   6.953   1.210   0.135
10639TIP3    H131860   7.022   1.173   0.190
10639TIP3    H231861   6.887   1.141   0.128
10640TIP3   OH231862   6.694   0.125   2.110
10640TIP3    H131863   6.724   0.214   2.093
10640TIP3    H231864   6.611   0.118   2.064
10641TIP3   OH231865   4.079   5.188   1.574
10641TIP3    H131866   4.009   5.125   1.559
10641TIP3    H231867   4.061   5.224   1.661
10642TIP3   OH231868   6.892   5.900   4.854
10642TIP3    H131869   6.979   5.896   4.893
10642TIP3    H231870   6.877   5.993   4.838
10643TIP3   OH231871   2.098   0.531   4.025
10643TIP3    H131872   2.017   0.580   4.019
10643TIP3    H231873   2.161   0.581   3.973
10644TIP3   OH231874   0.562   2.991   1.007
10644TIP3    H131875   0.573   3.031   0.921
10644TIP3    H231876   0.599   3.055   1.068
10645TIP3   OH231877   2.878   2.470   1.064
10645TIP3    H131878   2.800   2.431   1.026
10645TIP3    H231879   2.858   2.563   1.070
10646TIP3   OH231880   0.808   1.018   4.367
10646TIP3    H131881   0.876   1.029   4.434
10646TIP3    H231882   0.838   1.073   4.294
10647TIP3   OH231883   1.292   2.124   3.682
10647TIP3    H131884   1.306   2.217   3.665
10647TIP3    H231885   1.361   2.099   3.743
10648TIP3   OH231886   3.062   4.241   1.316
10648TIP3    H131887   2.987   4.195   1.279
10648TIP3    H231888   3.088   4.188   1.391
10649TIP3   OH231889   4.522   7.204   2.379
10649TIP3    H131890   4.548   7.290   2.347
10649TIP3    H231891   4.584   7.143   2.338
10650TIP3   OH231892   8.028   3.660   2.130
10650TIP3    H131893   8.106   3.626   2.174
10650TIP3    H231894   8.012   3.744   2.173
10651TIP3   OH231895   0.732   2.822   2.397
10651TIP3    H131896   0.707   2.757   2.463
10651TIP3    H231897   0.810   2.786   2.356
10652TIP3   OH231898   5.899   6.562   2.730
10652TIP3    H131899   5.835   6.617   2.685
10652TIP3    H231900   5.959   6.534   2.660
10653TIP3   OH231901   5.362   0.572   1.704
10653TIP3    H131902   5.276   0.604   1.730
10653TIP3    H231903   5.363   0.578   1.608
10654TIP3   OH231904   0.463   4.087   1.044
10654TIP3    H131905   0.504   4.141   0.976
10654TIP3    H231906   0.499   4.000   1.031
10655TIP3   OH231907   1.370   3.761   5.252
10655TIP3    H131908   1.341   3.769   5.161
10655TIP3    H231909   1.304   3.705   5.293
10656TIP3   OH231910   2.826   1.816   6.035
10656TIP3    H131911   2.914   1.779   6.034
10656TIP3    H231912   2.801   1.817   6.128
10657TIP3   OH231913   5.992   5.022   3.696
10657TIP3    H131914   6.046   5.073   3.756
10657TIP3    H231915   6.030   4.934   3.698
10658TIP3   OH231916   7.942   0.015   5.502
10658TIP3    H131917   7.979   0.006   5.414
10658TIP3    H231918   7.975   0.100   5.533
10659TIP3   OH231919   2.170   7.253   6.409
10659TIP3    H131920   2.125   7.179   6.369
10659TIP3    H231921   2.197   7.308   6.335
10660TIP3   OH231922   2.679   0.138   4.516
10660TIP3    H131923   2.638   0.100   4.595
10660TIP3    H231924   2.749   0.077   4.494
10661TIP3   OH231925   7.340   1.885   2.926
10661TIP3    H131926   7.305   1.819   2.867
10661TIP3    H231927   7.405   1.932   2.874
10662TIP3   OH231928   6.462   4.981   3.895
10662TIP3    H131929   6.426   4.905   3.850
10662TIP3    H231930   6.557   4.970   3.891
10663TIP3   OH231931   6.809   4.333   5.666
10663TIP3    H131932   6.780   4.345   5.576
10663TIP3    H231933   6.731   4.352   5.719
10664TIP3   OH231934   5.667   2.598   1.174
10664TIP3    H131935   5.705   2.665   1.117
10664TIP3    H231936   5.631   2.533   1.114
10665TIP3   OH231937   1.310   1.809   1.135
10665TIP3    H131938   1.285   1.870   1.204
10665TIP3    H231939   1.382   1.852   1.089
10666TIP3   OH231940   8.235   1.613   3.314
10666TIP3    H131941   8.266   1.607   3.223
10666TIP3    H231942   8.173   1.685   3.313
10667TIP3   OH231943   2.463   6.946   4.257
10667TIP3    H131944   2.393   6.896   4.298
10667TIP3    H231945   2.420   6.998   4.190
10668TIP3   OH231946   7.180   1.972   4.073
10668TIP3    H131947   7.196   2.031   4.147
10668TIP3    H231948   7.185   2.028   3.996
10669TIP3   OH231949   6.383   7.147   2.607
10669TIP3    H131950   6.396   7.136   2.512
10669TIP3    H231951   6.288   7.143   2.618
10670TIP3   OH231952   1.459   0.116   4.922
10670TIP3    H131953   1.367   0.144   4.922
10670TIP3    H231954   1.506   0.189   4.961
10671TIP3   OH231955   5.948   6.861   5.162
10671TIP3    H131956   5.995   6.791   5.116
10671TIP3    H231957   5.862   6.862   5.121
10672TIP3   OH231958   7.358   4.122   3.709
10672TIP3    H131959   7.341   4.191   3.645
10672TIP3    H231960   7.307   4.047   3.677
10673TIP3   OH231961   4.305   6.660   1.327
10673TIP3    H131962   4.241   6.730   1.342
10673TIP3    H231963   4.269   6.585   1.375
10674TIP3   OH231964   6.978   5.980   4.148
10674TIP3    H131965   7.035   5.952   4.220
10674TIP3    H231966   7.038   5.992   4.074
10675TIP3   OH231967   4.029   1.732   1.972
10675TIP3    H131968   4.102   1.764   2.025
10675TIP3    H231969   3.964   1.801   1.975
10676TIP3   OH231970   0.445   7.390   1.201
10676TIP3    H131971   0.535   7.419   1.215
10676TIP3    H231972   0.393   7.471   1.203
10677TIP3   OH231973   0.711   3.336   0.550
10677TIP3    H131974   0.720   3.431   0.550
10677TIP3    H231975   0.787   3.305   0.600
10678TIP3   OH231976   7.199   7.483   4.049
10678TIP3    H131977   7.138   7.412   4.028
10678TIP3    H231978   7.144   7.554   4.082
10679TIP3   OH231979   3.396   6.761   3.952
10679TIP3    H131980   3.432   6.678   3.920
10679TIP3    H231981   3.333   6.735   4.019
10680TIP3   OH231982   8.140   5.193   3.275
10680TIP3    H131983   8.114   5.113   3.320
10680TIP3    H231984   8.062   5.222   3.229
10681TIP3   OH231985   0.699   6.875   6.686
10681TIP3    H131986   0.726   6.784   6.692
10681TIP3    H231987   0.744   6.909   6.609
10682TIP3   OH231988   0.986   5.930   3.457
10682TIP3    H131989   0.971   5.850   3.507
10682TIP3    H231990   1.063   5.910   3.403
10683TIP3   OH231991   5.196   2.758   0.240
10683TIP3    H131992   5.207   2.678   0.189
10683TIP3    H231993   5.102   2.777   0.236
10684TIP3   OH231994   1.455   5.205   0.997
10684TIP3    H131995   1.538   5.252   0.990
10684TIP3    H231996   1.391   5.271   1.023
10685TIP3   OH231997   2.754   6.911   6.574
10685TIP3    H131998   2.832   6.896   6.521
10685TIP3    H231999   2.685   6.926   6.510
10686TIP3   OH232000   4.214   6.091   1.233
10686TIP3    H132001   4.247   6.181   1.227
10686TIP3    H232002   4.245   6.049   1.153
10687TIP3   OH232003   3.590   3.521   2.110
10687TIP3    H132004   3.606   3.443   2.161
10687TIP3    H232005   3.507   3.504   2.065
10688TIP3   OH232006   5.355   1.930   2.384
10688TIP3    H132007   5.274   1.909   2.430
10688TIP3    H232008   5.389   1.846   2.355
10689TIP3   OH232009   2.480   1.756   3.251
10689TIP3    H132010   2.564   1.748   3.295
10689TIP3    H232011   2.501   1.753   3.158
10690TIP3   OH232012   4.458   4.429   0.111
10690TIP3    H132013   4.495   4.347   0.145
10690TIP3    H232014   4.399   4.402   0.041
10691TIP3   OH232015   3.780   3.641   0.833
10691TIP3    H132016   3.796   3.620   0.741
10691TIP3    H232017   3.843   3.587   0.881
10692TIP3   OH232018   5.722   3.287   5.381
10692TIP3    H132019   5.743   3.219   5.317
10692TIP3    H232020   5.641   3.258   5.422
10693TIP3   OH232021   5.426   2.694   3.091
10693TIP3    H132022   5.453   2.706   3.000
10693TIP3    H232023   5.420   2.783   3.126
10694TIP3   OH232024   8.040   7.363   4.095
10694TIP3    H132025   8.040   7.442   4.148
10694TIP3    H232026   7.996   7.388   4.013
10695TIP3   OH232027   7.057   6.903   5.619
10695TIP3    H132028   6.997   6.839   5.656
10695TIP3    H232029   7.062   6.882   5.526
10696TIP3   OH232030   4.726   3.107   2.152
10696TIP3    H132031   4.710   3.201   2.145
10696TIP3    H232032   4.660   3.075   2.213
10697TIP3   OH232033   3.350   2.972   5.679
10697TIP3    H132034   3.422   3.006   5.626
10697TIP3    H232035   3.320   3.047   5.730
10698TIP3   OH232036   4.916   4.693   0.445
10698TIP3    H132037   5.003   4.654   0.441
10698TIP3    H232038   4.904   4.717   0.537
10699TIP3   OH232039   1.690   4.960   0.180
10699TIP3    H132040   1.607   5.009   0.181
10699TIP3    H232041   1.742   5.003   0.113
10700TIP3   OH232042   4.512   1.105   6.047
10700TIP3    H132043   4.450   1.116   5.974
10700TIP3    H232044   4.526   1.193   6.080
10701TIP3   OH232045   7.913   4.763   2.128
10701TIP3    H132046   7.997   4.801   2.152
10701TIP3    H232047   7.890   4.805   2.045
10702TIP3   OH232048   3.284   7.374   0.115
10702TIP3    H132049   3.323   7.315   0.050
10702TIP3    H232050   3.360   7.415   0.158
10703TIP3   OH232051   6.177   6.423   1.297
10703TIP3    H132052   6.263   6.463   1.292
10703TIP3    H232053   6.191   6.331   1.276
10704TIP3   OH232054   7.491   2.284   1.878
10704TIP3    H132055   7.457   2.307   1.964
10704TIP3    H232056   7.546   2.359   1.853
10705TIP3   OH232057   5.675   0.628   3.069
10705TIP3    H132058   5.733   0.704   3.065
10705TIP3    H232059   5.728   0.561   3.113
10706TIP3   OH232060   3.791   2.629   2.233
10706TIP3    H132061   3.886   2.627   2.226
10706TIP3    H232062   3.773   2.597   2.322
10707TIP3   OH232063   3.830   5.111   2.796
10707TIP3    H132064   3.887   5.042   2.761
10707TIP3    H232065   3.769   5.065   2.854
10708TIP3   OH232066   2.385   5.756   2.824
10708TIP3    H132067   2.431   5.733   2.905
10708TIP3    H232068   2.315   5.692   2.817
10709TIP3   OH232069   2.577   1.865   4.451
10709TIP3    H132070   2.542   1.954   4.463
10709TIP3    H232071   2.548   1.840   4.363
10710TIP3   OH232072   3.152   6.306   6.105
10710TIP3    H132073   3.226   6.246   6.117
10710TIP3    H232074   3.099   6.265   6.036
10711TIP3   OH232075   5.634   6.094   5.271
10711TIP3    H132076   5.663   6.082   5.181
10711TIP3    H232077   5.548   6.135   5.264
10712TIP3   OH232078   0.816   6.173   1.388
10712TIP3    H132079   0.765   6.240   1.433
10712TIP3    H232080   0.902   6.176   1.429
10713TIP3   OH232081   4.488   4.571   3.650
10713TIP3    H132082   4.503   4.622   3.571
10713TIP3    H232083   4.576   4.546   3.679
10714TIP3   OH232084   1.805   3.240   4.453
10714TIP3    H132085   1.733   3.182   4.428
10714TIP3    H232086   1.765   3.327   4.461
10715TIP3   OH232087   7.545  -0.041   6.023
10715TIP3    H132088   7.600  -0.023   5.947
10715TIP3    H232089   7.457  -0.049   5.987
10716TIP3   OH232090   5.558   2.404   1.017
10716TIP3    H132091   5.558   2.308   1.020
10716TIP3    H232092   5.639   2.427   0.973
10717TIP3   OH232093   5.725   6.711   2.269
10717TIP3    H132094   5.676   6.644   2.222
10717TIP3    H232095   5.658   6.772   2.302
10718TIP3   OH232096   2.878   1.728   1.499
10718TIP3    H132097   2.944   1.666   1.530
10718TIP3    H232098   2.872   1.712   1.405
10719TIP3   OH232099   3.399   4.254   4.992
10719TIP3    H132100   3.443   4.319   4.937
10719TIP3    H232101   3.390   4.297   5.077
10720TIP3   OH232102   0.840   7.671   2.755
10720TIP3    H132103   0.819   7.765   2.749
10720TIP3    H232104   0.930   7.669   2.787
10721TIP3   OH232105   6.113   1.787   0.417
10721TIP3    H132106   6.023   1.820   0.412
10721TIP3    H232107   6.165   1.862   0.445
10722TIP3   OH232108   2.417   1.059   5.222
10722TIP3    H132109   2.425   1.004   5.300
10722TIP3    H232110   2.501   1.105   5.217
10723TIP3   OH232111   7.987   1.527   1.866
10723TIP3    H132112   8.011   1.572   1.785
10723TIP3    H232113   8.061   1.540   1.925
10724TIP3   OH232114   4.480   3.991   3.335
10724TIP3    H132115   4.465   4.015   3.243
10724TIP3    H232116   4.567   4.026   3.355
10725TIP3   OH232117   4.152   0.397   4.160
10725TIP3    H132118   4.101   0.406   4.080
10725TIP3    H232119   4.122   0.468   4.216
10726TIP3   OH232120   4.706   1.015   5.358
10726TIP3    H132121   4.783   1.053   5.315
10726TIP3    H232122   4.660   0.969   5.287
10727TIP3   OH232123   5.013   2.942   2.515
10727TIP3    H132124   5.072   2.999   2.465
10727TIP3    H232125   4.992   2.870   2.455
10728TIP3   OH232126   1.290   3.367   3.697
10728TIP3    H132127   1.225   3.338   3.760
10728TIP3    H232128   1.360   3.302   3.703
10729TIP3   OH232129   6.628   7.676   4.996
10729TIP3    H132130   6.601   7.692   5.086
10729TIP3    H232131   6.613   7.759   4.951
10730TIP3   OH232132   3.135   1.998   5.828
10730TIP3    H132133   3.043   1.998   5.854
10730TIP3    H232134   3.135   2.032   5.739
10731TIP3   OH232135   3.903   7.636   0.579
10731TIP3    H132136   3.879   7.704   0.641
10731TIP3    H232137   3.998   7.644   0.570
10732TIP3   OH232138   4.469   1.788   1.036
10732TIP3    H132139   4.402   1.734   1.076
10732TIP3    H232140   4.463   1.769   0.942
10733TIP3   OH232141   1.015   6.526   3.773
10733TIP3    H132142   1.080   6.595   3.783
10733TIP3    H232143   1.064   6.445   3.779
10734TIP3   OH232144   6.268   0.894   0.213
10734TIP3    H132145   6.215   0.828   0.167
10734TIP3    H232146   6.204   0.944   0.265
10735TIP3   OH232147   0.891   5.969   2.900
10735TIP3    H132148   0.935   5.955   2.984
10735TIP3    H232149   0.882   5.882   2.862
10736TIP3   OH232150   3.381   7.417   1.264
10736TIP3    H132151   3.374   7.404   1.169
10736TIP3    H232152   3.459   7.368   1.289
10737TIP3   OH232153   2.753   6.077   4.280
10737TIP3    H132154   2.681   6.140   4.281
10737TIP3    H232155   2.826   6.123   4.322
10738TIP3   OH232156   8.281   2.648   2.687
10738TIP3    H132157   8.241   2.597   2.617
10738TIP3    H232158   8.336   2.712   2.642
10739TIP3   OH232159   6.749   4.228   3.797
10739TIP3    H132160   6.771   4.288   3.727
10739TIP3    H232161   6.663   4.257   3.828
10740TIP3   OH232162   4.843   7.466   2.444
10740TIP3    H132163   4.837   7.374   2.419
10740TIP3    H232164   4.884   7.464   2.531
10741TIP3   OH232165   6.614   6.823   6.235
10741TIP3    H132166   6.667   6.809   6.157
10741TIP3    H232167   6.662   6.780   6.305
10742TIP3   OH232168   6.414   2.977   6.738
10742TIP3    H132169   6.490   3.006   6.688
10742TIP3    H232170   6.396   2.889   6.706
10743TIP3   OH232171   2.510   2.348   1.816
10743TIP3    H132172   2.535   2.373   1.905
10743TIP3    H232173   2.455   2.420   1.786
10744TIP3   OH232174   8.095   6.358   1.839
10744TIP3    H132175   8.021   6.331   1.785
10744TIP3    H232176   8.058   6.369   1.927
10745TIP3   OH232177   2.488   5.542   1.620
10745TIP3    H132178   2.529   5.628   1.622
10745TIP3    H232179   2.413   5.552   1.562
10746TIP3   OH232180   5.919   1.321   3.413
10746TIP3    H132181   5.830   1.309   3.378
10746TIP3    H232182   5.972   1.256   3.368
10747TIP3   OH232183   5.084   7.382   6.256
10747TIP3    H132184   5.005   7.415   6.213
10747TIP3    H232185   5.118   7.457   6.305
10748TIP3   OH232186   2.069   1.608   3.987
10748TIP3    H132187   2.089   1.610   4.081
10748TIP3    H232188   2.144   1.652   3.946
10749TIP3   OH232189   2.724   1.837   6.292
10749TIP3    H132190   2.646   1.783   6.285
10749TIP3    H232191   2.771   1.803   6.368
10750TIP3   OH232192   7.677   1.644   1.848
10750TIP3    H132193   7.691   1.730   1.889
10750TIP3    H232194   7.584   1.627   1.860
10751TIP3   OH232195   2.116   6.449   3.977
10751TIP3    H132196   2.092   6.421   4.065
10751TIP3    H232197   2.088   6.541   3.972
10752TIP3   OH232198   6.292   1.683   4.513
10752TIP3    H132199   6.379   1.722   4.523
10752TIP3    H232200   6.257   1.724   4.434
10753TIP3   OH232201   1.199   4.685   1.421
10753TIP3    H132202   1.122   4.655   1.374
10753TIP3    H232203   1.252   4.731   1.356
10754TIP3   OH232204   7.373   4.818   3.906
10754TIP3    H132205   7.425   4.887   3.948
10754TIP3    H232206   7.330   4.773   3.978
10755TIP3   OH232207   7.921   0.690   5.007
10755TIP3    H132208   7.946   0.633   4.934
10755TIP3    H232209   7.953   0.776   4.982
10756TIP3   OH232210   6.480   0.814   0.624
10756TIP3    H132211   6.565   0.833   0.665
10756TIP3    H232212   6.425   0.888   0.649
10757TIP3   OH232213   3.641   0.052   0.472
10757TIP3    H132214   3.656   0.036   0.565
10757TIP3    H232215   3.586   0.130   0.470
10758TIP3   OH232216   1.667   2.714   4.699
10758TIP3    H132217   1.684   2.669   4.781
10758TIP3    H232218   1.706   2.658   4.632
10759TIP3   OH232219   0.193   0.595   0.075
10759TIP3    H132220   0.217   0.649   0.150
10759TIP3    H232221   0.099   0.609   0.063
10760TIP3   OH232222   2.370   3.588   3.027
10760TIP3    H132223   2.420   3.561   3.105
10760TIP3    H232224   2.327   3.669   3.054
10761TIP3   OH232225   6.009   1.906   2.495
10761TIP3    H132226   6.099   1.873   2.502
10761TIP3    H232227   6.018   2.001   2.507
10762TIP3   OH232228   3.178   4.617   4.830
10762TIP3    H132229   3.263   4.629   4.788
10762TIP3    H232230   3.198   4.594   4.921
10763TIP3   OH232231   7.602   3.355   6.204
10763TIP3    H132232   7.666   3.406   6.254
10763TIP3    H232233   7.615   3.382   6.113
10764TIP3   OH232234   4.107   3.772   0.707
10764TIP3    H132235   4.172   3.825   0.662
10764TIP3    H232236   4.113   3.686   0.666
10765TIP3   OH232237   3.111   1.676   0.214
10765TIP3    H132238   3.034   1.650   0.163
10765TIP3    H232239   3.138   1.759   0.175
10766TIP3   OH232240   0.228   2.396   2.131
10766TIP3    H132241   0.165   2.467   2.118
10766TIP3    H232242   0.247   2.364   2.043
10767TIP3   OH232243   3.484   5.602   1.925
10767TIP3    H132244   3.442   5.679   1.962
10767TIP3    H232245   3.411   5.542   1.906
10768TIP3   OH232246   6.402   5.868   6.280
10768TIP3    H132247   6.393   5.790   6.224
10768TIP3    H232248   6.491   5.898   6.264
10769TIP3   OH232249   1.384   1.536   4.937
10769TIP3    H132250   1.476   1.529   4.908
10769TIP3    H232251   1.384   1.501   5.026
10770TIP3   OH232252   1.456   1.403   4.308
10770TIP3    H132253   1.453   1.420   4.402
10770TIP3    H232254   1.431   1.311   4.299
10771TIP3   OH232255   5.315   5.916   4.503
10771TIP3    H132256   5.328   5.839   4.559
10771TIP3    H232257   5.220   5.924   4.495
10772TIP3   OH232258   1.048   3.824   1.773
10772TIP3    H132259   0.984   3.868   1.716
10772TIP3    H232260   1.131   3.867   1.754
10773TIP3   OH232261   3.677   1.174   5.480
10773TIP3    H132262   3.654   1.242   5.543
10773TIP3    H232263   3.638   1.094   5.516
10774TIP3   OH232264   4.649   6.397   3.371
10774TIP3    H132265   4.643   6.492   3.363
10774TIP3    H232266   4.648   6.381   3.466
10775TIP3   OH232267   0.248   0.418   5.130
10775TIP3    H132268   0.260   0.346   5.068
10775TIP3    H232269   0.307   0.486   5.100
10776TIP3   OH232270   2.083   3.020   2.848
10776TIP3    H132271   2.176   3.039   2.855
10776TIP3    H232272   2.071   2.990   2.758
10777TIP3   OH232273   3.605   3.523   1.567
10777TIP3    H132274   3.652   3.570   1.499
10777TIP3    H232275   3.646   3.436   1.568
10778TIP3   OH232276   6.252   0.349   3.179
10778TIP3    H132277   6.212   0.276   3.132
10778TIP3    H232278   6.294   0.402   3.110
10779TIP3   OH232279   5.917   5.371   5.456
10779TIP3    H132280   6.000   5.370   5.504
10779TIP3    H232281   5.919   5.453   5.407
10780TIP3   OH232282   3.797   5.496   0.842
10780TIP3    H132283   3.815   5.403   0.832
10780TIP3    H232284   3.704   5.500   0.863
10781TIP3   OH232285   3.789   6.516   2.170
10781TIP3    H132286   3.731   6.556   2.235
10781TIP3    H232287   3.773   6.565   2.089
10782TIP3   OH232288   1.931   0.323   0.128
10782TIP3    H132289   1.907   0.374   0.206
10782TIP3    H232290   1.933   0.232   0.158
10783TIP3   OH232291   5.612   1.000   4.109
10783TIP3    H132292   5.664   0.926   4.077
10783TIP3    H232293   5.663   1.077   4.085
10784TIP3   OH232294   2.843   4.103   6.065
10784TIP3    H132295   2.862   4.034   6.002
10784TIP3    H232296   2.821   4.179   6.011
10785TIP3   OH232297   5.253   5.172   5.371
10785TIP3    H132298   5.249   5.096   5.313
10785TIP3    H232299   5.162   5.191   5.392
10786TIP3   OH232300   5.575   3.260   2.608
10786TIP3    H132301   5.666   3.264   2.638
10786TIP3    H232302   5.581   3.229   2.518
10787TIP3   OH232303   7.407   5.552   6.780
10787TIP3    H132304   7.405   5.646   6.761
10787TIP3    H232305   7.345   5.514   6.718
10788TIP3   OH232306   6.239   1.242   6.285
10788TIP3    H132307   6.301   1.169   6.280
10788TIP3    H232308   6.281   1.304   6.345
10789TIP3   OH232309   5.629   0.189   5.123
10789TIP3    H132310   5.626   0.167   5.030
10789TIP3    H232311   5.632   0.285   5.125
10790TIP3   OH232312   0.418   0.561   4.755
10790TIP3    H132313   0.504   0.519   4.762
10790TIP3    H232314   0.438   0.652   4.736
10791TIP3   OH232315   0.402   6.587   6.164
10791TIP3    H132316   0.398   6.496   6.133
10791TIP3    H232317   0.325   6.595   6.221
10792TIP3   OH232318   0.115   1.158   1.361
10792TIP3    H132319   0.107   1.219   1.434
10792TIP3    H232320   0.025   1.139   1.336
10793TIP3   OH232321   1.859   4.536   1.542
10793TIP3    H132322   1.901   4.480   1.477
10793TIP3    H232323   1.766   4.522   1.529
10794TIP3   OH232324   0.646   6.271   2.640
10794TIP3    H132325   0.729   6.313   2.618
10794TIP3    H232326   0.637   6.285   2.734
10795TIP3   OH232327   2.892   5.467   4.340
10795TIP3    H132328   2.931   5.461   4.427
10795TIP3    H232329   2.936   5.399   4.289
10796TIP3   OH232330   5.251   3.263   5.562
10796TIP3    H132331   5.341   3.230   5.560
10796TIP3    H232332   5.253   3.341   5.506
10797TIP3   OH232333   4.418   3.809   1.784
10797TIP3    H132334   4.457   3.724   1.806
10797TIP3    H232335   4.325   3.789   1.769
10798TIP3   OH232336   4.920   5.907   6.778
10798TIP3    H132337   4.935   5.841   6.711
10798TIP3    H232338   5.001   5.907   6.830
10799TIP3   OH232339   2.692   3.007   0.159
10799TIP3    H132340   2.660   2.919   0.180
10799TIP3    H232341   2.614   3.060   0.148
10800TIP3   OH232342   7.109   4.537   6.706
10800TIP3    H132343   7.123   4.451   6.667
10800TIP3    H232344   7.185   4.551   6.762
10801TIP3   OH232345   6.409   7.682   3.729
10801TIP3    H132346   6.412   7.680   3.633
10801TIP3    H232347   6.494   7.717   3.755
10802TIP3   OH232348   3.129   6.722   3.650
10802TIP3    H132349   3.105   6.813   3.666
10802TIP3    H232350   3.048   6.673   3.665
10803TIP3   OH232351   3.388   4.024   4.847
10803TIP3    H132352   3.388   4.099   4.907
10803TIP3    H232353   3.375   4.063   4.760
10804TIP3   OH232354   3.978  -0.026   0.528
10804TIP3    H132355   3.932  -0.048   0.448
10804TIP3    H232356   3.969   0.069   0.536
10805TIP3   OH232357   4.620   4.072   4.555
10805TIP3    H132358   4.657   4.051   4.469
10805TIP3    H232359   4.644   4.164   4.569
10806TIP3   OH232360   6.103   6.495   6.544
10806TIP3    H132361   6.146   6.456   6.468
10806TIP3    H232362   6.174   6.513   6.606
10807TIP3   OH232363   6.142   4.074   1.148
10807TIP3    H132364   6.060   4.028   1.135
10807TIP3    H232365   6.190   4.064   1.066
10808TIP3   OH232366   6.970   3.007   1.827
10808TIP3    H132367   6.946   3.067   1.898
10808TIP3    H232368   7.059   2.979   1.848
10809TIP3   OH232369   3.309   2.632   4.750
10809TIP3    H132370   3.358   2.707   4.717
10809TIP3    H232371   3.255   2.604   4.676
10810TIP3   OH232372   3.131   3.187   3.864
10810TIP3    H132373   3.053   3.153   3.820
10810TIP3    H232374   3.127   3.151   3.952
10811TIP3   OH232375   8.159   2.934   3.394
10811TIP3    H132376   8.102   3.009   3.410
10811TIP3    H232377   8.247   2.964   3.416
10812TIP3   OH232378   1.607   1.260   1.571
10812TIP3    H132379   1.696   1.294   1.572
10812TIP3    H232380   1.560   1.315   1.634
10813TIP3   OH232381   4.235   1.398   6.166
10813TIP3    H132382   4.231   1.433   6.077
10813TIP3    H232383   4.322   1.361   6.174
10814TIP3   OH232384   2.965   7.362   5.615
10814TIP3    H132385   2.955   7.388   5.706
10814TIP3    H232386   2.888   7.397   5.571
10815TIP3   OH232387   4.321   7.710   6.692
10815TIP3    H132388   4.414   7.684   6.689
10815TIP3    H232389   4.300   7.734   6.602
10816TIP3   OH232390   6.128   5.551   4.386
10816TIP3    H132391   6.223   5.542   4.388
10816TIP3    H232392   6.105   5.587   4.472
10817TIP3   OH232393   1.403   7.163   2.633
10817TIP3    H132394   1.411   7.198   2.722
10817TIP3    H232395   1.489   7.125   2.615
10818TIP3   OH232396   5.298   7.400   5.328
10818TIP3    H132397   5.224   7.455   5.304
10818TIP3    H232398   5.286   7.320   5.277
10819TIP3   OH232399   7.350   4.284   5.100
10819TIP3    H132400   7.365   4.323   5.186
10819TIP3    H232401   7.389   4.197   5.105
10820TIP3   OH232402   6.893   3.827   6.628
10820TIP3    H132403   6.899   3.778   6.711
10820TIP3    H232404   6.950   3.779   6.568
10821TIP3   OH232405   5.660   4.882   1.190
10821TIP3    H132406   5.633   4.804   1.239
10821TIP3    H232407   5.755   4.885   1.199
10822TIP3   OH232408   2.248   4.638   0.350
10822TIP3    H132409   2.286   4.583   0.282
10822TIP3    H232410   2.170   4.676   0.310
10823TIP3   OH232411   0.187   0.489   4.581
10823TIP3    H132412   0.255   0.435   4.542
10823TIP3    H232413   0.233   0.544   4.645
10824TIP3   OH232414   1.015   0.552   6.628
10824TIP3    H132415   0.987   0.500   6.704
10824TIP3    H232416   1.104   0.523   6.610
10825TIP3   OH232417   8.060   1.685   2.346
10825TIP3    H132418   8.091   1.596   2.333
10825TIP3    H232419   8.128   1.741   2.307
10826TIP3   OH232420   1.768   5.970   6.643
10826TIP3    H132421   1.844   5.951   6.699
10826TIP3    H232422   1.758   5.892   6.589
10827TIP3   OH232423   4.105   4.502   4.629
10827TIP3    H132424   4.129   4.593   4.646
10827TIP3    H232425   4.184   4.463   4.592
10828TIP3   OH232426   3.472   2.511   3.072
10828TIP3    H132427   3.538   2.449   3.040
10828TIP3    H232428   3.487   2.590   3.021
10829TIP3   OH232429   3.394   3.858   5.741
10829TIP3    H132430   3.489   3.858   5.731
10829TIP3    H232431   3.378   3.894   5.828
10830TIP3   OH232432   3.337   0.695   1.356
10830TIP3    H132433   3.336   0.788   1.378
10830TIP3    H232434   3.252   0.663   1.387
10831TIP3   OH232435   2.726   7.751   1.155
10831TIP3    H132436   2.690   7.700   1.228
10831TIP3    H232437   2.667   7.826   1.147
10832TIP3   OH232438   5.849   6.113   1.301
10832TIP3    H132439   5.885   6.188   1.347
10832TIP3    H232440   5.800   6.065   1.368
10833TIP3   OH232441   1.237   1.876   3.564
10833TIP3    H132442   1.239   1.956   3.617
10833TIP3    H232443   1.288   1.812   3.614
10834TIP3   OH232444   2.741   5.707   1.390
10834TIP3    H132445   2.736   5.756   1.472
10834TIP3    H232446   2.679   5.751   1.332
10835TIP3   OH232447   7.603   4.542   4.054
10835TIP3    H132448   7.628   4.450   4.058
10835TIP3    H232449   7.507   4.541   4.056
10836TIP3   OH232450   2.710   6.321   4.039
10836TIP3    H132451   2.622   6.312   4.076
10836TIP3    H232452   2.707   6.403   3.991
10837TIP3   OH232453   7.171   1.411   3.017
10837TIP3    H132454   7.117   1.349   2.967
10837TIP3    H232455   7.150   1.391   3.108
10838TIP3   OH232456   1.957   3.889   2.230
10838TIP3    H132457   2.003   3.942   2.295
10838TIP3    H232458   1.948   3.946   2.154
10839TIP3   OH232459   7.408   5.499   0.473
10839TIP3    H132460   7.412   5.463   0.384
10839TIP3    H232461   7.446   5.430   0.528
10840TIP3   OH232462   6.109   2.476   6.302
10840TIP3    H132463   6.018   2.501   6.317
10840TIP3    H232464   6.130   2.417   6.375
10841TIP3   OH232465   2.407   4.949   2.584
10841TIP3    H132466   2.501   4.953   2.600
10841TIP3    H232467   2.399   4.936   2.490
10842TIP3   OH232468   6.215   1.959   3.482
10842TIP3    H132469   6.185   1.884   3.534
10842TIP3    H232470   6.153   2.029   3.502
10843TIP3   OH232471   5.224   1.561   1.557
10843TIP3    H132472   5.187   1.473   1.553
10843TIP3    H232473   5.204   1.599   1.471
10844TIP3   OH232474   0.928   6.958   5.457
10844TIP3    H132475   0.956   7.031   5.512
10844TIP3    H232476   0.869   6.907   5.514
10845TIP3   OH232477   5.180   1.884   4.023
10845TIP3    H132478   5.247   1.836   4.072
10845TIP3    H232479   5.115   1.817   4.000
10846TIP3   OH232480   3.185   1.913   3.223
10846TIP3    H132481   3.195   1.819   3.212
10846TIP3    H232482   3.218   1.951   3.142
10847TIP3   OH232483   0.475   7.083   1.256
10847TIP3    H132484   0.467   7.166   1.304
10847TIP3    H232485   0.538   7.101   1.186
10848TIP3   OH232486   3.337   6.964   5.953
10848TIP3    H132487   3.312   6.904   6.023
10848TIP3    H232488   3.433   6.962   5.954
10849TIP3   OH232489   7.317   2.531   0.817
10849TIP3    H132490   7.237   2.582   0.805
10849TIP3    H232491   7.388   2.595   0.806
10850TIP3   OH232492   5.345   3.252   4.653
10850TIP3    H132493   5.317   3.301   4.731
10850TIP3    H232494   5.268   3.200   4.629
10851TIP3   OH232495   1.878   5.790   5.414
10851TIP3    H132496   1.798   5.814   5.368
10851TIP3    H232497   1.936   5.757   5.346
10852TIP3   OH232498   1.692   4.391   2.664
10852TIP3    H132499   1.694   4.384   2.569
10852TIP3    H232500   1.777   4.356   2.692
10853TIP3   OH232501   6.341   7.527   1.886
10853TIP3    H132502   6.345   7.585   1.962
10853TIP3    H232503   6.255   7.545   1.846
10854TIP3   OH232504   0.248   5.199   1.348
10854TIP3    H132505   0.256   5.179   1.441
10854TIP3    H232506   0.163   5.241   1.340
10855TIP3   OH232507   4.069   5.062   2.237
10855TIP3    H132508   4.024   5.133   2.191
10855TIP3    H232509   4.043   5.072   2.329
10856TIP3   OH232510   6.749   5.257   2.393
10856TIP3    H132511   6.825   5.204   2.369
10856TIP3    H232512   6.768   5.288   2.481
10857TIP3   OH232513   4.797   7.628   5.402
10857TIP3    H132514   4.766   7.550   5.357
10857TIP3    H232515   4.720   7.662   5.447
10858TIP3   OH232516   6.978   7.045   5.961
10858TIP3    H132517   7.065   7.083   5.967
10858TIP3    H232518   6.965   7.028   5.868
10859TIP3   OH232519   3.088   3.549   6.260
10859TIP3    H132520   3.024   3.619   6.245
10859TIP3    H232521   3.077   3.524   6.352
10860TIP3   OH232522   4.329   1.548   2.172
10860TIP3    H132523   4.306   1.526   2.262
10860TIP3    H232524   4.398   1.615   2.181
10861TIP3   OH232525   1.798   4.594   1.066
10861TIP3    H132526   1.819   4.531   1.135
10861TIP3    H232527   1.702   4.595   1.063
10862TIP3   OH232528   3.929   3.199   2.503
10862TIP3    H132529   3.953   3.273   2.559
10862TIP3    H232530   3.880   3.140   2.560
10863TIP3   OH232531   1.477   1.726   0.024
10863TIP3    H132532   1.505   1.645   0.066
10863TIP3    H232533   1.544   1.790   0.047
10864TIP3   OH232534   1.844   2.017   3.896
10864TIP3    H132535   1.934   2.013   3.926
10864TIP3    H232536   1.792   1.991   3.972
10865TIP3   OH232537   4.170   0.742   4.959
10865TIP3    H132538   4.115   0.782   4.891
10865TIP3    H232539   4.242   0.701   4.910
10866TIP3   OH232540   0.867   0.563   0.534
10866TIP3    H132541   0.838   0.475   0.558
10866TIP3    H232542   0.787   0.617   0.540
10867TIP3   OH232543   7.931   4.232   4.199
10867TIP3    H132544   8.009   4.269   4.239
10867TIP3    H232545   7.950   4.138   4.190
10868TIP3   OH232546   7.990   7.792   1.892
10868TIP3    H132547   8.080   7.825   1.897
10868TIP3    H232548   7.982   7.731   1.965
10869TIP3   OH232549   1.545   2.455   1.990
10869TIP3    H132550   1.585   2.370   2.009
10869TIP3    H232551   1.518   2.449   1.898
10870TIP3   OH232552   7.558   0.374   4.668
10870TIP3    H132553   7.583   0.299   4.613
10870TIP3    H232554   7.466   0.388   4.649
10871TIP3   OH232555   2.213   2.174   0.384
10871TIP3    H132556   2.134   2.133   0.349
10871TIP3    H232557   2.185   2.212   0.467
10872TIP3   OH232558   0.910   7.319   4.995
10872TIP3    H132559   0.891   7.285   4.908
10872TIP3    H232560   0.842   7.282   5.051
10873TIP3   OH232561   2.965   7.533   5.147
10873TIP3    H132562   2.939   7.494   5.063
10873TIP3    H232563   2.909   7.490   5.212
10874TIP3   OH232564   1.426   5.667   5.065
10874TIP3    H132565   1.437   5.624   5.149
10874TIP3    H232566   1.403   5.596   5.005
10875TIP3   OH232567   3.769   5.966   2.743
10875TIP3    H132568   3.783   6.040   2.683
10875TIP3    H232569   3.762   6.006   2.829
10876TIP3   OH232570   1.213   7.483   4.225
10876TIP3    H132571   1.164   7.561   4.250
10876TIP3    H232572   1.146   7.420   4.199
10877TIP3   OH232573   7.325   6.681   1.043
10877TIP3    H132574   7.324   6.776   1.055
10877TIP3    H232575   7.232   6.658   1.040
10878TIP3   OH232576   6.382   6.954   5.564
10878TIP3    H132577   6.404   6.881   5.506
10878TIP3    H232578   6.390   7.032   5.508
10879TIP3   OH232579   3.669   0.378   2.278
10879TIP3    H132580   3.655   0.470   2.297
10879TIP3    H232581   3.657   0.370   2.183
10880TIP3   OH232582   5.047   4.750   1.245
10880TIP3    H132583   5.028   4.823   1.304
10880TIP3    H232584   4.983   4.758   1.174
10881TIP3   OH232585   1.035   5.717   0.538
10881TIP3    H132586   0.943   5.719   0.564
10881TIP3    H232587   1.033   5.717   0.442
10882TIP3   OH232588   7.189   0.377   2.328
10882TIP3    H132589   7.145   0.298   2.295
10882TIP3    H232590   7.142   0.449   2.287
10883TIP3   OH232591   6.935   2.825   1.585
10883TIP3    H132592   6.940   2.781   1.670
10883TIP3    H232593   6.952   2.917   1.604
10884TIP3   OH232594   1.227   6.170   3.089
10884TIP3    H132595   1.161   6.238   3.079
10884TIP3    H232596   1.277   6.173   3.007
10885TIP3   OH232597   7.650   0.748   1.117
10885TIP3    H132598   7.555   0.735   1.116
10885TIP3    H232599   7.661   0.839   1.088
10886TIP3   OH232600   4.031   7.158   5.599
10886TIP3    H132601   3.970   7.197   5.661
10886TIP3    H232602   4.105   7.129   5.652
10887TIP3   OH232603   6.012   0.046   4.513
10887TIP3    H132604   5.957   0.028   4.589
10887TIP3    H232605   5.977  -0.011   4.444
10888TIP3   OH232606   3.675   7.286   0.125
10888TIP3    H132607   3.682   7.275   0.220
10888TIP3    H232608   3.709   7.205   0.088
10889TIP3   OH232609   1.764   6.417   1.840
10889TIP3    H132610   1.738   6.497   1.794
10889TIP3    H232611   1.811   6.366   1.774
10890TIP3   OH232612   6.841   0.933   6.460
10890TIP3    H132613   6.911   0.886   6.504
10890TIP3    H232614   6.840   0.897   6.371
10891TIP3   OH232615   4.792   1.356   3.923
10891TIP3    H132616   4.763   1.426   3.981
10891TIP3    H232617   4.821   1.286   3.982
10892TIP3   OH232618   0.596   1.194   4.959
10892TIP3    H132619   0.551   1.214   4.877
10892TIP3    H232620   0.687   1.219   4.944
10893TIP3   OH232621   5.317   6.554   4.032
10893TIP3    H132622   5.350   6.559   4.122
10893TIP3    H232623   5.355   6.474   3.996
10894TIP3   OH232624   3.776   2.758   3.284
10894TIP3    H132625   3.725   2.762   3.365
10894TIP3    H232626   3.779   2.664   3.262
10895TIP3   OH232627   7.310   2.590   5.271
10895TIP3    H132628   7.236   2.563   5.325
10895TIP3    H232629   7.305   2.534   5.193
10896TIP3   OH232630   2.734   5.868   0.745
10896TIP3    H132631   2.660   5.917   0.781
10896TIP3    H232632   2.699   5.826   0.667
10897TIP3   OH232633   1.909   7.420   6.009
10897TIP3    H132634   1.872   7.470   5.937
10897TIP3    H232635   1.959   7.484   6.060
10898TIP3   OH232636   0.226   4.250   0.049
10898TIP3    H132637   0.138   4.241   0.085
10898TIP3    H232638   0.225   4.194  -0.029
10899TIP3   OH232639   5.652   4.163   1.671
10899TIP3    H132640   5.733   4.140   1.625
10899TIP3    H232641   5.619   4.080   1.705
10900TIP3   OH232642   0.238   6.133   0.597
10900TIP3    H132643   0.146   6.156   0.609
10900TIP3    H232644   0.266   6.100   0.682
10901TIP3   OH232645   1.625   5.993   2.293
10901TIP3    H132646   1.618   5.959   2.382
10901TIP3    H232647   1.697   5.943   2.254
10902TIP3   OH232648   4.107   6.752   6.699
10902TIP3    H132649   4.080   6.824   6.756
10902TIP3    H232650   4.084   6.673   6.747
10903TIP3   OH232651   0.075   0.055   4.286
10903TIP3    H132652   0.040  -0.022   4.241
10903TIP3    H232653   0.145   0.086   4.230
10904TIP3   OH232654   0.652   0.728   0.532
10904TIP3    H132655   0.640   0.810   0.485
10904TIP3    H232656   0.564   0.704   0.562
10905TIP3   OH232657   1.559   7.603   2.941
10905TIP3    H132658   1.598   7.609   3.028
10905TIP3    H232659   1.505   7.525   2.943
10906TIP3   OH232660   3.234   0.040   5.135
10906TIP3    H132661   3.318   0.065   5.172
10906TIP3    H232662   3.255  -0.007   5.054
10907TIP3   OH232663   7.398   0.676   4.585
10907TIP3    H132664   7.366   0.743   4.645
10907TIP3    H232665   7.342   0.600   4.602
10908TIP3   OH232666   4.189   7.235   4.609
10908TIP3    H132667   4.112   7.279   4.573
10908TIP3    H232668   4.248   7.306   4.634
10909TIP3   OH232669   2.391   4.460   6.088
10909TIP3    H132670   2.483   4.437   6.071
10909TIP3    H232671   2.354   4.475   6.001
10910TIP3   OH232672   7.354   5.141   2.223
10910TIP3    H132673   7.330   5.178   2.308
10910TIP3    H232674   7.367   5.047   2.239
10911TIP3   OH232675   1.149   5.081   1.278
10911TIP3    H132676   1.231   5.068   1.231
10911TIP3    H232677   1.091   5.012   1.244
10912TIP3   OH232678   6.220   4.496   4.294
10912TIP3    H132679   6.247   4.451   4.374
10912TIP3    H232680   6.129   4.521   4.311
10913TIP3   OH232681   3.746   4.921   4.499
10913TIP3    H132682   3.726   4.833   4.468
10913TIP3    H232683   3.669   4.948   4.549
10914TIP3   OH232684   7.695   7.671   5.456
10914TIP3    H132685   7.788   7.694   5.446
10914TIP3    H232686   7.687   7.648   5.549
10915TIP3   OH232687   3.828   5.515   6.001
10915TIP3    H132688   3.851   5.526   6.094
10915TIP3    H232689   3.769   5.440   6.000
10916TIP3   OH232690   8.038   2.218   4.819
10916TIP3    H132691   7.945   2.199   4.822
10916TIP3    H232692   8.063   2.230   4.911
10917TIP3   OH232693   3.489   3.007   0.803
10917TIP3    H132694   3.399   2.985   0.778
10917TIP3    H232695   3.537   3.006   0.720
10918TIP3   OH232696   1.472   6.958   2.863
10918TIP3    H132697   1.444   6.867   2.854
10918TIP3    H232698   1.391   7.008   2.867
10919TIP3   OH232699   7.645   4.340   4.929
10919TIP3    H132700   7.707   4.412   4.916
10919TIP3    H232701   7.565   4.382   4.960
10920TIP3   OH232702   1.280   0.741   5.257
10920TIP3    H132703   1.268   0.731   5.351
10920TIP3    H232704   1.375   0.739   5.244
10921TIP3   OH232705   6.140   1.473   3.525
10921TIP3    H132706   6.057   1.456   3.481
10921TIP3    H232707   6.196   1.401   3.500
10922TIP3   OH232708   8.066   7.261   5.553
10922TIP3    H132709   8.084   7.342   5.601
10922TIP3    H232710   8.098   7.192   5.610
10923TIP3   OH232711   6.045   0.385   1.787
10923TIP3    H132712   5.956   0.368   1.757
10923TIP3    H232713   6.098   0.317   1.745
10924TIP3   OH232714   8.305   2.265   0.681
10924TIP3    H132715   8.235   2.238   0.622
10924TIP3    H232716   8.383   2.269   0.625
10925TIP3   OH232717   1.815   2.953   4.196
10925TIP3    H132718   1.905   2.924   4.182
10925TIP3    H232719   1.796   2.929   4.286
10926TIP3   OH232720   4.275   5.587   5.952
10926TIP3    H132721   4.189   5.544   5.960
10926TIP3    H232722   4.334   5.517   5.923
10927TIP3   OH232723   2.712   5.092   5.847
10927TIP3    H132724   2.716   5.127   5.757
10927TIP3    H232725   2.655   5.153   5.893
10928TIP3   OH232726   1.591   1.742   2.279
10928TIP3    H132727   1.677   1.712   2.249
10928TIP3    H232728   1.552   1.665   2.320
10929TIP3   OH232729   2.831   2.648   5.368
10929TIP3    H132730   2.781   2.592   5.309
10929TIP3    H232731   2.778   2.727   5.376
10930TIP3   OH232732   4.616   2.598   0.318
10930TIP3    H132733   4.642   2.688   0.300
10930TIP3    H232734   4.523   2.604   0.338
10931TIP3   OH232735   5.063   2.861   5.331
10931TIP3    H132736   5.112   2.868   5.413
10931TIP3    H232737   5.004   2.786   5.346
10932TIP3   OH232738   4.923   5.089   3.059
10932TIP3    H132739   4.890   5.176   3.083
10932TIP3    H232740   4.957   5.053   3.141
10933TIP3   OH232741   6.882   0.209   6.341
10933TIP3    H132742   6.893   0.137   6.402
10933TIP3    H232743   6.803   0.254   6.372
10934TIP3   OH232744   0.561   3.811   1.032
10934TIP3    H132745   0.484   3.794   0.978
10934TIP3    H232746   0.584   3.726   1.069
10935TIP3   OH232747   5.235   5.833   1.688
10935TIP3    H132748   5.171   5.899   1.661
10935TIP3    H232749   5.246   5.778   1.610
10936TIP3   OH232750   5.267   0.083   1.186
10936TIP3    H132751   5.189   0.031   1.165
10936TIP3    H232752   5.235   0.152   1.245
10937TIP3   OH232753   6.464   4.306   2.684
10937TIP3    H132754   6.476   4.250   2.607
10937TIP3    H232755   6.552   4.315   2.721
10938TIP3   OH232756   3.571   1.001   6.305
10938TIP3    H132757   3.508   0.930   6.310
10938TIP3    H232758   3.656   0.959   6.322
10939TIP3   OH232759   1.676   0.304   1.447
10939TIP3    H132760   1.639   0.299   1.535
10939TIP3    H232761   1.658   0.218   1.409
10940TIP3   OH232762   5.380   4.552   5.750
10940TIP3    H132763   5.342   4.578   5.666
10940TIP3    H232764   5.464   4.599   5.753
10941TIP3   OH232765   4.314   5.003   5.579
10941TIP3    H132766   4.316   5.080   5.523
10941TIP3    H232767   4.224   4.971   5.574
10942TIP3   OH232768   3.091   1.101   4.737
10942TIP3    H132769   3.072   1.123   4.828
10942TIP3    H232770   3.005   1.088   4.697
10943TIP3   OH232771   2.606   5.242   2.865
10943TIP3    H132772   2.602   5.305   2.793
10943TIP3    H232773   2.516   5.209   2.872
10944TIP3   OH232774   6.187   6.404   6.301
10944TIP3    H132775   6.184   6.311   6.279
10944TIP3    H232776   6.119   6.443   6.246
10945TIP3   OH232777   2.559   5.084   5.462
10945TIP3    H132778   2.578   5.081   5.369
10945TIP3    H232779   2.479   5.032   5.472
10946TIP3   OH232780   6.646   1.476   4.939
10946TIP3    H132781   6.712   1.494   4.873
10946TIP3    H232782   6.563   1.476   4.890
10947TIP3   OH232783   4.690   4.451   2.133
10947TIP3    H132784   4.670   4.518   2.068
10947TIP3    H232785   4.620   4.459   2.198
10948TIP3   OH232786   6.124   5.772   2.942
10948TIP3    H132787   6.152   5.858   2.971
10948TIP3    H232788   6.161   5.763   2.854
10949TIP3   OH232789   2.769   1.116   0.761
10949TIP3    H132790   2.834   1.181   0.786
10949TIP3    H232791   2.764   1.057   0.836
10950TIP3   OH232792   1.191   2.735   6.065
10950TIP3    H132793   1.154   2.792   5.998
10950TIP3    H232794   1.208   2.793   6.139
10951TIP3   OH232795   3.039   3.650   1.776
10951TIP3    H132796   3.047   3.714   1.847
10951TIP3    H232797   3.102   3.678   1.710
10952TIP3   OH232798   1.076   5.087   5.211
10952TIP3    H132799   0.990   5.087   5.169
10952TIP3    H232800   1.067   5.023   5.282
10953TIP3   OH232801   7.706   5.187   1.908
10953TIP3    H132802   7.640   5.123   1.935
10953TIP3    H232803   7.704   5.254   1.977
10954TIP3   OH232804   1.299   1.787   4.234
10954TIP3    H132805   1.339   1.761   4.317
10954TIP3    H232806   1.211   1.751   4.237
10955TIP3   OH232807   1.269   3.817   5.579
10955TIP3    H132808   1.253   3.876   5.505
10955TIP3    H232809   1.284   3.875   5.653
10956TIP3   OH232810   7.631   1.254   6.182
10956TIP3    H132811   7.583   1.334   6.164
10956TIP3    H232812   7.720   1.284   6.203
10957TIP3   OH232813   3.609   6.093   4.210
10957TIP3    H132814   3.583   6.156   4.144
10957TIP3    H232815   3.703   6.082   4.197
10958TIP3   OH232816   3.428   3.664   2.762
10958TIP3    H132817   3.358   3.605   2.735
10958TIP3    H232818   3.446   3.640   2.853
10959TIP3   OH232819   2.447   4.531   3.163
10959TIP3    H132820   2.418   4.549   3.252
10959TIP3    H232821   2.538   4.503   3.173
10960TIP3   OH232822   3.910   4.215   2.910
10960TIP3    H132823   3.852   4.222   2.834
10960TIP3    H232824   3.892   4.129   2.945
10961TIP3   OH232825   3.142   5.651   3.286
10961TIP3    H132826   3.197   5.586   3.242
10961TIP3    H232827   3.077   5.676   3.221
10962TIP3   OH232828   7.128   3.670   0.665
10962TIP3    H132829   7.125   3.663   0.570
10962TIP3    H232830   7.215   3.704   0.684
10963TIP3   OH232831   6.707   5.277   5.783
10963TIP3    H132832   6.688   5.209   5.719
10963TIP3    H232833   6.674   5.242   5.866
10964TIP3   OH232834   6.176   1.033   3.566
10964TIP3    H132835   6.138   1.098   3.626
10964TIP3    H232836   6.107   1.017   3.501
10965TIP3   OH232837   3.089   4.302   4.307
10965TIP3    H132838   3.126   4.305   4.395
10965TIP3    H232839   3.022   4.235   4.311
10966TIP3   OH232840   7.173   6.975   0.666
10966TIP3    H132841   7.135   7.061   0.649
10966TIP3    H232842   7.194   6.941   0.579
10967TIP3   OH232843   2.930   3.826   2.926
10967TIP3    H132844   2.863   3.770   2.965
10967TIP3    H232845   2.883   3.884   2.867
10968TIP3   OH232846   4.443   1.989   2.165
10968TIP3    H132847   4.537   1.981   2.148
10968TIP3    H232848   4.403   1.991   2.079
10969TIP3   OH232849   5.948   7.525   0.677
10969TIP3    H132850   5.938   7.497   0.768
10969TIP3    H232851   5.868   7.574   0.658
10970TIP3   OH232852   3.680   4.824   5.297
10970TIP3    H132853   3.745   4.883   5.260
10970TIP3    H232854   3.596   4.856   5.262
10971TIP3   OH232855   6.822   2.654   3.391
10971TIP3    H132856   6.783   2.621   3.472
10971TIP3    H232857   6.769   2.615   3.322
10972TIP3   OH232858   8.089   0.549   5.273
10972TIP3    H132859   8.178   0.583   5.275
10972TIP3    H232860   8.064   0.553   5.181
10973TIP3   OH232861   6.151   7.131   5.367
10973TIP3    H132862   6.237   7.167   5.391
10973TIP3    H232863   6.151   7.042   5.402
10974TIP3   OH232864   5.676   0.579   5.652
10974TIP3    H132865   5.761   0.560   5.612
10974TIP3    H232866   5.687   0.558   5.745
10975TIP3   OH232867   8.157   0.387   2.267
10975TIP3    H132868   8.066   0.358   2.276
10975TIP3    H232869   8.199   0.319   2.215
10976TIP3   OH232870   1.114   0.817   4.153
10976TIP3    H132871   1.023   0.847   4.164
10976TIP3    H232872   1.122   0.741   4.210
10977TIP3   OH232873   3.535   5.865   4.560
10977TIP3    H132874   3.483   5.785   4.554
10977TIP3    H232875   3.625   5.837   4.539
10978TIP3   OH232876   2.326   0.558   0.496
10978TIP3    H132877   2.233   0.577   0.493
10978TIP3    H232878   2.339   0.511   0.579
10979TIP3   OH232879   6.460   7.470   2.357
10979TIP3    H132880   6.397   7.412   2.315
10979TIP3    H232881   6.542   7.455   2.311
10980TIP3   OH232882   5.777   3.178   0.593
10980TIP3    H132883   5.708   3.215   0.537
10980TIP3    H232884   5.848   3.157   0.533
10981TIP3   OH232885   7.321   5.794   2.480
10981TIP3    H132886   7.413   5.804   2.502
10981TIP3    H232887   7.305   5.699   2.486
10982TIP3   OH232888   4.592   4.233   0.234
10982TIP3    H132889   4.658   4.247   0.302
10982TIP3    H232890   4.614   4.148   0.196
10983TIP3   OH232891   7.391   1.560   3.620
10983TIP3    H132892   7.473   1.523   3.653
10983TIP3    H232893   7.384   1.525   3.531
10984TIP3   OH232894   6.619   0.892   1.515
10984TIP3    H132895   6.583   0.849   1.438
10984TIP3    H232896   6.712   0.866   1.516
10985TIP3   OH232897   3.103   3.467   6.512
10985TIP3    H132898   3.179   3.412   6.527
10985TIP3    H232899   3.028   3.410   6.529
10986TIP3   OH232900   5.376   3.106   6.719
10986TIP3    H132901   5.281   3.098   6.731
10986TIP3    H232902   5.411   3.024   6.752
10987TIP3   OH232903   3.909   7.709   3.636
10987TIP3    H132904   3.889   7.774   3.569
10987TIP3    H232905   3.899   7.624   3.592
10988TIP3   OH232906   3.337   7.235   5.056
10988TIP3    H132907   3.370   7.241   4.966
10988TIP3    H232908   3.244   7.220   5.046
10989TIP3   OH232909   3.516   0.918   2.591
10989TIP3    H132910   3.466   0.999   2.599
10989TIP3    H232911   3.576   0.934   2.518
10990TIP3   OH232912   4.608   3.724   5.772
10990TIP3    H132913   4.656   3.807   5.765
10990TIP3    H232914   4.549   3.737   5.847
10991TIP3   OH232915   1.225   4.655   5.871
10991TIP3    H132916   1.200   4.659   5.964
10991TIP3    H232917   1.157   4.706   5.826
10992TIP3   OH232918   2.214   5.812   1.820
10992TIP3    H132919   2.212   5.741   1.756
10992TIP3    H232920   2.200   5.769   1.904
10993TIP3   OH232921   6.489   5.167   4.140
10993TIP3    H132922   6.515   5.214   4.061
10993TIP3    H232923   6.421   5.223   4.179
10994TIP3   OH232924   7.329   4.846   6.057
10994TIP3    H132925   7.398   4.882   6.113
10994TIP3    H232926   7.321   4.908   5.985
10995TIP3   OH232927   1.029   3.727   0.302
10995TIP3    H132928   1.018   3.708   0.209
10995TIP3    H232929   1.054   3.820   0.305
10996TIP3   OH232930   2.637   2.133   6.732
10996TIP3    H132931   2.706   2.083   6.775
10996TIP3    H232932   2.567   2.069   6.716
10997TIP3   OH232933   8.065   2.297   1.833
10997TIP3    H132934   8.029   2.382   1.809
10997TIP3    H232935   7.993   2.252   1.877
10998TIP3   OH232936   5.987   5.995   5.702
10998TIP3    H132937   6.060   6.031   5.751
10998TIP3    H232938   5.966   6.063   5.637
10999TIP3   OH232939   1.142   2.771   3.365
10999TIP3    H132940   1.109   2.759   3.276
10999TIP3    H232941   1.220   2.826   3.355
11000TIP3   OH232942   2.504   0.567   6.626
11000TIP3    H132943   2.493   0.531   6.714
11000TIP3    H232944   2.450   0.646   6.626
11001TIP3   OH232945   3.697   2.147   3.723
11001TIP3    H132946   3.786   2.151   3.758
11001TIP3    H232947   3.697   2.070   3.666
11002TIP3   OH232948   7.837   5.502   2.826
11002TIP3    H132949   7.826   5.595   2.844
11002TIP3    H232950   7.747   5.468   2.822
11003TIP3   OH232951   5.060   0.560   5.965
11003TIP3    H132952   4.998   0.487   5.974
11003TIP3    H232953   5.006   0.635   5.941
11004TIP3   OH232954   2.342   1.169   1.479
11004TIP3    H132955   2.343   1.163   1.574
11004TIP3    H232956   2.434   1.164   1.454
11005TIP3   OH232957   0.245   5.721   3.696
11005TIP3    H132958   0.240   5.697   3.603
11005TIP3    H232959   0.180   5.665   3.739
11006TIP3   OH232960   6.106   4.385   0.029
11006TIP3    H132961   6.052   4.312   0.057
11006TIP3    H232962   6.083   4.397  -0.064
11007TIP3   OH232963   4.025   6.643   4.104
11007TIP3    H132964   4.073   6.724   4.124
11007TIP3    H232965   4.093   6.575   4.101
11008TIP3   OH232966   3.332   2.632   1.441
11008TIP3    H132967   3.292   2.705   1.393
11008TIP3    H232968   3.265   2.603   1.502
11009TIP3   OH232969   6.272   6.380   3.839
11009TIP3    H132970   6.273   6.337   3.754
11009TIP3    H232971   6.219   6.323   3.894
11010TIP3   OH232972   6.280   4.931   3.437
11010TIP3    H132973   6.304   5.000   3.498
11010TIP3    H232974   6.359   4.916   3.385
11011TIP3   OH232975   4.777   0.528   1.418
11011TIP3    H132976   4.858   0.573   1.395
11011TIP3    H232977   4.738   0.505   1.334
11012TIP3   OH232978   3.416   1.995   2.745
11012TIP3    H132979   3.498   2.044   2.758
11012TIP3    H232980   3.401   1.999   2.650
11013TIP3   OH232981   6.934   6.330   5.208
11013TIP3    H132982   6.999   6.381   5.257
11013TIP3    H232983   6.967   6.240   5.212
11014TIP3   OH232984   6.104   4.886   6.733
11014TIP3    H132985   6.044   4.900   6.807
11014TIP3    H232986   6.121   4.792   6.734
11015TIP3   OH232987   4.077   2.388   3.886
11015TIP3    H132988   4.005   2.422   3.834
11015TIP3    H232989   4.156   2.411   3.836
11016TIP3   OH232990   4.513   6.076   4.258
11016TIP3    H132991   4.427   6.098   4.293
11016TIP3    H232992   4.566   6.155   4.272
11017TIP3   OH232993   2.629   1.995   2.752
11017TIP3    H132994   2.536   1.980   2.770
11017TIP3    H232995   2.670   1.910   2.768
11018TIP3   OH232996   8.120   6.171   5.672
11018TIP3    H132997   8.184   6.145   5.606
11018TIP3    H232998   8.159   6.143   5.756
11019TIP3   OH232999   0.114   6.442   4.741
11019TIP3    H133000   0.143   6.492   4.665
11019TIP3    H233001   0.191   6.391   4.766
11020TIP3   OH233002   2.491   2.362   3.180
11020TIP3    H133003   2.461   2.446   3.215
11020TIP3    H233004   2.529   2.384   3.095
11021TIP3   OH233005   5.781   7.608   4.553
11021TIP3    H133006   5.725   7.579   4.626
11021TIP3    H233007   5.744   7.564   4.476
11022TIP3   OH233008   4.033   7.480   5.382
11022TIP3    H133009   3.963   7.415   5.387
11022TIP3    H233010   4.112   7.429   5.365
11023TIP3   OH233011   4.942   3.746   1.194
11023TIP3    H133012   4.967   3.792   1.114
11023TIP3    H233013   4.871   3.687   1.166
11024TIP3   OH233014   7.772   3.804   1.639
11024TIP3    H133015   7.796   3.715   1.666
11024TIP3    H233016   7.678   3.798   1.622
11025TIP3   OH233017   5.195   7.192   5.163
11025TIP3    H133018   5.221   7.113   5.211
11025TIP3    H233019   5.104   7.207   5.188
11026TIP3   OH233020   3.603   1.113   3.852
11026TIP3    H133021   3.653   1.127   3.933
11026TIP3    H233022   3.640   1.033   3.815
11027TIP3   OH233023   7.830   5.636   4.008
11027TIP3    H133024   7.896   5.571   3.982
11027TIP3    H233025   7.876   5.720   4.003
11028TIP3   OH233026   0.390   6.066   2.545
11028TIP3    H133027   0.459   6.122   2.581
11028TIP3    H233028   0.434   5.982   2.528
11029TIP3   OH233029   5.597   7.268   1.806
11029TIP3    H133030   5.630   7.328   1.739
11029TIP3    H233031   5.617   7.313   1.889
11030TIP3   OH233032   7.712   3.893   3.827
11030TIP3    H133033   7.671   3.836   3.762
11030TIP3    H233034   7.797   3.916   3.788
11031TIP3   OH233035   7.448   6.646   3.012
11031TIP3    H133036   7.437   6.706   2.938
11031TIP3    H233037   7.455   6.559   2.972
11032TIP3   OH233038   0.369   5.893   0.494
11032TIP3    H133039   0.331   5.981   0.494
11032TIP3    H233040   0.432   5.895   0.566
11033TIP3   OH233041   6.282   0.900   6.445
11033TIP3    H133042   6.321   0.824   6.488
11033TIP3    H233043   6.289   0.971   6.509
11034TIP3   OH233044   7.167   0.099   3.750
11034TIP3    H133045   7.191   0.102   3.842
11034TIP3    H233046   7.250   0.082   3.705
11035TIP3   OH233047   4.079   0.644   2.879
11035TIP3    H133048   4.167   0.682   2.881
11035TIP3    H233049   4.087   0.567   2.823
11036TIP3   OH233050   3.356   6.691   2.128
11036TIP3    H133051   3.385   6.623   2.068
11036TIP3    H233052   3.275   6.657   2.166
11037TIP3   OH233053   1.087   4.528   0.294
11037TIP3    H133054   1.148   4.587   0.250
11037TIP3    H233055   1.121   4.522   0.384
11038TIP3   OH233056   1.765   0.454   5.464
11038TIP3    H133057   1.827   0.386   5.438
11038TIP3    H233058   1.721   0.419   5.541
11039TIP3   OH233059   1.543   2.744   5.615
11039TIP3    H133060   1.506   2.699   5.539
11039TIP3    H233061   1.468   2.768   5.668
11040TIP3   OH233062   2.210   6.575   0.081
11040TIP3    H133063   2.265   6.532   0.146
11040TIP3    H233064   2.121   6.564   0.114
11041TIP3   OH233065   2.809   3.015   4.799
11041TIP3    H133066   2.866   3.060   4.737
11041TIP3    H233067   2.853   3.025   4.883
11042TIP3   OH233068   4.722   4.876   4.212
11042TIP3    H133069   4.727   4.780   4.204
11042TIP3    H233070   4.813   4.903   4.223
11043TIP3   OH233071   6.702   1.825   0.376
11043TIP3    H133072   6.622   1.775   0.363
11043TIP3    H233073   6.772   1.766   0.349
11044TIP3   OH233074   6.443   1.837   0.626
11044TIP3    H133075   6.465   1.878   0.542
11044TIP3    H233076   6.472   1.900   0.691
11045TIP3   OH233077   1.389   2.735   3.816
11045TIP3    H133078   1.391   2.667   3.883
11045TIP3    H233079   1.324   2.704   3.753
11046TIP3   OH233080   3.108   4.536   4.558
11046TIP3    H133081   3.119   4.593   4.633
11046TIP3    H233082   3.110   4.595   4.482
11047TIP3   OH233083   2.452   5.283   6.146
11047TIP3    H133084   2.395   5.261   6.220
11047TIP3    H233085   2.535   5.241   6.167
11048TIP3   OH233086   0.571   1.414   1.163
11048TIP3    H133087   0.515   1.491   1.167
11048TIP3    H233088   0.660   1.448   1.171
11049TIP3   OH233089   7.462   3.272   3.114
11049TIP3    H133090   7.526   3.282   3.184
11049TIP3    H233091   7.489   3.334   3.047
11050TIP3   OH233092   6.329   1.362   0.100
11050TIP3    H133093   6.352   1.273   0.123
11050TIP3    H233094   6.233   1.366   0.107
11051TIP3   OH233095   5.942   3.666   3.645
11051TIP3    H133096   5.967   3.709   3.564
11051TIP3    H233097   6.015   3.684   3.705
11052TIP3   OH233098   8.047   5.057   1.021
11052TIP3    H133099   8.065   4.998   0.947
11052TIP3    H233100   8.070   5.144   0.988
11053TIP3   OH233101   1.342   4.881   3.721
11053TIP3    H133102   1.322   4.972   3.745
11053TIP3    H233103   1.382   4.844   3.800
11054TIP3   OH233104   3.808   5.648   5.307
11054TIP3    H133105   3.749   5.640   5.231
11054TIP3    H233106   3.751   5.636   5.383
11055TIP3   OH233107   3.608   3.762   4.968
11055TIP3    H133108   3.615   3.682   5.020
11055TIP3    H233109   3.515   3.781   4.965
11056TIP3   OH233110   0.979   0.907   4.758
11056TIP3    H133111   0.959   0.950   4.841
11056TIP3    H233112   1.072   0.886   4.765
11057TIP3   OH233113   4.411   6.413   0.768
11057TIP3    H133114   4.485   6.461   0.730
11057TIP3    H233115   4.362   6.478   0.817
11058TIP3   OH233116   5.509   2.267   0.151
11058TIP3    H133117   5.421   2.232   0.138
11058TIP3    H233118   5.568   2.199   0.119
11059TIP3   OH233119   5.108   2.830   3.267
11059TIP3    H133120   5.122   2.763   3.333
11059TIP3    H233121   5.065   2.784   3.195
11060TIP3   OH233122   0.965   1.678   1.453
11060TIP3    H133123   0.959   1.583   1.461
11060TIP3    H233124   0.995   1.694   1.364
11061TIP3   OH233125   4.101   5.604   1.485
11061TIP3    H133126   4.078   5.671   1.421
11061TIP3    H233127   4.148   5.651   1.554
11062TIP3   OH233128   3.011   0.264   6.465
11062TIP3    H133129   3.037   0.339   6.519
11062TIP3    H233130   2.966   0.303   6.390
11063TIP3   OH233131   7.342   0.008   2.624
11063TIP3    H133132   7.417  -0.040   2.658
11063TIP3    H233133   7.325   0.075   2.691
11064TIP3   OH233134   1.388   6.547   4.309
11064TIP3    H133135   1.342   6.558   4.226
11064TIP3    H233136   1.480   6.567   4.289
11065TIP3   OH233137   5.650   4.395   5.695
11065TIP3    H133138   5.691   4.481   5.704
11065TIP3    H233139   5.666   4.371   5.604
11066TIP3   OH233140   7.342   7.257   2.906
11066TIP3    H133141   7.423   7.233   2.862
11066TIP3    H233142   7.346   7.352   2.915
11067TIP3   OH233143   5.607   3.838   4.511
11067TIP3    H133144   5.669   3.767   4.527
11067TIP3    H233145   5.551   3.807   4.441
11068TIP3   OH233146   1.622   1.348   3.102
11068TIP3    H133147   1.667   1.393   3.174
11068TIP3    H233148   1.665   1.263   3.095
11069TIP3   OH233149   2.821   4.683   1.808
11069TIP3    H133150   2.854   4.771   1.825
11069TIP3    H233151   2.730   4.686   1.837
11070TIP3   OH233152   6.683   7.029   2.929
11070TIP3    H133153   6.667   7.025   2.835
11070TIP3    H233154   6.711   7.120   2.945
11071TIP3   OH233155   1.759   1.431   2.368
11071TIP3    H133156   1.800   1.494   2.309
11071TIP3    H233157   1.673   1.468   2.388
11072TIP3   OH233158   7.148   1.466   6.612
11072TIP3    H133159   7.198   1.547   6.604
11072TIP3    H233160   7.079   1.474   6.545
11073TIP3   OH233161   0.967   5.218   5.682
11073TIP3    H133162   1.043   5.159   5.677
11073TIP3    H233163   0.926   5.211   5.596
11074TIP3   OH233164   6.988   4.656   1.274
11074TIP3    H133165   7.015   4.746   1.292
11074TIP3    H233166   6.940   4.629   1.352
11075TIP3   OH233167   6.299   5.285   6.175
11075TIP3    H133168   6.393   5.275   6.158
11075TIP3    H233169   6.279   5.217   6.239
11076TIP3   OH233170   3.242   2.028   1.579
11076TIP3    H133171   3.147   2.025   1.570
11076TIP3    H233172   3.256   2.052   1.671
11077TIP3   OH233173   6.991   7.611   0.943
11077TIP3    H133174   7.056   7.673   0.908
11077TIP3    H233175   6.945   7.578   0.866
11078TIP3   OH233176   3.111   5.974   2.031
11078TIP3    H133177   3.161   6.035   1.977
11078TIP3    H233178   3.020   6.000   2.020
11079TIP3   OH233179   6.452   6.792   2.364
11079TIP3    H133180   6.405   6.740   2.299
11079TIP3    H233181   6.539   6.751   2.369
11080TIP3   OH233182   4.879   6.937   2.859
11080TIP3    H133183   4.951   6.887   2.820
11080TIP3    H233184   4.921   6.990   2.927
11081TIP3   OH233185   6.299   7.794   4.325
11081TIP3    H133186   6.231   7.794   4.392
11081TIP3    H233187   6.329   7.703   4.321
11082TIP3   OH233188   1.800   5.697   2.430
11082TIP3    H133189   1.791   5.692   2.334
11082TIP3    H233190   1.862   5.768   2.444
11083TIP3   OH233191   5.330   4.064   6.424
11083TIP3    H133192   5.240   4.091   6.445
11083TIP3    H233193   5.339   3.977   6.463
11084TIP3   OH233194   6.929   0.351   5.270
11084TIP3    H133195   6.960   0.333   5.181
11084TIP3    H233196   6.868   0.280   5.289
11085TIP3   OH233197   1.607   4.871   6.100
11085TIP3    H133198   1.557   4.832   6.171
11085TIP3    H233199   1.633   4.797   6.044
11086TIP3   OH233200   1.926   1.544   1.251
11086TIP3    H133201   2.003   1.576   1.299
11086TIP3    H233202   1.919   1.452   1.273
11087TIP3   OH233203   6.976   7.562   1.396
11087TIP3    H133204   6.915   7.625   1.358
11087TIP3    H233205   7.028   7.532   1.321
11088TIP3   OH233206   4.981   7.123   4.301
11088TIP3    H133207   5.046   7.177   4.348
11088TIP3    H233208   4.990   7.150   4.210
11089TIP3   OH233209   0.105   7.611   0.054
11089TIP3    H133210   0.199   7.621   0.045
11089TIP3    H233211   0.069   7.656  -0.023
11090TIP3   OH233212   5.299   0.197   6.146
11090TIP3    H133213   5.370   0.233   6.200
11090TIP3    H233214   5.220   0.242   6.177
11091TIP3   OH233215   2.432   0.503   2.342
11091TIP3    H133216   2.405   0.584   2.299
11091TIP3    H233217   2.472   0.451   2.273
11092TIP3   OH233218   5.830   1.520   1.268
11092TIP3    H133219   5.800   1.574   1.341
11092TIP3    H233220   5.789   1.435   1.282
11093TIP3   OH233221   3.259   2.163   5.143
11093TIP3    H133222   3.219   2.167   5.230
11093TIP3    H233223   3.236   2.247   5.103
11094TIP3   OH233224   0.975   5.827   6.144
11094TIP3    H133225   0.951   5.863   6.059
11094TIP3    H233226   0.959   5.733   6.136
11095TIP3   OH233227   5.192   0.203   2.277
11095TIP3    H133228   5.142   0.122   2.266
11095TIP3    H233229   5.279   0.174   2.304
11096TIP3   OH233230   8.244   6.718   2.799
11096TIP3    H133231   8.328   6.707   2.754
11096TIP3    H233232   8.192   6.772   2.739
11097TIP3   OH233233   5.435   0.121   4.469
11097TIP3    H133234   5.359   0.178   4.482
11097TIP3    H233235   5.500   0.177   4.426
11098TIP3   OH233236   3.028   2.204   1.358
11098TIP3    H133237   2.999   2.139   1.421
11098TIP3    H233238   3.078   2.268   1.410
11099TIP3   OH233239   6.168   4.222   0.398
11099TIP3    H133240   6.154   4.148   0.339
11099TIP3    H233241   6.237   4.193   0.457
11100TIP3   OH233242   0.853   0.852   4.157
11100TIP3    H133243   0.792   0.889   4.220
11100TIP3    H233244   0.840   0.757   4.163
11101TIP3   OH233245   0.076   0.652   5.214
11101TIP3    H133246   0.137   0.715   5.252
11101TIP3    H233247   0.119   0.567   5.226
11102TIP3   OH233248   0.653   3.303   2.988
11102TIP3    H133249   0.680   3.248   2.914
11102TIP3    H233250   0.559   3.318   2.973
11103TIP3   OH233251   4.220   1.216   2.710
11103TIP3    H133252   4.227   1.158   2.786
11103TIP3    H233253   4.309   1.245   2.693
11104TIP3   OH233254   1.717   3.206   2.088
11104TIP3    H133255   1.742   3.290   2.128
11104TIP3    H233256   1.800   3.161   2.073
11105TIP3   OH233257   2.999   1.384   2.629
11105TIP3    H133258   2.983   1.445   2.701
11105TIP3    H233259   3.092   1.362   2.637
11106TIP3   OH233260   0.058   5.192   3.499
11106TIP3    H133261   0.109   5.270   3.476
11106TIP3    H233262   0.003   5.176   3.423
11107TIP3   OH233263   2.947   0.188   3.456
11107TIP3    H133264   2.980   0.255   3.397
11107TIP3    H233265   3.018   0.124   3.462
11108TIP3   OH233266   1.962   7.529   0.667
11108TIP3    H133267   1.936   7.536   0.759
11108TIP3    H233268   2.006   7.612   0.648
11109TIP3   OH233269   5.621   1.984   4.155
11109TIP3    H133270   5.583   2.040   4.087
11109TIP3    H233271   5.649   2.045   4.224
11110TIP3   OH233272   4.529   4.805   2.171
11110TIP3    H133273   4.539   4.745   2.097
11110TIP3    H233274   4.450   4.855   2.150
11111TIP3   OH233275   7.479   0.538   6.006
11111TIP3    H133276   7.462   0.501   6.093
11111TIP3    H233277   7.490   0.462   5.949
11112TIP3   OH233278   4.087   7.672   3.348
11112TIP3    H133279   4.122   7.739   3.289
11112TIP3    H233280   4.024   7.623   3.295
11113TIP3   OH233281   2.079   5.829   5.645
11113TIP3    H133282   2.167   5.821   5.609
11113TIP3    H233283   2.022   5.830   5.568
11114TIP3   OH233284   0.572   2.326   6.007
11114TIP3    H133285   0.643   2.387   6.026
11114TIP3    H233286   0.541   2.298   6.094
11115TIP3   OH233287   2.390   3.395   6.350
11115TIP3    H133288   2.298   3.420   6.352
11115TIP3    H233289   2.398   3.327   6.417
11116TIP3   OH233290   1.636   3.186   2.829
11116TIP3    H133291   1.608   3.177   2.737
11116TIP3    H233292   1.684   3.269   2.831
11117TIP3   OH233293   3.819   5.927   3.391
11117TIP3    H133294   3.843   6.017   3.372
11117TIP3    H233295   3.790   5.891   3.306
11118TIP3   OH233296   1.869   2.582   6.356
11118TIP3    H133297   1.885   2.658   6.412
11118TIP3    H233298   1.870   2.616   6.267
11119TIP3   OH233299   7.185   1.336   2.541
11119TIP3    H133300   7.254   1.402   2.538
11119TIP3    H233301   7.206   1.282   2.617
11120TIP3   OH233302   2.205   7.478   2.251
11120TIP3    H133303   2.139   7.410   2.266
11120TIP3    H233304   2.176   7.522   2.172
11121TIP3   OH233305   4.894   7.371   3.010
11121TIP3    H133306   4.828   7.318   2.965
11121TIP3    H233307   4.851   7.456   3.023
11122TIP3   OH233308   5.921   3.140   4.954
11122TIP3    H133309   5.936   3.058   5.001
11122TIP3    H233310   5.827   3.141   4.937
11123TIP3   OH233311   7.815   0.835   3.140
11123TIP3    H133312   7.809   0.924   3.174
11123TIP3    H233313   7.878   0.792   3.197
11124TIP3   OH233314   0.823   2.721   0.631
11124TIP3    H133315   0.876   2.764   0.698
11124TIP3    H233316   0.741   2.770   0.630
11125TIP3   OH233317   5.808   2.296   5.740
11125TIP3    H133318   5.738   2.273   5.801
11125TIP3    H233319   5.886   2.250   5.773
11126TIP3   OH233320   0.133   1.955   0.594
11126TIP3    H133321   0.113   1.903   0.672
11126TIP3    H233322   0.051   2.001   0.574
11127TIP3   OH233323   0.338   5.947   4.086
11127TIP3    H133324   0.422   5.922   4.047
11127TIP3    H233325   0.341   6.043   4.088
11128TIP3   OH233326   1.176   2.653   5.145
11128TIP3    H133327   1.236   2.598   5.196
11128TIP3    H233328   1.154   2.599   5.068
11129TIP3   OH233329   2.316   7.784   2.267
11129TIP3    H133330   2.236   7.802   2.316
11129TIP3    H233331   2.287   7.728   2.195
11130TIP3   OH233332   2.221   0.805   5.052
11130TIP3    H133333   2.154   0.784   4.988
11130TIP3    H233334   2.299   0.825   5.000
11131TIP3   OH233335   3.282   6.000   2.639
11131TIP3    H133336   3.265   5.907   2.621
11131TIP3    H233337   3.344   6.026   2.571
11132TIP3   OH233338   2.760   4.919   1.169
11132TIP3    H133339   2.769   4.861   1.093
11132TIP3    H233340   2.717   4.997   1.134
11133TIP3   OH233341   0.851   6.577   1.538
11133TIP3    H133342   0.879   6.509   1.599
11133TIP3    H233343   0.928   6.593   1.483
11134TIP3   OH233344   3.761   3.451   6.272
11134TIP3    H133345   3.750   3.432   6.178
11134TIP3    H233346   3.692   3.514   6.291
11135TIP3   OH233347   1.997   3.378   2.933
11135TIP3    H133348   1.986   3.283   2.924
11135TIP3    H233349   2.022   3.391   3.025
11136TIP3   OH233350   6.946   6.400   4.477
11136TIP3    H133351   6.908   6.332   4.421
11136TIP3    H233352   6.895   6.479   4.458
11137TIP3   OH233353   7.806   7.333   6.128
11137TIP3    H133354   7.822   7.348   6.035
11137TIP3    H233355   7.730   7.274   6.130
11138TIP3   OH233356   4.820   5.703   0.392
11138TIP3    H133357   4.911   5.725   0.374
11138TIP3    H233358   4.824   5.626   0.448
11139TIP3   OH233359   4.228   6.069   4.046
11139TIP3    H133360   4.214   6.095   4.138
11139TIP3    H233361   4.311   6.022   4.047
11140TIP3   OH233362   7.384   7.219   1.756
11140TIP3    H133363   7.372   7.158   1.683
11140TIP3    H233364   7.337   7.298   1.729
11141TIP3   OH233365   3.613   7.229   6.623
11141TIP3    H133366   3.625   7.248   6.530
11141TIP3    H233367   3.540   7.167   6.626
11142TIP3   OH233368   6.201   4.567   2.493
11142TIP3    H133369   6.184   4.483   2.448
11142TIP3    H233370   6.274   4.548   2.552
11143TIP3   OH233371   2.485   6.454   0.096
11143TIP3    H133372   2.532   6.476   0.177
11143TIP3    H233373   2.552   6.412   0.041
11144TIP3   OH233374   0.185   3.440   1.881
11144TIP3    H133375   0.218   3.469   1.795
11144TIP3    H233376   0.170   3.347   1.870
11145TIP3   OH233377   6.744   5.847   4.107
11145TIP3    H133378   6.762   5.766   4.059
11145TIP3    H233379   6.827   5.894   4.108
11146TIP3   OH233380   7.633   4.698   1.482
11146TIP3    H133381   7.681   4.631   1.433
11146TIP3    H233382   7.618   4.768   1.419
11147TIP3   OH233383   5.099   6.695   4.438
11147TIP3    H133384   5.103   6.742   4.355
11147TIP3    H233385   5.058   6.611   4.416
11148TIP3   OH233386   8.107   0.267   5.079
11148TIP3    H133387   8.046   0.252   5.007
11148TIP3    H233388   8.193   0.273   5.037
11149TIP3   OH233389   6.379   5.024   4.385
11149TIP3    H133390   6.390   4.975   4.467
11149TIP3    H233391   6.431   5.103   4.397
11150TIP3   OH233392   0.432   4.688   4.120
11150TIP3    H133393   0.526   4.675   4.104
11150TIP3    H233394   0.409   4.621   4.185
11151TIP3   OH233395   1.050   6.881   0.678
11151TIP3    H133396   1.049   6.901   0.772
11151TIP3    H233397   1.080   6.962   0.637
11152TIP3   OH233398   1.900   2.301   5.318
11152TIP3    H133399   1.833   2.247   5.359
11152TIP3    H233400   1.855   2.383   5.297
11153TIP3   OH233401   0.346   5.143   3.817
11153TIP3    H133402   0.280   5.126   3.884
11153TIP3    H233403   0.385   5.227   3.843
11154TIP3   OH233404   2.375   0.594   3.599
11154TIP3    H133405   2.426   0.522   3.563
11154TIP3    H233406   2.284   0.564   3.593
11155TIP3   OH233407   6.812   6.982   6.451
11155TIP3    H133408   6.792   6.993   6.544
11155TIP3    H233409   6.772   6.898   6.428
11156TIP3   OH233410   0.834   7.270   0.281
11156TIP3    H133411   0.823   7.208   0.209
11156TIP3    H233412   0.848   7.214   0.358
11157TIP3   OH233413   5.407   4.180   1.875
11157TIP3    H133414   5.435   4.197   1.785
11157TIP3    H233415   5.333   4.120   1.866
11158TIP3   OH233416   4.476   1.744   4.126
11158TIP3    H133417   4.423   1.671   4.095
11158TIP3    H233418   4.449   1.818   4.072
11159TIP3   OH233419   0.688   5.057   5.318
11159TIP3    H133420   0.615   5.018   5.271
11159TIP3    H233421   0.759   5.060   5.254
11160TIP3   OH233422   4.469   4.127   3.109
11160TIP3    H133423   4.550   4.176   3.097
11160TIP3    H233424   4.411   4.188   3.156
11161TIP3   OH233425   5.697   2.567   4.297
11161TIP3    H133426   5.665   2.654   4.318
11161TIP3    H233427   5.731   2.533   4.379
11162TIP3   OH233428   4.703   7.204   6.221
11162TIP3    H133429   4.780   7.151   6.240
11162TIP3    H233430   4.629   7.151   6.249
11163TIP3   OH233431   2.734   5.435   3.054
11163TIP3    H133432   2.783   5.482   2.987
11163TIP3    H233433   2.707   5.353   3.012
11164TIP3   OH233434   2.657   4.370   6.096
11164TIP3    H133435   2.699   4.304   6.151
11164TIP3    H233436   2.675   4.342   6.006
11165TIP3   OH233437   7.334   0.836   1.672
11165TIP3    H133438   7.341   0.856   1.765
11165TIP3    H233439   7.248   0.868   1.647
11166TIP3   OH233440   4.648   4.124   0.804
11166TIP3    H133441   4.698   4.043   0.817
11166TIP3    H233442   4.698   4.191   0.850
11167TIP3   OH233443   4.585   3.124   5.881
11167TIP3    H133444   4.634   3.105   5.801
11167TIP3    H233445   4.505   3.167   5.850
11168TIP3   OH233446   7.542   5.618   3.681
11168TIP3    H133447   7.551   5.571   3.764
11168TIP3    H233448   7.491   5.559   3.625
11169TIP3   OH233449   1.362   1.991   2.672
11169TIP3    H133450   1.357   1.905   2.631
11169TIP3    H233451   1.436   1.985   2.732
11170TIP3   OH233452   7.241   1.856   1.764
11170TIP3    H133453   7.299   1.897   1.828
11170TIP3    H233454   7.250   1.762   1.778
11171TIP3   OH233455   6.722   0.349   3.649
11171TIP3    H133456   6.783   0.377   3.717
11171TIP3    H233457   6.774   0.290   3.594
11172TIP3   OH233458   6.943   2.225   0.766
11172TIP3    H133459   6.875   2.196   0.705
11172TIP3    H233460   6.928   2.319   0.775
11173TIP3   OH233461   1.398   5.562   0.171
11173TIP3    H133462   1.354   5.603   0.097
11173TIP3    H233463   1.351   5.595   0.248
11174TIP3   OH233464   4.866   7.486   5.641
11174TIP3    H133465   4.849   7.562   5.587
11174TIP3    H233466   4.806   7.419   5.608
11175TIP3   OH233467   2.113   7.430   2.797
11175TIP3    H133468   2.140   7.475   2.877
11175TIP3    H233469   2.193   7.389   2.764
11176TIP3   OH233470   0.062   5.282   0.045
11176TIP3    H133471  -0.011   5.222   0.029
11176TIP3    H233472   0.129   5.253  -0.017
11177TIP3   OH233473   6.184   1.224   5.304
11177TIP3    H133474   6.103   1.176   5.323
11177TIP3    H233475   6.155   1.311   5.277
11178TIP3   OH233476   4.118   7.456   3.664
11178TIP3    H133477   4.124   7.460   3.568
11178TIP3    H233478   4.160   7.537   3.694
11179TIP3   OH233479   4.419   2.595   2.817
11179TIP3    H133480   4.394   2.684   2.842
11179TIP3    H233481   4.492   2.607   2.756
11180TIP3   OH233482   8.100   2.895   6.366
11180TIP3    H133483   8.121   2.837   6.292
11180TIP3    H233484   8.012   2.867   6.394
11181TIP3   OH233485   4.067   3.118   5.045
11181TIP3    H133486   3.991   3.060   5.034
11181TIP3    H233487   4.049   3.166   5.125
11182TIP3   OH233488   1.218   3.696   0.562
11182TIP3    H133489   1.297   3.656   0.527
11182TIP3    H233490   1.151   3.679   0.495
11183TIP3   OH233491   0.042   1.996   1.388
11183TIP3    H133492   0.105   2.031   1.325
11183TIP3    H233493  -0.025   2.065   1.397
11184TIP3   OH233494   4.631   5.233   3.326
11184TIP3    H133495   4.647   5.283   3.246
11184TIP3    H233496   4.618   5.143   3.296
11185TIP3   OH233497   0.923   6.727   5.992
11185TIP3    H133498   1.003   6.699   5.947
11185TIP3    H233499   0.909   6.662   6.060
11186TIP3   OH233500   3.742   4.024   6.206
11186TIP3    H133501   3.787   3.969   6.141
11186TIP3    H233502   3.749   3.974   6.288
11187TIP3   OH233503   2.726   2.791   4.937
11187TIP3    H133504   2.815   2.759   4.949
11187TIP3    H233505   2.736   2.886   4.924
11188TIP3   OH233506   4.214   6.102   6.371
11188TIP3    H133507   4.306   6.079   6.376
11188TIP3    H233508   4.204   6.143   6.285
11189TIP3   OH233509   4.677   7.196   2.928
11189TIP3    H133510   4.639   7.116   2.892
11189TIP3    H233511   4.617   7.265   2.901
11190TIP3   OH233512   7.563   1.571   5.261
11190TIP3    H133513   7.482   1.614   5.287
11190TIP3    H233514   7.630   1.640   5.266
11191TIP3   OH233515   0.159   1.856   0.180
11191TIP3    H133516   0.170   1.826   0.090
11191TIP3    H233517   0.202   1.942   0.182
11192TIP3   OH233518   2.190   5.986   4.593
11192TIP3    H133519   2.279   5.961   4.565
11192TIP3    H233520   2.193   5.979   4.688
11193TIP3   OH233521   3.572   6.271   4.792
11193TIP3    H133522   3.635   6.340   4.811
11193TIP3    H233523   3.612   6.223   4.719
11194TIP3   OH233524   3.645   6.427   4.169
11194TIP3    H133525   3.634   6.521   4.186
11194TIP3    H233526   3.682   6.422   4.081
11195TIP3   OH233527   4.566   1.341   2.126
11195TIP3    H133528   4.601   1.416   2.079
11195TIP3    H233529   4.486   1.318   2.079
11196TIP3   OH233530   5.831   0.142   3.895
11196TIP3    H133531   5.776   0.161   3.971
11196TIP3    H233532   5.786   0.186   3.822
11197TIP3   OH233533   6.071   1.792   4.327
11197TIP3    H133534   6.109   1.846   4.257
11197TIP3    H233535   5.977   1.794   4.311
11198TIP3   OH233536   4.502   2.514   4.853
11198TIP3    H133537   4.515   2.603   4.820
11198TIP3    H233538   4.412   2.513   4.886
11199TIP3   OH233539   3.042   1.938   1.870
11199TIP3    H133540   3.053   1.843   1.861
11199TIP3    H233541   2.948   1.952   1.863
11200TIP3   OH233542   8.233   5.238   2.316
11200TIP3    H133543   8.187   5.266   2.395
11200TIP3    H233544   8.163   5.210   2.257
11201TIP3   OH233545   5.795   6.456   5.688
11201TIP3    H133546   5.733   6.488   5.623
11201TIP3    H233547   5.876   6.442   5.639
11202TIP3   OH233548   7.631   0.885   1.747
11202TIP3    H133549   7.623   0.872   1.652
11202TIP3    H233550   7.686   0.963   1.755
11203TIP3   OH233551   6.132   1.237   3.776
11203TIP3    H133552   6.214   1.201   3.810
11203TIP3    H233553   6.157   1.320   3.736
11204TIP3   OH233554   0.868   6.412   0.190
11204TIP3    H133555   0.945   6.375   0.146
11204TIP3    H233556   0.890   6.410   0.283
11205TIP3   OH233557   3.201   0.213   3.845
11205TIP3    H133558   3.183   0.221   3.939
11205TIP3    H233559   3.192   0.119   3.827
11206TIP3   OH233560   2.782   6.874   4.111
11206TIP3    H133561   2.788   6.928   4.033
11206TIP3    H233562   2.791   6.936   4.184
11207TIP3   OH233563   4.411   4.716   0.990
11207TIP3    H133564   4.373   4.729   0.903
11207TIP3    H233565   4.371   4.636   1.023
11208TIP3   OH233566   1.110   4.241   1.579
11208TIP3    H133567   1.200   4.224   1.553
11208TIP3    H233568   1.115   4.268   1.670
11209TIP3   OH233569   1.372   4.696   3.094
11209TIP3    H133570   1.431   4.703   3.169
11209TIP3    H233571   1.342   4.605   3.096
11210TIP3   OH233572   1.206   2.677   0.741
11210TIP3    H133573   1.224   2.717   0.656
11210TIP3    H233574   1.189   2.585   0.722
11211TIP3   OH233575   2.251   6.459   4.460
11211TIP3    H133576   2.230   6.418   4.544
11211TIP3    H233577   2.341   6.490   4.470
11212TIP3   OH233578   1.760   5.705   4.226
11212TIP3    H133579   1.843   5.659   4.214
11212TIP3    H233580   1.734   5.684   4.316
11213TIP3   OH233581   3.450   3.485   4.143
11213TIP3    H133582   3.477   3.525   4.225
11213TIP3    H233583   3.508   3.523   4.077
11214TIP3   OH233584   7.324   5.991   5.106
11214TIP3    H133585   7.348   6.055   5.173
11214TIP3    H233586   7.407   5.961   5.070
11215TIP3   OH233587   4.094   1.546   3.385
11215TIP3    H133588   4.122   1.595   3.462
11215TIP3    H233589   4.136   1.461   3.394
11216TIP3   OH233590   6.873   2.009   2.863
11216TIP3    H133591   6.940   2.070   2.832
11216TIP3    H233592   6.921   1.940   2.907
11217TIP3   OH233593   8.122   0.103   1.967
11217TIP3    H133594   8.169   0.027   2.001
11217TIP3    H233595   8.156   0.115   1.879
11218TIP3   OH233596   6.905   2.200   5.884
11218TIP3    H133597   6.934   2.133   5.947
11218TIP3    H233598   6.930   2.283   5.924
11219TIP3   OH233599   0.931   4.056   5.364
11219TIP3    H133600   0.893   4.135   5.402
11219TIP3    H233601   0.898   4.054   5.274
11220TIP3   OH233602   3.195   2.243   2.041
11220TIP3    H133603   3.160   2.184   2.108
11220TIP3    H233604   3.118   2.277   1.996
11221TIP3   OH233605   5.247   6.528   0.310
11221TIP3    H133606   5.284   6.457   0.258
11221TIP3    H233607   5.219   6.487   0.392
11222TIP3   OH233608   2.107   1.051   1.954
11222TIP3    H133609   2.140   0.965   1.926
11222TIP3    H233610   2.168   1.079   2.023
11223TIP3   OH233611   7.802   4.763   0.095
11223TIP3    H133612   7.834   4.695   0.035
11223TIP3    H233613   7.873   4.827   0.099
11224TIP3   OH233614   0.571   7.344   0.359
11224TIP3    H133615   0.596   7.258   0.326
11224TIP3    H233616   0.638   7.403   0.324
11225TIP3   OH233617   1.990   2.103   1.929
11225TIP3    H133618   1.957   2.170   1.869
11225TIP3    H233619   2.067   2.067   1.885
11226TIP3   OH233620   1.137   3.393   1.185
11226TIP3    H133621   1.108   3.474   1.142
11226TIP3    H233622   1.163   3.336   1.113
11227TIP3   OH233623   4.230   1.608   1.017
11227TIP3    H133624   4.247   1.570   1.103
11227TIP3    H233625   4.141   1.579   0.996
11228TIP3   OH233626   3.539   2.674   2.045
11228TIP3    H133627   3.516   2.591   2.086
11228TIP3    H233628   3.485   2.678   1.967
11229TIP3   OH233629   6.029   7.753   3.615
11229TIP3    H133630   6.059   7.666   3.590
11229TIP3    H233631   6.013   7.747   3.709
11230TIP3   OH233632   1.104   7.187   3.081
11230TIP3    H133633   1.173   7.230   3.131
11230TIP3    H233634   1.029   7.186   3.141
11231TIP3   OH233635   2.877   3.242   3.280
11231TIP3    H133636   2.847   3.276   3.196
11231TIP3    H233637   2.972   3.232   3.269
11232TIP3   OH233638   5.512   4.447   4.126
11232TIP3    H133639   5.500   4.501   4.204
11232TIP3    H233640   5.512   4.509   4.054
11233TIP3   OH233641   3.843   0.443   2.684
11233TIP3    H133642   3.804   0.443   2.771
11233TIP3    H233643   3.936   0.459   2.699
11234TIP3   OH233644   6.895   6.468   4.973
11234TIP3    H133645   6.911   6.427   5.059
11234TIP3    H233646   6.943   6.413   4.911
11235TIP3   OH233647   6.159   1.254   0.523
11235TIP3    H133648   6.101   1.226   0.452
11235TIP3    H233649   6.176   1.347   0.505
11236TIP3   OH233650   6.883   1.667   3.268
11236TIP3    H133651   6.930   1.632   3.343
11236TIP3    H233652   6.825   1.734   3.305
11237TIP3   OH233653   0.993   2.750   2.400
11237TIP3    H133654   1.022   2.676   2.453
11237TIP3    H233655   1.042   2.742   2.318
11238TIP3   OH233656   0.683   1.826   3.881
11238TIP3    H133657   0.628   1.812   3.957
11238TIP3    H233658   0.634   1.888   3.826
11239TIP3   OH233659   1.587   0.535   1.327
11239TIP3    H133660   1.610   0.450   1.365
11239TIP3    H233661   1.511   0.516   1.272
11240TIP3   OH233662   2.058   4.957   4.810
11240TIP3    H133663   2.058   5.028   4.874
11240TIP3    H233664   2.096   4.883   4.857
11241TIP3   OH233665   5.750   4.201   1.189
11241TIP3    H133666   5.746   4.110   1.217
11241TIP3    H233667   5.761   4.197   1.094
11242TIP3   OH233668   7.195   1.360   5.487
11242TIP3    H133669   7.130   1.337   5.553
11242TIP3    H233670   7.218   1.277   5.446
11243TIP3   OH233671   5.825   1.617   1.898
11243TIP3    H133672   5.813   1.712   1.894
11243TIP3    H233673   5.739   1.582   1.874
11244TIP3   OH233674   0.846   3.804   1.134
11244TIP3    H133675   0.800   3.723   1.157
11244TIP3    H233676   0.863   3.847   1.217
11245TIP3   OH233677   5.473   1.077   1.350
11245TIP3    H133678   5.504   1.034   1.430
11245TIP3    H233679   5.378   1.062   1.350
11246TIP3   OH233680   6.712   5.651   3.804
11246TIP3    H133681   6.716   5.611   3.717
11246TIP3    H233682   6.653   5.595   3.854
11247TIP3   OH233683   5.348   3.511   0.184
11247TIP3    H133684   5.319   3.423   0.161
11247TIP3    H233685   5.322   3.566   0.111
11248TIP3   OH233686   0.670   2.825   2.756
11248TIP3    H133687   0.576   2.819   2.742
11248TIP3    H233688   0.703   2.738   2.737
11249TIP3   OH233689   6.813   2.358   0.033
11249TIP3    H133690   6.892   2.378   0.084
11249TIP3    H233691   6.752   2.428   0.054
11250TIP3   OH233692   2.981   4.788   1.342
11250TIP3    H133693   2.997   4.695   1.356
11250TIP3    H233694   2.891   4.802   1.371
11251TIP3   OH233695   0.220   7.750   3.221
11251TIP3    H133696   0.244   7.752   3.129
11251TIP3    H233697   0.303   7.759   3.268
11252TIP3   OH233698   7.926   6.258   4.430
11252TIP3    H133699   7.945   6.165   4.442
11252TIP3    H233700   7.889   6.264   4.342
11253TIP3   OH233701   2.592   7.657   3.359
11253TIP3    H133702   2.631   7.600   3.292
11253TIP3    H233703   2.666   7.683   3.414
11254TIP3   OH233704   3.443   3.728   4.701
11254TIP3    H133705   3.488   3.807   4.671
11254TIP3    H233706   3.406   3.751   4.786
11255TIP3   OH233707   2.869   0.945   2.887
11255TIP3    H133708   2.857   1.018   2.826
11255TIP3    H233709   2.782   0.908   2.897
11256TIP3   OH233710   6.396   2.294   5.926
11256TIP3    H133711   6.448   2.280   5.847
11256TIP3    H233712   6.377   2.206   5.958
11257TIP3   OH233713   0.424   2.595   4.415
11257TIP3    H133714   0.335   2.560   4.415
11257TIP3    H233715   0.413   2.688   4.435
11258TIP3   OH233716   4.113   6.146   0.334
11258TIP3    H133717   4.130   6.123   0.242
11258TIP3    H233718   4.162   6.227   0.347
11259TIP3   OH233719   4.637   0.400   5.609
11259TIP3    H133720   4.591   0.338   5.553
11259TIP3    H233721   4.716   0.354   5.637
11260TIP3   OH233722   2.658   6.174   2.819
11260TIP3    H133723   2.656   6.245   2.883
11260TIP3    H233724   2.583   6.119   2.841
11261TIP3   OH233725   3.233   7.219   6.667
11261TIP3    H133726   3.199   7.308   6.659
11261TIP3    H233727   3.263   7.197   6.578
11262TIP3   OH233728   5.995   1.659   0.962
11262TIP3    H133729   6.023   1.726   0.901
11262TIP3    H233730   5.924   1.613   0.917
11263TIP3   OH233731   3.945   7.006   4.748
11263TIP3    H133732   3.877   6.940   4.738
11263TIP3    H233733   4.027   6.958   4.739
11264TIP3   OH233734   6.739   5.519   3.305
11264TIP3    H133735   6.691   5.523   3.222
11264TIP3    H233736   6.813   5.462   3.286
11265TIP3   OH233737   2.408   6.212   6.739
11265TIP3    H133738   2.315   6.196   6.728
11265TIP3    H233739   2.420   6.304   6.713
11266TIP3   OH233740   3.966   2.902   6.813
11266TIP3    H133741   3.910   2.926   6.740
11266TIP3    H233742   3.921   2.829   6.856
11267TIP3   OH233743   5.666   5.821   1.223
11267TIP3    H133744   5.612   5.877   1.280
11267TIP3    H233745   5.712   5.763   1.284
11268TIP3   OH233746   3.198   0.452   5.865
11268TIP3    H133747   3.104   0.462   5.850
11268TIP3    H233748   3.213   0.357   5.864
11269TIP3   OH233749   3.408   5.614   6.108
11269TIP3    H133750   3.321   5.610   6.068
11269TIP3    H233751   3.395   5.662   6.189
11270TIP3   OH233752   5.965   3.672   5.504
11270TIP3    H133753   5.919   3.749   5.539
11270TIP3    H233754   6.001   3.701   5.420
11271TIP3   OH233755   2.451   4.055   0.505
11271TIP3    H133756   2.502   3.975   0.502
11271TIP3    H233757   2.422   4.061   0.596
11272TIP3   OH233758   4.766   3.054   5.693
11272TIP3    H133759   4.731   2.967   5.679
11272TIP3    H233760   4.834   3.064   5.626
11273TIP3   OH233761   2.663   5.002   4.756
11273TIP3    H133762   2.654   4.922   4.808
11273TIP3    H233763   2.739   5.047   4.795
11274TIP3   OH233764   4.440   4.203   3.669
11274TIP3    H133765   4.534   4.213   3.656
11274TIP3    H233766   4.431   4.165   3.757
11275TIP3   OH233767   7.671   4.405   6.303
11275TIP3    H133768   7.657   4.317   6.268
11275TIP3    H233769   7.749   4.396   6.357
11276TIP3   OH233770   2.544   4.575   5.811
11276TIP3    H133771   2.489   4.653   5.821
11276TIP3    H233772   2.618   4.591   5.869
11277TIP3   OH233773   0.516   2.385   2.450
11277TIP3    H133774   0.560   2.327   2.512
11277TIP3    H233775   0.485   2.326   2.381
11278TIP3   OH233776   5.434   0.752   2.987
11278TIP3    H133777   5.464   0.793   2.906
11278TIP3    H233778   5.505   0.692   3.011
11279TIP3   OH233779   4.556   3.913   1.014
11279TIP3    H133780   4.507   3.993   1.034
11279TIP3    H233781   4.504   3.843   1.053
11280TIP3   OH233782   4.558   1.961   3.958
11280TIP3    H133783   4.654   1.953   3.966
11280TIP3    H233784   4.532   2.016   4.032
11281TIP3   OH233785   1.846   2.381   6.745
11281TIP3    H133786   1.777   2.319   6.719
11281TIP3    H233787   1.801   2.466   6.750
11282TIP3   OH233788   5.622   1.108   1.708
11282TIP3    H133789   5.616   1.037   1.643
11282TIP3    H233790   5.575   1.181   1.668
11283TIP3   OH233791   0.195   5.561   6.490
11283TIP3    H133792   0.201   5.478   6.537
11283TIP3    H233793   0.161   5.623   6.556
11284TIP3   OH233794   2.235   2.204   5.986
11284TIP3    H133795   2.260   2.154   6.063
11284TIP3    H233796   2.292   2.281   5.988
11285TIP3   OH233797   2.805   2.888   2.422
11285TIP3    H133798   2.823   2.892   2.328
11285TIP3    H233799   2.827   2.975   2.454
11286TIP3   OH233800   5.086   6.535   2.610
11286TIP3    H133801   5.037   6.463   2.650
11286TIP3    H233802   5.177   6.504   2.609
11287TIP3   OH233803   5.798   6.376   1.981
11287TIP3    H133804   5.737   6.419   2.040
11287TIP3    H233805   5.746   6.308   1.938
11288TIP3   OH233806   4.530   6.935   0.215
11288TIP3    H133807   4.446   6.956   0.176
11288TIP3    H233808   4.574   6.879   0.151
11289TIP3   OH233809   2.831   0.724   6.689
11289TIP3    H133810   2.786   0.802   6.657
11289TIP3    H233811   2.780   0.696   6.765
11290TIP3   OH233812   6.427   2.132   2.540
11290TIP3    H133813   6.381   2.209   2.574
11290TIP3    H233814   6.504   2.124   2.597
11291TIP3   OH233815   7.971   5.100   1.570
11291TIP3    H133816   7.974   5.033   1.502
11291TIP3    H233817   7.884   5.140   1.561
11292TIP3   OH233818   0.854   0.090   5.876
11292TIP3    H133819   0.915   0.088   5.802
11292TIP3    H233820   0.878   0.012   5.927
11293TIP3   OH233821   6.593   1.299   0.471
11293TIP3    H133822   6.615   1.229   0.532
11293TIP3    H233823   6.674   1.316   0.424
11294TIP3   OH233824   1.557   0.236   2.805
11294TIP3    H133825   1.569   0.143   2.789
11294TIP3    H233826   1.474   0.243   2.851
11295TIP3   OH233827   1.309   0.785   1.236
11295TIP3    H133828   1.287   0.847   1.305
11295TIP3    H233829   1.399   0.807   1.213
11296TIP3   OH233830   1.256   4.492   0.528
11296TIP3    H133831   1.252   4.548   0.605
11296TIP3    H233832   1.349   4.473   0.516
11297TIP3   OH233833   5.456   3.176   3.912
11297TIP3    H133834   5.545   3.158   3.942
11297TIP3    H233835   5.421   3.090   3.887
11298TIP3   OH233836   8.106   4.098   1.032
11298TIP3    H133837   8.198   4.110   1.009
11298TIP3    H233838   8.077   4.023   0.979
11299TIP3   OH233839   0.670   2.823   4.693
11299TIP3    H133840   0.712   2.818   4.779
11299TIP3    H233841   0.668   2.916   4.672
11300TIP3   OH233842   7.218   3.259   1.212
11300TIP3    H133843   7.147   3.311   1.175
11300TIP3    H233844   7.290   3.267   1.149
11301TIP3   OH233845   2.602   2.032  -0.012
11301TIP3    H133846   2.627   2.093  -0.082
11301TIP3    H233847   2.679   2.028   0.045
11302TIP3   OH233848   1.684   5.286   5.258
11302TIP3    H133849   1.757   5.305   5.199
11302TIP3    H233850   1.667   5.193   5.246
11303TIP3   OH233851   6.413   1.816   0.284
11303TIP3    H133852   6.409   1.762   0.205
11303TIP3    H233853   6.368   1.764   0.350
11304TIP3   OH233854   5.942   6.040   4.761
11304TIP3    H133855   5.991   6.038   4.843
11304TIP3    H233856   5.974   6.118   4.715
11305TIP3   OH233857   4.815   1.558   2.252
11305TIP3    H133858   4.861   1.567   2.335
11305TIP3    H233859   4.854   1.481   2.212
11306TIP3   OH233860   3.470   6.115   1.901
11306TIP3    H133861   3.527   6.182   1.938
11306TIP3    H233862   3.529   6.060   1.848
11307TIP3   OH233863   2.556   4.152   5.784
11307TIP3    H133864   2.467   4.186   5.776
11307TIP3    H233865   2.610   4.214   5.735
11308TIP3   OH233866   2.904   2.982   2.777
11308TIP3    H133867   2.890   3.040   2.702
11308TIP3    H233868   2.913   3.041   2.852
11309TIP3   OH233869   7.582   1.701   5.702
11309TIP3    H133870   7.519   1.675   5.769
11309TIP3    H233871   7.657   1.734   5.751
11310TIP3   OH233872   5.781   0.361   3.172
11310TIP3    H133873   5.778   0.284   3.116
11310TIP3    H233874   5.864   0.354   3.220
11311TIP3   OH233875   5.631   0.227   4.845
11311TIP3    H133876   5.547   0.203   4.806
11311TIP3    H233877   5.676   0.275   4.776
11312TIP3   OH233878   4.957   0.467   0.869
11312TIP3    H133879   5.002   0.464   0.784
11312TIP3    H233880   4.893   0.537   0.860
11313TIP3   OH233881   7.102   3.740   2.719
11313TIP3    H133882   7.143   3.707   2.639
11313TIP3    H233883   7.009   3.746   2.698
11314TIP3   OH233884   2.883   4.935   5.980
11314TIP3    H133885   2.824   4.991   5.929
11314TIP3    H233886   2.826   4.893   6.044
11315TIP3   OH233887   4.877   5.883   4.173
11315TIP3    H133888   4.791   5.873   4.133
11315TIP3    H233889   4.935   5.829   4.120
11316TIP3   OH233890   0.712   4.015   1.256
11316TIP3    H133891   0.701   4.049   1.167
11316TIP3    H233892   0.805   4.027   1.275
11317TIP3   OH233893   3.900   6.593   0.031
11317TIP3    H133894   3.852   6.581  -0.051
11317TIP3    H233895   3.845   6.652   0.083
11318TIP3   OH233896   0.893   7.054   2.079
11318TIP3    H133897   0.867   6.963   2.094
11318TIP3    H233898   0.975   7.064   2.128
11319TIP3   OH233899   6.302   4.749   0.749
11319TIP3    H133900   6.394   4.724   0.738
11319TIP3    H233901   6.289   4.819   0.685
11320TIP3   OH233902   6.481   0.592   1.128
11320TIP3    H133903   6.486   0.593   1.032
11320TIP3    H233904   6.552   0.533   1.154
11321TIP3   OH233905   1.453   6.819   0.557
11321TIP3    H133906   1.523   6.756   0.540
11321TIP3    H233907   1.401   6.818   0.477
11322TIP3   OH233908   1.751   7.728   2.812
11322TIP3    H133909   1.676   7.677   2.843
11322TIP3    H233910   1.761   7.798   2.876
11323TIP3   OH233911   5.519   3.832   1.720
11323TIP3    H133912   5.434   3.796   1.744
11323TIP3    H233913   5.517   3.837   1.624
11324TIP3   OH233914   5.534   7.109   5.559
11324TIP3    H133915   5.490   7.068   5.634
11324TIP3    H233916   5.626   7.113   5.585
11325TIP3   OH233917   4.821   4.247   4.026
11325TIP3    H133918   4.856   4.306   4.093
11325TIP3    H233919   4.890   4.242   3.961
11326TIP3   OH233920   0.303   3.465   4.051
11326TIP3    H133921   0.372   3.404   4.026
11326TIP3    H233922   0.238   3.457   3.980
11327TIP3   OH233923   5.426   2.144   4.432
11327TIP3    H133924   5.446   2.056   4.462
11327TIP3    H233925   5.509   2.176   4.397
11328TIP3   OH233926   3.335   1.814   2.345
11328TIP3    H133927   3.275   1.739   2.352
11328TIP3    H233928   3.375   1.804   2.259
11329TIP3   OH233929   0.427   5.705   5.173
11329TIP3    H133930   0.486   5.721   5.099
11329TIP3    H233931   0.469   5.748   5.247
11330TIP3   OH233932   2.126   1.741   5.758
11330TIP3    H133933   2.179   1.767   5.833
11330TIP3    H233934   2.186   1.746   5.683
11331TIP3   OH233935   1.925   7.573   0.926
11331TIP3    H133936   1.967   7.652   0.962
11331TIP3    H233937   1.927   7.510   0.998
11332TIP3   OH233938   0.214   5.655   2.617
11332TIP3    H133939   0.238   5.666   2.526
11332TIP3    H233940   0.196   5.561   2.626
11333TIP3   OH233941   4.668   1.082   5.794
11333TIP3    H133942   4.740   1.022   5.776
11333TIP3    H233943   4.655   1.077   5.889
11334TIP3   OH233944   7.793   5.794   2.849
11334TIP3    H133945   7.825   5.818   2.762
11334TIP3    H233946   7.867   5.809   2.907
11335TIP3   OH233947   1.594   6.166   1.500
11335TIP3    H133948   1.505   6.147   1.472
11335TIP3    H233949   1.590   6.168   1.596
11336TIP3   OH233950   1.010   5.711   2.896
11336TIP3    H133951   1.016   5.616   2.902
11336TIP3    H233952   1.008   5.741   2.987
11337TIP3   OH233953   0.976   1.635   0.956
11337TIP3    H133954   1.020   1.576   0.896
11337TIP3    H233955   0.941   1.705   0.900
11338TIP3   OH233956   7.022   7.339   4.774
11338TIP3    H133957   7.043   7.247   4.759
11338TIP3    H233958   6.957   7.360   4.707
11339TIP3   OH233959   5.255   7.037   6.100
11339TIP3    H133960   5.349   7.016   6.103
11339TIP3    H233961   5.252   7.131   6.084
11340TIP3   OH233962   1.204   5.890   1.601
11340TIP3    H133963   1.275   5.848   1.650
11340TIP3    H233964   1.209   5.849   1.514
11341TIP3   OH233965   1.900   1.046   2.736
11341TIP3    H133966   1.914   1.016   2.646
11341TIP3    H233967   1.988   1.047   2.775
11342TIP3   OH233968   6.581   6.001   6.123
11342TIP3    H133969   6.504   5.987   6.067
11342TIP3    H233970   6.575   6.092   6.150
11343TIP3   OH233971   7.295   3.632   4.670
11343TIP3    H133972   7.217   3.588   4.705
11343TIP3    H233973   7.289   3.618   4.575
11344TIP3   OH233974   3.306   7.545   6.744
11344TIP3    H133975   3.388   7.561   6.698
11344TIP3    H233976   3.238   7.555   6.677
11345TIP3   OH233977   6.292   4.155   6.211
11345TIP3    H133978   6.270   4.185   6.299
11345TIP3    H233979   6.334   4.230   6.169
11346TIP3   OH233980   5.777   2.443   6.120
11346TIP3    H133981   5.852   2.424   6.176
11346TIP3    H233982   5.704   2.457   6.181
11347TIP3   OH233983   6.364   2.880   0.612
11347TIP3    H133984   6.359   2.970   0.580
11347TIP3    H233985   6.396   2.829   0.536
11348TIP3   OH233986   5.579   3.891   6.651
11348TIP3    H133987   5.486   3.881   6.631
11348TIP3    H233988   5.620   3.915   6.568
11349TIP3   OH233989   3.854   6.339   0.116
11349TIP3    H133990   3.858   6.422   0.069
11349TIP3    H233991   3.917   6.283   0.072
11350TIP3   OH233992   0.979   6.792   2.243
11350TIP3    H133993   0.984   6.833   2.329
11350TIP3    H233994   1.047   6.835   2.192
11351TIP3   OH233995   5.143   2.423   5.442
11351TIP3    H133996   5.213   2.408   5.505
11351TIP3    H233997   5.187   2.440   5.359
11352TIP3   OH233998   3.511   7.552   5.692
11352TIP3    H133999   3.470   7.617   5.636
11352TIP3    H234000   3.520   7.474   5.637
11353TIP3   OH234001   5.296   3.992   0.995
11353TIP3    H134002   5.206   3.979   1.024
11353TIP3    H234003   5.288   4.020   0.904
11354TIP3   OH234004   3.478   0.488   1.511
11354TIP3    H134005   3.421   0.553   1.470
11354TIP3    H234006   3.419   0.416   1.534
11355TIP3   OH234007   2.779   3.052   6.208
11355TIP3    H134008   2.729   3.134   6.205
11355TIP3    H234009   2.828   3.052   6.126
11356TIP3   OH234010   1.916   2.109   2.491
11356TIP3    H134011   1.852   2.110   2.563
11356TIP3    H234012   1.885   2.039   2.434
11357TIP3   OH234013   1.052   2.568   4.772
11357TIP3    H134014   0.987   2.525   4.716
11357TIP3    H234015   1.044   2.524   4.856
11358TIP3   OH234016   0.208   4.148   2.443
11358TIP3    H134017   0.252   4.227   2.412
11358TIP3    H234018   0.159   4.116   2.368
11359TIP3   OH234019   7.855   1.866   2.414
11359TIP3    H134020   7.913   1.798   2.379
11359TIP3    H234021   7.767   1.835   2.394
11360TIP3   OH234022   5.579   6.197   5.720
11360TIP3    H134023   5.670   6.175   5.698
11360TIP3    H234024   5.527   6.148   5.657
11361TIP3   OH234025   5.103   0.302   2.018
11361TIP3    H134026   5.157   0.306   2.096
11361TIP3    H234027   5.161   0.328   1.947
11362TIP3   OH234028   1.656   0.141   6.682
11362TIP3    H134029   1.655   0.093   6.765
11362TIP3    H234030   1.580   0.107   6.634
11363TIP3   OH234031   0.371   6.078   3.375
11363TIP3    H134032   0.455   6.038   3.394
11363TIP3    H234033   0.362   6.149   3.439
11364TIP3   OH234034   7.080   2.252   4.760
11364TIP3    H134035   7.069   2.283   4.671
11364TIP3    H234036   7.047   2.324   4.815
11365TIP3   OH234037   3.887   7.236   1.306
11365TIP3    H134038   3.893   7.332   1.300
11365TIP3    H234039   3.959   7.212   1.365
11366TIP3   OH234040   6.375   3.643   6.430
11366TIP3    H134041   6.464   3.619   6.454
11366TIP3    H234042   6.376   3.738   6.422
11367TIP3   OH234043   5.211   7.519   1.678
11367TIP3    H134044   5.209   7.615   1.671
11367TIP3    H234045   5.123   7.492   1.653
11368TIP3   OH234046   2.180   4.111   1.540
11368TIP3    H134047   2.180   4.183   1.477
11368TIP3    H234048   2.270   4.108   1.574
11369TIP3   OH234049  -0.004   3.992   4.930
11369TIP3    H134050   0.058   4.064   4.914
11369TIP3    H234051   0.031   3.919   4.880
11370TIP3   OH234052   1.523   2.645   0.272
11370TIP3    H134053   1.465   2.718   0.294
11370TIP3    H234054   1.575   2.632   0.352
11371TIP3   OH234055   0.480   6.871   0.462
11371TIP3    H134056   0.506   6.782   0.486
11371TIP3    H234057   0.400   6.887   0.513
11372TIP3   OH234058   6.305   7.234   2.882
11372TIP3    H134059   6.251   7.197   2.812
11372TIP3    H234060   6.311   7.327   2.861
11373TIP3   OH234061   1.384   1.378   5.169
11373TIP3    H134062   1.456   1.319   5.190
11373TIP3    H234063   1.305   1.326   5.185
11374TIP3   OH234064   5.138   1.782   1.730
11374TIP3    H134065   5.164   1.711   1.671
11374TIP3    H234066   5.214   1.839   1.734
11375TIP3   OH234067   7.887   1.798   1.100
11375TIP3    H134068   7.794   1.822   1.100
11375TIP3    H234069   7.930   1.872   1.144
11376TIP3   OH234070   3.363   0.381   0.995
11376TIP3    H134071   3.316   0.362   0.914
11376TIP3    H234072   3.414   0.459   0.975
11377TIP3   OH234073   0.125   4.991   2.246
11377TIP3    H134074   0.105   4.955   2.159
11377TIP3    H234075   0.060   5.061   2.257
11378TIP3   OH234076   6.439   2.070   1.197
11378TIP3    H134077   6.434   2.018   1.277
11378TIP3    H234078   6.361   2.046   1.148
11379TIP3   OH234079   5.845   2.779   5.713
11379TIP3    H134080   5.868   2.699   5.664
11379TIP3    H234081   5.752   2.792   5.694
11380TIP3   OH234082   4.669   2.005   0.832
11380TIP3    H134083   4.763   2.006   0.850
11380TIP3    H234084   4.635   1.934   0.886
11381TIP3   OH234085   6.927   4.017   3.269
11381TIP3    H134086   6.885   3.976   3.193
11381TIP3    H234087   7.020   3.996   3.259
11382TIP3   OH234088   4.155   6.498   2.597
11382TIP3    H134089   4.195   6.507   2.510
11382TIP3    H234090   4.140   6.588   2.625
11383TIP3   OH234091   4.575   4.031   5.919
11383TIP3    H134092   4.667   4.054   5.932
11383TIP3    H234093   4.555   4.062   5.831
11384TIP3   OH234094   0.955   2.435   6.232
11384TIP3    H134095   1.006   2.420   6.152
11384TIP3    H234096   1.011   2.490   6.286
11385TIP3   OH234097   1.737   7.350   5.482
11385TIP3    H134098   1.793   7.402   5.424
11385TIP3    H234099   1.680   7.301   5.422
11386TIP3   OH234100   6.419   1.791   1.635
11386TIP3    H134101   6.443   1.699   1.632
11386TIP3    H234102   6.502   1.837   1.646
11387TIP3   OH234103   1.992   3.961   5.587
11387TIP3    H134104   1.902   3.991   5.599
11387TIP3    H234105   2.014   3.984   5.497
11388TIP3   OH234106   6.363   1.487   5.293
11388TIP3    H134107   6.307   1.546   5.344
11388TIP3    H234108   6.406   1.543   5.229
11389TIP3   OH234109   0.201   6.646   2.662
11389TIP3    H134110   0.256   6.569   2.648
11389TIP3    H234111   0.217   6.701   2.586
11390TIP3   OH234112   7.257   6.412   4.360
11390TIP3    H134113   7.172   6.448   4.336
11390TIP3    H234114   7.321   6.466   4.314
11391TIP3   OH234115   3.384   7.475   4.261
11391TIP3    H134116   3.455   7.448   4.320
11391TIP3    H234117   3.342   7.393   4.236
11392TIP3   OH234118   7.568   2.377   1.519
11392TIP3    H134119   7.625   2.329   1.579
11392TIP3    H234120   7.580   2.469   1.544
11393TIP3   OH234121   2.792   7.074   4.286
11393TIP3    H134122   2.697   7.089   4.289
11393TIP3    H234123   2.816   7.057   4.377
11394TIP3   OH234124   5.191   4.141   6.129
11394TIP3    H134125   5.230   4.112   6.212
11394TIP3    H234126   5.142   4.064   6.099
11395TIP3   OH234127   4.239   1.751   5.215
11395TIP3    H134128   4.333   1.730   5.212
11395TIP3    H234129   4.200   1.694   5.149
11396TIP3   OH234130   0.247   7.762   0.785
11396TIP3    H134131   0.309   7.768   0.713
11396TIP3    H234132   0.179   7.702   0.754
11397TIP3   OH234133   3.029   6.611   4.294
11397TIP3    H134134   2.970   6.537   4.279
11397TIP3    H234135   2.975   6.677   4.338
11398TIP3   OH234136   7.806   2.045   5.196
11398TIP3    H134137   7.832   2.119   5.251
11398TIP3    H234138   7.720   2.068   5.163
11399TIP3   OH234139   3.946   3.927   2.670
11399TIP3    H134140   3.871   3.982   2.689
11399TIP3    H234141   3.908   3.844   2.640
11400TIP3   OH234142   3.379   6.754   3.556
11400TIP3    H134143   3.407   6.807   3.631
11400TIP3    H234144   3.287   6.734   3.575
11401TIP3   OH234145   1.767   4.351   2.413
11401TIP3    H134146   1.746   4.438   2.379
11401TIP3    H234147   1.757   4.293   2.337
11402TIP3   OH234148   8.146   4.384   4.298
11402TIP3    H134149   8.155   4.432   4.380
11402TIP3    H234150   8.236   4.361   4.273
11403TIP3   OH234151   8.053   3.032   0.672
11403TIP3    H134152   8.106   3.108   0.695
11403TIP3    H234153   8.115   2.968   0.640
11404TIP3   OH234154   3.589   7.527   4.033
11404TIP3    H134155   3.640   7.526   4.114
11404TIP3    H234156   3.510   7.476   4.054
11405TIP3   OH234157   3.026   1.225   3.307
11405TIP3    H134158   2.986   1.138   3.301
11405TIP3    H234159   2.979   1.267   3.379
11406TIP3   OH234160   6.621   6.081   2.627
11406TIP3    H134161   6.677   6.086   2.550
11406TIP3    H234162   6.663   6.015   2.682
11407TIP3   OH234163   7.996   2.965  -0.002
11407TIP3    H134164   8.036   2.878  -0.010
11407TIP3    H234165   7.910   2.956  -0.042
11408TIP3   OH234166   5.922   3.754   0.226
11408TIP3    H134167   5.916   3.777   0.134
11408TIP3    H234168   5.905   3.660   0.228
11409TIP3   OH234169   6.160   0.123   3.061
11409TIP3    H134170   6.199   0.070   2.991
11409TIP3    H234171   6.132   0.059   3.126
11410TIP3   OH234172   4.235   6.058   5.952
11410TIP3    H134173   4.153   6.053   5.902
11410TIP3    H234174   4.282   5.979   5.929
11411TIP3   OH234175   4.237   0.173   5.557
11411TIP3    H134176   4.309   0.124   5.519
11411TIP3    H234177   4.199   0.114   5.622
11412TIP3   OH234178   2.874   1.998   1.135
11412TIP3    H134179   2.928   1.920   1.146
11412TIP3    H234180   2.929   2.059   1.087
11413TIP3   OH234181   3.773   1.475   1.954
11413TIP3    H134182   3.753   1.539   2.022
11413TIP3    H234183   3.707   1.407   1.966
11414TIP3   OH234184   2.272   3.967   3.690
11414TIP3    H134185   2.226   3.889   3.723
11414TIP3    H234186   2.327   3.934   3.620
11415TIP3   OH234187   4.858   5.049   5.185
11415TIP3    H134188   4.862   4.955   5.199
11415TIP3    H234189   4.816   5.084   5.264
11416TIP3   OH234190   5.449   5.065   1.239
11416TIP3    H134191   5.513   5.010   1.194
11416TIP3    H234192   5.502   5.125   1.291
11417TIP3   OH234193   7.216   2.969   6.396
11417TIP3    H134194   7.281   3.005   6.456
11417TIP3    H234195   7.140   2.949   6.451
11418TIP3   OH234196   0.271   0.419   3.319
11418TIP3    H134197   0.251   0.509   3.292
11418TIP3    H234198   0.235   0.365   3.248
11419TIP3   OH234199   7.831   1.110   2.037
11419TIP3    H134200   7.781   1.192   2.034
11419TIP3    H234201   7.911   1.129   1.989
11420TIP3   OH234202   7.106   4.676   6.458
11420TIP3    H134203   7.082   4.639   6.543
11420TIP3    H234204   7.115   4.601   6.400
11421TIP3   OH234205   3.930   0.158   4.890
11421TIP3    H134206   3.983   0.087   4.854
11421TIP3    H234207   3.985   0.235   4.884
11422TIP3   OH234208   0.561   0.688   6.284
11422TIP3    H134209   0.573   0.776   6.319
11422TIP3    H234210   0.551   0.700   6.189
11423TIP3   OH234211   3.276   5.833   0.150
11423TIP3    H134212   3.244   5.895   0.084
11423TIP3    H234213   3.236   5.862   0.232
11424TIP3   OH234214   3.247   1.397   4.763
11424TIP3    H134215   3.260   1.307   4.734
11424TIP3    H234216   3.276   1.397   4.854
11425TIP3   OH234217   5.954   7.262   1.604
11425TIP3    H134218   5.926   7.303   1.686
11425TIP3    H234219   5.872   7.244   1.557
11426TIP3   OH234220   7.381   6.652   5.981
11426TIP3    H134221   7.370   6.732   5.929
11426TIP3    H234222   7.422   6.590   5.921
11427TIP3   OH234223   3.993   6.333   3.966
11427TIP3    H134224   3.924   6.270   3.987
11427TIP3    H234225   4.051   6.332   4.043
11428TIP3   OH234226   4.956   2.509   1.760
11428TIP3    H134227   4.980   2.528   1.850
11428TIP3    H234228   5.008   2.570   1.708
11429TIP3   OH234229   6.088   5.746   4.896
11429TIP3    H134230   6.003   5.731   4.936
11429TIP3    H234231   6.107   5.838   4.913
11430TIP3   OH234232   4.770   7.620   2.977
11430TIP3    H134233   4.689   7.601   2.929
11430TIP3    H234234   4.825   7.666   2.914
11431TIP3   OH234235   1.583   6.794   4.801
11431TIP3    H134236   1.532   6.875   4.798
11431TIP3    H234237   1.520   6.727   4.826
11432TIP3   OH234238   4.490   5.522   2.490
11432TIP3    H134239   4.486   5.499   2.397
11432TIP3    H234240   4.550   5.458   2.528
11433TIP3   OH234241   0.236   1.368   6.395
11433TIP3    H134242   0.220   1.387   6.488
11433TIP3    H234243   0.152   1.339   6.361
11434TIP3   OH234244   6.296   5.362   6.570
11434TIP3    H134245   6.248   5.444   6.586
11434TIP3    H234246   6.283   5.346   6.476
11435TIP3   OH234247   2.800   4.875   6.535
11435TIP3    H134248   2.801   4.955   6.588
11435TIP3    H234249   2.892   4.860   6.512
11436TIP3   OH234250   5.572   4.420   1.668
11436TIP3    H134251   5.477   4.423   1.681
11436TIP3    H234252   5.589   4.331   1.639
11437TIP3   OH234253   7.733   0.023   6.487
11437TIP3    H134254   7.671  -0.010   6.422
11437TIP3    H234255   7.709  -0.023   6.568
11438TIP3   OH234256   6.699   7.697   6.600
11438TIP3    H134257   6.628   7.642   6.635
11438TIP3    H234258   6.774   7.638   6.592
11439TIP3   OH234259   5.821   3.670   4.567
11439TIP3    H134260   5.878   3.711   4.501
11439TIP3    H234261   5.855   3.581   4.577
11440TIP3   OH234262   7.187   0.206   3.104
11440TIP3    H134263   7.139   0.283   3.073
11440TIP3    H234264   7.251   0.241   3.166
11441TIP3   OH234265   1.758   6.608   2.323
11441TIP3    H134266   1.724   6.521   2.300
11441TIP3    H234267   1.842   6.613   2.278
11442TIP3   OH234268   4.319   4.211   2.192
11442TIP3    H134269   4.377   4.262   2.247
11442TIP3    H234270   4.234   4.254   2.200
11443TIP3   OH234271   7.050   3.345   5.722
11443TIP3    H134272   7.008   3.363   5.638
11443TIP3    H234273   7.017   3.258   5.747
11444TIP3   OH234274   1.535   0.651   5.830
11444TIP3    H134275   1.457   0.597   5.843
11444TIP3    H234276   1.600   0.614   5.890
11445TIP3   OH234277   5.207   1.481   5.090
11445TIP3    H134278   5.166   1.559   5.129
11445TIP3    H234279   5.301   1.493   5.106
11446TIP3   OH234280   1.817   5.921   3.052
11446TIP3    H134281   1.759   5.875   3.114
11446TIP3    H234282   1.777   6.007   3.043
11447TIP3   OH234283   3.533   7.680   0.590
11447TIP3    H134284   3.568   7.731   0.517
11447TIP3    H234285   3.540   7.739   0.665
11448TIP3   OH234286   0.804   2.222   1.700
11448TIP3    H134287   0.873   2.287   1.690
11448TIP3    H234288   0.851   2.140   1.718
11449TIP3   OH234289   2.614   6.924   0.960
11449TIP3    H134290   2.546   6.947   0.897
11449TIP3    H234291   2.612   6.829   0.965
11450TIP3   OH234292   1.657   0.557   4.645
11450TIP3    H134293   1.643   0.462   4.652
11450TIP3    H234294   1.660   0.574   4.551
11451TIP3   OH234295   8.273   6.039   1.543
11451TIP3    H134296   8.232   6.027   1.628
11451TIP3    H234297   8.210   6.004   1.481
11452TIP3   OH234298   0.907   0.222   0.269
11452TIP3    H134299   0.974   0.214   0.336
11452TIP3    H234300   0.847   0.150   0.287
11453TIP3   OH234301   2.576   1.479   0.952
11453TIP3    H134302   2.580   1.407   1.015
11453TIP3    H234303   2.593   1.438   0.867
11454TIP3   OH234304   6.663   7.699   2.241
11454TIP3    H134305   6.629   7.702   2.151
11454TIP3    H234306   6.748   7.743   2.235
11455TIP3   OH234307   3.200   3.454   4.017
11455TIP3    H134308   3.274   3.465   4.076
11455TIP3    H234309   3.202   3.361   3.994
11456TIP3   OH234310   3.928   7.294   4.529
11456TIP3    H134311   3.885   7.232   4.470
11456TIP3    H234312   3.862   7.317   4.593
11457TIP3   OH234313   7.990   0.607   0.298
11457TIP3    H134314   8.047   0.562   0.361
11457TIP3    H234315   7.904   0.608   0.340
11458TIP3   OH234316   3.337   6.527   2.940
11458TIP3    H134317   3.284   6.591   2.893
11458TIP3    H234318   3.389   6.579   3.001
11459TIP3   OH234319   5.962   2.035   1.128
11459TIP3    H134320   5.998   1.985   1.201
11459TIP3    H234321   5.892   1.979   1.093
11460TIP3   OH234322   4.979   0.399   1.604
11460TIP3    H134323   5.003   0.417   1.513
11460TIP3    H234324   4.919   0.324   1.598
11461TIP3   OH234325   4.415   6.247   1.132
11461TIP3    H134326   4.486   6.310   1.119
11461TIP3    H234327   4.362   6.254   1.052
11462TIP3   OH234328   6.845   2.527   5.613
11462TIP3    H134329   6.921   2.523   5.671
11462TIP3    H234330   6.857   2.608   5.563
11463TIP3   OH234331   3.209   3.172   0.004
11463TIP3    H134332   3.261   3.094   0.025
11463TIP3    H234333   3.130   3.163   0.057
11464TIP3   OH234334   0.887   5.119   3.436
11464TIP3    H134335   0.890   5.024   3.425
11464TIP3    H234336   0.928   5.154   3.357
11465TIP3   OH234337   0.870   6.468   4.964
11465TIP3    H134338   0.897   6.401   5.027
11465TIP3    H234339   0.805   6.520   5.010
11466TIP3   OH234340   8.137   3.749   6.175
11466TIP3    H134341   8.126   3.844   6.185
11466TIP3    H234342   8.145   3.717   6.264
11467TIP3   OH234343   7.032   1.821   4.401
11467TIP3    H134344   6.950   1.865   4.381
11467TIP3    H234345   7.065   1.792   4.316
11468TIP3   OH234346   5.887   1.661   2.597
11468TIP3    H134347   5.834   1.628   2.525
11468TIP3    H234348   5.924   1.743   2.563
11469TIP3   OH234349   3.747   4.955   3.026
11469TIP3    H134350   3.675   4.942   3.089
11469TIP3    H234351   3.825   4.967   3.081
11470TIP3   OH234352   6.825   3.209   3.801
11470TIP3    H134353   6.848   3.201   3.709
11470TIP3    H234354   6.771   3.131   3.819
11471TIP3   OH234355   7.267   7.492   1.926
11471TIP3    H134356   7.341   7.519   1.980
11471TIP3    H234357   7.190   7.526   1.972
11472TIP3   OH234358   5.732   1.560   0.477
11472TIP3    H134359   5.708   1.473   0.446
11472TIP3    H234360   5.648   1.607   0.485
11473TIP3   OH234361   1.084   2.762   1.193
11473TIP3    H134362   1.005   2.732   1.148
11473TIP3    H234363   1.153   2.757   1.127
11474TIP3   OH234364   0.623   0.881   4.952
11474TIP3    H134365   0.670   0.837   5.022
11474TIP3    H234366   0.652   0.972   4.957
11475TIP3   OH234367   5.176   7.796   4.262
11475TIP3    H134368   5.208   7.884   4.243
11475TIP3    H234369   5.255   7.741   4.259
11476TIP3   OH234370   7.778   3.690   0.004
11476TIP3    H134371   7.733   3.616  -0.037
11476TIP3    H234372   7.710   3.735   0.054
11477TIP3   OH234373   1.480   4.286   6.339
11477TIP3    H134374   1.402   4.305   6.286
11477TIP3    H234375   1.498   4.193   6.321
11478TIP3   OH234376   6.910   5.936   1.207
11478TIP3    H134377   6.866   5.852   1.199
11478TIP3    H234378   6.883   5.969   1.293
11479TIP3   OH234379   8.328   3.799   2.645
11479TIP3    H134380   8.259   3.732   2.651
11479TIP3    H234381   8.295   3.861   2.580
11480TIP3   OH234382   2.782   3.544   5.093
11480TIP3    H134383   2.845   3.472   5.090
11480TIP3    H234384   2.727   3.531   5.016
11481TIP3   OH234385   2.514   2.232   5.414
11481TIP3    H134386   2.450   2.279   5.468
11481TIP3    H234387   2.598   2.268   5.441
11482TIP3   OH234388   3.383   3.240   2.675
11482TIP3    H134389   3.468   3.211   2.641
11482TIP3    H234390   3.356   3.309   2.614
11483TIP3   OH234391   0.243   2.240   0.534
11483TIP3    H134392   0.326   2.285   0.523
11483TIP3    H234393   0.267   2.153   0.566
11484TIP3   OH234394   5.173   7.612   2.062
11484TIP3    H134395   5.262   7.648   2.063
11484TIP3    H234396   5.156   7.588   2.153
11485TIP3   OH234397   3.984   4.040   3.525
11485TIP3    H134398   4.076   4.061   3.507
11485TIP3    H234399   3.936   4.076   3.451
11486TIP3   OH234400   7.623   0.260   0.487
11486TIP3    H134401   7.583   0.314   0.419
11486TIP3    H234402   7.590   0.171   0.470
11487TIP3   OH234403   2.914   3.330   4.173
11487TIP3    H134404   2.919   3.365   4.262
11487TIP3    H234405   2.987   3.267   4.169
11488TIP3   OH234406   4.451   6.685   3.778
11488TIP3    H134407   4.485   6.708   3.864
11488TIP3    H234408   4.389   6.614   3.795
11489TIP3   OH234409   5.834   4.389   4.397
11489TIP3    H134410   5.917   4.343   4.407
11489TIP3    H234411   5.859   4.475   4.362
11490TIP3   OH234412   7.824   3.524   6.295
11490TIP3    H134413   7.879   3.552   6.368
11490TIP3    H234414   7.782   3.604   6.264
11491TIP3   OH234415   8.190   1.806   3.877
11491TIP3    H134416   8.267   1.851   3.911
11491TIP3    H234417   8.192   1.720   3.919
11492TIP3   OH234418   1.137   0.996   1.008
11492TIP3    H134419   1.137   1.074   1.063
11492TIP3    H234420   1.207   0.941   1.044
11493TIP3   OH234421   2.079   0.773   4.241
11493TIP3    H134422   2.052   0.864   4.226
11493TIP3    H234423   2.105   0.742   4.154
11494TIP3   OH234424   7.755   0.914   3.578
11494TIP3    H134425   7.702   0.866   3.514
11494TIP3    H234426   7.818   0.963   3.525
11495TIP3   OH234427   2.056   7.633   5.224
11495TIP3    H134428   2.066   7.724   5.194
11495TIP3    H234429   2.141   7.610   5.260
11496TIP3   OH234430   8.184   3.825   3.875
11496TIP3    H134431   8.264   3.800   3.920
11496TIP3    H234432   8.168   3.916   3.902
11497TIP3   OH234433   6.350   4.894   4.136
11497TIP3    H134434   6.355   4.944   4.218
11497TIP3    H234435   6.391   4.951   4.071
11498TIP3   OH234436   6.709   5.750   1.157
11498TIP3    H134437   6.718   5.699   1.076
11498TIP3    H234438   6.617   5.776   1.159
11499TIP3   OH234439   2.517   7.088   2.869
11499TIP3    H134440   2.555   7.002   2.884
11499TIP3    H234441   2.500   7.123   2.956
11500TIP3   OH234442   7.617   1.672   6.605
11500TIP3    H134443   7.707   1.699   6.585
11500TIP3    H234444   7.595   1.609   6.536
11501TIP3   OH234445   0.277   2.097   6.346
11501TIP3    H134446   0.318   2.012   6.335
11501TIP3    H234447   0.244   2.120   6.258
11502TIP3   OH234448   7.589   1.064   5.441
11502TIP3    H134449   7.647   1.049   5.366
11502TIP3    H234450   7.537   0.985   5.448
11503TIP3   OH234451   8.017   3.075   0.382
11503TIP3    H134452   8.004   2.990   0.339
11503TIP3    H234453   8.002   3.057   0.475
11504TIP3   OH234454   3.653   1.679   5.727
11504TIP3    H134455   3.632   1.611   5.664
11504TIP3    H234456   3.749   1.684   5.727
11505TIP3   OH234457   3.319   1.943   3.661
11505TIP3    H134458   3.370   1.862   3.668
11505TIP3    H234459   3.349   1.997   3.734
11506TIP3   OH234460   4.775   6.156   0.783
11506TIP3    H134461   4.754   6.108   0.703
11506TIP3    H234462   4.690   6.171   0.825
11507TIP3   OH234463   2.140   3.427   0.868
11507TIP3    H134464   2.217   3.372   0.878
11507TIP3    H234465   2.069   3.365   0.848
11508TIP3   OH234466   5.616   4.236   6.117
11508TIP3    H134467   5.537   4.229   6.064
11508TIP3    H234468   5.589   4.208   6.205
11509TIP3   OH234469   0.818   2.569   2.782
11509TIP3    H134470   0.888   2.564   2.848
11509TIP3    H234471   0.759   2.497   2.805
11510TIP3   OH234472   4.509   6.042   3.863
11510TIP3    H134473   4.538   5.982   3.794
11510TIP3    H234474   4.460   6.110   3.817
11511TIP3   OH234475   1.995   0.609   6.367
11511TIP3    H134476   2.003   0.526   6.413
11511TIP3    H234477   2.051   0.669   6.417
11512TIP3   OH234478   7.203   3.994   3.288
11512TIP3    H134479   7.244   4.079   3.273
11512TIP3    H234480   7.261   3.932   3.243
11513TIP3   OH234481   2.386   5.853   4.106
11513TIP3    H134482   2.364   5.760   4.109
11513TIP3    H234483   2.361   5.880   4.017
11514TIP3   OH234484   3.969   4.661   3.703
11514TIP3    H134485   3.952   4.754   3.696
11514TIP3    H234486   4.048   4.655   3.757
11515TIP3   OH234487   3.402   1.682   4.710
11515TIP3    H134488   3.407   1.657   4.617
11515TIP3    H234489   3.343   1.616   4.748
11516TIP3   OH234490   7.646   2.861   4.045
11516TIP3    H134491   7.588   2.866   4.120
11516TIP3    H234492   7.621   2.936   3.990
11517TIP3   OH234493   1.471   2.122   6.546
11517TIP3    H134494   1.561   2.115   6.516
11517TIP3    H234495   1.418   2.108   6.468
11518TIP3   OH234496   6.199   6.104   6.260
11518TIP3    H134497   6.186   6.097   6.355
11518TIP3    H234498   6.251   6.028   6.237
11519TIP3   OH234499   6.234   6.383   0.611
11519TIP3    H134500   6.289   6.448   0.567
11519TIP3    H234501   6.181   6.434   0.672
11520TIP3   OH234502   8.192   1.375   2.563
11520TIP3    H134503   8.249   1.315   2.611
11520TIP3    H234504   8.243   1.455   2.552
11521TIP3   OH234505   1.363   0.704   1.840
11521TIP3    H134506   1.380   0.691   1.746
11521TIP3    H234507   1.317   0.788   1.844
11522TIP3   OH234508   5.265   6.810   6.457
11522TIP3    H134509   5.315   6.839   6.533
11522TIP3    H234510   5.177   6.790   6.491
11523TIP3   OH234511   1.370   0.687   4.336
11523TIP3    H134512   1.357   0.603   4.381
11523TIP3    H234513   1.455   0.678   4.294
11524TIP3   OH234514   8.086   6.352   6.358
11524TIP3    H134515   8.058   6.443   6.368
11524TIP3    H234516   8.008   6.300   6.378
11525TIP3   OH234517   4.442   1.612   6.103
11525TIP3    H134518   4.406   1.689   6.148
11525TIP3    H234519   4.536   1.631   6.094
11526TIP3   OH234520   3.373   5.869   2.010
11526TIP3    H134521   3.421   5.951   2.010
11526TIP3    H234522   3.282   5.894   2.026
11527TIP3   OH234523   4.301   4.154   1.913
11527TIP3    H134524   4.375   4.211   1.890
11527TIP3    H234525   4.310   4.141   2.008
11528TIP3   OH234526   1.034   4.722   5.266
11528TIP3    H134527   0.993   4.733   5.180
11528TIP3    H234528   0.960   4.705   5.325
11529TIP3   OH234529   7.853   2.858   6.013
11529TIP3    H134530   7.844   2.765   6.032
11529TIP3    H234531   7.947   2.872   6.006
11530TIP3   OH234532   4.528   4.819   2.442
11530TIP3    H134533   4.614   4.786   2.469
11530TIP3    H234534   4.541   4.847   2.352
11531TIP3   OH234535   7.381   2.761   6.273
11531TIP3    H134536   7.344   2.842   6.305
11531TIP3    H234537   7.421   2.784   6.188
11532TIP3   OH234538   1.435   6.220   0.487
11532TIP3    H134539   1.398   6.292   0.435
11532TIP3    H234540   1.393   6.229   0.573
11533TIP3   OH234541   2.716   5.648   2.667
11533TIP3    H134542   2.632   5.603   2.675
11533TIP3    H234543   2.694   5.734   2.631
11534TIP3   OH234544   6.470   3.150   6.311
11534TIP3    H134545   6.529   3.225   6.311
11534TIP3    H234546   6.387   3.185   6.344
11535TIP3   OH234547   5.493   0.264   6.322
11535TIP3    H134548   5.506   0.355   6.349
11535TIP3    H234549   5.552   0.214   6.378
11536TIP3   OH234550   3.896   3.180   3.485
11536TIP3    H134551   3.834   3.152   3.418
11536TIP3    H234552   3.863   3.265   3.513
11537TIP3   OH234553   8.284   4.375   1.690
11537TIP3    H134554   8.227   4.319   1.743
11537TIP3    H234555   8.320   4.315   1.624
11538TIP3   OH234556   4.910   5.590   4.928
11538TIP3    H134557   4.990   5.643   4.925
11538TIP3    H234558   4.942   5.499   4.925
11539TIP3   OH234559   2.990   7.501   3.735
11539TIP3    H134560   3.017   7.547   3.815
11539TIP3    H234561   3.054   7.527   3.670
11540TIP3   OH234562   2.172   1.630   5.092
11540TIP3    H134563   2.227   1.695   5.137
11540TIP3    H234564   2.116   1.682   5.034
11541TIP3   OH234565   2.746   4.859   5.652
11541TIP3    H134566   2.690   4.835   5.726
11541TIP3    H234567   2.744   4.955   5.651
11542TIP3   OH234568   3.188   7.108   3.363
11542TIP3    H134569   3.258   7.173   3.368
11542TIP3    H234570   3.149   7.108   3.450
11543TIP3   OH234571   3.571   1.451   5.568
11543TIP3    H134572   3.485   1.488   5.548
11543TIP3    H234573   3.627   1.477   5.495
11544TIP3   OH234574   5.016   1.407   1.277
11544TIP3    H134575   5.026   1.370   1.364
11544TIP3    H234576   5.083   1.475   1.272
11545TIP3   OH234577   2.039   2.508   2.859
11545TIP3    H134578   2.092   2.567   2.806
11545TIP3    H234579   2.073   2.421   2.839
11546TIP3   OH234580   6.141   5.007   0.969
11546TIP3    H134581   6.176   5.025   1.056
11546TIP3    H234582   6.108   5.091   0.937
11547TIP3   OH234583   5.345   7.615   0.721
11547TIP3    H134584   5.425   7.564   0.706
11547TIP3    H234585   5.279   7.549   0.742
11548TIP3   OH234586   2.510   5.772   1.272
11548TIP3    H134587   2.487   5.839   1.337
11548TIP3    H234588   2.448   5.786   1.201
11549TIP3   OH234589   0.390   0.802   5.671
11549TIP3    H134590   0.405   0.734   5.737
11549TIP3    H234591   0.298   0.827   5.683
11550TIP3   OH234592   0.401   3.829   6.292
11550TIP3    H134593   0.323   3.786   6.326
11550TIP3    H234594   0.368   3.886   6.222
11551TIP3   OH234595   7.237   4.966   1.627
11551TIP3    H134596   7.168   5.032   1.623
11551TIP3    H234597   7.266   4.955   1.536
11552TIP3   OH234598   2.997   6.171   3.137
11552TIP3    H134599   3.082   6.193   3.175
11552TIP3    H234600   2.976   6.245   3.080
11553TIP3   OH234601   6.316   2.515   1.601
11553TIP3    H134602   6.272   2.578   1.545
11553TIP3    H234603   6.346   2.447   1.541
11554TIP3   OH234604   3.398   3.444   1.730
11554TIP3    H134605   3.486   3.472   1.705
11554TIP3    H234606   3.380   3.490   1.812
11555TIP3   OH234607   6.524   3.332   2.987
11555TIP3    H134608   6.550   3.420   3.013
11555TIP3    H234609   6.602   3.296   2.944
11556TIP3   OH234610   2.792   4.012   4.074
11556TIP3    H134611   2.760   3.941   4.129
11556TIP3    H234612   2.714   4.065   4.055
11557TIP3   OH234613   6.097   6.119   5.344
11557TIP3    H134614   6.075   6.035   5.303
11557TIP3    H234615   6.141   6.094   5.426
11558TIP3   OH234616   0.386   6.916   5.931
11558TIP3    H134617   0.436   6.930   6.012
11558TIP3    H234618   0.302   6.958   5.948
11559TIP3   OH234619   0.232   7.431   6.678
11559TIP3    H134620   0.310   7.471   6.716
11559TIP3    H234621   0.237   7.452   6.585
11560TIP3   OH234622   6.250   2.225   6.242
11560TIP3    H134623   6.155   2.239   6.234
11560TIP3    H234624   6.288   2.301   6.198
11561TIP3   OH234625   2.435   1.712   1.860
11561TIP3    H134626   2.418   1.737   1.951
11561TIP3    H234627   2.528   1.731   1.847
11562TIP3   OH234628   0.621   2.457   1.055
11562TIP3    H134629   0.583   2.437   1.141
11562TIP3    H234630   0.611   2.551   1.046
11563TIP3   OH234631   4.128   4.610   0.654
11563TIP3    H134632   4.063   4.564   0.706
11563TIP3    H234633   4.198   4.631   0.716
11564TIP3   OH234634   1.640   0.844   2.321
11564TIP3    H134635   1.618   0.927   2.363
11564TIP3    H234636   1.624   0.859   2.228
11565TIP3   OH234637   7.082   7.073   5.330
11565TIP3    H134638   7.105   7.146   5.272
11565TIP3    H234639   7.009   7.030   5.286
11566TIP3   OH234640   6.679   2.159   2.389
11566TIP3    H134641   6.589   2.189   2.379
11566TIP3    H234642   6.688   2.142   2.483
11567TIP3   OH234643   2.776   2.555   3.406
11567TIP3    H134644   2.683   2.547   3.430
11567TIP3    H234645   2.796   2.647   3.423
11568TIP3   OH234646   2.536   4.504   5.353
11568TIP3    H134647   2.558   4.565   5.424
11568TIP3    H234648   2.509   4.424   5.397
11569TIP3   OH234649   0.281   1.749   5.400
11569TIP3    H134650   0.340   1.804   5.451
11569TIP3    H234651   0.238   1.810   5.340
11570TIP3   OH234652   1.129   7.651   6.254
11570TIP3    H134653   1.204   7.686   6.206
11570TIP3    H234654   1.093   7.727   6.300
11571TIP3   OH234655   0.680   4.031   2.586
11571TIP3    H134656   0.612   4.025   2.519
11571TIP3    H234657   0.641   3.989   2.663
11572TIP3   OH234658   1.470   3.774   2.124
11572TIP3    H134659   1.542   3.765   2.187
11572TIP3    H234660   1.512   3.765   2.038
11573TIP3   OH234661   7.287   7.849   5.580
11573TIP3    H134662   7.303   7.797   5.659
11573TIP3    H234663   7.301   7.788   5.508
11574TIP3   OH234664   3.553   3.982   0.789
11574TIP3    H134665   3.635   3.965   0.742
11574TIP3    H234666   3.518   4.062   0.749
11575TIP3   OH234667   6.464   3.795   3.020
11575TIP3    H134668   6.434   3.800   2.929
11575TIP3    H234669   6.448   3.882   3.055
11576TIP3   OH234670   2.864   7.677   6.270
11576TIP3    H134671   2.854   7.728   6.189
11576TIP3    H234672   2.932   7.613   6.248
11577TIP3   OH234673   2.743   2.103   4.353
11577TIP3    H134674   2.799   2.177   4.373
11577TIP3    H234675   2.665   2.115   4.407
11578TIP3   OH234676   4.392   2.863   5.452
11578TIP3    H134677   4.470   2.838   5.402
11578TIP3    H234678   4.350   2.779   5.473
11579TIP3   OH234679   7.040   2.861   2.097
11579TIP3    H134680   6.954   2.844   2.136
11579TIP3    H234681   7.037   2.815   2.013
11580TIP3   OH234682   5.910   0.143   6.106
11580TIP3    H134683   5.845   0.072   6.102
11580TIP3    H234684   5.876   0.202   6.173
11581TIP3   OH234685   1.832   7.393   1.583
11581TIP3    H134686   1.853   7.386   1.676
11581TIP3    H234687   1.904   7.350   1.539
11582TIP3   OH234688   6.125   7.120   2.703
11582TIP3    H134689   6.081   7.053   2.651
11582TIP3    H234690   6.054   7.174   2.737
11583TIP3   OH234691   1.245   4.235   0.454
11583TIP3    H134692   1.231   4.328   0.471
11583TIP3    H234693   1.334   4.218   0.484
11584TIP3   OH234694   5.103   2.620   3.467
11584TIP3    H134695   5.158   2.544   3.451
11584TIP3    H234696   5.061   2.603   3.551
11585TIP3   OH234697   1.228   5.073   3.051
11585TIP3    H134698   1.195   5.120   2.974
11585TIP3    H234699   1.323   5.078   3.043
11586TIP3   OH234700   6.899   5.151   1.809
11586TIP3    H134701   6.972   5.211   1.817
11586TIP3    H234702   6.830   5.202   1.766
11587TIP3   OH234703   7.094   3.481   5.415
11587TIP3    H134704   7.012   3.480   5.365
11587TIP3    H234705   7.157   3.436   5.358
11588TIP3   OH234706   5.656   0.458   6.453
11588TIP3    H134707   5.587   0.460   6.519
11588TIP3    H234708   5.736   0.480   6.501
11589TIP3   OH234709   1.332   0.044   4.256
11589TIP3    H134710   1.254   0.072   4.207
11589TIP3    H234711   1.298  -0.001   4.333
11590TIP3   OH234712   5.994   3.378   4.875
11590TIP3    H134713   5.976   3.285   4.889
11590TIP3    H234714   5.963   3.395   4.786
11591TIP3   OH234715   5.246   4.773   4.171
11591TIP3    H134716   5.326   4.823   4.156
11591TIP3    H234717   5.225   4.788   4.263
11592TIP3   OH234718   2.523   4.658   1.909
11592TIP3    H134719   2.476   4.576   1.921
11592TIP3    H234720   2.461   4.714   1.863
11593TIP3   OH234721   7.096   2.188   1.225
11593TIP3    H134722   7.010   2.173   1.186
11593TIP3    H234723   7.087   2.157   1.315
11594TIP3   OH234724   4.387   4.897   4.210
11594TIP3    H134725   4.361   4.813   4.250
11594TIP3    H234726   4.308   4.951   4.216
11595TIP3   OH234727   4.020   4.147   4.621
11595TIP3    H134728   4.088   4.209   4.595
11595TIP3    H234729   4.053   4.107   4.702
11596TIP3   OH234730   8.034   3.360   0.538
11596TIP3    H134731   7.995   3.367   0.625
11596TIP3    H234732   8.119   3.320   0.553
11597TIP3   OH234733   3.196   5.551   1.985
11597TIP3    H134734   3.199   5.475   2.043
11597TIP3    H234735   3.168   5.624   2.042
11598TIP3   OH234736   1.412   4.406   4.144
11598TIP3    H134737   1.372   4.488   4.174
11598TIP3    H234738   1.341   4.358   4.102
11599TIP3   OH234739   4.174   0.094   3.840
11599TIP3    H134740   4.092   0.135   3.867
11599TIP3    H234741   4.149   0.005   3.815
11600TIP3   OH234742   8.130   5.046   4.019
11600TIP3    H134743   8.226   5.054   4.017
11600TIP3    H234744   8.101   5.114   4.078
11601TIP3   OH234745   1.464   0.895   2.922
11601TIP3    H134746   1.532   0.839   2.887
11601TIP3    H234747   1.399   0.835   2.960
11602TIP3   OH234748   4.340   2.665   3.874
11602TIP3    H134749   4.371   2.748   3.840
11602TIP3    H234750   4.398   2.645   3.947
11603TIP3   OH234751   8.011   2.775   0.350
11603TIP3    H134752   8.033   2.755   0.259
11603TIP3    H234753   8.075   2.727   0.402
11604TIP3   OH234754   4.415   2.124   5.074
11604TIP3    H134755   4.332   2.169   5.090
11604TIP3    H234756   4.405   2.088   4.985
11605TIP3   OH234757   6.787   4.645   0.926
11605TIP3    H134758   6.868   4.628   0.975
11605TIP3    H234759   6.727   4.682   0.991
11606TIP3   OH234760   3.915   6.440   2.734
11606TIP3    H134761   3.969   6.403   2.803
11606TIP3    H234762   3.977   6.478   2.672
11607TIP3   OH234763   5.250   3.495   5.388
11607TIP3    H134764   5.205   3.579   5.376
11607TIP3    H234765   5.205   3.436   5.328
11608TIP3   OH234766   0.185   6.477   5.883
11608TIP3    H134767   0.125   6.511   5.816
11608TIP3    H234768   0.271   6.477   5.841
11609TIP3   OH234769   6.118   2.382   5.379
11609TIP3    H134770   6.029   2.349   5.364
11609TIP3    H234771   6.166   2.357   5.300
11610TIP3   OH234772   6.939   7.548   4.272
11610TIP3    H134773   6.932   7.598   4.353
11610TIP3    H234774   6.968   7.612   4.207
11611TIP3   OH234775   1.555   7.700   2.053
11611TIP3    H134776   1.486   7.766   2.048
11611TIP3    H234777   1.516   7.630   2.106
11612TIP3   OH234778   7.597   6.242   6.522
11612TIP3    H134779   7.549   6.311   6.475
11612TIP3    H234780   7.687   6.275   6.528
11613TIP3   OH234781   4.928   7.802   5.790
11613TIP3    H134782   4.952   7.854   5.713
11613TIP3    H234783   4.844   7.762   5.767
11614TIP3   OH234784   4.255   1.148   5.912
11614TIP3    H134785   4.194   1.217   5.936
11614TIP3    H234786   4.208   1.067   5.929
11615TIP3   OH234787   1.184   1.329   6.437
11615TIP3    H134788   1.194   1.407   6.382
11615TIP3    H234789   1.094   1.299   6.420
11616TIP3   OH234790   6.737   0.639   6.647
11616TIP3    H134791   6.760   0.728   6.675
11616TIP3    H234792   6.794   0.583   6.700
11617TIP3   OH234793   0.827   1.488   6.280
11617TIP3    H134794   0.912   1.519   6.247
11617TIP3    H234795   0.796   1.558   6.337
11618TIP3   OH234796   0.847   7.214   3.488
11618TIP3    H134797   0.910   7.283   3.510
11618TIP3    H234798   0.873   7.140   3.543
11619TIP3   OH234799   7.138   1.892   5.162
11619TIP3    H134800   7.179   1.958   5.107
11619TIP3    H234801   7.106   1.941   5.238
11620TIP3   OH234802   0.557   0.870   2.274
11620TIP3    H134803   0.506   0.808   2.326
11620TIP3    H234804   0.642   0.873   2.317
11621TIP3   OH234805   7.576   1.595   6.354
11621TIP3    H134806   7.533   1.674   6.320
11621TIP3    H234807   7.579   1.535   6.280
11622TIP3   OH234808   5.716   4.261   3.775
11622TIP3    H134809   5.671   4.341   3.748
11622TIP3    H234810   5.796   4.259   3.722
11623TIP3   OH234811   7.635   5.350   3.098
11623TIP3    H134812   7.656   5.433   3.141
11623TIP3    H234813   7.612   5.375   3.009
11624TIP3   OH234814   6.122   5.479   6.273
11624TIP3    H134815   6.196   5.438   6.227
11624TIP3    H234816   6.045   5.431   6.242
11625TIP3   OH234817   2.536   6.875   4.783
11625TIP3    H134818   2.461   6.933   4.793
11625TIP3    H234819   2.559   6.848   4.872
11626TIP3   OH234820   8.077   5.797   0.690
11626TIP3    H134821   8.087   5.719   0.745
11626TIP3    H234822   8.055   5.763   0.604
11627TIP3   OH234823   7.259   0.493   3.477
11627TIP3    H134824   7.336   0.501   3.533
11627TIP3    H234825   7.198   0.438   3.526
11628TIP3   OH234826   3.983   5.116   6.129
11628TIP3    H134827   3.953   5.041   6.079
11628TIP3    H234828   3.903   5.153   6.167
11629TIP3   OH234829   4.457   3.181   2.593
11629TIP3    H134830   4.403   3.246   2.637
11629TIP3    H234831   4.480   3.119   2.662
11630TIP3   OH234832   1.985   4.890   3.628
11630TIP3    H134833   2.000   4.976   3.666
11630TIP3    H234834   2.073   4.856   3.610
11631TIP3   OH234835   0.245   3.610   4.275
11631TIP3    H134836   0.205   3.530   4.309
11631TIP3    H234837   0.281   3.584   4.190
11632TIP3   OH234838   8.042   3.298   2.411
11632TIP3    H134839   8.132   3.312   2.380
11632TIP3    H234840   8.013   3.219   2.365
11633TIP3   OH234841   5.199   0.576   2.626
11633TIP3    H134842   5.165   0.545   2.542
11633TIP3    H234843   5.285   0.534   2.634
11634TIP3   OH234844   6.895   3.397   2.484
11634TIP3    H134845   6.938   3.319   2.519
11634TIP3    H234846   6.890   3.382   2.390
11635TIP3   OH234847   3.403   3.399   3.255
11635TIP3    H134848   3.313   3.418   3.229
11635TIP3    H234849   3.394   3.325   3.316
11636TIP3   OH234850   8.008   3.660   4.598
11636TIP3    H134851   8.021   3.684   4.506
11636TIP3    H234852   7.915   3.635   4.602
11637TIP3   OH234853   6.060   2.366   5.929
11637TIP3    H134854   6.092   2.326   5.847
11637TIP3    H234855   6.098   2.454   5.929
11638TIP3   OH234856   4.071   3.499   1.627
11638TIP3    H134857   4.161   3.506   1.658
11638TIP3    H234858   4.017   3.517   1.704
11639TIP3   OH234859   4.433   7.740   5.931
11639TIP3    H134860   4.414   7.650   5.902
11639TIP3    H234861   4.349   7.774   5.960
11640TIP3   OH234862   2.005   7.620   6.223
11640TIP3    H134863   2.012   7.695   6.283
11640TIP3    H234864   2.094   7.586   6.217
11641TIP3   OH234865   5.766   0.494   0.904
11641TIP3    H134866   5.735   0.404   0.893
11641TIP3    H234867   5.771   0.506   0.999
11642TIP3   OH234868   4.065   7.706   5.542
11642TIP3    H134869   4.018   7.654   5.608
11642TIP3    H234870   4.073   7.647   5.467
11643TIP3   OH234871   6.243   7.433   0.320
11643TIP3    H134872   6.221   7.411   0.411
11643TIP3    H234873   6.333   7.463   0.323
11644TIP3   OH234874   0.817   4.435   4.302
11644TIP3    H134875   0.749   4.493   4.337
11644TIP3    H234876   0.778   4.397   4.223
11645TIP3   OH234877   7.765   3.542   4.564
11645TIP3    H134878   7.694   3.581   4.513
11645TIP3    H234879   7.776   3.454   4.526
11646TIP3   OH234880   3.161   2.815   4.472
11646TIP3    H134881   3.108   2.834   4.550
11646TIP3    H234882   3.152   2.721   4.459
11647TIP3   OH234883   7.489   2.764   1.207
11647TIP3    H134884   7.541   2.727   1.136
11647TIP3    H234885   7.544   2.834   1.244
11648TIP3   OH234886   1.997   7.045   2.679
11648TIP3    H134887   2.079   7.054   2.727
11648TIP3    H234888   1.952   6.972   2.722
11649TIP3   OH234889   6.561   1.521   0.155
11649TIP3    H134890   6.506   1.447   0.127
11649TIP3    H234891   6.537   1.536   0.246
11650TIP3   OH234892   3.098   5.436   6.394
11650TIP3    H134893   3.146   5.519   6.388
11650TIP3    H234894   3.040   5.447   6.468
11651TIP3   OH234895   3.985   0.568   5.151
11651TIP3    H134896   3.889   0.568   5.150
11651TIP3    H234897   4.010   0.588   5.061
11652TIP3   OH234898   4.928   3.794   2.779
11652TIP3    H134899   4.902   3.707   2.748
11652TIP3    H234900   5.022   3.799   2.760
11653TIP3   OH234901   2.579   2.456   2.392
11653TIP3    H134902   2.662   2.469   2.437
11653TIP3    H234903   2.603   2.420   2.306
11654TIP3   OH234904   3.171   6.877   5.051
11654TIP3    H134905   3.255   6.916   5.072
11654TIP3    H234906   3.114   6.902   5.124
11655TIP3   OH234907   1.419   7.054   2.049
11655TIP3    H134908   1.361   7.105   1.991
11655TIP3    H234909   1.505   7.060   2.007
11656TIP3   OH234910   5.932   4.610   4.278
11656TIP3    H134911   5.918   4.651   4.363
11656TIP3    H234912   5.965   4.680   4.222
11657TIP3   OH234913   1.880   0.934   0.043
11657TIP3    H134914   1.854   0.985   0.120
11657TIP3    H234915   1.797   0.898   0.010
11658TIP3   OH234916   3.148   3.132   4.122
11658TIP3    H134917   3.171   3.150   4.213
11658TIP3    H234918   3.175   3.041   4.108
11659TIP3   OH234919   1.684   0.815   2.767
11659TIP3    H134920   1.742   0.799   2.841
11659TIP3    H234921   1.741   0.850   2.698
11660TIP3   OH234922   0.626   5.398   5.102
11660TIP3    H134923   0.615   5.330   5.035
11660TIP3    H234924   0.687   5.461   5.062
11661TIP3   OH234925   5.975   7.674   5.656
11661TIP3    H134926   6.011   7.716   5.578
11661TIP3    H234927   5.976   7.742   5.723
11662TIP3   OH234928   3.539   2.658   1.130
11662TIP3    H134929   3.532   2.577   1.180
11662TIP3    H234930   3.512   2.634   1.041
11663TIP3   OH234931   8.023   1.792   3.424
11663TIP3    H134932   7.973   1.862   3.382
11663TIP3    H234933   8.065   1.834   3.499
11664TIP3   OH234934   4.636   7.505   0.856
11664TIP3    H134935   4.695   7.579   0.839
11664TIP3    H234936   4.553   7.546   0.879
11665TIP3   OH234937   0.193   5.925   1.331
11665TIP3    H134938   0.123   5.980   1.366
11665TIP3    H234939   0.174   5.837   1.365
11666TIP3   OH234940   7.059   4.531   0.590
11666TIP3    H134941   7.069   4.493   0.677
11666TIP3    H234942   7.023   4.619   0.606
11667TIP3   OH234943   2.902   0.482   1.571
11667TIP3    H134944   2.973   0.417   1.570
11667TIP3    H234945   2.850   0.460   1.493
11668TIP3   OH234946   3.592   2.065   4.269
11668TIP3    H134947   3.619   1.973   4.279
11668TIP3    H234948   3.585   2.077   4.175
11669TIP3   OH234949   2.757   3.137   0.441
11669TIP3    H134950   2.754   3.111   0.349
11669TIP3    H234951   2.785   3.058   0.487
11670TIP3   OH234952   3.321   0.880   2.069
11670TIP3    H134953   3.265   0.932   2.012
11670TIP3    H234954   3.356   0.943   2.133
11671TIP3   OH234955   3.144   5.731   3.658
11671TIP3    H134956   3.190   5.682   3.591
11671TIP3    H234957   3.132   5.670   3.730
11672TIP3   OH234958   1.699   3.782   2.293
11672TIP3    H134959   1.673   3.792   2.384
11672TIP3    H234960   1.789   3.814   2.290
11673TIP3   OH234961   0.163   4.788   4.363
11673TIP3    H134962   0.079   4.757   4.329
11673TIP3    H234963   0.205   4.829   4.288
11674TIP3   OH234964   2.544   7.460   6.584
11674TIP3    H134965   2.618   7.475   6.525
11674TIP3    H234966   2.538   7.364   6.591
11675TIP3   OH234967   5.898   2.023   0.422
11675TIP3    H134968   5.903   2.011   0.327
11675TIP3    H234969   5.982   2.061   0.446
11676TIP3   OH234970   6.183   2.651   1.975
11676TIP3    H134971   6.268   2.608   1.961
11676TIP3    H234972   6.178   2.718   1.908
11677TIP3   OH234973   1.396   5.279   2.893
11677TIP3    H134974   1.345   5.223   2.835
11677TIP3    H234975   1.452   5.330   2.834
11678TIP3   OH234976   1.931   0.267   3.641
11678TIP3    H134977   1.891   0.180   3.639
11678TIP3    H234978   1.989   0.265   3.717
11679TIP3   OH234979   3.185   5.925   3.010
11679TIP3    H134980   3.156   5.841   2.975
11679TIP3    H234981   3.124   5.943   3.082
11680TIP3   OH234982   2.055   0.983   5.191
11680TIP3    H134983   2.099   1.057   5.233
11680TIP3    H234984   2.126   0.933   5.149
11681TIP3   OH234985   6.986   5.658   1.215
11681TIP3    H134986   7.000   5.635   1.123
11681TIP3    H234987   7.020   5.582   1.264
11682TIP3   OH234988   6.886   7.477   6.631
11682TIP3    H134989   6.966   7.526   6.647
11682TIP3    H234990   6.905   7.388   6.661
11683TIP3   OH234991   2.967   7.150   6.478
11683TIP3    H134992   2.892   7.205   6.503
11683TIP3    H234993   3.043   7.205   6.498
11684TIP3   OH234994   7.068   1.172   3.556
11684TIP3    H134995   7.092   1.181   3.649
11684TIP3    H234996   6.981   1.132   3.558
11685TIP3   OH234997   8.036   2.290   0.236
11685TIP3    H134998   8.090   2.213   0.253
11685TIP3    H234999   7.999   2.274   0.149
11686TIP3   OH235000   7.807   1.459   0.352
11686TIP3    H135001   7.763   1.516   0.289
11686TIP3    H235002   7.894   1.498   0.362
11687TIP3   OH235003   1.499   5.176   0.501
11687TIP3    H135004   1.518   5.171   0.595
11687TIP3    H235005   1.496   5.270   0.482
11688TIP3   OH235006   8.063   3.871   0.905
11688TIP3    H135007   8.130   3.810   0.937
11688TIP3    H235008   7.981   3.821   0.912
11689TIP3   OH235009   7.371   4.832   0.153
11689TIP3    H135010   7.333   4.747   0.130
11689TIP3    H235011   7.463   4.812   0.173
11690TIP3   OH235012   0.825   3.873   4.561
11690TIP3    H135013   0.742   3.870   4.609
11690TIP3    H235014   0.802   3.910   4.476
11691TIP3   OH235015   8.271   0.320   4.608
11691TIP3    H135016   8.314   0.238   4.583
11691TIP3    H235017   8.341   0.385   4.608
11692TIP3   OH235018   4.317   1.708   5.876
11692TIP3    H135019   4.247   1.652   5.844
11692TIP3    H235020   4.357   1.657   5.947
11693TIP3   OH235021   7.564   3.746   4.690
11693TIP3    H135022   7.503   3.689   4.644
11693TIP3    H235023   7.599   3.804   4.621
11694TIP3   OH235024   6.338   2.371   4.870
11694TIP3    H135025   6.368   2.450   4.824
11694TIP3    H235026   6.334   2.397   4.962
11695TIP3   OH235027   0.402   0.465   0.388
11695TIP3    H135028   0.360   0.537   0.436
11695TIP3    H235029   0.496   0.486   0.392
11696TIP3   OH235030   6.037   1.165   4.256
11696TIP3    H135031   5.986   1.244   4.238
11696TIP3    H235032   6.098   1.191   4.326
11697TIP3   OH235033   1.593   2.313  -0.019
11697TIP3    H135034   1.555   2.225  -0.016
11697TIP3    H235035   1.520   2.370  -0.044
11698TIP3   OH235036   5.026   0.726   0.498
11698TIP3    H135037   5.101   0.749   0.554
11698TIP3    H235038   4.949   0.739   0.554
11699TIP3   OH235039   1.759   2.427   4.668
11699TIP3    H135040   1.701   2.388   4.733
11699TIP3    H235041   1.836   2.371   4.668
11700TIP3   OH235042   5.609   3.742   4.160
11700TIP3    H135043   5.539   3.769   4.219
11700TIP3    H235044   5.575   3.666   4.114
11701TIP3   OH235045   4.350   7.591   0.850
11701TIP3    H135046   4.296   7.662   0.816
11701TIP3    H235047   4.330   7.517   0.794
11702TIP3   OH235048   1.503   3.294   3.127
11702TIP3    H135049   1.515   3.212   3.080
11702TIP3    H235050   1.460   3.352   3.064
11703TIP3   OH235051   0.235   0.328   5.991
11703TIP3    H135052   0.158   0.312   6.045
11703TIP3    H235053   0.202   0.374   5.914
11704TIP3   OH235054   3.777   3.385   6.011
11704TIP3    H135055   3.828   3.306   6.023
11704TIP3    H235056   3.692   3.354   5.977
11705TIP3   OH235057   7.841   4.321   3.822
11705TIP3    H135058   7.837   4.381   3.897
11705TIP3    H235059   7.915   4.264   3.841
11706TIP3   OH235060   3.294   3.055   4.590
11706TIP3    H135061   3.376   3.039   4.637
11706TIP3    H235062   3.293   2.989   4.521
11707TIP3   OH235063   3.155   6.242   5.382
11707TIP3    H135064   3.083   6.236   5.319
11707TIP3    H235065   3.145   6.165   5.438
11708TIP3   OH235066   3.212   5.678   1.068
11708TIP3    H135067   3.260   5.713   0.993
11708TIP3    H235068   3.159   5.750   1.099
11709TIP3   OH235069   2.830   4.331   4.857
11709TIP3    H135070   2.871   4.349   4.772
11709TIP3    H235071   2.899   4.347   4.921
11710TIP3   OH235072   2.550   3.113   4.900
11710TIP3    H135073   2.615   3.069   4.846
11710TIP3    H235074   2.483   3.047   4.917
11711TIP3   OH235075   7.076   5.386   0.271
11711TIP3    H135076   7.068   5.290   0.277
11711TIP3    H235077   7.017   5.411   0.200
11712TIP3   OH235078   6.343   6.319   6.635
11712TIP3    H135079   6.392   6.377   6.577
11712TIP3    H235080   6.317   6.375   6.709
11713TIP3   OH235081   7.955   2.961   2.720
11713TIP3    H135082   7.966   2.872   2.754
11713TIP3    H235083   8.042   3.000   2.724
11714TIP3   OH235084   5.661   4.323   4.594
11714TIP3    H135085   5.671   4.230   4.617
11714TIP3    H235086   5.712   4.334   4.514
11715TIP3   OH235087   1.761   6.897   2.303
11715TIP3    H135088   1.721   6.811   2.297
11715TIP3    H235089   1.853   6.882   2.278
11716TIP3   OH235090   4.318   4.300   3.261
11716TIP3    H135091   4.261   4.363   3.305
11716TIP3    H235092   4.407   4.325   3.288
11717TIP3   OH235093   4.929   2.021   0.853
11717TIP3    H135094   4.954   1.931   0.876
11717TIP3    H235095   5.011   2.071   0.861
11718TIP3   OH235096   4.957   7.311   6.520
11718TIP3    H135097   4.995   7.393   6.491
11718TIP3    H235098   4.864   7.330   6.531
11719TIP3   OH235099   1.326   3.315   2.021
11719TIP3    H135100   1.364   3.227   2.021
11719TIP3    H235101   1.233   3.300   2.005
11720TIP3   OH235102   3.891   4.809   2.685
11720TIP3    H135103   3.979   4.843   2.699
11720TIP3    H235104   3.875   4.824   2.592
11721TIP3   OH235105   5.985   3.065   6.316
11721TIP3    H135106   6.029   3.073   6.232
11721TIP3    H235107   5.936   3.148   6.325
11722TIP3   OH235108   5.360   5.697   6.135
11722TIP3    H135109   5.454   5.700   6.117
11722TIP3    H235110   5.337   5.788   6.152
11723TIP3   OH235111   5.896   3.427   5.227
11723TIP3    H135112   5.852   3.372   5.292
11723TIP3    H235113   5.825   3.459   5.170
11724TIP3   OH235114   5.223   5.887   6.535
11724TIP3    H135115   5.206   5.800   6.497
11724TIP3    H235116   5.277   5.869   6.611
11725TIP3   OH235117   2.212   0.797   1.893
11725TIP3    H135118   2.278   0.821   1.828
11725TIP3    H235119   2.153   0.737   1.847
11726TIP3   OH235120   2.264   7.308   0.359
11726TIP3    H135121   2.177   7.270   0.366
11726TIP3    H235122   2.321   7.249   0.408
11727TIP3   OH235123   4.528   0.659   1.551
11727TIP3    H135124   4.535   0.613   1.634
11727TIP3    H235125   4.609   0.637   1.504
11728TIP3   OH235126   3.172   3.919   0.715
11728TIP3    H135127   3.229   3.921   0.638
11728TIP3    H235128   3.138   3.830   0.717
11729TIP3   OH235129   6.462   6.078   1.357
11729TIP3    H135130   6.458   6.111   1.446
11729TIP3    H235131   6.389   6.121   1.312
11730TIP3   OH235132   2.814   4.242   4.360
11730TIP3    H135133   2.774   4.278   4.281
11730TIP3    H235134   2.753   4.174   4.388
11731TIP3   OH235135   8.173   5.900   3.497
11731TIP3    H135136   8.254   5.937   3.531
11731TIP3    H235137   8.201   5.827   3.442
11732TIP3   OH235138   0.768   2.691   4.466
11732TIP3    H135139   0.724   2.716   4.385
11732TIP3    H235140   0.746   2.760   4.528
11733TIP3   OH235141   2.928   3.179   3.664
11733TIP3    H135142   2.857   3.177   3.728
11733TIP3    H235143   2.913   3.259   3.614
11734TIP3   OH235144   4.196   2.662   5.500
11734TIP3    H135145   4.122   2.701   5.548
11734TIP3    H235146   4.208   2.576   5.541
11735TIP3   OH235147   2.786   7.143   1.024
11735TIP3    H135148   2.784   7.131   1.119
11735TIP3    H235149   2.743   7.066   0.988
11736TIP3   OH235150   0.906   0.909   1.474
11736TIP3    H135151   0.887   0.816   1.459
11736TIP3    H235152   0.831   0.955   1.437
11737TIP3   OH235153   2.841   1.050   4.698
11737TIP3    H135154   2.785   1.041   4.620
11737TIP3    H235155   2.828   0.968   4.746
11738TIP3   OH235156   4.899   6.603   6.085
11738TIP3    H135157   4.975   6.545   6.078
11738TIP3    H235158   4.908   6.665   6.013
11739TIP3   OH235159   7.392   6.174   5.278
11739TIP3    H135160   7.367   6.244   5.218
11739TIP3    H235161   7.396   6.216   5.363
11740TIP3   OH235162   8.093   6.784   4.413
11740TIP3    H135163   8.050   6.747   4.336
11740TIP3    H235164   8.172   6.826   4.379
11741TIP3   OH235165   6.984   2.435   3.504
11741TIP3    H135166   6.936   2.483   3.436
11741TIP3    H235167   6.995   2.347   3.468
11742TIP3   OH235168   3.109   5.895   0.389
11742TIP3    H135169   3.117   5.942   0.472
11742TIP3    H235170   3.083   5.807   0.414
11743TIP3   OH235171   7.607   7.151   6.142
11743TIP3    H135172   7.570   7.088   6.204
11743TIP3    H235173   7.565   7.129   6.058
11744TIP3   OH235174   0.511   6.195   6.393
11744TIP3    H135175   0.578   6.158   6.451
11744TIP3    H235176   0.505   6.133   6.320
11745TIP3   OH235177   2.469   6.174   3.580
11745TIP3    H135178   2.521   6.156   3.658
11745TIP3    H235179   2.476   6.094   3.527
11746TIP3   OH235180   6.911   7.718   4.499
11746TIP3    H135181   6.985   7.734   4.558
11746TIP3    H235182   6.834   7.740   4.551
11747TIP3   OH235183   1.222   3.631   0.864
11747TIP3    H135184   1.208   3.723   0.884
11747TIP3    H235185   1.191   3.621   0.774
11748TIP3   OH235186   6.446   4.592   2.679
11748TIP3    H135187   6.540   4.600   2.664
11748TIP3    H235188   6.431   4.497   2.686
11749TIP3   OH235189   1.125   1.141   0.260
11749TIP3    H135190   1.134   1.235   0.249
11749TIP3    H235191   1.102   1.108   0.174
11750TIP3   OH235192   5.338   3.048   4.951
11750TIP3    H135193   5.276   2.992   4.905
11750TIP3    H235194   5.293   3.074   5.031
11751TIP3   OH235195   1.095   3.671   1.134
11751TIP3    H135196   1.159   3.734   1.101
11751TIP3    H235197   1.010   3.714   1.120
11752TIP3   OH235198   2.780   2.028   0.195
11752TIP3    H135199   2.789   2.119   0.223
11752TIP3    H235200   2.770   1.979   0.276
11753TIP3   OH235201   1.680   3.652   4.796
11753TIP3    H135202   1.696   3.711   4.723
11753TIP3    H235203   1.689   3.564   4.758
11754TIP3   OH235204   2.788   7.860   4.122
11754TIP3    H135205   2.735   7.819   4.054
11754TIP3    H235206   2.779   7.803   4.198
11755TIP3   OH235207   2.217   5.972   4.921
11755TIP3    H135208   2.228   5.877   4.917
11755TIP3    H235209   2.293   6.003   4.970
11756TIP3   OH235210   7.255   5.577   1.597
11756TIP3    H135211   7.214   5.523   1.665
11756TIP3    H235212   7.241   5.667   1.627
11757TIP3   OH235213   3.429   3.976   1.715
11757TIP3    H135214   3.468   4.032   1.647
11757TIP3    H235215   3.377   4.036   1.769
11758TIP3   OH235216   6.177   0.018   3.586
11758TIP3    H135217   6.108  -0.047   3.576
11758TIP3    H235218   6.251  -0.019   3.539
11759TIP3   OH235219   2.889   4.205   1.980
11759TIP3    H135220   2.890   4.111   1.998
11759TIP3    H235221   2.926   4.245   2.059
11760TIP3   OH235222   7.777   5.627   2.314
11760TIP3    H135223   7.713   5.557   2.303
11760TIP3    H235224   7.862   5.583   2.313
11761TIP3   OH235225   5.909   0.145   4.794
11761TIP3    H135226   5.978   0.105   4.846
11761TIP3    H235227   5.840   0.166   4.857
11762TIP3   OH235228   5.401   6.738   0.201
11762TIP3    H135229   5.452   6.709   0.125
11762TIP3    H235230   5.384   6.658   0.251
11763TIP3   OH235231   2.862   5.167   4.897
11763TIP3    H135232   2.887   5.144   4.987
11763TIP3    H235233   2.937   5.141   4.844
11764TIP3   OH235234   6.585   3.588   3.156
11764TIP3    H135235   6.534   3.620   3.230
11764TIP3    H235236   6.557   3.642   3.082
11765TIP3   OH235237   7.565   2.682   0.285
11765TIP3    H135238   7.551   2.638   0.369
11765TIP3    H235239   7.633   2.747   0.303
11766TIP3   OH235240   2.761   7.526   6.463
11766TIP3    H135241   2.773   7.568   6.548
11766TIP3    H235242   2.823   7.571   6.405
11767TIP3   OH235243   6.901   7.661   5.261
11767TIP3    H135244   6.918   7.660   5.167
11767TIP3    H235245   6.969   7.717   5.298
11768TIP3   OH235246   4.838   6.772   5.857
11768TIP3    H135247   4.874   6.855   5.888
11768TIP3    H235248   4.843   6.778   5.762
11769TIP3   OH235249   7.222   0.064   1.677
11769TIP3    H135250   7.289   0.117   1.718
11769TIP3    H235251   7.177   0.021   1.750
11770TIP3   OH235252   7.920   2.745   6.504
11770TIP3    H135253   7.965   2.782   6.580
11770TIP3    H235254   7.841   2.706   6.541
11771TIP3   OH235255   2.072   0.320   5.117
11771TIP3    H135256   2.126   0.293   5.191
11771TIP3    H235257   1.996   0.363   5.157
11772TIP3   OH235258   2.289   5.274   5.160
11772TIP3    H135259   2.247   5.287   5.245
11772TIP3    H235260   2.361   5.338   5.159
11773TIP3   OH235261   4.832   3.149   6.746
11773TIP3    H135262   4.784   3.112   6.820
11773TIP3    H235263   4.818   3.087   6.675
11774TIP3   OH235264   6.289   1.372   4.409
11774TIP3    H135265   6.285   1.457   4.453
11774TIP3    H235266   6.228   1.317   4.458
11775TIP3   OH235267   0.328   3.108   4.057
11775TIP3    H135268   0.305   3.149   4.139
11775TIP3    H235269   0.418   3.078   4.069
11776TIP3   OH235270   0.713   6.457   2.052
11776TIP3    H135271   0.752   6.488   2.134
11776TIP3    H235272   0.638   6.514   2.038
11777TIP3   OH235273   5.524   6.576   0.421
11777TIP3    H135274   5.560   6.490   0.400
11777TIP3    H235275   5.446   6.557   0.473
11778TIP3   OH235276   5.711   0.763   0.854
11778TIP3    H135277   5.763   0.689   0.885
11778TIP3    H235278   5.753   0.789   0.772
11779TIP3   OH235279   2.170   3.326   4.935
11779TIP3    H135280   2.178   3.272   4.857
11779TIP3    H235281   2.142   3.411   4.903
11780TIP3   OH235282   2.988   2.571   4.784
11780TIP3    H135283   3.065   2.518   4.803
11780TIP3    H235284   3.015   2.661   4.806
11781TIP3   OH235285   5.269   2.494   0.249
11781TIP3    H135286   5.297   2.467   0.337
11781TIP3    H235287   5.257   2.412   0.201
11782TIP3   OH235288   3.677   3.416   3.219
11782TIP3    H135289   3.585   3.422   3.247
11782TIP3    H235290   3.710   3.337   3.262
11783TIP3   OH235291   4.521   6.414   1.784
11783TIP3    H135292   4.537   6.408   1.690
11783TIP3    H235293   4.608   6.403   1.824
11784TIP3   OH235294   4.731   0.480   2.606
11784TIP3    H135295   4.785   0.547   2.650
11784TIP3    H235296   4.770   0.397   2.632
11785TIP3   OH235297   7.366   5.096   0.941
11785TIP3    H135298   7.309   5.023   0.915
11785TIP3    H235299   7.421   5.112   0.864
11786TIP3   OH235300   2.077   3.992   6.179
11786TIP3    H135301   2.161   4.038   6.176
11786TIP3    H235302   2.090   3.917   6.121
11787TIP3   OH235303   7.946   4.479   1.673
11787TIP3    H135304   8.011   4.427   1.625
11787TIP3    H235305   7.989   4.564   1.685
11788TIP3   OH235306   2.013   7.135   0.336
11788TIP3    H135307   1.917   7.144   0.337
11788TIP3    H235308   2.037   7.123   0.428
11789TIP3   OH235309   3.645   5.588   0.605
11789TIP3    H135310   3.640   5.638   0.686
11789TIP3    H235311   3.643   5.496   0.632
11790TIP3   OH235312   5.618   5.236   1.424
11790TIP3    H135313   5.683   5.177   1.460
11790TIP3    H235314   5.669   5.308   1.386
11791TIP3   OH235315   1.652   5.669   2.642
11791TIP3    H135316   1.718   5.712   2.696
11791TIP3    H235317   1.694   5.657   2.557
11792TIP3   OH235318   0.647   1.350   1.480
11792TIP3    H135319   0.600   1.419   1.435
11792TIP3    H235320   0.626   1.363   1.572
11793TIP3   OH235321   8.018   2.001   1.198
11793TIP3    H135322   7.949   2.033   1.257
11793TIP3    H235323   8.098   2.043   1.230
11794TIP3   OH235324   4.475   1.713   6.793
11794TIP3    H135325   4.418   1.636   6.793
11794TIP3    H235326   4.415   1.786   6.781
11795TIP3   OH235327   7.394   6.505   0.549
11795TIP3    H135328   7.380   6.564   0.622
11795TIP3    H235329   7.329   6.531   0.484
11796TIP3   OH235330   1.627   6.490   5.067
11796TIP3    H135331   1.672   6.505   5.150
11796TIP3    H235332   1.655   6.403   5.040
11797TIP3   OH235333   5.038   5.965   4.561
11797TIP3    H135334   4.980   6.023   4.512
11797TIP3    H235335   5.029   5.994   4.652
11798TIP3   OH235336   4.584   6.494   1.512
11798TIP3    H135337   4.656   6.500   1.450
11798TIP3    H235338   4.540   6.579   1.505
11799TIP3   OH235339   2.249   6.918   0.125
11799TIP3    H135340   2.334   6.881   0.103
11799TIP3    H235341   2.223   6.873   0.205
11800TIP3   OH235342   0.418   6.498   0.143
11800TIP3    H135343   0.389   6.410   0.120
11800TIP3    H235344   0.337   6.546   0.161
11801TIP3   OH235345   3.222   4.196   5.930
11801TIP3    H135346   3.236   4.116   5.981
11801TIP3    H235347   3.138   4.181   5.886
11802TIP3   OH235348   7.196   0.454   0.822
11802TIP3    H135349   7.233   0.523   0.876
11802TIP3    H235350   7.201   0.488   0.732
11803TIP3   OH235351   0.282   1.866   4.568
11803TIP3    H135352   0.340   1.938   4.597
11803TIP3    H235353   0.250   1.828   4.650
11804TIP3   OH235354   5.696   5.333   5.638
11804TIP3    H135355   5.739   5.303   5.558
11804TIP3    H235356   5.687   5.254   5.692
11805TIP3   OH235357   4.395   0.278   6.450
11805TIP3    H135358   4.443   0.231   6.382
11805TIP3    H235359   4.422   0.236   6.532
11806TIP3   OH235360   5.422   4.993   0.401
11806TIP3    H135361   5.448   4.913   0.447
11806TIP3    H235362   5.482   5.060   0.435
11807TIP3   OH235363   5.570   2.943   5.059
11807TIP3    H135364   5.493   2.995   5.036
11807TIP3    H235365   5.542   2.852   5.046
11808TIP3   OH235366   7.989   7.279   4.486
11808TIP3    H135367   7.928   7.335   4.437
11808TIP3    H235368   7.935   7.207   4.519
11809TIP3   OH235369   7.087   2.254   1.970
11809TIP3    H135370   7.098   2.262   1.875
11809TIP3    H235371   7.007   2.303   1.989
11810TIP3   OH235372   5.462   5.509   5.601
11810TIP3    H135373   5.535   5.447   5.593
11810TIP3    H235374   5.431   5.498   5.691
11811TIP3   OH235375   4.335   2.563   6.201
11811TIP3    H135376   4.409   2.624   6.192
11811TIP3    H235377   4.374   2.477   6.185
11812TIP3   OH235378   5.245   2.103   1.893
11812TIP3    H135379   5.318   2.157   1.923
11812TIP3    H235380   5.230   2.130   1.803
11813TIP3   OH235381   5.435   7.654   4.225
11813TIP3    H135382   5.492   7.600   4.280
11813TIP3    H235383   5.443   7.617   4.137
11814TIP3   OH235384   1.768   3.178   1.662
11814TIP3    H135385   1.808   3.101   1.702
11814TIP3    H235386   1.752   3.151   1.571
11815TIP3   OH235387   8.041   4.452   0.908
11815TIP3    H135388   7.978   4.428   0.977
11815TIP3    H235389   8.100   4.514   0.951
11816TIP3   OH235390   1.772   1.839   1.286
11816TIP3    H135391   1.851   1.787   1.278
11816TIP3    H235392   1.701   1.778   1.267
11817TIP3   OH235393   2.326   7.562   3.301
11817TIP3    H135394   2.422   7.554   3.300
11817TIP3    H235395   2.304   7.573   3.393
11818TIP3   OH235396   2.619   1.164   5.412
11818TIP3    H135397   2.710   1.179   5.436
11818TIP3    H235398   2.616   1.072   5.387
11819TIP3   OH235399   6.539   0.020   3.405
11819TIP3    H135400   6.595  -0.010   3.333
11819TIP3    H235401   6.469  -0.045   3.410
11820TIP3   OH235402   5.624   4.612   2.111
11820TIP3    H135403   5.571   4.591   2.188
11820TIP3    H235404   5.684   4.538   2.102
11821TIP3   OH235405   4.816   6.553   4.095
11821TIP3    H135406   4.883   6.591   4.037
11821TIP3    H235407   4.804   6.464   4.062
11822TIP3   OH235408   4.961   7.083   6.251
11822TIP3    H135409   5.007   7.166   6.240
11822TIP3    H235410   5.009   7.039   6.322
11823TIP3   OH235411   4.393   2.575   0.458
11823TIP3    H135412   4.326   2.591   0.524
11823TIP3    H235413   4.394   2.480   0.447
11824TIP3   OH235414   2.946   5.014   0.211
11824TIP3    H135415   2.940   5.067   0.131
11824TIP3    H235416   2.855   4.996   0.233
11825TIP3   OH235417   0.274   2.772   3.837
11825TIP3    H135418   0.329   2.757   3.760
11825TIP3    H235419   0.335   2.770   3.911
11826TIP3   OH235420   4.765   7.474   1.858
11826TIP3    H135421   4.860   7.464   1.871
11826TIP3    H235422   4.729   7.388   1.880
11827TIP3   OH235423   0.327   3.777   3.234
11827TIP3    H135424   0.339   3.688   3.201
11827TIP3    H235425   0.363   3.775   3.323
11828TIP3   OH235426   1.281   6.455   4.853
11828TIP3    H135427   1.332   6.452   4.771
11828TIP3    H235428   1.317   6.384   4.906
11829TIP3   OH235429   8.072   3.235   3.332
11829TIP3    H135430   8.110   3.317   3.363
11829TIP3    H235431   8.084   3.237   3.237
11830TIP3   OH235432   4.469   7.325   2.788
11830TIP3    H135433   4.489   7.251   2.729
11830TIP3    H235434   4.405   7.289   2.850
11831TIP3   OH235435   7.810   7.474   6.582
11831TIP3    H135436   7.772   7.506   6.500
11831TIP3    H235437   7.860   7.396   6.556
11832TIP3   OH235438   7.398   6.378   1.764
11832TIP3    H135439   7.390   6.415   1.677
11832TIP3    H235440   7.425   6.287   1.749
11833TIP3   OH235441   1.063   7.571   5.603
11833TIP3    H135442   1.061   7.510   5.528
11833TIP3    H235443   1.067   7.514   5.680
11834TIP3   OH235444   4.174   0.983   0.686
11834TIP3    H135445   4.201   0.938   0.606
11834TIP3    H235446   4.187   1.076   0.667
11835TIP3   OH235447   3.014   2.168   3.890
11835TIP3    H135448   2.935   2.165   3.944
11835TIP3    H235449   2.989   2.126   3.808
11836TIP3   OH235450   7.741   4.759   3.982
11836TIP3    H135451   7.695   4.683   4.019
11836TIP3    H235452   7.833   4.742   4.000
11837TIP3   OH235453   7.370   0.175   2.103
11837TIP3    H135454   7.340   0.133   2.184
11837TIP3    H235455   7.466   0.172   2.110
11838TIP3   OH235456   4.927   6.785   1.863
11838TIP3    H135457   4.865   6.798   1.791
11838TIP3    H235458   4.991   6.723   1.828
11839TIP3   OH235459   2.761   2.012   1.887
11839TIP3    H135460   2.723   2.074   1.824
11839TIP3    H235461   2.748   2.054   1.972
11840TIP3   OH235462   7.134   6.587   3.800
11840TIP3    H135463   7.041   6.591   3.820
11840TIP3    H235464   7.175   6.559   3.883
11841TIP3   OH235465   6.209   4.962   5.075
11841TIP3    H135466   6.137   4.904   5.099
11841TIP3    H235467   6.222   5.017   5.152
11842TIP3   OH235468   6.293   1.880   2.572
11842TIP3    H135469   6.379   1.837   2.576
11842TIP3    H235470   6.313   1.973   2.572
11843TIP3   OH235471   7.055   7.716   4.088
11843TIP3    H135472   7.129   7.766   4.052
11843TIP3    H235473   6.991   7.782   4.113
11844TIP3   OH235474   0.786   2.875   5.954
11844TIP3    H135475   0.741   2.952   5.918
11844TIP3    H235476   0.762   2.803   5.896
11845TIP3   OH235477   4.250   0.470   1.916
11845TIP3    H135478   4.286   0.394   1.963
11845TIP3    H235479   4.260   0.543   1.977
11846TIP3   OH235480   4.089   2.774   3.181
11846TIP3    H135481   4.074   2.682   3.204
11846TIP3    H235482   4.062   2.823   3.258
11847TIP3   OH235483   5.891   6.893   0.307
11847TIP3    H135484   5.894   6.800   0.328
11847TIP3    H235485   5.802   6.908   0.273
11848TIP3   OH235486   3.735   1.389   1.111
11848TIP3    H135487   3.698   1.330   1.046
11848TIP3    H235488   3.712   1.349   1.195
11849TIP3   OH235489   6.613   5.576   0.216
11849TIP3    H135490   6.667   5.518   0.161
11849TIP3    H235491   6.524   5.540   0.208
11850TIP3   OH235492   6.724   1.819   3.409
11850TIP3    H135493   6.658   1.750   3.402
11850TIP3    H235494   6.701   1.866   3.489
11851TIP3   OH235495   0.981   3.852   6.052
11851TIP3    H135496   0.895   3.811   6.065
11851TIP3    H235497   0.974   3.896   5.967
11852TIP3   OH235498   4.829   2.935   3.002
11852TIP3    H135499   4.781   2.887   2.934
11852TIP3    H235500   4.764   2.994   3.040
11853TIP3   OH235501   6.455   7.726   0.817
11853TIP3    H135502   6.366   7.757   0.799
11853TIP3    H235503   6.446   7.673   0.896
11854TIP3   OH235504   3.334   4.396   4.496
11854TIP3    H135505   3.395   4.402   4.569
11854TIP3    H235506   3.266   4.462   4.516
11855TIP3   OH235507   7.263   3.708   1.541
11855TIP3    H135508   7.192   3.690   1.602
11855TIP3    H235509   7.260   3.636   1.478
11856TIP3   OH235510   3.233   3.236   1.610
11856TIP3    H135511   3.283   3.307   1.648
11856TIP3    H235512   3.289   3.159   1.618
11857TIP3   OH235513   1.319   2.368   5.796
11857TIP3    H135514   1.392   2.424   5.821
11857TIP3    H235515   1.341   2.339   5.707
11858TIP3   OH235516   8.208   7.656   5.640
11858TIP3    H135517   8.302   7.645   5.647
11858TIP3    H235518   8.189   7.737   5.689
11859TIP3   OH235519   6.363   0.752   5.301
11859TIP3    H135520   6.432   0.738   5.365
11859TIP3    H235521   6.338   0.665   5.272
11860TIP3   OH235522   6.307   1.015   0.704
11860TIP3    H135523   6.348   1.096   0.736
11860TIP3    H235524   6.273   1.038   0.618
11861TIP3   OH235525   2.767   2.389   4.993
11861TIP3    H135526   2.722   2.426   4.917
11861TIP3    H235527   2.834   2.332   4.955
11862TIP3   OH235528   3.233   3.501   4.583
11862TIP3    H135529   3.306   3.469   4.637
11862TIP3    H235530   3.229   3.595   4.603
11863TIP3   OH235531   3.690   2.324   2.958
11863TIP3    H135532   3.720   2.406   2.919
11863TIP3    H235533   3.767   2.266   2.954
11864TIP3   OH235534   5.532   7.186   0.678
11864TIP3    H135535   5.606   7.161   0.623
11864TIP3    H235536   5.566   7.182   0.767
11865TIP3   OH235537   1.151   7.757   2.780
11865TIP3    H135538   1.211   7.689   2.750
11865TIP3    H235539   1.168   7.831   2.721
11866TIP3   OH235540   0.427   2.258   1.009
11866TIP3    H135541   0.506   2.310   1.019
11866TIP3    H235542   0.459   2.168   0.999
11867TIP3   OH235543   5.190   5.577   1.472
11867TIP3    H135544   5.107   5.566   1.517
11867TIP3    H235545   5.237   5.495   1.488
11868TIP3   OH235546   3.031   0.231   5.041
11868TIP3    H135547   3.077   0.314   5.044
11868TIP3    H235548   3.090   0.169   5.084
11869TIP3   OH235549   6.332   4.069   3.761
11869TIP3    H135550   6.415   4.061   3.714
11869TIP3    H235551   6.285   4.139   3.716
11870TIP3   OH235552   3.983   4.718   4.343
11870TIP3    H135553   3.938   4.792   4.303
11870TIP3    H235554   3.913   4.654   4.360
11871TIP3   OH235555   0.072   5.529   3.158
11871TIP3    H135556   0.041   5.546   3.069
11871TIP3    H235557   0.162   5.500   3.148
11872TIP3   OH235558   2.863   5.889   4.529
11872TIP3    H135559   2.861   5.850   4.442
11872TIP3    H235560   2.790   5.847   4.575
11873TIP3   OH235561   5.137   0.615   3.842
11873TIP3    H135562   5.097   0.694   3.805
11873TIP3    H235563   5.211   0.647   3.894
11874TIP3   OH235564   4.228   3.143   2.815
11874TIP3    H135565   4.178   3.070   2.780
11874TIP3    H235566   4.316   3.107   2.830
11875TIP3   OH235567   0.834   6.058   0.795
11875TIP3    H135568   0.789   6.048   0.711
11875TIP3    H235569   0.868   5.971   0.814
11876TIP3   OH235570   6.977   3.750   4.909
11876TIP3    H135571   7.058   3.786   4.872
11876TIP3    H235572   6.909   3.774   4.846
11877TIP3   OH235573   5.611   5.156   0.564
11877TIP3    H135574   5.576   5.225   0.619
11877TIP3    H235575   5.640   5.089   0.626
11878TIP3   OH235576   6.782   5.352   3.804
11878TIP3    H135577   6.777   5.385   3.714
11878TIP3    H235578   6.691   5.348   3.833
11879TIP3   OH235579   1.993   2.567   5.171
11879TIP3    H135580   2.024   2.626   5.102
11879TIP3    H235581   1.901   2.550   5.147
11880TIP3   OH235582   2.347   1.995   1.244
11880TIP3    H135583   2.333   1.985   1.150
11880TIP3    H235584   2.311   2.082   1.265
11881TIP3   OH235585   2.464   5.431   0.729
11881TIP3    H135586   2.521   5.365   0.691
11881TIP3    H235587   2.523   5.489   0.777
11882TIP3   OH235588   4.029   2.801   5.701
11882TIP3    H135589   4.029   2.830   5.792
11882TIP3    H235590   3.938   2.805   5.674
11883TIP3   OH235591   2.865   7.205   3.359
11883TIP3    H135592   2.784   7.173   3.319
11883TIP3    H235593   2.901   7.266   3.296
11884TIP3   OH235594   2.270   1.197   1.756
11884TIP3    H135595   2.211   1.182   1.830
11884TIP3    H235596   2.327   1.267   1.785
11885TIP3   OH235597   0.512  -0.001   4.096
11885TIP3    H135598   0.496   0.010   4.190
11885TIP3    H235599   0.506   0.087   4.060
11886TIP3   OH235600   6.270   4.520   1.424
11886TIP3    H135601   6.261   4.531   1.519
11886TIP3    H235602   6.315   4.436   1.414
11887TIP3   OH235603   3.514   0.211   4.120
11887TIP3    H135604   3.462   0.282   4.083
11887TIP3    H235605   3.589   0.256   4.161
11888TIP3   OH235606   1.095   2.314   0.867
11888TIP3    H135607   1.134   2.251   0.928
11888TIP3    H235608   1.047   2.375   0.923
11889TIP3   OH235609   8.093   1.051   4.578
11889TIP3    H135610   8.097   1.095   4.493
11889TIP3    H235611   8.045   0.970   4.561
11890TIP3   OH235612   4.659   7.728   5.764
11890TIP3    H135613   4.640   7.711   5.672
11890TIP3    H235614   4.577   7.760   5.800
11891TIP3   OH235615   1.213   2.654   3.637
11891TIP3    H135616   1.213   2.707   3.557
11891TIP3    H235617   1.161   2.577   3.614
11892TIP3   OH235618   3.522   7.080   4.684
11892TIP3    H135619   3.532   7.169   4.717
11892TIP3    H235620   3.444   7.083   4.628
11893TIP3   OH235621   2.227   4.351   6.585
11893TIP3    H135622   2.267   4.437   6.574
11893TIP3    H235623   2.193   4.352   6.674
11894TIP3   OH235624   3.160   7.280   4.211
11894TIP3    H135625   3.078   7.320   4.180
11894TIP3    H235626   3.159   7.295   4.305
11895TIP3   OH235627   8.129   0.863   6.011
11895TIP3    H135628   8.130   0.831   5.921
11895TIP3    H235629   8.062   0.810   6.055
11896TIP3   OH235630   7.393   5.491   6.132
11896TIP3    H135631   7.395   5.406   6.087
11896TIP3    H235632   7.466   5.540   6.094
11897TIP3   OH235633   2.138   5.238   4.416
11897TIP3    H135634   2.219   5.287   4.435
11897TIP3    H235635   2.154   5.150   4.449
11898TIP3   OH235636   3.055   5.741   2.171
11898TIP3    H135637   3.093   5.816   2.126
11898TIP3    H235638   2.975   5.721   2.123
11899TIP3   OH235639   6.847   5.302   0.745
11899TIP3    H135640   6.906   5.280   0.673
11899TIP3    H235641   6.770   5.341   0.702
11900TIP3   OH235642   4.264   3.528   3.613
11900TIP3    H135643   4.256   3.623   3.624
11900TIP3    H235644   4.254   3.514   3.519
11901TIP3   OH235645   6.647   2.537   3.214
11901TIP3    H135646   6.563   2.582   3.205
11901TIP3    H235647   6.628   2.460   3.267
11902TIP3   OH235648   6.363   4.712   3.161
11902TIP3    H135649   6.350   4.627   3.118
11902TIP3    H235650   6.402   4.766   3.092
11903TIP3   OH235651   6.292   1.776   5.766
11903TIP3    H135652   6.256   1.729   5.840
11903TIP3    H235653   6.244   1.743   5.690
11904TIP3   OH235654   1.677   5.011   5.506
11904TIP3    H135655   1.607   5.032   5.569
11904TIP3    H235656   1.736   5.087   5.509
11905TIP3   OH235657   0.665   6.378   4.776
11905TIP3    H135658   0.598   6.406   4.839
11905TIP3    H235659   0.746   6.418   4.808
11906TIP3   OH235660   1.119   2.778   1.472
11906TIP3    H135661   1.043   2.730   1.505
11906TIP3    H235662   1.113   2.767   1.377
11907TIP3   OH235663   5.791   6.472   4.215
11907TIP3    H135664   5.799   6.395   4.158
11907TIP3    H235665   5.876   6.515   4.210
11908TIP3   OH235666   5.699   5.816   6.700
11908TIP3    H135667   5.669   5.905   6.718
11908TIP3    H235668   5.635   5.760   6.745
11909TIP3   OH235669   2.552   6.065   0.885
11909TIP3    H135670   2.600   6.145   0.906
11909TIP3    H235671   2.462   6.094   0.870
11910TIP3   OH235672   5.750   3.034   5.255
11910TIP3    H135673   5.766   2.946   5.289
11910TIP3    H235674   5.688   3.021   5.183
11911TIP3   OH235675   3.564   7.633   5.950
11911TIP3    H135676   3.532   7.605   5.864
11911TIP3    H235677   3.621   7.707   5.931
11912TIP3   OH235678   1.054   5.970   3.116
11912TIP3    H135679   1.089   5.898   3.168
11912TIP3    H235680   1.128   6.029   3.105
11913TIP3   OH235681   4.160   2.138   2.856
11913TIP3    H135682   4.067   2.153   2.872
11913TIP3    H235683   4.174   2.046   2.878
11914TIP3   OH235684   7.533   1.182   2.125
11914TIP3    H135685   7.600   1.160   2.190
11914TIP3    H235686   7.573   1.248   2.069
11915TIP3   OH235687   3.027   3.380   4.430
11915TIP3    H135688   3.063   3.462   4.465
11915TIP3    H235689   2.933   3.393   4.431
11916TIP3   OH235690   8.150   0.478   3.183
11916TIP3    H135691   8.114   0.389   3.192
11916TIP3    H235692   8.158   0.509   3.273
11917TIP3   OH235693   0.331   2.789   6.146
11917TIP3    H135694   0.332   2.829   6.059
11917TIP3    H235695   0.241   2.760   6.159
11918TIP3   OH235696   4.911   0.590   3.111
11918TIP3    H135697   4.882   0.530   3.180
11918TIP3    H235698   4.988   0.633   3.147
11919TIP3   OH235699   5.555   3.605   2.925
11919TIP3    H135700   5.499   3.635   2.997
11919TIP3    H235701   5.527   3.656   2.850
11920TIP3   OH235702   7.596   0.195   3.392
11920TIP3    H135703   7.607   0.121   3.332
11920TIP3    H235704   7.515   0.236   3.365
11921TIP3   OH235705   2.643   4.804   2.172
11921TIP3    H135706   2.606   4.756   2.246
11921TIP3    H235707   2.626   4.748   2.096
11922TIP3   OH235708   2.000   4.893   5.962
11922TIP3    H135709   2.027   4.967   6.016
11922TIP3    H235710   2.060   4.894   5.887
11923TIP3   OH235711   7.176   5.439   5.484
11923TIP3    H135712   7.147   5.481   5.565
11923TIP3    H235713   7.269   5.421   5.498
11924TIP3   OH235714   5.401   5.359   2.518
11924TIP3    H135715   5.431   5.434   2.467
11924TIP3    H235716   5.482   5.316   2.547
11925TIP3   OH235717   0.177   1.115   2.418
11925TIP3    H135718   0.208   1.190   2.368
11925TIP3    H235719   0.104   1.080   2.367
11926TIP3   OH235720   1.947   1.318   2.572
11926TIP3    H135721   1.872   1.297   2.628
11926TIP3    H235722   1.907   1.349   2.491
11927TIP3   OH235723   4.454   3.130   5.516
11927TIP3    H135724   4.414   3.045   5.497
11927TIP3    H235725   4.411   3.159   5.597
11928TIP3   OH235726   3.606   3.764   1.713
11928TIP3    H135727   3.604   3.702   1.640
11928TIP3    H235728   3.546   3.834   1.687
11929TIP3   OH235729   7.422   5.929   4.703
11929TIP3    H135730   7.464   6.002   4.657
11929TIP3    H235731   7.394   5.870   4.633
11930TIP3   OH235732   6.749   5.983   5.589
11930TIP3    H135733   6.780   5.929   5.661
11930TIP3    H235734   6.696   5.924   5.535
11931TIP3   OH235735   4.317   4.383   2.587
11931TIP3    H135736   4.329   4.477   2.601
11931TIP3    H235737   4.277   4.378   2.500
11932TIP3   OH235738   1.487   0.487   6.691
11932TIP3    H135739   1.414   0.426   6.702
11932TIP3    H235740   1.450   0.562   6.646
11933TIP3   OH235741   1.002   4.059   3.879
11933TIP3    H135742   1.077   4.096   3.833
11933TIP3    H235743   0.990   3.972   3.841
11934TIP3   OH235744   0.641   0.390   3.661
11934TIP3    H135745   0.718   0.333   3.656
11934TIP3    H235746   0.659   0.447   3.736
11935TIP3   OH235747   5.311   0.151   3.395
11935TIP3    H135748   5.237   0.094   3.414
11935TIP3    H235749   5.382   0.091   3.371
11936TIP3   OH235750   1.820   4.328   0.628
11936TIP3    H135751   1.830   4.390   0.700
11936TIP3    H235752   1.815   4.242   0.670
11937TIP3   OH235753   8.182   0.624   2.163
11937TIP3    H135754   8.177   0.543   2.214
11937TIP3    H235755   8.140   0.603   2.080
11938TIP3   OH235756   6.988   2.271   5.585
11938TIP3    H135757   6.914   2.332   5.586
11938TIP3    H235758   6.983   2.226   5.670
11939TIP3   OH235759   6.386   5.120   5.628
11939TIP3    H135760   6.424   5.062   5.561
11939TIP3    H235761   6.425   5.090   5.710
11940TIP3   OH235762   6.839   5.031   6.250
11940TIP3    H135763   6.912   4.985   6.209
11940TIP3    H235764   6.822   4.983   6.331
11941TIP3   OH235765   3.826   5.814   4.165
11941TIP3    H135766   3.886   5.740   4.169
11941TIP3    H235767   3.869   5.883   4.215
11942TIP3   OH235768   5.220   0.225   1.724
11942TIP3    H135769   5.299   0.269   1.756
11942TIP3    H235770   5.164   0.296   1.692
11943TIP3   OH235771   6.920   2.544   4.332
11943TIP3    H135772   6.902   2.550   4.238
11943TIP3    H235773   6.841   2.577   4.374
11944TIP3   OH235774   3.106   0.693   6.658
11944TIP3    H135775   3.153   0.776   6.660
11944TIP3    H235776   3.013   0.719   6.656
11945TIP3   OH235777   3.452   7.829   4.745
11945TIP3    H135778   3.517   7.875   4.693
11945TIP3    H235779   3.368   7.859   4.710
11946TIP3   OH235780   5.776   4.860   4.216
11946TIP3    H135781   5.765   4.945   4.258
11946TIP3    H235782   5.865   4.862   4.181
11947TIP3   OH235783   1.327   4.514   4.821
11947TIP3    H135784   1.422   4.517   4.824
11947TIP3    H235785   1.307   4.477   4.735
11948TIP3   OH235786   2.051   4.818   2.111
11948TIP3    H135787   1.955   4.818   2.104
11948TIP3    H235788   2.069   4.868   2.190
11949TIP3   OH235789   5.346   2.088   3.916
11949TIP3    H135790   5.313   2.008   3.957
11949TIP3    H235791   5.394   2.058   3.839
11950TIP3   OH235792   5.573   3.330   2.878
11950TIP3    H135793   5.568   3.422   2.904
11950TIP3    H235794   5.575   3.332   2.782
11951TIP3   OH235795   6.566   1.090   5.099
11951TIP3    H135796   6.651   1.047   5.104
11951TIP3    H235797   6.580   1.177   5.135
11952TIP3   OH235798   2.039   7.274   4.409
11952TIP3    H135799   1.990   7.196   4.384
11952TIP3    H235800   2.041   7.272   4.505
11953TIP3   OH235801   1.019   1.440   3.548
11953TIP3    H135802   0.989   1.359   3.590
11953TIP3    H235803   1.034   1.416   3.456
11954TIP3   OH235804   7.492   2.181   3.456
11954TIP3    H135805   7.505   2.159   3.364
11954TIP3    H235806   7.414   2.133   3.482
11955TIP3   OH235807   5.726   0.891   6.521
11955TIP3    H135808   5.693   0.809   6.558
11955TIP3    H235809   5.818   0.893   6.544
11956TIP3   OH235810   0.716   4.668   4.117
11956TIP3    H135811   0.778   4.733   4.085
11956TIP3    H235812   0.766   4.586   4.119
11957TIP3   OH235813   5.187   0.913   2.845
11957TIP3    H135814   5.159   0.823   2.826
11957TIP3    H235815   5.240   0.905   2.924
11958TIP3   OH235816   2.674   2.718   4.359
11958TIP3    H135817   2.692   2.698   4.451
11958TIP3    H235818   2.579   2.730   4.355
11959TIP3   OH235819   4.351   4.128   5.688
11959TIP3    H135820   4.350   4.060   5.620
11959TIP3    H235821   4.275   4.109   5.743
11960TIP3   OH235822   4.583   7.686   4.725
11960TIP3    H135823   4.502   7.699   4.676
11960TIP3    H235824   4.630   7.768   4.717
11961TIP3   OH235825   5.854   5.777   1.015
11961TIP3    H135826   5.877   5.860   0.973
11961TIP3    H235827   5.827   5.802   1.104
11962TIP3   OH235828   4.485   3.018   4.810
11962TIP3    H135829   4.570   3.049   4.779
11962TIP3    H235830   4.431   3.096   4.814
11963TIP3   OH235831   0.727   0.410   0.278
11963TIP3    H135832   0.790   0.340   0.259
11963TIP3    H235833   0.705   0.398   0.370
11964TIP3   OH235834   2.267   7.670   4.633
11964TIP3    H135835   2.186   7.645   4.588
11964TIP3    H235836   2.336   7.656   4.569
11965TIP3   OH235837   0.080   5.338   4.050
11965TIP3    H135838  -0.004   5.375   4.076
11965TIP3    H235839   0.099   5.272   4.117
11966TIP3   OH235840   8.186   1.342   1.692
11966TIP3    H135841   8.190   1.292   1.611
11966TIP3    H235842   8.240   1.419   1.676
11967TIP3   OH235843   2.095   5.028   6.700
11967TIP3    H135844   2.173   5.006   6.648
11967TIP3    H235845   2.028   5.049   6.635
11968TIP3   OH235846   2.459   5.986   3.335
11968TIP3    H135847   2.498   5.906   3.368
11968TIP3    H235848   2.531   6.034   3.294
11969TIP3   OH235849   4.193   4.799   3.974
11969TIP3    H135850   4.188   4.879   4.027
11969TIP3    H235851   4.235   4.827   3.893
11970TIP3   OH235852   2.558   5.688   3.375
11970TIP3    H135853   2.513   5.608   3.348
11970TIP3    H235854   2.589   5.669   3.464
11971TIP3   OH235855   7.434   4.648   4.327
11971TIP3    H135856   7.381   4.670   4.250
11971TIP3    H235857   7.457   4.556   4.315
11972TIP3   OH235858   2.787   7.016   4.992
11972TIP3    H135859   2.715   6.960   5.023
11972TIP3    H235860   2.843   7.027   5.069
11973TIP3   OH235861   1.268   4.443   3.113
11973TIP3    H135862   1.284   4.382   3.042
11973TIP3    H235863   1.257   4.388   3.191
11974TIP3   OH235864   3.131   6.146   6.637
11974TIP3    H135865   3.222   6.135   6.609
11974TIP3    H235866   3.081   6.154   6.556
11975TIP3   OH235867   4.829   6.822   0.067
11975TIP3    H135868   4.849   6.825   0.160
11975TIP3    H235869   4.878   6.747   0.034
11976TIP3   OH235870   0.908   4.934   1.139
11976TIP3    H135871   0.848   5.003   1.167
11976TIP3    H235872   0.924   4.952   1.046
11977TIP3   OH235873   3.789   2.498   2.483
11977TIP3    H135874   3.851   2.428   2.465
11977TIP3    H235875   3.791   2.509   2.578
11978TIP3   OH235876   5.884   2.860   1.630
11978TIP3    H135877   5.799   2.840   1.591
11978TIP3    H235878   5.866   2.931   1.691
11979TIP3   OH235879   0.826   3.261   2.263
11979TIP3    H135880   0.896   3.195   2.268
11979TIP3    H235881   0.769   3.231   2.193
11980TIP3   OH235882   1.021   4.580   4.604
11980TIP3    H135883   1.015   4.603   4.511
11980TIP3    H235884   1.076   4.648   4.642
11981TIP3   OH235885   3.062   4.275   2.376
11981TIP3    H135886   3.140   4.322   2.347
11981TIP3    H235887   3.094   4.186   2.395
11982TIP3   OH235888   6.164   1.388   0.955
11982TIP3    H135889   6.115   1.428   1.027
11982TIP3    H235890   6.137   1.296   0.956
11983TIP3   OH235891   2.860   2.123   5.036
11983TIP3    H135892   2.942   2.083   5.006
11983TIP3    H235893   2.853   2.097   5.127
11984TIP3   OH235894   3.221   5.722   2.594
11984TIP3    H135895   3.133   5.710   2.558
11984TIP3    H235896   3.230   5.653   2.660
11985TIP3   OH235897   3.941   1.633   3.921
11985TIP3    H135898   3.929   1.728   3.924
11985TIP3    H235899   3.988   1.617   3.839
11986TIP3   OH235900   0.738   6.230   5.952
11986TIP3    H135901   0.774   6.272   5.874
11986TIP3    H235902   0.812   6.182   5.989
11987TIP3   OH235903   3.668   2.891   3.089
11987TIP3    H135904   3.584   2.848   3.070
11987TIP3    H235905   3.699   2.849   3.169
11988TIP3   OH235906   7.555   7.471   3.762
11988TIP3    H135907   7.637   7.424   3.774
11988TIP3    H235908   7.563   7.548   3.819
11989TIP3   OH235909   1.338   7.318   6.438
11989TIP3    H135910   1.429   7.306   6.411
11989TIP3    H235911   1.289   7.318   6.356
11990TIP3   OH235912   4.399   0.041   4.038
11990TIP3    H135913   4.340   0.057   3.965
11990TIP3    H235914   4.372   0.105   4.105
11991TIP3   OH235915   2.183   6.188   2.470
11991TIP3    H135916   2.245   6.195   2.397
11991TIP3    H235917   2.125   6.116   2.445
11992TIP3   OH235918   2.830   7.855   2.564
11992TIP3    H135919   2.765   7.872   2.632
11992TIP3    H235920   2.913   7.883   2.603
11993TIP3   OH235921   7.553   2.012   1.686
11993TIP3    H135922   7.629   2.069   1.680
11993TIP3    H235923   7.478   2.070   1.674
11994TIP3   OH235924   0.834   3.174   1.924
11994TIP3    H135925   0.885   3.106   1.968
11994TIP3    H235926   0.835   3.150   1.831
11995TIP3   OH235927   3.494   5.674   3.210
11995TIP3    H135928   3.542   5.751   3.180
11995TIP3    H235929   3.441   5.648   3.134
11996TIP3   OH235930   7.641   0.330   6.541
11996TIP3    H135931   7.679   0.297   6.623
11996TIP3    H235932   7.625   0.252   6.489
11997TIP3   OH235933   6.794   0.985   0.435
11997TIP3    H135934   6.848   1.064   0.426
11997TIP3    H235935   6.791   0.949   0.346
11998TIP3   OH235936   2.623   7.805   6.372
11998TIP3    H135937   2.658   7.891   6.396
11998TIP3    H235938   2.701   7.751   6.358
11999TIP3   OH235939   1.067   0.390   0.686
11999TIP3    H135940   1.046   0.483   0.699
11999TIP3    H235941   1.088   0.358   0.774
12000TIP3   OH235942   0.872   1.262   4.885
12000TIP3    H135943   0.920   1.339   4.855
12000TIP3    H235944   0.936   1.214   4.938
12001TIP3   OH235945   8.198   6.485   3.937
12001TIP3    H135946   8.234   6.405   3.899
12001TIP3    H235947   8.134   6.454   4.001
12002TIP3   OH235948   4.077   4.859   6.623
12002TIP3    H135949   4.141   4.890   6.687
12002TIP3    H235950   4.120   4.871   6.539
12003TIP3   OH235951   8.255   6.974   4.771
12003TIP3    H135952   8.324   7.007   4.713
12003TIP3    H235953   8.247   6.881   4.749
12004TIP3   OH235954   6.766   1.982   4.122
12004TIP3    H135955   6.852   1.940   4.127
12004TIP3    H235956   6.785   2.076   4.116
12005TIP3   OH235957   3.284   2.633   4.116
12005TIP3    H135958   3.191   2.613   4.109
12005TIP3    H235959   3.312   2.591   4.197
12006TIP3   OH235960   1.568   3.678   1.895
12006TIP3    H135961   1.531   3.720   1.818
12006TIP3    H235962   1.651   3.641   1.865
12007TIP3   OH235963   2.426   1.441   3.485
12007TIP3    H135964   2.404   1.377   3.552
12007TIP3    H235965   2.488   1.397   3.428
12008TIP3   OH235966   7.911   6.000   4.259
12008TIP3    H135967   7.989   5.966   4.303
12008TIP3    H235968   7.839   5.979   4.318
12009TIP3   OH235969   6.750   4.307   0.053
12009TIP3    H135970   6.685   4.254   0.100
12009TIP3    H235971   6.777   4.252  -0.020
12010TIP3   OH235972   1.701   2.952   0.527
12010TIP3    H135973   1.680   2.860   0.518
12010TIP3    H235974   1.740   2.960   0.614
12011TIP3   OH235975   7.080   3.094   2.270
12011TIP3    H135976   7.103   3.160   2.205
12011TIP3    H235977   7.071   3.013   2.221
12012TIP3   OH235978   7.785   1.881   0.308
12012TIP3    H135979   7.846   1.818   0.347
12012TIP3    H235980   7.836   1.925   0.240
12013TIP3   OH235981   6.658   5.755   4.872
12013TIP3    H135982   6.700   5.732   4.788
12013TIP3    H235983   6.728   5.797   4.922
12014TIP3   OH235984   3.354   1.137   4.689
12014TIP3    H135985   3.262   1.110   4.684
12014TIP3    H235986   3.375   1.133   4.782
12015TIP3   OH235987   1.060   7.792   5.450
12015TIP3    H135988   1.089   7.752   5.368
12015TIP3    H235989   1.055   7.719   5.511
12016TIP3   OH235990   7.544   0.813   3.419
12016TIP3    H135991   7.471   0.843   3.473
12016TIP3    H235992   7.531   0.858   3.335
12017TIP3   OH235993   7.028   1.490   0.817
12017TIP3    H135994   7.025   1.407   0.863
12017TIP3    H235995   7.065   1.468   0.731
12018TIP3   OH235996   4.266   7.590   6.150
12018TIP3    H135997   4.219   7.545   6.080
12018TIP3    H235998   4.330   7.526   6.181
12019TIP3   OH235999   5.199   4.906   5.228
12019TIP3    H136000   5.145   4.879   5.303
12019TIP3    H236001   5.168   4.850   5.156
12020TIP3   OH236002   4.499   4.065   2.631
12020TIP3    H136003   4.566   4.118   2.588
12020TIP3    H236004   4.542   4.032   2.710
12021TIP3   OH236005   4.865   6.870   3.612
12021TIP3    H136006   4.953   6.835   3.598
12021TIP3    H236007   4.869   6.959   3.579
12022TIP3   OH236008   3.442   5.858   1.368
12022TIP3    H136009   3.520   5.860   1.424
12022TIP3    H236010   3.450   5.775   1.321
12023TIP3   OH236011   3.004   5.852   1.120
12023TIP3    H136012   3.026   5.934   1.077
12023TIP3    H236013   2.913   5.835   1.096
12024TIP3   OH236014   6.776   6.685   4.453
12024TIP3    H136015   6.805   6.761   4.504
12024TIP3    H236016   6.699   6.652   4.500
12025TIP3   OH236017   8.181   4.956   5.313
12025TIP3    H136018   8.182   4.864   5.286
12025TIP3    H236019   8.172   5.005   5.231
12026TIP3   OH236020   2.869   4.821   2.491
12026TIP3    H136021   2.930   4.822   2.417
12026TIP3    H236022   2.784   4.838   2.451
12027TIP3   OH236023   5.698   5.296   1.951
12027TIP3    H136024   5.710   5.314   2.045
12027TIP3    H236025   5.642   5.368   1.920
12028TIP3   OH236026   0.815   2.028   1.415
12028TIP3    H136027   0.815   2.104   1.358
12028TIP3    H236028   0.908   2.009   1.429
12029TIP3   OH236029   3.413   7.598   4.562
12029TIP3    H136030   3.402   7.688   4.591
12029TIP3    H236031   3.325   7.561   4.565
12030TIP3   OH236032   3.988   7.585   2.267
12030TIP3    H136033   4.030   7.503   2.292
12030TIP3    H236034   3.997   7.588   2.172
12031TIP3   OH236035   3.797   1.833   6.594
12031TIP3    H136036   3.811   1.914   6.545
12031TIP3    H236037   3.788   1.861   6.685
12032TIP3   OH236038   5.785   3.028   2.296
12032TIP3    H136039   5.752   3.056   2.210
12032TIP3    H236040   5.718   3.057   2.358
12033TIP3   OH236041   6.597   3.272   2.401
12033TIP3    H136042   6.606   3.251   2.494
12033TIP3    H236043   6.655   3.347   2.388
12034TIP3   OH236044   6.339   0.626   0.464
12034TIP3    H136045   6.416   0.590   0.420
12034TIP3    H236046   6.370   0.705   0.507
12035TIP3   OH236047   3.171   0.481   5.009
12035TIP3    H136048   3.263   0.455   5.009
12035TIP3    H236049   3.163   0.543   5.081
12036TIP3   OH236050   7.056   1.205   4.660
12036TIP3    H136051   7.066   1.249   4.744
12036TIP3    H236052   6.992   1.136   4.676
12037TIP3   OH236053   5.631   3.670   1.177
12037TIP3    H136054   5.673   3.640   1.097
12037TIP3    H236055   5.573   3.598   1.202
12038TIP3   OH236056   2.302   7.596   0.847
12038TIP3    H136057   2.309   7.510   0.888
12038TIP3    H236058   2.309   7.658   0.920
12039TIP3   OH236059   0.211   3.637   6.347
12039TIP3    H136060   0.282   3.593   6.394
12039TIP3    H236061   0.144   3.652   6.414
12040TIP3   OH236062   1.730   5.421   6.342
12040TIP3    H136063   1.675   5.478   6.287
12040TIP3    H236064   1.690   5.335   6.334
12041TIP3   OH236065   1.600   4.454   4.771
12041TIP3    H136066   1.573   4.377   4.722
12041TIP3    H236067   1.675   4.489   4.722
12042TIP3   OH236068   6.703   1.443   1.901
12042TIP3    H136069   6.781   1.436   1.956
12042TIP3    H236070   6.650   1.367   1.925
12043TIP3   OH236071   7.488   1.441   5.533
12043TIP3    H136072   7.552   1.507   5.559
12043TIP3    H236073   7.429   1.488   5.473
12044TIP3   OH236074   5.694   2.186   0.612
12044TIP3    H136075   5.783   2.215   0.636
12044TIP3    H236076   5.675   2.232   0.531
12045TIP3   OH236077   6.810   5.466   6.669
12045TIP3    H136078   6.813   5.396   6.733
12045TIP3    H236079   6.789   5.423   6.586
12046TIP3   OH236080   8.318   0.104   5.704
12046TIP3    H136081   8.241   0.149   5.738
12046TIP3    H236082   8.370   0.083   5.781
12047TIP3   OH236083   0.377   1.747   1.882
12047TIP3    H136084   0.289   1.723   1.911
12047TIP3    H236085   0.428   1.666   1.890
12048TIP3   OH236086   4.333   7.440   6.532
12048TIP3    H136087   4.398   7.438   6.602
12048TIP3    H236088   4.372   7.495   6.465
12049TIP3   OH236089   2.861   1.563   0.833
12049TIP3    H136090   2.801   1.595   0.766
12049TIP3    H236091   2.810   1.567   0.914
12050TIP3   OH236092   3.645   5.766   5.917
12050TIP3    H136093   3.701   5.699   5.956
12050TIP3    H236094   3.678   5.849   5.953
12051TIP3   OH236095   4.013   3.063   0.429
12051TIP3    H136096   4.008   3.010   0.509
12051TIP3    H236097   3.923   3.093   0.414
12052TIP3   OH236098   2.552   0.440   6.196
12052TIP3    H136099   2.517   0.352   6.210
12052TIP3    H236100   2.481   0.488   6.154
12053TIP3   OH236101   5.227   3.506   6.434
12053TIP3    H136102   5.214   3.491   6.340
12053TIP3    H236103   5.283   3.434   6.462
12054TIP3   OH236104   4.879   0.211   0.179
12054TIP3    H136105   4.821   0.247   0.113
12054TIP3    H236106   4.828   0.140   0.219
12055TIP3   OH236107   0.993   1.445   5.339
12055TIP3    H136108   1.049   1.429   5.414
12055TIP3    H236109   0.904   1.442   5.374
12056TIP3   OH236110   1.260   5.412   0.532
12056TIP3    H136111   1.350   5.446   0.530
12056TIP3    H236112   1.230   5.418   0.442
12057TIP3   OH236113   5.707   2.100   0.073
12057TIP3    H136114   5.798   2.095   0.105
12057TIP3    H236115   5.716   2.105  -0.022
12058TIP3   OH236116   7.566   6.356   4.513
12058TIP3    H136117   7.617   6.428   4.476
12058TIP3    H236118   7.558   6.293   4.442
12059TIP3   OH236119   8.063   4.007   6.064
12059TIP3    H136120   8.112   3.982   5.986
12059TIP3    H236121   7.972   3.988   6.042
12060TIP3   OH236122   6.709   6.354   2.697
12060TIP3    H136123   6.681   6.444   2.713
12060TIP3    H236124   6.704   6.344   2.602
12061TIP3   OH236125   5.207   6.627   4.685
12061TIP3    H136126   5.180   6.536   4.697
12061TIP3    H236127   5.184   6.647   4.594
12062TIP3   OH236128   6.794   0.556   2.542
12062TIP3    H136129   6.791   0.474   2.592
12062TIP3    H236130   6.866   0.605   2.581
12063TIP3   OH236131   4.616   1.954   1.487
12063TIP3    H136132   4.663   1.892   1.432
12063TIP3    H236133   4.533   1.909   1.507
12064TIP3   OH236134   0.129   5.406   1.628
12064TIP3    H136135   0.040   5.371   1.629
12064TIP3    H236136   0.132   5.460   1.549
12065TIP3   OH236137   4.947   2.150   1.384
12065TIP3    H136138   4.907   2.080   1.435
12065TIP3    H236139   4.907   2.230   1.418
12066TIP3   OH236140   3.529   1.715   6.714
12066TIP3    H136141   3.608   1.749   6.672
12066TIP3    H236142   3.457   1.764   6.674
12067TIP3   OH236143   2.162   2.039   6.679
12067TIP3    H136144   2.234   2.005   6.731
12067TIP3    H236145   2.196   2.119   6.639
12068TIP3   OH236146   2.558   0.288   3.097
12068TIP3    H136147   2.624   0.234   3.141
12068TIP3    H236148   2.574   0.377   3.129
12069TIP3   OH236149   6.488   1.648   5.115
12069TIP3    H136150   6.534   1.705   5.176
12069TIP3    H236151   6.553   1.625   5.049
12070TIP3   OH236152   4.791   6.776   1.626
12070TIP3    H136153   4.712   6.725   1.644
12070TIP3    H236154   4.836   6.726   1.558
12071TIP3   OH236155   1.841   3.688   0.563
12071TIP3    H136156   1.904   3.753   0.530
12071TIP3    H236157   1.872   3.666   0.650
12072TIP3   OH236158   7.550   2.580   4.521
12072TIP3    H136159   7.636   2.562   4.558
12072TIP3    H236160   7.565   2.581   4.426
12073TIP3   OH236161   4.788   2.628   2.167
12073TIP3    H136162   4.858   2.624   2.231
12073TIP3    H236163   4.768   2.537   2.147
12074TIP3   OH236164   4.738   0.851   2.608
12074TIP3    H136165   4.648   0.865   2.577
12074TIP3    H236166   4.727   0.829   2.701
12075TIP3   OH236167   2.405   3.416   5.081
12075TIP3    H136168   2.475   3.362   5.118
12075TIP3    H236169   2.380   3.370   5.000
12076TIP3   OH236170   0.511   4.442   3.924
12076TIP3    H136171   0.567   4.471   3.853
12076TIP3    H236172   0.423   4.472   3.900
12077TIP3   OH236173   5.700   6.518   6.577
12077TIP3    H136174   5.746   6.440   6.547
12077TIP3    H236175   5.642   6.487   6.646
12078TIP3   OH236176   2.406   1.689   1.523
12078TIP3    H136177   2.478   1.654   1.576
12078TIP3    H236178   2.442   1.768   1.483
12079TIP3   OH236179   4.834   6.727   2.599
12079TIP3    H136180   4.820   6.655   2.538
12079TIP3    H236181   4.814   6.689   2.685
12080TIP3   OH236182   3.315   6.298   3.663
12080TIP3    H136183   3.308   6.203   3.652
12080TIP3    H236184   3.355   6.329   3.582
12081TIP3   OH236185   2.837   1.443   1.841
12081TIP3    H136186   2.767   1.394   1.798
12081TIP3    H236187   2.815   1.439   1.934
12082TIP3   OH236188   3.635   6.274   3.703
12082TIP3    H136189   3.587   6.202   3.745
12082TIP3    H236190   3.583   6.352   3.724
12083TIP3   OH236191   6.256   4.510   6.668
12083TIP3    H136192   6.325   4.576   6.675
12083TIP3    H236193   6.292   4.444   6.609
12084TIP3   OH236194   1.018   6.891   6.209
12084TIP3    H136195   1.063   6.876   6.125
12084TIP3    H236196   1.088   6.909   6.271
12085TIP3   OH236197   4.611   0.983   4.323
12085TIP3    H136198   4.535   0.994   4.380
12085TIP3    H236199   4.576   0.989   4.234
12086TIP3   OH236200   1.600   2.124   4.529
12086TIP3    H136201   1.615   2.162   4.616
12086TIP3    H236202   1.632   2.190   4.468
12087TIP3   OH236203   3.570   3.177   4.677
12087TIP3    H136204   3.645   3.182   4.736
12087TIP3    H236205   3.528   3.262   4.684
12088TIP3   OH236206   1.103   4.154   5.007
12088TIP3    H136207   1.092   4.190   4.919
12088TIP3    H236208   1.193   4.174   5.030
12089TIP3   OH236209   3.231   1.585   3.246
12089TIP3    H136210   3.321   1.616   3.242
12089TIP3    H236211   3.237   1.491   3.227
12090TIP3   OH236212   3.852   1.424   4.335
12090TIP3    H136213   3.773   1.382   4.367
12090TIP3    H236214   3.848   1.414   4.240
12091TIP3   OH236215   6.804   5.498   3.579
12091TIP3    H136216   6.899   5.492   3.567
12091TIP3    H236217   6.770   5.526   3.495
12092TIP3   OH236218   2.087   1.976   4.027
12092TIP3    H136219   2.112   1.919   4.100
12092TIP3    H236220   2.166   2.027   4.009
12093TIP3   OH236221   7.071   6.691   6.464
12093TIP3    H136222   7.100   6.649   6.545
12093TIP3    H236223   7.134   6.762   6.450
12094TIP3   OH236224   3.014   6.233   2.426
12094TIP3    H136225   2.965   6.205   2.348
12094TIP3    H236226   3.050   6.152   2.462
12095TIP3   OH236227   7.933   3.826   1.423
12095TIP3    H136228   7.876   3.816   1.499
12095TIP3    H236229   7.991   3.750   1.427
12096TIP3   OH236230   7.818   1.437   5.365
12096TIP3    H136231   7.756   1.365   5.353
12096TIP3    H236232   7.765   1.508   5.401
12097TIP3   OH236233   2.547   4.411   4.451
12097TIP3    H136234   2.611   4.417   4.380
12097TIP3    H236235   2.485   4.344   4.422
12098TIP3   OH236236   1.891   6.390   0.971
12098TIP3    H136237   1.917   6.384   0.879
12098TIP3    H236238   1.970   6.419   1.017
12099TIP3   OH236239   7.770   4.707   1.795
12099TIP3    H136240   7.766   4.632   1.854
12099TIP3    H236241   7.753   4.670   1.708
12100TIP3   OH236242   1.050   4.248   2.716
12100TIP3    H136243   1.133   4.288   2.741
12100TIP3    H236244   1.006   4.315   2.663
12101TIP3   OH236245   3.080   6.168   1.208
12101TIP3    H136246   3.045   6.147   1.295
12101TIP3    H236247   3.171   6.138   1.211
12102TIP3   OH236248   1.009   1.123   1.796
12102TIP3    H136249   1.017   1.194   1.859
12102TIP3    H236250   0.930   1.143   1.746
12103TIP3   OH236251   2.234   1.184   0.059
12103TIP3    H136252   2.311   1.227   0.096
12103TIP3    H236253   2.216   1.112   0.118
12104TIP3   OH236254   3.335   7.793   5.298
12104TIP3    H136255   3.260   7.849   5.281
12104TIP3    H236256   3.298   7.714   5.339
12105TIP3   OH236257   6.277   0.306   3.962
12105TIP3    H136258   6.238   0.220   3.945
12105TIP3    H236259   6.287   0.344   3.875
12106TIP3   OH236260   5.453   3.357   3.679
12106TIP3    H136261   5.448   3.356   3.775
12106TIP3    H236262   5.422   3.445   3.655
12107TIP3   OH236263   5.509   6.835   0.578
12107TIP3    H136264   5.601   6.829   0.602
12107TIP3    H236265   5.507   6.819   0.484
12108TIP3   OH236266   0.931   5.196   2.418
12108TIP3    H136267   0.929   5.155   2.331
12108TIP3    H236268   0.896   5.130   2.477
12109TIP3   OH236269   4.919   5.506   2.248
12109TIP3    H136270   4.895   5.433   2.190
12109TIP3    H236271   5.015   5.503   2.251
12110TIP3   OH236272   3.199   6.735   1.376
12110TIP3    H136273   3.292   6.752   1.360
12110TIP3    H236274   3.193   6.640   1.385
12111TIP3   OH236275   4.399   5.365   2.944
12111TIP3    H136276   4.477   5.348   2.891
12111TIP3    H236277   4.368   5.450   2.915
12112TIP3   OH236278   4.026   2.572   1.375
12112TIP3    H136279   3.944   2.559   1.327
12112TIP3    H236280   4.004   2.548   1.465
12113TIP3   OH236281   1.989   2.890   6.185
12113TIP3    H136282   1.896   2.897   6.161
12113TIP3    H236283   2.019   2.980   6.195
12114TIP3   OH236284   8.314   6.871   4.273
12114TIP3    H136285   8.266   6.953   4.289
12114TIP3    H236286   8.331   6.872   4.179
12115TIP3   OH236287   6.718   4.937   5.243
12115TIP3    H136288   6.767   4.996   5.301
12115TIP3    H236289   6.756   4.950   5.157
12116TIP3   OH236290   1.049   0.241   2.794
12116TIP3    H136291   0.980   0.293   2.837
12116TIP3    H236292   1.086   0.301   2.729
12117TIP3   OH236293   2.378   4.940   4.601
12117TIP3    H136294   2.307   4.905   4.654
12117TIP3    H236295   2.424   4.862   4.569
12118TIP3   OH236296   7.604   6.014   1.178
12118TIP3    H136297   7.688   5.968   1.168
12118TIP3    H236298   7.601   6.037   1.271
12119TIP3   OH236299   1.547   0.338   5.055
12119TIP3    H136300   1.594   0.289   5.122
12119TIP3    H236301   1.552   0.429   5.085
12120TIP3   OH236302   5.002   2.456   6.315
12120TIP3    H136303   5.076   2.414   6.273
12120TIP3    H236304   4.998   2.416   6.402
12121TIP3   OH236305   1.383   6.598   5.675
12121TIP3    H136306   1.465   6.550   5.688
12121TIP3    H236307   1.390   6.632   5.585
12122TIP3   OH236308   7.933   4.008   1.704
12122TIP3    H136309   8.004   3.944   1.704
12122TIP3    H236310   7.855   3.957   1.683
12123TIP3   OH236311   7.678   4.101   0.903
12123TIP3    H136312   7.672   4.148   0.987
12123TIP3    H236313   7.632   4.019   0.919
12124TIP3   OH236314   4.587   1.875   5.962
12124TIP3    H136315   4.545   1.902   6.044
12124TIP3    H236316   4.607   1.957   5.917
12125TIP3   OH236317   2.477   4.798   3.400
12125TIP3    H136318   2.528   4.772   3.323
12125TIP3    H236319   2.543   4.826   3.463
12126TIP3   OH236320   2.410   0.368   4.256
12126TIP3    H136321   2.351   0.330   4.320
12126TIP3    H236322   2.386   0.461   4.252
12127TIP3   OH236323   4.022   5.188   5.459
12127TIP3    H136324   3.985   5.108   5.495
12127TIP3    H236325   4.035   5.245   5.535
12128TIP3   OH236326   2.167   7.082   2.070
12128TIP3    H136327   2.217   7.132   2.005
12128TIP3    H236328   2.207   7.105   2.153
12129TIP3   OH236329   3.902   5.213   3.690
12129TIP3    H136330   3.858   5.228   3.774
12129TIP3    H236331   3.927   5.301   3.660
12130TIP3   OH236332   3.284   3.358   0.801
12130TIP3    H136333   3.264   3.377   0.710
12130TIP3    H236334   3.356   3.295   0.797
12131TIP3   OH236335   2.631   4.364   0.422
12131TIP3    H136336   2.548   4.385   0.463
12131TIP3    H236337   2.613   4.286   0.370
12132TIP3   OH236338   1.290   5.114   1.596
12132TIP3    H136339   1.299   5.175   1.669
12132TIP3    H236340   1.272   5.030   1.638
12133TIP3   OH236341   2.312   0.808   3.331
12133TIP3    H136342   2.222   0.800   3.300
12133TIP3    H236343   2.306   0.795   3.425
12134TIP3   OH236344   7.060   4.027   2.868
12134TIP3    H136345   7.146   3.987   2.851
12134TIP3    H236346   7.010   3.959   2.913
12135TIP3   OH236347   1.160   3.130   2.501
12135TIP3    H136348   1.222   3.190   2.543
12135TIP3    H236349   1.213   3.079   2.440
12136TIP3   OH236350   1.558   5.198   6.416
12136TIP3    H136351   1.585   5.185   6.507
12136TIP3    H236352   1.535   5.111   6.385
12137TIP3   OH236353   4.796   5.288   0.695
12137TIP3    H136354   4.797   5.383   0.704
12137TIP3    H236355   4.718   5.260   0.743
12138TIP3   OH236356   1.382   4.717   1.798
12138TIP3    H136357   1.470   4.746   1.823
12138TIP3    H236358   1.330   4.798   1.796
12139TIP3   OH236359   4.111   4.799   1.618
12139TIP3    H136360   4.100   4.764   1.707
12139TIP3    H236361   4.171   4.873   1.628
12140TIP3   OH236362   2.875   2.033   0.696
12140TIP3    H136363   2.931   2.022   0.620
12140TIP3    H236364   2.831   2.117   0.681
12141TIP3   OH236365   7.521   6.125   4.330
12141TIP3    H136366   7.437   6.127   4.376
12141TIP3    H236367   7.527   6.036   4.294
12142TIP3   OH236368   2.123   7.157   5.165
12142TIP3    H136369   2.031   7.144   5.186
12142TIP3    H236370   2.152   7.228   5.222
12143TIP3   OH236371   0.602   2.398   2.830
12143TIP3    H136372   0.532   2.369   2.770
12143TIP3    H236373   0.640   2.317   2.863
12144TIP3   OH236374   3.603   1.254   2.036
12144TIP3    H136375   3.544   1.232   2.108
12144TIP3    H236376   3.691   1.251   2.075
12145TIP3   OH236377   7.585   3.464   6.665
12145TIP3    H136378   7.585   3.555   6.696
12145TIP3    H236379   7.592   3.412   6.745
12146TIP3   OH236380   1.978   2.372   6.472
12146TIP3    H136381   1.927   2.444   6.433
12146TIP3    H236382   1.917   2.328   6.530
12147TIP3   OH236383   7.134   4.040   6.371
12147TIP3    H136384   7.065   4.085   6.420
12147TIP3    H236385   7.087   3.974   6.319
12148TIP3   OH236386   6.626   3.620   6.572
12148TIP3    H136387   6.656   3.610   6.662
12148TIP3    H236388   6.682   3.689   6.536
12149TIP3   OH236389   0.015   7.060   5.656
12149TIP3    H136390   0.108   7.042   5.668
12149TIP3    H236391  -0.027   7.023   5.734
12150TIP3   OH236392   5.552   7.118   6.053
12150TIP3    H136393   5.600   7.179   6.108
12150TIP3    H236394   5.593   7.124   5.967
12151TIP3   OH236395   1.844   4.543   0.798
12151TIP3    H136396   1.815   4.561   0.887
12151TIP3    H236397   1.901   4.617   0.776
12152TIP3   OH236398   6.715   2.161   4.410
12152TIP3    H136399   6.684   2.110   4.485
12152TIP3    H236400   6.808   2.142   4.405
12153TIP3   OH236401   0.799   0.513   1.101
12153TIP3    H136402   0.711   0.529   1.135
12153TIP3    H236403   0.808   0.576   1.029
12154TIP3   OH236404   6.588   0.562   0.374
12154TIP3    H136405   6.680   0.540   0.358
12154TIP3    H236406   6.580   0.654   0.346
12155TIP3   OH236407   6.088   2.019   4.117
12155TIP3    H136408   6.149   2.091   4.134
12155TIP3    H236409   6.008   2.063   4.088
12156TIP3   OH236410   0.292   2.972   0.303
12156TIP3    H136411   0.346   3.051   0.296
12156TIP3    H236412   0.342   2.904   0.258
12157TIP3   OH236413   7.938   0.262   6.116
12157TIP3    H136414   7.901   0.269   6.028
12157TIP3    H236415   7.945   0.168   6.131
12158TIP3   OH236416   6.297   3.693   1.956
12158TIP3    H136417   6.391   3.706   1.943
12158TIP3    H236418   6.264   3.777   1.986
12159TIP3   OH236419   4.971   2.117   0.374
12159TIP3    H136420   4.999   2.165   0.451
12159TIP3    H236421   4.978   2.180   0.302
12160TIP3   OH236422   7.441   2.074   2.740
12160TIP3    H136423   7.434   1.995   2.688
12160TIP3    H236424   7.535   2.093   2.745
12161TIP3   OH236425   3.380   0.351   6.457
12161TIP3    H136426   3.302   0.406   6.460
12161TIP3    H236427   3.351   0.265   6.485
12162TIP3   OH236428   4.719   7.754   0.866
12162TIP3    H136429   4.787   7.728   0.928
12162TIP3    H236430   4.756   7.829   0.820
12163TIP3   OH236431   2.618   2.048   4.119
12163TIP3    H136432   2.688   2.086   4.173
12163TIP3    H236433   2.630   2.088   4.033
12164TIP3   OH236434   6.991   5.584   1.948
12164TIP3    H136435   7.011   5.677   1.937
12164TIP3    H236436   6.962   5.577   2.039
12165TIP3   OH236437   4.063   6.002   6.745
12165TIP3    H136438   3.974   5.977   6.769
12165TIP3    H236439   4.051   6.070   6.678
12166TIP3   OH236440   1.437   0.084   2.530
12166TIP3    H136441   1.425   0.152   2.463
12166TIP3    H236442   1.372   0.017   2.508
12167TIP3   OH236443   7.947   0.196   4.498
12167TIP3    H136444   7.910   0.279   4.529
12167TIP3    H236445   7.992   0.219   4.417
12168TIP3   OH236446   0.614   4.229   5.732
12168TIP3    H136447   0.670   4.191   5.800
12168TIP3    H236448   0.617   4.323   5.748
12169TIP3   OH236449   4.589   7.139   2.632
12169TIP3    H136450   4.670   7.088   2.636
12169TIP3    H236451   4.576   7.157   2.538
12170TIP3   OH236452   7.342   6.840   5.786
12170TIP3    H136453   7.351   6.916   5.843
12170TIP3    H236454   7.255   6.849   5.746
12171TIP3   OH236455   3.619   6.248   1.649
12171TIP3    H136456   3.619   6.153   1.665
12171TIP3    H236457   3.684   6.283   1.710
12172TIP3   OH236458   2.802   3.747   6.435
12172TIP3    H136459   2.776   3.663   6.397
12172TIP3    H236460   2.785   3.810   6.365
12173TIP3   OH236461   2.150   2.375   2.542
12173TIP3    H136462   2.072   2.363   2.489
12173TIP3    H236463   2.151   2.300   2.602
12174TIP3   OH236464   6.879   1.791   2.558
12174TIP3    H136465   6.890   1.885   2.545
12174TIP3    H236466   6.922   1.773   2.641
12175TIP3   OH236467   8.012   1.261   1.897
12175TIP3    H136468   8.094   1.271   1.849
12175TIP3    H236469   7.989   1.349   1.926
12176TIP3   OH236470   2.195   1.535   6.110
12176TIP3    H136471   2.187   1.439   6.112
12176TIP3    H236472   2.105   1.566   6.094
12177TIP3   OH236473   0.336   5.041   3.108
12177TIP3    H136474   0.242   5.055   3.116
12177TIP3    H236475   0.344   4.980   3.035
12178TIP3   OH236476   0.437   2.735   1.337
12178TIP3    H136477   0.435   2.672   1.410
12178TIP3    H236478   0.497   2.696   1.273
12179TIP3   OH236479   3.663   1.426   3.785
12179TIP3    H136480   3.755   1.420   3.760
12179TIP3    H236481   3.632   1.335   3.785
12180TIP3   OH236482   6.227   0.220   6.720
12180TIP3    H136483   6.314   0.207   6.757
12180TIP3    H236484   6.171   0.237   6.796
12181TIP3   OH236485   3.446   7.196   6.185
12181TIP3    H136486   3.436   7.103   6.204
12181TIP3    H236487   3.470   7.199   6.092
12182TIP3   OH236488   6.782   4.362   1.671
12182TIP3    H136489   6.695   4.385   1.703
12182TIP3    H236490   6.767   4.325   1.584
12183TIP3   OH236491   4.117   0.681   6.573
12183TIP3    H136492   4.036   0.695   6.622
12183TIP3    H236493   4.162   0.766   6.576
12184TIP3   OH236494   6.110   4.772   3.114
12184TIP3    H136495   6.090   4.859   3.148
12184TIP3    H236496   6.198   4.753   3.146
12185TIP3   OH236497   1.027   6.972   2.459
12185TIP3    H136498   1.008   7.038   2.525
12185TIP3    H236499   1.089   7.015   2.400
12186TIP3   OH236500   1.946   1.335   0.184
12186TIP3    H136501   2.014   1.400   0.167
12186TIP3    H236502   1.956   1.313   0.276
12187TIP3   OH236503   3.681   6.734   4.256
12187TIP3    H136504   3.722   6.745   4.170
12187TIP3    H236505   3.754   6.718   4.316
12188TIP3   OH236506   6.098   6.302   2.074
12188TIP3    H136507   6.040   6.370   2.040
12188TIP3    H236508   6.153   6.347   2.138
12189TIP3   OH236509   7.569   2.798   6.049
12189TIP3    H136510   7.555   2.849   5.969
12189TIP3    H236511   7.643   2.840   6.092
12190TIP3   OH236512   5.302   5.512   4.810
12190TIP3    H136513   5.370   5.445   4.816
12190TIP3    H236514   5.225   5.472   4.850
12191TIP3   OH236515   0.958   2.020   4.574
12191TIP3    H136516   1.012   1.945   4.598
12191TIP3    H236517   0.997   2.053   4.493
12192TIP3   OH236518   5.721   6.005   4.997
12192TIP3    H136519   5.691   5.924   4.956
12192TIP3    H236520   5.806   6.022   4.957
12193TIP3   OH236521   6.773   4.389   5.405
12193TIP3    H136522   6.757   4.481   5.384
12193TIP3    H236523   6.856   4.368   5.361
12194TIP3   OH236524   3.613   0.305   2.544
12194TIP3    H136525   3.647   0.371   2.605
12194TIP3    H236526   3.650   0.330   2.459
12195TIP3   OH236527   5.242   2.677   1.959
12195TIP3    H136528   5.303   2.609   1.930
12195TIP3    H236529   5.172   2.629   2.004
12196TIP3   OH236530   2.886   1.421   1.378
12196TIP3    H136531   2.887   1.327   1.360
12196TIP3    H236532   2.899   1.427   1.473
12197TIP3   OH236533   6.831   3.901   4.743
12197TIP3    H136534   6.767   3.875   4.676
12197TIP3    H236535   6.791   3.977   4.786
12198TIP3   OH236536   6.685   5.050   4.640
12198TIP3    H136537   6.635   4.971   4.622
12198TIP3    H236538   6.771   5.019   4.668
12199TIP3   OH236539   0.280   7.165   2.807
12199TIP3    H136540   0.327   7.248   2.807
12199TIP3    H236541   0.234   7.163   2.891
12200TIP3   OH236542   1.276   7.295   3.432
12200TIP3    H136543   1.223   7.249   3.497
12200TIP3    H236544   1.354   7.324   3.479
12201TIP3   OH236545   4.641   3.273   1.792
12201TIP3    H136546   4.623   3.226   1.710
12201TIP3    H236547   4.660   3.204   1.855
12202TIP3   OH236548   4.569   7.606   1.749
12202TIP3    H136549   4.526   7.672   1.803
12202TIP3    H236550   4.609   7.545   1.812
12203TIP3   OH236551   7.797   5.951   4.536
12203TIP3    H136552   7.731   6.017   4.557
12203TIP3    H236553   7.853   5.948   4.613
12204TIP3   OH236554   5.639   5.617   1.604
12204TIP3    H136555   5.589   5.631   1.524
12204TIP3    H236556   5.657   5.705   1.638
12205TIP3   OH236557   4.724   1.920   2.125
12205TIP3    H136558   4.798   1.897   2.070
12205TIP3    H236559   4.760   1.927   2.213
12206TIP3   OH236560   8.104   2.516   4.385
12206TIP3    H136561   8.082   2.428   4.355
12206TIP3    H236562   8.065   2.522   4.472
12207TIP3   OH236563   7.219   1.053   6.602
12207TIP3    H136564   7.290   1.044   6.539
12207TIP3    H236565   7.241   1.131   6.653
12208TIP3   OH236566   1.807   5.769   6.165
12208TIP3    H136567   1.772   5.858   6.159
12208TIP3    H236568   1.855   5.768   6.248
12209TIP3   OH236569   0.282   4.654   1.977
12209TIP3    H136570   0.267   4.610   1.894
12209TIP3    H236571   0.358   4.609   2.014
12210TIP3   OH236572   0.859   0.834   0.668
12210TIP3    H136573   0.906   0.848   0.586
12210TIP3    H236574   0.773   0.804   0.641
12211TIP3   OH236575   0.532   3.244   5.953
12211TIP3    H136576   0.550   3.321   6.007
12211TIP3    H236577   0.613   3.229   5.905
12212TIP3   OH236578   0.949   0.295   5.692
12212TIP3    H136579   0.974   0.332   5.777
12212TIP3    H236580   0.918   0.370   5.641
12213TIP3   OH236581   6.580   3.292   5.260
12213TIP3    H136582   6.504   3.243   5.291
12213TIP3    H236583   6.560   3.314   5.169
12214TIP3   OH236584   2.338   4.233   4.408
12214TIP3    H136585   2.296   4.153   4.376
12214TIP3    H236586   2.365   4.212   4.497
12215TIP3   OH236587   7.113   6.191   2.281
12215TIP3    H136588   7.084   6.107   2.317
12215TIP3    H236589   7.107   6.179   2.186
12216TIP3   OH236590   1.151   0.297   0.936
12216TIP3    H136591   1.143   0.214   0.889
12216TIP3    H236592   1.245   0.313   0.943
12217TIP3   OH236593   4.496   6.681   2.677
12217TIP3    H136594   4.458   6.655   2.761
12217TIP3    H236595   4.590   6.685   2.694
12218TIP3   OH236596   3.131   0.274   6.147
12218TIP3    H136597   3.043   0.303   6.172
12218TIP3    H236598   3.153   0.208   6.212
12219TIP3   OH236599   1.750   2.519   0.717
12219TIP3    H136600   1.718   2.438   0.757
12219TIP3    H236601   1.834   2.534   0.760
12220TIP3   OH236602   6.652   5.151   1.598
12220TIP3    H136603   6.695   5.083   1.649
12220TIP3    H236604   6.695   5.149   1.513
12221TIP3   OH236605   2.386   1.204   2.918
12221TIP3    H136606   2.399   1.270   2.849
12221TIP3    H236607   2.377   1.255   2.999
12222TIP3   OH236608   4.921   4.747   5.962
12222TIP3    H136609   4.871   4.687   6.019
12222TIP3    H236610   4.860   4.819   5.944
12223TIP3   OH236611   4.408   2.295   0.373
12223TIP3    H136612   4.347   2.248   0.429
12223TIP3    H236613   4.492   2.288   0.418
12224TIP3   OH236614   8.049   2.147   3.744
12224TIP3    H136615   7.971   2.200   3.760
12224TIP3    H236616   8.018   2.056   3.750
12225TIP3   OH236617   3.986   2.124   4.957
12225TIP3    H136618   4.028   2.112   4.872
12225TIP3    H236619   3.933   2.045   4.969
12226TIP3   OH236620   0.324   2.569   6.469
12226TIP3    H136621   0.396   2.631   6.483
12226TIP3    H236622   0.307   2.574   6.375
12227TIP3   OH236623   1.598   5.281   3.089
12227TIP3    H136624   1.537   5.289   3.016
12227TIP3    H236625   1.644   5.199   3.074
12228TIP3   OH236626   0.744   1.420   5.409
12228TIP3    H136627   0.656   1.420   5.370
12228TIP3    H236628   0.736   1.366   5.488
12229TIP3   OH236629   5.246   4.364   3.520
12229TIP3    H136630   5.230   4.275   3.554
12229TIP3    H236631   5.340   4.368   3.509
12230TIP3   OH236632   3.512   2.439   5.483
12230TIP3    H136633   3.522   2.400   5.396
12230TIP3    H236634   3.548   2.372   5.542
12231TIP3   OH236635   8.192   4.561   5.773
12231TIP3    H136636   8.277   4.532   5.806
12231TIP3    H236637   8.129   4.504   5.816
12232TIP3   OH236638  -0.039   6.118   6.252
12232TIP3    H136639   0.014   6.141   6.176
12232TIP3    H236640  -0.070   6.202   6.286
12233TIP3   OH236641   2.376   0.564   1.127
12233TIP3    H136642   2.280   0.564   1.129
12233TIP3    H236643   2.401   0.654   1.150
12234TIP3   OH236644   5.872   7.100   5.274
12234TIP3    H136645   5.868   7.017   5.227
12234TIP3    H236646   5.963   7.106   5.303
12235TIP3   OH236647   6.732   1.723   1.975
12235TIP3    H136648   6.824   1.698   1.987
12235TIP3    H236649   6.686   1.641   1.956
12236TIP3   OH236650   6.873   3.237   3.528
12236TIP3    H136651   6.813   3.195   3.467
12236TIP3    H236652   6.956   3.241   3.481
12237TIP3   OH236653   1.981   1.409   6.413
12237TIP3    H136654   1.932   1.329   6.393
12237TIP3    H236655   1.961   1.428   6.504
12238TIP3   OH236656   0.778   5.576   4.932
12238TIP3    H136657   0.841   5.580   4.859
12238TIP3    H236658   0.823   5.619   5.005
12239TIP3   OH236659   0.676   0.409   0.008
12239TIP3    H136660   0.697   0.415   0.102
12239TIP3    H236661   0.654   0.499  -0.017
12240TIP3   OH236662   6.830   0.254   4.712
12240TIP3    H136663   6.869   0.334   4.745
12240TIP3    H236664   6.759   0.234   4.773
12241TIP3   OH236665   5.887   5.828   5.947
12241TIP3    H136666   5.926   5.873   5.872
12241TIP3    H236667   5.920   5.875   6.024
12242TIP3   OH236668   7.726   2.028   4.181
12242TIP3    H136669   7.810   1.988   4.203
12242TIP3    H236670   7.734   2.119   4.212
12243TIP3   OH236671   7.309   5.549   3.081
12243TIP3    H136672   7.317   5.465   3.035
12243TIP3    H236673   7.305   5.614   3.011
12244TIP3   OH236674   6.418   1.386   1.344
12244TIP3    H136675   6.380   1.473   1.351
12244TIP3    H236676   6.365   1.332   1.403
12245TIP3   OH236677   0.262   4.597   6.608
12245TIP3    H136678   0.168   4.593   6.621
12245TIP3    H236679   0.278   4.685   6.575
12246TIP3   OH236680   5.887   7.249   5.005
12246TIP3    H136681   5.893   7.177   4.942
12246TIP3    H236682   5.855   7.208   5.086
12247TIP3   OH236683   2.162   1.226   4.576
12247TIP3    H136684   2.115   1.224   4.493
12247TIP3    H236685   2.247   1.186   4.557
12248TIP3   OH236686   7.175   5.601   3.774
12248TIP3    H136687   7.153   5.543   3.847
12248TIP3    H236688   7.092   5.638   3.745
12249TIP3   OH236689   6.536   7.032   0.025
12249TIP3    H136690   6.459   7.088   0.035
12249TIP3    H236691   6.610   7.092   0.019
12250TIP3   OH236692   7.494   2.830   2.429
12250TIP3    H136693   7.482   2.924   2.445
12250TIP3    H236694   7.440   2.812   2.353
12251TIP3   OH236695   0.584   4.973   1.852
12251TIP3    H136696   0.601   4.907   1.919
12251TIP3    H236697   0.669   4.990   1.812
12252TIP3   OH236698   1.163   3.001   6.702
12252TIP3    H136699   1.184   3.003   6.796
12252TIP3    H236700   1.070   2.983   6.699
12253TIP3   OH236701   7.698   3.325   3.589
12253TIP3    H136702   7.620   3.307   3.641
12253TIP3    H236703   7.691   3.267   3.513
12254TIP3   OH236704   5.989   1.272   5.977
12254TIP3    H136705   6.005   1.182   5.949
12254TIP3    H236706   6.071   1.318   5.956
12255TIP3   OH236707   4.388   7.681   4.152
12255TIP3    H136708   4.446   7.752   4.178
12255TIP3    H236709   4.432   7.601   4.183
12256TIP3   OH236710   4.199   6.394   1.749
12256TIP3    H136711   4.294   6.387   1.740
12256TIP3    H236712   4.186   6.471   1.804
12257TIP3   OH236713   2.138   6.555   6.541
12257TIP3    H136714   2.150   6.619   6.610
12257TIP3    H236715   2.077   6.491   6.577
12258TIP3   OH236716   4.553   7.677   5.506
12258TIP3    H136717   4.528   7.756   5.458
12258TIP3    H236718   4.479   7.617   5.494
12259TIP3   OH236719   3.942   3.436   0.900
12259TIP3    H136720   3.886   3.404   0.830
12259TIP3    H236721   3.941   3.366   0.965
12260TIP3   OH236722   2.498   7.431   4.699
12260TIP3    H136723   2.405   7.446   4.713
12260TIP3    H236724   2.535   7.420   4.787
12261TIP3   OH236725   4.827   6.960   3.306
12261TIP3    H136726   4.916   6.934   3.328
12261TIP3    H236727   4.835   7.010   3.225
12262TIP3   OH236728   7.140   6.402   3.381
12262TIP3    H136729   7.203   6.413   3.310
12262TIP3    H236730   7.055   6.401   3.339
12263TIP3   OH236731   2.768   0.464   5.032
12263TIP3    H136732   2.827   0.520   4.981
12263TIP3    H236733   2.795   0.375   5.011
12264TIP3   OH236734   0.557   3.260   5.626
12264TIP3    H136735   0.512   3.337   5.660
12264TIP3    H236736   0.572   3.279   5.534
12265TIP3   OH236737   3.414   4.648   5.615
12265TIP3    H136738   3.461   4.662   5.697
12265TIP3    H236739   3.322   4.666   5.636
12266TIP3   OH236740   4.103   7.446   6.663
12266TIP3    H136741   4.039   7.408   6.603
12266TIP3    H236742   4.188   7.422   6.625
12267TIP3   OH236743   2.513   0.154   5.336
12267TIP3    H136744   2.581   0.220   5.350
12267TIP3    H236745   2.494   0.159   5.242
12268TIP3   OH236746   1.334   4.871   2.502
12268TIP3    H136747   1.281   4.890   2.580
12268TIP3    H236748   1.289   4.799   2.459
12269TIP3   OH236749   3.023   2.594   4.117
12269TIP3    H136750   3.008   2.686   4.140
12269TIP3    H236751   2.936   2.554   4.123
12270TIP3   OH236752   0.912   2.937   6.547
12270TIP3    H136753   0.869   2.858   6.514
12270TIP3    H236754   0.916   2.996   6.473
12271TIP3   OH236755   0.141   3.419   6.181
12271TIP3    H136756   0.161   3.503   6.221
12271TIP3    H236757   0.057   3.394   6.219
12272TIP3   OH236758   4.066   4.422   4.924
12272TIP3    H136759   4.097   4.505   4.888
12272TIP3    H236760   4.145   4.375   4.949
12273TIP3   OH236761   4.298   5.350   3.197
12273TIP3    H136762   4.356   5.336   3.123
12273TIP3    H236763   4.231   5.410   3.165
12274TIP3   OH236764   5.404   4.286   5.681
12274TIP3    H136765   5.379   4.371   5.718
12274TIP3    H236766   5.499   4.285   5.683
12275TIP3   OH236767   6.193   3.146   5.783
12275TIP3    H136768   6.149   3.182   5.706
12275TIP3    H236769   6.283   3.180   5.776
12276TIP3   OH236770   5.169   5.049   6.556
12276TIP3    H136771   5.235   5.110   6.588
12276TIP3    H236772   5.145   4.996   6.632
12277TIP3   OH236773   2.942   7.585   5.824
12277TIP3    H136774   2.884   7.639   5.770
12277TIP3    H236775   3.030   7.607   5.793
12278TIP3   OH236776   4.943   1.624   3.663
12278TIP3    H136777   4.887   1.644   3.738
12278TIP3    H236778   4.972   1.709   3.631
12279TIP3   OH236779   2.652   5.930   5.987
12279TIP3    H136780   2.707   5.973   5.922
12279TIP3    H236781   2.564   5.963   5.972
12280TIP3   OH236782   2.046   7.762   2.811
12280TIP3    H136783   2.050   7.840   2.755
12280TIP3    H236784   1.952   7.749   2.826
12281TIP3   OH236785   3.039   3.812   6.553
12281TIP3    H136786   2.955   3.785   6.516
12281TIP3    H236787   3.060   3.894   6.508
12282TIP3   OH236788   4.177   1.544   6.793
12282TIP3    H136789   4.118   1.599   6.741
12282TIP3    H236790   4.161   1.455   6.761
12283TIP3   OH236791   2.018   0.346   1.916
12283TIP3    H136792   2.065   0.392   1.847
12283TIP3    H236793   1.982   0.269   1.873
12284TIP3   OH236794   7.476   2.401   0.987
12284TIP3    H136795   7.434   2.329   1.034
12284TIP3    H236796   7.404   2.446   0.942
12285TIP3   OH236797   2.718   1.581   6.698
12285TIP3    H136798   2.711   1.563   6.792
12285TIP3    H236799   2.628   1.592   6.669
12286TIP3   OH236800   0.743   4.362   4.044
12286TIP3    H136801   0.652   4.362   4.015
12286TIP3    H236802   0.793   4.384   3.965
12287TIP3   OH236803   6.451   0.291   0.706
12287TIP3    H136804   6.397   0.351   0.757
12287TIP3    H236805   6.445   0.208   0.753
12288TIP3   OH236806   3.159   0.438   2.539
12288TIP3    H136807   3.086   0.500   2.542
12288TIP3    H236808   3.122   0.358   2.503
12289TIP3   OH236809   7.538   2.142   5.082
12289TIP3    H136810   7.505   2.222   5.042
12289TIP3    H236811   7.461   2.086   5.092
12290TIP3   OH236812   4.054   2.177   1.210
12290TIP3    H136813   4.037   2.204   1.300
12290TIP3    H236814   4.064   2.259   1.162
12291TIP3   OH236815   7.138   5.632   5.272
12291TIP3    H136816   7.212   5.686   5.298
12291TIP3    H236817   7.126   5.571   5.345
12292TIP3   OH236818   4.704   1.596   4.886
12292TIP3    H136819   4.723   1.577   4.978
12292TIP3    H236820   4.749   1.679   4.869
12293TIP3   OH236821   1.840   1.703   1.017
12293TIP3    H136822   1.744   1.710   1.018
12293TIP3    H236823   1.860   1.638   1.085
12294TIP3   OH236824   0.659   4.347   1.640
12294TIP3    H136825   0.720   4.373   1.572
12294TIP3    H236826   0.617   4.268   1.606
12295TIP3   OH236827   4.066   4.863  -0.024
12295TIP3    H136828   4.007   4.847   0.049
12295TIP3    H236829   4.131   4.924   0.011
12296TIP3   OH236830   4.841   6.479   6.345
12296TIP3    H136831   4.907   6.456   6.411
12296TIP3    H236832   4.884   6.462   6.261
12297TIP3   OH236833   7.768   6.359   1.332
12297TIP3    H136834   7.800   6.385   1.419
12297TIP3    H236835   7.793   6.432   1.275
12298TIP3   OH236836   2.410   5.520   2.533
12298TIP3    H136837   2.466   5.443   2.529
12298TIP3    H236838   2.441   5.569   2.610
12299TIP3   OH236839   2.185   7.557   0.296
12299TIP3    H136840   2.217   7.468   0.313
12299TIP3    H236841   2.095   7.545   0.266
12300TIP3   OH236842   1.442   2.658   5.367
12300TIP3    H136843   1.397   2.573   5.371
12300TIP3    H236844   1.508   2.647   5.297
12301TIP3   OH236845   5.586   5.315   0.815
12301TIP3    H136846   5.614   5.249   0.878
12301TIP3    H236847   5.652   5.384   0.821
12302TIP3   OH236848   5.145   7.134   2.542
12302TIP3    H136849   5.074   7.108   2.601
12302TIP3    H236850   5.134   7.078   2.465
12303TIP3   OH236851   5.092   4.969   0.585
12303TIP3    H136852   5.105   5.064   0.590
12303TIP3    H236853   5.085   4.950   0.492
12304TIP3   OH236854   4.635   3.506   1.011
12304TIP3    H136855   4.560   3.567   1.011
12304TIP3    H236856   4.708   3.558   0.976
12305TIP3   OH236857   0.788   5.401   3.927
12305TIP3    H136858   0.838   5.322   3.947
12305TIP3    H236859   0.708   5.392   3.979
12306TIP3   OH236860   6.507   0.785   1.300
12306TIP3    H136861   6.513   0.864   1.246
12306TIP3    H236862   6.498   0.714   1.237
12307TIP3   OH236863   0.077   5.806   4.426
12307TIP3    H136864   0.040   5.788   4.513
12307TIP3    H236865   0.157   5.754   4.423
12308TIP3   OH236866   1.114   7.572   2.369
12308TIP3    H136867   1.063   7.537   2.443
12308TIP3    H236868   1.049   7.615   2.314
12309TIP3   OH236869   1.841   3.832   5.838
12309TIP3    H136870   1.869   3.924   5.836
12309TIP3    H236871   1.817   3.813   5.747
12310TIP3   OH236872   5.016   4.801   4.038
12310TIP3    H136873   5.014   4.730   3.974
12310TIP3    H236874   5.108   4.814   4.058
12311TIP3   OH236875   4.679   2.117   3.362
12311TIP3    H136876   4.716   2.199   3.329
12311TIP3    H236877   4.724   2.101   3.444
12312TIP3   OH236878   8.218   3.429   1.258
12312TIP3    H136879   8.307   3.418   1.224
12312TIP3    H236880   8.162   3.394   1.189
12313TIP3   OH236881   4.050   0.402   4.839
12313TIP3    H136882   4.015   0.384   4.752
12313TIP3    H236883   4.008   0.484   4.865
12314TIP3   OH236884   5.960   2.157   2.047
12314TIP3    H136885   5.997   2.165   1.959
12314TIP3    H236886   6.023   2.104   2.095
12315TIP3   OH236887   6.344   5.998   5.989
12315TIP3    H136888   6.258   6.036   6.007
12315TIP3    H236889   6.334   5.955   5.904
12316TIP3   OH236890   3.674   0.070   3.881
12316TIP3    H136891   3.609   0.138   3.867
12316TIP3    H236892   3.629  -0.011   3.857
12317TIP3   OH236893   5.836   5.161   4.770
12317TIP3    H136894   5.838   5.224   4.698
12317TIP3    H236895   5.846   5.075   4.728
12318TIP3   OH236896   7.285   7.087   4.689
12318TIP3    H136897   7.257   7.132   4.610
12318TIP3    H236898   7.367   7.130   4.713
12319TIP3   OH236899   2.294   3.181   2.145
12319TIP3    H136900   2.375   3.130   2.154
12319TIP3    H236901   2.322   3.272   2.145
12320TIP3   OH236902   0.599   2.057   0.160
12320TIP3    H136903   0.513   2.099   0.167
12320TIP3    H236904   0.591   1.977   0.211
12321TIP3   OH236905   5.631   4.712   3.316
12321TIP3    H136906   5.704   4.669   3.272
12321TIP3    H236907   5.672   4.783   3.366
12322TIP3   OH236908   0.465   1.278   1.916
12322TIP3    H136909   0.520   1.214   1.872
12322TIP3    H236910   0.526   1.336   1.960
12323TIP3   OH236911   2.080   3.542   3.652
12323TIP3    H136912   2.062   3.502   3.737
12323TIP3    H236913   1.998   3.585   3.629
12324TIP3   OH236914   3.307   3.739   1.178
12324TIP3    H136915   3.356   3.662   1.208
12324TIP3    H236916   3.349   3.764   1.096
12325TIP3   OH236917   7.772   5.295   3.419
12325TIP3    H136918   7.774   5.237   3.495
12325TIP3    H236919   7.740   5.378   3.453
12326TIP3   OH236920   1.553   5.875   0.529
12326TIP3    H136921   1.593   5.891   0.443
12326TIP3    H236922   1.614   5.816   0.573
12327TIP3   OH236923   0.549   6.857   4.173
12327TIP3    H136924   0.561   6.763   4.160
12327TIP3    H236925   0.638   6.892   4.174
12328TIP3   OH236926   2.789   3.540   1.750
12328TIP3    H136927   2.834   3.455   1.749
12328TIP3    H236928   2.860   3.604   1.753
12329TIP3   OH236929   3.194   4.213   6.615
12329TIP3    H136930   3.179   4.292   6.564
12329TIP3    H236931   3.267   4.235   6.673
12330TIP3   OH236932   2.740   5.839   3.265
12330TIP3    H136933   2.678   5.776   3.302
12330TIP3    H236934   2.810   5.845   3.330
12331TIP3   OH236935   7.672   0.730   4.655
12331TIP3    H136936   7.672   0.719   4.750
12331TIP3    H236937   7.583   0.707   4.628
12332TIP3   OH236938   6.906   1.760   6.638
12332TIP3    H136939   6.984   1.815   6.646
12332TIP3    H236940   6.927   1.700   6.566
12333TIP3   OH236941   1.469   1.775   4.034
12333TIP3    H136942   1.483   1.864   4.002
12333TIP3    H236943   1.411   1.785   4.110
12334TIP3   OH236944   0.520   0.199   3.477
12334TIP3    H136945   0.581   0.237   3.540
12334TIP3    H236946   0.513   0.107   3.503
12335TIP3   OH236947   4.942   5.523   3.809
12335TIP3    H136948   4.913   5.433   3.828
12335TIP3    H236949   5.014   5.538   3.870
12336TIP3   OH236950   7.707   4.125   6.167
12336TIP3    H136951   7.613   4.108   6.173
12336TIP3    H236952   7.746   4.067   6.233
12337TIP3   OH236953   4.734   4.397   5.511
12337TIP3    H136954   4.788   4.473   5.488
12337TIP3    H236955   4.798   4.329   5.534
12338TIP3   OH236956   6.281   1.695   0.079
12338TIP3    H136957   6.309   1.618   0.030
12338TIP3    H236958   6.279   1.766   0.014
12339TIP3   OH236959   6.049   6.844   3.798
12339TIP3    H136960   6.005   6.901   3.736
12339TIP3    H236961   6.068   6.900   3.873
12340TIP3   OH236962   1.533   6.263   6.184
12340TIP3    H136963   1.567   6.240   6.271
12340TIP3    H236964   1.438   6.257   6.192
12341TIP3   OH236965   2.401   0.934   1.750
12341TIP3    H136966   2.350   1.013   1.732
12341TIP3    H236967   2.436   0.949   1.838
12342TIP3   OH236968   3.417   1.785   3.418
12342TIP3    H136969   3.470   1.719   3.463
12342TIP3    H236970   3.327   1.759   3.435
12343TIP3   OH236971   3.832   1.567   2.857
12343TIP3    H136972   3.796   1.519   2.932
12343TIP3    H236973   3.922   1.536   2.849
12344TIP3   OH236974   1.041   1.123   5.681
12344TIP3    H136975   0.974   1.080   5.628
12344TIP3    H236976   1.116   1.132   5.622
12345TIP3   OH236977   2.639   6.518   3.858
12345TIP3    H136978   2.564   6.576   3.872
12345TIP3    H236979   2.606   6.452   3.797
12346TIP3   OH236980   4.826   7.733   2.713
12346TIP3    H136981   4.834   7.826   2.733
12346TIP3    H236982   4.889   7.718   2.643
12347TIP3   OH236983   8.036   0.097   1.216
12347TIP3    H136984   8.039   0.037   1.141
12347TIP3    H236985   7.962   0.155   1.197
12348TIP3   OH236986   5.530   4.754   1.870
12348TIP3    H136987   5.583   4.710   1.937
12348TIP3    H236988   5.467   4.805   1.920
12349TIP3   OH236989   2.677   0.265   4.265
12349TIP3    H136990   2.591   0.302   4.245
12349TIP3    H236991   2.671   0.236   4.356
12350TIP3   OH236992   6.772   7.510  -0.014
12350TIP3    H136993   6.832   7.584  -0.015
12350TIP3    H236994   6.746   7.501   0.078
12351TIP3   OH236995   4.062   1.322   5.233
12351TIP3    H136996   4.024   1.244   5.273
12351TIP3    H236997   4.138   1.343   5.287
12352TIP3   OH236998   2.814   5.922   6.551
12352TIP3    H136999   2.822   5.912   6.456
12352TIP3    H237000   2.729   5.963   6.564
12353TIP3   OH237001   6.862   5.154   0.228
12353TIP3    H137002   6.895   5.098   0.158
12353TIP3    H237003   6.776   5.183   0.198
12354TIP3   OH237004   2.406   1.679   0.057
12354TIP3    H137005   2.409   1.618   0.131
12354TIP3    H237006   2.378   1.626  -0.017
12355TIP3   OH237007   2.669   1.023   3.246
12355TIP3    H137008   2.704   1.099   3.200
12355TIP3    H237009   2.665   1.050   3.338
12356TIP3   OH237010   6.356   3.098   4.798
12356TIP3    H137011   6.362   3.194   4.806
12356TIP3    H237012   6.309   3.085   4.715
12357TIP3   OH237013   1.499   3.387   0.702
12357TIP3    H137014   1.422   3.361   0.753
12357TIP3    H237015   1.545   3.449   0.758
12358TIP3   OH237016   6.103   0.071   3.861
12358TIP3    H137017   6.013   0.100   3.871
12358TIP3    H237018   6.116   0.063   3.766
12359TIP3   OH237019   3.178   1.372   6.254
12359TIP3    H137020   3.139   1.419   6.181
12359TIP3    H237021   3.247   1.319   6.215
12360TIP3   OH237022   0.190   4.900   4.985
12360TIP3    H137023   0.264   4.840   5.000
12360TIP3    H237024   0.118   4.842   4.959
12361TIP3   OH237025   4.597   1.194   5.543
12361TIP3    H137026   4.611   1.186   5.637
12361TIP3    H237027   4.627   1.110   5.508
12362TIP3   OH237028   3.368   7.344   2.468
12362TIP3    H137029   3.420   7.278   2.515
12362TIP3    H237030   3.295   7.363   2.527
12363TIP3   OH237031   5.200   7.058   1.701
12363TIP3    H137032   5.219   7.120   1.772
12363TIP3    H237033   5.118   7.090   1.662
12364TIP3   OH237034   3.335   6.493   1.004
12364TIP3    H137035   3.339   6.579   1.046
12364TIP3    H237036   3.250   6.458   1.029
12365TIP3   OH237037   2.571   7.769   0.653
12365TIP3    H137038   2.491   7.750   0.603
12365TIP3    H237039   2.614   7.684   0.660
12366TIP3   OH237040   3.025   5.418   3.415
12366TIP3    H137041   3.053   5.508   3.402
12366TIP3    H237042   2.945   5.410   3.363
12367TIP3   OH237043   7.038   6.444   0.947
12367TIP3    H137044   7.024   6.392   1.026
12367TIP3    H237045   7.049   6.533   0.978
12368TIP3   OH237046   3.948   4.620   6.491
12368TIP3    H137047   4.020   4.606   6.430
12368TIP3    H237048   3.969   4.701   6.535
12369TIP3   OH237049   1.699   6.773   5.434
12369TIP3    H137050   1.726   6.796   5.345
12369TIP3    H237051   1.606   6.752   5.425
12370TIP3   OH237052   2.831   1.805   3.045
12370TIP3    H137053   2.898   1.790   2.978
12370TIP3    H237054   2.827   1.900   3.054
12371TIP3   OH237055   0.649   1.306   6.202
12371TIP3    H137056   0.729   1.353   6.225
12371TIP3    H237057   0.648   1.305   6.106
12372TIP3   OH237058   6.346   0.676   2.442
12372TIP3    H137059   6.425   0.665   2.389
12372TIP3    H237060   6.319   0.766   2.427
12373TIP3   OH237061   4.660   0.617   1.150
12373TIP3    H137062   4.628   0.527   1.139
12373TIP3    H237063   4.581   0.671   1.146
12374TIP3   OH237064   4.737   5.513   1.204
12374TIP3    H137065   4.781   5.570   1.141
12374TIP3    H237066   4.802   5.446   1.225
12375TIP3   OH237067   3.866   0.138   4.100
12375TIP3    H137068   3.843   0.231   4.093
12375TIP3    H237069   3.829   0.098   4.021
12376TIP3   OH237070   1.197   7.086   5.975
12376TIP3    H137071   1.279   7.124   5.944
12376TIP3    H237072   1.212   6.991   5.974
12377TIP3   OH237073   5.990   2.817   5.925
12377TIP3    H137074   5.950   2.801   5.839
12377TIP3    H237075   6.013   2.910   5.923
12378TIP3   OH237076   1.976   4.641   6.130
12378TIP3    H137077   2.031   4.708   6.087
12378TIP3    H237078   2.021   4.623   6.212
12379TIP3   OH237079   8.137   1.544   6.591
12379TIP3    H137080   8.156   1.630   6.555
12379TIP3    H237081   8.147   1.555   6.686
12380TIP3   OH237082   4.802   5.096   1.214
12380TIP3    H137083   4.713   5.129   1.222
12380TIP3    H237084   4.805   5.052   1.129
12381TIP3   OH237085   1.998   2.259   6.202
12381TIP3    H137086   2.081   2.215   6.183
12381TIP3    H237087   2.000   2.273   6.297
12382TIP3   OH237088   4.812   1.555   1.202
12382TIP3    H137089   4.748   1.487   1.218
12382TIP3    H237090   4.896   1.517   1.229
12383TIP3   OH237091   0.207   7.535   1.408
12383TIP3    H137092   0.285   7.583   1.381
12383TIP3    H237093   0.155   7.527   1.328
12384TIP3   OH237094   4.255   2.190   4.000
12384TIP3    H137095   4.253   2.149   3.913
12384TIP3    H237096   4.203   2.271   3.990
12385TIP3   OH237097   6.324   3.149   3.890
12385TIP3    H137098   6.340   3.067   3.937
12385TIP3    H237099   6.229   3.162   3.895
12386TIP3   OH237100   3.614   3.706   0.382
12386TIP3    H137101   3.547   3.703   0.313
12386TIP3    H237102   3.695   3.726   0.335
12387TIP3   OH237103   2.636   0.211   6.670
12387TIP3    H137104   2.662   0.297   6.636
12387TIP3    H237105   2.595   0.168   6.594
12388TIP3   OH237106   1.246   4.116   4.191
12388TIP3    H137107   1.158   4.154   4.189
12388TIP3    H237108   1.273   4.111   4.100
12389TIP3   OH237109   3.295   1.366   4.457
12389TIP3    H137110   3.241   1.311   4.400
12389TIP3    H237111   3.240   1.383   4.533
12390TIP3   OH237112   1.534   5.773   4.659
12390TIP3    H137113   1.581   5.748   4.739
12390TIP3    H237114   1.589   5.841   4.619
12391TIP3   OH237115   4.403   0.744   4.741
12391TIP3    H137116   4.345   0.820   4.741
12391TIP3    H237117   4.375   0.692   4.666
12392TIP3   OH237118   4.141   4.323   6.379
12392TIP3    H137119   4.072   4.296   6.317
12392TIP3    H237120   4.097   4.326   6.464
12393TIP3   OH237121   4.534   5.541   5.898
12393TIP3    H137122   4.624   5.549   5.866
12393TIP3    H237123   4.535   5.582   5.984
12394TIP3   OH237124   3.125   6.815   1.725
12394TIP3    H137125   3.126   6.834   1.631
12394TIP3    H237126   3.155   6.724   1.731
12395TIP3   OH237127   6.434   2.143   2.952
12395TIP3    H137128   6.521   2.168   2.982
12395TIP3    H237129   6.444   2.052   2.922
12396TIP3   OH237130   1.878   0.043   3.294
12396TIP3    H137131   1.822  -0.033   3.281
12396TIP3    H237132   1.867   0.094   3.213
12397TIP3   OH237133   7.441   1.833   2.616
12397TIP3    H137134   7.387   1.780   2.556
12397TIP3    H237135   7.516   1.777   2.635
12398TIP3   OH237136   6.286   5.630   1.186
12398TIP3    H137137   6.319   5.653   1.099
12398TIP3    H237138   6.342   5.679   1.247
12399TIP3   OH237139   3.552   6.021   2.472
12399TIP3    H137140   3.592   6.012   2.386
12399TIP3    H237141   3.567   5.936   2.514
12400TIP3   OH237142   1.840   7.177   6.168
12400TIP3    H137143   1.771   7.202   6.229
12400TIP3    H237144   1.864   7.258   6.124
12401TIP3   OH237145   1.096   0.814   5.077
12401TIP3    H137146   1.152   0.814   5.154
12401TIP3    H237147   1.154   0.840   5.005
12402TIP3   OH237148   1.358   3.868   0.320
12402TIP3    H137149   1.412   3.838   0.393
12402TIP3    H237150   1.385   3.811   0.247
12403TIP3   OH237151   4.014   6.149   1.927
12403TIP3    H137152   4.101   6.118   1.951
12403TIP3    H237153   3.969   6.163   2.010
12404TIP3   OH237154   0.858   4.113   2.282
12404TIP3    H137155   0.949   4.142   2.293
12404TIP3    H237156   0.851   4.036   2.338
12405TIP3   OH237157   2.900   3.163   1.939
12405TIP3    H137158   2.902   3.068   1.929
12405TIP3    H237159   2.909   3.197   1.850
12406TIP3   OH237160   5.772   3.371   6.706
12406TIP3    H137161   5.868   3.374   6.711
12406TIP3    H237162   5.743   3.368   6.797
12407TIP3   OH237163   1.572   0.105   0.047
12407TIP3    H137164   1.512   0.179   0.056
12407TIP3    H237165   1.588   0.077   0.137
12408TIP3   OH237166   4.991   1.510   3.327
12408TIP3    H137167   5.066   1.570   3.326
12408TIP3    H237168   4.927   1.552   3.385
12409TIP3   OH237169   1.354   0.925   4.050
12409TIP3    H137170   1.287   0.866   4.085
12409TIP3    H237171   1.367   0.989   4.120
12410TIP3   OH237172   3.505   2.365   2.574
12410TIP3    H137173   3.517   2.455   2.543
12410TIP3    H237174   3.571   2.314   2.527
12411TIP3   OH237175   6.281   3.886   4.098
12411TIP3    H137176   6.261   3.804   4.143
12411TIP3    H237177   6.201   3.906   4.047
12412TIP3   OH237178   4.032   1.502   2.170
12412TIP3    H137179   4.125   1.478   2.174
12412TIP3    H237180   4.028   1.575   2.109
12413TIP3   OH237181   0.615   0.002   3.225
12413TIP3    H137182   0.672   0.009   3.149
12413TIP3    H237183   0.583   0.091   3.240
12414TIP3   OH237184   6.961   3.704   0.071
12414TIP3    H137185   6.891   3.738   0.015
12414TIP3    H237186   6.964   3.765   0.145
12415TIP3   OH237187   4.682   6.299   4.287
12415TIP3    H137188   4.632   6.350   4.222
12415TIP3    H237189   4.680   6.354   4.366
12416TIP3   OH237190   5.305   0.547   5.032
12416TIP3    H137191   5.367   0.556   4.960
12416TIP3    H237192   5.327   0.617   5.092
12417TIP3   OH237193   1.249   2.436   0.641
12417TIP3    H137194   1.202   2.369   0.690
12417TIP3    H237195   1.342   2.419   0.661
12418TIP3   OH237196   7.105   4.174   0.394
12418TIP3    H137197   7.196   4.206   0.391
12418TIP3    H237198   7.059   4.226   0.328
12419TIP3   OH237199   1.205   0.927   1.471
12419TIP3    H137200   1.268   0.997   1.484
12419TIP3    H237201   1.120   0.971   1.466
12420TIP3   OH237202   6.795   0.312   0.106
12420TIP3    H137203   6.742   0.388   0.127
12420TIP3    H237204   6.797   0.309   0.010
12421TIP3   OH237205   0.116   3.070   1.755
12421TIP3    H137206   0.208   3.091   1.741
12421TIP3    H237207   0.093   3.012   1.683
12422TIP3   OH237208   3.891   2.127   0.869
12422TIP3    H137209   3.977   2.166   0.888
12422TIP3    H237210   3.834   2.202   0.852
12423TIP3   OH237211   3.705   4.345   2.773
12423TIP3    H137212   3.673   4.403   2.841
12423TIP3    H237213   3.680   4.387   2.691
12424TIP3   OH237214   6.719   6.318   2.392
12424TIP3    H137215   6.665   6.382   2.345
12424TIP3    H237216   6.809   6.349   2.379
12425TIP3   OH237217   3.149   6.089   3.433
12425TIP3    H137218   3.171   6.066   3.524
12425TIP3    H237219   3.081   6.156   3.442
12426TIP3   OH237220   2.465   1.473   2.819
12426TIP3    H137221   2.472   1.536   2.890
12426TIP3    H237222   2.556   1.452   2.797
12427TIP3   OH237223   3.384   1.378   1.735
12427TIP3    H137224   3.408   1.287   1.754
12427TIP3    H237225   3.468   1.424   1.734
12428TIP3   OH237226   1.010   1.300   5.989
12428TIP3    H137227   1.091   1.280   5.942
12428TIP3    H237228   0.990   1.391   5.964
12429TIP3   OH237229   3.203   6.899   0.906
12429TIP3    H137230   3.115   6.877   0.934
12429TIP3    H237231   3.260   6.867   0.976
12430TIP3   OH237232   0.175   0.291   2.151
12430TIP3    H137233   0.104   0.312   2.090
12430TIP3    H237234   0.244   0.354   2.130
12431TIP3   OH237235   7.681   6.789   2.597
12431TIP3    H137236   7.759   6.819   2.644
12431TIP3    H237237   7.710   6.777   2.507
12432TIP3   OH237238   4.582   2.381   3.615
12432TIP3    H137239   4.578   2.335   3.699
12432TIP3    H237240   4.622   2.317   3.555
12433TIP3   OH237241   8.259   2.403   2.363
12433TIP3    H137242   8.241   2.355   2.283
12433TIP3    H237243   8.200   2.477   2.361
12434TIP3   OH237244   3.436   1.723   2.826
12434TIP3    H137245   3.436   1.731   2.922
12434TIP3    H237246   3.446   1.813   2.795
12435TIP3   OH237247   3.416   3.926   6.276
12435TIP3    H137248   3.383   3.849   6.323
12435TIP3    H237249   3.446   3.985   6.345
12436TIP3   OH237250   3.120   1.025   5.134
12436TIP3    H137251   3.199   1.046   5.084
12436TIP3    H237252   3.054   1.085   5.101
12437TIP3   OH237253   3.534   5.241   3.371
12437TIP3    H137254   3.445   5.242   3.406
12437TIP3    H237255   3.567   5.330   3.387
12438TIP3   OH237256   3.275   4.798   2.371
12438TIP3    H137257   3.210   4.868   2.372
12438TIP3    H237258   3.344   4.830   2.314
12439TIP3   OH237259   3.725   1.821   1.326
12439TIP3    H137260   3.646   1.776   1.296
12439TIP3    H237261   3.753   1.873   1.250
12440TIP3   OH237262   2.318   0.645   5.255
12440TIP3    H137263   2.272   0.677   5.178
12440TIP3    H237264   2.374   0.574   5.223
12441TIP3   OH237265   3.605   4.853   2.792
12441TIP3    H137266   3.670   4.888   2.731
12441TIP3    H237267   3.656   4.823   2.867
12442TIP3   OH237268   3.826   4.814   2.229
12442TIP3    H137269   3.824   4.905   2.200
12442TIP3    H237270   3.862   4.766   2.155
12443TIP3   OH237271   5.208   4.625   3.624
12443TIP3    H137272   5.250   4.541   3.605
12443TIP3    H237273   5.281   4.686   3.636
12444TIP3   OH237274   7.754   1.704   3.928
12444TIP3    H137275   7.823   1.713   3.994
12444TIP3    H237276   7.795   1.655   3.857
12445TIP3   OH237277   1.757   3.270   6.560
12445TIP3    H137278   1.800   3.203   6.613
12445TIP3    H237279   1.826   3.333   6.540
12446TIP3   OH237280   7.797   4.570   4.800
12446TIP3    H137281   7.782   4.502   4.734
12446TIP3    H237282   7.845   4.638   4.753
12447TIP3   OH237283  -0.055   6.059   3.135
12447TIP3    H137284   0.036   6.063   3.106
12447TIP3    H237285  -0.100   6.122   3.079
12448TIP3   OH237286   1.509   2.974   6.042
12448TIP3    H137287   1.463   2.966   5.958
12448TIP3    H237288   1.462   3.043   6.088
12449TIP3   OH237289   5.458   2.101   5.363
12449TIP3    H137290   5.404   2.116   5.441
12449TIP3    H237291   5.460   2.006   5.353
12450TIP3   OH237292   0.072   3.402   4.284
12450TIP3    H137293   0.080   3.315   4.323
12450TIP3    H237294   0.114   3.393   4.198
12451TIP3   OH237295   4.819   7.320   0.219
12451TIP3    H137296   4.725   7.328   0.205
12451TIP3    H237297   4.844   7.240   0.173
12452TIP3   OH237298   3.534   4.184   3.322
12452TIP3    H137299   3.451   4.144   3.347
12452TIP3    H237300   3.535   4.268   3.368
12453TIP3   OH237301   1.470   5.861   2.975
12453TIP3    H137302   1.391   5.839   2.925
12453TIP3    H237303   1.461   5.954   2.996
12454TIP3   OH237304   6.500   5.614   2.230
12454TIP3    H137305   6.490   5.617   2.135
12454TIP3    H237306   6.524   5.524   2.249
12455TIP3   OH237307   1.028   3.048   1.464
12455TIP3    H137308   1.103   3.107   1.459
12455TIP3    H237309   1.065   2.960   1.464
12456TIP3   OH237310   2.840   0.652   6.267
12456TIP3    H137311   2.807   0.652   6.177
12456TIP3    H237312   2.800   0.575   6.307
12457TIP3   OH237313   4.190   6.079   1.491
12457TIP3    H137314   4.212   6.097   1.400
12457TIP3    H237315   4.198   6.163   1.535
12458TIP3   OH237316   5.822   4.220   2.204
12458TIP3    H137317   5.800   4.271   2.282
12458TIP3    H237318   5.739   4.182   2.175
12459TIP3   OH237319   4.829   2.472   5.728
12459TIP3    H137320   4.877   2.410   5.673
12459TIP3    H237321   4.897   2.514   5.781
12460TIP3   OH237322   8.218   1.993   5.137
12460TIP3    H137323   8.210   1.971   5.044
12460TIP3    H237324   8.209   1.910   5.183
12461TIP3   OH237325   3.862   4.005   4.427
12461TIP3    H137326   3.897   4.044   4.507
12461TIP3    H237327   3.786   4.059   4.405
12462TIP3   OH237328   2.855   2.459   5.921
12462TIP3    H137329   2.892   2.398   5.984
12462TIP3    H237330   2.760   2.448   5.931
12463TIP3   OH237331   1.807   3.241   5.927
12463TIP3    H137332   1.733   3.276   5.976
12463TIP3    H237333   1.790   3.147   5.922
12464TIP3   OH237334   1.098   1.644   2.373
12464TIP3    H137335   1.079   1.727   2.331
12464TIP3    H237336   1.073   1.657   2.465
12465TIP3   OH237337   1.557   1.687   1.929
12465TIP3    H137338   1.626   1.646   1.982
12465TIP3    H237339   1.477   1.670   1.977
12466TIP3   OH237340   1.090   7.212   6.563
12466TIP3    H137341   1.168   7.246   6.519
12466TIP3    H237342   1.017   7.236   6.505
12467TIP3   OH237343   2.702   2.063   1.614
12467TIP3    H137344   2.641   2.015   1.557
12467TIP3    H237345   2.726   2.139   1.562
12468TIP3   OH237346   1.994   6.883   3.869
12468TIP3    H137347   2.076   6.834   3.875
12468TIP3    H237348   1.960   6.863   3.781
12469TIP3   OH237349   0.383   6.231   0.091
12469TIP3    H137350   0.345   6.143   0.099
12469TIP3    H237351   0.389   6.246  -0.003
12470TIP3   OH237352   6.504   2.669   2.919
12470TIP3    H137353   6.461   2.584   2.930
12470TIP3    H237354   6.442   2.732   2.955
12471TIP3   OH237355   4.179   0.397   2.408
12471TIP3    H137356   4.189   0.492   2.402
12471TIP3    H237357   4.112   0.376   2.344
12472TIP3   OH237358   6.870   0.176   4.092
12472TIP3    H137359   6.878   0.091   4.048
12472TIP3    H237360   6.861   0.153   4.185
12473TIP3   OH237361   2.237   4.641   2.403
12473TIP3    H137362   2.282   4.719   2.370
12473TIP3    H237363   2.276   4.568   2.356
12474TIP3   OH237364   6.796   0.108   5.130
12474TIP3    H137365   6.741   0.054   5.186
12474TIP3    H237366   6.858   0.046   5.091
12475TIP3   OH237367   6.527   5.571   5.250
12475TIP3    H137368   6.573   5.582   5.334
12475TIP3    H237369   6.575   5.501   5.206
12476TIP3   OH237370   7.998   1.946   4.252
12476TIP3    H137371   7.964   1.947   4.342
12476TIP3    H237372   8.088   1.917   4.261
12477TIP3   OH237373   5.146   2.273   4.377
12477TIP3    H137374   5.227   2.259   4.426
12477TIP3    H237375   5.140   2.198   4.318
12478TIP3   OH237376   5.586   6.370   5.053
12478TIP3    H137377   5.584   6.443   5.115
12478TIP3    H237378   5.500   6.329   5.063
12479TIP3   OH237379   1.021   1.940   5.233
12479TIP3    H137380   1.058   1.983   5.156
12479TIP3    H237381   1.044   1.848   5.223
12480TIP3   OH237382   5.746   1.258   4.054
12480TIP3    H137383   5.826   1.297   4.022
12480TIP3    H237384   5.677   1.293   3.998
12481TIP3   OH237385   3.106   5.236   4.440
12481TIP3    H137386   3.056   5.280   4.509
12481TIP3    H237387   3.176   5.191   4.487
12482TIP3   OH237388   2.264   3.199   6.582
12482TIP3    H137389   2.331   3.200   6.651
12482TIP3    H237390   2.275   3.114   6.539
12483TIP3   OH237391   0.513   2.464   1.301
12483TIP3    H137392   0.418   2.448   1.306
12483TIP3    H237393   0.550   2.403   1.364
12484TIP3   OH237394   0.980   2.155   5.611
12484TIP3    H137395   0.999   2.237   5.566
12484TIP3    H237396   0.913   2.113   5.557
12485TIP3   OH237397   7.378   1.787   2.149
12485TIP3    H137398   7.286   1.792   2.173
12485TIP3    H237399   7.388   1.850   2.078
12486TIP3   OH237400   2.555   0.655   4.103
12486TIP3    H137401   2.588   0.611   4.024
12486TIP3    H237402   2.624   0.642   4.168
12487TIP3   OH237403   7.979   6.076   3.394
12487TIP3    H137404   7.976   6.078   3.299
12487TIP3    H237405   8.052   6.019   3.415
12488TIP3   OH237406   7.721   2.299   4.262
12488TIP3    H137407   7.813   2.291   4.286
12488TIP3    H237408   7.697   2.388   4.286
12489TIP3   OH237409   7.223   3.922   2.533
12489TIP3    H137410   7.138   3.955   2.562
12489TIP3    H237411   7.224   3.938   2.439
12490TIP3   OH237412   5.783   2.733   2.799
12490TIP3    H137413   5.789   2.818   2.755
12490TIP3    H237414   5.791   2.753   2.892
12491TIP3   OH237415   6.062   2.410   4.708
12491TIP3    H137416   6.059   2.387   4.800
12491TIP3    H237417   6.137   2.469   4.700
12492TIP3   OH237418   0.604   5.076   3.065
12492TIP3    H137419   0.611   5.089   2.970
12492TIP3    H237420   0.510   5.066   3.080
12493TIP3   OH237421   0.361   5.441   2.826
12493TIP3    H137422   0.301   5.381   2.781
12493TIP3    H237423   0.423   5.468   2.758
12494TIP3   OH237424   0.932   7.488   2.564
12494TIP3    H137425   0.889   7.566   2.597
12494TIP3    H237426   0.993   7.463   2.633
12495TIP3   OH237427   5.756   4.848   3.709
12495TIP3    H137428   5.831   4.906   3.717
12495TIP3    H237429   5.706   4.882   3.635
12496TIP3   OH237430   7.373   6.778   6.463
12496TIP3    H137431   7.398   6.739   6.547
12496TIP3    H237432   7.386   6.708   6.399
12497TIP3   OH237433   6.299   4.835   2.397
12497TIP3    H137434   6.244   4.759   2.417
12497TIP3    H237435   6.378   4.821   2.450
12498TIP3   OH237436   5.594   5.403   4.933
12498TIP3    H137437   5.560   5.384   4.845
12498TIP3    H237438   5.626   5.319   4.965
12499TIP3   OH237439   4.653   0.486   3.872
12499TIP3    H137440   4.640   0.457   3.781
12499TIP3    H237441   4.748   0.494   3.881
12500TIP3   OH237442   7.503   5.867   4.260
12500TIP3    H137443   7.518   5.828   4.174
12500TIP3    H237444   7.515   5.795   4.322
12501TIP3   OH237445   7.694   0.199   1.478
12501TIP3    H137446   7.619   0.210   1.536
12501TIP3    H237447   7.737   0.284   1.477
12502TIP3   OH237448   5.060   1.120   0.877
12502TIP3    H137449   5.040   1.040   0.926
12502TIP3    H237450   5.134   1.159   0.924
12503TIP3   OH237451   5.557   1.989   3.262
12503TIP3    H137452   5.567   1.931   3.186
12503TIP3    H237453   5.521   1.932   3.330
12504TIP3   OH237454   2.437   2.133   0.646
12504TIP3    H137455   2.442   2.114   0.552
12504TIP3    H237456   2.440   2.228   0.652
12505TIP3   OH237457   8.008   2.437   1.524
12505TIP3    H137458   7.964   2.460   1.606
12505TIP3    H237459   7.976   2.502   1.461
12506TIP3   OH237460   3.282   3.122   5.258
12506TIP3    H137461   3.237   3.168   5.328
12506TIP3    H237462   3.337   3.188   5.217
12507TIP3   OH237463   6.623   2.300   3.647
12507TIP3    H137464   6.686   2.247   3.696
12507TIP3    H237465   6.538   2.275   3.681
12508TIP3   OH237466   2.261   6.178   5.185
12508TIP3    H137467   2.263   6.269   5.215
12508TIP3    H237468   2.354   6.154   5.175
12509TIP3   OH237469   0.389   3.734   1.481
12509TIP3    H137470   0.473   3.779   1.471
12509TIP3    H237471   0.359   3.718   1.391
12510TIP3   OH237472   4.890   1.126   2.044
12510TIP3    H137473   4.797   1.146   2.029
12510TIP3    H237474   4.930   1.211   2.061
12511TIP3   OH237475   7.738   0.614   3.419
12511TIP3    H137476   7.669   0.679   3.405
12511TIP3    H237477   7.813   0.647   3.371
12512TIP3   OH237478   0.511   6.638   1.155
12512TIP3    H137479   0.503   6.543   1.145
12512TIP3    H237480   0.442   6.662   1.217
12513TIP3   OH237481   4.565   1.894   0.206
12513TIP3    H137482   4.623   1.877   0.131
12513TIP3    H237483   4.607   1.967   0.252
12514TIP3   OH237484   0.561   1.604   2.033
12514TIP3    H137485   0.595   1.658   2.104
12514TIP3    H237486   0.638   1.561   1.997
12515TIP3   OH237487   8.103   2.143   3.360
12515TIP3    H137488   8.020   2.098   3.346
12515TIP3    H237489   8.080   2.236   3.361
12516TIP3   OH237490   5.234   6.406   2.255
12516TIP3    H137491   5.173   6.370   2.320
12516TIP3    H237492   5.320   6.373   2.283
12517TIP3   OH237493   0.571   2.892   5.571
12517TIP3    H137494   0.665   2.891   5.591
12517TIP3    H237495   0.542   2.803   5.590
12518TIP3   OH237496   7.812   0.524   1.555
12518TIP3    H137497   7.822   0.589   1.624
12518TIP3    H237498   7.901   0.506   1.526
12519TIP3   OH237499   3.882   6.479   5.931
12519TIP3    H137500   3.908   6.568   5.956
12519TIP3    H237501   3.842   6.442   6.010
12520TIP3   OH237502   6.611   3.843   4.572
12520TIP3    H137503   6.605   3.776   4.504
12520TIP3    H237504   6.559   3.809   4.644
12521TIP3   OH237505   3.489   5.171   1.954
12521TIP3    H137506   3.476   5.231   2.028
12521TIP3    H237507   3.575   5.194   1.920
12522TIP3   OH237508   6.529   3.832   5.057
12522TIP3    H137509   6.592   3.784   5.111
12522TIP3    H237510   6.522   3.779   4.977
12523TIP3   OH237511   5.341   5.262   6.627
12523TIP3    H137512   5.432   5.259   6.656
12523TIP3    H237513   5.342   5.317   6.549
12524TIP3   OH237514   0.809   0.713   0.903
12524TIP3    H137515   0.862   0.774   0.955
12524TIP3    H237516   0.824   0.741   0.812
12525TIP3   OH237517   0.892   0.413   3.380
12525TIP3    H137518   0.828   0.366   3.433
12525TIP3    H237519   0.968   0.423   3.438
12526TIP3   OH237520   7.357   0.665   5.650
12526TIP3    H137521   7.362   0.578   5.612
12526TIP3    H237522   7.289   0.658   5.718
12527TIP3   OH237523   5.576   2.707   2.371
12527TIP3    H137524   5.535   2.629   2.407
12527TIP3    H237525   5.513   2.777   2.386
12528TIP3   OH237526   1.158   1.778   3.200
12528TIP3    H137527   1.132   1.870   3.206
12528TIP3    H237528   1.107   1.734   3.269
12529TIP3   OH237529   3.555   6.915   3.043
12529TIP3    H137530   3.579   6.837   3.094
12529TIP3    H237531   3.528   6.881   2.958
12530TIP3   OH237532   1.196   1.865   0.637
12530TIP3    H137533   1.153   1.799   0.583
12530TIP3    H237534   1.278   1.823   0.665
12531TIP3   OH237535   1.381   6.080   3.871
12531TIP3    H137536   1.423   6.151   3.919
12531TIP3    H237537   1.439   6.064   3.796
12532TIP3   OH237538   4.532   5.734   0.303
12532TIP3    H137539   4.620   5.750   0.338
12532TIP3    H237540   4.544   5.739   0.208
12533TIP3   OH237541   0.343   3.914   4.086
12533TIP3    H137542   0.282   3.941   4.155
12533TIP3    H237543   0.326   3.975   4.014
12534TIP3   OH237544   5.000   4.877   5.415
12534TIP3    H137545   4.911   4.875   5.379
12534TIP3    H237546   5.005   4.960   5.462
12535TIP3   OH237547   2.713   6.095   5.746
12535TIP3    H137548   2.747   6.182   5.726
12535TIP3    H237549   2.775   6.035   5.705
12536TIP3   OH237550   6.334   0.930   4.482
12536TIP3    H137551   6.261   0.988   4.460
12536TIP3    H237552   6.331   0.861   4.416
12537TIP3   OH237553   2.463   0.247   1.206
12537TIP3    H137554   2.467   0.255   1.302
12537TIP3    H237555   2.520   0.317   1.174
12538TIP3   OH237556   6.411   7.444   5.198
12538TIP3    H137557   6.371   7.423   5.282
12538TIP3    H237558   6.390   7.537   5.184
12539TIP3   OH237559   4.691   4.292   3.105
12539TIP3    H137560   4.783   4.266   3.110
12539TIP3    H237561   4.673   4.334   3.189
12540TIP3   OH237562   4.749   2.591   0.947
12540TIP3    H137563   4.801   2.512   0.964
12540TIP3    H237564   4.769   2.614   0.857
12541TIP3   OH237565   3.426   4.672   2.834
12541TIP3    H137566   3.476   4.750   2.809
12541TIP3    H237567   3.449   4.658   2.926
12542TIP3   OH237568   6.666   6.087   0.311
12542TIP3    H137569   6.708   6.119   0.391
12542TIP3    H237570   6.651   6.166   0.259
12543TIP3   OH237571   1.249   6.557   6.435
12543TIP3    H137572   1.178   6.540   6.497
12543TIP3    H237573   1.295   6.633   6.472
12544TIP3   OH237574   6.766   4.954   6.669
12544TIP3    H137575   6.747   4.976   6.760
12544TIP3    H237576   6.854   4.989   6.653
12545TIP3   OH237577   4.766   1.370   3.582
12545TIP3    H137578   4.690   1.335   3.628
12545TIP3    H237579   4.780   1.456   3.621
12546TIP3   OH237580   5.160   4.340   3.249
12546TIP3    H137581   5.208   4.360   3.330
12546TIP3    H237582   5.197   4.256   3.220
12547TIP3   OH237583   3.165   5.000   5.715
12547TIP3    H137584   3.167   4.908   5.741
12547TIP3    H237585   3.137   5.047   5.793
12548TIP3   OH237586   3.280   1.070   6.543
12548TIP3    H137587   3.339   0.995   6.546
12548TIP3    H237588   3.205   1.044   6.596
12549TIP3   OH237589   2.716   1.722   2.743
12549TIP3    H137590   2.799   1.744   2.785
12549TIP3    H237591   2.721   1.628   2.725
12550TIP3   OH237592   1.876   0.316   3.971
12550TIP3    H137593   1.823   0.335   3.893
12550TIP3    H237594   1.966   0.314   3.939
12551TIP3   OH237595   1.579   6.600   3.988
12551TIP3    H137596   1.644   6.557   3.933
12551TIP3    H237597   1.609   6.584   4.077
12552TIP3   OH237598   0.839   1.019   5.543
12552TIP3    H137599   0.774   0.948   5.543
12552TIP3    H237600   0.848   1.042   5.450
12553TIP3   OH237601   2.143   3.208   0.711
12553TIP3    H137602   2.205   3.247   0.649
12553TIP3    H237603   2.084   3.155   0.657
12554TIP3   OH237604   7.539   7.576   4.353
12554TIP3    H137605   7.473   7.643   4.333
12554TIP3    H237606   7.494   7.493   4.336
12555TIP3   OH237607   2.479   3.337   4.562
12555TIP3    H137608   2.392   3.332   4.523
12555TIP3    H237609   2.492   3.430   4.581
12556TIP3   OH237610   1.697   0.094   6.125
12556TIP3    H137611   1.732   0.139   6.202
12556TIP3    H237612   1.691   0.162   6.058
12557TIP3   OH237613   2.038   2.800   4.492
12557TIP3    H137614   2.048   2.842   4.406
12557TIP3    H237615   1.984   2.723   4.474
12558TIP3   OH237616   7.286   2.584   0.181
12558TIP3    H137617   7.372   2.605   0.217
12558TIP3    H237618   7.261   2.503   0.225
12559TIP3   OH237619   3.556   0.558   4.480
12559TIP3    H137620   3.502   0.631   4.508
12559TIP3    H237621   3.586   0.517   4.562
12560TIP3   OH237622   0.510   6.145   6.747
12560TIP3    H137623   0.493   6.235   6.774
12560TIP3    H237624   0.596   6.149   6.704
12561TIP3   OH237625   3.927   7.257   3.683
12561TIP3    H137626   3.965   7.338   3.648
12561TIP3    H237627   3.870   7.286   3.754
12562TIP3   OH237628   5.597   1.589   6.586
12562TIP3    H137629   5.534   1.549   6.644
12562TIP3    H237630   5.641   1.516   6.543
12563TIP3   OH237631   1.655   5.999   1.971
12563TIP3    H137632   1.624   6.024   1.884
12563TIP3    H237633   1.589   6.032   2.031
12564TIP3   OH237634   6.700   5.653   2.409
12564TIP3    H137635   6.625   5.660   2.350
12564TIP3    H237636   6.775   5.677   2.354
12565TIP3   OH237637   0.099   2.446   4.205
12565TIP3    H137638   0.102   2.542   4.199
12565TIP3    H237639   0.006   2.424   4.198
12566TIP3   OH237640   5.128   5.739   4.915
12566TIP3    H137641   5.113   5.833   4.923
12566TIP3    H237642   5.209   5.732   4.866
12567TIP3   OH237643   0.900   5.269   1.634
12567TIP3    H137644   0.861   5.341   1.585
12567TIP3    H237645   0.975   5.308   1.679
12568TIP3   OH237646   4.236   5.543   3.631
12568TIP3    H137647   4.281   5.526   3.548
12568TIP3    H237648   4.229   5.456   3.671
12569TIP3   OH237649   6.787   7.280   2.871
12569TIP3    H137650   6.882   7.271   2.879
12569TIP3    H237651   6.766   7.356   2.925
12570TIP3   OH237652   4.487   2.788   6.197
12570TIP3    H137653   4.567   2.833   6.170
12570TIP3    H237654   4.417   2.852   6.180
12571TIP3   OH237655   5.939   7.622   3.221
12571TIP3    H137656   6.013   7.681   3.235
12571TIP3    H237657   5.884   7.667   3.158
12572TIP3   OH237658   3.441   4.037   3.749
12572TIP3    H137659   3.464   4.019   3.658
12572TIP3    H237660   3.523   4.027   3.797
12573TIP3   OH237661   7.272   4.404   3.399
12573TIP3    H137662   7.320   4.432   3.321
12573TIP3    H237663   7.338   4.402   3.468
12574TIP3   OH237664   6.980   0.279   0.822
12574TIP3    H137665   7.051   0.339   0.801
12574TIP3    H237666   6.912   0.335   0.860
12575TIP3   OH237667   2.416   3.168   0.405
12575TIP3    H137668   2.344   3.219   0.442
12575TIP3    H237669   2.477   3.234   0.372
12576TIP3   OH237670   7.797   1.869   2.833
12576TIP3    H137671   7.774   1.960   2.850
12576TIP3    H237672   7.893   1.870   2.825
12577TIP3   OH237673   5.213   0.137   4.074
12577TIP3    H137674   5.225   0.154   3.980
12577TIP3    H237675   5.250   0.214   4.117
12578TIP3   OH237676   4.267   1.245   5.519
12578TIP3    H137677   4.319   1.300   5.578
12578TIP3    H237678   4.275   1.157   5.555
12579TIP3   OH237679   3.651   3.442   2.647
12579TIP3    H137680   3.676   3.452   2.739
12579TIP3    H237681   3.600   3.521   2.627
12580TIP3   OH237682   2.118   2.199   5.552
12580TIP3    H137683   2.186   2.145   5.591
12580TIP3    H237684   2.161   2.282   5.533
12581TIP3   OH237685   5.915   2.767   3.174
12581TIP3    H137686   5.925   2.672   3.183
12581TIP3    H237687   5.822   2.782   3.190
12582TIP3   OH237688   1.064   0.991   0.731
12582TIP3    H137689   1.097   0.987   0.821
12582TIP3    H237690   0.997   0.923   0.726
12583TIP3   OH237691   4.258   1.219   4.599
12583TIP3    H137692   4.315   1.295   4.602
12583TIP3    H237693   4.175   1.252   4.565
12584TIP3   OH237694   3.351   3.703   0.263
12584TIP3    H137695   3.336   3.744   0.348
12584TIP3    H237696   3.305   3.759   0.201
12585TIP3   OH237697   4.978   5.996   1.662
12585TIP3    H137698   4.935   5.932   1.605
12585TIP3    H237699   4.942   6.080   1.636
12586TIP3   OH237700   3.539   0.013   5.126
12586TIP3    H137701   3.557   0.041   5.036
12586TIP3    H237702   3.553   0.091   5.179
12587TIP3   OH237703   5.959   6.343   1.448
12587TIP3    H137704   6.045   6.357   1.409
12587TIP3    H237705   5.964   6.383   1.534
12588TIP3   OH237706   8.090   0.281   5.730
12588TIP3    H137707   8.007   0.322   5.702
12588TIP3    H237708   8.153   0.353   5.730
12589TIP3   OH237709   6.703   7.551   3.038
12589TIP3    H137710   6.669   7.596   3.116
12589TIP3    H237711   6.654   7.589   2.965
12590TIP3   OH237712   4.536   3.647   0.640
12590TIP3    H137713   4.484   3.570   0.661
12590TIP3    H237714   4.560   3.636   0.549
12591TIP3   OH237715   4.094   7.088   3.980
12591TIP3    H137716   4.131   7.117   3.897
12591TIP3    H237717   4.004   7.121   3.980
12592TIP3   OH237718   2.566   5.023   1.959
12592TIP3    H137719   2.472   5.020   1.939
12592TIP3    H237720   2.606   5.057   1.879
12593TIP3   OH237721   6.237   5.885   1.678
12593TIP3    H137722   6.332   5.896   1.684
12593TIP3    H237723   6.201   5.970   1.703
12594TIP3   OH237724   2.031   3.278   2.070
12594TIP3    H137725   2.104   3.273   2.132
12594TIP3    H237726   1.959   3.315   2.121
12595TIP3   OH237727   2.362   7.557   6.402
12595TIP3    H137728   2.404   7.507   6.472
12595TIP3    H237729   2.398   7.645   6.410
12596TIP3   OH237730   1.257   0.880   4.842
12596TIP3    H137731   1.309   0.820   4.787
12596TIP3    H237732   1.320   0.946   4.871
12597TIP3   OH237733   2.993   0.777   5.121
12597TIP3    H137734   3.055   0.729   5.176
12597TIP3    H237735   3.042   0.854   5.092
12598TIP3   OH237736   0.385   1.804   3.349
12598TIP3    H137737   0.310   1.833   3.402
12598TIP3    H237738   0.429   1.740   3.404
12599TIP3   OH237739   5.795   5.639   4.970
12599TIP3    H137740   5.754   5.553   4.957
12599TIP3    H237741   5.732   5.701   4.933
12600TIP3   OH237742   7.757   6.535   4.394
12600TIP3    H137743   7.810   6.532   4.474
12600TIP3    H237744   7.712   6.619   4.397
12601TIP3   OH237745   5.488   0.541   0.090
12601TIP3    H137746   5.492   0.445   0.084
12601TIP3    H237747   5.448   0.558   0.174
12602TIP3   OH237748   7.002   1.580   1.945
12602TIP3    H137749   6.974   1.573   1.853
12602TIP3    H237750   7.097   1.570   1.942
12603TIP3   OH237751   1.026   3.539   2.596
12603TIP3    H137752   1.059   3.622   2.560
12603TIP3    H237753   1.105   3.492   2.622
12604TIP3   OH237754   5.518   6.035   2.621
12604TIP3    H137755   5.570   5.966   2.663
12604TIP3    H237756   5.573   6.065   2.548
12605TIP3   OH237757   7.590   6.537   1.610
12605TIP3    H137758   7.588   6.566   1.702
12605TIP3    H237759   7.683   6.538   1.588
12606TIP3   OH237760   6.492   5.471   3.689
12606TIP3    H137761   6.397   5.482   3.701
12606TIP3    H237762   6.517   5.541   3.629
12607TIP3   OH237763   8.070   7.567   1.097
12607TIP3    H137764   7.990   7.588   1.145
12607TIP3    H237765   8.096   7.649   1.055
12608TIP3   OH237766   3.739   4.960   6.489
12608TIP3    H137767   3.658   5.001   6.458
12608TIP3    H237768   3.798   5.034   6.506
12609TIP3   OH237769   3.120   6.723   2.799
12609TIP3    H137770   3.117   6.804   2.850
12609TIP3    H237771   3.038   6.678   2.820
12610TIP3   OH237772   4.566   6.503   6.379
12610TIP3    H137773   4.640   6.461   6.335
12610TIP3    H237774   4.499   6.435   6.382
12611TIP3   OH237775   6.171   7.334   1.996
12611TIP3    H137776   6.159   7.257   1.940
12611TIP3    H237777   6.253   7.374   1.966
12612TIP3   OH237778   4.951   6.288   1.581
12612TIP3    H137779   5.043   6.283   1.553
12612TIP3    H237780   4.902   6.258   1.505
12613TIP3   OH237781   6.023   5.647   4.622
12613TIP3    H137782   6.037   5.669   4.714
12613TIP3    H237783   5.982   5.724   4.584
12614TIP3   OH237784   1.197   1.425   2.803
12614TIP3    H137785   1.282   1.434   2.847
12614TIP3    H237786   1.138   1.481   2.852
12615TIP3   OH237787   2.160   3.052   0.934
12615TIP3    H137788   2.141   3.110   0.859
12615TIP3    H237789   2.081   3.057   0.988
12616TIP3   OH237790   4.721   5.003   2.139
12616TIP3    H137791   4.675   5.072   2.090
12616TIP3    H237792   4.664   4.927   2.131
12617TIP3   OH237793   1.736   0.386   6.624
12617TIP3    H137794   1.650   0.426   6.615
12617TIP3    H237795   1.718   0.298   6.658
12618TIP3   OH237796   3.398   5.162   1.299
12618TIP3    H137797   3.314   5.161   1.344
12618TIP3    H237798   3.408   5.073   1.265
12619TIP3   OH237799   3.745   3.738   2.261
12619TIP3    H137800   3.681   3.679   2.221
12619TIP3    H237801   3.798   3.769   2.187
12620TIP3   OH237802   1.294   2.487   2.121
12620TIP3    H137803   1.223   2.427   2.099
12620TIP3    H237804   1.373   2.436   2.110
12621TIP3   OH237805   7.967   2.718   4.545
12621TIP3    H137806   8.025   2.790   4.569
12621TIP3    H237807   7.929   2.745   4.461
12622TIP3   OH237808   4.149   0.290   1.403
12622TIP3    H137809   4.150   0.349   1.478
12622TIP3    H237810   4.056   0.278   1.383
12623TIP3   OH237811   7.179   6.543   0.360
12623TIP3    H137812   7.126   6.464   0.349
12623TIP3    H237813   7.129   6.611   0.313
12624TIP3   OH237814   5.924   5.108   3.441
12624TIP3    H137815   5.832   5.083   3.447
12624TIP3    H237816   5.962   5.079   3.524
12625TIP3   OH237817   5.961   7.037   3.491
12625TIP3    H137818   5.888   7.048   3.430
12625TIP3    H237819   5.921   7.038   3.577
12626TIP3   OH237820   0.543   0.431   1.460
12626TIP3    H137821   0.452   0.401   1.458
12626TIP3    H237822   0.546   0.502   1.396
12627TIP3   OH237823   1.027   3.290   3.847
12627TIP3    H137824   0.966   3.259   3.781
12627TIP3    H237825   0.972   3.314   3.922
12628TIP3   OH237826   5.567   5.827   2.194
12628TIP3    H137827   5.559   5.900   2.132
12628TIP3    H237828   5.522   5.754   2.151
12629TIP3   OH237829   5.541   7.741   5.179
12629TIP3    H137830   5.600   7.812   5.202
12629TIP3    H237831   5.585   7.662   5.210
12630TIP3   OH237832   1.540   0.216   4.326
12630TIP3    H137833   1.469   0.171   4.280
12630TIP3    H237834   1.589   0.261   4.257
12631TIP3   OH237835   3.461   4.921   2.210
12631TIP3    H137836   3.529   4.882   2.154
12631TIP3    H237837   3.503   4.997   2.249
12632TIP3   OH237838   4.060   7.635   2.014
12632TIP3    H137839   4.010   7.703   1.969
12632TIP3    H237840   4.078   7.569   1.947
12633TIP3   OH237841   0.845   4.325   5.445
12633TIP3    H137842   0.902   4.336   5.369
12633TIP3    H237843   0.844   4.411   5.486
12634TIP3   OH237844   1.761   0.115   5.143
12634TIP3    H137845   1.854   0.110   5.165
12634TIP3    H237846   1.718   0.139   5.225
12635TIP3   OH237847   6.757   4.343   3.525
12635TIP3    H137848   6.701   4.271   3.496
12635TIP3    H237849   6.846   4.313   3.505
12636TIP3   OH237850   2.826   0.386   4.091
12636TIP3    H137851   2.765   0.359   4.022
12636TIP3    H237852   2.790   0.347   4.171
12637TIP3   OH237853   6.751   6.497   1.730
12637TIP3    H137854   6.845   6.495   1.716
12637TIP3    H237855   6.734   6.425   1.791
12638TIP3   OH237856   0.623   7.547   1.688
12638TIP3    H137857   0.593   7.456   1.683
12638TIP3    H237858   0.670   7.552   1.771
12639TIP3   OH237859   6.562   3.925   6.692
12639TIP3    H137860   6.504   3.918   6.616
12639TIP3    H237861   6.646   3.894   6.661
12640TIP3   OH237862   3.120   7.255   4.488
12640TIP3    H137863   3.136   7.333   4.541
12640TIP3    H237864   3.189   7.194   4.515
12641TIP3   OH237865   0.239   0.737   0.306
12641TIP3    H137866   0.208   0.679   0.375
12641TIP3    H237867   0.334   0.729   0.308
12642TIP3   OH237868   8.061   6.073   3.733
12642TIP3    H137869   8.051   6.127   3.812
12642TIP3    H237870   8.108   6.129   3.672
12643TIP3   OH237871   4.360   5.617   6.532
12643TIP3    H137872   4.451   5.645   6.539
12643TIP3    H237873   4.324   5.630   6.619
12644TIP3   OH237874   7.858   4.318   0.238
12644TIP3    H137875   7.896   4.406   0.238
12644TIP3    H237876   7.811   4.313   0.321
12645TIP3   OH237877   1.045   3.319   2.046
12645TIP3    H137878   0.961   3.305   2.003
12645TIP3    H237879   1.036   3.403   2.091
12646TIP3   OH237880   0.970   1.160   0.498
12646TIP3    H137881   1.026   1.144   0.423
12646TIP3    H237882   0.988   1.088   0.558
12647TIP3   OH237883   5.617   5.782   5.989
12647TIP3    H137884   5.563   5.856   5.962
12647TIP3    H237885   5.705   5.803   5.956
12648TIP3   OH237886   5.560   4.514   3.547
12648TIP3    H137887   5.607   4.543   3.469
12648TIP3    H237888   5.616   4.539   3.620
12649TIP3   OH237889   6.869   2.493   1.820
12649TIP3    H137890   6.820   2.453   1.892
12649TIP3    H237891   6.802   2.528   1.762
12650TIP3   OH237892   2.436   0.081   2.591
12650TIP3    H137893   2.408   0.130   2.514
12650TIP3    H237894   2.528   0.060   2.574
12651TIP3   OH237895   3.107   6.461   5.596
12651TIP3    H137896   3.141   6.438   5.510
12651TIP3    H237897   3.065   6.546   5.584
12652TIP3   OH237898   8.260   6.064   2.395
12652TIP3    H137899   8.349   6.090   2.417
12652TIP3    H237900   8.243   5.988   2.452
12653TIP3   OH237901   6.911   7.263   1.777
12653TIP3    H137902   6.979   7.197   1.790
12653TIP3    H237903   6.889   7.292   1.866
12654TIP3   OH237904   4.773   4.330   1.056
12654TIP3    H137905   4.753   4.412   1.010
12654TIP3    H237906   4.843   4.354   1.117
12655TIP3   OH237907   1.384   5.479   2.045
12655TIP3    H137908   1.425   5.566   2.039
12655TIP3    H237909   1.454   5.419   2.021
12656TIP3   OH237910   0.664   2.578   2.243
12656TIP3    H137911   0.582   2.610   2.206
12656TIP3    H237912   0.662   2.607   2.334
12657TIP3   OH237913   3.923   7.442   0.190
12657TIP3    H137914   3.860   7.371   0.201
12657TIP3    H237915   3.876   7.520   0.221
12658TIP3   OH237916   7.862   7.162   2.890
12658TIP3    H137917   7.870   7.163   2.985
12658TIP3    H237918   7.772   7.136   2.874
12659TIP3   OH237919   6.345   3.093   0.429
12659TIP3    H137920   6.352   3.188   0.439
12659TIP3    H237921   6.330   3.081   0.335
12660TIP3   OH237922   5.547   2.421   5.020
12660TIP3    H137923   5.500   2.503   5.006
12660TIP3    H237924   5.616   2.443   5.083
12661TIP3   OH237925   4.584   5.136   0.839
12661TIP3    H137926   4.631   5.063   0.798
12661TIP3    H237927   4.560   5.104   0.926
12662TIP3   OH237928   0.037   4.529   6.130
12662TIP3    H137929  -0.014   4.456   6.165
12662TIP3    H237930   0.030   4.598   6.196
12663TIP3   OH237931   5.540   6.588   4.188
12663TIP3    H137932   5.619   6.535   4.189
12663TIP3    H237933   5.523   6.609   4.280
12664TIP3   OH237934   6.696   3.542   4.769
12664TIP3    H137935   6.693   3.447   4.755
12664TIP3    H237936   6.777   3.570   4.727
12665TIP3   OH237937   4.877   1.627   5.698
12665TIP3    H137938   4.786   1.605   5.718
12665TIP3    H237939   4.913   1.548   5.660
12666TIP3   OH237940   0.588   0.018   5.927
12666TIP3    H137941   0.673   0.055   5.905
12666TIP3    H237942   0.526   0.064   5.871
12667TIP3   OH237943   7.532   7.194   0.567
12667TIP3    H137944   7.606   7.159   0.518
12667TIP3    H237945   7.549   7.168   0.658
12668TIP3   OH237946   5.037   0.621   1.400
12668TIP3    H137947   5.121   0.623   1.353
12668TIP3    H237948   4.980   0.680   1.351
12669TIP3   OH237949   6.505   7.061   2.356
12669TIP3    H137950   6.489   6.968   2.368
12669TIP3    H237951   6.600   7.070   2.364
12670TIP3   OH237952   4.876   5.647   2.734
12670TIP3    H137953   4.971   5.651   2.730
12670TIP3    H237954   4.848   5.626   2.645
12671TIP3   OH237955   0.391   0.696   6.685
12671TIP3    H137956   0.471   0.690   6.634
12671TIP3    H237957   0.334   0.754   6.635
12672TIP3   OH237958   6.587   6.321   4.613
12672TIP3    H137959   6.646   6.278   4.551
12672TIP3    H237960   6.554   6.249   4.667
12673TIP3   OH237961   0.880   5.385   3.583
12673TIP3    H137962   0.899   5.470   3.542
12673TIP3    H237963   0.843   5.408   3.669
12674TIP3   OH237964   5.220   4.478   1.177
12674TIP3    H137965   5.283   4.542   1.144
12674TIP3    H237966   5.161   4.529   1.232
12675TIP3   OH237967   3.325   1.663   6.296
12675TIP3    H137968   3.396   1.688   6.236
12675TIP3    H237969   3.249   1.653   6.239
12676TIP3   OH237970   1.694   6.901   1.143
12676TIP3    H137971   1.621   6.907   1.082
12676TIP3    H237972   1.771   6.919   1.090
12677TIP3   OH237973   3.468   6.440   3.855
12677TIP3    H137974   3.474   6.372   3.922
12677TIP3    H237975   3.381   6.431   3.818
12678TIP3   OH237976   0.365   1.313   4.703
12678TIP3    H137977   0.346   1.261   4.626
12678TIP3    H237978   0.423   1.383   4.672
12679TIP3   OH237979   1.212   3.354   5.500
12679TIP3    H137980   1.188   3.261   5.501
12679TIP3    H237981   1.306   3.355   5.518
12680TIP3   OH237982   3.778   7.513   4.230
12680TIP3    H137983   3.743   7.463   4.303
12680TIP3    H237984   3.862   7.472   4.209
12681TIP3   OH237985   2.927   0.837   2.580
12681TIP3    H137986   2.833   0.854   2.579
12681TIP3    H237987   2.961   0.894   2.649
12682TIP3   OH237988   6.579   3.274   2.680
12682TIP3    H137989   6.644   3.248   2.745
12682TIP3    H237990   6.540   3.354   2.715
12683TIP3   OH237991   4.471   0.973   1.615
12683TIP3    H137992   4.477   0.881   1.638
12683TIP3    H237993   4.486   1.020   1.697
12684TIP3   OH237994   3.768   3.302   1.596
12684TIP3    H137995   3.766   3.206   1.595
12684TIP3    H237996   3.819   3.323   1.674
12685TIP3   OH237997   4.445   3.956   6.571
12685TIP3    H137998   4.421   3.996   6.654
12685TIP3    H237999   4.366   3.960   6.517
12686TIP3   OH238000   4.646   2.073   0.473
12686TIP3    H138001   4.713   2.004   0.475
12686TIP3    H238002   4.694   2.152   0.448
12687TIP3   OH238003   6.334   7.071   0.592
12687TIP3    H138004   6.381   7.153   0.610
12687TIP3    H238005   6.259   7.097   0.539
12688TIP3   OH238006   4.563   7.479   2.472
12688TIP3    H138007   4.657   7.461   2.466
12688TIP3    H238008   4.532   7.425   2.544
12689TIP3   OH238009   3.877   1.105   3.509
12689TIP3    H138010   3.863   1.180   3.451
12689TIP3    H238011   3.913   1.037   3.452
12690TIP3   OH238012   7.156   2.644   0.416
12690TIP3    H138013   7.083   2.702   0.396
12690TIP3    H238014   7.187   2.615   0.330
12691TIP3   OH238015   2.463   3.954   0.164
12691TIP3    H138016   2.503   4.038   0.142
12691TIP3    H238017   2.536   3.896   0.184
12692TIP3   OH238018   6.720   3.509   3.481
12692TIP3    H138019   6.727   3.429   3.428
12692TIP3    H238020   6.740   3.480   3.570
12693TIP3   OH238021   2.062   1.714   4.853
12693TIP3    H138022   2.116   1.721   4.774
12693TIP3    H238023   2.015   1.632   4.843
12694TIP3   OH238024   1.087   0.161   6.609
12694TIP3    H138025   1.047   0.156   6.696
12694TIP3    H238026   1.138   0.081   6.601
12695TIP3   OH238027   3.332   4.637   6.013
12695TIP3    H138028   3.265   4.689   5.967
12695TIP3    H238029   3.298   4.628   6.102
12696TIP3   OH238030   5.845   3.014   2.937
12696TIP3    H138031   5.892   3.019   3.021
12696TIP3    H238032   5.784   3.087   2.940
12697TIP3   OH238033   5.721   7.185   1.494
12697TIP3    H138034   5.654   7.122   1.521
12697TIP3    H238035   5.730   7.171   1.400
12698TIP3   OH238036   6.545   4.841   1.685
12698TIP3    H138037   6.578   4.804   1.767
12698TIP3    H238038   6.453   4.862   1.703
12699TIP3   OH238039   4.026   3.283   3.143
12699TIP3    H138040   3.954   3.345   3.134
12699TIP3    H238041   3.986   3.197   3.127
12700TIP3   OH238042   4.038   0.007   4.504
12700TIP3    H138043   4.004   0.095   4.492
12700TIP3    H238044   4.131   0.013   4.483
12701TIP3   OH238045   7.098   5.395   1.308
12701TIP3    H138046   7.089   5.319   1.251
12701TIP3    H238047   7.137   5.360   1.388
12702TIP3   OH238048   6.013   3.544   0.748
12702TIP3    H138049   5.988   3.453   0.765
12702TIP3    H238050   6.042   3.545   0.657
12703TIP3   OH238051   1.261   6.164   2.817
12703TIP3    H138052   1.308   6.226   2.761
12703TIP3    H238053   1.169   6.182   2.800
12704TIP3   OH238054   1.938   6.515   0.181
12704TIP3    H138055   1.867   6.572   0.152
12704TIP3    H238056   1.963   6.550   0.267
12705TIP3   OH238057   3.520   3.438   3.591
12705TIP3    H138058   3.471   3.382   3.651
12705TIP3    H238059   3.525   3.523   3.637
12706TIP3   OH238060   0.641   1.896   1.849
12706TIP3    H138061   0.659   1.870   1.758
12706TIP3    H238062   0.553   1.861   1.866
12707TIP3   OH238063   4.728   5.241   5.394
12707TIP3    H138064   4.680   5.289   5.325
12707TIP3    H238065   4.664   5.181   5.430
12708TIP3   OH238066   5.055   0.101   4.320
12708TIP3    H138067   4.985   0.036   4.316
12708TIP3    H238068   5.093   0.101   4.232
12709TIP3   OH238069   5.136   2.630   1.219
12709TIP3    H138070   5.166   2.712   1.181
12709TIP3    H238071   5.174   2.562   1.163
12710TIP3   OH238072   4.367   0.239   2.553
12710TIP3    H138073   4.435   0.215   2.490
12710TIP3    H238074   4.300   0.283   2.500
12711TIP3   OH238075   3.189   3.729   2.493
12711TIP3    H138076   3.282   3.719   2.471
12711TIP3    H238077   3.179   3.683   2.576
12712TIP3   OH238078   6.608   2.223   6.514
12712TIP3    H138079   6.658   2.145   6.489
12712TIP3    H238080   6.674   2.285   6.545
12713TIP3   OH238081   2.831   0.468   5.764
12713TIP3    H138082   2.776   0.477   5.686
12713TIP3    H238083   2.875   0.553   5.773
12714TIP3   OH238084   1.105   5.212   2.823
12714TIP3    H138085   1.094   5.237   2.731
12714TIP3    H238086   1.096   5.294   2.871
12715TIP3   OH238087   8.023   4.901   4.770
12715TIP3    H138088   8.018   4.838   4.698
12715TIP3    H238089   7.954   4.964   4.751
12716TIP3   OH238090   3.283   1.024   0.238
12716TIP3    H138091   3.294   0.953   0.302
12716TIP3    H238092   3.330   1.098   0.276
12717TIP3   OH238093   4.267   0.645   2.125
12717TIP3    H138094   4.236   0.675   2.210
12717TIP3    H238095   4.362   0.639   2.134
12718TIP3   OH238096   3.809   3.534   6.542
12718TIP3    H138097   3.893   3.545   6.586
12718TIP3    H238098   3.831   3.496   6.457
12719TIP3   OH238099   5.759   3.850   5.653
12719TIP3    H138100   5.816   3.794   5.705
12719TIP3    H238101   5.713   3.904   5.717
12720TIP3   OH238102   1.346   7.763   0.135
12720TIP3    H138103   1.369   7.855   0.141
12720TIP3    H238104   1.267   7.754   0.189
12721TIP3   OH238105   8.051   2.277   4.278
12721TIP3    H138106   8.034   2.183   4.281
12721TIP3    H238107   8.102   2.290   4.198
12722TIP3   OH238108   0.590   3.277   0.132
12722TIP3    H138109   0.607   3.187   0.160
12722TIP3    H238110   0.528   3.269   0.059
12723TIP3   OH238111   4.705   2.793   2.812
12723TIP3    H138112   4.681   2.794   2.719
12723TIP3    H238113   4.711   2.700   2.834
12724TIP3   OH238114   1.036   3.389   5.812
12724TIP3    H138115   0.993   3.399   5.727
12724TIP3    H238116   1.073   3.476   5.830
12725TIP3   OH238117   2.415   3.265   4.189
12725TIP3    H138118   2.411   3.267   4.094
12725TIP3    H238119   2.418   3.358   4.214
12726TIP3   OH238120   0.032   3.674   3.543
12726TIP3    H138121   0.026   3.687   3.448
12726TIP3    H238122  -0.002   3.756   3.580
12727TIP3   OH238123   2.719   6.350   3.034
12727TIP3    H138124   2.789   6.410   3.059
12727TIP3    H238125   2.683   6.319   3.117
12728TIP3   OH238126   0.038   4.669   0.682
12728TIP3    H138127   0.053   4.590   0.631
12728TIP3    H238128  -0.057   4.669   0.700
12729TIP3   OH238129   4.736   5.591   3.621
12729TIP3    H138130   4.801   5.589   3.692
12729TIP3    H238131   4.788   5.590   3.541
12730TIP3   OH238132   7.575   4.662   3.194
12730TIP3    H138133   7.635   4.620   3.256
12730TIP3    H238134   7.630   4.720   3.141
12731TIP3   OH238135   7.284   0.832   2.396
12731TIP3    H138136   7.254   0.776   2.324
12731TIP3    H238137   7.212   0.894   2.409
12732TIP3   OH238138   2.649   7.458   6.082
12732TIP3    H138139   2.635   7.519   6.009
12732TIP3    H238140   2.693   7.510   6.149
12733TIP3   OH238141   7.052   3.217   4.744
12733TIP3    H138142   7.001   3.288   4.782
12733TIP3    H238143   7.108   3.259   4.679
12734TIP3   OH238144   2.518   3.183   3.070
12734TIP3    H138145   2.441   3.217   3.116
12734TIP3    H238146   2.511   3.088   3.078
12735TIP3   OH238147   5.572   2.131   1.053
12735TIP3    H138148   5.650   2.077   1.059
12735TIP3    H238149   5.540   2.116   0.963
12736TIP3   OH238150   5.653   4.256   1.968
12736TIP3    H138151   5.565   4.229   1.941
12736TIP3    H238152   5.690   4.299   1.890
12737TIP3   OH238153   1.139   4.879   2.090
12737TIP3    H138154   1.059   4.846   2.049
12737TIP3    H238155   1.171   4.805   2.143
12738TIP3   OH238156   5.175   4.893   5.951
12738TIP3    H138157   5.115   4.820   5.934
12738TIP3    H238158   5.120   4.959   5.995
12739TIP3   OH238159   6.613   5.381   2.703
12739TIP3    H138160   6.531   5.396   2.657
12739TIP3    H238161   6.625   5.286   2.700
12740TIP3   OH238162   7.780   3.277   0.988
12740TIP3    H138163   7.686   3.274   1.006
12740TIP3    H238164   7.786   3.268   0.893
12741TIP3   OH238165   7.110   2.145   5.365
12741TIP3    H138166   7.083   2.203   5.294
12741TIP3    H238167   7.067   2.181   5.443
12742TIP3   OH238168   4.030   3.898   1.252
12742TIP3    H138169   3.988   3.827   1.203
12742TIP3    H238170   3.969   3.971   1.247
12743TIP3   OH238171   5.316   4.551   0.837
12743TIP3    H138172   5.254   4.568   0.908
12743TIP3    H238173   5.330   4.636   0.797
12744TIP3   OH238174   1.754   4.725   5.453
12744TIP3    H138175   1.687   4.656   5.458
12744TIP3    H238176   1.709   4.805   5.480
12745TIP3   OH238177   1.323   1.820   5.834
12745TIP3    H138178   1.332   1.813   5.929
12745TIP3    H238179   1.302   1.731   5.805
12746TIP3   OH238180   0.663   4.424   3.259
12746TIP3    H138181   0.593   4.404   3.197
12746TIP3    H238182   0.714   4.492   3.216
12747TIP3   OH238183   6.386   6.980   6.342
12747TIP3    H138184   6.425   6.898   6.313
12747TIP3    H238185   6.401   7.041   6.269
12748TIP3   OH238186   4.700   6.795   4.367
12748TIP3    H138187   4.720   6.819   4.276
12748TIP3    H238188   4.766   6.841   4.419
12749TIP3   OH238189   7.971   0.560   0.771
12749TIP3    H138190   7.948   0.565   0.863
12749TIP3    H238191   8.062   0.589   0.767
12750TIP3   OH238192   2.709   1.476   4.707
12750TIP3    H138193   2.801   1.487   4.682
12750TIP3    H238194   2.710   1.471   4.802
12751TIP3   OH238195   2.005   6.170   4.415
12751TIP3    H138196   2.030   6.135   4.329
12751TIP3    H238197   2.065   6.128   4.476
12752TIP3   OH238198   3.710   3.420   2.931
12752TIP3    H138199   3.684   3.336   2.968
12752TIP3    H238200   3.629   3.471   2.925
12753TIP3   OH238201   4.281   1.578   0.755
12753TIP3    H138202   4.259   1.600   0.846
12753TIP3    H238203   4.367   1.617   0.741
12754TIP3   OH238204   2.283   2.694   5.250
12754TIP3    H138205   2.317   2.697   5.161
12754TIP3    H238206   2.255   2.603   5.263
12755TIP3   OH238207   7.836   1.241   0.170
12755TIP3    H138208   7.847   1.300   0.244
12755TIP3    H238209   7.920   1.245   0.123
12756TIP3   OH238210   4.649   2.419   6.660
12756TIP3    H138211   4.568   2.416   6.711
12756TIP3    H238212   4.640   2.497   6.605
12757TIP3   OH238213   5.897   6.953   2.743
12757TIP3    H138214   5.820   6.914   2.783
12757TIP3    H238215   5.907   6.908   2.659
12758TIP3   OH238216   7.791   3.941   1.210
12758TIP3    H138217   7.845   3.885   1.267
12758TIP3    H238218   7.806   3.907   1.122
12759TIP3   OH238219   6.196   1.750   4.013
12759TIP3    H138220   6.200   1.822   4.076
12759TIP3    H238221   6.284   1.747   3.975
12760TIP3   OH238222   8.286   3.666   1.085
12760TIP3    H138223   8.227   3.601   1.124
12760TIP3    H238224   8.318   3.624   1.005
12761TIP3   OH238225   3.534   0.162   5.811
12761TIP3    H138226   3.457   0.195   5.859
12761TIP3    H238227   3.608   0.204   5.855
12762TIP3   OH238228   4.549   0.497   0.862
12762TIP3    H138229   4.455   0.507   0.850
12762TIP3    H238230   4.568   0.408   0.832
12763TIP3   OH238231   0.897   7.545   5.170
12763TIP3    H138232   0.831   7.585   5.113
12763TIP3    H238233   0.904   7.455   5.139
12764TIP3   OH238234   4.471   2.037   3.024
12764TIP3    H138235   4.430   2.099   2.964
12764TIP3    H238236   4.399   2.004   3.077
12765TIP3   OH238237   3.269   6.949   2.367
12765TIP3    H138238   3.196   6.942   2.428
12765TIP3    H238239   3.249   6.886   2.298
12766TIP3   OH238240   4.130   2.499   3.225
12766TIP3    H138241   4.131   2.493   3.320
12766TIP3    H238242   4.123   2.408   3.196
12767TIP3   OH238243   2.186   0.910   3.759
12767TIP3    H138244   2.208   0.881   3.848
12767TIP3    H238245   2.172   0.830   3.710
12768TIP3   OH238246   8.112   4.521   3.681
12768TIP3    H138247   8.101   4.534   3.587
12768TIP3    H238248   8.034   4.561   3.720
12769TIP3   OH238249   3.354   7.003   0.724
12769TIP3    H138250   3.295   7.070   0.690
12769TIP3    H238251   3.300   6.952   0.784
12770TIP3   OH238252   3.809   6.873   3.229
12770TIP3    H138253   3.737   6.865   3.291
12770TIP3    H238254   3.850   6.956   3.250
12771TIP3   OH238255   2.837   3.440   2.772
12771TIP3    H138256   2.832   3.497   2.695
12771TIP3    H238257   2.746   3.420   2.794
12772TIP3   OH238258   0.450   2.389   5.406
12772TIP3    H138259   0.535   2.387   5.450
12772TIP3    H238260   0.386   2.379   5.478
12773TIP3   OH238261   4.986   2.666   5.866
12773TIP3    H138262   5.073   2.628   5.856
12773TIP3    H238263   4.961   2.645   5.955
12774TIP3   OH238264   6.573   6.670   1.566
12774TIP3    H138265   6.619   6.690   1.485
12774TIP3    H238266   6.638   6.625   1.620
12775TIP3   OH238267   0.083   1.515   5.294
12775TIP3    H138268   0.062   1.487   5.384
12775TIP3    H238269   0.176   1.535   5.296
12776TIP3   OH238270   1.329   2.941   2.351
12776TIP3    H138271   1.373   2.960   2.268
12776TIP3    H238272   1.286   2.856   2.336
12777TIP3   OH238273   3.126   6.449   1.374
12777TIP3    H138274   3.036   6.429   1.398
12777TIP3    H238275   3.176   6.372   1.401
12778TIP3   OH238276   2.639   0.108   2.228
12778TIP3    H138277   2.622   0.025   2.273
12778TIP3    H238278   2.703   0.153   2.283
12779TIP3   OH238279   0.500   4.305   6.023
12779TIP3    H138280   0.575   4.270   5.974
12779TIP3    H238281   0.522   4.289   6.115
12780TIP3   OH238282   7.606   2.038   0.707
12780TIP3    H138283   7.545   1.968   0.732
12780TIP3    H238284   7.591   2.107   0.771
12781TIP3   OH238285   4.311   4.635   2.427
12781TIP3    H138286   4.234   4.660   2.377
12781TIP3    H238287   4.365   4.714   2.428
12782TIP3   OH238288   2.418   3.000   5.644
12782TIP3    H138289   2.336   3.016   5.598
12782TIP3    H238290   2.460   2.930   5.594
12783TIP3   OH238291   7.172   2.078   4.967
12783TIP3    H138292   7.134   2.142   4.907
12783TIP3    H238293   7.228   2.023   4.912
12784TIP3   OH238294   7.806   5.104   0.778
12784TIP3    H138295   7.850   5.184   0.806
12784TIP3    H238296   7.877   5.047   0.747
12785TIP3   OH238297   4.803   6.166   1.384
12785TIP3    H138298   4.831   6.133   1.299
12785TIP3    H238299   4.770   6.254   1.366
12786TIP3   OH238300   0.366   0.396   0.913
12786TIP3    H138301   0.310   0.319   0.926
12786TIP3    H238302   0.453   0.361   0.896
12787TIP3   OH238303   3.811   5.778   3.612
12787TIP3    H138304   3.745   5.709   3.607
12787TIP3    H238305   3.798   5.830   3.533
12788TIP3   OH238306   4.678   6.887   0.443
12788TIP3    H138307   4.643   6.898   0.354
12788TIP3    H238308   4.610   6.922   0.500
12789TIP3   OH238309   1.186   1.593   0.430
12789TIP3    H138310   1.146   1.531   0.369
12789TIP3    H238311   1.259   1.631   0.382
12790TIP3   OH238312   2.589   7.087   4.485
12790TIP3    H138313   2.626   7.020   4.541
12790TIP3    H238314   2.535   7.039   4.422
12791TIP3   OH238315   0.492   1.273   6.417
12791TIP3    H138316   0.533   1.275   6.330
12791TIP3    H238317   0.403   1.306   6.403
12792TIP3   OH238318   7.638   6.131   1.436
12792TIP3    H138319   7.662   6.200   1.374
12792TIP3    H238320   7.715   6.122   1.493
12793TIP3   OH238321   1.561   6.221   3.303
12793TIP3    H138322   1.558   6.316   3.292
12793TIP3    H238323   1.481   6.200   3.351
12794TIP3   OH238324   3.702   4.772   2.462
12794TIP3    H138325   3.707   4.767   2.367
12794TIP3    H238326   3.751   4.696   2.493
12795TIP3   OH238327   7.105   6.095   4.738
12795TIP3    H138328   7.062   6.041   4.672
12795TIP3    H238329   7.169   6.037   4.779
12796TIP3   OH238330   5.240   6.236   0.359
12796TIP3    H138331   5.328   6.199   0.356
12796TIP3    H238332   5.186   6.174   0.311
12797TIP3   OH238333   0.200   0.625   3.025
12797TIP3    H138334   0.180   0.646   3.116
12797TIP3    H238335   0.250   0.701   2.993
12798TIP3   OH238336   2.808   4.334   2.583
12798TIP3    H138337   2.807   4.356   2.490
12798TIP3    H238338   2.876   4.390   2.621
12799TIP3   OH238339   8.247   3.533   2.546
12799TIP3    H138340   8.196   3.452   2.554
12799TIP3    H238341   8.224   3.568   2.460
12800TIP3   OH238342   6.619   7.644   4.132
12800TIP3    H138343   6.637   7.736   4.153
12800TIP3    H238344   6.701   7.611   4.094
12801TIP3   OH238345   0.696   6.169   2.348
12801TIP3    H138346   0.675   6.218   2.428
12801TIP3    H238347   0.651   6.218   2.278
12802TIP3   OH238348   1.368   0.338   3.426
12802TIP3    H138349   1.382   0.268   3.362
12802TIP3    H238350   1.442   0.331   3.486
12803TIP3   OH238351   6.921   2.286   3.104
12803TIP3    H138352   6.949   2.359   3.049
12803TIP3    H238353   6.995   2.226   3.103
12804TIP3   OH238354   5.103   3.613   1.384
12804TIP3    H138355   5.042   3.659   1.327
12804TIP3    H238356   5.180   3.670   1.387
12805TIP3   OH238357   7.253   1.617   2.510
12805TIP3    H138358   7.197   1.615   2.432
12805TIP3    H238359   7.194   1.645   2.580
12806TIP3   OH238360   4.759   4.776   4.945
12806TIP3    H138361   4.715   4.858   4.921
12806TIP3    H238362   4.755   4.723   4.865
12807TIP3   OH238363   8.195   6.065   4.062
12807TIP3    H138364   8.144   6.038   4.138
12807TIP3    H238365   8.245   6.141   4.092
12808TIP3   OH238366   6.399   1.853   1.377
12808TIP3    H138367   6.488   1.818   1.373
12808TIP3    H238368   6.371   1.836   1.467
12809TIP3   OH238369   4.333   5.968   5.561
12809TIP3    H138370   4.345   6.063   5.569
12809TIP3    H238371   4.326   5.938   5.652
12810TIP3   OH238372   1.984   1.999   6.434
12810TIP3    H138373   2.021   1.934   6.374
12810TIP3    H238374   2.051   2.009   6.502
12811TIP3   OH238375   4.126   6.435   0.372
12811TIP3    H138376   4.127   6.432   0.276
12811TIP3    H238377   4.050   6.488   0.393
12812TIP3   OH238378   7.619   5.130   0.310
12812TIP3    H138379   7.677   5.203   0.327
12812TIP3    H238380   7.648   5.094   0.226
12813TIP3   OH238381   2.894   4.329   3.794
12813TIP3    H138382   2.803   4.314   3.767
12813TIP3    H238383   2.939   4.352   3.712
12814TIP3   OH238384   7.288   6.302   1.211
12814TIP3    H138385   7.325   6.276   1.127
12814TIP3    H238386   7.195   6.318   1.192
12815TIP3   OH238387   5.252   1.849   3.572
12815TIP3    H138388   5.312   1.885   3.637
12815TIP3    H238389   5.302   1.779   3.530
12816TIP3   OH238390   1.605   7.136   0.620
12816TIP3    H138391   1.532   7.075   0.628
12816TIP3    H238392   1.563   7.222   0.607
12817TIP3   OH238393   5.035   5.181   6.081
12817TIP3    H138394   5.012   5.153   6.170
12817TIP3    H238395   5.126   5.210   6.087
12818TIP3   OH238396   5.466   6.973   0.968
12818TIP3    H138397   5.414   6.991   1.046
12818TIP3    H238398   5.405   6.927   0.910
12819TIP3   OH238399   3.850   2.414   1.040
12819TIP3    H138400   3.810   2.476   1.102
12819TIP3    H238401   3.943   2.434   1.043
12820TIP3   OH238402   7.599   0.581   6.718
12820TIP3    H138403   7.672   0.605   6.774
12820TIP3    H238404   7.618   0.491   6.691
12821TIP3   OH238405   6.470   0.505   5.479
12821TIP3    H138406   6.543   0.466   5.528
12821TIP3    H238407   6.484   0.477   5.389
12822TIP3   OH238408   5.375   1.385   5.639
12822TIP3    H138409   5.443   1.447   5.613
12822TIP3    H238410   5.383   1.312   5.578
12823TIP3   OH238411   5.355   7.812   0.959
12823TIP3    H138412   5.373   7.750   0.888
12823TIP3    H238413   5.272   7.852   0.934
12824TIP3   OH238414   5.717   2.728   4.886
12824TIP3    H138415   5.727   2.749   4.793
12824TIP3    H238416   5.623   2.727   4.900
12825TIP3   OH238417   4.734   1.054   2.401
12825TIP3    H138418   4.756   1.016   2.486
12825TIP3    H238419   4.731   1.149   2.417
12826TIP3   OH238420   7.578   7.700   3.080
12826TIP3    H138421   7.549   7.781   3.039
12826TIP3    H238422   7.646   7.728   3.141
12827TIP3   OH238423   4.715   6.828   4.789
12827TIP3    H138424   4.723   6.733   4.781
12827TIP3    H238425   4.788   6.862   4.737
12828TIP3   OH238426   2.384   7.444   0.620
12828TIP3    H138427   2.385   7.525   0.568
12828TIP3    H238428   2.449   7.459   0.688
12829TIP3   OH238429   1.152   4.165   2.291
12829TIP3    H138430   1.231   4.219   2.291
12829TIP3    H238431   1.182   4.078   2.265
12830TIP3   OH238432   6.898   6.976   2.012
12830TIP3    H138433   6.809   6.941   2.019
12830TIP3    H238434   6.885   7.071   2.007
12831TIP3   OH238435   0.922   7.529   0.351
12831TIP3    H138436   0.835   7.567   0.338
12831TIP3    H238437   0.911   7.436   0.329
12832TIP3   OH238438   2.905   1.881   4.263
12832TIP3    H138439   2.883   1.947   4.328
12832TIP3    H238440   2.993   1.906   4.233
12833TIP3   OH238441   5.835   3.317   3.204
12833TIP3    H138442   5.856   3.232   3.244
12833TIP3    H238443   5.900   3.377   3.241
12834TIP3   OH238444   6.631   4.705   5.738
12834TIP3    H138445   6.726   4.707   5.731
12834TIP3    H238446   6.601   4.770   5.674
12835TIP3   OH238447   1.429   3.305   2.334
12835TIP3    H138448   1.370   3.357   2.279
12835TIP3    H238449   1.445   3.225   2.284
12836TIP3   OH238450   2.272   0.478   0.785
12836TIP3    H138451   2.295   0.402   0.839
12836TIP3    H238452   2.208   0.526   0.838
12837TIP3   OH238453   5.630   0.554   3.887
12837TIP3    H138454   5.579   0.474   3.899
12837TIP3    H238455   5.713   0.525   3.849
12838TIP3   OH238456   8.072   7.445   4.720
12838TIP3    H138457   8.119   7.404   4.792
12838TIP3    H238458   8.082   7.384   4.647
12839TIP3   OH238459   0.379   6.829   2.881
12839TIP3    H138460   0.382   6.916   2.840
12839TIP3    H238461   0.461   6.788   2.853
12840TIP3   OH238462   6.210   6.626   5.307
12840TIP3    H138463   6.219   6.536   5.340
12840TIP3    H238464   6.287   6.672   5.340
12841TIP3   OH238465   6.094   0.419   4.127
12841TIP3    H138466   6.057   0.487   4.070
12841TIP3    H238467   6.166   0.382   4.076
12842TIP3   OH238468   0.492   3.159   0.524
12842TIP3    H138469   0.464   3.177   0.435
12842TIP3    H238470   0.567   3.216   0.538
12843TIP3   OH238471   6.935   1.366   2.101
12843TIP3    H138472   6.973   1.356   2.188
12843TIP3    H238473   6.969   1.450   2.069
12844TIP3   OH238474   1.606   7.796   5.930
12844TIP3    H138475   1.652   7.878   5.911
12844TIP3    H238476   1.652   7.760   6.006
12845TIP3   OH238477   0.536   7.615   2.078
12845TIP3    H138478   0.514   7.707   2.094
12845TIP3    H238479   0.545   7.577   2.166
12846TIP3   OH238480   1.194   0.970   3.828
12846TIP3    H138481   1.191   1.062   3.801
12846TIP3    H238482   1.201   0.974   3.923
12847TIP3   OH238483   7.117   3.077   1.556
12847TIP3    H138484   7.177   3.042   1.489
12847TIP3    H238485   7.131   3.020   1.632
12848TIP3   OH238486   7.365   4.824   5.316
12848TIP3    H138487   7.427   4.872   5.372
12848TIP3    H238488   7.302   4.787   5.377
12849TIP3   OH238489   6.276   5.267   2.803
12849TIP3    H138490   6.360   5.252   2.847
12849TIP3    H238491   6.293   5.247   2.711
12850TIP3   OH238492   7.235   5.124   6.308
12850TIP3    H138493   7.256   5.039   6.345
12850TIP3    H238494   7.163   5.157   6.362
12851TIP3   OH238495   4.938   5.894   3.759
12851TIP3    H138496   4.925   5.837   3.835
12851TIP3    H238497   5.027   5.875   3.730
12852TIP3   OH238498   6.355   7.700   5.114
12852TIP3    H138499   6.390   7.758   5.047
12852TIP3    H238500   6.317   7.759   5.180
12853TIP3   OH238501   2.067   5.181   5.667
12853TIP3    H138502   1.998   5.159   5.605
12853TIP3    H238503   2.072   5.104   5.725
12854TIP3   OH238504   4.610   7.306   4.943
12854TIP3    H138505   4.594   7.218   4.977
12854TIP3    H238506   4.680   7.295   4.879
12855TIP3   OH238507   7.185   0.275   1.064
12855TIP3    H138508   7.210   0.335   0.994
12855TIP3    H238509   7.169   0.192   1.019
12856TIP3   OH238510   0.846   3.542   0.391
12856TIP3    H138511   0.889   3.622   0.362
12856TIP3    H238512   0.824   3.495   0.311
12857TIP3   OH238513   5.061   6.259   4.123
12857TIP3    H138514   5.009   6.289   4.198
12857TIP3    H238515   5.001   6.204   4.073
12858TIP3   OH238516   6.240   2.976   5.030
12858TIP3    H138517   6.148   2.988   5.007
12858TIP3    H238518   6.289   3.010   4.955
12859TIP3   OH238519   5.301   1.203   6.287
12859TIP3    H138520   5.377   1.242   6.330
12859TIP3    H238521   5.228   1.263   6.308
12860TIP3   OH238522   2.338   7.165   1.344
12860TIP3    H138523   2.426   7.186   1.313
12860TIP3    H238524   2.315   7.238   1.402
12861TIP3   OH238525   1.842   3.211   3.571
12861TIP3    H138526   1.936   3.223   3.555
12861TIP3    H238527   1.826   3.118   3.553
12862TIP3   OH238528   3.611   7.790   1.294
12862TIP3    H138529   3.522   7.769   1.325
12862TIP3    H238530   3.616   7.748   1.208
12863TIP3   OH238531   4.850   0.022   2.405
12863TIP3    H138532   4.845  -0.058   2.457
12863TIP3    H238533   4.767   0.067   2.421
12864TIP3   OH238534   4.548   6.946   2.868
12864TIP3    H138535   4.640   6.921   2.868
12864TIP3    H238536   4.524   6.950   2.961
12865TIP3   OH238537   2.481   5.118   2.199
12865TIP3    H138538   2.525   5.087   2.120
12865TIP3    H238539   2.545   5.105   2.269
12866TIP3   OH238540   5.473   5.499   3.387
12866TIP3    H138541   5.503   5.576   3.435
12866TIP3    H238542   5.381   5.490   3.411
12867TIP3   OH238543   0.360   4.943   0.522
12867TIP3    H138544   0.407   4.867   0.556
12867TIP3    H238545   0.414   4.973   0.448
12868TIP3   OH238546   5.470   7.290   3.238
12868TIP3    H138547   5.410   7.350   3.194
12868TIP3    H238548   5.550   7.342   3.252
12869TIP3   OH238549   5.636   5.137   4.952
12869TIP3    H138550   5.714   5.144   4.898
12869TIP3    H238551   5.598   5.052   4.929
12870TIP3   OH238552   3.024   0.689   0.586
12870TIP3    H138553   3.017   0.707   0.493
12870TIP3    H238554   3.044   0.775   0.625
12871TIP3   OH238555   0.647   2.069   1.046
12871TIP3    H138556   0.696   2.125   0.986
12871TIP3    H238557   0.678   2.094   1.133
12872TIP3   OH238558   0.525   5.676   3.069
12872TIP3    H138559   0.453   5.736   3.049
12872TIP3    H238560   0.558   5.650   2.983
12873TIP3   OH238561   5.819   2.071   6.756
12873TIP3    H138562   5.816   2.105   6.667
12873TIP3    H238563   5.806   1.977   6.747
12874TIP3   OH238564   4.481   6.038   2.256
12874TIP3    H138565   4.489   6.125   2.296
12874TIP3    H238566   4.484   6.055   2.162
12875TIP3   OH238567   3.900   1.119   5.300
12875TIP3    H138568   3.863   1.044   5.253
12875TIP3    H238569   3.826   1.159   5.344
12876TIP3   OH238570   3.129   7.412   6.484
12876TIP3    H138571   3.086   7.413   6.399
12876TIP3    H238572   3.076   7.471   6.538
12877TIP3   OH238573   7.551   6.974   4.878
12877TIP3    H138574   7.541   7.069   4.885
12877TIP3    H238575   7.603   6.949   4.955
12878TIP3   OH238576   5.240   2.275   0.068
12878TIP3    H138577   5.233   2.179   0.069
12878TIP3    H238578   5.167   2.304   0.013
12879TIP3   OH238579   5.675   6.247   3.655
12879TIP3    H138580   5.731   6.224   3.729
12879TIP3    H238581   5.708   6.332   3.624
12880TIP3   OH238582   2.437   2.578   6.549
12880TIP3    H138583   2.483   2.565   6.632
12880TIP3    H238584   2.506   2.580   6.483
12881TIP3   OH238585   6.867   0.968   3.509
12881TIP3    H138586   6.919   0.943   3.586
12881TIP3    H238587   6.861   0.888   3.457
12882TIP3   OH238588   4.661   5.490   4.924
12882TIP3    H138589   4.742   5.541   4.930
12882TIP3    H238590   4.656   5.462   4.833
12883TIP3   OH238591   7.361   1.433   3.870
12883TIP3    H138592   7.384   1.495   3.800
12883TIP3    H238593   7.444   1.389   3.891
12884TIP3   OH238594   5.929   5.222   0.655
12884TIP3    H138595   5.991   5.276   0.704
12884TIP3    H238596   5.883   5.172   0.722
12885TIP3   OH238597   6.538   3.027   5.876
12885TIP3    H138598   6.472   3.017   5.944
12885TIP3    H238599   6.617   3.052   5.923
12886TIP3   OH238600   2.236   0.231   4.080
12886TIP3    H138601   2.237   0.299   4.147
12886TIP3    H238602   2.264   0.152   4.126
12887TIP3   OH238603   5.571   6.917   1.337
12887TIP3    H138604   5.513   6.983   1.301
12887TIP3    H238605   5.659   6.954   1.328
12888TIP3   OH238606   3.249   1.955   4.737
12888TIP3    H138607   3.279   1.872   4.700
12888TIP3    H238608   3.329   1.997   4.771
12889TIP3   OH238609   2.012   2.853   0.604
12889TIP3    H138610   2.087   2.815   0.650
12889TIP3    H238611   1.980   2.783   0.547
12890TIP3   OH238612   5.648   4.714   4.385
12890TIP3    H138613   5.668   4.762   4.304
12890TIP3    H238614   5.734   4.697   4.424
12891TIP3   OH238615   6.194   6.436   5.901
12891TIP3    H138616   6.183   6.484   5.819
12891TIP3    H238617   6.289   6.421   5.907
12892TIP3   OH238618   8.044   3.001   1.410
12892TIP3    H138619   8.000   3.020   1.493
12892TIP3    H238620   8.076   3.085   1.379
12893TIP3   OH238621   3.168   4.706   5.694
12893TIP3    H138622   3.095   4.699   5.633
12893TIP3    H238623   3.145   4.646   5.766
12894TIP3   OH238624   4.014   3.354   2.741
12894TIP3    H138625   3.943   3.302   2.779
12894TIP3    H238626   4.091   3.298   2.748
12895TIP3   OH238627   5.922   7.832   4.378
12895TIP3    H138628   6.006   7.811   4.418
12895TIP3    H238629   5.859   7.779   4.426
12896TIP3   OH238630   4.974   3.401   5.462
12896TIP3    H138631   4.957   3.451   5.382
12896TIP3    H238632   5.054   3.440   5.498
12897TIP3   OH238633   7.433   5.512   0.191
12897TIP3    H138634   7.356   5.563   0.167
12897TIP3    H238635   7.420   5.428   0.147
12898TIP3   OH238636   3.483   3.296   5.919
12898TIP3    H138637   3.461   3.389   5.913
12898TIP3    H238638   3.410   3.251   5.875
12899TIP3   OH238639   5.751   4.388   5.430
12899TIP3    H138640   5.841   4.363   5.409
12899TIP3    H238641   5.736   4.468   5.381
12900TIP3   OH238642   6.849   1.675   2.283
12900TIP3    H138643   6.831   1.762   2.246
12900TIP3    H238644   6.864   1.691   2.376
12901TIP3   OH238645   6.464   4.358   0.387
12901TIP3    H138646   6.464   4.269   0.423
12901TIP3    H238647   6.434   4.348   0.297
12902TIP3   OH238648   1.893   7.080   4.284
12902TIP3    H138649   1.809   7.051   4.249
12902TIP3    H238650   1.957   7.056   4.217
12903TIP3   OH238651   7.656   6.851   0.599
12903TIP3    H138652   7.744   6.886   0.583
12903TIP3    H238653   7.633   6.805   0.518
12904TIP3   OH238654   4.338   3.475   3.869
12904TIP3    H138655   4.341   3.493   3.775
12904TIP3    H238656   4.293   3.551   3.906
12905TIP3   OH238657   3.920   3.624   2.648
12905TIP3    H138658   3.942   3.628   2.555
12905TIP3    H238659   3.947   3.537   2.676
12906TIP3   OH238660   6.785   3.731   6.342
12906TIP3    H138661   6.864   3.698   6.299
12906TIP3    H238662   6.755   3.801   6.285
12907TIP3   OH238663   0.991   5.418   2.950
12907TIP3    H138664   0.947   5.381   3.027
12907TIP3    H238665   0.931   5.403   2.878
12908TIP3   OH238666   6.681   5.870   3.477
12908TIP3    H138667   6.769   5.836   3.462
12908TIP3    H238668   6.625   5.793   3.483
12909TIP3   OH238669   5.490   7.387   5.524
12909TIP3    H138670   5.427   7.394   5.453
12909TIP3    H238671   5.532   7.301   5.512
12910TIP3   OH238672   2.609   2.096   1.054
12910TIP3    H138673   2.552   2.042   0.999
12910TIP3    H238674   2.676   2.035   1.085
12911TIP3   OH238675   0.118   0.114   3.268
12911TIP3    H138676   0.144   0.176   3.200
12911TIP3    H238677   0.189   0.117   3.332
12912TIP3   OH238678   8.164   3.116   5.049
12912TIP3    H138679   8.093   3.055   5.069
12912TIP3    H238680   8.120   3.199   5.034
12913TIP3   OH238681   4.933   6.766   5.292
12913TIP3    H138682   5.016   6.813   5.281
12913TIP3    H238683   4.948   6.707   5.366
12914TIP3   OH238684   6.239   4.235   2.338
12914TIP3    H138685   6.165   4.223   2.398
12914TIP3    H238686   6.209   4.304   2.278
12915TIP3   OH238687   0.402   5.710   5.702
12915TIP3    H138688   0.390   5.615   5.706
12915TIP3    H238689   0.351   5.744   5.776
12916TIP3   OH238690   2.774   7.725   4.749
12916TIP3    H138691   2.715   7.675   4.805
12916TIP3    H238692   2.743   7.815   4.756
12917TIP3   OH238693   5.666   0.089   6.458
12917TIP3    H138694   5.734   0.111   6.521
12917TIP3    H238695   5.708   0.030   6.396
12918TIP3   OH238696   7.012   6.579   6.218
12918TIP3    H138697   7.022   6.622   6.303
12918TIP3    H238698   7.046   6.491   6.232
12919TIP3   OH238699   1.241   1.250   3.659
12919TIP3    H138700   1.240   1.342   3.688
12919TIP3    H238701   1.318   1.212   3.701
12920TIP3   OH238702   5.138   6.774   0.511
12920TIP3    H138703   5.200   6.846   0.523
12920TIP3    H238704   5.190   6.701   0.480
12921TIP3   OH238705   3.865   1.006   0.188
12921TIP3    H138706   3.785   1.052   0.161
12921TIP3    H238707   3.849   0.981   0.279
12922TIP3   OH238708   6.806   5.703   0.375
12922TIP3    H138709   6.757   5.648   0.315
12922TIP3    H238710   6.742   5.734   0.438
12923TIP3   OH238711   7.412   0.482   2.226
12923TIP3    H138712   7.348   0.411   2.222
12923TIP3    H238713   7.492   0.442   2.261
12924TIP3   OH238714   1.836   6.748   4.721
12924TIP3    H138715   1.823   6.656   4.699
12924TIP3    H238716   1.747   6.785   4.724
12925TIP3   OH238717   2.734   6.653   3.143
12925TIP3    H138718   2.640   6.635   3.146
12925TIP3    H238719   2.762   6.616   3.059
12926TIP3   OH238720   0.991   2.048   0.224
12926TIP3    H138721   0.947   1.963   0.214
12926TIP3    H238722   0.926   2.112   0.198
12927TIP3   OH238723   3.342   4.135   3.101
12927TIP3    H138724   3.266   4.078   3.113
12927TIP3    H238725   3.412   4.092   3.151
12928TIP3   OH238726   6.110   7.381   0.089
12928TIP3    H138727   6.126   7.289   0.066
12928TIP3    H238728   6.160   7.395   0.169
12929TIP3   OH238729   1.102   6.518   3.474
12929TIP3    H138730   1.080   6.456   3.544
12929TIP3    H238731   1.081   6.604   3.510
12930TIP3   OH238732   4.283   0.903   5.163
12930TIP3    H138733   4.225   0.853   5.221
12930TIP3    H238734   4.254   0.879   5.075
12931TIP3   OH238735   5.781   3.747   2.361
12931TIP3    H138736   5.716   3.783   2.421
12931TIP3    H238737   5.753   3.656   2.347
12932TIP3   OH238738   1.970   1.946   0.828
12932TIP3    H138739   1.947   1.963   0.736
12932TIP3    H238740   1.964   1.850   0.836
12933TIP3   OH238741   4.288   7.188   1.076
12933TIP3    H138742   4.220   7.255   1.068
12933TIP3    H238743   4.328   7.205   1.162
12934TIP3   OH238744   8.153   4.452   3.150
12934TIP3    H138745   8.095   4.527   3.136
12934TIP3    H238746   8.121   4.386   3.089
12935TIP3   OH238747   6.018   7.565   4.096
12935TIP3    H138748   6.007   7.659   4.112
12935TIP3    H238749   5.948   7.524   4.146
12936TIP3   OH238750   4.577   6.762   0.801
12936TIP3    H138751   4.584   6.682   0.748
12936TIP3    H238752   4.534   6.825   0.743
12937TIP3   OH238753   6.381   1.144   4.716
12937TIP3    H138754   6.334   1.227   4.702
12937TIP3    H238755   6.405   1.115   4.628
12938TIP3   OH238756   6.267   5.628   3.438
12938TIP3    H138757   6.215   5.691   3.387
12938TIP3    H238758   6.229   5.632   3.526
12939TIP3   OH238759   4.858   4.176   6.538
12939TIP3    H138760   4.937   4.150   6.491
12939TIP3    H238761   4.814   4.093   6.558
12940TIP3   OH238762   5.781   1.893   2.344
12940TIP3    H138763   5.722   1.953   2.389
12940TIP3    H238764   5.868   1.915   2.377
12941TIP3   OH238765   2.244   6.662   4.724
12941TIP3    H138766   2.270   6.574   4.753
12941TIP3    H238767   2.289   6.721   4.785
12942TIP3   OH238768   8.215   7.713   0.378
12942TIP3    H138769   8.166   7.775   0.433
12942TIP3    H238770   8.273   7.768   0.327
12943TIP3   OH238771   6.968   5.901   2.672
12943TIP3    H138772   6.887   5.895   2.723
12943TIP3    H238773   6.998   5.810   2.663
12944TIP3   OH238774   0.379   1.790   2.476
12944TIP3    H138775   0.291   1.752   2.470
12944TIP3    H238776   0.431   1.737   2.416
12945TIP3   OH238777   8.145   3.162   0.130
12945TIP3    H138778   8.099   3.087   0.092
12945TIP3    H238779   8.103   3.175   0.215
12946TIP3   OH238780   6.374   0.889   2.906
12946TIP3    H138781   6.284   0.878   2.935
12946TIP3    H238782   6.411   0.955   2.965
12947TIP3   OH238783   0.094   1.051   0.816
12947TIP3    H138784   0.106   1.094   0.731
12947TIP3    H238785   0.118   1.117   0.880
12948TIP3   OH238786   3.497   4.208   0.677
12948TIP3    H138787   3.479   4.255   0.759
12948TIP3    H238788   3.419   4.223   0.624
12949TIP3   OH238789   1.004   5.419   3.258
12949TIP3    H138790   1.077   5.415   3.319
12949TIP3    H238791   0.930   5.448   3.310
12950TIP3   OH238792   1.357   1.526   4.076
12950TIP3    H138793   1.416   1.599   4.057
12950TIP3    H238794   1.389   1.489   4.158
12951TIP3   OH238795   6.008   6.799   5.657
12951TIP3    H138796   6.011   6.842   5.572
12951TIP3    H238797   5.916   6.799   5.682
12952TIP3   OH238798   1.363   3.444   0.224
12952TIP3    H138799   1.370   3.531   0.184
12952TIP3    H238800   1.367   3.461   0.318
12953TIP3   OH238801   7.316   4.152   5.504
12953TIP3    H138802   7.232   4.121   5.538
12953TIP3    H238803   7.295   4.235   5.460
12954TIP3   OH238804   0.199   5.515   4.656
12954TIP3    H138805   0.147   5.435   4.664
12954TIP3    H238806   0.192   5.540   4.564
12955TIP3   OH238807   5.244   0.030   5.869
12955TIP3    H138808   5.201   0.115   5.864
12955TIP3    H238809   5.220  -0.005   5.954
12956TIP3   OH238810   8.297   5.590   3.648
12956TIP3    H138811   8.278   5.583   3.554
12956TIP3    H238812   8.295   5.500   3.679
12957TIP3   OH238813   5.840   2.166   6.474
12957TIP3    H138814   5.764   2.138   6.423
12957TIP3    H238815   5.915   2.129   6.429
12958TIP3   OH238816   0.334   5.271   6.018
12958TIP3    H138817   0.315   5.365   6.015
12958TIP3    H238818   0.305   5.238   5.933
12959TIP3   OH238819   7.631   2.909   6.317
12959TIP3    H138820   7.570   2.980   6.297
12959TIP3    H238821   7.694   2.946   6.377
12960TIP3   OH238822   6.815   0.954   5.052
12960TIP3    H138823   6.851   0.884   5.107
12960TIP3    H238824   6.891   0.991   5.008
12961TIP3   OH238825   6.972   5.578   0.958
12961TIP3    H138826   6.906   5.595   0.891
12961TIP3    H238827   7.047   5.543   0.910
12962TIP3   OH238828   6.443   4.534   3.594
12962TIP3    H138829   6.389   4.601   3.636
12962TIP3    H238830   6.526   4.577   3.575
12963TIP3   OH238831   3.989   7.349   6.441
12963TIP3    H138832   3.925   7.390   6.383
12963TIP3    H238833   4.038   7.289   6.385
12964TIP3   OH238834   8.253   7.138   0.171
12964TIP3    H138835   8.226   7.112   0.083
12964TIP3    H238836   8.308   7.215   0.158
12965TIP3   OH238837   6.250   3.340   1.848
12965TIP3    H138838   6.164   3.298   1.844
12965TIP3    H238839   6.262   3.362   1.940
12966TIP3   OH238840   0.455   4.672   3.381
12966TIP3    H138841   0.377   4.723   3.400
12966TIP3    H238842   0.456   4.603   3.448
12967TIP3   OH238843   5.564   3.285   0.469
12967TIP3    H138844   5.480   3.288   0.514
12967TIP3    H238845   5.555   3.216   0.404
12968TIP3   OH238846   1.183   2.792   4.667
12968TIP3    H138847   1.164   2.718   4.725
12968TIP3    H238848   1.176   2.755   4.579
12969TIP3   OH238849   3.527   7.341   5.539
12969TIP3    H138850   3.608   7.291   5.550
12969TIP3    H238851   3.487   7.305   5.460
12970TIP3   OH238852   4.073   6.588   0.855
12970TIP3    H138853   4.136   6.569   0.923
12970TIP3    H238854   4.120   6.574   0.773
12971TIP3   OH238855   3.055   7.169   2.230
12971TIP3    H138856   3.040   7.155   2.324
12971TIP3    H238857   3.115   7.243   2.226
12972TIP3   OH238858   1.368   2.203   6.029
12972TIP3    H138859   1.287   2.246   6.057
12972TIP3    H238860   1.371   2.216   5.934
12973TIP3   OH238861   3.160   5.470   1.406
12973TIP3    H138862   3.098   5.541   1.389
12973TIP3    H238863   3.158   5.458   1.501
12974TIP3   OH238864   5.675   2.080   1.762
12974TIP3    H138865   5.676   2.173   1.784
12974TIP3    H238866   5.657   2.036   1.845
12975TIP3   OH238867   6.125   6.144   5.957
12975TIP3    H138868   6.143   6.235   5.978
12975TIP3    H238869   6.042   6.124   6.002
12976TIP3   OH238870   7.458   6.927   6.216
12976TIP3    H138871   7.509   6.852   6.186
12976TIP3    H238872   7.367   6.904   6.194
12977TIP3   OH238873   1.987   5.595   4.115
12977TIP3    H138874   2.027   5.537   4.050
12977TIP3    H238875   1.995   5.682   4.077
12978TIP3   OH238876   4.996   1.342   1.545
12978TIP3    H138877   4.936   1.369   1.614
12978TIP3    H238878   5.041   1.265   1.581
12979TIP3   OH238879   2.987   3.358   2.322
12979TIP3    H138880   3.076   3.331   2.302
12979TIP3    H238881   2.983   3.450   2.297
12980TIP3   OH238882   0.475   6.759   5.731
12980TIP3    H138883   0.436   6.805   5.806
12980TIP3    H238884   0.544   6.705   5.770
12981TIP3   OH238885   2.999   2.305   4.157
12981TIP3    H138886   3.020   2.388   4.200
12981TIP3    H238887   3.069   2.245   4.183
12982TIP3   OH238888   4.204   2.629   5.948
12982TIP3    H138889   4.210   2.599   6.039
12982TIP3    H238890   4.295   2.641   5.920
12983TIP3   OH238891   4.522   1.351   6.493
12983TIP3    H138892   4.602   1.353   6.441
12983TIP3    H238893   4.534   1.277   6.553
12984TIP3   OH238894   0.517   6.363   5.055
12984TIP3    H138895   0.462   6.328   5.126
12984TIP3    H238896   0.599   6.314   5.062
12985TIP3   OH238897   4.655   1.491   4.165
12985TIP3    H138898   4.609   1.566   4.128
12985TIP3    H238899   4.592   1.451   4.225
12986TIP3   OH238900   3.610   0.841   0.183
12986TIP3    H138901   3.610   0.926   0.229
12986TIP3    H238902   3.636   0.862   0.094
12987TIP3   OH238903   5.033   7.455   4.272
12987TIP3    H138904   4.960   7.503   4.311
12987TIP3    H238905   5.083   7.422   4.347
12988TIP3   OH238906   4.253   0.628   3.840
12988TIP3    H138907   4.198   0.560   3.802
12988TIP3    H238908   4.206   0.710   3.821
12989TIP3   OH238909   4.080   7.779   1.092
12989TIP3    H138910   4.101   7.765   1.184
12989TIP3    H238911   3.986   7.761   1.086
12990TIP3   OH238912   3.562   4.752   0.515
12990TIP3    H138913   3.550   4.703   0.433
12990TIP3    H238914   3.603   4.689   0.575
12991TIP3   OH238915   2.812   7.315   5.868
12991TIP3    H138916   2.751   7.347   5.934
12991TIP3    H238917   2.888   7.373   5.875
12992TIP3   OH238918   7.148   6.352   0.065
12992TIP3    H138919   7.103   6.359  -0.019
12992TIP3    H238920   7.213   6.421   0.064
12993TIP3   OH238921   3.069   2.304   5.680
12993TIP3    H138922   3.057   2.239   5.611
12993TIP3    H238923   2.986   2.303   5.728
12994TIP3   OH238924   7.382   2.994   4.824
12994TIP3    H138925   7.399   2.937   4.749
12994TIP3    H238926   7.328   2.941   4.882
12995TIP3   OH238927   2.736   5.944   0.085
12995TIP3    H138928   2.809   5.930   0.144
12995TIP3    H238929   2.776   5.973   0.003
12996TIP3   OH238930   2.035   7.607   2.578
12996TIP3    H138931   2.124   7.576   2.562
12996TIP3    H238932   2.027   7.606   2.674
12997TIP3   OH238933   2.589   4.786   5.255
12997TIP3    H138934   2.634   4.710   5.217
12997TIP3    H238935   2.586   4.768   5.349
12998TIP3   OH238936   1.635   1.770   3.102
12998TIP3    H138937   1.708   1.709   3.093
12998TIP3    H238938   1.673   1.845   3.148
12999TIP3   OH238939   4.760   6.271   5.957
12999TIP3    H138940   4.852   6.290   5.938
12999TIP3    H238941   4.760   6.179   5.985
13000TIP3   OH238942   0.603   7.516   2.334
13000TIP3    H138943   0.564   7.526   2.421
13000TIP3    H238944   0.672   7.450   2.346
13001TIP3   OH238945   4.744   3.600   5.370
13001TIP3    H138946   4.836   3.575   5.373
13001TIP3    H238947   4.697   3.517   5.361
13002TIP3   OH238948   7.812   3.517   1.728
13002TIP3    H138949   7.891   3.530   1.780
13002TIP3    H238950   7.750   3.477   1.789
13003TIP3   OH238951   6.753   3.069   5.318
13003TIP3    H138952   6.782   2.995   5.265
13003TIP3    H238953   6.707   3.126   5.257
13004TIP3   OH238954   7.165   0.081   4.992
13004TIP3    H138955   7.143   0.091   4.899
13004TIP3    H238956   7.108   0.011   5.022
13005TIP3   OH238957   4.053   6.092   4.566
13005TIP3    H138958   4.114   6.153   4.608
13005TIP3    H238959   4.106   6.015   4.545
13006TIP3   OH238960   0.586   1.233   0.422
13006TIP3    H138961   0.548   1.321   0.430
13006TIP3    H238962   0.592   1.202   0.512
13007TIP3   OH238963   5.360   7.195   0.395
13007TIP3    H138964   5.288   7.132   0.403
13007TIP3    H238965   5.408   7.168   0.317
13008TIP3   OH238966   7.976   6.959   6.119
13008TIP3    H138967   7.886   6.957   6.088
13008TIP3    H238968   8.028   6.985   6.043
13009TIP3   OH238969   3.235   0.876   5.815
13009TIP3    H138970   3.254   0.888   5.908
13009TIP3    H238971   3.220   0.964   5.782
13010TIP3   OH238972   5.093   5.835   3.990
13010TIP3    H138973   5.126   5.815   4.077
13010TIP3    H238974   5.133   5.919   3.968
13011TIP3   OH238975   2.527   0.464   4.525
13011TIP3    H138976   2.469   0.390   4.506
13011TIP3    H238977   2.474   0.541   4.504
13012TIP3   OH238978   0.559   3.353   2.128
13012TIP3    H138979   0.530   3.422   2.187
13012TIP3    H238980   0.623   3.396   2.070
13013TIP3   OH238981   6.153   5.045   1.593
13013TIP3    H138982   6.236   5.060   1.637
13013TIP3    H238983   6.160   4.957   1.556
13014TIP3   OH238984   3.805   7.671   0.307
13014TIP3    H138985   3.808   7.680   0.402
13014TIP3    H238986   3.843   7.753   0.274
13015TIP3   OH238987   2.667   7.871   2.323
13015TIP3    H138988   2.615   7.790   2.327
13015TIP3    H238989   2.735   7.859   2.388
13016TIP3   OH238990   8.296   2.180   1.645
13016TIP3    H138991   8.264   2.215   1.561
13016TIP3    H238992   8.236   2.215   1.710
13017TIP3   OH238993   2.891   1.632   0.062
13017TIP3    H138994   2.810   1.681   0.069
13017TIP3    H238995   2.866   1.553   0.013
13018TIP3   OH238996   4.331   6.318   5.950
13018TIP3    H138997   4.424   6.298   5.956
13018TIP3    H238998   4.289   6.233   5.933
13019TIP3   OH238999   1.279   3.150   6.522
13019TIP3    H139000   1.199   3.193   6.489
13019TIP3    H239001   1.247   3.080   6.579
13020TIP3   OH239002   3.786   5.865   3.875
13020TIP3    H139003   3.809   5.791   3.931
13020TIP3    H239004   3.793   5.830   3.786
13021TIP3   OH239005   0.081   2.816   0.253
13021TIP3    H139006   0.150   2.882   0.267
13021TIP3    H239007   0.063   2.821   0.159
13022TIP3   OH239008   7.306   1.133   5.378
13022TIP3    H139009   7.371   1.127   5.448
13022TIP3    H239010   7.270   1.044   5.370
13023TIP3   OH239011   4.368   3.976   2.883
13023TIP3    H139012   4.433   3.988   2.952
13023TIP3    H239013   4.307   3.912   2.917
13024TIP3   OH239014   0.771   5.724   0.648
13024TIP3    H139015   0.734   5.764   0.727
13024TIP3    H239016   0.699   5.722   0.586
13025TIP3   OH239017   0.212   1.758   6.106
13025TIP3    H139018   0.269   1.745   6.029
13025TIP3    H239019   0.260   1.820   6.161
13026TIP3   OH239020   7.209   1.184   0.771
13026TIP3    H139021   7.166   1.198   0.856
13026TIP3    H239022   7.152   1.229   0.708
13027TIP3   OH239023   4.641   1.037   0.777
13027TIP3    H139024   4.711   0.973   0.765
13027TIP3    H239025   4.584   1.025   0.700
13028TIP3   OH239026   2.474   0.274   3.970
13028TIP3    H139027   2.382   0.268   3.996
13028TIP3    H239028   2.516   0.199   4.011
13029TIP3   OH239029   2.077   0.752   2.577
13029TIP3    H139030   2.151   0.791   2.531
13029TIP3    H239031   2.108   0.738   2.666
13030TIP3   OH239032   5.987   6.375   3.157
13030TIP3    H139033   6.005   6.342   3.069
13030TIP3    H239034   5.984   6.470   3.147
13031TIP3   OH239035   5.903   5.637   5.355
13031TIP3    H139036   5.816   5.647   5.316
13031TIP3    H239037   5.892   5.662   5.447
13032TIP3   OH239038   7.695   2.007   3.535
13032TIP3    H139039   7.650   2.083   3.499
13032TIP3    H239040   7.705   2.027   3.628
13033TIP3   OH239041   3.732   4.661   5.719
13033TIP3    H139042   3.686   4.582   5.692
13033TIP3    H239043   3.686   4.691   5.797
13034TIP3   OH239044   4.260   2.772   2.207
13034TIP3    H139045   4.188   2.779   2.270
13034TIP3    H239046   4.334   2.739   2.258
13035TIP3   OH239047   0.242   2.796   4.322
13035TIP3    H139048   0.227   2.841   4.404
13035TIP3    H239049   0.188   2.842   4.258
13036TIP3   OH239050   4.450   4.986   1.066
13036TIP3    H139051   4.426   4.898   1.035
13036TIP3    H239052   4.370   5.018   1.108
13037TIP3   OH239053   1.001   5.456   0.997
13037TIP3    H139054   1.062   5.468   0.924
13037TIP3    H239055   0.915   5.475   0.960
13038TIP3   OH239056   2.738   7.298   0.478
13038TIP3    H139057   2.682   7.252   0.416
13038TIP3    H239058   2.696   7.383   0.491
13039TIP3   OH239059   1.268   7.113   4.537
13039TIP3    H139060   1.227   7.027   4.531
13039TIP3    H239061   1.197   7.172   4.565
13040TIP3   OH239062   5.863   7.629   1.684
13040TIP3    H139063   5.853   7.707   1.738
13040TIP3    H239064   5.910   7.567   1.740
13041TIP3   OH239065   4.212   3.311   4.554
13041TIP3    H139066   4.197   3.403   4.531
13041TIP3    H239067   4.251   3.314   4.641
13042TIP3   OH239068   7.514   5.355   5.000
13042TIP3    H139069   7.549   5.389   4.918
13042TIP3    H239070   7.462   5.427   5.035
13043TIP3   OH239071   3.026   7.324   3.126
13043TIP3    H139072   3.103   7.285   3.167
13043TIP3    H239073   3.035   7.418   3.141
13044TIP3   OH239074   7.574   7.191   6.437
13044TIP3    H139075   7.556   7.253   6.508
13044TIP3    H239076   7.628   7.241   6.376
13045TIP3   OH239077   1.753   0.764   1.869
13045TIP3    H139078   1.786   0.738   1.955
13045TIP3    H239079   1.755   0.684   1.817
13046TIP3   OH239080   8.286   5.838   5.925
13046TIP3    H139081   8.246   5.923   5.942
13046TIP3    H239082   8.246   5.780   5.990
13047TIP3   OH239083   3.063   3.076   6.356
13047TIP3    H139084   3.047   2.981   6.353
13047TIP3    H239085   2.977   3.115   6.342
13048TIP3   OH239086   6.138   2.789   6.198
13048TIP3    H139087   6.074   2.806   6.267
13048TIP3    H239088   6.085   2.762   6.123
13049TIP3   OH239089   6.769   3.596   5.048
13049TIP3    H139090   6.842   3.657   5.037
13049TIP3    H239091   6.754   3.563   4.959
13050TIP3   OH239092   7.759   4.067   1.914
13050TIP3    H139093   7.825   4.055   1.846
13050TIP3    H239094   7.678   4.083   1.866
13051TIP3   OH239095   6.302   3.366   0.216
13051TIP3    H139096   6.270   3.282   0.183
13051TIP3    H239097   6.395   3.352   0.230
13052TIP3   OH239098   7.267   7.152   3.155
13052TIP3    H139099   7.319   7.199   3.090
13052TIP3    H239100   7.243   7.219   3.219
13053TIP3   OH239101   5.660   3.448   2.279
13053TIP3    H139102   5.754   3.433   2.270
13053TIP3    H239103   5.620   3.366   2.250
13054TIP3   OH239104   6.654   6.361   0.246
13054TIP3    H139105   6.629   6.426   0.311
13054TIP3    H239106   6.693   6.412   0.175
13055TIP3   OH239107   4.742   7.245   0.747
13055TIP3    H139108   4.693   7.327   0.759
13055TIP3    H239109   4.676   7.176   0.754
13056TIP3   OH239110   1.152   5.361   4.241
13056TIP3    H139111   1.139   5.271   4.210
13056TIP3    H239112   1.219   5.354   4.309
13057TIP3   OH239113   4.398   4.439   4.074
13057TIP3    H139114   4.419   4.494   3.998
13057TIP3    H239115   4.439   4.484   4.148
13058TIP3   OH239116   0.202   3.328   1.504
13058TIP3    H139117   0.283   3.360   1.543
13058TIP3    H239118   0.229   3.255   1.449
13059TIP3   OH239119   0.138   1.919   3.984
13059TIP3    H139120   0.152   1.967   4.066
13059TIP3    H239121   0.116   1.986   3.920
13060TIP3   OH239122   1.940   2.799   4.928
13060TIP3    H139123   1.937   2.884   4.886
13060TIP3    H239124   1.984   2.742   4.864
13061TIP3   OH239125   7.659   6.384   2.422
13061TIP3    H139126   7.679   6.447   2.353
13061TIP3    H239127   7.616   6.435   2.490
13062TIP3   OH239128   8.111   0.475   6.099
13062TIP3    H139129   8.065   0.541   6.151
13062TIP3    H239130   8.048   0.403   6.091
13063TIP3   OH239131   1.374   6.146   4.218
13063TIP3    H139132   1.341   6.194   4.143
13063TIP3    H239133   1.301   6.145   4.280
13064TIP3   OH239134   3.025   3.305   6.180
13064TIP3    H139135   3.052   3.377   6.237
13064TIP3    H239136   3.078   3.231   6.207
13065TIP3   OH239137   3.289   4.143   1.898
13065TIP3    H139138   3.257   4.232   1.907
13065TIP3    H239139   3.372   4.142   1.947
13066TIP3   OH239140   3.811   0.186   0.140
13066TIP3    H139141   3.896   0.174   0.182
13066TIP3    H239142   3.808   0.118   0.073
13067TIP3   OH239143   6.378   1.130   0.407
13067TIP3    H139144   6.451   1.189   0.388
13067TIP3    H239145   6.311   1.187   0.446
13068TIP3   OH239146   2.290   2.077   5.015
13068TIP3    H139147   2.210   2.114   5.053
13068TIP3    H239148   2.360   2.133   5.047
13069TIP3   OH239149   2.596   5.144   5.197
13069TIP3    H139150   2.532   5.077   5.171
13069TIP3    H239151   2.603   5.202   5.122
13070TIP3   OH239152   6.951   6.964   4.528
13070TIP3    H139153   6.890   7.036   4.510
13070TIP3    H239154   6.979   6.978   4.618
13071TIP3   OH239155   0.530   3.946   3.722
13071TIP3    H139156   0.483   4.029   3.710
13071TIP3    H239157   0.621   3.972   3.737
13072TIP3   OH239158   2.110   4.430   1.000
13072TIP3    H139159   2.195   4.441   1.043
13072TIP3    H239160   2.069   4.516   1.007
13073TIP3   OH239161   1.888   3.765   2.765
13073TIP3    H139162   1.957   3.711   2.803
13073TIP3    H239163   1.885   3.738   2.673
13074TIP3   OH239164   6.524   2.959   0.894
13074TIP3    H139165   6.579   2.924   0.964
13074TIP3    H239166   6.544   2.904   0.818
13075TIP3   OH239167   1.660   5.963   2.761
13075TIP3    H139168   1.605   5.887   2.745
13075TIP3    H239169   1.617   6.010   2.832
13076TIP3   OH239170   7.903   5.161   5.493
13076TIP3    H139171   7.950   5.243   5.507
13076TIP3    H239172   7.963   5.094   5.524
13077TIP3   OH239173   1.692   5.961   4.548
13077TIP3    H139174   1.681   5.957   4.453
13077TIP3    H239175   1.771   5.909   4.565
13078TIP3   OH239176   0.680   7.667   6.503
13078TIP3    H139177   0.675   7.671   6.408
13078TIP3    H239178   0.740   7.595   6.521
13079TIP3   OH239179   4.485   0.620   6.452
13079TIP3    H139180   4.401   0.591   6.415
13079TIP3    H239181   4.546   0.549   6.433
13080TIP3   OH239182   7.504   6.474   0.926
13080TIP3    H139183   7.583   6.493   0.875
13080TIP3    H239184   7.473   6.560   0.954
13081TIP3   OH239185   6.387   2.930   2.138
13081TIP3    H139186   6.424   2.879   2.066
13081TIP3    H239187   6.453   2.925   2.207
13082TIP3   OH239188   8.270   4.448   1.385
13082TIP3    H139189   8.321   4.387   1.331
13082TIP3    H239190   8.207   4.393   1.432
13083TIP3   OH239191   3.162   3.568   3.770
13083TIP3    H139192   3.131   3.540   3.856
13083TIP3    H239193   3.229   3.634   3.789
13084TIP3   OH239194   5.444   1.708   4.803
13084TIP3    H139195   5.521   1.664   4.838
13084TIP3    H239196   5.388   1.638   4.771
13085TIP3   OH239197   6.350   6.095   0.158
13085TIP3    H139198   6.392   6.171   0.199
13085TIP3    H239199   6.396   6.085   0.075
13086TIP3   OH239200   4.916   4.350   4.895
13086TIP3    H139201   4.937   4.272   4.844
13086TIP3    H239202   4.824   4.367   4.876
13087TIP3   OH239203   4.445   6.994   0.587
13087TIP3    H139204   4.413   7.056   0.653
13087TIP3    H239205   4.385   7.004   0.513
13088TIP3   OH239206   7.177   2.763   3.187
13088TIP3    H139207   7.220   2.742   3.104
13088TIP3    H239208   7.084   2.750   3.170
13089TIP3   OH239209   4.465   3.280   4.915
13089TIP3    H139210   4.537   3.343   4.908
13089TIP3    H239211   4.492   3.220   4.985
13090TIP3   OH239212   6.935   1.059   1.084
13090TIP3    H139213   7.005   0.994   1.099
13090TIP3    H239214   6.863   1.030   1.141
13091TIP3   OH239215   5.883   5.932   6.202
13091TIP3    H139216   5.910   5.851   6.246
13091TIP3    H239217   5.880   5.997   6.272
13092TIP3   OH239218   2.745   2.142   3.600
13092TIP3    H139219   2.762   2.108   3.512
13092TIP3    H239220   2.805   2.093   3.656
13093TIP3   OH239221   0.449   1.640   1.474
13093TIP3    H139222   0.389   1.677   1.408
13093TIP3    H239223   0.536   1.657   1.439
13094TIP3   OH239224   5.764   6.808   0.674
13094TIP3    H139225   5.853   6.798   0.642
13094TIP3    H239226   5.760   6.751   0.751
13095TIP3   OH239227   7.295   7.637   5.098
13095TIP3    H139228   7.284   7.623   5.004
13095TIP3    H239229   7.284   7.731   5.110
13096TIP3   OH239230   2.520   2.456   3.495
13096TIP3    H139231   2.477   2.538   3.519
13096TIP3    H239232   2.500   2.396   3.567
13097TIP3   OH239233   0.205   7.621   5.655
13097TIP3    H139234   0.256   7.702   5.650
13097TIP3    H239235   0.239   7.576   5.732
13098TIP3   OH239236   3.355   4.588   1.434
13098TIP3    H139237   3.320   4.566   1.348
13098TIP3    H239238   3.326   4.517   1.491
13099TIP3   OH239239   5.147   5.122   4.191
13099TIP3    H139240   5.160   5.128   4.097
13099TIP3    H239241   5.228   5.083   4.224
13100TIP3   OH239242   7.848   7.578   2.065
13100TIP3    H139243   7.767   7.602   2.020
13100TIP3    H239244   7.822   7.569   2.157
13101TIP3   OH239245   7.736   5.326   0.030
13101TIP3    H139246   7.642   5.312   0.041
13101TIP3    H239247   7.769   5.241   0.001
13102TIP3   OH239248   2.253   5.481   5.788
13102TIP3    H139249   2.270   5.563   5.834
13102TIP3    H239250   2.241   5.507   5.696
13103TIP3   OH239251   0.616   0.953   3.744
13103TIP3    H139252   0.577   0.865   3.737
13103TIP3    H239253   0.707   0.940   3.717
13104TIP3   OH239254   7.466   0.099   4.627
13104TIP3    H139255   7.546   0.112   4.576
13104TIP3    H239256   7.398   0.146   4.578
13105TIP3   OH239257   3.739   3.337   1.272
13105TIP3    H139258   3.791   3.327   1.352
13105TIP3    H239259   3.797   3.310   1.202
13106TIP3   OH239260   4.812   2.207   2.399
13106TIP3    H139261   4.817   2.112   2.390
13106TIP3    H239262   4.765   2.221   2.481
13107TIP3   OH239263   5.101   1.898   5.885
13107TIP3    H139264   5.064   1.820   5.925
13107TIP3    H239265   5.030   1.962   5.887
13108TIP3   OH239266   3.039   1.771   1.137
13108TIP3    H139267   3.047   1.707   1.208
13108TIP3    H239268   3.068   1.723   1.059
13109TIP3   OH239269   5.559   1.341   3.867
13109TIP3    H139270   5.473   1.300   3.867
13109TIP3    H239271   5.551   1.414   3.805
13110TIP3   OH239272   3.774   4.203   5.167
13110TIP3    H139273   3.734   4.117   5.155
13110TIP3    H239274   3.802   4.230   5.080
13111TIP3   OH239275   2.295   0.259   1.942
13111TIP3    H139276   2.307   0.354   1.952
13111TIP3    H239277   2.231   0.236   2.009
13112TIP3   OH239278   6.676   7.104   3.596
13112TIP3    H139279   6.680   7.072   3.686
13112TIP3    H239280   6.767   7.111   3.569
13113TIP3   OH239281   4.903   0.174   1.867
13113TIP3    H139282   4.986   0.213   1.895
13113TIP3    H239283   4.848   0.175   1.945
13114TIP3   OH239284   6.618   4.660   3.838
13114TIP3    H139285   6.652   4.627   3.755
13114TIP3    H239286   6.693   4.657   3.898
13115TIP3   OH239287   1.841   1.118   5.070
13115TIP3    H139288   1.904   1.090   5.137
13115TIP3    H239289   1.896   1.147   4.997
13116TIP3   OH239290   5.313   2.427   3.060
13116TIP3    H139291   5.281   2.501   3.113
13116TIP3    H239292   5.395   2.458   3.023
13117TIP3   OH239293   4.131   3.639   3.967
13117TIP3    H139294   4.182   3.719   3.973
13117TIP3    H239295   4.118   3.612   4.058
13118TIP3   OH239296   1.503   4.604   0.256
13118TIP3    H139297   1.425   4.623   0.204
13118TIP3    H239298   1.526   4.514   0.233
13119TIP3   OH239299   1.453   0.707   2.647
13119TIP3    H139300   1.488   0.793   2.669
13119TIP3    H239301   1.412   0.677   2.728
13120TIP3   OH239302   2.759   6.470   6.555
13120TIP3    H139303   2.803   6.439   6.476
13120TIP3    H239304   2.806   6.428   6.627
13121TIP3   OH239305   6.587   6.085   3.695
13121TIP3    H139306   6.628   6.036   3.625
13121TIP3    H239307   6.641   6.163   3.706
13122TIP3   OH239308   8.298   1.550   4.899
13122TIP3    H139309   8.258   1.521   4.980
13122TIP3    H239310   8.384   1.508   4.898
13123TIP3   OH239311   6.825   4.711   0.123
13123TIP3    H139312   6.900   4.771   0.116
13123TIP3    H239313   6.820   4.691   0.217
13124TIP3   OH239314   0.794   4.865   4.544
13124TIP3    H139315   0.811   4.899   4.456
13124TIP3    H239316   0.715   4.813   4.535
13125TIP3   OH239317   1.235   7.602   6.592
13125TIP3    H139318   1.251   7.649   6.511
13125TIP3    H239319   1.273   7.516   6.578
13126TIP3   OH239320   1.282   6.240   0.730
13126TIP3    H139321   1.197   6.253   0.687
13126TIP3    H239322   1.261   6.191   0.810
13127TIP3   OH239323   6.842   2.043   4.983
13127TIP3    H139324   6.768   2.090   5.022
13127TIP3    H239325   6.918   2.097   5.002
13128TIP3   OH239326   5.398   3.025   1.242
13128TIP3    H139327   5.480   3.070   1.218
13128TIP3    H239328   5.355   3.085   1.303
13129TIP3   OH239329   1.648   1.217   0.501
13129TIP3    H139330   1.734   1.254   0.481
13129TIP3    H239331   1.611   1.278   0.566
13130TIP3   OH239332   3.142   5.895   6.273
13130TIP3    H139333   3.232   5.928   6.265
13130TIP3    H239334   3.120   5.867   6.184
13131TIP3   OH239335   7.880   6.303   5.554
13131TIP3    H139336   7.880   6.320   5.648
13131TIP3    H239337   7.972   6.302   5.529
13132TIP3   OH239338   7.091   6.591   6.707
13132TIP3    H139339   7.076   6.673   6.756
13132TIP3    H239340   7.011   6.541   6.721
13133TIP3   OH239341   4.591   5.016   3.961
13133TIP3    H139342   4.665   4.960   3.941
13133TIP3    H239343   4.529   5.002   3.889
13134TIP3   OH239344   6.761   6.318   3.688
13134TIP3    H139345   6.731   6.388   3.630
13134TIP3    H239346   6.853   6.337   3.703
13135TIP3   OH239347   7.783   3.168   5.698
13135TIP3    H139348   7.819   3.212   5.621
13135TIP3    H239349   7.742   3.238   5.749
13136TIP3   OH239350   7.564   6.715   0.383
13136TIP3    H139351   7.482   6.675   0.414
13136TIP3    H239352   7.613   6.642   0.345
13137TIP3   OH239353   6.049   5.003   5.897
13137TIP3    H139354   5.974   5.025   5.841
13137TIP3    H239355   6.014   5.013   5.986
13138TIP3   OH239356   5.677   5.722   0.262
13138TIP3    H139357   5.710   5.684   0.343
13138TIP3    H239358   5.695   5.655   0.195
13139TIP3   OH239359   5.334   4.507   4.371
13139TIP3    H139360   5.279   4.585   4.378
13139TIP3    H239361   5.383   4.505   4.454
13140TIP3   OH239362   1.914   4.899   1.829
13140TIP3    H139363   1.942   4.990   1.844
13140TIP3    H239364   1.970   4.867   1.759
13141TIP3   OH239365   1.510   3.402   6.615
13141TIP3    H139366   1.596   3.368   6.590
13141TIP3    H239367   1.521   3.497   6.614
13142TIP3   OH239368   7.893   7.357   4.954
13142TIP3    H139369   7.877   7.270   4.991
13142TIP3    H239370   7.988   7.368   4.958
13143TIP3   OH239371   1.606   3.304   1.848
13143TIP3    H139372   1.650   3.291   1.932
13143TIP3    H239373   1.668   3.268   1.784
13144TIP3   OH239374   8.175   0.073   3.626
13144TIP3    H139375   8.121   0.153   3.622
13144TIP3    H239376   8.264   0.104   3.612
13145TIP3   OH239377   6.310   5.816   5.774
13145TIP3    H139378   6.233   5.763   5.756
13145TIP3    H239379   6.384   5.755   5.770
13146TIP3   OH239380   5.386   0.590   2.277
13146TIP3    H139381   5.371   0.607   2.184
13146TIP3    H239382   5.299   0.597   2.317
13147TIP3   OH239383   1.469   6.112   2.568
13147TIP3    H139384   1.472   6.017   2.558
13147TIP3    H239385   1.395   6.140   2.515
13148TIP3   OH239386   3.710   4.044   2.683
13148TIP3    H139387   3.629   3.998   2.704
13148TIP3    H239388   3.700   4.130   2.725
13149TIP3   OH239389   5.035   1.306   4.968
13149TIP3    H139390   5.113   1.347   5.006
13149TIP3    H239391   5.069   1.249   4.900
13150TIP3   OH239392   5.796   7.207   1.242
13150TIP3    H139393   5.841   7.247   1.167
13150TIP3    H239394   5.798   7.113   1.223
13151TIP3   OH239395   4.004   7.719   1.504
13151TIP3    H139396   3.925   7.705   1.556
13151TIP3    H239397   4.074   7.728   1.568
13152TIP3   OH239398   0.377   7.795   2.957
13152TIP3    H139399   0.372   7.762   2.867
13152TIP3    H239400   0.400   7.887   2.948
13153TIP3   OH239401   8.201   2.580   6.519
13153TIP3    H139402   8.228   2.537   6.438
13153TIP3    H239403   8.188   2.508   6.581
13154TIP3   OH239404   4.154   0.231   1.025
13154TIP3    H139405   4.184   0.247   0.935
13154TIP3    H239406   4.227   0.259   1.080
13155TIP3   OH239407   5.553   0.957   5.362
13155TIP3    H139408   5.494   1.023   5.399
13155TIP3    H239409   5.550   0.885   5.426
13156TIP3   OH239410   3.765   6.051   5.987
13156TIP3    H139411   3.797   6.108   6.056
13156TIP3    H239412   3.775   6.102   5.906
13157TIP3   OH239413   5.551   5.541   2.349
13157TIP3    H139414   5.565   5.634   2.333
13157TIP3    H239415   5.569   5.500   2.264
13158TIP3   OH239416   7.576   4.767   2.495
13158TIP3    H139417   7.500   4.724   2.457
13158TIP3    H239418   7.645   4.756   2.429
13159TIP3   OH239419   5.820   1.462   6.404
13159TIP3    H139420   5.889   1.516   6.367
13159TIP3    H239421   5.811   1.389   6.343
13160TIP3   OH239422   5.181   4.346   4.605
13160TIP3    H139423   5.227   4.332   4.688
13160TIP3    H239424   5.194   4.264   4.557
13161TIP3   OH239425   5.314   6.690   1.964
13161TIP3    H139426   5.362   6.704   2.046
13161TIP3    H239427   5.371   6.725   1.896
13162TIP3   OH239428   3.426   0.884   4.270
13162TIP3    H139429   3.454   0.957   4.325
13162TIP3    H239430   3.330   0.885   4.276
13163TIP3   OH239431   6.444   7.637   1.351
13163TIP3    H139432   6.467   7.587   1.429
13163TIP3    H239433   6.349   7.634   1.347
13164TIP3   OH239434   1.276   4.186   4.439
13164TIP3    H139435   1.186   4.165   4.462
13164TIP3    H239436   1.277   4.189   4.343
13165TIP3   OH239437   1.369   4.426   1.006
13165TIP3    H139438   1.345   4.389   1.090
13165TIP3    H239439   1.428   4.498   1.028
13166TIP3   OH239440   2.166   1.202   2.697
13166TIP3    H139441   2.153   1.186   2.791
13166TIP3    H239442   2.095   1.262   2.674
13167TIP3   OH239443   7.317   1.268   4.532
13167TIP3    H139444   7.403   1.268   4.574
13167TIP3    H239445   7.256   1.248   4.603
13168TIP3   OH239446   3.242   2.300   3.031
13168TIP3    H139447   3.308   2.338   2.973
13168TIP3    H239448   3.264   2.207   3.036
13169TIP3   OH239449   0.040   4.250   5.245
13169TIP3    H139450   0.045   4.318   5.178
13169TIP3    H239451  -0.031   4.193   5.216
13170TIP3   OH239452   6.484   1.212   3.577
13170TIP3    H139453   6.486   1.130   3.528
13170TIP3    H239454   6.432   1.271   3.524
13171TIP3   OH239455   4.829   3.610   0.579
13171TIP3    H139456   4.818   3.532   0.633
13171TIP3    H239457   4.783   3.679   0.627
13172TIP3   OH239458   3.208   4.843   1.495
13172TIP3    H139459   3.221   4.753   1.522
13172TIP3    H239460   3.151   4.837   1.418
13173TIP3   OH239461   7.065   2.866   6.601
13173TIP3    H139462   6.986   2.911   6.629
13173TIP3    H239463   7.037   2.775   6.590
13174TIP3   OH239464   4.081   2.074   5.883
13174TIP3    H139465   4.043   2.150   5.838
13174TIP3    H239466   4.013   2.048   5.946
13175TIP3   OH239467   3.894   1.825   5.535
13175TIP3    H139468   3.975   1.774   5.536
13175TIP3    H239469   3.923   1.916   5.530
13176TIP3   OH239470   2.760   1.611   1.139
13176TIP3    H139471   2.766   1.544   1.207
13176TIP3    H239472   2.685   1.583   1.085
13177TIP3   OH239473   3.213   0.295   0.777
13177TIP3    H139474   3.138   0.325   0.725
13177TIP3    H239475   3.207   0.200   0.773
13178TIP3   OH239476   3.464   1.634   0.521
13178TIP3    H139477   3.452   1.655   0.613
13178TIP3    H239478   3.552   1.598   0.516
13179TIP3   OH239479   2.851   6.334   1.118
13179TIP3    H139480   2.939   6.316   1.151
13179TIP3    H239481   2.793   6.285   1.176
13180TIP3   OH239482   4.145   5.327   5.207
13180TIP3    H139483   4.219   5.267   5.218
13180TIP3    H239484   4.112   5.341   5.296
13181TIP3   OH239485   0.886   1.557   0.298
13181TIP3    H139486   0.846   1.540   0.212
13181TIP3    H239487   0.909   1.650   0.295
13182TIP3   OH239488   4.265   7.068   6.500
13182TIP3    H139489   4.251   7.128   6.573
13182TIP3    H239490   4.186   7.077   6.447
13183TIP3   OH239491   4.999   4.314   2.490
13183TIP3    H139492   5.036   4.401   2.505
13183TIP3    H239493   4.973   4.314   2.398
13184TIP3   OH239494   3.846   6.568   0.633
13184TIP3    H139495   3.881   6.480   0.623
13184TIP3    H239496   3.803   6.587   0.550
13185TIP3   OH239497   4.913   1.835   4.990
13185TIP3    H139498   4.846   1.863   5.052
13185TIP3    H239499   4.978   1.790   5.044
13186TIP3   OH239500   6.000   4.718   5.117
13186TIP3    H139501   5.925   4.735   5.060
13186TIP3    H239502   6.031   4.631   5.089
13187TIP3   OH239503   3.414   1.120   3.031
13187TIP3    H139504   3.499   1.160   3.013
13187TIP3    H239505   3.422   1.031   2.997
13188TIP3   OH239506   3.604   0.660   2.807
13188TIP3    H139507   3.599   0.641   2.713
13188TIP3    H239508   3.695   0.689   2.820
13189TIP3   OH239509   1.484   6.917   6.462
13189TIP3    H139510   1.511   6.888   6.375
13189TIP3    H239511   1.514   6.848   6.521
13190TIP3   OH239512   7.283   1.127   2.245
13190TIP3    H139513   7.289   1.083   2.330
13190TIP3    H239514   7.372   1.125   2.210
13191TIP3   OH239515   0.031   6.222   3.334
13191TIP3    H139516   0.095   6.276   3.287
13191TIP3    H239517  -0.003   6.162   3.267
13192TIP3   OH239518   6.105   6.864   5.402
13192TIP3    H139519   6.063   6.872   5.317
13192TIP3    H239520   6.142   6.776   5.402
13193TIP3   OH239521   7.408   5.989   1.486
13193TIP3    H139522   7.354   5.992   1.407
13193TIP3    H239523   7.475   6.055   1.472
13194TIP3   OH239524   2.573   1.205   2.583
13194TIP3    H139525   2.503   1.141   2.584
13194TIP3    H239526   2.534   1.284   2.545
13195TIP3   OH239527   0.506   0.279   4.053
13195TIP3    H139528   0.580   0.337   4.067
13195TIP3    H239529   0.435   0.337   4.026
13196TIP3   OH239530   4.172   1.402   1.890
13196TIP3    H139531   4.221   1.484   1.891
13196TIP3    H239532   4.080   1.428   1.882
13197TIP3   OH239533   7.053   5.230   4.687
13197TIP3    H139534   7.021   5.145   4.659
13197TIP3    H239535   7.073   5.219   4.780
13198TIP3   OH239536   2.437   2.120   4.481
13198TIP3    H139537   2.408   2.117   4.572
13198TIP3    H239538   2.422   2.211   4.455
13199TIP3   OH239539   7.598   0.961   6.209
13199TIP3    H139540   7.584   1.055   6.203
13199TIP3    H239541   7.676   0.951   6.262
13200TIP3   OH239542   1.374   5.243   1.826
13200TIP3    H139543   1.374   5.195   1.909
13200TIP3    H239544   1.459   5.287   1.824
13201TIP3   OH239545   2.338   5.535   0.080
13201TIP3    H139546   2.291   5.613   0.049
13201TIP3    H239547   2.420   5.569   0.116
13202TIP3   OH239548   6.079   2.991   2.062
13202TIP3    H139549   6.056   2.917   2.119
13202TIP3    H239550   6.173   3.004   2.075
13203TIP3   OH239551   2.534   3.815   3.895
13203TIP3    H139552   2.583   3.869   3.832
13203TIP3    H239553   2.466   3.773   3.842
13204TIP3   OH239554   7.142   3.759   5.553
13204TIP3    H139555   7.185   3.770   5.468
13204TIP3    H239556   7.092   3.677   5.544
13205TIP3   OH239557   6.217   6.204   4.385
13205TIP3    H139558   6.188   6.153   4.461
13205TIP3    H239559   6.245   6.288   4.421
13206TIP3   OH239560   1.854   1.691   0.261
13206TIP3    H139561   1.848   1.652   0.174
13206TIP3    H239562   1.946   1.717   0.270
13207TIP3   OH239563   3.569   6.828   0.642
13207TIP3    H139564   3.576   6.756   0.705
13207TIP3    H239565   3.506   6.888   0.683
13208TIP3   OH239566   4.854   3.609   0.063
13208TIP3    H139567   4.924   3.611  -0.001
13208TIP3    H239568   4.884   3.668   0.133
13209TIP3   OH239569   1.464   6.720   3.452
13209TIP3    H139570   1.392   6.734   3.391
13209TIP3    H239571   1.438   6.767   3.531
13210TIP3   OH239572   1.055   1.168   3.510
13210TIP3    H139573   1.118   1.209   3.569
13210TIP3    H239574   1.106   1.146   3.432
13211TIP3   OH239575   5.539   1.392   0.024
13211TIP3    H139576   5.628   1.370   0.052
13211TIP3    H239577   5.549   1.424  -0.066
13212TIP3   OH239578   4.024   7.568   4.427
13212TIP3    H139579   3.941   7.522   4.436
13212TIP3    H239580   4.075   7.540   4.503
13213TIP3   OH239581   5.706   2.477   5.226
13213TIP3    H139582   5.736   2.414   5.291
13213TIP3    H239583   5.657   2.542   5.276
13214TIP3   OH239584   3.948   0.655   3.467
13214TIP3    H139585   3.866   0.605   3.480
13214TIP3    H239586   4.004   0.596   3.417
13215TIP3   OH239587   1.671   2.267   1.599
13215TIP3    H139588   1.662   2.173   1.581
13215TIP3    H239589   1.747   2.272   1.657
13216TIP3   OH239590   4.723   1.134   2.782
13216TIP3    H139591   4.782   1.157   2.710
13216TIP3    H239592   4.778   1.086   2.844
13217TIP3   OH239593   0.276   2.879   5.082
13217TIP3    H139594   0.344   2.818   5.055
13217TIP3    H239595   0.298   2.902   5.173
13218TIP3   OH239596   6.560   1.403   4.477
13218TIP3    H139597   6.623   1.375   4.410
13218TIP3    H239598   6.475   1.371   4.445
13219TIP3   OH239599   5.460   7.109   2.896
13219TIP3    H139600   5.529   7.167   2.929
13219TIP3    H239601   5.424   7.155   2.820
13220TIP3   OH239602   4.126   3.095   5.493
13220TIP3    H139603   4.078   3.021   5.529
13220TIP3    H239604   4.171   3.059   5.416
13221TIP3   OH239605   0.684   6.981   5.292
13221TIP3    H139606   0.673   6.905   5.236
13221TIP3    H239607   0.774   6.973   5.325
13222TIP3   OH239608   2.192   1.563   2.888
13222TIP3    H139609   2.267   1.518   2.848
13222TIP3    H239610   2.117   1.506   2.870
13223TIP3   OH239611   7.070   4.550   0.314
13223TIP3    H139612   7.048   4.470   0.267
13223TIP3    H239613   7.078   4.523   0.406
13224TIP3   OH239614   7.705   7.023   2.116
13224TIP3    H139615   7.778   7.080   2.140
13224TIP3    H239616   7.677   7.055   2.030
13225TIP3   OH239617   7.785   0.972   0.268
13225TIP3    H139618   7.833   1.036   0.216
13225TIP3    H239619   7.821   0.982   0.357
13226TIP3   OH239620   3.066   2.348   6.143
13226TIP3    H139621   3.010   2.276   6.117
13226TIP3    H239622   3.031   2.376   6.228
13227TIP3   OH239623   0.695   6.419   5.361
13227TIP3    H139624   0.752   6.345   5.381
13227TIP3    H239625   0.656   6.396   5.276
13228TIP3   OH239626   4.709   0.832   3.474
13228TIP3    H139627   4.687   0.836   3.381
13228TIP3    H239628   4.804   0.840   3.477
13229TIP3   OH239629   2.316   5.667   5.093
13229TIP3    H139630   2.310   5.668   4.998
13229TIP3    H239631   2.383   5.602   5.112
13230TIP3   OH239632   6.386   3.478   1.670
13230TIP3    H139633   6.357   3.558   1.625
13230TIP3    H239634   6.315   3.458   1.731
13231TIP3   OH239635   6.946   5.721   3.117
13231TIP3    H139636   6.920   5.635   3.085
13231TIP3    H239637   6.869   5.753   3.163
13232TIP3   OH239638   0.319   6.400   0.884
13232TIP3    H139639   0.300   6.440   0.969
13232TIP3    H239640   0.281   6.460   0.820
13233TIP3   OH239641   6.924   3.248   6.538
13233TIP3    H139642   6.982   3.313   6.500
13233TIP3    H239643   6.838   3.268   6.501
13234TIP3   OH239644   5.733   6.675   1.194
13234TIP3    H139645   5.805   6.649   1.136
13234TIP3    H239646   5.730   6.770   1.186
13235TIP3   OH239647   2.126   5.226   2.682
13235TIP3    H139648   2.061   5.175   2.633
13235TIP3    H239649   2.180   5.266   2.614
13236TIP3   OH239650   0.461   3.516   3.149
13236TIP3    H139651   0.460   3.424   3.124
13236TIP3    H239652   0.473   3.563   3.067
13237TIP3   OH239653   5.648   1.724   1.177
13237TIP3    H139654   5.732   1.703   1.218
13237TIP3    H239655   5.606   1.639   1.164
13238TIP3   OH239656   0.069   4.444   5.049
13238TIP3    H139657   0.118   4.527   5.046
13238TIP3    H239658  -0.022   4.470   5.038
13239TIP3   OH239659   8.086   5.428   0.420
13239TIP3    H139660   8.053   5.442   0.331
13239TIP3    H239661   8.009   5.433   0.476
13240TIP3   OH239662   7.465   7.425   0.237
13240TIP3    H139663   7.540   7.444   0.293
13240TIP3    H239664   7.394   7.480   0.272
13241TIP3   OH239665   6.259   4.180   5.340
13241TIP3    H139666   6.238   4.089   5.322
13241TIP3    H239667   6.215   4.199   5.423
13242TIP3   OH239668   3.208   3.268   5.495
13242TIP3    H139669   3.237   3.237   5.581
13242TIP3    H239670   3.150   3.342   5.515
13243TIP3   OH239671   0.928   6.116   3.656
13243TIP3    H139672   0.966   6.071   3.581
13243TIP3    H239673   0.902   6.045   3.715
13244TIP3   OH239674   4.160   7.416   1.143
13244TIP3    H139675   4.089   7.425   1.207
13244TIP3    H239676   4.226   7.480   1.170
13245TIP3   OH239677   3.555   0.610   6.172
13245TIP3    H139678   3.604   0.643   6.248
13245TIP3    H239679   3.468   0.648   6.181
13246TIP3   OH239680   1.640   5.006   5.229
13246TIP3    H139681   1.650   4.976   5.320
13246TIP3    H239682   1.704   4.955   5.180
13247TIP3   OH239683   2.165   6.838   1.932
13247TIP3    H139684   2.164   6.926   1.968
13247TIP3    H239685   2.075   6.807   1.941
13248TIP3   OH239686   4.428   3.687   1.333
13248TIP3    H139687   4.341   3.713   1.362
13248TIP3    H239688   4.475   3.667   1.413
13249TIP3   OH239689   5.907   6.311   6.563
13249TIP3    H139690   5.947   6.397   6.577
13249TIP3    H239691   5.978   6.257   6.529
13250TIP3   OH239692   2.062   0.600   1.722
13250TIP3    H139693   2.108   0.578   1.641
13250TIP3    H239694   2.003   0.671   1.699
13251TIP3   OH239695   2.109   5.188   1.128
13251TIP3    H139696   2.067   5.232   1.202
13251TIP3    H239697   2.159   5.257   1.085
13252TIP3   OH239698   1.250   2.032   6.386
13252TIP3    H139699   1.222   2.081   6.308
13252TIP3    H239700   1.293   1.954   6.352
13253TIP3   OH239701   5.202   1.124   4.832
13253TIP3    H139702   5.143   1.049   4.835
13253TIP3    H239703   5.290   1.086   4.824
13254TIP3   OH239704   4.162   6.202   2.263
13254TIP3    H139705   4.095   6.255   2.219
13254TIP3    H239706   4.113   6.134   2.308
13255TIP3   OH239707   6.761   4.258   1.435
13255TIP3    H139708   6.783   4.172   1.397
13255TIP3    H239709   6.708   4.301   1.369
13256TIP3   OH239710   0.129   5.291   5.236
13256TIP3    H139711   0.070   5.270   5.309
13256TIP3    H239712   0.172   5.372   5.262
13257TIP3   OH239713   7.243   6.486   4.021
13257TIP3    H139714   7.186   6.524   4.087
13257TIP3    H239715   7.283   6.411   4.065
13258TIP3   OH239716   2.566   6.484   1.430
13258TIP3    H139717   2.537   6.467   1.340
13258TIP3    H239718   2.578   6.579   1.434
13259TIP3   OH239719   2.349   1.324   3.722
13259TIP3    H139720   2.269   1.309   3.773
13259TIP3    H239721   2.412   1.260   3.755
13260TIP3   OH239722   7.922   5.175   2.250
13260TIP3    H139723   7.943   5.119   2.324
13260TIP3    H239724   7.830   5.155   2.230
13261TIP3   OH239725   6.912   1.638   0.283
13261TIP3    H139726   6.916   1.648   0.188
13261TIP3    H239727   6.875   1.551   0.296
13262TIP3   OH239728   4.711   2.355   0.436
13262TIP3    H139729   4.790   2.346   0.384
13262TIP3    H239730   4.673   2.438   0.409
13263TIP3   OH239731   1.415   3.147   1.705
13263TIP3    H139732   1.473   3.217   1.735
13263TIP3    H239733   1.473   3.074   1.685
13264TIP3   OH239734   5.065   4.390   6.141
13264TIP3    H139735   5.138   4.424   6.089
13264TIP3    H239736   5.088   4.298   6.156
13265TIP3   OH239737   2.018   5.899   1.315
13265TIP3    H139738   1.941   5.948   1.344
13265TIP3    H239739   2.080   5.905   1.387
13266TIP3   OH239740   6.970   6.098   6.249
13266TIP3    H139741   6.951   6.091   6.155
13266TIP3    H239742   6.973   6.008   6.280
13267TIP3   OH239743   4.396   4.583   4.810
13267TIP3    H139744   4.483   4.592   4.770
13267TIP3    H239745   4.395   4.495   4.846
13268TIP3   OH239746   3.503   5.194   0.482
13268TIP3    H139747   3.534   5.251   0.552
13268TIP3    H239748   3.551   5.112   0.494
13269TIP3   OH239749   4.859   3.647   0.892
13269TIP3    H139750   4.952   3.663   0.912
13269TIP3    H239751   4.826   3.731   0.862
13270TIP3   OH239752   2.295   2.396   0.197
13270TIP3    H139753   2.277   2.344   0.276
13270TIP3    H239754   2.211   2.436   0.175
13271TIP3   OH239755   0.461  -0.009   6.164
13271TIP3    H139756   0.522   0.007   6.093
13271TIP3    H239757   0.501   0.033   6.240
13272TIP3   OH239758   7.821   7.567   3.518
13272TIP3    H139759   7.732   7.551   3.485
13272TIP3    H239760   7.878   7.551   3.443
13273TIP3   OH239761   2.305   6.245   3.947
13273TIP3    H139762   2.215   6.241   3.915
13273TIP3    H239763   2.300   6.293   4.029
13274TIP3   OH239764   4.743   5.654   5.327
13274TIP3    H139765   4.794   5.718   5.278
13274TIP3    H239766   4.668   5.703   5.361
13275TIP3   OH239767   4.819   3.301   3.967
13275TIP3    H139768   4.768   3.259   4.037
13275TIP3    H239769   4.910   3.280   3.987
13276TIP3   OH239770   0.036   5.228   0.653
13276TIP3    H139771   0.043   5.312   0.607
13276TIP3    H239772   0.123   5.214   0.691
13277TIP3   OH239773   6.003   6.606   4.095
13277TIP3    H139774   6.085   6.557   4.090
13277TIP3    H239775   5.973   6.611   4.004
13278TIP3   OH239776   1.771   4.538   4.576
13278TIP3    H139777   1.724   4.618   4.553
13278TIP3    H239778   1.862   4.566   4.588
13279TIP3   OH239779   6.679   5.826   3.115
13279TIP3    H139780   6.678   5.913   3.154
13279TIP3    H239781   6.589   5.794   3.123
13280TIP3   OH239782   4.963   5.873   2.290
13280TIP3    H139783   4.931   5.962   2.274
13280TIP3    H239784   4.897   5.834   2.347
13281TIP3   OH239785   7.001   5.063   5.843
13281TIP3    H139786   7.010   5.120   5.920
13281TIP3    H239787   6.941   5.110   5.786
13282TIP3   OH239788   7.683   5.802   5.797
13282TIP3    H139789   7.753   5.867   5.801
13282TIP3    H239790   7.616   5.842   5.740
13283TIP3   OH239791   1.633   5.015   3.012
13283TIP3    H139792   1.599   4.929   2.986
13283TIP3    H239793   1.726   5.013   2.989
13284TIP3   OH239794   5.491   6.796   3.331
13284TIP3    H139795   5.574   6.767   3.293
13284TIP3    H239796   5.466   6.872   3.278
13285TIP3   OH239797   5.669   7.528   1.977
13285TIP3    H139798   5.661   7.533   2.072
13285TIP3    H239799   5.593   7.575   1.944
13286TIP3   OH239800   7.203   2.859   1.103
13286TIP3    H139801   7.287   2.845   1.146
13286TIP3    H239802   7.227   2.884   1.013
13287TIP3   OH239803   1.666   1.800   5.817
13287TIP3    H139804   1.756   1.818   5.847
13287TIP3    H239805   1.620   1.883   5.829
13288TIP3   OH239806   6.569   1.068   4.224
13288TIP3    H139807   6.645   1.103   4.272
13288TIP3    H239808   6.550   1.135   4.159
13289TIP3   OH239809   5.230   4.919   2.753
13289TIP3    H139810   5.229   5.011   2.780
13289TIP3    H239811   5.210   4.871   2.833
13290TIP3   OH239812   6.926   4.192   4.571
13290TIP3    H139813   6.871   4.115   4.574
13290TIP3    H239814   7.007   4.166   4.615
13291TIP3   OH239815   0.908   7.232   6.353
13291TIP3    H139816   0.907   7.203   6.262
13291TIP3    H239817   0.896   7.327   6.348
13292TIP3   OH239818   0.743   4.091   6.755
13292TIP3    H139819   0.733   4.056   6.666
13292TIP3    H239820   0.816   4.041   6.792
13293TIP3   OH239821   1.786   5.381   0.211
13293TIP3    H139822   1.771   5.472   0.188
13293TIP3    H239823   1.732   5.367   0.290
13294TIP3   OH239824   3.471   7.081   0.995
13294TIP3    H139825   3.541   7.016   0.982
13294TIP3    H239826   3.406   7.061   0.928
13295TIP3   OH239827   3.518   6.219   6.168
13295TIP3    H139828   3.607   6.232   6.203
13295TIP3    H239829   3.526   6.243   6.076
13296TIP3   OH239830   6.582   7.035   4.676
13296TIP3    H139831   6.638   7.107   4.646
13296TIP3    H239832   6.494   7.060   4.648
13297TIP3   OH239833   8.183   5.859   6.294
13297TIP3    H139834   8.220   5.946   6.282
13297TIP3    H239835   8.126   5.868   6.371
13298TIP3   OH239836   2.080   2.908   2.588
13298TIP3    H139837   2.127   2.825   2.588
13298TIP3    H239838   2.099   2.947   2.503
13299TIP3   OH239839   4.895   7.851   4.201
13299TIP3    H139840   4.893   7.947   4.195
13299TIP3    H239841   4.988   7.830   4.207
13300TIP3   OH239842   0.683   4.522   2.409
13300TIP3    H139843   0.604   4.574   2.395
13300TIP3    H239844   0.751   4.568   2.361
13301TIP3   OH239845   3.746   6.677   1.975
13301TIP3    H139846   3.754   6.770   1.952
13301TIP3    H239847   3.720   6.634   1.893
13302TIP3   OH239848   8.184   1.888   5.676
13302TIP3    H139849   8.125   1.952   5.715
13302TIP3    H239850   8.131   1.845   5.608
13303TIP3   OH239851   6.403   4.419   0.934
13303TIP3    H139852   6.310   4.410   0.912
13303TIP3    H239853   6.403   4.445   1.026
13304TIP3   OH239854   2.425   3.978   5.325
13304TIP3    H139855   2.379   4.020   5.398
13304TIP3    H239856   2.516   3.970   5.354
13305TIP3   OH239857   2.596   5.042   0.503
13305TIP3    H139858   2.501   5.042   0.508
13305TIP3    H239859   2.624   5.115   0.558
13306TIP3   OH239860   4.143   1.596   1.586
13306TIP3    H139861   4.140   1.675   1.531
13306TIP3    H239862   4.056   1.590   1.626
13307TIP3   OH239863   3.307   3.260   2.944
13307TIP3    H139864   3.319   3.255   2.849
13307TIP3    H239865   3.250   3.186   2.965
13308TIP3   OH239866   1.159   6.855   1.470
13308TIP3    H139867   1.102   6.912   1.522
13308TIP3    H239868   1.106   6.777   1.453
13309TIP3   OH239869   2.485   7.207   3.602
13309TIP3    H139870   2.422   7.151   3.646
13309TIP3    H239871   2.489   7.172   3.512
13310TIP3   OH239872   5.483   5.923   0.315
13310TIP3    H139873   5.549   5.861   0.282
13310TIP3    H239874   5.508   6.007   0.277
13311TIP3   OH239875   1.453   1.482   0.591
13311TIP3    H139876   1.466   1.426   0.668
13311TIP3    H239877   1.371   1.451   0.553
13312TIP3   OH239878   6.044   3.005   0.518
13312TIP3    H139879   6.109   2.935   0.515
13312TIP3    H239880   6.021   3.011   0.611
13313TIP3   OH239881   8.101   5.007   3.462
13313TIP3    H139882   8.036   4.940   3.484
13313TIP3    H239883   8.120   5.049   3.546
13314TIP3   OH239884   2.180   4.944   2.989
13314TIP3    H139885   2.186   4.871   3.051
13314TIP3    H239886   2.266   4.986   2.994
13315TIP3   OH239887   3.134   5.022   6.208
13315TIP3    H139888   3.065   5.051   6.149
13315TIP3    H239889   3.192   5.098   6.216
13316TIP3   OH239890   1.302   7.381   6.808
13316TIP3    H139891   1.224   7.408   6.759
13316TIP3    H239892   1.351   7.462   6.822
13317TIP3   OH239893   0.177   0.386   2.802
13317TIP3    H139894   0.085   0.362   2.794
13317TIP3    H239895   0.176   0.481   2.814
13318TIP3   OH239896   7.826   1.028   6.011
13318TIP3    H139897   7.888   0.966   5.973
13318TIP3    H239898   7.781   0.978   6.080
13319TIP3   OH239899   6.639   5.296   5.443
13319TIP3    H139900   6.552   5.266   5.416
13319TIP3    H239901   6.675   5.225   5.495
13320TIP3   OH239902   3.159   2.385   4.928
13320TIP3    H139903   3.243   2.430   4.928
13320TIP3    H239904   3.154   2.344   4.841
13321TIP3   OH239905   3.453   7.466   5.129
13321TIP3    H139906   3.422   7.529   5.065
13321TIP3    H239907   3.407   7.385   5.107
13322TIP3   OH239908   1.797   4.030   0.463
13322TIP3    H139909   1.804   3.939   0.433
13322TIP3    H239910   1.847   4.033   0.544
13323TIP3   OH239911   5.280   0.702   6.434
13323TIP3    H139912   5.294   0.746   6.350
13323TIP3    H239913   5.348   0.635   6.438
13324TIP3   OH239914   0.159   6.189   2.639
13324TIP3    H139915   0.243   6.146   2.620
13324TIP3    H239916   0.171   6.226   2.726
13325TIP3   OH239917   8.229   1.688   1.105
13325TIP3    H139918   8.204   1.769   1.062
13325TIP3    H239919   8.290   1.714   1.174
13326TIP3   OH239920   0.416   5.376   4.789
13326TIP3    H139921   0.404   5.281   4.781
13326TIP3    H239922   0.342   5.414   4.743
13327TIP3   OH239923   4.107   3.397   0.202
13327TIP3    H139924   4.194   3.427   0.172
13327TIP3    H239925   4.123   3.359   0.288
13328TIP3   OH239926   1.347   0.984   6.470
13328TIP3    H139927   1.339   0.992   6.565
13328TIP3    H239928   1.437   0.954   6.456
13329TIP3   OH239929   4.989   0.407   4.636
13329TIP3    H139930   4.925   0.375   4.572
13329TIP3    H239931   4.968   0.500   4.647
13330TIP3   OH239932   1.282   5.008   1.055
13330TIP3    H139933   1.362   5.057   1.034
13330TIP3    H239934   1.211   5.061   1.019
13331TIP3   OH239935   4.931   4.737   2.944
13331TIP3    H139936   4.939   4.642   2.933
13331TIP3    H239937   4.930   4.771   2.854
13332TIP3   OH239938   6.170   1.536   2.950
13332TIP3    H139939   6.163   1.622   2.907
13332TIP3    H239940   6.241   1.547   3.013
13333TIP3   OH239941   3.012   3.947   5.868
13333TIP3    H139942   3.053   3.864   5.842
13333TIP3    H239943   2.920   3.937   5.842
13334TIP3   OH239944   7.111   0.656   0.531
13334TIP3    H139945   7.200   0.621   0.533
13334TIP3    H239946   7.097   0.683   0.441
13335TIP3   OH239947   1.424   2.529   4.001
13335TIP3    H139948   1.421   2.433   3.997
13335TIP3    H239949   1.359   2.552   4.068
13336TIP3   OH239950   5.460   3.584   5.565
13336TIP3    H139951   5.551   3.564   5.543
13336TIP3    H239952   5.411   3.564   5.485
13337TIP3   OH239953   6.104   3.191   2.978
13337TIP3    H139954   6.010   3.207   2.985
13337TIP3    H239955   6.117   3.166   2.886
13338TIP3   OH239956   6.025   3.117   6.035
13338TIP3    H139957   6.077   3.139   5.959
13338TIP3    H239958   5.985   3.199   6.062
13339TIP3   OH239959   6.859   0.573   0.295
13339TIP3    H139960   6.873   0.535   0.209
13339TIP3    H239961   6.885   0.665   0.285
13340TIP3   OH239962   6.949   3.749   3.559
13340TIP3    H139963   6.969   3.724   3.649
13340TIP3    H239964   6.864   3.792   3.564
13341TIP3   OH239965   7.421   3.993   2.751
13341TIP3    H139966   7.374   3.986   2.668
13341TIP3    H239967   7.486   4.061   2.735
13342TIP3   OH239968   6.185   6.216   0.849
13342TIP3    H139969   6.154   6.250   0.765
13342TIP3    H239970   6.258   6.274   0.872
13343TIP3   OH239971   4.126   7.527   4.689
13343TIP3    H139972   4.125   7.465   4.762
13343TIP3    H239973   4.047   7.579   4.702
13344TIP3   OH239974   7.572   2.638   1.607
13344TIP3    H139975   7.485   2.667   1.579
13344TIP3    H239976   7.628   2.714   1.594
13345TIP3   OH239977   7.921   2.676   5.032
13345TIP3    H139978   7.970   2.655   4.952
13345TIP3    H239979   7.909   2.771   5.028
13346TIP3   OH239980   7.550   5.948   6.446
13346TIP3    H139981   7.492   5.874   6.431
13346TIP3    H239982   7.491   6.022   6.465
13347TIP3   OH239983   4.869   4.818   2.687
13347TIP3    H139984   4.871   4.744   2.627
13347TIP3    H239985   4.923   4.885   2.645
13348TIP3   OH239986   7.597   3.046   4.281
13348TIP3    H139987   7.520   2.989   4.274
13348TIP3    H239988   7.577   3.121   4.226
13349TIP3   OH239989   0.601   4.058   4.274
13349TIP3    H139990   0.589   3.963   4.271
13349TIP3    H239991   0.570   4.089   4.189
13350TIP3   OH239992   7.614   1.258   3.933
13350TIP3    H139993   7.644   1.321   3.999
13350TIP3    H239994   7.693   1.213   3.906
13351TIP3   OH239995   7.914   1.613   3.714
13351TIP3    H139996   7.997   1.596   3.669
13351TIP3    H239997   7.848   1.574   3.657
13352TIP3   OH239998   3.944   6.159   0.891
13352TIP3    H139999   3.851   6.137   0.904
13352TIP3    H240000   3.948   6.198   0.804
13353TIP3   OH240001   4.181   2.107   4.397
13353TIP3    H140002   4.147   2.196   4.391
13353TIP3    H240003   4.269   2.117   4.433
13354TIP3   OH240004   6.065   4.943   1.860
13354TIP3    H140005   5.981   4.965   1.901
13354TIP3    H240006   6.064   4.991   1.777
13355TIP3   OH240007   2.431   0.225   6.024
13355TIP3    H140008   2.518   0.262   6.032
13355TIP3    H240009   2.372   0.294   6.055
13356TIP3   OH240010   1.140   1.408   2.226
13356TIP3    H140011   1.107   1.478   2.282
13356TIP3    H240012   1.111   1.431   2.138
13357TIP3   OH240013   6.138   7.651   5.299
13357TIP3    H140014   6.078   7.627   5.229
13357TIP3    H240015   6.128   7.583   5.365
13358TIP3   OH240016   3.832   6.155   0.349
13358TIP3    H140017   3.824   6.212   0.272
13358TIP3    H240018   3.925   6.131   0.351
13359TIP3   OH240019   0.100   6.228   0.251
13359TIP3    H140020   0.181   6.193   0.287
13359TIP3    H240021   0.075   6.299   0.310
13360TIP3   OH240022   0.566   0.520   0.788
13360TIP3    H140023   0.480   0.556   0.808
13360TIP3    H240024   0.626   0.565   0.847
13361TIP3   OH240025   7.714   3.026   5.424
13361TIP3    H140026   7.632   3.024   5.474
13361TIP3    H240027   7.713   2.946   5.372
13362TIP3   OH240028   0.929   0.825   1.772
13362TIP3    H140029   0.885   0.886   1.831
13362TIP3    H240030   0.926   0.867   1.686
13363TIP3   OH240031   6.957   0.383   3.300
13363TIP3    H140032   6.967   0.322   3.373
13363TIP3    H240033   6.875   0.430   3.320
13364TIP3   OH240034   7.354   1.426   1.313
13364TIP3    H140035   7.442   1.464   1.319
13364TIP3    H240036   7.333   1.401   1.403
13365TIP3   OH240037   6.075   3.794   0.676
13365TIP3    H140038   6.128   3.772   0.600
13365TIP3    H240039   6.032   3.711   0.700
13366TIP3   OH240040   4.858   6.925   1.176
13366TIP3    H140041   4.775   6.942   1.220
13366TIP3    H240042   4.909   7.005   1.191
13367TIP3   OH240043   7.645   2.633   6.345
13367TIP3    H140044   7.616   2.615   6.256
13367TIP3    H240045   7.657   2.728   6.348
13368TIP3   OH240046   4.454   1.325   4.343
13368TIP3    H140047   4.466   1.411   4.383
13368TIP3    H240048   4.487   1.263   4.408
13369TIP3   OH240049   3.671   7.325   1.614
13369TIP3    H140050   3.746   7.322   1.674
13369TIP3    H240051   3.598   7.289   1.665
13370TIP3   OH240052   4.095   2.710   0.179
13370TIP3    H140053   4.094   2.650   0.104
13370TIP3    H240054   4.062   2.658   0.251
13371TIP3   OH240055   6.876   6.714   5.173
13371TIP3    H140056   6.797   6.757   5.141
13371TIP3    H240057   6.893   6.645   5.110
13372TIP3   OH240058   2.579   2.900   4.094
13372TIP3    H140059   2.636   2.849   4.036
13372TIP3    H240060   2.637   2.967   4.131
13373TIP3   OH240061   7.178   1.000   3.176
13373TIP3    H140062   7.087   1.030   3.178
13373TIP3    H240063   7.176   0.920   3.124
13374TIP3   OH240064   2.367   3.797   1.833
13374TIP3    H140065   2.338   3.815   1.923
13374TIP3    H240066   2.414   3.714   1.840
13375TIP3   OH240067   1.799   4.500  -0.027
13375TIP3    H140068   1.801   4.576   0.031
13375TIP3    H240069   1.890   4.492  -0.058
13376TIP3   OH240070   5.306   6.311   5.090
13376TIP3    H140071   5.303   6.285   5.182
13376TIP3    H240072   5.215   6.326   5.066
13377TIP3   OH240073   2.839   1.640   3.584
13377TIP3    H140074   2.745   1.657   3.578
13377TIP3    H240075   2.846   1.544   3.587
13378TIP3   OH240076   1.090   2.296   2.058
13378TIP3    H140077   1.136   2.228   2.010
13378TIP3    H240078   0.999   2.266   2.061
13379TIP3   OH240079   2.523   4.267   1.811
13379TIP3    H140080   2.568   4.230   1.887
13379TIP3    H240081   2.462   4.331   1.847
13380TIP3   OH240082   2.662   2.658   1.858
13380TIP3    H140083   2.740   2.703   1.826
13380TIP3    H240084   2.590   2.717   1.836
13381TIP3   OH240085   0.205   5.685   0.606
13381TIP3    H140086   0.157   5.656   0.529
13381TIP3    H240087   0.282   5.731   0.570
13382TIP3   OH240088   7.892   7.229   1.968
13382TIP3    H140089   7.912   7.208   2.059
13382TIP3    H240090   7.903   7.324   1.962
13383TIP3   OH240091   4.554   5.857   3.036
13383TIP3    H140092   4.621   5.904   2.986
13383TIP3    H240093   4.591   5.849   3.124
13384TIP3   OH240094   0.510   3.394   1.297
13384TIP3    H140095   0.457   3.435   1.228
13384TIP3    H240096   0.457   3.320   1.326
13385TIP3   OH240097   0.171   6.695   2.994
13385TIP3    H140098   0.260   6.714   2.965
13385TIP3    H240099   0.115   6.742   2.932
13386TIP3   OH240100   7.660   6.092   5.196
13386TIP3    H140101   7.590   6.143   5.237
13386TIP3    H240102   7.708   6.156   5.143
13387TIP3   OH240103   3.898   0.486   6.443
13387TIP3    H140104   3.808   0.517   6.439
13387TIP3    H240105   3.938   0.537   6.514
13388TIP3   OH240106   2.192   2.823   1.570
13388TIP3    H140107   2.287   2.830   1.563
13388TIP3    H240108   2.159   2.868   1.493
13389TIP3   OH240109   0.197   2.998   5.440
13389TIP3    H140110   0.230   3.039   5.520
13389TIP3    H240111   0.113   3.040   5.423
13390TIP3   OH240112   4.200   4.592   6.335
13390TIP3    H140113   4.200   4.496   6.339
13390TIP3    H240114   4.189   4.612   6.242
13391TIP3   OH240115   3.593   6.514   5.252
13391TIP3    H140116   3.528   6.486   5.187
13391TIP3    H240117   3.570   6.466   5.331
13392TIP3   OH240118   6.061   2.469   2.535
13392TIP3    H140119   6.028   2.558   2.546
13392TIP3    H240120   6.042   2.447   2.444
13393TIP3   OH240121   5.038   6.017   0.952
13393TIP3    H140122   5.033   5.933   0.999
13393TIP3    H240123   5.124   6.052   0.975
13394TIP3   OH240124   7.424   6.533   4.671
13394TIP3    H140125   7.437   6.623   4.639
13394TIP3    H240126   7.407   6.482   4.592
13395TIP3   OH240127   7.442   1.246   4.177
13395TIP3    H140128   7.525   1.248   4.226
13395TIP3    H240129   7.467   1.213   4.090
13396TIP3   OH240130   7.073   3.761   6.032
13396TIP3    H140131   7.028   3.685   5.995
13396TIP3    H240132   7.028   3.836   5.994
13397TIP3   OH240133   0.289   6.728   4.768
13397TIP3    H140134   0.247   6.674   4.701
13397TIP3    H240135   0.359   6.774   4.721
13398TIP3   OH240136   2.303   3.424   0.116
13398TIP3    H140137   2.323   3.475   0.037
13398TIP3    H240138   2.218   3.458   0.145
13399TIP3   OH240139   1.649   4.094   4.182
13399TIP3    H140140   1.617   4.176   4.219
13399TIP3    H240141   1.584   4.029   4.210
13400TIP3   OH240142   2.656   4.628   2.380
13400TIP3    H140143   2.733   4.570   2.380
13400TIP3    H240144   2.650   4.659   2.471
13401TIP3   OH240145   4.279   5.704   4.595
13401TIP3    H140146   4.340   5.735   4.527
13401TIP3    H240147   4.332   5.702   4.675
13402TIP3   OH240148   4.612   3.116   3.076
13402TIP3    H140149   4.562   3.089   3.153
13402TIP3    H240150   4.571   3.198   3.048
13403TIP3   OH240151   4.649   3.735   6.180
13403TIP3    H140152   4.652   3.736   6.276
13403TIP3    H240153   4.612   3.650   6.158
13404TIP3   OH240154   2.753   4.428   6.556
13404TIP3    H140155   2.789   4.375   6.627
13404TIP3    H240156   2.664   4.450   6.586
13405TIP3   OH240157   7.614   4.127   1.628
13405TIP3    H140158   7.559   4.095   1.699
13405TIP3    H240159   7.597   4.067   1.555
13406TIP3   OH240160   8.005   1.485   5.548
13406TIP3    H140161   8.005   1.577   5.521
13406TIP3    H240162   7.975   1.437   5.471
13407TIP3   OH240163   6.346   6.686   3.400
13407TIP3    H140164   6.411   6.698   3.469
13407TIP3    H240165   6.344   6.769   3.353
13408TIP3   OH240166   2.084   4.539   2.041
13408TIP3    H140167   2.079   4.633   2.058
13408TIP3    H240168   2.029   4.526   1.963
13409TIP3   OH240169   2.318   5.292   3.922
13409TIP3    H140170   2.366   5.271   3.842
13409TIP3    H240171   2.347   5.227   3.986
13410TIP3   OH240172   5.941   4.402   1.036
13410TIP3    H140173   5.933   4.312   1.004
13410TIP3    H240174   5.978   4.392   1.124
13411TIP3   OH240175   3.005   0.637   2.761
13411TIP3    H140176   2.993   0.679   2.677
13411TIP3    H240177   3.100   0.628   2.771
13412TIP3   OH240178   4.596   3.785   4.550
13412TIP3    H140179   4.614   3.714   4.612
13412TIP3    H240180   4.556   3.854   4.603
13413TIP3   OH240181   4.336   5.605   4.064
13413TIP3    H140182   4.277   5.532   4.079
13413TIP3    H240183   4.332   5.621   3.970
13414TIP3   OH240184   3.456   5.950   3.105
13414TIP3    H140185   3.457   6.020   3.171
13414TIP3    H240186   3.368   5.954   3.068
13415TIP3   OH240187   0.989   7.340   1.582
13415TIP3    H140188   0.991   7.431   1.554
13415TIP3    H240189   0.899   7.311   1.563
13416TIP3   OH240190   7.878   4.828   0.456
13416TIP3    H140191   7.825   4.907   0.445
13416TIP3    H240192   7.814   4.758   0.470
13417TIP3   OH240193   4.843   3.186   3.485
13417TIP3    H140194   4.812   3.197   3.575
13417TIP3    H240195   4.773   3.222   3.431
13418TIP3   OH240196   6.040   0.654   1.726
13418TIP3    H140197   6.057   0.574   1.776
13418TIP3    H240198   5.963   0.633   1.672
13419TIP3   OH240199   0.144   5.838   1.971
13419TIP3    H140200   0.225   5.886   1.986
13419TIP3    H240201   0.080   5.905   1.944
13420TIP3   OH240202   7.023   4.044   1.895
13420TIP3    H140203   6.953   3.986   1.865
13420TIP3    H240204   7.101   3.990   1.894
13421TIP3   OH240205   0.876   1.288   3.765
13421TIP3    H140206   0.922   1.227   3.821
13421TIP3    H240207   0.840   1.353   3.825
13422TIP3   OH240208   6.072   7.158   6.516
13422TIP3    H140209   6.034   7.152   6.604
13422TIP3    H240210   6.051   7.246   6.486
13423TIP3   OH240211   1.027   2.898   0.474
13423TIP3    H140212   1.045   2.937   0.389
13423TIP3    H240213   1.111   2.860   0.502
13424TIP3   OH240214   1.389   1.292   2.311
13424TIP3    H140215   1.297   1.316   2.325
13424TIP3    H240216   1.394   1.201   2.339
13425TIP3   OH240217   3.865   1.401   4.070
13425TIP3    H140218   3.804   1.395   3.997
13425TIP3    H240219   3.940   1.449   4.035
13426TIP3   OH240220   5.075   0.769   5.503
13426TIP3    H140221   5.113   0.739   5.421
13426TIP3    H240222   4.988   0.800   5.480
13427TIP3   OH240223   2.893   6.909   0.760
13427TIP3    H140224   2.921   6.865   0.680
13427TIP3    H240225   2.837   6.981   0.730
13428TIP3   OH240226   0.705   2.881   5.203
13428TIP3    H140227   0.742   2.833   5.276
13428TIP3    H240228   0.669   2.961   5.241
13429TIP3   OH240229   1.283   6.360   0.313
13429TIP3    H140230   1.213   6.335   0.252
13429TIP3    H240231   1.275   6.455   0.321
13430TIP3   OH240232   7.836   1.804   6.380
13430TIP3    H140233   7.929   1.817   6.394
13430TIP3    H240234   7.824   1.818   6.286
13431TIP3   OH240235   7.274   0.706   6.364
13431TIP3    H140236   7.324   0.641   6.314
13431TIP3    H240237   7.267   0.781   6.305
13432TIP3   OH240238   0.256   6.522   3.718
13432TIP3    H140239   0.170   6.545   3.752
13432TIP3    H240240   0.301   6.605   3.705
13433TIP3   OH240241   6.112   5.055   1.245
13433TIP3    H140242   6.052   4.980   1.234
13433TIP3    H240243   6.057   5.132   1.227
13434TIP3   OH240244   2.175   2.744   0.787
13434TIP3    H140245   2.161   2.687   0.862
13434TIP3    H240246   2.269   2.738   0.770
13435TIP3   OH240247   7.366   2.526   6.400
13435TIP3    H140248   7.439   2.515   6.461
13435TIP3    H240249   7.388   2.604   6.349
13436TIP3   OH240250   5.089   3.298   3.549
13436TIP3    H140251   5.067   3.380   3.591
13436TIP3    H240252   5.006   3.266   3.513
13437TIP3   OH240253   7.666   2.943   5.816
13437TIP3    H140254   7.717   3.015   5.778
13437TIP3    H240255   7.725   2.902   5.879
13438TIP3   OH240256   0.189   2.175   1.209
13438TIP3    H140257   0.204   2.253   1.263
13438TIP3    H240258   0.218   2.201   1.121
13439TIP3   OH240259   1.968   4.628   3.185
13439TIP3    H140260   1.957   4.563   3.254
13439TIP3    H240261   1.883   4.671   3.178
13440TIP3   OH240262   2.007   5.067   3.855
13440TIP3    H140263   2.083   5.009   3.855
13440TIP3    H240264   1.933   5.009   3.872
13441TIP3   OH240265   0.123   6.922   4.533
13441TIP3    H140266   0.209   6.885   4.554
13441TIP3    H240267   0.096   6.876   4.453
13442TIP3   OH240268   4.096   2.180   3.535
13442TIP3    H140269   4.015   2.172   3.484
13442TIP3    H240270   4.165   2.185   3.469
13443TIP3   OH240271   7.494   4.579   0.587
13443TIP3    H140272   7.448   4.495   0.583
13443TIP3    H240273   7.448   4.635   0.525
13444TIP3   OH240274   3.147   1.857   3.993
13444TIP3    H140275   3.118   1.849   3.902
13444TIP3    H240276   3.242   1.848   3.988
13445TIP3   OH240277   5.804   1.296   1.910
13445TIP3    H140278   5.843   1.346   1.982
13445TIP3    H240279   5.817   1.352   1.833
13446TIP3   OH240280   3.520   2.644   2.518
13446TIP3    H140281   3.531   2.693   2.600
13446TIP3    H240282   3.532   2.710   2.450
13447TIP3   OH240283  -0.008   5.348   6.526
13447TIP3    H140284  -0.038   5.272   6.475
13447TIP3    H240285  -0.008   5.420   6.463
13448TIP3   OH240286   6.309   2.078   5.702
13448TIP3    H140287   6.382   2.031   5.660
13448TIP3    H240288   6.232   2.024   5.682
13449TIP3   OH240289   3.628   4.625   1.419
13449TIP3    H140290   3.539   4.599   1.441
13449TIP3    H240291   3.660   4.556   1.361
13450TIP3   OH240292   0.227   6.146   2.335
13450TIP3    H140293   0.265   6.128   2.421
13450TIP3    H240294   0.253   6.236   2.316
13451TIP3   OH240295   2.829   7.722   1.433
13451TIP3    H140296   2.743   7.762   1.448
13451TIP3    H240297   2.877   7.737   1.515
13452TIP3   OH240298   3.924   4.807   0.631
13452TIP3    H140299   4.008   4.782   0.593
13452TIP3    H240300   3.899   4.732   0.685
13453TIP3   OH240301   4.976   4.490   6.415
13453TIP3    H140302   4.887   4.460   6.435
13453TIP3    H240303   5.002   4.438   6.339
13454TIP3   OH240304   4.611   0.209   3.340
13454TIP3    H140305   4.548   0.185   3.408
13454TIP3    H240306   4.645   0.125   3.308
13455TIP3   OH240307   1.277   6.098   1.876
13455TIP3    H140308   1.219   6.025   1.855
13455TIP3    H240309   1.311   6.076   1.963
13456TIP3   OH240310   6.070   6.827   2.915
13456TIP3    H140311   6.020   6.855   2.838
13456TIP3    H240312   6.052   6.894   2.981
13457TIP3   OH240313   7.003   6.927   5.018
13457TIP3    H140314   7.008   6.843   5.064
13457TIP3    H240315   6.939   6.978   5.067
13458TIP3   OH240316   2.146   1.240   2.411
13458TIP3    H140317   2.076   1.264   2.471
13458TIP3    H240318   2.223   1.230   2.466
13459TIP3   OH240319   3.901   1.438   5.458
13459TIP3    H140320   3.992   1.422   5.431
13459TIP3    H240321   3.852   1.440   5.376
13460TIP3   OH240322   8.147   7.652   4.557
13460TIP3    H140323   8.201   7.699   4.621
13460TIP3    H240324   8.085   7.602   4.610
13461TIP3   OH240325   4.614   7.356   1.096
13461TIP3    H140326   4.664   7.376   1.018
13461TIP3    H240327   4.540   7.417   1.094
13462TIP3   OH240328   5.566   3.927   0.657
13462TIP3    H140329   5.539   3.934   0.565
13462TIP3    H240330   5.661   3.918   0.653
13463TIP3   OH240331   4.669   0.774   1.805
13463TIP3    H140332   4.731   0.707   1.777
13463TIP3    H240333   4.712   0.857   1.784
13464TIP3   OH240334   4.272   5.598   5.358
13464TIP3    H140335   4.283   5.650   5.279
13464TIP3    H240336   4.187   5.556   5.347
13465TIP3   OH240337   2.639   0.675   4.717
13465TIP3    H140338   2.673   0.609   4.777
13465TIP3    H240339   2.698   0.672   4.642
13466TIP3   OH240340   6.274   7.542   1.601
13466TIP3    H140341   6.348   7.599   1.622
13466TIP3    H240342   6.199   7.582   1.645
13467TIP3   OH240343   5.246   2.323   6.048
13467TIP3    H140344   5.264   2.323   6.142
13467TIP3    H240345   5.247   2.231   6.023
13468TIP3   OH240346   6.627   5.385   5.077
13468TIP3    H140347   6.599   5.400   4.987
13468TIP3    H240348   6.698   5.322   5.071
13469TIP3   OH240349   5.658   4.188  -0.012
13469TIP3    H140350   5.569   4.178  -0.046
13469TIP3    H240351   5.673   4.108   0.040
13470TIP3   OH240352   8.167   1.602   2.038
13470TIP3    H140353   8.157   1.542   2.112
13470TIP3    H240354   8.194   1.685   2.078
13471TIP3   OH240355   5.700   0.406   4.621
13471TIP3    H140356   5.749   0.454   4.687
13471TIP3    H240357   5.626   0.462   4.600
13472TIP3   OH240358   3.310   3.956   3.350
13472TIP3    H140359   3.246   3.935   3.419
13472TIP3    H240360   3.293   3.893   3.281
13473TIP3   OH240361   1.905   5.986   5.937
13473TIP3    H140362   1.928   5.896   5.958
13473TIP3    H240363   1.944   6.038   6.008
13474TIP3   OH240364   1.115   5.061   4.181
13474TIP3    H140365   1.020   5.048   4.180
13474TIP3    H240366   1.146   5.018   4.102
13475TIP3   OH240367   1.789   4.901   3.918
13475TIP3    H140368   1.728   4.962   3.877
13475TIP3    H240369   1.790   4.924   4.010
13476TIP3   OH240370   6.683   4.480   2.449
13476TIP3    H140371   6.714   4.415   2.511
13476TIP3    H240372   6.759   4.536   2.432
13477TIP3   OH240373   4.805   3.295   1.018
13477TIP3    H140374   4.811   3.298   1.114
13477TIP3    H240375   4.734   3.356   0.997
13478TIP3   OH240376   0.473   4.870   5.881
13478TIP3    H140377   0.541   4.935   5.900
13478TIP3    H240378   0.521   4.787   5.871
13479TIP3   OH240379   1.987   4.991   5.434
13479TIP3    H140380   1.893   4.997   5.417
13479TIP3    H240381   2.022   5.074   5.401
13480TIP3   OH240382   0.641   5.197   1.469
13480TIP3    H140383   0.675   5.151   1.392
13480TIP3    H240384   0.677   5.286   1.461
13481TIP3   OH240385   6.521   3.636   1.313
13481TIP3    H140386   6.601   3.584   1.304
13481TIP3    H240387   6.550   3.719   1.351
13482TIP3   OH240388   6.556   5.057   0.439
13482TIP3    H140389   6.527   4.992   0.374
13482TIP3    H240390   6.496   5.131   0.426
13483TIP3   OH240391   1.131   0.101   2.005
13483TIP3    H140392   1.213   0.093   1.958
13483TIP3    H240393   1.080   0.025   1.978
13484TIP3   OH240394   2.171   3.457   1.462
13484TIP3    H140395   2.138   3.545   1.446
13484TIP3    H240396   2.258   3.470   1.498
13485TIP3   OH240397   2.821   5.448   5.168
13485TIP3    H140398   2.883   5.501   5.119
13485TIP3    H240399   2.852   5.358   5.157
13486TIP3   OH240400   3.332   0.237   4.688
13486TIP3    H140401   3.414   0.242   4.736
13486TIP3    H240402   3.302   0.327   4.680
13487TIP3   OH240403   0.249   7.275   0.430
13487TIP3    H140404   0.221   7.365   0.449
13487TIP3    H240405   0.342   7.275   0.450
13488TIP3   OH240406   7.970   2.739   1.953
13488TIP3    H140407   7.997   2.830   1.940
13488TIP3    H240408   7.876   2.744   1.968
13489TIP3   OH240409   4.678   4.661   4.700
13489TIP3    H140410   4.722   4.722   4.641
13489TIP3    H240411   4.687   4.576   4.657
13490TIP3   OH240412   3.211   5.166   2.910
13490TIP3    H140413   3.206   5.224   2.986
13490TIP3    H240414   3.300   5.129   2.914
13491TIP3   OH240415   0.049   5.321   0.968
13491TIP3    H140416   0.023   5.336   1.059
13491TIP3    H240417   0.144   5.315   0.970
13492TIP3   OH240418   6.836   3.426   4.374
13492TIP3    H140419   6.872   3.337   4.372
13492TIP3    H240420   6.783   3.432   4.294
13493TIP3   OH240421   3.703   7.487   0.706
13493TIP3    H140422   3.660   7.562   0.664
13493TIP3    H240423   3.793   7.517   0.723
13494TIP3   OH240424   7.706   4.583   4.332
13494TIP3    H140425   7.619   4.618   4.346
13494TIP3    H240426   7.700   4.533   4.250
13495TIP3   OH240427   0.108   1.872   4.348
13495TIP3    H140428   0.174   1.863   4.417
13495TIP3    H240429   0.116   1.963   4.320
13496TIP3   OH240430   3.463   2.576   0.053
13496TIP3    H140431   3.376   2.538   0.061
13496TIP3    H240432   3.486   2.601   0.143
13497TIP3   OH240433   0.411   3.789   1.800
13497TIP3    H140434   0.371   3.755   1.881
13497TIP3    H240435   0.370   3.738   1.730
13498TIP3   OH240436   6.533   3.280   4.015
13498TIP3    H140437   6.602   3.310   3.955
13498TIP3    H240438   6.475   3.227   3.960
13499TIP3   OH240439   3.223   6.108   1.810
13499TIP3    H140440   3.315   6.132   1.822
13499TIP3    H240441   3.225   6.039   1.743
13500TIP3   OH240442   5.906   4.057   4.178
13500TIP3    H140443   5.847   4.070   4.104
13500TIP3    H240444   5.908   4.141   4.223
13501TIP3   OH240445   3.322   4.120   4.589
13501TIP3    H140446   3.346   4.206   4.555
13501TIP3    H240447   3.228   4.126   4.606
13502TIP3   OH240448   3.211   6.311   3.113
13502TIP3    H140449   3.250   6.379   3.058
13502TIP3    H240450   3.280   6.247   3.124
13503TIP3   OH240451   6.745   6.640   2.342
13503TIP3    H140452   6.834   6.604   2.339
13503TIP3    H240453   6.699   6.595   2.272
13504TIP3   OH240454   6.805   7.415   5.351
13504TIP3    H140455   6.858   7.492   5.332
13504TIP3    H240456   6.765   7.392   5.267
13505TIP3   OH240457   1.015   3.495   2.317
13505TIP3    H140458   1.023   3.478   2.411
13505TIP3    H240459   0.936   3.448   2.290
13506TIP3   OH240460   5.474   2.252   1.575
13506TIP3    H140461   5.508   2.299   1.498
13506TIP3    H240462   5.535   2.274   1.645
13507TIP3   OH240463   7.525   5.423   4.126
13507TIP3    H140464   7.582   5.372   4.183
13507TIP3    H240465   7.460   5.360   4.095
13508TIP3   OH240466   0.512   4.187   4.053
13508TIP3    H140467   0.500   4.276   4.019
13508TIP3    H240468   0.585   4.153   4.002
13509TIP3   OH240469   2.078   1.087   3.309
13509TIP3    H140470   2.156   1.065   3.258
13509TIP3    H240471   2.035   1.003   3.325
13510TIP3   OH240472   2.380   2.253   6.753
13510TIP3    H140473   2.474   2.242   6.737
13510TIP3    H240474   2.346   2.292   6.673
13511TIP3   OH240475   5.713   1.115   6.346
13511TIP3    H140476   5.804   1.137   6.364
13511TIP3    H240477   5.694   1.040   6.402
13512TIP3   OH240478   2.670   4.535   5.136
13512TIP3    H140479   2.592   4.522   5.189
13512TIP3    H240480   2.715   4.450   5.136
13513TIP3   OH240481   2.076   3.012   3.747
13513TIP3    H140482   2.045   3.033   3.835
13513TIP3    H240483   2.112   3.094   3.714
13514TIP3   OH240484   7.717   7.724   2.549
13514TIP3    H140485   7.728   7.644   2.498
13514TIP3    H240486   7.799   7.772   2.537
13515TIP3   OH240487   4.022   6.032   5.759
13515TIP3    H140488   3.997   5.941   5.778
13515TIP3    H240489   3.997   6.045   5.668
13516TIP3   OH240490   1.577   2.916   1.709
13516TIP3    H140491   1.574   2.860   1.787
13516TIP3    H240492   1.668   2.946   1.705
13517TIP3   OH240493   7.314   3.742   2.882
13517TIP3    H140494   7.382   3.801   2.850
13517TIP3    H240495   7.247   3.744   2.813
13518TIP3   OH240496   6.122   5.357   0.833
13518TIP3    H140497   6.105   5.428   0.894
13518TIP3    H240498   6.209   5.325   0.857
13519TIP3   OH240499   2.656   2.476   5.234
13519TIP3    H140500   2.679   2.444   5.321
13519TIP3    H240501   2.710   2.425   5.174
13520TIP3   OH240502   7.340   0.098   0.153
13520TIP3    H140503   7.254   0.138   0.137
13520TIP3    H240504   7.323   0.003   0.150
13521TIP3   OH240505   1.205   4.740   0.204
13521TIP3    H140506   1.266   4.743   0.130
13521TIP3    H240507   1.170   4.828   0.210
13522TIP3   OH240508   2.646   2.451   6.196
13522TIP3    H140509   2.677   2.360   6.196
13522TIP3    H240510   2.552   2.445   6.180
13523TIP3   OH240511   6.307   7.419   4.923
13523TIP3    H140512   6.287   7.355   4.992
13523TIP3    H240513   6.375   7.474   4.961
13524TIP3   OH240514   5.090   6.997   3.387
13524TIP3    H140515   5.140   6.982   3.466
13524TIP3    H240516   5.030   7.069   3.409
13525TIP3   OH240517   2.368   1.025   2.520
13525TIP3    H140518   2.308   0.984   2.458
13525TIP3    H240519   2.313   1.046   2.595
13526TIP3   OH240520   5.760   2.978   2.656
13526TIP3    H140521   5.811   3.057   2.673
13526TIP3    H240522   5.676   2.993   2.700
13527TIP3   OH240523   3.516   1.392   5.841
13527TIP3    H140524   3.564   1.415   5.762
13527TIP3    H240525   3.528   1.467   5.899
13528TIP3   OH240526   6.357   5.644   6.114
13528TIP3    H140527   6.430   5.602   6.069
13528TIP3    H240528   6.293   5.662   6.044
13529TIP3   OH240529   8.284   0.199   1.130
13529TIP3    H140530   8.300   0.274   1.187
13529TIP3    H240531   8.198   0.167   1.157
13530TIP3   OH240532   7.110   6.793   4.395
13530TIP3    H140533   7.118   6.716   4.452
13530TIP3    H240534   7.068   6.859   4.450
13531TIP3   OH240535   5.395   5.366   6.381
13531TIP3    H140536   5.488   5.364   6.403
13531TIP3    H240537   5.387   5.308   6.306
13532TIP3   OH240538   0.302   0.666   4.267
13532TIP3    H140539   0.228   0.608   4.249
13532TIP3    H240540   0.314   0.716   4.186
13533TIP3   OH240541   7.922   5.329   3.189
13533TIP3    H140542   7.902   5.320   3.282
13533TIP3    H240543   7.837   5.321   3.146
13534TIP3   OH240544   3.710   7.518   2.462
13534TIP3    H140545   3.774   7.489   2.397
13534TIP3    H240546   3.633   7.545   2.411
13535TIP3   OH240547   7.950   7.822   4.473
13535TIP3    H140548   7.990   7.906   4.493
13535TIP3    H240549   8.010   7.757   4.510
13536TIP3   OH240550   1.291   2.001   0.259
13536TIP3    H140551   1.307   2.067   0.192
13536TIP3    H240552   1.196   1.986   0.256
13537TIP3   OH240553   6.008   6.426   5.481
13537TIP3    H140554   6.018   6.334   5.457
13537TIP3    H240555   6.091   6.450   5.522
13538TIP3   OH240556   4.516   6.624   4.478
13538TIP3    H140557   4.519   6.659   4.567
13538TIP3    H240558   4.562   6.689   4.425
13539TIP3   OH240559   1.102   3.577   3.742
13539TIP3    H140560   1.030   3.525   3.706
13539TIP3    H240561   1.174   3.562   3.681
13540TIP3   OH240562   2.395   7.484   3.599
13540TIP3    H140563   2.418   7.535   3.677
13540TIP3    H240564   2.445   7.403   3.608
13541TIP3   OH240565   2.848   4.401   2.278
13541TIP3    H140566   2.917   4.356   2.327
13541TIP3    H240567   2.895   4.450   2.211
13542TIP3   OH240568   1.395   7.371   1.305
13542TIP3    H140569   1.366   7.405   1.390
13542TIP3    H240570   1.355   7.430   1.241
13543TIP3   OH240571   5.311   5.253   0.110
13543TIP3    H140572   5.369   5.322   0.141
13543TIP3    H240573   5.347   5.227   0.025
13544TIP3   OH240574   0.418   3.525   6.503
13544TIP3    H140575   0.481   3.582   6.547
13544TIP3    H240576   0.468   3.482   6.434
13545TIP3   OH240577   1.411   0.906   5.831
13545TIP3    H140578   1.463   0.826   5.838
13545TIP3    H240579   1.412   0.929   5.739
13546TIP3   OH240580   3.249   7.701   1.060
13546TIP3    H140581   3.277   7.790   1.039
13546TIP3    H240582   3.174   7.712   1.119
13547TIP3   OH240583   5.006   3.067   0.778
13547TIP3    H140584   4.983   3.124   0.705
13547TIP3    H240585   4.936   3.002   0.781
13548TIP3   OH240586   1.837   3.461   6.376
13548TIP3    H140587   1.818   3.532   6.314
13548TIP3    H240588   1.754   3.414   6.385
13549TIP3   OH240589   3.683   1.191   2.957
13549TIP3    H140590   3.730   1.125   3.008
13549TIP3    H240591   3.711   1.176   2.867
13550TIP3   OH240592   4.545   3.845   4.855
13550TIP3    H140593   4.525   3.759   4.893
13550TIP3    H240594   4.640   3.844   4.842
13551TIP3   OH240595   4.851   2.503   2.752
13551TIP3    H140596   4.777   2.478   2.808
13551TIP3    H240597   4.924   2.450   2.783
13552TIP3   OH240598   3.041   2.037   6.299
13552TIP3    H140599   2.967   2.041   6.359
13552TIP3    H240600   3.044   1.945   6.271
13553TIP3   OH240601   6.681   2.319   3.370
13553TIP3    H140602   6.665   2.291   3.461
13553TIP3    H240603   6.754   2.264   3.341
13554TIP3   OH240604   5.211   5.698   3.771
13554TIP3    H140605   5.304   5.719   3.769
13554TIP3    H240606   5.174   5.755   3.838
13555TIP3   OH240607   1.382   6.097   1.160
13555TIP3    H140608   1.427   6.180   1.145
13555TIP3    H240609   1.310   6.098   1.097
13556TIP3   OH240610   3.455   3.512   1.163
13556TIP3    H140611   3.513   3.449   1.205
13556TIP3    H240612   3.508   3.552   1.095
13557TIP3   OH240613   1.549   0.844   6.311
13557TIP3    H140614   1.571   0.915   6.251
13557TIP3    H240615   1.634   0.805   6.334
13558TIP3   OH240616   5.368   0.373   1.984
13558TIP3    H140617   5.345   0.466   1.983
13558TIP3    H240618   5.462   0.372   2.003
13559TIP3   OH240619   7.019   5.193   6.463
13559TIP3    H140620   6.929   5.212   6.436
13559TIP3    H240621   7.050   5.273   6.504
13560TIP3   OH240622   4.134   2.223   4.712
13560TIP3    H140623   4.119   2.304   4.761
13560TIP3    H240624   4.214   2.187   4.749
13561TIP3   OH240625   0.833   6.392   5.762
13561TIP3    H140626   0.841   6.420   5.671
13561TIP3    H240627   0.923   6.382   5.793
13562TIP3   OH240628   3.857   6.364   5.548
13562TIP3    H140629   3.924   6.402   5.605
13562TIP3    H240630   3.893   6.279   5.523
13563TIP3   OH240631   7.785   7.634   4.648
13563TIP3    H140632   7.722   7.650   4.719
13563TIP3    H240633   7.833   7.556   4.676
13564TIP3   OH240634   5.363   4.093   0.713
13564TIP3    H140635   5.413   4.151   0.770
13564TIP3    H240636   5.425   4.024   0.690
13565TIP3   OH240637   1.040   7.364   1.866
13565TIP3    H140638   1.066   7.452   1.839
13565TIP3    H240639   0.963   7.344   1.812
13566TIP3   OH240640   7.320   7.056   6.653
13566TIP3    H140641   7.250   7.121   6.661
13566TIP3    H240642   7.379   7.076   6.726
13567TIP3   OH240643   2.644   5.460   5.407
13567TIP3    H140644   2.719   5.462   5.347
13567TIP3    H240645   2.662   5.531   5.469
13568TIP3   OH240646   3.727   6.183   5.705
13568TIP3    H140647   3.786   6.252   5.674
13568TIP3    H240648   3.735   6.114   5.639
13569TIP3   OH240649   2.329   4.218   6.131
13569TIP3    H140650   2.249   4.215   6.182
13569TIP3    H240651   2.357   4.310   6.135
13570TIP3   OH240652   5.580   3.502   6.561
13570TIP3    H140653   5.634   3.459   6.628
13570TIP3    H240654   5.490   3.481   6.586
13571TIP3   OH240655   2.860   1.426   2.212
13571TIP3    H140656   2.812   1.484   2.270
13571TIP3    H240657   2.793   1.395   2.150
13572TIP3   OH240658   6.306   2.852   0.260
13572TIP3    H140659   6.345   2.777   0.215
13572TIP3    H240660   6.325   2.837   0.353
13573TIP3   OH240661   7.419   4.704   6.434
13573TIP3    H140662   7.342   4.756   6.411
13573TIP3    H240663   7.470   4.761   6.491
13574TIP3   OH240664   4.042   3.548   4.198
13574TIP3    H140665   4.013   3.509   4.280
13574TIP3    H240666   4.018   3.484   4.131
13575TIP3   OH240667   2.895   7.546   0.455
13575TIP3    H140668   2.892   7.499   0.371
13575TIP3    H240669   2.941   7.627   0.434
13576TIP3   OH240670   4.487   4.641   0.701
13576TIP3    H140671   4.484   4.603   0.614
13576TIP3    H240672   4.464   4.733   0.688
13577TIP3   OH240673   4.688   1.912   3.185
13577TIP3    H140674   4.700   1.983   3.248
13577TIP3    H240675   4.600   1.926   3.150
13578TIP3   OH240676   3.204   6.822   6.184
13578TIP3    H140677   3.276   6.834   6.246
13578TIP3    H240678   3.225   6.740   6.139
13579TIP3   OH240679   2.022   1.253   4.895
13579TIP3    H140680   2.055   1.335   4.857
13579TIP3    H240681   2.100   1.209   4.929
13580TIP3   OH240682   4.040   4.961   5.631
13580TIP3    H140683   3.978   4.987   5.699
13580TIP3    H240684   4.026   4.867   5.620
13581TIP3   OH240685   4.528   7.267   3.227
13581TIP3    H140686   4.574   7.350   3.214
13581TIP3    H240687   4.572   7.227   3.302
13582TIP3   OH240688   4.817   4.156   0.357
13582TIP3    H140689   4.876   4.104   0.412
13582TIP3    H240690   4.863   4.162   0.273
13583TIP3   OH240691   1.680   5.706   3.166
13583TIP3    H140692   1.722   5.629   3.130
13583TIP3    H240693   1.611   5.727   3.102
13584TIP3   OH240694   2.171   3.008   2.357
13584TIP3    H140695   2.175   2.925   2.310
13584TIP3    H240696   2.250   3.055   2.330
13585TIP3   OH240697   0.051   5.543   0.422
13585TIP3    H140698   0.067   5.542   0.328
13585TIP3    H240699  -0.027   5.489   0.434
13586TIP3   OH240700   5.400   2.163   2.913
13586TIP3    H140701   5.486   2.123   2.902
13586TIP3    H240702   5.416   2.242   2.965
13587TIP3   OH240703   3.261   4.842   5.053
13587TIP3    H140704   3.278   4.877   5.140
13587TIP3    H240705   3.248   4.748   5.067
13588TIP3   OH240706   3.809   5.851   4.498
13588TIP3    H140707   3.797   5.946   4.486
13588TIP3    H240708   3.898   5.835   4.467
13589TIP3   OH240709   2.300   4.061   5.581
13589TIP3    H140710   2.302   3.966   5.589
13589TIP3    H240711   2.239   4.090   5.649
13590TIP3   OH240712   5.772   7.417   0.886
13590TIP3    H140713   5.810   7.503   0.905
13590TIP3    H240714   5.716   7.432   0.810
13591TIP3   OH240715   1.305   2.138   4.458
13591TIP3    H140716   1.300   2.069   4.524
13591TIP3    H240717   1.218   2.178   4.459
13592TIP3   OH240718   2.346   5.980   3.866
13592TIP3    H140719   2.415   5.997   3.802
13592TIP3    H240720   2.335   6.064   3.911
13593TIP3   OH240721   4.743   5.865   2.834
13593TIP3    H140722   4.766   5.777   2.802
13593TIP3    H240723   4.721   5.914   2.755
13594TIP3   OH240724   1.520   4.002   3.698
13594TIP3    H140725   1.476   4.040   3.622
13594TIP3    H240726   1.470   4.033   3.773
13595TIP3   OH240727   7.019   4.385   6.311
13595TIP3    H140728   6.994   4.322   6.243
13595TIP3    H240729   7.054   4.331   6.382
13596TIP3   OH240730   7.263   2.320  -0.004
13596TIP3    H140731   7.251   2.229  -0.031
13596TIP3    H240732   7.278   2.315   0.091
13597TIP3   OH240733   7.368   5.116   5.632
13597TIP3    H140734   7.296   5.062   5.665
13597TIP3    H240735   7.336   5.149   5.548
13598TIP3   OH240736   4.726   4.588   6.086
13598TIP3    H140737   4.677   4.562   6.008
13598TIP3    H240738   4.722   4.512   6.143
13599TIP3   OH240739   8.130   1.976   0.248
13599TIP3    H140740   8.047   1.978   0.200
13599TIP3    H240741   8.157   1.885   0.246
13600TIP3   OH240742   2.568   3.161   6.040
13600TIP3    H140743   2.522   3.087   6.000
13600TIP3    H240744   2.659   3.150   6.013
13601TIP3   OH240745   0.689   1.777   5.987
13601TIP3    H140746   0.711   1.817   6.071
13601TIP3    H240747   0.699   1.683   6.003
13602TIP3   OH240748   6.794   4.897   1.601
13602TIP3    H140749   6.700   4.887   1.616
13602TIP3    H240750   6.834   4.866   1.683
13603TIP3   OH240751   3.827   7.653   1.053
13603TIP3    H140752   3.825   7.560   1.032
13603TIP3    H240753   3.744   7.687   1.019
13604TIP3   OH240754   1.033   2.049   6.579
13604TIP3    H140755   1.064   2.027   6.666
13604TIP3    H240756   1.109   2.088   6.535
13605TIP3   OH240757   5.807   5.634   0.487
13605TIP3    H140758   5.876   5.636   0.420
13605TIP3    H240759   5.855   5.626   0.570
13606TIP3   OH240760   4.349   6.644   0.214
13606TIP3    H140761   4.275   6.587   0.194
13606TIP3    H240762   4.407   6.635   0.138
13607TIP3   OH240763   0.946   4.950   4.813
13607TIP3    H140764   1.028   4.902   4.796
13607TIP3    H240765   0.887   4.919   4.744
13608TIP3   OH240766   3.463   1.130   1.798
13608TIP3    H140767   3.532   1.075   1.759
13608TIP3    H240768   3.495   1.150   1.886
13609TIP3   OH240769   7.613   4.237   4.632
13609TIP3    H140770   7.640   4.243   4.724
13609TIP3    H240771   7.670   4.299   4.587
13610TIP3   OH240772   8.123  -0.013   2.783
13610TIP3    H140773   8.157   0.006   2.871
13610TIP3    H240774   8.075   0.066   2.759
13611TIP3   OH240775   6.679   1.125   0.126
13611TIP3    H140776   6.695   1.211   0.087
13611TIP3    H240777   6.589   1.103   0.101
13612TIP3   OH240778   8.165   2.292   5.568
13612TIP3    H140779   8.081   2.329   5.597
13612TIP3    H240780   8.142   2.207   5.530
13613TIP3   OH240781   5.345   1.764   1.252
13613TIP3    H140782   5.379   1.771   1.163
13613TIP3    H240783   5.389   1.834   1.300
13614TIP3   OH240784   6.857   7.769   1.839
13614TIP3    H140785   6.884   7.700   1.779
13614TIP3    H240786   6.935   7.823   1.850
13615TIP3   OH240787   2.978   6.864   3.405
13615TIP3    H140788   3.048   6.923   3.376
13615TIP3    H240789   2.933   6.912   3.473
13616TIP3   OH240790   2.875   3.670   6.110
13616TIP3    H140791   2.839   3.602   6.053
13616TIP3    H240792   2.844   3.752   6.072
13617TIP3   OH240793   2.469   7.711   6.125
13617TIP3    H140794   2.486   7.676   6.212
13617TIP3    H240795   2.532   7.782   6.114
13618TIP3   OH240796   1.197   4.102   0.233
13618TIP3    H140797   1.245   4.019   0.240
13618TIP3    H240798   1.211   4.144   0.318
13619TIP3   OH240799   6.465   2.414   6.336
13619TIP3    H140800   6.543   2.431   6.284
13619TIP3    H240801   6.492   2.347   6.399
13620TIP3   OH240802   2.667   1.641   1.668
13620TIP3    H140803   2.699   1.678   1.750
13620TIP3    H240804   2.716   1.687   1.600
13621TIP3   OH240805   7.672   4.296   4.125
13621TIP3    H140806   7.653   4.217   4.074
13621TIP3    H240807   7.758   4.280   4.162
13622TIP3   OH240808   3.016   4.490   5.842
13622TIP3    H140809   3.075   4.415   5.834
13622TIP3    H240810   3.022   4.516   5.934
13623TIP3   OH240811   1.807   2.225   2.962
13623TIP3    H140812   1.864   2.150   2.942
13623TIP3    H240813   1.844   2.262   3.042
13624TIP3   OH240814   3.860   3.708   4.511
13624TIP3    H140815   3.862   3.800   4.486
13624TIP3    H240816   3.952   3.685   4.524
13625TIP3   OH240817   2.957   6.222   5.941
13625TIP3    H140818   2.925   6.250   5.855
13625TIP3    H240819   2.959   6.126   5.935
13626TIP3   OH240820   2.523   6.640   2.220
13626TIP3    H140821   2.440   6.687   2.227
13626TIP3    H240822   2.499   6.547   2.224
13627TIP3   OH240823   4.155   6.382   3.192
13627TIP3    H140824   4.102   6.456   3.222
13627TIP3    H240825   4.245   6.411   3.204
13628TIP3   OH240826   3.877   5.488   5.728
13628TIP3    H140827   3.860   5.494   5.822
13628TIP3    H240828   3.919   5.402   5.717
13629TIP3   OH240829   6.735   7.301   3.266
13629TIP3    H140830   6.712   7.345   3.183
13629TIP3    H240831   6.711   7.210   3.251
13630TIP3   OH240832   3.336   2.180   4.204
13630TIP3    H140833   3.416   2.133   4.227
13630TIP3    H240834   3.361   2.236   4.131
13631TIP3   OH240835   3.747   2.508   3.832
13631TIP3    H140836   3.794   2.498   3.749
13631TIP3    H240837   3.660   2.471   3.815
13632TIP3   OH240838   6.298   0.242   5.757
13632TIP3    H140839   6.234   0.176   5.783
13632TIP3    H240840   6.247   0.309   5.711
13633TIP3   OH240841   1.438   0.115   1.546
13633TIP3    H140842   1.348   0.135   1.523
13633TIP3    H240843   1.482   0.100   1.463
13634TIP3   OH240844   7.341   6.959   4.335
13634TIP3    H140845   7.307   7.037   4.380
13634TIP3    H240846   7.278   6.890   4.356
13635TIP3   OH240847   1.412   3.529   3.914
13635TIP3    H140848   1.504   3.507   3.931
13635TIP3    H240849   1.376   3.449   3.875
13636TIP3   OH240850   5.572   4.712   1.401
13636TIP3    H140851   5.654   4.662   1.412
13636TIP3    H240852   5.552   4.744   1.489
13637TIP3   OH240853   7.207   2.127   0.806
13637TIP3    H140854   7.119   2.145   0.775
13637TIP3    H240855   7.213   2.170   0.891
13638TIP3   OH240856   2.497   1.689   4.779
13638TIP3    H140857   2.567   1.643   4.732
13638TIP3    H240858   2.536   1.773   4.804
13639TIP3   OH240859   6.400   5.813   4.853
13639TIP3    H140860   6.346   5.735   4.847
13639TIP3    H240861   6.488   5.780   4.872
13640TIP3   OH240862   2.370   1.946   2.835
13640TIP3    H140863   2.329   1.910   2.757
13640TIP3    H240864   2.300   1.993   2.879
13641TIP3   OH240865   2.524   4.480   4.720
13641TIP3    H140866   2.552   4.441   4.637
13641TIP3    H240867   2.542   4.412   4.785
13642TIP3   OH240868   0.825   0.455   2.011
13642TIP3    H140869   0.900   0.444   2.069
13642TIP3    H240870   0.854   0.520   1.946
13643TIP3   OH240871   2.716   3.611   2.584
13643TIP3    H140872   2.719   3.695   2.539
13643TIP3    H240873   2.659   3.625   2.659
13644TIP3   OH240874   0.914   6.866   0.954
13644TIP3    H140875   0.907   6.790   0.897
13644TIP3    H240876   0.870   6.839   1.035
13645TIP3   OH240877   4.954   5.882   5.416
13645TIP3    H140878   4.925   5.973   5.413
13645TIP3    H240879   5.050   5.887   5.426
13646TIP3   OH240880   3.991   5.499   5.412
13646TIP3    H140881   3.926   5.466   5.474
13646TIP3    H240882   3.943   5.563   5.360
13647TIP3   OH240883   5.344   7.486   0.379
13647TIP3    H140884   5.424   7.503   0.330
13647TIP3    H240885   5.353   7.396   0.410
13648TIP3   OH240886   0.047   6.432   0.433
13648TIP3    H140887  -0.030   6.456   0.483
13648TIP3    H240888   0.088   6.515   0.410
13649TIP3   OH240889   6.815   0.591   0.645
13649TIP3    H140890   6.764   0.671   0.651
13649TIP3    H240891   6.899   0.618   0.607
13650TIP3   OH240892   3.520   6.598   0.814
13650TIP3    H140893   3.525   6.525   0.752
13650TIP3    H240894   3.458   6.569   0.880
13651TIP3   OH240895   5.245   4.107   5.028
13651TIP3    H140896   5.248   4.192   4.984
13651TIP3    H240897   5.336   4.092   5.057
13652TIP3   OH240898   7.344   4.156   6.495
13652TIP3    H140899   7.386   4.218   6.436
13652TIP3    H240900   7.281   4.110   6.440
13653TIP3   OH240901   1.309   7.546   0.854
13653TIP3    H140902   1.364   7.622   0.867
13653TIP3    H240903   1.273   7.527   0.941
13654TIP3   OH240904   7.325   7.120   1.997
13654TIP3    H140905   7.354   7.191   1.939
13654TIP3    H240906   7.236   7.099   1.967
13655TIP3   OH240907   7.125   3.302   2.076
13655TIP3    H140908   7.220   3.306   2.076
13655TIP3    H240909   7.101   3.289   1.984
13656TIP3   OH240910   7.474   7.663   2.687
13656TIP3    H140911   7.419   7.740   2.676
13656TIP3    H240912   7.564   7.696   2.676
13657TIP3   OH240913   5.800   6.621   0.333
13657TIP3    H140914   5.872   6.564   0.361
13657TIP3    H240915   5.737   6.617   0.405
13658TIP3   OH240916   0.737   6.247   0.976
13658TIP3    H140917   0.785   6.278   1.053
13658TIP3    H240918   0.796   6.184   0.935
13659TIP3   OH240919   6.888   6.043   3.795
13659TIP3    H140920   6.822   6.083   3.853
13659TIP3    H240921   6.972   6.074   3.829
13660TIP3   OH240922   8.196   1.867   1.737
13660TIP3    H140923   8.100   1.868   1.733
13660TIP3    H240924   8.223   1.949   1.694
13661TIP3   OH240925   0.756   0.432   1.618
13661TIP3    H140926   0.664   0.437   1.591
13661TIP3    H240927   0.765   0.499   1.685
13662TIP3   OH240928   4.822   0.456   6.082
13662TIP3    H140929   4.789   0.367   6.071
13662TIP3    H240930   4.768   0.509   6.023
13663TIP3   OH240931   6.340   5.335   5.009
13663TIP3    H140932   6.287   5.277   4.954
13663TIP3    H240933   6.427   5.295   5.009
13664TIP3   OH240934   2.204   1.994   1.829
13664TIP3    H140935   2.221   1.902   1.806
13664TIP3    H240936   2.262   2.044   1.771
13665TIP3   OH240937   0.353   4.043   5.116
13665TIP3    H140938   0.290   4.095   5.066
13665TIP3    H240939   0.339   4.069   5.207
13666TIP3   OH240940   1.555   4.969   1.407
13666TIP3    H140941   1.636   4.959   1.458
13666TIP3    H240942   1.546   5.063   1.394
13667TIP3   OH240943   3.502   0.811   6.606
13667TIP3    H140944   3.551   0.893   6.621
13667TIP3    H240945   3.531   0.753   6.677
13668TIP3   OH240946   7.771   2.475   2.215
13668TIP3    H140947   7.744   2.535   2.284
13668TIP3    H240948   7.698   2.475   2.153
13669TIP3   OH240949   1.167   6.945   4.892
13669TIP3    H140950   1.146   7.000   4.967
13669TIP3    H240951   1.131   6.859   4.914
13670TIP3   OH240952   7.440   0.570   0.037
13670TIP3    H140953   7.525   0.602   0.069
13670TIP3    H240954   7.386   0.563   0.115
13671TIP3   OH240955   2.465   4.828   3.739
13671TIP3    H140956   2.538   4.825   3.800
13671TIP3    H240957   2.505   4.825   3.652
13672TIP3   OH240958   2.246   5.409   1.038
13672TIP3    H140959   2.248   5.448   1.125
13672TIP3    H240960   2.337   5.413   1.007
13673TIP3   OH240961   0.326   7.786   3.798
13673TIP3    H140962   0.236   7.818   3.801
13673TIP3    H240963   0.331   7.736   3.716
13674TIP3   OH240964   7.805   2.906   2.462
13674TIP3    H140965   7.715   2.877   2.479
13674TIP3    H240966   7.833   2.946   2.544
13675TIP3   OH240967   0.585   7.012   1.950
13675TIP3    H140968   0.626   6.927   1.962
13675TIP3    H240969   0.494   6.992   1.928
13676TIP3   OH240970   2.765   7.654   0.917
13676TIP3    H140971   2.842   7.700   0.885
13676TIP3    H240972   2.746   7.694   1.002
13677TIP3   OH240973   5.876   1.859   1.829
13677TIP3    H140974   5.816   1.921   1.787
13677TIP3    H240975   5.938   1.914   1.876
13678TIP3   OH240976   5.844   0.267   0.264
13678TIP3    H140977   5.911   0.243   0.328
13678TIP3    H240978   5.889   0.268   0.180
13679TIP3   OH240979   5.481   6.850   6.193
13679TIP3    H140980   5.521   6.932   6.165
13679TIP3    H240981   5.523   6.830   6.276
13680TIP3   OH240982   0.579   4.230   5.440
13680TIP3    H140983   0.646   4.286   5.402
13680TIP3    H240984   0.594   4.236   5.535
13681TIP3   OH240985   0.817   2.707   6.173
13681TIP3    H140986   0.886   2.642   6.158
13681TIP3    H240987   0.826   2.769   6.101
13682TIP3   OH240988   5.124   7.297   5.559
13682TIP3    H140989   5.178   7.346   5.497
13682TIP3    H240990   5.121   7.353   5.637
13683TIP3   OH240991   3.811   7.257   3.984
13683TIP3    H140992   3.857   7.324   4.034
13683TIP3    H240993   3.767   7.305   3.914
13684TIP3   OH240994   5.554   0.120   1.876
13684TIP3    H140995   5.528   0.048   1.934
13684TIP3    H240996   5.574   0.192   1.936
13685TIP3   OH240997   2.718   2.599   0.533
13685TIP3    H140998   2.769   2.518   0.542
13685TIP3    H240999   2.645   2.575   0.475
13686TIP3   OH241000   2.835   3.978   2.357
13686TIP3    H141001   2.786   3.990   2.439
13686TIP3    H241002   2.908   4.038   2.364
13687TIP3   OH241003   5.641   4.024   4.704
13687TIP3    H141004   5.638   3.966   4.779
13687TIP3    H241005   5.643   3.966   4.628
13688TIP3   OH241006   8.093   7.255   3.224
13688TIP3    H141007   8.018   7.276   3.169
13688TIP3    H241008   8.138   7.184   3.177
13689TIP3   OH241009   1.200   2.040   3.340
13689TIP3    H141010   1.202   2.000   3.427
13689TIP3    H241011   1.271   1.997   3.292
13690TIP3   OH241012   7.585   1.770   3.424
13690TIP3    H141013   7.622   1.766   3.336
13690TIP3    H241014   7.627   1.846   3.465
13691TIP3   OH241015   3.068   1.306   3.988
13691TIP3    H141016   2.982   1.316   3.947
13691TIP3    H241017   3.087   1.212   3.982
13692TIP3   OH241018   6.484   1.639   3.419
13692TIP3    H141019   6.447   1.701   3.356
13692TIP3    H241020   6.463   1.553   3.383
13693TIP3   OH241021   4.527   3.966   4.010
13693TIP3    H141022   4.471   4.044   4.016
13693TIP3    H241023   4.516   3.937   3.919
13694TIP3   OH241024   5.404   7.638   4.971
13694TIP3    H141025   5.437   7.673   4.888
13694TIP3    H241026   5.441   7.695   5.038
13695TIP3   OH241027   6.568   7.658   0.588
13695TIP3    H141028   6.521   7.679   0.668
13695TIP3    H241029   6.639   7.599   0.615
13696TIP3   OH241030   0.218   2.189   6.090
13696TIP3    H141031   0.242   2.279   6.065
13696TIP3    H241032   0.244   2.136   6.015
13697TIP3   OH241033   3.245   1.960   0.374
13697TIP3    H141034   3.240   1.974   0.280
13697TIP3    H241035   3.334   1.927   0.389
13698TIP3   OH241036   1.207   3.829   4.998
13698TIP3    H141037   1.148   3.753   4.997
13698TIP3    H241038   1.148   3.905   4.995
13699TIP3   OH241039   7.437   5.296   6.435
13699TIP3    H141040   7.363   5.345   6.470
13699TIP3    H241041   7.398   5.231   6.377
13700TIP3   OH241042   3.542   3.594   6.375
13700TIP3    H141043   3.587   3.576   6.458
13700TIP3    H241044   3.472   3.655   6.399
13701TIP3   OH241045   7.537   5.923   4.950
13701TIP3    H141046   7.515   5.935   4.857
13701TIP3    H241047   7.604   5.990   4.967
13702TIP3   OH241048   1.072   4.765   1.638
13702TIP3    H141049   1.114   4.734   1.558
13702TIP3    H241050   1.086   4.860   1.637
13703TIP3   OH241051   4.446   1.569   1.198
13703TIP3    H141052   4.498   1.648   1.212
13703TIP3    H241053   4.509   1.504   1.167
13704TIP3   OH241054   4.592   5.737   6.522
13704TIP3    H141055   4.550   5.813   6.562
13704TIP3    H241056   4.672   5.772   6.482
13705TIP3   OH241057   2.754   0.141   3.251
13705TIP3    H141058   2.779   0.096   3.170
13705TIP3    H241059   2.833   0.140   3.305
13706TIP3   OH241060   7.187   4.618   2.827
13706TIP3    H141061   7.222   4.541   2.872
13706TIP3    H241062   7.261   4.678   2.820
13707TIP3   OH241063   5.466   4.925   5.191
13707TIP3    H141064   5.375   4.919   5.220
13707TIP3    H241065   5.464   4.985   5.117
13708TIP3   OH241066   7.343   6.643   1.914
13708TIP3    H141067   7.323   6.676   2.001
13708TIP3    H241068   7.372   6.553   1.928
13709TIP3   OH241069   4.091   0.237   0.184
13709TIP3    H141070   4.065   0.300   0.116
13709TIP3    H241071   4.143   0.289   0.246
13710TIP3   OH241072   4.500   3.580   2.327
13710TIP3    H141073   4.418   3.561   2.372
13710TIP3    H241074   4.541   3.650   2.379
13711TIP3   OH241075   2.391   5.825   0.761
13711TIP3    H141076   2.316   5.882   0.744
13711TIP3    H241077   2.385   5.756   0.695
13712TIP3   OH241078   4.967   6.247   3.641
13712TIP3    H141079   4.967   6.175   3.578
13712TIP3    H241080   5.060   6.266   3.656
13713TIP3   OH241081   3.528   6.389   0.630
13713TIP3    H141082   3.457   6.338   0.670
13713TIP3    H241083   3.596   6.324   0.611
13714TIP3   OH241084   5.802   4.692   4.921
13714TIP3    H141085   5.711   4.709   4.946
13714TIP3    H241086   5.803   4.601   4.892
13715TIP3   OH241087   1.220   5.628   6.496
13715TIP3    H141088   1.171   5.704   6.465
13715TIP3    H241089   1.240   5.578   6.417
13716TIP3   OH241090   2.544   7.676   4.074
13716TIP3    H141091   2.477   7.612   4.097
13716TIP3    H241092   2.513   7.758   4.113
13717TIP3   OH241093   3.397   4.064   0.202
13717TIP3    H141094   3.402   4.001   0.130
13717TIP3    H241095   3.303   4.080   0.214
13718TIP3   OH241096   4.955   2.438   2.348
13718TIP3    H141097   4.916   2.357   2.379
13718TIP3    H241098   4.997   2.476   2.425
13719TIP3   OH241099   1.988   0.517   2.933
13719TIP3    H141100   1.899   0.481   2.934
13719TIP3    H241101   1.976   0.611   2.944
13720TIP3   OH241102   1.924   0.566   5.185
13720TIP3    H141103   1.841   0.610   5.200
13720TIP3    H241104   1.961   0.552   5.273
13721TIP3   OH241105   3.732   6.794   0.134
13721TIP3    H141106   3.660   6.835   0.087
13721TIP3    H241107   3.703   6.791   0.225
13722TIP3   OH241108   0.907   2.609   6.643
13722TIP3    H141109   0.861   2.668   6.703
13722TIP3    H241110   0.873   2.631   6.557
13723TIP3   OH241111   4.922   7.462   2.712
13723TIP3    H141112   4.946   7.401   2.782
13723TIP3    H241113   4.896   7.542   2.759
13724TIP3   OH241114   3.330   0.620   2.358
13724TIP3    H141115   3.286   0.556   2.414
13724TIP3    H241116   3.263   0.688   2.344
13725TIP3   OH241117   1.647   0.690   0.957
13725TIP3    H141118   1.670   0.652   1.042
13725TIP3    H241119   1.731   0.701   0.912
13726TIP3   OH241120   1.251   1.070   5.492
13726TIP3    H141121   1.272   1.086   5.399
13726TIP3    H241122   1.335   1.050   5.532
13727TIP3   OH241123   4.242   3.244   3.421
13727TIP3    H141124   4.309   3.215   3.482
13727TIP3    H241125   4.232   3.172   3.359
13728TIP3   OH241126   4.079   1.422   4.577
13728TIP3    H141127   4.022   1.374   4.636
13728TIP3    H241128   4.115   1.494   4.630
13729TIP3   OH241129   5.246   6.736   5.993
13729TIP3    H141130   5.332   6.711   5.958
13729TIP3    H241131   5.189   6.742   5.916
13730TIP3   OH241132   5.440   0.577   1.414
13730TIP3    H141133   5.514   0.614   1.364
13730TIP3    H241134   5.367   0.578   1.352
13731TIP3   OH241135   7.025   5.617   2.604
13731TIP3    H141136   6.968   5.560   2.655
13731TIP3    H241137   7.100   5.562   2.582
13732TIP3   OH241138   2.775   6.616   2.287
13732TIP3    H141139   2.815   6.565   2.217
13732TIP3    H241140   2.684   6.630   2.259
13733TIP3   OH241141   1.360   5.093   0.756
13733TIP3    H141142   1.381   5.140   0.837
13733TIP3    H241143   1.440   5.043   0.736
13734TIP3   OH241144   0.154   0.146   0.364
13734TIP3    H141145   0.238   0.111   0.335
13734TIP3    H241146   0.138   0.220   0.306
13735TIP3   OH241147   3.806   6.182   2.909
13735TIP3    H141148   3.736   6.247   2.900
13735TIP3    H241149   3.878   6.230   2.949
13736TIP3   OH241150   2.607   5.335   2.565
13736TIP3    H141151   2.667   5.389   2.513
13736TIP3    H241152   2.645   5.247   2.560
13737TIP3   OH241153   0.311   5.129   1.620
13737TIP3    H141154   0.243   5.094   1.677
13737TIP3    H241155   0.364   5.053   1.597
13738TIP3   OH241156   6.894   6.293   6.447
13738TIP3    H141157   6.858   6.240   6.518
13738TIP3    H241158   6.909   6.231   6.376
13739TIP3   OH241159   0.089   5.154   4.967
13739TIP3    H141160   0.091   5.058   4.975
13739TIP3    H241161   0.180   5.181   4.983
13740TIP3   OH241162   8.106   0.609   1.891
13740TIP3    H141163   8.054   0.609   1.811
13740TIP3    H241164   8.154   0.692   1.889
13741TIP3   OH241165   1.641   7.598   3.211
13741TIP3    H141166   1.646   7.658   3.285
13741TIP3    H241167   1.696   7.524   3.236
13742TIP3   OH241168   1.970   5.464   5.623
13742TIP3    H141169   2.035   5.413   5.670
13742TIP3    H241170   2.020   5.514   5.559
13743TIP3   OH241171   3.056   2.201   0.236
13743TIP3    H141172   2.985   2.236   0.290
13743TIP3    H241173   3.025   2.209   0.146
13744TIP3   OH241174   0.503   6.942   0.183
13744TIP3    H141175   0.523   6.901   0.267
13744TIP3    H241176   0.412   6.969   0.191
13745TIP3   OH241177   1.315   5.723   0.983
13745TIP3    H141178   1.380   5.742   1.050
13745TIP3    H241179   1.332   5.788   0.914
13746TIP3   OH241180   7.984   2.175   2.771
13746TIP3    H141181   8.002   2.095   2.721
13746TIP3    H241182   8.069   2.220   2.774
13747TIP3   OH241183   7.006   5.943   2.976
13747TIP3    H141184   6.992   6.036   2.993
13747TIP3    H241185   6.957   5.898   3.046
13748TIP3   OH241186   3.811   5.488   2.459
13748TIP3    H141187   3.893   5.503   2.506
13748TIP3    H241188   3.790   5.573   2.420
13749TIP3   OH241189   6.700   2.713   0.874
13749TIP3    H141190   6.634   2.649   0.902
13749TIP3    H241191   6.768   2.708   0.941
13750TIP3   OH241192   0.370   0.865   3.019
13750TIP3    H141193   0.420   0.931   3.067
13750TIP3    H241194   0.437   0.808   2.982
13751TIP3   OH241195   3.080   5.465   6.693
13751TIP3    H141196   3.030   5.437   6.770
13751TIP3    H241197   3.041   5.549   6.668
13752TIP3   OH241198   0.485   6.669   6.467
13752TIP3    H141199   0.409   6.718   6.497
13752TIP3    H241200   0.536   6.733   6.417
13753TIP3   OH241201   1.946   3.931   4.798
13753TIP3    H141202   2.000   3.858   4.826
13753TIP3    H241203   1.931   3.981   4.879
13754TIP3   OH241204   1.293   5.548   4.817
13754TIP3    H141205   1.320   5.458   4.835
13754TIP3    H241206   1.279   5.552   4.723
13755TIP3   OH241207   1.195   4.173   3.714
13755TIP3    H141208   1.262   4.193   3.648
13755TIP3    H241209   1.122   4.138   3.664
13756TIP3   OH241210   5.068   2.084   6.514
13756TIP3    H141211   5.110   2.011   6.559
13756TIP3    H241212   4.977   2.081   6.543
13757TIP3   OH241213   7.628   3.711   3.647
13757TIP3    H141214   7.683   3.650   3.597
13757TIP3    H241215   7.571   3.751   3.581
13758TIP3   OH241216   5.163   3.575   3.322
13758TIP3    H141217   5.111   3.580   3.402
13758TIP3    H241218   5.154   3.484   3.293
13759TIP3   OH241219   2.043   0.197   6.238
13759TIP3    H141220   2.066   0.130   6.303
13759TIP3    H241221   2.094   0.172   6.160
13760TIP3   OH241222   3.931   3.965   5.024
13760TIP3    H141223   3.976   4.032   4.973
13760TIP3    H241224   3.920   3.892   4.963
13761TIP3   OH241225   7.663   6.650   3.711
13761TIP3    H141226   7.575   6.684   3.726
13761TIP3    H241227   7.651   6.577   3.650
13762TIP3   OH241228   4.256   4.272   5.436
13762TIP3    H141229   4.209   4.242   5.514
13762TIP3    H241230   4.349   4.268   5.461
13763TIP3   OH241231   7.961   5.912   2.672
13763TIP3    H141232   7.921   5.997   2.654
13763TIP3    H241233   8.047   5.934   2.707
13764TIP3   OH241234   4.714   1.328   2.435
13764TIP3    H141235   4.669   1.372   2.363
13764TIP3    H241236   4.772   1.394   2.471
13765TIP3   OH241237   6.376   2.742   5.332
13765TIP3    H141238   6.315   2.778   5.268
13765TIP3    H241239   6.427   2.818   5.361
13766TIP3   OH241240   6.480   5.175   0.875
13766TIP3    H141241   6.472   5.081   0.889
13766TIP3    H241242   6.422   5.215   0.940
13767TIP3   OH241243   4.790   6.132   0.124
13767TIP3    H141244   4.762   6.048   0.087
13767TIP3    H241245   4.734   6.196   0.081
13768TIP3   OH241246   1.980   4.311   6.097
13768TIP3    H141247   2.010   4.369   6.028
13768TIP3    H241248   2.013   4.352   6.178
13769TIP3   OH241249   5.663   6.004   1.465
13769TIP3    H141250   5.680   6.095   1.489
13769TIP3    H241251   5.622   5.965   1.542
13770TIP3   OH241252   4.997   6.479   6.690
13770TIP3    H141253   4.993   6.554   6.749
13770TIP3    H241254   4.982   6.403   6.747
13771TIP3   OH241255   0.793   5.095   6.555
13771TIP3    H141256   0.878   5.061   6.529
13771TIP3    H241257   0.776   5.166   6.493
13772TIP3   OH241258   0.983   0.952   5.922
13772TIP3    H141259   0.965   0.994   5.838
13772TIP3    H241260   1.059   0.998   5.957
13773TIP3   OH241261   0.314   2.123   0.129
13773TIP3    H141262   0.335   2.169   0.047
13773TIP3    H241263   0.276   2.190   0.185
13774TIP3   OH241264   3.132   0.421   1.152
13774TIP3    H141265   3.089   0.336   1.164
13774TIP3    H241266   3.214   0.401   1.109
13775TIP3   OH241267   5.162   2.103   2.732
13775TIP3    H141268   5.241   2.147   2.761
13775TIP3    H241269   5.099   2.174   2.719
13776TIP3   OH241270   1.457   0.688   0.116
13776TIP3    H141271   1.496   0.712   0.032
13776TIP3    H241272   1.407   0.765   0.142
13777TIP3   OH241273   7.124   0.950   3.942
13777TIP3    H141274   7.147   0.891   4.013
13777TIP3    H241275   7.203   1.001   3.926
13778TIP3   OH241276   7.646   7.815   4.466
13778TIP3    H141277   7.588   7.754   4.421
13778TIP3    H241278   7.706   7.759   4.515
13779TIP3   OH241279   0.680   7.069   2.992
13779TIP3    H141280   0.640   7.032   3.071
13779TIP3    H241281   0.719   6.994   2.947
13780TIP3   OH241282   1.779   4.184   0.245
13780TIP3    H141283   1.813   4.131   0.172
13780TIP3    H241284   1.791   4.129   0.322
13781TIP3   OH241285   2.665   5.138   6.207
13781TIP3    H141286   2.698   5.158   6.295
13781TIP3    H241287   2.662   5.043   6.204
13782TIP3   OH241288   1.907   0.456   1.449
13782TIP3    H141289   1.883   0.542   1.485
13782TIP3    H241290   1.823   0.412   1.434
13783TIP3   OH241291   4.802   2.874   0.688
13783TIP3    H141292   4.711   2.890   0.714
13783TIP3    H241293   4.797   2.857   0.594
13784TIP3   OH241294   5.922   3.235   3.525
13784TIP3    H141295   5.894   3.198   3.441
13784TIP3    H241296   5.854   3.209   3.587
13785TIP3   OH241297   4.592   2.506   5.575
13785TIP3    H141298   4.662   2.483   5.636
13785TIP3    H241299   4.632   2.502   5.488
13786TIP3   OH241300   1.064   6.637   0.420
13786TIP3    H141301   1.158   6.623   0.411
13786TIP3    H241302   1.028   6.550   0.438
13787TIP3   OH241303   6.290   5.553   4.856
13787TIP3    H141304   6.304   5.488   4.925
13787TIP3    H241305   6.195   5.554   4.843
13788TIP3   OH241306   1.914   0.793   0.432
13788TIP3    H141307   1.866   0.856   0.485
13788TIP3    H241308   1.860   0.780   0.354
13789TIP3   OH241309   6.644   0.115   1.225
13789TIP3    H141310   6.586   0.056   1.273
13789TIP3    H241311   6.726   0.115   1.276
13790TIP3   OH241312   1.658   1.886   0.204
13790TIP3    H141313   1.645   1.922   0.292
13790TIP3    H241314   1.713   1.808   0.218
13791TIP3   OH241315   7.028   6.467   1.698
13791TIP3    H141316   7.095   6.531   1.724
13791TIP3    H241317   7.077   6.397   1.654
13792TIP3   OH241318   6.799   7.410   4.606
13792TIP3    H141319   6.772   7.417   4.698
13792TIP3    H241320   6.752   7.481   4.562
13793TIP3   OH241321   6.221   3.980   0.894
13793TIP3    H141322   6.273   4.049   0.852
13793TIP3    H241323   6.192   3.925   0.822
13794TIP3   OH241324   5.120   2.866   5.604
13794TIP3    H141325   5.074   2.786   5.632
13794TIP3    H241326   5.155   2.902   5.685
13795TIP3   OH241327   1.915   2.207   0.403
13795TIP3    H141328   1.885   2.297   0.393
13795TIP3    H241329   1.913   2.171   0.315
13796TIP3   OH241330   6.061   2.732   0.182
13796TIP3    H141331   6.147   2.767   0.207
13796TIP3    H241332   6.008   2.810   0.164
13797TIP3   OH241333   0.632   1.153   6.711
13797TIP3    H141334   0.623   1.242   6.676
13797TIP3    H241335   0.642   1.166   6.805
13798TIP3   OH241336   4.855   5.697   6.286
13798TIP3    H141337   4.923   5.632   6.269
13798TIP3    H241338   4.903   5.773   6.321
13799TIP3   OH241339   6.135   3.530   5.230
13799TIP3    H141340   6.050   3.486   5.229
13799TIP3    H241341   6.116   3.620   5.254
13800TIP3   OH241342   4.010   0.108   6.051
13800TIP3    H141343   4.088   0.054   6.067
13800TIP3    H241344   3.956   0.054   5.992
13801TIP3   OH241345   1.264   3.658   6.463
13801TIP3    H141346   1.256   3.575   6.509
13801TIP3    H241347   1.226   3.642   6.376
13802TIP3   OH241348   6.950   4.788   0.719
13802TIP3    H141349   6.926   4.881   0.722
13802TIP3    H241350   6.876   4.744   0.761
13803TIP3   OH241351   1.183   0.006   2.843
13803TIP3    H141352   1.132   0.081   2.814
13803TIP3    H241353   1.123  -0.069   2.835
13804TIP3   OH241354   3.476   0.571   3.914
13804TIP3    H141355   3.531   0.649   3.912
13804TIP3    H241356   3.412   0.586   3.845
13805TIP3   OH241357   2.948   5.937   1.591
13805TIP3    H141358   2.937   6.007   1.527
13805TIP3    H241359   3.040   5.913   1.584
13806TIP3   OH241360   0.445   5.825   0.949
13806TIP3    H141361   0.513   5.883   0.982
13806TIP3    H241362   0.363   5.873   0.964
13807TIP3   OH241363   1.375   6.712   4.989
13807TIP3    H141364   1.410   6.626   5.012
13807TIP3    H241365   1.280   6.700   4.992
13808TIP3   OH241366   5.782   2.039   5.529
13808TIP3    H141367   5.832   2.045   5.610
13808TIP3    H241368   5.696   2.006   5.555
13809TIP3   OH241369   4.801   6.529   2.246
13809TIP3    H141370   4.893   6.542   2.224
13809TIP3    H241371   4.801   6.507   2.339
13810TIP3   OH241372   5.938   3.874   1.061
13810TIP3    H141373   5.913   3.783   1.047
13810TIP3    H241374   5.935   3.913   0.973
13811TIP3   OH241375   1.740   4.895   4.585
13811TIP3    H141376   1.698   4.948   4.653
13811TIP3    H241377   1.733   4.947   4.505
13812TIP3   OH241378   2.366   2.446   6.067
13812TIP3    H141379   2.281   2.482   6.093
13812TIP3    H241380   2.390   2.496   5.989
13813TIP3   OH241381   3.026   2.248   3.228
13813TIP3    H141382   3.086   2.247   3.154
13813TIP3    H241383   2.946   2.207   3.194
13814TIP3   OH241384   3.327   0.969   6.078
13814TIP3    H141385   3.344   0.890   6.130
13814TIP3    H241386   3.404   1.024   6.092
13815TIP3   OH241387   7.866   5.901   1.521
13815TIP3    H141388   7.842   5.986   1.558
13815TIP3    H241389   7.950   5.879   1.562
13816TIP3   OH241390   4.810   2.948   6.549
13816TIP3    H141391   4.855   2.886   6.608
13816TIP3    H241392   4.867   2.953   6.473
13817TIP3   OH241393   2.914   6.220   3.570
13817TIP3    H141394   2.841   6.259   3.523
13817TIP3    H241395   2.878   6.199   3.656
13818TIP3   OH241396   4.631   4.319   4.838
13818TIP3    H141397   4.577   4.241   4.848
13818TIP3    H241398   4.619   4.345   4.747
13819TIP3   OH241399   6.504   1.527   0.711
13819TIP3    H141400   6.570   1.518   0.780
13819TIP3    H241401   6.507   1.620   0.687
13820TIP3   OH241402   5.769   1.308   3.076
13820TIP3    H141403   5.799   1.262   2.997
13820TIP3    H241404   5.807   1.396   3.068
13821TIP3   OH241405   7.299   2.624   1.987
13821TIP3    H141406   7.219   2.576   2.005
13821TIP3    H241407   7.276   2.684   1.916
13822TIP3   OH241408   0.764   0.627   1.800
13822TIP3    H141409   0.827   0.698   1.803
13822TIP3    H241410   0.680   0.670   1.784
13823TIP3   OH241411   5.273   3.813   6.542
13823TIP3    H141412   5.255   3.721   6.524
13823TIP3    H241413   5.213   3.836   6.613
13824TIP3   OH241414   0.148   1.537   3.462
13824TIP3    H141415   0.195   1.491   3.392
13824TIP3    H241416   0.080   1.587   3.416
13825TIP3   OH241417   0.176   5.850   2.833
13825TIP3    H141418   0.096   5.799   2.847
13825TIP3    H241419   0.221   5.806   2.761
13826TIP3   OH241420   2.646   3.398   2.106
13826TIP3    H141421   2.683   3.327   2.159
13826TIP3    H241422   2.722   3.444   2.071
13827TIP3   OH241423   6.321   6.715   6.119
13827TIP3    H141424   6.237   6.693   6.079
13827TIP3    H241425   6.335   6.807   6.097
13828TIP3   OH241426   3.931   2.435   3.628
13828TIP3    H141427   3.989   2.366   3.596
13828TIP3    H241428   3.847   2.416   3.586
13829TIP3   OH241429   3.161   4.373   3.062
13829TIP3    H141430   3.175   4.382   3.156
13829TIP3    H241431   3.242   4.332   3.030
13830TIP3   OH241432   0.650   7.236   5.198
13830TIP3    H141433   0.588   7.235   5.125
13830TIP3    H241434   0.647   7.147   5.234
13831TIP3   OH241435   1.258   3.423   5.006
13831TIP3    H141436   1.208   3.352   5.048
13831TIP3    H241437   1.192   3.480   4.967
13832TIP3   OH241438   4.814   4.977   2.407
13832TIP3    H141439   4.859   4.932   2.335
13832TIP3    H241440   4.884   5.002   2.467
13833TIP3   OH241441   0.370   0.040   4.762
13833TIP3    H141442   0.294   0.000   4.719
13833TIP3    H241443   0.438  -0.027   4.757
13834TIP3   OH241444   3.256   1.421   5.720
13834TIP3    H141445   3.340   1.408   5.765
13834TIP3    H241446   3.281   1.463   5.637
13835TIP3   OH241447   6.562   7.379   5.533
13835TIP3    H141448   6.648   7.406   5.498
13835TIP3    H241449   6.517   7.462   5.551
13836TIP3   OH241450   7.854   2.398   6.697
13836TIP3    H141451   7.901   2.460   6.753
13836TIP3    H241452   7.789   2.359   6.756
13837TIP3   OH241453   3.425   1.205   5.272
13837TIP3    H141454   3.441   1.137   5.337
13837TIP3    H241455   3.439   1.161   5.188
13838TIP3   OH241456   4.747   5.663   3.086
13838TIP3    H141457   4.704   5.728   3.031
13838TIP3    H241458   4.679   5.634   3.147
13839TIP3   OH241459   7.494   0.860   4.232
13839TIP3    H141460   7.536   0.878   4.147
13839TIP3    H241461   7.491   0.946   4.276
13840TIP3   OH241462   1.996   4.296   4.634
13840TIP3    H141463   2.004   4.334   4.546
13840TIP3    H241464   1.908   4.260   4.637
13841TIP3   OH241465   6.792   0.477   0.905
13841TIP3    H141466   6.704   0.439   0.905
13841TIP3    H241467   6.797   0.526   0.823
13842TIP3   OH241468   1.562   2.950   2.511
13842TIP3    H141469   1.618   2.981   2.440
13842TIP3    H241470   1.473   2.953   2.475
13843TIP3   OH241471   2.277   1.935   4.366
13843TIP3    H141472   2.187   1.953   4.393
13843TIP3    H241473   2.328   2.006   4.405
13844TIP3   OH241474   6.009   5.719   6.343
13844TIP3    H141475   6.003   5.689   6.434
13844TIP3    H241476   6.055   5.649   6.297
13845TIP3   OH241477   3.105   4.875   6.438
13845TIP3    H141478   3.134   4.919   6.358
13845TIP3    H241479   3.178   4.886   6.499
13846TIP3   OH241480   6.827   4.946   2.309
13846TIP3    H141481   6.859   4.938   2.219
13846TIP3    H241482   6.764   5.018   2.305
13847TIP3   OH241483   5.956   6.590   1.062
13847TIP3    H141484   6.011   6.593   1.140
13847TIP3    H241485   5.982   6.667   1.011
13848TIP3   OH241486   3.936   2.898   0.949
13848TIP3    H141487   3.980   2.834   1.005
13848TIP3    H241488   3.843   2.885   0.967
13849TIP3   OH241489   7.017   1.730   2.783
13849TIP3    H141490   7.017   1.757   2.875
13849TIP3    H241491   7.089   1.666   2.777
13850TIP3   OH241492   5.673   3.752   3.675
13850TIP3    H141493   5.700   3.791   3.757
13850TIP3    H241494   5.753   3.716   3.637
13851TIP3   OH241495   5.464   6.313   6.620
13851TIP3    H141496   5.446   6.231   6.573
13851TIP3    H241497   5.382   6.333   6.665
13852TIP3   OH241498   6.370   1.345   3.365
13852TIP3    H141499   6.452   1.331   3.317
13852TIP3    H241500   6.303   1.301   3.312
13853TIP3   OH241501   0.712   4.086   3.894
13853TIP3    H141502   0.794   4.105   3.848
13853TIP3    H241503   0.720   3.994   3.920
13854TIP3   OH241504   5.370   5.594   5.174
13854TIP3    H141505   5.428   5.524   5.201
13854TIP3    H241506   5.288   5.550   5.152
13855TIP3   OH241507   3.765   0.677   4.306
13855TIP3    H141508   3.688   0.667   4.362
13855TIP3    H241509   3.839   0.667   4.366
13856TIP3   OH241510   1.740   2.608   5.054
13856TIP3    H141511   1.786   2.671   4.998
13856TIP3    H241512   1.647   2.623   5.036
13857TIP3   OH241513   4.686   6.940   5.294
13857TIP3    H141514   4.748   7.009   5.314
13857TIP3    H241515   4.720   6.863   5.339
13858TIP3   OH241516   6.502   1.762   5.465
13858TIP3    H141517   6.407   1.767   5.456
13858TIP3    H241518   6.518   1.671   5.492
13859TIP3   OH241519   1.998   1.293   1.360
13859TIP3    H141520   2.080   1.293   1.310
13859TIP3    H241521   1.967   1.203   1.355
13860TIP3   OH241522   5.936   4.632   2.172
13860TIP3    H141523   5.881   4.679   2.234
13860TIP3    H241524   5.934   4.685   2.093
13861TIP3   OH241525   2.697   2.146   4.777
13861TIP3    H141526   2.757   2.141   4.851
13861TIP3    H241527   2.734   2.213   4.720
13862TIP3   OH241528   7.386   4.958   1.367
13862TIP3    H141529   7.348   4.871   1.365
13862TIP3    H241530   7.457   4.956   1.303
13863TIP3   OH241531   7.714   4.307   0.475
13863TIP3    H141532   7.746   4.333   0.562
13863TIP3    H241533   7.683   4.217   0.487
13864TIP3   OH241534   1.906   7.266   4.929
13864TIP3    H141535   1.825   7.264   4.877
13864TIP3    H241536   1.897   7.342   4.986
13865TIP3   OH241537   5.476   7.013   3.176
13865TIP3    H141538   5.457   7.103   3.199
13865TIP3    H241539   5.470   7.011   3.080
13866TIP3   OH241540   3.752   7.090   4.952
13866TIP3    H141541   3.705   7.173   4.960
13866TIP3    H241542   3.791   7.093   4.864
13867TIP3   OH241543   1.707   2.299   0.890
13867TIP3    H141544   1.705   2.322   0.983
13867TIP3    H241545   1.777   2.233   0.883
13868TIP3   OH241546   3.282   2.287   6.436
13868TIP3    H141547   3.208   2.319   6.386
13868TIP3    H241548   3.252   2.204   6.473
13869TIP3   OH241549   6.736   3.185   5.985
13869TIP3    H141550   6.778   3.202   6.069
13869TIP3    H241551   6.808   3.191   5.921
13870TIP3   OH241552   2.803   0.691   1.938
13870TIP3    H141553   2.837   0.610   1.977
13870TIP3    H241554   2.880   0.735   1.904
13871TIP3   OH241555   4.635   3.774  -0.024
13871TIP3    H141556   4.682   3.794  -0.105
13871TIP3    H241557   4.683   3.701   0.014
13872TIP3   OH241558   3.635   4.411   0.447
13872TIP3    H141559   3.601   4.411   0.537
13872TIP3    H241560   3.561   4.442   0.394
13873TIP3   OH241561   5.610   6.154   0.349
13873TIP3    H141562   5.571   6.163   0.435
13873TIP3    H241563   5.689   6.207   0.352
13874TIP3   OH241564   1.390   2.384   3.674
13874TIP3    H141565   1.460   2.363   3.735
13874TIP3    H241566   1.432   2.441   3.609
13875TIP3   OH241567   4.116   6.398   1.230
13875TIP3    H141568   4.057   6.323   1.231
13875TIP3    H241569   4.108   6.436   1.318
13876TIP3   OH241570   5.869   6.174   3.838
13876TIP3    H141571   5.952   6.160   3.792
13876TIP3    H241572   5.894   6.189   3.929
13877TIP3   OH241573   7.031   1.352   4.427
13877TIP3    H141574   7.045   1.303   4.507
13877TIP3    H241575   6.987   1.432   4.455
13878TIP3   OH241576   4.185   7.843   5.978
13878TIP3    H141577   4.169   7.776   6.044
13878TIP3    H241578   4.110   7.902   5.985
13879TIP3   OH241579   3.182   0.617   5.255
13879TIP3    H141580   3.159   0.670   5.332
13879TIP3    H241581   3.273   0.592   5.269
13880TIP3   OH241582   5.202   0.250   4.541
13880TIP3    H141583   5.135   0.311   4.570
13880TIP3    H241584   5.157   0.192   4.479
13881TIP3   OH241585   5.280   2.921   3.492
13881TIP3    H141586   5.291   3.015   3.505
13881TIP3    H241587   5.216   2.914   3.421
13882TIP3   OH241588   7.723   4.356   3.565
13882TIP3    H141589   7.751   4.372   3.656
13882TIP3    H241590   7.785   4.292   3.532
13883TIP3   OH241591   1.646   0.614   2.455
13883TIP3    H141592   1.682   0.697   2.422
13883TIP3    H241593   1.593   0.640   2.530
13884TIP3   OH241594   2.595   1.352   1.657
13884TIP3    H141595   2.593   1.298   1.736
13884TIP3    H241596   2.588   1.442   1.688
13885TIP3   OH241597   4.174   6.610   5.485
13885TIP3    H141598   4.188   6.694   5.529
13885TIP3    H241599   4.133   6.554   5.551
13886TIP3   OH241600   4.691   2.195   2.643
13886TIP3    H141601   4.691   2.114   2.694
13886TIP3    H241602   4.661   2.262   2.704
13887TIP3   OH241603   5.553   6.689   6.434
13887TIP3    H141604   5.582   6.617   6.491
13887TIP3    H241605   5.521   6.756   6.494
13888TIP3   OH241606   2.718   4.679   3.688
13888TIP3    H141607   2.802   4.647   3.722
13888TIP3    H241608   2.728   4.774   3.688
13889TIP3   OH241609   7.869   3.384   1.302
13889TIP3    H141610   7.904   3.450   1.241
13889TIP3    H241611   7.935   3.376   1.370
13890TIP3   OH241612   2.041   5.630   4.986
13890TIP3    H141613   1.977   5.700   4.990
13890TIP3    H241614   2.096   5.643   5.062
13891TIP3   OH241615   2.836   7.452   2.875
13891TIP3    H141616   2.881   7.535   2.858
13891TIP3    H241617   2.748   7.465   2.840
13892TIP3   OH241618   7.754   1.101   2.827
13892TIP3    H141619   7.762   1.006   2.814
13892TIP3    H241620   7.844   1.133   2.824
13893TIP3   OH241621   7.860   0.720   0.544
13893TIP3    H141622   7.911   0.670   0.607
13893TIP3    H241623   7.873   0.812   0.569
13894TIP3   OH241624   2.395   0.171   0.300
13894TIP3    H141625   2.453   0.155   0.226
13894TIP3    H241626   2.438   0.128   0.374
13895TIP3   OH241627   6.172   4.246   2.770
13895TIP3    H141628   6.130   4.171   2.727
13895TIP3    H241629   6.256   4.256   2.725
13896TIP3   OH241630   5.240   6.000   3.822
13896TIP3    H141631   5.335   5.998   3.810
13896TIP3    H241632   5.210   6.067   3.759
13897TIP3   OH241633   2.432   3.424   1.579
13897TIP3    H141634   2.463   3.380   1.659
13897TIP3    H241635   2.511   3.434   1.526
13898TIP3   OH241636   5.306   0.180   6.627
13898TIP3    H141637   5.253   0.101   6.622
13898TIP3    H241638   5.278   0.233   6.552
13899TIP3   OH241639   7.566   0.586   5.263
13899TIP3    H141640   7.612   0.656   5.310
13899TIP3    H241641   7.626   0.511   5.269
13900TIP3   OH241642   0.827   7.778   6.027
13900TIP3    H141643   0.793   7.866   6.011
13900TIP3    H241644   0.907   7.772   5.975
13901TIP3   OH241645   7.717   2.989   2.863
13901TIP3    H141646   7.722   3.082   2.885
13901TIP3    H241647   7.801   2.970   2.820
13902TIP3   OH241648   4.544   6.791   5.074
13902TIP3    H141649   4.611   6.737   5.032
13902TIP3    H241650   4.580   6.811   5.161
13903TIP3   OH241651   7.891   7.109   4.184
13903TIP3    H141652   7.917   7.173   4.118
13903TIP3    H241653   7.973   7.070   4.215
13904TIP3   OH241654   5.676   1.564   5.234
13904TIP3    H141655   5.735   1.488   5.241
13904TIP3    H241656   5.734   1.640   5.242
13905TIP3   OH241657   0.835   1.151   2.213
13905TIP3    H141658   0.920   1.144   2.257
13905TIP3    H241659   0.771   1.153   2.284
13906TIP3   OH241660   2.148   3.129   1.727
13906TIP3    H141661   2.140   3.082   1.810
13906TIP3    H241662   2.218   3.084   1.681
13907TIP3   OH241663   0.262   6.163   6.058
13907TIP3    H141664   0.331   6.224   6.085
13907TIP3    H241665   0.279   6.083   6.109
13908TIP3   OH241666   3.261   2.704   3.148
13908TIP3    H141667   3.320   2.631   3.129
13908TIP3    H241668   3.187   2.692   3.088
13909TIP3   OH241669   6.875   3.355   1.692
13909TIP3    H141670   6.950   3.326   1.743
13909TIP3    H241671   6.911   3.418   1.630
13910TIP3   OH241672   2.410   5.827   2.535
13910TIP3    H141673   2.402   5.820   2.630
13910TIP3    H241674   2.433   5.919   2.520
13911TIP3   OH241675   6.753   5.116   2.742
13911TIP3    H141676   6.762   5.036   2.691
13911TIP3    H241677   6.755   5.086   2.833
13912TIP3   OH241678   7.160   1.664   0.973
13912TIP3    H141679   7.114   1.598   0.921
13912TIP3    H241680   7.089   1.717   1.011
13913TIP3   OH241681   0.956   6.452   1.888
13913TIP3    H141682   0.926   6.530   1.842
13913TIP3    H241683   0.892   6.440   1.958
13914TIP3   OH241684   3.173   1.384   3.519
13914TIP3    H141685   3.185   1.289   3.531
13914TIP3    H241686   3.081   1.394   3.496
13915TIP3   OH241687   5.043   6.058   0.197
13915TIP3    H141688   5.077   6.094   0.115
13915TIP3    H241689   4.948   6.070   0.191
13916TIP3   OH241690   6.371   1.332   5.029
13916TIP3    H141691   6.305   1.391   4.991
13916TIP3    H241692   6.363   1.345   5.124
13917TIP3   OH241693   7.012   5.664   6.662
13917TIP3    H141694   6.934   5.609   6.671
13917TIP3    H241695   7.080   5.605   6.630
13918TIP3   OH241696   2.376   5.393   5.428
13918TIP3    H141697   2.469   5.415   5.419
13918TIP3    H241698   2.376   5.299   5.444
13919TIP3   OH241699   3.637   4.209   1.704
13919TIP3    H141700   3.603   4.297   1.718
13919TIP3    H241701   3.634   4.168   1.790
13920TIP3   OH241702   4.017   4.269   2.395
13920TIP3    H141703   3.946   4.207   2.410
13920TIP3    H241704   4.035   4.264   2.301
13921TIP3   OH241705   1.359   5.073   2.031
13921TIP3    H141706   1.426   5.016   2.070
13921TIP3    H241707   1.276   5.040   2.068
13922TIP3   OH241708   6.486   4.164   2.467
13922TIP3    H141709   6.401   4.177   2.426
13922TIP3    H241710   6.523   4.088   2.423
13923TIP3   OH241711   3.740   2.628   4.697
13923TIP3    H141712   3.770   2.634   4.788
13923TIP3    H241713   3.814   2.660   4.646
13924TIP3   OH241714   0.646   3.317   2.505
13924TIP3    H141715   0.691   3.330   2.421
13924TIP3    H241716   0.585   3.245   2.488
13925TIP3   OH241717   6.531   0.909   4.886
13925TIP3    H141718   6.623   0.913   4.912
13925TIP3    H241719   6.531   0.860   4.804
13926TIP3   OH241720   3.061   5.326   4.172
13926TIP3    H141721   3.125   5.305   4.104
13926TIP3    H241722   3.094   5.282   4.250
13927TIP3   OH241723   7.560   1.500   6.098
13927TIP3    H141724   7.498   1.556   6.052
13927TIP3    H241725   7.631   1.487   6.035
13928TIP3   OH241726   3.675   5.532   2.107
13928TIP3    H141727   3.614   5.573   2.045
13928TIP3    H241728   3.686   5.597   2.176
13929TIP3   OH241729   2.766   6.414   2.681
13929TIP3    H141730   2.740   6.389   2.592
13929TIP3    H241731   2.727   6.346   2.736
13930TIP3   OH241732   6.916   6.002   0.503
13930TIP3    H141733   6.889   5.916   0.472
13930TIP3    H241734   6.970   5.984   0.580
13931TIP3   OH241735   5.148   0.851   4.850
13931TIP3    H141736   5.104   0.771   4.880
13931TIP3    H241737   5.088   0.887   4.784
13932TIP3   OH241738   2.665   0.392   1.708
13932TIP3    H141739   2.607   0.330   1.752
13932TIP3    H241740   2.733   0.338   1.668
13933TIP3   OH241741   6.701   2.679   6.696
13933TIP3    H141742   6.662   2.731   6.766
13933TIP3    H241743   6.669   2.719   6.615
13934TIP3   OH241744   4.386   5.072   2.903
13934TIP3    H141745   4.361   5.163   2.916
13934TIP3    H241746   4.407   5.066   2.809
13935TIP3   OH241747   8.120   5.448   2.045
13935TIP3    H141748   8.211   5.425   2.030
13935TIP3    H241749   8.070   5.389   1.987
13936TIP3   OH241750   5.430   6.735   4.805
13936TIP3    H141751   5.369   6.682   4.755
13936TIP3    H241752   5.375   6.781   4.869
13937TIP3   OH241753   4.933   1.513   6.495
13937TIP3    H141754   4.860   1.454   6.474
13937TIP3    H241755   4.981   1.467   6.564
13938TIP3   OH241756   4.873   0.389   5.038
13938TIP3    H141757   4.787   0.395   4.997
13938TIP3    H241758   4.927   0.343   4.973
13939TIP3   OH241759   4.147   5.022   4.123
13939TIP3    H141760   4.057   5.021   4.091
13939TIP3    H241761   4.171   5.115   4.123
13940TIP3   OH241762   7.921   4.962   1.266
13940TIP3    H141763   7.925   4.990   1.175
13940TIP3    H241764   7.832   4.982   1.294
13941TIP3   OH241765   3.170   4.410   3.326
13941TIP3    H141766   3.205   4.331   3.365
13941TIP3    H241767   3.240   4.475   3.335
13942TIP3   OH241768   6.209   4.783   1.535
13942TIP3    H141769   6.290   4.779   1.483
13942TIP3    H241770   6.168   4.698   1.521
13943TIP3   OH241771   0.220   4.284   5.903
13943TIP3    H141772   0.298   4.339   5.896
13943TIP3    H241773   0.154   4.327   5.849
13944TIP3   OH241774   4.652   6.482   6.089
13944TIP3    H141775   4.680   6.396   6.057
13944TIP3    H241776   4.733   6.532   6.099
13945TIP3   OH241777   3.466   6.164   5.483
13945TIP3    H141778   3.538   6.116   5.443
13945TIP3    H241779   3.387   6.124   5.448
13946TIP3   OH241780   2.319   7.141   4.123
13946TIP3    H141781   2.329   7.234   4.145
13946TIP3    H241782   2.225   7.127   4.118
13947TIP3   OH241783   2.696   5.210   1.811
13947TIP3    H141784   2.690   5.229   1.904
13947TIP3    H241785   2.789   5.212   1.791
13948TIP3   OH241786   8.061   7.570   1.495
13948TIP3    H141787   8.088   7.496   1.441
13948TIP3    H241788   8.086   7.544   1.584
13949TIP3   OH241789   5.205   6.028   3.178
13949TIP3    H141790   5.291   5.998   3.147
13949TIP3    H241791   5.150   6.027   3.099
13950TIP3   OH241792   2.585   1.025   1.466
13950TIP3    H141793   2.616   1.068   1.546
13950TIP3    H241794   2.659   1.033   1.405
13951TIP3   OH241795   0.734   2.809   1.691
13951TIP3    H141796   0.645   2.812   1.656
13951TIP3    H241797   0.728   2.755   1.770
13952TIP3   OH241798   4.993   1.096   5.919
13952TIP3    H141799   5.088   1.102   5.918
13952TIP3    H241800   4.972   1.037   5.847
13953TIP3   OH241801   6.669   1.251   1.375
13953TIP3    H141802   6.756   1.292   1.370
13953TIP3    H241803   6.608   1.324   1.366
13954TIP3   OH241804   6.355   3.260   3.407
13954TIP3    H141805   6.421   3.270   3.476
13954TIP3    H241806   6.295   3.193   3.441
13955TIP3   OH241807   4.496   0.659   2.641
13955TIP3    H141808   4.423   0.625   2.694
13955TIP3    H241809   4.558   0.586   2.636
13956TIP3   OH241810   1.670   1.294   2.679
13956TIP3    H141811   1.585   1.335   2.661
13956TIP3    H241812   1.660   1.258   2.767
13957TIP3   OH241813   6.773   0.023   6.719
13957TIP3    H141814   6.746   0.036   6.628
13957TIP3    H241815   6.780  -0.072   6.729
13958TIP3   OH241816   0.487   3.673   4.884
13958TIP3    H141817   0.514   3.582   4.896
13958TIP3    H241818   0.436   3.693   4.963
13959TIP3   OH241819   7.440   7.378   1.441
13959TIP3    H141820   7.385   7.403   1.515
13959TIP3    H241821   7.508   7.322   1.480
13960TIP3   OH241822   6.413   4.071   0.428
13960TIP3    H141823   6.442   4.008   0.494
13960TIP3    H241824   6.411   4.021   0.346
13961TIP3   OH241825   2.408   4.042   1.696
13961TIP3    H141826   2.417   3.960   1.745
13961TIP3    H241827   2.452   4.107   1.750
13962TIP3   OH241828   2.363   1.686   0.898
13962TIP3    H141829   2.286   1.691   0.954
13962TIP3    H241830   2.409   1.607   0.926
13963TIP3   OH241831   1.007   7.413   3.593
13963TIP3    H141832   1.000   7.487   3.652
13963TIP3    H241833   1.063   7.351   3.638
13964TIP3   OH241834   6.308   0.404   6.346
13964TIP3    H141835   6.323   0.314   6.375
13964TIP3    H241836   6.361   0.413   6.267
13965TIP3   OH241837   3.969   3.020   3.695
13965TIP3    H141838   3.952   3.067   3.613
13965TIP3    H241839   4.064   3.027   3.707
13966TIP3   OH241840   0.450   7.426   4.501
13966TIP3    H141841   0.472   7.433   4.408
13966TIP3    H241842   0.364   7.467   4.508
13967TIP3   OH241843   3.995   3.331   1.421
13967TIP3    H141844   4.009   3.246   1.461
13967TIP3    H241845   4.023   3.394   1.487
13968TIP3   OH241846   2.534   0.518   0.349
13968TIP3    H141847   2.452   0.516   0.399
13968TIP3    H241848   2.521   0.453   0.279
13969TIP3   OH241849   5.584   4.327   0.544
13969TIP3    H141850   5.612   4.392   0.480
13969TIP3    H241851   5.648   4.334   0.615
13970TIP3   OH241852   5.093   6.596   0.068
13970TIP3    H141853   5.066   6.512   0.105
13970TIP3    H241854   5.189   6.588   0.061
13971TIP3   OH241855   7.856   6.913   6.626
13971TIP3    H141856   7.816   6.909   6.539
13971TIP3    H241857   7.847   7.005   6.652
13972TIP3   OH241858   6.475   4.258   6.695
13972TIP3    H141859   6.532   4.191   6.731
13972TIP3    H241860   6.386   4.224   6.708
13973TIP3   OH241861   5.296   1.671   6.432
13973TIP3    H141862   5.307   1.583   6.469
13973TIP3    H241863   5.354   1.672   6.356
13974TIP3   OH241864   6.601   1.750   0.054
13974TIP3    H141865   6.568   1.661   0.061
13974TIP3    H241866   6.696   1.740   0.043
13975TIP3   OH241867   5.383   7.175   5.842
13975TIP3    H141868   5.416   7.164   5.932
13975TIP3    H241869   5.310   7.236   5.851
13976TIP3   OH241870   0.229   7.140   1.118
13976TIP3    H141871   0.204   7.230   1.138
13976TIP3    H241872   0.295   7.118   1.184
13977TIP3   OH241873   0.195   6.515   1.230
13977TIP3    H141874   0.260   6.446   1.243
13977TIP3    H241875   0.115   6.481   1.271
13978TIP3   OH241876   3.638   1.032   6.586
13978TIP3    H141877   3.734   1.036   6.586
13978TIP3    H241878   3.613   1.048   6.495
13979TIP3   OH241879   0.903   0.989   5.044
13979TIP3    H141880   0.963   0.916   5.063
13979TIP3    H241881   0.950   1.067   5.073
13980TIP3   OH241882   4.320   1.971   5.794
13980TIP3    H141883   4.240   2.010   5.829
13980TIP3    H241884   4.318   1.881   5.825
13981TIP3   OH241885   7.420   2.356   2.727
13981TIP3    H141886   7.372   2.273   2.732
13981TIP3    H241887   7.450   2.361   2.637
13982TIP3   OH241888   7.575   5.670   0.920
13982TIP3    H141889   7.619   5.732   0.862
13982TIP3    H241890   7.489   5.708   0.936
13983TIP3   OH241891   7.877   1.889   4.974
13983TIP3    H141892   7.971   1.900   4.988
13983TIP3    H241893   7.837   1.940   5.044
13984TIP3   OH241894   2.555   3.514   4.251
13984TIP3    H141895   2.485   3.554   4.303
13984TIP3    H241896   2.592   3.586   4.201
13985TIP3   OH241897   7.814   1.445   2.658
13985TIP3    H141898   7.857   1.382   2.599
13985TIP3    H241899   7.791   1.394   2.735
13986TIP3   OH241900   0.486   1.010   4.220
13986TIP3    H141901   0.398   0.997   4.184
13986TIP3    H241902   0.475   1.000   4.314
13987TIP3   OH241903   6.824   0.887   0.128
13987TIP3    H141904   6.776   0.968   0.114
13987TIP3    H241905   6.863   0.867   0.043
13988TIP3   OH241906   2.222   1.365   5.159
13988TIP3    H141907   2.202   1.459   5.155
13988TIP3    H241908   2.295   1.354   5.098
13989TIP3   OH241909   0.326   7.666   0.522
13989TIP3    H141910   0.253   7.627   0.474
13989TIP3    H241911   0.389   7.594   0.531
13990TIP3   OH241912   2.392   1.004   6.136
13990TIP3    H141913   2.313   0.953   6.124
13990TIP3    H241914   2.393   1.025   6.229
13991TIP3   OH241915   4.720   2.959   6.101
13991TIP3    H141916   4.695   2.883   6.049
13991TIP3    H241917   4.665   3.030   6.068
13992TIP3   OH241918   7.794   0.857   5.424
13992TIP3    H141919   7.699   0.870   5.427
13992TIP3    H241920   7.818   0.870   5.333
13993TIP3   OH241921   6.181   6.765   0.402
13993TIP3    H141922   6.128   6.735   0.329
13993TIP3    H241923   6.232   6.688   0.428
13994TIP3   OH241924   3.290   7.599   2.665
13994TIP3    H141925   3.355   7.577   2.598
13994TIP3    H241926   3.323   7.679   2.705
13995TIP3   OH241927   7.063   4.471   0.878
13995TIP3    H141928   7.152   4.442   0.901
13995TIP3    H241929   7.007   4.422   0.939
13996TIP3   OH241930   5.853   6.716   1.586
13996TIP3    H141931   5.905   6.664   1.525
13996TIP3    H241932   5.892   6.803   1.584
13997TIP3   OH241933   1.499   4.382   2.866
13997TIP3    H141934   1.547   4.440   2.925
13997TIP3    H241935   1.551   4.381   2.785
13998TIP3   OH241936   7.927   2.294   2.421
13998TIP3    H141937   7.878   2.231   2.474
13998TIP3    H241938   7.861   2.357   2.391
13999TIP3   OH241939   6.775   2.401   2.729
13999TIP3    H141940   6.695   2.405   2.677
13999TIP3    H241941   6.746   2.415   2.819
14000TIP3   OH241942   2.775   4.645   5.938
14000TIP3    H141943   2.813   4.582   6.000
14000TIP3    H241944   2.848   4.703   5.916
14001TIP3   OH241945   2.069   3.897   1.285
14001TIP3    H141946   2.145   3.839   1.287
14001TIP3    H241947   2.091   3.963   1.219
14002TIP3   OH241948   4.453   5.792   1.817
14002TIP3    H141949   4.533   5.819   1.863
14002TIP3    H241950   4.443   5.856   1.747
14003TIP3   OH241951   7.394   6.731   3.789
14003TIP3    H141952   7.410   6.749   3.882
14003TIP3    H241953   7.320   6.670   3.789
14004TIP3   OH241954   2.024   1.420   3.618
14004TIP3    H141955   2.102   1.369   3.599
14004TIP3    H241956   1.951   1.360   3.604
14005TIP3   OH241957   6.808   4.942   4.983
14005TIP3    H141958   6.723   4.912   4.953
14005TIP3    H241959   6.871   4.883   4.942
14006TIP3   OH241960   8.033   6.642   1.365
14006TIP3    H141961   7.991   6.597   1.292
14006TIP3    H241962   8.108   6.687   1.325
14007TIP3   OH241963   2.353   5.808   1.045
14007TIP3    H141964   2.279   5.759   1.008
14007TIP3    H241965   2.414   5.816   0.971
14008TIP3   OH241966   3.822   6.293   4.335
14008TIP3    H141967   3.888   6.361   4.349
14008TIP3    H241968   3.756   6.333   4.279
14009TIP3   OH241969   4.814   3.377   0.735
14009TIP3    H141970   4.864   3.376   0.816
14009TIP3    H241971   4.729   3.411   0.759
14010TIP3   OH241972   5.733   0.965   4.351
14010TIP3    H141973   5.754   1.056   4.371
14010TIP3    H241974   5.697   0.966   4.263
14011TIP3   OH241975   2.865   0.831   4.842
14011TIP3    H141976   2.812   0.822   4.921
14011TIP3    H241977   2.881   0.740   4.814
14012TIP3   OH241978   5.674   4.599   6.660
14012TIP3    H141979   5.605   4.558   6.712
14012TIP3    H241980   5.695   4.679   6.708
14013TIP3   OH241981   1.662   6.997   0.215
14013TIP3    H141982   1.679   7.069   0.276
14013TIP3    H241983   1.654   7.039   0.130
14014TIP3   OH241984   0.635   1.705   4.564
14014TIP3    H141985   0.592   1.761   4.498
14014TIP3    H241986   0.674   1.767   4.625
14015TIP3   OH241987   2.269   5.273   2.157
14015TIP3    H141988   2.299   5.358   2.188
14015TIP3    H241989   2.340   5.212   2.180
14016TIP3   OH241990   7.862   2.016   3.286
14016TIP3    H141991   7.850   1.997   3.193
14016TIP3    H241992   7.794   2.080   3.307
14017TIP3   OH241993   3.116   2.619   6.171
14017TIP3    H141994   3.188   2.557   6.166
14017TIP3    H241995   3.069   2.609   6.089
14018TIP3   OH241996   0.838   0.640   6.240
14018TIP3    H141997   0.756   0.681   6.211
14018TIP3    H241998   0.821   0.615   6.331
14019TIP3   OH241999   6.663   4.065   5.123
14019TIP3    H142000   6.611   4.092   5.198
14019TIP3    H242001   6.616   3.990   5.087
14020TIP3   OH242002   5.887   0.293   5.867
14020TIP3    H142003   5.847   0.379   5.851
14020TIP3    H242004   5.906   0.293   5.961
14021TIP3   OH242005   8.185   2.533   4.750
14021TIP3    H142006   8.217   2.542   4.660
14021TIP3    H242007   8.089   2.537   4.741
14022TIP3   OH242008   2.083   5.423   3.908
14022TIP3    H142009   2.167   5.380   3.919
14022TIP3    H242010   2.018   5.354   3.920
14023TIP3   OH242011   2.319   7.460   1.158
14023TIP3    H142012   2.284   7.407   1.086
14023TIP3    H242013   2.289   7.416   1.237
14024TIP3   OH242014   6.088   6.872   4.213
14024TIP3    H142015   6.066   6.792   4.166
14024TIP3    H242016   6.116   6.933   4.145
14025TIP3   OH242017   5.973   1.051   1.835
14025TIP3    H142018   5.909   1.112   1.870
14025TIP3    H242019   5.986   0.987   1.905
14026TIP3   OH242020   7.846   5.142   2.977
14026TIP3    H142021   7.757   5.175   2.966
14026TIP3    H242022   7.876   5.123   2.888
14027TIP3   OH242023   0.598   2.150   5.292
14027TIP3    H142024   0.647   2.176   5.370
14027TIP3    H242025   0.542   2.225   5.273
14028TIP3   OH242026   7.543   4.473   2.365
14028TIP3    H142027   7.575   4.385   2.381
14028TIP3    H242028   7.621   4.528   2.368
14029TIP3   OH242029   6.969   0.238   0.518
14029TIP3    H142030   6.884   0.220   0.479
14029TIP3    H242031   6.950   0.252   0.611
14030TIP3   OH242032   5.731   4.702   5.420
14030TIP3    H142033   5.742   4.777   5.362
14030TIP3    H242034   5.808   4.703   5.476
14031TIP3   OH242035   5.307   6.881   1.511
14031TIP3    H142036   5.300   6.953   1.574
14031TIP3    H242037   5.401   6.869   1.499
14032TIP3   OH242038   4.889   7.694   6.703
14032TIP3    H142039   4.979   7.660   6.700
14032TIP3    H242040   4.881   7.731   6.791
14033TIP3   OH242041   5.003   1.919   4.453
14033TIP3    H142042   4.991   1.920   4.548
14033TIP3    H242043   4.934   1.862   4.420
14034TIP3   OH242044   6.168   7.645   1.314
14034TIP3    H142045   6.126   7.666   1.397
14034TIP3    H242046   6.137   7.556   1.294
14035TIP3   OH242047   0.754   6.906   0.636
14035TIP3    H142048   0.845   6.906   0.663
14035TIP3    H242049   0.754   6.863   0.550
14036TIP3   OH242050   3.913   2.028   6.455
14036TIP3    H142051   3.996   1.987   6.430
14036TIP3    H242052   3.927   2.121   6.439
14037TIP3   OH242053   3.306   1.314   3.211
14037TIP3    H142054   3.333   1.245   3.150
14037TIP3    H242055   3.237   1.274   3.263
14038TIP3   OH242056   3.928   1.904   2.271
14038TIP3    H142057   3.959   1.866   2.353
14038TIP3    H242058   4.004   1.904   2.214
14039TIP3   OH242059   3.892   6.260   2.188
14039TIP3    H142060   3.890   6.353   2.169
14039TIP3    H242061   3.819   6.247   2.249
14040TIP3   OH242062   8.236   1.658   5.843
14040TIP3    H142063   8.223   1.717   5.769
14040TIP3    H242064   8.244   1.715   5.919
14041TIP3   OH242065   3.665   0.566   3.509
14041TIP3    H142066   3.608   0.596   3.438
14041TIP3    H242067   3.637   0.618   3.585
14042TIP3   OH242068   2.991   5.220   1.782
14042TIP3    H142069   3.052   5.153   1.811
14042TIP3    H242070   2.966   5.193   1.694
14043TIP3   OH242071   3.915   3.885   4.115
14043TIP3    H142072   3.931   3.972   4.153
14043TIP3    H242073   3.894   3.830   4.191
14044TIP3   OH242074   3.573   5.379   4.291
14044TIP3    H142075   3.622   5.365   4.373
14044TIP3    H242076   3.583   5.472   4.273
14045TIP3   OH242077   5.095   7.539   0.870
14045TIP3    H142078   5.038   7.558   0.794
14045TIP3    H242079   5.073   7.607   0.933
14046TIP3   OH242080   0.772   3.095   4.395
14046TIP3    H142081   0.690   3.046   4.393
14046TIP3    H242082   0.747   3.182   4.426
14047TIP3   OH242083   8.061   5.727   3.745
14047TIP3    H142084   8.154   5.741   3.728
14047TIP3    H242085   8.058   5.655   3.809
14048TIP3   OH242086   3.990   4.128   5.539
14048TIP3    H142087   3.912   4.165   5.498
14048TIP3    H242088   3.972   4.134   5.633
14049TIP3   OH242089   7.341   3.576   1.156
14049TIP3    H142090   7.435   3.569   1.171
14049TIP3    H242091   7.334   3.626   1.074
14050TIP3   OH242092   4.042   6.473   5.719
14050TIP3    H142093   3.986   6.464   5.795
14050TIP3    H242094   4.129   6.491   5.755
14051TIP3   OH242095   7.722   2.658   2.720
14051TIP3    H142096   7.716   2.704   2.803
14051TIP3    H242097   7.806   2.613   2.723
14052TIP3   OH242098   5.009   0.016   1.651
14052TIP3    H142099   5.091   0.065   1.659
14052TIP3    H242100   4.947   0.062   1.707
14053TIP3   OH242101   0.378   6.292   5.296
14053TIP3    H142102   0.345   6.202   5.301
14053TIP3    H242103   0.396   6.316   5.387
14054TIP3   OH242104   7.041   2.559   2.031
14054TIP3    H142105   6.986   2.619   2.080
14054TIP3    H242106   7.007   2.561   1.942
14055TIP3   OH242107   0.920   5.847   4.087
14055TIP3    H142108   1.012   5.822   4.088
14055TIP3    H242109   0.887   5.822   4.174
14056TIP3   OH242110   6.720   1.270   5.933
14056TIP3    H142111   6.701   1.363   5.919
14056TIP3    H242112   6.671   1.248   6.012
14057TIP3   OH242113   4.475   4.578   6.392
14057TIP3    H142114   4.501   4.514   6.326
14057TIP3    H242115   4.380   4.585   6.383
14058TIP3   OH242116   3.356   3.438   6.248
14058TIP3    H142117   3.280   3.495   6.260
14058TIP3    H242118   3.428   3.497   6.227
14059TIP3   OH242119   3.226   1.562   2.908
14059TIP3    H142120   3.279   1.602   2.839
14059TIP3    H242121   3.273   1.583   2.989
14060TIP3   OH242122   3.062   6.074   3.918
14060TIP3    H142123   3.010   6.006   3.962
14060TIP3    H242124   3.091   6.131   3.989
14061TIP3   OH242125   1.779   3.029   2.993
14061TIP3    H142126   1.715   3.061   2.929
14061TIP3    H242127   1.854   3.001   2.941
14062TIP3   OH242128   8.220   6.898   1.675
14062TIP3    H142129   8.155   6.958   1.711
14062TIP3    H242130   8.212   6.909   1.580
14063TIP3   OH242131   0.509   4.670   3.087
14063TIP3    H142132   0.461   4.745   3.052
14063TIP3    H242133   0.499   4.677   3.182
14064TIP3   OH242134   5.002   3.396   0.434
14064TIP3    H142135   5.079   3.452   0.449
14064TIP3    H242136   4.927   3.454   0.449
14065TIP3   OH242137   2.776   3.505   5.845
14065TIP3    H142138   2.687   3.471   5.846
14065TIP3    H242139   2.791   3.532   5.754
14066TIP3   OH242140   4.633   4.648   1.937
14066TIP3    H142141   4.581   4.685   1.865
14066TIP3    H242142   4.714   4.700   1.936
14067TIP3   OH242143   1.916   4.059   5.028
14067TIP3    H142144   1.976   4.125   4.994
14067TIP3    H242145   1.936   4.055   5.122
14068TIP3   OH242146   3.956   7.130   0.970
14068TIP3    H142147   3.966   7.132   1.065
14068TIP3    H242148   4.032   7.082   0.939
14069TIP3   OH242149   2.818   0.632   4.255
14069TIP3    H142150   2.826   0.716   4.210
14069TIP3    H242151   2.853   0.569   4.192
14070TIP3   OH242152   0.184   4.208   4.944
14070TIP3    H142153   0.168   4.295   4.980
14070TIP3    H242154   0.227   4.224   4.860
14071TIP3   OH242155   4.241   2.868   4.777
14071TIP3    H142156   4.327   2.904   4.797
14071TIP3    H242157   4.233   2.878   4.682
14072TIP3   OH242158   1.482   5.687   6.457
14072TIP3    H142159   1.400   5.734   6.467
14072TIP3    H242160   1.502   5.691   6.363
14073TIP3   OH242161   3.871   0.609   4.879
14073TIP3    H142162   3.778   0.629   4.883
14073TIP3    H242163   3.907   0.673   4.818
14074TIP3   OH242164   0.210   4.188   3.872
14074TIP3    H142165   0.124   4.157   3.842
14074TIP3    H242166   0.272   4.145   3.813
14075TIP3   OH242167   3.933   7.517   1.271
14075TIP3    H142168   3.941   7.583   1.340
14075TIP3    H242169   3.914   7.567   1.191
14076TIP3   OH242170   4.925   1.813   0.168
14076TIP3    H142171   4.941   1.826   0.262
14076TIP3    H242172   4.929   1.900   0.130
14077TIP3   OH242173   5.265   0.262   0.284
14077TIP3    H142174   5.291   0.286   0.373
14077TIP3    H242175   5.188   0.316   0.267
14078TIP3   OH242176   2.800   2.853   0.496
14078TIP3    H142177   2.864   2.851   0.425
14078TIP3    H242178   2.768   2.763   0.503
14079TIP3   OH242179   4.012   3.973   6.239
14079TIP3    H142180   3.972   3.898   6.283
14079TIP3    H242181   3.942   4.036   6.229
14080TIP3   OH242182   1.304   4.046   4.696
14080TIP3    H142183   1.347   4.072   4.614
14080TIP3    H242184   1.268   4.128   4.731
14081TIP3   OH242185   0.652   1.838   2.824
14081TIP3    H142186   0.663   1.775   2.895
14081TIP3    H242187   0.581   1.895   2.853
14082TIP3   OH242188   0.525   6.952   2.603
14082TIP3    H142189   0.601   7.008   2.622
14082TIP3    H242190   0.459   7.011   2.569
14083TIP3   OH242191   8.266   4.839   3.682
14083TIP3    H142192   8.346   4.892   3.673
14083TIP3    H242193   8.268   4.779   3.608
14084TIP3   OH242194   4.996   6.716   6.544
14084TIP3    H142195   4.965   6.798   6.583
14084TIP3    H242196   4.960   6.648   6.600
14085TIP3   OH242197   3.201   1.377   1.518
14085TIP3    H142198   3.266   1.376   1.447
14085TIP3    H242199   3.252   1.383   1.598
14086TIP3   OH242200   0.037   7.110   2.447
14086TIP3    H142201   0.068   7.200   2.439
14086TIP3    H242202  -0.023   7.098   2.374
14087TIP3   OH242203   8.193   6.339   5.379
14087TIP3    H142204   8.215   6.273   5.444
14087TIP3    H242205   8.273   6.390   5.367
14088TIP3   OH242206   5.432   2.567   5.721
14088TIP3    H142207   5.489   2.579   5.797
14088TIP3    H242208   5.368   2.638   5.728
14089TIP3   OH242209   7.637   5.409   3.851
14089TIP3    H142210   7.713   5.351   3.856
14089TIP3    H242211   7.591   5.396   3.934
14090TIP3   OH242212   3.149   3.367   1.885
14090TIP3    H142213   3.158   3.458   1.858
14090TIP3    H242214   3.093   3.328   1.817
14091TIP3   OH242215   5.350   4.027   5.384
14091TIP3    H142216   5.436   4.069   5.383
14091TIP3    H242217   5.290   4.094   5.353
14092TIP3   OH242218   7.296   3.825   0.354
14092TIP3    H142219   7.281   3.754   0.291
14092TIP3    H242220   7.355   3.787   0.419
14093TIP3   OH242221   3.677   4.228   6.046
14093TIP3    H142222   3.744   4.296   6.037
14093TIP3    H242223   3.710   4.172   6.116
14094TIP3   OH242224   4.262   2.805   2.877
14094TIP3    H142225   4.208   2.828   2.802
14094TIP3    H242226   4.217   2.845   2.952
14095TIP3   OH242227   5.481   5.779   3.722
14095TIP3    H142228   5.558   5.818   3.765
14095TIP3    H242229   5.497   5.792   3.628
14096TIP3   OH242230   5.145   2.339   3.375
14096TIP3    H142231   5.230   2.316   3.337
14096TIP3    H242232   5.139   2.285   3.454
14097TIP3   OH242233   7.420   0.845   0.417
14097TIP3    H142234   7.396   0.827   0.326
14097TIP3    H242235   7.510   0.813   0.425
14098TIP3   OH242236   0.291   2.847   6.672
14098TIP3    H142237   0.206   2.820   6.636
14098TIP3    H242238   0.338   2.765   6.687
14099TIP3   OH242239   1.314   2.286   3.260
14099TIP3    H142240   1.329   2.362   3.316
14099TIP3    H242241   1.273   2.221   3.319
14100TIP3   OH242242   3.597   2.646   6.518
14100TIP3    H142243   3.524   2.690   6.561
14100TIP3    H242244   3.664   2.714   6.510
14101TIP3   OH242245   1.456   1.475   6.546
14101TIP3    H142246   1.425   1.386   6.560
14101TIP3    H242247   1.380   1.530   6.561
14102TIP3   OH242248   2.224   6.401   5.755
14102TIP3    H142249   2.287   6.331   5.772
14102TIP3    H242250   2.210   6.442   5.840
14103TIP3   OH242251   7.125   5.212   3.467
14103TIP3    H142252   7.184   5.179   3.535
14103TIP3    H242253   7.131   5.147   3.396
14104TIP3   OH242254   6.691   5.005   4.214
14104TIP3    H142255   6.601   5.036   4.202
14104TIP3    H242256   6.681   4.916   4.247
14105TIP3   OH242257   4.618   1.083   2.161
14105TIP3    H142258   4.604   1.175   2.136
14105TIP3    H242259   4.640   1.087   2.254
14106TIP3   OH242260   1.392   4.504   5.193
14106TIP3    H142261   1.461   4.449   5.156
14106TIP3    H242262   1.419   4.594   5.173
14107TIP3   OH242263   4.765   6.246   4.995
14107TIP3    H142264   4.718   6.292   4.925
14107TIP3    H242265   4.701   6.237   5.065
14108TIP3   OH242266   3.322   5.663   1.646
14108TIP3    H142267   3.247   5.635   1.697
14108TIP3    H242268   3.343   5.588   1.590
14109TIP3   OH242269   1.387  -0.012   5.560
14109TIP3    H142270   1.310   0.046   5.563
14109TIP3    H242271   1.426  -0.003   5.647
14110TIP3   OH242272   4.482   5.569   0.865
14110TIP3    H142273   4.436   5.648   0.836
14110TIP3    H242274   4.493   5.518   0.785
14111TIP3   OH242275   5.334   1.784   0.966
14111TIP3    H142276   5.413   1.731   0.971
14111TIP3    H242277   5.322   1.800   0.872
14112TIP3   OH242278   4.268   6.669   4.330
14112TIP3    H142279   4.347   6.689   4.381
14112TIP3    H242280   4.287   6.703   4.243
14113TIP3   OH242281   3.853   7.453   3.454
14113TIP3    H142282   3.936   7.410   3.432
14113TIP3    H242283   3.786   7.395   3.417
14114TIP3   OH242284   4.448   1.036   2.757
14114TIP3    H142285   4.452   1.035   2.853
14114TIP3    H242286   4.510   1.104   2.732
14115TIP3   OH242287   2.726   4.175   0.185
14115TIP3    H142288   2.777   4.094   0.183
14115TIP3    H242289   2.775   4.233   0.243
14116TIP3   OH242290   2.553   6.225   1.563
14116TIP3    H142291   2.469   6.181   1.554
14116TIP3    H242292   2.538   6.313   1.526
14117TIP3   OH242293   2.632   1.515   4.338
14117TIP3    H142294   2.592   1.593   4.298
14117TIP3    H242295   2.717   1.546   4.369
14118TIP3   OH242296   7.447   7.333   1.085
14118TIP3    H142297   7.371   7.307   1.138
14118TIP3    H242298   7.409   7.384   1.013
14119TIP3   OH242299  -0.017   3.576   4.505
14119TIP3    H142300  -0.079   3.645   4.528
14119TIP3    H242301  -0.014   3.578   4.409
14120TIP3   OH242302   8.251   0.610   3.433
14120TIP3    H142303   8.302   0.543   3.479
14120TIP3    H242304   8.309   0.686   3.429
14121TIP3   OH242305   3.643   2.269   4.845
14121TIP3    H142306   3.670   2.318   4.767
14121TIP3    H242307   3.724   2.234   4.881
14122TIP3   OH242308   6.525   6.222   6.253
14122TIP3    H142309   6.497   6.194   6.340
14122TIP3    H242310   6.463   6.291   6.230
14123TIP3   OH242311   5.889   1.769   6.753
14123TIP3    H142312   5.922   1.800   6.838
14123TIP3    H242313   5.867   1.677   6.769
14124TIP3   OH242314   6.021   1.030   5.748
14124TIP3    H142315   6.011   1.023   5.843
14124TIP3    H242316   6.113   1.007   5.732
14125TIP3   OH242317   6.991   5.476   4.827
14125TIP3    H142318   7.035   5.415   4.767
14125TIP3    H242319   7.051   5.549   4.836
14126TIP3   OH242320   2.765   5.670   5.886
14126TIP3    H142321   2.775   5.703   5.797
14126TIP3    H242322   2.749   5.749   5.939
14127TIP3   OH242323   5.129   6.064   0.646
14127TIP3    H142324   5.057   6.007   0.672
14127TIP3    H242325   5.190   6.006   0.599
14128TIP3   OH242326   6.869   1.952   0.622
14128TIP3    H142327   6.837   2.009   0.552
14128TIP3    H242328   6.931   1.893   0.580
14129TIP3   OH242329   7.249   4.958   1.909
14129TIP3    H142330   7.263   4.969   1.815
14129TIP3    H242331   7.279   4.869   1.927
14130TIP3   OH242332   5.156   3.918   5.925
14130TIP3    H142333   5.176   3.964   5.844
14130TIP3    H242334   5.215   3.842   5.924
14131TIP3   OH242335   3.197   7.551   0.404
14131TIP3    H142336   3.134   7.524   0.338
14131TIP3    H242337   3.218   7.642   0.382
14132TIP3   OH242338   7.183   3.371   6.527
14132TIP3    H142339   7.235   3.375   6.447
14132TIP3    H242340   7.216   3.443   6.581
14133TIP3   OH242341   0.629   0.566   5.374
14133TIP3    H142342   0.576   0.577   5.453
14133TIP3    H242343   0.598   0.484   5.336
14134TIP3   OH242344   3.118   5.468   1.739
14134TIP3    H142345   3.068   5.386   1.748
14134TIP3    H242346   3.106   5.511   1.824
14135TIP3   OH242347   4.437   3.715   4.103
14135TIP3    H142348   4.366   3.775   4.081
14135TIP3    H242349   4.516   3.770   4.105
14136TIP3   OH242350   0.567   5.125   6.744
14136TIP3    H142351   0.517   5.045   6.757
14136TIP3    H242352   0.624   5.105   6.669
14137TIP3   OH242353   7.277   4.662   5.584
14137TIP3    H142354   7.280   4.584   5.528
14137TIP3    H242355   7.237   4.631   5.665
14138TIP3   OH242356   6.719   4.295   2.054
14138TIP3    H142357   6.813   4.303   2.044
14138TIP3    H242358   6.688   4.383   2.073
14139TIP3   OH242359   0.584   5.492   4.368
14139TIP3    H142360   0.601   5.473   4.460
14139TIP3    H242361   0.498   5.454   4.351
14140TIP3   OH242362   5.145   7.790   6.131
14140TIP3    H142363   5.211   7.793   6.062
14140TIP3    H242364   5.085   7.721   6.102
14141TIP3   OH242365   7.986   6.968   0.279
14141TIP3    H142366   8.066   7.019   0.269
14141TIP3    H242367   7.946   6.970   0.192
14142TIP3   OH242368   2.256   7.412   1.869
14142TIP3    H142369   2.298   7.466   1.936
14142TIP3    H242370   2.315   7.415   1.794
14143TIP3   OH242371   0.651   7.414   3.245
14143TIP3    H142372   0.705   7.453   3.176
14143TIP3    H242373   0.687   7.448   3.327
14144TIP3   OH242374   0.416   3.969   2.506
14144TIP3    H142375   0.374   3.891   2.543
14144TIP3    H242376   0.346   4.034   2.505
14145TIP3   OH242377   4.871   6.809   5.591
14145TIP3    H142378   4.807   6.779   5.526
14145TIP3    H242379   4.866   6.904   5.588
14146TIP3   OH242380   3.620   0.014   3.130
14146TIP3    H142381   3.579   0.084   3.180
14146TIP3    H242382   3.702   0.052   3.097
14147TIP3   OH242383   0.855   6.592   0.882
14147TIP3    H142384   0.799   6.538   0.827
14147TIP3    H242385   0.941   6.586   0.842
14148TIP3   OH242386   4.362   5.370   5.750
14148TIP3    H142387   4.414   5.444   5.782
14148TIP3    H242388   4.379   5.368   5.655
14149TIP3   OH242389   3.080   3.729   4.825
14149TIP3    H142390   3.085   3.756   4.733
14149TIP3    H242391   2.994   3.686   4.833
14150TIP3   OH242392   6.780   1.048   2.592
14150TIP3    H142393   6.697   1.058   2.639
14150TIP3    H242394   6.762   0.983   2.525
14151TIP3   OH242395   2.934   5.455   0.843
14151TIP3    H142396   2.973   5.452   0.930
14151TIP3    H242397   2.987   5.394   0.791
14152TIP3   OH242398   2.598   0.925   6.713
14152TIP3    H142399   2.595   0.871   6.634
14152TIP3    H242400   2.515   0.909   6.756
14153TIP3   OH242401   7.144   6.439   5.352
14153TIP3    H142402   7.123   6.526   5.385
14153TIP3    H242403   7.226   6.450   5.304
14154TIP3   OH242404   6.575   0.288   5.909
14154TIP3    H142405   6.507   0.312   5.846
14154TIP3    H242406   6.656   0.323   5.872
14155TIP3   OH242407   6.578   6.597   4.607
14155TIP3    H142408   6.572   6.503   4.588
14155TIP3    H242409   6.574   6.602   4.703
14156TIP3   OH242410   2.966   7.521   4.096
14156TIP3    H142411   3.019   7.586   4.050
14156TIP3    H242412   2.943   7.457   4.030
14157TIP3   OH242413   4.885   7.023   0.555
14157TIP3    H142414   4.813   6.969   0.521
14157TIP3    H242415   4.928   7.058   0.477
14158TIP3   OH242416   2.586   0.021   1.367
14158TIP3    H142417   2.491   0.018   1.368
14158TIP3    H242418   2.613  -0.060   1.409
14159TIP3   OH242419   2.019   3.712   1.475
14159TIP3    H142420   2.065   3.760   1.543
14159TIP3    H242421   2.015   3.773   1.401
14160TIP3   OH242422   5.453   6.544   4.486
14160TIP3    H142423   5.360   6.523   4.487
14160TIP3    H242424   5.496   6.462   4.463
14161TIP3   OH242425   4.924   1.143   1.192
14161TIP3    H142426   5.012   1.107   1.184
14161TIP3    H242427   4.938   1.237   1.206
14162TIP3   OH242428   1.969   5.374   3.341
14162TIP3    H142429   1.920   5.404   3.417
14162TIP3    H242430   1.994   5.454   3.295
14163TIP3   OH242431   7.333   0.920   4.729
14163TIP3    H142432   7.348   0.998   4.783
14163TIP3    H242433   7.269   0.948   4.663
14164TIP3   OH242434   4.926   3.554   2.623
14164TIP3    H142435   4.941   3.548   2.529
14164TIP3    H242436   4.977   3.482   2.660
14165TIP3   OH242437   0.983   6.198   2.807
14165TIP3    H142438   0.930   6.120   2.824
14165TIP3    H242439   0.962   6.258   2.878
14166TIP3   OH242440   1.636   5.123   3.848
14166TIP3    H142441   1.654   5.197   3.906
14166TIP3    H242442   1.663   5.153   3.761
14167TIP3   OH242443   0.960   6.546   3.165
14167TIP3    H142444   0.953   6.632   3.207
14167TIP3    H242445   1.052   6.521   3.178
14168TIP3   OH242446   4.868   6.247   5.372
14168TIP3    H142447   4.855   6.337   5.400
14168TIP3    H242448   4.925   6.254   5.295
14169TIP3   OH242449   5.979   5.714   2.642
14169TIP3    H142450   5.959   5.804   2.617
14169TIP3    H242451   6.074   5.707   2.635
14170TIP3   OH242452   5.550   1.782   3.806
14170TIP3    H142453   5.645   1.771   3.814
14170TIP3    H242454   5.540   1.854   3.744
14171TIP3   OH242455   3.841   4.381   4.174
14171TIP3    H142456   3.903   4.446   4.141
14171TIP3    H242457   3.876   4.358   4.260
14172TIP3   OH242458   7.474   5.422   1.507
14172TIP3    H142459   7.400   5.466   1.549
14172TIP3    H242460   7.435   5.347   1.462
14173TIP3   OH242461   7.395   0.353   3.278
14173TIP3    H142462   7.378   0.417   3.347
14173TIP3    H242463   7.422   0.406   3.203
14174TIP3   OH242464   3.035   5.167   6.531
14174TIP3    H142465   3.089   5.246   6.543
14174TIP3    H242466   3.089   5.110   6.476
14175TIP3   OH242467   4.770   2.332   6.222
14175TIP3    H142468   4.783   2.239   6.241
14175TIP3    H242469   4.845   2.376   6.261
14176TIP3   OH242470   5.676   3.089   6.222
14176TIP3    H142471   5.595   3.127   6.256
14176TIP3    H242472   5.649   3.005   6.185
14177TIP3   OH242473   0.314   6.019   5.238
14177TIP3    H142474   0.325   5.966   5.317
14177TIP3    H242475   0.221   6.014   5.218
14178TIP3   OH242476   7.546   7.557   5.136
14178TIP3    H142477   7.454   7.585   5.145
14178TIP3    H242478   7.540   7.464   5.115
14179TIP3   OH242479   5.078   7.259   0.575
14179TIP3    H142480   5.037   7.341   0.549
14179TIP3    H242481   5.047   7.195   0.512
14180TIP3   OH242482   6.663   3.645   0.374
14180TIP3    H142483   6.739   3.702   0.387
14180TIP3    H242484   6.643   3.612   0.462
14181TIP3   OH242485   5.355   1.444   0.834
14181TIP3    H142486   5.302   1.410   0.906
14181TIP3    H242487   5.428   1.488   0.876
14182TIP3   OH242488   5.874   4.718   4.522
14182TIP3    H142489   5.862   4.810   4.544
14182TIP3    H242490   5.919   4.681   4.599
14183TIP3   OH242491   3.624   0.150   5.502
14183TIP3    H142492   3.599   0.157   5.594
14183TIP3    H242493   3.691   0.081   5.500
14184TIP3   OH242494   4.703   4.976   5.446
14184TIP3    H142495   4.681   4.984   5.538
14184TIP3    H242496   4.618   4.976   5.401
14185TIP3   OH242497   4.385   4.278   6.015
14185TIP3    H142498   4.380   4.222   5.937
14185TIP3    H242499   4.473   4.316   6.011
14186TIP3   OH242500   8.134   3.638   0.075
14186TIP3    H142501   8.210   3.581   0.080
14186TIP3    H242502   8.096   3.620  -0.011
14187TIP3   OH242503   2.950   0.947   3.370
14187TIP3    H142504   2.860   0.939   3.400
14187TIP3    H242505   2.958   0.882   3.300
14188TIP3   OH242506   1.574   2.270   3.841
14188TIP3    H142507   1.622   2.232   3.768
14188TIP3    H242508   1.642   2.310   3.896
14189TIP3   OH242509   0.365   6.834   2.050
14189TIP3    H142510   0.389   6.885   2.127
14189TIP3    H242511   0.270   6.843   2.044
14190TIP3   OH242512   2.642   1.747   5.063
14190TIP3    H142513   2.577   1.810   5.031
14190TIP3    H242514   2.720   1.765   5.011
14191TIP3   OH242515   8.250   0.335   1.981
14191TIP3    H142516   8.203   0.251   1.975
14191TIP3    H242517   8.191   0.398   1.939
14192TIP3   OH242518   7.364   5.180   2.499
14192TIP3    H142519   7.321   5.265   2.492
14192TIP3    H242520   7.451   5.200   2.534
14193TIP3   OH242521   5.089   1.972   6.248
14193TIP3    H142522   5.086   1.880   6.273
14193TIP3    H242523   5.035   2.017   6.313
14194TIP3   OH242524   1.302   4.386   5.877
14194TIP3    H142525   1.266   4.475   5.882
14194TIP3    H242526   1.380   4.395   5.822
14195TIP3   OH242527   0.125   1.459   5.849
14195TIP3    H142528   0.061   1.523   5.879
14195TIP3    H242529   0.106   1.447   5.756
14196TIP3   OH242530   5.597   4.047   2.203
14196TIP3    H142531   5.586   3.973   2.263
14196TIP3    H242532   5.574   4.011   2.117
14197TIP3   OH242533   3.603   3.993   5.192
14197TIP3    H142534   3.516   4.031   5.174
14197TIP3    H242535   3.612   3.923   5.128
14198TIP3   OH242536   0.264   7.647   5.051
14198TIP3    H142537   0.209   7.658   5.128
14198TIP3    H242538   0.354   7.652   5.084
14199TIP3   OH242539   1.045   6.720   0.135
14199TIP3    H142540   1.043   6.726   0.231
14199TIP3    H242541   0.982   6.785   0.106
14200TIP3   OH242542   3.798   3.760   1.130
14200TIP3    H142543   3.818   3.778   1.038
14200TIP3    H242544   3.705   3.736   1.129
14201TIP3   OH242545   5.757   5.526   2.092
14201TIP3    H142546   5.841   5.497   2.127
14201TIP3    H242547   5.770   5.528   1.997
14202TIP3   OH242548   5.740   3.012   3.943
14202TIP3    H142549   5.826   3.043   3.973
14202TIP3    H242550   5.690   2.997   4.023
14203TIP3   OH242551   6.242   0.467   5.619
14203TIP3    H142552   6.312   0.468   5.553
14203TIP3    H242553   6.289   0.477   5.702
14204TIP3   OH242554   1.858   5.418   3.680
14204TIP3    H142555   1.875   5.505   3.715
14204TIP3    H242556   1.944   5.377   3.672
14205TIP3   OH242557   0.140   6.474   5.340
14205TIP3    H142558   0.211   6.496   5.400
14205TIP3    H242559   0.171   6.397   5.292
14206TIP3   OH242560   0.395   2.191   3.614
14206TIP3    H142561   0.407   2.286   3.614
14206TIP3    H242562   0.394   2.166   3.522
14207TIP3   OH242563   2.912   3.890   1.046
14207TIP3    H142564   2.937   3.958   0.983
14207TIP3    H242565   2.944   3.922   1.130
14208TIP3   OH242566   4.476   1.590   2.594
14208TIP3    H142567   4.455   1.678   2.561
14208TIP3    H242568   4.450   1.593   2.686
14209TIP3   OH242569   3.226   0.490   4.660
14209TIP3    H142570   3.234   0.581   4.690
14209TIP3    H242571   3.158   0.493   4.592
14210TIP3   OH242572   2.215   2.970   0.314
14210TIP3    H142573   2.297   3.002   0.353
14210TIP3    H242574   2.155   2.963   0.388
14211TIP3   OH242575   2.308   5.511   0.389
14211TIP3    H142576   2.217   5.480   0.392
14211TIP3    H242577   2.320   5.541   0.299
14212TIP3   OH242578   4.340   1.286   0.993
14212TIP3    H142579   4.344   1.367   1.045
14212TIP3    H242580   4.416   1.292   0.935
14213TIP3   OH242581   5.286   1.648   3.240
14213TIP3    H142582   5.331   1.676   3.319
14213TIP3    H242583   5.345   1.585   3.200
14214TIP3   OH242584   6.704   3.636   4.071
14214TIP3    H142585   6.625   3.675   4.035
14214TIP3    H242586   6.775   3.676   4.020
14215TIP3   OH242587   6.220   6.608   2.845
14215TIP3    H142588   6.170   6.684   2.874
14215TIP3    H242589   6.254   6.633   2.759
14216TIP3   OH242590   5.389   4.847   3.315
14216TIP3    H142591   5.455   4.777   3.318
14216TIP3    H242592   5.373   4.860   3.222
14217TIP3   OH242593   3.804   2.567   2.919
14217TIP3    H142594   3.734   2.627   2.895
14217TIP3    H242595   3.815   2.580   3.013
14218TIP3   OH242596   7.939   6.357   0.543
14218TIP3    H142597   8.007   6.407   0.589
14218TIP3    H242598   7.864   6.416   0.542
14219TIP3   OH242599   7.996   7.054   4.703
14219TIP3    H142600   8.090   7.039   4.711
14219TIP3    H242601   7.961   6.972   4.670
14220TIP3   OH242602   3.295   6.135   2.880
14220TIP3    H142603   3.282   6.054   2.929
14220TIP3    H242604   3.312   6.105   2.790
14221TIP3   OH242605   0.041   7.494   1.192
14221TIP3    H142606   0.096   7.465   1.119
14221TIP3    H242607  -0.041   7.521   1.151
14222TIP3   OH242608   7.757   5.030   3.274
14222TIP3    H142609   7.663   5.012   3.276
14222TIP3    H242610   7.764   5.125   3.284
14223TIP3   OH242611   0.057   3.932   4.186
14223TIP3    H142612  -0.039   3.930   4.180
14223TIP3    H242613   0.075   3.919   4.279
14224TIP3   OH242614   5.243   1.917   3.163
14224TIP3    H142615   5.286   1.837   3.190
14224TIP3    H242616   5.304   1.959   3.103
14225TIP3   OH242617   3.086   1.341   5.970
14225TIP3    H142618   3.141   1.337   5.891
14225TIP3    H242619   2.996   1.346   5.936
14226TIP3   OH242620   3.878   2.165   2.659
14226TIP3    H142621   3.958   2.146   2.609
14226TIP3    H242622   3.887   2.257   2.684
14227TIP3   OH242623   3.940   4.342   6.207
14227TIP3    H142624   3.895   4.425   6.196
14227TIP3    H242625   4.018   4.349   6.152
14228TIP3   OH242626   2.259   2.928   6.508
14228TIP3    H142627   2.329   2.896   6.566
14228TIP3    H242628   2.228   2.850   6.463
14229TIP3   OH242629   6.533   5.522   3.982
14229TIP3    H142630   6.516   5.431   3.959
14229TIP3    H242631   6.446   5.558   4.001
14230TIP3   OH242632   3.533   0.646   2.556
14230TIP3    H142633   3.512   0.739   2.561
14230TIP3    H242634   3.480   0.612   2.484
14231TIP3   OH242635   0.019   5.291   1.915
14231TIP3    H142636   0.010   5.304   1.820
14231TIP3    H242637   0.110   5.261   1.926
14232TIP3   OH242638   3.981   5.002   3.155
14232TIP3    H142639   4.047   4.955   3.206
14232TIP3    H242640   4.032   5.056   3.094
14233TIP3   OH242641   3.138   5.784   4.038
14233TIP3    H142642   3.063   5.727   4.055
14233TIP3    H242643   3.141   5.843   4.113
14234TIP3   OH242644   3.867   1.776   4.248
14234TIP3    H142645   3.864   1.763   4.343
14234TIP3    H242646   3.924   1.706   4.216
14235TIP3   OH242647   4.237   7.073   3.359
14235TIP3    H142648   4.218   7.036   3.272
14235TIP3    H242649   4.165   7.042   3.414
14236TIP3   OH242650   1.110   6.900   4.401
14236TIP3    H142651   1.025   6.862   4.424
14236TIP3    H242652   1.172   6.828   4.410
14237TIP3   OH242653   7.308   7.651   5.408
14237TIP3    H142654   7.394   7.613   5.428
14237TIP3    H242655   7.288   7.620   5.320
14238TIP3   OH242656   6.716   3.161   1.227
14238TIP3    H142657   6.708   3.200   1.314
14238TIP3    H242658   6.809   3.140   1.218
14239TIP3   OH242659   1.006   0.095   1.350
14239TIP3    H142660   0.971   0.013   1.316
14239TIP3    H242661   0.944   0.121   1.419
14240TIP3   OH242662   7.789   7.285   2.466
14240TIP3    H142663   7.711   7.313   2.515
14240TIP3    H242664   7.828   7.216   2.520
14241TIP3   OH242665   2.723   5.506   1.777
14241TIP3    H142666   2.689   5.445   1.844
14241TIP3    H242667   2.645   5.535   1.730
14242TIP3   OH242668   0.173   3.839   0.136
14242TIP3    H142669   0.079   3.851   0.127
14242TIP3    H242670   0.184   3.746   0.156
14243TIP3   OH242671   5.482   5.568   4.307
14243TIP3    H142672   5.453   5.607   4.224
14243TIP3    H242673   5.545   5.501   4.281
14244TIP3   OH242674   1.667   5.350   4.632
14244TIP3    H142675   1.746   5.353   4.686
14244TIP3    H242676   1.662   5.259   4.603
14245TIP3   OH242677   4.102   4.175   0.494
14245TIP3    H142678   4.013   4.173   0.531
14245TIP3    H242679   4.159   4.178   0.571
14246TIP3   OH242680   4.754   4.556   0.878
14246TIP3    H142681   4.703   4.599   0.810
14246TIP3    H242682   4.841   4.543   0.838
14247TIP3   OH242683   4.019   5.123   1.883
14247TIP3    H142684   4.027   5.030   1.907
14247TIP3    H242685   4.091   5.166   1.930
14248TIP3   OH242686   3.124   7.185   1.018
14248TIP3    H142687   3.139   7.261   0.962
14248TIP3    H242688   3.093   7.117   0.958
14249TIP3   OH242689   6.502   2.728   6.204
14249TIP3    H142690   6.566   2.673   6.158
14249TIP3    H242691   6.502   2.810   6.154
14250TIP3   OH242692   2.477   1.728   0.636
14250TIP3    H142693   2.440   1.732   0.724
14250TIP3    H242694   2.572   1.739   0.649
14251TIP3   OH242695   8.150   4.045   0.684
14251TIP3    H142696   8.078   4.107   0.694
14251TIP3    H242697   8.123   3.968   0.734
14252TIP3   OH242698   7.626   0.079   2.137
14252TIP3    H142699   7.670   0.052   2.056
14252TIP3    H242700   7.603  -0.004   2.180
14253TIP3   OH242701   1.957   0.873   5.424
14253TIP3    H142702   1.909   0.936   5.479
14253TIP3    H242703   1.992   0.926   5.352
14254TIP3   OH242704   7.144   3.737   6.487
14254TIP3    H142705   7.105   3.691   6.412
14254TIP3    H242706   7.219   3.782   6.451
14255TIP3   OH242707   0.175   3.441   1.090
14255TIP3    H142708   0.142   3.355   1.063
14255TIP3    H242709   0.204   3.483   1.008
14256TIP3   OH242710   6.912   0.743   3.297
14256TIP3    H142711   6.867   0.676   3.348
14256TIP3    H242712   6.922   0.704   3.210
14257TIP3   OH242713   6.824   3.371   0.831
14257TIP3    H142714   6.759   3.302   0.845
14257TIP3    H242715   6.907   3.324   0.820
14258TIP3   OH242716   6.131   5.330   3.404
14258TIP3    H142717   6.182   5.283   3.339
14258TIP3    H242718   6.192   5.396   3.440
14259TIP3   OH242719   2.949   1.229   2.917
14259TIP3    H142720   2.954   1.324   2.907
14259TIP3    H242721   2.890   1.201   2.847
14260TIP3   OH242722   3.576   4.492   4.239
14260TIP3    H142723   3.517   4.417   4.248
14260TIP3    H242724   3.653   4.456   4.194
14261TIP3   OH242725   3.874   1.541   5.725
14261TIP3    H142726   3.826   1.460   5.743
14261TIP3    H242727   3.910   1.529   5.637
14262TIP3   OH242728   3.104   4.348   4.038
14262TIP3    H142729   3.111   4.325   4.131
14262TIP3    H242730   3.086   4.266   3.993
14263TIP3   OH242731   2.199   1.191   0.482
14263TIP3    H142732   2.229   1.136   0.410
14263TIP3    H242733   2.116   1.229   0.451
14264TIP3   OH242734   2.781   3.135   2.962
14264TIP3    H142735   2.698   3.174   2.990
14264TIP3    H242736   2.763   3.099   2.876
14265TIP3   OH242737   2.348   2.571   4.353
14265TIP3    H142738   2.386   2.654   4.381
14265TIP3    H242739   2.345   2.577   4.258
14266TIP3   OH242740   7.080   4.124   4.952
14266TIP3    H142741   7.147   4.095   5.015
14266TIP3    H242742   7.099   4.217   4.939
14267TIP3   OH242743   6.376   2.594   0.176
14267TIP3    H142744   6.324   2.531   0.125
14267TIP3    H242745   6.466   2.567   0.163
14268TIP3   OH242746   3.641   6.102   0.566
14268TIP3    H142747   3.703   6.133   0.501
14268TIP3    H242748   3.682   6.023   0.603
14269TIP3   OH242749   7.685   1.931   1.983
14269TIP3    H142750   7.718   2.016   2.014
14269TIP3    H242751   7.735   1.866   2.033
14270TIP3   OH242752   6.050   6.779   0.646
14270TIP3    H142753   6.117   6.787   0.578
14270TIP3    H242754   6.087   6.823   0.722
14271TIP3   OH242755   5.026   1.849   0.446
14271TIP3    H142756   4.971   1.839   0.524
14271TIP3    H242757   5.004   1.936   0.412
14272TIP3   OH242758   2.696   6.539   4.975
14272TIP3    H142759   2.647   6.617   5.004
14272TIP3    H242760   2.673   6.472   5.039
14273TIP3   OH242761   4.621   0.013   4.444
14273TIP3    H142762   4.617  -0.006   4.351
14273TIP3    H242763   4.641   0.107   4.449
14274TIP3   OH242764   5.254   4.550   4.955
14274TIP3    H142765   5.208   4.522   5.034
14274TIP3    H242766   5.228   4.641   4.943
14275TIP3   OH242767   1.276   3.627   1.845
14275TIP3    H142768   1.218   3.560   1.808
14275TIP3    H242769   1.257   3.706   1.794
14276TIP3   OH242770   2.580   4.595   3.910
14276TIP3    H142771   2.650   4.566   3.969
14276TIP3    H242772   2.626   4.625   3.832
14277TIP3   OH242773   3.713   5.716   2.348
14277TIP3    H142774   3.627   5.735   2.385
14277TIP3    H242775   3.747   5.801   2.320
14278TIP3   OH242776   5.148   3.621   4.143
14278TIP3    H142777   5.152   3.632   4.238
14278TIP3    H242778   5.129   3.709   4.110
14279TIP3   OH242779   5.528   4.814   2.893
14279TIP3    H142780   5.622   4.811   2.908
14279TIP3    H242781   5.501   4.722   2.887
14280TIP3   OH242782   4.524   7.630   6.468
14280TIP3    H142783   4.489   7.684   6.396
14280TIP3    H242784   4.549   7.692   6.535
14281TIP3   OH242785   6.740   2.381   6.229
14281TIP3    H142786   6.770   2.462   6.188
14281TIP3    H242787   6.819   2.344   6.269
14282TIP3   OH242788   1.327   1.554   1.315
14282TIP3    H142789   1.267   1.498   1.266
14282TIP3    H242790   1.365   1.612   1.248
14283TIP3   OH242791   3.786   3.411   3.594
14283TIP3    H142792   3.694   3.414   3.567
14283TIP3    H242793   3.787   3.349   3.668
14284TIP3   OH242794  -0.062   2.849   5.507
14284TIP3    H142795   0.023   2.889   5.489
14284TIP3    H242796  -0.097   2.828   5.420
14285TIP3   OH242797   7.581   2.211   1.291
14285TIP3    H142798   7.505   2.160   1.319
14285TIP3    H242799   7.580   2.289   1.345
14286TIP3   OH242800   4.009   3.913   3.852
14286TIP3    H142801   3.971   3.885   3.935
14286TIP3    H242802   4.048   3.833   3.815
14287TIP3   OH242803   7.460   3.567   5.130
14287TIP3    H142804   7.459   3.658   5.100
14287TIP3    H242805   7.508   3.519   5.063
14288TIP3   OH242806   8.243   0.571   2.919
14288TIP3    H142807   8.332   0.586   2.950
14288TIP3    H242808   8.189   0.571   2.998
14289TIP3   OH242809   1.358   5.633   3.965
14289TIP3    H142810   1.426   5.605   4.026
14289TIP3    H242811   1.299   5.686   4.018
14290TIP3   OH242812   1.144   1.634   4.889
14290TIP3    H142813   1.114   1.669   4.973
14290TIP3    H242814   1.235   1.608   4.904
14291TIP3   OH242815   2.219   3.613   4.091
14291TIP3    H142816   2.261   3.587   4.173
14291TIP3    H242817   2.246   3.704   4.078
14292TIP3   OH242818   4.455   4.938   5.353
14292TIP3    H142819   4.439   4.911   5.443
14292TIP3    H242820   4.367   4.953   5.316
14293TIP3   OH242821   3.129   7.028   3.736
14293TIP3    H142822   3.079   7.098   3.694
14293TIP3    H242823   3.117   7.043   3.830
14294TIP3   OH242824   2.038   6.070   4.181
14294TIP3    H142825   2.031   6.136   4.112
14294TIP3    H242826   2.069   5.991   4.136
14295TIP3   OH242827   3.928   4.570   0.290
14295TIP3    H142828   3.971   4.528   0.365
14295TIP3    H242829   3.978   4.651   0.276
14296TIP3   OH242830   2.457   2.909   2.010
14296TIP3    H142831   2.506   2.848   2.065
14296TIP3    H242832   2.523   2.970   1.978
14297TIP3   OH242833   6.788   2.430   6.635
14297TIP3    H142834   6.850   2.397   6.700
14297TIP3    H242835   6.769   2.520   6.664
14298TIP3   OH242836   4.684   2.729   5.921
14298TIP3    H142837   4.731   2.739   5.838
14298TIP3    H242838   4.744   2.679   5.976
14299TIP3   OH242839   4.596   3.251   3.395
14299TIP3    H142840   4.557   3.172   3.356
14299TIP3    H242841   4.528   3.286   3.452
14300TIP3   OH242842   3.911   0.700   0.448
14300TIP3    H142843   3.941   0.673   0.361
14300TIP3    H242844   3.904   0.618   0.496
14301TIP3   OH242845   0.180   6.122   1.945
14301TIP3    H142846   0.097   6.137   1.989
14301TIP3    H242847   0.166   6.154   1.856
14302TIP3   OH242848   2.408   0.733   0.797
14302TIP3    H142849   2.496   0.709   0.825
14302TIP3    H242850   2.354   0.656   0.818
14303TIP3   OH242851   5.792   6.780   3.511
14303TIP3    H142852   5.766   6.691   3.534
14303TIP3    H242853   5.884   6.771   3.484
14304TIP3   OH242854   5.227   2.605   6.043
14304TIP3    H142855   5.251   2.513   6.031
14304TIP3    H242856   5.231   2.619   6.138
14305TIP3   OH242857   5.413   6.038   2.134
14305TIP3    H142858   5.418   6.131   2.113
14305TIP3    H242859   5.378   6.036   2.223
14306TIP3   OH242860   3.411   3.127   6.228
14306TIP3    H142861   3.373   3.213   6.214
14306TIP3    H242862   3.363   3.069   6.169
14307TIP3   OH242863   2.401   1.071   1.076
14307TIP3    H142864   2.476   1.131   1.082
14307TIP3    H242865   2.397   1.046   0.984
14308TIP3   OH242866   3.721   7.330   0.419
14308TIP3    H142867   3.631   7.321   0.451
14308TIP3    H242868   3.759   7.399   0.472
14309TIP3   OH242869   2.135   3.767   5.059
14309TIP3    H142870   2.212   3.783   5.114
14309TIP3    H242871   2.168   3.713   4.987
14310TIP3   OH242872   4.117   0.519   3.270
14310TIP3    H142873   4.143   0.460   3.199
14310TIP3    H242874   4.192   0.517   3.330
14311TIP3   OH242875   0.685   0.474   4.881
14311TIP3    H142876   0.669   0.389   4.923
14311TIP3    H242877   0.773   0.499   4.911
14312TIP3   OH242878   1.812   6.597   3.753
14312TIP3    H142879   1.808   6.530   3.822
14312TIP3    H242880   1.812   6.546   3.672
14313TIP3   OH242881   7.196   3.441   6.028
14313TIP3    H142882   7.106   3.411   6.014
14313TIP3    H242883   7.210   3.508   5.961
14314TIP3   OH242884   1.490   7.386   0.646
14314TIP3    H142885   1.426   7.414   0.711
14314TIP3    H242886   1.500   7.461   0.588
14315TIP3   OH242887   1.635   6.596   6.348
14315TIP3    H142888   1.603   6.528   6.407
14315TIP3    H242889   1.692   6.549   6.286
14316TIP3   OH242890   5.501   4.203   3.462
14316TIP3    H142891   5.547   4.256   3.397
14316TIP3    H242892   5.489   4.118   3.419
14317TIP3   OH242893   1.852   0.862   3.492
14317TIP3    H142894   1.761   0.842   3.510
14317TIP3    H242895   1.881   0.915   3.567
14318TIP3   OH242896   8.187   3.146   3.061
14318TIP3    H142897   8.277   3.137   3.091
14318TIP3    H242898   8.147   3.061   3.080
14319TIP3   OH242899   3.102   7.378   5.985
14319TIP3    H142900   3.185   7.412   6.019
14319TIP3    H242901   3.127   7.305   5.928
14320TIP3   OH242902   0.928   4.551   1.812
14320TIP3    H142903   0.878   4.545   1.730
14320TIP3    H242904   1.020   4.555   1.784
14321TIP3   OH242905   3.668   3.979   2.402
14321TIP3    H142906   3.693   3.896   2.362
14321TIP3    H242907   3.677   3.965   2.496
14322TIP3   OH242908   0.333   4.615   6.262
14322TIP3    H142909   0.335   4.710   6.250
14322TIP3    H242910   0.245   4.589   6.234
14323TIP3   OH242911   0.997   4.027   3.588
14323TIP3    H142912   0.971   3.936   3.575
14323TIP3    H242913   0.915   4.074   3.605
14324TIP3   OH242914   8.161   4.208   1.468
14324TIP3    H142915   8.099   4.172   1.532
14324TIP3    H242916   8.112   4.207   1.385
14325TIP3   OH242917   5.472   6.461   5.665
14325TIP3    H142918   5.514   6.427   5.586
14325TIP3    H242919   5.459   6.384   5.720
14326TIP3   OH242920   4.483   7.611   0.072
14326TIP3    H142921   4.498   7.604  -0.023
14326TIP3    H242922   4.389   7.596   0.082
14327TIP3   OH242923   7.449   2.905   2.028
14327TIP3    H142924   7.406   2.877   2.109
14327TIP3    H242925   7.384   2.887   1.959
14328TIP3   OH242926   7.444   7.233   5.369
14328TIP3    H142927   7.475   7.292   5.438
14328TIP3    H242928   7.365   7.275   5.336
14329TIP3   OH242929   6.990   6.315   0.287
14329TIP3    H142930   7.032   6.330   0.202
14329TIP3    H242931   7.051   6.258   0.334
14330TIP3   OH242932   6.099   2.750   4.781
14330TIP3    H142933   6.164   2.717   4.719
14330TIP3    H242934   6.081   2.675   4.838
14331TIP3   OH242935   5.841   5.685   2.323
14331TIP3    H142936   5.830   5.669   2.417
14331TIP3    H242937   5.791   5.615   2.280
14332TIP3   OH242938   2.620   3.965   2.573
14332TIP3    H142939   2.628   3.981   2.667
14332TIP3    H242940   2.557   3.893   2.566
14333TIP3   OH242941   6.358   1.069   2.004
14333TIP3    H142942   6.322   1.026   1.927
14333TIP3    H242943   6.382   0.998   2.063
14334TIP3   OH242944   4.592   6.697   3.100
14334TIP3    H142945   4.612   6.790   3.088
14334TIP3    H242946   4.647   6.671   3.174
14335TIP3   OH242947   3.924   0.731   3.731
14335TIP3    H142948   3.997   0.781   3.767
14335TIP3    H242949   3.949   0.713   3.641
14336TIP3   OH242950   0.903   7.507   6.286
14336TIP3    H142951   0.990   7.544   6.300
14336TIP3    H242952   0.861   7.565   6.223
14337TIP3   OH242953   4.366   0.327   1.237
14337TIP3    H142954   4.289   0.311   1.291
14337TIP3    H242955   4.373   0.423   1.234
14338TIP3   OH242956   7.375   7.531   2.925
14338TIP3    H142957   7.438   7.561   2.990
14338TIP3    H242958   7.346   7.611   2.881
14339TIP3   OH242959   6.940   3.062   2.964
14339TIP3    H142960   7.010   3.116   3.000
14339TIP3    H242961   6.985   2.991   2.918
14340TIP3   OH242962   2.882   7.248   4.105
14340TIP3    H142963   2.803   7.300   4.090
14340TIP3    H242964   2.858   7.190   4.178
14341TIP3   OH242965   6.565   0.936   3.772
14341TIP3    H142966   6.558   0.890   3.688
14341TIP3    H242967   6.639   0.894   3.816
14342TIP3   OH242968   6.432   4.785   5.903
14342TIP3    H142969   6.478   4.787   5.987
14342TIP3    H242970   6.486   4.730   5.847
14343TIP3   OH242971   6.389   4.141   4.141
14343TIP3    H142972   6.379   4.048   4.119
14343TIP3    H242973   6.300   4.173   4.154
14344TIP3   OH242974   6.272   5.652   6.436
14344TIP3    H142975   6.220   5.592   6.384
14344TIP3    H242976   6.293   5.724   6.376
14345TIP3   OH242977   6.489   0.736   0.066
14345TIP3    H142978   6.497   0.791   0.144
14345TIP3    H242979   6.410   0.683   0.082
14346TIP3   OH242980   4.014   0.880   6.148
14346TIP3    H142981   4.049   0.881   6.059
14346TIP3    H242982   4.030   0.791   6.180
14347TIP3   OH242983   6.987   5.492   3.945
14347TIP3    H142984   6.945   5.427   3.888
14347TIP3    H242985   6.919   5.518   4.007
14348TIP3   OH242986   3.059   7.702   1.276
14348TIP3    H142987   3.050   7.607   1.283
14348TIP3    H242988   2.969   7.735   1.284
14349TIP3   OH242989   7.810   5.925   1.967
14349TIP3    H142990   7.740   5.910   1.903
14349TIP3    H242991   7.768   5.912   2.052
14350TIP3   OH242992   7.841   1.104   1.729
14350TIP3    H142993   7.813   1.167   1.663
14350TIP3    H242994   7.895   1.154   1.790
14351TIP3   OH242995   3.573   1.356   2.302
14351TIP3    H142996   3.482   1.368   2.275
14351TIP3    H242997   3.618   1.434   2.271
14352TIP3   OH242998   0.835   2.027   5.403
14352TIP3    H142999   0.880   2.001   5.322
14352TIP3    H243000   0.746   1.994   5.392
14353TIP3   OH243001   4.325   0.243   3.282
14353TIP3    H143002   4.266   0.254   3.356
14353TIP3    H243003   4.392   0.310   3.293
14354TIP3   OH243004   0.661   1.636   3.056
14354TIP3    H143005   0.625   1.557   3.096
14354TIP3    H243006   0.610   1.707   3.095
14355TIP3   OH243007   2.636   0.512   2.604
14355TIP3    H143008   2.569   0.571   2.639
14355TIP3    H243009   2.606   0.491   2.515
14356TIP3   OH243010   6.411   1.151   3.828
14356TIP3    H143011   6.432   1.190   3.744
14356TIP3    H243012   6.463   1.070   3.831
14357TIP3   OH243013   2.132   5.529   4.746
14357TIP3    H143014   2.094   5.556   4.830
14357TIP3    H243015   2.217   5.572   4.743
14358TIP3   OH243016   7.222   7.704   4.357
14358TIP3    H143017   7.279   7.760   4.410
14358TIP3    H243018   7.152   7.761   4.327
14359TIP3   OH243019   7.739   0.175   5.577
14359TIP3    H143020   7.686   0.182   5.497
14359TIP3    H243021   7.798   0.102   5.559
14360TIP3   OH243022  -0.013   6.181   4.695
14360TIP3    H143023   0.047   6.153   4.765
14360TIP3    H243024  -0.018   6.276   4.704
14361TIP3   OH243025   2.579   5.749   2.331
14361TIP3    H143026   2.538   5.789   2.408
14361TIP3    H243027   2.647   5.693   2.367
14362TIP3   OH243028   3.738   1.540   0.588
14362TIP3    H143029   3.824   1.567   0.620
14362TIP3    H243030   3.688   1.519   0.667
14363TIP3   OH243031   4.107   7.149   2.440
14363TIP3    H143032   4.184   7.093   2.430
14363TIP3    H243033   4.045   7.096   2.490
14364TIP3   OH243034   5.396   5.925   0.573
14364TIP3    H143035   5.381   5.830   0.576
14364TIP3    H243036   5.412   5.943   0.480
14365TIP3   OH243037   3.788   4.895   5.979
14365TIP3    H143038   3.704   4.890   6.024
14365TIP3    H243039   3.840   4.825   6.020
14366TIP3   OH243040   1.061   6.914   3.195
14366TIP3    H143041   1.065   6.957   3.110
14366TIP3    H243042   1.137   6.856   3.196
14367TIP3   OH243043   2.919   6.368   4.252
14367TIP3    H143044   2.953   6.290   4.297
14367TIP3    H243045   2.852   6.333   4.193
14368TIP3   OH243046   1.685   1.745   0.593
14368TIP3    H143047   1.613   1.688   0.565
14368TIP3    H243048   1.742   1.688   0.644
14369TIP3   OH243049   3.023   0.049   0.059
14369TIP3    H143050   3.070  -0.032   0.042
14369TIP3    H243051   2.947   0.046   0.002
14370TIP3   OH243052   2.791   2.713   0.769
14370TIP3    H143053   2.839   2.764   0.704
14370TIP3    H243054   2.724   2.667   0.717
14371TIP3   OH243055   2.578   6.843   3.609
14371TIP3    H143056   2.662   6.886   3.623
14371TIP3    H243057   2.540   6.834   3.696
14372TIP3   OH243058   3.538   0.966   5.589
14372TIP3    H143059   3.455   0.920   5.588
14372TIP3    H243060   3.574   0.949   5.676
14373TIP3   OH243061   8.140   7.092   4.324
14373TIP3    H143062   8.165   7.143   4.247
14373TIP3    H243063   8.109   7.157   4.387
14374TIP3   OH243064   5.241   3.305   3.234
14374TIP3    H143065   5.302   3.341   3.170
14374TIP3    H243066   5.296   3.279   3.308
14375TIP3   OH243067   4.305   0.043   4.468
14375TIP3    H143068   4.349  -0.040   4.447
14375TIP3    H243069   4.338   0.105   4.403
14376TIP3   OH243070   5.379   0.807   1.050
14376TIP3    H143071   5.415   0.887   1.012
14376TIP3    H243072   5.413   0.737   0.995
14377TIP3   OH243073   7.846   4.382   2.841
14377TIP3    H143074   7.833   4.450   2.775
14377TIP3    H243075   7.856   4.430   2.923
14378TIP3   OH243076   2.429   3.654   3.358
14378TIP3    H143077   2.375   3.728   3.332
14378TIP3    H243078   2.461   3.677   3.446
14379TIP3   OH243079   4.866   1.247   0.448
14379TIP3    H143080   4.819   1.167   0.423
14379TIP3    H243081   4.944   1.215   0.493
14380TIP3   OH243082   1.663   3.926   2.737
14380TIP3    H143083   1.741   3.895   2.783
14380TIP3    H243084   1.697   3.972   2.660
14381TIP3   OH243085   5.535   2.484   2.893
14381TIP3    H143086   5.617   2.437   2.909
14381TIP3    H243087   5.531   2.493   2.798
14382TIP3   OH243088   7.062   5.918   4.510
14382TIP3    H143089   7.011   5.851   4.556
14382TIP3    H243090   7.114   5.869   4.447
14383TIP3   OH243091   0.177   3.159   2.895
14383TIP3    H143092   0.159   3.065   2.895
14383TIP3    H243093   0.092   3.200   2.877
14384TIP3   OH243094   0.238   2.348   6.751
14384TIP3    H143095   0.156   2.367   6.796
14384TIP3    H243096   0.214   2.333   6.660
14385TIP3   OH243097   2.236   5.956   5.439
14385TIP3    H143098   2.228   6.051   5.442
14385TIP3    H243099   2.206   5.931   5.352
14386TIP3   OH243100   1.838   5.527   1.006
14386TIP3    H143101   1.914   5.584   1.000
14386TIP3    H243102   1.796   5.550   1.089
14387TIP3   OH243103   1.798   5.492   1.351
14387TIP3    H143104   1.758   5.431   1.413
14387TIP3    H243105   1.730   5.556   1.332
14388TIP3   OH243106   0.419   2.075   0.766
14388TIP3    H143107   0.366   2.138   0.815
14388TIP3    H243108   0.466   2.127   0.702
14389TIP3   OH243109   6.355   7.025   3.673
14389TIP3    H143110   6.291   7.057   3.609
14389TIP3    H243111   6.321   7.054   3.757
14390TIP3   OH243112   7.456   6.791   2.755
14390TIP3    H143113   7.483   6.866   2.808
14390TIP3    H243114   7.518   6.789   2.683
14391TIP3   OH243115   6.626   3.191   0.045
14391TIP3    H143116   6.631   3.243  -0.036
14391TIP3    H243117   6.644   3.254   0.114
14392TIP3   OH243118   2.982   7.498   0.710
14392TIP3    H143119   2.940   7.499   0.624
14392TIP3    H243120   2.931   7.435   0.761
14393TIP3   OH243121   2.095   3.613   2.864
14393TIP3    H143122   2.184   3.629   2.895
14393TIP3    H243123   2.074   3.525   2.895
14394TIP3   OH243124   1.752   7.668   6.121
14394TIP3    H143125   1.695   7.593   6.139
14394TIP3    H243126   1.833   7.648   6.166
14395TIP3   OH243127   4.018   7.458   0.890
14395TIP3    H143128   4.040   7.549   0.869
14395TIP3    H243129   4.052   7.445   0.979
14396TIP3   OH243130   0.250   2.435   5.941
14396TIP3    H143131   0.169   2.397   5.909
14396TIP3    H243132   0.255   2.521   5.899
14397TIP3   OH243133   3.376   1.817   1.402
14397TIP3    H143134   3.332   1.895   1.436
14397TIP3    H243135   3.420   1.780   1.479
14398TIP3   OH243136   1.609   7.693   0.044
14398TIP3    H143137   1.592   7.599   0.046
14398TIP3    H243138   1.550   7.730   0.110
14399TIP3   OH243139   3.821   5.545   0.412
14399TIP3    H143140   3.788   5.551   0.322
14399TIP3    H243141   3.750   5.580   0.466
14400TIP3   OH243142   0.216   3.798   6.790
14400TIP3    H143143   0.288   3.844   6.748
14400TIP3    H243144   0.200   3.722   6.735
14401TIP3   OH243145   7.319   3.264   4.164
14401TIP3    H143146   7.226   3.284   4.169
14401TIP3    H243147   7.363   3.343   4.195
14402TIP3   OH243148   0.289   1.966   4.942
14402TIP3    H143149   0.272   2.042   4.885
14402TIP3    H243150   0.378   1.940   4.920
14403TIP3   OH243151   7.676   5.342   4.762
14403TIP3    H143152   7.759   5.354   4.808
14403TIP3    H243153   7.696   5.358   4.670
14404TIP3   OH243154   4.170   7.687   0.556
14404TIP3    H143155   4.210   7.698   0.470
14404TIP3    H243156   4.239   7.710   0.618
14405TIP3   OH243157   0.230   0.611   1.386
14405TIP3    H143158   0.302   0.662   1.347
14405TIP3    H243159   0.271   0.564   1.459
14406TIP3   OH243160   5.207   7.258   1.376
14406TIP3    H143161   5.281   7.284   1.431
14406TIP3    H243162   5.150   7.210   1.435
14407TIP3   OH243163   3.677   2.380   2.184
14407TIP3    H143164   3.583   2.398   2.196
14407TIP3    H243165   3.719   2.465   2.191
14408TIP3   OH243166   6.547   4.596   0.779
14408TIP3    H143167   6.488   4.535   0.823
14408TIP3    H243168   6.620   4.607   0.840
14409TIP3   OH243169   5.625   2.850   5.433
14409TIP3    H143170   5.596   2.931   5.391
14409TIP3    H243171   5.615   2.867   5.527
14410TIP3   OH243172   5.945   1.142   1.287
14410TIP3    H143173   5.975   1.143   1.378
14410TIP3    H243174   6.001   1.205   1.243
14411TIP3   OH243175   3.844   0.224   3.084
14411TIP3    H143176   3.809   0.273   3.009
14411TIP3    H243177   3.833   0.283   3.158
14412TIP3   OH243178   7.766   1.197   4.568
14412TIP3    H143179   7.685   1.236   4.602
14412TIP3    H243180   7.820   1.182   4.646
14413TIP3   OH243181   1.251   7.728   4.770
14413TIP3    H143182   1.248   7.734   4.675
14413TIP3    H243183   1.276   7.637   4.787
14414TIP3   OH243184   2.059   1.806   1.168
14414TIP3    H143185   1.990   1.763   1.117
14414TIP3    H243186   2.044   1.900   1.152
14415TIP3   OH243187   0.410   1.910   2.903
14415TIP3    H143188   0.345   1.862   2.954
14415TIP3    H243189   0.435   1.983   2.960
14416TIP3   OH243190   3.101   5.431   1.108
14416TIP3    H143191   3.098   5.465   1.198
14416TIP3    H243192   3.159   5.492   1.062
14417TIP3   OH243193   6.001   2.046   1.592
14417TIP3    H143194   5.910   2.021   1.575
14417TIP3    H243195   6.048   1.962   1.599
14418TIP3   OH243196   3.750   7.773   4.938
14418TIP3    H143197   3.723   7.824   5.015
14418TIP3    H243198   3.688   7.798   4.870
14419TIP3   OH243199   3.059   1.202   2.294
14419TIP3    H143200   3.043   1.215   2.387
14419TIP3    H243201   3.012   1.274   2.251
14420TIP3   OH243202   4.438   2.083   2.452
14420TIP3    H143203   4.478   2.004   2.487
14420TIP3    H243204   4.441   2.071   2.357
14421TIP3   OH243205   8.208   3.615   6.440
14421TIP3    H143206   8.121   3.613   6.480
14421TIP3    H243207   8.230   3.523   6.427
14422TIP3   OH243208   4.550   2.129   5.794
14422TIP3    H143209   4.532   2.181   5.715
14422TIP3    H243210   4.469   2.081   5.810
14423TIP3   OH243211   8.060   1.609   1.587
14423TIP3    H143212   8.101   1.661   1.518
14423TIP3    H243213   8.041   1.525   1.547
14424TIP3   OH243214   4.330   6.780   4.930
14424TIP3    H143215   4.411   6.780   4.981
14424TIP3    H243216   4.310   6.873   4.918
14425TIP3   OH243217   3.075   2.491   2.420
14425TIP3    H143218   3.085   2.534   2.505
14425TIP3    H243219   3.140   2.421   2.419
14426TIP3   OH243220   4.450   5.347   0.672
14426TIP3    H143221   4.425   5.341   0.580
14426TIP3    H243222   4.471   5.258   0.697
14427TIP3   OH243223   7.457   0.243   1.234
14427TIP3    H143224   7.365   0.247   1.205
14427TIP3    H243225   7.507   0.255   1.154
14428TIP3   OH243226   6.327   2.957   1.551
14428TIP3    H143227   6.279   2.915   1.479
14428TIP3    H243228   6.310   3.050   1.539
14429TIP3   OH243229   2.006   5.914   6.753
14429TIP3    H143230   2.028   5.829   6.716
14429TIP3    H243231   1.997   5.898   6.847
14430TIP3   OH243232   4.867   1.173   4.298
14430TIP3    H143233   4.775   1.149   4.284
14430TIP3    H243234   4.909   1.159   4.213
14431TIP3   OH243235   2.360   5.504   1.888
14431TIP3    H143236   2.344   5.508   1.794
14431TIP3    H243237   2.295   5.563   1.926
14432TIP3   OH243238   6.262   4.752   0.179
14432TIP3    H143239   6.333   4.710   0.130
14432TIP3    H243240   6.222   4.680   0.227
14433TIP3   OH243241   7.789   7.201   5.511
14433TIP3    H143242   7.881   7.228   5.510
14433TIP3    H243243   7.775   7.167   5.599
14434TIP3   OH243244   7.056   7.212   0.640
14434TIP3    H143245   7.073   7.282   0.703
14434TIP3    H243246   6.966   7.227   0.611
14435TIP3   OH243247   5.049   6.307   4.972
14435TIP3    H143248   5.059   6.366   4.897
14435TIP3    H243249   4.959   6.274   4.965
14436TIP3   OH243250   3.961   3.621   5.191
14436TIP3    H143251   3.946   3.714   5.203
14436TIP3    H243252   4.052   3.608   5.217
14437TIP3   OH243253   4.812   2.003   6.581
14437TIP3    H143254   4.742   1.942   6.560
14437TIP3    H243255   4.842   1.976   6.669
14438TIP3   OH243256   1.720   3.183   4.066
14438TIP3    H143257   1.760   3.112   4.116
14438TIP3    H243258   1.653   3.141   4.013
14439TIP3   OH243259   3.316   5.013   0.588
14439TIP3    H143260   3.344   5.104   0.581
14439TIP3    H243261   3.284   5.004   0.678
14440TIP3   OH243262   8.273   7.317   5.921
14440TIP3    H143263   8.302   7.295   5.832
14440TIP3    H243264   8.184   7.349   5.909
14441TIP3   OH243265   5.852   2.079   3.306
14441TIP3    H143266   5.863   2.021   3.230
14441TIP3    H243267   5.782   2.138   3.280
14442TIP3   OH243268   7.886   1.303   1.193
14442TIP3    H143269   7.807   1.272   1.238
14442TIP3    H243270   7.946   1.229   1.196
14443TIP3   OH243271   1.621   4.867   2.456
14443TIP3    H143272   1.639   4.912   2.538
14443TIP3    H243273   1.527   4.878   2.442
14444TIP3   OH243274   4.545   2.740   3.417
14444TIP3    H143275   4.548   2.658   3.368
14444TIP3    H243276   4.534   2.713   3.509
14445TIP3   OH243277   4.364   0.318   2.108
14445TIP3    H143278   4.422   0.391   2.132
14445TIP3    H243279   4.420   0.241   2.111
14446TIP3   OH243280   1.343   2.100   3.054
14446TIP3    H143281   1.340   2.180   3.106
14446TIP3    H243282   1.398   2.039   3.104
14447TIP3   OH243283   4.505   1.569   0.317
14447TIP3    H143284   4.413   1.548   0.330
14447TIP3    H243285   4.508   1.614   0.233
14448TIP3   OH243286   0.617   7.244   1.683
14448TIP3    H143287   0.544   7.248   1.745
14448TIP3    H243288   0.692   7.218   1.736
14449TIP3   OH243289   4.385   7.373   1.700
14449TIP3    H143290   4.453   7.415   1.648
14449TIP3    H243291   4.432   7.331   1.772
14450TIP3   OH243292   0.526   0.094   2.367
14450TIP3    H143293   0.510   0.185   2.343
14450TIP3    H243294   0.443   0.063   2.401
14451TIP3   OH243295   0.990   2.841   3.884
14451TIP3    H143296   0.951   2.908   3.939
14451TIP3    H243297   1.008   2.886   3.801
14452TIP3   OH243298   4.687   0.609   0.018
14452TIP3    H143299   4.636   0.648   0.088
14452TIP3    H243300   4.765   0.665   0.010
14453TIP3   OH243301   2.274   0.128   5.681
14453TIP3    H143302   2.369   0.137   5.671
14453TIP3    H243303   2.258   0.150   5.773
14454TIP3   OH243304   6.637   4.876   0.630
14454TIP3    H143305   6.702   4.831   0.576
14454TIP3    H243306   6.585   4.927   0.568
14455TIP3   OH243307   6.578   7.207   2.067
14455TIP3    H143308   6.635   7.268   2.115
14455TIP3    H243309   6.636   7.134   2.043
14456TIP3   OH243310   5.851   5.375   4.590
14456TIP3    H143311   5.904   5.431   4.646
14456TIP3    H243312   5.795   5.435   4.540
14457TIP3   OH243313   1.366   5.380   6.560
14457TIP3    H143314   1.382   5.311   6.495
14457TIP3    H243315   1.307   5.441   6.516
14458TIP3   OH243316   2.120   7.440   3.618
14458TIP3    H143317   2.130   7.409   3.707
14458TIP3    H243318   2.210   7.453   3.587
14459TIP3   OH243319   6.409   5.761   3.148
14459TIP3    H143320   6.389   5.770   3.241
14459TIP3    H243321   6.363   5.834   3.106
14460TIP3   OH243322   3.820   2.957   6.130
14460TIP3    H143323   3.864   2.880   6.093
14460TIP3    H243324   3.748   2.920   6.180
14461TIP3   OH243325   5.864   3.744   5.890
14461TIP3    H143326   5.827   3.657   5.886
14461TIP3    H243327   5.822   3.785   5.966
14462TIP3   OH243328   5.194   6.443   0.571
14462TIP3    H143329   5.223   6.471   0.657
14462TIP3    H243330   5.222   6.352   0.564
14463TIP3   OH243331   4.772   6.187   3.153
14463TIP3    H143332   4.804   6.223   3.236
14463TIP3    H243333   4.685   6.152   3.174
14464TIP3   OH243334   0.260   2.211   4.826
14464TIP3    H143335   0.215   2.284   4.868
14464TIP3    H243336   0.346   2.245   4.803
14465TIP3   OH243337   2.126   0.681   6.081
14465TIP3    H143338   2.037   0.704   6.107
14465TIP3    H243339   2.115   0.620   6.008
14466TIP3   OH243340   7.313   1.597   5.371
14466TIP3    H143341   7.261   1.526   5.409
14466TIP3    H243342   7.321   1.661   5.441
14467TIP3   OH243343   2.992   5.245   0.654
14467TIP3    H143344   3.008   5.175   0.590
14467TIP3    H243345   2.982   5.200   0.737
14468TIP3   OH243346   1.873   4.009   0.748
14468TIP3    H143347   1.953   3.964   0.722
14468TIP3    H243348   1.903   4.075   0.811
14469TIP3   OH243349   1.155   5.795   5.782
14469TIP3    H143350   1.196   5.868   5.735
14469TIP3    H243351   1.226   5.731   5.793
14470TIP3   OH243352   4.432   7.581   5.253
14470TIP3    H143353   4.479   7.592   5.170
14470TIP3    H243354   4.345   7.617   5.237
14471TIP3   OH243355   6.609   6.166   1.677
14471TIP3    H143356   6.585   6.076   1.696
14471TIP3    H243357   6.648   6.199   1.758
14472TIP3   OH243358   6.001   1.775   1.226
14472TIP3    H143359   6.000   1.725   1.145
14472TIP3    H243360   6.003   1.709   1.295
14473TIP3   OH243361   7.571   4.555   5.583
14473TIP3    H143362   7.483   4.526   5.558
14473TIP3    H243363   7.618   4.562   5.499
14474TIP3   OH243364   3.985   0.827   4.750
14474TIP3    H143365   3.989   0.876   4.668
14474TIP3    H243366   3.965   0.893   4.816
14475TIP3   OH243367   8.041   2.705   5.305
14475TIP3    H143368   8.133   2.726   5.288
14475TIP3    H243369   8.004   2.683   5.220
14476TIP3   OH243370   5.559   1.581   1.783
14476TIP3    H143371   5.551   1.622   1.697
14476TIP3    H243372   5.512   1.640   1.842
14477TIP3   OH243373   1.130   3.655   5.902
14477TIP3    H143374   1.211   3.626   5.943
14477TIP3    H243375   1.106   3.733   5.951
14478TIP3   OH243376   1.337   6.888   5.675
14478TIP3    H143377   1.272   6.951   5.707
14478TIP3    H243378   1.313   6.805   5.717
14479TIP3   OH243379   5.680   5.950   0.064
14479TIP3    H143380   5.712   5.935   0.153
14479TIP3    H243381   5.734   5.893   0.010
14480TIP3   OH243382   7.894   0.621   6.507
14480TIP3    H143383   7.942   0.668   6.575
14480TIP3    H243384   7.906   0.529   6.529
14481TIP3   OH243385   7.864   7.780   0.845
14481TIP3    H143386   7.918   7.726   0.904
14481TIP3    H243387   7.851   7.725   0.768
14482TIP3   OH243388   3.680   2.175   5.168
14482TIP3    H143389   3.695   2.157   5.260
14482TIP3    H243390   3.631   2.099   5.136
14483TIP3   OH243391   6.704   1.034   5.789
14483TIP3    H143392   6.660   1.117   5.807
14483TIP3    H243393   6.765   1.055   5.718
14484TIP3   OH243394   2.880   7.180   2.959
14484TIP3    H143395   2.925   7.212   3.037
14484TIP3    H243396   2.855   7.259   2.911
14485TIP3   OH243397   3.611   7.314   3.485
14485TIP3    H143398   3.519   7.296   3.505
14485TIP3    H243399   3.657   7.235   3.511
14486TIP3   OH243400   0.894   3.324   1.331
14486TIP3    H143401   0.989   3.327   1.321
14486TIP3    H243402   0.879   3.348   1.422
14487TIP3   OH243403   3.702   3.486   5.034
14487TIP3    H143404   3.782   3.519   5.074
14487TIP3    H243405   3.699   3.393   5.057
14488TIP3   OH243406   7.877   2.727   5.544
14488TIP3    H143407   7.931   2.776   5.607
14488TIP3    H243408   7.940   2.682   5.488
14489TIP3   OH243409   4.520   4.318   1.847
14489TIP3    H143410   4.587   4.267   1.802
14489TIP3    H243411   4.569   4.380   1.900
14490TIP3   OH243412   4.499   4.495   0.465
14490TIP3    H143413   4.546   4.411   0.464
14490TIP3    H243414   4.410   4.473   0.439
14491TIP3   OH243415   1.406   3.284   4.509
14491TIP3    H143416   1.349   3.225   4.559
14491TIP3    H243417   1.464   3.322   4.575
14492TIP3   OH243418   0.695   6.666   4.913
14492TIP3    H143419   0.764   6.726   4.885
14492TIP3    H243420   0.635   6.720   4.964
14493TIP3   OH243421   5.921   6.249   6.226
14493TIP3    H143422   5.924   6.331   6.175
14493TIP3    H243423   6.013   6.229   6.244
14494TIP3   OH243424   4.909   5.513   3.417
14494TIP3    H143425   4.956   5.458   3.480
14494TIP3    H243426   4.935   5.480   3.332
14495TIP3   OH243427   2.086   7.092   5.950
14495TIP3    H143428   2.012   7.148   5.973
14495TIP3    H243429   2.053   7.035   5.881
14496TIP3   OH243430   4.940   2.914   6.250
14496TIP3    H143431   5.009   2.962   6.204
14496TIP3    H243432   4.860   2.934   6.200
14497TIP3   OH243433   6.914   6.678   0.678
14497TIP3    H143434   6.949   6.733   0.607
14497TIP3    H243435   6.886   6.598   0.634
14498TIP3   OH243436   1.099   1.451   4.101
14498TIP3    H143437   1.183   1.474   4.062
14498TIP3    H243438   1.093   1.508   4.178
14499TIP3   OH243439   5.356   3.386   6.657
14499TIP3    H143440   5.298   3.436   6.714
14499TIP3    H243441   5.312   3.301   6.647
14500TIP3   OH243442   4.282   1.855   0.184
14500TIP3    H143443   4.363   1.906   0.189
14500TIP3    H243444   4.266   1.846   0.090
14501TIP3   OH243445   7.268   0.818   5.311
14501TIP3    H143446   7.273   0.723   5.315
14501TIP3    H243447   7.296   0.840   5.222
14502TIP3   OH243448   5.422   5.710   1.429
14502TIP3    H143449   5.334   5.675   1.444
14502TIP3    H243450   5.406   5.793   1.384
14503TIP3   OH243451   6.826   0.616   3.008
14503TIP3    H143452   6.832   0.704   2.972
14503TIP3    H243453   6.738   0.586   2.983
14504TIP3   OH243454   1.545   1.152   4.437
14504TIP3    H143455   1.611   1.215   4.464
14504TIP3    H243456   1.540   1.090   4.510
14505TIP3   OH243457   1.215   4.411   2.423
14505TIP3    H143458   1.296   4.359   2.427
14505TIP3    H243459   1.163   4.369   2.355
14506TIP3   OH243460   0.572   3.890   5.193
14506TIP3    H143461   0.628   3.967   5.197
14506TIP3    H243462   0.491   3.922   5.154
14507TIP3   OH243463   1.129   5.190   0.607
14507TIP3    H143464   1.187   5.126   0.650
14507TIP3    H243465   1.187   5.261   0.582
14508TIP3   OH243466   5.874   7.226   0.305
14508TIP3    H143467   5.843   7.235   0.215
14508TIP3    H243468   5.901   7.314   0.330
14509TIP3   OH243469   0.358   2.075   2.370
14509TIP3    H143470   0.292   2.129   2.415
14509TIP3    H243471   0.355   1.991   2.417
14510TIP3   OH243472   7.530   3.393   4.908
14510TIP3    H143473   7.551   3.337   4.833
14510TIP3    H243474   7.450   3.356   4.945
14511TIP3   OH243475   2.891   3.933   2.054
14511TIP3    H143476   2.872   3.929   2.148
14511TIP3    H243477   2.826   3.874   2.015
14512TIP3   OH243478   2.886   0.542   2.505
14512TIP3    H143479   2.853   0.614   2.453
14512TIP3    H243480   2.808   0.503   2.545
14513TIP3   OH243481   6.851   3.611   2.689
14513TIP3    H143482   6.758   3.608   2.666
14513TIP3    H243483   6.886   3.528   2.656
14514TIP3   OH243484   2.950   0.571   4.838
14514TIP3    H143485   3.028   0.545   4.886
14514TIP3    H243486   2.929   0.495   4.784
14515TIP3   OH243487   3.958   0.034   1.705
14515TIP3    H143488   3.934  -0.058   1.718
14515TIP3    H243489   4.035   0.031   1.649
14516TIP3   OH243490   6.151   4.226   1.935
14516TIP3    H143491   6.110   4.275   2.007
14516TIP3    H243492   6.101   4.252   1.857
14517TIP3   OH243493   6.925   5.018   5.410
14517TIP3    H143494   6.946   4.930   5.442
14517TIP3    H243495   7.009   5.063   5.406
14518TIP3   OH243496   4.603   3.850   2.394
14518TIP3    H143497   4.584   3.923   2.453
14518TIP3    H243498   4.697   3.856   2.378
14519TIP3   OH243499   1.663   5.120   6.000
14519TIP3    H143500   1.739   5.136   6.055
14519TIP3    H243501   1.621   5.043   6.039
14520TIP3   OH243502   5.677   0.328   6.083
14520TIP3    H143503   5.649   0.294   6.168
14520TIP3    H243504   5.701   0.250   6.033
14521TIP3   OH243505   4.545   0.319   1.462
14521TIP3    H143506   4.502   0.315   1.548
14521TIP3    H243507   4.480   0.285   1.401
14522TIP3   OH243508   7.335   6.224   3.167
14522TIP3    H143509   7.316   6.186   3.081
14522TIP3    H243510   7.333   6.318   3.152
14523TIP3   OH243511   1.388   6.228   3.549
14523TIP3    H143512   1.467   6.267   3.587
14523TIP3    H243513   1.317   6.256   3.607
14524TIP3   OH243514   3.251   4.408   1.910
14524TIP3    H143515   3.237   4.429   2.002
14524TIP3    H243516   3.236   4.491   1.864
14525TIP3   OH243517   7.369   7.266   2.443
14525TIP3    H143518   7.400   7.178   2.463
14525TIP3    H243519   7.409   7.322   2.509
14526TIP3   OH243520   2.852   0.661   3.866
14526TIP3    H143521   2.764   0.626   3.854
14526TIP3    H243522   2.909   0.585   3.859
14527TIP3   OH243523   3.431   3.642   6.673
14527TIP3    H143524   3.507   3.672   6.723
14527TIP3    H243525   3.375   3.600   6.738
14528TIP3   OH243526   2.536   3.574   1.850
14528TIP3    H143527   2.615   3.606   1.806
14528TIP3    H243528   2.529   3.482   1.825
14529TIP3   OH243529   0.945   5.613   4.681
14529TIP3    H143530   1.000   5.669   4.626
14529TIP3    H243531   0.910   5.547   4.621
14530TIP3   OH243532   5.641   7.551   0.661
14530TIP3    H143533   5.636   7.495   0.584
14530TIP3    H243534   5.639   7.640   0.626
14531TIP3   OH243535   5.490   5.185   3.414
14531TIP3    H143536   5.404   5.225   3.423
14531TIP3    H243537   5.529   5.229   3.338
14532TIP3   OH243538   0.492   5.816   3.411
14532TIP3    H143539   0.541   5.859   3.341
14532TIP3    H243540   0.423   5.768   3.367
14533TIP3   OH243541   5.970   1.353   4.751
14533TIP3    H143542   5.882   1.318   4.762
14533TIP3    H243543   5.959   1.428   4.693
14534TIP3   OH243544   2.492   2.229   5.136
14534TIP3    H143545   2.573   2.248   5.089
14534TIP3    H243546   2.522   2.195   5.221
14535TIP3   OH243547   5.110   2.064   4.201
14535TIP3    H143548   5.057   2.005   4.254
14535TIP3    H243549   5.122   2.019   4.118
14536TIP3   OH243550   5.003   1.868   5.383
14536TIP3    H143551   5.045   1.847   5.466
14536TIP3    H243552   5.022   1.960   5.369
14537TIP3   OH243553   7.697   4.070   6.614
14537TIP3    H143554   7.752   4.111   6.681
14537TIP3    H243555   7.609   4.105   6.630
14538TIP3   OH243556   7.593   7.285   4.482
14538TIP3    H143557   7.502   7.272   4.510
14538TIP3    H243558   7.645   7.260   4.558
14539TIP3   OH243559   2.075   1.569   2.503
14539TIP3    H143560   2.166   1.587   2.527
14539TIP3    H243561   2.058   1.482   2.539
14540TIP3   OH243562   4.626   4.248   0.522
14540TIP3    H143563   4.705   4.210   0.483
14540TIP3    H243564   4.628   4.221   0.613
14541TIP3   OH243565   2.618   3.767   5.978
14541TIP3    H143566   2.564   3.688   5.985
14541TIP3    H243567   2.555   3.839   5.977
14542TIP3   OH243568   4.138   3.377   2.286
14542TIP3    H143569   4.218   3.411   2.326
14542TIP3    H243570   4.070   3.441   2.309
14543TIP3   OH243571   2.535   3.664   5.711
14543TIP3    H143572   2.494   3.618   5.784
14543TIP3    H243573   2.610   3.708   5.749
14544TIP3   OH243574   5.734   1.917   0.658
14544TIP3    H143575   5.779   1.944   0.578
14544TIP3    H243576   5.678   1.991   0.681
14545TIP3   OH243577   2.337   2.416   5.242
14545TIP3    H143578   2.379   2.366   5.172
14545TIP3    H243579   2.406   2.432   5.305
14546TIP3   OH243580   3.003   2.385   6.403
14546TIP3    H143581   2.994   2.475   6.433
14546TIP3    H243582   2.929   2.339   6.441
14547TIP3   OH243583   2.011   6.575   0.467
14547TIP3    H143584   2.045   6.663   0.479
14547TIP3    H243585   2.002   6.540   0.555
14548TIP3   OH243586   2.068   5.873   4.015
14548TIP3    H143587   2.129   5.860   3.942
14548TIP3    H243588   1.989   5.909   3.974
14549TIP3   OH243589   7.350   2.436   4.644
14549TIP3    H143590   7.425   2.457   4.588
14549TIP3    H243591   7.301   2.371   4.595
14550TIP3   OH243592   3.741   5.304   6.742
14550TIP3    H143593   3.681   5.238   6.778
14550TIP3    H243594   3.781   5.262   6.666
14551TIP3   OH243595   5.338   4.496   6.032
14551TIP3    H143596   5.425   4.519   6.065
14551TIP3    H243597   5.334   4.535   5.945
14552TIP3   OH243598   2.505   3.713   2.404
14552TIP3    H143599   2.457   3.778   2.455
14552TIP3    H243600   2.441   3.646   2.382
14553TIP3   OH243601   4.071   0.933   5.874
14553TIP3    H143602   4.036   0.845   5.860
14553TIP3    H243603   4.036   0.985   5.801
14554TIP3   OH243604   7.421   4.083   1.022
14554TIP3    H143605   7.340   4.105   1.068
14554TIP3    H243606   7.464   4.018   1.078
14555TIP3   OH243607   2.506   5.639   3.039
14555TIP3    H143608   2.574   5.572   3.046
14555TIP3    H243609   2.466   5.642   3.126
14556TIP3   OH243610   3.844   7.790   5.272
14556TIP3    H143611   3.755   7.822   5.257
14556TIP3    H243612   3.832   7.707   5.318
14557TIP3   OH243613   7.379   3.795   0.668
14557TIP3    H143614   7.392   3.772   0.760
14557TIP3    H243615   7.362   3.889   0.668
14558TIP3   OH243616   0.114   4.866   2.018
14558TIP3    H143617   0.175   4.793   2.007
14558TIP3    H243618   0.113   4.910   1.933
14559TIP3   OH243619   5.010   3.296   2.269
14559TIP3    H143620   4.992   3.322   2.178
14559TIP3    H243621   4.926   3.302   2.313
14560TIP3   OH243622   3.179   0.661   1.988
14560TIP3    H143623   3.246   0.710   2.036
14560TIP3    H243624   3.163   0.713   1.909
14561TIP3   OH243625   2.888   2.701   3.766
14561TIP3    H143626   2.949   2.771   3.790
14561TIP3    H243627   2.890   2.700   3.670
14562TIP3   OH243628   0.588   6.059   0.155
14562TIP3    H143629   0.523   6.129   0.158
14562TIP3    H243630   0.538   5.979   0.169
14563TIP3   OH243631   4.369   2.534   3.066
14563TIP3    H143632   4.407   2.532   2.978
14563TIP3    H243633   4.275   2.541   3.050
14564TIP3   OH243634   1.156   6.912   2.070
14564TIP3    H143635   1.214   6.973   2.114
14564TIP3    H243636   1.192   6.905   1.981
14565TIP3   OH243637   6.020   4.437   6.760
14565TIP3    H143638   6.114   4.445   6.744
14565TIP3    H243639   6.005   4.344   6.774
14566TIP3   OH243640   0.302   6.983   4.234
14566TIP3    H143641   0.263   6.902   4.267
14566TIP3    H243642   0.391   6.958   4.209
14567TIP3   OH243643   6.766   1.339   4.332
14567TIP3    H143644   6.764   1.319   4.239
14567TIP3    H243645   6.858   1.326   4.358
14568TIP3   OH243646   4.571   5.217   1.295
14568TIP3    H143647   4.498   5.166   1.331
14568TIP3    H243648   4.534   5.262   1.219
14569TIP3   OH243649   7.462   3.850   6.500
14569TIP3    H143650   7.504   3.821   6.581
14569TIP3    H243651   7.494   3.788   6.434
14570TIP3   OH243652   4.781   7.782   6.288
14570TIP3    H143653   4.689   7.763   6.269
14570TIP3    H243654   4.818   7.808   6.203
14571TIP3   OH243655   0.735   1.999   4.198
14571TIP3    H143656   0.783   1.918   4.181
14571TIP3    H243657   0.748   2.052   4.120
14572TIP3   OH243658   3.896   2.066   5.350
14572TIP3    H143659   3.988   2.038   5.349
14572TIP3    H243660   3.859   2.027   5.270
14573TIP3   OH243661   7.834   7.194   3.186
14573TIP3    H143662   7.770   7.130   3.154
14573TIP3    H243663   7.783   7.271   3.209
14574TIP3   OH243664   1.632   4.561   2.306
14574TIP3    H143665   1.627   4.612   2.225
14574TIP3    H243666   1.651   4.626   2.373
14575TIP3   OH243667   5.061   5.405   6.313
14575TIP3    H143668   5.017   5.321   6.301
14575TIP3    H243669   5.087   5.406   6.405
14576TIP3   OH243670   3.605   5.329   0.704
14576TIP3    H143671   3.624   5.253   0.758
14576TIP3    H243672   3.518   5.358   0.732
14577TIP3   OH243673   6.732   0.309   0.660
14577TIP3    H143674   6.776   0.393   0.675
14577TIP3    H243675   6.640   0.333   0.645
14578TIP3   OH243676   5.651   2.732   1.565
14578TIP3    H143677   5.591   2.710   1.637
14578TIP3    H243678   5.595   2.734   1.487
14579TIP3   OH243679   3.744   4.786   4.895
14579TIP3    H143680   3.785   4.867   4.866
14579TIP3    H243681   3.686   4.811   4.967
14580TIP3   OH243682   4.030   4.695   5.659
14580TIP3    H143683   4.080   4.615   5.676
14580TIP3    H243684   3.939   4.666   5.657
14581TIP3   OH243685   4.991   2.949   1.110
14581TIP3    H143686   5.033   2.884   1.166
14581TIP3    H243687   5.052   3.023   1.109
14582TIP3   OH243688   6.581   7.107   6.039
14582TIP3    H143689   6.493   7.074   6.021
14582TIP3    H243690   6.601   7.164   5.964
14583TIP3   OH243691   5.938   0.458   0.696
14583TIP3    H143692   5.877   0.473   0.768
14583TIP3    H243693   5.897   0.500   0.621
14584TIP3   OH243694   3.550   1.555   4.083
14584TIP3    H143695   3.541   1.462   4.103
14584TIP3    H243696   3.564   1.559   3.989
14585TIP3   OH243697   3.184   3.609   1.560
14585TIP3    H143698   3.143   3.563   1.487
14585TIP3    H243699   3.231   3.540   1.607
14586TIP3   OH243700   5.087   6.396   6.417
14586TIP3    H143701   5.122   6.317   6.459
14586TIP3    H243702   5.082   6.460   6.488
14587TIP3   OH243703   6.735   0.663   4.338
14587TIP3    H143704   6.745   0.730   4.406
14587TIP3    H243705   6.717   0.713   4.258
14588TIP3   OH243706   4.228   0.404   0.351
14588TIP3    H143707   4.213   0.494   0.323
14588TIP3    H243708   4.298   0.411   0.416
14589TIP3   OH243709   0.793   5.265   4.309
14589TIP3    H143710   0.885   5.263   4.285
14589TIP3    H243711   0.789   5.325   4.384
14590TIP3   OH243712   1.296   4.475   4.548
14590TIP3    H143713   1.204   4.503   4.551
14590TIP3    H243714   1.295   4.395   4.495
14591TIP3   OH243715   0.633   3.483   4.028
14591TIP3    H143716   0.605   3.574   4.024
14591TIP3    H243717   0.578   3.437   3.965
14592TIP3   OH243718   7.625   7.092   1.841
14592TIP3    H143719   7.554   7.156   1.829
14592TIP3    H243720   7.703   7.146   1.853
14593TIP3   OH243721   2.713   3.114   2.129
14593TIP3    H143722   2.775   3.146   2.064
14593TIP3    H243723   2.738   3.023   2.143
14594TIP3   OH243724   5.528   6.186   0.603
14594TIP3    H143725   5.501   6.095   0.621
14594TIP3    H243726   5.471   6.239   0.659
14595TIP3   OH243727   4.131   5.601   1.094
14595TIP3    H143728   4.204   5.587   1.154
14595TIP3    H243729   4.102   5.691   1.112
14596TIP3   OH243730   2.999   4.129   0.668
14596TIP3    H143731   3.055   4.058   0.699
14596TIP3    H243732   2.993   4.189   0.742
14597TIP3   OH243733   7.808   7.492   4.389
14597TIP3    H143734   7.717   7.461   4.388
14597TIP3    H243735   7.810   7.557   4.459
14598TIP3   OH243736   0.994   0.462   2.481
14598TIP3    H143737   1.000   0.547   2.524
14598TIP3    H243738   0.958   0.481   2.394
14599TIP3   OH243739   0.288   1.914   6.591
14599TIP3    H143740   0.278   1.993   6.538
14599TIP3    H243741   0.349   1.939   6.660
14600TIP3   OH243742   8.137   5.633   1.138
14600TIP3    H143743   8.141   5.728   1.123
14600TIP3    H243744   8.208   5.615   1.199
14601TIP3   OH243745   7.025   7.386   6.002
14601TIP3    H143746   7.050   7.471   6.039
14601TIP3    H243747   6.948   7.359   6.052
14602TIP3   OH243748   2.463   6.967   3.409
14602TIP3    H143749   2.371   6.942   3.402
14602TIP3    H243750   2.495   6.919   3.485
14603TIP3   OH243751   6.335   7.091   1.006
14603TIP3    H143752   6.361   7.159   1.067
14603TIP3    H243753   6.411   7.034   0.999
14604TIP3   OH243754   1.422   2.465   6.234
14604TIP3    H143755   1.451   2.516   6.159
14604TIP3    H243756   1.328   2.452   6.220
14605TIP3   OH243757   5.902   5.575   4.187
14605TIP3    H143758   5.933   5.628   4.261
14605TIP3    H243759   5.973   5.578   4.123
14606TIP3   OH243760   5.135   3.892   4.047
14606TIP3    H143761   5.200   3.915   3.981
14606TIP3    H243762   5.052   3.886   3.999
14607TIP3   OH243763   1.327   6.223   5.009
14607TIP3    H143764   1.327   6.229   5.105
14607TIP3    H243765   1.360   6.134   4.992
14608TIP3   OH243766   0.315   0.382   0.132
14608TIP3    H143767   0.334   0.401   0.224
14608TIP3    H243768   0.274   0.463   0.099
14609TIP3   OH243769   3.465   2.250   0.688
14609TIP3    H143770   3.431   2.177   0.740
14609TIP3    H243771   3.512   2.208   0.616
14610TIP3   OH243772   4.137   4.048   4.852
14610TIP3    H143773   4.166   3.961   4.880
14610TIP3    H243774   4.218   4.100   4.850
14611TIP3   OH243775   6.220   7.352   3.817
14611TIP3    H143776   6.262   7.417   3.874
14611TIP3    H243777   6.146   7.319   3.869
14612TIP3   OH243778   2.880   0.908   5.916
14612TIP3    H143779   2.827   0.880   5.991
14612TIP3    H243780   2.946   0.965   5.955
14613TIP3   OH243781   1.882   7.294   2.692
14613TIP3    H143782   1.962   7.336   2.722
14613TIP3    H243783   1.895   7.201   2.709
14614TIP3   OH243784   7.996   4.836   2.432
14614TIP3    H143785   8.047   4.836   2.351
14614TIP3    H243786   7.978   4.929   2.448
14615TIP3   OH243787   7.944   2.940   5.035
14615TIP3    H143788   7.863   2.989   5.020
14615TIP3    H243789   7.949   2.930   5.130
14616TIP3   OH243790   2.145   3.313   5.731
14616TIP3    H143791   2.153   3.220   5.751
14616TIP3    H243792   2.218   3.332   5.672
14617TIP3   OH243793   2.346   7.121   2.422
14617TIP3    H143794   2.408   7.052   2.398
14617TIP3    H243795   2.386   7.163   2.498
14618TIP3   OH243796   0.358   0.129   3.790
14618TIP3    H143797   0.447   0.115   3.822
14618TIP3    H243798   0.318   0.042   3.790
14619TIP3   OH243799   1.039   6.829   2.919
14619TIP3    H143800   1.082   6.898   2.869
14619TIP3    H243801   1.110   6.776   2.954
14620TIP3   OH243802   1.366   1.872   1.665
14620TIP3    H143803   1.298   1.917   1.615
14620TIP3    H243804   1.341   1.780   1.663
14621TIP3   OH243805   2.136   2.123   3.453
14621TIP3    H143806   2.157   2.205   3.409
14621TIP3    H243807   2.219   2.076   3.458
14622TIP3   OH243808   6.516   3.546   2.256
14622TIP3    H143809   6.485   3.502   2.177
14622TIP3    H243810   6.578   3.612   2.224
14623TIP3   OH243811   7.309   3.719   3.660
14623TIP3    H143812   7.366   3.701   3.585
14623TIP3    H243813   7.239   3.773   3.625
14624TIP3   OH243814   1.226   2.122   1.632
14624TIP3    H143815   1.151   2.062   1.639
14624TIP3    H243816   1.248   2.143   1.722
14625TIP3   OH243817   8.154   6.946   0.786
14625TIP3    H143818   8.088   6.882   0.813
14625TIP3    H243819   8.198   6.970   0.868
14626TIP3   OH243820   1.190   0.707   6.424
14626TIP3    H143821   1.241   0.715   6.343
14626TIP3    H243822   1.146   0.622   6.416
14627TIP3   OH243823   6.361   4.482   3.010
14627TIP3    H143824   6.383   4.389   3.014
14627TIP3    H243825   6.432   4.521   2.958
14628TIP3   OH243826   1.623   3.432   4.131
14628TIP3    H143827   1.665   3.469   4.053
14628TIP3    H243828   1.648   3.340   4.131
14629TIP3   OH243829   7.928   0.839   0.939
14629TIP3    H143830   7.917   0.897   0.863
14629TIP3    H243831   7.913   0.896   1.014
14630TIP3   OH243832   8.104   6.177   0.400
14630TIP3    H143833   8.192   6.194   0.434
14630TIP3    H243834   8.052   6.251   0.432
14631TIP3   OH243835   4.942   4.595   2.420
14631TIP3    H143836   5.034   4.587   2.445
14631TIP3    H243837   4.938   4.555   2.333
14632TIP3   OH243838   6.208   6.368   2.575
14632TIP3    H143839   6.201   6.460   2.601
14632TIP3    H243840   6.286   6.337   2.620
14633TIP3   OH243841   5.769   0.708   3.619
14633TIP3    H143842   5.696   0.661   3.579
14633TIP3    H243843   5.799   0.650   3.690
14634TIP3   OH243844   2.329   4.380   2.943
14634TIP3    H143845   2.246   4.428   2.941
14634TIP3    H243846   2.380   4.425   3.011
14635TIP3   OH243847   3.486   2.376   5.226
14635TIP3    H143848   3.533   2.296   5.203
14635TIP3    H243849   3.462   2.414   5.141
14636TIP3   OH243850   0.653   1.571   4.852
14636TIP3    H143851   0.717   1.629   4.893
14636TIP3    H243852   0.698   1.537   4.774
14637TIP3   OH243853   7.212   2.007   4.551
14637TIP3    H143854   7.250   1.973   4.631
14637TIP3    H243855   7.163   1.934   4.514
14638TIP3   OH243856   4.990   7.720   1.361
14638TIP3    H143857   4.981   7.815   1.357
14638TIP3    H243858   4.939   7.695   1.438
14639TIP3   OH243859   0.266   2.631   4.724
14639TIP3    H143860   0.206   2.590   4.661
14639TIP3    H243861   0.283   2.718   4.688
14640TIP3   OH243862   7.430   5.279   4.591
14640TIP3    H143863   7.417   5.212   4.658
14640TIP3    H243864   7.470   5.353   4.637
14641TIP3   OH243865   0.889   0.736   2.153
14641TIP3    H143866   0.831   0.795   2.105
14641TIP3    H243867   0.834   0.699   2.221
14642TIP3   OH243868   2.952   1.401   5.321
14642TIP3    H143869   2.937   1.340   5.393
14642TIP3    H243870   3.047   1.403   5.310
14643TIP3   OH243871   1.150   0.878   2.098
14643TIP3    H143872   1.129   0.969   2.114
14643TIP3    H243873   1.066   0.834   2.090
14644TIP3   OH243874   2.144   0.468   2.137
14644TIP3    H143875   2.086   0.435   2.206
14644TIP3    H243876   2.106   0.434   2.056
14645TIP3   OH243877   0.844   6.523   6.176
14645TIP3    H143878   0.910   6.456   6.197
14645TIP3    H243879   0.761   6.482   6.202
14646TIP3   OH243880   5.905   1.912   2.839
14646TIP3    H143881   5.948   1.829   2.816
14646TIP3    H243882   5.889   1.905   2.933
14647TIP3   OH243883   7.336   7.371   0.592
14647TIP3    H143884   7.384   7.450   0.565
14647TIP3    H243885   7.399   7.300   0.579
14648TIP3   OH243886   6.502   3.728   1.014
14648TIP3    H143887   6.451   3.667   0.960
14648TIP3    H243888   6.593   3.713   0.987
14649TIP3   OH243889   0.133   5.721   5.154
14649TIP3    H143890   0.229   5.723   5.153
14649TIP3    H243891   0.110   5.644   5.102
14650TIP3   OH243892   7.619   0.998   1.026
14650TIP3    H143893   7.661   1.042   0.952
14650TIP3    H243894   7.527   1.024   1.019
14651TIP3   OH243895   6.866   3.795   0.468
14651TIP3    H143896   6.924   3.836   0.404
14651TIP3    H243897   6.919   3.725   0.507
14652TIP3   OH243898   7.316   3.490   2.698
14652TIP3    H143899   7.252   3.486   2.770
14652TIP3    H243900   7.339   3.583   2.692
14653TIP3   OH243901   3.749   7.631   4.595
14653TIP3    H143902   3.674   7.671   4.550
14653TIP3    H243903   3.718   7.546   4.624
14654TIP3   OH243904   6.267   2.674   4.056
14654TIP3    H143905   6.323   2.602   4.082
14654TIP3    H243906   6.179   2.646   4.080
14655TIP3   OH243907   2.675   7.683   1.768
14655TIP3    H143908   2.703   7.763   1.724
14655TIP3    H243909   2.588   7.704   1.802
14656TIP3   OH243910   3.094   1.986   4.962
14656TIP3    H143911   3.171   2.028   5.000
14656TIP3    H243912   3.125   1.948   4.880
14657TIP3   OH243913   0.050   0.846   4.215
14657TIP3    H143914  -0.030   0.891   4.240
14657TIP3    H243915   0.088   0.816   4.298
14658TIP3   OH243916   7.299   4.635   5.901
14658TIP3    H143917   7.265   4.569   5.962
14658TIP3    H243918   7.321   4.710   5.956
14659TIP3   OH243919   0.445   4.933   2.614
14659TIP3    H143920   0.492   5.001   2.566
14659TIP3    H243921   0.413   4.977   2.693
14660TIP3   OH243922   0.550   6.825   6.117
14660TIP3    H143923   0.479   6.760   6.120
14660TIP3    H243924   0.610   6.798   6.186
14661TIP3   OH243925   1.694   0.892   5.058
14661TIP3    H143926   1.743   0.974   5.058
14661TIP3    H243927   1.720   0.849   4.976
14662TIP3   OH243928   5.629   4.241   2.836
14662TIP3    H143929   5.577   4.200   2.766
14662TIP3    H243930   5.717   4.208   2.823
14663TIP3   OH243931   4.645   5.543   4.589
14663TIP3    H143932   4.557   5.516   4.562
14663TIP3    H243933   4.702   5.471   4.562
14664TIP3   OH243934   4.481   4.664   5.516
14664TIP3    H143935   4.574   4.644   5.511
14664TIP3    H243936   4.449   4.650   5.427
14665TIP3   OH243937   8.205   0.520   5.601
14665TIP3    H143938   8.116   0.551   5.581
14665TIP3    H243939   8.230   0.469   5.524
14666TIP3   OH243940   2.942   4.035   2.728
14666TIP3    H143941   2.860   4.084   2.733
14666TIP3    H243942   3.007   4.093   2.769
14667TIP3   OH243943   6.569   1.903   3.751
14667TIP3    H143944   6.512   1.973   3.785
14667TIP3    H243945   6.513   1.826   3.751
14668TIP3   OH243946   4.395   5.014   2.625
14668TIP3    H143947   4.451   4.962   2.567
14668TIP3    H243948   4.382   5.097   2.578
14669TIP3   OH243949   1.029   6.391   4.748
14669TIP3    H143950   0.987   6.428   4.825
14669TIP3    H243951   1.118   6.427   4.750
14670TIP3   OH243952   1.874   7.104   1.254
14670TIP3    H143953   1.788   7.063   1.243
14670TIP3    H243954   1.900   7.082   1.344
14671TIP3   OH243955   0.324   2.323   1.888
14671TIP3    H143956   0.418   2.340   1.874
14671TIP3    H243957   0.318   2.228   1.897
14672TIP3   OH243958   5.267   7.306   1.829
14672TIP3    H143959   5.362   7.296   1.826
14672TIP3    H243960   5.248   7.372   1.762
14673TIP3   OH243961   7.467   6.073   6.034
14673TIP3    H143962   7.455   6.079   5.939
14673TIP3    H243963   7.407   6.003   6.061
14674TIP3   OH243964   4.593   3.480   4.320
14674TIP3    H143965   4.655   3.552   4.310
14674TIP3    H243966   4.533   3.489   4.246
14675TIP3   OH243967   0.154   4.319   3.122
14675TIP3    H143968   0.131   4.404   3.159
14675TIP3    H243969   0.145   4.331   3.027
14676TIP3   OH243970   3.972   6.433   4.919
14676TIP3    H143971   3.985   6.523   4.946
14676TIP3    H243972   3.887   6.432   4.877
14677TIP3   OH243973   6.718   7.052   3.201
14677TIP3    H143974   6.695   7.011   3.117
14677TIP3    H243975   6.717   6.980   3.264
14678TIP3   OH243976   7.304   0.379   4.591
14678TIP3    H143977   7.215   0.392   4.622
14678TIP3    H243978   7.297   0.375   4.496
14679TIP3   OH243979   3.347   2.963   2.813
14679TIP3    H143980   3.399   2.882   2.814
14679TIP3    H243981   3.341   2.986   2.720
14680TIP3   OH243982   2.171   5.961   0.661
14680TIP3    H143983   2.135   6.027   0.602
14680TIP3    H243984   2.151   5.878   0.618
14681TIP3   OH243985   1.070   3.029   0.210
14681TIP3    H143986   1.063   3.123   0.226
14681TIP3    H243987   1.001   3.010   0.146
14682TIP3   OH243988   0.030   2.548   0.337
14682TIP3    H143989   0.040   2.629   0.287
14682TIP3    H243990   0.010   2.577   0.426
14683TIP3   OH243991   2.439   2.839   4.412
14683TIP3    H143992   2.401   2.892   4.343
14683TIP3    H243993   2.493   2.900   4.463
14684TIP3   OH243994   3.705   6.876   4.668
14684TIP3    H143995   3.654   6.953   4.690
14684TIP3    H243996   3.645   6.820   4.619
14685TIP3   OH243997   3.984   1.264   0.444
14685TIP3    H143998   3.950   1.346   0.409
14685TIP3    H243999   3.917   1.235   0.506
14686TIP3   OH244000  -0.021   4.688   4.625
14686TIP3    H144001   0.053   4.641   4.585
14686TIP3    H244002  -0.087   4.620   4.640
14687TIP3   OH244003   1.914   5.639   6.374
14687TIP3    H144004   1.883   5.555   6.339
14687TIP3    H244005   1.842   5.671   6.428
14688TIP3   OH244006   0.971   3.710   3.021
14688TIP3    H144007   0.923   3.634   3.053
14688TIP3    H244008   0.951   3.779   3.084
14689TIP3   OH244009   1.553   1.858   2.821
14689TIP3    H144010   1.585   1.831   2.906
14689TIP3    H244011   1.538   1.777   2.773
14690TIP3   OH244012   2.340   4.325   5.086
14690TIP3    H144013   2.402   4.269   5.132
14690TIP3    H244014   2.375   4.332   4.997
14691TIP3   OH244015   7.897   3.147   3.920
14691TIP3    H144016   7.891   3.241   3.908
14691TIP3    H244017   7.955   3.136   3.994
14692TIP3   OH244018   2.736   7.047   2.589
14692TIP3    H144019   2.796   6.989   2.637
14692TIP3    H244020   2.788   7.126   2.572
14693TIP3   OH244021   4.203   3.781   4.940
14693TIP3    H144022   4.162   3.792   5.026
14693TIP3    H244023   4.291   3.749   4.959
14694TIP3   OH244024   5.125   1.089   1.907
14694TIP3    H144025   5.040   1.116   1.943
14694TIP3    H244026   5.180   1.077   1.985
14695TIP3   OH244027   6.338   3.190   5.335
14695TIP3    H144028   6.337   3.123   5.404
14695TIP3    H244029   6.254   3.178   5.290
14696TIP3   OH244030   0.536   4.575   1.723
14696TIP3    H144031   0.444   4.549   1.730
14696TIP3    H244032   0.580   4.498   1.686
14697TIP3   OH244033   5.420   3.890   4.849
14697TIP3    H144034   5.381   3.851   4.928
14697TIP3    H244035   5.448   3.977   4.877
14698TIP3   OH244036   7.654   5.865   1.758
14698TIP3    H144037   7.711   5.789   1.770
14698TIP3    H244038   7.574   5.830   1.719
14699TIP3   OH244039   1.720   5.242   2.499
14699TIP3    H144040   1.687   5.196   2.422
14699TIP3    H244041   1.710   5.334   2.478
14700TIP3   OH244042   6.962   3.881   5.153
14700TIP3    H144043   6.944   3.970   5.124
14700TIP3    H244044   6.974   3.832   5.072
14701TIP3   OH244045   1.408   3.983   2.630
14701TIP3    H144046   1.415   4.000   2.536
14701TIP3    H244047   1.499   3.975   2.660
14702TIP3   OH244048   7.718   4.028   5.266
14702TIP3    H144049   7.663   4.106   5.271
14702TIP3    H244050   7.728   4.011   5.172
14703TIP3   OH244051   0.032   2.387   4.927
14703TIP3    H144052  -0.016   2.420   4.851
14703TIP3    H244053  -0.034   2.378   4.996
14704TIP3   OH244054   0.357   5.122   4.389
14704TIP3    H144055   0.338   5.049   4.448
14704TIP3    H244056   0.370   5.080   4.304
14705TIP3   OH244057   7.912   7.041   1.066
14705TIP3    H144058   7.895   6.952   1.035
14705TIP3    H244059   7.997   7.064   1.028
14706TIP3   OH244060   5.880   6.657   4.515
14706TIP3    H144061   5.813   6.656   4.583
14706TIP3    H244062   5.932   6.735   4.532
14707TIP3   OH244063   6.650   1.738   4.109
14707TIP3    H144064   6.720   1.677   4.086
14707TIP3    H244065   6.695   1.822   4.122
14708TIP3   OH244066   0.981   4.695   4.346
14708TIP3    H144067   0.892   4.730   4.354
14708TIP3    H244068   0.975   4.635   4.271
14709TIP3   OH244069   5.383   7.318   1.571
14709TIP3    H144070   5.332   7.386   1.614
14709TIP3    H244071   5.473   7.351   1.574
14710TIP3   OH244072   6.493   4.301   3.894
14710TIP3    H144073   6.442   4.376   3.862
14710TIP3    H244074   6.432   4.252   3.949
14711TIP3   OH244075   5.162   7.273   0.179
14711TIP3    H144076   5.217   7.314   0.246
14711TIP3    H244077   5.223   7.245   0.111
14712TIP3   OH244078   3.222   5.272   0.287
14712TIP3    H144079   3.159   5.281   0.216
14712TIP3    H244080   3.292   5.333   0.266
14713TIP3   OH244081   0.754   5.630   0.166
14713TIP3    H144082   0.715   5.592   0.088
14713TIP3    H244083   0.693   5.698   0.193
14714TIP3   OH244084   6.602   3.280   1.458
14714TIP3    H144085   6.641   3.228   1.529
14714TIP3    H244086   6.612   3.371   1.487
14715TIP3   OH244087   3.511   3.050   4.027
14715TIP3    H144088   3.419   3.029   4.013
14715TIP3    H244089   3.511   3.109   4.103
14716TIP3   OH244090   3.932   5.802   2.531
14716TIP3    H144091   3.892   5.801   2.618
14716TIP3    H244092   3.973   5.717   2.522
14717TIP3   OH244093   1.828   6.110   5.307
14717TIP3    H144094   1.753   6.052   5.307
14717TIP3    H244095   1.801   6.184   5.361
14718TIP3   OH244096   2.243   7.307   0.941
14718TIP3    H144097   2.180   7.310   0.868
14718TIP3    H244098   2.244   7.215   0.967
14719TIP3   OH244099   5.334   2.728   3.682
14719TIP3    H144100   5.279   2.659   3.719
14719TIP3    H244101   5.288   2.755   3.602
14720TIP3   OH244102   2.600   4.248   2.218
14720TIP3    H144103   2.683   4.295   2.219
14720TIP3    H244104   2.586   4.223   2.309
14721TIP3   OH244105   6.481   7.297   1.840
14721TIP3    H144106   6.435   7.381   1.844
14721TIP3    H244107   6.501   7.276   1.931
14722TIP3   OH244108   0.994   2.841   0.820
14722TIP3    H144109   1.037   2.925   0.838
14722TIP3    H244110   1.064   2.784   0.791
14723TIP3   OH244111   6.197   5.449   1.387
14723TIP3    H144112   6.221   5.520   1.327
14723TIP3    H244113   6.241   5.470   1.469
14724TIP3   OH244114   2.466   6.361   2.254
14724TIP3    H144115   2.371   6.368   2.257
14724TIP3    H244116   2.482   6.277   2.210
14725TIP3   OH244117   4.697   0.045   5.691
14725TIP3    H144118   4.755   0.078   5.623
14725TIP3    H244119   4.755   0.024   5.764
14726TIP3   OH244120   4.680   6.306   3.934
14726TIP3    H144121   4.769   6.277   3.957
14726TIP3    H244122   4.633   6.225   3.914
14727TIP3   OH244123   6.157   6.129   6.574
14727TIP3    H144124   6.235   6.183   6.573
14727TIP3    H244125   6.179   6.056   6.632
14728TIP3   OH244126   3.951   0.435   4.561
14728TIP3    H144127   3.997   0.507   4.518
14728TIP3    H244128   3.967   0.359   4.505
14729TIP3   OH244129   8.098   4.104   5.100
14729TIP3    H144130   8.064   4.028   5.148
14729TIP3    H244131   8.165   4.069   5.042
14730TIP3   OH244132   4.701   6.574   4.983
14730TIP3    H144133   4.665   6.521   4.911
14730TIP3    H244134   4.795   6.580   4.962
14731TIP3   OH244135   7.154   2.900   3.638
14731TIP3    H144136   7.212   2.825   3.635
14731TIP3    H244137   7.095   2.888   3.563
14732TIP3   OH244138   8.092   2.725   0.067
14732TIP3    H144139   8.054   2.659   0.009
14732TIP3    H244140   8.186   2.706   0.069
14733TIP3   OH244141   0.966   7.151   0.910
14733TIP3    H144142   1.021   7.168   0.833
14733TIP3    H244143   0.894   7.098   0.876
14734TIP3   OH244144   6.576   1.030   6.576
14734TIP3    H144145   6.618   0.963   6.630
14734TIP3    H244146   6.636   1.041   6.502
14735TIP3   OH244147   2.238   1.690   6.448
14735TIP3    H144148   2.169   1.634   6.482
14735TIP3    H244149   2.308   1.683   6.513
14736TIP3   OH244150   1.967   5.673   3.683
14736TIP3    H144151   1.979   5.694   3.590
14736TIP3    H244152   2.036   5.724   3.727
14737TIP3   OH244153   3.276   1.465   1.979
14737TIP3    H144154   3.290   1.430   1.891
14737TIP3    H244155   3.258   1.558   1.965
14738TIP3   OH244156   0.691   1.891   3.153
14738TIP3    H144157   0.702   1.887   3.248
14738TIP3    H244158   0.778   1.869   3.118
14739TIP3   OH244159   2.027   7.053   6.284
14739TIP3    H144160   2.009   6.959   6.288
14739TIP3    H244161   1.961   7.087   6.224
14740TIP3   OH244162   6.301   3.745   2.557
14740TIP3    H144163   6.361   3.673   2.537
14740TIP3    H244164   6.337   3.820   2.510
14741TIP3   OH244165   1.446   0.720   0.569
14741TIP3    H144166   1.439   0.693   0.660
14741TIP3    H244167   1.380   0.669   0.523
14742TIP3   OH244168   4.142   1.867   1.750
14742TIP3    H144169   4.138   1.806   1.824
14742TIP3    H244170   4.099   1.946   1.782
14743TIP3   OH244171   0.278   4.408   2.271
14743TIP3    H144172   0.211   4.471   2.297
14743TIP3    H244173   0.336   4.400   2.347
14744TIP3   OH244174   0.239   7.115   6.643
14744TIP3    H144175   0.278   7.202   6.640
14744TIP3    H244176   0.168   7.122   6.707
14745TIP3   OH244177   5.832   7.564   2.443
14745TIP3    H144178   5.772   7.634   2.470
14745TIP3    H244179   5.804   7.542   2.354
14746TIP3   OH244180   5.726   2.807   3.725
14746TIP3    H144181   5.741   2.846   3.812
14746TIP3    H244182   5.702   2.716   3.743
14747TIP3   OH244183   1.773   4.902   6.512
14747TIP3    H144184   1.712   4.965   6.551
14747TIP3    H244185   1.793   4.939   6.426
14748TIP3   OH244186   3.494   0.292   3.832
14748TIP3    H144187   3.487   0.384   3.856
14748TIP3    H244188   3.408   0.255   3.855
14749TIP3   OH244189   3.711   6.869   6.446
14749TIP3    H144190   3.734   6.790   6.496
14749TIP3    H244191   3.793   6.918   6.439
14750TIP3   OH244192   5.503   5.066   6.398
14750TIP3    H144193   5.439   5.017   6.347
14750TIP3    H244194   5.484   5.042   6.489
14751TIP3   OH244195   0.029   6.601   6.526
14751TIP3    H144196  -0.053   6.610   6.575
14751TIP3    H244197   0.085   6.547   6.583
14752TIP3   OH244198   1.156   4.993   0.181
14752TIP3    H144199   1.209   5.063   0.141
14752TIP3    H244200   1.088   5.040   0.230
14753TIP3   OH244201   4.824   6.591   1.104
14753TIP3    H144202   4.839   6.683   1.125
14753TIP3    H244203   4.899   6.566   1.050
14754TIP3   OH244204   1.586   3.337   6.288
14754TIP3    H144205   1.512   3.277   6.295
14754TIP3    H244206   1.579   3.375   6.200
14755TIP3   OH244207   4.945   5.077   0.899
14755TIP3    H144208   5.034   5.080   0.935
14755TIP3    H244209   4.951   5.019   0.824
14756TIP3   OH244210   6.764   2.756   0.581
14756TIP3    H144211   6.760   2.845   0.546
14756TIP3    H244212   6.729   2.764   0.670
14757TIP3   OH244213   2.587   5.671   4.333
14757TIP3    H144214   2.537   5.726   4.393
14757TIP3    H244215   2.635   5.733   4.278
14758TIP3   OH244216   2.576   6.036   1.925
14758TIP3    H144217   2.531   6.005   1.846
14758TIP3    H244218   2.636   6.103   1.892
14759TIP3   OH244219   4.132   4.720   0.388
14759TIP3    H144220   4.165   4.672   0.464
14759TIP3    H244221   4.197   4.702   0.319
14760TIP3   OH244222   1.197   5.634   6.067
14760TIP3    H144223   1.143   5.711   6.085
14760TIP3    H244224   1.276   5.669   6.025
14761TIP3   OH244225   5.863   1.530   4.557
14761TIP3    H144226   5.875   1.528   4.462
14761TIP3    H244227   5.768   1.533   4.568
14762TIP3   OH244228   1.993   2.275   4.229
14762TIP3    H144229   2.082   2.268   4.193
14762TIP3    H244230   2.004   2.320   4.312
14763TIP3   OH244231   5.215   2.302   6.388
14763TIP3    H144232   5.161   2.226   6.409
14763TIP3    H244233   5.263   2.321   6.468
14764TIP3   OH244234   2.190   3.125   4.756
14764TIP3    H144235   2.170   3.144   4.665
14764TIP3    H244236   2.106   3.101   4.795
14765TIP3   OH244237   0.025   7.674   3.728
14765TIP3    H144238   0.114   7.668   3.692
14765TIP3    H244239   0.022   7.760   3.770
14766TIP3   OH244240   2.323   6.661   2.521
14766TIP3    H144241   2.297   6.712   2.598
14766TIP3    H244242   2.399   6.611   2.549
14767TIP3   OH244243   4.695   3.840   0.788
14767TIP3    H144244   4.633   3.782   0.743
14767TIP3    H244245   4.649   3.866   0.868
14768TIP3   OH244246   8.080   5.414   2.958
14768TIP3    H144247   8.044   5.373   3.037
14768TIP3    H244248   8.004   5.425   2.900
14769TIP3   OH244249   3.070   4.877   1.077
14769TIP3    H144250   2.995   4.916   1.033
14769TIP3    H244251   3.039   4.858   1.165
14770TIP3   OH244252   1.173   6.569   2.163
14770TIP3    H144253   1.114   6.644   2.152
14770TIP3    H244254   1.249   6.591   2.110
14771TIP3   OH244255   4.104   5.184   2.852
14771TIP3    H144256   4.156   5.259   2.879
14771TIP3    H244257   4.014   5.214   2.857
14772TIP3   OH244258   7.188   5.694   3.258
14772TIP3    H144259   7.103   5.725   3.227
14772TIP3    H244260   7.224   5.644   3.184
14773TIP3   OH244261   1.343   6.242   5.316
14773TIP3    H144262   1.262   6.191   5.330
14773TIP3    H244263   1.384   6.244   5.402
14774TIP3   OH244264   0.996   4.196   6.718
14774TIP3    H144265   0.985   4.280   6.672
14774TIP3    H244266   0.964   4.213   6.806
14775TIP3   OH244267   4.928   3.716   2.079
14775TIP3    H144268   5.010   3.746   2.039
14775TIP3    H244269   4.910   3.780   2.148
14776TIP3   OH244270   4.335   4.040   1.208
14776TIP3    H144271   4.419   4.087   1.204
14776TIP3    H244272   4.298   4.063   1.293
14777TIP3   OH244273   3.993   2.137   1.835
14777TIP3    H144274   4.083   2.169   1.827
14777TIP3    H244275   3.964   2.167   1.921
14778TIP3   OH244276   1.197   5.057   5.627
14778TIP3    H144277   1.258   5.048   5.700
14778TIP3    H244278   1.220   4.985   5.568
14779TIP3   OH244279   5.277   2.428   1.065
14779TIP3    H144280   5.312   2.409   1.152
14779TIP3    H244281   5.353   2.448   1.012
14780TIP3   OH244282   6.055   1.467   5.663
14780TIP3    H144283   6.137   1.480   5.616
14780TIP3    H244284   6.076   1.490   5.754
14781TIP3   OH244285   7.106   4.775   4.553
14781TIP3    H144286   7.188   4.821   4.569
14781TIP3    H244287   7.116   4.691   4.599
14782TIP3   OH244288   1.415   0.182   1.953
14782TIP3    H144289   1.411   0.186   2.048
14782TIP3    H244290   1.506   0.162   1.933
14783TIP3   OH244291   5.352   3.204   4.167
14783TIP3    H144292   5.362   3.169   4.078
14783TIP3    H244293   5.358   3.127   4.224
14784TIP3   OH244294   7.324   5.705   4.549
14784TIP3    H144295   7.369   5.631   4.507
14784TIP3    H244296   7.236   5.703   4.512
14785TIP3   OH244297   3.712   4.936   5.707
14785TIP3    H144298   3.734   4.939   5.800
14785TIP3    H244299   3.719   4.843   5.684
14786TIP3   OH244300   2.912   0.767   0.336
14786TIP3    H144301   2.971   0.753   0.262
14786TIP3    H244302   2.824   0.761   0.298
14787TIP3   OH244303   4.723   5.299   4.080
14787TIP3    H144304   4.746   5.273   3.990
14787TIP3    H244305   4.686   5.387   4.071
14788TIP3   OH244306   2.607   1.344   0.694
14788TIP3    H144307   2.683   1.286   0.693
14788TIP3    H244308   2.535   1.290   0.661
14789TIP3   OH244309   3.609   4.735   2.038
14789TIP3    H144310   3.703   4.745   2.055
14789TIP3    H244311   3.603   4.714   1.945
14790TIP3   OH244312   4.926   0.286   3.892
14790TIP3    H144313   4.934   0.376   3.925
14790TIP3    H244314   4.833   0.265   3.904
14791TIP3   OH244315   6.390   6.719   4.157
14791TIP3    H144316   6.429   6.661   4.222
14791TIP3    H244317   6.299   6.691   4.151
14792TIP3   OH244318   3.475   5.219   5.708
14792TIP3    H144319   3.407   5.248   5.647
14792TIP3    H244320   3.427   5.175   5.778
14793TIP3   OH244321   3.350   4.879   1.204
14793TIP3    H144322   3.264   4.858   1.168
14793TIP3    H244323   3.366   4.812   1.270
14794TIP3   OH244324   6.780   1.704   3.791
14794TIP3    H144325   6.701   1.756   3.793
14794TIP3    H244326   6.760   1.626   3.843
14795TIP3   OH244327   8.056   5.707   5.628
14795TIP3    H144328   8.114   5.751   5.691
14795TIP3    H244329   8.011   5.778   5.584
14796TIP3   OH244330   5.380   6.320   2.052
14796TIP3    H144331   5.297   6.358   2.082
14796TIP3    H244332   5.403   6.370   1.974
14797TIP3   OH244333   7.460   0.596   0.774
14797TIP3    H144334   7.512   0.675   0.790
14797TIP3    H244335   7.494   0.531   0.836
14798TIP3   OH244336   4.751   7.036   1.632
14798TIP3    H144337   4.751   7.058   1.725
14798TIP3    H244338   4.752   6.941   1.629
14799TIP3   OH244339   1.990   2.030   2.877
14799TIP3    H144340   2.070   2.071   2.846
14799TIP3    H244341   2.007   1.936   2.872
14800TIP3   OH244342   3.267   0.777   3.783
14800TIP3    H144343   3.213   0.785   3.704
14800TIP3    H244344   3.206   0.745   3.850
14801TIP3   OH244345   8.093   6.587   5.491
14801TIP3    H144346   8.094   6.520   5.423
14801TIP3    H244347   8.185   6.609   5.504
14802TIP3   OH244348   3.964   0.531   1.471
14802TIP3    H144349   3.981   0.604   1.532
14802TIP3    H244350   3.998   0.454   1.516
14803TIP3   OH244351   2.692   1.847   1.248
14803TIP3    H144352   2.725   1.764   1.215
14803TIP3    H244353   2.768   1.905   1.250
14804TIP3   OH244354   1.207   7.377   6.206
14804TIP3    H144355   1.194   7.467   6.234
14804TIP3    H244356   1.127   7.356   6.158
14805TIP3   OH244357   2.955   7.493   0.186
14805TIP3    H144358   2.956   7.580   0.147
14805TIP3    H244359   2.889   7.445   0.136
14806TIP3   OH244360   5.865   6.488   3.601
14806TIP3    H144361   5.871   6.396   3.573
14806TIP3    H244362   5.924   6.535   3.542
14807TIP3   OH244363   1.057   1.428   4.729
14807TIP3    H144364   1.109   1.394   4.656
14807TIP3    H244365   1.117   1.486   4.776
14808TIP3   OH244366   1.757   4.540   0.424
14808TIP3    H144367   1.764   4.463   0.480
14808TIP3    H244368   1.663   4.559   0.421
14809TIP3   OH244369   4.210   6.970   4.697
14809TIP3    H144370   4.188   7.051   4.651
14809TIP3    H244371   4.305   6.976   4.711
14810TIP3   OH244372   4.876   2.606   0.692
14810TIP3    H144373   4.896   2.682   0.639
14810TIP3    H244374   4.801   2.565   0.648
14811TIP3   OH244375   6.665   4.188   1.010
14811TIP3    H144376   6.673   4.252   0.939
14811TIP3    H244377   6.631   4.238   1.084
14812TIP3   OH244378   7.380   5.667   1.346
14812TIP3    H144379   7.323   5.736   1.312
14812TIP3    H244380   7.322   5.615   1.403
14813TIP3   OH244381   4.210   0.982   2.066
14813TIP3    H144382   4.138   0.926   2.097
14813TIP3    H244383   4.284   0.922   2.058
14814TIP3   OH244384   8.044   7.021   6.363
14814TIP3    H144385   7.985   6.961   6.408
14814TIP3    H244386   8.010   7.026   6.274
14815TIP3   OH244387   1.993   7.801   1.364
14815TIP3    H144388   1.954   7.752   1.437
14815TIP3    H244389   2.016   7.886   1.402
   8.29154   7.81734   6.77001   0.00000   0.00000  -2.76385   0.00000  -2.76385  -3.90867
