Title
  120
    1ASP      N    1   1.044   4.047   0.975 -0.5374  0.2187  0.3337
    1ASP    HT1    2   1.102   4.094   1.047 -0.9246  1.1055  0.0833
    1ASP    HT2    3   1.115   4.006   0.912  1.2027  1.8058  1.1508
    1ASP    HT3    4   0.994   3.972   1.028 -0.2516 -0.9938 -1.0383
    1ASP     CA    5   0.946   4.144   0.918 -0.9490 -0.0403  0.3760
    1ASP     HA    6   0.903   4.098   0.831  1.5473 -0.4350 -0.7470
    1ASP     CB    7   0.849   4.177   1.037 -0.6921 -0.2501  0.3527
    1ASP    HB1    8   0.765   4.247   1.016 -1.1970 -1.3637 -1.5235
    1ASP    HB2    9   0.911   4.233   1.110 -2.2515  3.4261 -0.9136
    1ASP     CG   10   0.781   4.055   1.098  1.1097  0.2667 -0.2909
    1ASP    OD1   11   0.690   4.070   1.183 -0.0531 -0.6316  0.2093
    1ASP    OD2   12   0.827   3.944   1.073 -0.6941  0.4240 -0.3213
    1ASP      C   13   1.007   4.276   0.855  0.7719 -0.2925 -0.1042
    1ASP      O   14   1.122   4.315   0.888  0.9943 -0.9578  0.5417
    2ALA      N   15   0.930   4.346   0.770  0.1347 -0.1009  0.3223
    2ALA     HN   16   0.834   4.325   0.754 -0.5626  0.3780  3.2596
    2ALA     CA   17   0.981   4.455   0.687 -0.2904  0.3928  0.7929
    2ALA     HA   18   1.084   4.432   0.665 -1.2312 -3.4135 -0.5037
    2ALA     CB   19   0.912   4.454   0.546 -0.0621  0.0080  0.1636
    2ALA    HB1   20   0.919   4.558   0.509  1.7732 -0.1794 -0.1321
    2ALA    HB2   21   0.804   4.430   0.550  0.2528 -1.3731  2.0289
    2ALA    HB3   22   0.974   4.384   0.485 -0.4014 -1.1148  1.0636
    2ALA      C   23   0.958   4.585   0.756 -0.4063  0.2921 -0.8071
    2ALA      O   24   0.846   4.615   0.796  0.7477  0.4760  0.0051
    3ASP      N   25   1.056   4.669   0.773  0.5654 -0.0603 -0.0658
    3ASP     HN   26   1.149   4.659   0.739  0.0551 -0.8242 -1.2811
    3ASP     CA   27   1.042   4.788   0.846 -0.3061 -0.3653 -0.4255
    3ASP     HA   28   0.973   4.773   0.928  2.3108  0.5906  2.1651
    3ASP     CB   29   1.174   4.813   0.931  0.3798 -0.4912  0.4126
    3ASP    HB1   30   1.192   4.718   0.986 -0.2175 -1.4408 -0.9919
    3ASP    HB2   31   1.159   4.898   1.001 -2.1743  0.6087 -1.3152
    3ASP     CG   32   1.287   4.829   0.834 -0.7077  0.1132  0.2018
    3ASP    OD1   33   1.334   4.725   0.781 -0.0739  0.2766  0.2022
    3ASP    OD2   34   1.323   4.941   0.796  0.1509  0.2319 -0.1917
    3ASP      C   35   0.993   4.911   0.775  0.6591  0.6326 -0.1853
    3ASP      O   36   0.990   4.908   0.658  0.1158 -0.1097 -0.3594
    4GLY      N   37   0.956   5.022   0.845  0.4907  0.0423 -0.4013
    4GLY     HN   38   0.966   5.018   0.945 -0.0096 -0.0035 -0.3504
    4GLY     CA   39   0.921   5.147   0.774 -0.2921 -0.2816 -0.5580
    4GLY    HA1   40   0.837   5.190   0.826  0.2829 -0.2090  0.3291
    4GLY    HA2   41   0.902   5.126   0.670  1.7113  1.7003 -1.4161
    4GLY      C   42   1.020   5.259   0.785  0.0351  0.7320  0.0561
    4GLY      O   43   1.131   5.244   0.837  0.5243  0.2319 -0.7176
    5PRO      N   44   0.984   5.379   0.742 -0.3675  0.0110  0.6555
    5PRO     CD   45   0.860   5.413   0.687  0.4851  0.1274  0.2883
    5PRO    HD1   46   0.767   5.377   0.737 -0.0685  0.4547 -0.4830
    5PRO    HD2   47   0.872   5.390   0.579  2.1794 -1.0924  0.6895
    5PRO     CA   48   1.061   5.506   0.772  1.0539  0.2777  0.3515
    5PRO     HA   49   1.164   5.500   0.740  1.2165  0.3924  0.8441
    5PRO     CB   50   0.991   5.617   0.693  0.5592 -0.2215  0.5662
    5PRO    HB1   51   1.012   5.614   0.585 -0.4305 -2.2238  0.3635
    5PRO    HB2   52   1.014   5.717   0.736 -0.0274 -0.5706  1.7568
    5PRO     CG   53   0.841   5.566   0.704  0.1348  0.2334 -0.2767
    5PRO    HG1   54   0.815   5.597   0.808 -0.4868 -2.0022  0.2844
    5PRO    HG2   55   0.777   5.606   0.622 -0.8823  1.4604  1.0440
    5PRO      C   56   1.069   5.531   0.922 -0.4651  0.3528  0.2666
    5PRO      O   57   0.983   5.485   0.996 -0.0582 -0.1471  0.1077
    6GLY      N   58   1.183   5.590   0.965 -0.0166 -0.2972  0.4419
    6GLY     HN   59   1.259   5.610   0.903 -1.5898  0.7078 -1.2487
    6GLY     CA   60   1.211   5.605   1.107 -0.3645 -0.1872 -0.4505
    6GLY    HA1   61   1.318   5.610   1.124 -0.5719  0.2590  0.8411
    6GLY    HA2   62   1.187   5.507   1.146 -1.5769  0.2629 -0.0440
    6GLY      C   63   1.139   5.716   1.185 -0.1304 -0.1830  0.1040
    6GLY      O   64   1.063   5.787   1.127 -0.0517  0.1168  0.0102
    7ASP      N   65   1.171   5.725   1.313  0.1190  0.3328  0.0702
    7ASP     HN   66   1.242   5.666   1.350  0.2757 -1.1285 -2.3235
    7ASP     CA   67   1.109   5.816   1.401  0.8668 -0.3378 -0.3310
    7ASP     HA   68   1.009   5.839   1.367  0.2734 -2.5529 -0.2176
    7ASP     CB   69   1.106   5.763   1.545 -0.0985 -0.7490 -1.1401
    7ASP    HB1   70   1.094   5.840   1.624  0.6510 -0.3671 -1.3885
    7ASP    HB2   71   1.207   5.725   1.571 -0.0240  0.6081  0.7195
    7ASP     CG   72   1.005   5.654   1.570 -0.6963 -0.4542 -0.2653
    7ASP    OD1   73   0.978   5.631   1.691 -0.0418 -0.0035 -0.1473
    7ASP    OD2   74   0.953   5.595   1.477  0.1351  0.0374  0.6184
    7ASP      C   75   1.192   5.945   1.391 -0.4717 -0.9902 -0.2620
    7ASP      O   76   1.315   5.930   1.370  0.4297 -0.8035 -0.1473
    8PRO      N   77   1.142   6.063   1.410 -0.8076 -0.2719  0.2503
    8PRO     CD   78   0.995   6.086   1.413 -0.6117 -0.3359 -0.2327
    8PRO    HD1   79   0.948   6.048   1.506  1.2436 -1.1364  0.4069
    8PRO    HD2   80   0.947   6.045   1.321  0.4661  0.4828 -1.1952
    8PRO     CA   81   1.223   6.184   1.402  0.3596  0.3122 -0.0156
    8PRO     HA   82   1.301   6.178   1.328 -1.1057 -0.1389 -1.5998
    8PRO     CB   83   1.124   6.289   1.352  0.1119  0.0545  0.3049
    8PRO    HB1   84   1.117   6.302   1.242 -1.3567  1.1253  0.4991
    8PRO    HB2   85   1.148   6.389   1.394  2.1209 -0.5988  0.8296
    8PRO     CG   86   0.985   6.237   1.413 -0.4456 -1.2227 -0.7547
    8PRO    HG1   87   0.982   6.265   1.520  0.4090  0.9697 -1.2425
    8PRO    HG2   88   0.897   6.287   1.368  0.4256  0.6946 -0.4467
    8PRO      C   89   1.299   6.219   1.527  0.1915 -0.5442  0.1128
    8PRO      O   90   1.242   6.219   1.635 -0.6536 -0.2803 -0.3374
    9ASP      N   91   1.432   6.255   1.515 -0.6007 -0.1427  0.2568
    9ASP     HN   92   1.473   6.258   1.425 -2.2762 -2.6277 -0.6949
    9ASP     CA   93   1.512   6.299   1.623 -0.4893  0.0781  0.3107
    9ASP     HA   94   1.469   6.244   1.706 -0.0898  0.0744  0.5156
    9ASP     CB   95   1.659   6.274   1.593  0.2153  0.2247 -0.7795
    9ASP    HB1   96   1.725   6.306   1.676 -2.1283  1.5287  0.6752
    9ASP    HB2   97   1.689   6.337   1.507  0.7324  0.3370 -0.5245
    9ASP     CG   98   1.704   6.136   1.549  0.7604 -0.7187  1.0270
    9ASP    OD1   99   1.754   6.115   1.436 -0.2836  0.0256 -0.1028
    9ASP    OD2  100   1.678   6.045   1.634 -0.6327 -0.3457  0.3562
    9ASP      C  101   1.485   6.442   1.655 -0.4377  0.4624 -0.0593
    9ASP      O  102   1.458   6.528   1.575  0.1594  0.0483 -0.1027
   10ALA      N  103   1.509   6.483   1.783 -0.0531 -0.4363  0.6047
   10ALA     HN  104   1.544   6.413   1.845 -2.5589  0.5417  3.3410
   10ALA     CA  105   1.499   6.622   1.837  0.0467  0.2687 -0.2162
   10ALA     HA  106   1.398   6.655   1.815  0.5240  0.7499 -1.8203
   10ALA     CB  107   1.545   6.605   1.980 -0.3806 -0.4636  0.7070
   10ALA    HB1  108   1.561   6.702   2.031  1.7593 -1.2930  1.7239
   10ALA    HB2  109   1.635   6.541   1.995 -1.3809 -2.5447 -1.3443
   10ALA    HB3  110   1.460   6.561   2.036 -2.1963 -1.3861 -2.4835
   10ALA      C  111   1.576   6.739   1.762 -0.4172  0.3680 -0.1076
   10ALA      O  112   1.669   6.718   1.687 -0.2754 -0.7239  0.6016
   11GLY      N  113   1.529   6.863   1.775 -0.6478  0.5541 -0.3281
   11GLY     HN  114   1.447   6.883   1.827 -2.4607 -0.6541 -2.5390
   11GLY     CA  115   1.579   6.981   1.712  0.5983 -0.1166  0.0452
   11GLY    HA1  116   1.687   6.981   1.716  0.5753  0.9936  1.5370
   11GLY    HA2  117   1.531   7.060   1.768 -0.4978 -0.1084 -0.8648
   11GLY      C  118   1.528   7.001   1.573 -0.1973 -0.1624 -0.7276
   11GLY    OT1  119   1.420   7.063   1.559 -0.7262 -0.1917  0.5186
   11GLY    OT2  120   1.594   6.956   1.475 -0.2616  0.1262 -0.6811
   6.34542   5.98252   5.18101   0.00000   0.00000  -2.11514   0.00000  -2.11514  -2.99126
